FOO
141312
    1MOL0     O    1   9.464   7.220   4.888  0.4228 -0.5633  0.6324
    1MOL0     C    2   9.420   7.109   4.866 -0.7016  0.3147 -0.4649
    1MOL0     O    3   9.487   6.992   4.892 -0.2330 -0.3343  0.7409
    1MOL0     C    4   9.626   6.992   4.912  0.6357  0.2874 -0.3235
    1MOL0     C    5   9.672   6.889   4.999  0.3698 -0.7834  0.3091
    1MOL0     C    6   9.806   6.864   5.020 -0.1879 -0.0414 -0.4289
    1MOL0     C    7   9.904   6.948   4.958  0.2535  0.5774 -0.6228
    1MOL0     O    8  10.041   6.932   4.974 -0.5489 -0.5260  0.2597
    1MOL0     C    9  10.079   6.795   4.991 -0.4104 -0.2541  0.1663
    1MOL0     C   10  10.223   6.786   4.955 -0.5834 -0.1932 -0.1119
    1MOL0     C   11  10.302   6.829   5.080 -0.1910  0.0261 -0.1184
    1MOL0     C   12  10.449   6.834   5.042 -0.3507  0.8979  0.2752
    1MOL0     C   13  10.545   6.872   5.154 -0.2791  0.3791  0.3904
    1MOL0     C   14  10.559   7.019   5.202  0.5353  0.0853  0.9574
    1MOL0     C   15  10.641   7.036   5.338  0.7403  0.0280 -0.3424
    1MOL0     C   16  10.789   6.997   5.330 -0.6335  0.1973 -0.1759
    1MOL0     N   17  10.856   7.036   5.456  0.1992 -0.4518 -0.1957
    1MOL0     C   18  10.920   7.160   5.492  0.1592 -0.6515  0.2779
    1MOL0     C   19  10.959   7.147   5.616  0.0510  0.4174 -0.6307
    1MOL0     C   20  11.028   7.251   5.701 -1.1863  0.6904  0.1962
    1MOL0     C   21  11.178   7.229   5.723  0.4439 -0.4336  0.2877
    1MOL0     C   22  11.207   7.134   5.837 -0.2356  0.2933 -0.9697
    1MOL0     C   23  11.359   7.123   5.855  0.2413 -0.0145  0.1967
    1MOL0     O   24  11.405   7.039   5.966  0.0746  0.6493 -0.2438
    1MOL0     C   25  11.422   6.903   5.950 -0.6123 -0.2679  0.2296
    1MOL0     C   26  11.477   6.835   6.057 -0.0114 -0.1277  0.7956
    1MOL0     C   27  11.490   6.701   6.056  0.2893  0.3172 -0.1031
    1MOL0     C   28  11.530   6.634   6.186 -0.8377  0.7141  0.4420
    1MOL0     C   29  11.449   6.621   5.943 -0.2685 -1.3744 -0.0080
    1MOL0     C   30  11.452   6.476   5.946  1.2783 -0.3648  0.2056
    1MOL0     O   31  11.454   6.423   5.814  1.0281  0.1211  0.3069
    1MOL0     C   32  11.437   6.281   5.807 -0.7695  0.2343 -0.1137
    1MOL0     C   33  11.553   6.196   5.832  0.6074  0.1176 -0.7965
    1MOL0     C   34  11.540   6.059   5.815 -0.3453  0.6577  0.1269
    1MOL0     C   35  11.419   6.005   5.780 -0.6502  0.1868 -0.6361
    1MOL0     O   36  11.417   5.866   5.776  0.2690  0.2040 -0.1288
    1MOL0     C   37  11.384   5.801   5.648  0.0883 -0.2789 -0.3548
    1MOL0     C   38  11.479   5.835   5.530  0.2635 -0.3687  0.4989
    1MOL0     C   39  11.503   5.715   5.424 -0.6240 -0.2752 -0.7492
    1MOL0     C   40  11.576   5.751   5.294 -0.7727 -0.1310  0.1065
    1MOL0     C   41  11.563   5.635   5.200 -0.2780  0.2927  0.0866
    1MOL0     C   42  11.687   5.639   5.106  0.7295 -0.5731  0.4008
    1MOL0     C   43  11.670   5.554   4.983 -0.1782  0.3195  0.0732
    1MOL0     C   44  11.792   5.545   4.892  0.3356 -0.3426 -0.5577
    1MOL0    Cl   45  11.815   5.691   4.800  0.2294 -0.5641 -0.1245
    1MOL0     C   46  11.301   6.083   5.758  0.1350 -0.2366  0.1353
    1MOL0     C   47  11.312   6.220   5.772  1.0632 -0.3297  0.7814
    1MOL0     O   48  11.449   6.410   6.048  0.3212  0.1396  0.3652
    1MOL0     C   49  11.402   6.694   5.835 -0.1718  0.2031 -0.6044
    1MOL0     C   50  11.385   6.830   5.837  0.5482  0.6511 -0.9679
    1MOL0     N   51  10.910   7.021   5.666 -1.0080  0.3314 -0.4957
    1MOL0     N   52  10.859   6.957   5.568  0.2444 -0.2322  0.1148
    1MOL0     C   53   9.863   7.048   4.873  0.0440 -0.2679  0.4871
    1MOL0     C   54   9.724   7.071   4.847 -0.5683 -0.3187  0.1406
    1MOL0     C   55   9.276   7.096   4.835  0.6797 -0.9120 -0.4143
    1MOL0     C   56   9.214   6.983   4.886 -0.5010  1.3064  0.1499
    1MOL0     C   57   9.079   6.960   4.857  0.4261 -0.0859 -0.3025
    1MOL0     C   58   9.010   7.055   4.785 -0.0154  0.0767  0.3936
    1MOL0     O   59   8.879   7.046   4.757 -0.2558 -0.0156 -0.3867
    1MOL0     C   60   8.797   6.940   4.797 -0.3615  0.3643  0.2493
    1MOL0     C   61   8.645   6.989   4.784 -0.4617  0.0058  0.0390
    1MOL0     C   62   8.601   7.041   4.641  0.3824  0.3680  0.0580
    1MOL0     C   63   8.487   7.134   4.645 -0.2352 -0.5930  0.1488
    1MOL0     C   64   8.420   7.153   4.523  0.5998  0.3092  0.2713
    1MOL0     C   65   8.364   7.179   4.420  0.8165  0.2781  0.8355
    1MOL0     C   66   9.068   7.176   4.747 -0.3010  0.0785 -0.3308
    1MOL0     C   67   9.202   7.208   4.777 -0.2973  0.2765  0.0472
    1MOL0     C   68   9.262   7.328   4.720 -0.2092  0.7762 -0.6743
    1MOL0     H   69   9.599   6.822   5.042  0.6626 -0.4691  1.3086
    1MOL0     H   70   9.832   6.781   5.085  1.8728  0.3239 -0.7138
    1MOL0     H   71  10.031   6.738   4.910 -1.2176  1.2276 -0.4309
    1MOL0     H   72  10.056   6.753   5.090  0.3392 -0.8160  0.1103
    1MOL0     H   73  10.243   6.679   4.939  0.3836 -0.0344  0.0029
    1MOL0     H   74  10.252   6.840   4.864 -1.3498  0.9444  0.3016
    1MOL0     H   75  10.269   6.929   5.110  0.1710  1.1111 -3.0366
    1MOL0     H   76  10.289   6.759   5.163 -0.7286  0.5129  0.2177
    1MOL0     H   77  10.478   6.735   5.006  4.3940  2.6911 -1.7637
    1MOL0     H   78  10.458   6.907   4.961 -2.3836  2.1024  1.0499
    1MOL0     H   79  10.645   6.846   5.118  0.1979  0.3889  1.6359
    1MOL0     H   80  10.532   6.801   5.236 -1.7176 -1.2645 -1.1801
    1MOL0     H   81  10.608   7.079   5.126  0.9161  0.6309  1.6224
    1MOL0     H   82  10.457   7.059   5.209  0.4829  1.0512 -3.2190
    1MOL0     H   83  10.587   6.973   5.410  1.2047  2.1357  1.9859
    1MOL0     H   84  10.644   7.139   5.375  2.3698 -0.5902  1.4631
    1MOL0     H   85  10.798   6.890   5.308  1.9519 -0.3113  2.7277
    1MOL0     H   86  10.832   7.043   5.240 -1.6769 -0.9748 -1.3085
    1MOL0     H   87  10.937   7.235   5.415 -1.2528 -1.5652 -0.9833
    1MOL0     H   88  10.988   7.251   5.803 -0.5501  0.5279  0.4499
    1MOL0     H   89  11.003   7.352   5.667 -0.7749  0.2286 -1.5644
    1MOL0     H   90  11.220   7.199   5.627  0.8552  3.9203 -1.1082
    1MOL0     H   91  11.226   7.322   5.757  1.6521 -0.9762  0.1384
    1MOL0     H   92  11.156   7.178   5.923 -0.4869 -2.2466  0.2747
    1MOL0     H   93  11.173   7.037   5.801  1.5459 -0.2957 -1.1269
    1MOL0     H   94  11.418   7.097   5.767  0.2646 -1.1934  0.5465
    1MOL0     H   95  11.388   7.226   5.881 -0.3950  1.1424 -3.2199
    1MOL0     H   96  11.506   6.898   6.140  0.0507  2.7039 -1.2529
    1MOL0     H   97  11.611   6.563   6.168 -2.9776 -1.4827 -1.2443
    1MOL0     H   98  11.442   6.586   6.230 -1.3257  1.1268 -0.0668
    1MOL0     H   99  11.563   6.704   6.262  2.3522 -0.1694 -0.0037
    1MOL0     H  100  11.647   6.235   5.872 -0.6500  0.2511  2.3135
    1MOL0     H  101  11.614   5.982   5.834 -1.1013  0.4083  2.3480
    1MOL0     H  102  11.396   5.694   5.667 -3.8466 -1.0249 -1.3199
    1MOL0     H  103  11.279   5.797   5.619 -0.7780 -1.1328  2.5426
    1MOL0     H  104  11.452   5.929   5.480 -0.0109  0.8081  2.7366
    1MOL0     H  105  11.574   5.863   5.575 -0.7509 -0.8563  3.1243
    1MOL0     H  106  11.407   5.666   5.410  0.1427 -3.7569  3.7846
    1MOL0     H  107  11.558   5.639   5.480  0.7125  1.9294  1.1397
    1MOL0     H  108  11.679   5.784   5.311 -0.5305 -1.4990  1.5455
    1MOL0     H  109  11.523   5.840   5.259  1.2176  0.9109 -0.4080
    1MOL0     H  110  11.557   5.546   5.263 -0.6924  1.2267  1.4055
    1MOL0     H  111  11.472   5.640   5.140  0.3742  1.9776 -0.8522
    1MOL0     H  112  11.770   5.623   5.176 -0.0569 -0.8686  1.2792
    1MOL0     H  113  11.702   5.737   5.061  0.3000  0.4119  2.2975
    1MOL0     H  114  11.583   5.595   4.932 -0.3646  0.0363  0.1604
    1MOL0     H  115  11.636   5.454   5.010  2.4495  0.0787  3.1846
    1MOL0     H  116  11.786   5.461   4.823  0.2078 -1.6574  1.0105
    1MOL0     H  117  11.880   5.534   4.956  0.7749  2.3363 -0.5453
    1MOL0     H  118  11.214   6.048   5.705  2.2779 -4.5027 -0.9972
    1MOL0     H  119  11.226   6.281   5.748  1.5720  0.5481  1.1088
    1MOL0     H  120  11.355   6.650   5.748 -1.0358 -0.0023 -0.0406
    1MOL0     H  121  11.343   6.880   5.750 -1.9199  1.6517  0.6873
    1MOL0     H  122   9.937   7.111   4.824 -1.7616  3.1012  1.7479
    1MOL0     H  123   9.689   7.146   4.777  1.6398  0.4275 -0.2295
    1MOL0     H  124   9.261   6.895   4.926 -2.5290 -1.0696 -2.2980
    1MOL0     H  125   9.032   6.870   4.895  0.7871  0.6532  2.0955
    1MOL0     H  126   8.815   6.852   4.735  0.6228 -1.2896  2.7365
    1MOL0     H  127   8.828   6.930   4.901  0.1860  3.7319  0.5167
    1MOL0     H  128   8.635   7.072   4.854  3.8321  2.7845 -2.2114
    1MOL0     H  129   8.573   6.914   4.818 -0.3476  0.6983  1.9247
    1MOL0     H  130   8.678   7.084   4.577  0.6066 -1.2065 -0.7884
    1MOL0     H  131   8.568   6.946   4.597  0.0593 -1.3742  3.7022
    1MOL0     H  132   8.522   7.236   4.659 -0.0066 -0.7019  0.3617
    1MOL0     H  133   8.420   7.094   4.722 -0.4212  2.4409  1.7345
    1MOL0     H  134   8.319   7.194   4.324  2.2796 -0.7962 -0.0603
    1MOL0     H  135   9.006   7.248   4.696 -1.4883 -0.6537  0.0330
    1MOL0     H  136   9.309   7.305   4.624 -0.2042  2.7948 -1.1826
    1MOL0     H  137   9.180   7.399   4.715 -0.6629  0.2598 -0.7141
    1MOL0     H  138   9.339   7.380   4.777 -1.4428  2.7111 -0.7025
    2MOL0     O  139  10.705   5.642   2.735  0.3127 -0.1032 -0.9688
    2MOL0     C  140  10.688   5.566   2.644 -0.4742  0.0457  0.1562
    2MOL0     O  141  10.776   5.468   2.608 -0.4256 -0.3114  0.4041
    2MOL0     C  142  10.898   5.449   2.672  0.6169 -0.2017 -0.4649
    2MOL0     C  143  10.911   5.453   2.814  0.1291  0.1557  0.7521
    2MOL0     C  144  11.041   5.474   2.873  0.1569  0.2436 -0.0571
    2MOL0     C  145  11.152   5.506   2.788  0.1991  0.5027 -0.4614
    2MOL0     O  146  11.275   5.546   2.840  0.2686  0.6703  0.3848
    2MOL0     C  147  11.372   5.612   2.759  0.0102 -0.7239  0.4728
    2MOL0     C  148  11.488   5.676   2.844  0.0765 -0.1418  0.7560
    2MOL0     C  149  11.559   5.575   2.924  0.7666  0.2975  0.1594
    2MOL0     C  150  11.701   5.618   2.974  0.1476  0.1596 -0.0939
    2MOL0     C  151  11.774   5.494   3.010  0.1885  0.1161  0.5097
    2MOL0     C  152  11.926   5.508   3.010  0.0595  0.0641  0.0937
    2MOL0     C  153  11.988   5.581   3.126  0.5087  0.9942 -0.4592
    2MOL0     C  154  11.984   5.733   3.115  0.6035  0.4932 -1.1613
    2MOL0     N  155  12.081   5.777   3.016 -0.3289  0.1985  0.3739
    2MOL0     C  156  12.215   5.818   3.039  0.1306  0.5250  0.6289
    2MOL0     C  157  12.260   5.838   2.916  0.4814 -0.4962  0.3328
    2MOL0     C  158  12.404   5.866   2.893  0.1166  0.2027  0.8232
    2MOL0     C  159  12.451   5.990   2.963  0.8204 -0.1548 -0.2166
    2MOL0     C  160  12.589   5.998   2.922  0.0354 -1.1777 -0.0977
    2MOL0     C  161  12.675   6.063   3.028 -0.4267 -0.8336 -0.1236
    2MOL0     O  162  12.807   6.090   2.973 -0.0624  0.6084 -0.5580
    2MOL0     C  163  12.902   6.143   3.055  0.3926 -0.0365  0.0154
    2MOL0     C  164  13.021   6.158   3.007 -0.6622  0.2825 -0.0386
    2MOL0     C  165  13.137   6.206   3.075  0.1685 -0.1394  0.7099
    2MOL0     C  166  13.269   6.220   2.995  0.7052 -0.3304 -0.8850
    2MOL0     C  167  13.114   6.262   3.205  0.3979  0.3974 -0.0632
    2MOL0     C  168  13.229   6.307   3.286 -0.3910 -0.4760  0.2207
    2MOL0     O  169  13.196   6.346   3.411 -1.0732 -0.7926 -0.0470
    2MOL0     C  170  13.304   6.352   3.499  0.1571 -0.5406 -0.0462
    2MOL0     C  171  13.379   6.471   3.518  0.2797 -0.1294 -0.1552
    2MOL0     C  172  13.474   6.470   3.616 -0.5490 -0.9532  1.0135
    2MOL0     C  173  13.484   6.375   3.705  0.1444  0.8855  0.5825
    2MOL0     O  174  13.562   6.384   3.824  0.0756 -0.2414  0.4365
    2MOL0     C  175  13.664   6.489   3.837  0.0377 -0.3245 -0.4443
    2MOL0     C  176  13.785   6.485   3.740 -0.0836 -1.5422  0.2027
    2MOL0     C  177  13.852   6.623   3.748  0.6918  0.2972  0.4372
    2MOL0     C  178  14.003   6.618   3.735  0.4325  0.4107  0.3489
    2MOL0     C  179  14.065   6.753   3.713 -0.5086  0.1017  1.1760
    2MOL0     C  180  14.218   6.733   3.719 -0.8279 -0.9722  0.6236
    2MOL0     C  181  14.300   6.865   3.694  0.4061 -0.0645 -0.0715
    2MOL0     C  182  14.448   6.839   3.710  0.8916 -0.4489 -0.9583
    2MOL0    Cl  183  14.545   6.977   3.656 -0.5226  0.3242 -0.1235
    2MOL0     C  184  13.407   6.268   3.699  0.6008  0.9168  0.4390
    2MOL0     C  185  13.323   6.244   3.586  0.6522  0.1073 -0.6697
    2MOL0     O  186  13.344   6.306   3.248 -0.5151  0.3293  1.0336
    2MOL0     C  187  12.982   6.259   3.258  0.4989  0.3615  1.1971
    2MOL0     C  188  12.886   6.191   3.182 -0.1141 -0.3936 -0.7482
    2MOL0     N  189  12.163   5.807   2.818 -0.0549  0.3226  0.1333
    2MOL0     N  190  12.057   5.781   2.881  0.8384 -0.1892 -0.4696
    2MOL0     C  191  11.135   5.494   2.650  0.4269 -0.0455 -0.0591
    2MOL0     C  192  11.018   5.463   2.595  0.3860  0.0168 -0.7162
    2MOL0     C  193  10.556   5.576   2.573 -0.4364  0.9626  0.0033
    2MOL0     C  194  10.513   5.455   2.509  0.5970  0.0469 -0.3719
    2MOL0     C  195  10.378   5.453   2.466  0.1252  0.6009 -0.2229
    2MOL0     C  196  10.281   5.549   2.476 -0.1125 -0.7506  0.4211
    2MOL0     O  197  10.155   5.522   2.432  0.4280 -0.2844  0.0790
    2MOL0     C  198  10.042   5.600   2.480 -0.0753 -0.1818  0.5215
    2MOL0     C  199   9.921   5.551   2.413 -0.0049 -0.3941  0.1908
    2MOL0     C  200   9.802   5.648   2.422  0.3255  0.2208 -0.1098
    2MOL0     C  201   9.668   5.589   2.358  0.2173  0.4420 -0.4495
    2MOL0     C  202   9.554   5.640   2.440 -0.5217  0.0710 -0.3821
    2MOL0     C  203   9.456   5.676   2.502  0.0416 -0.6702 -0.2728
    2MOL0     C  204  10.332   5.668   2.527 -0.4008 -0.4578  0.7651
    2MOL0     C  205  10.471   5.687   2.570 -0.5425 -0.0807  0.3825
    2MOL0     C  206  10.500   5.821   2.628 -0.2948 -0.3841 -0.2255
    2MOL0     H  207  10.828   5.428   2.879 -0.2558 -1.8813 -0.4489
    2MOL0     H  208  11.047   5.481   2.981 -2.2103  1.0672  0.0780
    2MOL0     H  209  11.328   5.696   2.703  1.2714 -0.7996 -0.6837
    2MOL0     H  210  11.409   5.531   2.696  0.5146 -0.7104  0.7475
    2MOL0     H  211  11.569   5.709   2.778 -2.1006 -1.4046 -2.8244
    2MOL0     H  212  11.436   5.757   2.896 -1.2672  0.2078 -1.0554
    2MOL0     H  213  11.501   5.544   3.011  1.2722 -0.9268  0.0848
    2MOL0     H  214  11.570   5.490   2.855  1.8100 -0.0556  0.7390
    2MOL0     H  215  11.759   5.676   2.901 -0.2926 -0.2967 -0.8254
    2MOL0     H  216  11.694   5.678   3.065  1.0996  1.0981 -0.6108
    2MOL0     H  217  11.747   5.412   2.942 -0.5923 -1.1261  2.2347
    2MOL0     H  218  11.729   5.461   3.104 -0.7335 -1.5282 -0.4643
    2MOL0     H  219  11.970   5.408   3.003  4.5003  1.6797  1.7621
    2MOL0     H  220  11.969   5.547   2.917  0.0547  0.6313  0.3279
    2MOL0     H  221  12.091   5.550   3.146  0.1731 -0.6023 -1.0850
    2MOL0     H  222  11.936   5.569   3.221  2.5330  2.6449  0.9523
    2MOL0     H  223  11.883   5.774   3.106  0.3741  1.6922  3.7083
    2MOL0     H  224  12.014   5.763   3.216 -1.6220 -0.1538 -0.2287
    2MOL0     H  225  12.264   5.831   3.135 -0.4374  1.4026  0.8111
    2MOL0     H  226  12.417   5.862   2.785  1.2934 -0.7936  0.9790
    2MOL0     H  227  12.457   5.781   2.938  1.7686  1.5391  1.4915
    2MOL0     H  228  12.398   6.074   2.917  2.7572 -0.4502 -3.3236
    2MOL0     H  229  12.425   6.002   3.068  1.1255  2.2930 -0.3553
    2MOL0     H  230  12.638   5.903   2.898  0.1748 -0.6703 -1.9460
    2MOL0     H  231  12.588   6.053   2.827 -3.7068 -1.1437 -0.1699
    2MOL0     H  232  12.631   6.158   3.059  2.5388  0.9261 -0.8541
    2MOL0     H  233  12.678   6.002   3.119 -0.9578  0.3584  0.7150
    2MOL0     H  234  13.035   6.109   2.911  1.1907  1.2587 -0.3108
    2MOL0     H  235  13.341   6.147   3.032 -0.9818 -1.7229 -0.2197
    2MOL0     H  236  13.306   6.322   3.009 -1.3894  0.4389 -0.5601
    2MOL0     H  237  13.242   6.203   2.890  0.8519  0.0726 -0.9890
    2MOL0     H  238  13.360   6.560   3.458 -0.8449  0.2847  0.7864
    2MOL0     H  239  13.536   6.559   3.616 -2.1065  0.3030 -2.0460
    2MOL0     H  240  13.611   6.583   3.819 -0.9795 -0.5333  1.2702
    2MOL0     H  241  13.694   6.496   3.942 -4.2045 -0.6837  0.9477
    2MOL0     H  242  13.853   6.406   3.773 -0.2915 -1.3628  1.1020
    2MOL0     H  243  13.751   6.474   3.637 -0.5429  2.2459 -0.1809
    2MOL0     H  244  13.827   6.681   3.838 -0.5244  1.9072 -0.8584
    2MOL0     H  245  13.812   6.672   3.658  3.2007  1.0082 -0.3603
    2MOL0     H  246  14.025   6.551   3.651  0.7491 -1.9109  2.1994
    2MOL0     H  247  14.042   6.580   3.829 -0.6094  0.4328  0.8056
    2MOL0     H  248  14.022   6.786   3.618  0.4028  0.8349  0.9954
    2MOL0     H  249  14.036   6.816   3.798  0.1427 -0.6060  1.9363
    2MOL0     H  250  14.248   6.663   3.639 -0.9068 -0.7437  0.3924
    2MOL0     H  251  14.247   6.681   3.811 -1.6593 -1.1660  0.7767
    2MOL0     H  252  14.260   6.946   3.756  0.0411 -0.5421  0.3231
    2MOL0     H  253  14.275   6.886   3.590 -0.2756  0.1399  0.1301
    2MOL0     H  254  14.472   6.746   3.656  1.0415 -0.7838 -0.3328
    2MOL0     H  255  14.473   6.817   3.814 -1.6436 -0.4341 -0.2838
    2MOL0     H  256  13.413   6.200   3.784  1.5522 -1.5811 -1.5064
    2MOL0     H  257  13.264   6.153   3.585  1.2086 -0.3896  2.6368
    2MOL0     H  258  12.957   6.291   3.359 -0.3649 -0.5019  1.2682
    2MOL0     H  259  12.788   6.185   3.228  0.9479 -2.0078  1.4962
    2MOL0     H  260  11.216   5.534   2.590  0.5170  2.2006  1.4542
    2MOL0     H  261  11.003   5.459   2.488  0.8909  0.6239 -0.8233
    2MOL0     H  262  10.572   5.365   2.513  0.5993  0.0660  0.0069
    2MOL0     H  263  10.331   5.367   2.419 -2.7407  2.4097 -0.9341
    2MOL0     H  264  10.032   5.575   2.586  1.3147 -0.0946  0.6914
    2MOL0     H  265  10.047   5.706   2.453 -0.3284 -0.7820 -2.1659
    2MOL0     H  266   9.889   5.453   2.449 -1.4814  0.0330  0.1071
    2MOL0     H  267   9.940   5.523   2.309 -1.2087 -0.3703 -0.0521
    2MOL0     H  268   9.783   5.665   2.529  0.6939  2.0085 -0.2887
    2MOL0     H  269   9.820   5.749   2.383  1.4181  0.4905  1.0108
    2MOL0     H  270   9.677   5.480   2.359  0.0747  0.4311  0.7284
    2MOL0     H  271   9.669   5.623   2.254 -0.4067  0.2525 -0.5195
    2MOL0     H  272   9.390   5.722   2.573 -0.1166  2.5158 -2.2479
    2MOL0     H  273  10.254   5.744   2.522  0.2401  0.2104  0.6601
    2MOL0     H  274  10.534   5.812   2.732  2.0350 -1.4047 -1.0359
    2MOL0     H  275  10.576   5.877   2.574 -2.1594  0.6779 -1.8848
    2MOL0     H  276  10.408   5.881   2.631 -0.6655 -0.9762  0.6592
    3MOL0     O  277   0.476   3.467   5.608  0.2995  0.5968  0.0151
    3MOL0     C  278   0.405   3.504   5.514 -0.4448 -1.3409 -0.0272
    3MOL0     O  279   0.440   3.492   5.389  0.0584  0.6216 -0.2586
    3MOL0     C  280   0.538   3.413   5.338  0.0917  0.9312 -0.2264
    3MOL0     C  281   0.501   3.324   5.240 -0.9311 -0.0055  0.5413
    3MOL0     C  282   0.600   3.248   5.157 -0.1745  0.3073 -0.3156
    3MOL0     C  283   0.729   3.239   5.226 -0.5495 -0.3097  1.1520
    3MOL0     O  284   0.809   3.138   5.184  0.0233  0.5221  0.5952
    3MOL0     C  285   0.955   3.155   5.158 -0.1284 -0.2089  0.3576
    3MOL0     C  286   1.046   3.102   5.266  0.2633 -0.0758 -0.1164
    3MOL0     C  287   1.197   3.086   5.221  0.3384  0.7062 -0.4930
    3MOL0     C  288   1.269   2.999   5.319 -0.5154  0.5913  0.4566
    3MOL0     C  289   1.410   3.009   5.269 -1.0955  0.4085  0.9588
    3MOL0     C  290   1.508   2.925   5.355 -0.3516 -0.5848 -0.5781
    3MOL0     C  291   1.656   2.947   5.317 -0.0129 -0.0067  0.2509
    3MOL0     C  292   1.728   3.071   5.380  0.1452 -0.1820 -0.1908
    3MOL0     N  293   1.803   3.040   5.509  0.3874 -0.3861 -0.0089
    3MOL0     C  294   1.938   3.074   5.524 -0.0619  0.5185 -0.2633
    3MOL0     C  295   1.970   3.023   5.642  0.7537  0.1588 -1.1523
    3MOL0     C  296   2.107   3.030   5.721 -0.2829 -0.3078  0.1316
    3MOL0     C  297   2.154   3.177   5.738 -0.5364 -1.1830 -0.0095
    3MOL0     C  298   2.251   3.219   5.630 -0.0956 -0.3030  0.1038
    3MOL0     C  299   2.286   3.359   5.662 -0.8887  0.5079  0.1849
    3MOL0     O  300   2.365   3.427   5.558  0.1458  0.0535 -0.4329
    3MOL0     C  301   2.496   3.409   5.528 -0.0383 -0.0019 -0.2580
    3MOL0     C  302   2.582   3.338   5.606 -0.5981  0.1885 -0.4577
    3MOL0     C  303   2.722   3.328   5.578 -0.4253 -0.1293  0.7419
    3MOL0     C  304   2.801   3.240   5.673  0.8517 -1.1129 -0.0088
    3MOL0     C  305   2.773   3.391   5.458 -0.2749  0.4845 -0.1624
    3MOL0     C  306   2.920   3.406   5.436 -1.2470 -0.2303  0.4260
    3MOL0     O  307   2.966   3.505   5.348 -0.2949  0.8055 -0.5237
    3MOL0     C  308   3.101   3.523   5.317  0.1262 -0.4724  0.2462
    3MOL0     C  309   3.183   3.441   5.246 -0.0538  0.0148 -0.3626
    3MOL0     C  310   3.314   3.471   5.203  0.0324  1.5436 -0.0640
    3MOL0     C  311   3.358   3.599   5.214 -0.2931 -0.2434  0.4451
    3MOL0     O  312   3.473   3.657   5.161 -0.0647  0.1386  0.2221
    3MOL0     C  313   3.593   3.580   5.143 -0.8887 -0.2708 -0.1797
    3MOL0     C  314   3.700   3.684   5.093 -0.5596 -0.5230  0.1346
    3MOL0     C  315   3.844   3.637   5.095 -0.6540  0.2707 -0.3258
    3MOL0     C  316   3.931   3.735   5.017  0.3323 -0.5298  1.0400
    3MOL0     C  317   4.083   3.701   5.018 -0.0600  0.6400 -0.1133
    3MOL0     C  318   4.187   3.788   4.935  0.9613  0.7531  0.5432
    3MOL0     C  319   4.166   3.801   4.780 -0.4193 -0.0982  0.3460
    3MOL0     C  320   4.174   3.667   4.707  0.5053 -0.0328  0.5565
    3MOL0    Cl  321   4.341   3.594   4.722 -0.9192  0.0994 -0.0874
    3MOL0     C  322   3.283   3.685   5.298 -0.1247  0.3940  0.0377
    3MOL0     C  323   3.163   3.647   5.349 -0.1321  0.4083 -0.5525
    3MOL0     O  324   2.993   3.320   5.482 -0.1920 -0.3786 -0.3175
    3MOL0     C  325   2.687   3.468   5.372 -0.5893  0.5114  0.5111
    3MOL0     C  326   2.553   3.474   5.414  0.2255 -0.7166  0.6443
    3MOL0     N  327   1.855   2.958   5.697 -0.3493  0.1049  0.4409
    3MOL0     N  328   1.758   2.973   5.616  0.0162  0.1609 -0.0933
    3MOL0     C  329   0.755   3.317   5.336 -0.0467 -0.3078 -0.4048
    3MOL0     C  330   0.664   3.406   5.393 -0.5253  0.2622 -0.0282
    3MOL0     C  331   0.293   3.601   5.546 -0.5986  1.5619 -0.2636
    3MOL0     C  332   0.207   3.634   5.439 -0.2297 -0.2444 -0.2178
    3MOL0     C  333   0.114   3.733   5.453 -0.1192 -0.7093  0.0225
    3MOL0     C  334   0.100   3.811   5.570  0.0944  1.2471 -0.7704
    3MOL0     O  335   0.030   3.920   5.569  0.7907 -0.3806 -0.2572
    3MOL0     C  336   0.103   4.027   5.627  0.6272  0.6297  0.2838
    3MOL0     C  337   0.039   4.161   5.581 -0.5692  0.3517  0.5072
    3MOL0     C  338  -0.115   4.164   5.597 -1.1241  0.3155 -0.9835
    3MOL0     C  339  -0.152   4.290   5.659  0.4689  0.4814 -0.7161
    3MOL0     C  340  -0.142   4.410   5.571 -0.8495 -1.1890 -0.3377
    3MOL0     C  341  -0.133   4.516   5.511  0.6424 -0.0048  0.5307
    3MOL0     C  342   0.175   3.772   5.677  0.4565 -0.1022  0.4279
    3MOL0     C  343   0.268   3.669   5.673 -0.3037 -0.2482 -0.5928
    3MOL0     C  344   0.344   3.648   5.800  0.2170  0.8359 -0.1476
    3MOL0     H  345   0.404   3.329   5.191 -1.1620 -1.0747  0.8616
    3MOL0     H  346   0.568   3.187   5.073 -0.5151  0.4850 -0.3169
    3MOL0     H  347   0.974   3.260   5.132 -1.2669 -0.8622 -4.0148
    3MOL0     H  348   0.972   3.092   5.070  1.5081  0.7733 -0.0792
    3MOL0     H  349   1.038   3.165   5.355  1.3716 -1.1789  0.8019
    3MOL0     H  350   1.010   3.002   5.293  1.2897  0.5438  4.2688
    3MOL0     H  351   1.203   3.035   5.124  0.4119 -2.5135  1.0848
    3MOL0     H  352   1.235   3.189   5.219  0.0397  0.8098 -1.6171
    3MOL0     H  353   1.249   3.030   5.423  1.7918  0.5119  0.9796
    3MOL0     H  354   1.235   2.896   5.308 -2.2502  0.9620  1.8056
    3MOL0     H  355   1.442   3.114   5.264 -2.0491  0.6847  0.3618
    3MOL0     H  356   1.419   2.969   5.168 -0.3970  0.7066  0.8999
    3MOL0     H  357   1.506   2.959   5.459 -1.3274  1.7959 -1.3035
    3MOL0     H  358   1.490   2.818   5.362  0.2622 -0.5948  1.6886
    3MOL0     H  359   1.668   2.950   5.209  0.4586 -0.7783  0.2802
    3MOL0     H  360   1.715   2.860   5.348  0.5403 -0.3567 -1.6567
    3MOL0     H  361   1.798   3.119   5.310 -0.0377  1.2799  0.5843
    3MOL0     H  362   1.648   3.140   5.404  0.3965  1.0774 -2.6009
    3MOL0     H  363   2.002   3.129   5.456 -0.8978  1.3388 -0.4122
    3MOL0     H  364   2.192   2.983   5.671  1.8258  1.1432  2.1141
    3MOL0     H  365   2.096   2.989   5.822  0.0123 -0.8203 -0.0439
    3MOL0     H  366   2.067   3.242   5.746  0.0442 -0.4967  0.7413
    3MOL0     H  367   2.196   3.177   5.839 -2.1929  2.0148  0.7753
    3MOL0     H  368   2.342   3.159   5.637 -0.3010 -0.6053  0.1911
    3MOL0     H  369   2.216   3.212   5.526  0.1894 -1.6283  0.0754
    3MOL0     H  370   2.196   3.417   5.685 -1.7461 -0.5027 -0.5434
    3MOL0     H  371   2.350   3.360   5.750 -1.4566  0.3334  0.6014
    3MOL0     H  372   2.548   3.276   5.688 -1.0311 -2.3586 -2.4419
    3MOL0     H  373   2.870   3.167   5.628  1.7336 -0.1259 -0.2887
    3MOL0     H  374   2.741   3.190   5.749  1.5422  1.0573  2.0696
    3MOL0     H  375   2.857   3.305   5.741  1.0113  0.9269 -1.9777
    3MOL0     H  376   3.142   3.341   5.231 -1.0221  0.2980  0.3238
    3MOL0     H  377   3.376   3.395   5.155 -0.2826  1.4367 -0.3002
    3MOL0     H  378   3.626   3.528   5.234  1.1498  0.9655 -0.1670
    3MOL0     H  379   3.567   3.495   5.079 -2.0456  0.8105 -1.2125
    3MOL0     H  380   3.661   3.720   4.997  1.9682  1.6423 -0.1886
    3MOL0     H  381   3.695   3.771   5.158 -2.5878  0.3983 -1.1349
    3MOL0     H  382   3.858   3.536   5.054 -2.7933  0.4138 -1.5388
    3MOL0     H  383   3.874   3.638   5.200 -1.5691  0.7920 -0.0593
    3MOL0     H  384   3.923   3.831   5.068  1.5074  0.5122 -0.6522
    3MOL0     H  385   3.895   3.740   4.914  0.8531  0.0948  0.8871
    3MOL0     H  386   4.106   3.710   5.124 -2.3133  2.6321  0.2954
    3MOL0     H  387   4.116   3.601   4.989  1.9252  0.3449  2.7844
    3MOL0     H  388   4.281   3.734   4.949 -0.2642 -2.1088 -1.4242
    3MOL0     H  389   4.200   3.880   4.994 -0.4962  1.0338  0.4578
    3MOL0     H  390   4.241   3.871   4.742 -2.4067  2.2941  0.5610
    3MOL0     H  391   4.074   3.853   4.749  1.0618  2.7890  0.5017
    3MOL0     H  392   4.137   3.685   4.606  1.9339 -2.1018 -0.4080
    3MOL0     H  393   4.107   3.587   4.740 -1.4255  0.6831 -1.3946
    3MOL0     H  394   3.304   3.791   5.314 -0.4888  0.4951 -0.1498
    3MOL0     H  395   3.105   3.721   5.403 -0.9730  1.2355 -2.4981
    3MOL0     H  396   2.719   3.518   5.281 -1.8874 -1.0057 -0.8358
    3MOL0     H  397   2.486   3.527   5.348  0.4048  0.2638  1.2359
    3MOL0     H  398   0.848   3.309   5.390 -1.6536 -4.5711  2.2412
    3MOL0     H  399   0.691   3.468   5.478  1.2576  1.0046 -1.0770
    3MOL0     H  400   0.208   3.582   5.343  2.4097 -0.4440 -0.1774
    3MOL0     H  401   0.046   3.756   5.372 -0.6013 -0.9957  0.3405
    3MOL0     H  402   0.080   4.022   5.734 -3.3077 -3.2168 -0.4750
    3MOL0     H  403   0.209   4.022   5.600  0.2207  2.0072 -1.7917
    3MOL0     H  404   0.071   4.184   5.479 -1.1183  1.1158  0.5046
    3MOL0     H  405   0.084   4.242   5.640  0.8737  0.2904 -0.4549
    3MOL0     H  406  -0.173   4.154   5.504 -1.1689 -2.0527 -0.7391
    3MOL0     H  407  -0.134   4.085   5.669  1.5785 -1.0706 -1.6538
    3MOL0     H  408  -0.089   4.311   5.746 -2.6263  0.9917  1.5497
    3MOL0     H  409  -0.254   4.281   5.696  0.4611 -1.1901 -1.0845
    3MOL0     H  410  -0.140   4.608   5.456  0.0346  0.6099  1.5910
    3MOL0     H  411   0.168   3.833   5.766 -1.5577 -0.4617  0.5571
    3MOL0     H  412   0.287   3.693   5.882 -3.3923 -2.7609 -0.3966
    3MOL0     H  413   0.343   3.539   5.815 -2.3342  0.9912  1.2919
    3MOL0     H  414   0.449   3.677   5.795  0.6564 -0.8853 -2.5392
    4MOL0     O  415   8.088   3.348   2.968 -0.3066  0.3100 -0.4532
    4MOL0     C  416   7.970   3.320   2.999 -0.0275  0.4151  0.2570
    4MOL0     O  417   7.934   3.282   3.121 -0.4228  0.1966  0.0543
    4MOL0     C  418   8.027   3.278   3.220 -0.2450 -0.4789 -1.3791
    4MOL0     C  419   8.118   3.387   3.246  0.5041  1.0159 -1.1034
    4MOL0     C  420   8.221   3.383   3.343  0.3841 -0.4189  0.5895
    4MOL0     C  421   8.228   3.265   3.415 -0.1265  0.2781 -0.6212
    4MOL0     O  422   8.329   3.232   3.499 -0.6436  0.8491  0.0936
    4MOL0     C  423   8.429   3.325   3.525  0.1909 -0.0525  0.1817
    4MOL0     C  424   8.539   3.268   3.607 -0.4130 -0.8669  0.4128
    4MOL0     C  425   8.635   3.180   3.521  0.0914 -0.2028 -0.5878
    4MOL0     C  426   8.721   3.081   3.601 -0.0624  0.2336  0.8165
    4MOL0     C  427   8.836   3.029   3.522  1.2572  0.0580 -0.3082
    4MOL0     C  428   8.901   2.922   3.605 -0.7221 -0.8289  0.4536
    4MOL0     C  429   8.975   2.827   3.507 -0.8119  0.1021  0.0614
    4MOL0     C  430   9.016   2.708   3.590  0.1958 -0.1161 -0.5076
    4MOL0     N  431   9.135   2.734   3.674  0.5224  0.1533  0.1417
    4MOL0     C  432   9.260   2.723   3.641  0.0034 -0.0611 -0.2975
    4MOL0     C  433   9.320   2.804   3.727 -0.2639  0.2379 -0.2739
    4MOL0     C  434   9.471   2.835   3.735  0.1867  0.0946  0.5989
    4MOL0     C  435   9.539   2.840   3.875  0.1098  0.0632  0.1752
    4MOL0     C  436   9.519   2.721   3.969 -0.0961  0.0438 -0.5751
    4MOL0     C  437   9.546   2.583   3.910  0.0537  0.4740 -0.4744
    4MOL0     O  438   9.684   2.563   3.860 -0.2731  0.0776 -0.5697
    4MOL0     C  439   9.732   2.531   3.734  1.1726  0.4509 -0.7668
    4MOL0     C  440   9.646   2.474   3.641  1.0447 -1.2109  0.0153
    4MOL0     C  441   9.693   2.433   3.519 -0.5437  0.3796 -0.3551
    4MOL0     C  442   9.617   2.336   3.435  0.3559 -1.3773 -0.4238
    4MOL0     C  443   9.836   2.450   3.492  0.3886 -0.4332  0.2442
    4MOL0     C  444   9.896   2.414   3.361  0.8297  0.9281  0.6306
    4MOL0     O  445  10.015   2.355   3.372  0.1531 -0.2446 -0.0677
    4MOL0     C  446  10.055   2.269   3.276  0.9981 -0.1876 -0.7842
    4MOL0     C  447  10.189   2.285   3.232  0.9141  0.0908  0.2577
    4MOL0     C  448  10.236   2.194   3.139  0.1780  0.2552  1.2323
    4MOL0     C  449  10.153   2.088   3.091 -0.0755 -0.1093 -0.9224
    4MOL0     O  450  10.201   1.984   3.004 -0.0350 -0.3060  0.3752
    4MOL0     C  451  10.349   1.958   2.982 -0.5935  0.4522  0.1663
    4MOL0     C  452  10.366   1.854   2.865 -0.3838 -0.0033  0.6964
    4MOL0     C  453  10.513   1.815   2.882 -0.4420  0.2263 -0.1305
    4MOL0     C  454  10.599   1.888   2.785 -0.5680 -0.4854  0.1364
    4MOL0     C  455  10.749   1.838   2.777 -0.1484 -0.8939 -0.1143
    4MOL0     C  456  10.831   1.913   2.669  0.3732  0.6308  1.2323
    4MOL0     C  457  10.956   1.835   2.633  0.1325 -0.1036 -0.1547
    4MOL0     C  458  11.052   1.923   2.542 -0.4544  0.7974  1.2005
    4MOL0    Cl  459  10.984   1.943   2.374  0.3980 -0.2108  0.3985
    4MOL0     C  460  10.019   2.084   3.132 -0.6069  0.9447 -0.5803
    4MOL0     C  461   9.972   2.173   3.224  0.0081  0.9430  0.4224
    4MOL0     O  462   9.835   2.442   3.252 -0.5252 -0.2238  0.1037
    4MOL0     C  463   9.919   2.513   3.583  1.2281 -0.0539  0.2697
    4MOL0     C  464   9.867   2.551   3.705  1.4355  1.4911 -0.1641
    4MOL0     N  465   9.235   2.852   3.829 -0.0170  0.6127 -0.8997
    4MOL0     N  466   9.126   2.802   3.794  0.3683  1.3055 -0.0749
    4MOL0     C  467   8.157   3.150   3.379  1.2428 -0.3837  0.3459
    4MOL0     C  468   8.052   3.156   3.283  0.3793  0.2735 -0.3284
    4MOL0     C  469   7.869   3.317   2.888 -0.2483 -0.4735 -0.3709
    4MOL0     C  470   7.771   3.221   2.893  0.3863 -0.0316 -0.2012
    4MOL0     C  471   7.674   3.207   2.799  1.2477 -0.8599  0.6841
    4MOL0     C  472   7.660   3.298   2.694  0.0231 -0.0650 -0.0154
    4MOL0     O  473   7.552   3.304   2.610 -0.1986  0.2401 -0.7529
    4MOL0     C  474   7.442   3.210   2.628  0.8338  0.3346 -0.2428
    4MOL0     C  475   7.324   3.239   2.526 -0.8055 -0.1470 -0.1433
    4MOL0     C  476   7.381   3.219   2.389  0.1449  1.0624 -0.1322
    4MOL0     C  477   7.294   3.295   2.283  0.5315  0.8032  0.3313
    4MOL0     C  478   7.166   3.219   2.276 -0.3302  0.0759 -0.1557
    4MOL0     C  479   7.069   3.146   2.264 -0.8855 -0.1733  0.6984
    4MOL0     C  480   7.766   3.388   2.683 -0.2249  0.2777  0.1776
    4MOL0     C  481   7.869   3.402   2.778  0.6536 -0.3083 -0.1965
    4MOL0     C  482   7.967   3.513   2.750  0.0883  1.0971 -0.0908
    4MOL0     H  483   8.086   3.478   3.195 -2.0420 -0.4881 -2.4226
    4MOL0     H  484   8.279   3.474   3.356 -1.2192  1.1085 -2.0812
    4MOL0     H  485   8.391   3.411   3.582  1.1727  1.7345 -1.7051
    4MOL0     H  486   8.472   3.358   3.430 -0.8329  1.6286  0.2529
    4MOL0     H  487   8.605   3.347   3.645  1.6163 -1.5006 -1.5886
    4MOL0     H  488   8.498   3.216   3.694 -0.8685  0.6320  1.1248
    4MOL0     H  489   8.579   3.130   3.441 -0.0143 -1.3721  0.1896
    4MOL0     H  490   8.706   3.243   3.466  1.1423 -1.7880 -1.1647
    4MOL0     H  491   8.760   3.136   3.687  0.7436  0.4310  0.3336
    4MOL0     H  492   8.658   3.001   3.640 -2.3859  0.7369 -1.5724
    4MOL0     H  493   8.908   3.107   3.494  0.5305  0.5422 -0.8908
    4MOL0     H  494   8.802   2.987   3.426  0.4123  0.9321 -0.4052
    4MOL0     H  495   8.959   2.969   3.685  0.3429  0.3050 -0.9217
    4MOL0     H  496   8.827   2.862   3.658 -1.7055  1.0872  1.3388
    4MOL0     H  497   9.055   2.867   3.444 -2.9385  0.3347 -2.6679
    4MOL0     H  498   8.903   2.798   3.430  0.1880 -1.6642 -0.2786
    4MOL0     H  499   8.930   2.678   3.651  0.4553 -1.7534 -0.8897
    4MOL0     H  500   9.035   2.621   3.527  0.0421 -2.5771  2.5834
    4MOL0     H  501   9.299   2.690   3.545 -1.5250 -0.2871 -0.8622
    4MOL0     H  502   9.477   2.934   3.690 -1.1108  0.6238  1.5255
    4MOL0     H  503   9.515   2.754   3.677 -0.5365 -1.9817  2.7827
    4MOL0     H  504   9.648   2.852   3.864  0.1283 -0.6054 -0.5138
    4MOL0     H  505   9.487   2.925   3.920  0.2846  0.2465  0.0355
    4MOL0     H  506   9.588   2.738   4.052  1.1222  1.7759 -1.8955
    4MOL0     H  507   9.421   2.720   4.017  0.7399  0.8554  1.2492
    4MOL0     H  508   9.535   2.519   3.998 -1.6497  3.1645  1.4208
    4MOL0     H  509   9.470   2.561   3.834 -0.5122  2.7647 -0.6560
    4MOL0     H  510   9.546   2.440   3.666  1.4937 -1.9689  0.8319
    4MOL0     H  511   9.675   2.243   3.428 -0.0685 -1.6878  0.1194
    4MOL0     H  512   9.603   2.382   3.336 -0.3675  0.4600  0.4867
    4MOL0     H  513   9.512   2.325   3.466 -0.4091  0.6921 -2.0484
    4MOL0     H  514  10.254   2.362   3.273  1.0727  2.1755 -3.5113
    4MOL0     H  515  10.338   2.195   3.102  1.5822 -3.1956  4.3269
    4MOL0     H  516  10.408   2.044   2.951 -0.5144  0.4681  0.3571
    4MOL0     H  517  10.391   1.913   3.073 -2.0007 -0.5682  0.3629
    4MOL0     H  518  10.297   1.770   2.879  0.3511 -1.3997 -2.9613
    4MOL0     H  519  10.352   1.891   2.763  0.5151  0.1307  0.6165
    4MOL0     H  520  10.519   1.706   2.877  3.1631  0.1297  2.6440
    4MOL0     H  521  10.566   1.829   2.976  3.2136 -0.1954 -1.9705
    4MOL0     H  522  10.615   1.995   2.804 -1.4786 -0.1360 -0.9058
    4MOL0     H  523  10.550   1.891   2.687  0.8286  2.4426 -0.5962
    4MOL0     H  524  10.796   1.861   2.873 -0.7453  0.8030 -0.1916
    4MOL0     H  525  10.742   1.729   2.765  0.7250 -1.1951  1.8358
    4MOL0     H  526  10.859   2.015   2.698 -0.3147  0.4170  2.7041
    4MOL0     H  527  10.771   1.926   2.578  2.5690 -0.8382 -0.5313
    4MOL0     H  528  10.929   1.744   2.579  1.0159 -0.0675 -0.6903
    4MOL0     H  529  10.998   1.806   2.730 -1.8814 -0.5590  0.6297
    4MOL0     H  530  11.144   1.865   2.536 -1.4686 -0.8415  0.9149
    4MOL0     H  531  11.088   2.012   2.595  1.9119 -2.1975  5.1005
    4MOL0     H  532   9.956   1.999   3.108 -2.5485  2.0686  0.3595
    4MOL0     H  533   9.869   2.172   3.259 -0.3857  0.6824 -0.6973
    4MOL0     H  534  10.024   2.531   3.562  1.8341  0.6783  3.5146
    4MOL0     H  535   9.918   2.609   3.781 -1.8849  4.0091  0.3403
    4MOL0     H  536   8.181   3.054   3.423  0.9015 -0.5393  0.1902
    4MOL0     H  537   7.992   3.072   3.249 -1.7485  2.5194 -2.4422
    4MOL0     H  538   7.774   3.143   2.968  0.5796 -0.1548 -0.3366
    4MOL0     H  539   7.607   3.122   2.805 -1.5128  1.1092 -0.2147
    4MOL0     H  540   7.478   3.107   2.621  0.0311  0.1119 -1.2670
    4MOL0     H  541   7.398   3.225   2.727  1.3177 -0.4298  0.0955
    4MOL0     H  542   7.286   3.340   2.540  2.6270  1.3103 -0.3873
    4MOL0     H  543   7.237   3.177   2.546 -1.1791  0.6311  0.6840
    4MOL0     H  544   7.482   3.255   2.367  0.1586  1.7702  1.0166
    4MOL0     H  545   7.398   3.113   2.372  2.4526  1.0937  1.5178
    4MOL0     H  546   7.338   3.300   2.183 -1.9788  2.6566 -0.8204
    4MOL0     H  547   7.268   3.399   2.305 -4.1383  0.6472 -2.9001
    4MOL0     H  548   6.980   3.090   2.283  0.8468 -2.3652  3.0409
    4MOL0     H  549   7.742   3.458   2.604 -1.0633 -0.5533 -0.3304
    4MOL0     H  550   8.003   3.546   2.848  0.9657  0.3304 -0.1439
    4MOL0     H  551   8.044   3.471   2.685  0.5585  4.6569 -2.1211
    4MOL0     H  552   7.920   3.589   2.687 -0.4899  1.2361  0.4926
    5MOL0     O  553   2.529   7.355   0.246  0.1934 -0.8027 -0.6999
    5MOL0     C  554   2.486   7.330   0.137 -0.5914 -0.2986 -0.5891
    5MOL0     O  555   2.560   7.300   0.032  0.1464 -0.9196  0.6452
    5MOL0     C  556   2.690   7.323   0.019 -0.3812  0.2874 -0.0784
    5MOL0     C  557   2.776   7.386   0.108 -0.4010  0.0051 -0.2626
    5MOL0     C  558   2.914   7.388   0.094 -0.9779  0.7437 -0.4594
    5MOL0     C  559   2.968   7.324  -0.016  0.1205 -0.0617 -0.1384
    5MOL0     O  560   3.106   7.324  -0.026 -0.0896  0.1366  0.1516
    5MOL0     C  561   3.174   7.253  -0.127 -0.6334 -0.3294  0.8064
    5MOL0     C  562   3.320   7.236  -0.092 -0.4758  0.2175 -0.6295
    5MOL0     C  563   3.383   7.378  -0.064 -0.2306  0.5378  0.6915
    5MOL0     C  564   3.523   7.385   0.000 -0.1525 -0.2443  0.1774
    5MOL0     C  565   3.566   7.532   0.040 -0.1446  0.6195  0.0016
    5MOL0     C  566   3.714   7.541   0.090  1.1390 -0.0315 -0.3790
    5MOL0     C  567   3.806   7.454  -0.001 -0.2521 -0.1810 -0.8491
    5MOL0     C  568   3.957   7.488   0.030  0.3783 -0.9058  1.2065
    5MOL0     N  569   4.007   7.454   0.156 -0.2264 -0.7554 -0.1344
    5MOL0     C  570   3.952   7.364   0.249  0.4588 -0.0979 -0.4452
    5MOL0     C  571   4.051   7.346   0.350  0.1606  0.5365  0.2041
    5MOL0     C  572   4.040   7.253   0.469  0.3976 -0.2014 -0.2237
    5MOL0     C  573   3.932   7.300   0.572 -0.2809  0.5446 -0.1296
    5MOL0     C  574   3.950   7.246   0.723  0.1586  0.2483  0.3593
    5MOL0     C  575   4.094   7.272   0.771  0.6442  0.1528 -0.3168
    5MOL0     O  576   4.092   7.253   0.912  0.0471 -0.9222 -0.2091
    5MOL0     C  577   4.194   7.325   0.975 -0.9181  0.7400  0.3463
    5MOL0     C  578   4.180   7.422   1.067  0.4014 -0.3067  0.1642
    5MOL0     C  579   4.274   7.479   1.148  0.6414 -0.1481 -0.3027
    5MOL0     C  580   4.236   7.589   1.241 -0.2570 -0.6274 -0.5795
    5MOL0     C  581   4.417   7.439   1.116  0.1760 -0.4189 -0.5001
    5MOL0     C  582   4.534   7.489   1.198  0.0653  0.1496  0.6922
    5MOL0     O  583   4.651   7.478   1.136 -1.0068  0.3651  0.1228
    5MOL0     C  584   4.770   7.521   1.191  0.0962  0.4701 -0.1236
    5MOL0     C  585   4.840   7.618   1.126  0.7107  0.2188  0.2263
    5MOL0     C  586   4.946   7.686   1.188  0.0499 -0.5131  0.1725
    5MOL0     C  587   4.998   7.639   1.308 -0.5516  0.3624  0.6169
    5MOL0     O  588   5.105   7.687   1.375  0.0381 -0.3356 -0.1628
    5MOL0     C  589   5.201   7.782   1.308 -0.3074 -0.5485 -0.2757
    5MOL0     C  590   5.326   7.795   1.397  0.0205 -0.3466  1.1438
    5MOL0     C  591   5.298   7.816   1.543  0.7979  0.6104  1.0583
    5MOL0     C  592   5.416   7.823   1.635  0.6700 -1.2698  0.7616
    5MOL0     C  593   5.382   7.834   1.787 -0.2355  0.2109  0.1116
    5MOL0     C  594   5.353   7.701   1.861  0.7211 -0.3067 -0.3469
    5MOL0     C  595   5.321   7.740   2.008  0.1081 -0.3654 -0.6026
    5MOL0     C  596   5.297   7.632   2.103  0.8541 -0.1845 -0.7494
    5MOL0    Cl  597   5.444   7.527   2.137  0.3533  0.4700 -0.4469
    5MOL0     C  598   4.929   7.535   1.373  0.1917 -0.7542 -0.7139
    5MOL0     C  599   4.818   7.477   1.314 -0.4142  0.5680  0.9839
    5MOL0     O  600   4.513   7.539   1.308  0.1732 -0.1408  0.6254
    5MOL0     C  601   4.436   7.346   1.006 -0.8190  0.2232 -0.9733
    5MOL0     C  602   4.325   7.279   0.958 -0.1723  0.5732 -0.3685
    5MOL0     N  603   4.152   7.433   0.317  0.4735 -0.5351 -0.5572
    5MOL0     N  604   4.129   7.490   0.202  0.1589 -0.7510  0.1582
    5MOL0     C  605   2.882   7.244  -0.105 -0.1785  0.4760  0.8355
    5MOL0     C  606   2.743   7.256  -0.087 -0.2577 -0.2978  0.3793
    5MOL0     C  607   2.338   7.305   0.130  1.2868  1.2666 -0.7675
    5MOL0     C  608   2.262   7.358   0.239  1.0858  0.7442  0.5622
    5MOL0     C  609   2.123   7.345   0.236 -0.2878 -0.1123 -0.1031
    5MOL0     C  610   2.059   7.264   0.138  0.3811  0.2371  0.4849
    5MOL0     O  611   1.921   7.233   0.137 -0.7875 -0.3012 -0.4192
    5MOL0     C  612   1.829   7.284   0.230 -0.5074 -0.3542 -0.7981
    5MOL0     C  613   1.688   7.305   0.159 -0.5007 -0.2299 -0.1332
    5MOL0     C  614   1.598   7.346   0.277  0.2854 -0.0141 -0.2744
    5MOL0     C  615   1.461   7.352   0.216  0.7408  0.1019  0.4062
    5MOL0     C  616   1.369   7.421   0.307 -0.2479 -0.8443  0.1246
    5MOL0     C  617   1.298   7.489   0.385  0.1449  0.3404  0.3173
    5MOL0     C  618   2.131   7.203   0.038 -0.7987  0.3467  0.0931
    5MOL0     C  619   2.272   7.222   0.030  1.4155 -0.2315  0.2162
    5MOL0     C  620   2.345   7.143  -0.082 -0.8434 -0.3446  0.2923
    5MOL0     H  621   2.744   7.435   0.199 -0.3302  0.9005 -0.7078
    5MOL0     H  622   2.984   7.427   0.167 -2.8419  2.3927  0.5073
    5MOL0     H  623   3.178   7.305  -0.224  3.3294 -1.6685  0.0504
    5MOL0     H  624   3.139   7.151  -0.143 -0.7662 -0.4351  1.7321
    5MOL0     H  625   3.334   7.168  -0.007  0.1663  1.1511  0.0257
    5MOL0     H  626   3.373   7.183  -0.171 -1.7951 -4.3356  1.2152
    5MOL0     H  627   3.399   7.440  -0.152 -1.8834 -0.2521 -0.2188
    5MOL0     H  628   3.320   7.431   0.009  0.4872  1.4951  0.6305
    5MOL0     H  629   3.533   7.329   0.093 -1.8984  2.9553  2.5039
    5MOL0     H  630   3.580   7.330  -0.075 -1.7221 -1.3620 -0.2507
    5MOL0     H  631   3.500   7.582   0.112  0.4386 -0.8790  1.6443
    5MOL0     H  632   3.556   7.587  -0.054 -0.9864  1.4792  0.5777
    5MOL0     H  633   3.746   7.646   0.093 -1.6467  0.9239  3.2381
    5MOL0     H  634   3.728   7.494   0.187 -0.3538 -2.7950 -1.3793
    5MOL0     H  635   3.788   7.470  -0.108 -2.2529 -3.0019 -1.0335
    5MOL0     H  636   3.793   7.347   0.016 -0.1594 -0.3635 -1.8256
    5MOL0     H  637   4.017   7.436  -0.045 -0.0756  0.2407  0.0082
    5MOL0     H  638   3.962   7.597   0.018  0.1964 -0.9770  0.4358
    5MOL0     H  639   3.850   7.325   0.250  0.7805 -0.9444 -0.0637
    5MOL0     H  640   4.138   7.234   0.514  0.1981 -2.4517 -0.6443
    5MOL0     H  641   4.005   7.156   0.434  0.7434 -1.0709  1.7263
    5MOL0     H  642   3.921   7.408   0.582 -2.4282  0.2505  1.3812
    5MOL0     H  643   3.835   7.264   0.538 -0.7231 -1.2337  2.6914
    5MOL0     H  644   3.878   7.300   0.784 -0.0278  0.2747  0.1139
    5MOL0     H  645   3.933   7.138   0.729  1.6816  0.0402  1.6002
    5MOL0     H  646   4.175   7.209   0.732  1.4221 -0.4311  2.0742
    5MOL0     H  647   4.127   7.372   0.743 -2.5137  0.9941 -1.4822
    5MOL0     H  648   4.078   7.458   1.069  0.4852  1.0229 -5.0325
    5MOL0     H  649   4.215   7.552   1.342  0.4068  1.0020  0.1894
    5MOL0     H  650   4.143   7.635   1.206 -0.2442  1.7216  2.0389
    5MOL0     H  651   4.316   7.663   1.252  0.7033 -1.9696  3.0065
    5MOL0     H  652   4.810   7.653   1.028 -1.0959 -1.2022  0.2249
    5MOL0     H  653   4.998   7.772   1.146  0.3217 -0.4540  0.6282
    5MOL0     H  654   5.232   7.757   1.206 -1.2471  1.5367 -1.1308
    5MOL0     H  655   5.148   7.878   1.304 -1.2654 -1.0359  0.5115
    5MOL0     H  656   5.386   7.704   1.389  0.1025 -0.2595  0.7707
    5MOL0     H  657   5.384   7.877   1.354 -1.9079 -0.6138 -2.3427
    5MOL0     H  658   5.226   7.740   1.576 -1.4326 -1.2145 -6.1640
    5MOL0     H  659   5.245   7.910   1.557 -1.1713 -0.3622  0.5255
    5MOL0     H  660   5.454   7.922   1.608 -1.6638 -0.8616 -1.4513
    5MOL0     H  661   5.497   7.755   1.608 -0.8037 -2.2607 -1.5687
    5MOL0     H  662   5.455   7.890   1.846  0.0537  0.5895 -0.6005
    5MOL0     H  663   5.287   7.888   1.793  0.5749  1.7030 -0.1254
    5MOL0     H  664   5.427   7.621   1.852  0.6034 -0.4123 -0.3867
    5MOL0     H  665   5.260   7.666   1.814  0.8687  1.8269 -2.4484
    5MOL0     H  666   5.232   7.803   2.000 -0.8757 -1.5217  0.7446
    5MOL0     H  667   5.406   7.798   2.047  0.5393 -0.7019 -1.0320
    5MOL0     H  668   5.215   7.565   2.075  1.1282 -0.0297 -1.9792
    5MOL0     H  669   5.283   7.671   2.204  4.4064 -1.4812  0.3816
    5MOL0     H  670   4.963   7.490   1.465 -2.9504 -3.8864 -0.8555
    5MOL0     H  671   4.771   7.391   1.361  0.7839 -0.1877  0.8401
    5MOL0     H  672   4.536   7.308   0.987  0.9588  3.5199  0.7787
    5MOL0     H  673   4.343   7.194   0.893  0.8870  0.0003  0.6455
    5MOL0     H  674   2.919   7.183  -0.186  1.6064  2.1524  0.3156
    5MOL0     H  675   2.673   7.210  -0.156 -0.8268 -0.2160  0.8880
    5MOL0     H  676   2.312   7.411   0.319  0.1575  0.5820  1.2723
    5MOL0     H  677   2.071   7.386   0.322  1.6084  0.7830  0.6661
    5MOL0     H  678   1.827   7.222   0.320  0.0078  1.8315  0.8010
    5MOL0     H  679   1.867   7.381   0.263  1.9318 -1.4655 -0.1517
    5MOL0     H  680   1.657   7.213   0.108  1.6167  0.0588 -2.1204
    5MOL0     H  681   1.680   7.384   0.083  2.2003  1.1052  0.8385
    5MOL0     H  682   1.602   7.278   0.363  1.8039 -0.9919 -1.0616
    5MOL0     H  683   1.623   7.446   0.312  0.7498 -0.2046 -0.0532
    5MOL0     H  684   1.422   7.254   0.183  1.2730 -1.4492  3.9525
    5MOL0     H  685   1.466   7.405   0.120  0.3271 -1.9167 -0.7953
    5MOL0     H  686   1.242   7.553   0.450 -0.0562 -0.1578  0.6459
    5MOL0     H  687   2.068   7.146  -0.029 -0.4776  0.1998 -0.0849
    5MOL0     H  688   2.297   7.051  -0.115  2.5976 -2.4183  0.6750
    5MOL0     H  689   2.378   7.210  -0.163  0.2788  0.5220  1.4202
    5MOL0     H  690   2.435   7.099  -0.040  1.1599  4.1605  1.3966
    6MOL0     O  691   3.186  10.242   2.412  0.6115  0.8641  0.0667
    6MOL0     C  692   3.192  10.231   2.533 -0.3561 -0.2633  0.9978
    6MOL0     O  693   3.297  10.176   2.595  0.2697 -0.4023  0.5951
    6MOL0     C  694   3.398  10.123   2.524  0.4674  0.0748 -0.2037
    6MOL0     C  695   3.376  10.000   2.458  0.7067 -0.2526 -0.6457
    6MOL0     C  696   3.483   9.957   2.386  0.2146 -0.2628 -1.2764
    6MOL0     C  697   3.604  10.024   2.380  0.1626 -0.1892 -0.1800
    6MOL0     O  698   3.698   9.970   2.300 -0.8771 -0.2485 -0.2106
    6MOL0     C  699   3.830  10.041   2.277 -0.3604  0.9189  0.0634
    6MOL0     C  700   3.893   9.959   2.158  0.4846 -0.2670 -0.3580
    6MOL0     C  701   4.042   9.998   2.164 -0.2496 -0.3634  0.2694
    6MOL0     C  702   4.112   9.985   2.028  0.9220  0.3581  0.3011
    6MOL0     C  703   4.266  10.009   2.044 -0.2850  0.1518  0.3259
    6MOL0     C  704   4.337   9.970   1.921  0.4612 -0.3545  0.5637
    6MOL0     C  705   4.491   9.980   1.943 -0.2598  0.3640  0.5233
    6MOL0     C  706   4.542   9.844   1.996 -1.2730  0.5485  0.4044
    6MOL0     N  707   4.691   9.858   2.006 -0.2239  0.1779  0.3344
    6MOL0     C  708   4.778   9.847   1.901  0.1859  0.9104 -0.1392
    6MOL0     C  709   4.903   9.844   1.960 -0.0176  0.1607  0.0130
    6MOL0     C  710   5.025   9.818   1.892  0.3200  0.1933  0.5269
    6MOL0     C  711   5.150   9.848   1.976  0.4269 -0.5342  0.0357
    6MOL0     C  712   5.269   9.823   1.890 -0.0480  0.2478 -0.0450
    6MOL0     C  713   5.407   9.844   1.961 -0.1061 -1.0814  0.6562
    6MOL0     O  714   5.441   9.758   2.073  0.1038 -0.5014 -0.1047
    6MOL0     C  715   5.562   9.764   2.135 -1.2269 -0.6999 -0.1448
    6MOL0     C  716   5.625   9.649   2.181 -0.1808 -0.3129  1.3215
    6MOL0     C  717   5.748   9.654   2.245 -0.1094 -0.3080  0.1788
    6MOL0     C  718   5.800   9.515   2.271 -0.3923 -0.7825 -0.1149
    6MOL0     C  719   5.817   9.776   2.267 -0.4834 -0.0408 -0.8859
    6MOL0     C  720   5.949   9.787   2.329 -0.5548 -0.3220  0.2441
    6MOL0     O  721   5.997   9.921   2.362 -0.0786  0.5598  0.4321
    6MOL0     C  722   6.129   9.947   2.379 -0.0671 -0.0135  0.9338
    6MOL0     C  723   6.161  10.070   2.445  0.8188 -0.1813  0.6281
    6MOL0     C  724   6.293  10.112   2.473  0.4337  0.4720 -0.3281
    6MOL0     C  725   6.396  10.037   2.416  0.7142 -0.0871  0.4066
    6MOL0     O  726   6.515  10.102   2.431 -0.0327 -0.1012 -0.1068
    6MOL0     C  727   6.623  10.089   2.336 -0.0080  0.9497  0.0190
    6MOL0     C  728   6.741  10.178   2.380  1.1143 -0.0886  0.3140
    6MOL0     C  729   6.847  10.197   2.269  0.1056  0.4269  1.2317
    6MOL0     C  730   6.966  10.295   2.312  0.6058 -0.2165 -0.5928
    6MOL0     C  731   7.058  10.320   2.195 -0.3929 -0.0585 -0.1536
    6MOL0     C  732   7.165  10.436   2.221  0.1591  0.6420 -0.2931
    6MOL0     C  733   7.271  10.386   2.338 -0.0746 -1.1668  0.5371
    6MOL0     C  734   7.403  10.464   2.336  0.4520  0.3858  0.5892
    6MOL0    Cl  735   7.378  10.622   2.286 -0.1494  0.4901 -0.0098
    6MOL0     C  736   6.373   9.910   2.352 -0.3710 -0.8691  0.4321
    6MOL0     C  737   6.240   9.866   2.342  0.0987  0.4540  0.7223
    6MOL0     O  738   6.008   9.684   2.357 -0.0310 -0.1180 -0.2600
    6MOL0     C  739   5.754   9.897   2.223  0.1392 -0.1299  0.1110
    6MOL0     C  740   5.633   9.883   2.154  1.1419 -0.0396 -0.2965
    6MOL0     N  741   4.892   9.846   2.099 -0.0049  0.0314 -0.5053
    6MOL0     N  742   4.760   9.855   2.126 -0.1072  0.4399 -0.4550
    6MOL0     C  743   3.623  10.137   2.447  0.0811  0.2416 -0.4787
    6MOL0     C  744   3.519  10.191   2.521 -0.2601  0.5826 -1.6041
    6MOL0     C  745   3.074  10.289   2.605  0.4404  0.0112 -0.1662
    6MOL0     C  746   2.988  10.377   2.534  0.0306  0.2211 -0.4789
    6MOL0     C  747   2.886  10.439   2.608 -0.4914  0.2241  0.1762
    6MOL0     C  748   2.866  10.421   2.752 -0.6163 -1.5793 -0.2317
    6MOL0     O  749   2.765  10.481   2.821  0.3191 -0.0536  0.0994
    6MOL0     C  750   2.753  10.619   2.803  0.0119  0.4134  0.2836
    6MOL0     C  751   2.614  10.656   2.863 -0.8225 -0.4143  0.4616
    6MOL0     C  752   2.580  10.633   3.019 -0.4892  0.3045 -0.2034
    6MOL0     C  753   2.692  10.687   3.114  0.2069 -0.1512  0.0827
    6MOL0     C  754   2.671  10.670   3.256 -0.3625 -0.4058 -0.1474
    6MOL0     C  755   2.649  10.652   3.374 -0.1024  0.7619  0.1020
    6MOL0     C  756   2.949  10.333   2.814 -0.0936  0.9209  0.9303
    6MOL0     C  757   3.060  10.273   2.747  0.2700 -0.4440  0.5764
    6MOL0     C  758   3.145  10.181   2.830 -0.6109 -0.1496  0.0738
    6MOL0     H  759   3.279   9.950   2.459 -1.2386  3.1881  1.2832
    6MOL0     H  760   3.475   9.864   2.330 -3.2895 -0.5869 -0.4788
    6MOL0     H  761   3.897  10.030   2.362 -3.7715 -1.0312  2.7761
    6MOL0     H  762   3.824  10.145   2.241  1.8387  1.4507  1.0692
    6MOL0     H  763   3.873   9.853   2.174 -1.8000  0.2188  0.3256
    6MOL0     H  764   3.841   9.999   2.070 -0.6280  0.6190  0.6728
    6MOL0     H  765   4.049  10.104   2.190  0.3978 -0.6543  1.3847
    6MOL0     H  766   4.090   9.929   2.235  1.8755 -0.9908 -1.6498
    6MOL0     H  767   4.092   9.883   1.993 -1.8374  1.0359 -0.3252
    6MOL0     H  768   4.059  10.044   1.953 -0.8673 -1.1237  0.3434
    6MOL0     H  769   4.308   9.957   2.131  3.6672  1.2484 -0.7510
    6MOL0     H  770   4.294  10.113   2.063  1.9235  0.1257 -2.2290
    6MOL0     H  771   4.301   9.872   1.889 -0.4428  0.1445  0.0275
    6MOL0     H  772   4.309  10.048   1.849 -0.1205 -1.1760 -0.1222
    6MOL0     H  773   4.518  10.058   2.014  1.1658  0.9251 -0.5974
    6MOL0     H  774   4.537   9.991   1.844  0.0307 -3.0113  0.1597
    6MOL0     H  775   4.498   9.831   2.095 -1.1955  4.7554  1.2085
    6MOL0     H  776   4.516   9.779   1.912 -0.3202  1.1887 -0.4161
    6MOL0     H  777   4.746   9.846   1.797 -0.7895  1.9190  0.1264
    6MOL0     H  778   5.029   9.892   1.811 -2.3725  1.6462  1.6144
    6MOL0     H  779   5.016   9.715   1.855 -2.5126  0.6389 -0.2340
    6MOL0     H  780   5.145   9.955   1.998 -2.0395 -0.0150 -2.4324
    6MOL0     H  781   5.151   9.798   2.073  2.0611  2.9706  1.9738
    6MOL0     H  782   5.268   9.722   1.847 -2.1665 -0.4507  1.5011
    6MOL0     H  783   5.265   9.895   1.808 -1.7862 -2.5046 -2.6025
    6MOL0     H  784   5.485   9.844   1.885  1.8331  2.1288  2.4332
    6MOL0     H  785   5.402   9.949   1.991  1.1525 -1.1606  1.2005
    6MOL0     H  786   5.572   9.557   2.160  1.0261 -0.7497  0.0522
    6MOL0     H  787   5.774   9.507   2.377 -0.3108  2.8135  0.2955
    6MOL0     H  788   5.906   9.504   2.244 -0.8925  0.1073 -2.7284
    6MOL0     H  789   5.749   9.443   2.206  1.8553 -2.2751 -0.3322
    6MOL0     H  790   6.086  10.137   2.486  0.4711  0.4542 -1.0054
    6MOL0     H  791   6.308  10.211   2.516 -1.4038  1.8195 -2.5861
    6MOL0     H  792   6.661   9.988   2.319 -1.6798  0.4171 -0.7316
    6MOL0     H  793   6.581  10.124   2.242 -1.3505 -1.1013 -0.2157
    6MOL0     H  794   6.706  10.278   2.406  2.3794  0.4387  0.0253
    6MOL0     H  795   6.786  10.136   2.470 -0.2110 -0.5657  0.7868
    6MOL0     H  796   6.801  10.225   2.174 -2.7735 -2.4099  1.5912
    6MOL0     H  797   6.898  10.104   2.243 -0.6937  0.3988 -0.3313
    6MOL0     H  798   7.007  10.248   2.401 -1.6655  0.1879  0.7667
    6MOL0     H  799   6.914  10.383   2.354  0.6665  0.3637 -1.6992
    6MOL0     H  800   7.104  10.227   2.160 -0.1923  0.8221 -2.3856
    6MOL0     H  801   7.011  10.347   2.100  1.8903 -2.1326 -2.0018
    6MOL0     H  802   7.112  10.528   2.245  2.2495  1.3769  1.9603
    6MOL0     H  803   7.225  10.455   2.131  2.8832  1.0966  1.4972
    6MOL0     H  804   7.308  10.283   2.338  3.1591 -0.1548 -1.5347
    6MOL0     H  805   7.212  10.395   2.429  0.8224 -3.7775  1.4811
    6MOL0     H  806   7.467  10.411   2.264  0.1649  1.2271 -0.2958
    6MOL0     H  807   7.456  10.466   2.432 -0.0869  0.1193  0.8971
    6MOL0     H  808   6.464   9.863   2.315  0.0268  0.0447  0.2289
    6MOL0     H  809   6.225   9.761   2.315 -2.5277  0.7227  0.9042
    6MOL0     H  810   5.809   9.989   2.239 -0.6649  0.4872 -0.5612
    6MOL0     H  811   5.584   9.975   2.122  1.4538  0.5011  0.7512
    6MOL0     H  812   3.719  10.180   2.472 -0.3937 -0.1484  2.3203
    6MOL0     H  813   3.519  10.282   2.581  1.0080 -0.2134 -0.3485
    6MOL0     H  814   3.006  10.394   2.428  1.0255  0.6094 -0.2525
    6MOL0     H  815   2.811  10.495   2.553 -1.5129 -0.3227  0.9996
    6MOL0     H  816   2.828  10.675   2.860  0.3734  0.5218 -0.2925
    6MOL0     H  817   2.763  10.641   2.697  1.9878 -3.9924 -0.6487
    6MOL0     H  818   2.540  10.599   2.808 -3.6667  2.1363  1.3725
    6MOL0     H  819   2.603  10.764   2.845 -1.7019 -0.0545  2.7781
    6MOL0     H  820   2.485  10.686   3.033 -0.3816  0.6023 -0.6091
    6MOL0     H  821   2.555  10.528   3.038  0.2957  0.4520  1.9766
    6MOL0     H  822   2.697  10.794   3.092  1.1421  0.0726  1.2774
    6MOL0     H  823   2.787  10.635   3.096 -0.2012 -0.3914 -1.5550
    6MOL0     H  824   2.636  10.647   3.480 -3.6980  0.0267 -0.2584
    6MOL0     H  825   2.921  10.313   2.917  0.6784 -1.4503  0.7382
    6MOL0     H  826   3.093  10.170   2.926 -2.6223 -0.7710 -1.0264
    6MOL0     H  827   3.150  10.080   2.789 -1.5882 -0.9956  1.9121
    6MOL0     H  828   3.241  10.231   2.844 -1.6786  1.8054  0.8655
    7MOL0     O  829   6.915   1.003   6.787  0.7355  0.2436 -0.0402
    7MOL0     C  830   6.935   1.041   6.906 -0.2484 -0.1693 -0.3355
    7MOL0     O  831   6.835   1.072   6.989  0.3315 -0.3700  0.3554
    7MOL0     C  832   6.709   1.047   6.950 -0.3907 -0.1371 -0.8284
    7MOL0     C  833   6.630   1.135   6.876  0.0539  0.6245  0.2073
    7MOL0     C  834   6.492   1.113   6.854  0.7770  0.2841 -0.0244
    7MOL0     C  835   6.440   0.993   6.892  0.5681  0.6111  0.3571
    7MOL0     O  836   6.308   0.956   6.876  0.3959  0.6924 -0.5866
    7MOL0     C  837   6.212   1.048   6.930  0.1671 -0.8415 -1.1685
    7MOL0     C  838   6.067   0.994   6.948 -0.1222 -0.1302 -0.4130
    7MOL0     C  839   5.990   1.090   7.027 -0.0051  0.6494 -0.1143
    7MOL0     C  840   5.862   1.017   7.082  0.2078 -0.0027 -1.2798
    7MOL0     C  841   5.869   0.943   7.206 -0.9361  0.2858  0.5618
    7MOL0     C  842   5.911   1.024   7.328  0.7216 -0.1173  0.0051
    7MOL0     C  843   5.846   0.981   7.465 -0.4735  0.2220 -0.2502
    7MOL0     C  844   5.731   1.058   7.515  0.9830 -0.3035 -0.0689
    7MOL0     N  845   5.608   1.058   7.429  0.2790 -0.0789 -0.8530
    7MOL0     C  846   5.578   1.127   7.315  0.4949 -0.4402  0.2552
    7MOL0     C  847   5.443   1.110   7.310 -0.3474  0.6678  0.2734
    7MOL0     C  848   5.350   1.185   7.217 -0.0939  0.1473  0.2069
    7MOL0     C  849   5.359   1.338   7.234  0.8940 -0.3993  0.4679
    7MOL0     C  850   5.314   1.409   7.111  0.4806 -0.5758 -0.9293
    7MOL0     C  851   5.434   1.485   7.052 -0.6732  0.6120  0.0041
    7MOL0     O  852   5.525   1.388   7.004 -0.3176 -0.3894 -0.0402
    7MOL0     C  853   5.653   1.439   6.979  0.3515  0.2821  0.4352
    7MOL0     C  854   5.722   1.373   6.878  0.2668  0.0210 -0.5302
    7MOL0     C  855   5.850   1.409   6.840 -0.5821 -0.0238  0.7794
    7MOL0     C  856   5.914   1.331   6.724 -0.0775 -0.8939  0.0328
    7MOL0     C  857   5.919   1.513   6.909  0.2983 -0.1913  0.3231
    7MOL0     C  858   6.063   1.554   6.880  0.4027  0.3246 -0.8353
    7MOL0     O  859   6.132   1.502   6.775  0.4437  0.0232  0.5351
    7MOL0     C  860   6.262   1.541   6.767 -0.6664  0.6499 -0.4200
    7MOL0     C  861   6.364   1.472   6.836 -0.5105  0.0572 -0.5880
    7MOL0     C  862   6.498   1.492   6.808  0.2642  0.1539  0.7541
    7MOL0     C  863   6.537   1.601   6.733 -1.2626  0.0464  0.0211
    7MOL0     O  864   6.670   1.625   6.739 -0.3814  0.3529  0.2541
    7MOL0     C  865   6.714   1.767   6.733 -0.0947 -0.7638  0.2886
    7MOL0     C  866   6.861   1.754   6.765 -0.6078  0.3838  0.6315
    7MOL0     C  867   6.913   1.896   6.774 -0.1079 -0.2743 -0.2594
    7MOL0     C  868   7.065   1.909   6.783 -0.4418  0.7112  1.0503
    7MOL0     C  869   7.153   1.877   6.663  0.7084  0.5991 -0.7044
    7MOL0     C  870   7.103   1.926   6.527 -0.2269  0.1512 -1.0376
    7MOL0     C  871   7.215   1.931   6.417  0.8602  0.6014  0.1899
    7MOL0     C  872   7.224   1.798   6.324 -0.1183 -0.2839  0.4630
    7MOL0    Cl  873   7.347   1.819   6.185  0.0268 -0.3860 -0.0223
    7MOL0     C  874   6.440   1.678   6.664  0.4135 -0.6108  0.0543
    7MOL0     C  875   6.309   1.642   6.679 -0.5391  0.2230 -0.0641
    7MOL0     O  876   6.119   1.623   6.968 -0.1377 -0.1046 -0.3875
    7MOL0     C  877   5.856   1.575   7.019 -0.8751  1.2283 -0.0849
    7MOL0     C  878   5.722   1.530   7.059 -0.6467 -0.1813  0.1222
    7MOL0     N  879   5.403   1.027   7.410  0.4633  0.9968 -0.2344
    7MOL0     N  880   5.504   0.989   7.480  0.2474  0.5113 -0.0722
    7MOL0     C  881   6.521   0.903   6.957 -0.4859  0.8912  0.4178
    7MOL0     C  882   6.651   0.931   6.999  0.1387 -0.5445 -0.2777
    7MOL0     C  883   7.071   1.048   6.966  0.0955 -0.4506 -0.0123
    7MOL0     C  884   7.086   1.037   7.102 -0.1520  0.4571  0.2695
    7MOL0     C  885   7.214   1.033   7.158  0.5199  0.6587  0.3369
    7MOL0     C  886   7.328   1.042   7.086 -0.3739  0.4900  0.7790
    7MOL0     O  887   7.447   1.026   7.161 -0.7463  0.0203 -0.4081
    7MOL0     C  888   7.575   0.999   7.097  0.4758 -0.0667 -0.6930
    7MOL0     C  889   7.696   1.033   7.188 -0.2926  0.1320 -0.5539
    7MOL0     C  890   7.695   0.938   7.306  0.3061  0.1170 -0.5941
    7MOL0     C  891   7.813   0.975   7.402  0.0649  0.1122  0.6280
    7MOL0     C  892   7.788   0.909   7.526  0.1272  0.4577 -0.3418
    7MOL0     C  893   7.759   0.850   7.622 -0.6144  0.4563 -0.5685
    7MOL0     C  894   7.318   1.048   6.946 -1.1591  0.2954 -0.4766
    7MOL0     C  895   7.193   1.061   6.889 -0.6698 -0.0475 -0.8486
    7MOL0     C  896   7.195   1.063   6.742  2.0738  0.2520  0.1809
    7MOL0     H  897   6.667   1.231   6.842 -1.6221  1.9342  1.8552
    7MOL0     H  898   6.426   1.181   6.801 -0.7358 -0.7237  0.5173
    7MOL0     H  899   6.213   1.133   6.861 -0.6321 -0.9601 -1.3407
    7MOL0     H  900   6.236   1.088   7.029 -2.3047 -0.9536 -0.4366
    7MOL0     H  901   6.044   0.994   6.841  0.1618 -0.6906 -0.4763
    7MOL0     H  902   6.071   0.896   6.997 -1.8662 -0.2609 -0.4681
    7MOL0     H  903   6.049   1.136   7.107 -0.3560  2.4029 -0.8193
    7MOL0     H  904   5.960   1.168   6.956  0.4587  0.6048 -0.3582
    7MOL0     H  905   5.776   1.084   7.088  0.1593 -0.1459 -0.3590
    7MOL0     H  906   5.833   0.954   6.998 -2.7819 -0.1002 -0.2796
    7MOL0     H  907   5.942   0.862   7.195 -1.4907 -0.2229  0.5824
    7MOL0     H  908   5.773   0.895   7.227  0.6780 -2.3039  2.6424
    7MOL0     H  909   6.020   1.024   7.337  0.8541  2.1102 -0.8282
    7MOL0     H  910   5.874   1.123   7.299 -1.7932 -1.7536 -3.0662
    7MOL0     H  911   5.928   0.984   7.538 -1.4107 -0.2984  0.8674
    7MOL0     H  912   5.823   0.875   7.450  0.4704  0.2544 -2.2316
    7MOL0     H  913   5.702   1.028   7.616 -0.6270  2.2118  0.2877
    7MOL0     H  914   5.763   1.162   7.527  3.4995 -0.8318 -1.3699
    7MOL0     H  915   5.645   1.177   7.246  0.7537 -0.4271  0.5131
    7MOL0     H  916   5.244   1.164   7.232  0.7738 -3.6686  2.6071
    7MOL0     H  917   5.380   1.156   7.116 -0.2292  0.6273  0.0261
    7MOL0     H  918   5.288   1.358   7.315 -0.4975 -0.3348 -0.7212
    7MOL0     H  919   5.459   1.358   7.272  0.1460  0.8968  1.8224
    7MOL0     H  920   5.256   1.358   7.033 -1.1071 -0.6241  0.2479
    7MOL0     H  921   5.246   1.485   7.152 -1.6013 -2.5826 -0.4632
    7MOL0     H  922   5.400   1.553   6.974 -3.2797  0.5516  0.9683
    7MOL0     H  923   5.482   1.547   7.128 -0.0512  0.6955 -0.4516
    7MOL0     H  924   5.669   1.293   6.827 -1.1861 -0.9624  2.3198
    7MOL0     H  925   6.016   1.302   6.749 -0.5072 -1.5009  1.1298
    7MOL0     H  926   5.914   1.400   6.639  2.2847 -1.9539 -0.9059
    7MOL0     H  927   5.860   1.242   6.690 -2.8543  0.0470  1.6860
    7MOL0     H  928   6.339   1.395   6.908 -0.8080  1.2377  0.6185
    7MOL0     H  929   6.561   1.432   6.873 -0.4968 -4.2941 -2.1492
    7MOL0     H  930   6.710   1.809   6.632  0.6258 -0.9826  0.1619
    7MOL0     H  931   6.667   1.831   6.808 -0.1705  2.2710 -2.1411
    7MOL0     H  932   6.875   1.723   6.869  1.6497  0.5724  0.4344
    7MOL0     H  933   6.921   1.690   6.700  1.5470 -0.9456  3.6347
    7MOL0     H  934   6.877   1.945   6.865  1.8751  0.8188  0.0005
    7MOL0     H  935   6.876   1.935   6.679  0.8917  0.1086 -0.5039
    7MOL0     H  936   7.089   1.838   6.862 -0.0796  0.4418  0.7038
    7MOL0     H  937   7.099   2.004   6.827  1.2788 -1.2427  4.3358
    7MOL0     H  938   7.252   1.921   6.677  0.8037  0.6057 -1.3742
    7MOL0     H  939   7.157   1.768   6.657 -4.1626  0.2358 -1.0267
    7MOL0     H  940   7.059   2.025   6.539  0.6068  0.4713 -0.4957
    7MOL0     H  941   7.013   1.871   6.500 -0.7599  0.4348  0.0997
    7MOL0     H  942   7.310   1.951   6.466  1.0085  3.6148 -1.1126
    7MOL0     H  943   7.200   2.009   6.341  1.8140  0.0885 -0.5370
    7MOL0     H  944   7.130   1.787   6.269  1.9299 -0.3847 -3.3228
    7MOL0     H  945   7.245   1.710   6.385 -1.8729 -0.1708  1.2941
    7MOL0     H  946   6.471   1.764   6.606 -0.3702 -0.0048  0.5291
    7MOL0     H  947   6.237   1.685   6.610 -3.3381 -2.2072  1.1386
    7MOL0     H  948   5.898   1.651   7.084 -0.8499  1.6908 -0.6395
    7MOL0     H  949   5.664   1.572   7.140 -1.1200  0.5533 -0.5828
    7MOL0     H  950   6.481   0.808   6.990  1.4291 -0.1706 -0.1841
    7MOL0     H  951   6.709   0.856   7.051 -0.7192 -0.1001  1.4116
    7MOL0     H  952   7.003   1.036   7.172  2.6576  0.8609  3.9784
    7MOL0     H  953   7.212   1.000   7.262 -3.0946  1.6763  0.7481
    7MOL0     H  954   7.577   0.899   7.053  0.5119 -0.2299 -0.3257
    7MOL0     H  955   7.582   1.066   7.011 -0.6367 -1.4113 -1.8892
    7MOL0     H  956   7.681   1.132   7.233  0.6925 -0.1234  0.3854
    7MOL0     H  957   7.791   1.030   7.134  0.0595 -1.2131  0.0964
    7MOL0     H  958   7.598   0.947   7.354  0.3122 -2.0200 -0.0904
    7MOL0     H  959   7.705   0.841   7.256 -1.7172  0.8749 -2.6437
    7MOL0     H  960   7.791   1.081   7.416 -0.2137  0.0248  0.8681
    7MOL0     H  961   7.912   0.952   7.363 -0.6190 -2.4157  0.1827
    7MOL0     H  962   7.726   0.801   7.712  0.0219 -0.6913 -0.9409
    7MOL0     H  963   7.404   1.047   6.880  0.3024 -3.4116  1.1715
    7MOL0     H  964   7.232   0.974   6.690 -1.3074  0.8553 -3.7850
    7MOL0     H  965   7.100   1.093   6.697  0.4585 -2.2828  1.6793
    7MOL0     H  966   7.259   1.146   6.709  2.4906 -0.0382  0.2493
    8MOL0     O  967   2.963  10.273   0.412 -0.1783  0.0467 -0.3850
    8MOL0     C  968   2.907  10.252   0.301 -0.3707  0.2866 -0.4447
    8MOL0     O  969   2.964  10.281   0.177 -0.0479 -0.8221 -0.1995
    8MOL0     C  970   3.099  10.289   0.167 -0.5135  0.2730  0.2209
    8MOL0     C  971   3.162  10.420   0.142  0.3259 -0.8629  0.6352
    8MOL0     C  972   3.304  10.440   0.149 -1.1985  0.0298 -0.0346
    8MOL0     C  973   3.390  10.332   0.178  0.1841 -0.3309 -0.4286
    8MOL0     O  974   3.522  10.367   0.181  0.4259 -0.6023 -0.1482
    8MOL0     C  975   3.615  10.276   0.251  0.0941 -0.1861 -0.1978
    8MOL0     C  976   3.754  10.336   0.274 -0.6729  0.2235 -0.3838
    8MOL0     C  977   3.825  10.394   0.154 -0.1985  0.0424 -0.3196
    8MOL0     C  978   3.948  10.473   0.190 -0.2533 -0.9645  0.2925
    8MOL0     C  979   4.024  10.505   0.063  0.3756  0.6152 -0.1694
    8MOL0     C  980   4.127  10.604   0.107  0.4923 -0.8543  0.9720
    8MOL0     C  981   4.189  10.644  -0.021 -0.0354 -0.5221 -0.2688
    8MOL0     C  982   4.306  10.743  -0.009 -0.3583 -0.4100 -0.5242
    8MOL0     N  983   4.402  10.707   0.088  0.1517 -1.0101 -1.7295
    8MOL0     C  984   4.403  10.729   0.223 -0.5584  0.8648 -0.4105
    8MOL0     C  985   4.518  10.686   0.271  0.0611 -0.1517  0.1968
    8MOL0     C  986   4.551  10.685   0.419 -0.6805  0.1212 -0.1011
    8MOL0     C  987   4.681  10.753   0.449  0.2716  0.6959 -0.5244
    8MOL0     C  988   4.696  10.798   0.592 -0.0436  0.1609  0.7259
    8MOL0     C  989   4.843  10.837   0.616  0.2338 -0.4408 -0.0722
    8MOL0     O  990   4.854  10.845   0.754  0.4260 -0.1374 -0.7788
    8MOL0     C  991   4.979  10.853   0.808 -0.4627  0.9250  0.4153
    8MOL0     C  992   5.006  10.777   0.930 -0.2392  0.0912 -0.0541
    8MOL0     C  993   5.131  10.789   0.986 -0.4410  0.9345  0.5979
    8MOL0     C  994   5.151  10.708   1.113  0.2137  0.1273 -0.2317
    8MOL0     C  995   5.241  10.853   0.912  0.5328  0.2564 -0.2021
    8MOL0     C  996   5.375  10.855   0.968 -0.5144 -0.2159  0.3228
    8MOL0     O  997   5.420  10.742   1.023 -0.7993 -1.1062  0.0329
    8MOL0     C  998   5.551  10.740   1.073 -0.1033  0.0981 -1.1339
    8MOL0     C  999   5.650  10.719   0.981  0.0385 -0.7688  0.7494
    8MOL0     C 1000   5.780  10.709   1.029  0.1733  0.2734 -0.3031
    8MOL0     C 1001   5.815  10.740   1.160 -0.4098  1.1254 -0.4724
    8MOL0     O 1002   5.948  10.737   1.181  0.0243  0.4172  0.1402
    8MOL0     C 1003   6.003  10.745   1.312  0.0198 -0.8638  0.3754
    8MOL0     C 1004   6.105  10.856   1.318 -0.3759  0.8483 -0.8590
    8MOL0     C 1005   6.243  10.829   1.265  1.0420 -0.1030 -0.2335
    8MOL0     C 1006   6.321  10.724   1.346 -0.0166  0.2937 -0.2344
    8MOL0     C 1007   6.446  10.689   1.267 -0.6602  0.0781  0.9379
    8MOL0     C 1008   6.519  10.571   1.330  0.0942  0.2834 -0.2356
    8MOL0     C 1009   6.455  10.439   1.292  0.9766  0.3157  0.0683
    8MOL0     C 1010   6.510  10.318   1.376  0.5795 -0.9002  0.4830
    8MOL0    Cl 1011   6.456  10.330   1.553 -0.1721  0.4470  0.7436
    8MOL0     C 1012   5.714  10.775   1.243 -0.7724  1.1656  0.2779
    8MOL0     C 1013   5.575  10.776   1.203 -0.0678  0.7951  0.3809
    8MOL0     O 1014   5.424  10.969   0.985  0.8734  0.2155 -0.5395
    8MOL0     C 1015   5.210  10.926   0.802  0.5142  0.1571 -0.5008
    8MOL0     C 1016   5.076  10.927   0.755  0.2781  0.4647 -0.3564
    8MOL0     N 1017   4.586  10.636   0.163  0.2309  0.2419 -0.2550
    8MOL0     N 1018   4.518  10.646   0.060  0.6030  0.8859  0.3204
    8MOL0     C 1019   3.327  10.208   0.197  0.2105 -0.1073 -0.3942
    8MOL0     C 1020   3.188  10.183   0.188 -0.4568  0.4028  0.0983
    8MOL0     C 1021   2.759  10.217   0.303 -0.1050 -0.0489  0.4816
    8MOL0     C 1022   2.689  10.240   0.177  0.5861  0.2765 -0.4824
    8MOL0     C 1023   2.553  10.212   0.159  0.8325  0.4771  0.1385
    8MOL0     C 1024   2.477  10.160   0.264  0.1245  0.6583  0.4458
    8MOL0     O 1025   2.344  10.132   0.271  0.9913  0.9247  0.4556
    8MOL0     C 1026   2.266  10.178   0.165  0.1671 -0.2672  0.5529
    8MOL0     C 1027   2.120  10.131   0.183  0.6028  0.6627 -0.2914
    8MOL0     C 1028   2.070  10.181   0.323 -0.2509  0.3967 -0.2160
    8MOL0     C 1029   1.919  10.203   0.326 -0.1137  0.0239 -0.0416
    8MOL0     C 1030   1.850  10.070   0.312  0.1657  0.9228  0.1944
    8MOL0     C 1031   1.793   9.965   0.307  0.3026  0.2048 -0.5801
    8MOL0     C 1032   2.551  10.132   0.385  0.8163  0.6474  0.0732
    8MOL0     C 1033   2.692  10.153   0.406 -0.0818 -0.9117 -0.2145
    8MOL0     C 1034   2.750  10.099   0.527  0.9118  0.1187 -0.0635
    8MOL0     H 1035   3.096  10.498   0.106  0.1484 -1.5237 -0.5141
    8MOL0     H 1036   3.354  10.531   0.118  0.0919 -0.6087  0.0784
    8MOL0     H 1037   3.623  10.188   0.186  0.8703  1.0289 -1.8169
    8MOL0     H 1038   3.568  10.249   0.346  0.7514  1.5343  0.6665
    8MOL0     H 1039   3.751  10.402   0.362 -1.2437 -0.7810  0.3599
    8MOL0     H 1040   3.809  10.247   0.306 -2.5042 -0.6810  0.3390
    8MOL0     H 1041   3.842  10.307   0.090  1.2825  0.5668 -0.6825
    8MOL0     H 1042   3.750  10.455   0.103  0.9498  1.4648 -0.3755
    8MOL0     H 1043   3.920  10.562   0.247  1.4856 -0.8115  0.9621
    8MOL0     H 1044   4.013  10.415   0.256 -0.2812  0.6320  1.7785
    8MOL0     H 1045   3.955  10.551  -0.008  0.4521  0.0556 -0.6194
    8MOL0     H 1046   4.065  10.413   0.019 -0.3873  1.1417 -2.0726
    8MOL0     H 1047   4.085  10.690   0.159 -2.0211 -0.9775 -0.6483
    8MOL0     H 1048   4.196  10.550   0.172 -0.4005 -4.9852 -1.1633
    8MOL0     H 1049   4.113  10.689  -0.086  0.0267  0.9354  0.6250
    8MOL0     H 1050   4.210  10.551  -0.074  0.7862  0.3264 -1.5114
    8MOL0     H 1051   4.349  10.770  -0.106 -1.5667  0.7480 -0.7752
    8MOL0     H 1052   4.269  10.838   0.032  0.2123  2.4763 -5.7103
    8MOL0     H 1053   4.324  10.766   0.288  0.8402 -0.0476  1.9546
    8MOL0     H 1054   4.545  10.584   0.461 -3.6445 -0.7863 -2.3347
    8MOL0     H 1055   4.465  10.736   0.462 -2.2198 -0.5162 -2.2431
    8MOL0     H 1056   4.757  10.676   0.434 -0.8662 -0.8877  1.2463
    8MOL0     H 1057   4.710  10.829   0.376  4.7423 -1.8553 -1.7731
    8MOL0     H 1058   4.619  10.874   0.609 -0.1531  0.3862 -0.7093
    8MOL0     H 1059   4.665  10.719   0.662 -0.3994 -0.3733 -0.0250
    8MOL0     H 1060   4.909  10.759   0.578  1.6361  0.2522  0.8832
    8MOL0     H 1061   4.857  10.930   0.562  0.4876  1.0055  2.3349
    8MOL0     H 1062   4.924  10.726   0.980  0.9749  0.1171  2.1095
    8MOL0     H 1063   5.059  10.687   1.168  0.5123 -0.9061 -0.0989
    8MOL0     H 1064   5.232  10.745   1.177  3.2567 -3.4094 -1.6884
    8MOL0     H 1065   5.173  10.604   1.087 -1.8483 -0.7915  1.4456
    8MOL0     H 1066   5.622  10.700   0.877  2.4864  2.1355 -0.5671
    8MOL0     H 1067   5.853  10.689   0.951  1.2125  2.3646  0.0840
    8MOL0     H 1068   5.926  10.765   1.388 -2.3272  3.4507 -2.6939
    8MOL0     H 1069   6.056  10.651   1.333  0.2697 -0.3078  2.4557
    8MOL0     H 1070   6.069  10.953   1.282 -1.2186  1.4503  1.4297
    8MOL0     H 1071   6.121  10.859   1.426 -1.3482 -1.6582 -0.5606
    8MOL0     H 1072   6.297  10.925   1.262  1.0605  0.0612  2.8183
    8MOL0     H 1073   6.242  10.794   1.161  1.6800  0.7027 -0.5280
    8MOL0     H 1074   6.277  10.625   1.363  2.0064 -0.5424  0.4560
    8MOL0     H 1075   6.353  10.760   1.444  0.0678  0.6250 -0.3842
    8MOL0     H 1076   6.427  10.668   1.161  0.6521 -0.5478  0.8072
    8MOL0     H 1077   6.504  10.782   1.266 -2.4944  1.2630  0.2910
    8MOL0     H 1078   6.519  10.583   1.439 -0.2662  1.0395 -0.3151
    8MOL0     H 1079   6.620  10.555   1.291  0.0276 -2.7636  0.5625
    8MOL0     H 1080   6.467  10.414   1.186 -2.0731 -0.3875 -0.2171
    8MOL0     H 1081   6.346  10.432   1.306  1.1101  1.4029  1.9679
    8MOL0     H 1082   6.619  10.314   1.377  0.6172 -4.5006 -1.2116
    8MOL0     H 1083   6.475  10.224   1.331 -1.2951 -0.2216  0.4300
    8MOL0     H 1084   5.745  10.798   1.344  0.2271  3.3337 -0.4475
    8MOL0     H 1085   5.501  10.806   1.275  1.5150  2.6720  1.3112
    8MOL0     H 1086   5.280  10.990   0.749 -0.4647  1.5450 -0.1708
    8MOL0     H 1087   5.060  10.983   0.663  2.0550  0.9256 -0.4374
    8MOL0     H 1088   3.391  10.127   0.233  0.0691  0.6838  1.8277
    8MOL0     H 1089   3.152  10.082   0.205  1.3048 -0.0968  1.0990
    8MOL0     H 1090   2.735  10.295   0.095  0.8089 -0.6880 -1.0277
    8MOL0     H 1091   2.510  10.245   0.065  1.0125  0.1546 -0.0584
    8MOL0     H 1092   2.261  10.287   0.165 -0.9096 -0.2404 -2.2463
    8MOL0     H 1093   2.309  10.146   0.070  2.6234 -0.0070  1.5134
    8MOL0     H 1094   2.125  10.022   0.170 -0.5602  0.6831 -1.1339
    8MOL0     H 1095   2.058  10.166   0.099 -0.7869 -1.5505 -0.2610
    8MOL0     H 1096   2.098  10.097   0.388 -0.6936  0.8088  0.5285
    8MOL0     H 1097   2.120  10.272   0.359  0.3577 -0.6420  1.7218
    8MOL0     H 1098   1.891  10.275   0.249  0.3547 -1.3219 -1.5387
    8MOL0     H 1099   1.896  10.246   0.424 -3.2024 -0.4343 -0.4451
    8MOL0     H 1100   1.745   9.870   0.308  0.5378  0.0830 -0.6729
    8MOL0     H 1101   2.494  10.082   0.462  0.0757  2.8793  1.0546
    8MOL0     H 1102   2.845  10.054   0.496  0.7737 -1.9220  2.1687
    8MOL0     H 1103   2.760  10.170   0.609  0.7450 -0.9666  0.9239
    8MOL0     H 1104   2.682  10.020   0.560  0.8827 -1.2336 -3.0014
    9MOL0     O 1105   2.286   3.338   4.833  0.0725  0.1338  0.1735
    9MOL0     C 1106   2.257   3.284   4.940 -0.1550  0.2892 -0.2827
    9MOL0     O 1107   2.343   3.273   5.045 -0.0686 -0.2666 -0.4063
    9MOL0     C 1108   2.473   3.306   5.013 -0.4680 -0.3654  0.3101
    9MOL0     C 1109   2.567   3.216   4.955 -0.2170  0.1035  0.7687
    9MOL0     C 1110   2.693   3.262   4.920  0.8750  1.0369 -0.1479
    9MOL0     C 1111   2.730   3.392   4.949 -0.1599  0.5888  0.4544
    9MOL0     O 1112   2.851   3.439   4.921  0.3422 -0.5357 -0.2169
    9MOL0     C 1113   2.885   3.436   4.787 -0.0628 -0.2874 -0.4100
    9MOL0     C 1114   3.033   3.459   4.769  0.1077  0.1216 -0.6434
    9MOL0     C 1115   3.118   3.349   4.836 -0.1081  0.5716 -0.9053
    9MOL0     C 1116   3.265   3.375   4.853  0.2290 -0.0521  0.0709
    9MOL0     C 1117   3.318   3.423   4.723 -1.3523 -0.1692 -0.1093
    9MOL0     C 1118   3.470   3.467   4.753  0.3640  0.3763  0.4773
    9MOL0     C 1119   3.551   3.532   4.630  0.0481  0.0521 -0.1471
    9MOL0     C 1120   3.699   3.588   4.670  0.1096  1.3892 -0.1765
    9MOL0     N 1121   3.802   3.475   4.672  0.4253 -0.2250 -1.0740
    9MOL0     C 1122   3.829   3.375   4.577 -0.1538  0.0936  0.8422
    9MOL0     C 1123   3.908   3.286   4.634  0.3133  0.1065 -0.5308
    9MOL0     C 1124   3.963   3.163   4.589 -0.9317  0.8473  1.3197
    9MOL0     C 1125   4.101   3.183   4.521  0.2727 -0.5268  0.0645
    9MOL0     C 1126   4.168   3.053   4.466  0.2946  1.0567  0.0931
    9MOL0     C 1127   4.299   3.086   4.385  0.4738  0.5480 -0.2038
    9MOL0     O 1128   4.279   3.175   4.275 -0.2330  0.6644  0.2326
    9MOL0     C 1129   4.320   3.308   4.288 -0.6517  0.3787  1.1005
    9MOL0     C 1130   4.443   3.340   4.344  0.2769 -0.3600 -0.5681
    9MOL0     C 1131   4.478   3.471   4.374  0.2300  0.9894  0.3558
    9MOL0     C 1132   4.604   3.485   4.459  0.2426  0.1086 -0.3742
    9MOL0     C 1133   4.385   3.574   4.341 -0.2921 -0.2331 -0.0640
    9MOL0     C 1134   4.430   3.721   4.355  0.2683 -0.0352  0.7968
    9MOL0     O 1135   4.562   3.742   4.384  0.3023 -0.1175  0.1984
    9MOL0     C 1136   4.598   3.870   4.428 -0.5010 -0.3213 -0.4848
    9MOL0     C 1137   4.686   3.948   4.345 -0.9965  0.1766 -0.9093
    9MOL0     C 1138   4.726   4.070   4.400  0.3990 -0.8656 -0.0412
    9MOL0     C 1139   4.688   4.122   4.530  0.4955  0.9203  0.8377
    9MOL0     O 1140   4.716   4.246   4.582 -0.1938  0.1135  0.4834
    9MOL0     C 1141   4.724   4.367   4.504 -0.0551  1.0323 -0.6330
    9MOL0     C 1142   4.585   4.412   4.460 -0.0444 -0.3913 -0.2629
    9MOL0     C 1143   4.482   4.435   4.579  0.0792 -0.3875 -0.0428
    9MOL0     C 1144   4.374   4.335   4.564  0.6214 -0.6187  0.7507
    9MOL0     C 1145   4.276   4.330   4.685  0.2435  0.1550  0.2265
    9MOL0     C 1146   4.201   4.467   4.700 -0.2034 -0.0995  0.2108
    9MOL0     C 1147   4.118   4.448   4.822 -0.6154  0.8500 -0.2530
    9MOL0     C 1148   4.066   4.582   4.876  0.7015  0.8048 -0.7954
    9MOL0    Cl 1149   3.950   4.569   5.023 -0.4552 -0.3732 -0.2540
    9MOL0     C 1150   4.607   4.040   4.605  0.5368  0.8668  0.0908
    9MOL0     C 1151   4.560   3.919   4.557  0.7770  0.0908 -0.7444
    9MOL0     O 1152   4.347   3.806   4.317 -0.4232 -0.5326 -0.2780
    9MOL0     C 1153   4.261   3.535   4.290  0.4711  0.5820  0.4410
    9MOL0     C 1154   4.226   3.403   4.258  0.6721  0.0175  0.4226
    9MOL0     N 1155   3.937   3.334   4.763 -0.1773 -0.1979  0.8371
    9MOL0     N 1156   3.869   3.443   4.787 -0.2290  0.3824 -0.1729
    9MOL0     C 1157   2.637   3.486   4.998  0.7277  0.5748  0.4575
    9MOL0     C 1158   2.516   3.435   5.043  1.0678 -0.7561  0.1699
    9MOL0     C 1159   2.120   3.230   4.964 -0.0047 -1.0009 -0.0735
    9MOL0     C 1160   2.035   3.312   5.047 -0.5357  0.8787  1.9320
    9MOL0     C 1161   1.902   3.282   5.045  0.3808 -0.2127 -0.0953
    9MOL0     C 1162   1.852   3.166   4.986  0.1729 -0.2002 -0.3403
    9MOL0     O 1163   1.734   3.114   5.038 -0.3668  0.2659  0.2823
    9MOL0     C 1164   1.638   3.051   4.939  0.5476 -0.5834 -0.2881
    9MOL0     C 1165   1.578   3.137   4.826  0.5206  0.2389 -0.1591
    9MOL0     C 1166   1.517   3.271   4.881 -0.1860  0.5692 -0.0735
    9MOL0     C 1167   1.395   3.303   4.796  0.2334 -0.5548 -0.5965
    9MOL0     C 1168   1.336   3.427   4.852  0.0014  0.0217 -1.1647
    9MOL0     C 1169   1.294   3.540   4.891  0.0776  0.0383 -0.5155
    9MOL0     C 1170   1.938   3.091   4.902 -0.5161  0.9543  0.0920
    9MOL0     C 1171   2.075   3.122   4.890 -0.5475  0.3088  0.2727
    9MOL0     C 1172   2.163   3.046   4.793  0.1727 -0.1338 -0.1069
    9MOL0     H 1173   2.541   3.112   4.940  1.5304 -0.2907  0.1931
    9MOL0     H 1174   2.766   3.193   4.880  1.3915  1.7272 -0.4181
    9MOL0     H 1175   2.833   3.510   4.725 -0.6586 -0.3947 -0.0341
    9MOL0     H 1176   2.878   3.335   4.747  1.0866  0.4325 -2.6309
    9MOL0     H 1177   3.052   3.478   4.663  0.3314  1.1859 -0.4255
    9MOL0     H 1178   3.057   3.552   4.821 -1.9373  0.2002  0.2596
    9MOL0     H 1179   3.073   3.331   4.934  0.3631 -1.4422 -1.0045
    9MOL0     H 1180   3.109   3.256   4.778 -2.0770 -0.0620  0.3137
    9MOL0     H 1181   3.286   3.441   4.938 -0.1575 -0.2117  0.2957
    9MOL0     H 1182   3.318   3.286   4.887  0.6408  1.2630  3.2251
    9MOL0     H 1183   3.267   3.509   4.679 -0.1147 -1.0469 -3.5562
    9MOL0     H 1184   3.321   3.340   4.652 -1.8647 -1.1262  0.9530
    9MOL0     H 1185   3.464   3.541   4.834  0.0160 -0.4590  1.2277
    9MOL0     H 1186   3.520   3.378   4.791  0.6186  0.5461  0.5486
    9MOL0     H 1187   3.488   3.619   4.609  1.9796  1.7346  0.6894
    9MOL0     H 1188   3.564   3.472   4.540  0.3009 -0.2506  0.0896
    9MOL0     H 1189   3.733   3.666   4.602  0.2438  1.6762  0.2166
    9MOL0     H 1190   3.693   3.650   4.760  2.6681  2.2338 -0.4922
    9MOL0     H 1191   3.799   3.366   4.473  0.2531  0.9839  0.6443
    9MOL0     H 1192   3.891   3.110   4.525 -0.3149 -2.1055  2.9078
    9MOL0     H 1193   3.970   3.095   4.673 -0.3550 -1.9255 -0.8296
    9MOL0     H 1194   4.095   3.262   4.446  2.1947 -0.4121 -0.0084
    9MOL0     H 1195   4.171   3.220   4.596  0.5640 -3.2757  1.2748
    9MOL0     H 1196   4.187   2.985   4.549  2.2313 -1.9184 -2.5245
    9MOL0     H 1197   4.105   2.999   4.394  2.8560 -0.7413 -0.9861
    9MOL0     H 1198   4.362   3.129   4.464  1.1612 -1.4137  0.3581
    9MOL0     H 1199   4.350   2.997   4.348  0.8669  1.0030 -0.7685
    9MOL0     H 1200   4.519   3.266   4.367 -2.0633 -2.1607  2.0152
    9MOL0     H 1201   4.640   3.389   4.496  0.1552  0.2362  0.0489
    9MOL0     H 1202   4.583   3.550   4.545 -2.6663 -1.3554  0.1761
    9MOL0     H 1203   4.677   3.535   4.396  0.8527  0.0380  0.2651
    9MOL0     H 1204   4.713   3.913   4.246  1.7076 -0.9764  0.1601
    9MOL0     H 1205   4.780   4.140   4.336 -1.4918  2.1385  1.4407
    9MOL0     H 1206   4.768   4.446   4.567 -0.3556 -1.1109  2.4818
    9MOL0     H 1207   4.803   4.360   4.428  1.7901  0.2280  1.2426
    9MOL0     H 1208   4.593   4.506   4.405  3.5372 -0.8137 -0.7251
    9MOL0     H 1209   4.545   4.337   4.391 -0.0445  1.4763 -2.4003
    9MOL0     H 1210   4.437   4.534   4.569  1.0894  0.3645  2.2246
    9MOL0     H 1211   4.522   4.429   4.680 -0.1689  1.1518  0.1589
    9MOL0     H 1212   4.415   4.233   4.560 -0.2423 -1.0881  2.9517
    9MOL0     H 1213   4.327   4.354   4.467  2.5067 -0.5443 -0.1924
    9MOL0     H 1214   4.206   4.246   4.679 -0.3744  0.6923 -0.2978
    9MOL0     H 1215   4.330   4.307   4.777 -0.5515 -0.8679  0.4568
    9MOL0     H 1216   4.137   4.485   4.613  2.5783  1.2683 -1.6984
    9MOL0     H 1217   4.276   4.545   4.716  1.4392 -1.4331 -0.6433
    9MOL0     H 1218   4.180   4.402   4.900  2.1467  1.6222 -1.8241
    9MOL0     H 1219   4.036   4.385   4.788 -1.0518  0.0167  2.1219
    9MOL0     H 1220   4.016   4.627   4.790  1.1497  0.3439 -1.3130
    9MOL0     H 1221   4.145   4.655   4.898 -0.9689  1.4147  4.5736
    9MOL0     H 1222   4.558   4.084   4.691 -2.4887  2.8680 -2.4521
    9MOL0     H 1223   4.495   3.846   4.604  0.3135  2.2057  2.2596
    9MOL0     H 1224   4.189   3.611   4.264  0.7944  0.3255 -1.3166
    9MOL0     H 1225   4.126   3.369   4.234  0.8642  0.6314 -1.3127
    9MOL0     H 1226   2.662   3.589   5.022  0.6490  0.1696  2.4414
    9MOL0     H 1227   2.444   3.504   5.085  4.2919  3.7074 -0.8546
    9MOL0     H 1228   2.071   3.406   5.087  0.0591  0.5558  2.1814
    9MOL0     H 1229   1.835   3.352   5.094 -0.6843 -1.1252 -0.2101
    9MOL0     H 1230   1.692   2.968   4.892  1.5434 -1.8066  2.7500
    9MOL0     H 1231   1.557   3.011   5.000  1.6481  0.8784  2.3098
    9MOL0     H 1232   1.492   3.080   4.792 -0.6865  1.1897  1.1775
    9MOL0     H 1233   1.657   3.156   4.752  0.7960 -0.9547 -0.1875
    9MOL0     H 1234   1.500   3.267   4.989  0.0718  1.1947 -0.0063
    9MOL0     H 1235   1.594   3.345   4.856  1.8526 -1.2272  0.5744
    9MOL0     H 1236   1.321   3.223   4.799 -0.5353  0.1365 -0.9665
    9MOL0     H 1237   1.422   3.316   4.691  4.2641  1.1265  0.4474
    9MOL0     H 1238   1.254   3.638   4.904 -1.6453 -0.5873 -0.7238
    9MOL0     H 1239   1.903   3.001   4.852 -0.4635  2.3657 -2.6906
    9MOL0     H 1240   2.149   3.073   4.688 -0.3902 -0.3625 -0.0911
    9MOL0     H 1241   2.270   3.064   4.810  0.2236  1.9254 -2.0983
    9MOL0     H 1242   2.147   2.939   4.807 -0.3954 -0.2598 -1.5808
   10MOL0     O 1243   8.247   7.274   2.341 -0.5294  0.0480  0.3966
   10MOL0     C 1244   8.200   7.213   2.435  0.0853 -0.7479  0.0785
   10MOL0     O 1245   8.262   7.179   2.548 -0.2141 -0.5656  0.2511
   10MOL0     C 1246   8.396   7.210   2.557 -0.2540 -0.2652 -0.7664
   10MOL0     C 1247   8.494   7.160   2.465  0.2500 -0.0609  0.5402
   10MOL0     C 1248   8.629   7.197   2.480 -1.1800  0.7225 -0.5036
   10MOL0     C 1249   8.679   7.278   2.582 -0.4767  0.1662 -0.1980
   10MOL0     O 1250   8.804   7.326   2.589  0.2747 -0.4898  0.1147
   10MOL0     C 1251   8.902   7.307   2.484 -0.8813 -0.4040 -0.3085
   10MOL0     C 1252   8.999   7.193   2.515 -0.0194  0.9673 -0.5312
   10MOL0     C 1253   9.088   7.224   2.637 -0.2642 -0.3485 -0.5638
   10MOL0     C 1254   9.153   7.099   2.687 -0.9592  0.4632 -0.1307
   10MOL0     C 1255   9.285   7.148   2.752  0.1112 -0.3997 -0.5965
   10MOL0     C 1256   9.401   7.171   2.647  0.6223 -0.8881 -0.0183
   10MOL0     C 1257   9.416   7.066   2.541 -0.0982 -0.5243  0.5397
   10MOL0     C 1258   9.545   7.088   2.456  0.3432 -0.1203 -0.0322
   10MOL0     N 1259   9.660   7.020   2.512  0.0503  0.1927  0.0090
   10MOL0     C 1260   9.770   7.070   2.570 -0.6415  0.7528  0.5534
   10MOL0     C 1261   9.844   6.966   2.605  0.1893 -0.0544  0.9616
   10MOL0     C 1262   9.979   6.970   2.676  0.6225 -0.0256 -0.4439
   10MOL0     C 1263  10.086   7.028   2.590  0.0828 -0.1676  1.2030
   10MOL0     C 1264  10.223   6.995   2.640 -0.3125  0.4911 -0.3752
   10MOL0     C 1265  10.319   7.009   2.525 -0.8720 -0.9065  1.0133
   10MOL0     O 1266  10.320   7.134   2.457 -0.2735 -0.4904  0.4418
   10MOL0     C 1267  10.405   7.146   2.348 -0.6559 -0.5173 -0.2552
   10MOL0     C 1268  10.385   7.258   2.262 -1.1437  0.2793 -0.4361
   10MOL0     C 1269  10.471   7.299   2.160 -0.5061  0.5760 -0.4737
   10MOL0     C 1270  10.429   7.433   2.102 -0.3562 -0.2733  0.0460
   10MOL0     C 1271  10.593   7.234   2.154 -0.6784 -0.2906 -0.4746
   10MOL0     C 1272  10.699   7.270   2.055  1.1784  0.2931 -0.3944
   10MOL0     O 1273  10.823   7.239   2.101 -0.0271 -0.3935 -0.0536
   10MOL0     C 1274  10.931   7.284   2.039  1.0778 -0.4569  0.8091
   10MOL0     C 1275  10.932   7.408   1.973 -0.0510  0.2129 -0.4168
   10MOL0     C 1276  11.056   7.459   1.934 -0.0309  0.0605 -0.1237
   10MOL0     C 1277  11.172   7.381   1.929  0.2572  0.8742  0.2948
   10MOL0     O 1278  11.293   7.421   1.892 -0.7606 -0.0478 -0.4240
   10MOL0     C 1279  11.308   7.503   1.772 -0.5724 -0.5352  0.4187
   10MOL0     C 1280  11.323   7.655   1.813 -0.5889 -1.1593 -0.2805
   10MOL0     C 1281  11.457   7.684   1.889  0.7413 -0.6085 -0.6547
   10MOL0     C 1282  11.486   7.829   1.904 -0.6957 -0.5516 -0.2571
   10MOL0     C 1283  11.622   7.862   1.954  0.2406  0.3174 -0.0381
   10MOL0     C 1284  11.661   7.792   2.083  0.3987 -0.6131 -0.8633
   10MOL0     C 1285  11.797   7.859   2.142  0.6676  0.1422 -0.2431
   10MOL0     C 1286  11.864   7.761   2.232 -0.1678  0.5726 -0.4427
   10MOL0    Cl 1287  11.978   7.852   2.335 -0.0446 -0.0615 -0.4016
   10MOL0     C 1288  11.172   7.258   1.988  0.7523 -0.3282  0.4735
   10MOL0     C 1289  11.043   7.206   2.034 -0.6733  1.0721 -0.1731
   10MOL0     O 1290  10.668   7.320   1.948  1.0677 -0.5244 -0.3089
   10MOL0     C 1291  10.604   7.108   2.221 -0.3762  0.1585  0.3426
   10MOL0     C 1292  10.517   7.065   2.320  0.6379 -0.0090  0.5858
   10MOL0     N 1293   9.781   6.854   2.562  0.1121 -0.5986  0.5326
   10MOL0     N 1294   9.671   6.884   2.514  0.4736 -0.3665 -0.5685
   10MOL0     C 1295   8.582   7.328   2.676 -0.9456 -0.1512 -0.4828
   10MOL0     C 1296   8.447   7.289   2.665  0.6253 -0.5209 -0.5498
   10MOL0     C 1297   8.059   7.168   2.425  0.3623 -0.9231 -0.1788
   10MOL0     C 1298   8.039   7.035   2.459  0.1668  0.0174  0.3735
   10MOL0     C 1299   7.900   6.985   2.474 -0.3533  1.5558  0.3966
   10MOL0     C 1300   7.786   7.060   2.432 -0.9544 -0.3454  1.0492
   10MOL0     O 1301   7.670   6.981   2.418  0.2875 -0.1734  0.5588
   10MOL0     C 1302   7.584   6.998   2.304  0.3243 -0.1717  0.0108
   10MOL0     C 1303   7.463   6.901   2.310 -0.8832  0.3133  0.8624
   10MOL0     C 1304   7.377   6.961   2.426 -0.2930  0.3212  0.3764
   10MOL0     C 1305   7.237   6.904   2.431  0.0719  0.4350 -0.5754
   10MOL0     C 1306   7.177   6.876   2.301  0.0229 -0.1506 -0.8078
   10MOL0     C 1307   7.119   6.873   2.196  0.0893  0.2671 -0.1421
   10MOL0     C 1308   7.818   7.192   2.381  0.3251  1.4017  0.0588
   10MOL0     C 1309   7.944   7.244   2.379 -0.1180 -0.1057 -0.3370
   10MOL0     C 1310   7.971   7.384   2.329  0.3639  0.1890 -0.5375
   10MOL0     H 1311   8.466   7.110   2.373  0.3009  2.6487 -1.0641
   10MOL0     H 1312   8.693   7.158   2.402  0.7238  0.9342  0.8815
   10MOL0     H 1313   8.963   7.398   2.479  1.0057 -1.6223 -0.0534
   10MOL0     H 1314   8.852   7.291   2.387  1.9329 -3.6686 -1.4098
   10MOL0     H 1315   8.944   7.099   2.520  1.3836 -0.1756 -3.9469
   10MOL0     H 1316   9.055   7.172   2.423 -0.9281 -0.3675 -0.8080
   10MOL0     H 1317   9.162   7.298   2.605  1.2418 -0.7564  1.7717
   10MOL0     H 1318   9.027   7.270   2.716  0.1535 -0.9015  0.0877
   10MOL0     H 1319   9.087   7.047   2.757 -2.3794 -0.0752 -1.8094
   10MOL0     H 1320   9.175   7.027   2.609  1.5564 -0.7500  1.5775
   10MOL0     H 1321   9.312   7.074   2.828  3.0052 -0.0541 -1.1777
   10MOL0     H 1322   9.277   7.240   2.810 -0.2284 -0.3425 -0.7340
   10MOL0     H 1323   9.379   7.265   2.596 -1.0958 -2.1640 -1.7730
   10MOL0     H 1324   9.492   7.183   2.706 -0.1176  0.8988  0.8417
   10MOL0     H 1325   9.336   7.082   2.468  2.5937  0.4414 -2.4368
   10MOL0     H 1326   9.408   6.964   2.578  1.7200 -0.8827  0.0724
   10MOL0     H 1327   9.524   7.054   2.353  0.1561  1.5394 -0.5714
   10MOL0     H 1328   9.565   7.195   2.444  0.9248 -0.0480  1.4703
   10MOL0     H 1329   9.791   7.176   2.585 -0.3066  0.6353  0.9280
   10MOL0     H 1330  10.008   6.870   2.710  3.9527  0.1334 -2.3924
   10MOL0     H 1331   9.956   7.029   2.766  1.7595  1.0629 -0.8360
   10MOL0     H 1332  10.087   6.989   2.488  4.3997  0.4856  0.8137
   10MOL0     H 1333  10.075   7.137   2.598  1.6332 -0.0908  2.9087
   10MOL0     H 1334  10.251   7.063   2.721 -1.0763 -0.5446  0.8049
   10MOL0     H 1335  10.228   6.894   2.682 -1.6750 -0.2640 -1.9515
   10MOL0     H 1336  10.421   6.983   2.557 -0.0417 -0.3643 -0.9876
   10MOL0     H 1337  10.303   6.935   2.446  0.4496 -0.8612  0.6624
   10MOL0     H 1338  10.305   7.326   2.289  0.3998  1.0566  2.5966
   10MOL0     H 1339  10.445   7.428   1.993  0.3655 -0.4132  0.1518
   10MOL0     H 1340  10.497   7.510   2.141 -0.2815 -1.0635  1.5229
   10MOL0     H 1341  10.330   7.466   2.135 -0.5070 -0.2278 -0.4421
   10MOL0     H 1342  10.847   7.475   1.979  0.5587  0.9801 -0.2668
   10MOL0     H 1343  11.053   7.562   1.899 -0.3081 -0.1325 -0.6942
   10MOL0     H 1344  11.399   7.483   1.715  0.5980  0.7338  1.7541
   10MOL0     H 1345  11.231   7.488   1.697 -1.7597  0.1959  1.4500
   10MOL0     H 1346  11.324   7.705   1.716  0.8086 -1.1588 -0.2796
   10MOL0     H 1347  11.233   7.679   1.870  0.5617  1.5948  0.5484
   10MOL0     H 1348  11.538   7.646   1.826  0.1752  0.5098 -2.1041
   10MOL0     H 1349  11.464   7.639   1.989  0.9920  0.6297 -0.1007
   10MOL0     H 1350  11.408   7.877   1.964 -0.7753 -3.5909  2.3753
   10MOL0     H 1351  11.479   7.874   1.805  0.1829 -0.0997 -0.1231
   10MOL0     H 1352  11.705   7.849   1.884 -0.7601 -2.3664 -0.8830
   10MOL0     H 1353  11.613   7.968   1.977 -0.3334  0.4724 -0.9367
   10MOL0     H 1354  11.680   7.689   2.053  2.4191 -0.0450 -1.7464
   10MOL0     H 1355  11.581   7.802   2.156 -1.2053  2.1201 -2.7772
   10MOL0     H 1356  11.775   7.950   2.197 -1.1197  1.4026 -2.8188
   10MOL0     H 1357  11.859   7.875   2.053  2.7699  0.2737  1.1868
   10MOL0     H 1358  11.923   7.692   2.171 -0.2312  0.3953 -0.3063
   10MOL0     H 1359  11.791   7.697   2.283 -1.4492  3.2847  1.3562
   10MOL0     H 1360  11.265   7.202   1.984  1.2782  0.5681 -0.6074
   10MOL0     H 1361  11.046   7.107   2.079  0.4548 -0.1562 -2.7103
   10MOL0     H 1362  10.692   7.046   2.211 -0.3094  0.3826 -0.5162
   10MOL0     H 1363  10.550   6.980   2.379 -2.3602  0.0834  2.6602
   10MOL0     H 1364   8.611   7.381   2.767  0.9076  1.4054 -1.8988
   10MOL0     H 1365   8.379   7.326   2.741  0.6653 -1.7393  0.0929
   10MOL0     H 1366   8.128   6.980   2.487 -1.1947 -1.0143  2.9830
   10MOL0     H 1367   7.874   6.887   2.511 -1.0170  1.9798  1.0900
   10MOL0     H 1368   7.549   7.098   2.278 -2.1010 -1.7703 -3.8222
   10MOL0     H 1369   7.645   6.957   2.222  0.4384 -1.5422  0.7494
   10MOL0     H 1370   7.499   6.798   2.318  4.0236  1.7196  0.1588
   10MOL0     H 1371   7.409   6.899   2.215 -1.5312 -1.8147  1.2023
   10MOL0     H 1372   7.421   6.937   2.523 -1.3252 -2.3930  0.2535
   10MOL0     H 1373   7.364   7.070   2.426 -1.7493  0.1573  0.3723
   10MOL0     H 1374   7.166   6.969   2.483 -0.5898  0.3451 -1.3550
   10MOL0     H 1375   7.227   6.812   2.489  2.4477  0.2951 -0.2850
   10MOL0     H 1376   7.071   6.866   2.101  1.4172  0.2668 -0.8388
   10MOL0     H 1377   7.735   7.248   2.341 -0.8055  0.6605  1.3179
   10MOL0     H 1378   7.974   7.377   2.220 -1.3254 -1.3049 -0.5312
   10MOL0     H 1379   7.879   7.438   2.355 -0.3571 -1.4451  0.5295
   10MOL0     H 1380   8.060   7.439   2.360  1.4855 -0.7213 -2.0417
   11MOL0     O 1381  10.538   3.349   0.790 -0.2873  0.2407  0.3556
   11MOL0     C 1382  10.514   3.242   0.744  0.3080  0.1427  0.1474
   11MOL0     O 1383  10.604   3.151   0.707  0.6905 -0.2058  0.0379
   11MOL0     C 1384  10.740   3.178   0.726  0.6248  0.6190  1.0074
   11MOL0     C 1385  10.815   3.240   0.634  0.1213  0.0739  0.9965
   11MOL0     C 1386  10.956   3.255   0.649  0.7757 -0.4610 -0.9542
   11MOL0     C 1387  11.019   3.222   0.764  0.7043  0.6539 -0.3610
   11MOL0     O 1388  11.157   3.255   0.774  0.9042 -0.9068 -0.5169
   11MOL0     C 1389  11.194   3.390   0.762  0.3813 -1.1303  0.4439
   11MOL0     C 1390  11.211   3.455   0.900  0.7384  1.1145  0.0430
   11MOL0     C 1391  11.341   3.416   0.976  0.3518 -0.7177 -0.1467
   11MOL0     C 1392  11.334   3.273   1.020 -0.5533  0.7710  0.6333
   11MOL0     C 1393  11.411   3.239   1.141 -0.6533  1.2376 -0.4560
   11MOL0     C 1394  11.371   3.105   1.194  0.4930 -0.0365 -0.5753
   11MOL0     C 1395  11.449   3.073   1.318 -0.4011 -0.4940  0.2146
   11MOL0     C 1396  11.600   3.063   1.302 -0.3071  0.2955  0.2771
   11MOL0     N 1397  11.630   2.955   1.210  0.5584  0.8790 -0.2021
   11MOL0     C 1398  11.590   2.824   1.222 -0.0660  0.3265 -0.7507
   11MOL0     C 1399  11.606   2.778   1.094  0.2533 -0.8191 -0.3654
   11MOL0     C 1400  11.600   2.631   1.070 -0.1148  0.5634  0.4093
   11MOL0     C 1401  11.616   2.584   0.924  0.0830 -0.0010 -0.0078
   11MOL0     C 1402  11.497   2.617   0.833  0.5283 -0.4046  0.4410
   11MOL0     C 1403  11.531   2.588   0.685 -0.2526  0.2138  0.1153
   11MOL0     O 1404  11.558   2.447   0.676 -0.1949  0.1828  0.7578
   11MOL0     C 1405  11.664   2.406   0.593  0.0418  0.3690 -0.0995
   11MOL0     C 1406  11.680   2.466   0.461 -0.2945  0.1013  0.0378
   11MOL0     C 1407  11.782   2.437   0.376 -0.3341  0.2712 -0.6287
   11MOL0     C 1408  11.787   2.516   0.244 -0.1269  0.2902 -0.3878
   11MOL0     C 1409  11.881   2.345   0.416 -0.7435  0.5234  0.2800
   11MOL0     C 1410  12.009   2.325   0.335  0.3075  0.6294 -0.2365
   11MOL0     O 1411  12.065   2.435   0.288 -0.7515  0.0660  0.6991
   11MOL0     C 1412  12.167   2.433   0.193 -0.7648  0.7621 -0.1559
   11MOL0     C 1413  12.200   2.329   0.104  0.3600 -0.3078 -0.4637
   11MOL0     C 1414  12.305   2.345   0.015  0.6145 -0.5384 -0.0331
   11MOL0     C 1415  12.375   2.463   0.006  0.0844 -0.4974  0.2009
   11MOL0     O 1416  12.472   2.474  -0.097 -0.3829 -0.2768 -0.0302
   11MOL0     C 1417  12.620   2.486  -0.070 -0.5753 -0.0970 -0.3364
   11MOL0     C 1418  12.670   2.586  -0.164  0.9011 -1.0280 -0.1223
   11MOL0     C 1419  12.673   2.738  -0.110  0.3801 -0.5100  0.7826
   11MOL0     C 1420  12.655   2.853  -0.213 -1.0961 -0.7767 -0.1568
   11MOL0     C 1421  12.668   3.001  -0.157 -0.0435  0.4675 -0.4769
   11MOL0     C 1422  12.534   3.054  -0.100 -1.2458  0.7359 -0.1527
   11MOL0     C 1423  12.553   3.193  -0.034  0.3742 -0.0182 -0.2843
   11MOL0     C 1424  12.423   3.244   0.023  1.3442  0.2707  0.1881
   11MOL0    Cl 1425  12.311   3.249  -0.125 -0.0552  0.4031  0.0993
   11MOL0     C 1426  12.348   2.564   0.101  0.7757 -0.6086 -0.0640
   11MOL0     C 1427  12.247   2.550   0.196 -0.5496 -0.3276 -0.5714
   11MOL0     O 1428  12.046   2.208   0.317 -0.5204 -0.0568  0.1915
   11MOL0     C 1429  11.857   2.275   0.537  0.5148  0.8274  0.3329
   11MOL0     C 1430  11.753   2.300   0.624  0.2578 -0.0301 -0.1470
   11MOL0     N 1431  11.648   2.880   1.007  0.5997 -0.6943  0.0267
   11MOL0     N 1432  11.660   2.983   1.084 -0.1135 -0.2168 -0.2506
   11MOL0     C 1433  10.946   3.154   0.853  0.8535  0.0930  0.0084
   11MOL0     C 1434  10.811   3.121   0.831 -1.3068 -0.2873  0.1078
   11MOL0     C 1435  10.375   3.197   0.720  0.8638 -0.5392 -1.0307
   11MOL0     C 1436  10.347   3.055   0.701  0.5351 -0.0215  0.1572
   11MOL0     C 1437  10.208   3.013   0.698 -0.2285 -0.1764  0.8175
   11MOL0     C 1438  10.103   3.111   0.682  0.0174 -0.5870  0.4752
   11MOL0     O 1439   9.974   3.086   0.640  0.0891 -0.5426  0.0691
   11MOL0     C 1440   9.922   2.954   0.659  0.3258  0.5968 -0.4574
   11MOL0     C 1441   9.769   2.976   0.678  0.7560  0.2780 -0.7297
   11MOL0     C 1442   9.737   3.036   0.822  0.1502 -0.2125  0.2148
   11MOL0     C 1443   9.588   3.015   0.874 -0.4164 -0.4514  0.6542
   11MOL0     C 1444   9.487   3.033   0.767  0.3243  0.2518 -1.0313
   11MOL0     C 1445   9.411   3.060   0.681  0.1942 -0.9242 -0.0665
   11MOL0     C 1446  10.130   3.249   0.698  0.1695  0.0239 -0.2604
   11MOL0     C 1447  10.265   3.293   0.730 -0.5745  0.0139  0.0453
   11MOL0     C 1448  10.284   3.445   0.730  0.4917  0.2828  0.6013
   11MOL0     H 1449  10.763   3.302   0.562 -0.2807 -1.6026 -0.2351
   11MOL0     H 1450  11.013   3.301   0.569  1.7031 -1.2784 -0.7966
   11MOL0     H 1451  11.111   3.446   0.717 -2.1583 -3.0627  2.3776
   11MOL0     H 1452  11.284   3.412   0.704 -0.3294 -0.1396 -0.3166
   11MOL0     H 1453  11.196   3.563   0.900  0.4547  1.0887  1.0165
   11MOL0     H 1454  11.128   3.411   0.957 -2.2293 -0.2419 -4.7580
   11MOL0     H 1455  11.429   3.434   0.912  1.4112 -0.0549  1.4395
   11MOL0     H 1456  11.353   3.480   1.064 -1.0825 -1.0955  0.3475
   11MOL0     H 1457  11.233   3.229   1.019  0.0037 -0.5324  0.2973
   11MOL0     H 1458  11.386   3.220   0.940  0.5458  1.0762  1.1299
   11MOL0     H 1459  11.395   3.317   1.217  2.2952  0.8674  0.6644
   11MOL0     H 1460  11.517   3.243   1.116 -0.3264  0.4308  0.7078
   11MOL0     H 1461  11.266   3.116   1.224  0.8081  0.5979  0.3297
   11MOL0     H 1462  11.389   3.025   1.121  0.0951 -0.3790 -0.3083
   11MOL0     H 1463  11.412   2.978   1.357  0.6151 -0.6234  0.9106
   11MOL0     H 1464  11.427   3.152   1.390 -0.1546  2.4910 -2.7567
   11MOL0     H 1465  11.637   3.160   1.266 -0.9161  1.3577  2.3451
   11MOL0     H 1466  11.657   3.040   1.393 -0.1469  1.4244  0.4781
   11MOL0     H 1467  11.560   2.779   1.317 -2.2227  3.6921  0.3553
   11MOL0     H 1468  11.504   2.591   1.105  1.2005 -4.0814 -0.6059
   11MOL0     H 1469  11.674   2.590   1.140 -1.1735 -0.7122  0.8219
   11MOL0     H 1470  11.703   2.642   0.891 -0.5988  0.5589 -0.9064
   11MOL0     H 1471  11.631   2.476   0.927  1.0536 -0.0341 -3.0221
   11MOL0     H 1472  11.416   2.548   0.858  0.3184 -0.4930 -0.4473
   11MOL0     H 1473  11.466   2.720   0.849  0.8960 -0.6746  3.4375
   11MOL0     H 1474  11.452   2.612   0.613  1.9892 -0.7585 -2.8863
   11MOL0     H 1475  11.618   2.647   0.654 -0.0556 -0.0098  0.2425
   11MOL0     H 1476  11.607   2.544   0.441 -1.2345 -0.8777 -0.3907
   11MOL0     H 1477  11.845   2.606   0.266 -0.9787 -0.1823  5.2437
   11MOL0     H 1478  11.689   2.546   0.206  1.0822  1.5138 -2.7296
   11MOL0     H 1479  11.832   2.456   0.165 -3.0919  0.9262 -2.7340
   11MOL0     H 1480  12.148   2.234   0.110 -3.5929  1.7161  1.0744
   11MOL0     H 1481  12.342   2.261  -0.044  1.0204 -0.7360  0.5014
   11MOL0     H 1482  12.655   2.520   0.028 -0.4815 -1.9904  0.3153
   11MOL0     H 1483  12.665   2.390  -0.095  0.4620 -0.2562  1.9296
   11MOL0     H 1484  12.769   2.548  -0.192  1.9112  1.5540 -0.3741
   11MOL0     H 1485  12.606   2.586  -0.253  0.0427  4.9278  0.1247
   11MOL0     H 1486  12.769   2.743  -0.058  0.3435 -2.5787  1.1408
   11MOL0     H 1487  12.593   2.748  -0.035  0.4557 -1.2550  0.9790
   11MOL0     H 1488  12.553   2.850  -0.255 -1.1940  1.7305 -0.2712
   11MOL0     H 1489  12.732   2.836  -0.289  3.2621 -0.8590  3.8651
   11MOL0     H 1490  12.742   2.995  -0.076 -1.2295  1.5966  0.7228
   11MOL0     H 1491  12.713   3.067  -0.232  1.2116  0.2560  0.0572
   11MOL0     H 1492  12.490   2.970  -0.045 -0.8747  0.6524  0.0240
   11MOL0     H 1493  12.478   3.061  -0.193 -0.2449 -1.3923 -0.9983
   11MOL0     H 1494  12.603   3.271  -0.090  0.6864 -0.4732 -0.6434
   11MOL0     H 1495  12.612   3.176   0.057 -3.7655 -0.5695  2.6006
   11MOL0     H 1496  12.439   3.346   0.058  0.3776  1.4801 -2.5701
   11MOL0     H 1497  12.375   3.190   0.104 -1.5133  3.1053  0.5601
   11MOL0     H 1498  12.405   2.656   0.100 -0.2381  0.0682  1.2150
   11MOL0     H 1499  12.228   2.633   0.264 -3.2799  0.3548 -2.0349
   11MOL0     H 1500  11.921   2.193   0.566 -0.5986 -0.8536 -1.6610
   11MOL0     H 1501  11.746   2.259   0.725 -1.1160 -0.3125 -0.3284
   11MOL0     H 1502  10.989   3.115   0.945 -0.2138 -0.8436  0.1287
   11MOL0     H 1503  10.765   3.043   0.892 -0.6147 -0.3634  0.5421
   11MOL0     H 1504  10.432   2.990   0.691 -0.3760 -1.2356  0.0489
   11MOL0     H 1505  10.182   2.909   0.682 -0.4457  0.4047 -4.1983
   11MOL0     H 1506   9.937   2.889   0.572  0.1960  2.3300 -1.8263
   11MOL0     H 1507   9.968   2.904   0.745  2.1146  0.6983 -1.3059
   11MOL0     H 1508   9.713   2.884   0.658  0.8046  0.2322 -0.6545
   11MOL0     H 1509   9.716   3.042   0.608 -0.9415 -1.3283 -1.0424
   11MOL0     H 1510   9.805   2.997   0.898  0.6299  1.3143  0.6063
   11MOL0     H 1511   9.757   3.144   0.816  0.3947 -0.2536  0.2792
   11MOL0     H 1512   9.577   3.079   0.962  1.4011 -2.2899  2.3088
   11MOL0     H 1513   9.578   2.912   0.909  1.4363 -0.0373  2.5501
   11MOL0     H 1514   9.341   3.084   0.603  0.9692  0.1310 -0.4540
   11MOL0     H 1515  10.048   3.319   0.684 -2.2687 -2.8220 -1.3243
   11MOL0     H 1516  10.363   3.471   0.660  1.5902  2.8948  2.6546
   11MOL0     H 1517  10.194   3.494   0.692  1.3872  0.6970 -1.0576
   11MOL0     H 1518  10.314   3.491   0.825  2.0251  1.1581 -0.2748
   12MOL0     O 1519   0.611   9.496   8.044 -0.2551  0.0166 -0.5401
   12MOL0     C 1520   0.725   9.547   8.039 -0.4819  0.3224 -0.3561
   12MOL0     O 1521   0.795   9.582   7.924  0.8701 -0.5226 -0.4936
   12MOL0     C 1522   0.731   9.540   7.805  0.9882 -0.8491  0.1915
   12MOL0     C 1523   0.628   9.618   7.760 -0.4317  0.2242 -0.2853
   12MOL0     C 1524   0.568   9.582   7.638 -0.6963  0.6884 -0.0108
   12MOL0     C 1525   0.605   9.460   7.566 -0.0454 -0.4925 -0.0326
   12MOL0     O 1526   0.548   9.453   7.442  0.2548 -0.0956 -0.7951
   12MOL0     C 1527   0.580   9.345   7.353  0.1881 -0.5993  0.6009
   12MOL0     C 1528   0.455   9.338   7.267  0.4807  0.5855 -0.5965
   12MOL0     C 1529   0.453   9.213   7.179  0.3839 -0.6558  1.1624
   12MOL0     C 1530   0.402   9.257   7.040  0.0958 -0.2464  0.6220
   12MOL0     C 1531   0.401   9.142   6.936 -0.2694 -0.8607  0.2155
   12MOL0     C 1532   0.309   9.150   6.809  0.4341 -0.3573 -0.2253
   12MOL0     C 1533   0.161   9.132   6.860 -0.6022 -0.2956  0.2062
   12MOL0     C 1534   0.064   9.128   6.750  0.0654 -0.1562 -0.0788
   12MOL0     N 1535   0.062   9.250   6.671  0.0903 -0.9078 -0.0477
   12MOL0     C 1536   0.018   9.240   6.542 -1.0046  0.0521  0.0968
   12MOL0     C 1537  -0.010   9.368   6.504 -0.4537  0.4867  0.1491
   12MOL0     C 1538  -0.055   9.411   6.374  0.9006  0.8435  1.0217
   12MOL0     C 1539   0.021   9.333   6.262 -0.5825  0.3424  0.0774
   12MOL0     C 1540   0.176   9.330   6.275 -0.8890  0.6226 -1.1781
   12MOL0     C 1541   0.245   9.467   6.295 -0.5032 -0.0702 -0.3552
   12MOL0     O 1542   0.384   9.466   6.252  1.0280  0.3769 -0.4228
   12MOL0     C 1543   0.480   9.447   6.348  0.2057 -0.5121 -0.3460
   12MOL0     C 1544   0.615   9.444   6.314  0.1776 -0.3051 -0.5277
   12MOL0     C 1545   0.720   9.423   6.403 -0.7290 -0.0927  0.6839
   12MOL0     C 1546   0.865   9.410   6.340 -0.0730 -0.2023 -0.2582
   12MOL0     C 1547   0.693   9.410   6.539 -0.3181 -0.5465 -0.2411
   12MOL0     C 1548   0.798   9.389   6.644 -0.3550 -0.2788 -0.0542
   12MOL0     O 1549   0.764   9.307   6.747 -0.4148  0.3193  0.0941
   12MOL0     C 1550   0.856   9.260   6.840  0.2094 -0.8179 -0.3578
   12MOL0     C 1551   0.992   9.222   6.817 -0.6853 -1.0899 -0.0134
   12MOL0     C 1552   1.060   9.160   6.916  0.4694  1.1027 -0.4936
   12MOL0     C 1553   0.994   9.123   7.030  0.2465 -0.0028  0.0139
   12MOL0     O 1554   1.062   9.053   7.127  0.0242  0.2688 -0.4501
   12MOL0     C 1555   0.994   9.013   7.243 -0.4343  0.9711  0.0181
   12MOL0     C 1556   1.102   8.947   7.329  0.0909 -0.2480  0.1473
   12MOL0     C 1557   1.168   8.820   7.280  0.4368 -0.5181 -0.0577
   12MOL0     C 1558   1.056   8.722   7.242 -0.2043 -0.1656 -0.4746
   12MOL0     C 1559   1.109   8.580   7.239 -0.4452 -1.1364  0.1185
   12MOL0     C 1560   1.155   8.525   7.374 -0.7146 -0.4362  0.9470
   12MOL0     C 1561   1.072   8.552   7.495  0.9065 -0.8258 -0.5208
   12MOL0     C 1562   1.128   8.461   7.606  0.6483  0.6532 -0.8902
   12MOL0    Cl 1563   0.979   8.413   7.713 -0.0350  0.2315 -0.2025
   12MOL0     C 1564   0.863   9.152   7.055  0.1094 -0.5014  1.0223
   12MOL0     C 1565   0.802   9.226   6.961  0.8774 -0.8028  0.2603
   12MOL0     O 1566   0.913   9.439   6.625  0.4276  0.3205  0.0358
   12MOL0     C 1567   0.558   9.400   6.582 -0.2427 -0.9484 -0.1679
   12MOL0     C 1568   0.462   9.422   6.486  0.1185 -0.6662  0.3355
   12MOL0     N 1569   0.015   9.457   6.612  0.0876 -0.5012  0.6635
   12MOL0     N 1570   0.062   9.385   6.707  0.0612 -0.2791  0.4320
   12MOL0     C 1571   0.723   9.399   7.605  0.6922 -0.5286 -0.0676
   12MOL0     C 1572   0.781   9.428   7.726  0.3224  0.8448 -0.2118
   12MOL0     C 1573   0.790   9.568   8.174 -0.6351  0.0873  0.0086
   12MOL0     C 1574   0.711   9.544   8.292 -0.4307  0.5768  0.0597
   12MOL0     C 1575   0.754   9.543   8.424 -0.0493 -0.7277 -0.2971
   12MOL0     C 1576   0.886   9.573   8.452  0.5715  0.8843 -0.0929
   12MOL0     O 1577   0.928   9.577   8.580  0.4065  0.4295 -0.1997
   12MOL0     C 1578   1.052   9.501   8.608 -0.2326  0.5719  0.0647
   12MOL0     C 1579   1.039   9.381   8.700 -0.1340  0.2180 -0.2846
   12MOL0     C 1580   1.174   9.330   8.749  0.3948  0.3419  0.4555
   12MOL0     C 1581   1.163   9.202   8.825  0.5906  0.2453 -0.2260
   12MOL0     C 1582   1.114   9.101   8.729  0.6853 -0.1503 -1.0253
   12MOL0     C 1583   1.069   9.027   8.640 -0.3895  0.2277  0.4503
   12MOL0     C 1584   0.970   9.598   8.344  0.3703  0.2182  0.4041
   12MOL0     C 1585   0.925   9.597   8.207  0.5927  0.6270 -0.9644
   12MOL0     C 1586   1.034   9.616   8.102 -0.0821 -0.2456 -0.7810
   12MOL0     H 1587   0.589   9.707   7.809  0.7384  1.5788 -1.7181
   12MOL0     H 1588   0.489   9.646   7.601  0.6434  1.6449 -1.3587
   12MOL0     H 1589   0.595   9.254   7.412  0.6731 -1.6702 -1.1021
   12MOL0     H 1590   0.659   9.358   7.278  4.0540  0.0264  4.4037
   12MOL0     H 1591   0.369   9.326   7.333 -0.8516  3.0513 -1.7378
   12MOL0     H 1592   0.448   9.431   7.210  0.4202 -0.0137 -1.6025
   12MOL0     H 1593   0.551   9.169   7.158  0.5757 -0.1065  0.8660
   12MOL0     H 1594   0.398   9.132   7.228  1.0996 -1.8088  0.0870
   12MOL0     H 1595   0.304   9.301   7.061 -0.6315 -2.0163  1.1501
   12MOL0     H 1596   0.460   9.339   6.997 -1.1597  0.0120 -0.6531
   12MOL0     H 1597   0.373   9.054   6.995  1.8564 -1.0848  0.9668
   12MOL0     H 1598   0.506   9.130   6.910  0.0529 -1.8947  1.8373
   12MOL0     H 1599   0.332   9.238   6.749  0.7233 -1.1995 -1.3673
   12MOL0     H 1600   0.333   9.070   6.739  1.1853 -0.2208 -0.1243
   12MOL0     H 1601   0.145   9.220   6.923 -2.7236  0.2294 -0.9790
   12MOL0     H 1602   0.160   9.043   6.922  0.6902 -0.9201 -0.6173
   12MOL0     H 1603   0.096   9.046   6.684  0.9364  1.1148 -1.2993
   12MOL0     H 1604  -0.035   9.111   6.792 -0.6360  0.5716 -1.3828
   12MOL0     H 1605   0.005   9.152   6.479 -0.1291 -0.2713  0.3573
   12MOL0     H 1606  -0.027   9.516   6.365 -2.6858  1.8014 -0.9602
   12MOL0     H 1607  -0.162   9.390   6.366  0.9276  0.8023  0.7429
   12MOL0     H 1608  -0.022   9.232   6.264 -0.3192  0.2387  0.7034
   12MOL0     H 1609  -0.002   9.376   6.164 -0.8655  0.3233  0.1351
   12MOL0     H 1610   0.217   9.262   6.351 -0.2179  3.4703  1.2238
   12MOL0     H 1611   0.207   9.303   6.174  1.8615  1.3678 -0.6194
   12MOL0     H 1612   0.192   9.535   6.228 -0.4124  0.8238  0.4507
   12MOL0     H 1613   0.227   9.508   6.395 -1.0174 -1.9422  0.3710
   12MOL0     H 1614   0.630   9.462   6.208  3.0954  0.4587 -0.0582
   12MOL0     H 1615   0.927   9.498   6.357  1.6492 -0.7437 -3.0895
   12MOL0     H 1616   0.855   9.401   6.232 -1.9023  0.5005 -0.1881
   12MOL0     H 1617   0.914   9.320   6.378 -1.6769 -1.3273 -0.7226
   12MOL0     H 1618   1.031   9.241   6.718 -1.3270 -1.6150 -0.3762
   12MOL0     H 1619   1.161   9.129   6.894 -0.5369 -1.4260 -2.0355
   12MOL0     H 1620   0.960   9.102   7.298 -0.4923 -0.1346  1.8670
   12MOL0     H 1621   0.916   8.938   7.225  0.1938  0.6119 -1.3269
   12MOL0     H 1622   1.179   9.022   7.351 -1.2474  1.2466 -0.0272
   12MOL0     H 1623   1.059   8.917   7.425  0.3301  0.7168  0.5770
   12MOL0     H 1624   1.238   8.786   7.358 -1.4366  0.7248  2.2818
   12MOL0     H 1625   1.229   8.835   7.190  0.0930  1.3855 -0.0077
   12MOL0     H 1626   1.016   8.747   7.143 -0.9617 -0.0449 -0.1442
   12MOL0     H 1627   0.977   8.717   7.317  1.9943 -0.4910  1.9483
   12MOL0     H 1628   1.022   8.519   7.212 -1.1885 -0.6920  1.3921
   12MOL0     H 1629   1.188   8.578   7.164 -2.8024 -2.3013 -2.5582
   12MOL0     H 1630   1.255   8.564   7.392 -1.5381  1.7461  1.0578
   12MOL0     H 1631   1.166   8.418   7.353  3.2733 -0.1987  1.0827
   12MOL0     H 1632   0.965   8.530   7.480  0.6970  0.0527 -0.3578
   12MOL0     H 1633   1.086   8.656   7.527 -2.2847 -0.4236 -0.0210
   12MOL0     H 1634   1.197   8.523   7.666  3.9066 -1.1607 -2.5202
   12MOL0     H 1635   1.178   8.368   7.579  0.3712 -1.3767  4.3866
   12MOL0     H 1636   0.806   9.118   7.141 -2.2240 -3.6702 -1.5201
   12MOL0     H 1637   0.699   9.256   6.977  1.7144  3.3797 -0.9091
   12MOL0     H 1638   0.518   9.381   6.681 -2.0761 -1.2895 -0.9381
   12MOL0     H 1639   0.359   9.421   6.519  0.3678 -1.3429  1.1128
   12MOL0     H 1640   0.772   9.328   7.539  1.8909  2.9398 -3.2610
   12MOL0     H 1641   0.873   9.374   7.748 -0.4207 -0.7556 -0.8965
   12MOL0     H 1642   0.608   9.520   8.269  0.0026  0.5995 -2.2217
   12MOL0     H 1643   0.684   9.506   8.499 -2.3924 -0.3508 -2.2066
   12MOL0     H 1644   1.101   9.458   8.521 -0.8160 -1.3298  0.6258
   12MOL0     H 1645   1.120   9.577   8.649  1.3160 -1.3128  1.1567
   12MOL0     H 1646   0.979   9.307   8.646 -2.4158  0.3056  1.9417
   12MOL0     H 1647   0.965   9.396   8.779 -3.2034 -0.6070 -2.8077
   12MOL0     H 1648   1.241   9.318   8.664 -0.7950  0.9574 -0.6081
   12MOL0     H 1649   1.228   9.399   8.815  0.7138 -0.4920  1.0910
   12MOL0     H 1650   1.108   9.221   8.918  1.3613  0.4806  0.1880
   12MOL0     H 1651   1.256   9.163   8.867 -0.7539 -2.4132  0.5746
   12MOL0     H 1652   1.036   8.971   8.555 -1.5625 -2.0550  2.2933
   12MOL0     H 1653   1.072   9.626   8.366  0.2446  0.4901  0.6431
   12MOL0     H 1654   1.019   9.707   8.044  1.9544  0.8999  0.3825
   12MOL0     H 1655   1.126   9.636   8.157  1.2783 -2.1724 -2.2134
   12MOL0     H 1656   1.036   9.526   8.040 -1.9877 -2.8720  2.5987
   13MOL0     O 1657   5.915   5.264   7.257 -0.0436 -0.3674 -0.0984
   13MOL0     C 1658   5.814   5.198   7.296 -0.9961  1.3134 -0.1520
   13MOL0     O 1659   5.792   5.066   7.264 -0.5380 -0.2746 -0.2499
   13MOL0     C 1660   5.886   4.969   7.254 -0.5477  0.1384 -0.5834
   13MOL0     C 1661   5.837   4.833   7.241  0.0606 -0.4896  0.2639
   13MOL0     C 1662   5.928   4.726   7.229  0.3388  0.1550 -0.2249
   13MOL0     C 1663   6.060   4.747   7.239 -0.7300  0.5488  0.4957
   13MOL0     O 1664   6.145   4.643   7.225  0.7194  0.4887 -0.0050
   13MOL0     C 1665   6.195   4.583   7.340  0.0693 -0.5259 -0.6481
   13MOL0     C 1666   6.328   4.511   7.325  0.5342 -0.1679 -0.3531
   13MOL0     C 1667   6.431   4.610   7.273 -0.5491  0.4731  0.6664
   13MOL0     C 1668   6.571   4.547   7.263  0.6499  0.0213 -0.4219
   13MOL0     C 1669   6.677   4.647   7.229 -0.3795  0.4359  0.1003
   13MOL0     C 1670   6.817   4.598   7.238 -0.1063  0.2805  0.3272
   13MOL0     C 1671   6.909   4.725   7.223  0.1066 -0.1148 -0.4717
   13MOL0     C 1672   7.048   4.670   7.235  0.2380 -0.4829  0.5979
   13MOL0     N 1673   7.149   4.780   7.222 -0.1954 -0.4557  0.6617
   13MOL0     C 1674   7.278   4.790   7.158  0.1248 -0.5333 -0.1250
   13MOL0     C 1675   7.301   4.923   7.166 -0.9079 -0.6177 -0.1064
   13MOL0     C 1676   7.431   4.980   7.114 -0.1591  0.1510  0.0697
   13MOL0     C 1677   7.410   5.116   7.057  0.2001 -0.5474  0.2258
   13MOL0     C 1678   7.523   5.165   6.969 -0.0898 -0.1077  0.8863
   13MOL0     C 1679   7.498   5.312   6.924  0.7443 -0.7158 -0.2253
   13MOL0     O 1680   7.480   5.396   7.036  0.5004  0.5475 -0.0968
   13MOL0     C 1681   7.586   5.476   7.082 -0.3459  0.9487  0.0956
   13MOL0     C 1682   7.716   5.483   7.022 -0.3321  0.5769 -0.1902
   13MOL0     C 1683   7.819   5.557   7.076 -0.5990 -0.8595  0.3805
   13MOL0     C 1684   7.953   5.559   7.000  0.2299  0.0956  0.0829
   13MOL0     C 1685   7.790   5.633   7.192  0.0666 -0.8958  0.7284
   13MOL0     C 1686   7.887   5.719   7.261 -1.2121 -0.8780 -0.2140
   13MOL0     O 1687   7.839   5.832   7.334 -0.4648 -0.1940 -0.1680
   13MOL0     C 1688   7.929   5.910   7.414  0.0270  0.2184  0.6088
   13MOL0     C 1689   7.983   5.847   7.527 -0.1715 -0.4079 -0.7911
   13MOL0     C 1690   8.064   5.922   7.613  0.8329  0.2402  0.4941
   13MOL0     C 1691   8.078   6.062   7.586 -0.0643  0.1880  0.3140
   13MOL0     O 1692   8.140   6.143   7.683  0.3807 -0.0672  0.6101
   13MOL0     C 1693   8.277   6.112   7.724  0.1064 -0.3255  0.8847
   13MOL0     C 1694   8.338   6.214   7.811 -0.2306 -0.1322  0.7973
   13MOL0     C 1695   8.354   6.352   7.747  0.9569 -0.3484 -0.0025
   13MOL0     C 1696   8.387   6.452   7.852 -0.1456 -0.2956  0.3170
   13MOL0     C 1697   8.349   6.594   7.808 -0.3263  0.0748  0.4325
   13MOL0     C 1698   8.450   6.648   7.701 -0.1305 -0.7075 -0.3800
   13MOL0     C 1699   8.433   6.795   7.667  0.8477 -0.2726 -0.8921
   13MOL0     C 1700   8.309   6.832   7.579  0.7955  0.1593 -0.2667
   13MOL0    Cl 1701   8.352   6.862   7.410  0.2078 -0.1407  0.6420
   13MOL0     C 1702   8.014   6.123   7.472 -0.6486  0.0453  0.5771
   13MOL0     C 1703   7.945   6.049   7.380 -1.1051 -0.3075 -0.1515
   13MOL0     O 1704   8.006   5.684   7.248 -0.1686  0.2847 -0.3739
   13MOL0     C 1705   7.660   5.637   7.243 -0.1289 -0.3425 -0.5460
   13MOL0     C 1706   7.565   5.551   7.192  0.0502 -0.1613 -0.3947
   13MOL0     N 1707   7.193   4.994   7.230  0.7278 -0.2108 -0.5494
   13MOL0     N 1708   7.109   4.903   7.273  0.1171  0.4153  0.7618
   13MOL0     C 1709   6.107   4.873   7.244 -1.0010 -0.1779 -0.0005
   13MOL0     C 1710   6.022   4.985   7.248  0.0758 -0.2452 -0.9596
   13MOL0     C 1711   5.709   5.274   7.368 -0.1435 -0.0972  0.7728
   13MOL0     C 1712   5.721   5.417   7.356  0.9084 -0.0159  0.1005
   13MOL0     C 1713   5.627   5.498   7.419  0.2061  0.9973  0.0910
   13MOL0     C 1714   5.527   5.443   7.493  0.8474 -0.4741 -0.5092
   13MOL0     O 1715   5.434   5.527   7.556 -0.3547 -0.4108 -0.3584
   13MOL0     C 1716   5.292   5.478   7.544 -0.2997  0.1846  0.2295
   13MOL0     C 1717   5.234   5.427   7.410 -0.4471 -0.6992  0.4064
   13MOL0     C 1718   5.245   5.542   7.303  0.2697  0.6248 -0.7379
   13MOL0     C 1719   5.185   5.499   7.170 -0.6911 -0.0950  0.3225
   13MOL0     C 1720   5.152   5.624   7.104 -0.0682 -0.3169 -0.5292
   13MOL0     C 1721   5.138   5.733   7.046 -0.3082  1.0893  0.4170
   13MOL0     C 1722   5.515   5.307   7.513 -1.3440 -0.6036 -0.6208
   13MOL0     C 1723   5.604   5.220   7.445 -0.0266  0.3236 -0.2664
   13MOL0     C 1724   5.583   5.067   7.464  0.8913 -0.0103  0.6706
   13MOL0     H 1725   5.731   4.813   7.235 -0.0804  0.3396 -0.1463
   13MOL0     H 1726   5.907   4.620   7.212  0.6608  0.2022 -0.9647
   13MOL0     H 1727   6.117   4.511   7.367  0.5056 -0.0537  2.1001
   13MOL0     H 1728   6.206   4.646   7.428  1.3228 -0.8479 -0.5668
   13MOL0     H 1729   6.363   4.463   7.417 -2.6790 -0.1650  1.0005
   13MOL0     H 1730   6.307   4.432   7.252 -1.9653  0.1530 -0.0750
   13MOL0     H 1731   6.396   4.638   7.173 -0.5355 -0.9255  0.2387
   13MOL0     H 1732   6.436   4.696   7.340  0.2745 -0.7708  2.2769
   13MOL0     H 1733   6.589   4.509   7.363 -0.6451  0.6010  0.0524
   13MOL0     H 1734   6.582   4.458   7.200  1.5253 -0.7013  0.7152
   13MOL0     H 1735   6.668   4.733   7.296  0.4197  1.8130 -1.4726
   13MOL0     H 1736   6.656   4.684   7.128  1.0068  2.0325  0.3611
   13MOL0     H 1737   6.835   4.554   7.337 -1.5701 -0.7249  0.1821
   13MOL0     H 1738   6.833   4.532   7.153  1.4326  1.3396 -0.2500
   13MOL0     H 1739   6.877   4.797   7.299  0.2851  0.0483 -0.5489
   13MOL0     H 1740   6.899   4.770   7.123 -0.5770 -0.1470 -0.4196
   13MOL0     H 1741   7.062   4.624   7.333  2.2874  1.7766  1.4963
   13MOL0     H 1742   7.070   4.605   7.150  1.6472  3.7390 -2.6611
   13MOL0     H 1743   7.342   4.713   7.117 -0.3714 -1.4592  0.7858
   13MOL0     H 1744   7.460   4.920   7.027 -2.2809 -0.7368 -0.0918
   13MOL0     H 1745   7.514   4.981   7.185 -1.0228  0.6221  1.0991
   13MOL0     H 1746   7.316   5.128   7.002 -1.7147  0.2687  3.4319
   13MOL0     H 1747   7.396   5.190   7.136 -0.1378 -1.4497  1.0212
   13MOL0     H 1748   7.621   5.175   7.018 -0.9621  2.2884  2.3260
   13MOL0     H 1749   7.546   5.109   6.878 -0.1402  0.0852  0.7538
   13MOL0     H 1750   7.582   5.333   6.858 -0.8008 -0.8705 -2.3169
   13MOL0     H 1751   7.413   5.309   6.856  0.8744  3.1494 -0.7622
   13MOL0     H 1752   7.742   5.428   6.932 -1.6433 -1.3686  0.5493
   13MOL0     H 1753   7.999   5.659   7.001  1.8357 -0.6020 -0.3690
   13MOL0     H 1754   7.944   5.528   6.895 -1.5684  1.2127 -0.1415
   13MOL0     H 1755   8.025   5.492   7.048  1.0340 -1.1817 -2.6731
   13MOL0     H 1756   7.963   5.744   7.556 -0.5343 -0.3260 -0.7493
   13MOL0     H 1757   8.090   5.867   7.703 -2.1315  0.1388  1.4078
   13MOL0     H 1758   8.268   6.022   7.785 -0.9501  0.1735  1.4988
   13MOL0     H 1759   8.338   6.105   7.633 -1.5571  0.5545 -0.3656
   13MOL0     H 1760   8.284   6.211   7.906 -3.8215  0.5453 -1.0619
   13MOL0     H 1761   8.440   6.179   7.830 -1.2708 -3.9309  0.2475
   13MOL0     H 1762   8.262   6.379   7.695 -0.2025 -1.2056  1.5346
   13MOL0     H 1763   8.437   6.342   7.676  1.1477  0.3807  0.1086
   13MOL0     H 1764   8.496   6.456   7.858  0.1252 -0.3495 -2.7698
   13MOL0     H 1765   8.329   6.441   7.944 -0.1755  0.0875  0.3479
   13MOL0     H 1766   8.250   6.595   7.763  0.0168 -1.4532 -0.4453
   13MOL0     H 1767   8.359   6.660   7.895 -0.0326 -1.8253  1.9113
   13MOL0     H 1768   8.443   6.573   7.621  2.3624 -1.3689 -0.0683
   13MOL0     H 1769   8.551   6.642   7.743 -0.2530  3.9901  1.0869
   13MOL0     H 1770   8.528   6.826   7.622  1.7846 -2.4518 -0.5811
   13MOL0     H 1771   8.420   6.856   7.756 -0.4425 -1.3972 -0.2703
   13MOL0     H 1772   8.259   6.921   7.619 -0.4465  1.2347 -3.8317
   13MOL0     H 1773   8.239   6.749   7.593  1.9345 -0.5561  1.7073
   13MOL0     H 1774   8.038   6.229   7.463 -0.4683 -0.1224 -1.4266
   13MOL0     H 1775   7.904   6.092   7.290 -0.3419  3.7586  1.2157
   13MOL0     H 1776   7.638   5.687   7.337  0.6041  0.3649 -0.7385
   13MOL0     H 1777   7.465   5.540   7.234  1.2561 -1.9944  2.2515
   13MOL0     H 1778   6.213   4.890   7.253 -1.1280  0.3666  0.5077
   13MOL0     H 1779   6.077   5.078   7.238  1.7534 -1.2626 -1.6223
   13MOL0     H 1780   5.804   5.471   7.311  1.6494  1.1476  2.7271
   13MOL0     H 1781   5.648   5.603   7.402  1.0893  0.6212 -1.2717
   13MOL0     H 1782   5.278   5.411   7.629 -2.7679  3.1041  2.3784
   13MOL0     H 1783   5.233   5.564   7.577  2.9064  2.5265  0.3165
   13MOL0     H 1784   5.128   5.406   7.422  0.2598 -2.9154  4.6592
   13MOL0     H 1785   5.286   5.338   7.372  0.3061 -1.4055  2.8717
   13MOL0     H 1786   5.188   5.628   7.339 -0.0784  0.5440 -1.0852
   13MOL0     H 1787   5.352   5.558   7.288  0.6954 -2.4617 -1.6949
   13MOL0     H 1788   5.097   5.436   7.184 -0.0458 -0.8517  1.0776
   13MOL0     H 1789   5.254   5.434   7.115 -0.5494  0.1360  0.2224
   13MOL0     H 1790   5.144   5.832   7.004  2.5654  1.2307  0.9850
   13MOL0     H 1791   5.451   5.259   7.586 -0.1332 -0.3370  0.6703
   13MOL0     H 1792   5.510   5.053   7.544  0.6472  2.7033  1.0423
   13MOL0     H 1793   5.542   5.018   7.375 -0.6126 -0.8428  1.7780
   13MOL0     H 1794   5.670   5.010   7.496  1.8022  0.5115 -0.7845
   14MOL0     O 1795   1.528   6.133   8.503  0.5951  0.2916  0.0463
   14MOL0     C 1796   1.517   6.254   8.502  0.0061  0.6158  0.2731
   14MOL0     O 1797   1.610   6.341   8.478 -0.2793 -0.2443 -0.7223
   14MOL0     C 1798   1.733   6.298   8.430  0.5287  0.5381  1.0521
   14MOL0     C 1799   1.790   6.382   8.333 -0.0310  0.3724  0.0938
   14MOL0     C 1800   1.908   6.344   8.272 -0.9438  0.3919 -0.0722
   14MOL0     C 1801   1.978   6.221   8.305  0.2103 -0.0858 -0.1599
   14MOL0     O 1802   2.096   6.198   8.239 -0.2785 -0.3853  1.1390
   14MOL0     C 1803   2.187   6.116   8.312  0.2380 -0.1756  0.7325
   14MOL0     C 1804   2.330   6.152   8.254  0.6174  0.3757 -0.1171
   14MOL0     C 1805   2.370   6.295   8.286  0.4358 -0.4209 -0.2305
   14MOL0     C 1806   2.515   6.326   8.254 -0.0031 -0.1747  0.3982
   14MOL0     C 1807   2.541   6.476   8.257  0.1566  0.4322 -0.3041
   14MOL0     C 1808   2.694   6.496   8.242 -0.5717  0.2895  0.3811
   14MOL0     C 1809   2.740   6.460   8.092  0.2281  0.1540  1.1695
   14MOL0     C 1810   2.890   6.469   8.071 -1.4477 -0.5193 -0.5890
   14MOL0     N 1811   2.979   6.379   8.149  0.2071 -0.0260 -0.2978
   14MOL0     C 1812   3.006   6.248   8.112  0.0755  0.1789  0.7628
   14MOL0     C 1813   3.087   6.205   8.208 -0.3472  0.0492  0.4333
   14MOL0     C 1814   3.167   6.074   8.212  0.5603  0.7421 -0.2604
   14MOL0     C 1815   3.256   6.033   8.090 -0.1585  0.4111  0.3527
   14MOL0     C 1816   3.310   5.892   8.117  0.1237 -0.3808  0.1903
   14MOL0     C 1817   3.383   5.847   7.996 -0.0913 -0.3450  0.2806
   14MOL0     O 1818   3.498   5.938   7.987  0.4698  0.0290 -0.1047
   14MOL0     C 1819   3.590   5.937   7.886  0.5487 -0.2270  0.1508
   14MOL0     C 1820   3.602   5.832   7.792 -0.2293 -0.3425 -0.6291
   14MOL0     C 1821   3.695   5.841   7.690 -0.2764  0.1872 -0.2350
   14MOL0     C 1822   3.711   5.709   7.604 -0.4652  1.2804 -0.1250
   14MOL0     C 1823   3.782   5.953   7.688 -0.4521  0.3903  0.3913
   14MOL0     C 1824   3.894   5.967   7.582  0.5453 -0.3925 -0.6156
   14MOL0     O 1825   3.949   6.090   7.570 -1.0824 -0.1463 -0.3350
   14MOL0     C 1826   4.041   6.109   7.465 -0.1948  0.4833  0.5412
   14MOL0     C 1827   4.158   6.034   7.442 -0.1463 -0.3836 -0.0045
   14MOL0     C 1828   4.232   6.058   7.321 -0.0688  0.0416  0.0513
   14MOL0     C 1829   4.175   6.145   7.225 -0.0146 -0.3183  0.1290
   14MOL0     O 1830   4.241   6.177   7.105  0.1915  0.0019 -0.0975
   14MOL0     C 1831   4.366   6.122   7.068  0.5296  0.1821 -1.0170
   14MOL0     C 1832   4.401   6.174   6.935 -0.6782  0.4766 -0.1569
   14MOL0     C 1833   4.381   6.325   6.936  0.3528 -0.7094  0.2736
   14MOL0     C 1834   4.434   6.377   6.808  0.2932 -0.5557  0.9380
   14MOL0     C 1835   4.373   6.508   6.759  0.0442 -0.5214  0.4998
   14MOL0     C 1836   4.492   6.600   6.720 -0.2751  0.2921 -0.1532
   14MOL0     C 1837   4.445   6.721   6.634  0.3965  0.1619 -0.1152
   14MOL0     C 1838   4.558   6.813   6.580 -0.1427  0.7369  0.7155
   14MOL0    Cl 1839   4.640   6.918   6.699 -0.3589  0.6946  0.0532
   14MOL0     C 1840   4.062   6.218   7.242  0.2072  0.0992 -0.5295
   14MOL0     C 1841   3.994   6.192   7.362 -1.3950 -0.1498  0.8897
   14MOL0     O 1842   3.926   5.867   7.518 -0.0132  0.5766 -0.1083
   14MOL0     C 1843   3.766   6.064   7.769  0.1356 -0.1883 -0.2672
   14MOL0     C 1844   3.672   6.056   7.872  0.0676  0.2211  0.3643
   14MOL0     N 1845   3.109   6.304   8.297  0.3206  0.6776 -0.7249
   14MOL0     N 1846   3.053   6.412   8.264  0.0952 -0.1440  0.1740
   14MOL0     C 1847   1.917   6.141   8.401 -0.5668  0.1296  0.7962
   14MOL0     C 1848   1.798   6.175   8.464 -0.4125  0.3420 -0.3892
   14MOL0     C 1849   1.380   6.297   8.551 -0.3392  0.3414 -0.4663
   14MOL0     C 1850   1.369   6.417   8.628 -0.4555 -0.1576  0.0800
   14MOL0     C 1851   1.245   6.467   8.670  0.1367 -0.9178  0.2997
   14MOL0     C 1852   1.130   6.392   8.638 -0.0258  0.2700  0.2444
   14MOL0     O 1853   1.015   6.459   8.679  0.6615 -0.1287  0.6822
   14MOL0     C 1854   0.896   6.387   8.657  0.0463  0.5971 -0.6671
   14MOL0     C 1855   0.768   6.475   8.683 -0.2074  0.1688  0.4496
   14MOL0     C 1856   0.638   6.400   8.649  0.6465  0.4420 -0.1949
   14MOL0     C 1857   0.516   6.490   8.650 -1.4063 -1.4234 -0.1345
   14MOL0     C 1858   0.389   6.421   8.627 -0.3011  0.6606 -0.7183
   14MOL0     C 1859   0.210   6.342   8.611  0.3735 -0.2912  0.8665
   14MOL0     C 1860   1.137   6.274   8.556  0.0385 -0.3573 -0.0396
   14MOL0     C 1861   1.263   6.229   8.512  0.2642 -0.3535 -0.0876
   14MOL0     C 1862   1.259   6.133   8.390 -0.4763  0.8579 -0.1896
   14MOL0     H 1863   1.737   6.473   8.309 -3.7786 -0.9503  2.4304
   14MOL0     H 1864   1.950   6.402   8.190  1.1640 -3.8039 -2.2703
   14MOL0     H 1865   2.175   6.009   8.298  1.4165 -0.4560  1.7324
   14MOL0     H 1866   2.187   6.149   8.416 -1.4653 -2.0514  1.3977
   14MOL0     H 1867   2.398   6.089   8.312  0.8336  0.6423 -0.0844
   14MOL0     H 1868   2.341   6.136   8.147  0.3819 -0.6163 -0.0053
   14MOL0     H 1869   2.305   6.371   8.241  0.2592 -0.0825  0.5757
   14MOL0     H 1870   2.362   6.303   8.395  1.6246  2.0567 -0.2484
   14MOL0     H 1871   2.583   6.285   8.330 -0.6559 -0.7379  0.6854
   14MOL0     H 1872   2.550   6.274   8.164  0.8278 -1.3885  1.3756
   14MOL0     H 1873   2.507   6.515   8.354  0.7828  0.9890 -0.3014
   14MOL0     H 1874   2.487   6.525   8.175  1.3918  0.5651 -1.0576
   14MOL0     H 1875   2.710   6.604   8.254 -0.9330  0.2453  1.3087
   14MOL0     H 1876   2.755   6.441   8.314  1.4588  1.1358 -0.6067
   14MOL0     H 1877   2.693   6.537   8.029 -0.6451  0.3610  2.0461
   14MOL0     H 1878   2.707   6.359   8.065  4.6207 -1.2439  0.3034
   14MOL0     H 1879   2.917   6.467   7.965  1.4329  3.5900 -0.1372
   14MOL0     H 1880   2.909   6.571   8.103 -3.5154 -0.0558 -0.6564
   14MOL0     H 1881   2.985   6.198   8.018 -2.0540  0.4998  1.0020
   14MOL0     H 1882   3.094   5.996   8.236 -0.7353  1.9191 -0.2374
   14MOL0     H 1883   3.224   6.083   8.305  0.1172  1.3763 -0.0433
   14MOL0     H 1884   3.194   6.051   8.002 -1.2335  1.1544  1.2317
   14MOL0     H 1885   3.333   6.109   8.075 -2.5089  2.7195 -0.8332
   14MOL0     H 1886   3.385   5.898   8.196  0.2794 -1.4154  0.1409
   14MOL0     H 1887   3.238   5.819   8.157 -1.0494  0.7899  0.3033
   14MOL0     H 1888   3.415   5.747   8.028 -1.1350 -1.7286 -2.6824
   14MOL0     H 1889   3.313   5.848   7.913  0.5087  1.3122 -0.2463
   14MOL0     H 1890   3.533   5.749   7.789  0.4479 -1.0732  1.8488
   14MOL0     H 1891   3.616   5.655   7.599  1.2005 -1.9130 -0.1304
   14MOL0     H 1892   3.787   5.647   7.653  0.1892  2.8149  0.8717
   14MOL0     H 1893   3.734   5.727   7.499  3.3483 -2.3965 -0.1964
   14MOL0     H 1894   4.200   5.971   7.520 -0.9217 -1.1175 -0.1691
   14MOL0     H 1895   4.327   6.015   7.292  0.3552  2.2244 -2.1260
   14MOL0     H 1896   4.443   6.159   7.136 -0.2702  0.8350 -0.4431
   14MOL0     H 1897   4.352   6.014   7.058 -2.1228  0.4106 -0.4659
   14MOL0     H 1898   4.503   6.147   6.905 -1.0020 -1.6981  0.5288
   14MOL0     H 1899   4.335   6.135   6.857 -0.6333 -1.8926  0.9059
   14MOL0     H 1900   4.432   6.369   7.021 -0.8697 -0.4517  0.8975
   14MOL0     H 1901   4.275   6.353   6.942  0.0036 -1.7686 -0.5267
   14MOL0     H 1902   4.421   6.300   6.732  0.7313  0.0095  0.2826
   14MOL0     H 1903   4.543   6.379   6.815  0.2813  2.0522  1.4334
   14MOL0     H 1904   4.313   6.486   6.670  0.8656  2.3978 -0.8762
   14MOL0     H 1905   4.307   6.548   6.836  1.0057  2.8436 -0.2553
   14MOL0     H 1906   4.576   6.540   6.685  0.3276  0.6837  0.5730
   14MOL0     H 1907   4.534   6.648   6.809  4.6183 -0.9454 -1.5008
   14MOL0     H 1908   4.380   6.785   6.694 -0.0067  0.7141 -1.1154
   14MOL0     H 1909   4.377   6.682   6.558 -0.0521 -0.5718  0.6484
   14MOL0     H 1910   4.518   6.890   6.514 -2.4099 -0.7925  0.1617
   14MOL0     H 1911   4.630   6.754   6.524 -0.9497  1.0381 -0.6991
   14MOL0     H 1912   4.043   6.301   7.175 -1.6468 -1.8003 -2.4711
   14MOL0     H 1913   3.896   6.235   7.384 -1.2673 -0.4689  2.1479
   14MOL0     H 1914   3.827   6.153   7.757 -1.3450  0.9839  0.5768
   14MOL0     H 1915   3.665   6.141   7.940  1.6888  0.3468  0.4235
   14MOL0     H 1916   1.969   6.048   8.423  1.0429  0.8767  0.2923
   14MOL0     H 1917   1.752   6.118   8.545 -3.2821  4.3151  1.1277
   14MOL0     H 1918   1.458   6.473   8.658  0.7302 -1.3544 -1.0761
   14MOL0     H 1919   1.239   6.558   8.729  1.0312  0.3093 -1.3899
   14MOL0     H 1920   0.888   6.362   8.551 -1.5206 -2.8442  0.1376
   14MOL0     H 1921   0.896   6.293   8.713  2.3223  1.0863  0.2852
   14MOL0     H 1922   0.773   6.576   8.641 -1.7043 -0.3912 -1.2615
   14MOL0     H 1923   0.775   6.493   8.790 -0.0721 -0.0652  0.4813
   14MOL0     H 1924   0.643   6.338   8.559 -0.2589 -2.5444  1.6569
   14MOL0     H 1925   0.612   6.326   8.726 -1.2436  1.5432  0.2808
   14MOL0     H 1926   0.540   6.573   8.582 -0.5053  1.0513  2.9500
   14MOL0     H 1927   0.517   6.533   8.751 -0.0397  1.5157 -1.2932
   14MOL0     H 1928   0.111   6.303   8.606 -0.0526  0.8751 -0.4965
   14MOL0     H 1929   1.047   6.220   8.528  0.4524  0.3825 -3.2060
   14MOL0     H 1930   1.333   6.170   8.318  2.7457 -0.7636  2.0664
   14MOL0     H 1931   1.303   6.034   8.408  0.1817  0.8430 -1.6723
   14MOL0     H 1932   1.160   6.127   8.343 -0.3756 -0.6053 -0.2823
   15MOL0     O 1933   6.837   8.797   6.893 -0.3795  0.6740 -0.3927
   15MOL0     C 1934   6.866   8.914   6.886  0.6122 -0.0132  0.2588
   15MOL0     O 1935   6.982   8.976   6.938 -0.9779  0.3852 -0.5488
   15MOL0     C 1936   7.061   8.902   7.020  0.2931  0.1048 -0.0731
   15MOL0     C 1937   7.175   8.851   6.957  0.2936  0.3179  0.0938
   15MOL0     C 1938   7.270   8.770   7.021  0.2381 -0.3042  0.2721
   15MOL0     C 1939   7.260   8.746   7.157  0.1000  0.2516 -0.1303
   15MOL0     O 1940   7.344   8.671   7.242 -0.0585 -1.0345 -0.0984
   15MOL0     C 1941   7.453   8.604   7.186  0.0463  0.4778  0.4101
   15MOL0     C 1942   7.396   8.474   7.129 -0.1126 -0.4506 -0.2286
   15MOL0     C 1943   7.496   8.400   7.037 -0.9286  0.2625 -0.2647
   15MOL0     C 1944   7.414   8.342   6.919  0.2865 -0.0581  0.5581
   15MOL0     C 1945   7.507   8.243   6.844  0.1936  0.7148  0.1344
   15MOL0     C 1946   7.504   8.118   6.915 -0.1075 -0.3424  0.1129
   15MOL0     C 1947   7.638   8.046   6.879  0.3658  0.2616 -0.3648
   15MOL0     C 1948   7.775   8.103   6.931 -0.4224  0.7897  0.3035
   15MOL0     N 1949   7.784   8.096   7.077 -0.0205  0.5474 -0.2006
   15MOL0     C 1950   7.793   7.977   7.150 -0.6070 -0.3234 -0.0773
   15MOL0     C 1951   7.817   8.027   7.278  0.8963  0.2709  0.5664
   15MOL0     C 1952   7.822   7.948   7.404 -0.3740  0.0668 -0.1220
   15MOL0     C 1953   7.686   7.914   7.455  0.1406 -0.5461  0.0504
   15MOL0     C 1954   7.611   7.819   7.367  0.5617  1.1252  0.2668
   15MOL0     C 1955   7.464   7.791   7.408  0.0776  0.1112 -0.3731
   15MOL0     O 1956   7.389   7.902   7.368 -0.6396 -0.1525  0.2162
   15MOL0     C 1957   7.340   7.905   7.242  0.2351  0.2100  0.9290
   15MOL0     C 1958   7.357   7.814   7.147 -1.0201  0.5122  0.0203
   15MOL0     C 1959   7.282   7.819   7.027  0.2265 -0.2680 -0.1178
   15MOL0     C 1960   7.289   7.711   6.924 -1.4852 -0.3202 -0.4353
   15MOL0     C 1961   7.203   7.940   7.002 -0.0679 -0.3818  0.5057
   15MOL0     C 1962   7.104   7.966   6.884 -1.2774 -0.4725 -0.3392
   15MOL0     O 1963   7.146   7.935   6.752  0.0082 -1.0086 -0.4627
   15MOL0     C 1964   7.053   7.957   6.655 -0.0801 -1.0499  0.0720
   15MOL0     C 1965   7.039   8.085   6.601  0.3736  0.1583  0.2130
   15MOL0     C 1966   6.962   8.114   6.486 -0.1858  0.7375  0.5484
   15MOL0     C 1967   6.893   8.004   6.433  0.2201 -0.6825  0.9329
   15MOL0     O 1968   6.810   8.013   6.328  0.4832 -0.3238  0.2131
   15MOL0     C 1969   6.729   8.124   6.315 -0.0427 -0.3550 -0.2015
   15MOL0     C 1970   6.599   8.097   6.237 -0.2946 -0.2712 -1.1154
   15MOL0     C 1971   6.505   8.221   6.239  0.5242  0.7589 -0.4350
   15MOL0     C 1972   6.375   8.184   6.162 -0.8251 -0.0913 -0.3621
   15MOL0     C 1973   6.280   8.305   6.157 -0.0133  0.3777  0.1062
   15MOL0     C 1974   6.167   8.294   6.046 -0.7067 -0.2935 -0.3656
   15MOL0     C 1975   6.112   8.424   5.996  0.2658 -0.3965  0.0646
   15MOL0     C 1976   6.001   8.391   5.900 -0.9119 -0.4976  0.5558
   15MOL0    Cl 1977   5.943   8.547   5.850 -0.1594  0.0561  0.3054
   15MOL0     C 1978   6.900   7.881   6.490 -0.3059 -0.8879 -0.1567
   15MOL0     C 1979   6.983   7.856   6.604  0.5415 -0.0470 -0.8051
   15MOL0     O 1980   6.992   8.010   6.909 -0.3636  0.3962 -0.3070
   15MOL0     C 1981   7.184   8.030   7.109  0.5978  0.1364  0.5561
   15MOL0     C 1982   7.244   8.009   7.227  0.1008 -0.0601  0.0210
   15MOL0     N 1983   7.835   8.166   7.284  0.2336  0.0059  0.3315
   15MOL0     N 1984   7.802   8.205   7.157 -1.2933 -0.2307  0.1462
   15MOL0     C 1985   7.148   8.801   7.226  0.8264  0.3184 -0.5269
   15MOL0     C 1986   7.049   8.882   7.164 -0.0802 -0.0423 -0.4798
   15MOL0     C 1987   6.775   8.999   6.810 -0.2654  1.1443 -0.0504
   15MOL0     C 1988   6.768   9.132   6.846  0.5481 -0.6224  0.2278
   15MOL0     C 1989   6.674   9.211   6.795  0.5603 -0.9533 -0.4417
   15MOL0     C 1990   6.582   9.173   6.706 -0.4849 -0.0869  0.0619
   15MOL0     O 1991   6.482   9.248   6.656  0.4308 -0.2293 -1.0805
   15MOL0     C 1992   6.498   9.379   6.623  0.1395  0.6534 -0.0140
   15MOL0     C 1993   6.410   9.419   6.502  0.0056 -0.0441  0.6797
   15MOL0     C 1994   6.442   9.337   6.371 -0.0561 -0.3300 -0.2186
   15MOL0     C 1995   6.335   9.344   6.254 -0.8255 -0.1006  0.6155
   15MOL0     C 1996   6.192   9.359   6.293 -0.4052  0.4775  0.2539
   15MOL0     C 1997   6.078   9.380   6.331 -0.5432 -0.9059 -0.5559
   15MOL0     C 1998   6.591   9.041   6.661  1.1239  0.0958 -0.1647
   15MOL0     C 1999   6.688   8.953   6.716 -0.3665 -0.1036  0.6629
   15MOL0     C 2000   6.684   8.808   6.664 -0.0909 -0.1077  0.6241
   15MOL0     H 2001   7.196   8.871   6.852  2.8025  1.6294  0.7460
   15MOL0     H 2002   7.343   8.728   6.952 -0.7085  0.0561 -0.9854
   15MOL0     H 2003   7.524   8.589   7.268 -0.2963 -2.0591  0.2974
   15MOL0     H 2004   7.489   8.658   7.098 -2.1256  0.3691 -0.6067
   15MOL0     H 2005   7.384   8.413   7.219 -1.0184  0.7351  0.4827
   15MOL0     H 2006   7.305   8.496   7.072 -0.2148  1.6461  0.6688
   15MOL0     H 2007   7.569   8.469   6.993  0.4708 -0.2792  1.1315
   15MOL0     H 2008   7.553   8.326   7.093 -0.4880 -0.1400 -1.2249
   15MOL0     H 2009   7.321   8.293   6.952  0.1101 -0.2649 -0.2346
   15MOL0     H 2010   7.388   8.427   6.856  0.0248 -0.6994 -0.2235
   15MOL0     H 2011   7.603   8.295   6.839  0.0245  1.0630  0.4398
   15MOL0     H 2012   7.469   8.215   6.745 -1.1042  2.5291  0.0704
   15MOL0     H 2013   7.504   8.121   7.025  2.5114 -1.4019  0.2363
   15MOL0     H 2014   7.414   8.064   6.885 -1.3866  0.1334  2.7533
   15MOL0     H 2015   7.648   8.045   6.770 -2.4711 -1.2176 -0.6919
   15MOL0     H 2016   7.629   7.943   6.914 -0.0528  0.5777  0.4926
   15MOL0     H 2017   7.862   8.053   6.887 -0.0417  0.5839  1.2800
   15MOL0     H 2018   7.789   8.210   6.910  0.1707  0.5830 -0.4072
   15MOL0     H 2019   7.778   7.873   7.123 -2.6576 -0.7410  2.3255
   15MOL0     H 2020   7.887   8.007   7.469 -0.2896 -0.3886  0.2034
   15MOL0     H 2021   7.879   7.856   7.390  0.9962 -0.0910  4.6980
   15MOL0     H 2022   7.694   7.860   7.550 -2.1161 -2.7545 -0.8835
   15MOL0     H 2023   7.632   8.008   7.467 -2.8808 -1.8020 -2.3644
   15MOL0     H 2024   7.602   7.853   7.264 -1.1781 -1.1159 -0.4047
   15MOL0     H 2025   7.669   7.726   7.365  1.1037  1.4556  0.2083
   15MOL0     H 2026   7.425   7.695   7.373  1.2586 -0.9083  1.0101
   15MOL0     H 2027   7.452   7.775   7.515 -0.3088  1.4153 -0.2102
   15MOL0     H 2028   7.434   7.738   7.153  1.7813  3.1584 -0.2514
   15MOL0     H 2029   7.200   7.724   6.861 -2.0751 -0.8770  0.2542
   15MOL0     H 2030   7.310   7.610   6.960 -0.6097  0.4993  1.5032
   15MOL0     H 2031   7.372   7.741   6.860 -1.2074  0.6927  0.3738
   15MOL0     H 2032   7.095   8.166   6.648 -1.1021 -0.5979  3.5267
   15MOL0     H 2033   6.950   8.216   6.448 -0.6680  1.2546  2.0359
   15MOL0     H 2034   6.712   8.169   6.414  1.2170 -4.4073  2.0624
   15MOL0     H 2035   6.774   8.188   6.239 -0.1603  0.0888  0.0979
   15MOL0     H 2036   6.627   8.074   6.134 -1.8243 -0.0588 -1.6125
   15MOL0     H 2037   6.546   8.013   6.283  1.5182  0.5300  2.8343
   15MOL0     H 2038   6.552   8.303   6.185 -0.3552  0.1354 -2.2263
   15MOL0     H 2039   6.480   8.259   6.338  0.4337  3.3904 -1.3830
   15MOL0     H 2040   6.329   8.094   6.204 -0.6387 -0.8219 -1.6956
   15MOL0     H 2041   6.396   8.153   6.059  0.5554  1.4035 -0.5672
   15MOL0     H 2042   6.243   8.329   6.257  0.7146  0.6029  0.3295
   15MOL0     H 2043   6.340   8.394   6.140  0.0335  0.5140  0.9527
   15MOL0     H 2044   6.087   8.237   6.096 -0.8281 -0.0078 -0.2328
   15MOL0     H 2045   6.218   8.241   5.965  0.5297  0.0883  0.1505
   15MOL0     H 2046   6.188   8.486   5.949 -0.2480  0.1864 -0.0194
   15MOL0     H 2047   6.076   8.492   6.075  3.2996  3.5899 -1.6477
   15MOL0     H 2048   5.919   8.347   5.958 -0.5212  2.7531  3.9397
   15MOL0     H 2049   6.037   8.333   5.814  0.7543  1.7852 -0.3785
   15MOL0     H 2050   6.837   7.798   6.460  0.8978 -1.7656 -0.3339
   15MOL0     H 2051   6.984   7.761   6.656 -1.9476  1.3478  2.1278
   15MOL0     H 2052   7.128   8.120   7.088  0.4712 -0.5199 -2.2606
   15MOL0     H 2053   7.225   8.091   7.296 -1.3226  1.5869 -2.1503
   15MOL0     H 2054   7.140   8.793   7.335 -0.8150  1.6972 -0.5079
   15MOL0     H 2055   6.963   8.921   7.218  1.1401 -1.7343  2.9555
   15MOL0     H 2056   6.843   9.174   6.913  2.0914 -0.7051 -1.3837
   15MOL0     H 2057   6.694   9.317   6.811 -0.0805 -0.6501 -1.5319
   15MOL0     H 2058   6.469   9.442   6.708  0.9653  1.6745 -0.4534
   15MOL0     H 2059   6.603   9.401   6.600 -0.4254  3.3795 -0.3222
   15MOL0     H 2060   6.413   9.524   6.471  0.5882  0.1663  1.4290
   15MOL0     H 2061   6.313   9.385   6.541 -1.3545  1.5382 -1.1224
   15MOL0     H 2062   6.537   9.381   6.340  0.0476  2.0562  2.9888
   15MOL0     H 2063   6.456   9.234   6.404  1.9093  0.5754  2.1032
   15MOL0     H 2064   6.339   9.245   6.207 -1.4547 -0.1320  0.6268
   15MOL0     H 2065   6.354   9.426   6.184 -1.7389 -2.0334 -2.0664
   15MOL0     H 2066   5.984   9.381   6.382  0.3065  2.3099  1.2392
   15MOL0     H 2067   6.520   9.008   6.586  1.0463  0.0943 -0.0909
   15MOL0     H 2068   6.656   8.732   6.738  0.4158 -0.6443  0.2703
   15MOL0     H 2069   6.629   8.801   6.570  1.8648  2.5360 -0.8495
   15MOL0     H 2070   6.780   8.771   6.627 -0.2721 -0.0349  0.0862
   16MOL0     O 2071  10.626  11.059   7.611  0.0519  0.3634  0.9506
   16MOL0     C 2072  10.730  11.042   7.563 -0.2998 -0.4447 -0.6220
   16MOL0     O 2073  10.783  10.920   7.522 -0.2913  0.3974  0.2975
   16MOL0     C 2074  10.703  10.803   7.516 -0.6463  0.1559  0.2337
   16MOL0     C 2075  10.572  10.787   7.481 -0.2160 -0.1747  0.5721
   16MOL0     C 2076  10.512  10.662   7.468  0.1528 -0.5613 -0.1085
   16MOL0     C 2077  10.580  10.543   7.501 -0.1777 -0.4439 -0.7635
   16MOL0     O 2078  10.506  10.420   7.504 -0.5353 -0.1481 -0.9937
   16MOL0     C 2079  10.571  10.297   7.524  0.2566  0.2863  0.4367
   16MOL0     C 2080  10.463  10.178   7.532 -0.5070  0.0772  0.6172
   16MOL0     C 2081  10.375  10.196   7.663 -0.9113 -0.0042  0.0768
   16MOL0     C 2082  10.265  10.090   7.683 -0.1076 -0.4607  0.0825
   16MOL0     C 2083  10.151  10.128   7.786  0.7445  0.0014 -0.5946
   16MOL0     C 2084  10.032  10.037   7.766 -0.2446  0.5068  1.0730
   16MOL0     C 2085   9.923  10.084   7.854  0.3864  0.7473  1.0436
   16MOL0     C 2086   9.853  10.228   7.833 -0.2473  0.5186 -0.5643
   16MOL0     N 2087   9.779  10.237   7.711  0.6213 -0.0575  0.0256
   16MOL0     C 2088   9.646  10.256   7.704  0.8207 -0.5633  0.4899
   16MOL0     C 2089   9.621  10.227   7.579 -0.0422  0.6090  0.5772
   16MOL0     C 2090   9.481  10.242   7.534  1.0426  0.6624  0.3437
   16MOL0     C 2091   9.419  10.129   7.458  0.6267 -0.3632 -0.1883
   16MOL0     C 2092   9.323  10.032   7.549 -0.7034 -0.4258  0.0578
   16MOL0     C 2093   9.176  10.088   7.566 -0.3880 -0.3065  0.1679
   16MOL0     O 2094   9.101  10.089   7.436 -1.0507  0.1852 -0.5306
   16MOL0     C 2095   8.978  10.117   7.449  0.3777 -0.6566  0.4698
   16MOL0     C 2096   8.898  10.121   7.563  0.1533 -0.3142 -0.3735
   16MOL0     C 2097   8.755  10.150   7.566 -0.0849  0.0755 -0.7663
   16MOL0     C 2098   8.682  10.143   7.699  0.8076  0.0306 -0.0184
   16MOL0     C 2099   8.693  10.180   7.442  0.1681 -0.3662  0.2711
   16MOL0     C 2100   8.553  10.217   7.436  1.5517 -0.5503  0.3040
   16MOL0     O 2101   8.458  10.116   7.433  0.5550  0.4121  0.1926
   16MOL0     C 2102   8.325  10.151   7.400  0.0134  0.1361  0.0133
   16MOL0     C 2103   8.301  10.200   7.276 -0.3964  1.4453 -1.0246
   16MOL0     C 2104   8.174  10.209   7.223  0.8671  0.5792 -0.4559
   16MOL0     C 2105   8.060  10.184   7.308  0.3181  0.5008  0.2557
   16MOL0     O 2106   7.929  10.197   7.274  0.6661 -0.0413 -0.1626
   16MOL0     C 2107   7.892  10.261   7.147  0.3126 -0.2918 -0.7392
   16MOL0     C 2108   7.922  10.173   7.023 -0.1545  0.0804  0.0756
   16MOL0     C 2109   7.930  10.263   6.905  0.1443 -0.1162  0.6564
   16MOL0     C 2110   7.987  10.184   6.787  0.3053 -0.2398  0.6232
   16MOL0     C 2111   7.960  10.268   6.657 -0.3083 -0.1989 -0.8731
   16MOL0     C 2112   8.022  10.200   6.530 -0.5274 -0.6995 -0.6124
   16MOL0     C 2113   7.991  10.280   6.398  0.3479 -0.5979  0.5539
   16MOL0     C 2114   7.845  10.317   6.360 -0.4076 -0.4401 -0.6285
   16MOL0    Cl 2115   7.740  10.170   6.332  0.4435 -0.5637  0.2218
   16MOL0     C 2116   8.080  10.137   7.437  0.9058  0.6984 -0.4750
   16MOL0     C 2117   8.214  10.121   7.478  0.4604 -0.0834 -0.6522
   16MOL0     O 2118   8.535  10.335   7.401 -0.0066  1.0831  0.3639
   16MOL0     C 2119   8.774  10.175   7.325  0.5149  1.2168  0.4892
   16MOL0     C 2120   8.905  10.139   7.331  0.2379 -0.5697 -0.1960
   16MOL0     N 2121   9.735  10.218   7.505 -0.5586 -0.1749  0.3382
   16MOL0     N 2122   9.827  10.228   7.585 -0.5546 -0.5407  1.1222
   16MOL0     C 2123  10.720  10.558   7.532  0.2191  0.4866  0.1362
   16MOL0     C 2124  10.775  10.689   7.540 -0.5769 -0.1426 -0.9383
   16MOL0     C 2125  10.803  11.173   7.546 -0.2347 -0.7033 -0.1950
   16MOL0     C 2126  10.728  11.296   7.539 -0.2714  1.0830 -0.2033
   16MOL0     C 2127  10.774  11.415   7.486  0.0320  0.0916  0.3882
   16MOL0     C 2128  10.913  11.413   7.453 -0.3289  0.2920 -0.7951
   16MOL0     O 2129  10.983  11.526   7.415  0.0846  0.4206 -0.3804
   16MOL0     C 2130  10.899  11.636   7.381  0.4092 -0.6203  0.3884
   16MOL0     C 2131  11.003  11.750   7.345 -0.1772 -0.5176  0.8705
   16MOL0     C 2132  11.129  11.707   7.267 -0.5927 -0.0917  0.4695
   16MOL0     C 2133  11.172  11.800   7.159 -0.4128 -0.1351  0.1693
   16MOL0     C 2134  11.220  11.934   7.209 -0.1106 -0.3758 -0.5859
   16MOL0     C 2135  11.252  12.050   7.244 -0.3648 -0.5098 -0.2142
   16MOL0     C 2136  10.992  11.298   7.468 -0.0102  0.0999  1.1148
   16MOL0     C 2137  10.940  11.176   7.520  0.0333 -0.0585  0.3618
   16MOL0     C 2138  11.032  11.061   7.557 -0.3773 -0.3488 -0.1629
   16MOL0     H 2139  10.518  10.880   7.466  1.9787  1.1090  0.2682
   16MOL0     H 2140  10.404  10.673   7.461  0.2128  2.9432  2.1832
   16MOL0     H 2141  10.635  10.312   7.611  0.0403  0.9684  0.4861
   16MOL0     H 2142  10.636  10.271   7.440 -1.3540 -0.2367 -0.6973
   16MOL0     H 2143  10.399  10.170   7.443 -0.8705 -2.7827  1.0237
   16MOL0     H 2144  10.512  10.080   7.533  0.3148  0.4692  2.3662
   16MOL0     H 2145  10.431  10.182   7.756  1.0467 -1.8351 -1.2951
   16MOL0     H 2146  10.340  10.300   7.665 -0.7517  0.0435  0.8146
   16MOL0     H 2147  10.215  10.072   7.587 -1.1109 -0.8239  0.6593
   16MOL0     H 2148  10.317  10.001   7.720  1.2505  0.1708 -0.2392
   16MOL0     H 2149  10.115  10.231   7.776 -0.8552 -0.6786 -2.5059
   16MOL0     H 2150  10.183  10.106   7.888 -0.5007  2.2638  0.3771
   16MOL0     H 2151  10.000  10.039   7.661  1.8505 -1.5158  0.2980
   16MOL0     H 2152  10.072   9.938   7.790  0.7394  1.4858  3.7959
   16MOL0     H 2153   9.960  10.092   7.957 -0.5781 -1.4130  1.6139
   16MOL0     H 2154   9.850  10.003   7.850  1.1682  0.0122  1.2960
   16MOL0     H 2155   9.778  10.248   7.910  0.3504  0.3062  0.0834
   16MOL0     H 2156   9.926  10.310   7.837 -1.7006  1.8934 -1.0283
   16MOL0     H 2157   9.580  10.288   7.785  0.1236  0.8796 -0.6063
   16MOL0     H 2158   9.476  10.334   7.474 -0.1363  0.3021 -0.1537
   16MOL0     H 2159   9.414  10.250   7.619  0.0783  2.2424 -0.5172
   16MOL0     H 2160   9.360  10.173   7.377 -0.4353  0.5557  1.0446
   16MOL0     H 2161   9.501  10.071   7.415  1.9051  0.8162  0.6108
   16MOL0     H 2162   9.310   9.945   7.485 -3.2344  0.6086 -0.9349
   16MOL0     H 2163   9.376  10.004   7.641  0.5338  4.3434  1.1085
   16MOL0     H 2164   9.125  10.018   7.633 -0.2120  0.6006  1.2665
   16MOL0     H 2165   9.175  10.191   7.602 -1.6524 -0.2998  0.1624
   16MOL0     H 2166   8.938  10.110   7.663  0.0004  3.3870  0.2600
   16MOL0     H 2167   8.730  10.059   7.752 -4.0401 -2.5510  0.8508
   16MOL0     H 2168   8.580  10.107   7.682  0.1601  1.0386  1.5104
   16MOL0     H 2169   8.705  10.229   7.763  1.3912 -0.8973  1.0721
   16MOL0     H 2170   8.381  10.215   7.204 -0.2776  2.6201 -0.6585
   16MOL0     H 2171   8.150  10.241   7.122 -2.5810  2.1390  0.7023
   16MOL0     H 2172   7.787  10.291   7.147  0.4523  0.2284 -2.0583
   16MOL0     H 2173   7.941  10.358   7.139 -0.2120 -0.1795 -3.9807
   16MOL0     H 2174   8.015  10.117   7.036 -0.3507 -0.3883 -0.5038
   16MOL0     H 2175   7.849  10.093   7.016 -0.1619  0.0812  0.1383
   16MOL0     H 2176   8.002  10.342   6.932  0.8722 -0.2711 -0.7468
   16MOL0     H 2177   7.834  10.309   6.877 -1.2463 -3.9364 -1.5324
   16MOL0     H 2178   7.930  10.091   6.786  0.7586 -0.5668  2.3080
   16MOL0     H 2179   8.094  10.161   6.800  0.2717 -0.9558 -0.2547
   16MOL0     H 2180   7.854  10.293   6.646  0.7478  5.1508 -1.5066
   16MOL0     H 2181   8.005  10.367   6.672 -0.6619 -0.4474  2.4429
   16MOL0     H 2182   7.982  10.099   6.517  3.0793 -2.0564 -2.8488
   16MOL0     H 2183   8.130  10.199   6.545 -0.4038 -0.1007 -1.4233
   16MOL0     H 2184   8.033  10.217   6.319  2.0227 -1.2747  1.9248
   16MOL0     H 2185   8.055  10.369   6.397 -1.7520  1.0003  0.0998
   16MOL0     H 2186   7.840  10.384   6.274 -3.3667  0.9788  0.5003
   16MOL0     H 2187   7.804  10.384   6.436 -1.8640 -0.8348 -1.0310
   16MOL0     H 2188   7.988  10.108   7.487  0.7720  1.0231 -0.5275
   16MOL0     H 2189   8.234  10.089   7.580 -1.1568  1.8580  0.3725
   16MOL0     H 2190   8.739  10.191   7.224  0.8149 -3.1156 -0.5143
   16MOL0     H 2191   8.969  10.137   7.243 -0.3470  3.5336 -0.8984
   16MOL0     H 2192  10.776  10.467   7.550  0.2767  0.1118 -1.7546
   16MOL0     H 2193  10.880  10.701   7.565 -0.6780 -0.1346 -0.5246
   16MOL0     H 2194  10.626  11.317   7.567  0.0591  1.8851  0.4353
   16MOL0     H 2195  10.715  11.506   7.477  2.4943  1.5618 -3.0740
   16MOL0     H 2196  10.828  11.617   7.300  1.6448 -1.3956 -0.5491
   16MOL0     H 2197  10.845  11.681   7.465  1.3884  1.8716 -0.2139
   16MOL0     H 2198  11.040  11.783   7.442  1.7627 -0.4659  0.1764
   16MOL0     H 2199  10.959  11.827   7.282  0.3184 -1.9265 -1.3143
   16MOL0     H 2200  11.212  11.683   7.335  1.0708 -0.9573 -1.7575
   16MOL0     H 2201  11.110  11.608   7.223  0.0310  0.2872 -0.6844
   16MOL0     H 2202  11.079  11.811   7.101 -1.6552 -1.5389  1.7864
   16MOL0     H 2203  11.247  11.743   7.103 -0.6898  0.0848 -0.4372
   16MOL0     H 2204  11.292  12.148   7.260 -2.5140  0.7518 -2.0259
   16MOL0     H 2205  11.095  11.300   7.435  0.2652 -2.9194  1.5240
   16MOL0     H 2206  10.988  10.995   7.633  1.5810 -1.1892  0.3072
   16MOL0     H 2207  11.064  10.986   7.485  1.0414 -2.3660  2.3747
   16MOL0     H 2208  11.112  11.118   7.604 -0.3929 -0.2180 -0.2963
   17MOL0     O 2209   7.286   6.634   9.662  0.0753  0.3654  0.1850
   17MOL0     C 2210   7.205   6.704   9.722  0.2003 -0.0975  0.3283
   17MOL0     O 2211   7.213   6.850   9.744  0.5947  0.1607 -0.5823
   17MOL0     C 2212   7.292   6.922   9.658  0.3964  0.4046 -1.2401
   17MOL0     C 2213   7.284   6.892   9.525  0.2872  0.3631  0.2875
   17MOL0     C 2214   7.346   6.980   9.434  1.0670  0.2479  0.0245
   17MOL0     C 2215   7.429   7.087   9.474 -0.4695 -0.1651 -0.6039
   17MOL0     O 2216   7.496   7.174   9.396 -0.0905 -0.1691 -0.0138
   17MOL0     C 2217   7.434   7.222   9.275  0.5216  0.0916  0.0951
   17MOL0     C 2218   7.459   7.145   9.146  1.0026 -0.3657 -0.5802
   17MOL0     C 2219   7.606   7.106   9.120 -1.1216  0.8969 -0.1461
   17MOL0     C 2220   7.637   7.033   8.979 -0.2798 -0.1115 -0.4211
   17MOL0     C 2221   7.783   6.973   8.972  0.1493  0.4611 -0.1688
   17MOL0     C 2222   7.904   7.070   8.987 -0.2626 -0.8474 -0.5912
   17MOL0     C 2223   8.028   6.981   9.006  0.1486  0.0335  0.7148
   17MOL0     C 2224   8.133   7.040   9.102 -0.1043  0.5499 -0.4059
   17MOL0     N 2225   8.239   6.938   9.120  0.8353  0.3476  0.2249
   17MOL0     C 2226   8.361   6.932   9.043  1.0926  0.3254  0.1121
   17MOL0     C 2227   8.448   6.843   9.107  1.0462 -0.5318  0.7213
   17MOL0     C 2228   8.577   6.808   9.042 -0.2057  0.3592  0.0213
   17MOL0     C 2229   8.539   6.702   8.936 -0.0746 -0.4600 -0.4833
   17MOL0     C 2230   8.659   6.690   8.836 -0.5092 -0.4262 -0.6502
   17MOL0     C 2231   8.797   6.671   8.904  0.2206  0.7752 -0.4143
   17MOL0     O 2232   8.902   6.709   8.818 -0.0872  0.5483 -0.4223
   17MOL0     C 2233   9.035   6.693   8.855 -1.1304 -0.4388 -0.2505
   17MOL0     C 2234   9.137   6.740   8.766  0.0434 -0.1515  0.9782
   17MOL0     C 2235   9.275   6.722   8.791  0.2979  0.3274  0.5944
   17MOL0     C 2236   9.375   6.762   8.687 -0.5816 -0.6917 -1.0826
   17MOL0     C 2237   9.311   6.663   8.918 -0.4359 -0.5493  0.2439
   17MOL0     C 2238   9.456   6.635   8.964  0.5596 -0.2204  0.3440
   17MOL0     O 2239   9.543   6.602   8.866 -1.2170 -1.0881  0.3067
   17MOL0     C 2240   9.670   6.562   8.907 -0.2294  0.1148 -0.5212
   17MOL0     C 2241   9.722   6.438   8.866 -0.1237 -0.2399 -0.3302
   17MOL0     C 2242   9.848   6.402   8.905  0.4553  0.0759 -0.5739
   17MOL0     C 2243   9.932   6.483   8.986 -0.3839 -0.0180  0.1822
   17MOL0     O 2244  10.050   6.440   9.037  0.0652  0.2718  0.3022
   17MOL0     C 2245  10.112   6.322   8.989  0.0327 -0.1446 -0.5779
   17MOL0     C 2246  10.254   6.311   9.045  0.7172  0.3478 -0.5152
   17MOL0     C 2247  10.358   6.395   8.973 -0.6939  0.9985 -0.0810
   17MOL0     C 2248  10.404   6.307   8.857 -0.6883 -0.1679  0.5778
   17MOL0     C 2249  10.547   6.353   8.812 -0.2430 -0.4111 -0.3331
   17MOL0     C 2250  10.588   6.268   8.692 -0.3519  0.0789 -0.4948
   17MOL0     C 2251  10.732   6.295   8.646  0.8689  0.9982 -0.4628
   17MOL0     C 2252  10.777   6.189   8.552 -0.3101  0.2838 -1.0022
   17MOL0    Cl 2253  10.911   6.245   8.457 -0.0020 -0.0939  0.3788
   17MOL0     C 2254   9.880   6.599   9.031  1.4801  0.0707 -0.4714
   17MOL0     C 2255   9.748   6.639   8.991 -0.5476  0.5632  0.3633
   17MOL0     O 2256   9.481   6.635   9.081  0.5197 -0.3802 -0.2303
   17MOL0     C 2257   9.207   6.642   9.012 -0.8322 -0.8065 -0.4622
   17MOL0     C 2258   9.073   6.654   8.984  0.4515 -0.0679  0.2450
   17MOL0     N 2259   8.378   6.793   9.212  0.9241  0.4996  0.1015
   17MOL0     N 2260   8.263   6.850   9.224 -0.0203 -0.1861 -0.3838
   17MOL0     C 2261   7.442   7.107   9.615  0.1102  0.4046  0.5081
   17MOL0     C 2262   7.380   7.024   9.704 -0.8189 -0.0351  0.4763
   17MOL0     C 2263   7.088   6.631   9.790 -0.3673 -0.0313 -0.0863
   17MOL0     C 2264   7.041   6.675   9.911  1.1650 -0.3338  0.6779
   17MOL0     C 2265   6.957   6.606   9.991 -0.3864  0.3587  0.4262
   17MOL0     C 2266   6.913   6.480   9.957  0.0363  0.7226 -0.1822
   17MOL0     O 2267   6.828   6.398  10.027  0.6550  0.4910 -0.1621
   17MOL0     C 2268   6.829   6.429  10.168  0.7811  0.2212  1.0156
   17MOL0     C 2269   6.765   6.300  10.227  0.2999  0.3147  0.9381
   17MOL0     C 2270   6.850   6.177  10.192 -0.0140  0.1332  0.1726
   17MOL0     C 2271   6.874   6.091  10.312  0.1551 -1.2759 -1.0380
   17MOL0     C 2272   6.992   6.001  10.292 -0.0753 -0.5085  0.4067
   17MOL0     C 2273   7.099   5.944  10.268  0.6279  0.7934  0.4085
   17MOL0     C 2274   6.955   6.430   9.833  0.2650  0.4669 -0.3268
   17MOL0     C 2275   7.033   6.507   9.747  0.4176 -0.7649 -0.2841
   17MOL0     C 2276   7.063   6.452   9.606 -0.0551  0.5716  0.0863
   17MOL0     H 2277   7.231   6.806   9.484  4.2417 -1.5701 -1.2609
   17MOL0     H 2278   7.323   6.964   9.329 -1.5563 -1.8924  0.8338
   17MOL0     H 2279   7.465   7.325   9.255  0.0760  0.6581  2.1215
   17MOL0     H 2280   7.326   7.237   9.285  0.2713  0.5757 -2.5034
   17MOL0     H 2281   7.390   7.060   9.144 -0.9085  1.0986 -3.8105
   17MOL0     H 2282   7.421   7.193   9.056 -1.4283 -3.6802 -1.5364
   17MOL0     H 2283   7.671   7.191   9.142  3.1155 -1.7914 -1.0022
   17MOL0     H 2284   7.636   7.039   9.201 -0.1341  0.7224 -0.6374
   17MOL0     H 2285   7.562   6.954   8.973 -0.0196 -0.2593 -2.2417
   17MOL0     H 2286   7.624   7.107   8.900  0.0220  0.8711  0.4251
   17MOL0     H 2287   7.792   6.924   8.875 -0.0984 -3.4005  1.5690
   17MOL0     H 2288   7.785   6.889   9.042 -0.2894  1.5690  1.2354
   17MOL0     H 2289   7.929   7.132   8.900  3.6618 -3.4072 -1.5545
   17MOL0     H 2290   7.872   7.128   9.074 -0.9219 -0.6991 -0.9253
   17MOL0     H 2291   8.077   6.976   8.908  0.3197 -0.7862  0.8383
   17MOL0     H 2292   7.992   6.881   9.033 -2.5708  0.4806 -0.8270
   17MOL0     H 2293   8.170   7.136   9.063 -0.0161  0.5016 -0.4439
   17MOL0     H 2294   8.084   7.051   9.199 -1.5578 -1.9404 -0.7900
   17MOL0     H 2295   8.381   6.981   8.948 -1.2619 -1.6771 -1.5478
   17MOL0     H 2296   8.652   6.773   9.113 -1.7780 -1.2505  0.9861
   17MOL0     H 2297   8.621   6.899   9.000  1.4790 -0.9050 -1.0644
   17MOL0     H 2298   8.519   6.605   8.983  2.3234 -1.3718 -1.1865
   17MOL0     H 2299   8.455   6.738   8.877 -0.1981 -0.6797 -0.4416
   17MOL0     H 2300   8.643   6.605   8.770  0.6016 -0.4629 -0.8908
   17MOL0     H 2301   8.661   6.782   8.777  0.4010 -0.1702 -0.2458
   17MOL0     H 2302   8.805   6.732   8.995  0.8731  1.3540 -0.8426
   17MOL0     H 2303   8.810   6.566   8.931 -1.5726  0.4695 -0.6197
   17MOL0     H 2304   9.114   6.785   8.670  2.3350 -0.8157  0.0559
   17MOL0     H 2305   9.462   6.808   8.734  0.7906 -0.6339 -3.4994
   17MOL0     H 2306   9.340   6.835   8.614  1.7493 -0.5542 -2.1588
   17MOL0     H 2307   9.412   6.671   8.638  1.6480  0.0825 -0.9344
   17MOL0     H 2308   9.653   6.371   8.816 -2.2096 -0.2837  2.4270
   17MOL0     H 2309   9.875   6.306   8.861 -1.6857 -0.8618  0.0145
   17MOL0     H 2310  10.046   6.238   9.013 -0.6387 -0.0042 -1.8376
   17MOL0     H 2311  10.119   6.329   8.880  0.2647 -1.0081 -0.6251
   17MOL0     H 2312  10.247   6.331   9.152  1.3487  0.7862 -0.5506
   17MOL0     H 2313  10.282   6.206   9.033  0.3099 -0.1610  2.2665
   17MOL0     H 2314  10.437   6.425   9.041 -1.2502 -0.5457  1.3226
   17MOL0     H 2315  10.332   6.492   8.931 -1.7466  0.2977 -1.1297
   17MOL0     H 2316  10.341   6.329   8.770 -0.5972  0.9724  0.7834
   17MOL0     H 2317  10.397   6.200   8.878 -2.8783 -0.7563 -2.4478
   17MOL0     H 2318  10.549   6.460   8.787 -0.2905 -0.3146  0.0778
   17MOL0     H 2319  10.620   6.342   8.893 -0.1111  1.9462 -0.0538
   17MOL0     H 2320  10.526   6.294   8.606  0.5284  3.7357 -0.2165
   17MOL0     H 2321  10.573   6.162   8.712 -0.6120 -0.5250 -3.5210
   17MOL0     H 2322  10.796   6.306   8.734  0.4309 -0.2549  0.0410
   17MOL0     H 2323  10.740   6.389   8.591  0.8524 -0.6263 -3.4408
   17MOL0     H 2324  10.689   6.159   8.495 -1.5492 -0.7328  1.3104
   17MOL0     H 2325  10.809   6.099   8.605  1.5184  0.8122 -1.1423
   17MOL0     H 2326   9.922   6.656   9.113  0.9244  1.1069 -0.8876
   17MOL0     H 2327   9.714   6.731   9.036  2.2810  0.7234  2.4472
   17MOL0     H 2328   9.227   6.610   9.114 -1.2058  1.1476  0.2780
   17MOL0     H 2329   9.008   6.630   9.068  0.0255  1.9340  0.5453
   17MOL0     H 2330   7.509   7.187   9.644  0.0718  0.4859  0.3777
   17MOL0     H 2331   7.404   7.055   9.805 -0.5017  0.4350  0.2637
   17MOL0     H 2332   7.073   6.772   9.947 -2.1925  0.8597  0.7840
   17MOL0     H 2333   6.924   6.653  10.083  0.8447 -1.1523  1.6959
   17MOL0     H 2334   6.931   6.432  10.208  0.2486 -0.0688  2.4871
   17MOL0     H 2335   6.769   6.519  10.186 -2.3390 -1.5402  0.1151
   17MOL0     H 2336   6.667   6.274  10.187  0.6435 -0.8184  0.8152
   17MOL0     H 2337   6.759   6.314  10.335  1.8339  1.9021  0.8629
   17MOL0     H 2338   6.793   6.115  10.122  2.7077 -1.7580 -0.5087
   17MOL0     H 2339   6.939   6.207  10.137 -0.4328  0.0716 -0.5570
   17MOL0     H 2340   6.784   6.035  10.340 -2.6615  2.5638 -1.5329
   17MOL0     H 2341   6.878   6.155  10.400 -0.8807  0.8337 -2.4417
   17MOL0     H 2342   7.188   5.891  10.240 -0.3357 -1.0238  0.5936
   17MOL0     H 2343   6.904   6.338   9.806 -2.6289  1.5589  1.0252
   17MOL0     H 2344   6.978   6.387   9.582  0.6178 -0.4882  0.5278
   17MOL0     H 2345   7.079   6.538   9.540  0.9183 -0.8869 -1.6614
   17MOL0     H 2346   7.157   6.397   9.610 -1.2412 -1.5287  0.7584
   18MOL0     O 2347   1.324   5.386   8.937  1.0395  0.6051 -0.3741
   18MOL0     C 2348   1.239   5.306   8.893  0.0631 -0.1881  0.8027
   18MOL0     O 2349   1.255   5.165   8.870 -0.1817 -0.2882 -0.6037
   18MOL0     C 2350   1.366   5.092   8.886  0.0525 -0.1257  0.3901
   18MOL0     C 2351   1.490   5.139   8.933 -0.0582  0.3477 -0.6337
   18MOL0     C 2352   1.601   5.056   8.956 -0.3867  0.0461 -0.1110
   18MOL0     C 2353   1.595   4.917   8.924  1.0865 -0.9676 -0.2840
   18MOL0     O 2354   1.714   4.853   8.935  1.0683  0.5126  0.3581
   18MOL0     C 2355   1.702   4.713   8.975  0.1222 -0.3724 -0.0373
   18MOL0     C 2356   1.840   4.648   8.956  0.6573  0.0862  0.5754
   18MOL0     C 2357   1.842   4.493   8.970 -0.2643  0.2486 -0.3603
   18MOL0     C 2358   1.759   4.416   8.869  1.0830 -0.1190  0.3636
   18MOL0     C 2359   1.787   4.269   8.871 -0.6462  0.9941  0.0547
   18MOL0     C 2360   1.661   4.185   8.855  0.1213 -0.1726 -0.0693
   18MOL0     C 2361   1.683   4.042   8.873  0.3620 -0.9524 -0.3756
   18MOL0     C 2362   1.783   3.975   8.790 -0.3951  0.4903  0.8227
   18MOL0     N 2363   1.717   3.910   8.671 -0.1746 -0.6237 -0.1642
   18MOL0     C 2364   1.609   3.828   8.671 -0.3236  0.4148  0.9332
   18MOL0     C 2365   1.603   3.776   8.546  0.7347  0.0872  0.6852
   18MOL0     C 2366   1.494   3.695   8.480  0.1457 -0.6922 -0.2559
   18MOL0     C 2367   1.495   3.544   8.534  0.5265 -0.2448  0.1128
   18MOL0     C 2368   1.598   3.449   8.490 -0.5072 -0.2094 -0.3371
   18MOL0     C 2369   1.626   3.445   8.335 -0.0281 -1.4107  0.6631
   18MOL0     O 2370   1.735   3.350   8.319  0.0943  0.6991 -0.3249
   18MOL0     C 2371   1.859   3.392   8.307  0.4101  0.4610 -0.3383
   18MOL0     C 2372   1.911   3.506   8.367  0.3570 -0.1658  0.9152
   18MOL0     C 2373   2.042   3.554   8.349  0.4133 -0.4713  0.9674
   18MOL0     C 2374   2.091   3.671   8.429 -0.0854 -0.1169 -0.3579
   18MOL0     C 2375   2.122   3.485   8.255 -0.8320 -0.3578  0.1117
   18MOL0     C 2376   2.265   3.511   8.219 -0.3633  0.7995 -0.7814
   18MOL0     O 2377   2.327   3.427   8.129 -0.1045 -0.4128  1.2308
   18MOL0     C 2378   2.454   3.477   8.096  0.6588  0.6807 -0.3451
   18MOL0     C 2379   2.472   3.522   7.967  0.2395 -0.4135  0.1883
   18MOL0     C 2380   2.599   3.557   7.919  0.3017  1.0252 -0.2049
   18MOL0     C 2381   2.699   3.559   8.006  0.0730 -0.5800 -0.6511
   18MOL0     O 2382   2.818   3.620   7.958 -0.2001 -0.2834 -0.1626
   18MOL0     C 2383   2.945   3.583   8.017 -0.7582  0.3830  0.5668
   18MOL0     C 2384   3.000   3.664   8.131  0.4181 -0.9971  0.3097
   18MOL0     C 2385   3.147   3.668   8.143  0.1543 -0.7219  0.3652
   18MOL0     C 2386   3.210   3.533   8.173 -0.0089 -0.3981 -0.7307
   18MOL0     C 2387   3.359   3.537   8.200 -0.1144 -0.0803  0.3589
   18MOL0     C 2388   3.404   3.396   8.221  0.0562  0.1363 -0.1998
   18MOL0     C 2389   3.546   3.395   8.255 -0.8465 -0.3641 -0.3477
   18MOL0     C 2390   3.611   3.252   8.260 -0.3406 -0.3693 -0.1941
   18MOL0    Cl 2391   3.639   3.196   8.089 -0.0780  0.4419 -0.2796
   18MOL0     C 2392   2.685   3.509   8.137 -0.5398 -0.5773 -0.4682
   18MOL0     C 2393   2.563   3.460   8.183 -0.0820 -0.9438  0.0723
   18MOL0     O 2394   2.320   3.613   8.267  0.2103 -0.3192 -0.0596
   18MOL0     C 2395   2.075   3.364   8.205 -0.7155 -0.3668  0.5864
   18MOL0     C 2396   1.941   3.319   8.228  0.0386 -0.5535  0.3032
   18MOL0     N 2397   1.705   3.833   8.471 -0.7160 -0.8379  0.1374
   18MOL0     N 2398   1.776   3.911   8.546  0.5452  0.0554  0.2488
   18MOL0     C 2399   1.467   4.871   8.873 -0.0945  0.0675 -0.2994
   18MOL0     C 2400   1.359   4.955   8.863  1.0163  0.2857 -0.0033
   18MOL0     C 2401   1.112   5.364   8.847 -0.5651 -0.0577  0.0892
   18MOL0     C 2402   1.065   5.488   8.914 -0.6420 -0.0846  0.8026
   18MOL0     C 2403   0.944   5.546   8.877 -0.2697  0.2608  0.0669
   18MOL0     C 2404   0.857   5.478   8.790  0.5410 -0.0707  0.8408
   18MOL0     O 2405   0.721   5.512   8.786  0.1303  0.0059 -0.5246
   18MOL0     C 2406   0.696   5.610   8.685  0.3571 -0.0068 -0.9125
   18MOL0     C 2407   0.564   5.666   8.706 -0.5561  0.2497 -0.1782
   18MOL0     C 2408   0.451   5.563   8.687 -0.0385  0.3783  0.1634
   18MOL0     C 2409   0.313   5.622   8.731 -0.1922 -0.1797  0.3259
   18MOL0     C 2410   0.200   5.549   8.677 -0.6081 -0.4419  0.0035
   18MOL0     C 2411   0.103   5.481   8.652  0.2593 -0.2597 -0.2847
   18MOL0     C 2412   0.907   5.374   8.712 -0.6982 -0.6615  0.2826
   18MOL0     C 2413   1.034   5.318   8.731 -0.6497  0.1659 -0.5040
   18MOL0     C 2414   1.075   5.202   8.640 -0.6059  0.3420 -0.7078
   18MOL0     H 2415   1.525   5.239   8.957  2.2644 -0.7464  0.9881
   18MOL0     H 2416   1.690   5.107   8.990 -0.6774 -1.4491  3.3260
   18MOL0     H 2417   1.627   4.667   8.911 -1.3423 -1.8037  2.5511
   18MOL0     H 2418   1.670   4.708   9.080 -1.4845  1.9319 -0.3443
   18MOL0     H 2419   1.874   4.676   8.856  2.5985 -1.1819  0.8089
   18MOL0     H 2420   1.921   4.687   9.019  1.6355 -2.4064  0.9912
   18MOL0     H 2421   1.945   4.454   8.974 -0.8665 -1.2730  2.1179
   18MOL0     H 2422   1.802   4.472   9.069 -1.4895  4.6290  0.2612
   18MOL0     H 2423   1.656   4.440   8.898  1.2790 -1.0465  1.8937
   18MOL0     H 2424   1.774   4.446   8.765  0.5841 -2.0711 -0.3202
   18MOL0     H 2425   1.816   4.231   8.970 -2.4208  0.5322  0.4242
   18MOL0     H 2426   1.867   4.248   8.799 -0.4292  3.6360 -0.5622
   18MOL0     H 2427   1.601   4.218   8.940 -0.8764 -3.4138  0.5864
   18MOL0     H 2428   1.619   4.212   8.758  3.6812  1.3087 -1.3822
   18MOL0     H 2429   1.589   3.989   8.857 -1.3678  1.9599 -0.4840
   18MOL0     H 2430   1.722   4.024   8.974 -0.9059  1.0714  0.5271
   18MOL0     H 2431   1.850   4.048   8.744  1.6183 -2.4162 -1.2335
   18MOL0     H 2432   1.822   3.889   8.845 -1.9899 -1.8473 -1.4514
   18MOL0     H 2433   1.540   3.790   8.746 -2.3433 -1.8991 -1.9018
   18MOL0     H 2434   1.493   3.690   8.371 -3.2620 -1.4790 -0.3000
   18MOL0     H 2435   1.401   3.730   8.524  0.8508 -1.8673  2.3496
   18MOL0     H 2436   1.492   3.554   8.643 -1.3389 -1.0270  0.1662
   18MOL0     H 2437   1.394   3.506   8.517  0.3272  0.0537  0.5945
   18MOL0     H 2438   1.693   3.475   8.538  0.0001  2.1414 -2.4165
   18MOL0     H 2439   1.575   3.351   8.532  1.9325 -0.2542  1.1440
   18MOL0     H 2440   1.542   3.419   8.271  1.6767 -0.7231 -2.0198
   18MOL0     H 2441   1.654   3.548   8.311 -0.8410 -1.2591  0.3415
   18MOL0     H 2442   1.847   3.564   8.433 -3.8674 -1.7295 -1.4218
   18MOL0     H 2443   2.183   3.643   8.480  0.3429  0.7217 -0.6366
   18MOL0     H 2444   2.009   3.711   8.489  0.3267  1.1126 -0.5753
   18MOL0     H 2445   2.116   3.748   8.354  0.4729 -1.4842 -1.6227
   18MOL0     H 2446   2.390   3.533   7.897  1.1313  2.3578 -0.5548
   18MOL0     H 2447   2.602   3.597   7.818 -1.0891  3.0714  0.4859
   18MOL0     H 2448   2.949   3.478   8.048  0.2136  0.0609 -0.5908
   18MOL0     H 2449   3.022   3.580   7.939 -1.3812  0.0547 -0.0503
   18MOL0     H 2450   2.953   3.761   8.113  1.3183 -0.8044 -1.1681
   18MOL0     H 2451   2.958   3.625   8.224  2.6924  2.2816  2.9608
   18MOL0     H 2452   3.172   3.735   8.225  1.4115  1.0327 -1.3689
   18MOL0     H 2453   3.184   3.705   8.047 -2.6116  1.1777 -0.1020
   18MOL0     H 2454   3.197   3.458   8.095 -3.0670 -0.4773 -0.2765
   18MOL0     H 2455   3.145   3.481   8.244 -3.3829  0.6202 -2.8467
   18MOL0     H 2456   3.402   3.586   8.113 -2.1794  3.0727  0.9397
   18MOL0     H 2457   3.384   3.600   8.286 -0.0694  1.1696 -0.5406
   18MOL0     H 2458   3.383   3.337   8.132 -1.5142  1.1578 -0.5258
   18MOL0     H 2459   3.349   3.361   8.309  0.9227  0.5910  0.5484
   18MOL0     H 2460   3.572   3.436   8.352 -0.3881  1.1281 -1.0702
   18MOL0     H 2461   3.614   3.447   8.186  1.9981 -1.8454  1.1477
   18MOL0     H 2462   3.546   3.183   8.315  2.4434 -3.4948 -0.5049
   18MOL0     H 2463   3.700   3.257   8.322 -0.9090  1.5291  0.5387
   18MOL0     H 2464   2.770   3.497   8.203 -2.9929  3.4157  4.0078
   18MOL0     H 2465   2.562   3.417   8.282 -0.3003  1.4678  1.1754
   18MOL0     H 2466   2.138   3.295   8.150  0.7028  1.9647 -0.9476
   18MOL0     H 2467   1.901   3.224   8.194 -0.1393 -0.4459  0.2163
   18MOL0     H 2468   1.449   4.767   8.851  0.3692 -0.5374  1.9313
   18MOL0     H 2469   1.268   4.901   8.837  0.2990 -0.5131  3.5828
   18MOL0     H 2470   1.140   5.526   8.983  1.4771 -2.3428 -0.0983
   18MOL0     H 2471   0.905   5.634   8.927 -0.6854 -1.0403  2.1698
   18MOL0     H 2472   0.768   5.692   8.676 -1.8203  1.8116 -3.4635
   18MOL0     H 2473   0.696   5.552   8.592 -0.5071 -1.7025  0.1063
   18MOL0     H 2474   0.542   5.756   8.648  2.4930  2.0656  1.1763
   18MOL0     H 2475   0.559   5.707   8.807 -3.1998  1.3718 -0.6810
   18MOL0     H 2476   0.447   5.541   8.580  1.3961  0.6569  0.0303
   18MOL0     H 2477   0.469   5.464   8.730 -1.3245 -1.7373 -3.7523
   18MOL0     H 2478   0.300   5.727   8.704 -3.0552  0.1236  2.4882
   18MOL0     H 2479   0.309   5.613   8.840 -0.0488  0.9094  0.4330
   18MOL0     H 2480   0.011   5.428   8.642  0.1936 -1.2475  3.8114
   18MOL0     H 2481   0.842   5.319   8.644  1.3147 -0.8710 -1.5830
   18MOL0     H 2482   1.010   5.186   8.554  0.7708  0.1676 -1.7378
   18MOL0     H 2483   1.173   5.226   8.598  0.7921  1.0995  2.6273
   18MOL0     H 2484   1.079   5.120   8.713  0.3648  0.7444 -0.2947
   19MOL0     O 2485   1.805   3.100   7.919  1.2871  0.1878 -0.2665
   19MOL0     C 2486   1.702   3.166   7.932  0.2388 -0.6074 -0.5306
   19MOL0     O 2487   1.694   3.290   7.882  0.2491 -0.6823  0.1065
   19MOL0     C 2488   1.799   3.336   7.807  0.1903 -0.2851 -0.3252
   19MOL0     C 2489   1.784   3.337   7.666 -1.2642 -0.5068  0.6179
   19MOL0     C 2490   1.900   3.368   7.584  0.1553  0.4519  0.7031
   19MOL0     C 2491   2.024   3.390   7.640 -0.0127 -0.5218 -0.5093
   19MOL0     O 2492   2.137   3.407   7.566  0.3849  0.3293  0.3488
   19MOL0     C 2493   2.177   3.292   7.493  0.2721  0.0713 -0.6755
   19MOL0     C 2494   2.245   3.198   7.592  0.2020  0.4757  0.2705
   19MOL0     C 2495   2.386   3.194   7.559  0.0131 -0.3030  0.1801
   19MOL0     C 2496   2.464   3.089   7.643 -0.2024 -0.5498 -0.8004
   19MOL0     C 2497   2.481   3.127   7.796  1.1714 -0.2609  0.0525
   19MOL0     C 2498   2.561   3.029   7.878  0.0238  0.3026  0.4080
   19MOL0     C 2499   2.529   3.019   8.024 -0.7177 -0.7172 -0.4660
   19MOL0     C 2500   2.571   3.137   8.106  0.5711  0.4606 -0.0349
   19MOL0     N 2501   2.712   3.144   8.148  0.5273 -0.1174  0.2368
   19MOL0     C 2502   2.816   3.161   8.066 -0.0613 -1.7079 -0.1708
   19MOL0     C 2503   2.926   3.186   8.145 -0.5248 -0.6963  0.2356
   19MOL0     C 2504   3.061   3.225   8.092 -0.9310  0.3370  0.5003
   19MOL0     C 2505   3.137   3.113   8.012  0.4467 -0.4499 -0.1124
   19MOL0     C 2506   3.284   3.082   8.062 -0.8863  0.4503 -0.1326
   19MOL0     C 2507   3.319   2.941   8.052  0.1996 -0.3091 -0.1936
   19MOL0     O 2508   3.439   2.919   8.127  0.4645  0.5884 -0.3682
   19MOL0     C 2509   3.511   2.808   8.090  0.3730  0.9881  0.7279
   19MOL0     C 2510   3.495   2.682   8.149  0.4591  0.1537  0.2452
   19MOL0     C 2511   3.590   2.577   8.134  0.4232  0.6126  1.0106
   19MOL0     C 2512   3.569   2.457   8.212 -0.8593  0.9230  0.2138
   19MOL0     C 2513   3.694   2.597   8.033  0.9284 -0.2846  0.1532
   19MOL0     C 2514   3.805   2.509   8.008 -0.0443 -0.2761 -0.2649
   19MOL0     O 2515   3.791   2.370   8.018  0.0363 -0.0785 -0.4967
   19MOL0     C 2516   3.907   2.304   8.034 -0.1335  0.3020  0.5948
   19MOL0     C 2517   3.990   2.266   7.923  0.5296 -0.1227  0.3453
   19MOL0     C 2518   4.106   2.194   7.928  0.7452 -0.2108 -0.2144
   19MOL0     C 2519   4.137   2.140   8.048 -0.3121  0.3610  0.6750
   19MOL0     O 2520   4.230   2.045   8.052 -0.1602  0.1977  0.2344
   19MOL0     C 2521   4.291   2.017   8.176  0.3207  0.0940 -0.1647
   19MOL0     C 2522   4.425   1.953   8.151 -0.2176 -0.4288  0.1643
   19MOL0     C 2523   4.479   1.905   8.286  0.3737  0.3760 -0.7187
   19MOL0     C 2524   4.630   1.879   8.279  0.5199 -0.4508  0.2863
   19MOL0     C 2525   4.693   1.768   8.374  0.4616  0.4767  0.3041
   19MOL0     C 2526   4.667   1.811   8.518 -0.2140  0.4041  0.3670
   19MOL0     C 2527   4.716   1.701   8.610 -0.6905  0.8344  1.1030
   19MOL0     C 2528   4.657   1.722   8.750  0.6673  0.5641 -0.8499
   19MOL0    Cl 2529   4.713   1.871   8.833  0.4680  0.0818  0.5101
   19MOL0     C 2530   4.061   2.180   8.164 -0.6482  0.3346 -0.0664
   19MOL0     C 2531   3.946   2.258   8.158 -0.3779  0.0204 -0.4628
   19MOL0     O 2532   3.911   2.564   7.985 -0.5319  0.1614 -0.2369
   19MOL0     C 2533   3.691   2.716   7.963 -0.3588  0.0440 -0.0462
   19MOL0     C 2534   3.609   2.826   7.989  0.3556  0.4119 -0.1048
   19MOL0     N 2535   2.878   3.196   8.277  1.4456 -1.0680  1.0139
   19MOL0     N 2536   2.752   3.160   8.280  0.1476 -0.0292 -0.9026
   19MOL0     C 2537   2.034   3.402   7.777  0.2342 -0.2005 -0.9055
   19MOL0     C 2538   1.922   3.376   7.862 -0.1783  0.8983  0.2304
   19MOL0     C 2539   1.585   3.111   7.997 -0.5882 -0.2902 -0.1447
   19MOL0     C 2540   1.502   3.211   8.048 -0.3655  0.0855 -0.7466
   19MOL0     C 2541   1.372   3.185   8.109  0.2633 -0.2734  0.4182
   19MOL0     C 2542   1.330   3.050   8.105  0.8158 -0.2969 -0.5141
   19MOL0     O 2543   1.208   3.026   8.166 -0.1115  1.1242  0.2232
   19MOL0     C 2544   1.082   3.065   8.098 -1.6055 -0.1862 -0.3621
   19MOL0     C 2545   1.039   2.972   7.986  0.9799 -0.2156  0.0738
   19MOL0     C 2546   0.923   3.025   7.907 -0.1638  0.4275 -0.1812
   19MOL0     C 2547   0.836   2.932   7.823 -0.2938  0.9550  0.3325
   19MOL0     C 2548   0.914   2.837   7.745  0.2309  0.1764 -0.4243
   19MOL0     C 2549   0.988   2.752   7.692 -0.4402  0.1993 -0.1015
   19MOL0     C 2550   1.422   2.951   8.067  0.1884 -0.2986  0.1853
   19MOL0     C 2551   1.541   2.979   8.000 -0.5287  0.2608  0.6656
   19MOL0     C 2552   1.618   2.862   7.944  0.5110 -0.3241  0.2355
   19MOL0     H 2553   1.688   3.310   7.623  0.5879 -1.6544 -3.2393
   19MOL0     H 2554   1.888   3.369   7.476  0.5328  1.0702  0.6634
   19MOL0     H 2555   2.249   3.314   7.413  2.4614  1.0873  1.4380
   19MOL0     H 2556   2.081   3.253   7.457 -1.0122  3.1008 -0.8583
   19MOL0     H 2557   2.247   3.248   7.690  1.0275 -0.3324  0.6771
   19MOL0     H 2558   2.207   3.096   7.604 -0.9790  0.7096 -1.2209
   19MOL0     H 2559   2.401   3.174   7.452  0.6968  3.8033 -0.6972
   19MOL0     H 2560   2.432   3.292   7.578 -1.1232  1.6381 -5.1492
   19MOL0     H 2561   2.423   2.989   7.629 -1.1991 -0.1579 -0.7376
   19MOL0     H 2562   2.567   3.096   7.605 -0.0181  1.7792 -0.0858
   19MOL0     H 2563   2.381   3.135   7.838  1.2480 -0.0905  0.2030
   19MOL0     H 2564   2.523   3.228   7.802 -1.4811  0.8153  2.2705
   19MOL0     H 2565   2.531   2.931   7.839  0.3218 -0.7795  2.7177
   19MOL0     H 2566   2.669   3.022   7.864 -0.0688 -1.3849  0.3389
   19MOL0     H 2567   2.568   2.923   8.060 -2.4546 -1.2629  0.0566
   19MOL0     H 2568   2.422   3.001   8.037 -0.9995  1.6919  1.1115
   19MOL0     H 2569   2.556   3.232   8.055 -1.8787  1.2464  1.9236
   19MOL0     H 2570   2.513   3.132   8.199 -0.0880 -3.8727 -0.4787
   19MOL0     H 2571   2.809   3.162   7.958  1.7165  2.2201 -0.4306
   19MOL0     H 2572   3.125   3.268   8.169  2.8642 -0.2705 -2.0611
   19MOL0     H 2573   3.043   3.302   8.016 -3.8950 -2.9969 -2.5892
   19MOL0     H 2574   3.075   3.023   8.015 -1.7813  1.0038 -0.1300
   19MOL0     H 2575   3.133   3.130   7.904  2.4078  2.9944  0.2224
   19MOL0     H 2576   3.354   3.127   7.992 -2.2010  0.8487 -1.2349
   19MOL0     H 2577   3.300   3.119   8.164 -1.9215  0.3935  0.0663
   19MOL0     H 2578   3.233   2.886   8.090 -0.7305  0.6566 -0.8399
   19MOL0     H 2579   3.335   2.919   7.945 -2.2999 -2.9982 -0.1464
   19MOL0     H 2580   3.412   2.660   8.215 -3.1199  4.8525 -2.1623
   19MOL0     H 2581   3.580   2.370   8.147 -1.0765  0.8625  0.2569
   19MOL0     H 2582   3.481   2.435   8.273 -1.3626 -3.0810 -1.6599
   19MOL0     H 2583   3.656   2.443   8.276 -1.0392 -5.3147 -0.3541
   19MOL0     H 2584   3.955   2.294   7.824  1.1018  0.3916  0.2814
   19MOL0     H 2585   4.163   2.150   7.846 -0.4431  0.6468 -1.5408
   19MOL0     H 2586   4.308   2.111   8.229 -0.4455  0.9346 -1.3684
   19MOL0     H 2587   4.234   1.942   8.231  0.9508 -0.9313 -0.8770
   19MOL0     H 2588   4.424   1.878   8.072  2.8979 -0.6163  0.1735
   19MOL0     H 2589   4.489   2.031   8.110  0.5763 -0.6118  0.9900
   19MOL0     H 2590   4.421   1.813   8.300  0.7147 -0.3097 -3.2918
   19MOL0     H 2591   4.455   1.987   8.354  0.3237  0.6232 -1.0345
   19MOL0     H 2592   4.683   1.974   8.289 -1.1572  0.3038  2.7564
   19MOL0     H 2593   4.664   1.849   8.179  0.6567  1.5925 -0.3297
   19MOL0     H 2594   4.635   1.677   8.357  2.7014 -1.2790  1.4781
   19MOL0     H 2595   4.799   1.752   8.352 -0.0225 -3.8241  0.3137
   19MOL0     H 2596   4.560   1.817   8.535 -0.0360 -0.3009  1.9072
   19MOL0     H 2597   4.713   1.906   8.545  1.0543 -0.5224  1.6398
   19MOL0     H 2598   4.825   1.700   8.620 -0.2036 -3.8147 -1.8889
   19MOL0     H 2599   4.685   1.604   8.570 -0.3926  1.8188 -1.8291
   19MOL0     H 2600   4.691   1.641   8.815  0.6251 -0.1085 -1.6462
   19MOL0     H 2601   4.547   1.725   8.752  0.6013  2.2669  3.2293
   19MOL0     H 2602   4.091   2.137   8.259  0.9033 -1.4956 -1.2911
   19MOL0     H 2603   3.884   2.288   8.241 -2.5187 -1.8702 -1.2789
   19MOL0     H 2604   3.762   2.744   7.886 -3.0106  0.6978 -2.4206
   19MOL0     H 2605   3.624   2.916   7.930  0.0819  2.3466  2.6164
   19MOL0     H 2606   2.128   3.422   7.828 -0.3601  0.3902 -0.0134
   19MOL0     H 2607   1.919   3.381   7.970  0.0954  0.6994  0.2477
   19MOL0     H 2608   1.532   3.316   8.055  0.6193 -0.0493 -2.3226
   19MOL0     H 2609   1.300   3.257   8.148 -0.0582  1.1234 -2.4666
   19MOL0     H 2610   1.012   3.063   8.183  2.8254  0.7322  3.7760
   19MOL0     H 2611   1.088   3.168   8.062 -0.2073  0.1280  0.6682
   19MOL0     H 2612   1.022   2.871   8.025 -0.6170 -0.8630 -2.0556
   19MOL0     H 2613   1.120   2.953   7.915 -0.9905  1.1815 -2.7569
   19MOL0     H 2614   0.853   3.078   7.974 -4.8212 -2.4529 -2.2521
   19MOL0     H 2615   0.969   3.101   7.844  2.3991 -1.0330 -0.1982
   19MOL0     H 2616   0.782   2.983   7.743  0.7825  2.3623  0.4681
   19MOL0     H 2617   0.758   2.877   7.878 -0.1040  1.8387  1.5287
   19MOL0     H 2618   1.045   2.673   7.648  0.5131  1.4511 -1.1868
   19MOL0     H 2619   1.401   2.844   8.071  0.5508 -0.3276  2.7463
   19MOL0     H 2620   1.686   2.836   8.025  0.9247  0.3737  0.1190
   19MOL0     H 2621   1.556   2.777   7.913  1.9427 -0.7833 -1.5205
   19MOL0     H 2622   1.680   2.894   7.860  3.7047 -0.6034  2.3257
   20MOL0     O 2623   7.609   3.133   6.177  0.0564 -0.2078 -0.3740
   20MOL0     C 2624   7.592   3.143   6.300  0.1015 -0.5022 -0.0688
   20MOL0     O 2625   7.621   3.250   6.382 -0.0992 -0.7677  0.5124
   20MOL0     C 2626   7.662   3.371   6.326  0.0477 -0.3074 -0.4703
   20MOL0     C 2627   7.616   3.486   6.394 -0.7550  0.1840  0.0007
   20MOL0     C 2628   7.653   3.611   6.350  0.7317  0.4885  0.2907
   20MOL0     C 2629   7.745   3.627   6.247  0.2695 -0.4545  0.4823
   20MOL0     O 2630   7.790   3.759   6.231  0.1717  0.4913 -0.5486
   20MOL0     C 2631   7.919   3.768   6.169  0.2434 -0.4302 -0.4879
   20MOL0     C 2632   7.984   3.901   6.205 -0.7364 -0.4457 -0.1239
   20MOL0     C 2633   7.909   4.012   6.143 -0.2273  0.3232  0.3987
   20MOL0     C 2634   7.994   4.142   6.141  0.6409  0.1227 -0.5679
   20MOL0     C 2635   7.912   4.259   6.088  0.3505  0.6634  0.8654
   20MOL0     C 2636   7.987   4.387   6.045 -0.4561  0.3641  0.0819
   20MOL0     C 2637   8.082   4.346   5.932  0.2260 -0.1410  0.1390
   20MOL0     C 2638   8.135   4.470   5.867  0.4602 -0.3628 -0.0585
   20MOL0     N 2639   8.241   4.529   5.951 -1.2417 -0.2387  0.3442
   20MOL0     C 2640   8.373   4.512   5.909  0.3568 -0.8502  0.0457
   20MOL0     C 2641   8.438   4.598   5.991  0.3697  0.0918 -0.2425
   20MOL0     C 2642   8.594   4.598   6.004  0.4867 -0.2707  0.2775
   20MOL0     C 2643   8.650   4.748   6.003 -0.3525 -0.8174  0.2376
   20MOL0     C 2644   8.586   4.847   5.908 -0.1062 -0.8415 -0.3213
   20MOL0     C 2645   8.663   4.980   5.910 -0.4546 -0.0591 -0.1757
   20MOL0     O 2646   8.655   5.057   6.035  0.0679  0.2556 -1.3126
   20MOL0     C 2647   8.724   5.169   6.078  0.5775  1.2137  0.3059
   20MOL0     C 2648   8.722   5.213   6.208 -0.1137 -0.6130  0.3443
   20MOL0     C 2649   8.785   5.334   6.247 -0.0564  0.0769  0.5793
   20MOL0     C 2650   8.780   5.372   6.393 -0.2830  0.4821 -0.4052
   20MOL0     C 2651   8.858   5.406   6.145  0.3123  0.3825 -0.5963
   20MOL0     C 2652   8.942   5.524   6.172 -0.4544  0.6490  0.1630
   20MOL0     O 2653   9.064   5.529   6.107  0.3972  0.0877 -0.3853
   20MOL0     C 2654   9.159   5.618   6.150 -0.0929 -0.6907  0.5213
   20MOL0     C 2655   9.136   5.756   6.158  0.2557  0.6998  0.6341
   20MOL0     C 2656   9.237   5.842   6.194  0.1433  0.5556  0.6178
   20MOL0     C 2657   9.366   5.798   6.227 -0.2732 -0.0674  0.7504
   20MOL0     O 2658   9.453   5.887   6.278  1.0396  0.0184  0.3776
   20MOL0     C 2659   9.557   5.840   6.365  0.0019  0.0302  0.1769
   20MOL0     C 2660   9.691   5.841   6.296  0.7974 -0.3058  0.4110
   20MOL0     C 2661   9.712   5.990   6.261  0.2871  0.3315 -0.3776
   20MOL0     C 2662   9.850   5.992   6.194  0.5709 -0.1237  0.0237
   20MOL0     C 2663   9.882   6.133   6.154  0.7684 -0.0842 -0.3488
   20MOL0     C 2664  10.032   6.161   6.114  0.3287 -0.0056 -0.5147
   20MOL0     C 2665  10.048   6.309   6.086  0.2165  0.5997 -0.2470
   20MOL0     C 2666  10.187   6.353   6.048 -0.2855  0.0469  0.9078
   20MOL0    Cl 2667  10.249   6.301   5.890 -0.3815 -0.3287  0.5600
   20MOL0     C 2668   9.395   5.663   6.215 -0.7283  0.2504  0.4437
   20MOL0     C 2669   9.292   5.571   6.174  0.1706 -0.0079  0.5700
   20MOL0     O 2670   8.899   5.610   6.251 -0.1134 -0.3641  0.1048
   20MOL0     C 2671   8.853   5.367   6.017 -0.5377 -0.3429  0.9909
   20MOL0     C 2672   8.787   5.245   5.981 -0.2300 -0.8328  0.6308
   20MOL0     N 2673   8.354   4.662   6.073 -0.0687 -1.0202 -0.4004
   20MOL0     N 2674   8.234   4.608   6.065  0.8988  0.0350 -0.5461
   20MOL0     C 2675   7.795   3.515   6.178 -1.1514  0.6130 -0.5411
   20MOL0     C 2676   7.751   3.391   6.221  0.0899  0.4496 -0.4699
   20MOL0     C 2677   7.545   3.024   6.366 -0.9057  0.1559  1.0071
   20MOL0     C 2678   7.582   2.890   6.313 -0.6998 -1.3080 -0.2516
   20MOL0     C 2679   7.543   2.773   6.374  0.4230 -1.2935  0.0138
   20MOL0     C 2680   7.456   2.784   6.486 -0.4026 -0.1403  0.3633
   20MOL0     O 2681   7.419   2.668   6.549 -0.1353 -0.4565 -0.0704
   20MOL0     C 2682   7.304   2.677   6.634 -0.1259  0.3172  0.1063
   20MOL0     C 2683   7.263   2.533   6.651 -0.2259  0.0797 -0.3547
   20MOL0     C 2684   7.132   2.516   6.722 -0.2314 -0.0451 -0.1850
   20MOL0     C 2685   7.080   2.367   6.724  0.1328  0.1007 -0.7728
   20MOL0     C 2686   6.951   2.364   6.785  0.2385 -0.1810  0.0839
   20MOL0     C 2687   6.841   2.357   6.844  0.3896 -0.5576 -0.0770
   20MOL0     C 2688   7.421   2.904   6.533  0.4339 -1.1410 -0.5022
   20MOL0     C 2689   7.460   3.028   6.474 -0.0742  0.0021 -0.3139
   20MOL0     C 2690   7.421   3.153   6.542  0.4008  0.2728 -0.8259
   20MOL0     H 2691   7.546   3.476   6.476  0.3288 -0.7037  0.8405
   20MOL0     H 2692   7.616   3.697   6.405 -0.3256 -1.6997  3.2791
   20MOL0     H 2693   7.905   3.756   6.061 -0.8724 -1.2403 -0.2702
   20MOL0     H 2694   7.986   3.696   6.216 -0.9507 -0.6101  1.0243
   20MOL0     H 2695   7.966   3.927   6.309 -0.9058  0.6524 -0.4114
   20MOL0     H 2696   8.090   3.883   6.186 -0.4429  1.3338 -0.2654
   20MOL0     H 2697   7.887   3.994   6.037 -0.9504 -0.0065  0.5955
   20MOL0     H 2698   7.810   4.021   6.189 -1.2715  0.2887 -1.7341
   20MOL0     H 2699   8.020   4.161   6.245 -4.8065  0.8912  0.9848
   20MOL0     H 2700   8.083   4.130   6.080 -0.9245  0.2331 -3.0245
   20MOL0     H 2701   7.841   4.279   6.169 -0.4001  0.0083  0.3846
   20MOL0     H 2702   7.854   4.235   5.999  1.7949 -0.0019  0.0764
   20MOL0     H 2703   7.913   4.461   6.014 -3.0734 -1.4406  1.6461
   20MOL0     H 2704   8.043   4.434   6.127  1.3782 -0.5097 -0.6122
   20MOL0     H 2705   8.029   4.282   5.861  0.3457  0.3593 -0.4040
   20MOL0     H 2706   8.174   4.292   5.958  0.2919 -0.9884 -1.6658
   20MOL0     H 2707   8.178   4.453   5.768 -2.8520  0.3933 -1.7692
   20MOL0     H 2708   8.052   4.540   5.850 -1.0518 -2.0814 -0.0649
   20MOL0     H 2709   8.412   4.435   5.842  1.9592 -0.6477  0.6954
   20MOL0     H 2710   8.640   4.554   5.916 -0.6179  0.8731 -0.9209
   20MOL0     H 2711   8.616   4.534   6.090 -0.7989 -0.7996  0.2310
   20MOL0     H 2712   8.636   4.795   6.101 -1.2923  2.0346 -1.1389
   20MOL0     H 2713   8.757   4.738   5.981 -0.6865 -1.3536 -1.2754
   20MOL0     H 2714   8.590   4.808   5.806 -0.3198  0.5818 -0.8841
   20MOL0     H 2715   8.482   4.877   5.923  0.1447  0.5928 -1.2868
   20MOL0     H 2716   8.764   4.953   5.878 -1.0736 -2.8427 -0.1228
   20MOL0     H 2717   8.617   5.032   5.825 -3.6964 -4.0150 -1.1826
   20MOL0     H 2718   8.677   5.151   6.285 -0.3278 -1.7259 -0.6535
   20MOL0     H 2719   8.773   5.279   6.450 -1.7528  0.3692 -0.7322
   20MOL0     H 2720   8.701   5.445   6.415 -0.0189  0.5997  0.1703
   20MOL0     H 2721   8.875   5.418   6.421  1.9173 -2.1632 -2.9750
   20MOL0     H 2722   9.046   5.790   6.107 -0.6176 -4.6636 -2.1402
   20MOL0     H 2723   9.204   5.945   6.190 -4.4910 -0.6115  2.5565
   20MOL0     H 2724   9.559   5.909   6.450 -3.5109 -0.2259  0.6323
   20MOL0     H 2725   9.538   5.741   6.407  0.0796 -0.1506 -0.2044
   20MOL0     H 2726   9.767   5.805   6.366 -0.8901 -1.9552  1.5019
   20MOL0     H 2727   9.694   5.778   6.206  1.9664 -0.8819  0.8261
   20MOL0     H 2728   9.695   6.040   6.357 -1.1288 -0.3520 -0.2451
   20MOL0     H 2729   9.640   6.021   6.184  1.0345  1.6114 -0.5878
   20MOL0     H 2730   9.851   5.918   6.114  1.4241 -1.7932  1.5257
   20MOL0     H 2731   9.926   5.958   6.265  1.4460 -2.6175 -1.9708
   20MOL0     H 2732   9.805   6.178   6.092  1.1154  4.3655  2.0618
   20MOL0     H 2733   9.869   6.190   6.246  0.4617 -0.2215 -0.3078
   20MOL0     H 2734  10.056   6.099   6.028  1.2577 -0.7540  0.2618
   20MOL0     H 2735  10.106   6.129   6.188 -0.6858 -1.9581 -0.2680
   20MOL0     H 2736  10.018   6.372   6.170  0.8488 -2.0924  2.1710
   20MOL0     H 2737   9.990   6.333   5.997 -0.7479  1.7336  0.6551
   20MOL0     H 2738  10.259   6.322   6.124  1.8768  1.9926 -0.2182
   20MOL0     H 2739  10.191   6.461   6.061  0.7997  0.3455 -1.3957
   20MOL0     H 2740   9.499   5.634   6.219 -0.8204  0.0232  1.3592
   20MOL0     H 2741   9.311   5.465   6.174  1.3245  0.1656 -0.6472
   20MOL0     H 2742   8.901   5.429   5.943 -1.4077  1.2853  1.7417
   20MOL0     H 2743   8.784   5.218   5.876  3.6801  0.4020  0.0171
   20MOL0     H 2744   7.867   3.531   6.098  0.0798 -1.0627  0.1562
   20MOL0     H 2745   7.794   3.308   6.167 -1.3734  0.2098 -1.3248
   20MOL0     H 2746   7.648   2.883   6.227  0.0964 -2.7625  0.4586
   20MOL0     H 2747   7.561   2.676   6.327 -0.9242 -1.5933  0.0929
   20MOL0     H 2748   7.319   2.729   6.729 -1.3504  1.4947 -0.3249
   20MOL0     H 2749   7.224   2.740   6.596 -1.4602  1.0584  3.7376
   20MOL0     H 2750   7.344   2.476   6.698 -0.1187 -0.6760 -1.4276
   20MOL0     H 2751   7.254   2.491   6.551  1.4757 -1.2172 -0.0142
   20MOL0     H 2752   7.141   2.538   6.829 -2.4506 -0.6943  0.1966
   20MOL0     H 2753   7.056   2.577   6.674  1.5643  1.9589 -0.6416
   20MOL0     H 2754   7.144   2.302   6.783  1.8005  2.5523  0.2966
   20MOL0     H 2755   7.086   2.321   6.625  0.7058 -4.6634  1.2603
   20MOL0     H 2756   6.749   2.353   6.900  1.4040 -1.4993  1.6390
   20MOL0     H 2757   7.360   2.907   6.623  2.9201  0.4576  1.2796
   20MOL0     H 2758   7.511   3.195   6.589 -0.6998  2.8593 -0.8190
   20MOL0     H 2759   7.391   3.233   6.473  2.3929 -0.2748 -2.4103
   20MOL0     H 2760   7.343   3.136   6.617  3.3948 -3.0874  1.8409
   21MOL0     O 2761   3.073   1.049  10.154 -0.2938  0.1155  0.5161
   21MOL0     C 2762   3.092   0.972  10.060  0.2794 -0.3565  0.0452
   21MOL0     O 2763   3.122   1.010   9.935  0.3006 -0.1462 -0.0864
   21MOL0     C 2764   3.131   1.144   9.910  0.0784 -0.6975 -0.4033
   21MOL0     C 2765   3.045   1.212   9.820  0.1377  0.1513  0.5894
   21MOL0     C 2766   3.063   1.353   9.797  0.0785 -0.6178  1.0632
   21MOL0     C 2767   3.144   1.425   9.876  0.1696 -0.2395 -0.2627
   21MOL0     O 2768   3.128   1.562   9.886 -0.4146 -0.1431 -0.2944
   21MOL0     C 2769   3.215   1.634   9.806  0.7878 -0.8026  0.2156
   21MOL0     C 2770   3.187   1.781   9.842  1.0274 -0.1713  0.9849
   21MOL0     C 2771   3.030   1.796   9.817  0.9241  0.4459 -0.2070
   21MOL0     C 2772   2.983   1.943   9.830 -0.2392 -0.1865  0.0419
   21MOL0     C 2773   2.984   1.999   9.971 -0.9556 -0.2826 -0.3705
   21MOL0     C 2774   2.889   1.927  10.067  0.3390  0.4451 -0.1429
   21MOL0     C 2775   2.890   1.989  10.209  0.7112 -0.7586 -0.1388
   21MOL0     C 2776   3.028   1.984  10.279 -0.1617  0.1850 -0.5252
   21MOL0     N 2777   3.073   1.844  10.317  1.2119  0.1396 -0.6530
   21MOL0     C 2778   3.166   1.764  10.257  0.1708  1.3329 -0.2682
   21MOL0     C 2779   3.143   1.648  10.331 -1.1695  0.1922  0.2161
   21MOL0     C 2780   3.207   1.516  10.304  0.2003  0.3941 -0.9910
   21MOL0     C 2781   3.338   1.496  10.392 -0.5130  0.9053 -0.8758
   21MOL0     C 2782   3.361   1.340  10.442  0.0631 -0.0370  1.0687
   21MOL0     C 2783   3.497   1.332  10.517 -0.7445 -0.3825  0.2776
   21MOL0     O 2784   3.596   1.349  10.412 -0.0539  0.5851 -0.3035
   21MOL0     C 2785   3.724   1.379  10.439 -0.4850 -1.4444 -1.1101
   21MOL0     C 2786   3.798   1.458  10.350  0.2765 -0.5549 -0.3378
   21MOL0     C 2787   3.923   1.504  10.379  0.0088  0.3635 -0.0773
   21MOL0     C 2788   3.995   1.564  10.260  0.4997  0.3529 -0.2066
   21MOL0     C 2789   3.984   1.465  10.500  0.5308  1.1270 -0.5264
   21MOL0     C 2790   4.130   1.506  10.535  0.2138  0.1671 -0.1112
   21MOL0     O 2791   4.173   1.477  10.659  0.0969 -0.6566 -0.6343
   21MOL0     C 2792   4.279   1.539  10.706  0.3639 -0.5207  0.0613
   21MOL0     C 2793   4.263   1.633  10.812 -0.9045 -0.0060 -0.8124
   21MOL0     C 2794   4.382   1.691  10.854  0.2052  0.3441  0.5509
   21MOL0     C 2795   4.501   1.659  10.799 -0.6193 -0.6815 -0.5036
   21MOL0     O 2796   4.610   1.716  10.856 -0.2737 -0.3346 -0.3822
   21MOL0     C 2797   4.726   1.748  10.783  0.5625  0.2889 -0.4552
   21MOL0     C 2798   4.801   1.850  10.864 -1.1882 -0.3495 -0.8517
   21MOL0     C 2799   4.853   1.804  11.003  0.0300  0.2441  0.2852
   21MOL0     C 2800   4.948   1.904  11.072  0.0376 -0.2886 -0.1359
   21MOL0     C 2801   5.072   1.939  10.995 -0.3839  0.1253  0.5241
   21MOL0     C 2802   5.142   1.811  10.965 -1.1759  0.4376 -0.1801
   21MOL0     C 2803   5.282   1.824  10.890 -0.4330  0.3398 -0.1067
   21MOL0     C 2804   5.395   1.883  10.960  0.1908  0.0427  0.5424
   21MOL0    Cl 2805   5.546   1.851  10.857  0.0086  0.2980 -0.1604
   21MOL0     C 2806   4.514   1.566  10.691  0.2020 -0.2809 -0.0324
   21MOL0     C 2807   4.400   1.510  10.646 -0.2361 -1.0333  0.3666
   21MOL0     O 2808   4.187   1.586  10.460  0.7514 -0.0458  0.5300
   21MOL0     C 2809   3.914   1.391  10.593 -0.3321  0.3765  0.3296
   21MOL0     C 2810   3.781   1.358  10.565 -0.0624 -0.5666 -0.5186
   21MOL0     N 2811   3.052   1.657  10.432 -0.1254  0.4762  1.0177
   21MOL0     N 2812   3.014   1.780  10.422 -0.3558  1.0656 -0.2657
   21MOL0     C 2813   3.223   1.356   9.968 -0.4427  0.0099  0.0836
   21MOL0     C 2814   3.224   1.217   9.973 -1.0415 -0.6698 -0.0048
   21MOL0     C 2815   3.096   0.828  10.101  0.0827  0.0503  0.4415
   21MOL0     C 2816   3.105   0.801  10.239  0.1693  0.3961  0.3981
   21MOL0     C 2817   3.069   0.674  10.284 -0.4881  0.2574 -0.5455
   21MOL0     C 2818   3.058   0.563  10.199  0.8664  0.0637  1.0027
   21MOL0     O 2819   3.043   0.433  10.247  0.3615  0.3832 -0.0026
   21MOL0     C 2820   3.018   0.400  10.383 -0.4107 -0.1327 -0.1564
   21MOL0     C 2821   3.153   0.366  10.451 -0.3322  0.6890  0.7516
   21MOL0     C 2822   3.121   0.287  10.582  1.1096  0.0593  0.5764
   21MOL0     C 2823   3.232   0.316  10.679 -0.0853  0.0287  0.3699
   21MOL0     C 2824   3.243   0.217  10.788 -0.4341 -0.1834 -0.6104
   21MOL0     C 2825   3.239   0.137  10.878 -0.7474 -0.8400 -0.1142
   21MOL0     C 2826   3.066   0.586  10.063 -1.1955 -0.1518  0.6270
   21MOL0     C 2827   3.080   0.720  10.010 -0.5886 -0.8334 -0.7762
   21MOL0     C 2828   3.069   0.743   9.862  0.6025  0.3737 -0.2953
   21MOL0     H 2829   2.972   1.146   9.775 -1.8831  2.1065  0.8480
   21MOL0     H 2830   2.995   1.406   9.731  1.2655  1.0179  1.0965
   21MOL0     H 2831   3.192   1.614   9.701 -0.5435 -1.5742  0.6237
   21MOL0     H 2832   3.321   1.614   9.825  0.8052 -0.7079  0.2171
   21MOL0     H 2833   3.202   1.797   9.949 -1.1849  0.6862  1.2310
   21MOL0     H 2834   3.241   1.855   9.782 -1.8383  0.8577 -0.5474
   21MOL0     H 2835   3.005   1.761   9.717  0.0157 -1.2707  0.5819
   21MOL0     H 2836   2.968   1.729   9.877  1.8401 -0.2904 -0.0407
   21MOL0     H 2837   3.043   1.996   9.755 -2.6003 -0.0934 -1.9000
   21MOL0     H 2838   2.893   1.951   9.769  1.3116  1.2998 -2.2055
   21MOL0     H 2839   2.957   2.105   9.965  1.7856  0.7380  2.3522
   21MOL0     H 2840   3.085   1.990  10.012  0.1551 -2.7586 -3.2081
   21MOL0     H 2841   2.791   1.946  10.023  1.6149  0.5672 -3.1461
   21MOL0     H 2842   2.908   1.820  10.075 -0.7297  0.3454  1.7626
   21MOL0     H 2843   2.804   1.947  10.261  0.3171 -0.3430 -0.4413
   21MOL0     H 2844   2.861   2.094  10.198 -0.8856 -1.3022 -1.4596
   21MOL0     H 2845   3.104   2.026  10.212 -0.5625 -0.5931 -1.4895
   21MOL0     H 2846   3.026   2.047  10.369  1.8822 -0.5798  0.1174
   21MOL0     H 2847   3.241   1.776  10.179  0.5817 -0.1972 -0.1352
   21MOL0     H 2848   3.232   1.506  10.198  4.9790 -1.4397  0.0323
   21MOL0     H 2849   3.142   1.432  10.331 -0.2420 -0.2939 -3.8603
   21MOL0     H 2850   3.424   1.513  10.327 -1.2686  2.0613 -1.6059
   21MOL0     H 2851   3.334   1.567  10.475  1.0414  1.2472 -1.0628
   21MOL0     H 2852   3.281   1.307  10.509 -0.1147 -2.9127 -0.4171
   21MOL0     H 2853   3.374   1.261  10.368 -2.0312  0.6215 -0.0819
   21MOL0     H 2854   3.494   1.421  10.580 -0.2248  0.8015 -1.2985
   21MOL0     H 2855   3.515   1.245  10.581  4.2119  0.5238  0.4675
   21MOL0     H 2856   3.742   1.485  10.261  1.5772  1.3457 -0.6426
   21MOL0     H 2857   3.983   1.672  10.268 -1.2058  0.1831 -0.1155
   21MOL0     H 2858   3.954   1.538  10.163  1.1095  3.7986 -1.5319
   21MOL0     H 2859   4.100   1.534  10.255  0.1182 -1.6691  2.0298
   21MOL0     H 2860   4.167   1.650  10.860  1.1592  0.5992  3.6201
   21MOL0     H 2861   4.387   1.761  10.937  2.5398 -0.8342  1.4917
   21MOL0     H 2862   4.786   1.656  10.781 -1.2562 -1.0524  1.7198
   21MOL0     H 2863   4.699   1.804  10.693  0.7867 -0.3869 -0.9547
   21MOL0     H 2864   4.888   1.882  10.807 -2.5311  2.4938 -1.4827
   21MOL0     H 2865   4.733   1.936  10.869 -1.8435 -0.1427 -6.7351
   21MOL0     H 2866   4.887   1.700  11.004 -1.6342 -0.3296  0.2479
   21MOL0     H 2867   4.760   1.796  11.060 -0.8384  0.5914 -1.0337
   21MOL0     H 2868   4.987   1.854  11.161 -0.7382 -0.9752 -0.1716
   21MOL0     H 2869   4.893   1.996  11.095 -3.2398 -2.1542  0.1296
   21MOL0     H 2870   5.040   1.992  10.905 -0.0073 -1.0268 -0.3125
   21MOL0     H 2871   5.139   2.000  11.056  0.8245  1.2141 -1.7389
   21MOL0     H 2872   5.084   1.746  10.898  0.4173  2.7987 -4.2156
   21MOL0     H 2873   5.159   1.772  11.065  0.2593  2.0066  0.2221
   21MOL0     H 2874   5.254   1.883  10.803 -4.2465 -1.8066 -0.5923
   21MOL0     H 2875   5.308   1.724  10.853  0.3322  0.5340 -0.1031
   21MOL0     H 2876   5.401   1.819  11.049  0.0418  0.0900  0.5860
   21MOL0     H 2877   5.385   1.988  10.988 -2.4312  0.3336 -1.1443
   21MOL0     H 2878   4.611   1.544  10.646  0.1273 -1.0929  0.1931
   21MOL0     H 2879   4.399   1.445  10.559 -2.2691 -1.8053  0.9043
   21MOL0     H 2880   3.940   1.375  10.697  0.1924 -1.7516 -0.0887
   21MOL0     H 2881   3.746   1.306  10.654  0.5195 -0.2729 -0.1173
   21MOL0     H 2882   3.277   1.411  10.043  0.0395  0.8890 -0.8836
   21MOL0     H 2883   3.285   1.169  10.048  1.8153  0.5959 -1.3813
   21MOL0     H 2884   3.123   0.892  10.296 -0.8116  2.3913 -2.2401
   21MOL0     H 2885   3.075   0.658  10.391  0.6231 -1.3522 -0.8104
   21MOL0     H 2886   2.971   0.487  10.430 -0.0865  0.7715 -1.4384
   21MOL0     H 2887   2.950   0.315  10.391 -1.2410  0.5873  0.8556
   21MOL0     H 2888   3.209   0.458  10.471  1.8335 -0.2055 -0.7331
   21MOL0     H 2889   3.223   0.312  10.386 -1.2681  2.1385 -1.5848
   21MOL0     H 2890   3.024   0.312  10.625  0.1745 -0.9336 -0.8631
   21MOL0     H 2891   3.116   0.179  10.563 -2.0714  0.1787  0.1956
   21MOL0     H 2892   3.238   0.417  10.719 -0.2709  0.1779  0.0209
   21MOL0     H 2893   3.328   0.307  10.627 -0.0102 -1.2843  0.6863
   21MOL0     H 2894   3.256   0.082  10.968 -0.8313 -3.1673 -1.4306
   21MOL0     H 2895   3.057   0.502   9.994  1.7159  1.7427 -2.3854
   21MOL0     H 2896   3.162   0.788   9.827 -0.2306  1.6739 -0.9223
   21MOL0     H 2897   3.047   0.654   9.802 -0.8335  2.7865 -3.7192
   21MOL0     H 2898   2.989   0.818   9.855  0.4778  0.4301  1.4381
   22MOL0     O 2899   9.177   6.677   0.417  0.5930 -0.3118  0.7839
   22MOL0     C 2900   9.152   6.567   0.371  0.2098  0.4198  0.2012
   22MOL0     O 2901   9.246   6.467   0.346  0.4954 -0.6813 -0.6967
   22MOL0     C 2902   9.382   6.503   0.344 -0.3372 -0.2151  0.0801
   22MOL0     C 2903   9.474   6.403   0.382  0.7335  0.6133 -0.5058
   22MOL0     C 2904   9.612   6.431   0.381 -0.0083 -0.4940 -0.5250
   22MOL0     C 2905   9.656   6.550   0.330  0.4138  0.0365  1.0858
   22MOL0     O 2906   9.797   6.561   0.331 -0.2197 -0.0654  0.4842
   22MOL0     C 2907   9.852   6.691   0.353 -0.2424 -0.7338 -0.3751
   22MOL0     C 2908   9.999   6.661   0.375 -0.1741 -0.1198  0.6159
   22MOL0     C 2909  10.073   6.799   0.356 -0.2788 -0.3268  1.1567
   22MOL0     C 2910  10.226   6.778   0.327 -0.1653  0.0038 -0.6837
   22MOL0     C 2911  10.295   6.908   0.306 -1.5140 -0.0040 -0.9046
   22MOL0     C 2912  10.444   6.899   0.252  0.7078  0.5761 -0.0105
   22MOL0     C 2913  10.546   6.861   0.358 -0.0798  0.3143  0.1432
   22MOL0     C 2914  10.684   6.872   0.306  0.0180 -0.1387  0.3701
   22MOL0     N 2915  10.724   7.017   0.285  0.3288 -0.1135  0.1047
   22MOL0     C 2916  10.704   7.104   0.177 -0.5184  0.5667  0.3715
   22MOL0     C 2917  10.757   7.223   0.222  0.7670 -0.8098  0.7201
   22MOL0     C 2918  10.768   7.341   0.121 -0.6243  0.0606  0.0149
   22MOL0     C 2919  10.903   7.409   0.122  0.0601  0.4696  0.1808
   22MOL0     C 2920  10.905   7.538   0.031  0.0096  0.3033  0.3575
   22MOL0     C 2921  11.035   7.555  -0.038 -0.9872  1.1172  0.2865
   22MOL0     O 2922  11.026   7.662  -0.127 -0.1078 -0.1938  0.6747
   22MOL0     C 2923  11.134   7.701  -0.205 -0.2493  0.6094 -0.1203
   22MOL0     C 2924  11.105   7.785  -0.304  0.0737  0.0256  0.3534
   22MOL0     C 2925  11.206   7.821  -0.402  0.1891 -0.4331 -0.4734
   22MOL0     C 2926  11.165   7.911  -0.519  0.0858  0.2214 -0.1276
   22MOL0     C 2927  11.345   7.773  -0.386 -0.0416  0.1998 -0.2030
   22MOL0     C 2928  11.452   7.793  -0.484  0.1564 -0.4949 -0.0597
   22MOL0     O 2929  11.533   7.695  -0.481 -0.3617  0.3165  0.3260
   22MOL0     C 2930  11.644   7.704  -0.562  0.3257  0.5290 -0.1145
   22MOL0     C 2931  11.675   7.603  -0.652  0.0575 -0.7105 -0.4276
   22MOL0     C 2932  11.789   7.603  -0.732 -0.2228 -0.9364  0.5107
   22MOL0     C 2933  11.878   7.709  -0.730 -0.6603  0.5139  0.4081
   22MOL0     O 2934  11.982   7.709  -0.823  0.3177 -0.7881 -0.0888
   22MOL0     C 2935  12.088   7.807  -0.846 -0.3078 -0.8422  1.0266
   22MOL0     C 2936  12.234   7.748  -0.842  0.9874 -0.4302 -0.3583
   22MOL0     C 2937  12.255   7.643  -0.733 -0.6318 -0.8675  0.4073
   22MOL0     C 2938  12.263   7.697  -0.593  0.7011 -0.1411  0.0397
   22MOL0     C 2939  12.326   7.580  -0.504  0.5210  0.7920  0.3280
   22MOL0     C 2940  12.365   7.606  -0.353 -0.5005  0.0798 -0.2080
   22MOL0     C 2941  12.470   7.706  -0.341  0.1779  1.4546  0.1514
   22MOL0     C 2942  12.598   7.668  -0.418 -0.0423 -0.4683 -1.1285
   22MOL0    Cl 2943  12.650   7.508  -0.341 -0.3078 -0.0180  0.1139
   22MOL0     C 2944  11.851   7.813  -0.636  0.6509 -0.4508  0.2036
   22MOL0     C 2945  11.738   7.808  -0.551  0.4871 -0.8451 -0.8571
   22MOL0     O 2946  11.463   7.890  -0.547 -0.5596 -0.4938  0.2754
   22MOL0     C 2947  11.374   7.686  -0.280 -0.4092 -0.5978  0.1997
   22MOL0     C 2948  11.266   7.652  -0.191  0.0114 -0.0274 -0.2172
   22MOL0     N 2949  10.789   7.209   0.355 -0.3315  0.2866  0.4086
   22MOL0     N 2950  10.766   7.089   0.388  0.2101  0.5522 -0.1644
   22MOL0     C 2951   9.566   6.655   0.298 -0.0269  0.2173 -0.3477
   22MOL0     C 2952   9.433   6.631   0.306  0.8065  0.3384  0.1077
   22MOL0     C 2953   9.006   6.532   0.342  0.8760  0.2639 -0.3099
   22MOL0     C 2954   8.980   6.393   0.313 -0.3444 -0.4954 -0.3741
   22MOL0     C 2955   8.856   6.352   0.267  0.6445 -0.5654 -0.0867
   22MOL0     C 2956   8.749   6.446   0.252  0.0357  1.3077  0.4002
   22MOL0     O 2957   8.618   6.401   0.219  0.3958  0.6822 -0.5470
   22MOL0     C 2958   8.531   6.339   0.325 -0.6036 -0.2307 -0.8325
   22MOL0     C 2959   8.422   6.262   0.249 -0.5793  0.6062 -0.3514
   22MOL0     C 2960   8.330   6.350   0.147  0.0651  0.1759 -0.4741
   22MOL0     C 2961   8.225   6.276   0.063  0.1992  0.0442 -0.5129
   22MOL0     C 2962   8.295   6.176  -0.017 -0.6145 -0.4114 -0.3642
   22MOL0     C 2963   8.338   6.080  -0.075  0.4059 -0.4599 -0.3231
   22MOL0     C 2964   8.773   6.577   0.269  0.3679 -1.0455  0.4319
   22MOL0     C 2965   8.898   6.622   0.319  0.6500 -1.2044 -0.2305
   22MOL0     C 2966   8.915   6.772   0.348 -0.2098 -0.5431  0.4318
   22MOL0     H 2967   9.438   6.303   0.406 -0.1362  0.7252 -1.2781
   22MOL0     H 2968   9.690   6.363   0.412  0.2779  0.4240  0.8424
   22MOL0     H 2969   9.811   6.744   0.440  0.2138 -3.3511  1.5524
   22MOL0     H 2970   9.841   6.763   0.272  0.7656  2.7167  2.2743
   22MOL0     H 2971  10.031   6.610   0.466 -1.3910 -0.6148  0.7725
   22MOL0     H 2972  10.017   6.601   0.285  0.3771  0.6156  0.2188
   22MOL0     H 2973  10.044   6.840   0.259 -1.1061  0.2332  1.6304
   22MOL0     H 2974  10.049   6.873   0.432  0.9525  0.0190  1.2302
   22MOL0     H 2975  10.272   6.724   0.410 -0.0657 -0.0869 -0.7988
   22MOL0     H 2976  10.237   6.723   0.234  0.6491  2.0784 -1.8864
   22MOL0     H 2977  10.296   6.946   0.409  0.4933  1.7450 -1.5080
   22MOL0     H 2978  10.241   6.983   0.248 -3.0370  1.3380  2.0360
   22MOL0     H 2979  10.444   6.829   0.167 -1.7942  0.0309  0.3840
   22MOL0     H 2980  10.463   7.002   0.217 -2.3988  1.1443 -0.2486
   22MOL0     H 2981  10.528   6.758   0.393  3.7414 -0.7962 -0.6791
   22MOL0     H 2982  10.533   6.925   0.446 -1.3150  1.9670 -1.1910
   22MOL0     H 2983  10.763   6.829   0.368  0.1510 -1.5306 -0.7145
   22MOL0     H 2984  10.693   6.824   0.208  0.6677 -0.9870  0.8342
   22MOL0     H 2985  10.673   7.093   0.074 -3.5075  1.4164  1.0993
   22MOL0     H 2986  10.680   7.406   0.129  0.2209  1.2636 -0.2847
   22MOL0     H 2987  10.758   7.300   0.020  1.2119 -0.7770  0.1395
   22MOL0     H 2988  10.925   7.453   0.220  1.1155  0.4735 -0.0494
   22MOL0     H 2989  10.972   7.330   0.092 -0.8242 -0.0463 -0.5606
   22MOL0     H 2990  10.838   7.539  -0.056  2.4743  0.4131 -1.6525
   22MOL0     H 2991  10.878   7.634   0.076 -1.2846  2.3812 -4.2157
   22MOL0     H 2992  11.115   7.571   0.035  1.7078 -0.3130 -2.1269
   22MOL0     H 2993  11.063   7.462  -0.088 -1.0019 -0.1320  2.5035
   22MOL0     H 2994  11.004   7.823  -0.311  0.9235  2.0851 -4.3689
   22MOL0     H 2995  11.244   7.913  -0.595 -1.2500  2.0820 -1.5626
   22MOL0     H 2996  11.139   8.011  -0.481 -3.7390 -1.2569  1.7038
   22MOL0     H 2997  11.070   7.877  -0.560  0.6341 -0.4350 -0.8763
   22MOL0     H 2998  11.599   7.527  -0.668 -1.8079  1.3237 -1.6459
   22MOL0     H 2999  11.821   7.518  -0.791 -0.4443 -0.2854 -0.5635
   22MOL0     H 3000  12.078   7.844  -0.949  1.0321 -1.2061  0.7412
   22MOL0     H 3001  12.074   7.890  -0.776 -1.4729 -1.2115  1.2486
   22MOL0     H 3002  12.238   7.686  -0.932  3.8776  0.3232 -0.8627
   22MOL0     H 3003  12.318   7.817  -0.859 -1.8277  2.6586 -3.2401
   22MOL0     H 3004  12.350   7.593  -0.754 -1.1458 -1.4281 -0.6560
   22MOL0     H 3005  12.185   7.559  -0.735  1.2096 -2.4909  0.4475
   22MOL0     H 3006  12.167   7.737  -0.559  1.2459 -0.4103  1.9923
   22MOL0     H 3007  12.329   7.784  -0.587 -0.4704  0.7112  1.6117
   22MOL0     H 3008  12.249   7.503  -0.495  1.3203 -0.9662 -4.8698
   22MOL0     H 3009  12.408   7.539  -0.563 -1.0829  1.8500 -2.8525
   22MOL0     H 3010  12.407   7.515  -0.308  1.7081  0.8650 -0.5419
   22MOL0     H 3011  12.274   7.637  -0.302 -0.8857  2.2629 -2.0398
   22MOL0     H 3012  12.494   7.714  -0.235 -0.7377  1.6874  0.3453
   22MOL0     H 3013  12.432   7.805  -0.368 -0.1425  1.2362 -0.2109
   22MOL0     H 3014  12.664   7.748  -0.384  0.5053 -2.4127  3.1100
   22MOL0     H 3015  12.579   7.673  -0.525 -1.2274  1.6491 -0.8699
   22MOL0     H 3016  11.928   7.889  -0.634 -1.5526  1.9596 -1.0669
   22MOL0     H 3017  11.709   7.885  -0.480  1.2850 -1.0355 -0.3180
   22MOL0     H 3018  11.474   7.651  -0.255  1.4339  4.0955  0.3765
   22MOL0     H 3019  11.283   7.584  -0.108 -0.1285 -1.1462 -1.0691
   22MOL0     H 3020   9.593   6.751   0.258 -2.6387  1.1244 -0.1542
   22MOL0     H 3021   9.371   6.715   0.276 -0.8812 -0.6247  0.7105
   22MOL0     H 3022   9.060   6.319   0.320 -0.0925 -0.5256 -2.9026
   22MOL0     H 3023   8.836   6.246   0.251 -2.5434 -0.1582  0.4051
   22MOL0     H 3024   8.588   6.268   0.386 -0.3267 -0.8680 -1.8121
   22MOL0     H 3025   8.490   6.415   0.392  0.8243  1.2138 -1.5329
   22MOL0     H 3026   8.367   6.203   0.323 -0.3804  1.4083  0.4423
   22MOL0     H 3027   8.471   6.184   0.190  0.3480  0.3212  0.7625
   22MOL0     H 3028   8.272   6.419   0.209  0.8903  0.8551 -0.4356
   22MOL0     H 3029   8.389   6.418   0.085 -0.9132  1.6009  0.1102
   22MOL0     H 3030   8.170   6.344  -0.004  2.1737  0.3072 -1.9473
   22MOL0     H 3031   8.149   6.218   0.117  0.7689 -2.1656 -1.9313
   22MOL0     H 3032   8.383   6.002  -0.133  1.6717  0.1673 -0.2098
   22MOL0     H 3033   8.697   6.653   0.258  1.2292 -0.0288  1.2832
   22MOL0     H 3034   8.967   6.828   0.269 -1.5282  0.0319 -0.0488
   22MOL0     H 3035   8.813   6.811   0.345  0.0143  0.0126 -1.7677
   22MOL0     H 3036   8.959   6.803   0.443  0.4486 -0.7748  0.2139
   23MOL0     O 3037   3.903  10.390  10.728  0.2277  0.1440  0.3466
   23MOL0     C 3038   3.897  10.269  10.714  0.4733 -0.1747 -0.0076
   23MOL0     O 3039   4.009  10.191  10.691  0.5489 -0.0533  0.6725
   23MOL0     C 3040   4.134  10.242  10.670 -0.0833  1.2779 -0.4143
   23MOL0     C 3041   4.236  10.220  10.761 -0.3160 -0.4468 -0.6027
   23MOL0     C 3042   4.361  10.262  10.725 -0.2570 -0.8810 -0.5260
   23MOL0     C 3043   4.390  10.330  10.609  0.5122 -0.5115 -0.0372
   23MOL0     O 3044   4.518  10.368  10.575 -0.3540 -0.2538 -0.1860
   23MOL0     C 3045   4.578  10.299  10.471 -0.3987 -0.1445  0.0452
   23MOL0     C 3046   4.634  10.165  10.525  0.5212  0.3395 -0.2643
   23MOL0     C 3047   4.748  10.159  10.624 -0.3451 -0.0522  0.5394
   23MOL0     C 3048   4.882  10.220  10.564 -0.6341  0.7500  0.8679
   23MOL0     C 3049   4.990  10.246  10.666 -0.0123 -0.5871 -1.1408
   23MOL0     C 3050   5.112  10.307  10.603  0.5448  0.1650 -0.2929
   23MOL0     C 3051   5.222  10.328  10.714 -0.3345 -0.2019  0.6457
   23MOL0     C 3052   5.352  10.366  10.639 -0.5452  0.6882 -0.0828
   23MOL0     N 3053   5.381  10.506  10.605  0.3058 -0.3208 -0.4033
   23MOL0     C 3054   5.423  10.605  10.695 -0.7990  0.1877 -0.5923
   23MOL0     C 3055   5.461  10.709  10.620  0.8370 -0.3225  0.2482
   23MOL0     C 3056   5.504  10.832  10.689 -0.0230  1.0196 -0.9743
   23MOL0     C 3057   5.617  10.892  10.616 -0.2086 -0.2156 -0.3693
   23MOL0     C 3058   5.740  10.798  10.575  0.6345 -0.0685 -0.4764
   23MOL0     C 3059   5.804  10.716  10.682  0.3782 -0.1195 -0.6168
   23MOL0     O 3060   5.916  10.644  10.640 -0.2098 -0.1807  0.7811
   23MOL0     C 3061   6.030  10.713  10.627 -0.8788  0.2410 -0.0384
   23MOL0     C 3062   6.084  10.743  10.501 -0.0775  0.1995  0.4030
   23MOL0     C 3063   6.208  10.811  10.489 -0.2141 -0.5570 -0.7827
   23MOL0     C 3064   6.251  10.873  10.356 -0.0503 -0.3191  0.0725
   23MOL0     C 3065   6.286  10.837  10.607 -0.5688  0.8836 -0.2518
   23MOL0     C 3066   6.403  10.914  10.610  0.7686  1.0685 -0.3739
   23MOL0     O 3067   6.508  10.884  10.529  0.2990 -0.1237  0.0068
   23MOL0     C 3068   6.624  10.958  10.552  0.4101  0.5302  0.7913
   23MOL0     C 3069   6.689  10.945  10.674  0.5010 -0.9276 -0.2080
   23MOL0     C 3070   6.800  11.032  10.696 -0.3944 -0.1988  0.4980
   23MOL0     C 3071   6.841  11.120  10.599  0.4156 -0.2581  0.4042
   23MOL0     O 3072   6.953  11.195  10.631  0.4896  0.0363 -0.4988
   23MOL0     C 3073   7.005  11.275  10.530  0.0755  0.7314  1.3097
   23MOL0     C 3074   7.143  11.351  10.573  1.1426 -0.0836  0.4371
   23MOL0     C 3075   7.255  11.255  10.587  0.5679  0.4895 -0.2607
   23MOL0     C 3076   7.383  11.333  10.591 -0.2488 -0.0952 -0.1205
   23MOL0     C 3077   7.486  11.223  10.649 -0.3147 -0.2451  0.1999
   23MOL0     C 3078   7.541  11.122  10.546 -0.7841  0.0884  0.4838
   23MOL0     C 3079   7.688  11.074  10.581 -0.6440 -0.4420 -0.1365
   23MOL0     C 3080   7.746  10.994  10.475 -0.9987  0.5750 -0.4756
   23MOL0    Cl 3081   7.926  10.955  10.501 -0.1625  0.1746 -0.1784
   23MOL0     C 3082   6.778  11.125  10.475 -0.2668  0.9892 -0.5529
   23MOL0     C 3083   6.666  11.044  10.452 -0.2498  0.0354 -0.3949
   23MOL0     O 3084   6.396  11.010  10.679 -0.2166  0.3434  0.3160
   23MOL0     C 3085   6.234  10.790  10.724  0.5062 -0.1864 -0.2968
   23MOL0     C 3086   6.110  10.728  10.738 -0.1395  0.3190 -1.6408
   23MOL0     N 3087   5.438  10.681  10.482  0.2805 -0.8993  0.3451
   23MOL0     N 3088   5.388  10.556  10.478  0.0878 -0.5382  0.6792
   23MOL0     C 3089   4.280  10.356  10.523  0.7728  0.1447  0.0797
   23MOL0     C 3090   4.153  10.307  10.555  0.0390  0.1961  0.0441
   23MOL0     C 3091   3.765  10.198  10.734  0.1110  1.0726 -1.5154
   23MOL0     C 3092   3.767  10.073  10.793 -0.0142 -0.1222  0.0455
   23MOL0     C 3093   3.644  10.013  10.833  0.5045 -0.6979 -0.4086
   23MOL0     C 3094   3.524  10.080  10.833 -0.0422 -0.0949  1.1637
   23MOL0     O 3095   3.417  10.027  10.900  0.3116 -0.0826 -0.3667
   23MOL0     C 3096   3.310   9.989  10.813 -0.3158  0.0692 -0.7977
   23MOL0     C 3097   3.342   9.870  10.736  1.0343  0.8007 -0.0133
   23MOL0     C 3098   3.350   9.742  10.820 -0.6406 -0.8293 -0.4419
   23MOL0     C 3099   3.426   9.621  10.751 -0.6318 -0.8608 -0.4949
   23MOL0     C 3100   3.355   9.579  10.628 -1.0129  0.4253 -0.4809
   23MOL0     C 3101   3.300   9.526  10.535  0.2645 -1.0161 -0.2013
   23MOL0     C 3102   3.520  10.202  10.764 -0.2240 -0.5534 -0.3637
   23MOL0     C 3103   3.635  10.263  10.730 -0.3858  1.1139 -0.3685
   23MOL0     C 3104   3.614  10.388  10.642 -0.0644  1.0415 -0.7064
   23MOL0     H 3105   4.225  10.178  10.860 -1.5682  2.0545  0.4091
   23MOL0     H 3106   4.442  10.259  10.797 -3.0547  3.4545  3.3342
   23MOL0     H 3107   4.663  10.345  10.420 -0.1085 -0.1622  0.5053
   23MOL0     H 3108   4.501  10.270  10.400 -1.4618 -1.8706  1.8106
   23MOL0     H 3109   4.547  10.114  10.567 -0.3766  1.2921 -0.9169
   23MOL0     H 3110   4.670  10.112  10.436 -0.9482 -0.5957 -0.3324
   23MOL0     H 3111   4.712  10.222  10.706 -2.1452 -0.3387  0.0139
   23MOL0     H 3112   4.765  10.060  10.669  1.0913  0.4117  1.0945
   23MOL0     H 3113   4.911  10.135  10.501 -4.0036 -2.7822  3.6173
   23MOL0     H 3114   4.870  10.313  10.507 -1.1527  0.8275  1.0936
   23MOL0     H 3115   5.023  10.151  10.709 -1.5394 -1.0378 -0.8758
   23MOL0     H 3116   4.953  10.309  10.747 -0.3119 -2.1512 -0.0200
   23MOL0     H 3117   5.154  10.235  10.533 -0.0759 -2.1269  1.5482
   23MOL0     H 3118   5.102  10.405  10.555  0.5246  0.6457  0.6617
   23MOL0     H 3119   5.238  10.231  10.763 -0.2168 -1.6965 -2.1227
   23MOL0     H 3120   5.186  10.405  10.783 -0.5934 -1.4030  1.8975
   23MOL0     H 3121   5.432  10.343  10.710  2.0653 -0.6485 -3.2130
   23MOL0     H 3122   5.376  10.299  10.556  1.8086  1.1048  0.2027
   23MOL0     H 3123   5.430  10.601  10.803 -0.9978 -2.2591 -0.6028
   23MOL0     H 3124   5.539  10.815  10.791  3.4521 -1.6221 -2.4132
   23MOL0     H 3125   5.420  10.903  10.694 -0.1682  0.8394 -0.8801
   23MOL0     H 3126   5.586  10.937  10.521  4.0604  0.4791 -1.6332
   23MOL0     H 3127   5.655  10.972  10.680 -0.8051  0.4213 -0.7932
   23MOL0     H 3128   5.693  10.729  10.505 -1.1277 -0.2758  0.8393
   23MOL0     H 3129   5.807  10.855  10.510  0.3445  1.1077  0.2380
   23MOL0     H 3130   5.821  10.775  10.773  0.1758 -3.4656  1.7911
   23MOL0     H 3131   5.730  10.643  10.716  1.1926 -0.6936 -0.0475
   23MOL0     H 3132   6.008  10.726  10.425  1.1978 -0.5735 -0.7448
   23MOL0     H 3133   6.347  10.844  10.312  0.8430  2.0382  0.3037
   23MOL0     H 3134   6.275  10.978  10.376  0.9889 -0.0249 -2.4001
   23MOL0     H 3135   6.167  10.873  10.286 -0.1493  1.5675  0.1461
   23MOL0     H 3136   6.670  10.866  10.746 -0.1262 -1.1618 -0.6230
   23MOL0     H 3137   6.862  11.023  10.784 -0.9317  0.9276  1.0101
   23MOL0     H 3138   7.027  11.210  10.445 -0.8622  0.4561  1.2683
   23MOL0     H 3139   6.944  11.361  10.500  2.4340  2.8287  2.0845
   23MOL0     H 3140   7.163  11.416  10.488 -2.2133 -0.9318 -1.1542
   23MOL0     H 3141   7.133  11.409  10.666 -0.5673 -0.9037  0.8003
   23MOL0     H 3142   7.260  11.186  10.503  0.6245 -0.3040  0.3827
   23MOL0     H 3143   7.240  11.201  10.681 -0.6347  0.8170 -0.2391
   23MOL0     H 3144   7.362  11.421  10.653  0.8357  0.6049 -0.7098
   23MOL0     H 3145   7.411  11.371  10.492 -0.2366  0.1501 -0.0231
   23MOL0     H 3146   7.570  11.278  10.693 -1.5066  2.0144 -0.1619
   23MOL0     H 3147   7.441  11.166  10.731  0.3597  0.9380  1.4506
   23MOL0     H 3148   7.549  11.167  10.447  3.9775 -0.9029  0.2035
   23MOL0     H 3149   7.475  11.035  10.533  2.9106 -2.9227 -0.1034
   23MOL0     H 3150   7.695  11.017  10.674  1.9109 -1.8419 -1.0706
   23MOL0     H 3151   7.746  11.164  10.602 -2.4729  1.1157 -1.4203
   23MOL0     H 3152   7.737  11.061  10.390  1.4408 -0.0329 -1.3133
   23MOL0     H 3153   7.678  10.909  10.468 -1.5873  1.0067 -0.0729
   23MOL0     H 3154   6.807  11.190  10.393 -0.1333  0.2489 -1.1048
   23MOL0     H 3155   6.605  11.051  10.362  0.5103  3.6110 -0.7456
   23MOL0     H 3156   6.291  10.820  10.811  0.2770  2.2365 -0.9275
   23MOL0     H 3157   6.067  10.705  10.835 -0.4192 -1.2176 -2.1026
   23MOL0     H 3158   4.303  10.399  10.426  1.1290  1.9215  0.9259
   23MOL0     H 3159   4.070  10.317  10.486  0.6678  0.7699 -0.6478
   23MOL0     H 3160   3.859  10.020  10.814 -0.2019 -0.6247 -0.3751
   23MOL0     H 3161   3.631   9.912  10.871 -2.6861 -0.8487 -1.6255
   23MOL0     H 3162   3.219   9.986  10.873  1.8936 -1.9487  2.7955
   23MOL0     H 3163   3.286  10.066  10.739 -1.8454 -0.2682 -0.6962
   23MOL0     H 3164   3.425   9.878  10.665  0.2244 -0.6468 -1.1843
   23MOL0     H 3165   3.252   9.855  10.676 -0.5879  1.8645  2.0437
   23MOL0     H 3166   3.409   9.767  10.908 -1.1734 -2.0287  0.2910
   23MOL0     H 3167   3.244   9.721  10.838 -0.7682 -1.2775 -1.6128
   23MOL0     H 3168   3.418   9.537  10.820 -0.9558 -0.9763 -0.6706
   23MOL0     H 3169   3.531   9.645  10.734 -0.4628 -1.2582 -0.0313
   23MOL0     H 3170   3.252   9.478  10.452 -1.6790 -0.4970  0.5735
   23MOL0     H 3171   3.433  10.267  10.770  1.0384  1.0602  1.6810
   23MOL0     H 3172   3.509  10.404  10.613 -1.0929 -0.7075  1.6596
   23MOL0     H 3173   3.640  10.480  10.695 -1.0402  0.3142  1.1311
   23MOL0     H 3174   3.672  10.374  10.551  1.8209  1.1514  0.4351
   24MOL0     O 3175   4.944   0.939   9.087  0.0442 -0.2520  0.1798
   24MOL0     C 3176   4.843   0.992   9.114 -0.4716 -0.0505 -0.2588
   24MOL0     O 3177   4.837   1.122   9.163  0.5447  0.0295 -0.8202
   24MOL0     C 3178   4.960   1.184   9.181 -0.8576 -0.0686 -0.5400
   24MOL0     C 3179   5.030   1.234   9.070 -0.2376  0.0412  0.3182
   24MOL0     C 3180   5.159   1.290   9.079 -0.3221 -0.0049  0.2431
   24MOL0     C 3181   5.213   1.316   9.201  0.0283 -0.3610  0.3985
   24MOL0     O 3182   5.338   1.367   9.200 -0.4706 -0.2251  0.1008
   24MOL0     C 3183   5.356   1.487   9.283 -0.1068 -0.1403  1.0757
   24MOL0     C 3184   5.406   1.601   9.185  0.2923  0.1158  0.1839
   24MOL0     C 3185   5.550   1.592   9.132  1.1478  0.2492  0.3932
   24MOL0     C 3186   5.643   1.665   9.222  0.3210 -0.7175 -0.3558
   24MOL0     C 3187   5.784   1.614   9.199  0.2072  0.0562  0.2332
   24MOL0     C 3188   5.864   1.700   9.288 -1.3585 -0.8011  0.0674
   24MOL0     C 3189   6.014   1.666   9.297 -0.8215 -0.6924  0.4713
   24MOL0     C 3190   6.082   1.682   9.154 -0.3476  0.9347 -0.9692
   24MOL0     N 3191   6.221   1.638   9.164 -0.0414  0.0632 -0.7640
   24MOL0     C 3192   6.307   1.620   9.053  0.4542 -0.2757  0.0910
   24MOL0     C 3193   6.418   1.578   9.110 -0.3058  1.0540  0.4005
   24MOL0     C 3194   6.542   1.542   9.039 -0.3828  0.5055 -0.0810
   24MOL0     C 3195   6.643   1.648   9.075  0.0319  0.1985  0.5154
   24MOL0     C 3196   6.775   1.603   9.008  0.6106  0.7525 -0.0234
   24MOL0     C 3197   6.890   1.685   9.044 -0.0013  0.1706 -0.1910
   24MOL0     O 3198   6.917   1.665   9.181 -0.7040 -0.7295 -0.2164
   24MOL0     C 3199   7.029   1.725   9.236  0.2911 -0.6533  0.5285
   24MOL0     C 3200   7.049   1.726   9.371 -0.0298  0.3810 -0.7298
   24MOL0     C 3201   7.166   1.773   9.433  0.1544  0.0750  0.3206
   24MOL0     C 3202   7.175   1.782   9.585  0.4506  1.2701 -0.0564
   24MOL0     C 3203   7.268   1.819   9.358 -0.1130 -0.3948  0.5866
   24MOL0     C 3204   7.398   1.873   9.406 -0.0334 -1.0129 -0.0378
   24MOL0     O 3205   7.436   1.859   9.539  0.5168 -0.3912 -0.9080
   24MOL0     C 3206   7.553   1.931   9.567 -0.3136 -1.1126  0.5477
   24MOL0     C 3207   7.562   2.063   9.616  0.4292  0.0390 -0.2943
   24MOL0     C 3208   7.687   2.131   9.641 -0.5248  0.6075  0.2356
   24MOL0     C 3209   7.799   2.063   9.614  0.0424 -0.8181 -0.7646
   24MOL0     O 3210   7.929   2.122   9.631  0.1505 -0.0536 -0.2606
   24MOL0     C 3211   7.950   2.222   9.736  0.5378  0.2218  0.6077
   24MOL0     C 3212   8.077   2.207   9.816  0.1559  0.0124 -0.4708
   24MOL0     C 3213   8.207   2.258   9.747 -0.1061  0.1567 -0.9686
   24MOL0     C 3214   8.240   2.157   9.636 -0.6967 -0.3543 -0.1342
   24MOL0     C 3215   8.347   2.209   9.537  0.2515  0.4086 -0.0230
   24MOL0     C 3216   8.482   2.235   9.605  0.1110  0.3774 -0.3789
   24MOL0     C 3217   8.580   2.302   9.515 -0.4552  0.2813  0.8801
   24MOL0     C 3218   8.720   2.309   9.578  0.0124  0.0270  0.0333
   24MOL0    Cl 3219   8.764   2.448   9.676  0.1442  0.1835 -0.6148
   24MOL0     C 3220   7.799   1.940   9.559  1.0260  0.1444  0.3566
   24MOL0     C 3221   7.673   1.873   9.539  0.6149 -0.6225 -0.0209
   24MOL0     O 3222   7.466   1.929   9.321 -0.0482  0.5042 -1.0935
   24MOL0     C 3223   7.254   1.814   9.214  0.9431  0.2576  0.4543
   24MOL0     C 3224   7.134   1.777   9.151  0.3325  0.3544 -0.4118
   24MOL0     N 3225   6.397   1.563   9.247  0.2607 -0.3787  0.7623
   24MOL0     N 3226   6.290   1.621   9.280 -0.3054  0.7713  0.3957
   24MOL0     C 3227   5.138   1.279   9.316  0.2346  0.2107  0.6621
   24MOL0     C 3228   5.015   1.212   9.305  0.4654  0.8334 -0.8746
   24MOL0     C 3229   4.719   0.926   9.079 -0.5449 -0.0665  0.4660
   24MOL0     C 3230   4.606   1.009   9.068 -0.3032 -0.4163  1.3771
   24MOL0     C 3231   4.488   0.956   9.016  0.9229 -0.0773  0.0844
   24MOL0     C 3232   4.472   0.824   8.982 -0.0282 -0.9504 -0.6522
   24MOL0     O 3233   4.347   0.792   8.938 -0.1576  0.5056  0.1384
   24MOL0     C 3234   4.318   0.659   8.920 -0.1329  0.4060 -0.0208
   24MOL0     C 3235   4.169   0.624   8.896  0.3939 -0.3702 -0.0016
   24MOL0     C 3236   4.082   0.631   9.028  0.3916  0.1520  0.0429
   24MOL0     C 3237   4.016   0.767   9.045 -0.6705 -0.0308  0.4711
   24MOL0     C 3238   3.902   0.784   8.962  1.0595  0.4258 -1.1524
   24MOL0     C 3239   3.797   0.791   8.903  0.1751 -0.2126  0.3382
   24MOL0     C 3240   4.576   0.738   9.001  0.2476 -0.1566 -0.1018
   24MOL0     C 3241   4.702   0.790   9.040  0.1214  0.4460 -0.1600
   24MOL0     C 3242   4.814   0.687   9.040 -0.8494 -0.1151 -0.7205
   24MOL0     H 3243   4.990   1.212   8.972 -0.9426  0.4609  0.5107
   24MOL0     H 3244   5.210   1.312   8.985 -0.5716  0.2475  0.1634
   24MOL0     H 3245   5.414   1.462   9.372 -0.8747 -2.8718  0.9012
   24MOL0     H 3246   5.266   1.532   9.325  0.6284  0.3918  2.1075
   24MOL0     H 3247   5.348   1.583   9.094 -1.9643 -1.3763  1.8065
   24MOL0     H 3248   5.380   1.700   9.223 -0.9306  0.1314 -0.6293
   24MOL0     H 3249   5.565   1.485   9.115 -2.9434 -0.2645 -1.0446
   24MOL0     H 3250   5.552   1.626   9.028  0.5702 -0.0542  0.2769
   24MOL0     H 3251   5.635   1.771   9.200 -1.7876 -1.4188 -3.7818
   24MOL0     H 3252   5.617   1.658   9.328  0.7108 -3.0084 -0.3559
   24MOL0     H 3253   5.819   1.622   9.095 -1.2873 -0.3982 -0.3309
   24MOL0     H 3254   5.798   1.508   9.223 -0.7730  0.0588  0.8628
   24MOL0     H 3255   5.853   1.805   9.261  1.5717 -0.6187 -0.7495
   24MOL0     H 3256   5.825   1.677   9.387  1.1152 -3.2084  0.6223
   24MOL0     H 3257   6.034   1.572   9.350  0.3050 -0.2712  0.8247
   24MOL0     H 3258   6.061   1.736   9.366 -0.5049 -0.9719  0.5483
   24MOL0     H 3259   6.035   1.620   9.078 -1.2869  0.0815  0.2778
   24MOL0     H 3260   6.069   1.786   9.120 -0.9289  0.9056 -0.8370
   24MOL0     H 3261   6.294   1.636   8.947  3.4372 -1.9610 -0.6286
   24MOL0     H 3262   6.527   1.542   8.930  0.1051  0.2378 -0.1523
   24MOL0     H 3263   6.571   1.443   9.076  0.1571  0.4010 -0.7584
   24MOL0     H 3264   6.627   1.750   9.038 -0.2136 -0.1292 -0.2803
   24MOL0     H 3265   6.655   1.654   9.184  2.8252 -1.2877  0.3669
   24MOL0     H 3266   6.797   1.496   9.021 -1.6341  0.1908 -0.3396
   24MOL0     H 3267   6.752   1.612   8.901  1.2534 -1.0451 -0.3448
   24MOL0     H 3268   6.971   1.656   8.977  0.1212  0.2717 -0.0863
   24MOL0     H 3269   6.868   1.789   9.019 -0.2672  0.4810  1.2240
   24MOL0     H 3270   6.967   1.685   9.430  2.7135 -2.3689  1.4888
   24MOL0     H 3271   7.248   1.711   9.626 -0.8364  0.9216  1.7828
   24MOL0     H 3272   7.080   1.748   9.628  0.1560 -0.8883 -2.2090
   24MOL0     H 3273   7.207   1.879   9.625  1.1707  0.6069  1.0581
   24MOL0     H 3274   7.471   2.119   9.634  0.2990 -0.5922  1.1279
   24MOL0     H 3275   7.691   2.228   9.690  0.8752  0.7322 -0.0819
   24MOL0     H 3276   7.948   2.321   9.690  0.7026  1.0612  2.3249
   24MOL0     H 3277   7.870   2.216   9.811  0.6113 -0.0467  0.6692
   24MOL0     H 3278   8.055   2.271   9.902 -5.0216  0.3826 -1.7286
   24MOL0     H 3279   8.086   2.102   9.847  1.6212  0.1298 -0.3973
   24MOL0     H 3280   8.288   2.265   9.820 -0.4280  1.0485 -0.6752
   24MOL0     H 3281   8.201   2.359   9.704  0.1005  0.4432 -0.3412
   24MOL0     H 3282   8.156   2.136   9.569  0.1402 -0.2696 -1.2379
   24MOL0     H 3283   8.277   2.065   9.680 -0.8890 -0.7122 -0.7022
   24MOL0     H 3284   8.373   2.143   9.453  2.6220  1.5491 -0.2555
   24MOL0     H 3285   8.311   2.303   9.496  1.9417  1.3724  0.5944
   24MOL0     H 3286   8.523   2.142   9.645 -1.9578 -0.7948 -0.8445
   24MOL0     H 3287   8.478   2.309   9.686  0.6636  0.6925 -0.6341
   24MOL0     H 3288   8.553   2.406   9.495  2.2875  1.2022  1.5036
   24MOL0     H 3289   8.587   2.247   9.421 -3.7491 -0.8940  1.1847
   24MOL0     H 3290   8.791   2.305   9.495  0.5591 -0.3537  0.5079
   24MOL0     H 3291   8.742   2.212   9.624  2.7293 -0.2659 -1.7107
   24MOL0     H 3292   7.895   1.896   9.536  0.0369 -3.1846  1.9379
   24MOL0     H 3293   7.677   1.787   9.473 -2.5454 -1.3514  0.5821
   24MOL0     H 3294   7.335   1.837   9.145  0.1689  3.1301  0.4052
   24MOL0     H 3295   7.120   1.776   9.043  0.7291 -0.6089 -0.4706
   24MOL0     H 3296   5.194   1.292   9.408 -0.0392  0.9927  0.7302
   24MOL0     H 3297   4.961   1.176   9.392  0.0713  2.4536 -0.4140
   24MOL0     H 3298   4.617   1.114   9.090  1.7940  0.3703 -2.4937
   24MOL0     H 3299   4.402   1.020   9.002  0.1782 -1.1323 -0.2626
   24MOL0     H 3300   4.378   0.627   8.834  0.3206  2.5471 -0.5502
   24MOL0     H 3301   4.342   0.588   9.000 -1.0109 -3.4521 -2.8970
   24MOL0     H 3302   4.168   0.525   8.850  2.2132 -0.6438  0.4646
   24MOL0     H 3303   4.139   0.697   8.820  0.5746  1.8689  1.9663
   24MOL0     H 3304   4.008   0.551   9.031  0.6676 -0.0866  1.4198
   24MOL0     H 3305   4.158   0.628   9.107  2.5140 -3.0127 -1.8862
   24MOL0     H 3306   4.085   0.848   9.018 -2.3191  1.1201 -0.4661
   24MOL0     H 3307   4.001   0.785   9.152  1.0468 -0.3000  0.7903
   24MOL0     H 3308   3.699   0.794   8.859 -0.5602 -0.7047  1.8491
   24MOL0     H 3309   4.573   0.635   8.968  1.0055 -0.3107  0.2872
   24MOL0     H 3310   4.892   0.707   8.966 -1.5601 -1.0107 -1.7492
   24MOL0     H 3311   4.854   0.684   9.142 -2.1911 -1.0743 -0.1964
   24MOL0     H 3312   4.769   0.588   9.024  1.4139 -1.4711  0.6869
   25MOL0     O 3313   3.198   5.909   4.836 -0.3564  0.5613  0.1068
   25MOL0     C 3314   3.184   5.812   4.919  0.1424  0.4350 -0.7147
   25MOL0     O 3315   3.281   5.772   5.009 -0.1430  0.1767 -0.7828
   25MOL0     C 3316   3.383   5.857   5.039 -0.0423  0.1995  0.4984
   25MOL0     C 3317   3.505   5.831   4.967  0.0380  0.9700 -1.1440
   25MOL0     C 3318   3.610   5.915   4.989 -0.3634 -0.1374  0.8541
   25MOL0     C 3319   3.616   6.025   5.073 -0.7022 -0.5321  0.2159
   25MOL0     O 3320   3.738   6.095   5.081 -0.0213  0.2056 -0.2667
   25MOL0     C 3321   3.765   6.131   5.216 -0.8267 -0.2590 -0.4274
   25MOL0     C 3322   3.906   6.189   5.221 -0.8526 -0.0510  0.1726
   25MOL0     C 3323   3.945   6.239   5.360  0.3069  0.2146  0.1841
   25MOL0     C 3324   4.078   6.310   5.342  0.6516  0.7237 -0.2225
   25MOL0     C 3325   4.149   6.322   5.471 -0.2094 -0.1611 -0.3065
   25MOL0     C 3326   4.298   6.346   5.450 -0.4509 -0.2915 -0.5927
   25MOL0     C 3327   4.373   6.389   5.582  0.0472 -0.0370  0.6278
   25MOL0     C 3328   4.527   6.401   5.560  0.2514  0.5673 -0.0839
   25MOL0     N 3329   4.553   6.505   5.464  1.3088  0.3902  0.3636
   25MOL0     C 3330   4.507   6.639   5.478  0.3951 -0.3697 -0.1839
   25MOL0     C 3331   4.488   6.679   5.351 -0.8204  0.6357  0.3077
   25MOL0     C 3332   4.406   6.803   5.319  0.0641 -0.0329  0.1464
   25MOL0     C 3333   4.256   6.768   5.338  0.3206  0.3773  0.1003
   25MOL0     C 3334   4.168   6.887   5.334  0.5062  0.1523 -0.5162
   25MOL0     C 3335   4.141   6.936   5.193 -0.6477 -0.1363  0.3238
   25MOL0     O 3336   4.046   7.042   5.206  0.7684  0.7023  0.7470
   25MOL0     C 3337   3.917   7.016   5.157  0.3496  0.8542  0.1288
   25MOL0     C 3338   3.876   6.945   5.041  0.0145 -0.1048 -0.0787
   25MOL0     C 3339   3.741   6.932   4.998 -0.2712  0.7424  0.1403
   25MOL0     C 3340   3.714   6.845   4.878  0.0089  0.1228 -0.2816
   25MOL0     C 3341   3.639   6.988   5.079 -0.0608  0.1119 -0.0782
   25MOL0     C 3342   3.494   6.980   5.047 -0.7789 -0.4395  0.5762
   25MOL0     O 3343   3.443   7.010   4.925  0.1691 -0.6958 -0.1676
   25MOL0     C 3344   3.326   6.948   4.899  1.3318  0.3341  0.0256
   25MOL0     C 3345   3.216   7.030   4.878  0.2326 -0.1390 -0.3745
   25MOL0     C 3346   3.098   6.970   4.835 -0.6278 -0.2669 -0.0899
   25MOL0     C 3347   3.105   6.833   4.789 -1.1482 -0.3538  0.1777
   25MOL0     O 3348   2.989   6.790   4.735  0.3008 -0.2562  0.3351
   25MOL0     C 3349   2.978   6.660   4.674 -0.3387 -1.0830 -0.2595
   25MOL0     C 3350   2.841   6.631   4.608  0.8720 -0.5150 -0.4399
   25MOL0     C 3351   2.801   6.738   4.499  0.4148  0.1639  0.4230
   25MOL0     C 3352   2.665   6.696   4.434  0.1241  0.0023  0.0148
   25MOL0     C 3353   2.652   6.765   4.301  0.8235 -0.3729 -0.0213
   25MOL0     C 3354   2.506   6.740   4.261 -0.8487 -0.3291  0.3126
   25MOL0     C 3355   2.455   6.801   4.129 -0.6768  0.0522 -0.4715
   25MOL0     C 3356   2.503   6.949   4.101  0.6308 -0.8069  0.0383
   25MOL0    Cl 3357   2.451   7.052   4.228  0.2926  0.3141  0.0604
   25MOL0     C 3358   3.218   6.756   4.811  0.4614  0.4976  0.4072
   25MOL0     C 3359   3.329   6.805   4.870 -0.3081  0.0968  0.0866
   25MOL0     O 3360   3.439   6.928   5.144 -0.3455 -0.5918 -0.1970
   25MOL0     C 3361   3.674   7.063   5.189 -0.0762 -0.3357  0.5779
   25MOL0     C 3362   3.809   7.073   5.226  0.5083  0.2851 -1.0191
   25MOL0     N 3363   4.546   6.591   5.260  0.2245 -0.1583  0.0445
   25MOL0     N 3364   4.580   6.484   5.333  0.0721 -0.9384  0.8020
   25MOL0     C 3365   3.501   6.040   5.150 -0.6662 -0.0323  0.1340
   25MOL0     C 3366   3.388   5.957   5.133  0.5969  0.6932 -0.7873
   25MOL0     C 3367   3.067   5.728   4.910  0.3915 -0.5149  0.7507
   25MOL0     C 3368   3.068   5.616   4.991  0.3456 -0.2795 -0.4417
   25MOL0     C 3369   2.957   5.527   5.005 -0.1880  0.1694 -0.3431
   25MOL0     C 3370   2.843   5.545   4.932 -0.5803 -0.0856 -0.0591
   25MOL0     O 3371   2.733   5.470   4.929  0.2203  0.3532  0.0712
   25MOL0     C 3372   2.759   5.335   4.885  1.0925 -0.3542  0.0679
   25MOL0     C 3373   2.625   5.269   4.843  0.0714 -0.3681 -0.2227
   25MOL0     C 3374   2.551   5.329   4.727 -0.2744  0.2507  0.6052
   25MOL0     C 3375   2.406   5.271   4.720 -0.0741  1.2728 -0.0825
   25MOL0     C 3376   2.340   5.319   4.593  0.6313 -0.3195  0.4725
   25MOL0     C 3377   2.291   5.372   4.494  0.1904  0.1696  0.4535
   25MOL0     C 3378   2.842   5.656   4.858  0.1085  0.3754  0.4189
   25MOL0     C 3379   2.944   5.744   4.831 -0.3761 -0.5771  0.4715
   25MOL0     C 3380   2.909   5.864   4.752  0.4307 -0.4937  0.1823
   25MOL0     H 3381   3.514   5.747   4.899  1.9923 -0.8013  1.1187
   25MOL0     H 3382   3.696   5.874   4.939  0.3749  1.6071  0.5972
   25MOL0     H 3383   3.756   6.057   5.296  2.0930  1.6579  1.9036
   25MOL0     H 3384   3.697   6.207   5.255 -0.4131  1.1888 -2.3632
   25MOL0     H 3385   3.973   6.112   5.182 -0.7280  1.7358 -3.5851
   25MOL0     H 3386   3.912   6.274   5.153 -3.4832 -0.6257 -0.9133
   25MOL0     H 3387   3.871   6.314   5.388 -0.2095 -0.0968 -0.3249
   25MOL0     H 3388   3.951   6.161   5.437 -1.9110 -0.8134 -0.6056
   25MOL0     H 3389   4.131   6.240   5.277 -0.5338 -2.2335  1.7972
   25MOL0     H 3390   4.064   6.403   5.287 -0.8802  0.6543  0.0238
   25MOL0     H 3391   4.137   6.234   5.536  0.1944  1.4686  2.0831
   25MOL0     H 3392   4.102   6.402   5.529  2.7421  0.0387  2.0572
   25MOL0     H 3393   4.337   6.247   5.426  0.8054 -0.5942  2.2539
   25MOL0     H 3394   4.325   6.410   5.365  0.1302 -0.2444 -0.3777
   25MOL0     H 3395   4.350   6.302   5.644 -0.0255 -0.0925  0.5235
   25MOL0     H 3396   4.331   6.477   5.633  0.4800 -0.2300  1.3375
   25MOL0     H 3397   4.577   6.431   5.653 -1.1166  2.7165  0.0341
   25MOL0     H 3398   4.574   6.310   5.522  4.6400  2.8884 -0.9040
   25MOL0     H 3399   4.469   6.677   5.572  3.5307  1.1359  0.6316
   25MOL0     H 3400   4.427   6.818   5.212  0.1548 -0.5720  0.0836
   25MOL0     H 3401   4.432   6.885   5.386 -2.7263 -0.3869  1.8312
   25MOL0     H 3402   4.226   6.683   5.277  2.5316 -0.5352  0.1775
   25MOL0     H 3403   4.261   6.734   5.442 -4.3169  0.4306  0.5498
   25MOL0     H 3404   4.075   6.861   5.386  2.3971 -0.2814  2.9347
   25MOL0     H 3405   4.216   6.965   5.393  1.7553 -0.6685 -0.4225
   25MOL0     H 3406   4.230   6.973   5.141 -0.7430 -0.7395 -0.2876
   25MOL0     H 3407   4.108   6.853   5.129  0.9134 -1.9750  1.7767
   25MOL0     H 3408   3.947   6.893   4.976  0.3322  1.5395 -1.1027
   25MOL0     H 3409   3.676   6.916   4.804  0.3553 -0.2944 -0.8567
   25MOL0     H 3410   3.641   6.771   4.912  1.1620  0.6029  3.8775
   25MOL0     H 3411   3.803   6.798   4.836 -0.2561 -2.2492  1.5846
   25MOL0     H 3412   3.215   7.131   4.917  1.1854  0.3934 -1.6760
   25MOL0     H 3413   3.012   7.036   4.826 -1.3229 -1.0421  0.7642
   25MOL0     H 3414   3.065   6.646   4.609 -0.2317  0.6849 -0.5522
   25MOL0     H 3415   2.988   6.585   4.752  2.5003 -0.8691 -0.3018
   25MOL0     H 3416   2.839   6.527   4.574  0.4557 -1.0241  1.0383
   25MOL0     H 3417   2.760   6.644   4.681 -1.1341 -2.3529 -2.1787
   25MOL0     H 3418   2.881   6.750   4.425  2.4496  0.6969  2.5784
   25MOL0     H 3419   2.787   6.832   4.553 -0.5322 -0.4376  1.2567
   25MOL0     H 3420   2.581   6.716   4.501  0.0011 -0.6358  0.0644
   25MOL0     H 3421   2.662   6.588   4.415 -0.8545  0.3961 -2.4093
   25MOL0     H 3422   2.669   6.873   4.303 -0.2036 -0.1947 -0.0104
   25MOL0     H 3423   2.721   6.711   4.236 -0.9544 -2.5052 -0.2731
   25MOL0     H 3424   2.443   6.773   4.344 -0.1291  2.8530 -0.2731
   25MOL0     H 3425   2.486   6.633   4.248 -1.6080 -0.0781 -0.7293
   25MOL0     H 3426   2.346   6.797   4.128 -0.7452  0.3525  1.2929
   25MOL0     H 3427   2.492   6.741   4.046  0.1180  0.7665 -0.6565
   25MOL0     H 3428   2.447   7.001   4.023  1.2572 -0.0788  0.0611
   25MOL0     H 3429   2.607   6.951   4.066  0.8869 -1.0975  0.7818
   25MOL0     H 3430   3.212   6.655   4.772 -1.1990  0.8221 -0.2459
   25MOL0     H 3431   3.412   6.735   4.876 -1.1800 -0.9476  0.2696
   25MOL0     H 3432   3.594   7.097   5.254 -1.1756  0.2047 -1.0005
   25MOL0     H 3433   3.823   7.132   5.316 -0.6288 -0.9032 -0.0181
   25MOL0     H 3434   3.496   6.113   5.230  1.2145  0.3557 -0.0744
   25MOL0     H 3435   3.306   5.975   5.203  1.0465  0.5974 -0.2337
   25MOL0     H 3436   3.159   5.594   5.045 -1.4224  0.3710  3.1196
   25MOL0     H 3437   2.968   5.437   5.065  1.1691  0.3747 -0.2623
   25MOL0     H 3438   2.827   5.330   4.799  2.1396  0.7060  0.7894
   25MOL0     H 3439   2.806   5.289   4.972 -0.2807  1.2281  1.7462
   25MOL0     H 3440   2.564   5.255   4.933  0.0690 -1.1970 -0.3407
   25MOL0     H 3441   2.651   5.168   4.809  1.2273 -0.0085 -0.4529
   25MOL0     H 3442   2.533   5.437   4.737  1.2463  0.3653  2.6243
   25MOL0     H 3443   2.604   5.309   4.633 -0.4826  1.1759  0.2800
   25MOL0     H 3444   2.352   5.308   4.807  0.4026  2.2118 -0.1739
   25MOL0     H 3445   2.417   5.162   4.720 -2.9283  0.8996 -1.2386
   25MOL0     H 3446   2.252   5.427   4.410 -2.9101 -0.0109  1.6217
   25MOL0     H 3447   2.747   5.657   4.805  0.4292 -3.2965 -0.5028
   25MOL0     H 3448   2.800   5.862   4.742  0.5023  1.0842 -1.3262
   25MOL0     H 3449   2.946   5.961   4.788 -0.0174 -0.8679  1.7269
   25MOL0     H 3450   2.952   5.849   4.653  1.1391  3.5788 -0.2951
   26MOL0     O 3451   5.853   7.201   0.818 -0.5399 -0.4037 -0.1218
   26MOL0     C 3452   5.904   7.123   0.736  0.5392 -0.0709 -1.1091
   26MOL0     O 3453   5.831   7.039   0.651  0.3398 -0.0724  0.0549
   26MOL0     C 3454   5.696   7.038   0.647 -0.3497  0.4844 -0.1492
   26MOL0     C 3455   5.619   7.154   0.678  0.6564 -0.6712 -0.5968
   26MOL0     C 3456   5.472   7.142   0.658 -0.2111 -0.2277 -0.0832
   26MOL0     C 3457   5.408   7.022   0.610 -0.2807 -0.2267 -0.4298
   26MOL0     O 3458   5.271   7.022   0.580 -0.1869 -0.1016  0.2373
   26MOL0     C 3459   5.231   6.947   0.464 -0.2425  0.2969 -0.7605
   26MOL0     C 3460   5.075   6.955   0.471 -0.0677  0.5796  0.2175
   26MOL0     C 3461   5.023   7.092   0.439  0.3770 -0.4795 -0.1647
   26MOL0     C 3462   4.870   7.078   0.414  0.5383 -0.7960  0.8126
   26MOL0     C 3463   4.811   7.207   0.363 -0.0578 -0.8544  0.1428
   26MOL0     C 3464   4.656   7.224   0.372  0.0794 -0.4842  0.0927
   26MOL0     C 3465   4.617   7.363   0.321  0.3341  0.1055  0.1283
   26MOL0     C 3466   4.611   7.359   0.172 -0.4035 -0.2912  0.7685
   26MOL0     N 3467   4.578   7.488   0.114  0.9458  0.6480  0.3034
   26MOL0     C 3468   4.451   7.552   0.102  0.3056 -0.5101 -0.0080
   26MOL0     C 3469   4.485   7.680   0.054 -0.6883  0.5718 -0.6755
   26MOL0     C 3470   4.388   7.793   0.034  0.6450  0.6349  0.2576
   26MOL0     C 3471   4.327   7.814   0.182 -0.6001  0.7137 -0.0629
   26MOL0     C 3472   4.435   7.851   0.288  0.3051 -1.1336 -0.1543
   26MOL0     C 3473   4.377   7.843   0.426 -0.1855  0.1495 -1.0460
   26MOL0     O 3474   4.359   7.700   0.456  0.3254 -0.2313  0.0414
   26MOL0     C 3475   4.443   7.626   0.529  0.1675 -0.7286 -0.5719
   26MOL0     C 3476   4.570   7.658   0.562  0.2660 -0.8460  0.0999
   26MOL0     C 3477   4.652   7.566   0.635  0.1757  0.1376  0.4792
   26MOL0     C 3478   4.794   7.614   0.666  0.1717  0.8816  0.7292
   26MOL0     C 3479   4.592   7.441   0.675 -0.5845  0.4894 -0.3226
   26MOL0     C 3480   4.680   7.342   0.748 -0.9604  0.0053  0.3018
   26MOL0     O 3481   4.658   7.206   0.738 -0.1958 -0.2341 -0.2704
   26MOL0     C 3482   4.739   7.115   0.796  0.7636 -0.9446 -0.6054
   26MOL0     C 3483   4.680   7.004   0.858 -0.9976  0.7066 -1.3693
   26MOL0     C 3484   4.747   6.906   0.926  0.1351  1.0087  0.0032
   26MOL0     C 3485   4.886   6.912   0.934  0.4920 -0.3372  0.3071
   26MOL0     O 3486   4.963   6.827   1.009  0.4727 -0.1700 -0.4369
   26MOL0     C 3487   4.932   6.838   1.150 -0.0009  0.4193 -0.3388
   26MOL0     C 3488   4.946   6.979   1.208 -0.4359  0.8237  0.0436
   26MOL0     C 3489   4.912   6.968   1.347 -0.3314 -0.0091 -0.7190
   26MOL0     C 3490   4.946   7.103   1.415  0.7002  0.0116 -0.1365
   26MOL0     C 3491   4.933   7.077   1.569 -1.0982 -0.7993  0.0310
   26MOL0     C 3492   4.957   7.187   1.671  0.5824  0.1113 -0.7413
   26MOL0     C 3493   5.103   7.235   1.688 -0.3859  0.2346  0.1441
   26MOL0     C 3494   5.132   7.356   1.777  0.4207 -0.5638 -0.1463
   26MOL0    Cl 3495   5.038   7.512   1.739  0.0349 -0.0530  0.0219
   26MOL0     C 3496   4.947   7.014   0.866  0.4019  1.0263 -0.4673
   26MOL0     C 3497   4.875   7.109   0.790 -0.7430  0.1748 -0.3890
   26MOL0     O 3498   4.762   7.388   0.833  0.2982  0.7084  0.2872
   26MOL0     C 3499   4.460   7.411   0.641  0.1133 -0.9462 -0.0774
   26MOL0     C 3500   4.388   7.512   0.571  0.0586  0.5505  0.1071
   26MOL0     N 3501   4.622   7.682   0.034  0.4115  0.5071 -0.1694
   26MOL0     N 3502   4.675   7.568   0.059  0.1850  0.4533  0.3069
   26MOL0     C 3503   5.487   6.909   0.588  0.2271 -0.1032 -0.6124
   26MOL0     C 3504   5.627   6.916   0.607  0.8333 -0.0244 -0.2330
   26MOL0     C 3505   6.052   7.104   0.746 -0.1748  0.0485 -0.6450
   26MOL0     C 3506   6.090   6.974   0.715  0.5014  0.3641  0.3192
   26MOL0     C 3507   6.219   6.944   0.735 -0.0134  0.2530 -0.0959
   26MOL0     C 3508   6.306   7.032   0.796  0.1497 -0.1916 -0.5304
   26MOL0     O 3509   6.428   6.984   0.837  0.5108 -0.1754 -0.0231
   26MOL0     C 3510   6.518   7.066   0.908 -0.1872  0.1249  0.2529
   26MOL0     C 3511   6.653   6.980   0.910  1.6859 -0.0961  0.5981
   26MOL0     C 3512   6.714   6.970   0.763 -0.3733  0.1471  0.9039
   26MOL0     C 3513   6.665   6.840   0.691 -0.2437  0.5895 -0.3214
   26MOL0     C 3514   6.733   6.714   0.739 -0.2860  0.7824  0.6888
   26MOL0     C 3515   6.787   6.605   0.757 -0.4839  0.0415 -0.4513
   26MOL0     C 3516   6.270   7.168   0.816  0.6554 -0.4107  0.9357
   26MOL0     C 3517   6.144   7.210   0.779 -0.9514 -0.1261  0.3485
   26MOL0     C 3518   6.112   7.358   0.788 -0.0145  0.5330 -0.0602
   26MOL0     H 3519   5.647   7.255   0.704 -4.0651  1.3900 -2.4217
   26MOL0     H 3520   5.401   7.220   0.687 -0.3642  0.0015 -1.0311
   26MOL0     H 3521   5.259   6.841   0.463  0.3871  0.4560 -1.9087
   26MOL0     H 3522   5.262   6.996   0.370  0.5828  1.7786  0.2398
   26MOL0     H 3523   5.047   6.887   0.389 -3.0608  1.0157  0.7720
   26MOL0     H 3524   5.041   6.909   0.564 -2.1257 -1.6999 -1.5220
   26MOL0     H 3525   5.041   7.167   0.516 -2.4518  2.0381 -1.7268
   26MOL0     H 3526   5.073   7.127   0.348  0.4635  1.3694  0.5642
   26MOL0     H 3527   4.851   6.995   0.346 -0.4166 -1.4831  1.8840
   26MOL0     H 3528   4.827   7.051   0.511 -1.1615 -2.2742 -0.2963
   26MOL0     H 3529   4.829   7.223   0.256 -1.4819  2.1432  0.2440
   26MOL0     H 3530   4.853   7.289   0.422  0.8090 -0.1426 -1.4054
   26MOL0     H 3531   4.614   7.138   0.320 -0.0147  1.1952 -2.8105
   26MOL0     H 3532   4.624   7.221   0.477  2.8492 -1.4181  1.0038
   26MOL0     H 3533   4.684   7.436   0.368 -1.0425  0.9286  0.8639
   26MOL0     H 3534   4.514   7.393   0.344  1.1336  3.7011 -0.3838
   26MOL0     H 3535   4.710   7.333   0.132 -0.7665  0.3071 -0.5321
   26MOL0     H 3536   4.533   7.295   0.131 -2.2264  1.4196  1.4222
   26MOL0     H 3537   4.351   7.527   0.135  0.0498  0.1551 -0.2661
   26MOL0     H 3538   4.320   7.772  -0.049  1.2156  2.2649 -0.6705
   26MOL0     H 3539   4.442   7.884   0.007  1.7341  0.0150  0.2914
   26MOL0     H 3540   4.242   7.882   0.189 -1.2978 -0.2643  1.8851
   26MOL0     H 3541   4.287   7.718   0.216 -2.4397  1.1363 -0.9013
   26MOL0     H 3542   4.521   7.786   0.272 -1.3053 -2.9764 -1.8048
   26MOL0     H 3543   4.459   7.957   0.272 -4.2130 -0.0088 -0.9268
   26MOL0     H 3544   4.450   7.886   0.495  0.1144  1.9967 -2.4524
   26MOL0     H 3545   4.281   7.894   0.438 -2.1058 -3.3961  0.4922
   26MOL0     H 3546   4.613   7.748   0.519  1.4842 -0.4550  2.0115
   26MOL0     H 3547   4.864   7.537   0.633 -1.8926  0.1248 -2.3026
   26MOL0     H 3548   4.813   7.621   0.774  0.3057 -0.6418  0.8291
   26MOL0     H 3549   4.823   7.706   0.614  0.0200  0.4790 -0.0773
   26MOL0     H 3550   4.573   6.995   0.870 -0.6079 -0.1450  2.8115
   26MOL0     H 3551   4.698   6.824   0.979 -1.1694  1.0696 -1.0747
   26MOL0     H 3552   4.834   6.792   1.168  0.7254 -0.4053  1.7494
   26MOL0     H 3553   5.001   6.774   1.204  2.8319  2.6667 -1.0563
   26MOL0     H 3554   5.043   7.026   1.190 -0.4324  1.3769  1.4448
   26MOL0     H 3555   4.878   7.054   1.166  2.7224  3.2589 -1.1851
   26MOL0     H 3556   4.987   6.897   1.382  0.0324 -0.0951 -1.6529
   26MOL0     H 3557   4.809   6.941   1.372 -0.7207  1.4651 -0.6327
   26MOL0     H 3558   4.891   7.189   1.376  4.2090  1.9901 -1.1176
   26MOL0     H 3559   5.048   7.131   1.387  0.1406 -0.4275 -2.9098
   26MOL0     H 3560   4.833   7.039   1.592 -0.9581 -0.2673  1.6394
   26MOL0     H 3561   4.993   6.991   1.598 -0.9046 -0.6405  0.1045
   26MOL0     H 3562   4.931   7.141   1.767 -0.3110 -2.2030 -2.0118
   26MOL0     H 3563   4.899   7.277   1.647 -1.5194 -0.9033  0.2116
   26MOL0     H 3564   5.148   7.249   1.589  0.6184 -3.0895  0.0173
   26MOL0     H 3565   5.161   7.156   1.736 -0.1268  1.9526  2.8400
   26MOL0     H 3566   5.238   7.380   1.791  0.5103 -1.6773  1.4193
   26MOL0     H 3567   5.098   7.334   1.879 -3.1452  1.2011 -0.8026
   26MOL0     H 3568   5.055   7.007   0.872  0.3355  1.4075  2.7771
   26MOL0     H 3569   4.936   7.183   0.738  3.2137  0.3987  3.9298
   26MOL0     H 3570   4.399   7.329   0.678 -2.3874  0.5413 -0.6473
   26MOL0     H 3571   4.284   7.490   0.546  0.0685 -0.7946  1.1212
   26MOL0     H 3572   5.454   6.813   0.549  0.6949  0.0872 -1.5118
   26MOL0     H 3573   5.697   6.833   0.611  1.9092  0.9200  2.1124
   26MOL0     H 3574   6.029   6.901   0.662  1.4313  1.7685 -2.8677
   26MOL0     H 3575   6.250   6.840   0.732 -3.1313 -0.8627  1.8118
   26MOL0     H 3576   6.528   7.157   0.847 -2.6475  1.2936  1.4468
   26MOL0     H 3577   6.475   7.086   1.007  1.3591 -1.0808  1.1979
   26MOL0     H 3578   6.615   6.885   0.947 -4.0028  1.2074 -0.9831
   26MOL0     H 3579   6.723   7.018   0.985  0.4506  0.2669  1.5982
   26MOL0     H 3580   6.665   7.051   0.708  1.6707  1.6392  1.1796
   26MOL0     H 3581   6.822   6.985   0.765  0.0846 -1.9213 -2.1244
   26MOL0     H 3582   6.694   6.842   0.585 -0.7563  1.4701 -0.4594
   26MOL0     H 3583   6.556   6.834   0.698 -0.2248  1.3156  0.9017
   26MOL0     H 3584   6.834   6.509   0.757 -0.6333 -0.0591 -2.0706
   26MOL0     H 3585   6.339   7.251   0.831 -0.7234  1.3465 -1.5769
   26MOL0     H 3586   6.203   7.418   0.780  0.9811 -0.9891 -0.7117
   26MOL0     H 3587   6.041   7.385   0.710  0.6006  0.7367 -0.5629
   26MOL0     H 3588   6.068   7.390   0.883 -0.9345 -2.0707  0.4900
   27MOL0     O 3589  10.442   4.162  10.663 -0.1026 -0.2159 -0.1095
   27MOL0     C 3590  10.362   4.104  10.739  0.1378 -0.3122  0.1718
   27MOL0     O 3591  10.391   3.999  10.815 -0.0658 -0.2728  0.0771
   27MOL0     C 3592  10.508   3.934  10.784 -1.0001  0.0504 -0.0093
   27MOL0     C 3593  10.606   3.919  10.887 -0.3060  0.0972 -0.8716
   27MOL0     C 3594  10.715   3.841  10.855 -0.2767  0.4317  0.8630
   27MOL0     C 3595  10.731   3.774  10.738 -0.1496  0.0959  0.3218
   27MOL0     O 3596  10.852   3.710  10.740 -0.5045 -0.3352  0.2771
   27MOL0     C 3597  10.899   3.668  10.605  0.3252 -0.2802  0.7447
   27MOL0     C 3598  11.042   3.611  10.612  0.2380  0.0472  0.2478
   27MOL0     C 3599  11.081   3.534  10.482 -0.3677 -0.1559 -0.0854
   27MOL0     C 3600  11.232   3.511  10.474 -0.1685  0.3132 -0.2476
   27MOL0     C 3601  11.254   3.425  10.344  0.2481  0.5423 -1.0292
   27MOL0     C 3602  11.318   3.289  10.375  0.4906  0.3833 -0.6050
   27MOL0     C 3603  11.463   3.280  10.343 -0.0588 -0.3488  1.4806
   27MOL0     C 3604  11.547   3.373  10.427  0.3923  0.1546  0.0410
   27MOL0     N 3605  11.688   3.341  10.394  0.0554 -0.0528  0.2587
   27MOL0     C 3606  11.748   3.250  10.464 -0.2660  1.0267  0.0655
   27MOL0     C 3607  11.878   3.248  10.416 -0.1703 -0.7175 -0.2561
   27MOL0     C 3608  11.988   3.166  10.464 -0.9341 -0.6866  0.0065
   27MOL0     C 3609  12.009   3.040  10.376 -0.0142  0.3736  0.1634
   27MOL0     C 3610  12.143   3.045  10.295 -0.0251 -0.0731  0.6159
   27MOL0     C 3611  12.148   3.155  10.193  0.1198  0.1861  0.2391
   27MOL0     O 3612  12.073   3.104  10.077  0.2878 -0.3790 -1.2192
   27MOL0     C 3613  12.025   3.202   9.997 -0.6064 -1.0036 -0.1102
   27MOL0     C 3614  12.124   3.281   9.928 -0.5769  0.6135  1.3201
   27MOL0     C 3615  12.074   3.379   9.839  0.1663 -0.0495  0.1632
   27MOL0     C 3616  12.181   3.477   9.802 -0.1186 -0.2278  0.4994
   27MOL0     C 3617  11.937   3.395   9.813 -0.3426  0.8583 -0.7119
   27MOL0     C 3618  11.889   3.480   9.708  0.2299  0.1546 -0.0294
   27MOL0     O 3619  11.761   3.536   9.732  0.7993 -0.3559  0.7197
   27MOL0     C 3620  11.725   3.650   9.661 -0.6381  0.1205 -0.6790
   27MOL0     C 3621  11.817   3.741   9.603 -0.0364 -0.0518  0.1122
   27MOL0     C 3622  11.783   3.867   9.559  0.9359 -0.2351  0.1585
   27MOL0     C 3623  11.647   3.913   9.578  0.1669  0.2647 -0.2283
   27MOL0     O 3624  11.600   4.038   9.535 -0.1833 -0.5329  0.1689
   27MOL0     C 3625  11.668   4.106   9.420  0.6074 -0.6592 -0.2426
   27MOL0     C 3626  11.626   4.035   9.292  0.0103  0.3565 -1.0747
   27MOL0     C 3627  11.719   4.079   9.175 -0.1640  0.5440 -0.9287
   27MOL0     C 3628  11.648   4.074   9.037 -0.9344 -0.0140 -0.5293
   27MOL0     C 3629  11.720   4.120   8.908 -0.0338 -1.0889 -0.5925
   27MOL0     C 3630  11.835   4.040   8.862 -0.9396 -0.1052  0.2888
   27MOL0     C 3631  11.779   3.897   8.825 -1.3946  0.3197  0.4007
   27MOL0     C 3632  11.863   3.843   8.713  0.4016 -0.3340  0.9704
   27MOL0    Cl 3633  11.834   3.666   8.673  0.5454  0.1411 -0.2683
   27MOL0     C 3634  11.549   3.815   9.628 -0.4455  0.0015 -0.0956
   27MOL0     C 3635  11.591   3.692   9.670 -0.8494  0.5735  0.1626
   27MOL0     O 3636  11.954   3.492   9.609 -0.2288  0.1540 -0.1472
   27MOL0     C 3637  11.847   3.314   9.882  0.7875 -0.6788  0.1906
   27MOL0     C 3638  11.899   3.217   9.976  0.0202  0.1637 -0.0736
   27MOL0     N 3639  11.873   3.329  10.301 -0.0043  0.8728  0.2369
   27MOL0     N 3640  11.764   3.386  10.294 -0.4116  0.3459  0.0677
   27MOL0     C 3641  10.639   3.785  10.641 -0.1575  0.2879  0.4135
   27MOL0     C 3642  10.518   3.857  10.665 -0.6511 -0.5005  1.0057
   27MOL0     C 3643  10.226   4.159  10.746 -0.0339 -0.3441  0.1548
   27MOL0     C 3644  10.218   4.295  10.716  0.4575 -0.4448 -0.3825
   27MOL0     C 3645  10.093   4.367  10.709  0.2858 -0.0363  0.5112
   27MOL0     C 3646   9.974   4.306  10.739  0.7305 -0.0832 -0.4065
   27MOL0     O 3647   9.846   4.352  10.713 -0.3490 -0.3950 -0.4249
   27MOL0     C 3648   9.841   4.497  10.683  0.8595  0.1611 -0.5997
   27MOL0     C 3649   9.697   4.535  10.656 -0.2685 -0.4898  0.5193
   27MOL0     C 3650   9.607   4.539  10.776  0.1446 -0.2027 -0.1450
   27MOL0     C 3651   9.482   4.446  10.774 -0.3779  0.3620  0.8486
   27MOL0     C 3652   9.390   4.478  10.881 -0.2788  0.4284 -0.1839
   27MOL0     C 3653   9.322   4.518  10.969  0.1050  0.5642 -0.1988
   27MOL0     C 3654   9.985   4.175  10.783  1.1591 -0.9240  0.0018
   27MOL0     C 3655  10.097   4.099  10.784 -0.4229  0.1858 -0.6405
   27MOL0     C 3656  10.077   3.953  10.813  0.6867 -0.0072 -0.3601
   27MOL0     H 3657  10.600   3.968  10.983  1.4657  1.5885 -1.4692
   27MOL0     H 3658  10.798   3.832  10.925  0.0209 -0.8680  0.3759
   27MOL0     H 3659  10.906   3.755  10.539  1.9503 -0.9084  0.0222
   27MOL0     H 3660  10.832   3.593  10.561  0.0815  0.8539 -0.9297
   27MOL0     H 3661  11.116   3.691  10.622 -1.2339  1.6762 -1.2782
   27MOL0     H 3662  11.060   3.545  10.698  0.9834 -1.5849 -1.0927
   27MOL0     H 3663  11.019   3.444  10.488 -0.6207  0.0054 -0.2565
   27MOL0     H 3664  11.046   3.591  10.395  0.8699  3.3016  1.4925
   27MOL0     H 3665  11.280   3.609  10.466 -1.1294  0.9826  1.5924
   27MOL0     H 3666  11.270   3.471  10.568 -1.0963  0.6906  0.2986
   27MOL0     H 3667  11.325   3.482  10.284  0.6207  0.6601 -0.4852
   27MOL0     H 3668  11.163   3.402  10.288  0.1947 -1.0973 -0.3227
   27MOL0     H 3669  11.306   3.266  10.481 -0.5311 -1.1420 -1.0223
   27MOL0     H 3670  11.266   3.211  10.320  0.7358  1.2796 -2.1590
   27MOL0     H 3671  11.477   3.317  10.241 -1.7009  1.5422  1.8742
   27MOL0     H 3672  11.504   3.179  10.347  1.2071  0.1112  0.9470
   27MOL0     H 3673  11.516   3.477  10.421  0.8980  0.4273  1.6551
   27MOL0     H 3674  11.527   3.356  10.533 -0.6629 -0.2573 -0.2039
   27MOL0     H 3675  11.712   3.184  10.542  0.2967  0.6394  0.0073
   27MOL0     H 3676  11.964   3.125  10.563 -1.2370  1.5213  0.9168
   27MOL0     H 3677  12.076   3.230  10.468 -2.2013  1.0763  2.4478
   27MOL0     H 3678  12.010   2.958  10.449  1.9340  1.2402  1.1792
   27MOL0     H 3679  11.925   3.015  10.311  0.7769 -1.8367 -0.1018
   27MOL0     H 3680  12.227   3.051  10.365  1.4675 -1.2280 -1.0045
   27MOL0     H 3681  12.159   2.954  10.238 -1.9693  1.3277 -2.4270
   27MOL0     H 3682  12.117   3.257  10.220  2.0565  0.7364  0.5161
   27MOL0     H 3683  12.251   3.170  10.161 -0.0498  1.2569  0.1357
   27MOL0     H 3684  12.229   3.270   9.954 -0.0961 -0.5418 -0.8273
   27MOL0     H 3685  12.265   3.459   9.870  0.0714  2.0705  0.9576
   27MOL0     H 3686  12.146   3.575   9.836 -3.0445 -1.6144  1.7948
   27MOL0     H 3687  12.222   3.480   9.701  1.3849 -0.4626  1.0702
   27MOL0     H 3688  11.923   3.717   9.594  0.2483  0.3183  2.0577
   27MOL0     H 3689  11.850   3.935   9.507  0.9846  1.0096  1.7924
   27MOL0     H 3690  11.638   4.211   9.409  0.4387 -0.7703 -0.8934
   27MOL0     H 3691  11.774   4.108   9.446  0.2173  2.2363  1.5392
   27MOL0     H 3692  11.632   3.926   9.301  0.2361  0.4670  0.2866
   27MOL0     H 3693  11.521   4.065   9.282 -0.8364 -0.4602  3.1646
   27MOL0     H 3694  11.802   4.007   9.175  1.0569  1.8631  0.9351
   27MOL0     H 3695  11.753   4.181   9.197  1.0027  0.1510 -0.8584
   27MOL0     H 3696  11.570   4.148   9.056  1.2496  1.5893  3.2555
   27MOL0     H 3697  11.608   3.972   9.038  2.8142 -1.6620 -1.6302
   27MOL0     H 3698  11.651   4.119   8.824  1.3276 -0.7087 -1.7569
   27MOL0     H 3699  11.743   4.227   8.916  0.2808 -1.1247 -1.0206
   27MOL0     H 3700  11.915   4.030   8.937 -0.5165 -0.0502 -0.1538
   27MOL0     H 3701  11.885   4.095   8.782  3.3108  1.0646  3.3245
   27MOL0     H 3702  11.673   3.912   8.803 -0.6863  5.0049 -1.0453
   27MOL0     H 3703  11.786   3.835   8.914 -0.5737  2.9176  2.2593
   27MOL0     H 3704  11.966   3.874   8.735  0.2039  1.9189 -0.9120
   27MOL0     H 3705  11.831   3.907   8.630 -3.0832 -1.7347  1.0482
   27MOL0     H 3706  11.444   3.842   9.639 -0.6261 -1.1872  1.3334
   27MOL0     H 3707  11.521   3.627   9.720  0.8977 -1.0106  0.6427
   27MOL0     H 3708  11.740   3.325   9.870  0.7818 -1.3215 -0.3912
   27MOL0     H 3709  11.831   3.147  10.022 -0.2941  0.4263 -0.1305
   27MOL0     H 3710  10.648   3.715  10.559  0.8571  1.8721 -0.8751
   27MOL0     H 3711  10.435   3.865  10.596 -0.5034  0.6416  0.9323
   27MOL0     H 3712  10.308   4.350  10.689 -0.4296  0.7544 -1.0189
   27MOL0     H 3713  10.096   4.472  10.680  0.2013  0.3639  1.8887
   27MOL0     H 3714   9.871   4.543  10.778  0.4081  0.3775 -0.5632
   27MOL0     H 3715   9.913   4.538  10.611 -0.7840  0.8103 -1.9315
   27MOL0     H 3716   9.658   4.468  10.580 -1.6098  0.4555  0.3413
   27MOL0     H 3717   9.703   4.630  10.603 -1.1530 -1.6317 -1.7299
   27MOL0     H 3718   9.669   4.515  10.863  1.9525 -0.2127 -1.3744
   27MOL0     H 3719   9.572   4.642  10.783  0.8406 -0.0036  0.5333
   27MOL0     H 3720   9.513   4.342  10.786 -1.7181  0.0765  2.2395
   27MOL0     H 3721   9.418   4.455  10.685 -0.7234 -3.0477  0.6108
   27MOL0     H 3722   9.264   4.561  11.049  1.1181 -0.5786  1.1865
   27MOL0     H 3723   9.889   4.134  10.811 -0.0769  1.7133 -0.0391
   27MOL0     H 3724   9.992   3.915  10.755 -0.9059  0.6161  1.4477
   27MOL0     H 3725  10.166   3.901  10.778  0.3766 -1.2592  0.6321
   27MOL0     H 3726  10.063   3.936  10.920 -1.6443  2.3270 -0.1896
   28MOL0     O 3727   8.449   6.643   2.336  0.3604  0.0078 -0.9109
   28MOL0     C 3728   8.448   6.698   2.440 -0.2944 -0.3736  0.1871
   28MOL0     O 3729   8.547   6.775   2.492 -0.8739 -1.0737  0.2906
   28MOL0     C 3730   8.662   6.813   2.421  1.2381 -0.1874 -0.5164
   28MOL0     C 3731   8.658   6.841   2.287  0.0363 -1.0359  0.4957
   28MOL0     C 3732   8.780   6.902   2.230  1.2342 -0.5792 -0.9208
   28MOL0     C 3733   8.900   6.917   2.303 -0.2854 -0.1387  0.4563
   28MOL0     O 3734   9.015   6.958   2.259 -0.8291  1.0396  0.7612
   28MOL0     C 3735   9.027   6.982   2.117  0.0420 -0.3914 -0.0488
   28MOL0     C 3736   9.151   7.054   2.089  0.0037 -0.7469  0.5757
   28MOL0     C 3737   9.192   7.172   2.179  0.1424 -1.1065 -0.3688
   28MOL0     C 3738   9.309   7.234   2.110 -0.0854  0.1244 -0.0703
   28MOL0     C 3739   9.348   7.361   2.180 -0.0402 -0.1024  0.0885
   28MOL0     C 3740   9.471   7.415   2.119  1.2257  0.3304  0.3430
   28MOL0     C 3741   9.536   7.516   2.228  0.2929  0.0094 -0.4132
   28MOL0     C 3742   9.682   7.532   2.201 -1.2721 -0.7478  0.0938
   28MOL0     N 3743   9.766   7.411   2.226 -0.3776  0.1844 -0.1722
   28MOL0     C 3744   9.864   7.351   2.143 -0.4465 -1.0781  0.1566
   28MOL0     C 3745   9.889   7.233   2.198  0.2460  0.6252  0.1922
   28MOL0     C 3746   9.954   7.128   2.120 -0.4094  0.5264 -0.2450
   28MOL0     C 3747  10.110   7.156   2.102  1.0775  0.0436  0.3925
   28MOL0     C 3748  10.171   7.034   2.024  0.6842  0.7447 -0.3741
   28MOL0     C 3749  10.304   7.075   1.964  0.5785 -0.1456  0.8171
   28MOL0     O 3750  10.354   6.971   1.872 -0.0980 -0.3021 -1.0469
   28MOL0     C 3751  10.490   6.963   1.852  0.5321 -1.0122 -0.3165
   28MOL0     C 3752  10.564   6.891   1.938 -0.3200  1.0378  0.3665
   28MOL0     C 3753  10.707   6.878   1.924 -0.7188  0.7499  1.0764
   28MOL0     C 3754  10.769   6.795   2.035  0.2124 -0.7485  0.3113
   28MOL0     C 3755  10.770   6.951   1.812  0.3715  0.1217  1.1411
   28MOL0     C 3756  10.919   6.950   1.784  0.3288 -0.2112 -0.5793
   28MOL0     O 3757  10.956   7.041   1.687 -0.5642  0.2031 -0.2820
   28MOL0     C 3758  11.088   7.051   1.642  0.0459 -0.0783  0.6232
   28MOL0     C 3759  11.170   6.937   1.628  0.7062 -0.2156 -0.8828
   28MOL0     C 3760  11.304   6.949   1.613 -0.3083 -1.1118  0.6020
   28MOL0     C 3761  11.361   7.080   1.588 -0.0496  0.4513 -0.1595
   28MOL0     O 3762  11.492   7.102   1.566 -0.1381 -1.0279 -0.3973
   28MOL0     C 3763  11.583   7.010   1.618 -0.0982 -0.1259 -0.2745
   28MOL0     C 3764  11.732   7.041   1.580 -1.2659  0.6098 -0.6668
   28MOL0     C 3765  11.840   6.990   1.685  0.2792  0.6701  0.7065
   28MOL0     C 3766  11.973   7.050   1.652 -0.6741  0.2331 -0.4898
   28MOL0     C 3767  12.090   6.986   1.726 -0.1349  0.1280  0.1599
   28MOL0     C 3768  12.216   7.058   1.668  0.6387  0.4147 -0.9357
   28MOL0     C 3769  12.352   7.028   1.736 -0.5302  0.6666  0.2807
   28MOL0     C 3770  12.475   7.101   1.693 -1.1071  0.2586 -0.5412
   28MOL0    Cl 3771  12.455   7.275   1.718  0.4450  0.1277 -0.6635
   28MOL0     C 3772  11.272   7.190   1.580  0.6505  0.6921  0.1079
   28MOL0     C 3773  11.138   7.173   1.619 -0.5328 -0.1987  0.1513
   28MOL0     O 3774  11.004   6.886   1.852  0.2884 -0.6994 -0.2486
   28MOL0     C 3775  10.681   7.027   1.727 -0.5765 -0.6805  0.3770
   28MOL0     C 3776  10.538   7.034   1.753 -0.0895 -0.1014  0.6381
   28MOL0     N 3777   9.809   7.222   2.312 -0.7668  1.1195 -0.4039
   28MOL0     N 3778   9.761   7.331   2.330  0.4153  1.0378  0.3088
   28MOL0     C 3779   8.898   6.877   2.433 -1.1084  0.5887  0.0655
   28MOL0     C 3780   8.778   6.824   2.497 -1.1421 -0.9925 -0.3575
   28MOL0     C 3781   8.320   6.698   2.522 -0.1335  0.3274  0.1359
   28MOL0     C 3782   8.299   6.802   2.617  0.0489  0.3212 -0.0756
   28MOL0     C 3783   8.187   6.804   2.710  0.1341 -0.7375 -0.1212
   28MOL0     C 3784   8.086   6.713   2.700  0.0779 -0.3991  0.5198
   28MOL0     O 3785   7.976   6.704   2.782 -0.6121  0.4102  0.7360
   28MOL0     C 3786   7.985   6.715   2.926  0.2572  0.3533 -0.2903
   28MOL0     C 3787   7.841   6.738   2.986  0.2139 -0.0218  0.8952
   28MOL0     C 3788   7.784   6.872   2.940  0.2757  0.3545  0.6523
   28MOL0     C 3789   7.713   6.869   2.807 -0.3027  0.1644  0.8354
   28MOL0     C 3790   7.599   6.766   2.797  0.9998 -1.2002 -0.4688
   28MOL0     C 3791   7.518   6.676   2.776 -0.1477  0.1686 -0.0536
   28MOL0     C 3792   8.104   6.609   2.608 -0.2854 -0.4175 -0.2232
   28MOL0     C 3793   8.215   6.605   2.515  0.7643 -0.3699  0.8333
   28MOL0     C 3794   8.221   6.493   2.414  0.6629 -0.8207  0.3147
   28MOL0     H 3795   8.559   6.847   2.242  0.9788 -1.5509 -1.7989
   28MOL0     H 3796   8.772   6.929   2.125  0.6999 -2.2836 -1.3508
   28MOL0     H 3797   8.948   7.050   2.084 -0.1490 -1.5217 -2.1013
   28MOL0     H 3798   9.026   6.888   2.061 -0.3778  0.0283 -0.7545
   28MOL0     H 3799   9.233   6.982   2.096  1.7172  1.2807  2.9858
   28MOL0     H 3800   9.145   7.076   1.982 -3.2459  2.7270  1.2441
   28MOL0     H 3801   9.117   7.251   2.186 -0.0205 -1.4445  2.9423
   28MOL0     H 3802   9.228   7.146   2.278 -1.0910  2.0471  1.0569
   28MOL0     H 3803   9.390   7.160   2.107  1.9860  2.3037 -0.6073
   28MOL0     H 3804   9.284   7.263   2.007 -1.6190  0.2026  0.3002
   28MOL0     H 3805   9.360   7.327   2.283  0.2077 -0.3714 -0.0281
   28MOL0     H 3806   9.268   7.435   2.186  1.4895  1.4793  1.9861
   28MOL0     H 3807   9.541   7.332   2.104  1.4038  0.3853  0.8403
   28MOL0     H 3808   9.451   7.462   2.023  0.3583  1.4504  1.0461
   28MOL0     H 3809   9.528   7.470   2.326 -4.3236 -2.4494 -1.6418
   28MOL0     H 3810   9.485   7.613   2.235  1.7104  0.6363  2.3836
   28MOL0     H 3811   9.694   7.556   2.095 -0.3966 -1.0514  0.1100
   28MOL0     H 3812   9.728   7.616   2.253  1.0024 -0.8800 -1.5547
   28MOL0     H 3813   9.904   7.383   2.048  0.6181 -2.4382  0.1236
   28MOL0     H 3814   9.900   7.115   2.026 -1.7083  4.1710 -0.1613
   28MOL0     H 3815   9.948   7.036   2.179 -2.2060  1.2171  0.7643
   28MOL0     H 3816  10.121   7.245   2.040  3.9770 -0.7006 -0.3174
   28MOL0     H 3817  10.160   7.162   2.199  0.6604 -1.0486  0.6953
   28MOL0     H 3818  10.185   6.950   2.093  4.2293  1.2935 -0.2060
   28MOL0     H 3819  10.111   6.984   1.947  3.1045 -1.1988 -1.1661
   28MOL0     H 3820  10.283   7.166   1.908  0.1788  0.4892  1.9623
   28MOL0     H 3821  10.375   7.091   2.045  2.3340 -2.1122 -0.2251
   28MOL0     H 3822  10.513   6.835   2.016 -1.9184  0.3083 -1.1456
   28MOL0     H 3823  10.873   6.824   2.049 -0.4765  1.5379  1.0671
   28MOL0     H 3824  10.772   6.686   2.023 -3.1446 -1.1625  2.0609
   28MOL0     H 3825  10.707   6.814   2.123 -3.7395 -0.7011 -2.2123
   28MOL0     H 3826  11.128   6.839   1.649 -1.7245  0.1971 -3.3126
   28MOL0     H 3827  11.353   6.854   1.595 -1.0907 -1.3474 -0.3658
   28MOL0     H 3828  11.574   7.008   1.727  1.0755  2.4332 -0.0831
   28MOL0     H 3829  11.558   6.913   1.574 -1.2321 -0.2389  0.5707
   28MOL0     H 3830  11.767   7.017   1.479 -0.3535 -0.4570 -0.1251
   28MOL0     H 3831  11.742   7.149   1.582  1.4937  0.4338 -0.6052
   28MOL0     H 3832  11.839   6.882   1.671 -1.7803  1.0583 -4.3826
   28MOL0     H 3833  11.806   7.013   1.786 -0.4859 -1.5076  1.0070
   28MOL0     H 3834  11.978   7.152   1.692  3.8625 -0.4942  1.4577
   28MOL0     H 3835  11.997   7.055   1.545  3.4831 -1.2791  0.1693
   28MOL0     H 3836  12.071   6.988   1.833 -1.7754 -1.6147 -0.0354
   28MOL0     H 3837  12.093   6.882   1.691 -0.8807  1.0714 -3.0495
   28MOL0     H 3838  12.204   7.166   1.684 -1.2065 -0.1276  2.1792
   28MOL0     H 3839  12.209   7.042   1.560 -1.3594 -1.3671 -0.6176
   28MOL0     H 3840  12.374   6.921   1.733  2.6564  1.1262  2.0539
   28MOL0     H 3841  12.343   7.059   1.841  1.2892  2.1758  0.0455
   28MOL0     H 3842  12.502   7.081   1.589  1.9181  0.1557  0.1476
   28MOL0     H 3843  12.556   7.062   1.755 -0.8326  0.0521 -1.0227
   28MOL0     H 3844  11.322   7.282   1.553  2.8124 -0.7129 -1.0184
   28MOL0     H 3845  11.071   7.258   1.629  0.0290  0.1352  1.3246
   28MOL0     H 3846  10.714   7.086   1.642 -1.9910 -1.4065 -0.7261
   28MOL0     H 3847  10.477   7.091   1.683  1.6477  1.3704  0.2283
   28MOL0     H 3848   8.993   6.879   2.484 -1.2490  3.9469  0.4349
   28MOL0     H 3849   8.778   6.782   2.597  3.5121  0.8329  0.6823
   28MOL0     H 3850   8.374   6.880   2.626  0.5322 -0.2024  0.5445
   28MOL0     H 3851   8.182   6.886   2.781 -1.6786  0.6215 -1.7088
   28MOL0     H 3852   8.024   6.625   2.974 -1.2406 -0.6694 -0.9124
   28MOL0     H 3853   8.046   6.795   2.970  1.2697 -0.9540  0.7985
   28MOL0     H 3854   7.869   6.747   3.091 -1.2008 -0.9147  1.3768
   28MOL0     H 3855   7.772   6.654   2.978  0.6025 -0.3508  0.9772
   28MOL0     H 3856   7.719   6.902   3.023 -1.2065 -0.2653 -0.2552
   28MOL0     H 3857   7.867   6.944   2.937  1.5596 -1.1126 -2.0451
   28MOL0     H 3858   7.787   6.855   2.728 -0.4799  1.7469  0.3640
   28MOL0     H 3859   7.670   6.968   2.793  1.1298  0.6881 -0.0301
   28MOL0     H 3860   7.461   6.586   2.777 -0.6868  0.5034  1.4535
   28MOL0     H 3861   8.041   6.521   2.597 -1.5713  0.5919 -1.3312
   28MOL0     H 3862   8.199   6.520   2.310  0.2575 -2.3755 -0.0425
   28MOL0     H 3863   8.311   6.434   2.434  0.3491 -1.1799  0.7017
   28MOL0     H 3864   8.151   6.410   2.430  1.4320 -1.3422  1.0573
   29MOL0     O 3865   9.014   3.310   1.325  0.0165  0.6588 -0.9416
   29MOL0     C 3866   8.966   3.204   1.287 -1.3571  0.7686  0.3475
   29MOL0     O 3867   9.028   3.079   1.317  0.3124 -0.5445  0.0664
   29MOL0     C 3868   9.165   3.080   1.341 -0.3506 -0.1631  1.1578
   29MOL0     C 3869   9.227   3.145   1.452 -0.5639  1.0998 -0.3389
   29MOL0     C 3870   9.369   3.161   1.457  0.6598 -0.4800 -0.4016
   29MOL0     C 3871   9.451   3.107   1.361  0.0643  0.1486 -0.2059
   29MOL0     O 3872   9.582   3.131   1.384  0.8280  1.0593  0.0679
   29MOL0     C 3873   9.675   3.097   1.288  0.1733  0.4667 -0.9629
   29MOL0     C 3874   9.806   3.145   1.359  0.4604  0.3925  0.0806
   29MOL0     C 3875   9.925   3.055   1.319 -0.7255  0.2976  0.3834
   29MOL0     C 3876   9.978   3.090   1.180  0.1481 -1.1652  0.3054
   29MOL0     C 3877  10.105   3.005   1.143  0.4251 -0.1332 -0.0840
   29MOL0     C 3878  10.236   3.079   1.191 -0.8954  0.3623  0.1498
   29MOL0     C 3879  10.279   3.196   1.102 -0.3404 -0.1111  0.2528
   29MOL0     C 3880  10.417   3.256   1.139  0.2815 -0.4557 -0.0185
   29MOL0     N 3881  10.513   3.148   1.171  0.6397  0.4679 -0.9066
   29MOL0     C 3882  10.535   3.082   1.287 -0.6940 -0.6258  0.6458
   29MOL0     C 3883  10.633   2.995   1.261 -0.9905 -0.4585 -0.4523
   29MOL0     C 3884  10.715   2.905   1.354 -0.0725 -0.4752  0.2025
   29MOL0     C 3885  10.852   2.970   1.392  0.0555 -0.8162  0.5609
   29MOL0     C 3886  10.826   3.075   1.497  0.0369  0.0222 -0.0627
   29MOL0     C 3887  10.957   3.137   1.537  0.0415  0.0800 -0.0561
   29MOL0     O 3888  11.024   3.192   1.426 -0.1818 -0.7377 -0.5534
   29MOL0     C 3889  11.060   3.323   1.442 -0.8175 -0.8502  0.6928
   29MOL0     C 3890  11.083   3.405   1.559  0.2635  0.4904  0.2248
   29MOL0     C 3891  11.129   3.538   1.551 -0.1399  0.3716 -0.4625
   29MOL0     C 3892  11.162   3.605   1.684 -0.2156  0.1043 -0.3294
   29MOL0     C 3893  11.140   3.614   1.429 -0.4758 -0.3572 -0.6240
   29MOL0     C 3894  11.166   3.760   1.422 -0.9634  0.4526  0.1199
   29MOL0     O 3895  11.064   3.843   1.451  0.5121  1.1613  0.4276
   29MOL0     C 3896  11.092   3.971   1.434 -0.9753  0.0899 -0.6555
   29MOL0     C 3897  11.143   4.044   1.546  0.3977  0.0351 -0.2444
   29MOL0     C 3898  11.179   4.179   1.529 -0.2952 -0.3719 -0.3562
   29MOL0     C 3899  11.156   4.245   1.406  0.4552 -0.0158 -0.0422
   29MOL0     O 3900  11.167   4.382   1.382 -0.7091 -0.5440  0.1892
   29MOL0     C 3901  11.304   4.433   1.411 -0.8260  0.3008  0.8202
   29MOL0     C 3902  11.316   4.581   1.403 -0.6234  0.2630  0.3287
   29MOL0     C 3903  11.459   4.630   1.461  0.3576  0.3645  0.5729
   29MOL0     C 3904  11.485   4.592   1.614  0.1300  0.3285  0.4649
   29MOL0     C 3905  11.619   4.651   1.660  0.4779  0.5755  0.1851
   29MOL0     C 3906  11.657   4.635   1.811  0.1855 -0.1318  0.1123
   29MOL0     C 3907  11.564   4.725   1.902  0.4340 -0.7054 -0.1418
   29MOL0     C 3908  11.605   4.725   2.054 -0.4295  0.1348  0.2941
   29MOL0    Cl 3909  11.751   4.823   2.067  0.0507 -0.0149 -0.1361
   29MOL0     C 3910  11.109   4.163   1.310 -0.6867  0.1215  0.0783
   29MOL0     C 3911  11.063   4.036   1.318  0.1070 -0.0363  0.3694
   29MOL0     O 3912  11.281   3.803   1.406  0.0075 -0.6708 -0.7750
   29MOL0     C 3913  11.110   3.531   1.312  0.0641 -0.4326  0.3394
   29MOL0     C 3914  11.088   3.391   1.325 -0.7020  0.2213  0.1833
   29MOL0     N 3915  10.660   3.009   1.128 -0.1546  0.4845  0.5221
   29MOL0     N 3916  10.595   3.103   1.072  0.6358  0.1153  0.0160
   29MOL0     C 3917   9.391   3.036   1.260 -0.7610 -0.2278  0.9357
   29MOL0     C 3918   9.257   3.031   1.248  0.0738 -0.3706  0.6209
   29MOL0     C 3919   8.824   3.189   1.246 -0.0612  0.1222  0.7070
   29MOL0     C 3920   8.799   3.117   1.131 -0.3682 -0.8469  0.2880
   29MOL0     C 3921   8.675   3.134   1.060  0.6707 -0.8830 -0.2636
   29MOL0     C 3922   8.577   3.216   1.119 -0.3375 -0.7666  0.2122
   29MOL0     O 3923   8.455   3.243   1.064 -0.0537  1.1612 -0.2190
   29MOL0     C 3924   8.408   3.142   0.966  0.1765 -0.5822  0.5878
   29MOL0     C 3925   8.262   3.166   0.932  0.9233 -0.1322 -0.0434
   29MOL0     C 3926   8.245   3.287   0.853 -0.4876 -0.0911  0.0460
   29MOL0     C 3927   8.097   3.320   0.814 -0.4941  0.1974  0.2627
   29MOL0     C 3928   8.072   3.263   0.680  0.8383  0.2808  0.1103
   29MOL0     C 3929   8.058   3.225   0.565 -0.6272 -0.4977  0.4448
   29MOL0     C 3930   8.602   3.278   1.238  0.1666 -0.3739 -0.7315
   29MOL0     C 3931   8.724   3.269   1.310  0.5823 -0.2987 -0.6487
   29MOL0     C 3932   8.743   3.349   1.433 -0.1401  0.0678  0.0900
   29MOL0     H 3933   9.164   3.187   1.530 -3.1860 -0.0933 -1.6983
   29MOL0     H 3934   9.422   3.214   1.535  1.4865 -1.1863 -0.4733
   29MOL0     H 3935   9.643   3.148   1.197 -0.7806 -0.3018 -1.0684
   29MOL0     H 3936   9.672   2.989   1.266 -1.4815  0.2716  0.1002
   29MOL0     H 3937   9.823   3.253   1.353  0.5211  0.3810  0.0376
   29MOL0     H 3938   9.805   3.105   1.461  0.3097 -2.2505 -0.9009
   29MOL0     H 3939  10.012   3.054   1.384 -1.1184 -0.1833  0.9093
   29MOL0     H 3940   9.895   2.950   1.329 -1.1944  0.3553 -0.2953
   29MOL0     H 3941   9.904   3.067   1.102  1.3773 -2.1800 -0.6119
   29MOL0     H 3942  10.011   3.194   1.189  0.2206 -1.0563 -0.9757
   29MOL0     H 3943  10.110   2.991   1.035 -1.1664 -2.0978  0.0234
   29MOL0     H 3944  10.097   2.913   1.202  1.0114 -0.6921 -0.8630
   29MOL0     H 3945  10.219   3.099   1.297 -0.9449  3.4921 -0.3469
   29MOL0     H 3946  10.320   3.011   1.175  0.4669  1.6816  1.4109
   29MOL0     H 3947  10.192   3.261   1.087 -3.8782 -4.2574  0.8313
   29MOL0     H 3948  10.298   3.167   0.998 -2.6334  0.6804 -0.4596
   29MOL0     H 3949  10.452   3.316   1.055  2.1252  1.3738  1.9317
   29MOL0     H 3950  10.408   3.320   1.227 -0.1982 -0.3823 -0.1192
   29MOL0     H 3951  10.481   3.098   1.380 -0.0341  1.0709  0.7733
   29MOL0     H 3952  10.742   2.819   1.292  1.3398  1.3238 -1.7794
   29MOL0     H 3953  10.664   2.873   1.446  0.4877 -1.4722  0.1860
   29MOL0     H 3954  10.920   2.895   1.435 -0.1876 -1.2052  0.2795
   29MOL0     H 3955  10.894   3.005   1.297 -0.8733 -1.3083 -0.0493
   29MOL0     H 3956  10.758   3.154   1.463  0.7263  1.8747  2.5949
   29MOL0     H 3957  10.781   3.031   1.586 -0.4959  0.8335  0.0885
   29MOL0     H 3958  10.943   3.212   1.616 -1.0897 -0.2440  0.0551
   29MOL0     H 3959  11.007   3.053   1.585 -5.5246 -2.7492  1.6155
   29MOL0     H 3960  11.069   3.358   1.656  2.7995  1.1257  0.9908
   29MOL0     H 3961  11.246   3.675   1.673  0.3634  0.2320  3.4466
   29MOL0     H 3962  11.183   3.532   1.762 -2.5744 -0.9422 -0.5974
   29MOL0     H 3963  11.078   3.665   1.721 -1.5466 -1.2392 -1.0817
   29MOL0     H 3964  11.164   3.969   1.622 -3.0924 -3.0791 -2.0095
   29MOL0     H 3965  11.228   4.227   1.614  1.3191  0.4861 -1.7144
   29MOL0     H 3966  11.341   4.403   1.510  0.7887 -1.1103 -0.1499
   29MOL0     H 3967  11.371   4.385   1.338  0.3866 -1.3867  2.9105
   29MOL0     H 3968  11.314   4.617   1.300  0.1110  0.5856  0.4170
   29MOL0     H 3969  11.238   4.619   1.470  0.9210  1.4621  1.5496
   29MOL0     H 3970  11.467   4.739   1.457  0.5776  0.3536  0.7035
   29MOL0     H 3971  11.530   4.571   1.403 -0.8323 -0.5065 -0.0590
   29MOL0     H 3972  11.494   4.484   1.630  2.9870  0.5906  1.2755
   29MOL0     H 3973  11.400   4.631   1.671  0.2152  1.5983 -0.2364
   29MOL0     H 3974  11.693   4.602   1.596  1.0564  0.4913  0.9009
   29MOL0     H 3975  11.613   4.758   1.639  0.1574  0.0760 -2.6884
   29MOL0     H 3976  11.756   4.682   1.818  0.4378 -0.5667 -0.4774
   29MOL0     H 3977  11.673   4.529   1.836 -1.8828 -0.1431  1.6387
   29MOL0     H 3978  11.459   4.700   1.883  0.1075  1.0587 -0.7837
   29MOL0     H 3979  11.583   4.828   1.871  1.2359 -0.3122  1.5398
   29MOL0     H 3980  11.626   4.620   2.080 -4.6220 -0.4426  2.2118
   29MOL0     H 3981  11.523   4.759   2.118 -0.5290  0.4503  0.0051
   29MOL0     H 3982  11.092   4.203   1.210 -4.5770 -1.2383  0.0209
   29MOL0     H 3983  11.021   3.991   1.228  1.0803 -0.8563  0.3162
   29MOL0     H 3984  11.117   3.570   1.211  2.6412 -0.5130  0.4250
   29MOL0     H 3985  11.073   3.344   1.228 -1.8451  3.3660 -1.3426
   29MOL0     H 3986   9.452   2.983   1.187  0.0224  1.3453  0.3838
   29MOL0     H 3987   9.215   2.976   1.164 -1.4112  1.7795 -0.1100
   29MOL0     H 3988   8.877   3.056   1.086  0.2632 -0.0695  0.3135
   29MOL0     H 3989   8.668   3.076   0.968  0.7579  0.8893 -1.4537
   29MOL0     H 3990   8.458   3.151   0.870  0.2875  0.1920  0.7167
   29MOL0     H 3991   8.432   3.048   1.018  0.9604 -0.7032  0.0215
   29MOL0     H 3992   8.208   3.178   1.026  1.4173  0.7840  0.1356
   29MOL0     H 3993   8.211   3.088   0.875 -0.7767 -0.1424  1.4096
   29MOL0     H 3994   8.284   3.370   0.912 -0.7604  0.1813 -0.1481
   29MOL0     H 3995   8.311   3.271   0.767 -0.2497 -1.0923  0.4066
   29MOL0     H 3996   8.103   3.429   0.801 -3.0831  0.5241  1.1365
   29MOL0     H 3997   8.033   3.295   0.899  1.1741 -0.4152  1.4005
   29MOL0     H 3998   8.057   3.190   0.464 -0.8898 -1.4828  0.7777
   29MOL0     H 3999   8.507   3.325   1.262  0.5608  0.9953 -1.7517
   29MOL0     H 4000   8.650   3.338   1.490 -0.4327 -0.2428 -0.4399
   29MOL0     H 4001   8.825   3.304   1.490  1.4382 -1.0990 -2.8973
   29MOL0     H 4002   8.758   3.455   1.414 -4.6204  0.4459 -2.5235
   30MOL0     O 4003   6.050   9.162   1.493  0.3198 -0.0447 -0.6890
   30MOL0     C 4004   6.003   9.230   1.400 -0.5292  0.9675  0.0098
   30MOL0     O 4005   6.059   9.341   1.345 -0.3128  0.6251 -0.4325
   30MOL0     C 4006   6.177   9.400   1.386  0.7200  0.1933 -0.2835
   30MOL0     C 4007   6.189   9.538   1.355 -0.2977  0.5045  0.7544
   30MOL0     C 4008   6.302   9.615   1.382  0.8363  0.0736  0.6328
   30MOL0     C 4009   6.405   9.551   1.441 -0.7513 -0.7691 -0.8654
   30MOL0     O 4010   6.529   9.611   1.458  0.0204 -0.8872 -0.1501
   30MOL0     C 4011   6.531   9.733   1.533 -0.0930 -0.0020  0.0763
   30MOL0     C 4012   6.664   9.749   1.606  0.2717  0.4064  0.7108
   30MOL0     C 4013   6.687   9.638   1.698  0.3043  0.6408 -0.3053
   30MOL0     C 4014   6.768   9.519   1.633  0.7135 -0.5294  0.1567
   30MOL0     C 4015   6.758   9.387   1.716  0.5951 -0.6634  0.2469
   30MOL0     C 4016   6.840   9.261   1.666 -0.4281  0.5360  0.6045
   30MOL0     C 4017   6.987   9.291   1.668 -0.2222 -0.0978 -0.7788
   30MOL0     C 4018   7.055   9.174   1.585  1.1066 -1.1974  0.2616
   30MOL0     N 4019   7.207   9.197   1.574  0.7419  0.7959  0.5861
   30MOL0     C 4020   7.288   9.196   1.687 -0.2258  0.3342 -0.8010
   30MOL0     C 4021   7.408   9.225   1.626  0.5744 -0.2278  0.4761
   30MOL0     C 4022   7.552   9.236   1.676 -0.0720 -0.2097 -0.0034
   30MOL0     C 4023   7.642   9.331   1.589  0.3325 -0.2416 -0.1450
   30MOL0     C 4024   7.786   9.331   1.649  0.0118 -0.0398 -0.7042
   30MOL0     C 4025   7.867   9.453   1.602 -0.7960 -0.3644  0.9861
   30MOL0     O 4026   7.882   9.459   1.462 -0.1450 -0.2604  1.1546
   30MOL0     C 4027   7.963   9.370   1.387  0.3477 -0.0915 -1.1570
   30MOL0     C 4028   8.048   9.272   1.449 -0.3159 -0.0940  0.0154
   30MOL0     C 4029   8.141   9.194   1.377 -0.2461 -0.7057 -0.0985
   30MOL0     C 4030   8.232   9.098   1.455 -0.5886 -0.8640 -0.1051
   30MOL0     C 4031   8.160   9.213   1.239  0.6012 -0.8030 -0.5399
   30MOL0     C 4032   8.261   9.151   1.150  0.3810 -0.1077  0.2647
   30MOL0     O 4033   8.272   9.198   1.019 -0.5144 -0.4879 -0.0216
   30MOL0     C 4034   8.367   9.148   0.937  0.0348 -0.4320  0.2860
   30MOL0     C 4035   8.486   9.213   0.926 -0.1043 -0.7099 -0.6435
   30MOL0     C 4036   8.576   9.161   0.831 -0.1016  0.9266 -0.3878
   30MOL0     C 4037   8.551   9.059   0.748  1.0316  0.5934 -0.4492
   30MOL0     O 4038   8.653   9.038   0.655 -0.6182  0.5780 -0.1474
   30MOL0     C 4039   8.639   8.920   0.569  0.7809 -0.6402 -0.4261
   30MOL0     C 4040   8.740   8.928   0.457 -0.6619  0.2864  0.5942
   30MOL0     C 4041   8.885   8.908   0.519  0.1357 -0.5939 -0.2789
   30MOL0     C 4042   8.993   8.945   0.423 -0.3026 -0.5171 -1.1531
   30MOL0     C 4043   9.128   8.900   0.478  1.0754  0.4246 -0.0461
   30MOL0     C 4044   9.224   8.923   0.370 -0.2403 -0.5793  0.9583
   30MOL0     C 4045   9.363   8.857   0.401  0.1458 -0.2196 -0.1506
   30MOL0     C 4046   9.487   8.879   0.305  0.0067  0.2784 -0.9997
   30MOL0    Cl 4047   9.643   8.822   0.390 -0.0475 -0.1485  0.1399
   30MOL0     C 4048   8.423   9.001   0.753  0.0288  0.0614  0.0497
   30MOL0     C 4049   8.334   9.039   0.851 -0.6346  0.4644 -0.1929
   30MOL0     O 4050   8.320   9.055   1.183 -0.4403 -0.4127 -0.6546
   30MOL0     C 4051   8.082   9.310   1.176  0.0912 -1.1180  0.7286
   30MOL0     C 4052   7.984   9.383   1.245  0.3185  0.2849  0.2295
   30MOL0     N 4053   7.386   9.247   1.491 -0.4545  0.4743 -0.1553
   30MOL0     N 4054   7.262   9.232   1.452 -0.4041 -0.6663  0.3333
   30MOL0     C 4055   6.406   9.413   1.463  0.2459  0.7385 -0.0089
   30MOL0     C 4056   6.289   9.335   1.433  0.1246  0.5634 -0.7299
   30MOL0     C 4057   5.869   9.180   1.354 -0.9109 -0.0535 -0.1332
   30MOL0     C 4058   5.845   9.159   1.213 -0.4111  0.0577 -0.1168
   30MOL0     C 4059   5.720   9.130   1.160 -0.3889  0.0946  0.1847
   30MOL0     C 4060   5.615   9.107   1.250  0.1023  0.3741  0.4388
   30MOL0     O 4061   5.484   9.074   1.220  0.0406 -0.2563  0.2693
   30MOL0     C 4062   5.452   9.016   1.089  0.4388 -0.0894 -0.3130
   30MOL0     C 4063   5.448   8.870   1.106 -0.1775  0.5169 -0.6150
   30MOL0     C 4064   5.390   8.802   0.979 -0.3632  0.1419 -0.7250
   30MOL0     C 4065   5.418   8.650   1.004  0.1458  0.0462  1.5367
   30MOL0     C 4066   5.340   8.586   0.895 -0.0864  0.2623  0.5726
   30MOL0     C 4067   5.297   8.512   0.806  0.5917  0.4937 -0.2238
   30MOL0     C 4068   5.638   9.115   1.392 -0.1669  0.2352 -0.8852
   30MOL0     C 4069   5.761   9.153   1.446 -0.2385 -0.2417  0.0549
   30MOL0     C 4070   5.782   9.176   1.592  1.3004  0.9457  0.6295
   30MOL0     H 4071   6.093   9.564   1.312  0.0961 -0.8916 -1.1074
   30MOL0     H 4072   6.309   9.721   1.361  0.9646  0.6739  3.3538
   30MOL0     H 4073   6.449   9.744   1.605 -1.3797  0.2545 -1.3859
   30MOL0     H 4074   6.534   9.815   1.460  1.6037  2.1978  2.4048
   30MOL0     H 4075   6.747   9.756   1.535  0.0510  0.7285  0.4815
   30MOL0     H 4076   6.663   9.849   1.651  1.2000  1.4350 -1.3836
   30MOL0     H 4077   6.747   9.674   1.782 -0.7817 -0.2785  0.9011
   30MOL0     H 4078   6.599   9.591   1.743  2.5634  0.2459  4.3415
   30MOL0     H 4079   6.718   9.496   1.539 -1.7552  0.3680  1.1620
   30MOL0     H 4080   6.874   9.544   1.617  0.7927 -1.1017 -0.2181
   30MOL0     H 4081   6.654   9.359   1.732 -0.0576  1.2581 -0.4597
   30MOL0     H 4082   6.790   9.417   1.816 -1.6667 -2.2943  1.5359
   30MOL0     H 4083   6.811   9.177   1.731  0.8429 -0.7809 -0.4769
   30MOL0     H 4084   6.816   9.237   1.562  3.2840  0.6772 -0.4075
   30MOL0     H 4085   7.027   9.294   1.769 -1.0578  1.6737 -0.4763
   30MOL0     H 4086   7.002   9.383   1.611  2.7754  0.2811  0.4313
   30MOL0     H 4087   7.023   9.078   1.625 -0.3276 -0.1201  1.8407
   30MOL0     H 4088   7.034   9.168   1.478  2.6194 -0.0170 -0.1449
   30MOL0     H 4089   7.276   9.160   1.789  1.2184  1.4524 -0.1992
   30MOL0     H 4090   7.595   9.136   1.691 -2.1522 -0.6109  5.6567
   30MOL0     H 4091   7.545   9.285   1.773  3.3790  0.1265  0.1838
   30MOL0     H 4092   7.627   9.304   1.484 -4.1581 -0.3912  0.3169
   30MOL0     H 4093   7.602   9.432   1.601  0.0821 -0.6452  3.6967
   30MOL0     H 4094   7.793   9.333   1.758  1.5282  1.0548 -0.7908
   30MOL0     H 4095   7.839   9.239   1.620 -2.0155 -0.6773 -2.7176
   30MOL0     H 4096   7.844   9.554   1.637  1.9189  0.9002 -0.5931
   30MOL0     H 4097   7.963   9.430   1.650  0.5676  3.2847  0.3123
   30MOL0     H 4098   8.049   9.244   1.553  0.9530  1.0208  0.3339
   30MOL0     H 4099   8.243   9.000   1.407 -0.7415 -1.6064  1.3144
   30MOL0     H 4100   8.193   9.086   1.556  0.1264  3.7175  0.9391
   30MOL0     H 4101   8.331   9.139   1.475 -0.3489 -0.8015 -1.3156
   30MOL0     H 4102   8.522   9.296   0.985  2.0804  0.0351 -2.8416
   30MOL0     H 4103   8.679   9.196   0.829  0.8686 -1.5146  1.4419
   30MOL0     H 4104   8.659   8.828   0.623  1.4086  0.6646  1.6863
   30MOL0     H 4105   8.537   8.907   0.532 -0.3574 -0.7243  2.5217
   30MOL0     H 4106   8.728   8.849   0.383 -0.0208  2.3353 -1.8154
   30MOL0     H 4107   8.722   9.022   0.405 -1.8698  0.0484  0.5509
   30MOL0     H 4108   8.907   8.806   0.552  1.1845 -0.1055  0.5873
   30MOL0     H 4109   8.902   8.965   0.610 -1.4706 -0.8391  0.2126
   30MOL0     H 4110   8.992   9.053   0.407  0.3212 -0.9105 -4.4552
   30MOL0     H 4111   8.976   8.893   0.328  1.9958 -2.3073 -0.6804
   30MOL0     H 4112   9.154   8.958   0.568  0.1006 -2.6183  2.3672
   30MOL0     H 4113   9.142   8.796   0.507  0.5614 -0.2512 -2.0733
   30MOL0     H 4114   9.239   9.027   0.340  0.9455 -0.1847  2.7359
   30MOL0     H 4115   9.192   8.870   0.280 -1.2241  3.7258 -1.4593
   30MOL0     H 4116   9.343   8.750   0.394 -0.8457 -0.0525 -0.0129
   30MOL0     H 4117   9.398   8.893   0.498 -1.0753  0.0124  0.2131
   30MOL0     H 4118   9.485   8.986   0.282 -1.6760  0.5719  0.2266
   30MOL0     H 4119   9.470   8.824   0.212 -2.4373  2.4745 -2.0080
   30MOL0     H 4120   8.400   8.920   0.685  0.0905 -1.3065  1.5904
   30MOL0     H 4121   8.243   8.981   0.853 -0.6224  0.4556  1.5019
   30MOL0     H 4122   8.089   9.341   1.073 -0.5081 -1.8895  0.4521
   30MOL0     H 4123   7.927   9.447   1.179  2.2983  1.0736 -0.8011
   30MOL0     H 4124   6.497   9.369   1.502 -2.1071 -1.7610  3.3036
   30MOL0     H 4125   6.291   9.231   1.462  2.8537  0.8398  0.3910
   30MOL0     H 4126   5.928   9.183   1.147 -2.1790 -0.1668 -2.5498
   30MOL0     H 4127   5.704   9.135   1.053  1.4898 -0.8595 -0.1782
   30MOL0     H 4128   5.354   9.061   1.072  0.0874  0.3697  2.4189
   30MOL0     H 4129   5.514   9.048   1.006 -0.9776  1.0484 -0.9653
   30MOL0     H 4130   5.385   8.842   1.191  1.4410  1.0548  0.8095
   30MOL0     H 4131   5.548   8.828   1.122  0.1269  1.8164  1.1331
   30MOL0     H 4132   5.284   8.820   0.964 -0.8620 -1.6607  0.3207
   30MOL0     H 4133   5.449   8.833   0.892  1.6559 -1.0896  0.1221
   30MOL0     H 4134   5.383   8.621   1.104  1.9192  0.0531  2.1929
   30MOL0     H 4135   5.519   8.612   0.985  0.6750  1.5704  1.1523
   30MOL0     H 4136   5.249   8.443   0.740  5.4251 -1.2589 -2.3808
   30MOL0     H 4137   5.558   9.100   1.463  2.4165 -0.1087  2.1307
   30MOL0     H 4138   5.790   9.076   1.634  0.2080  0.3697 -0.4343
   30MOL0     H 4139   5.873   9.227   1.624  0.7074  1.2434  1.9044
   30MOL0     H 4140   5.696   9.229   1.634 -2.1453 -2.5748 -1.1854
   31MOL0     O 4141   1.287   8.251   2.637  0.1460 -0.1588  0.7254
   31MOL0     C 4142   1.333   8.204   2.737  0.0880 -0.3867 -0.8739
   31MOL0     O 4143   1.468   8.171   2.755 -1.0935  0.4984 -0.1331
   31MOL0     C 4144   1.547   8.132   2.645  0.4820  0.9536  0.0194
   31MOL0     C 4145   1.690   8.139   2.655 -0.4115  0.0876  0.0683
   31MOL0     C 4146   1.778   8.086   2.558  0.1224 -0.8096  0.9178
   31MOL0     C 4147   1.715   8.037   2.437 -0.8370 -0.4254  0.4600
   31MOL0     O 4148   1.806   7.984   2.338 -0.4555 -0.8213  0.2485
   31MOL0     C 4149   1.764   7.871   2.262  0.5171  0.0338  0.4234
   31MOL0     C 4150   1.877   7.816   2.169 -0.0217  0.0792 -0.5490
   31MOL0     C 4151   2.001   7.785   2.244 -0.8640  0.2149  0.4582
   31MOL0     C 4152   2.103   7.719   2.150  0.0211  0.4181  0.3390
   31MOL0     C 4153   2.226   7.657   2.217  1.2260  0.1431  0.4502
   31MOL0     C 4154   2.332   7.609   2.117 -0.4621 -0.3193  0.9354
   31MOL0     C 4155   2.283   7.503   2.012 -0.3609 -0.1931 -0.3212
   31MOL0     C 4156   2.400   7.433   1.947 -0.6957  0.4536 -0.0707
   31MOL0     N 4157   2.476   7.333   2.022  0.5186 -0.5927 -0.6186
   31MOL0     C 4158   2.603   7.356   2.073 -0.1577 -0.4766 -0.6512
   31MOL0     C 4159   2.627   7.249   2.160 -0.3483 -0.2564  0.1545
   31MOL0     C 4160   2.755   7.202   2.219 -0.0186  0.2139 -0.5083
   31MOL0     C 4161   2.862   7.307   2.254  0.3819 -0.0775  0.6343
   31MOL0     C 4162   2.967   7.262   2.355 -0.4255 -0.8065  1.2088
   31MOL0     C 4163   3.051   7.138   2.303  0.2572 -0.0714  0.9421
   31MOL0     O 4164   3.160   7.134   2.399  0.2254 -0.4262  0.1552
   31MOL0     C 4165   3.279   7.073   2.365  0.9417 -0.0978 -0.6520
   31MOL0     C 4166   3.386   7.103   2.435 -0.9236 -0.1000 -0.3773
   31MOL0     C 4167   3.519   7.065   2.397  1.0128 -0.1971 -0.3016
   31MOL0     C 4168   3.636   7.082   2.499  0.2972 -0.0749  0.4988
   31MOL0     C 4169   3.537   7.003   2.264  0.6872  0.5847 -0.2089
   31MOL0     C 4170   3.667   6.962   2.198  0.4472  0.5865  0.0249
   31MOL0     O 4171   3.781   7.031   2.231  0.3039  0.6841 -0.2983
   31MOL0     C 4172   3.904   6.974   2.224  0.8797  0.3737 -0.1232
   31MOL0     C 4173   4.013   7.058   2.236  0.4342 -1.5131 -0.2288
   31MOL0     C 4174   4.134   7.011   2.271 -0.4357  1.0555 -0.4601
   31MOL0     C 4175   4.158   6.870   2.286 -0.0930  0.9091  0.3881
   31MOL0     O 4176   4.288   6.823   2.302  0.7520  0.1269 -0.3353
   31MOL0     C 4177   4.308   6.683   2.351 -0.6520 -0.8478 -0.0477
   31MOL0     C 4178   4.347   6.586   2.238  0.8716  0.3008 -0.9101
   31MOL0     C 4179   4.480   6.624   2.167 -0.2347 -0.7275 -0.3137
   31MOL0     C 4180   4.579   6.514   2.175 -0.0927 -0.3145  0.0690
   31MOL0     C 4181   4.714   6.572   2.147 -0.1401 -0.1366  0.3510
   31MOL0     C 4182   4.830   6.476   2.155  0.4923  0.5303  0.1454
   31MOL0     C 4183   4.958   6.547   2.115 -0.1635  0.2484 -0.4017
   31MOL0     C 4184   5.075   6.455   2.117  0.5227  0.8297 -0.0641
   31MOL0    Cl 4185   5.059   6.305   2.017 -0.6517 -0.1687 -0.1656
   31MOL0     C 4186   4.052   6.783   2.267  0.9709 -0.6050 -0.2713
   31MOL0     C 4187   3.929   6.836   2.224 -0.6213  1.2687 -0.4018
   31MOL0     O 4188   3.665   6.879   2.111  1.2127  0.7043 -0.0026
   31MOL0     C 4189   3.413   6.951   2.209  0.3236 -0.2754  0.2259
   31MOL0     C 4190   3.288   6.994   2.253  0.6887 -1.1533  0.4753
   31MOL0     N 4191   2.507   7.184   2.173 -0.0306  0.1572 -1.0362
   31MOL0     N 4192   2.426   7.225   2.086  0.0864 -0.3549  0.5057
   31MOL0     C 4193   1.573   8.039   2.416 -0.9611 -0.4429  0.8128
   31MOL0     C 4194   1.495   8.084   2.526 -0.6464 -0.5112  0.6773
   31MOL0     C 4195   1.249   8.164   2.854 -0.8674  0.3093 -0.0004
   31MOL0     C 4196   1.316   8.100   2.959 -0.4348 -0.3718 -0.3866
   31MOL0     C 4197   1.252   8.052   3.066  1.0170  0.7047  0.1807
   31MOL0     C 4198   1.114   8.067   3.084  0.0457 -0.5668 -0.5318
   31MOL0     O 4199   1.060   8.013   3.198 -0.0662  0.3404  0.0894
   31MOL0     C 4200   0.923   8.030   3.221  0.1968 -0.1366  0.6139
   31MOL0     C 4201   0.848   7.920   3.147  0.3296  0.2504 -0.1699
   31MOL0     C 4202   0.699   7.942   3.145  0.0812  1.0137  0.3330
   31MOL0     C 4203   0.666   8.031   3.025  0.4368  0.0236 -0.0422
   31MOL0     C 4204   0.526   8.063   2.998 -0.3191 -0.7238 -0.6013
   31MOL0     C 4205   0.409   8.090   2.979  0.5859 -0.2083  0.6518
   31MOL0     C 4206   1.045   8.138   2.985  0.1596  0.1862  1.0524
   31MOL0     C 4207   1.108   8.190   2.870 -0.4021  0.8156  0.0672
   31MOL0     C 4208   1.030   8.280   2.771  0.0298 -0.8941  0.4183
   31MOL0     H 4209   1.729   8.174   2.750  0.0762 -0.5067  0.0975
   31MOL0     H 4210   1.885   8.083   2.576  0.6886  1.9150 -1.2924
   31MOL0     H 4211   1.684   7.905   2.196  1.5138  0.8831 -0.3857
   31MOL0     H 4212   1.724   7.799   2.334  0.2034  1.3323  1.5959
   31MOL0     H 4213   1.839   7.727   2.118 -2.1399 -0.6828  2.1003
   31MOL0     H 4214   1.902   7.887   2.089  0.0026 -0.4726 -1.0320
   31MOL0     H 4215   2.049   7.879   2.273 -1.1225  2.0091 -4.0865
   31MOL0     H 4216   1.976   7.726   2.332  2.4490 -2.1410 -0.0127
   31MOL0     H 4217   2.053   7.635   2.100 -1.7434  1.4884  0.2440
   31MOL0     H 4218   2.135   7.792   2.076  0.9438  0.2459  0.5541
   31MOL0     H 4219   2.184   7.570   2.269 -0.7738 -0.2798 -1.7064
   31MOL0     H 4220   2.267   7.731   2.287 -1.5442  2.5517 -0.2629
   31MOL0     H 4221   2.382   7.696   2.073 -1.1445 -1.1717 -1.7397
   31MOL0     H 4222   2.402   7.554   2.180 -1.3779  0.4696  2.7321
   31MOL0     H 4223   2.214   7.548   1.940  0.1602  0.2111 -0.5670
   31MOL0     H 4224   2.223   7.429   2.066 -3.0693 -0.4536 -3.4086
   31MOL0     H 4225   2.358   7.371   1.867 -2.1258 -2.1546  2.5236
   31MOL0     H 4226   2.470   7.512   1.918 -0.4303  1.6084  3.3551
   31MOL0     H 4227   2.659   7.440   2.032 -0.3120  0.9619  1.9012
   31MOL0     H 4228   2.805   7.120   2.167 -2.1145 -1.0022 -0.7286
   31MOL0     H 4229   2.721   7.154   2.312  1.7754  0.7489  0.4870
   31MOL0     H 4230   2.908   7.351   2.165  0.4446  0.4236  0.9141
   31MOL0     H 4231   2.804   7.388   2.298  1.7570  1.0256  0.4595
   31MOL0     H 4232   3.040   7.343   2.367 -0.7810  0.4203 -3.1421
   31MOL0     H 4233   2.926   7.241   2.454 -2.2670  1.4776  1.0255
   31MOL0     H 4234   2.994   7.044   2.306 -2.4444  1.4434  0.3854
   31MOL0     H 4235   3.076   7.157   2.198 -1.1169 -0.3664  0.5461
   31MOL0     H 4236   3.366   7.144   2.534  0.1652 -1.7978  0.6027
   31MOL0     H 4237   3.688   6.986   2.503 -1.6714 -1.1908  0.6205
   31MOL0     H 4238   3.605   7.115   2.599 -0.0615  1.1933 -0.0096
   31MOL0     H 4239   3.695   7.171   2.475  1.9670 -1.0518  0.8855
   31MOL0     H 4240   3.984   7.163   2.242 -3.9697 -2.6005  1.1727
   31MOL0     H 4241   4.221   7.076   2.279 -0.3706  0.8660  0.4868
   31MOL0     H 4242   4.398   6.700   2.411 -0.4567  1.5956 -0.9319
   31MOL0     H 4243   4.225   6.636   2.406 -2.2976  0.2992 -1.4555
   31MOL0     H 4244   4.359   6.486   2.281 -1.1812  0.2584 -0.3075
   31MOL0     H 4245   4.270   6.585   2.160 -0.2631 -0.1456  0.1764
   31MOL0     H 4246   4.510   6.722   2.205 -3.7046  1.9291 -3.6299
   31MOL0     H 4247   4.452   6.651   2.065 -3.0196 -0.1315  0.5250
   31MOL0     H 4248   4.554   6.440   2.098  0.7975  0.5350 -1.0783
   31MOL0     H 4249   4.584   6.463   2.271  1.6557  0.6895  0.5618
   31MOL0     H 4250   4.713   6.624   2.051  1.1177  1.0732  0.9677
   31MOL0     H 4251   4.744   6.639   2.228 -0.0788 -2.6842  2.5735
   31MOL0     H 4252   4.809   6.393   2.087 -1.2543  2.0415 -1.2861
   31MOL0     H 4253   4.833   6.442   2.258  1.7940  1.2568  0.3719
   31MOL0     H 4254   4.995   6.624   2.184  1.1199 -0.3635 -0.3780
   31MOL0     H 4255   4.950   6.588   2.014 -2.8861 -0.8491 -0.7059
   31MOL0     H 4256   5.083   6.423   2.222  2.2217 -0.2014 -0.4657
   31MOL0     H 4257   5.164   6.510   2.087  0.7736 -0.5227 -1.9934
   31MOL0     H 4258   4.078   6.678   2.281  3.3903  0.0695  0.8296
   31MOL0     H 4259   3.844   6.768   2.222  0.2772 -0.0283  1.9585
   31MOL0     H 4260   3.394   6.893   2.120 -3.1654 -0.4165  0.9392
   31MOL0     H 4261   3.200   6.979   2.192  0.6226 -2.7327  0.9208
   31MOL0     H 4262   1.529   8.005   2.322  0.5734  0.5145 -0.2948
   31MOL0     H 4263   1.388   8.081   2.509 -0.6950 -0.1524  0.9138
   31MOL0     H 4264   1.424   8.097   2.961 -0.3893 -0.1531 -1.7597
   31MOL0     H 4265   1.310   7.992   3.136 -3.0599 -1.8033  1.7370
   31MOL0     H 4266   0.904   8.017   3.328  0.9105  0.7639  0.8619
   31MOL0     H 4267   0.888   8.132   3.204  0.5935 -0.0088  0.5688
   31MOL0     H 4268   0.870   7.828   3.200 -0.2990  0.3363  0.2446
   31MOL0     H 4269   0.889   7.904   3.046  0.6701  0.1767 -0.0194
   31MOL0     H 4270   0.656   7.843   3.128  0.9736  0.7493 -0.4643
   31MOL0     H 4271   0.679   7.987   3.243 -1.9618  1.2220 -0.1437
   31MOL0     H 4272   0.699   7.968   2.941  3.6389  2.3938 -0.7581
   31MOL0     H 4273   0.725   8.123   3.030 -0.8851  1.0719 -2.3470
   31MOL0     H 4274   0.311   8.125   2.954  0.1590  0.1509  2.6604
   31MOL0     H 4275   0.939   8.163   2.989  0.2108  0.3376  4.2569
   31MOL0     H 4276   1.082   8.376   2.768 -0.6340 -0.3600  3.1938
   31MOL0     H 4277   1.026   8.239   2.670  3.4163  0.3693 -0.3453
   31MOL0     H 4278   0.930   8.305   2.807  0.0615  0.5398 -0.4169
   32MOL0     O 4279   3.536   0.396  10.379 -0.5118  0.1732  0.0955
   32MOL0     C 4280   3.590   0.350  10.280  0.4417 -0.1130 -0.0878
   32MOL0     O 4281   3.694   0.261  10.278 -0.1508  0.7645 -0.4828
   32MOL0     C 4282   3.720   0.191  10.397 -0.6520 -0.9909  0.2127
   32MOL0     C 4283   3.846   0.181  10.444 -0.3456  0.0652 -0.1863
   32MOL0     C 4284   3.871   0.116  10.563 -0.1948 -0.2691 -0.1676
   32MOL0     C 4285   3.772   0.058  10.648  0.2795  0.0969 -0.0301
   32MOL0     O 4286   3.807   0.025  10.777  0.6670  0.3663  0.0899
   32MOL0     C 4287   3.739  -0.081  10.837 -0.1507  0.5393  0.4916
   32MOL0     C 4288   3.628  -0.026  10.931  0.3939 -0.6645 -0.2424
   32MOL0     C 4289   3.674   0.058  11.054 -0.0332  0.4340  0.4964
   32MOL0     C 4290   3.548   0.137  11.124 -0.7986  0.8025  0.4796
   32MOL0     C 4291   3.600   0.248  11.213  0.2200 -0.8556 -0.3722
   32MOL0     C 4292   3.666   0.210  11.340 -0.5778  0.6465 -0.1365
   32MOL0     C 4293   3.744   0.325  11.415  0.1199  0.7226 -0.1524
   32MOL0     C 4294   3.850   0.264  11.509 -1.4927  0.1697 -0.9510
   32MOL0     N 4295   3.966   0.215  11.433  0.4488  0.1662  0.3955
   32MOL0     C 4296   4.050   0.291  11.354  0.1402 -0.6301 -0.1306
   32MOL0     C 4297   4.123   0.200  11.291 -0.6251 -0.1232  0.5269
   32MOL0     C 4298   4.241   0.239  11.199  0.6647 -0.3883 -0.0900
   32MOL0     C 4299   4.370   0.158  11.229 -0.0063  0.4518 -0.9725
   32MOL0     C 4300   4.354   0.009  11.192  0.5829  0.1249 -0.5725
   32MOL0     C 4301   4.475  -0.068  11.222 -0.9217  0.1177 -0.2153
   32MOL0     O 4302   4.485  -0.085  11.365  0.2195  0.3629  0.2863
   32MOL0     C 4303   4.562   0.004  11.440  0.3012 -0.7464  0.2399
   32MOL0     C 4304   4.664   0.089  11.401 -1.6568 -0.1497  0.8467
   32MOL0     C 4305   4.727   0.179  11.503  0.7951  0.3630 -0.1821
   32MOL0     C 4306   4.852   0.246  11.458  0.4456 -0.0219 -0.2811
   32MOL0     C 4307   4.672   0.184  11.634  0.0812 -0.4184 -0.2354
   32MOL0     C 4308   4.727   0.283  11.740  0.1074  0.7037  0.6738
   32MOL0     O 4309   4.665   0.278  11.863 -0.3385 -0.7918 -0.6725
   32MOL0     C 4310   4.714   0.353  11.968 -0.0121 -0.5936  0.3673
   32MOL0     C 4311   4.650   0.472  12.000  0.6942 -1.0293 -0.4701
   32MOL0     C 4312   4.694   0.545  12.112  0.6969  0.4907 -0.2883
   32MOL0     C 4313   4.800   0.493  12.193 -0.2864  0.1125 -0.1483
   32MOL0     O 4314   4.856   0.566  12.294  0.1274 -0.6692  0.3570
   32MOL0     C 4315   4.776   0.612  12.405  0.1361 -0.2340 -0.1893
   32MOL0     C 4316   4.713   0.491  12.475 -0.1168 -0.1379 -0.3151
   32MOL0     C 4317   4.624   0.518  12.596  0.3220 -0.1516  0.1692
   32MOL0     C 4318   4.606   0.382  12.671 -0.5946 -0.0081  0.3348
   32MOL0     C 4319   4.458   0.354  12.711  0.3505 -0.1214 -0.0899
   32MOL0     C 4320   4.403   0.448  12.827 -0.9610  0.3926  0.6435
   32MOL0     C 4321   4.262   0.414  12.874 -0.0833 -0.4506 -0.2953
   32MOL0     C 4322   4.191   0.501  12.969  0.7909 -0.0438 -0.5332
   32MOL0    Cl 4323   4.015   0.457  12.974 -0.2795 -0.1573 -0.3796
   32MOL0     C 4324   4.864   0.372  12.161  0.2044  0.1978  0.6070
   32MOL0     C 4325   4.818   0.301  12.047  0.5786 -0.7112  0.1791
   32MOL0     O 4326   4.827   0.355  11.721  0.2798 -0.1013 -0.4812
   32MOL0     C 4327   4.570   0.094  11.669  0.4497 -0.1258  0.5076
   32MOL0     C 4328   4.514   0.005  11.572  0.1381 -0.5184 -0.3181
   32MOL0     N 4329   4.076   0.074  11.318 -0.5296 -0.1357  1.0079
   32MOL0     N 4330   3.985   0.084  11.399  0.3550  0.6801 -0.1173
   32MOL0     C 4331   3.648   0.051  10.599  0.3551 -0.5373  0.1675
   32MOL0     C 4332   3.622   0.125  10.478 -0.9287 -0.6179  0.7960
   32MOL0     C 4333   3.538   0.388  10.147  0.3903  0.7261 -0.5343
   32MOL0     C 4334   3.593   0.321  10.031  0.2245 -0.0220  0.7751
   32MOL0     C 4335   3.547   0.353   9.903  0.3719  0.9407 -0.7735
   32MOL0     C 4336   3.444   0.448   9.895 -0.4262 -0.9995  0.0890
   32MOL0     O 4337   3.387   0.484   9.778 -0.2487 -0.7299  1.3190
   32MOL0     C 4338   3.467   0.468   9.658 -0.0814  0.0560  0.2940
   32MOL0     C 4339   3.398   0.537   9.540  0.8978 -0.0037 -0.2110
   32MOL0     C 4340   3.499   0.620   9.459 -0.1309  0.3956 -0.6479
   32MOL0     C 4341   3.430   0.671   9.338  0.3437  0.1166  0.5248
   32MOL0     C 4342   3.519   0.667   9.222  0.4292  0.2448 -0.7872
   32MOL0     C 4343   3.588   0.649   9.124  0.2389  0.6781 -0.1934
   32MOL0     C 4344   3.400   0.518  10.010  0.3598  0.2859  0.1375
   32MOL0     C 4345   3.446   0.493  10.136 -0.5428 -0.2836  0.0494
   32MOL0     C 4346   3.400   0.594  10.245  0.5887  0.3122  0.3462
   32MOL0     H 4347   3.931   0.235  10.404  0.1572  0.6614  1.5838
   32MOL0     H 4348   3.974   0.093  10.590 -0.3611  1.0080  1.7834
   32MOL0     H 4349   3.817  -0.135  10.891  2.5277  1.2475 -2.3959
   32MOL0     H 4350   3.696  -0.157  10.771 -0.4137  1.7394 -0.7436
   32MOL0     H 4351   3.557   0.030  10.869  0.6597 -1.2129 -1.0714
   32MOL0     H 4352   3.584  -0.118  10.969 -1.6967 -0.7112 -2.4948
   32MOL0     H 4353   3.726  -0.007  11.125 -1.0488  0.1044  0.9653
   32MOL0     H 4354   3.753   0.121  11.012 -0.4679 -0.8863 -2.6084
   32MOL0     H 4355   3.490   0.180  11.042  0.1648 -1.8134 -1.7205
   32MOL0     H 4356   3.482   0.079  11.190 -2.0004  0.9969 -0.5311
   32MOL0     H 4357   3.512   0.304  11.246  0.8447 -0.3450  0.4379
   32MOL0     H 4358   3.671   0.314  11.162 -0.4213  1.4690  1.6065
   32MOL0     H 4359   3.595   0.149  11.397 -0.8981 -0.0410 -1.2245
   32MOL0     H 4360   3.746   0.144  11.303 -1.4428  0.3320 -1.5266
   32MOL0     H 4361   3.664   0.365  11.478  0.8509 -1.8595  2.6623
   32MOL0     H 4362   3.779   0.403  11.348 -0.1712 -0.6027 -1.9291
   32MOL0     H 4363   3.883   0.342  11.579 -0.8561  0.0729 -1.1406
   32MOL0     H 4364   3.810   0.181  11.568  1.6202  0.4980  1.8984
   32MOL0     H 4365   4.050   0.399  11.342  2.0677 -0.8127 -2.4952
   32MOL0     H 4366   4.264   0.344  11.215 -1.2400  0.0736 -0.1626
   32MOL0     H 4367   4.212   0.224  11.095  0.7203 -0.3418 -0.1123
   32MOL0     H 4368   4.455   0.198  11.172  1.2035 -2.3676 -1.3379
   32MOL0     H 4369   4.379   0.163  11.338 -1.4086  0.8020 -0.8549
   32MOL0     H 4370   4.277  -0.043  11.249  1.0807 -0.8859 -0.8002
   32MOL0     H 4371   4.318  -0.013  11.091 -0.2976 -2.8158  0.2717
   32MOL0     H 4372   4.446  -0.167  11.185 -0.5715 -0.3990  0.8465
   32MOL0     H 4373   4.572  -0.043  11.178  0.5985 -4.8730 -0.3626
   32MOL0     H 4374   4.718   0.081  11.307  1.5856 -1.5856  2.6510
   32MOL0     H 4375   4.821   0.331  11.396 -3.8795 -0.4199  0.9949
   32MOL0     H 4376   4.920   0.184  11.399  1.8321  1.3555 -0.2200
   32MOL0     H 4377   4.918   0.276  11.540  0.1575 -1.7614  0.6189
   32MOL0     H 4378   4.572   0.495  11.928  1.0465 -4.1537 -2.0271
   32MOL0     H 4379   4.653   0.644  12.130  1.4194  1.2077 -2.3015
   32MOL0     H 4380   4.839   0.672  12.472 -0.6289  0.1699  0.1868
   32MOL0     H 4381   4.697   0.682  12.375 -0.0075 -0.2549  0.1306
   32MOL0     H 4382   4.658   0.429  12.403 -0.9637 -1.0938  1.1041
   32MOL0     H 4383   4.797   0.429  12.508  0.1856  0.5667  0.2540
   32MOL0     H 4384   4.535   0.572  12.560  1.6253  1.0817 -1.3494
   32MOL0     H 4385   4.664   0.592  12.666  1.9437  0.4479 -1.3157
   32MOL0     H 4386   4.677   0.374  12.754  0.3613  1.4316 -0.3163
   32MOL0     H 4387   4.636   0.297  12.608 -0.9401  1.6255 -2.1534
   32MOL0     H 4388   4.406   0.375  12.617 -3.1746 -1.3430  1.4117
   32MOL0     H 4389   4.448   0.247  12.732  5.3459 -1.0812 -1.3078
   32MOL0     H 4390   4.406   0.550  12.787 -0.6397 -0.0734 -0.5495
   32MOL0     H 4391   4.480   0.449  12.905  3.0013  1.9716 -2.9180
   32MOL0     H 4392   4.260   0.315  12.921  2.0077 -0.0149  0.8371
   32MOL0     H 4393   4.202   0.414  12.783  2.9263  2.7596 -2.5694
   32MOL0     H 4394   4.197   0.607  12.941  0.5941 -0.1352 -0.9343
   32MOL0     H 4395   4.239   0.494  13.067 -0.6032 -1.8290  0.0914
   32MOL0     H 4396   4.949   0.341  12.221  0.1571 -1.3519 -0.0948
   32MOL0     H 4397   4.863   0.206  12.022 -0.2598 -1.3476  1.0000
   32MOL0     H 4398   4.534   0.081  11.771  2.1234 -4.7442  0.7734
   32MOL0     H 4399   4.439  -0.067  11.601  1.3728 -1.0734  1.7043
   32MOL0     H 4400   3.565  -0.001  10.645  0.0900  1.1414  1.7382
   32MOL0     H 4401   3.518   0.145  10.454 -0.2352  1.4759 -0.7886
   32MOL0     H 4402   3.670   0.246  10.038  1.6287  1.0350 -2.0977
   32MOL0     H 4403   3.590   0.303   9.817 -0.4782  1.5584 -1.5821
   32MOL0     H 4404   3.570   0.504   9.666  0.1492  0.0795 -2.0284
   32MOL0     H 4405   3.477   0.360   9.646 -0.0487 -0.0811  1.4982
   32MOL0     H 4406   3.310   0.592   9.573 -0.6369 -1.6508 -1.3385
   32MOL0     H 4407   3.359   0.461   9.472  0.8313 -0.6038  0.4835
   32MOL0     H 4408   3.530   0.712   9.508  0.5704 -1.1308  1.9485
   32MOL0     H 4409   3.581   0.552   9.433  0.5400  1.4214 -1.2894
   32MOL0     H 4410   3.403   0.775   9.357  0.7805  0.2440  0.4706
   32MOL0     H 4411   3.343   0.610   9.314 -0.2283  1.1332 -0.0472
   32MOL0     H 4412   3.636   0.628   9.030 -1.6197 -2.8756 -0.5152
   32MOL0     H 4413   3.328   0.596   9.987 -0.7028 -1.1739 -1.7079
   32MOL0     H 4414   3.378   0.687  10.191  1.0594 -1.4034 -3.0902
   32MOL0     H 4415   3.309   0.576  10.303  1.1256 -1.1433  0.7733
   32MOL0     H 4416   3.481   0.619  10.315  0.8606 -0.0343  0.1618
   33MOL0     O 4417  11.064   8.959   0.862 -0.4460  0.3071 -0.0150
   33MOL0     C 4418  11.068   9.084   0.870  0.0284  0.0952  1.2750
   33MOL0     O 4419  11.184   9.161   0.901  0.7627 -0.4363 -0.1733
   33MOL0     C 4420  11.301   9.106   0.947  0.0548  0.3377  0.0373
   33MOL0     C 4421  11.410   9.191   0.950 -0.1119 -0.1446 -1.1411
   33MOL0     C 4422  11.540   9.150   0.948 -0.0957 -0.0774  0.3798
   33MOL0     C 4423  11.572   9.020   0.951 -0.3911  0.4790  0.7253
   33MOL0     O 4424  11.701   8.991   0.958 -0.5311  0.1841 -0.2923
   33MOL0     C 4425  11.743   8.874   0.890 -0.2086 -0.1275 -0.4846
   33MOL0     C 4426  11.785   8.767   0.990 -0.5175 -0.3600  0.5733
   33MOL0     C 4427  11.821   8.623   0.938  0.5113 -0.8089 -0.2732
   33MOL0     C 4428  11.963   8.617   0.886 -0.3759  0.8081 -0.5237
   33MOL0     C 4429  11.997   8.478   0.839 -0.7100 -0.3637  0.3994
   33MOL0     C 4430  12.142   8.467   0.780 -0.9470 -0.4271 -0.4043
   33MOL0     C 4431  12.171   8.310   0.766 -0.0487  0.1766 -0.3884
   33MOL0     C 4432  12.180   8.228   0.895  0.3995  0.8235  0.8909
   33MOL0     N 4433  12.250   8.100   0.864  0.3199 -0.1239  0.4984
   33MOL0     C 4434  12.349   8.047   0.936 -0.1455  0.7630 -0.3497
   33MOL0     C 4435  12.402   7.955   0.850 -0.2493  1.0109 -0.4491
   33MOL0     C 4436  12.522   7.875   0.888  0.9613  0.8171  0.3961
   33MOL0     C 4437  12.623   7.853   0.771 -0.4395 -0.4978  0.3488
   33MOL0     C 4438  12.666   7.977   0.699  0.5465  0.2622 -0.6866
   33MOL0     C 4439  12.802   7.972   0.612  0.3491 -1.1957 -0.1033
   33MOL0     O 4440  12.906   7.949   0.706 -0.3624 -0.2138 -0.4827
   33MOL0     C 4441  12.981   7.841   0.689 -0.3861  0.3458  0.2832
   33MOL0     C 4442  12.994   7.749   0.789 -0.1023  0.6913  0.5138
   33MOL0     C 4443  13.066   7.625   0.779  0.6040 -0.0637 -0.4783
   33MOL0     C 4444  13.094   7.548   0.905  0.1907 -0.5565  0.8034
   33MOL0     C 4445  13.128   7.593   0.662 -0.5929 -0.1002  0.1280
   33MOL0     C 4446  13.234   7.480   0.643 -0.0807 -0.5999  0.4547
   33MOL0     O 4447  13.338   7.473   0.732  0.3388  0.5667  0.2610
   33MOL0     C 4448  13.421   7.372   0.693 -0.9431  0.3067 -0.8436
   33MOL0     C 4449  13.535   7.412   0.624  0.0216  0.1923 -0.5454
   33MOL0     C 4450  13.632   7.319   0.586  0.7097  0.2118  0.8625
   33MOL0     C 4451  13.616   7.175   0.605  0.6072 -0.3771 -0.9907
   33MOL0     O 4452  13.707   7.078   0.579  0.4338  0.2569 -0.3661
   33MOL0     C 4453  13.818   7.108   0.486  1.1516  0.2976 -1.1815
   33MOL0     C 4454  13.885   6.975   0.451  0.2174 -0.3301 -0.0571
   33MOL0     C 4455  13.988   6.992   0.340 -0.0917  0.0503 -0.5395
   33MOL0     C 4456  14.071   6.860   0.340  0.2071 -0.5185  0.2068
   33MOL0     C 4457  14.164   6.868   0.227  0.0699  0.8707  1.0294
   33MOL0     C 4458  14.252   6.743   0.240 -0.8737 -0.0465 -0.3969
   33MOL0     C 4459  14.368   6.751   0.147  0.1598  0.2632  0.1842
   33MOL0     C 4460  14.467   6.858   0.178  0.4859 -0.4152  0.0579
   33MOL0    Cl 4461  14.635   6.809   0.113 -0.2384 -0.2791 -0.0017
   33MOL0     C 4462  13.498   7.137   0.667  0.5251 -0.6980 -0.0326
   33MOL0     C 4463  13.409   7.231   0.719  0.2003  0.2376  0.4516
   33MOL0     O 4464  13.218   7.413   0.537  0.4550 -0.0509  0.5041
   33MOL0     C 4465  13.115   7.685   0.552  1.0473 -0.1161  0.4755
   33MOL0     C 4466  13.034   7.804   0.561 -0.1104 -0.0210  1.4491
   33MOL0     N 4467  12.324   7.959   0.733  0.7659 -0.3750 -0.7464
   33MOL0     N 4468  12.225   8.037   0.748  0.4340 -0.2810 -0.2580
   33MOL0     C 4469  11.466   8.923   0.967  1.0048 -0.7078 -1.1467
   33MOL0     C 4470  11.331   8.966   0.964 -0.1416  0.2412  0.6040
   33MOL0     C 4471  10.935   9.152   0.862 -0.6538 -0.0462 -0.5911
   33MOL0     C 4472  10.917   9.270   0.934  0.0529  1.4585  0.0243
   33MOL0     C 4473  10.792   9.329   0.941  0.8496  0.9193  0.6753
   33MOL0     C 4474  10.678   9.279   0.875  0.1343  0.8347 -0.5539
   33MOL0     O 4475  10.551   9.339   0.882 -0.0529  0.5406  0.4197
   33MOL0     C 4476  10.433   9.255   0.896 -0.1478 -0.0114  0.1144
   33MOL0     C 4477  10.426   9.148   1.009 -0.6357 -0.0692 -0.7471
   33MOL0     C 4478  10.296   9.069   1.006 -0.3489  0.3743  0.2141
   33MOL0     C 4479  10.313   8.927   0.962  0.2853  0.7391  0.6315
   33MOL0     C 4480  10.373   8.919   0.823  0.9373  0.6317 -0.9535
   33MOL0     C 4481  10.422   8.910   0.711  0.8284  0.2545 -1.3032
   33MOL0     C 4482  10.695   9.164   0.796 -0.5136 -0.3026 -0.6182
   33MOL0     C 4483  10.820   9.095   0.796  0.5964 -0.5297 -0.3505
   33MOL0     C 4484  10.824   8.977   0.698  0.2436 -0.1985 -0.5487
   33MOL0     H 4485  11.401   9.298   0.935 -0.4989 -0.4948 -3.8629
   33MOL0     H 4486  11.619   9.224   0.939 -0.4169  0.1190 -0.9961
   33MOL0     H 4487  11.837   8.896   0.840  1.4196 -4.6669  0.1169
   33MOL0     H 4488  11.675   8.830   0.817 -1.7821  1.0449  0.2053
   33MOL0     H 4489  11.871   8.803   1.046  0.4395 -0.1741 -0.9597
   33MOL0     H 4490  11.703   8.750   1.061  1.7876 -1.5351  3.1668
   33MOL0     H 4491  11.810   8.565   1.029 -1.3963  0.5241  0.4096
   33MOL0     H 4492  11.748   8.590   0.864 -1.4209  2.1933  0.1125
   33MOL0     H 4493  11.982   8.694   0.811 -1.3007  1.0046 -0.5674
   33MOL0     H 4494  12.031   8.651   0.965  1.3970 -0.8664 -1.2688
   33MOL0     H 4495  11.925   8.452   0.761 -1.4852 -2.4806  1.7373
   33MOL0     H 4496  11.983   8.407   0.922 -2.3615 -0.6590 -0.1086
   33MOL0     H 4497  12.149   8.523   0.686 -1.7529 -1.5975 -1.2061
   33MOL0     H 4498  12.215   8.509   0.849  0.5615 -1.9447 -1.0051
   33MOL0     H 4499  12.268   8.313   0.716 -0.9295  0.5236 -2.1358
   33MOL0     H 4500  12.094   8.274   0.698 -2.0744  0.9789  1.3389
   33MOL0     H 4501  12.229   8.284   0.975 -0.6249 -1.4606  3.2248
   33MOL0     H 4502  12.081   8.205   0.935  1.5270 -2.3539  2.1491
   33MOL0     H 4503  12.371   8.094   1.032  0.3347 -1.1629  0.5302
   33MOL0     H 4504  12.499   7.771   0.912  0.3521  0.9368  0.3452
   33MOL0     H 4505  12.569   7.921   0.976  0.2672 -1.0933  1.8572
   33MOL0     H 4506  12.709   7.803   0.818  0.8080  3.2652  2.5235
   33MOL0     H 4507  12.577   7.780   0.704 -1.8015  0.6604 -0.0269
   33MOL0     H 4508  12.590   8.004   0.625  1.7711  3.3348 -1.0054
   33MOL0     H 4509  12.670   8.060   0.770 -0.8576  0.6297 -0.9980
   33MOL0     H 4510  12.800   7.896   0.533 -1.2249 -1.1065 -0.1969
   33MOL0     H 4511  12.817   8.066   0.557  0.4564 -0.8248  0.5516
   33MOL0     H 4512  12.950   7.776   0.884 -0.6846 -1.8812  1.0660
   33MOL0     H 4513  13.096   7.441   0.884  1.5707 -0.7792  1.9718
   33MOL0     H 4514  13.009   7.586   0.964  0.2386  3.1043 -1.1916
   33MOL0     H 4515  13.186   7.582   0.953 -0.6213  1.3907  1.0795
   33MOL0     H 4516  13.557   7.516   0.602 -1.1077  0.3928 -0.7546
   33MOL0     H 4517  13.714   7.363   0.531 -1.0472  2.3598 -0.1649
   33MOL0     H 4518  13.793   7.160   0.394 -0.3031 -1.7072 -2.0000
   33MOL0     H 4519  13.882   7.176   0.542  1.6378 -1.0011 -0.0967
   33MOL0     H 4520  13.917   6.934   0.547 -1.2341 -2.2788 -0.3344
   33MOL0     H 4521  13.804   6.910   0.415 -0.1390  0.4509 -0.6942
   33MOL0     H 4522  14.041   7.086   0.354 -0.9999  0.7367 -1.5720
   33MOL0     H 4523  13.943   7.006   0.241 -0.5730  1.6276 -0.1137
   33MOL0     H 4524  14.002   6.777   0.321  1.7366 -1.9574  0.7015
   33MOL0     H 4525  14.120   6.860   0.438 -0.7318 -1.4787  0.7029
   33MOL0     H 4526  14.115   6.866   0.129  2.3978 -2.6073 -0.2780
   33MOL0     H 4527  14.217   6.963   0.223  1.2792  0.3032  2.3504
   33MOL0     H 4528  14.196   6.649   0.235 -0.1761 -0.4211 -1.9386
   33MOL0     H 4529  14.302   6.745   0.337 -0.1257  0.4483 -0.7830
   33MOL0     H 4530  14.342   6.765   0.041 -0.2665 -1.0841  0.0837
   33MOL0     H 4531  14.420   6.654   0.149 -0.1845  0.0457 -0.7554
   33MOL0     H 4532  14.470   6.871   0.286 -3.5921 -1.5497  0.4417
   33MOL0     H 4533  14.442   6.954   0.132  1.6933 -0.4593 -0.7367
   33MOL0     H 4534  13.472   7.035   0.640  1.1103 -0.1000 -3.2101
   33MOL0     H 4535  13.313   7.200   0.758 -0.9306  1.6661 -1.0019
   33MOL0     H 4536  13.163   7.664   0.457 -3.3788  1.4724 -2.4373
   33MOL0     H 4537  13.011   7.873   0.481 -1.7806 -0.9222  1.1019
   33MOL0     H 4538  11.473   8.816   0.988  0.9443 -1.0742 -2.8319
   33MOL0     H 4539  11.260   8.884   0.978  2.3830 -1.8685  1.9032
   33MOL0     H 4540  10.991   9.321   0.993 -0.3274  0.8952  1.0078
   33MOL0     H 4541  10.773   9.414   1.006  1.1224  0.6699  1.0902
   33MOL0     H 4542  10.342   9.312   0.918 -1.4282 -1.7304 -0.4593
   33MOL0     H 4543  10.406   9.208   0.801  2.0828  0.2633 -0.7153
   33MOL0     H 4544  10.434   9.209   1.100  1.5588 -1.2759 -0.0519
   33MOL0     H 4545  10.517   9.088   1.002 -1.5554 -1.9140  1.6484
   33MOL0     H 4546  10.263   9.064   1.110 -0.8756 -1.7474 -0.0086
   33MOL0     H 4547  10.217   9.116   0.947 -0.8865  1.7997  1.9692
   33MOL0     H 4548  10.222   8.867   0.968  0.0522  0.9983 -0.1684
   33MOL0     H 4549  10.386   8.892   1.036  0.9681  1.8963  0.5264
   33MOL0     H 4550  10.472   8.900   0.616  2.9404 -0.1125 -0.2130
   33MOL0     H 4551  10.607   9.134   0.739 -0.7617  2.0954 -1.6042
   33MOL0     H 4552  10.908   9.002   0.632  1.3206 -0.4397  0.6955
   33MOL0     H 4553  10.836   8.877   0.741  2.3905  0.4263  0.4457
   33MOL0     H 4554  10.731   8.979   0.641 -1.1841 -2.5234  1.4930
   34MOL0     O 4555   1.027   4.670   9.209 -0.7554  0.5149 -0.1523
   34MOL0     C 4556   1.043   4.744   9.111 -0.0219  0.2104  0.0011
   34MOL0     O 4557   1.144   4.726   9.012  0.2596 -0.2072  0.0161
   34MOL0     C 4558   1.232   4.635   9.053 -0.9624 -0.2412  0.1635
   34MOL0     C 4559   1.218   4.499   9.005  0.1179 -0.1919  1.0599
   34MOL0     C 4560   1.301   4.405   9.059 -0.7450 -0.7786  0.3977
   34MOL0     C 4561   1.412   4.438   9.136 -0.0217 -1.1713 -0.1556
   34MOL0     O 4562   1.500   4.346   9.178 -0.5767 -0.2050  0.7938
   34MOL0     C 4563   1.545   4.336   9.312 -0.8833  0.5065 -1.1633
   34MOL0     C 4564   1.612   4.198   9.338  0.1278  0.0534  0.0757
   34MOL0     C 4565   1.661   4.190   9.480 -0.4719 -0.1568 -0.0009
   34MOL0     C 4566   1.715   4.056   9.505 -0.0730 -0.3484  0.0922
   34MOL0     C 4567   1.767   4.051   9.647 -0.5761 -0.2387 -0.4019
   34MOL0     C 4568   1.846   3.931   9.690 -0.4391  0.6911  0.0679
   34MOL0     C 4569   1.770   3.804   9.721 -0.1000 -0.2059  0.6697
   34MOL0     C 4570   1.654   3.811   9.828 -0.0870 -0.4453  0.1935
   34MOL0     N 4571   1.523   3.839   9.758 -0.4061 -0.1896  0.8774
   34MOL0     C 4572   1.450   3.755   9.677 -0.2115  0.2357 -0.5523
   34MOL0     C 4573   1.343   3.837   9.657  0.2542  0.3106  0.1864
   34MOL0     C 4574   1.229   3.785   9.564  0.1395 -0.0906 -0.5215
   34MOL0     C 4575   1.164   3.898   9.474  0.9118 -0.5510 -0.8762
   34MOL0     C 4576   1.269   3.970   9.386 -0.0311 -0.2338  0.0007
   34MOL0     C 4577   1.219   4.073   9.297  0.1094 -0.1753 -0.5204
   34MOL0     O 4578   1.148   4.025   9.180 -0.0489 -0.1514  0.2808
   34MOL0     C 4579   1.058   4.114   9.121  1.2938  0.4054 -0.5830
   34MOL0     C 4580   0.958   4.056   9.033 -1.2581 -0.4632  0.4518
   34MOL0     C 4581   0.861   4.134   8.977  0.1499  0.3611 -0.3508
   34MOL0     C 4582   0.771   4.059   8.883 -0.1548 -0.1494 -0.4152
   34MOL0     C 4583   0.844   4.273   9.018 -0.1385  0.3985 -0.5951
   34MOL0     C 4584   0.738   4.369   8.965  0.1256 -0.5256  1.6121
   34MOL0     O 4585   0.708   4.474   9.041  0.3032  0.2458 -0.1987
   34MOL0     C 4586   0.598   4.554   9.010  0.3011 -0.2249  0.4665
   34MOL0     C 4587   0.622   4.677   8.940  0.0626 -0.1131  0.3901
   34MOL0     C 4588   0.511   4.753   8.893  0.3166  0.3117 -0.3882
   34MOL0     C 4589   0.383   4.710   8.925 -0.7923  0.0461  0.5239
   34MOL0     O 4590   0.276   4.776   8.871  0.2584  0.4856 -0.3460
   34MOL0     C 4591   0.252   4.898   8.929  0.3064  0.2785 -0.2001
   34MOL0     C 4592   0.105   4.934   8.896 -0.6380 -0.6459  0.2205
   34MOL0     C 4593   0.092   4.938   8.739  0.0674  0.5162 -0.7548
   34MOL0     C 4594  -0.008   5.063   8.720 -0.5814  0.0599  0.1714
   34MOL0     C 4595  -0.006   5.104   8.572  0.5518 -0.5012 -0.0358
   34MOL0     C 4596  -0.111   5.194   8.541 -0.7197  0.2316  0.4453
   34MOL0     C 4597  -0.089   5.275   8.410  0.9376 -0.0043 -0.7455
   34MOL0     C 4598  -0.205   5.364   8.386 -0.2475 -0.9060  0.4035
   34MOL0    Cl 4599  -0.368   5.301   8.416 -0.3991 -0.1199  0.5255
   34MOL0     C 4600   0.361   4.602   9.005 -0.9546  0.9841 -0.3070
   34MOL0     C 4601   0.474   4.524   9.048  0.1492  0.0321  0.5504
   34MOL0     O 4602   0.671   4.342   8.863  0.5151  0.6430 -0.9650
   34MOL0     C 4603   0.935   4.328   9.113  0.8621  0.2988 -0.1598
   34MOL0     C 4604   1.042   4.252   9.152  0.0915 -0.1299 -0.7746
   34MOL0     N 4605   1.347   3.952   9.723 -0.3706  0.3698  0.3301
   34MOL0     N 4606   1.460   3.957   9.786 -0.2721  0.0596 -0.3130
   34MOL0     C 4607   1.430   4.574   9.170 -0.3151 -0.3936  0.0299
   34MOL0     C 4608   1.333   4.666   9.144  0.6110 -0.1438  0.5739
   34MOL0     C 4609   0.944   4.855   9.070  0.3715  0.1329 -0.8046
   34MOL0     C 4610   0.954   4.918   8.944  0.9794 -0.0455 -0.2176
   34MOL0     C 4611   0.868   5.024   8.911 -0.3639  0.1248 -1.5283
   34MOL0     C 4612   0.760   5.054   8.998  0.0567 -0.1388  0.6029
   34MOL0     O 4613   0.688   5.163   8.957 -0.6006 -0.7856 -0.4016
   34MOL0     C 4614   0.550   5.171   8.979  0.5509  0.0764 -0.0216
   34MOL0     C 4615   0.478   5.291   8.922  0.1315 -0.4973  0.6591
   34MOL0     C 4616   0.326   5.283   8.916 -0.4287 -0.6569  0.0224
   34MOL0     C 4617   0.255   5.317   9.055 -1.1454  0.5321 -0.0193
   34MOL0     C 4618   0.113   5.318   9.050 -0.3863  0.6051  0.7858
   34MOL0     C 4619  -0.008   5.311   9.048  0.3040 -0.3605  0.5143
   34MOL0     C 4620   0.739   4.990   9.121 -0.5804  0.0637 -0.0049
   34MOL0     C 4621   0.831   4.893   9.157 -0.3238  0.7910  0.4171
   34MOL0     C 4622   0.798   4.835   9.293 -0.1743 -0.6795 -0.3678
   34MOL0     H 4623   1.136   4.481   8.937 -2.0158 -1.8205  3.8348
   34MOL0     H 4624   1.306   4.302   9.026 -1.6310 -0.3341 -1.1899
   34MOL0     H 4625   1.464   4.357   9.382 -0.1320  0.6270 -0.3197
   34MOL0     H 4626   1.625   4.408   9.333  0.1953 -1.4259  1.8940
   34MOL0     H 4627   1.537   4.119   9.344 -0.4218  0.4386 -1.4441
   34MOL0     H 4628   1.688   4.174   9.264  0.6883  2.3316 -0.1688
   34MOL0     H 4629   1.740   4.263   9.498 -0.5493  0.1524 -0.8356
   34MOL0     H 4630   1.575   4.209   9.545 -3.1035 -0.4282 -3.1362
   34MOL0     H 4631   1.638   3.978   9.498  0.6139 -1.0001 -0.5153
   34MOL0     H 4632   1.798   4.045   9.435 -1.4036 -1.2866 -1.4111
   34MOL0     H 4633   1.678   4.059   9.710 -3.1359  1.9885 -3.9479
   34MOL0     H 4634   1.828   4.135   9.681 -0.8676 -0.3097  0.3194
   34MOL0     H 4635   1.924   3.911   9.616  1.8039  2.8117  1.7022
   34MOL0     H 4636   1.902   3.953   9.782  0.9695  0.1965 -0.6470
   34MOL0     H 4637   1.842   3.735   9.766 -1.0538 -1.2238  0.6822
   34MOL0     H 4638   1.734   3.761   9.627 -0.4584 -0.3199  0.8559
   34MOL0     H 4639   1.655   3.713   9.876 -0.5647 -0.5661 -0.0390
   34MOL0     H 4640   1.676   3.881   9.908 -0.2590 -1.3074  1.0119
   34MOL0     H 4641   1.460   3.656   9.635 -3.5764 -0.0189 -0.9788
   34MOL0     H 4642   1.145   3.735   9.614 -0.3451 -1.7491 -2.8372
   34MOL0     H 4643   1.276   3.710   9.500  2.8115  0.0534  1.1294
   34MOL0     H 4644   1.086   3.857   9.409 -1.6105 -0.6003  1.9980
   34MOL0     H 4645   1.132   3.974   9.545  1.9455 -0.2782 -0.6865
   34MOL0     H 4646   1.349   4.015   9.446 -0.7477 -2.5305  2.9091
   34MOL0     H 4647   1.311   3.894   9.319  1.0870 -0.4996  0.9875
   34MOL0     H 4648   1.168   4.146   9.359 -0.3512 -0.5213 -0.4889
   34MOL0     H 4649   1.303   4.134   9.261 -0.2546  0.6314 -0.0145
   34MOL0     H 4650   0.974   3.952   9.003 -2.0503 -0.3709 -0.3423
   34MOL0     H 4651   0.759   3.961   8.929  0.1431  1.3533  3.2346
   34MOL0     H 4652   0.820   4.034   8.788  1.5523 -1.1887  0.6727
   34MOL0     H 4653   0.671   4.100   8.869 -1.0781 -1.9418  0.6893
   34MOL0     H 4654   0.726   4.707   8.937  0.2350 -0.7199  0.2103
   34MOL0     H 4655   0.530   4.846   8.841  1.7760  3.0874  4.4793
   34MOL0     H 4656   0.254   4.877   9.037  3.1827 -2.8576 -0.6975
   34MOL0     H 4657   0.327   4.974   8.904  2.3773 -1.8735 -0.9727
   34MOL0     H 4658   0.036   4.860   8.938 -1.6592  0.6555  0.9293
   34MOL0     H 4659   0.076   5.032   8.936  1.6604  0.5395 -0.8236
   34MOL0     H 4660   0.049   4.846   8.699  0.0465 -0.0159  0.4426
   34MOL0     H 4661   0.187   4.953   8.687  1.0623  0.2739  0.9189
   34MOL0     H 4662   0.008   5.155   8.776 -0.3588  1.2608 -1.7698
   34MOL0     H 4663  -0.108   5.031   8.751  0.0525 -0.5984  1.6032
   34MOL0     H 4664   0.092   5.154   8.567  1.1222 -1.3074  1.9237
   34MOL0     H 4665  -0.011   5.018   8.506 -2.1065 -0.6666  0.2911
   34MOL0     H 4666  -0.115   5.270   8.619  0.7832  0.4821  0.2969
   34MOL0     H 4667  -0.203   5.135   8.537 -0.6869  0.0804  1.6730
   34MOL0     H 4668  -0.078   5.207   8.326 -0.7738 -1.4984  0.1849
   34MOL0     H 4669  -0.002   5.342   8.410  2.7533 -2.1246  2.5778
   34MOL0     H 4670  -0.180   5.390   8.283  1.5302  0.6968  1.1862
   34MOL0     H 4671  -0.182   5.455   8.442  3.3550 -0.8753 -0.8850
   34MOL0     H 4672   0.256   4.588   9.031 -0.5222 -1.3656  0.3950
   34MOL0     H 4673   0.471   4.435   9.109  2.4694 -0.6616 -0.2666
   34MOL0     H 4674   0.927   4.434   9.137  0.3219 -0.0110  1.0884
   34MOL0     H 4675   1.126   4.304   9.197 -0.4517  1.9938 -2.0765
   34MOL0     H 4676   1.523   4.614   9.207  0.7664 -2.1774 -0.6534
   34MOL0     H 4677   1.337   4.767   9.182  2.1311 -0.9272  2.6933
   34MOL0     H 4678   1.032   4.895   8.873  1.8096  0.2124  0.5827
   34MOL0     H 4679   0.877   5.078   8.818  0.6890  1.9147 -0.4491
   34MOL0     H 4680   0.511   5.079   8.933  1.7783  0.1214 -1.2083
   34MOL0     H 4681   0.537   5.180   9.088 -2.2101 -1.4179 -0.1251
   34MOL0     H 4682   0.516   5.286   8.820  1.4196  1.0131  1.0315
   34MOL0     H 4683   0.502   5.389   8.964 -0.9499 -0.3917  1.0913
   34MOL0     H 4684   0.290   5.356   8.844  0.8061  0.2095  0.2597
   34MOL0     H 4685   0.309   5.181   8.879 -0.3092 -0.3305 -0.9558
   34MOL0     H 4686   0.284   5.416   9.090 -0.9465  0.4787 -0.0337
   34MOL0     H 4687   0.281   5.239   9.128 -3.8676 -1.8841 -1.4041
   34MOL0     H 4688  -0.115   5.316   9.043  0.4060  1.3636 -1.3064
   34MOL0     H 4689   0.658   5.019   9.186  0.1084  0.3788  0.7327
   34MOL0     H 4690   0.768   4.916   9.359  2.4441  0.2261 -0.1481
   34MOL0     H 4691   0.718   4.762   9.280 -3.4936  2.0219  2.8756
   34MOL0     H 4692   0.889   4.792   9.337  0.1766 -1.5741 -1.8750
   35MOL0     O 4693   2.641   4.614   4.075 -0.6483  0.6245 -0.9231
   35MOL0     C 4694   2.609   4.663   3.973  0.3303 -0.2353  0.9528
   35MOL0     O 4695   2.700   4.698   3.872  0.0184 -0.5464 -0.3588
   35MOL0     C 4696   2.832   4.669   3.901 -0.8621  0.4527 -0.4120
   35MOL0     C 4697   2.890   4.697   4.031 -0.9653  0.1546  0.5480
   35MOL0     C 4698   3.023   4.659   4.054  0.8614  0.0244 -0.3272
   35MOL0     C 4699   3.100   4.594   3.960  0.5578 -0.2206  0.0687
   35MOL0     O 4700   3.231   4.568   3.978 -0.8450  0.0545 -0.0298
   35MOL0     C 4701   3.311   4.689   3.967  0.4208  0.6516  0.2094
   35MOL0     C 4702   3.416   4.690   4.074 -0.4116 -0.3907 -0.7338
   35MOL0     C 4703   3.511   4.572   4.062 -0.0344 -0.1262 -0.3982
   35MOL0     C 4704   3.618   4.567   4.167  0.1376 -0.2581 -0.2367
   35MOL0     C 4705   3.687   4.437   4.173  0.3186  0.1459 -0.1394
   35MOL0     C 4706   3.733   4.381   4.041 -0.7079  0.1792 -0.8224
   35MOL0     C 4707   3.849   4.282   4.055  0.3318  0.1323  0.6216
   35MOL0     C 4708   3.816   4.156   4.136  0.4415  0.0754 -0.2174
   35MOL0     N 4709   3.691   4.085   4.085 -0.2968 -0.7528 -0.5310
   35MOL0     C 4710   3.695   3.973   4.000  0.0335 -0.3697 -0.4964
   35MOL0     C 4711   3.574   3.921   4.011  0.2300 -0.5685 -0.1199
   35MOL0     C 4712   3.521   3.805   3.928 -0.2168  0.2141 -0.0660
   35MOL0     C 4713   3.431   3.863   3.807 -0.2858 -1.0279 -0.9909
   35MOL0     C 4714   3.510   3.915   3.696 -0.1375 -0.2591  0.5697
   35MOL0     C 4715   3.616   3.832   3.631  0.0415 -0.3114  0.1907
   35MOL0     O 4716   3.744   3.829   3.698  0.3563 -0.1098  0.1917
   35MOL0     C 4717   3.858   3.800   3.635 -0.4269  0.3444  1.3373
   35MOL0     C 4718   3.866   3.762   3.503  0.4377  0.3795 -0.4839
   35MOL0     C 4719   3.986   3.735   3.431  0.1955 -0.5704 -0.0562
   35MOL0     C 4720   3.965   3.698   3.288  0.5802  0.0597 -0.2216
   35MOL0     C 4721   4.115   3.743   3.499 -0.0710  0.1162 -1.0360
   35MOL0     C 4722   4.247   3.715   3.436 -0.9185 -0.2574 -0.4567
   35MOL0     O 4723   4.364   3.760   3.503 -0.0532  0.8311  0.4887
   35MOL0     C 4724   4.489   3.726   3.455  0.1772  0.3076 -0.4181
   35MOL0     C 4725   4.554   3.810   3.366  0.3898  0.1288  0.5695
   35MOL0     C 4726   4.674   3.764   3.301 -0.0294 -0.8696  0.0147
   35MOL0     C 4727   4.723   3.634   3.324  0.8110 -0.1447 -0.1836
   35MOL0     O 4728   4.834   3.576   3.277 -0.5987  0.0904  0.1483
   35MOL0     C 4729   4.948   3.658   3.250 -0.3378 -0.0988  0.4805
   35MOL0     C 4730   5.067   3.561   3.269 -0.0050 -0.2750  0.1955
   35MOL0     C 4731   5.202   3.616   3.214  0.3346  0.4257 -0.4750
   35MOL0     C 4732   5.313   3.510   3.231  0.6297 -0.7002  0.2534
   35MOL0     C 4733   5.424   3.523   3.122 -0.0845  0.9304  0.2698
   35MOL0     C 4734   5.494   3.659   3.108  1.2278 -0.4065  0.0016
   35MOL0     C 4735   5.593   3.666   2.999  0.8361 -0.0809  1.1529
   35MOL0     C 4736   5.525   3.647   2.860 -0.0351  0.7636  0.0083
   35MOL0    Cl 4737   5.623   3.714   2.723 -0.0544  0.1649 -0.2122
   35MOL0     C 4738   4.647   3.557   3.408 -0.5757 -0.3911 -0.9846
   35MOL0     C 4739   4.535   3.600   3.476  0.0159  0.0888 -0.2978
   35MOL0     O 4740   4.251   3.657   3.328  0.6811 -0.3625  0.1129
   35MOL0     C 4741   4.106   3.769   3.644  0.1270 -0.2157  0.7046
   35MOL0     C 4742   3.981   3.798   3.701 -0.3385 -0.6110 -0.3249
   35MOL0     N 4743   3.499   3.995   4.103 -0.3147 -0.0496 -0.3319
   35MOL0     N 4744   3.570   4.099   4.144  0.5729  0.4285  0.0429
   35MOL0     C 4745   3.042   4.573   3.832  0.1833 -0.2836  0.1723
   35MOL0     C 4746   2.909   4.609   3.812 -0.0391 -0.3518  0.1997
   35MOL0     C 4747   2.465   4.712   3.959 -0.0724  0.0144  0.5953
   35MOL0     C 4748   2.444   4.815   3.862 -0.0126 -0.4780 -0.8803
   35MOL0     C 4749   2.320   4.857   3.822 -0.0926 -0.1779  0.4822
   35MOL0     C 4750   2.202   4.827   3.889 -0.3526  0.4183 -1.0315
   35MOL0     O 4751   2.082   4.888   3.861 -0.6792 -0.7698 -0.2418
   35MOL0     C 4752   1.973   4.868   3.948  0.2928  0.5163  0.8053
   35MOL0     C 4753   1.852   4.855   3.860  0.1012  0.1722  0.4679
   35MOL0     C 4754   1.737   4.929   3.909 -0.3319 -0.6779  0.4956
   35MOL0     C 4755   1.682   4.874   4.041 -0.3196  0.7716  0.3779
   35MOL0     C 4756   1.565   4.950   4.096  0.2714 -0.0557 -0.9808
   35MOL0     C 4757   1.489   5.032   4.151 -0.3628  0.3659 -0.5183
   35MOL0     C 4758   2.220   4.718   3.977  0.3430 -0.4085  0.2993
   35MOL0     C 4759   2.344   4.663   4.016 -0.0997  0.5500 -0.1344
   35MOL0     C 4760   2.344   4.540   4.110  0.4135 -1.9092  0.1548
   35MOL0     H 4761   2.837   4.752   4.107 -1.1213  2.3430 -1.0427
   35MOL0     H 4762   3.071   4.684   4.148 -4.2899  1.3816  2.3062
   35MOL0     H 4763   3.248   4.778   3.976 -1.2023 -0.2287 -1.6289
   35MOL0     H 4764   3.359   4.691   3.868  1.7182  0.5510  0.8132
   35MOL0     H 4765   3.487   4.773   4.083  0.0481 -0.8805  0.2485
   35MOL0     H 4766   3.360   4.695   4.167  2.0512  2.3149  0.7663
   35MOL0     H 4767   3.451   4.481   4.059 -1.6617  0.8744  0.5563
   35MOL0     H 4768   3.567   4.579   3.968  0.8144  3.1286  0.2295
   35MOL0     H 4769   3.681   4.655   4.150  1.0054 -1.1652 -1.9496
   35MOL0     H 4770   3.576   4.591   4.265  2.2424  0.9405  0.4464
   35MOL0     H 4771   3.620   4.372   4.230 -0.6624  0.2094 -1.1715
   35MOL0     H 4772   3.769   4.449   4.244  0.2385  0.3110 -0.0730
   35MOL0     H 4773   3.646   4.328   4.001 -2.0658  1.4078  0.3876
   35MOL0     H 4774   3.769   4.451   3.965  0.0424 -0.1858 -0.8152
   35MOL0     H 4775   3.933   4.334   4.102 -0.3995  3.1480 -1.1586
   35MOL0     H 4776   3.882   4.258   3.953  0.0641  0.1673  0.5253
   35MOL0     H 4777   3.898   4.084   4.125  1.1200  0.8992 -0.7167
   35MOL0     H 4778   3.800   4.187   4.239  0.2011 -0.5053 -0.0733
   35MOL0     H 4779   3.778   3.939   3.939  3.7326  5.1845  0.7151
   35MOL0     H 4780   3.447   3.753   3.990  0.6163  1.7141  2.2997
   35MOL0     H 4781   3.596   3.728   3.909  1.4419  1.9046 -0.7342
   35MOL0     H 4782   3.363   3.792   3.758  2.4418 -3.3397 -1.7024
   35MOL0     H 4783   3.367   3.936   3.858  2.2174 -0.5359  1.6878
   35MOL0     H 4784   3.429   3.935   3.624 -1.0434 -0.5418  1.4930
   35MOL0     H 4785   3.555   4.011   3.722 -3.6776  2.2354 -1.5963
   35MOL0     H 4786   3.591   3.728   3.610 -1.2599 -0.0403  0.2909
   35MOL0     H 4787   3.635   3.878   3.533 -1.3215 -1.0670 -0.4670
   35MOL0     H 4788   3.770   3.750   3.454  0.7569 -2.1123 -0.5847
   35MOL0     H 4789   4.041   3.753   3.233 -0.5788  3.3557  1.2062
   35MOL0     H 4790   3.867   3.734   3.255  0.2520 -1.6294 -1.2050
   35MOL0     H 4791   3.965   3.589   3.281 -1.9059 -0.0123 -0.0035
   35MOL0     H 4792   4.508   3.896   3.318  2.9009 -0.2601 -2.9122
   35MOL0     H 4793   4.714   3.838   3.233  0.9139 -0.2509  1.1829
   35MOL0     H 4794   4.944   3.698   3.148  0.8741  1.2908  0.9302
   35MOL0     H 4795   4.961   3.740   3.322  0.5443 -0.1891  0.4407
   35MOL0     H 4796   5.073   3.553   3.378 -3.1204  2.0409  0.6904
   35MOL0     H 4797   5.038   3.466   3.223 -1.4846  1.1792 -2.1624
   35MOL0     H 4798   5.221   3.710   3.266 -1.2284  0.5491 -0.0746
   35MOL0     H 4799   5.177   3.637   3.110 -0.0475  0.2375 -0.4237
   35MOL0     H 4800   5.270   3.410   3.226 -1.2476 -0.0957  2.5756
   35MOL0     H 4801   5.372   3.524   3.322  4.1093 -3.0804 -1.4103
   35MOL0     H 4802   5.492   3.438   3.138 -3.4616 -1.8842  0.9609
   35MOL0     H 4803   5.376   3.496   3.027  1.1408 -1.0279  0.1382
   35MOL0     H 4804   5.540   3.684   3.204  0.6795  0.7138 -0.0162
   35MOL0     H 4805   5.430   3.746   3.097  2.6315  1.3255  3.7746
   35MOL0     H 4806   5.670   3.591   3.019  1.2966  0.3467  1.0179
   35MOL0     H 4807   5.642   3.764   3.003  1.2881 -0.0790 -1.7060
   35MOL0     H 4808   5.433   3.706   2.860 -0.0874  0.6820 -0.0345
   35MOL0     H 4809   5.508   3.541   2.841 -0.2051  0.7561  0.2077
   35MOL0     H 4810   4.696   3.461   3.416  0.0489 -0.0675 -0.9271
   35MOL0     H 4811   4.467   3.535   3.530  1.0369  0.1036  1.0637
   35MOL0     H 4812   4.200   3.791   3.694 -0.8425  4.8772  0.8567
   35MOL0     H 4813   3.974   3.835   3.802 -1.3397  0.2002 -0.6774
   35MOL0     H 4814   3.098   4.532   3.749 -0.7758  2.5618 -2.0442
   35MOL0     H 4815   2.861   4.583   3.718  2.3911 -0.0111 -1.2332
   35MOL0     H 4816   2.527   4.849   3.801  0.8985  2.4010  1.7049
   35MOL0     H 4817   2.310   4.933   3.745  0.1344  1.3022  1.8636
   35MOL0     H 4818   1.982   4.785   4.018  0.1353 -2.2907 -2.2403
   35MOL0     H 4819   1.956   4.958   4.008 -0.7666  1.9280 -1.4725
   35MOL0     H 4820   1.815   4.752   3.864 -0.9106  0.5237  0.5975
   35MOL0     H 4821   1.881   4.874   3.757  2.4599  1.1866  1.2649
   35MOL0     H 4822   1.775   5.028   3.936 -3.0920  0.0129  2.3499
   35MOL0     H 4823   1.651   4.925   3.841 -1.6530  0.7554  1.9557
   35MOL0     H 4824   1.765   4.871   4.112  0.6797 -1.6142 -0.7748
   35MOL0     H 4825   1.660   4.768   4.022 -1.1904  0.9688  0.2356
   35MOL0     H 4826   1.414   5.097   4.189  0.4208  1.2153 -0.3838
   35MOL0     H 4827   2.134   4.679   4.031 -0.3463  1.1982  0.4492
   35MOL0     H 4828   2.412   4.464   4.068  1.5296 -0.7849 -0.1465
   35MOL0     H 4829   2.390   4.572   4.204 -1.2522 -0.2743  0.4569
   35MOL0     H 4830   2.245   4.500   4.131  0.2932 -1.1264  1.1613
   36MOL0     O 4831   0.855   2.024   3.629  0.2056 -0.1516  0.2266
   36MOL0     C 4832   0.816   2.141   3.643  0.4868 -0.2391 -0.2280
   36MOL0     O 4833   0.882   2.245   3.702 -0.1949  0.4194 -0.6693
   36MOL0     C 4834   1.012   2.228   3.707 -1.1129  0.2099 -0.3983
   36MOL0     C 4835   1.097   2.174   3.604  0.4198 -0.8185  0.7684
   36MOL0     C 4836   1.230   2.181   3.614 -0.4873  0.2543 -0.4440
   36MOL0     C 4837   1.292   2.246   3.728 -0.2564 -0.0942  0.0762
   36MOL0     O 4838   1.426   2.254   3.745  0.1268 -0.0978 -0.6462
   36MOL0     C 4839   1.509   2.204   3.644 -1.0512  0.6128 -0.1740
   36MOL0     C 4840   1.657   2.241   3.668 -0.9717  1.6714 -0.7474
   36MOL0     C 4841   1.746   2.112   3.676 -0.1951  0.0620  0.3220
   36MOL0     C 4842   1.893   2.143   3.716  0.5521 -0.0296 -0.4396
   36MOL0     C 4843   1.974   2.015   3.699  0.5483 -0.1004 -0.5324
   36MOL0     C 4844   2.114   2.038   3.758  0.6524 -0.7491  0.2705
   36MOL0     C 4845   2.204   1.924   3.738 -0.0911  0.3515  0.6669
   36MOL0     C 4846   2.316   1.928   3.841 -0.2097 -0.0082 -0.4133
   36MOL0     N 4847   2.426   2.035   3.815  0.0315  0.5097 -0.0364
   36MOL0     C 4848   2.454   2.080   3.696 -0.1621  0.0921  0.7130
   36MOL0     C 4849   2.583   2.121   3.715 -0.3213 -0.0915 -0.0870
   36MOL0     C 4850   2.675   2.194   3.623 -0.0356 -0.4915  0.5015
   36MOL0     C 4851   2.614   2.276   3.501 -0.2099 -0.0422 -0.5048
   36MOL0     C 4852   2.589   2.424   3.553 -0.2399 -0.1388  0.6733
   36MOL0     C 4853   2.571   2.519   3.443 -0.1705 -0.3816  0.2231
   36MOL0     O 4854   2.541   2.653   3.483 -0.7473  0.4643  0.2937
   36MOL0     C 4855   2.419   2.688   3.518 -0.3588  0.9400  0.0046
   36MOL0     C 4856   2.410   2.751   3.637  0.4350  0.3870 -0.0249
   36MOL0     C 4857   2.284   2.791   3.688 -0.7533  0.0127 -1.0100
   36MOL0     C 4858   2.279   2.862   3.825  0.2429 -0.3363 -0.3151
   36MOL0     C 4859   2.164   2.765   3.615  0.5727 -0.3766  0.0263
   36MOL0     C 4860   2.031   2.811   3.651 -0.8545 -0.0336  0.7456
   36MOL0     O 4861   1.928   2.732   3.607  0.9983  0.6198 -0.3973
   36MOL0     C 4862   1.790   2.745   3.641  0.1043 -0.8768  0.0745
   36MOL0     C 4863   1.705   2.643   3.596 -0.1952  0.4519  0.5180
   36MOL0     C 4864   1.566   2.652   3.597  0.1297  0.0744  0.4979
   36MOL0     C 4865   1.501   2.765   3.643 -0.2934 -0.0228 -0.1644
   36MOL0     O 4866   1.363   2.768   3.638  0.4781 -0.1466  0.9345
   36MOL0     C 4867   1.298   2.834   3.742 -0.4580  0.2900 -0.4795
   36MOL0     C 4868   1.154   2.816   3.724 -0.7990  0.1189 -0.3780
   36MOL0     C 4869   1.108   2.670   3.754 -0.4852  0.0911  0.0721
   36MOL0     C 4870   0.958   2.634   3.708 -0.4204  0.4440  0.1973
   36MOL0     C 4871   0.859   2.696   3.809 -0.7755  1.0362  0.8830
   36MOL0     C 4872   0.711   2.687   3.764  0.5337  0.0251  0.4189
   36MOL0     C 4873   0.653   2.544   3.783  0.0872  0.1492  0.1268
   36MOL0     C 4874   0.522   2.553   3.860 -0.8292 -0.1761 -0.0008
   36MOL0    Cl 4875   0.407   2.635   3.765 -0.0222  0.3971  0.0529
   36MOL0     C 4876   1.586   2.865   3.699 -0.3443 -1.0981  0.4516
   36MOL0     C 4877   1.726   2.857   3.699  0.6916  0.6988 -0.1286
   36MOL0     O 4878   2.021   2.914   3.717  0.3091 -0.8429  0.3118
   36MOL0     C 4879   2.181   2.713   3.482 -0.6590  0.7025 -0.1911
   36MOL0     C 4880   2.305   2.676   3.436  0.7803  0.8622  0.0859
   36MOL0     N 4881   2.621   2.089   3.848 -0.3386 -0.4152 -0.0860
   36MOL0     N 4882   2.523   2.039   3.907  0.3523 -0.2241  0.2344
   36MOL0     C 4883   1.214   2.306   3.823 -0.7141 -0.2513  0.2639
   36MOL0     C 4884   1.068   2.295   3.815 -1.4045  0.2743  0.5574
   36MOL0     C 4885   0.680   2.183   3.614  0.6216  0.0288 -0.2967
   36MOL0     C 4886   0.591   2.192   3.723 -0.2246 -0.0210  0.0211
   36MOL0     C 4887   0.460   2.227   3.703  0.0227 -0.2009  0.0331
   36MOL0     C 4888   0.403   2.251   3.573  0.3051  1.0913  0.1601
   36MOL0     O 4889   0.266   2.282   3.556  0.1190 -0.7466 -0.1679
   36MOL0     C 4890   0.208   2.374   3.646 -0.4000 -0.1127 -0.9031
   36MOL0     C 4891   0.076   2.333   3.689 -1.0677  0.1481  0.2861
   36MOL0     C 4892  -0.020   2.325   3.577  0.8742  0.2908  0.8751
   36MOL0     C 4893  -0.017   2.431   3.466 -0.0946 -0.4834  0.7059
   36MOL0     C 4894  -0.035   2.566   3.520 -0.0038  0.2053 -0.2595
   36MOL0     C 4895  -0.062   2.685   3.549 -0.0070  0.1773  0.3624
   36MOL0     C 4896   0.493   2.231   3.465  0.0607 -0.1241 -0.3557
   36MOL0     C 4897   0.631   2.207   3.485  0.8718  0.5211  1.0591
   36MOL0     C 4898   0.710   2.192   3.357 -0.4356 -0.2480 -0.2059
   36MOL0     H 4899   1.052   2.133   3.514  0.3960 -2.0893  1.3395
   36MOL0     H 4900   1.298   2.147   3.538  2.1363  3.9460 -0.0183
   36MOL0     H 4901   1.474   2.239   3.547 -1.0370 -0.4282 -0.5603
   36MOL0     H 4902   1.511   2.095   3.647 -1.3995  0.5826  3.2678
   36MOL0     H 4903   1.694   2.307   3.589  1.8062  0.1761 -0.8362
   36MOL0     H 4904   1.666   2.297   3.761 -0.9572  1.9717 -0.9270
   36MOL0     H 4905   1.701   2.033   3.736  1.2437 -0.3020  0.9485
   36MOL0     H 4906   1.750   2.083   3.571 -1.4187  0.0881  0.2540
   36MOL0     H 4907   1.928   2.223   3.650  0.1418 -0.0422 -0.6709
   36MOL0     H 4908   1.907   2.174   3.820  3.2093 -0.6491 -0.5262
   36MOL0     H 4909   1.973   1.981   3.595  3.2116 -1.8185 -0.0935
   36MOL0     H 4910   1.924   1.940   3.761 -0.1239  2.1661  1.8670
   36MOL0     H 4911   2.154   2.124   3.704  1.6653 -0.9329  0.7023
   36MOL0     H 4912   2.105   2.057   3.866 -0.8884  0.5834 -0.0559
   36MOL0     H 4913   2.239   1.917   3.635 -1.6984  1.5230 -0.0078
   36MOL0     H 4914   2.142   1.839   3.767  3.3804 -2.3970  0.6814
   36MOL0     H 4915   2.283   1.919   3.944 -0.1680 -1.0480 -0.4787
   36MOL0     H 4916   2.364   1.830   3.827  1.3834  0.6743 -0.0338
   36MOL0     H 4917   2.401   2.090   3.601  1.7719 -3.5719 -0.9730
   36MOL0     H 4918   2.756   2.128   3.592  0.4696  0.5776 -0.5460
   36MOL0     H 4919   2.729   2.266   3.685 -0.5148 -0.6803  1.1374
   36MOL0     H 4920   2.688   2.288   3.422  1.8138  2.0222  1.5314
   36MOL0     H 4921   2.521   2.232   3.466  0.7146  0.4496 -3.8805
   36MOL0     H 4922   2.497   2.424   3.613 -1.0626  0.2863 -0.5487
   36MOL0     H 4923   2.673   2.451   3.618 -1.1548  1.4062  1.2775
   36MOL0     H 4924   2.663   2.512   3.384 -1.2974  0.2329 -1.6805
   36MOL0     H 4925   2.495   2.497   3.367  0.8983  2.4264 -1.8107
   36MOL0     H 4926   2.500   2.784   3.687  1.0690 -0.6171 -0.4725
   36MOL0     H 4927   2.267   2.968   3.801  0.3610 -0.8035 -2.6424
   36MOL0     H 4928   2.374   2.849   3.877  0.2660  0.8765 -0.0277
   36MOL0     H 4929   2.195   2.820   3.882 -0.0329 -1.1941 -1.3077
   36MOL0     H 4930   1.750   2.551   3.560 -2.9666 -0.1357 -1.9125
   36MOL0     H 4931   1.498   2.572   3.569 -2.1827  2.2334 -0.4437
   36MOL0     H 4932   1.340   2.797   3.836  2.8332 -1.2495 -2.4009
   36MOL0     H 4933   1.323   2.940   3.740 -1.1388  0.5194  1.2595
   36MOL0     H 4934   1.110   2.897   3.784  1.7431  0.4155  1.2350
   36MOL0     H 4935   1.124   2.833   3.620 -0.2229 -1.0342 -0.7458
   36MOL0     H 4936   1.129   2.632   3.855 -0.5004 -1.7096 -0.5736
   36MOL0     H 4937   1.167   2.607   3.687  2.7387  2.7227  0.1627
   36MOL0     H 4938   0.940   2.526   3.699  0.1372  0.3101  0.6573
   36MOL0     H 4939   0.948   2.678   3.608 -1.5184  0.3220  0.2360
   36MOL0     H 4940   0.875   2.628   3.893  1.6496  0.4149  0.0026
   36MOL0     H 4941   0.896   2.797   3.830 -0.0167  1.4110 -1.8774
   36MOL0     H 4942   0.700   2.724   3.662  2.4704 -1.8438 -0.5393
   36MOL0     H 4943   0.661   2.754   3.835  1.3180  0.5420  0.4891
   36MOL0     H 4944   0.720   2.481   3.842 -0.9147 -0.6726  0.4116
   36MOL0     H 4945   0.638   2.494   3.687 -3.4967 -3.0456  2.0713
   36MOL0     H 4946   0.531   2.604   3.956 -1.1566 -0.1517  0.0181
   36MOL0     H 4947   0.489   2.453   3.888 -1.6714 -0.2890 -1.2703
   36MOL0     H 4948   1.544   2.960   3.730  1.5131 -0.8265  2.2962
   36MOL0     H 4949   1.774   2.942   3.747  4.0226 -0.0247 -1.8820
   36MOL0     H 4950   2.089   2.699   3.426  0.0207 -0.0183 -1.1574
   36MOL0     H 4951   2.313   2.628   3.339 -2.0788 -1.5624  0.8975
   36MOL0     H 4952   1.273   2.357   3.898 -0.7830 -0.7681  0.6760
   36MOL0     H 4953   1.014   2.329   3.902 -0.5695  0.4522  1.0221
   36MOL0     H 4954   0.620   2.169   3.825 -0.7857  1.6081  0.5828
   36MOL0     H 4955   0.389   2.227   3.785 -2.0714  0.9148 -1.6865
   36MOL0     H 4956   0.269   2.394   3.734  1.4875  0.4336 -2.2574
   36MOL0     H 4957   0.223   2.474   3.605  5.2363  1.5209  3.7741
   36MOL0     H 4958   0.046   2.404   3.767 -1.2702 -0.3760  0.6864
   36MOL0     H 4959   0.098   2.231   3.722  2.7373  0.3115 -1.2368
   36MOL0     H 4960  -0.000   2.229   3.530 -0.0468  0.5663 -0.1189
   36MOL0     H 4961  -0.123   2.315   3.612  0.8514  0.5821  0.8978
   36MOL0     H 4962  -0.089   2.413   3.385 -0.4134  2.1926  0.3186
   36MOL0     H 4963   0.081   2.432   3.416 -0.2178 -1.1275  0.4400
   36MOL0     H 4964  -0.084   2.781   3.590  0.3942 -0.2018  1.5165
   36MOL0     H 4965   0.437   2.227   3.372  0.1705 -0.1980 -0.4191
   36MOL0     H 4966   0.662   2.227   3.265  0.4599  2.9338  0.3962
   36MOL0     H 4967   0.804   2.246   3.375  0.7012 -2.1893 -0.0835
   36MOL0     H 4968   0.734   2.086   3.344  1.3238 -0.0653  1.0877
   37MOL0     O 4969   6.236   2.291   6.964 -0.1277  0.1931 -0.2613
   37MOL0     C 4970   6.198   2.214   7.054  0.7257  0.1925 -0.7749
   37MOL0     O 4971   6.272   2.114   7.108  0.2321  0.2638 -0.2265
   37MOL0     C 4972   6.410   2.098   7.107  0.8505 -0.1948  0.2829
   37MOL0     C 4973   6.501   2.204   7.085  0.5002 -0.0679  0.7211
   37MOL0     C 4974   6.639   2.179   7.090  0.1096 -0.5704 -0.3751
   37MOL0     C 4975   6.689   2.046   7.129  0.2995 -0.0461  1.1226
   37MOL0     O 4976   6.821   2.006   7.141  0.9184  0.8910 -0.4786
   37MOL0     C 4977   6.928   2.100   7.114  0.6235 -0.1136  0.2193
   37MOL0     C 4978   7.067   2.042   7.136  0.0712  0.1802 -0.4637
   37MOL0     C 4979   7.187   2.142   7.108  0.3295  0.0258 -0.5780
   37MOL0     C 4980   7.320   2.060   7.123  0.2200 -0.8530 -0.4010
   37MOL0     C 4981   7.438   2.166   7.112  0.2485  0.0050  0.0299
   37MOL0     C 4982   7.572   2.089   7.125  1.0674  0.7314 -0.2494
   37MOL0     C 4983   7.680   2.194   7.160 -0.5645  0.1474 -0.1108
   37MOL0     C 4984   7.823   2.136   7.152 -0.4439 -0.9413  1.1003
   37MOL0     N 4985   7.864   2.086   7.018 -0.0026  0.4888 -0.0118
   37MOL0     C 4986   7.847   2.158   6.904  0.4901  0.2074  0.5943
   37MOL0     C 4987   7.894   2.088   6.799  0.2715  0.0570 -0.7819
   37MOL0     C 4988   7.872   2.129   6.655  0.7342  0.3359  0.3712
   37MOL0     C 4989   8.012   2.162   6.603 -0.4704  0.5514 -0.1017
   37MOL0     C 4990   8.025   2.172   6.445 -0.6438  0.4238 -0.3185
   37MOL0     C 4991   8.167   2.209   6.404  0.7403  0.0457 -0.5323
   37MOL0     O 4992   8.166   2.349   6.417  0.2307 -0.4706 -0.3529
   37MOL0     C 4993   8.253   2.417   6.336 -0.6127  0.1154  0.3928
   37MOL0     C 4994   8.210   2.534   6.285  0.8412  0.0335 -0.1905
   37MOL0     C 4995   8.281   2.620   6.205 -0.9491 -0.2590  0.2889
   37MOL0     C 4996   8.227   2.763   6.186 -0.0220  0.6793 -0.7761
   37MOL0     C 4997   8.410   2.571   6.157  0.0798  0.5203  0.3649
   37MOL0     C 4998   8.508   2.646   6.073  0.4761  0.7166  0.0461
   37MOL0     O 4999   8.640   2.631   6.090 -0.0884  0.3070  0.2236
   37MOL0     C 5000   8.731   2.703   6.018  0.1555 -0.2632 -0.5639
   37MOL0     C 5001   8.791   2.649   5.905 -0.1351 -0.1555  0.6086
   37MOL0     C 5002   8.886   2.730   5.836  0.4802  0.3055  0.3490
   37MOL0     C 5003   8.908   2.865   5.874 -0.6525  0.7223 -0.1064
   37MOL0     O 5004   8.995   2.937   5.799  0.0788 -1.0507  0.6216
   37MOL0     C 5005   8.987   3.075   5.825  0.2356 -0.5563 -0.5419
   37MOL0     C 5006   9.075   3.161   5.741 -0.7595  0.2642 -1.0764
   37MOL0     C 5007   9.073   3.123   5.589  0.5713  0.8347 -0.8027
   37MOL0     C 5008   9.167   3.224   5.517 -1.0995  0.6152 -0.5973
   37MOL0     C 5009   9.199   3.173   5.374 -0.3641  0.2238 -0.0217
   37MOL0     C 5010   9.278   3.038   5.365 -0.3002 -0.8933 -1.6079
   37MOL0     C 5011   9.279   2.988   5.228  0.5251  0.4628  0.9714
   37MOL0     C 5012   9.355   2.852   5.214  0.7241  0.2476 -0.5075
   37MOL0    Cl 5013   9.516   2.847   5.289 -0.0792  0.1544  0.6621
   37MOL0     C 5014   8.835   2.914   5.987  0.0433 -0.0048 -1.1278
   37MOL0     C 5015   8.755   2.831   6.074  0.1193 -0.3342 -0.0306
   37MOL0     O 5016   8.448   2.719   5.989 -0.8156  0.1557  0.3892
   37MOL0     C 5017   8.458   2.449   6.209  0.1691  1.2143 -0.1911
   37MOL0     C 5018   8.382   2.369   6.299 -0.4975 -0.1842 -0.3011
   37MOL0     N 5019   7.949   1.975   6.854  0.3983 -0.2715  0.0218
   37MOL0     N 5020   7.921   1.966   6.980 -0.4759  0.0078 -0.5774
   37MOL0     C 5021   6.588   1.948   7.153  0.5299  0.3449 -0.6193
   37MOL0     C 5022   6.456   1.975   7.149  0.1643  0.3746  0.4319
   37MOL0     C 5023   6.079   2.255   7.137  0.8614 -0.4469  0.2529
   37MOL0     C 5024   6.070   2.227   7.272  0.4092 -0.3157  0.0140
   37MOL0     C 5025   5.981   2.280   7.358  0.3218  0.5798 -0.2566
   37MOL0     C 5026   5.883   2.366   7.308  0.9453 -0.5012 -0.0640
   37MOL0     O 5027   5.790   2.429   7.399 -0.3572  0.2262 -0.2569
   37MOL0     C 5028   5.736   2.561   7.373  0.2041  0.4970  0.6845
   37MOL0     C 5029   5.649   2.616   7.484 -0.1133  0.2614 -0.3203
   37MOL0     C 5030   5.537   2.519   7.527 -0.3392  0.8937  0.6317
   37MOL0     C 5031   5.480   2.558   7.661 -0.6455  0.1266  0.3754
   37MOL0     C 5032   5.357   2.639   7.650 -0.2900 -0.3780  0.8245
   37MOL0     C 5033   5.258   2.700   7.688 -1.0223  0.2119  1.2556
   37MOL0     C 5034   5.881   2.389   7.171 -0.6521 -1.7198 -1.1440
   37MOL0     C 5035   5.971   2.335   7.087 -0.0437  0.2852  1.4508
   37MOL0     C 5036   5.954   2.363   6.934 -0.6048 -0.1871  0.5897
   37MOL0     H 5037   6.455   2.298   7.055 -0.5690 -1.7417 -3.4635
   37MOL0     H 5038   6.708   2.262   7.080 -0.9287  0.1062 -2.5100
   37MOL0     H 5039   6.910   2.192   7.172 -0.8796 -1.4852  2.0551
   37MOL0     H 5040   6.933   2.131   7.009  2.3545 -1.5413 -0.1674
   37MOL0     H 5041   7.068   2.013   7.241 -1.4009  0.5188 -0.3297
   37MOL0     H 5042   7.069   1.949   7.079 -2.0707  0.7512 -1.6055
   37MOL0     H 5043   7.177   2.175   7.004 -3.2402 -2.1196 -1.1016
   37MOL0     H 5044   7.187   2.224   7.180 -0.9559 -1.2598  0.9781
   37MOL0     H 5045   7.316   1.996   7.211 -0.5750 -1.5340 -0.9161
   37MOL0     H 5046   7.335   1.995   7.037  0.2661  0.7994 -1.6987
   37MOL0     H 5047   7.434   2.234   7.197  0.2277  1.6148 -1.2103
   37MOL0     H 5048   7.437   2.234   7.026  1.4637  2.2487  1.6789
   37MOL0     H 5049   7.565   2.009   7.200  0.5557 -2.2381 -3.1984
   37MOL0     H 5050   7.593   2.026   7.038 -0.2033 -2.8898  1.8269
   37MOL0     H 5051   7.657   2.239   7.257  0.5620 -0.2560  0.3526
   37MOL0     H 5052   7.670   2.273   7.085  0.7606 -0.7136 -1.2339
   37MOL0     H 5053   7.906   2.200   7.182 -1.7979  0.5735  1.7685
   37MOL0     H 5054   7.835   2.044   7.210  0.9278 -0.7387  1.1647
   37MOL0     H 5055   7.806   2.259   6.916 -1.8325 -0.8225  2.2556
   37MOL0     H 5056   7.803   2.214   6.657 -0.0962 -0.3223  0.4038
   37MOL0     H 5057   7.817   2.051   6.602 -0.9023  0.8364  1.2634
   37MOL0     H 5058   8.045   2.260   6.641  1.6089  0.9276 -2.6397
   37MOL0     H 5059   8.078   2.079   6.629 -0.3107  0.2324 -1.4627
   37MOL0     H 5060   8.002   2.077   6.397  1.9049 -0.2476 -0.3640
   37MOL0     H 5061   7.953   2.244   6.404 -0.6074 -0.1789 -1.4636
   37MOL0     H 5062   8.244   2.158   6.463  0.6579  2.8134  2.2229
   37MOL0     H 5063   8.170   2.177   6.300  3.3233 -3.3916  0.3747
   37MOL0     H 5064   8.109   2.560   6.315  1.1904  0.9763  0.2198
   37MOL0     H 5065   8.129   2.774   6.234 -1.2261 -1.6424 -2.5028
   37MOL0     H 5066   8.208   2.766   6.078 -0.0167  0.6402 -0.7777
   37MOL0     H 5067   8.299   2.836   6.224 -1.1157  0.3499  2.1815
   37MOL0     H 5068   8.762   2.552   5.865 -1.2658  0.7313 -0.8228
   37MOL0     H 5069   8.935   2.670   5.759 -1.0434  0.6093 -0.9192
   37MOL0     H 5070   8.888   3.119   5.810 -0.1845 -1.5208 -0.7130
   37MOL0     H 5071   9.012   3.095   5.929 -0.4888 -1.0798 -0.2533
   37MOL0     H 5072   9.061   3.268   5.757 -0.8089 -0.0072  0.9935
   37MOL0     H 5073   9.169   3.131   5.787 -1.2707 -0.4378 -0.4622
   37MOL0     H 5074   8.973   3.124   5.545 -0.0957  0.7754  0.6767
   37MOL0     H 5075   9.103   3.019   5.575 -2.9353 -0.4907  0.5151
   37MOL0     H 5076   9.265   3.224   5.565  0.0526 -0.9006 -2.7839
   37MOL0     H 5077   9.132   3.327   5.509  1.8000  1.6929 -0.4152
   37MOL0     H 5078   9.105   3.164   5.318 -1.7796 -1.2338  2.4035
   37MOL0     H 5079   9.264   3.252   5.336  2.8135 -1.8059  0.8352
   37MOL0     H 5080   9.224   2.969   5.431  0.9239  0.1701  0.6474
   37MOL0     H 5081   9.368   3.037   5.428 -1.5462 -2.1747  0.2508
   37MOL0     H 5082   9.329   3.056   5.159  1.1760 -0.8649  0.0985
   37MOL0     H 5083   9.172   2.979   5.207  0.5529 -1.0730  1.3686
   37MOL0     H 5084   9.358   2.826   5.108  1.9256 -1.5573 -0.0826
   37MOL0     H 5085   9.300   2.781   5.276  4.5807 -1.5841  1.1600
   37MOL0     H 5086   8.835   3.015   6.027  2.7353 -1.4170  3.1823
   37MOL0     H 5087   8.693   2.871   6.153 -0.6694  0.2890 -0.9459
   37MOL0     H 5088   8.546   2.392   6.180  0.3168  0.3012  1.8778
   37MOL0     H 5089   8.413   2.272   6.336 -0.5033  0.6670  2.1507
   37MOL0     H 5090   6.624   1.852   7.186 -0.6534  0.6843  1.8625
   37MOL0     H 5091   6.392   1.888   7.163  3.3882 -2.7387 -2.1766
   37MOL0     H 5092   6.132   2.153   7.322  0.8585 -0.4362 -0.7014
   37MOL0     H 5093   5.976   2.258   7.464 -3.0634 -2.5551 -0.8375
   37MOL0     H 5094   5.811   2.633   7.339 -0.3455  0.6852 -0.1611
   37MOL0     H 5095   5.683   2.547   7.278  5.2128 -2.7381 -2.0840
   37MOL0     H 5096   5.607   2.710   7.448 -0.8914 -0.8434 -2.4682
   37MOL0     H 5097   5.722   2.626   7.564  0.0327 -0.0692 -0.4081
   37MOL0     H 5098   5.470   2.516   7.441  1.6270 -2.6564 -1.0482
   37MOL0     H 5099   5.578   2.419   7.549 -1.6094  0.8050  2.8597
   37MOL0     H 5100   5.549   2.613   7.726 -3.0148  0.7248  2.5880
   37MOL0     H 5101   5.455   2.468   7.718 -2.9409 -0.4727 -1.4242
   37MOL0     H 5102   5.168   2.743   7.728  0.5778  1.9200  3.3210
   37MOL0     H 5103   5.799   2.446   7.128 -0.5313 -0.6592 -0.0201
   37MOL0     H 5104   5.852   2.402   6.930 -0.2359  0.7814  0.5450
   37MOL0     H 5105   6.031   2.427   6.890 -2.2521  1.1546 -0.4439
   37MOL0     H 5106   5.960   2.265   6.884 -0.6333  0.2408 -0.2695
   38MOL0     O 5107  10.361   5.852   3.445 -0.7107 -0.4550 -0.2561
   38MOL0     C 5108  10.324   5.740   3.482 -0.2046  0.0405  0.2282
   38MOL0     O 5109  10.391   5.666   3.572  0.6802  0.2580  0.6308
   38MOL0     C 5110  10.531   5.693   3.562 -0.1446  0.1749 -0.5526
   38MOL0     C 5111  10.608   5.626   3.463 -0.6389 -0.1693 -0.3357
   38MOL0     C 5112  10.740   5.661   3.445 -1.3477  0.2773 -0.8274
   38MOL0     C 5113  10.798   5.749   3.536 -0.0293 -1.0834 -0.3878
   38MOL0     O 5114  10.935   5.753   3.538  0.4119 -0.2786 -0.2253
   38MOL0     C 5115  11.006   5.771   3.663  0.0623 -0.8992 -0.8224
   38MOL0     C 5116  11.156   5.756   3.642 -0.1004 -0.4129 -0.0383
   38MOL0     C 5117  11.193   5.610   3.603  0.2536 -0.6410 -0.0068
   38MOL0     C 5118  11.176   5.516   3.725  0.7942 -0.7056  0.0272
   38MOL0     C 5119  11.218   5.373   3.689  0.1992 -0.4801 -0.7104
   38MOL0     C 5120  11.376   5.359   3.685 -0.0314 -0.2837  0.3658
   38MOL0     C 5121  11.417   5.214   3.671 -0.6360 -0.1811  0.6852
   38MOL0     C 5122  11.572   5.199   3.636  0.2938 -0.4240 -0.3296
   38MOL0     N 5123  11.616   5.060   3.616  1.0053  0.1366 -0.7524
   38MOL0     C 5124  11.558   4.976   3.527 -0.1526 -0.1880 -0.3185
   38MOL0     C 5125  11.636   4.867   3.550 -0.0808  0.9623  0.1610
   38MOL0     C 5126  11.630   4.733   3.473  0.7774  0.7069 -0.0598
   38MOL0     C 5127  11.487   4.692   3.480  0.4553 -0.5154 -0.2575
   38MOL0     C 5128  11.457   4.579   3.376 -0.6301  0.4499  0.2327
   38MOL0     C 5129  11.328   4.502   3.397 -0.2540  1.1018 -0.0989
   38MOL0     O 5130  11.332   4.406   3.505 -0.3103 -0.2957  0.0697
   38MOL0     C 5131  11.224   4.320   3.521 -0.4659 -0.4332  0.5754
   38MOL0     C 5132  11.094   4.341   3.472  0.1358  0.3044  0.0229
   38MOL0     C 5133  10.996   4.242   3.494  0.3641  0.4645  0.0406
   38MOL0     C 5134  10.865   4.265   3.420 -0.7162  0.0754  0.3874
   38MOL0     C 5135  11.024   4.128   3.578  0.0106 -0.7520 -0.5717
   38MOL0     C 5136  10.929   4.013   3.599 -0.1663 -0.9397 -0.4963
   38MOL0     O 5137  10.954   3.930   3.699  0.1300  0.0777 -0.5756
   38MOL0     C 5138  10.873   3.811   3.701 -0.3593  0.5139 -0.2056
   38MOL0     C 5139  10.761   3.822   3.785 -0.4686  0.4556  0.7115
   38MOL0     C 5140  10.690   3.701   3.809  0.4788  0.0870 -0.1184
   38MOL0     C 5141  10.722   3.575   3.744  0.8355  0.1320 -0.9971
   38MOL0     O 5142  10.654   3.460   3.772  0.0930  0.1661 -0.3920
   38MOL0     C 5143  10.561   3.451   3.883  0.2925  0.4008  0.7648
   38MOL0     C 5144  10.552   3.311   3.936  0.2465  0.5535  0.3958
   38MOL0     C 5145  10.682   3.273   4.000 -0.8523  0.7853  0.1599
   38MOL0     C 5146  10.683   3.121   4.046 -0.2993 -0.7945 -0.3070
   38MOL0     C 5147  10.809   3.090   4.126  0.2690  0.6363 -1.0921
   38MOL0     C 5148  10.770   2.972   4.223 -0.2201  0.7523  0.0677
   38MOL0     C 5149  10.889   2.909   4.294 -0.4213 -0.2392 -0.4149
   38MOL0     C 5150  10.864   2.781   4.377 -0.0098 -0.1978 -0.1668
   38MOL0    Cl 5151  10.834   2.640   4.271  0.1933 -0.0418 -0.2974
   38MOL0     C 5152  10.832   3.565   3.668  0.6314 -0.0823  0.0009
   38MOL0     C 5153  10.911   3.686   3.650 -0.5007  0.2162  0.1020
   38MOL0     O 5154  10.834   4.001   3.522 -0.0643 -0.6361 -0.6025
   38MOL0     C 5155  11.148   4.111   3.633 -0.6461  0.0018 -0.0789
   38MOL0     C 5156  11.249   4.204   3.598 -0.6651 -0.3714  0.0271
   38MOL0     N 5157  11.745   4.884   3.632 -0.8851  1.3353 -0.2284
   38MOL0     N 5158  11.732   5.009   3.670  0.6139  0.9571 -0.5651
   38MOL0     C 5159  10.721   5.820   3.630  0.3556  0.8243  0.0138
   38MOL0     C 5160  10.594   5.780   3.652  0.6171 -0.0089  0.1399
   38MOL0     C 5161  10.197   5.686   3.413 -0.5872 -0.1217 -1.0360
   38MOL0     C 5162  10.115   5.779   3.351 -0.4345  0.2472  0.3435
   38MOL0     C 5163  10.001   5.734   3.287 -0.5461  0.6002 -0.3328
   38MOL0     C 5164   9.973   5.599   3.265  0.5317  0.1368  0.2099
   38MOL0     O 5165   9.859   5.539   3.197 -0.0649  0.4979 -0.3860
   38MOL0     C 5166   9.749   5.626   3.180 -0.1382  0.4120  0.8543
   38MOL0     C 5167   9.646   5.550   3.095  0.1752  0.8898 -0.4582
   38MOL0     C 5168   9.552   5.641   3.027 -0.0899  0.7440  0.4186
   38MOL0     C 5169   9.473   5.573   2.909  0.2144 -0.2949  0.2457
   38MOL0     C 5170   9.410   5.453   2.951 -0.6282  0.6418  1.1401
   38MOL0     C 5171   9.344   5.351   2.966  0.4261 -0.5017  0.1849
   38MOL0     C 5172  10.060   5.504   3.318  0.3096 -0.1695  0.0859
   38MOL0     C 5173  10.170   5.549   3.403 -0.2464  0.7853  0.6988
   38MOL0     C 5174  10.259   5.437   3.464  0.0327 -0.7639  0.0099
   38MOL0     H 5175  10.569   5.544   3.404  2.0452 -3.0889  1.5773
   38MOL0     H 5176  10.803   5.607   3.375 -0.1947  1.0824 -0.4439
   38MOL0     H 5177  10.970   5.699   3.736  2.6047 -1.8156 -0.3530
   38MOL0     H 5178  10.988   5.875   3.691  0.7078 -0.7252 -1.0248
   38MOL0     H 5179  11.179   5.822   3.559 -1.3858 -1.0975 -0.9837
   38MOL0     H 5180  11.206   5.788   3.734  1.8871 -0.2532 -1.1222
   38MOL0     H 5181  11.126   5.566   3.529  0.9446 -3.5323  0.9477
   38MOL0     H 5182  11.291   5.610   3.556 -0.2411 -0.8863 -1.0753
   38MOL0     H 5183  11.243   5.559   3.801  2.6524  0.0945 -1.9611
   38MOL0     H 5184  11.073   5.511   3.762  0.3052  1.6388 -0.8295
   38MOL0     H 5185  11.164   5.338   3.600  1.5921 -0.3990 -1.6104
   38MOL0     H 5186  11.183   5.303   3.765  0.1859 -1.5804 -1.7053
   38MOL0     H 5187  11.419   5.415   3.602 -1.6835  0.0254 -0.3190
   38MOL0     H 5188  11.426   5.403   3.772 -3.1855  0.3818  2.0300
   38MOL0     H 5189  11.350   5.171   3.596 -2.3933  1.1307  1.4353
   38MOL0     H 5190  11.404   5.164   3.767  0.9111 -4.7716 -1.2097
   38MOL0     H 5191  11.593   5.257   3.546  0.6428  1.5934  0.9934
   38MOL0     H 5192  11.638   5.241   3.712 -1.5007 -0.7909  1.5151
   38MOL0     H 5193  11.481   4.988   3.451 -1.2421 -0.7364  0.6763
   38MOL0     H 5194  11.702   4.662   3.513 -0.1524 -0.2256 -0.0004
   38MOL0     H 5195  11.656   4.753   3.369  2.9911  2.7239  0.7808
   38MOL0     H 5196  11.466   4.665   3.584  2.5823  2.0674  0.9750
   38MOL0     H 5197  11.416   4.764   3.440 -1.3670 -3.8701 -3.6800
   38MOL0     H 5198  11.468   4.615   3.274  1.7904  0.8341  0.5799
   38MOL0     H 5199  11.521   4.492   3.395  0.0733  1.0175  0.4952
   38MOL0     H 5200  11.246   4.572   3.418 -2.3899 -0.9887 -0.9389
   38MOL0     H 5201  11.306   4.443   3.307  1.1544 -0.9420  0.8216
   38MOL0     H 5202  11.073   4.437   3.426 -0.3445 -0.8124 -2.2469
   38MOL0     H 5203  10.778   4.229   3.476 -2.4619  1.4580 -1.2782
   38MOL0     H 5204  10.885   4.194   3.339  2.2034  0.0815  0.9969
   38MOL0     H 5205  10.863   4.368   3.383  0.2259  0.1550  0.5486
   38MOL0     H 5206  10.740   3.916   3.837  0.2027 -0.0098  1.8648
   38MOL0     H 5207  10.607   3.709   3.878  0.1460  1.4479 -0.6357
   38MOL0     H 5208  10.590   3.512   3.969 -3.6969  0.4612  2.2539
   38MOL0     H 5209  10.461   3.485   3.856 -0.3124  2.0586  4.3834
   38MOL0     H 5210  10.474   3.308   4.013 -0.5541 -0.8634 -0.4356
   38MOL0     H 5211  10.517   3.251   3.851 -4.1189  1.4426  1.3013
   38MOL0     H 5212  10.709   3.343   4.079  2.5124 -0.9012  0.6580
   38MOL0     H 5213  10.767   3.284   3.933  0.5914 -2.1775  1.3123
   38MOL0     H 5214  10.670   3.060   3.957 -0.4280  3.1200 -3.2621
   38MOL0     H 5215  10.591   3.122   4.104 -0.3138  1.0021 -0.2868
   38MOL0     H 5216  10.902   3.072   4.073  1.1452  0.4369  0.4421
   38MOL0     H 5217  10.839   3.171   4.194  1.8426  0.2859 -1.3407
   38MOL0     H 5218  10.738   2.891   4.156 -0.0163 -0.4937  1.4257
   38MOL0     H 5219  10.693   3.005   4.293  1.3588  3.1122  0.8136
   38MOL0     H 5220  10.925   2.991   4.358 -1.1167  0.7636 -1.2675
   38MOL0     H 5221  10.971   2.892   4.224 -0.9769  0.5888 -1.2976
   38MOL0     H 5222  10.783   2.803   4.448  1.4210  3.1346  0.6172
   38MOL0     H 5223  10.953   2.754   4.434  0.9466  3.4428  0.3238
   38MOL0     H 5224  10.863   3.475   3.616  1.5316 -0.1913  0.7040
   38MOL0     H 5225  10.994   3.701   3.581 -0.9399 -1.0357 -0.7319
   38MOL0     H 5226  11.172   4.018   3.683 -1.8100 -0.3943 -0.2177
   38MOL0     H 5227  11.351   4.196   3.636 -0.0550  1.0206 -1.2165
   38MOL0     H 5228  10.764   5.899   3.690 -0.5487  2.0064 -0.8373
   38MOL0     H 5229  10.539   5.812   3.740 -1.5823  0.2709 -1.2395
   38MOL0     H 5230  10.120   5.887   3.358 -4.4237  0.9059 -3.1393
   38MOL0     H 5231   9.945   5.810   3.233 -1.4329 -0.0719 -0.3955
   38MOL0     H 5232   9.719   5.654   3.282  1.7366  1.7800  1.0914
   38MOL0     H 5233   9.786   5.715   3.129 -1.7908  1.1424  0.8556
   38MOL0     H 5234   9.591   5.478   3.156 -0.0350  2.1386  0.8647
   38MOL0     H 5235   9.698   5.496   3.015  1.0594 -0.4058  0.9392
   38MOL0     H 5236   9.475   5.684   3.092 -1.7282 -0.7407 -0.4449
   38MOL0     H 5237   9.611   5.723   2.985  1.1653 -1.1730 -1.7617
   38MOL0     H 5238   9.545   5.546   2.831 -0.3829 -0.7827 -0.1413
   38MOL0     H 5239   9.399   5.644   2.871  0.1609 -1.5151 -2.1005
   38MOL0     H 5240   9.281   5.266   2.980  1.9760 -1.8386 -0.7094
   38MOL0     H 5241  10.047   5.397   3.305  3.6260 -0.4605 -2.0925
   38MOL0     H 5242  10.240   5.438   3.571  3.1277  1.7174  0.6749
   38MOL0     H 5243  10.221   5.337   3.440 -0.5735 -1.1508  2.3308
   38MOL0     H 5244  10.360   5.453   3.425 -0.1029 -0.2785 -0.1433
   39MOL0     O 5245   3.201   1.975  10.976 -0.2308  0.1398  0.0526
   39MOL0     C 5246   3.129   1.969  10.882 -0.2052  0.0363  0.1429
   39MOL0     O 5247   3.173   1.999  10.748  0.2851  0.4861  0.1795
   39MOL0     C 5248   3.306   2.028  10.708  0.2019 -0.2675  0.1678
   39MOL0     C 5249   3.392   2.111  10.783 -0.5685 -0.3781 -0.3287
   39MOL0     C 5250   3.523   2.136  10.743  0.0264 -0.5427  0.4618
   39MOL0     C 5251   3.565   2.099  10.616  0.1777 -0.2383 -0.0743
   39MOL0     O 5252   3.690   2.137  10.577 -0.8549 -0.3175 -0.1608
   39MOL0     C 5253   3.764   2.076  10.470  0.0886 -0.1226  0.0587
   39MOL0     C 5254   3.902   2.139  10.461 -0.4349 -0.2166  0.0748
   39MOL0     C 5255   4.022   2.064  10.395  0.7050  0.1383 -0.2185
   39MOL0     C 5256   4.014   2.059  10.241  0.9009  0.5095  0.8479
   39MOL0     C 5257   4.144   1.994  10.177  0.3027 -0.5317  0.6687
   39MOL0     C 5258   4.182   1.859  10.235 -0.3105  0.7438  0.0240
   39MOL0     C 5259   4.316   1.848  10.318  0.3780 -0.0867 -0.0946
   39MOL0     C 5260   4.432   1.877  10.221  0.7471  0.5324  1.0624
   39MOL0     N 5261   4.552   1.899  10.303  0.5235 -0.5958  0.2473
   39MOL0     C 5262   4.655   1.812  10.303 -0.5276  0.3284 -0.9716
   39MOL0     C 5263   4.723   1.843  10.414  0.0426 -0.0665  0.2256
   39MOL0     C 5264   4.842   1.772  10.475  0.4860  0.4441 -0.2304
   39MOL0     C 5265   4.973   1.786  10.389  0.1813 -0.6564 -0.2575
   39MOL0     C 5266   5.078   1.693  10.447  1.3918  0.9420 -0.0243
   39MOL0     C 5267   5.217   1.731  10.402  0.5212  0.3303 -0.6549
   39MOL0     O 5268   5.305   1.633  10.454 -1.6055 -0.0914  0.2519
   39MOL0     C 5269   5.440   1.663  10.477 -0.3953  0.6953 -0.3925
   39MOL0     C 5270   5.510   1.726  10.375  0.8943 -0.2919  0.5509
   39MOL0     C 5271   5.647   1.760  10.385  0.0464 -0.2390 -1.1336
   39MOL0     C 5272   5.695   1.841  10.272 -0.7650  0.3945  0.4573
   39MOL0     C 5273   5.722   1.728  10.499 -0.8729 -0.6093 -0.3494
   39MOL0     C 5274   5.867   1.764  10.525  0.3222  0.7376  0.0451
   39MOL0     O 5275   5.933   1.681  10.619  0.0876 -0.1542 -0.2809
   39MOL0     C 5276   6.070   1.686  10.630  1.0857  0.4745 -1.3597
   39MOL0     C 5277   6.156   1.668  10.529 -0.5532  0.8593 -0.0052
   39MOL0     C 5278   6.291   1.675  10.557 -0.4171 -0.1324  0.0006
   39MOL0     C 5279   6.347   1.700  10.683  1.0680 -0.3122 -0.3464
   39MOL0     O 5280   6.478   1.697  10.709  0.5356  0.2612  0.0660
   39MOL0     C 5281   6.547   1.576  10.661 -0.6287 -0.6034  0.0528
   39MOL0     C 5282   6.692   1.578  10.709 -0.8267  0.1159 -0.5166
   39MOL0     C 5283   6.739   1.594  10.865  0.4937  0.1291  0.7641
   39MOL0     C 5284   6.887   1.634  10.869 -0.0242 -0.2210 -0.3220
   39MOL0     C 5285   6.927   1.643  11.020 -0.1106 -0.8525 -0.0462
   39MOL0     C 5286   7.072   1.679  11.035 -0.8315 -0.4555 -1.1343
   39MOL0     C 5287   7.105   1.666  11.185  0.6237 -0.5902  0.2107
   39MOL0     C 5288   7.254   1.648  11.197  0.5181  0.4366 -0.1261
   39MOL0    Cl 5289   7.335   1.813  11.203 -0.1536 -0.0292  0.5920
   39MOL0     C 5290   6.258   1.732  10.789  0.7435  0.2944  0.7839
   39MOL0     C 5291   6.120   1.720  10.763 -0.6665  0.3127  0.3560
   39MOL0     O 5292   5.916   1.866  10.473  0.0050  0.0491  0.3421
   39MOL0     C 5293   5.649   1.653  10.593 -0.1721  0.0457 -0.0619
   39MOL0     C 5294   5.515   1.627  10.585  0.7329 -0.0541 -0.3205
   39MOL0     N 5295   4.666   1.957  10.467  0.2932  0.6710 -0.3807
   39MOL0     N 5296   4.568   2.000  10.394  0.2835  0.1250  0.0827
   39MOL0     C 5297   3.482   2.029  10.536  0.4281  1.0451 -0.0195
   39MOL0     C 5298   3.359   1.982  10.587 -0.0085 -0.9614 -0.3830
   39MOL0     C 5299   2.997   1.897  10.881 -0.7608 -1.2318  0.7150
   39MOL0     C 5300   2.953   1.841  10.760 -0.1049  0.1135 -0.9557
   39MOL0     C 5301   2.834   1.769  10.761  0.1940 -0.7680 -1.1686
   39MOL0     C 5302   2.746   1.765  10.873 -0.1034  0.8750 -0.1445
   39MOL0     O 5303   2.625   1.700  10.885  0.3317 -0.8432  0.7886
   39MOL0     C 5304   2.593   1.587  10.816  0.3168 -0.3187 -0.7903
   39MOL0     C 5305   2.457   1.536  10.874 -0.2211 -0.0803 -0.4260
   39MOL0     C 5306   2.341   1.623  10.818  0.4361  0.1964  0.1208
   39MOL0     C 5307   2.201   1.594  10.880  0.0559  0.3222  0.1209
   39MOL0     C 5308   2.110   1.669  10.789 -0.0882 -0.4583 -0.1037
   39MOL0     C 5309   2.036   1.737  10.719 -0.4471  0.7633  0.2469
   39MOL0     C 5310   2.787   1.827  10.991 -0.2120  0.1564  0.0746
   39MOL0     C 5311   2.915   1.894  10.994 -0.1212 -0.1173  0.4806
   39MOL0     C 5312   2.956   1.953  11.126 -0.0250 -0.5109 -0.2216
   39MOL0     H 5313   3.355   2.152  10.877  3.4411  0.7591  0.9562
   39MOL0     H 5314   3.578   2.200  10.811 -1.5324  2.2995 -0.7614
   39MOL0     H 5315   3.715   2.098  10.374 -0.0758 -0.3343  0.0934
   39MOL0     H 5316   3.771   1.968  10.487  1.5937  0.2795  2.2258
   39MOL0     H 5317   3.914   2.243  10.428  0.4737  1.5201  5.0998
   39MOL0     H 5318   3.932   2.148  10.565 -0.9016  2.9035  0.0291
   39MOL0     H 5319   4.104   2.130  10.423  1.2175  0.7633 -2.9298
   39MOL0     H 5320   4.033   1.962  10.434 -0.3147  0.4451  0.9281
   39MOL0     H 5321   3.927   1.997  10.216  0.0500  1.6867  0.8248
   39MOL0     H 5322   4.002   2.161  10.205  0.3685  0.1315 -0.0910
   39MOL0     H 5323   4.225   2.067  10.176  0.8069 -1.0831 -0.2894
   39MOL0     H 5324   4.113   1.979  10.073  0.8881  1.6892  0.1299
   39MOL0     H 5325   4.098   1.822  10.295 -0.4432  0.8802 -0.0775
   39MOL0     H 5326   4.196   1.790  10.152  0.6865  0.2816  0.5644
   39MOL0     H 5327   4.329   1.748  10.360  0.0044  0.1116  0.4936
   39MOL0     H 5328   4.317   1.906  10.410 -1.1133  0.4689 -0.3971
   39MOL0     H 5329   4.452   1.790  10.158  0.0192  1.7029 -0.8827
   39MOL0     H 5330   4.410   1.967  10.163  1.4212  1.5837  2.3782
   39MOL0     H 5331   4.669   1.727  10.237  2.5522 -2.1772  2.4985
   39MOL0     H 5332   4.812   1.670  10.500 -1.2281  0.6070 -1.4522
   39MOL0     H 5333   4.864   1.819  10.571 -0.0714  1.2706 -0.4963
   39MOL0     H 5334   4.951   1.762  10.284 -1.0479 -1.3696  0.1413
   39MOL0     H 5335   5.013   1.885  10.411  3.1093 -1.6756 -0.4641
   39MOL0     H 5336   5.070   1.705  10.555  0.2194 -0.2070  0.0450
   39MOL0     H 5337   5.053   1.594  10.406 -1.1171  0.9428  1.3014
   39MOL0     H 5338   5.232   1.728  10.294  0.4996  0.0844 -0.6520
   39MOL0     H 5339   5.241   1.830  10.441  1.7995 -0.1733 -0.0872
   39MOL0     H 5340   5.464   1.767  10.286 -0.2567  0.1856  1.3348
   39MOL0     H 5341   5.653   1.942  10.268 -4.5398 -1.0658 -0.3552
   39MOL0     H 5342   5.663   1.797  10.177 -1.5218 -1.1074  1.3759
   39MOL0     H 5343   5.804   1.851  10.266 -0.8900  0.8278 -1.8513
   39MOL0     H 5344   6.121   1.639  10.430 -0.3484  2.9713 -0.7407
   39MOL0     H 5345   6.362   1.666  10.476 -0.9908 -0.7608 -0.4424
   39MOL0     H 5346   6.507   1.479  10.693 -1.0587 -0.5265 -0.2430
   39MOL0     H 5347   6.556   1.574  10.552  1.2108  0.2244  0.1611
   39MOL0     H 5348   6.744   1.489  10.673  2.6176  2.3648 -1.5810
   39MOL0     H 5349   6.741   1.663  10.661  3.0950 -2.4263 -1.4862
   39MOL0     H 5350   6.732   1.489  10.894 -1.2209 -0.0471 -0.1814
   39MOL0     H 5351   6.669   1.656  10.923  1.0619 -1.2186  3.0339
   39MOL0     H 5352   6.893   1.732  10.823 -0.2434  0.1230  0.3669
   39MOL0     H 5353   6.944   1.556  10.817  0.1789 -1.0787  1.1390
   39MOL0     H 5354   6.866   1.723  11.064 -0.1874  0.7431 -2.8343
   39MOL0     H 5355   6.906   1.548  11.070  1.0406 -0.9123  0.3618
   39MOL0     H 5356   7.084   1.784  11.009  1.9007 -0.5097 -0.3693
   39MOL0     H 5357   7.138   1.616  10.975 -0.1811  1.1555 -2.1840
   39MOL0     H 5358   7.051   1.586  11.236 -1.2401  1.2989  1.4215
   39MOL0     H 5359   7.070   1.756  11.238 -3.3898 -1.3125 -0.8179
   39MOL0     H 5360   7.305   1.583  11.126  1.0863  0.7016  0.0359
   39MOL0     H 5361   7.277   1.606  11.295  2.3958 -0.6708 -1.0022
   39MOL0     H 5362   6.282   1.767  10.889 -0.2012  0.6055  0.9147
   39MOL0     H 5363   6.044   1.736  10.839  0.6195 -0.0192  1.7339
   39MOL0     H 5364   5.697   1.623  10.685 -1.3201 -1.5498  0.0461
   39MOL0     H 5365   5.472   1.572  10.668  2.5324  1.7409  1.9420
   39MOL0     H 5366   3.517   1.994  10.439 -1.8611 -2.6077  0.2504
   39MOL0     H 5367   3.303   1.899  10.544 -2.4095 -0.8380  2.2119
   39MOL0     H 5368   3.000   1.847  10.662 -0.9306  0.7154 -1.3243
   39MOL0     H 5369   2.822   1.727  10.662 -0.4501 -1.4755 -0.8026
   39MOL0     H 5370   2.583   1.615  10.710 -2.6202  1.4308 -0.1827
   39MOL0     H 5371   2.666   1.509  10.836  2.1704  1.7551  1.0987
   39MOL0     H 5372   2.454   1.547  10.983 -1.7385 -2.3699 -0.1789
   39MOL0     H 5373   2.447   1.430  10.848  1.4576 -0.3948  0.0307
   39MOL0     H 5374   2.367   1.729  10.825 -1.1171  0.5555  0.9763
   39MOL0     H 5375   2.331   1.583  10.716 -1.0926 -3.4688  1.5196
   39MOL0     H 5376   2.204   1.623  10.986 -1.6176 -1.3978  0.6957
   39MOL0     H 5377   2.184   1.486  10.881 -2.5349  0.6410  1.8122
   39MOL0     H 5378   1.975   1.779  10.642  0.0671  1.8630  0.4201
   39MOL0     H 5379   2.727   1.831  11.081  0.0219 -1.5918  0.3394
   39MOL0     H 5380   3.028   1.899  11.189 -1.4451  0.0072  1.9584
   39MOL0     H 5381   3.004   2.049  11.110  1.3414 -1.2681 -0.8332
   39MOL0     H 5382   2.869   1.964  11.192  1.2323 -0.2557  1.4613
   40MOL0     O 5383   5.182   2.444   5.795 -0.4515  0.5236 -0.4388
   40MOL0     C 5384   5.108   2.349   5.776  0.0791 -0.0153 -0.1947
   40MOL0     O 5385   5.136   2.245   5.692 -0.7119  0.1275  0.1489
   40MOL0     C 5386   5.259   2.236   5.637 -0.8780 -0.1401  0.4038
   40MOL0     C 5387   5.367   2.171   5.690 -0.3650  0.6923 -0.0205
   40MOL0     C 5388   5.488   2.155   5.617 -1.0350 -0.7763 -0.8812
   40MOL0     C 5389   5.516   2.219   5.499  0.2486  0.0579 -0.3456
   40MOL0     O 5390   5.645   2.192   5.455  0.5557  0.1962 -0.6684
   40MOL0     C 5391   5.682   2.248   5.331  0.5078  0.4546  0.9884
   40MOL0     C 5392   5.839   2.244   5.320  0.2893  0.6116 -0.8014
   40MOL0     C 5393   5.880   2.298   5.189 -0.0032 -0.4374 -0.3542
   40MOL0     C 5394   6.026   2.274   5.160  0.4558 -0.2971 -0.1204
   40MOL0     C 5395   6.125   2.372   5.235  0.9321 -0.3433 -0.1672
   40MOL0     C 5396   6.245   2.404   5.149  0.2413 -0.2461 -0.3502
   40MOL0     C 5397   6.333   2.290   5.111  0.4095  0.1530 -1.5816
   40MOL0     C 5398   6.396   2.214   5.232  0.2719 -0.1995  0.1337
   40MOL0     N 5399   6.517   2.281   5.286 -0.1259  0.0923 -0.2903
   40MOL0     C 5400   6.626   2.216   5.355 -0.1268  0.2730  0.3683
   40MOL0     C 5401   6.723   2.316   5.362  1.1488  0.4594 -0.1216
   40MOL0     C 5402   6.856   2.292   5.410  0.9868  0.1330  0.6798
   40MOL0     C 5403   6.914   2.400   5.499 -0.1014 -0.5059 -0.1684
   40MOL0     C 5404   7.047   2.349   5.564 -0.5005 -1.4354  0.2874
   40MOL0     C 5405   7.165   2.345   5.472 -0.0536 -0.0903  0.6597
   40MOL0     O 5406   7.284   2.344   5.549 -0.2355 -0.0589  0.6307
   40MOL0     C 5407   7.330   2.231   5.608 -0.0595 -0.3687 -0.3657
   40MOL0     C 5408   7.461   2.235   5.658  0.1786 -0.0829 -0.0777
   40MOL0     C 5409   7.518   2.118   5.718  0.3834  0.3886  0.4746
   40MOL0     C 5410   7.666   2.151   5.750 -0.9769  0.4581 -0.5220
   40MOL0     C 5411   7.443   1.989   5.735 -0.1429 -0.8094 -0.5775
   40MOL0     C 5412   7.495   1.861   5.788 -0.2040 -0.5858  0.4164
   40MOL0     O 5413   7.427   1.750   5.756 -0.0277 -0.3588 -0.4343
   40MOL0     C 5414   7.478   1.628   5.787  0.3935  1.7272 -0.0794
   40MOL0     C 5415   7.471   1.567   5.914 -0.2785 -0.6502  0.2215
   40MOL0     C 5416   7.528   1.441   5.945 -0.3733  0.1930  0.6984
   40MOL0     C 5417   7.596   1.370   5.838 -0.7093 -0.0074  0.2372
   40MOL0     O 5418   7.665   1.252   5.846 -0.0428  0.1318  0.1892
   40MOL0     C 5419   7.590   1.130   5.862 -0.0326 -0.6190  0.9152
   40MOL0     C 5420   7.684   1.007   5.841 -0.0310  0.1551 -0.3959
   40MOL0     C 5421   7.756   1.010   5.709  0.4831 -0.0137 -0.6966
   40MOL0     C 5422   7.834   0.883   5.684 -1.3940 -0.0686  1.0237
   40MOL0     C 5423   7.886   0.880   5.539  0.9238  0.5065  0.2083
   40MOL0     C 5424   7.951   0.741   5.506  0.0163 -0.2368  0.4048
   40MOL0     C 5425   7.992   0.735   5.359  0.0370 -1.3055  0.0359
   40MOL0     C 5426   8.096   0.634   5.321  0.0998  0.0564 -0.3627
   40MOL0    Cl 5427   8.038   0.474   5.386 -0.4638  0.2705  0.1346
   40MOL0     C 5428   7.600   1.424   5.711  0.3644 -0.5425 -0.6330
   40MOL0     C 5429   7.543   1.554   5.686  0.0648  0.2482  0.1939
   40MOL0     O 5430   7.596   1.864   5.861  0.4642 -0.1165  0.6669
   40MOL0     C 5431   7.316   1.994   5.679  0.4278  0.1541 -0.5848
   40MOL0     C 5432   7.266   2.106   5.615 -0.8260  0.0240  0.2321
   40MOL0     N 5433   6.677   2.433   5.304  0.2442 -0.1711 -0.2163
   40MOL0     N 5434   6.557   2.408   5.252  0.0696  0.2387 -0.1815
   40MOL0     C 5435   5.411   2.293   5.442  0.7073  0.4607  0.2678
   40MOL0     C 5436   5.288   2.303   5.517  0.1741 -0.7395  0.1278
   40MOL0     C 5437   4.979   2.356   5.848 -0.8026 -0.3858 -0.2757
   40MOL0     C 5438   4.884   2.272   5.792  0.0208  0.5813 -0.2488
   40MOL0     C 5439   4.752   2.254   5.853 -0.7210 -0.6455 -0.0281
   40MOL0     C 5440   4.722   2.326   5.973  0.0540 -0.7375 -1.0935
   40MOL0     O 5441   4.600   2.296   6.034 -0.1850  0.0504 -0.1214
   40MOL0     C 5442   4.571   2.164   6.042 -0.2419 -0.7064 -0.4767
   40MOL0     C 5443   4.462   2.133   6.146  0.7551 -0.9702  1.1066
   40MOL0     C 5444   4.349   2.236   6.137 -0.0043  0.4618 -0.9779
   40MOL0     C 5445   4.221   2.183   6.205 -0.2127 -0.2965 -0.2486
   40MOL0     C 5446   4.115   2.283   6.186  0.6324 -0.3556 -0.8576
   40MOL0     C 5447   4.028   2.367   6.193  0.4602  0.8678  1.3065
   40MOL0     C 5448   4.803   2.437   6.000  0.1176 -0.6343  0.3233
   40MOL0     C 5449   4.937   2.451   5.945 -1.1224  0.7606 -0.1709
   40MOL0     C 5450   5.008   2.580   5.978  0.7855 -0.2464  0.3702
   40MOL0     H 5451   5.364   2.135   5.793 -0.5906 -1.7039 -0.8259
   40MOL0     H 5452   5.569   2.094   5.657 -1.6129 -0.8011  0.2945
   40MOL0     H 5453   5.651   2.352   5.320  4.5780  1.6918 -1.1016
   40MOL0     H 5454   5.638   2.177   5.259  1.9233  0.0236  0.5062
   40MOL0     H 5455   5.869   2.313   5.400 -1.5045  2.0560 -1.2814
   40MOL0     H 5456   5.883   2.145   5.331 -2.4456 -0.3709  4.3137
   40MOL0     H 5457   5.837   2.231   5.114 -1.8216 -0.3812  0.5939
   40MOL0     H 5458   5.845   2.401   5.182  0.4647 -0.1413  1.3627
   40MOL0     H 5459   6.048   2.170   5.185  2.4411  0.6368  2.5143
   40MOL0     H 5460   6.041   2.271   5.052 -1.0741 -0.6639 -0.3414
   40MOL0     H 5461   6.144   2.324   5.331  1.6842  0.2610 -0.0059
   40MOL0     H 5462   6.070   2.463   5.261  0.0607 -1.0728  0.6624
   40MOL0     H 5463   6.206   2.459   5.062 -2.6989  2.0075  2.1662
   40MOL0     H 5464   6.300   2.482   5.201 -0.4933 -1.4068  2.3541
   40MOL0     H 5465   6.408   2.322   5.038  0.3988 -0.4220 -1.8517
   40MOL0     H 5466   6.270   2.218   5.058  0.8808 -1.2432 -0.3400
   40MOL0     H 5467   6.332   2.198   5.320  0.2170 -0.9071 -0.0255
   40MOL0     H 5468   6.419   2.115   5.191  1.7296  0.3354 -0.4252
   40MOL0     H 5469   6.627   2.113   5.388  0.1146 -0.3797 -1.5738
   40MOL0     H 5470   6.927   2.281   5.327  0.5531  0.7199  0.2292
   40MOL0     H 5471   6.865   2.198   5.467 -0.1396  1.2392  2.7996
   40MOL0     H 5472   6.926   2.487   5.435 -1.0701 -1.4035 -1.6306
   40MOL0     H 5473   6.841   2.425   5.577 -1.1707 -1.4472 -0.8231
   40MOL0     H 5474   7.056   2.428   5.640 -2.1695 -0.2151 -0.7136
   40MOL0     H 5475   7.023   2.258   5.619 -0.0149 -1.1919  0.9191
   40MOL0     H 5476   7.169   2.256   5.408  3.9773  0.2486  0.1841
   40MOL0     H 5477   7.168   2.429   5.402 -0.3573 -0.9450 -0.4140
   40MOL0     H 5478   7.522   2.317   5.621  0.8044 -0.5228 -0.0406
   40MOL0     H 5479   7.721   2.154   5.656 -1.5904 -0.3827 -0.9194
   40MOL0     H 5480   7.711   2.066   5.804 -2.5029 -0.6988 -1.0037
   40MOL0     H 5481   7.659   2.244   5.807 -1.3891 -0.2822  0.6848
   40MOL0     H 5482   7.423   1.624   5.993  0.6611 -0.7054  0.8370
   40MOL0     H 5483   7.532   1.410   6.049 -1.9973  0.4317  0.8615
   40MOL0     H 5484   7.545   1.130   5.962  2.4620  2.3278  2.2151
   40MOL0     H 5485   7.514   1.123   5.784  0.6872 -1.7680  0.2971
   40MOL0     H 5486   7.760   1.011   5.919  0.3565  2.9372 -0.8269
   40MOL0     H 5487   7.623   0.916   5.847  1.1490 -0.6108  0.5941
   40MOL0     H 5488   7.823   1.096   5.710  0.4116  0.0388 -0.2587
   40MOL0     H 5489   7.683   1.029   5.630  0.7771  0.0053 -0.9671
   40MOL0     H 5490   7.766   0.798   5.698  1.0494 -2.6271 -1.2399
   40MOL0     H 5491   7.910   0.874   5.762 -1.8449 -1.8553  1.2961
   40MOL0     H 5492   7.803   0.895   5.469  0.6658  1.3444  0.6879
   40MOL0     H 5493   7.963   0.957   5.529  0.7733  0.6609  0.2330
   40MOL0     H 5494   7.891   0.655   5.538 -1.5884 -0.1024 -1.9539
   40MOL0     H 5495   8.046   0.729   5.559  0.8686  0.0358 -0.9797
   40MOL0     H 5496   8.020   0.835   5.323  0.0926 -2.3162 -3.0501
   40MOL0     H 5497   7.908   0.705   5.296  0.0243 -0.2991 -0.4520
   40MOL0     H 5498   8.185   0.656   5.379  1.4208 -2.8064 -1.1273
   40MOL0     H 5499   8.128   0.620   5.217 -0.8497 -1.3622 -0.4891
   40MOL0     H 5500   7.643   1.378   5.623 -2.3798 -0.0146 -2.3743
   40MOL0     H 5501   7.560   1.600   5.589  0.8956  0.3520  0.3827
   40MOL0     H 5502   7.239   1.918   5.674  0.5987 -0.0889  0.2441
   40MOL0     H 5503   7.168   2.082   5.573 -2.2704 -1.8176  4.1857
   40MOL0     H 5504   5.429   2.334   5.343  3.1017 -2.7551 -0.7852
   40MOL0     H 5505   5.213   2.367   5.472 -0.3395 -1.1681  0.3621
   40MOL0     H 5506   4.897   2.213   5.702 -0.9565  2.2832 -1.5497
   40MOL0     H 5507   4.692   2.177   5.805  2.3046 -3.2660  0.0599
   40MOL0     H 5508   4.550   2.131   5.940  0.2716  3.8966 -2.3447
   40MOL0     H 5509   4.663   2.113   6.072  0.4083  1.4509  1.5673
   40MOL0     H 5510   4.491   2.138   6.251 -1.2715  3.3654  1.6702
   40MOL0     H 5511   4.430   2.035   6.110  4.4475 -2.1799  0.6289
   40MOL0     H 5512   4.383   2.329   6.184  0.6401 -0.3526  0.2088
   40MOL0     H 5513   4.332   2.256   6.031 -2.2114 -1.6152 -1.0916
   40MOL0     H 5514   4.244   2.171   6.312 -0.0919 -2.2968 -0.4593
   40MOL0     H 5515   4.185   2.096   6.149 -2.0059  0.1398  0.1472
   40MOL0     H 5516   3.946   2.436   6.189  1.5007  2.0956 -1.3207
   40MOL0     H 5517   4.767   2.502   6.079 -1.0588 -2.2728  1.2029
   40MOL0     H 5518   5.095   2.557   6.040  0.9415  0.3542  0.3774
   40MOL0     H 5519   5.040   2.632   5.887  0.7291 -1.6257 -0.4630
   40MOL0     H 5520   4.944   2.649   6.033  0.0080 -1.4475  1.0034
   41MOL0     O 5521   7.650   5.138  10.745 -0.2156 -0.3949  0.6432
   41MOL0     C 5522   7.577   5.074  10.821 -0.4689  0.1504  0.1566
   41MOL0     O 5523   7.582   5.083  10.957  0.4534  0.2734  0.0586
   41MOL0     C 5524   7.665   5.177  11.025  0.4279 -1.2362 -0.2686
   41MOL0     C 5525   7.799   5.209  11.010  0.2599 -0.7068 -0.0201
   41MOL0     C 5526   7.859   5.297  11.095 -0.5043 -1.2198  0.7191
   41MOL0     C 5527   7.785   5.359  11.197 -0.1427  0.5031 -0.3431
   41MOL0     O 5528   7.850   5.435  11.290  0.0995 -0.2873 -1.0879
   41MOL0     C 5529   7.802   5.436  11.431 -0.0291 -0.3380  0.5534
   41MOL0     C 5530   7.920   5.451  11.537  0.2831 -0.3247 -0.1518
   41MOL0     C 5531   7.870   5.489  11.678  0.1601 -1.0935 -0.4803
   41MOL0     C 5532   7.973   5.581  11.760 -0.3399  0.1072  0.2817
   41MOL0     C 5533   7.927   5.589  11.906 -0.3081  0.3561  0.2590
   41MOL0     C 5534   8.037   5.675  11.978 -0.0812  0.4210 -0.2714
   41MOL0     C 5535   8.040   5.671  12.124 -0.6901  0.0675 -0.3534
   41MOL0     C 5536   8.179   5.701  12.173 -1.2744 -0.7824 -0.4219
   41MOL0     N 5537   8.208   5.718  12.316 -0.1007 -0.1548 -0.2588
   41MOL0     C 5538   8.177   5.820  12.395  0.3089 -0.5493 -0.9046
   41MOL0     C 5539   8.229   5.784  12.522 -0.0888 -0.0627  0.8859
   41MOL0     C 5540   8.204   5.860  12.640  0.4155 -0.5140 -0.2185
   41MOL0     C 5541   8.325   5.949  12.681  0.9145 -0.0018  0.9614
   41MOL0     C 5542   8.289   6.023  12.805 -0.2803  0.1044 -1.0832
   41MOL0     C 5543   8.380   6.149  12.818  0.3917  0.0530  0.0217
   41MOL0     O 5544   8.333   6.255  12.739  0.8583 -0.0481 -0.0355
   41MOL0     C 5545   8.208   6.314  12.751  0.0042 -0.4053 -0.0702
   41MOL0     C 5546   8.138   6.321  12.874  0.5440  0.0220  0.2305
   41MOL0     C 5547   8.031   6.408  12.894 -0.3875  0.1449  0.4328
   41MOL0     C 5548   7.990   6.429  13.036  0.3317 -0.8460  0.0419
   41MOL0     C 5549   7.982   6.493  12.786  0.5118 -0.5850  0.4999
   41MOL0     C 5550   7.874   6.593  12.795 -0.1439  0.8642  0.7280
   41MOL0     O 5551   7.857   6.685  12.693  0.3041 -0.3680  0.0635
   41MOL0     C 5552   7.750   6.764  12.718  0.7342  0.3996 -0.1954
   41MOL0     C 5553   7.617   6.733  12.681  0.6631 -0.8652  0.4339
   41MOL0     C 5554   7.512   6.809  12.717  0.3022 -0.3049  0.3544
   41MOL0     C 5555   7.530   6.938  12.776 -0.8127 -1.2044  0.1815
   41MOL0     O 5556   7.424   7.021  12.805  0.2269  0.6064 -0.4489
   41MOL0     C 5557   7.443   7.149  12.869 -0.5499 -0.0819  0.2614
   41MOL0     C 5558   7.307   7.192  12.930  0.1743 -0.4495 -0.7435
   41MOL0     C 5559   7.313   7.309  13.016  0.5833 -0.3475 -0.0231
   41MOL0     C 5560   7.178   7.366  13.040 -0.2238 -0.4168 -0.3224
   41MOL0     C 5561   7.156   7.443  13.170  0.1789 -0.0346 -0.8027
   41MOL0     C 5562   7.150   7.343  13.290  0.3650  0.1593  0.5654
   41MOL0     C 5563   7.021   7.251  13.295 -0.3738 -0.0263 -0.1002
   41MOL0     C 5564   7.059   7.152  13.407  0.0907  0.6330 -0.1484
   41MOL0    Cl 5565   7.176   7.043  13.315 -0.1278  0.2210 -0.3166
   41MOL0     C 5566   7.663   6.967  12.802  0.3263 -0.7501 -0.7739
   41MOL0     C 5567   7.773   6.888  12.783 -0.2550 -0.0935 -0.0955
   41MOL0     O 5568   7.805   6.590  12.897 -0.9460 -0.4042 -0.1954
   41MOL0     C 5569   8.040   6.471  12.664 -1.1853  0.2766  0.9261
   41MOL0     C 5570   8.151   6.387  12.648  0.1518 -0.0816 -0.4070
   41MOL0     N 5571   8.312   5.678  12.498  0.6111  0.1052 -0.2889
   41MOL0     N 5572   8.291   5.636  12.379 -0.3702  0.1448 -0.3607
   41MOL0     C 5573   7.652   5.326  11.211  0.0304  0.2955  0.2880
   41MOL0     C 5574   7.593   5.228  11.134  0.0192 -1.3492  0.3515
   41MOL0     C 5575   7.482   4.976  10.775  0.6868  0.3714  0.9056
   41MOL0     C 5576   7.409   4.888  10.856  0.2031 -0.0251 -0.0499
   41MOL0     C 5577   7.328   4.788  10.807 -0.0193  0.6068  0.1703
   41MOL0     C 5578   7.306   4.770  10.675  0.4404 -0.3468 -0.3777
   41MOL0     O 5579   7.231   4.671  10.622  0.2151 -0.6891 -0.2649
   41MOL0     C 5580   7.145   4.594  10.710  0.0607 -0.4064  0.0220
   41MOL0     C 5581   7.031   4.521  10.621 -0.2858  0.3897 -1.2185
   41MOL0     C 5582   7.091   4.420  10.510 -0.2994  0.0197 -0.4165
   41MOL0     C 5583   6.988   4.381  10.400 -0.2764  0.1947 -0.7806
   41MOL0     C 5584   7.027   4.247  10.348 -0.2536  0.4267 -0.2675
   41MOL0     C 5585   7.056   4.132  10.307  0.2591 -0.2187 -0.3144
   41MOL0     C 5586   7.371   4.855  10.589 -0.8317 -0.2947 -0.3339
   41MOL0     C 5587   7.456   4.956  10.638  0.4840 -0.3413  0.0873
   41MOL0     C 5588   7.506   5.041  10.520 -0.8758  0.1828 -0.8486
   41MOL0     H 5589   7.851   5.171  10.923 -3.1676 -2.0498 -1.6885
   41MOL0     H 5590   7.961   5.323  11.066 -1.6776  0.2029 -2.6894
   41MOL0     H 5591   7.742   5.345  11.440 -0.7344 -1.2885 -6.8510
   41MOL0     H 5592   7.732   5.518  11.446  0.1503 -0.2000  0.6345
   41MOL0     H 5593   7.983   5.361  11.540 -0.4801 -0.9087 -1.1150
   41MOL0     H 5594   7.989   5.527  11.497  2.7624 -3.0736 -1.5091
   41MOL0     H 5595   7.769   5.529  11.675  0.5185  0.0952  1.3792
   41MOL0     H 5596   7.864   5.392  11.728  1.7834 -1.6283 -1.2577
   41MOL0     H 5597   8.075   5.543  11.752 -0.5274 -0.5733  0.9243
   41MOL0     H 5598   7.962   5.680  11.716 -1.0375 -0.0051  0.1967
   41MOL0     H 5599   7.918   5.487  11.945 -2.1739  1.6048  3.5662
   41MOL0     H 5600   7.827   5.628  11.925  0.5005  3.3017 -1.0191
   41MOL0     H 5601   8.130   5.636  11.937 -0.8074 -0.1975 -1.3825
   41MOL0     H 5602   8.035   5.781  11.949  0.6857  0.8259  1.0804
   41MOL0     H 5603   8.001   5.574  12.156  0.7340 -0.3288  0.2643
   41MOL0     H 5604   7.963   5.743  12.156  0.4490  1.3382 -0.3746
   41MOL0     H 5605   8.239   5.619  12.133 -0.1028 -1.3944  2.3356
   41MOL0     H 5606   8.213   5.792  12.122  1.3984 -1.6325 -0.3228
   41MOL0     H 5607   8.122   5.909  12.365  0.8113 -0.8277 -2.7534
   41MOL0     H 5608   8.165   5.799  12.722 -1.2966  0.3430 -0.3367
   41MOL0     H 5609   8.119   5.924  12.615  0.7948  0.4189  0.8543
   41MOL0     H 5610   8.413   5.886  12.700 -0.3151 -2.3869 -0.7837
   41MOL0     H 5611   8.347   6.020  12.602 -1.2949  2.6527  2.5586
   41MOL0     H 5612   8.185   6.056  12.813 -0.4775 -0.6924 -0.2804
   41MOL0     H 5613   8.305   5.962  12.894  1.0596  1.4137 -0.3802
   41MOL0     H 5614   8.374   6.184  12.922  1.9831  1.9212 -0.4558
   41MOL0     H 5615   8.485   6.124  12.798  0.7348  0.9680  0.6264
   41MOL0     H 5616   8.167   6.245  12.946  1.5661 -1.4667 -1.6493
   41MOL0     H 5617   7.994   6.529  13.080  1.8020 -1.2458  0.8922
   41MOL0     H 5618   8.043   6.362  13.105  0.6638  1.2682  1.9196
   41MOL0     H 5619   7.885   6.400  13.045  0.5368 -1.7759 -0.4493
   41MOL0     H 5620   7.600   6.637  12.632 -1.7468  0.7701 -2.2654
   41MOL0     H 5621   7.408   6.784  12.697 -0.5900  0.4700  3.5740
   41MOL0     H 5622   7.513   7.152  12.953 -1.8694 -1.2088  1.4601
   41MOL0     H 5623   7.474   7.221  12.793 -0.1766 -0.7370 -0.2098
   41MOL0     H 5624   7.248   7.215  12.840  1.1810  2.3301 -0.7738
   41MOL0     H 5625   7.254   7.107  12.975  3.4698 -2.0715  0.3677
   41MOL0     H 5626   7.374   7.390  12.975 -2.0941  1.2922 -1.0211
   41MOL0     H 5627   7.364   7.280  13.108  4.0645  0.1356 -1.6475
   41MOL0     H 5628   7.098   7.292  13.027  2.5942 -3.7327 -0.3927
   41MOL0     H 5629   7.154   7.437  12.960  0.5945  1.9350  1.4133
   41MOL0     H 5630   7.247   7.500  13.191  0.1575  0.0068 -0.8245
   41MOL0     H 5631   7.068   7.508  13.168  1.7765  2.2477 -1.9171
   41MOL0     H 5632   7.161   7.397  13.384 -1.2077  0.7990  0.4242
   41MOL0     H 5633   7.236   7.279  13.269 -0.4146 -0.2569 -1.6809
   41MOL0     H 5634   7.010   7.209  13.194  2.3356  4.2871 -2.5060
   41MOL0     H 5635   6.927   7.303  13.315  0.5560  1.8138 -0.3517
   41MOL0     H 5636   6.974   7.089  13.432 -0.0061 -2.3584 -6.0785
   41MOL0     H 5637   7.101   7.199  13.497  0.0454 -0.1793  0.3053
   41MOL0     H 5638   7.685   7.056  12.859  2.2918 -1.6859  0.0438
   41MOL0     H 5639   7.873   6.911  12.819  0.0453  0.6583 -1.3641
   41MOL0     H 5640   8.003   6.524  12.577 -0.2639 -0.2328  0.1987
   41MOL0     H 5641   8.185   6.371  12.546  0.0308  1.3705 -0.6904
   41MOL0     H 5642   7.597   5.378  11.288  0.0997 -0.1141  0.6150
   41MOL0     H 5643   7.491   5.195  11.150 -0.0687 -0.6280  1.3442
   41MOL0     H 5644   7.422   4.891  10.964  5.0833 -0.8868 -0.3927
   41MOL0     H 5645   7.275   4.725  10.878  1.6713 -0.4176  0.5706
   41MOL0     H 5646   7.214   4.526  10.761  0.2266  0.4085  0.9100
   41MOL0     H 5647   7.105   4.656  10.791  0.9388  0.7342 -0.3951
   41MOL0     H 5648   6.976   4.600  10.568  2.4830  3.1171 -0.3526
   41MOL0     H 5649   6.966   4.471  10.693  1.2949  1.5059  1.0884
   41MOL0     H 5650   7.174   4.472  10.462 -1.5285  1.3426 -1.1725
   41MOL0     H 5651   7.123   4.337  10.574  2.6504  0.7976 -0.7207
   41MOL0     H 5652   6.989   4.461  10.325 -1.4136  0.5810 -0.4025
   41MOL0     H 5653   6.888   4.386  10.445 -0.6422  0.2361 -1.5659
   41MOL0     H 5654   7.070   4.030  10.276 -0.1421  0.3119 -2.4466
   41MOL0     H 5655   7.340   4.833  10.488 -0.1141 -2.1766 -0.1956
   41MOL0     H 5656   7.466   5.142  10.521  1.7856  1.3088 -0.5447
   41MOL0     H 5657   7.616   5.045  10.520 -0.8780  0.5722  0.1845
   41MOL0     H 5658   7.473   4.990  10.429 -2.4088 -1.2370  0.4181
   42MOL0     O 5659   3.963   6.466   4.644  1.3460 -0.4371 -0.1658
   42MOL0     C 5660   3.912   6.435   4.751  0.1161 -0.7024 -0.7879
   42MOL0     O 5661   3.975   6.407   4.864 -0.2206 -0.0320  0.3331
   42MOL0     C 5662   4.112   6.396   4.864  0.8313 -0.1223  0.5923
   42MOL0     C 5663   4.176   6.441   4.983 -0.0096 -0.6290 -0.2746
   42MOL0     C 5664   4.312   6.436   5.002 -0.4174 -0.1591  0.7316
   42MOL0     C 5665   4.399   6.398   4.900 -0.7160  0.4134  0.0835
   42MOL0     O 5666   4.537   6.404   4.919 -0.1231  0.4162  0.1631
   42MOL0     C 5667   4.614   6.332   4.821  1.0281  0.2209 -0.2389
   42MOL0     C 5668   4.766   6.311   4.859  0.6584 -0.6981  0.1188
   42MOL0     C 5669   4.838   6.447   4.891 -0.2740  0.1609 -0.3070
   42MOL0     C 5670   4.982   6.425   4.939  0.4457  0.3058  1.0242
   42MOL0     C 5671   5.074   6.547   4.920  0.1596  0.5914 -0.3360
   42MOL0     C 5672   5.217   6.496   4.869 -0.2449  0.2803 -0.4641
   42MOL0     C 5673   5.312   6.621   4.877 -0.1327  0.0748  0.5065
   42MOL0     C 5674   5.320   6.681   4.736 -0.2422  0.7923 -0.1824
   42MOL0     N 5675   5.413   6.793   4.712  0.8472  0.1763  0.1861
   42MOL0     C 5676   5.374   6.915   4.666  0.4973  1.0514  0.3593
   42MOL0     C 5677   5.487   6.977   4.641  0.6956  0.3047 -0.0455
   42MOL0     C 5678   5.498   7.106   4.573  0.4414 -1.2095  0.4091
   42MOL0     C 5679   5.617   7.123   4.482  0.9863 -0.0733  0.1589
   42MOL0     C 5680   5.611   7.266   4.420  0.7680  0.6920  0.2887
   42MOL0     C 5681   5.723   7.293   4.326 -0.3627  0.5518  0.1227
   42MOL0     O 5682   5.837   7.352   4.384  0.5164  0.1685  0.5615
   42MOL0     C 5683   5.949   7.406   4.317 -0.2510 -0.5697 -0.3410
   42MOL0     C 5684   5.962   7.411   4.175  0.0943 -0.5132  0.0148
   42MOL0     C 5685   6.075   7.471   4.122 -1.3156 -0.6082  0.0660
   42MOL0     C 5686   6.083   7.478   3.973 -0.1471  0.0762 -0.4316
   42MOL0     C 5687   6.172   7.529   4.204  0.6586 -0.9591 -0.6155
   42MOL0     C 5688   6.291   7.591   4.155  0.1445 -0.8185 -0.8681
   42MOL0     O 5689   6.299   7.725   4.196 -0.4312  0.2308 -0.0423
   42MOL0     C 5690   6.398   7.796   4.133 -0.7186  0.1391  0.0006
   42MOL0     C 5691   6.356   7.914   4.067 -0.2881  0.7351  0.2665
   42MOL0     C 5692   6.445   7.988   3.996 -0.5667  0.6119 -0.1812
   42MOL0     C 5693   6.582   7.974   3.996 -0.0817 -0.0423 -0.0992
   42MOL0     O 5694   6.658   8.068   3.936 -0.0891  0.6279 -0.3607
   42MOL0     C 5695   6.797   8.071   3.979 -0.1262  0.0689 -0.5622
   42MOL0     C 5696   6.844   8.216   3.958  0.3428 -0.1685 -0.4150
   42MOL0     C 5697   6.986   8.248   3.999 -0.0379 -0.3649  0.3979
   42MOL0     C 5698   7.040   8.367   3.920  0.0061  0.4640  0.1871
   42MOL0     C 5699   7.187   8.391   3.963 -0.4310 -0.4893  1.2219
   42MOL0     C 5700   7.292   8.278   3.972  0.1140  0.4618  0.2873
   42MOL0     C 5701   7.436   8.330   3.948  0.0160  0.7166  0.5228
   42MOL0     C 5702   7.455   8.381   3.797  0.1668 -0.9626 -0.7751
   42MOL0    Cl 5703   7.616   8.349   3.735  0.7576 -0.4198 -0.2380
   42MOL0     C 5704   6.629   7.857   4.062 -1.9333  0.4141  0.6543
   42MOL0     C 5705   6.538   7.769   4.127 -0.4890 -0.1389  0.2092
   42MOL0     O 5706   6.380   7.525   4.102 -0.0980  0.0278  0.2418
   42MOL0     C 5707   6.159   7.526   4.341  0.1141 -0.1011  0.2646
   42MOL0     C 5708   6.048   7.455   4.397 -0.2720 -0.7111 -0.2404
   42MOL0     N 5709   5.589   6.899   4.690  0.1059 -0.0360 -0.0123
   42MOL0     N 5710   5.549   6.784   4.742  0.2711  0.7104  0.0260
   42MOL0     C 5711   4.336   6.363   4.774  0.0524 -0.6679 -0.1417
   42MOL0     C 5712   4.195   6.347   4.757 -0.3416  0.5783 -0.8459
   42MOL0     C 5713   3.762   6.433   4.758 -0.3362  0.2303  0.1187
   42MOL0     C 5714   3.712   6.341   4.856  1.0082 -0.7279 -0.9725
   42MOL0     C 5715   3.573   6.326   4.866 -0.2710 -0.2522  0.7963
   42MOL0     C 5716   3.478   6.406   4.794 -0.7412 -0.3688  0.4861
   42MOL0     O 5717   3.344   6.389   4.785 -0.1876  0.4453 -1.0353
   42MOL0     C 5718   3.276   6.289   4.863  0.1185  0.3275 -0.2864
   42MOL0     C 5719   3.126   6.330   4.874  0.0254  0.5233 -0.0120
   42MOL0     C 5720   3.063   6.243   4.983  0.4707 -0.4559  0.6500
   42MOL0     C 5721   2.914   6.268   5.003 -0.7621  1.1232  0.2641
   42MOL0     C 5722   2.881   6.383   5.077  0.4232 -0.5797  0.6940
   42MOL0     C 5723   2.841   6.483   5.133  0.8029 -0.0488 -0.8950
   42MOL0     C 5724   3.529   6.501   4.710 -0.8102  0.4892  0.5959
   42MOL0     C 5725   3.676   6.506   4.682  0.5568  0.3733  0.1281
   42MOL0     C 5726   3.717   6.594   4.574 -0.3455  0.5157  0.3844
   42MOL0     H 5727   4.115   6.473   5.066  0.0270 -0.7212 -0.2117
   42MOL0     H 5728   4.350   6.470   5.098 -0.1570 -0.0216  0.5829
   42MOL0     H 5729   4.611   6.388   4.728  0.8410 -1.3703 -1.2298
   42MOL0     H 5730   4.562   6.236   4.814 -0.9478  0.6780  4.3556
   42MOL0     H 5731   4.779   6.229   4.931  1.0981 -0.4173  0.3650
   42MOL0     H 5732   4.809   6.263   4.770 -3.2889 -1.4201 -1.5883
   42MOL0     H 5733   4.827   6.522   4.812  1.0892 -1.5978 -2.3074
   42MOL0     H 5734   4.781   6.486   4.975 -1.6396 -1.1418 -0.5856
   42MOL0     H 5735   4.974   6.394   5.044  0.0019 -1.5783  0.4746
   42MOL0     H 5736   5.026   6.352   4.871 -0.1643  0.1615  0.7840
   42MOL0     H 5737   5.075   6.606   5.012  2.8515  1.0750 -0.5828
   42MOL0     H 5738   5.039   6.623   4.850  0.2749  1.7280  0.8022
   42MOL0     H 5739   5.254   6.431   4.949 -2.1039  1.1148  1.1578
   42MOL0     H 5740   5.208   6.436   4.778 -0.1566  0.8731 -0.8726
   42MOL0     H 5741   5.412   6.595   4.913  0.1310 -1.1724 -0.9975
   42MOL0     H 5742   5.279   6.697   4.948  1.7078  2.1697 -0.7428
   42MOL0     H 5743   5.336   6.606   4.659  0.9126  2.5519 -1.7520
   42MOL0     H 5744   5.217   6.709   4.712 -0.6045  0.6263  1.1059
   42MOL0     H 5745   5.271   6.934   4.637 -0.1623 -1.9560  0.3387
   42MOL0     H 5746   5.495   7.182   4.652  2.8766 -2.0550  1.4172
   42MOL0     H 5747   5.410   7.117   4.508 -0.5549  0.6602  1.9560
   42MOL0     H 5748   5.701   7.121   4.553  0.8637 -0.3280  0.3008
   42MOL0     H 5749   5.622   7.039   4.412 -0.0912  0.6352 -0.7941
   42MOL0     H 5750   5.524   7.290   4.357  1.1017  1.9368  0.2907
   42MOL0     H 5751   5.598   7.331   4.506  0.1085  0.8616  0.0659
   42MOL0     H 5752   5.753   7.210   4.261  0.0155  1.0637 -0.3610
   42MOL0     H 5753   5.695   7.368   4.252  3.0712  0.7253 -1.1658
   42MOL0     H 5754   5.885   7.371   4.109  0.9733 -3.2711  0.5234
   42MOL0     H 5755   6.046   7.578   3.946 -1.3964 -0.0184  0.8347
   42MOL0     H 5756   6.026   7.399   3.923  1.6081 -2.1308  0.8922
   42MOL0     H 5757   6.188   7.470   3.943  0.7419 -2.6826  2.8231
   42MOL0     H 5758   6.249   7.933   4.061 -0.6097 -1.2657 -1.2721
   42MOL0     H 5759   6.419   8.065   3.924 -2.9155 -1.7421 -2.0528
   42MOL0     H 5760   6.806   8.046   4.085  0.0325 -1.6653 -0.9531
   42MOL0     H 5761   6.865   8.001   3.929  1.5290  0.6615  0.7861
   42MOL0     H 5762   6.825   8.233   3.851 -0.4845 -0.3238 -0.2989
   42MOL0     H 5763   6.783   8.282   4.020 -1.3615 -0.3248 -1.8462
   42MOL0     H 5764   7.049   8.166   3.963 -0.0272  1.0397 -3.1320
   42MOL0     H 5765   6.999   8.250   4.108 -0.3339 -3.0255  0.5614
   42MOL0     H 5766   6.982   8.459   3.928 -0.1631  0.2798  1.1554
   42MOL0     H 5767   7.039   8.347   3.812 -0.1724  2.1915 -0.1735
   42MOL0     H 5768   7.214   8.458   3.880 -0.7639 -1.2023  0.5158
   42MOL0     H 5769   7.182   8.452   4.053 -2.8825 -0.3888  1.0990
   42MOL0     H 5770   7.262   8.201   3.900 -0.7836 -0.6237  1.7771
   42MOL0     H 5771   7.290   8.230   4.070 -3.3843 -0.3436 -0.0437
   42MOL0     H 5772   7.495   8.238   3.953  0.1141  0.7200 -0.4553
   42MOL0     H 5773   7.484   8.406   4.010  4.9823  0.1007 -2.0842
   42MOL0     H 5774   7.439   8.488   3.784 -1.4975 -1.3619 -2.4326
   42MOL0     H 5775   7.391   8.318   3.734 -2.3456  1.2290 -0.6285
   42MOL0     H 5776   6.733   7.827   4.057 -1.8424  0.8126  0.0228
   42MOL0     H 5777   6.574   7.678   4.172 -1.1985 -1.0402 -0.9928
   42MOL0     H 5778   6.242   7.559   4.403  0.8311 -1.8023  0.2835
   42MOL0     H 5779   6.057   7.461   4.505  1.7311  1.8774 -0.4529
   42MOL0     H 5780   4.399   6.329   4.692  0.8078 -1.5622  0.7752
   42MOL0     H 5781   4.154   6.299   4.669  2.3139  1.1249 -2.4804
   42MOL0     H 5782   3.775   6.271   4.910  1.2425 -1.8886 -2.6986
   42MOL0     H 5783   3.529   6.252   4.933 -2.8217  1.3352  1.0195
   42MOL0     H 5784   3.290   6.190   4.821 -0.2729 -0.2027  0.7832
   42MOL0     H 5785   3.317   6.286   4.965 -0.5277  2.8689  0.1212
   42MOL0     H 5786   3.074   6.322   4.778 -0.2642  0.2604  0.1627
   42MOL0     H 5787   3.114   6.434   4.904  1.4259  0.4412  0.9393
   42MOL0     H 5788   3.072   6.138   4.953 -0.0121 -0.8068  1.6843
   42MOL0     H 5789   3.106   6.251   5.083 -1.9450 -4.5706  2.3250
   42MOL0     H 5790   2.862   6.194   5.065 -0.1497  1.2127  0.8921
   42MOL0     H 5791   2.865   6.276   4.906  0.9251 -2.0596 -1.0341
   42MOL0     H 5792   2.804   6.569   5.186 -0.2715 -0.2928 -1.2235
   42MOL0     H 5793   3.465   6.565   4.651  2.4102  2.3956 -1.1735
   42MOL0     H 5794   3.794   6.668   4.598 -0.4564  0.6956  0.1966
   42MOL0     H 5795   3.741   6.540   4.482 -0.8277  1.3096 -0.2141
   42MOL0     H 5796   3.634   6.650   4.530  0.1450  0.4261 -0.6884
   43MOL0     O 5797   9.503   4.555   3.994 -0.0692  0.4065  0.1217
   43MOL0     C 5798   9.402   4.580   4.071  0.1126 -0.4706  0.0581
   43MOL0     O 5799   9.408   4.631   4.198 -0.2507 -0.4715  0.0890
   43MOL0     C 5800   9.524   4.693   4.239 -0.8673 -0.3344 -0.4436
   43MOL0     C 5801   9.509   4.797   4.326 -0.0510 -0.6534 -0.2818
   43MOL0     C 5802   9.597   4.881   4.368  0.9440  0.0652 -0.6828
   43MOL0     C 5803   9.733   4.855   4.331  0.5354 -0.1153 -0.0554
   43MOL0     O 5804   9.837   4.938   4.370 -0.4152 -0.5499  0.1967
   43MOL0     C 5805   9.807   5.048   4.462 -0.3635  0.4274  1.3907
   43MOL0     C 5806   9.924   5.115   4.522 -0.2783 -0.3603 -0.3020
   43MOL0     C 5807  10.019   5.183   4.410  0.3098  0.5474  0.2105
   43MOL0     C 5808  10.127   5.269   4.471  0.1513 -0.4636  0.1486
   43MOL0     C 5809  10.211   5.346   4.363 -0.0486  0.6307 -0.2010
   43MOL0     C 5810  10.338   5.414   4.421 -0.3685 -0.3256  0.1730
   43MOL0     C 5811  10.430   5.456   4.305 -0.4911  0.6843  1.2594
   43MOL0     C 5812  10.547   5.540   4.356 -0.1249 -0.0393 -0.9850
   43MOL0     N 5813  10.657   5.473   4.419 -0.7236  0.8573  0.0763
   43MOL0     C 5814  10.783   5.455   4.370 -1.1661 -0.2224 -0.1949
   43MOL0     C 5815  10.862   5.428   4.471 -0.0268  1.0159  0.2406
   43MOL0     C 5816  11.007   5.411   4.471  0.1884  0.0768 -0.3383
   43MOL0     C 5817  11.089   5.513   4.542 -0.1739  0.0815  0.4470
   43MOL0     C 5818  11.051   5.529   4.689  0.3475  0.4867  0.8148
   43MOL0     C 5819  11.162   5.610   4.762  0.7825 -0.5949  0.1933
   43MOL0     O 5820  11.159   5.574   4.898  0.7883  0.0773 -0.3568
   43MOL0     C 5821  11.208   5.672   4.981  0.2670  0.1574 -0.8015
   43MOL0     C 5822  11.172   5.673   5.121 -0.1806 -0.1614 -0.4467
   43MOL0     C 5823  11.210   5.775   5.213  0.4568 -0.3169  0.9482
   43MOL0     C 5824  11.142   5.776   5.348 -0.0442 -0.0762  0.2332
   43MOL0     C 5825  11.294   5.885   5.159  1.1748  0.2433 -0.3982
   43MOL0     C 5826  11.320   6.013   5.227  0.2071  0.4711  0.1446
   43MOL0     O 5827  11.424   6.090   5.172 -1.0423  0.7163  0.0476
   43MOL0     C 5828  11.457   6.211   5.230  0.7672  1.1374 -0.3454
   43MOL0     C 5829  11.433   6.238   5.365 -0.3875  0.5910 -0.2127
   43MOL0     C 5830  11.463   6.364   5.417  0.5102  0.0944 -0.0752
   43MOL0     C 5831  11.530   6.455   5.331  0.1614  0.2570 -1.0005
   43MOL0     O 5832  11.598   6.570   5.375  0.1837 -0.5434  0.2868
   43MOL0     C 5833  11.542   6.625   5.496  0.1920  0.1318  1.0637
   43MOL0     C 5834  11.640   6.736   5.559  0.2740  0.9885  0.3329
   43MOL0     C 5835  11.601   6.872   5.500  0.4872  0.5369  0.5492
   43MOL0     C 5836  11.697   6.982   5.552 -0.3938 -0.1233 -0.9295
   43MOL0     C 5837  11.700   7.100   5.450  0.0744  0.0608 -0.1724
   43MOL0     C 5838  11.806   7.200   5.491 -0.5735 -0.6437  0.5492
   43MOL0     C 5839  11.776   7.343   5.427  0.2158 -0.0359 -0.3972
   43MOL0     C 5840  11.862   7.365   5.300  0.5368  0.0271 -0.2446
   43MOL0    Cl 5841  11.807   7.518   5.232  0.2346  0.4600  0.2255
   43MOL0     C 5842  11.544   6.426   5.201  0.2584  0.7355 -0.5230
   43MOL0     C 5843  11.517   6.304   5.145 -0.3970 -0.4909  0.1625
   43MOL0     O 5844  11.234   6.046   5.313 -0.2685 -0.1156  0.7346
   43MOL0     C 5845  11.343   5.872   5.032 -0.8050 -0.4398 -0.7755
   43MOL0     C 5846  11.305   5.766   4.949 -0.1223 -0.3488  0.2403
   43MOL0     N 5847  10.782   5.416   4.579  0.1089  0.0334  0.8235
   43MOL0     N 5848  10.662   5.437   4.551 -0.2845  0.5226 -0.4297
   43MOL0     C 5849   9.758   4.752   4.242 -0.5860  0.1202  0.4738
   43MOL0     C 5850   9.657   4.663   4.203  0.1429  0.0519 -0.0166
   43MOL0     C 5851   9.260   4.573   4.015 -0.0470  0.0440 -0.3585
   43MOL0     C 5852   9.249   4.598   3.874 -2.0231 -0.1045 -0.0220
   43MOL0     C 5853   9.133   4.585   3.809 -0.5565  0.2491  0.2478
   43MOL0     C 5854   9.021   4.559   3.885 -0.6214 -0.2860 -0.4136
   43MOL0     O 5855   8.894   4.540   3.821 -0.3592  0.5027 -0.0373
   43MOL0     C 5856   8.884   4.481   3.694  1.3720 -1.2188 -0.1276
   43MOL0     C 5857   8.877   4.331   3.710  0.0352 -0.0213 -0.7403
   43MOL0     C 5858   8.953   4.249   3.606 -0.1913 -0.8947  0.4321
   43MOL0     C 5859   8.943   4.098   3.629  0.5736 -0.4075  0.4202
   43MOL0     C 5860   8.809   4.043   3.624 -0.0593 -0.0752 -0.0532
   43MOL0     C 5861   8.692   4.008   3.625 -0.1719  0.1123 -0.5994
   43MOL0     C 5862   9.023   4.543   4.026  0.1498  0.6581 -0.7927
   43MOL0     C 5863   9.140   4.545   4.099 -0.1875  0.1873 -0.1237
   43MOL0     C 5864   9.142   4.524   4.253  0.1209 -0.6656 -0.8753
   43MOL0     H 5865   9.407   4.819   4.356  0.2752 -3.3256  3.5614
   43MOL0     H 5866   9.567   4.969   4.423  0.1668 -0.6033 -0.0091
   43MOL0     H 5867   9.738   5.015   4.541 -1.2228  0.8841  0.8551
   43MOL0     H 5868   9.755   5.126   4.405 -0.1044 -1.1866 -1.2420
   43MOL0     H 5869   9.875   5.185   4.591  1.6792  1.2717 -0.4711
   43MOL0     H 5870   9.985   5.042   4.576 -0.8316  0.7826  2.0098
   43MOL0     H 5871  10.075   5.105   4.358  1.6176 -0.1295  2.4867
   43MOL0     H 5872   9.958   5.240   4.339 -2.6321  0.5660  2.5273
   43MOL0     H 5873  10.080   5.336   4.543 -1.4354 -1.9803  0.5786
   43MOL0     H 5874  10.196   5.214   4.535  0.6147  1.4686  1.3941
   43MOL0     H 5875  10.135   5.420   4.340 -0.0137  0.4703 -0.8483
   43MOL0     H 5876  10.226   5.286   4.273 -2.0001  0.5276 -0.4979
   43MOL0     H 5877  10.298   5.494   4.482 -1.4188  1.5758 -2.7928
   43MOL0     H 5878  10.384   5.328   4.472 -0.6183 -0.9343 -0.6129
   43MOL0     H 5879  10.385   5.519   4.228  1.9195 -0.6661 -1.4634
   43MOL0     H 5880  10.482   5.376   4.251 -2.6341  1.4229 -2.2110
   43MOL0     H 5881  10.594   5.591   4.272  1.7585 -0.1247 -0.0284
   43MOL0     H 5882  10.500   5.605   4.431 -2.1636 -1.2593 -1.1149
   43MOL0     H 5883  10.834   5.463   4.275  0.0019 -1.0681  0.3311
   43MOL0     H 5884  11.029   5.402   4.364  0.3646  1.1611 -0.4026
   43MOL0     H 5885  11.018   5.313   4.520 -1.0658  0.3354  0.5246
   43MOL0     H 5886  11.190   5.475   4.530 -1.3682 -2.3517 -4.0177
   43MOL0     H 5887  11.071   5.612   4.498  0.3837 -0.1004 -0.1959
   43MOL0     H 5888  10.952   5.575   4.696 -1.0192 -2.2386  0.8104
   43MOL0     H 5889  11.042   5.426   4.725  2.4395 -0.5085 -1.2658
   43MOL0     H 5890  11.265   5.595   4.730  1.5034  2.3273  0.8696
   43MOL0     H 5891  11.142   5.714   4.735  0.8879 -0.9006 -1.0921
   43MOL0     H 5892  11.115   5.585   5.151 -1.0075 -0.1876 -1.9800
   43MOL0     H 5893  11.118   5.679   5.392 -0.1705  0.9301  2.5636
   43MOL0     H 5894  11.040   5.810   5.332  0.3555  0.4891 -1.2875
   43MOL0     H 5895  11.201   5.831   5.422  1.5959 -0.0896 -1.0099
   43MOL0     H 5896  11.393   6.161   5.431  2.0027 -1.6539 -1.1835
   43MOL0     H 5897  11.452   6.363   5.525  0.7281 -1.5390 -0.0403
   43MOL0     H 5898  11.437   6.648   5.475  0.2048 -0.5639  0.1379
   43MOL0     H 5899  11.535   6.542   5.568 -0.7112  0.0130  0.8562
   43MOL0     H 5900  11.633   6.747   5.668  1.4485  2.6373  0.2782
   43MOL0     H 5901  11.743   6.701   5.548 -0.9145 -2.6840 -0.6161
   43MOL0     H 5902  11.498   6.894   5.528  0.7739  2.8270 -0.0494
   43MOL0     H 5903  11.609   6.856   5.392  1.8286  0.1659  0.6760
   43MOL0     H 5904  11.798   6.942   5.556 -0.8037 -1.1367  0.4213
   43MOL0     H 5905  11.671   7.002   5.657 -0.1642 -1.8098 -0.5268
   43MOL0     H 5906  11.701   7.075   5.343 -2.0554  2.1426 -0.7578
   43MOL0     H 5907  11.605   7.153   5.460  0.9290  1.2048  3.3680
   43MOL0     H 5908  11.908   7.165   5.472 -0.4184  0.4465 -0.8101
   43MOL0     H 5909  11.801   7.216   5.599 -1.0625  1.6135  0.2547
   43MOL0     H 5910  11.802   7.423   5.497  1.3717 -0.2454 -0.5613
   43MOL0     H 5911  11.671   7.350   5.397 -0.0246 -0.2055  0.3865
   43MOL0     H 5912  11.842   7.274   5.242 -0.6665 -3.0570  4.3961
   43MOL0     H 5913  11.965   7.384   5.329  0.7575  3.4708 -2.7514
   43MOL0     H 5914  11.606   6.491   5.139  2.7184  0.1901  1.2200
   43MOL0     H 5915  11.526   6.277   5.040 -1.1085 -0.7302  0.1572
   43MOL0     H 5916  11.407   5.951   4.995 -0.1584  0.4977  2.1133
   43MOL0     H 5917  11.364   5.755   4.858  0.4209 -3.0494  0.8173
   43MOL0     H 5918   9.858   4.745   4.202 -0.0227  3.4103  1.0290
   43MOL0     H 5919   9.691   4.580   4.142  1.7550 -0.4006  1.4152
   43MOL0     H 5920   9.343   4.612   3.820 -0.0135  0.8137  3.4152
   43MOL0     H 5921   9.113   4.622   3.709  0.6532  0.6114  0.1191
   43MOL0     H 5922   8.793   4.517   3.644  0.9772  0.2920  1.5570
   43MOL0     H 5923   8.966   4.514   3.629  2.3991  2.7845  2.7788
   43MOL0     H 5924   8.772   4.304   3.727  0.7753 -1.6538  1.7887
   43MOL0     H 5925   8.932   4.300   3.799 -1.0018 -1.1227 -0.4484
   43MOL0     H 5926   8.918   4.280   3.507  1.5173  1.3704  0.4265
   43MOL0     H 5927   9.056   4.286   3.619 -0.3297 -0.5850  0.6639
   43MOL0     H 5928   8.987   4.072   3.726  0.9335 -3.6950 -0.5060
   43MOL0     H 5929   9.006   4.045   3.558  1.8840  0.3429  0.9873
   43MOL0     H 5930   8.590   3.978   3.639 -1.1011  3.4806  0.7878
   43MOL0     H 5931   8.931   4.509   4.073  0.2966  0.3310 -0.7356
   43MOL0     H 5932   9.075   4.447   4.292  2.8613 -2.6956  0.1610
   43MOL0     H 5933   9.235   4.495   4.302 -1.1333  1.6002  3.3783
   43MOL0     H 5934   9.124   4.624   4.294  1.7780 -0.7308  0.1221
   44MOL0     O 5935   6.378   4.036   1.685  0.4762  0.4962  1.1367
   44MOL0     C 5936   6.383   4.106   1.784  0.6873 -0.1650 -0.3190
   44MOL0     O 5937   6.494   4.107   1.868  0.6646  0.5809  0.3069
   44MOL0     C 5938   6.602   4.053   1.812 -1.2493 -0.1577 -0.4328
   44MOL0     C 5939   6.647   3.922   1.837 -0.3691  0.2662  0.2928
   44MOL0     C 5940   6.764   3.873   1.781  0.2505 -0.1678 -0.4928
   44MOL0     C 5941   6.825   3.954   1.680 -1.6605  0.9360  1.0757
   44MOL0     O 5942   6.923   3.902   1.602  0.0916 -0.4148 -0.6534
   44MOL0     C 5943   6.974   3.775   1.618  0.1283  0.1883 -0.7268
   44MOL0     C 5944   7.100   3.762   1.526 -0.1149 -0.3079 -0.0274
   44MOL0     C 5945   7.177   3.623   1.526  0.4013  0.1101 -0.9913
   44MOL0     C 5946   7.303   3.631   1.436 -0.6212 -0.2199  0.0580
   44MOL0     C 5947   7.274   3.620   1.290 -0.2095 -0.1747 -0.6133
   44MOL0     C 5948   7.402   3.660   1.213 -0.2321  0.5284  0.0425
   44MOL0     C 5949   7.395   3.619   1.064 -0.2861 -0.3979  0.9067
   44MOL0     C 5950   7.495   3.681   0.970 -0.6017 -0.2951 -0.1093
   44MOL0     N 5951   7.630   3.622   0.990  0.2811 -0.1595  0.0679
   44MOL0     C 5952   7.738   3.683   1.048 -0.2975 -0.3970  0.5838
   44MOL0     C 5953   7.845   3.606   1.017  0.1375  0.3910 -0.2650
   44MOL0     C 5954   7.998   3.634   1.051  1.7290 -0.1892  0.6035
   44MOL0     C 5955   8.036   3.574   1.188  0.1173  0.4277 -0.1458
   44MOL0     C 5956   8.028   3.420   1.187  0.2855  0.3882 -0.8601
   44MOL0     C 5957   8.089   3.351   1.307  0.0642 -0.2796  0.6508
   44MOL0     O 5958   8.116   3.209   1.294 -0.6985  0.8770 -0.5293
   44MOL0     C 5959   8.224   3.152   1.361  0.0377 -0.2019 -0.3858
   44MOL0     C 5960   8.277   3.041   1.305 -0.3656  0.6599  0.7859
   44MOL0     C 5961   8.384   2.979   1.360  0.9510  0.0018  0.3106
   44MOL0     C 5962   8.430   2.855   1.296  0.5777  0.6617  0.0702
   44MOL0     C 5963   8.447   3.034   1.474  0.2034  0.7171 -0.3664
   44MOL0     C 5964   8.579   2.994   1.539 -0.8008  0.4483  0.0683
   44MOL0     O 5965   8.642   3.086   1.618  0.6603  0.0966 -0.0891
   44MOL0     C 5966   8.760   3.043   1.677  0.1853  0.4899 -0.2577
   44MOL0     C 5967   8.784   3.034   1.814 -0.0296 -0.4648  0.7224
   44MOL0     C 5968   8.905   2.991   1.867 -0.6011  0.1194  0.1761
   44MOL0     C 5969   9.012   2.963   1.780  0.0160  0.8870 -0.7007
   44MOL0     O 5970   9.137   2.942   1.832  0.4603 -0.4166  0.2357
   44MOL0     C 5971   9.218   2.828   1.772  0.0996 -0.8601  0.1152
   44MOL0     C 5972   9.349   2.823   1.864 -0.0686  0.2128  0.0985
   44MOL0     C 5973   9.445   2.941   1.853  0.5925 -0.2847  0.3333
   44MOL0     C 5974   9.544   2.904   1.751 -0.4711 -0.0095  0.2995
   44MOL0     C 5975   9.650   3.011   1.712  0.8544  0.4773  0.5982
   44MOL0     C 5976   9.768   3.011   1.814 -0.3339 -0.2057  0.4468
   44MOL0     C 5977   9.870   3.118   1.784 -0.4057  0.3178  0.5849
   44MOL0     C 5978  10.009   3.059   1.741 -0.0185 -0.1939  0.1656
   44MOL0    Cl 5979  10.107   3.190   1.670 -0.0016 -0.0295 -0.0818
   44MOL0     C 5980   8.993   2.970   1.642  0.1782  0.9337 -0.6356
   44MOL0     C 5981   8.869   3.009   1.595 -0.1796 -0.0803 -0.5271
   44MOL0     O 5982   8.609   2.870   1.540  0.3467 -0.8189  0.0036
   44MOL0     C 5983   8.384   3.140   1.541 -0.8645 -0.4006 -0.2148
   44MOL0     C 5984   8.275   3.200   1.478 -0.1336 -0.0058 -1.0364
   44MOL0     N 5985   7.800   3.495   0.948 -0.0168 -1.1882 -0.2038
   44MOL0     N 5986   7.672   3.504   0.937 -0.8544  0.5309 -0.1124
   44MOL0     C 5987   6.783   4.082   1.651  0.6047 -0.7296  0.2849
   44MOL0     C 5988   6.678   4.136   1.722 -0.0956  0.3606  0.1159
   44MOL0     C 5989   6.265   4.176   1.829  1.1145 -0.6808  1.4978
   44MOL0     C 5990   6.242   4.189   1.968  0.2749 -0.1625  0.5636
   44MOL0     C 5991   6.124   4.250   2.019  0.2894  0.4810  0.4922
   44MOL0     C 5992   6.027   4.293   1.930 -1.0068 -0.0738  0.3146
   44MOL0     O 5993   5.905   4.330   1.974  0.6106 -0.4365 -0.8016
   44MOL0     C 5994   5.808   4.236   2.008  0.0258 -0.5981  0.2380
   44MOL0     C 5995   5.719   4.281   2.126  0.3564 -0.0456 -0.1781
   44MOL0     C 5996   5.782   4.325   2.267  0.1277 -0.3202  0.8279
   44MOL0     C 5997   5.844   4.473   2.254 -0.7841 -0.1201  0.3896
   44MOL0     C 5998   5.925   4.508   2.371 -0.1574 -0.1526 -0.8843
   44MOL0     C 5999   5.976   4.549   2.469 -0.6356  0.1233  0.0823
   44MOL0     C 6000   6.050   4.286   1.796 -0.9852 -0.9435 -0.4875
   44MOL0     C 6001   6.167   4.230   1.736  0.4670 -0.1857 -0.4781
   44MOL0     C 6002   6.180   4.241   1.586  0.0576  0.0658 -0.5395
   44MOL0     H 6003   6.589   3.845   1.886 -0.2981 -1.4317 -2.0951
   44MOL0     H 6004   6.797   3.774   1.811  2.2701  0.4280 -0.6269
   44MOL0     H 6005   6.893   3.704   1.600  1.5177 -1.8534  0.5990
   44MOL0     H 6006   7.015   3.768   1.719 -0.7157 -1.9132 -0.4660
   44MOL0     H 6007   7.048   3.767   1.430 -2.8785 -1.1365  1.3116
   44MOL0     H 6008   7.171   3.842   1.546  0.5825 -0.7254 -0.7640
   44MOL0     H 6009   7.206   3.594   1.627 -0.7699  0.7935 -0.4438
   44MOL0     H 6010   7.114   3.538   1.499  0.5377 -0.2392 -0.2365
   44MOL0     H 6011   7.352   3.723   1.468  1.8065 -1.7663  1.1047
   44MOL0     H 6012   7.377   3.552   1.451 -0.5485 -1.1269 -4.1257
   44MOL0     H 6013   7.189   3.684   1.264 -0.5635 -0.1260  0.5843
   44MOL0     H 6014   7.250   3.515   1.272 -1.6398  0.0818 -0.3455
   44MOL0     H 6015   7.402   3.768   1.227  0.3358  1.2006 -4.0373
   44MOL0     H 6016   7.494   3.616   1.253  0.6154  2.1424 -0.0670
   44MOL0     H 6017   7.299   3.652   1.024 -0.3784 -1.7786 -0.1106
   44MOL0     H 6018   7.392   3.510   1.056 -0.1045 -0.4515  1.5107
   44MOL0     H 6019   7.451   3.673   0.870 -0.2868  1.3160 -0.4120
   44MOL0     H 6020   7.500   3.790   0.981 -0.1975 -0.4033  0.8051
   44MOL0     H 6021   7.747   3.779   1.098  4.5638 -0.4958  0.3570
   44MOL0     H 6022   8.010   3.743   1.046  1.1688 -0.1998 -1.6357
   44MOL0     H 6023   8.061   3.595   0.972  0.6781 -1.0051  0.1478
   44MOL0     H 6024   8.140   3.598   1.214 -0.1850  1.8524 -0.1529
   44MOL0     H 6025   7.969   3.593   1.272  0.2895  0.7940 -0.0853
   44MOL0     H 6026   7.926   3.380   1.180  0.6146 -0.2612 -2.5536
   44MOL0     H 6027   8.086   3.394   1.097  3.1378  0.8448  0.7194
   44MOL0     H 6028   8.177   3.405   1.344  0.9670 -2.3795  1.7568
   44MOL0     H 6029   8.018   3.368   1.389 -1.9123  0.9858 -1.2121
   44MOL0     H 6030   8.230   3.000   1.216  0.9487 -1.3082  0.9247
   44MOL0     H 6031   8.361   2.822   1.218 -0.1795  0.2288  0.9166
   44MOL0     H 6032   8.439   2.768   1.362 -1.3464 -1.5018 -2.3061
   44MOL0     H 6033   8.521   2.878   1.240  0.4545 -3.0309 -1.9458
   44MOL0     H 6034   8.710   3.077   1.880  1.3917  1.8747  0.9010
   44MOL0     H 6035   8.911   2.976   1.974  0.8856  1.2745  0.2856
   44MOL0     H 6036   9.164   2.733   1.778  0.7092 -1.5484 -3.1760
   44MOL0     H 6037   9.224   2.841   1.663 -0.3019  3.0910  0.4470
   44MOL0     H 6038   9.315   2.815   1.968  0.6973 -1.4236  0.2433
   44MOL0     H 6039   9.399   2.728   1.842  0.5518  0.9833 -2.0618
   44MOL0     H 6040   9.491   2.972   1.947  0.5882 -0.3770  0.3670
   44MOL0     H 6041   9.393   3.024   1.806  0.0106 -0.9034 -0.1459
   44MOL0     H 6042   9.482   2.878   1.664 -1.0220  0.5527  0.5117
   44MOL0     H 6043   9.596   2.821   1.798 -1.9155 -0.5566  1.0098
   44MOL0     H 6044   9.683   2.990   1.610 -0.1225 -0.8637  0.5195
   44MOL0     H 6045   9.597   3.106   1.714  0.7401  0.4264  0.0853
   44MOL0     H 6046   9.816   2.913   1.813 -2.8486 -1.5264 -0.2320
   44MOL0     H 6047   9.727   3.024   1.915 -0.2622 -1.0585  0.5879
   44MOL0     H 6048   9.889   3.180   1.872  4.4270 -1.0079  0.7710
   44MOL0     H 6049   9.840   3.184   1.702  2.5954  2.3931  0.9698
   44MOL0     H 6050   9.986   2.979   1.669 -1.3999  0.6553 -0.3633
   44MOL0     H 6051  10.063   3.018   1.827  0.6409 -0.2651 -0.2777
   44MOL0     H 6052   9.082   2.948   1.584  0.7927 -2.0506  1.2474
   44MOL0     H 6053   8.859   3.009   1.487 -0.1321  1.9425 -0.5670
   44MOL0     H 6054   8.424   3.172   1.636  0.7428 -0.1533 -0.9268
   44MOL0     H 6055   8.215   3.275   1.529 -2.0858  0.6963 -4.1319
   44MOL0     H 6056   6.838   4.136   1.575  0.9376 -2.1173 -0.4912
   44MOL0     H 6057   6.622   4.228   1.707 -0.6358  0.0529  0.1951
   44MOL0     H 6058   6.313   4.158   2.044  2.6293 -2.3921 -2.3173
   44MOL0     H 6059   6.116   4.260   2.126  1.0970  0.0553  0.6014
   44MOL0     H 6060   5.746   4.225   1.919  0.5344 -2.1127  0.0340
   44MOL0     H 6061   5.860   4.141   2.027  1.9825  0.6466  1.4860
   44MOL0     H 6062   5.656   4.197   2.159  0.0152  1.2510  2.7879
   44MOL0     H 6063   5.648   4.358   2.096 -1.2380 -0.9711  0.9925
   44MOL0     H 6064   5.699   4.341   2.337  2.2197  2.5159  2.8691
   44MOL0     H 6065   5.856   4.260   2.314 -1.8719 -2.4908  1.1529
   44MOL0     H 6066   5.756   4.539   2.249 -1.9569 -1.5668  1.1510
   44MOL0     H 6067   5.905   4.483   2.163  0.3339 -2.9991  0.7226
   44MOL0     H 6068   6.047   4.576   2.545  1.4945 -2.4516 -0.7929
   44MOL0     H 6069   5.972   4.324   1.732 -0.8513 -0.8719 -0.6093
   44MOL0     H 6070   6.082   4.271   1.547 -0.7314 -1.3132  0.3001
   44MOL0     H 6071   6.258   4.314   1.561  0.6407  0.1493  1.3769
   44MOL0     H 6072   6.200   4.144   1.538 -0.5454 -0.0878 -0.4848
   45MOL0     O 6073   8.928  10.959   2.734  0.4873 -0.4491 -0.3943
   45MOL0     C 6074   8.872  10.971   2.622 -0.2128  1.1592  0.1863
   45MOL0     O 6075   8.941  10.990   2.503  0.0916  0.3800  0.2744
   45MOL0     C 6076   9.071  11.042   2.512 -0.4344  0.3125  0.8340
   45MOL0     C 6077   9.195  10.973   2.501  0.6939 -0.1152 -0.3386
   45MOL0     C 6078   9.316  11.025   2.546 -0.0420  0.3507 -0.5011
   45MOL0     C 6079   9.318  11.162   2.563 -0.3209  0.2732 -0.2876
   45MOL0     O 6080   9.442  11.207   2.605 -0.2176 -0.1426  0.0791
   45MOL0     C 6081   9.472  11.344   2.587 -0.7789 -0.8945 -0.2641
   45MOL0     C 6082   9.618  11.379   2.620  0.6860  0.0878  0.4891
   45MOL0     C 6083   9.666  11.314   2.746  0.2018  1.1346 -0.3266
   45MOL0     C 6084   9.783  11.390   2.807 -0.8141  0.0423 -0.3448
   45MOL0     C 6085   9.919  11.331   2.755 -0.0220  0.5641 -0.3087
   45MOL0     C 6086  10.033  11.406   2.826  1.0928 -0.0337  0.0075
   45MOL0     C 6087  10.146  11.427   2.725 -0.1145  0.3248 -0.3204
   45MOL0     C 6088  10.189  11.298   2.672  0.3987  0.0737 -0.1198
   45MOL0     N 6089  10.339  11.286   2.662  0.0233 -0.4608 -0.2180
   45MOL0     C 6090  10.425  11.341   2.559  1.0165  0.6447 -0.2786
   45MOL0     C 6091  10.537  11.261   2.569 -0.6637  0.0993 -0.7278
   45MOL0     C 6092  10.660  11.285   2.486 -0.5890  0.0078 -1.2152
   45MOL0     C 6093  10.794  11.283   2.557 -0.4871  0.0031  0.2225
   45MOL0     C 6094  10.908  11.293   2.462 -0.0604  0.7432  0.0993
   45MOL0     C 6095  11.041  11.325   2.531 -0.3913  0.0784 -0.1589
   45MOL0     O 6096  11.059  11.249   2.650 -0.6993 -0.3797  0.1808
   45MOL0     C 6097  11.174  11.269   2.717  0.2007  0.5201 -0.5911
   45MOL0     C 6098  11.189  11.191   2.834  0.0755  0.1944 -0.0297
   45MOL0     C 6099  11.303  11.188   2.919 -0.0931  0.3230  0.1904
   45MOL0     C 6100  11.310  11.089   3.033 -0.8185  0.5175 -0.0619
   45MOL0     C 6101  11.402  11.284   2.886 -0.5452  0.2692  0.1518
   45MOL0     C 6102  11.520  11.288   2.983  0.5053  0.4301 -0.4648
   45MOL0     O 6103  11.647  11.273   2.930  0.6166  0.5909 -0.0476
   45MOL0     C 6104  11.756  11.270   3.009  0.0927 -1.0239 -0.1805
   45MOL0     C 6105  11.864  11.353   2.984 -0.3437 -0.1482  0.2189
   45MOL0     C 6106  11.974  11.355   3.070 -0.0835  0.5496 -0.4321
   45MOL0     C 6107  11.975  11.272   3.185  0.5382  0.2689 -0.3421
   45MOL0     O 6108  12.081  11.283   3.274  0.4136  0.0462 -0.6406
   45MOL0     C 6109  12.123  11.168   3.350 -0.1896 -0.6505 -0.9303
   45MOL0     C 6110  12.260  11.187   3.408 -0.0049  0.7785 -0.8591
   45MOL0     C 6111  12.297  11.069   3.502 -0.3659 -0.5184  0.0397
   45MOL0     C 6112  12.328  10.936   3.426  0.1761  0.5358 -0.5128
   45MOL0     C 6113  12.445  10.955   3.323 -0.6475  0.4442 -0.0486
   45MOL0     C 6114  12.487  10.824   3.256 -0.4881 -0.2956  0.4584
   45MOL0     C 6115  12.500  10.845   3.100  0.1811 -0.7113  0.6571
   45MOL0     C 6116  12.556  10.722   3.021  0.3018  0.0808 -0.1475
   45MOL0    Cl 6117  12.578  10.746   2.846 -0.2230 -0.0868  0.4615
   45MOL0     C 6118  11.870  11.181   3.201 -1.4578 -0.6149 -0.7279
   45MOL0     C 6119  11.767  11.170   3.111 -0.1984 -0.1416  0.0721
   45MOL0     O 6120  11.493  11.310   3.099 -0.1464  0.8434 -0.4269
   45MOL0     C 6121  11.400  11.356   2.767  0.0233  0.1468  0.1428
   45MOL0     C 6122  11.287  11.350   2.687  0.2757 -0.6365 -0.0089
   45MOL0     N 6123  10.519  11.174   2.674 -0.5832 -0.4787 -0.4817
   45MOL0     N 6124  10.404  11.186   2.726  0.2687  0.3219 -0.1747
   45MOL0     C 6125   9.210  11.241   2.565  0.3638 -0.2867  1.0433
   45MOL0     C 6126   9.088  11.180   2.531  0.7371 -0.4105 -0.1268
   45MOL0     C 6127   8.731  10.984   2.613  0.1989 -0.3430 -0.0128
   45MOL0     C 6128   8.675  11.063   2.516  0.6801  0.2348 -0.0266
   45MOL0     C 6129   8.531  11.086   2.512  0.1943  0.3257 -0.4672
   45MOL0     C 6130   8.453  11.028   2.608  0.2825  0.2519  0.3425
   45MOL0     O 6131   8.315  11.046   2.603  0.1788  0.2260 -0.4820
   45MOL0     C 6132   8.228  10.929   2.566 -0.3795  0.0386 -0.9909
   45MOL0     C 6133   8.108  10.924   2.656 -0.5024  0.3648  0.0557
   45MOL0     C 6134   8.046  10.781   2.639 -0.2013  0.4009  0.2778
   45MOL0     C 6135   7.922  10.747   2.732 -0.2409  0.1395  1.4515
   45MOL0     C 6136   7.814  10.704   2.643 -0.1232  0.3451 -0.4419
   45MOL0     C 6137   7.736  10.657   2.558 -0.6488 -0.0196  0.7154
   45MOL0     C 6138   8.509  10.938   2.703 -0.5346 -0.0350 -0.4040
   45MOL0     C 6139   8.646  10.916   2.706 -0.3084 -0.6431 -1.4035
   45MOL0     C 6140   8.690  10.822   2.815 -0.5625  0.2475 -0.2320
   45MOL0     H 6141   9.171  10.873   2.468 -1.2286  0.2602 -0.2015
   45MOL0     H 6142   9.401  10.957   2.550  1.6320  2.3391 -0.1244
   45MOL0     H 6143   9.407  11.409   2.647  1.3950  0.5252  0.6571
   45MOL0     H 6144   9.438  11.377   2.488  0.1157 -2.2495 -1.0545
   45MOL0     H 6145   9.679  11.348   2.535 -0.5207 -1.9009  0.2727
   45MOL0     H 6146   9.611  11.488   2.626 -1.0194 -0.0430  1.5765
   45MOL0     H 6147   9.582  11.311   2.816  1.5751 -0.6052  1.3480
   45MOL0     H 6148   9.698  11.214   2.719  0.7873  2.0604 -3.4341
   45MOL0     H 6149   9.769  11.497   2.787  0.1139  0.0942 -0.7800
   45MOL0     H 6150   9.785  11.374   2.915  0.3084  2.6230  0.0839
   45MOL0     H 6151   9.920  11.344   2.646 -0.1884 -0.8980 -0.5052
   45MOL0     H 6152   9.922  11.224   2.775  1.3996  0.1502 -2.3284
   45MOL0     H 6153  10.006  11.508   2.859  3.5761  1.2385 -1.6393
   45MOL0     H 6154  10.070  11.353   2.915 -1.9094 -0.0623  1.3846
   45MOL0     H 6155  10.232  11.470   2.778 -0.3233  0.9915 -0.5065
   45MOL0     H 6156  10.120  11.496   2.644 -2.0473 -0.1682 -0.1522
   45MOL0     H 6157  10.135  11.219   2.724  1.9363 -0.6694  0.3836
   45MOL0     H 6158  10.160  11.288   2.567 -1.8386 -1.9704  0.6060
   45MOL0     H 6159  10.389  11.409   2.483 -1.1773 -0.9849 -0.7823
   45MOL0     H 6160  10.656  11.379   2.430 -0.8938 -0.9373 -2.8518
   45MOL0     H 6161  10.665  11.206   2.410 -0.2829 -1.9561  0.7580
   45MOL0     H 6162  10.807  11.363   2.631  0.8169  0.0587 -0.0512
   45MOL0     H 6163  10.804  11.191   2.616 -2.0261  0.2824  0.9729
   45MOL0     H 6164  10.912  11.186   2.437 -2.9165  0.6612 -0.3434
   45MOL0     H 6165  10.887  11.340   2.366  1.9685 -0.5169 -1.0399
   45MOL0     H 6166  11.116  11.296   2.457 -0.5911 -2.1455  0.4458
   45MOL0     H 6167  11.041  11.431   2.557  0.3097  0.4899 -1.6816
   45MOL0     H 6168  11.109  11.121   2.855  0.9052 -0.7723 -0.0114
   45MOL0     H 6169  11.271  11.133   3.125 -0.7751  3.8089 -1.4744
   45MOL0     H 6170  11.414  11.060   3.047 -1.5028 -1.4211  1.4874
   45MOL0     H 6171  11.243  11.009   2.999  0.6068 -0.3578 -0.8974
   45MOL0     H 6172  11.855  11.421   2.899  0.2496 -0.9023 -0.4589
   45MOL0     H 6173  12.047  11.426   3.030  0.0364  0.7386  0.1207
   45MOL0     H 6174  12.055  11.153   3.434 -1.6299  2.9709 -1.2841
   45MOL0     H 6175  12.123  11.079   3.285 -2.2809 -1.4300  0.0537
   45MOL0     H 6176  12.338  11.212   3.335  2.0166  0.1233  0.9502
   45MOL0     H 6177  12.261  11.272   3.478  3.5338  2.0476 -2.2193
   45MOL0     H 6178  12.214  11.047   3.571 -0.3630  1.4733  0.7421
   45MOL0     H 6179  12.380  11.088   3.570  0.9957 -3.3285 -0.6763
   45MOL0     H 6180  12.244  10.899   3.366  0.5719  0.7772 -1.2374
   45MOL0     H 6181  12.357  10.853   3.491  2.2925  1.9815  0.5204
   45MOL0     H 6182  12.415  11.029   3.248  0.5020  0.2596 -0.7265
   45MOL0     H 6183  12.532  11.010   3.361 -0.5150  2.3307 -2.7704
   45MOL0     H 6184  12.403  10.756   3.267 -0.4647 -0.6744 -1.3295
   45MOL0     H 6185  12.586  10.798   3.294 -0.2061 -2.8375 -1.7314
   45MOL0     H 6186  12.568  10.930   3.089  1.1153 -1.5838 -0.5041
   45MOL0     H 6187  12.407  10.864   3.045 -0.3048  0.2298  1.7465
   45MOL0     H 6188  12.509  10.625   3.038 -0.7664  0.0167 -3.0336
   45MOL0     H 6189  12.658  10.707   3.056  1.7901  0.3195 -3.9163
   45MOL0     H 6190  11.868  11.110   3.283  0.3309  0.0801 -0.0480
   45MOL0     H 6191  11.681  11.110   3.140 -2.1414  1.7376 -1.4245
   45MOL0     H 6192  11.490  11.413   2.750  0.1158 -0.6125 -2.2852
   45MOL0     H 6193  11.281  11.399   2.590  0.7582 -1.0931 -0.2741
   45MOL0     H 6194   9.214  11.347   2.587  1.4853 -0.8251  3.8207
   45MOL0     H 6195   9.000  11.244   2.535  0.8635 -0.1691 -1.0152
   45MOL0     H 6196   8.746  11.121   2.458  0.9540  0.8752  0.9388
   45MOL0     H 6197   8.484  11.150   2.437  2.3547  0.3374 -1.9122
   45MOL0     H 6198   8.202  10.917   2.461  1.0691 -2.0184 -1.1761
   45MOL0     H 6199   8.292  10.843   2.586  0.1001  0.9237  1.7768
   45MOL0     H 6200   8.038  10.999   2.618 -0.5165  0.1130 -0.4270
   45MOL0     H 6201   8.142  10.951   2.756  1.6263  0.4282 -0.6269
   45MOL0     H 6202   8.023  10.774   2.532 -3.3122 -0.5048  0.9027
   45MOL0     H 6203   8.117  10.701   2.659  0.0950 -0.0397 -2.2147
   45MOL0     H 6204   7.900  10.842   2.781 -0.9791  1.3701 -1.1034
   45MOL0     H 6205   7.944  10.668   2.805  0.9197 -0.2071  0.7646
   45MOL0     H 6206   7.680  10.619   2.475  1.1719 -2.3749  0.4475
   45MOL0     H 6207   8.438  10.879   2.760 -1.1051  0.3042 -0.7543
   45MOL0     H 6208   8.755  10.877   2.883 -2.4984  0.8943  1.1984
   45MOL0     H 6209   8.604  10.784   2.872 -0.3319 -2.5757 -1.6262
   45MOL0     H 6210   8.741  10.733   2.778 -0.3231 -0.4735  1.7133
   46MOL0     O 6211   3.278   7.752   6.109  0.4158  0.2432 -0.0793
   46MOL0     C 6212   3.168   7.783   6.160 -0.6041 -0.5202 -0.2454
   46MOL0     O 6213   3.092   7.698   6.235  0.1173  0.2522 -0.2998
   46MOL0     C 6214   3.163   7.594   6.296  0.5777 -0.7472  0.0834
   46MOL0     C 6215   3.217   7.617   6.418  0.0388 -0.3589 -0.7786
   46MOL0     C 6216   3.298   7.526   6.480 -0.3789  0.8607 -0.8593
   46MOL0     C 6217   3.332   7.399   6.418 -0.0064  0.5068  0.5620
   46MOL0     O 6218   3.397   7.302   6.483  0.1482  0.2973 -0.5936
   46MOL0     C 6219   3.482   7.342   6.599  0.0612  0.2616  0.3803
   46MOL0     C 6220   3.546   7.217   6.664 -0.0891  0.2023  0.1221
   46MOL0     C 6221   3.631   7.251   6.795  0.5450 -0.3479 -0.5229
   46MOL0     C 6222   3.745   7.350   6.770 -0.3220  0.5307 -0.1868
   46MOL0     C 6223   3.861   7.326   6.873  0.1808  0.2762 -0.8167
   46MOL0     C 6224   3.972   7.423   6.847  0.0010 -0.1045  0.3231
   46MOL0     C 6225   4.093   7.384   6.931  0.8360  1.2378 -0.5705
   46MOL0     C 6226   4.199   7.489   6.911 -0.3104  0.5596  0.4506
   46MOL0     N 6227   4.337   7.444   6.930  0.6956 -0.2067 -0.2702
   46MOL0     C 6228   4.441   7.434   6.841  0.5345 -0.1985 -0.3975
   46MOL0     C 6229   4.558   7.444   6.917  0.5616  0.5164 -0.3375
   46MOL0     C 6230   4.694   7.455   6.874 -0.3047  0.1035 -0.1170
   46MOL0     C 6231   4.793   7.458   6.990 -0.6771  0.3245  0.9702
   46MOL0     C 6232   4.938   7.474   6.938 -0.1154  0.0892  0.3106
   46MOL0     C 6233   5.032   7.441   7.048  0.5403 -0.1302  0.2530
   46MOL0     O 6234   5.168   7.474   7.012  0.1331 -0.5411 -0.5291
   46MOL0     C 6235   5.242   7.376   6.959 -0.5958 -0.3194 -1.0841
   46MOL0     C 6236   5.196   7.253   6.909 -0.0498 -0.0090 -0.5876
   46MOL0     C 6237   5.279   7.145   6.873  0.4361 -0.3254  0.5301
   46MOL0     C 6238   5.204   7.018   6.847 -1.4228 -0.8327 -0.1168
   46MOL0     C 6239   5.422   7.157   6.880 -0.6299 -0.1987  0.3820
   46MOL0     C 6240   5.516   7.049   6.857 -0.1155  0.2883 -0.1337
   46MOL0     O 6241   5.644   7.072   6.882  0.3929 -0.0400  0.1492
   46MOL0     C 6242   5.738   6.975   6.879  0.3704  1.2651 -0.4797
   46MOL0     C 6243   5.863   7.025   6.846 -0.1541  0.3739  0.3787
   46MOL0     C 6244   5.968   6.940   6.823  0.4562  1.2436  0.2093
   46MOL0     C 6245   5.955   6.797   6.836  0.6831  0.6410  1.5799
   46MOL0     O 6246   6.071   6.720   6.825 -0.5722 -1.1061  0.1466
   46MOL0     C 6247   6.078   6.596   6.885  0.6967 -0.0303 -0.1214
   46MOL0     C 6248   6.142   6.491   6.786 -0.6139 -0.4021  0.0408
   46MOL0     C 6249   6.076   6.468   6.658  0.3286  0.3352  0.0233
   46MOL0     C 6250   6.171   6.373   6.579 -0.3969  0.0420  0.8004
   46MOL0     C 6251   6.206   6.233   6.640  0.4939 -0.6287  0.0426
   46MOL0     C 6252   6.086   6.151   6.674  1.2349 -0.5825 -1.0833
   46MOL0     C 6253   6.122   6.041   6.775  0.1869 -0.5710 -0.4373
   46MOL0     C 6254   5.983   5.984   6.829 -0.6579  0.0507  0.2411
   46MOL0    Cl 6255   5.858   5.927   6.717  0.4228  0.1251 -0.7393
   46MOL0     C 6256   5.829   6.750   6.877  0.6229  0.3004  0.2985
   46MOL0     C 6257   5.719   6.834   6.895 -0.7081 -1.0380 -0.3562
   46MOL0     O 6258   5.472   6.939   6.808 -0.8350  0.0502 -0.1922
   46MOL0     C 6259   5.464   7.280   6.936 -0.2522  0.2653  0.3678
   46MOL0     C 6260   5.378   7.388   6.974  0.4529  0.2779  0.4471
   46MOL0     N 6261   4.520   7.443   7.048 -0.2150  0.5133 -0.2869
   46MOL0     N 6262   4.389   7.461   7.055  0.3684  0.1970  0.5434
   46MOL0     C 6263   3.261   7.374   6.300  0.2921 -0.7047 -0.0936
   46MOL0     C 6264   3.181   7.471   6.237 -0.0576 -0.2845  0.1972
   46MOL0     C 6265   3.139   7.927   6.174 -1.3053  0.2087  0.7543
   46MOL0     C 6266   3.194   8.016   6.079  0.4833 -0.0582  0.0464
   46MOL0     C 6267   3.168   8.155   6.074 -0.2692 -0.3376 -0.2899
   46MOL0     C 6268   3.088   8.210   6.174 -0.8081 -0.6136  0.2178
   46MOL0     O 6269   3.065   8.343   6.177 -0.8124 -0.2206 -0.1425
   46MOL0     C 6270   3.112   8.437   6.077  0.7156 -0.9184 -0.4591
   46MOL0     C 6271   3.109   8.575   6.140  0.1131  0.1904  0.8675
   46MOL0     C 6272   3.232   8.606   6.229  0.3739 -0.0959 -0.7306
   46MOL0     C 6273   3.269   8.756   6.220 -0.4913 -0.2133 -0.0808
   46MOL0     C 6274   3.377   8.782   6.126  0.2590  0.6517  1.3392
   46MOL0     C 6275   3.447   8.826   6.035  0.0828 -0.6492 -0.7897
   46MOL0     C 6276   3.023   8.123   6.263  0.0123 -0.3769 -0.4096
   46MOL0     C 6277   3.044   7.981   6.259  0.4439 -1.1505 -0.7972
   46MOL0     C 6278   2.960   7.912   6.374 -0.7104 -0.5818  0.3543
   46MOL0     H 6279   3.191   7.710   6.468 -1.6671 -0.6947 -0.9688
   46MOL0     H 6280   3.343   7.554   6.575  2.1754  2.3056 -2.3902
   46MOL0     H 6281   3.415   7.379   6.677  0.0523  2.2371 -0.5000
   46MOL0     H 6282   3.555   7.419   6.571  1.9855 -0.3567  3.2697
   46MOL0     H 6283   3.476   7.134   6.676  1.0431 -1.3482 -2.9295
   46MOL0     H 6284   3.626   7.182   6.599  3.1163  3.0274  2.2066
   46MOL0     H 6285   3.572   7.299   6.873  1.0854 -0.8771  0.2217
   46MOL0     H 6286   3.665   7.155   6.834 -0.9496  0.2717  2.6103
   46MOL0     H 6287   3.791   7.344   6.671  1.9582 -1.8946  0.8977
   46MOL0     H 6288   3.706   7.451   6.790  0.3781  0.3551  2.3845
   46MOL0     H 6289   3.899   7.225   6.857 -1.4341 -0.7775  1.3973
   46MOL0     H 6290   3.833   7.333   6.979 -0.5175 -1.4788 -0.8478
   46MOL0     H 6291   4.001   7.403   6.743 -1.5456  2.1768 -0.6360
   46MOL0     H 6292   3.935   7.523   6.872  1.2060  0.2100  0.9172
   46MOL0     H 6293   4.124   7.283   6.900 -0.2969  0.0155  1.9587
   46MOL0     H 6294   4.063   7.373   7.036  2.5924 -3.7575 -0.3299
   46MOL0     H 6295   4.199   7.533   6.811  0.2999  1.8785  1.0084
   46MOL0     H 6296   4.182   7.571   6.981  1.2594  1.0306  0.3302
   46MOL0     H 6297   4.431   7.431   6.732 -0.1248  1.1686 -0.3907
   46MOL0     H 6298   4.691   7.542   6.809  1.4879 -0.8170 -1.5066
   46MOL0     H 6299   4.720   7.380   6.799  0.1392  1.0676 -0.9594
   46MOL0     H 6300   4.767   7.533   7.065 -2.2653  0.7805  0.0225
   46MOL0     H 6301   4.787   7.359   7.037  0.8579  0.2144  0.9864
   46MOL0     H 6302   4.952   7.403   6.856  1.1946 -1.3693  1.7254
   46MOL0     H 6303   4.960   7.572   6.896 -3.7876  1.1113  0.4497
   46MOL0     H 6304   4.999   7.498   7.135  1.0349  2.4486 -1.1495
   46MOL0     H 6305   5.016   7.336   7.076  2.6734 -0.3843  0.6946
   46MOL0     H 6306   5.090   7.235   6.901  0.1189 -1.9241  0.8664
   46MOL0     H 6307   5.250   6.953   6.773 -0.8504  0.4827 -0.9583
   46MOL0     H 6308   5.100   7.041   6.818 -0.7610  2.4163 -0.3451
   46MOL0     H 6309   5.192   6.957   6.936  1.7487 -1.2485  0.1354
   46MOL0     H 6310   5.871   7.133   6.841 -2.2277  0.7278  2.7044
   46MOL0     H 6311   6.061   6.989   6.795  0.1933  1.6589  0.0543
   46MOL0     H 6312   6.133   6.609   6.979  0.9255  2.7242 -0.5686
   46MOL0     H 6313   5.981   6.555   6.916  1.1990 -0.6164  0.7411
   46MOL0     H 6314   6.244   6.524   6.767 -1.7193  2.8565 -1.0241
   46MOL0     H 6315   6.149   6.400   6.846  0.6619  0.8000  1.8258
   46MOL0     H 6316   6.049   6.550   6.591 -4.3180 -0.3250  0.7503
   46MOL0     H 6317   5.979   6.428   6.689  1.2358 -1.8098  0.2724
   46MOL0     H 6318   6.270   6.417   6.564 -1.3528  2.0329 -0.0808
   46MOL0     H 6319   6.129   6.354   6.480 -0.8446 -1.9257  1.3185
   46MOL0     H 6320   6.263   6.181   6.563 -0.5963  0.3406 -1.4684
   46MOL0     H 6321   6.257   6.260   6.733 -1.5626 -0.1125  1.0559
   46MOL0     H 6322   6.037   6.111   6.585 -1.5631 -0.2977  0.2252
   46MOL0     H 6323   6.010   6.209   6.727  0.5307 -4.3924  2.5742
   46MOL0     H 6324   6.167   6.065   6.872 -2.0237 -1.2434  0.8062
   46MOL0     H 6325   6.184   5.966   6.725 -1.1373 -0.9946 -1.4916
   46MOL0     H 6326   5.933   6.068   6.879 -3.4077 -0.2223 -1.8531
   46MOL0     H 6327   6.004   5.902   6.899 -0.8796 -0.8667 -0.7476
   46MOL0     H 6328   5.801   6.648   6.901  1.2471  0.5299  2.1349
   46MOL0     H 6329   5.627   6.781   6.918 -0.4967 -0.8201  1.0723
   46MOL0     H 6330   5.571   7.293   6.944  0.3255  0.6064 -4.6710
   46MOL0     H 6331   5.410   7.487   7.006  0.5999  1.0705 -1.9009
   46MOL0     H 6332   3.254   7.274   6.258 -3.4186 -1.0131  0.8753
   46MOL0     H 6333   3.148   7.435   6.140  2.1815 -2.3085  0.1061
   46MOL0     H 6334   3.246   7.966   5.997 -0.6139 -0.7194 -0.2603
   46MOL0     H 6335   3.220   8.204   5.993  1.6448  0.1407  1.1373
   46MOL0     H 6336   3.209   8.417   6.031  0.2355 -2.6634 -0.7906
   46MOL0     H 6337   3.037   8.450   5.998 -0.0945  0.1332  0.4480
   46MOL0     H 6338   3.019   8.578   6.202 -0.7258  1.2306 -0.3514
   46MOL0     H 6339   3.102   8.637   6.050  1.4463 -2.3976 -1.1688
   46MOL0     H 6340   3.197   8.581   6.330  1.2290 -0.3111 -0.4778
   46MOL0     H 6341   3.318   8.541   6.211  1.9912  1.9124 -0.5064
   46MOL0     H 6342   3.307   8.789   6.318  0.0952 -0.8250 -0.0953
   46MOL0     H 6343   3.177   8.808   6.193 -1.2052 -2.9506 -3.5294
   46MOL0     H 6344   3.506   8.865   5.954  2.3744  0.2837  1.1890
   46MOL0     H 6345   2.949   8.159   6.333 -0.7252 -0.4327 -1.1451
   46MOL0     H 6346   2.935   7.979   6.458  2.3357 -0.1307  1.0356
   46MOL0     H 6347   2.863   7.898   6.327 -1.2786  0.8455  1.0132
   46MOL0     H 6348   3.002   7.827   6.428 -0.2412 -0.2879  0.4589
   47MOL0     O 6349   2.637   7.488   7.984 -0.6770 -0.4160 -0.1544
   47MOL0     C 6350   2.677   7.376   7.994  0.2996 -0.1044  0.4655
   47MOL0     O 6351   2.735   7.324   8.104  0.2640 -0.6704  0.3154
   47MOL0     C 6352   2.755   7.405   8.210 -0.4434  0.1497  0.2257
   47MOL0     C 6353   2.844   7.513   8.208  0.0092  0.0317 -0.2755
   47MOL0     C 6354   2.866   7.591   8.314 -0.7136  0.9327 -0.2913
   47MOL0     C 6355   2.795   7.567   8.436  0.6470  0.1351  0.0570
   47MOL0     O 6356   2.812   7.643   8.550  0.0446 -0.5166  0.2347
   47MOL0     C 6357   2.939   7.708   8.559  0.0432 -0.4036 -1.0977
   47MOL0     C 6358   2.965   7.703   8.709 -0.0553 -0.1636  0.0703
   47MOL0     C 6359   3.085   7.780   8.747 -0.1757 -0.6089 -0.0542
   47MOL0     C 6360   3.221   7.709   8.752 -0.4177  0.1162 -0.1193
   47MOL0     C 6361   3.250   7.611   8.870 -0.7814  0.3301  0.2169
   47MOL0     C 6362   3.399   7.573   8.884  0.2342  0.1232 -0.2975
   47MOL0     C 6363   3.444   7.497   9.012  0.5849  0.2139 -0.3194
   47MOL0     C 6364   3.452   7.592   9.129  0.5179  0.4776 -0.5142
   47MOL0     N 6365   3.538   7.537   9.234 -0.0202 -0.0139 -0.2008
   47MOL0     C 6366   3.665   7.502   9.206 -0.0050  0.2222 -0.0632
   47MOL0     C 6367   3.705   7.451   9.326 -0.7927 -0.9215 -0.3047
   47MOL0     C 6368   3.849   7.412   9.343 -0.6573  0.1414 -0.6653
   47MOL0     C 6369   3.945   7.531   9.350 -1.1407  0.5441  0.9548
   47MOL0     C 6370   4.088   7.484   9.378 -0.4640  0.3544  0.6131
   47MOL0     C 6371   4.153   7.422   9.249  0.2052  0.4494  0.4016
   47MOL0     O 6372   4.184   7.538   9.169  0.2724 -0.8662  0.0354
   47MOL0     C 6373   4.150   7.507   9.042  0.4345  0.6903 -0.1880
   47MOL0     C 6374   4.239   7.433   8.966  0.1383 -1.1576  0.0572
   47MOL0     C 6375   4.221   7.406   8.835  1.3480  0.4027  0.0365
   47MOL0     C 6376   4.327   7.322   8.766 -0.2322 -0.0227  0.0913
   47MOL0     C 6377   4.095   7.444   8.774 -0.3932 -0.8320  0.9702
   47MOL0     C 6378   4.045   7.388   8.646  0.1094  0.3145  0.4341
   47MOL0     O 6379   3.928   7.448   8.590 -0.3883  0.1869 -0.4158
   47MOL0     C 6380   3.886   7.422   8.465 -0.2047  0.2126  0.3474
   47MOL0     C 6381   3.972   7.400   8.363  0.3326 -0.0849 -0.3532
   47MOL0     C 6382   3.935   7.361   8.234 -0.1247  0.3941 -0.3343
   47MOL0     C 6383   3.798   7.344   8.201 -0.2484  0.7588  0.2078
   47MOL0     O 6384   3.737   7.302   8.086 -0.7700 -0.0676  0.9228
   47MOL0     C 6385   3.827   7.276   7.975  0.0424  0.8780  0.5997
   47MOL0     C 6386   3.748   7.255   7.845  0.2740  0.1293  0.1652
   47MOL0     C 6387   3.686   7.113   7.847 -0.2228  0.8833  0.1023
   47MOL0     C 6388   3.741   7.033   7.729  0.5436 -0.0695  0.7586
   47MOL0     C 6389   3.710   7.074   7.580 -0.5486 -0.1741 -0.0711
   47MOL0     C 6390   3.743   6.960   7.485 -0.5536  0.0545 -0.3087
   47MOL0     C 6391   3.896   6.945   7.464  0.4258  0.1475 -0.4082
   47MOL0     C 6392   3.938   6.802   7.430  0.5793  0.0924  0.8704
   47MOL0    Cl 6393   3.912   6.698   7.574  0.2422  0.5024 -0.2222
   47MOL0     C 6394   3.701   7.371   8.308 -0.2935 -0.2019 -0.1796
   47MOL0     C 6395   3.754   7.405   8.437  0.4368  0.5396 -1.0864
   47MOL0     O 6396   4.096   7.285   8.594  0.5866  0.2611 -0.7278
   47MOL0     C 6397   4.001   7.509   8.854  0.1914 -0.3303  0.2993
   47MOL0     C 6398   4.033   7.551   8.981 -0.2757 -0.0717  0.0381
   47MOL0     N 6399   3.600   7.461   9.418 -0.5365  0.6661 -0.3693
   47MOL0     N 6400   3.505   7.519   9.363  0.6218 -1.0018 -0.8043
   47MOL0     C 6401   2.690   7.474   8.434 -1.2897  0.5079  0.1175
   47MOL0     C 6402   2.677   7.387   8.321 -0.2715  0.0532  0.2720
   47MOL0     C 6403   2.707   7.317   7.858 -0.0593  0.8337  0.0650
   47MOL0     C 6404   2.806   7.222   7.847  0.4090  0.3657 -0.3585
   47MOL0     C 6405   2.854   7.179   7.728  0.0103  0.4316  0.4461
   47MOL0     C 6406   2.794   7.211   7.609 -0.2182 -0.6700  0.3153
   47MOL0     O 6407   2.831   7.151   7.491  0.5314 -0.2653  0.0455
   47MOL0     C 6408   2.948   7.208   7.428 -0.2612  0.2145 -0.5882
   47MOL0     C 6409   2.973   7.363   7.421 -0.0207  1.0148 -0.0049
   47MOL0     C 6410   3.114   7.386   7.386 -0.0799  0.4569  0.8578
   47MOL0     C 6411   3.208   7.399   7.506 -1.0541  0.0562 -0.3152
   47MOL0     C 6412   3.264   7.264   7.545  0.9093 -0.2862 -0.1197
   47MOL0     C 6413   3.326   7.157   7.567  1.3083  0.0133  0.3523
   47MOL0     C 6414   2.682   7.298   7.613 -0.1267  0.3242 -0.3747
   47MOL0     C 6415   2.645   7.361   7.732 -0.2509  0.6960 -0.0637
   47MOL0     C 6416   2.526   7.439   7.716  0.0742 -1.2239  0.5211
   47MOL0     H 6417   2.891   7.539   8.113 -1.5408  1.2021 -0.7600
   47MOL0     H 6418   2.938   7.670   8.299  2.3899 -1.7415 -0.7223
   47MOL0     H 6419   2.935   7.809   8.517  0.8412 -1.0720 -2.8497
   47MOL0     H 6420   3.018   7.671   8.494 -0.9531  1.4334 -3.5444
   47MOL0     H 6421   2.882   7.741   8.769  1.4349  1.4253  1.2248
   47MOL0     H 6422   2.973   7.603   8.754  0.1885  1.3122  3.6214
   47MOL0     H 6423   3.091   7.865   8.678 -1.4727  0.2681  0.8579
   47MOL0     H 6424   3.088   7.824   8.847  3.1244  0.0038 -0.3119
   47MOL0     H 6425   3.242   7.663   8.655 -1.3078  0.5085 -0.5162
   47MOL0     H 6426   3.291   7.791   8.764 -2.4825  1.9239  0.2535
   47MOL0     H 6427   3.190   7.521   8.852 -1.8553  1.3602 -1.5087
   47MOL0     H 6428   3.211   7.664   8.957 -3.3636  0.6552 -1.0590
   47MOL0     H 6429   3.431   7.520   8.794  2.9737  0.5877  0.2972
   47MOL0     H 6430   3.449   7.671   8.876 -2.6532  1.7811  0.3878
   47MOL0     H 6431   3.546   7.462   8.991  0.7081  1.5379 -2.1318
   47MOL0     H 6432   3.378   7.414   9.040  0.0430  0.2877 -1.3479
   47MOL0     H 6433   3.496   7.688   9.100  1.1323  0.6327  0.9008
   47MOL0     H 6434   3.352   7.610   9.170 -0.8407 -4.6730 -0.8781
   47MOL0     H 6435   3.714   7.513   9.110 -0.7211  0.1474 -0.4437
   47MOL0     H 6436   3.879   7.349   9.259  2.5676 -0.7789  0.9689
   47MOL0     H 6437   3.862   7.356   9.436 -0.9015  1.4100  0.1535
   47MOL0     H 6438   3.932   7.597   9.264 -0.2893 -0.3029  0.1515
   47MOL0     H 6439   3.898   7.584   9.433 -0.5006 -1.1630  2.4875
   47MOL0     H 6440   4.149   7.569   9.411  0.6056  0.1675 -0.7771
   47MOL0     H 6441   4.096   7.423   9.468  2.9877  4.5223  3.5867
   47MOL0     H 6442   4.242   7.374   9.291 -1.1055 -2.3486  0.2349
   47MOL0     H 6443   4.105   7.337   9.200 -0.7260 -0.9353  3.4932
   47MOL0     H 6444   4.332   7.399   9.009  0.3850 -0.4733  0.0794
   47MOL0     H 6445   4.326   7.337   8.657  1.0455 -0.6078 -0.0171
   47MOL0     H 6446   4.323   7.216   8.792  1.6336  0.7240  4.3353
   47MOL0     H 6447   4.430   7.354   8.785 -0.5318  0.7972  0.3710
   47MOL0     H 6448   4.075   7.427   8.384 -0.6107  3.9943 -0.0422
   47MOL0     H 6449   4.012   7.349   8.158 -0.7869  0.5283 -1.0488
   47MOL0     H 6450   3.892   7.362   7.953  1.1202 -0.2017 -0.5933
   47MOL0     H 6451   3.882   7.191   8.016 -1.8109 -1.2527 -1.0561
   47MOL0     H 6452   3.666   7.323   7.824 -0.5067 -0.5697  0.8563
   47MOL0     H 6453   3.818   7.259   7.761  0.0008 -1.5738 -0.1796
   47MOL0     H 6454   3.576   7.114   7.854 -0.5040 -4.3482  1.2260
   47MOL0     H 6455   3.711   7.056   7.937 -1.2304 -1.7709 -1.1655
   47MOL0     H 6456   3.712   6.928   7.740  2.5638 -0.4295  3.8568
   47MOL0     H 6457   3.849   7.037   7.746  0.4405  1.0272  1.1989
   47MOL0     H 6458   3.611   7.114   7.555  0.4050  0.9298 -2.4683
   47MOL0     H 6459   3.778   7.158   7.562 -2.7184  1.3886 -1.5664
   47MOL0     H 6460   3.689   6.970   7.390 -1.2876 -1.1269 -0.0412
   47MOL0     H 6461   3.691   6.870   7.519 -0.6532  0.2385  0.0443
   47MOL0     H 6462   3.951   6.982   7.551 -1.4987 -0.2185  1.0495
   47MOL0     H 6463   3.928   7.008   7.381  2.0400  0.9670  0.7972
   47MOL0     H 6464   4.044   6.792   7.403  0.5041 -3.3235  1.3862
   47MOL0     H 6465   3.868   6.764   7.355 -0.5906 -0.8452  2.3961
   47MOL0     H 6466   3.600   7.363   8.269  0.0584  2.4915 -1.8511
   47MOL0     H 6467   3.694   7.408   8.527  3.1340  1.5818  0.7942
   47MOL0     H 6468   3.901   7.538   8.823 -0.2628  0.7061  2.5518
   47MOL0     H 6469   3.970   7.602   9.052  1.6673 -1.2111  2.7724
   47MOL0     H 6470   2.626   7.457   8.521 -3.1986  1.2154 -1.0791
   47MOL0     H 6471   2.610   7.302   8.328  0.3316 -0.4037  0.6117
   47MOL0     H 6472   2.862   7.195   7.936  0.0243 -0.4297 -0.3477
   47MOL0     H 6473   2.930   7.102   7.724 -1.1395 -0.7284  0.2946
   47MOL0     H 6474   3.033   7.159   7.476 -0.6264  0.5466  0.4212
   47MOL0     H 6475   2.951   7.174   7.324  4.2177  2.6980 -1.5356
   47MOL0     H 6476   2.945   7.417   7.511 -0.6924  1.2889 -0.3684
   47MOL0     H 6477   2.901   7.403   7.349 -0.7043  0.2525  0.2322
   47MOL0     H 6478   3.153   7.330   7.301 -3.4955 -1.1849  0.1795
   47MOL0     H 6479   3.119   7.488   7.347 -0.2853 -0.1753 -0.9011
   47MOL0     H 6480   3.162   7.431   7.599  0.1365 -1.0286  0.6857
   47MOL0     H 6481   3.287   7.471   7.485 -1.9638  0.6376 -1.8996
   47MOL0     H 6482   3.377   7.063   7.576  3.0511  0.7145 -1.3432
   47MOL0     H 6483   2.644   7.322   7.514  2.6515  0.2586 -1.5752
   47MOL0     H 6484   2.451   7.402   7.645 -3.1329  0.9726  2.4612
   47MOL0     H 6485   2.468   7.438   7.809 -1.6977  0.4801 -0.4676
   47MOL0     H 6486   2.554   7.544   7.704  1.0871 -1.3344  1.6891
   48MOL0     O 6487   5.811   9.537   1.257 -0.0379 -0.9096  0.0361
   48MOL0     C 6488   5.728   9.595   1.187 -0.2606 -0.3379  0.3320
   48MOL0     O 6489   5.750   9.717   1.128 -0.0541  0.1308 -0.3218
   48MOL0     C 6490   5.879   9.754   1.105 -0.6576  0.0070  0.0064
   48MOL0     C 6491   5.901   9.889   1.104 -0.7351 -0.0724 -0.3907
   48MOL0     C 6492   6.029   9.936   1.076 -0.5782  0.0747  0.0455
   48MOL0     C 6493   6.135   9.856   1.041 -0.1402  0.7257  0.0503
   48MOL0     O 6494   6.245   9.916   0.986  0.2277 -0.5277  0.5538
   48MOL0     C 6495   6.357   9.838   0.946 -0.8099  0.3475 -0.1207
   48MOL0     C 6496   6.469   9.930   0.911  0.4027 -0.5603  0.2361
   48MOL0     C 6497   6.520  10.014   1.029 -0.5264 -0.3086  0.4162
   48MOL0     C 6498   6.593   9.925   1.132 -0.3661  0.1395  0.0477
   48MOL0     C 6499   6.686  10.003   1.224 -1.1636  0.6858  0.6439
   48MOL0     C 6500   6.792   9.922   1.293  0.0347 -0.2580 -0.6962
   48MOL0     C 6501   6.861  10.011   1.406  0.6132  0.0885  0.8277
   48MOL0     C 6502   6.927  10.134   1.345 -0.5357 -0.1564  0.2099
   48MOL0     N 6503   7.052  10.159   1.403 -0.3793  0.0007  0.7402
   48MOL0     C 6504   7.109  10.287   1.421  0.7111 -0.6188  0.1441
   48MOL0     C 6505   7.235  10.269   1.471 -0.2250 -0.0225  0.3965
   48MOL0     C 6506   7.342  10.364   1.511  0.5647  0.0401  0.0568
   48MOL0     C 6507   7.303  10.493   1.582  0.8518  0.4881 -0.6318
   48MOL0     C 6508   7.412  10.605   1.553 -0.6292 -0.2783 -0.4249
   48MOL0     C 6509   7.545  10.580   1.624  0.1705 -0.7509 -0.1306
   48MOL0     O 6510   7.534  10.604   1.771  0.2578  1.0598  0.0117
   48MOL0     C 6511   7.642  10.605   1.853 -0.6470 -0.7003 -0.6434
   48MOL0     C 6512   7.773  10.626   1.810  0.8126 -0.7393 -0.1321
   48MOL0     C 6513   7.878  10.657   1.895  0.5494  0.4995 -0.2549
   48MOL0     C 6514   8.015  10.704   1.837  0.2422 -0.4658  0.8881
   48MOL0     C 6515   7.855  10.649   2.034 -0.4001 -0.1319  0.6461
   48MOL0     C 6516   7.962  10.675   2.132 -0.1895 -0.5921  0.3910
   48MOL0     O 6517   7.959  10.596   2.241  0.0857 -0.4196  0.3948
   48MOL0     C 6518   8.077  10.557   2.310 -0.5724  0.3777  0.4655
   48MOL0     C 6519   8.063  10.505   2.431  0.2888 -0.2217 -0.2886
   48MOL0     C 6520   8.167  10.460   2.507 -0.6426  0.5524 -0.3643
   48MOL0     C 6521   8.292  10.463   2.458 -0.5378 -0.4612 -0.0360
   48MOL0     O 6522   8.409  10.436   2.528 -0.5436 -0.0234 -0.3891
   48MOL0     C 6523   8.412  10.433   2.669  0.7250 -0.1961  0.2095
   48MOL0     C 6524   8.410  10.279   2.694  0.9964 -0.0806  0.1353
   48MOL0     C 6525   8.430  10.245   2.841  0.4598 -0.5288  0.2519
   48MOL0     C 6526   8.340  10.118   2.866 -0.3112 -0.8453  0.4561
   48MOL0     C 6527   8.380  10.042   2.995  0.2501 -0.2673  0.5624
   48MOL0     C 6528   8.282   9.921   3.005 -0.8107  0.4216  0.3399
   48MOL0     C 6529   8.332   9.820   3.108 -0.2062  0.7687  0.0894
   48MOL0     C 6530   8.219   9.737   3.174  0.4706 -0.5887 -0.2640
   48MOL0    Cl 6531   8.198   9.574   3.102  0.3692 -0.1428 -0.3126
   48MOL0     C 6532   8.315  10.505   2.330  0.3401 -0.3637  0.5936
   48MOL0     C 6533   8.207  10.560   2.259 -0.3518  0.0431  0.0558
   48MOL0     O 6534   8.045  10.772   2.117  0.3668  0.1898 -0.1187
   48MOL0     C 6535   7.728  10.614   2.083 -0.0673 -0.8296  0.0166
   48MOL0     C 6536   7.620  10.606   1.996  0.7900 -0.7091  0.9530
   48MOL0     N 6537   7.249  10.130   1.479  0.0360  0.5149 -0.4708
   48MOL0     N 6538   7.137  10.067   1.451  0.2225 -0.0443  0.5231
   48MOL0     C 6539   6.114   9.715   1.025  0.4662  0.4783 -0.8914
   48MOL0     C 6540   5.986   9.667   1.057  0.9036  0.2906  0.1490
   48MOL0     C 6541   5.593   9.529   1.176 -0.8336 -0.1744 -0.4372
   48MOL0     C 6542   5.533   9.532   1.054  0.9172  0.3045  1.3175
   48MOL0     C 6543   5.406   9.472   1.048 -0.1105 -0.2857  0.6161
   48MOL0     C 6544   5.343   9.397   1.147 -0.7102 -0.9170  0.4815
   48MOL0     O 6545   5.220   9.333   1.121 -0.0173 -1.1501 -0.0027
   48MOL0     C 6546   5.149   9.292   1.240  0.6235 -0.1889  0.7558
   48MOL0     C 6547   5.027   9.210   1.189 -0.3707 -0.1769  0.0703
   48MOL0     C 6548   5.062   9.075   1.124  0.4385 -0.0474  0.7008
   48MOL0     C 6549   4.938   9.017   1.059  0.7524 -0.5953 -1.2211
   48MOL0     C 6550   4.967   8.911   0.959 -0.4145  0.0095  0.0197
   48MOL0     C 6551   4.996   8.835   0.871  0.5394  1.3657  0.0652
   48MOL0     C 6552   5.412   9.395   1.273  0.0465  0.0987 -0.1912
   48MOL0     C 6553   5.530   9.467   1.291  0.6952  0.1510  0.1428
   48MOL0     C 6554   5.583   9.467   1.430 -0.3485 -0.1471 -0.5857
   48MOL0     H 6555   5.824   9.960   1.131  1.5265  3.0110 -1.5455
   48MOL0     H 6556   6.060  10.040   1.068 -0.4187  0.0676  0.5293
   48MOL0     H 6557   6.335   9.785   0.853 -0.2696 -1.2474  0.6318
   48MOL0     H 6558   6.396   9.765   1.018  1.9039  1.5076 -0.2610
   48MOL0     H 6559   6.547   9.865   0.873 -0.4276 -0.1396 -2.4090
   48MOL0     H 6560   6.428   9.986   0.826 -1.0975 -3.0355 -0.7858
   48MOL0     H 6561   6.595  10.087   0.999 -1.0418  1.2999  2.7555
   48MOL0     H 6562   6.446  10.081   1.075  0.4112 -0.9096  2.9948
   48MOL0     H 6563   6.519   9.864   1.185 -0.3558 -2.1123 -2.2848
   48MOL0     H 6564   6.646   9.844   1.080 -2.8732 -2.0359  0.6456
   48MOL0     H 6565   6.631  10.061   1.299 -1.1004  0.5828  0.7694
   48MOL0     H 6566   6.736  10.074   1.157  0.3436 -1.6050 -0.7763
   48MOL0     H 6567   6.756   9.830   1.340  0.3565  1.7985  4.1237
   48MOL0     H 6568   6.866   9.891   1.219 -0.2546  3.3008 -2.6887
   48MOL0     H 6569   6.928   9.942   1.456  0.1853 -0.9195  0.0478
   48MOL0     H 6570   6.785  10.034   1.481  0.3184  0.7515  0.3402
   48MOL0     H 6571   6.953  10.135   1.239  0.9421  1.2773  0.5419
   48MOL0     H 6572   6.865  10.224   1.353  1.1914  1.4127 -2.3678
   48MOL0     H 6573   7.077  10.389   1.405  0.3841 -0.1821  3.0258
   48MOL0     H 6574   7.405  10.388   1.425  0.2534 -0.7251 -0.3888
   48MOL0     H 6575   7.415  10.310   1.573 -0.2869  0.0825  1.1352
   48MOL0     H 6576   7.198  10.520   1.563  0.4695  1.0257  1.9162
   48MOL0     H 6577   7.302  10.480   1.690  0.1672  0.6387 -0.6135
   48MOL0     H 6578   7.420  10.627   1.446 -0.8946  0.1615 -0.3564
   48MOL0     H 6579   7.377  10.696   1.603 -0.6003 -0.4901 -0.0236
   48MOL0     H 6580   7.566  10.473   1.614 -0.9426 -1.2122  1.9891
   48MOL0     H 6581   7.615  10.657   1.589  0.1460  1.7797  4.5912
   48MOL0     H 6582   7.790  10.622   1.702 -1.3335 -0.5278 -0.5283
   48MOL0     H 6583   8.101  10.645   1.871  3.3650  3.1252 -0.0583
   48MOL0     H 6584   8.041  10.806   1.867 -0.7446  0.8008 -2.2191
   48MOL0     H 6585   8.033  10.706   1.730 -0.1097  2.5600  0.7815
   48MOL0     H 6586   7.966  10.488   2.477  1.5075 -2.8187  1.5752
   48MOL0     H 6587   8.162  10.402   2.598 -1.2496 -1.3627 -1.5588
   48MOL0     H 6588   8.507  10.480   2.697  1.2859 -0.1951 -1.5296
   48MOL0     H 6589   8.335  10.489   2.722  0.3977 -1.2659  0.8844
   48MOL0     H 6590   8.308  10.255   2.663  0.3517  0.6263  1.5932
   48MOL0     H 6591   8.482  10.234   2.625  1.9128  1.5192  0.0010
   48MOL0     H 6592   8.392  10.328   2.902  0.2842 -1.2792  1.1956
   48MOL0     H 6593   8.535  10.230   2.865  0.2713 -2.3833  0.0610
   48MOL0     H 6594   8.359  10.052   2.782  3.9930  0.6192  0.0146
   48MOL0     H 6595   8.234  10.140   2.878  0.2531  0.7402  3.8138
   48MOL0     H 6596   8.479   9.997   2.984 -0.8043 -2.3659 -1.1814
   48MOL0     H 6597   8.375  10.105   3.085 -1.8871 -2.1427  1.8886
   48MOL0     H 6598   8.279   9.881   2.904 -3.7085  3.6259 -1.0781
   48MOL0     H 6599   8.180   9.953   3.029 -2.6431 -3.3233 -1.6446
   48MOL0     H 6600   8.388   9.870   3.187  1.4811  0.3298 -0.7887
   48MOL0     H 6601   8.390   9.741   3.059 -0.1500 -0.1161  1.5106
   48MOL0     H 6602   8.120   9.783   3.174 -0.4716 -2.4335 -1.8110
   48MOL0     H 6603   8.261   9.721   3.274  0.1222  0.9610  0.1466
   48MOL0     H 6604   8.415  10.506   2.288  0.8876  0.7210  1.8341
   48MOL0     H 6605   8.231  10.614   2.168 -0.3204  0.0136  0.0467
   48MOL0     H 6606   7.722  10.601   2.190 -2.5290  1.1509  0.2064
   48MOL0     H 6607   7.518  10.602   2.033  0.1334 -4.9688 -0.6918
   48MOL0     H 6608   6.196   9.650   0.998  1.6036  1.5102 -0.0793
   48MOL0     H 6609   5.960   9.562   1.059 -3.2384  1.0339 -2.5870
   48MOL0     H 6610   5.573   9.575   0.963  0.0281 -2.2067 -0.3645
   48MOL0     H 6611   5.360   9.501   0.954  0.9338  0.4847  0.3281
   48MOL0     H 6612   5.211   9.230   1.306 -1.0951 -1.8125  0.9138
   48MOL0     H 6613   5.119   9.384   1.291 -6.8076 -1.6214 -0.0060
   48MOL0     H 6614   4.973   9.274   1.118  0.4815 -0.6056 -0.9988
   48MOL0     H 6615   4.964   9.190   1.276 -2.6103 -3.0187 -1.9968
   48MOL0     H 6616   5.141   9.089   1.049 -2.1208  0.0121 -2.1843
   48MOL0     H 6617   5.104   8.999   1.191 -0.3962 -2.4914 -1.3825
   48MOL0     H 6618   4.888   9.097   1.004 -1.0104  1.1293  2.4616
   48MOL0     H 6619   4.869   8.990   1.139  2.5145 -1.1183  0.1972
   48MOL0     H 6620   5.015   8.766   0.790 -0.8687 -0.6867  1.3897
   48MOL0     H 6621   5.351   9.366   1.358  1.4256  1.2588  1.2708
   48MOL0     H 6622   5.678   9.419   1.457 -0.8832 -1.6091 -1.1716
   48MOL0     H 6623   5.601   9.573   1.450  2.4927 -0.5898 -0.4379
   48MOL0     H 6624   5.506   9.428   1.497 -0.5127  0.0635 -0.6493
   49MOL0     O 6625   4.778   5.164   7.741 -0.4289 -1.4677 -0.9403
   49MOL0     C 6626   4.742   5.060   7.691  0.7677  0.6678 -0.1432
   49MOL0     O 6627   4.677   4.958   7.757  0.1033 -0.1332  0.6417
   49MOL0     C 6628   4.656   4.969   7.890 -0.2382 -0.3374 -1.0373
   49MOL0     C 6629   4.751   4.920   7.979 -0.1091 -0.1712  0.8909
   49MOL0     C 6630   4.725   4.929   8.121 -0.3795 -0.1701 -0.1267
   49MOL0     C 6631   4.612   4.985   8.173  0.1284  1.4056  0.1326
   49MOL0     O 6632   4.581   4.997   8.306  0.4543 -0.3645  0.6748
   49MOL0     C 6633   4.649   4.915   8.402  0.4034  0.2564  0.3104
   49MOL0     C 6634   4.590   4.933   8.539  0.6606  1.1809 -1.1764
   49MOL0     C 6635   4.666   4.871   8.656  0.0010  0.0565  0.1778
   49MOL0     C 6636   4.695   4.721   8.637  0.0568 -0.1960 -0.1085
   49MOL0     C 6637   4.681   4.644   8.768  0.2249 -0.5156  0.5852
   49MOL0     C 6638   4.634   4.502   8.752  0.4284  0.7360  0.2730
   49MOL0     C 6639   4.610   4.430   8.880  0.1114  0.0221 -0.2572
   49MOL0     C 6640   4.580   4.279   8.855  0.5904  0.3488  0.5002
   49MOL0     N 6641   4.666   4.192   8.759  0.0490 -0.2176  0.3577
   49MOL0     C 6642   4.623   4.087   8.682 -0.1139 -0.0037  0.2086
   49MOL0     C 6643   4.734   4.048   8.616 -0.5190 -0.4378 -0.0990
   49MOL0     C 6644   4.741   3.938   8.513  0.4277 -0.1941  0.7342
   49MOL0     C 6645   4.683   3.987   8.382 -0.0891  0.2781 -0.4523
   49MOL0     C 6646   4.700   3.877   8.279  0.5340 -0.3569  0.6449
   49MOL0     C 6647   4.721   3.943   8.141  0.2398 -0.2769  0.4541
   49MOL0     O 6648   4.760   3.852   8.038  0.3131  0.0233  0.6526
   49MOL0     C 6649   4.899   3.834   8.007  0.1651  0.5479  0.1474
   49MOL0     C 6650   4.996   3.852   8.101 -0.0636 -1.1106 -0.7349
   49MOL0     C 6651   5.133   3.839   8.075  0.1681 -0.2890  0.3456
   49MOL0     C 6652   5.232   3.865   8.188  0.1301  0.2525 -0.4171
   49MOL0     C 6653   5.169   3.802   7.942  0.0908  0.0093 -0.0271
   49MOL0     C 6654   5.316   3.776   7.896 -1.1900 -0.6122  0.2540
   49MOL0     O 6655   5.418   3.761   7.988  0.3049 -0.8394 -0.7557
   49MOL0     C 6656   5.544   3.725   7.963 -0.4618 -0.9968 -0.7280
   49MOL0     C 6657   5.620   3.803   7.874 -0.2760 -0.6451  1.3220
   49MOL0     C 6658   5.761   3.778   7.858  1.0420 -0.2205  0.1322
   49MOL0     C 6659   5.821   3.686   7.944 -0.8807  0.1503  0.7267
   49MOL0     O 6660   5.954   3.659   7.916  0.2730 -0.4944 -0.0944
   49MOL0     C 6661   6.027   3.566   8.003  0.0249  0.8397  0.9717
   49MOL0     C 6662   6.183   3.563   7.980  0.7002 -0.2036  0.3246
   49MOL0     C 6663   6.227   3.613   7.836  0.3206  0.2201  0.2273
   49MOL0     C 6664   6.186   3.517   7.730  0.5949  0.3491  0.3493
   49MOL0     C 6665   6.235   3.557   7.588  0.8084  0.0847  0.5686
   49MOL0     C 6666   6.198   3.456   7.484  0.6198 -0.1810  0.6598
   49MOL0     C 6667   6.195   3.512   7.341 -0.8093  0.4109 -0.0397
   49MOL0     C 6668   6.335   3.546   7.281 -0.2011  0.3008  0.8171
   49MOL0    Cl 6669   6.372   3.713   7.258  0.0762  0.0415 -0.4615
   49MOL0     C 6670   5.746   3.608   8.025  0.4898  0.8197 -0.7599
   49MOL0     C 6671   5.602   3.621   8.039 -1.6659 -0.0220 -0.5546
   49MOL0     O 6672   5.337   3.763   7.774  0.3463 -0.6127 -0.1341
   49MOL0     C 6673   5.070   3.780   7.844 -0.5521  0.7400 -0.4060
   49MOL0     C 6674   4.938   3.797   7.876 -0.3046  0.3374  0.0484
   49MOL0     N 6675   4.838   4.134   8.648 -0.2556  0.2462 -0.0345
   49MOL0     N 6676   4.798   4.221   8.738  0.3810 -0.3093  0.0455
   49MOL0     C 6677   4.523   5.037   8.074  0.0839 -0.7057 -0.3258
   49MOL0     C 6678   4.547   5.040   7.938 -0.7006 -0.0326 -0.6632
   49MOL0     C 6679   4.791   5.033   7.563 -0.9639  0.2925  0.1276
   49MOL0     C 6680   4.707   4.960   7.476  0.3908  0.4952  0.4154
   49MOL0     C 6681   4.746   4.924   7.347 -0.1377  0.8565  0.6436
   49MOL0     C 6682   4.861   4.975   7.297 -0.9582  0.0776  0.1952
   49MOL0     O 6683   4.892   4.971   7.158  0.1885 -0.2599 -0.8774
   49MOL0     C 6684   4.862   4.853   7.069  0.6703 -0.2615  0.7342
   49MOL0     C 6685   4.963   4.735   7.093  0.0974  0.7615  0.7753
   49MOL0     C 6686   5.115   4.760   7.063  0.5532  0.4281 -0.3898
   49MOL0     C 6687   5.197   4.635   7.084  0.8446 -0.0799  0.2391
   49MOL0     C 6688   5.193   4.587   7.225  0.0685  0.0530  1.0001
   49MOL0     C 6689   5.186   4.527   7.322  0.6100 -0.3588 -1.2009
   49MOL0     C 6690   4.951   5.042   7.376  0.5155 -0.4613  0.1369
   49MOL0     C 6691   4.918   5.067   7.507  0.1592  0.4746 -0.0895
   49MOL0     C 6692   5.032   5.132   7.590  0.5557 -0.0148 -0.2474
   49MOL0     H 6693   4.845   4.887   7.937  1.5585  4.0859  0.8054
   49MOL0     H 6694   4.796   4.894   8.196 -1.7506  0.2709  1.4424
   49MOL0     H 6695   4.755   4.938   8.419  1.4972 -2.0522 -2.4969
   49MOL0     H 6696   4.648   4.816   8.357 -3.1881  0.1745  0.2870
   49MOL0     H 6697   4.594   5.041   8.552 -0.5255  0.9446  1.8528
   49MOL0     H 6698   4.487   4.899   8.548  1.0398  0.2922  0.0896
   49MOL0     H 6699   4.756   4.930   8.671  0.2248 -0.4361  0.8034
   49MOL0     H 6700   4.611   4.890   8.748  0.1451 -0.2494  0.3269
   49MOL0     H 6701   4.638   4.671   8.558 -0.6644  0.5709 -0.0849
   49MOL0     H 6702   4.799   4.713   8.604  0.0826  1.5546 -0.5850
   49MOL0     H 6703   4.600   4.685   8.829 -0.3165 -1.3838  0.4711
   49MOL0     H 6704   4.777   4.645   8.820  0.9817 -1.2276 -0.7470
   49MOL0     H 6705   4.536   4.504   8.702  0.3486  2.7104  0.4048
   49MOL0     H 6706   4.710   4.452   8.692 -0.5713  1.4458 -1.6671
   49MOL0     H 6707   4.532   4.478   8.939  1.4406  1.7693  0.1684
   49MOL0     H 6708   4.707   4.438   8.929  0.6485 -0.2075 -1.2550
   49MOL0     H 6709   4.578   4.230   8.953  1.3840  1.4850  1.1031
   49MOL0     H 6710   4.482   4.263   8.811  1.3626 -1.6956 -0.6105
   49MOL0     H 6711   4.524   4.044   8.672 -0.4279 -0.2076  3.3579
   49MOL0     H 6712   4.678   3.856   8.550 -3.0214  1.9395  0.1274
   49MOL0     H 6713   4.844   3.904   8.500  0.3669  0.2406 -1.2167
   49MOL0     H 6714   4.578   3.979   8.408  0.3946 -0.1863  1.5478
   49MOL0     H 6715   4.722   4.085   8.354  0.8764  0.0877  0.1682
   49MOL0     H 6716   4.793   3.822   8.295  1.4005  0.1783 -2.0859
   49MOL0     H 6717   4.613   3.810   8.275  1.1317 -1.1432  0.6337
   49MOL0     H 6718   4.628   3.986   8.103  1.4388  2.0220 -0.0897
   49MOL0     H 6719   4.787   4.029   8.153 -0.9528  0.8526 -0.7898
   49MOL0     H 6720   4.966   3.877   8.203 -2.4514 -0.5480 -1.5141
   49MOL0     H 6721   5.177   3.904   8.273  0.7523  1.4017 -0.5295
   49MOL0     H 6722   5.296   3.948   8.158  1.1136 -1.3437 -3.1559
   49MOL0     H 6723   5.283   3.772   8.213 -0.4985 -0.3513 -1.2944
   49MOL0     H 6724   5.563   3.881   7.824  0.7320 -0.4245  0.4963
   49MOL0     H 6725   5.824   3.830   7.787  0.4647  0.3759  0.0534
   49MOL0     H 6726   6.011   3.593   8.108 -1.2788  1.7484  0.5669
   49MOL0     H 6727   5.989   3.466   7.979 -1.2490  1.1275  1.6804
   49MOL0     H 6728   6.227   3.631   8.053  0.8561  0.6436 -0.5509
   49MOL0     H 6729   6.223   3.466   8.011 -0.1960 -0.5005  0.5829
   49MOL0     H 6730   6.335   3.629   7.844 -0.0266  3.7899 -0.4202
   49MOL0     H 6731   6.185   3.711   7.810 -0.7767 -0.1101  0.7026
   49MOL0     H 6732   6.077   3.529   7.728  0.6385  0.6268 -0.5064
   49MOL0     H 6733   6.203   3.411   7.751 -3.7596 -0.4186  0.9408
   49MOL0     H 6734   6.189   3.652   7.559 -0.0831 -0.0305  1.5218
   49MOL0     H 6735   6.343   3.571   7.582  0.4751  2.7885 -0.6455
   49MOL0     H 6736   6.104   3.406   7.507  2.5458 -3.3887  2.3083
   49MOL0     H 6737   6.277   3.380   7.482  0.4520 -0.3447  0.3375
   49MOL0     H 6738   6.129   3.599   7.334  1.0940  1.8242 -1.7674
   49MOL0     H 6739   6.154   3.438   7.272 -1.1479  1.4563 -1.0005
   49MOL0     H 6740   6.357   3.493   7.188 -0.3140  0.1883  0.8550
   49MOL0     H 6741   6.408   3.496   7.345 -0.0910  0.9206  1.1864
   49MOL0     H 6742   5.801   3.523   8.063  0.9019  0.5148 -1.9737
   49MOL0     H 6743   5.544   3.549   8.096  0.3404 -0.7833  0.6401
   49MOL0     H 6744   5.097   3.740   7.747  4.0409 -5.2216  2.5588
   49MOL0     H 6745   4.863   3.763   7.806  0.5060 -3.6963  0.8621
   49MOL0     H 6746   4.437   5.088   8.115  1.2660  0.1615  1.1984
   49MOL0     H 6747   4.486   5.088   7.862 -1.1257 -1.3640 -1.1933
   49MOL0     H 6748   4.609   4.937   7.515  0.1124  0.7339 -0.1300
   49MOL0     H 6749   4.670   4.876   7.285  1.1358  1.9537 -1.9495
   49MOL0     H 6750   4.757   4.830   7.089  0.7993 -0.1391  1.5819
   49MOL0     H 6751   4.877   4.896   6.970 -0.8376  2.5449  1.6340
   49MOL0     H 6752   4.913   4.650   7.046 -0.8176  1.4453  0.4847
   49MOL0     H 6753   4.949   4.700   7.196 -1.5236  1.0504  0.6746
   49MOL0     H 6754   5.114   4.796   6.960 -1.2877  2.5756  0.2951
   49MOL0     H 6755   5.166   4.838   7.119  2.5737 -0.6798 -0.6042
   49MOL0     H 6756   5.301   4.646   7.054  1.2212 -1.7048  0.8076
   49MOL0     H 6757   5.157   4.558   7.017 -0.8682  1.0183 -0.0649
   49MOL0     H 6758   5.180   4.462   7.407 -1.7494 -0.2170 -1.2085
   49MOL0     H 6759   5.047   5.077   7.340  0.7983  0.5722  1.7792
   49MOL0     H 6760   5.000   5.227   7.631 -0.4451 -1.0828  1.5707
   49MOL0     H 6761   5.053   5.075   7.681 -1.8099  1.9853  1.6694
   49MOL0     H 6762   5.126   5.148   7.536 -0.6613  1.7430 -1.9547
   50MOL0     O 6763  11.421   9.738   4.245 -0.7950  0.1197 -0.5124
   50MOL0     C 6764  11.411   9.779   4.364 -0.2858  1.1271  0.2345
   50MOL0     O 6765  11.514   9.783   4.453  1.0808 -0.4954 -0.2150
   50MOL0     C 6766  11.646   9.792   4.405  0.6638 -0.1967 -0.5419
   50MOL0     C 6767  11.732   9.699   4.459 -0.4624 -0.7659 -0.0110
   50MOL0     C 6768  11.865   9.712   4.419  0.6792 -0.1254  0.8066
   50MOL0     C 6769  11.912   9.817   4.345 -0.4248 -0.3279  0.4710
   50MOL0     O 6770  12.052   9.819   4.332  0.1759 -0.4929 -0.0162
   50MOL0     C 6771  12.116   9.918   4.245 -1.3211 -0.5203  0.1705
   50MOL0     C 6772  12.261   9.887   4.211 -0.5471 -0.4349 -0.4539
   50MOL0     C 6773  12.344   9.868   4.341 -0.0198 -1.1398  1.0514
   50MOL0     C 6774  12.490   9.836   4.304 -0.4984 -0.0322 -0.2776
   50MOL0     C 6775  12.550   9.782   4.439  0.1154  0.4695  0.6430
   50MOL0     C 6776  12.688   9.739   4.409 -1.3427  0.0402 -0.0534
   50MOL0     C 6777  12.754   9.682   4.535 -0.9422 -0.4216  1.3251
   50MOL0     C 6778  12.889   9.615   4.502 -0.4124 -0.7415  0.2167
   50MOL0     N 6779  12.926   9.531   4.613 -0.9580 -0.3334  0.2848
   50MOL0     C 6780  12.954   9.577   4.738 -0.8105 -0.6207  0.4414
   50MOL0     C 6781  13.001   9.466   4.804 -0.7919 -0.7498 -0.6936
   50MOL0     C 6782  13.044   9.472   4.947 -0.2714  0.4100 -0.3203
   50MOL0     C 6783  13.138   9.589   4.966 -0.0624  0.5153 -0.0077
   50MOL0     C 6784  13.257   9.596   4.862  0.3170  0.6069 -0.7959
   50MOL0     C 6785  13.350   9.709   4.893  0.3136  0.3436 -0.3116
   50MOL0     O 6786  13.437   9.679   5.012  0.6622  0.0419  0.6349
   50MOL0     C 6787  13.553   9.612   4.982  0.6259  0.1062 -0.0062
   50MOL0     C 6788  13.598   9.549   4.864  0.2943  0.7690 -0.5361
   50MOL0     C 6789  13.716   9.474   4.858 -0.4819  0.2376  1.0093
   50MOL0     C 6790  13.735   9.404   4.739 -0.5857 -0.8011  0.0084
   50MOL0     C 6791  13.810   9.479   4.961 -0.2310  0.0115  0.1758
   50MOL0     C 6792  13.948   9.417   4.960 -0.4982  0.4433 -0.2002
   50MOL0     O 6793  14.008   9.414   5.080  0.8350  0.1596  0.3698
   50MOL0     C 6794  14.133   9.357   5.092  0.1262  1.0574  0.2522
   50MOL0     C 6795  14.151   9.230   5.145  0.2451  0.1810 -0.6704
   50MOL0     C 6796  14.283   9.180   5.159 -0.0026 -0.1578 -0.2965
   50MOL0     C 6797  14.393   9.251   5.120  0.1026 -0.2136 -0.0726
   50MOL0     O 6798  14.528   9.213   5.130 -0.5001  0.2641  0.3501
   50MOL0     C 6799  14.566   9.135   5.246 -0.2924  0.1608  0.6318
   50MOL0     C 6800  14.716   9.132   5.279 -0.0164  0.7649 -0.1839
   50MOL0     C 6801  14.777   9.270   5.298  0.5204  0.0508 -0.2275
   50MOL0     C 6802  14.927   9.264   5.332 -0.0021 -0.2978  0.1505
   50MOL0     C 6803  14.967   9.408   5.346  0.3468  0.0655  0.1145
   50MOL0     C 6804  15.109   9.415   5.402 -0.1850  0.1523 -0.1307
   50MOL0     C 6805  15.134   9.569   5.419  0.0612 -0.2485 -0.6089
   50MOL0     C 6806  15.269   9.592   5.482  0.1157 -0.4370  0.7575
   50MOL0    Cl 6807  15.282   9.552   5.655  0.0431  0.1702  0.0994
   50MOL0     C 6808  14.373   9.377   5.064 -0.7408  0.8547 -0.6210
   50MOL0     C 6809  14.247   9.430   5.050 -0.2959 -0.3856 -0.1687
   50MOL0     O 6810  13.995   9.383   4.856 -0.1078  0.2232 -0.0142
   50MOL0     C 6811  13.767   9.550   5.079  0.7154 -0.1330  0.4169
   50MOL0     C 6812  13.636   9.605   5.095  0.0600 -0.0373  0.1190
   50MOL0     N 6813  12.988   9.356   4.723 -0.5467 -0.6557 -0.4222
   50MOL0     N 6814  12.953   9.402   4.612  0.2272 -0.2878  0.8787
   50MOL0     C 6815  11.824   9.905   4.278  0.0702 -0.2888 -0.7141
   50MOL0     C 6816  11.686   9.892   4.309  0.0282 -0.0135  0.2251
   50MOL0     C 6817  11.271   9.794   4.414  0.7246  1.1399  0.2539
   50MOL0     C 6818  11.251   9.779   4.554 -0.7956  0.9651 -0.8774
   50MOL0     C 6819  11.123   9.764   4.607 -0.2051  0.2839 -0.5345
   50MOL0     C 6820  11.010   9.768   4.527 -0.4398  0.7278  0.7231
   50MOL0     O 6821  10.871   9.766   4.562  0.4326  0.0492  0.0709
   50MOL0     C 6822  10.847   9.752   4.702  0.4937 -0.1434 -0.3057
   50MOL0     C 6823  10.705   9.780   4.733  1.2378 -0.7792  0.1105
   50MOL0     C 6824  10.669   9.925   4.717  1.6297  0.0741  0.6340
   50MOL0     C 6825  10.514   9.955   4.726 -0.4055 -0.2767  0.3103
   50MOL0     C 6826  10.454   9.932   4.860 -0.1776 -0.4832 -0.8097
   50MOL0     C 6827  10.408   9.897   4.968 -0.5106 -0.1870 -0.3438
   50MOL0     C 6828  11.025   9.779   4.391  1.2075  0.2192 -0.2241
   50MOL0     C 6829  11.156   9.792   4.330  0.2315  0.6062  0.0617
   50MOL0     C 6830  11.154   9.812   4.178 -0.6152 -0.0938  0.5248
   50MOL0     H 6831  11.693   9.617   4.519  0.9616  1.6049  4.5375
   50MOL0     H 6832  11.935   9.633   4.446  0.4251 -1.3906 -1.8945
   50MOL0     H 6833  12.122  10.020   4.283  0.6043 -0.3804 -0.3819
   50MOL0     H 6834  12.062   9.914   4.150 -0.2899 -2.1727 -0.4097
   50MOL0     H 6835  12.261   9.796   4.150 -0.5350 -2.3005  2.1829
   50MOL0     H 6836  12.309   9.975   4.167 -0.0695  0.8606  2.4637
   50MOL0     H 6837  12.341   9.956   4.406  0.7752 -0.1129 -0.2407
   50MOL0     H 6838  12.308   9.783   4.400 -0.0952 -2.0873 -0.3043
   50MOL0     H 6839  12.498   9.770   4.217 -0.5817  1.2420 -1.2786
   50MOL0     H 6840  12.532   9.933   4.276  1.6540 -0.8056  0.0811
   50MOL0     H 6841  12.496   9.693   4.473  2.5938 -0.7775  1.5666
   50MOL0     H 6842  12.545   9.862   4.512  0.3346  2.0442 -0.9966
   50MOL0     H 6843  12.693   9.668   4.325  2.0211 -0.7628  0.6934
   50MOL0     H 6844  12.751   9.825   4.385 -0.1237 -1.5523 -3.2057
   50MOL0     H 6845  12.690   9.602   4.575 -0.4510 -0.6639  1.6353
   50MOL0     H 6846  12.764   9.764   4.607 -1.3843  0.4926  0.3668
   50MOL0     H 6847  12.879   9.554   4.412  0.0609  0.0529 -0.3874
   50MOL0     H 6848  12.965   9.693   4.490 -0.7895 -0.3558  0.3224
   50MOL0     H 6849  12.944   9.681   4.771 -4.9402 -1.3005  1.9703
   50MOL0     H 6850  13.089   9.382   4.990 -1.4802  0.8078  1.9362
   50MOL0     H 6851  12.954   9.488   5.007  0.6122  1.0351  0.8822
   50MOL0     H 6852  13.080   9.680   4.951  0.6597  0.9070 -0.4807
   50MOL0     H 6853  13.173   9.595   5.070 -0.1863  0.4976  0.0347
   50MOL0     H 6854  13.314   9.503   4.859 -1.6569 -0.7378  0.5115
   50MOL0     H 6855  13.205   9.601   4.765 -1.6375 -0.3205  0.1462
   50MOL0     H 6856  13.419   9.732   4.812  2.2196  0.3535  1.2265
   50MOL0     H 6857  13.284   9.796   4.901  0.1803  0.1192  1.6335
   50MOL0     H 6858  13.531   9.535   4.779  2.3144 -0.3583 -2.0390
   50MOL0     H 6859  13.641   9.396   4.683 -1.0483  0.3193  0.5941
   50MOL0     H 6860  13.761   9.302   4.766  0.7285  0.1430  2.6819
   50MOL0     H 6861  13.810   9.449   4.673  0.4183 -2.9222 -0.3733
   50MOL0     H 6862  14.063   9.170   5.164  1.4343 -1.2563  0.5737
   50MOL0     H 6863  14.301   9.081   5.198  1.0367 -1.0204 -2.7549
   50MOL0     H 6864  14.504   9.163   5.331 -0.4613  3.0993 -0.3543
   50MOL0     H 6865  14.531   9.033   5.226  0.4376 -0.0285  0.2586
   50MOL0     H 6866  14.729   9.068   5.367 -1.8027  3.0640  1.9285
   50MOL0     H 6867  14.760   9.075   5.197  2.0303  1.2101  0.5475
   50MOL0     H 6868  14.715   9.325   5.369  0.0623 -0.9034  0.1184
   50MOL0     H 6869  14.765   9.332   5.208  1.5000  1.4312  0.5708
   50MOL0     H 6870  14.980   9.213   5.251  1.3090  1.1032  0.0731
   50MOL0     H 6871  14.949   9.211   5.426 -1.6895 -1.2940  0.0087
   50MOL0     H 6872  14.956   9.459   5.250  0.6476  1.2372  0.6943
   50MOL0     H 6873  14.906   9.453   5.425  0.1293  1.1320 -0.6416
   50MOL0     H 6874  15.175   9.370   5.327  0.1516 -0.2338  0.3949
   50MOL0     H 6875  15.115   9.367   5.500  1.8594  0.4189 -0.0807
   50MOL0     H 6876  15.061   9.615   5.485 -3.2905 -1.6210 -3.0459
   50MOL0     H 6877  15.127   9.622   5.324 -2.8904  0.6113  0.0035
   50MOL0     H 6878  15.289   9.698   5.463 -0.8063 -0.0421  1.8774
   50MOL0     H 6879  15.336   9.535   5.417 -2.4205  0.3428 -2.8719
   50MOL0     H 6880  14.459   9.436   5.036 -0.8077  0.2746 -2.0995
   50MOL0     H 6881  14.229   9.528   5.007  2.5527 -1.0394 -3.2468
   50MOL0     H 6882  13.825   9.555   5.170  1.0677  1.3680  0.1348
   50MOL0     H 6883  13.605   9.647   5.189  2.1197  1.5057  0.1845
   50MOL0     H 6884  11.858   9.987   4.216 -0.7937  0.9434  0.3837
   50MOL0     H 6885  11.615   9.967   4.276 -1.4944 -1.7978 -0.7483
   50MOL0     H 6886  11.334   9.775   4.623 -0.6655 -0.8976 -1.0746
   50MOL0     H 6887  11.112   9.736   4.711 -1.2778  1.7798 -0.2215
   50MOL0     H 6888  10.866   9.651   4.740 -0.0049 -0.0643  0.1686
   50MOL0     H 6889  10.909   9.822   4.759 -0.4968  0.3025  0.2498
   50MOL0     H 6890  10.681   9.760   4.838  3.3240  0.4654  0.8724
   50MOL0     H 6891  10.638   9.718   4.672 -2.1077  1.6917  0.9918
   50MOL0     H 6892  10.734   9.992   4.773  1.6151  1.8087 -1.2905
   50MOL0     H 6893  10.694   9.949   4.613 -0.4984  0.2936  0.1142
   50MOL0     H 6894  10.467   9.876   4.667  0.0112 -1.5349  1.6140
   50MOL0     H 6895  10.494  10.056   4.688  0.6560 -0.9239 -2.1823
   50MOL0     H 6896  10.383   9.871   5.069 -1.9967  0.5091 -0.4912
   50MOL0     H 6897  10.939   9.801   4.329 -1.0732 -1.0949  2.2680
   50MOL0     H 6898  11.215   9.894   4.139  0.1233  0.3942  2.5981
   50MOL0     H 6899  11.197   9.716   4.146 -4.0988 -1.3386 -0.8906
   50MOL0     H 6900  11.053   9.827   4.139 -0.6976  0.1772  0.8439
   51MOL0     O 6901   4.811   1.507  11.182  0.6009  0.3664  0.5315
   51MOL0     C 6902   4.822   1.551  11.293  0.0068  0.0912  0.3785
   51MOL0     O 6903   4.938   1.599  11.338  0.1395  0.6620 -0.3944
   51MOL0     C 6904   5.062   1.573  11.290  0.5518  0.0295 -0.0912
   51MOL0     C 6905   5.165   1.630  11.365  0.3143  0.6191 -0.2152
   51MOL0     C 6906   5.298   1.618  11.327 -0.3964 -0.2872  0.0654
   51MOL0     C 6907   5.332   1.549  11.218  0.2053 -0.4610  0.3567
   51MOL0     O 6908   5.459   1.572  11.170  0.4093 -0.0240 -0.7282
   51MOL0     C 6909   5.514   1.478  11.070  0.4464 -0.2154  0.3218
   51MOL0     C 6910   5.666   1.511  11.051  0.4258  0.5287  0.1408
   51MOL0     C 6911   5.756   1.454  11.160  0.4741 -0.5173 -1.1948
   51MOL0     C 6912   5.897   1.491  11.130 -0.6775 -0.4352 -0.0665
   51MOL0     C 6913   5.993   1.432  11.234 -0.3270  0.9990 -0.4602
   51MOL0     C 6914   6.130   1.417  11.174  0.0839 -0.7158 -0.9961
   51MOL0     C 6915   6.189   1.528  11.084  0.1938  0.7226  0.7616
   51MOL0     C 6916   6.331   1.507  11.028 -0.9911 -0.7859  0.2585
   51MOL0     N 6917   6.448   1.513  11.127  0.1421  0.5317 -0.1236
   51MOL0     C 6918   6.470   1.621  11.214 -0.7998  0.1401 -0.4882
   51MOL0     C 6919   6.585   1.586  11.282 -0.6416 -0.4526  0.7358
   51MOL0     C 6920   6.628   1.647  11.403  0.2914 -1.7811 -0.5051
   51MOL0     C 6921   6.767   1.716  11.397 -0.6841 -0.5873  0.5771
   51MOL0     C 6922   6.805   1.811  11.512 -0.0369  0.2970 -0.6652
   51MOL0     C 6923   6.938   1.890  11.485  0.0822  0.3136 -0.1849
   51MOL0     O 6924   6.987   1.952  11.602 -0.4033 -0.4446  0.5710
   51MOL0     C 6925   7.108   2.023  11.614 -1.4001 -0.6005 -0.2987
   51MOL0     C 6926   7.133   2.089  11.735 -0.4041 -0.4231  0.1528
   51MOL0     C 6927   7.250   2.160  11.755 -0.7483 -0.3173 -0.4984
   51MOL0     C 6928   7.253   2.233  11.886 -0.1354 -0.2831  0.4173
   51MOL0     C 6929   7.351   2.166  11.650 -0.0888  0.1441 -0.9399
   51MOL0     C 6930   7.468   2.243  11.657 -0.1652 -0.6171  0.5280
   51MOL0     O 6931   7.489   2.329  11.546 -0.6266 -0.3041  0.1536
   51MOL0     C 6932   7.620   2.371  11.521 -0.3020  0.7639 -0.2378
   51MOL0     C 6933   7.724   2.269  11.502 -0.2036 -0.9936 -0.0951
   51MOL0     C 6934   7.857   2.312  11.481  1.5615 -0.5851 -0.1608
   51MOL0     C 6935   7.887   2.450  11.472  0.7948  0.5714  0.1782
   51MOL0     O 6936   8.022   2.470  11.454  0.0165 -0.1233 -0.6189
   51MOL0     C 6937   8.053   2.603  11.407  0.6681 -0.4593 -0.4059
   51MOL0     C 6938   8.186   2.595  11.343  0.3222 -0.1594 -0.3380
   51MOL0     C 6939   8.240   2.743  11.304 -0.2233  0.4585 -0.3331
   51MOL0     C 6940   8.364   2.711  11.197 -0.1101 -0.6404 -0.8571
   51MOL0     C 6941   8.445   2.843  11.200  0.3277  0.1268  0.6757
   51MOL0     C 6942   8.530   2.889  11.318  0.7266 -0.2889 -0.4450
   51MOL0     C 6943   8.643   2.999  11.284  0.7267  0.4223 -0.6701
   51MOL0     C 6944   8.772   2.923  11.231  1.0304  0.0706  0.6738
   51MOL0    Cl 6945   8.848   2.830  11.366  0.3684 -0.0532 -0.2300
   51MOL0     C 6946   7.785   2.543  11.472 -0.5908  1.2287  0.5011
   51MOL0     C 6947   7.657   2.501  11.498  0.0314 -0.6689  0.1759
   51MOL0     O 6948   7.538   2.234  11.759  0.4723 -1.0646 -0.0720
   51MOL0     C 6949   7.326   2.095  11.536  0.7443 -0.5283  0.6949
   51MOL0     C 6950   7.209   2.024  11.510  0.1206  0.4693 -0.6016
   51MOL0     N 6951   6.628   1.459  11.225 -0.5209  0.8503  0.3588
   51MOL0     N 6952   6.546   1.422  11.146  0.1105  0.9180 -0.0656
   51MOL0     C 6953   5.231   1.486  11.147  1.0982  0.5758 -0.3866
   51MOL0     C 6954   5.093   1.493  11.177  0.3351 -0.5441 -0.3892
   51MOL0     C 6955   4.698   1.572  11.373 -0.7148  0.9497  0.8750
   51MOL0     C 6956   4.720   1.589  11.510  0.4842  0.4606 -0.2808
   51MOL0     C 6957   4.616   1.608  11.602  0.7056  0.2212  0.5505
   51MOL0     C 6958   4.482   1.603  11.559 -0.0806 -0.5732  0.1352
   51MOL0     O 6959   4.377   1.611  11.649 -1.0207 -0.7044  0.2820
   51MOL0     C 6960   4.394   1.649  11.784  0.6822  0.1414 -0.6273
   51MOL0     C 6961   4.271   1.718  11.838  0.8991 -0.4042  0.2376
   51MOL0     C 6962   4.223   1.821  11.732 -0.2639  0.2355 -0.1293
   51MOL0     C 6963   4.322   1.919  11.668 -0.1301  0.4211  0.3640
   51MOL0     C 6964   4.332   2.037  11.750  1.7648  0.0836  0.1268
   51MOL0     C 6965   4.328   2.143  11.813 -0.1105 -0.3321  1.2561
   51MOL0     C 6966   4.457   1.591  11.421  0.7722  0.2534 -0.3924
   51MOL0     C 6967   4.557   1.576  11.330  0.1615 -0.0850 -0.1843
   51MOL0     C 6968   4.511   1.563  11.188  0.8040 -0.0700  0.0532
   51MOL0     H 6969   5.134   1.686  11.454 -1.1542  0.8353 -0.8350
   51MOL0     H 6970   5.381   1.661  11.382  0.4842 -0.7746 -0.8456
   51MOL0     H 6971   5.467   1.499  10.973 -1.8403 -1.4121  1.1016
   51MOL0     H 6972   5.510   1.370  11.087  1.0052 -0.1472  0.9453
   51MOL0     H 6973   5.695   1.469  10.954  2.6892  2.2585 -0.0181
   51MOL0     H 6974   5.665   1.620  11.041 -2.8398  0.8514  2.3388
   51MOL0     H 6975   5.726   1.503  11.254 -0.5435 -1.9470 -0.7416
   51MOL0     H 6976   5.744   1.345  11.165  0.5946 -0.4795  1.4060
   51MOL0     H 6977   5.928   1.454  11.031  0.8018 -0.7953  0.4985
   51MOL0     H 6978   5.917   1.599  11.129  0.3201 -0.6077 -0.5532
   51MOL0     H 6979   5.964   1.331  11.266 -0.0629  0.5547 -1.5929
   51MOL0     H 6980   5.999   1.494  11.324 -0.1907 -2.2729  1.9948
   51MOL0     H 6981   6.199   1.410  11.259 -0.0460  0.4658 -0.7822
   51MOL0     H 6982   6.123   1.324  11.118 -0.6438 -0.2748 -1.6579
   51MOL0     H 6983   6.191   1.620  11.144  1.7755  0.8791  0.4966
   51MOL0     H 6984   6.121   1.547  11.000  0.0226 -2.1900  0.1546
   51MOL0     H 6985   6.340   1.415  10.969 -1.0668  0.8372 -2.4910
   51MOL0     H 6986   6.346   1.587  10.955 -1.5438  1.1994  2.1982
   51MOL0     H 6987   6.413   1.710  11.237  1.2908  2.2284 -2.8035
   51MOL0     H 6988   6.625   1.584  11.492  1.2367 -1.5951 -0.3307
   51MOL0     H 6989   6.559   1.730  11.422 -0.5697 -3.1630  3.5208
   51MOL0     H 6990   6.838   1.634  11.388 -1.4818 -1.1253 -1.4726
   51MOL0     H 6991   6.776   1.777  11.306  1.5224  1.2113  1.8868
   51MOL0     H 6992   6.720   1.873  11.542  1.5015  0.8112  3.1637
   51MOL0     H 6993   6.831   1.742  11.593 -1.3862  1.0696  0.4711
   51MOL0     H 6994   7.009   1.811  11.458 -0.9925 -0.2357 -1.5584
   51MOL0     H 6995   6.928   1.956  11.398  0.9841 -2.0194 -2.1725
   51MOL0     H 6996   7.061   2.072  11.814 -1.8080  2.2963 -0.4058
   51MOL0     H 6997   7.217   2.170  11.967 -0.4013 -2.0936 -1.0558
   51MOL0     H 6998   7.211   2.334  11.878 -2.9290 -1.3550  0.5937
   51MOL0     H 6999   7.356   2.267  11.903  0.2704 -0.8016 -0.8544
   51MOL0     H 7000   7.689   2.166  11.501 -0.2005 -0.9932 -0.2917
   51MOL0     H 7001   7.923   2.228  11.461  0.6003 -2.4138  3.4424
   51MOL0     H 7002   7.974   2.634  11.338  0.0118 -2.4410 -0.6031
   51MOL0     H 7003   8.051   2.675  11.490  1.3894 -2.3580  1.3722
   51MOL0     H 7004   8.252   2.549  11.417 -2.1768  1.6507  3.3042
   51MOL0     H 7005   8.174   2.532  11.254  1.8862 -0.9512 -0.0339
   51MOL0     H 7006   8.285   2.794  11.389  0.5766  0.3888 -0.7083
   51MOL0     H 7007   8.158   2.799  11.260  1.5789  1.5568 -2.4654
   51MOL0     H 7008   8.322   2.687  11.099  0.0941 -2.6734 -0.4970
   51MOL0     H 7009   8.420   2.624  11.233 -2.1326 -1.6363  0.0870
   51MOL0     H 7010   8.518   2.850  11.119 -1.4945  0.9972 -0.9987
   51MOL0     H 7011   8.379   2.926  11.171  2.2028  0.9890 -1.3907
   51MOL0     H 7012   8.574   2.808  11.377  2.0080  1.9948  1.9073
   51MOL0     H 7013   8.461   2.941  11.384  2.2362  1.0996  0.0893
   51MOL0     H 7014   8.669   3.057  11.373 -0.8320  1.8587 -1.0993
   51MOL0     H 7015   8.615   3.076  11.211 -1.5764  0.2395 -0.0705
   51MOL0     H 7016   8.838   3.007  11.208 -0.6811  1.2673 -0.1079
   51MOL0     H 7017   8.754   2.862  11.142  3.6587 -0.6996  0.5700
   51MOL0     H 7018   7.802   2.650  11.463  2.1537  0.8695  0.5127
   51MOL0     H 7019   7.586   2.583  11.502  0.5671 -0.1823 -0.1717
   51MOL0     H 7020   7.395   2.095  11.452 -0.1917  1.3940 -0.1285
   51MOL0     H 7021   7.192   1.963  11.422  0.3469 -2.0394  1.0114
   51MOL0     H 7022   5.261   1.439  11.054  5.0993 -1.3766  1.6394
   51MOL0     H 7023   5.016   1.442  11.121 -0.2069 -1.3274  0.9978
   51MOL0     H 7024   4.823   1.584  11.545  0.3270 -0.9203  0.0698
   51MOL0     H 7025   4.640   1.622  11.706 -3.5994  0.7466  1.6635
   51MOL0     H 7026   4.409   1.558  11.843  0.4125  1.7927  2.1673
   51MOL0     H 7027   4.472   1.711  11.829  0.4250 -1.4269  2.2847
   51MOL0     H 7028   4.290   1.753  11.940 -0.1413  0.8063  0.0359
   51MOL0     H 7029   4.186   1.649  11.833 -0.5381  1.1451  1.9605
   51MOL0     H 7030   4.189   1.755  11.652  2.2634 -0.6870 -0.5543
   51MOL0     H 7031   4.139   1.879  11.770 -1.6805 -2.1922  0.6941
   51MOL0     H 7032   4.293   1.958  11.570 -0.5319  2.0570  1.0989
   51MOL0     H 7033   4.421   1.877  11.651  0.3770  1.9627 -0.7197
   51MOL0     H 7034   4.310   2.234  11.865  0.3630  0.3161  0.3123
   51MOL0     H 7035   4.353   1.592  11.390  0.3050 -0.2855  1.0753
   51MOL0     H 7036   4.413   1.606  11.167  1.2636  0.3961 -1.1937
   51MOL0     H 7037   4.588   1.614  11.129 -0.1239 -0.5640 -1.6402
   51MOL0     H 7038   4.528   1.457  11.164  3.8513  0.6804 -1.6647
   52MOL0     O 7039  10.333   2.568   4.082 -0.0986  0.2227  0.3871
   52MOL0     C 7040  10.211   2.579   4.056  0.2305 -0.1743 -0.7477
   52MOL0     O 7041  10.154   2.570   3.933 -0.5049  0.0944 -0.1266
   52MOL0     C 7042  10.242   2.542   3.830  0.4920  0.2992 -0.7048
   52MOL0     C 7043  10.235   2.630   3.727  0.9526 -1.0117  0.6736
   52MOL0     C 7044  10.323   2.622   3.615  0.4134 -0.2129  0.0824
   52MOL0     C 7045  10.415   2.518   3.600  0.8582  1.4633  0.8610
   52MOL0     O 7046  10.490   2.488   3.492  0.0707  0.9700 -0.1910
   52MOL0     C 7047  10.498   2.598   3.402 -0.0844  0.2849 -0.2538
   52MOL0     C 7048  10.597   2.578   3.301 -0.3953 -0.4258  0.4211
   52MOL0     C 7049  10.732   2.540   3.350  0.2110  0.2408  0.4756
   52MOL0     C 7050  10.818   2.517   3.229 -0.5409  0.3720  0.0336
   52MOL0     C 7051  10.960   2.479   3.265  0.0976  0.7695  0.4988
   52MOL0     C 7052  11.044   2.579   3.340 -0.0096 -0.4168  0.6279
   52MOL0     C 7053  11.072   2.720   3.265 -0.2382  0.1749  0.7757
   52MOL0     C 7054  11.140   2.720   3.125  0.0417  0.2193  0.4035
   52MOL0     N 7055  11.290   2.717   3.128 -0.3833 -0.5255 -0.2825
   52MOL0     C 7056  11.376   2.608   3.147  1.0912  0.6616  0.9176
   52MOL0     C 7057  11.502   2.661   3.137  0.6265  0.6062  0.6641
   52MOL0     C 7058  11.627   2.591   3.175  0.0429  0.2441 -0.4175
   52MOL0     C 7059  11.701   2.660   3.290  0.3314  0.3761  0.4858
   52MOL0     C 7060  11.816   2.581   3.358  0.0218  0.0636  1.5388
   52MOL0     C 7061  11.938   2.582   3.264  0.0352 -0.0657 -0.5448
   52MOL0     O 7062  12.057   2.569   3.344  0.5205 -0.0549  0.4665
   52MOL0     C 7063  12.180   2.569   3.279 -0.2756 -1.1785 -0.5981
   52MOL0     C 7064  12.281   2.514   3.362  0.1665 -0.0933 -0.2893
   52MOL0     C 7065  12.410   2.499   3.322 -0.1954 -0.2436 -0.2885
   52MOL0     C 7066  12.508   2.420   3.406 -0.1775 -0.8048 -0.7083
   52MOL0     C 7067  12.453   2.550   3.195  0.5682  0.3713 -0.5484
   52MOL0     C 7068  12.594   2.547   3.161  0.0718 -0.0553  1.3285
   52MOL0     O 7069  12.692   2.643   3.206  0.6681  0.1831  0.3723
   52MOL0     C 7070  12.829   2.617   3.228  0.5782  0.5753 -0.0239
   52MOL0     C 7071  12.898   2.496   3.214 -0.4086 -0.1858 -0.2929
   52MOL0     C 7072  13.035   2.482   3.230 -0.5533  0.5752 -0.0964
   52MOL0     C 7073  13.120   2.599   3.247 -0.0148  0.5370 -1.1661
   52MOL0     O 7074  13.257   2.590   3.244  0.4918  0.0064 -0.1988
   52MOL0     C 7075  13.322   2.704   3.198 -0.0247 -0.3814 -0.5036
   52MOL0     C 7076  13.460   2.658   3.137 -0.5912 -0.5490 -0.4017
   52MOL0     C 7077  13.561   2.770   3.105 -1.0328 -0.3770 -0.3519
   52MOL0     C 7078  13.517   2.884   3.005 -0.7416 -0.1965 -0.2199
   52MOL0     C 7079  13.612   2.994   2.956  0.2910 -0.5167 -0.7917
   52MOL0     C 7080  13.742   2.933   2.907 -0.0469 -0.5021  0.0325
   52MOL0     C 7081  13.838   3.037   2.864 -0.6664 -0.1223 -0.2337
   52MOL0     C 7082  13.980   3.004   2.889  0.0287 -1.3812 -0.0159
   52MOL0    Cl 7083  14.009   3.003   3.060 -0.1675  0.1167  0.2364
   52MOL0     C 7084  13.050   2.713   3.271  0.2310 -0.1199 -0.6769
   52MOL0     C 7085  12.907   2.724   3.260 -0.0605 -0.9117  0.9225
   52MOL0     O 7086  12.627   2.453   3.091 -0.0044  0.0090  0.2666
   52MOL0     C 7087  12.361   2.621   3.114  0.1454  0.1714 -0.3366
   52MOL0     C 7088  12.223   2.629   3.155  0.2496 -0.6824  0.0021
   52MOL0     N 7089  11.490   2.791   3.099  0.9394  0.0531 -1.1553
   52MOL0     N 7090  11.366   2.827   3.100  0.2883  0.3503  0.2451
   52MOL0     C 7091  10.411   2.428   3.708 -0.2071  0.1098  0.0054
   52MOL0     C 7092  10.329   2.434   3.822 -0.3323 -0.1919 -0.4289
   52MOL0     C 7093  10.129   2.612   4.186  0.5963 -0.8002  0.1908
   52MOL0     C 7094  10.181   2.584   4.314 -0.2759  0.9185 -0.5108
   52MOL0     C 7095  10.109   2.605   4.434  0.8779 -1.0570 -0.6794
   52MOL0     C 7096   9.978   2.665   4.436  0.6445 -0.3453  0.0443
   52MOL0     O 7097   9.899   2.692   4.557 -0.7563  0.7440 -0.0636
   52MOL0     C 7098   9.956   2.716   4.687  0.3502 -0.1426 -0.1145
   52MOL0     C 7099   9.895   2.618   4.795  0.4477 -0.1375 -0.0987
   52MOL0     C 7100   9.883   2.466   4.757  0.6380  0.2558  0.6019
   52MOL0     C 7101   9.883   2.374   4.883  0.3650  0.4397 -0.0038
   52MOL0     C 7102   9.799   2.420   4.991 -0.2514  0.3103  0.3939
   52MOL0     C 7103   9.723   2.463   5.075  0.3918 -1.0083  0.0480
   52MOL0     C 7104   9.920   2.682   4.309  0.3094 -0.3799 -0.1878
   52MOL0     C 7105   9.997   2.657   4.192  0.6450  0.8095  0.5712
   52MOL0     C 7106   9.912   2.660   4.062  0.8831 -0.7047  0.8609
   52MOL0     H 7107  10.164   2.712   3.721 -0.8743 -2.6089 -0.5415
   52MOL0     H 7108  10.303   2.694   3.536  0.1270  0.8104  1.0600
   52MOL0     H 7109  10.517   2.695   3.449 -2.5683 -0.0318  1.6625
   52MOL0     H 7110  10.405   2.610   3.345  0.4400 -1.0212 -1.4409
   52MOL0     H 7111  10.550   2.498   3.242  0.0138 -1.5295  1.5544
   52MOL0     H 7112  10.599   2.675   3.249 -1.8803 -0.0156  1.0847
   52MOL0     H 7113  10.775   2.605   3.427 -0.6393  1.4209 -0.0174
   52MOL0     H 7114  10.719   2.440   3.391 -0.1233  0.6009  1.2620
   52MOL0     H 7115  10.782   2.429   3.175  1.5436 -0.9967  0.7665
   52MOL0     H 7116  10.808   2.611   3.174 -4.0239  1.7250  2.6538
   52MOL0     H 7117  11.012   2.462   3.170 -1.5726  1.0537 -0.5193
   52MOL0     H 7118  10.958   2.382   3.316  0.6880 -0.3159 -1.4286
   52MOL0     H 7119  11.005   2.603   3.440 -2.3200 -1.3052 -0.0067
   52MOL0     H 7120  11.142   2.531   3.352  0.8486  0.8669 -0.9318
   52MOL0     H 7121  11.128   2.786   3.332 -1.1261  0.4798  1.2232
   52MOL0     H 7122  10.976   2.770   3.249  0.1480  0.3191 -1.5085
   52MOL0     H 7123  11.109   2.638   3.060 -1.6051 -0.8213  2.3822
   52MOL0     H 7124  11.114   2.813   3.075 -1.4844 -1.0833 -1.3526
   52MOL0     H 7125  11.346   2.507   3.172 -0.7944  0.9437 -0.0689
   52MOL0     H 7126  11.698   2.584   3.092 -1.1428 -0.1802 -1.4059
   52MOL0     H 7127  11.617   2.483   3.187  0.6941  0.1827 -0.3442
   52MOL0     H 7128  11.741   2.760   3.266 -0.6149  1.0410  1.6259
   52MOL0     H 7129  11.631   2.663   3.373  1.2749 -0.7601  1.3500
   52MOL0     H 7130  11.834   2.629   3.454 -0.3082  1.2413  1.0228
   52MOL0     H 7131  11.794   2.478   3.387  1.0460 -0.0382  2.0057
   52MOL0     H 7132  11.938   2.501   3.191 -0.9159 -0.7091  0.1577
   52MOL0     H 7133  11.950   2.680   3.216  3.2855 -0.3597 -0.5428
   52MOL0     H 7134  12.255   2.479   3.462 -1.7463  1.9987  0.0182
   52MOL0     H 7135  12.454   2.328   3.427 -1.0067 -1.3805 -4.5642
   52MOL0     H 7136  12.537   2.471   3.498 -0.1532 -0.7090 -0.7687
   52MOL0     H 7137  12.595   2.381   3.351 -0.6216 -0.6088 -1.5606
   52MOL0     H 7138  12.841   2.404   3.219  1.5628 -1.5095 -1.1062
   52MOL0     H 7139  13.083   2.385   3.237  0.2048  0.8312 -1.3717
   52MOL0     H 7140  13.265   2.753   3.118  1.0686 -0.6232 -1.4439
   52MOL0     H 7141  13.336   2.771   3.283  0.2468 -1.5170  0.3801
   52MOL0     H 7142  13.513   2.585   3.199 -1.7165 -2.7728 -1.9020
   52MOL0     H 7143  13.448   2.611   3.039  0.3032  0.7198 -1.1521
   52MOL0     H 7144  13.654   2.715   3.083  0.1720  1.4690 -0.1332
   52MOL0     H 7145  13.580   2.829   3.195  1.1233  0.3124 -1.1911
   52MOL0     H 7146  13.427   2.936   3.040 -0.7778  2.3990 -3.6680
   52MOL0     H 7147  13.496   2.823   2.917  1.2787 -1.6986  0.2677
   52MOL0     H 7148  13.570   3.057   2.878 -1.6856  0.4610  0.9663
   52MOL0     H 7149  13.640   3.058   3.041 -2.8100 -0.1421  0.0702
   52MOL0     H 7150  13.731   2.858   2.829 -2.0837  0.1991 -0.4061
   52MOL0     H 7151  13.788   2.886   2.995 -2.5272  1.5737  2.6126
   52MOL0     H 7152  13.820   3.134   2.911 -2.1322 -1.7753  2.8983
   52MOL0     H 7153  13.831   3.055   2.756 -3.5782 -2.2649 -0.5321
   52MOL0     H 7154  14.032   3.093   2.854 -2.9834  1.9294  3.1462
   52MOL0     H 7155  13.992   2.907   2.840 -0.5203 -0.9582 -1.0211
   52MOL0     H 7156  13.088   2.811   3.296 -3.8495  2.1800 -2.4952
   52MOL0     H 7157  12.854   2.817   3.272  1.4179 -0.1773  2.1160
   52MOL0     H 7158  12.400   2.669   3.025  2.0086  3.0760  1.8237
   52MOL0     H 7159  12.146   2.681   3.099  0.9654  1.0087  0.5484
   52MOL0     H 7160  10.489   2.352   3.706 -2.0482 -1.9515  1.3697
   52MOL0     H 7161  10.351   2.370   3.907  2.9162  0.2939 -0.7757
   52MOL0     H 7162  10.271   2.524   4.324 -2.5438 -2.2953  2.9035
   52MOL0     H 7163  10.155   2.588   4.531  1.7693  0.5227 -0.7889
   52MOL0     H 7164  10.064   2.703   4.685  0.1653 -1.9067 -1.6809
   52MOL0     H 7165   9.932   2.821   4.708 -0.2728  0.2368 -2.4824
   52MOL0     H 7166   9.793   2.655   4.810  0.5569  0.8036 -1.5490
   52MOL0     H 7167   9.957   2.615   4.886  0.1307 -0.1298  0.1208
   52MOL0     H 7168   9.789   2.469   4.700  0.6853 -0.0129  0.5114
   52MOL0     H 7169   9.961   2.436   4.687 -0.2695  0.1804 -0.3999
   52MOL0     H 7170   9.977   2.349   4.933  0.6759  0.6609 -0.4611
   52MOL0     H 7171   9.842   2.278   4.852 -1.3057  1.0778  0.1031
   52MOL0     H 7172   9.643   2.480   5.144 -0.1773 -3.2540  0.0182
   52MOL0     H 7173   9.819   2.720   4.310  0.3884 -0.1381  1.3802
   52MOL0     H 7174   9.915   2.566   4.007  2.4805  0.1815 -0.6440
   52MOL0     H 7175   9.805   2.679   4.082  1.0556 -0.6727  1.8170
   52MOL0     H 7176   9.938   2.746   4.000  0.1263  0.3184  1.8995
   53MOL0     O 7177   1.357   3.945  10.642  0.3032 -0.2013  0.2496
   53MOL0     C 7178   1.237   3.928  10.677  0.1526 -1.0672 -0.9790
   53MOL0     O 7179   1.173   3.809  10.663  0.3806  0.4513  0.0144
   53MOL0     C 7180   1.237   3.697  10.614 -0.5271  0.5732  1.3636
   53MOL0     C 7181   1.271   3.681  10.482 -0.2119  0.5989 -0.0370
   53MOL0     C 7182   1.332   3.561  10.441 -0.6730 -0.3058  0.4455
   53MOL0     C 7183   1.368   3.463  10.531 -0.3195  0.3546 -0.4430
   53MOL0     O 7184   1.436   3.362  10.473 -0.2400 -0.2441 -0.2696
   53MOL0     C 7185   1.484   3.252  10.549  0.1765  0.3762 -0.3109
   53MOL0     C 7186   1.556   3.156  10.460 -0.9567 -0.2912  0.1042
   53MOL0     C 7187   1.697   3.201  10.418 -0.5280  0.5980 -0.2859
   53MOL0     C 7188   1.771   3.100  10.319  0.2328  0.1244  0.8625
   53MOL0     C 7189   1.923   3.119  10.299 -0.0179 -0.2980  0.5267
   53MOL0     C 7190   1.969   3.027  10.187 -0.2332  0.4421  0.1402
   53MOL0     C 7191   2.115   3.057  10.155  0.1935  0.2980 -0.0424
   53MOL0     C 7192   2.166   2.949  10.063  1.3485  0.4215  1.0196
   53MOL0     N 7193   2.294   2.982   9.998  0.3625  0.2369  0.0774
   53MOL0     C 7194   2.418   2.994  10.061  0.4081 -0.3231 -0.2430
   53MOL0     C 7195   2.503   3.045   9.963 -0.1198 -0.2550 -0.2572
   53MOL0     C 7196   2.646   3.086   9.979  0.3918  0.2159  0.0637
   53MOL0     C 7197   2.723   3.061   9.849  0.6644 -0.0707  0.4461
   53MOL0     C 7198   2.872   3.063   9.873 -0.0843 -0.0544  0.2275
   53MOL0     C 7199   2.957   3.035   9.753  0.5037 -0.2557  0.8947
   53MOL0     O 7200   3.091   3.030   9.800  0.2612  0.1643 -0.0940
   53MOL0     C 7201   3.199   3.086   9.736 -0.3781 -0.2115 -0.1165
   53MOL0     C 7202   3.182   3.189   9.635  0.5454 -0.0889  0.1381
   53MOL0     C 7203   3.302   3.239   9.580  0.3155  0.2578  0.0073
   53MOL0     C 7204   3.304   3.353   9.483 -0.3539  0.2497 -1.0731
   53MOL0     C 7205   3.427   3.182   9.622 -0.3610 -0.1994  0.1012
   53MOL0     C 7206   3.561   3.210   9.557 -0.8799  0.6085 -0.3869
   53MOL0     O 7207   3.665   3.239   9.641 -0.0266 -0.0071  0.5550
   53MOL0     C 7208   3.795   3.263   9.599  0.7658 -0.8511  0.1258
   53MOL0     C 7209   3.847   3.295   9.471 -0.9266  0.8362  0.3303
   53MOL0     C 7210   3.990   3.303   9.458 -0.4055 -0.9947 -0.2168
   53MOL0     C 7211   4.078   3.297   9.565 -0.1923  0.4176  1.2735
   53MOL0     O 7212   4.216   3.321   9.571 -0.2240  0.3567  0.2415
   53MOL0     C 7213   4.309   3.318   9.459 -0.4745  0.3379  0.2447
   53MOL0     C 7214   4.437   3.395   9.494 -0.1554  0.4609  0.5969
   53MOL0     C 7215   4.537   3.405   9.374  0.3392  0.3325  0.4764
   53MOL0     C 7216   4.670   3.482   9.424  0.2790 -0.0308  0.0543
   53MOL0     C 7217   4.758   3.528   9.300 -0.7054  0.3578 -0.5082
   53MOL0     C 7218   4.902   3.571   9.331 -0.3771 -0.3332 -0.3707
   53MOL0     C 7219   4.916   3.713   9.388 -0.7275  0.4305 -0.0718
   53MOL0     C 7220   4.999   3.722   9.517 -0.5340  0.2179 -0.3473
   53MOL0    Cl 7221   5.049   3.888   9.537  0.1911  0.5671 -0.3225
   53MOL0     C 7222   4.012   3.286   9.694 -1.0396 -0.2125  0.4179
   53MOL0     C 7223   3.883   3.261   9.712  0.2491 -0.0697  0.4117
   53MOL0     O 7224   3.565   3.202   9.432  0.1730 -0.1658  0.4726
   53MOL0     C 7225   3.426   3.094   9.726  0.2006  0.3171 -0.3834
   53MOL0     C 7226   3.315   3.049   9.788  0.6906 -0.2619  0.4269
   53MOL0     N 7227   2.431   3.055   9.846  0.5622  0.5093 -0.0812
   53MOL0     N 7228   2.312   3.018   9.869 -0.1973 -0.0699  0.5923
   53MOL0     C 7229   1.343   3.483  10.669 -0.4901  0.2103  0.5154
   53MOL0     C 7230   1.265   3.600  10.711  0.2518 -0.2154  1.3050
   53MOL0     C 7231   1.156   4.045  10.734  0.4282  0.1750 -0.2570
   53MOL0     C 7232   1.163   4.171  10.673  0.5593 -0.5667  0.0794
   53MOL0     C 7233   1.076   4.275  10.707 -0.6898  0.2103 -0.2566
   53MOL0     C 7234   0.987   4.261  10.817 -0.1614 -1.0671  0.4474
   53MOL0     O 7235   0.901   4.362  10.867  0.0091  0.2692 -0.5782
   53MOL0     C 7236   0.919   4.496  10.823 -0.1613  0.6708 -0.2813
   53MOL0     C 7237   0.826   4.587  10.899  0.3406 -0.3983 -0.1466
   53MOL0     C 7238   0.687   4.583  10.832 -0.1066  0.5490  0.1930
   53MOL0     C 7239   0.596   4.457  10.842 -0.4937 -0.3833  0.2402
   53MOL0     C 7240   0.619   4.382  10.967  0.5420 -0.7563  0.2321
   53MOL0     C 7241   0.626   4.318  11.068 -0.5915 -0.2227  0.6726
   53MOL0     C 7242   0.977   4.137  10.878  0.5433 -0.5072  0.0731
   53MOL0     C 7243   1.060   4.027  10.846  0.6978  0.1305 -0.5089
   53MOL0     C 7244   1.033   3.885  10.901 -0.0857  0.1726  0.7010
   53MOL0     H 7245   1.263   3.751  10.399 -0.5352 -1.1991 -1.5877
   53MOL0     H 7246   1.372   3.565  10.340  1.2631  1.2057  1.2162
   53MOL0     H 7247   1.402   3.186  10.579  0.4282 -0.7881 -2.0799
   53MOL0     H 7248   1.550   3.292  10.626  2.1576 -1.6392 -0.8781
   53MOL0     H 7249   1.567   3.068  10.524 -1.0302 -0.8943 -0.7018
   53MOL0     H 7250   1.491   3.136  10.375 -0.4555  2.0789 -0.8915
   53MOL0     H 7251   1.694   3.303  10.378  0.1890 -0.1352 -2.3382
   53MOL0     H 7252   1.756   3.209  10.510  1.1721  1.4616 -1.4191
   53MOL0     H 7253   1.767   3.001  10.365  2.2066 -0.3590  0.0746
   53MOL0     H 7254   1.723   3.096  10.221  1.5436 -1.0294  0.2354
   53MOL0     H 7255   1.967   3.092  10.395  2.4960  0.1734 -0.4217
   53MOL0     H 7256   1.939   3.223  10.271 -0.5609 -0.0617  1.0602
   53MOL0     H 7257   1.956   2.921  10.214 -0.7663  0.3044 -0.6401
   53MOL0     H 7258   1.917   3.041  10.092  3.1690 -0.1697 -1.9739
   53MOL0     H 7259   2.167   3.054  10.252 -3.7021 -0.6423  2.2247
   53MOL0     H 7260   2.119   3.157  10.111 -1.7539  2.2411  3.6536
   53MOL0     H 7261   2.182   2.854  10.115  0.6564 -0.3377 -0.1013
   53MOL0     H 7262   2.091   2.922   9.988 -0.2375 -1.1884  3.0699
   53MOL0     H 7263   2.425   2.959  10.163  1.8816 -1.9523 -0.8603
   53MOL0     H 7264   2.682   3.029  10.065 -1.5583 -0.2154  0.6325
   53MOL0     H 7265   2.657   3.187  10.019 -2.4220  0.9996 -0.9142
   53MOL0     H 7266   2.691   2.962   9.816  1.4176  0.1550 -1.0895
   53MOL0     H 7267   2.692   3.139   9.779  2.6355 -0.8470 -1.4139
   53MOL0     H 7268   2.906   3.157   9.918  4.9901 -1.5001 -0.0608
   53MOL0     H 7269   2.882   2.974   9.935 -0.7717  1.0057  1.9664
   53MOL0     H 7270   2.926   2.935   9.720 -3.4648  0.4445  1.9387
   53MOL0     H 7271   2.931   3.106   9.674  0.8316 -2.3571 -1.2123
   53MOL0     H 7272   3.088   3.222   9.592 -0.8163 -0.4631  2.6109
   53MOL0     H 7273   3.379   3.427   9.514  0.4350 -1.7283  2.1977
   53MOL0     H 7274   3.215   3.415   9.496  0.6886  1.1317  3.9775
   53MOL0     H 7275   3.325   3.328   9.378  1.6285 -0.7293 -0.5060
   53MOL0     H 7276   3.782   3.303   9.384  0.5781 -0.9196 -1.0451
   53MOL0     H 7277   4.034   3.327   9.362 -0.4052 -1.9559 -0.4690
   53MOL0     H 7278   4.348   3.218   9.439  2.3612  1.4829 -0.4494
   53MOL0     H 7279   4.268   3.351   9.363 -1.2916  0.3806  0.5955
   53MOL0     H 7280   4.410   3.497   9.523 -2.1157  0.1960 -0.1411
   53MOL0     H 7281   4.501   3.343   9.565  1.9521  2.3067  0.1606
   53MOL0     H 7282   4.494   3.459   9.290  1.6982  0.1722 -0.3585
   53MOL0     H 7283   4.560   3.309   9.328  1.8371  0.3544  1.1047
   53MOL0     H 7284   4.723   3.430   9.504  1.2105  0.9752  0.1128
   53MOL0     H 7285   4.627   3.573   9.467  1.0288 -1.2237  3.6170
   53MOL0     H 7286   4.766   3.442   9.233 -0.2031  0.1791 -0.2242
   53MOL0     H 7287   4.706   3.609   9.248  0.6635  0.3833 -1.9162
   53MOL0     H 7288   4.970   3.570   9.246 -1.3599 -0.6236 -1.1729
   53MOL0     H 7289   4.927   3.496   9.407  0.2460  0.4944  0.2601
   53MOL0     H 7290   4.818   3.758   9.403 -0.5501  1.0926 -0.7902
   53MOL0     H 7291   4.969   3.780   9.319 -0.1719 -2.0927 -2.2860
   53MOL0     H 7292   5.092   3.665   9.510 -1.1718 -0.8879 -0.1337
   53MOL0     H 7293   4.955   3.675   9.605  1.4915 -1.3038 -0.0674
   53MOL0     H 7294   4.077   3.296   9.781 -0.9390 -2.6410  0.6950
   53MOL0     H 7295   3.845   3.244   9.812  0.0134 -0.7557  0.2086
   53MOL0     H 7296   3.518   3.064   9.774  1.7984  2.4250 -1.9353
   53MOL0     H 7297   3.332   2.988   9.877  1.8799 -2.2853 -1.1112
   53MOL0     H 7298   1.405   3.425  10.738  1.1861  0.8326 -0.4015
   53MOL0     H 7299   1.264   3.614  10.818  1.0447 -1.5196  1.5120
   53MOL0     H 7300   1.242   4.199  10.604 -0.3315  2.4742  0.1479
   53MOL0     H 7301   1.072   4.373  10.661 -0.4035  0.9431  1.2348
   53MOL0     H 7302   1.022   4.516  10.853  0.5700 -3.3300  0.4511
   53MOL0     H 7303   0.898   4.498  10.716  0.6087 -1.2741 -0.5145
   53MOL0     H 7304   0.859   4.690  10.878 -2.4182  0.5728 -0.1319
   53MOL0     H 7305   0.821   4.564  11.006  0.3035  1.1221  0.2028
   53MOL0     H 7306   0.629   4.655  10.890 -1.6675  0.1033 -0.7431
   53MOL0     H 7307   0.691   4.622  10.730  2.1659 -0.7426 -0.2753
   53MOL0     H 7308   0.623   4.384  10.766  2.1364 -0.1181  0.8303
   53MOL0     H 7309   0.491   4.487  10.832 -0.3816 -0.1234 -0.1951
   53MOL0     H 7310   0.607   4.258  11.155  0.0748  1.8351  2.3319
   53MOL0     H 7311   0.918   4.123  10.969  1.7158 -1.9454  0.6572
   53MOL0     H 7312   1.120   3.821  10.919 -0.2136 -0.0146  0.6599
   53MOL0     H 7313   0.978   3.880  10.995  0.5748 -3.5922  1.0182
   53MOL0     H 7314   0.971   3.830  10.830 -3.7045  1.8077  2.3364
   54MOL0     O 7315   6.756   1.979  11.147 -0.0209  0.7045 -0.0238
   54MOL0     C 7316   6.725   2.060  11.069  0.9027  0.3195  0.0623
   54MOL0     O 7317   6.807   2.138  10.996  0.3346 -0.1919  0.1396
   54MOL0     C 7318   6.933   2.157  11.033 -0.1313 -0.7009 -0.3027
   54MOL0     C 7319   7.021   2.136  10.925 -0.5512  0.1728 -0.1007
   54MOL0     C 7320   7.159   2.134  10.964  0.2721 -0.1327 -0.7552
   54MOL0     C 7321   7.205   2.140  11.095 -0.0666 -0.8298 -0.4149
   54MOL0     O 7322   7.337   2.132  11.131 -0.3955  0.2762 -0.3941
   54MOL0     C 7323   7.430   2.233  11.081 -0.4861  0.2032  0.1900
   54MOL0     C 7324   7.560   2.221  11.156 -0.0136 -0.0452  0.8478
   54MOL0     C 7325   7.653   2.338  11.114 -0.0090 -0.5539 -0.0533
   54MOL0     C 7326   7.701   2.328  10.969  0.0893  0.6748 -0.0492
   54MOL0     C 7327   7.824   2.416  10.938  0.5016  0.2601 -1.2613
   54MOL0     C 7328   7.964   2.370  10.993  0.0456 -1.4110 -0.3187
   54MOL0     C 7329   8.089   2.421  10.924 -0.2090 -0.4698  0.3175
   54MOL0     C 7330   8.129   2.320  10.809 -0.1977 -0.4654 -0.0049
   54MOL0     N 7331   8.246   2.375  10.734  0.1317  0.3009 -0.1144
   54MOL0     C 7332   8.340   2.298  10.674 -0.3045  0.2536  0.9047
   54MOL0     C 7333   8.441   2.384  10.631 -0.7804  0.9578 -0.1232
   54MOL0     C 7334   8.566   2.356  10.538  0.1303 -0.3732 -0.0101
   54MOL0     C 7335   8.677   2.285  10.618  0.4194  0.6903  0.3205
   54MOL0     C 7336   8.793   2.248  10.531  0.1811  0.0281  0.2663
   54MOL0     C 7337   8.913   2.193  10.621  0.5443 -0.0023 -0.2190
   54MOL0     O 7338   8.949   2.264  10.744 -0.1300 -0.1994  0.0477
   54MOL0     C 7339   9.075   2.245  10.796 -0.5271 -0.8766  0.2700
   54MOL0     C 7340   9.112   2.330  10.902 -0.5060 -0.1126 -0.1218
   54MOL0     C 7341   9.236   2.314  10.972  0.9385 -0.1981 -0.2146
   54MOL0     C 7342   9.266   2.411  11.083 -0.1502 -0.8872  0.0734
   54MOL0     C 7343   9.323   2.199  10.938  0.6565  0.3109 -0.9405
   54MOL0     C 7344   9.441   2.146  11.017  0.0322 -0.1245 -0.1790
   54MOL0     O 7345   9.497   2.028  10.971 -0.3428 -0.5840 -0.3729
   54MOL0     C 7346   9.561   1.947  11.068  0.0270 -0.1609  0.2496
   54MOL0     C 7347   9.488   1.882  11.166 -0.3123 -0.5187 -0.9930
   54MOL0     C 7348   9.542   1.775  11.246 -0.2461  0.0104 -1.0184
   54MOL0     C 7349   9.683   1.747  11.229 -0.2230  0.2582  0.7037
   54MOL0     O 7350   9.738   1.646  11.308 -0.2905 -0.4392  0.1197
   54MOL0     C 7351   9.883   1.632  11.292  0.2282  0.0659  1.1398
   54MOL0     C 7352   9.931   1.513  11.369  0.4411  0.6573 -0.5717
   54MOL0     C 7353   9.938   1.533  11.522 -0.1615 -0.0650  0.5483
   54MOL0     C 7354   9.990   1.410  11.586  0.4390  0.5059  0.5049
   54MOL0     C 7355  10.034   1.437  11.728  0.0303 -0.2075 -0.2702
   54MOL0     C 7356  10.165   1.530  11.729  0.5301  0.5202 -0.4670
   54MOL0     C 7357  10.280   1.502  11.629  0.3053  0.1118 -0.2741
   54MOL0     C 7358  10.411   1.555  11.677  0.2068 -0.0901  1.0460
   54MOL0    Cl 7359  10.544   1.496  11.578 -0.3657  0.5755  0.0663
   54MOL0     C 7360   9.758   1.823  11.134 -0.2120 -0.5662 -0.0828
   54MOL0     C 7361   9.699   1.924  11.062  0.6229  0.0427  0.9468
   54MOL0     O 7362   9.471   2.201  11.124  0.1129  0.1901 -0.5654
   54MOL0     C 7363   9.280   2.119  10.831 -0.0948 -0.3002  0.6411
   54MOL0     C 7364   9.167   2.145  10.757 -0.0938 -0.1707  0.1517
   54MOL0     N 7365   8.406   2.512  10.669 -0.1997  0.9017 -0.0506
   54MOL0     N 7366   8.300   2.503  10.740  0.4174 -0.8434 -0.0754
   54MOL0     C 7367   7.109   2.159  11.197  0.2206  0.0107 -0.2299
   54MOL0     C 7368   6.974   2.171  11.168  0.6105 -0.0672  0.5873
   54MOL0     C 7369   6.585   2.059  11.029  0.2049  0.8500  0.0602
   54MOL0     C 7370   6.556   2.062  10.887 -1.3207 -0.2901 -0.6206
   54MOL0     C 7371   6.425   2.090  10.845  0.5252 -0.3317 -0.0235
   54MOL0     C 7372   6.317   2.079  10.928  0.5176  0.5055  0.7414
   54MOL0     O 7373   6.184   2.088  10.885  0.3706  0.1315 -0.0876
   54MOL0     C 7374   6.096   2.170  10.952  0.2844  0.1774 -0.6328
   54MOL0     C 7375   5.984   2.093  11.032 -0.4120  0.5710 -0.7269
   54MOL0     C 7376   5.908   2.000  10.932 -0.3973 -0.3445  0.4301
   54MOL0     C 7377   5.832   2.074  10.818 -0.3436  0.0256  0.2504
   54MOL0     C 7378   5.737   2.175  10.874  0.1590  0.6511 -0.4587
   54MOL0     C 7379   5.665   2.249  10.932  0.2863 -0.6040  0.5353
   54MOL0     C 7380   6.345   2.070  11.062 -0.9245 -0.1415 -0.4489
   54MOL0     C 7381   6.476   2.066  11.112 -0.1952 -0.7250  0.4885
   54MOL0     C 7382   6.509   2.078  11.259  0.1621 -0.0426  0.5642
   54MOL0     H 7383   6.988   2.111  10.824 -0.5185  0.5973 -0.2194
   54MOL0     H 7384   7.232   2.112  10.886  0.2505  2.0057 -1.4651
   54MOL0     H 7385   7.393   2.335  11.092 -3.3387 -0.7907  0.7891
   54MOL0     H 7386   7.455   2.212  10.977  1.1243  0.2407  0.5384
   54MOL0     H 7387   7.532   2.236  11.261  0.7425 -0.9684  1.1999
   54MOL0     H 7388   7.620   2.129  11.151 -0.8357 -0.5113 -1.4433
   54MOL0     H 7389   7.607   2.433  11.139  1.0023 -0.9260  3.8479
   54MOL0     H 7390   7.740   2.332  11.180 -1.6150 -0.4070  2.1967
   54MOL0     H 7391   7.710   2.227  10.928  2.2273  0.6803  0.2459
   54MOL0     H 7392   7.632   2.374  10.898 -2.0338 -1.8209  0.2819
   54MOL0     H 7393   7.803   2.519  10.969  2.9273 -0.1440  2.2429
   54MOL0     H 7394   7.838   2.417  10.829  0.3050  0.9725 -1.2856
   54MOL0     H 7395   7.981   2.424  11.087 -0.4462  2.2051 -2.1455
   54MOL0     H 7396   7.968   2.262  11.010  2.7573 -1.2179  0.8702
   54MOL0     H 7397   8.172   2.428  10.995  1.0182  0.3330 -1.1454
   54MOL0     H 7398   8.063   2.517  10.877  0.2249 -0.6481 -0.3013
   54MOL0     H 7399   8.151   2.224  10.857 -0.1529 -1.0429 -1.1496
   54MOL0     H 7400   8.049   2.297  10.738 -1.1840 -2.3691  1.6114
   54MOL0     H 7401   8.340   2.190  10.663 -1.9445  0.1823  1.3028
   54MOL0     H 7402   8.588   2.458  10.504 -1.5670  1.0164  2.6257
   54MOL0     H 7403   8.530   2.295  10.456  1.2623 -0.0001 -0.8117
   54MOL0     H 7404   8.714   2.335  10.708  3.1616  1.0397 -0.8919
   54MOL0     H 7405   8.628   2.193  10.651 -1.6795 -0.1682 -4.2996
   54MOL0     H 7406   8.758   2.162  10.473 -0.1238  0.6763 -0.5224
   54MOL0     H 7407   8.829   2.324  10.461  0.9467 -0.6807 -0.1242
   54MOL0     H 7408   8.869   2.097  10.651 -1.8364  1.3384  0.9145
   54MOL0     H 7409   8.994   2.188  10.548 -1.6874 -1.2896 -2.8195
   54MOL0     H 7410   9.050   2.413  10.935 -1.0023  2.1053 -5.6534
   54MOL0     H 7411   9.219   2.510  11.077  1.8616  0.1111 -0.0979
   54MOL0     H 7412   9.371   2.439  11.099 -0.7829  0.9976  1.3608
   54MOL0     H 7413   9.231   2.359  11.173  0.8716 -2.0979 -0.2085
   54MOL0     H 7414   9.384   1.910  11.182 -0.1693 -0.4520 -0.1503
   54MOL0     H 7415   9.471   1.716  11.304 -0.7613  0.1882 -1.4570
   54MOL0     H 7416   9.920   1.614  11.191  0.4233  0.6840  1.1021
   54MOL0     H 7417   9.930   1.719  11.340  1.6757  1.0448 -1.8068
   54MOL0     H 7418   9.876   1.421  11.345  1.4089  0.2121 -1.1534
   54MOL0     H 7419  10.034   1.488  11.344 -0.4042 -3.2911 -0.8656
   54MOL0     H 7420   9.846   1.564  11.574 -0.4223 -0.1555  0.1445
   54MOL0     H 7421  10.011   1.614  11.530  0.3925 -0.5341  0.2584
   54MOL0     H 7422  10.080   1.375  11.534  0.3845  3.3733 -1.8118
   54MOL0     H 7423   9.918   1.327  11.589  2.3893 -1.3507 -0.9299
   54MOL0     H 7424   9.966   1.499  11.786  0.4726  0.1129 -0.0883
   54MOL0     H 7425  10.057   1.346  11.784  1.1291 -0.4600 -1.0951
   54MOL0     H 7426  10.208   1.534  11.830 -1.1876  1.4938  0.2620
   54MOL0     H 7427  10.127   1.630  11.707 -0.5415  0.3369  0.5056
   54MOL0     H 7428  10.256   1.528  11.526 -2.9347 -0.4386  0.2591
   54MOL0     H 7429  10.300   1.394  11.633  0.1852  0.0377 -1.4708
   54MOL0     H 7430  10.425   1.522  11.780  0.8597 -0.4296  0.8506
   54MOL0     H 7431  10.411   1.665  11.682  0.0908 -0.0869  0.9816
   54MOL0     H 7432   9.866   1.821  11.122  0.4497 -0.5401  4.1789
   54MOL0     H 7433   9.768   1.969  10.992 -1.6095  0.4024 -1.1384
   54MOL0     H 7434   9.334   2.030  10.801 -1.6493 -1.5702  1.4246
   54MOL0     H 7435   9.145   2.092  10.664 -0.7658  0.1757  0.1088
   54MOL0     H 7436   7.128   2.155  11.304  0.9670 -2.1788 -0.3815
   54MOL0     H 7437   6.903   2.154  11.249  0.6291 -3.0988  0.0915
   54MOL0     H 7438   6.629   2.069  10.806 -1.0015  1.8167 -0.2167
   54MOL0     H 7439   6.414   2.124  10.742 -1.2209  0.7749  0.4906
   54MOL0     H 7440   6.144   2.236  11.025  0.1101 -1.8505  1.4175
   54MOL0     H 7441   6.042   2.225  10.874 -1.0996 -0.3770 -0.0937
   54MOL0     H 7442   5.906   2.161  11.068 -2.1319 -0.1036 -2.9384
   54MOL0     H 7443   6.031   2.028  11.107 -0.9614 -2.4154 -2.7792
   54MOL0     H 7444   5.992   1.949  10.884  0.5759 -0.5907  2.2954
   54MOL0     H 7445   5.848   1.922  10.980  0.9572 -1.0201  1.0637
   54MOL0     H 7446   5.768   2.009  10.758 -1.9380 -0.4343  2.3488
   54MOL0     H 7447   5.896   2.124  10.745  0.8785 -0.1815  1.1364
   54MOL0     H 7448   5.587   2.317  10.961  0.4635  1.0199 -2.3853
   54MOL0     H 7449   6.265   2.066  11.135 -0.9934 -1.8473 -0.5839
   54MOL0     H 7450   6.586   2.155  11.257  0.0837  0.0261 -1.7940
   54MOL0     H 7451   6.419   2.118  11.307 -2.7675 -2.0272 -2.8423
   54MOL0     H 7452   6.540   1.982  11.301  0.4536  0.9342  2.7432
   55MOL0     O 7453   6.200   2.294  11.366  0.2964  0.2994 -0.6234
   55MOL0     C 7454   6.177   2.363  11.272 -0.4593 -0.8828  0.1575
   55MOL0     O 7455   6.275   2.408  11.188  0.2281 -0.3838  0.2602
   55MOL0     C 7456   6.407   2.419  11.239 -0.4791  0.0564  0.5328
   55MOL0     C 7457   6.444   2.430  11.372 -1.3425 -1.2694  0.4951
   55MOL0     C 7458   6.580   2.432  11.419  0.9193  0.8380  0.5443
   55MOL0     C 7459   6.689   2.414  11.327  0.6236 -0.0417 -0.5596
   55MOL0     O 7460   6.821   2.409  11.359 -0.0141  0.3775 -0.0306
   55MOL0     C 7461   6.861   2.412  11.497  0.3369 -0.2883  0.0114
   55MOL0     C 7462   7.004   2.362  11.514 -0.7349  0.7886  0.3026
   55MOL0     C 7463   7.104   2.452  11.443  0.1735  0.2317 -0.1766
   55MOL0     C 7464   7.108   2.593  11.502  0.3169  0.7140 -0.2161
   55MOL0     C 7465   7.227   2.679  11.485  0.5065  0.0539 -0.5542
   55MOL0     C 7466   7.262   2.707  11.346 -0.7363 -0.5515 -0.3840
   55MOL0     C 7467   7.397   2.784  11.343  0.1102 -0.2672 -0.8176
   55MOL0     C 7468   7.439   2.814  11.199 -0.1365 -0.6843  0.4165
   55MOL0     N 7469   7.586   2.828  11.185 -0.5162 -0.4180  0.8239
   55MOL0     C 7470   7.653   2.954  11.177  0.4300  0.3789  0.3906
   55MOL0     C 7471   7.789   2.923  11.183 -0.9162  0.1106  0.1106
   55MOL0     C 7472   7.910   3.017  11.213 -0.3958  0.0078 -0.3893
   55MOL0     C 7473   7.948   3.021  11.362  0.4657 -0.1426 -0.0779
   55MOL0     C 7474   8.071   3.099  11.380 -0.6480  0.5028 -0.2641
   55MOL0     C 7475   8.118   3.081  11.517 -0.7874  0.1639  0.1171
   55MOL0     O 7476   8.230   3.168  11.553 -0.7407 -0.2363 -0.4292
   55MOL0     C 7477   8.293   3.168  11.679  0.4898  0.2093  0.5581
   55MOL0     C 7478   8.261   3.080  11.785  0.2836  0.2008  0.1238
   55MOL0     C 7479   8.351   3.062  11.889  0.7521  0.0305 -0.7800
   55MOL0     C 7480   8.323   2.965  12.001  1.0057  0.2895 -0.1323
   55MOL0     C 7481   8.466   3.151  11.898 -1.2016 -0.0575  0.4097
   55MOL0     C 7482   8.579   3.152  11.995 -0.6076 -0.8761 -0.2650
   55MOL0     O 7483   8.689   3.243  11.982  0.4461  0.1290  0.2367
   55MOL0     C 7484   8.788   3.237  12.082  0.7308 -0.5733  0.9123
   55MOL0     C 7485   8.785   3.323  12.197  1.0536  0.2027 -0.7837
   55MOL0     C 7486   8.866   3.302  12.309  0.4194 -0.4904  0.7717
   55MOL0     C 7487   8.961   3.200  12.301  0.0267  0.6115  0.0472
   55MOL0     O 7488   9.046   3.188  12.408  0.3855  0.4381  0.5690
   55MOL0     C 7489   9.191   3.210  12.400 -0.3674  0.3565  0.4483
   55MOL0     C 7490   9.239   3.332  12.483 -0.1186  0.3417 -0.6923
   55MOL0     C 7491   9.394   3.330  12.493 -0.0648 -0.2671 -0.3631
   55MOL0     C 7492   9.455   3.404  12.369 -0.7998  0.3544 -0.1599
   55MOL0     C 7493   9.610   3.418  12.368 -0.1059  0.6116  0.1135
   55MOL0     C 7494   9.670   3.506  12.477 -0.2170  0.4973 -0.4384
   55MOL0     C 7495   9.803   3.561  12.413 -0.1481 -0.7289  0.3977
   55MOL0     C 7496   9.908   3.452  12.408 -0.4641  0.3879 -0.1364
   55MOL0    Cl 7497  10.079   3.502  12.422  0.3745 -0.2904  0.6938
   55MOL0     C 7498   8.966   3.115  12.188  0.1587 -0.0575 -0.6914
   55MOL0     C 7499   8.887   3.136  12.083  0.1412  0.5627 -0.1056
   55MOL0     O 7500   8.568   3.067  12.087  0.1017 -1.0102 -0.3699
   55MOL0     C 7501   8.474   3.247  11.791 -0.1248  0.2655  0.7596
   55MOL0     C 7502   8.393   3.251  11.682 -0.4858  0.1510  0.8125
   55MOL0     N 7503   7.797   2.784  11.176  0.6534  0.3812  0.3241
   55MOL0     N 7504   7.682   2.731  11.176  0.3350  0.0686 -0.1014
   55MOL0     C 7505   6.648   2.404  11.194  0.7650 -0.0949 -0.7169
   55MOL0     C 7506   6.518   2.406  11.150  0.2997 -0.0693  0.0624
   55MOL0     C 7507   6.036   2.410  11.236 -0.1842  0.9627  0.6525
   55MOL0     C 7508   6.019   2.481  11.126  0.0714 -0.4403  0.6993
   55MOL0     C 7509   5.892   2.544  11.102 -0.0614  0.0404  1.3834
   55MOL0     C 7510   5.781   2.530  11.184  0.2108  0.4385  0.2762
   55MOL0     O 7511   5.657   2.584  11.173  0.4219  0.6913 -0.0897
   55MOL0     C 7512   5.630   2.663  11.058  0.4216  0.2483  0.9375
   55MOL0     C 7513   5.479   2.663  11.030  0.2501 -0.3645 -0.4874
   55MOL0     C 7514   5.449   2.689  10.874  0.0910  0.3027 -0.0126
   55MOL0     C 7515   5.492   2.568  10.781 -0.1513 -0.3808  1.2512
   55MOL0     C 7516   5.399   2.459  10.780 -0.6353 -0.4668 -0.3954
   55MOL0     C 7517   5.335   2.358  10.786  0.0183  1.2170  1.1349
   55MOL0     C 7518   5.794   2.444  11.292 -0.6412 -0.4766  0.4174
   55MOL0     C 7519   5.920   2.389  11.321  0.2165 -0.1285  0.7959
   55MOL0     C 7520   5.931   2.322  11.452  0.3341 -0.0434 -0.3012
   55MOL0     H 7521   6.369   2.450  11.447  0.3205  1.0642  1.6670
   55MOL0     H 7522   6.592   2.437  11.527 -3.8241 -0.9466  1.3862
   55MOL0     H 7523   6.798   2.347  11.559 -0.1962 -0.4256 -0.6568
   55MOL0     H 7524   6.854   2.518  11.522  3.0022  0.2355 -1.1337
   55MOL0     H 7525   7.027   2.362  11.621 -2.3408 -1.3452  0.7138
   55MOL0     H 7526   6.993   2.260  11.476 -0.0988  0.8850 -0.1673
   55MOL0     H 7527   7.204   2.412  11.464  0.4024  1.4667  1.2553
   55MOL0     H 7528   7.086   2.442  11.335  0.2652 -0.0555 -0.1674
   55MOL0     H 7529   7.019   2.643  11.463 -1.6163 -2.5287 -0.4057
   55MOL0     H 7530   7.078   2.578  11.606  0.8482 -1.2027 -0.2883
   55MOL0     H 7531   7.310   2.628  11.534 -0.1923  2.0715  3.0580
   55MOL0     H 7532   7.211   2.768  11.546  0.1182 -0.4975  0.1684
   55MOL0     H 7533   7.277   2.613  11.292  3.2681 -0.9630  1.1208
   55MOL0     H 7534   7.186   2.770  11.299 -1.9851 -1.0916  0.8414
   55MOL0     H 7535   7.473   2.718  11.386 -0.9490 -0.0688  1.5739
   55MOL0     H 7536   7.392   2.878  11.399 -0.6334 -0.0341 -1.2648
   55MOL0     H 7537   7.422   2.731  11.129  2.9767 -0.5764 -0.6370
   55MOL0     H 7538   7.372   2.887  11.153 -0.6051 -0.5011  1.3781
   55MOL0     H 7539   7.605   3.051  11.184  0.6396  0.3967  1.8452
   55MOL0     H 7540   7.876   3.117  11.184  1.5064  0.4783 -1.1691
   55MOL0     H 7541   7.993   2.989  11.147  1.3064 -0.4365  1.8239
   55MOL0     H 7542   7.863   3.066  11.412  0.7450  0.4511 -0.1226
   55MOL0     H 7543   7.962   2.916  11.391  1.6524 -2.1208 -6.1853
   55MOL0     H 7544   8.148   3.058  11.314 -0.6019  1.3696 -0.7639
   55MOL0     H 7545   8.052   3.205  11.363  2.9828  1.4116  0.3927
   55MOL0     H 7546   8.028   3.101  11.576 -0.9025 -0.2991  0.1019
   55MOL0     H 7547   8.148   2.977  11.536 -2.4955 -0.5822 -1.0323
   55MOL0     H 7548   8.178   3.010  11.782 -1.8067  2.5299  0.2197
   55MOL0     H 7549   8.396   2.884  12.006 -0.2586 -0.8053  1.9091
   55MOL0     H 7550   8.223   2.920  11.996  0.9046 -0.0257  3.1015
   55MOL0     H 7551   8.314   3.022  12.093 -0.5735  2.7011 -1.6678
   55MOL0     H 7552   8.715   3.404  12.217  1.5891  0.0297  2.1813
   55MOL0     H 7553   8.861   3.380  12.385  2.2360  0.7558 -0.3253
   55MOL0     H 7554   9.230   3.114  12.435  2.1453  1.3240  0.5077
   55MOL0     H 7555   9.219   3.229  12.296 -2.0719  0.5573 -0.0093
   55MOL0     H 7556   9.212   3.420  12.424 -1.1975 -0.1597 -0.9795
   55MOL0     H 7557   9.195   3.341  12.583  2.0091  0.1810  0.3261
   55MOL0     H 7558   9.420   3.224  12.496 -1.3637 -0.6277  3.6527
   55MOL0     H 7559   9.419   3.366  12.593 -3.2189 -1.8031  1.1170
   55MOL0     H 7560   9.414   3.505  12.361  0.4902  0.8588 -0.6628
   55MOL0     H 7561   9.427   3.337  12.287  0.3880 -1.3243  0.7229
   55MOL0     H 7562   9.657   3.319  12.371  0.8528  0.9450 -2.0506
   55MOL0     H 7563   9.632   3.462  12.270  0.0454 -1.5830 -0.9177
   55MOL0     H 7564   9.681   3.447  12.568 -1.1398  4.3035  2.4021
   55MOL0     H 7565   9.594   3.578  12.507  0.2257  0.0400  2.0117
   55MOL0     H 7566   9.825   3.645  12.480 -0.2650  1.8015 -2.4790
   55MOL0     H 7567   9.788   3.603  12.313  0.9021 -0.0425  0.5140
   55MOL0     H 7568   9.899   3.385  12.322  2.7890 -1.9405  1.1055
   55MOL0     H 7569   9.894   3.381  12.490  0.1204  1.0376  0.5411
   55MOL0     H 7570   9.035   3.032  12.173  1.0715  0.8758 -1.8512
   55MOL0     H 7571   8.872   3.056  12.010  1.0967 -0.0685  0.3711
   55MOL0     H 7572   8.557   3.317  11.793  0.6024 -0.5056 -0.9713
   55MOL0     H 7573   8.413   3.318  11.600 -0.5057 -1.3818 -0.4932
   55MOL0     H 7574   6.715   2.405  11.109  1.1029  2.6645 -0.5409
   55MOL0     H 7575   6.505   2.394  11.043 -1.4209 -2.2761  0.4529
   55MOL0     H 7576   6.096   2.508  11.055 -1.4770 -1.0147 -1.2945
   55MOL0     H 7577   5.895   2.604  11.011  1.7012  0.1596  1.4881
   55MOL0     H 7578   5.663   2.766  11.076 -0.0297  0.7164 -0.7159
   55MOL0     H 7579   5.683   2.622  10.972  0.4413  1.5291  0.3149
   55MOL0     H 7580   5.427   2.735  11.094  2.5607 -0.8403  2.1195
   55MOL0     H 7581   5.434   2.567  11.057  1.4996 -1.4000 -1.8694
   55MOL0     H 7582   5.348   2.726  10.855 -0.1147 -1.6207 -3.3628
   55MOL0     H 7583   5.516   2.771  10.845 -0.1747  0.0251 -1.4382
   55MOL0     H 7584   5.584   2.527  10.824  0.1750 -0.8911  0.1141
   55MOL0     H 7585   5.511   2.612  10.682 -0.3591 -2.0743  0.4178
   55MOL0     H 7586   5.266   2.277  10.801 -0.0936  1.2713  0.9202
   55MOL0     H 7587   5.708   2.421  11.354 -2.0333 -0.5660 -1.4577
   55MOL0     H 7588   5.946   2.214  11.440 -2.1541 -0.4316 -0.4304
   55MOL0     H 7589   6.018   2.367  11.501  1.7069  0.1169 -2.7160
   55MOL0     H 7590   5.840   2.343  11.509  0.3592 -1.8588  0.4954
   56MOL0     O 7591   5.534   9.899   9.903  0.4389 -0.1814 -0.3209
   56MOL0     C 7592   5.461   9.956   9.823  0.1205 -0.0629  0.8119
   56MOL0     O 7593   5.500  10.053   9.733 -0.3414 -0.5063  0.5979
   56MOL0     C 7594   5.605  10.135   9.778 -0.4156 -0.4673 -0.1159
   56MOL0     C 7595   5.621  10.184   9.912  0.3365  0.3241  0.1452
   56MOL0     C 7596   5.735  10.256   9.954 -0.2505 -0.3364  0.1505
   56MOL0     C 7597   5.838  10.288   9.861 -0.4404  0.6898  0.5768
   56MOL0     O 7598   5.952  10.351   9.899 -0.5308  0.6996  0.5227
   56MOL0     C 7599   5.984  10.482   9.854 -0.6186 -0.3663  0.2383
   56MOL0     C 7600   6.061  10.552   9.963 -0.0842 -0.3868  0.9974
   56MOL0     C 7601   6.171  10.648   9.900 -0.4597 -0.1411 -0.5785
   56MOL0     C 7602   6.257  10.711  10.011  0.5039 -0.8359  1.1566
   56MOL0     C 7603   6.374  10.802   9.955  0.3152 -0.1485  0.0598
   56MOL0     C 7604   6.322  10.933   9.889 -0.2040  0.0053  0.1464
   56MOL0     C 7605   6.444  11.026   9.876 -0.1736 -0.2756  0.4823
   56MOL0     C 7606   6.458  11.119   9.993  0.5633  0.2306  0.3964
   56MOL0     N 7607   6.594  11.169  10.015  0.3707 -0.0017 -0.6449
   56MOL0     C 7608   6.697  11.185   9.933 -0.7242  0.2959  0.1501
   56MOL0     C 7609   6.796  11.249  10.002 -0.5594 -0.3372  0.2145
   56MOL0     C 7610   6.934  11.284   9.949  0.3409 -0.1000 -1.1764
   56MOL0     C 7611   7.040  11.283  10.063  0.0954 -0.2746  0.2809
   56MOL0     C 7612   7.167  11.344  10.007  0.7180 -0.3901  0.4102
   56MOL0     C 7613   7.246  11.272   9.907 -0.2022  0.6752 -0.5000
   56MOL0     O 7614   7.355  11.350   9.868 -0.1789  0.2507  0.3972
   56MOL0     C 7615   7.461  11.363   9.959 -0.0169  0.0989 -0.4980
   56MOL0     C 7616   7.567  11.438   9.918 -0.0845 -0.0700 -0.1436
   56MOL0     C 7617   7.688  11.450   9.990 -0.3906  0.5820 -0.0986
   56MOL0     C 7618   7.787  11.542   9.928  0.3595 -0.3397 -0.5710
   56MOL0     C 7619   7.701  11.376  10.117  0.5381 -0.5140  0.2877
   56MOL0     C 7620   7.816  11.395  10.216  0.5403  0.3667 -0.4856
   56MOL0     O 7621   7.808  11.301  10.322  0.3283  0.0485 -0.2299
   56MOL0     C 7622   7.911  11.319  10.408  0.1953 -0.8153  1.2235
   56MOL0     C 7623   7.910  11.419  10.506 -0.8144  0.1354 -0.6557
   56MOL0     C 7624   8.023  11.453  10.575 -0.2418 -0.2361 -0.2192
   56MOL0     C 7625   8.141  11.378  10.553  0.1005  0.1857 -0.5807
   56MOL0     O 7626   8.266  11.407  10.609  0.9829  0.6898  0.1335
   56MOL0     C 7627   8.271  11.501  10.725 -0.2128  0.4002  0.1058
   56MOL0     C 7628   8.412  11.548  10.717  0.5287 -0.2293 -0.5915
   56MOL0     C 7629   8.504  11.435  10.760 -0.2089  0.2764 -0.3304
   56MOL0     C 7630   8.652  11.457  10.727 -0.7301 -0.9970 -0.2742
   56MOL0     C 7631   8.727  11.554  10.817  0.0527  0.3244  0.1600
   56MOL0     C 7632   8.878  11.579  10.781 -0.2993 -0.8626 -0.4906
   56MOL0     C 7633   8.959  11.441  10.782 -0.6833 -0.1859 -0.0384
   56MOL0     C 7634   9.102  11.467  10.746  1.1764  0.5643  0.1493
   56MOL0    Cl 7635   9.191  11.565  10.858  0.4003 -0.1313 -0.1058
   56MOL0     C 7636   8.138  11.263  10.468 -0.5286  0.0526 -0.1156
   56MOL0     C 7637   8.026  11.244  10.391  0.9083  0.1132  0.7708
   56MOL0     O 7638   7.900  11.479  10.196  0.0863 -0.4775  0.1002
   56MOL0     C 7639   7.599  11.287  10.146 -0.2865 -0.1617  0.4595
   56MOL0     C 7640   7.483  11.283  10.072  0.9600 -0.0419 -0.8464
   56MOL0     N 7641   6.742  11.282  10.129  0.4215  1.2689  0.4752
   56MOL0     N 7642   6.621  11.234  10.134 -0.3344  0.0576  0.5012
   56MOL0     C 7643   5.823  10.246   9.727  0.0695 -0.0137  0.5599
   56MOL0     C 7644   5.707  10.175   9.685  0.0025  0.0128  0.7701
   56MOL0     C 7645   5.321   9.909   9.799  0.7161  0.3340 -0.0266
   56MOL0     C 7646   5.230   9.992   9.732  0.5053 -1.0081  0.2718
   56MOL0     C 7647   5.096   9.960   9.692 -0.1828 -0.2075  0.2500
   56MOL0     C 7648   5.047   9.835   9.733  0.4419  0.1086  0.3447
   56MOL0     O 7649   4.916   9.800   9.699  0.2472  0.4608 -0.1785
   56MOL0     C 7650   4.811   9.892   9.747 -0.4986  0.9816  0.2085
   56MOL0     C 7651   4.775   9.987   9.639 -0.2661 -0.1606  0.3525
   56MOL0     C 7652   4.653  10.063   9.689  0.6786 -0.4156 -0.0288
   56MOL0     C 7653   4.590  10.146   9.570 -0.1360 -0.3762 -0.0570
   56MOL0     C 7654   4.457  10.186   9.612 -0.4604  0.4812  0.7875
   56MOL0     C 7655   4.352  10.232   9.639 -1.0349  0.7778 -0.2482
   56MOL0     C 7656   5.134   9.750   9.792 -0.3004 -0.0450 -0.3498
   56MOL0     C 7657   5.268   9.782   9.826  0.7798  0.4449 -0.1153
   56MOL0     C 7658   5.350   9.678   9.890 -0.1369  0.1712 -0.3089
   56MOL0     H 7659   5.567  10.160  10.003 -0.7742  0.6754 -0.4042
   56MOL0     H 7660   5.748  10.304  10.051 -2.7762  1.7511 -0.4482
   56MOL0     H 7661   5.895  10.538   9.825  0.5571  0.0904 -2.9823
   56MOL0     H 7662   6.052  10.478   9.768 -0.5444 -1.1441  0.3272
   56MOL0     H 7663   5.983  10.612  10.011  2.1017  2.1405  1.6422
   56MOL0     H 7664   6.112  10.484  10.032 -0.4323 -0.9779  0.6793
   56MOL0     H 7665   6.230  10.581   9.837 -0.4674  1.5784 -2.5112
   56MOL0     H 7666   6.117  10.715   9.833 -2.1368  1.2204  1.9564
   56MOL0     H 7667   6.191  10.760  10.083 -3.1229 -2.1790 -0.9985
   56MOL0     H 7668   6.302  10.626  10.061  1.6108  0.0523  1.7211
   56MOL0     H 7669   6.429  10.746   9.879 -2.7551 -1.4722 -1.3662
   56MOL0     H 7670   6.434  10.827  10.043 -0.4470 -1.1065  0.8681
   56MOL0     H 7671   6.283  10.911   9.790  0.3935  0.6396 -0.2377
   56MOL0     H 7672   6.246  10.979   9.953  0.8759  1.6826  0.2719
   56MOL0     H 7673   6.434  11.092   9.789 -0.0609  0.0217  0.6923
   56MOL0     H 7674   6.535  10.965   9.876 -1.3326 -2.0950 -0.5216
   56MOL0     H 7675   6.392  11.206   9.986 -1.7169 -1.4962 -1.0398
   56MOL0     H 7676   6.423  11.075  10.087 -1.3951  0.6341 -0.1018
   56MOL0     H 7677   6.714  11.158   9.829  0.9191  0.2622  0.3987
   56MOL0     H 7678   6.928  11.369   9.880 -3.1219 -0.6664 -1.7743
   56MOL0     H 7679   6.955  11.200   9.882  1.9879 -0.8694  0.2494
   56MOL0     H 7680   7.002  11.339  10.149  1.8279  0.4828  0.5881
   56MOL0     H 7681   7.053  11.180  10.098  0.3040 -0.4937 -0.4397
   56MOL0     H 7682   7.149  11.447   9.972 -0.7371 -0.7510  0.0372
   56MOL0     H 7683   7.237  11.357  10.091  2.7683  1.6399 -1.4613
   56MOL0     H 7684   7.284  11.176   9.944  0.2778  1.4532  1.0996
   56MOL0     H 7685   7.179  11.247   9.824 -1.5925  0.5109  0.6270
   56MOL0     H 7686   7.551  11.485   9.821 -1.0154  0.3582  0.2049
   56MOL0     H 7687   7.739  11.591   9.843 -3.2357  0.8719  1.9192
   56MOL0     H 7688   7.888  11.508   9.902  0.5773  0.4679 -0.8238
   56MOL0     H 7689   7.802  11.624   9.999 -1.6795 -1.1440  0.8954
   56MOL0     H 7690   7.830  11.492  10.513  1.3148  2.7287 -1.9557
   56MOL0     H 7691   8.017  11.538  10.642 -0.3766 -2.3214  2.5732
   56MOL0     H 7692   8.210  11.592  10.716  1.6460  1.7859  0.8655
   56MOL0     H 7693   8.253  11.444  10.816  1.2631 -0.0773  0.1159
   56MOL0     H 7694   8.426  11.587  10.616  1.0395 -0.6013 -0.6615
   56MOL0     H 7695   8.432  11.631  10.786  1.9014 -1.4975  0.6099
   56MOL0     H 7696   8.483  11.342  10.708  2.1112  0.2459 -1.3511
   56MOL0     H 7697   8.499  11.417  10.868 -1.0898 -0.4018 -0.4762
   56MOL0     H 7698   8.661  11.498  10.627 -0.4294  0.4424  0.3199
   56MOL0     H 7699   8.691  11.355  10.723  0.2416 -0.5912 -2.0121
   56MOL0     H 7700   8.678  11.651  10.817 -0.4353  0.1454 -2.3870
   56MOL0     H 7701   8.724  11.510  10.917  2.0445 -1.0732 -0.3340
   56MOL0     H 7702   8.919  11.653  10.850 -0.0763 -1.8564  0.4821
   56MOL0     H 7703   8.879  11.623  10.681 -3.4589 -1.3940 -0.8816
   56MOL0     H 7704   8.910  11.371  10.714  2.4864 -2.2521 -0.3836
   56MOL0     H 7705   8.951  11.392  10.879 -1.5628  0.0028 -0.0071
   56MOL0     H 7706   9.092  11.518  10.650 -1.7299 -1.1068 -0.5494
   56MOL0     H 7707   9.145  11.366  10.738 -1.2700 -0.5610  0.4649
   56MOL0     H 7708   8.231  11.211  10.446 -0.0686  0.0525  1.6350
   56MOL0     H 7709   8.018  11.168  10.313 -3.3551 -1.1959  2.1993
   56MOL0     H 7710   7.612  11.211  10.222 -1.0216 -0.5322  0.2214
   56MOL0     H 7711   7.411  11.212  10.111 -1.1769  0.8432 -2.9328
   56MOL0     H 7712   5.906  10.263   9.659 -0.9027  4.3223  0.1629
   56MOL0     H 7713   5.718  10.135   9.585 -0.5386  1.6720  0.0300
   56MOL0     H 7714   5.255  10.090   9.691  1.0443 -1.6103 -0.8760
   56MOL0     H 7715   5.038  10.034   9.637 -1.4487 -2.1430 -1.1454
   56MOL0     H 7716   4.731   9.822   9.774  1.0000 -0.8661  0.0640
   56MOL0     H 7717   4.848   9.936   9.840 -1.2687 -1.3134  1.6856
   56MOL0     H 7718   4.758   9.938   9.543  2.9000  2.2344 -1.6496
   56MOL0     H 7719   4.861  10.052   9.618 -0.5572 -0.0389 -0.5328
   56MOL0     H 7720   4.577   9.995   9.729  0.2342  0.0429 -0.0899
   56MOL0     H 7721   4.683  10.123   9.775 -2.0666  1.7585 -0.4401
   56MOL0     H 7722   4.583  10.090   9.477  1.2052 -0.9517  0.1578
   56MOL0     H 7723   4.648  10.239   9.556 -1.1691  0.0983 -1.3090
   56MOL0     H 7724   4.260  10.283   9.660 -1.7956  0.1329 -1.8593
   56MOL0     H 7725   5.102   9.650   9.820 -0.9259 -0.4473 -2.3192
   56MOL0     H 7726   5.440   9.678   9.828  0.0595 -2.5066 -0.1280
   56MOL0     H 7727   5.379   9.710   9.990 -0.7016 -1.2307  0.3369
   56MOL0     H 7728   5.301   9.581   9.904 -0.7540  0.7056  1.4588
   57MOL0     O 7729   6.705   8.586  10.227  1.0458  0.2132  0.2245
   57MOL0     C 7730   6.736   8.488  10.294  0.1012 -0.7622 -0.5459
   57MOL0     O 7731   6.846   8.489  10.377 -0.4999  0.2252 -0.9286
   57MOL0     C 7732   6.907   8.612  10.393 -0.6514 -0.3992 -0.8086
   57MOL0     C 7733   6.879   8.684  10.512  0.3983  0.9870  0.5348
   57MOL0     C 7734   6.929   8.817  10.534  0.9511  0.6659  0.1748
   57MOL0     C 7735   6.995   8.883  10.434  0.0800  0.3027  0.1658
   57MOL0     O 7736   7.050   9.009  10.437 -0.0396 -0.0540 -0.4965
   57MOL0     C 7737   7.079   9.067  10.563 -0.8076 -0.0290  0.4394
   57MOL0     C 7738   6.955   9.160  10.613 -0.5268 -0.5949 -0.0921
   57MOL0     C 7739   6.941   9.309  10.572 -0.2127 -0.5688  0.4920
   57MOL0     C 7740   6.835   9.335  10.472 -0.0604  0.1031  1.2489
   57MOL0     C 7741   6.867   9.467  10.396  0.0284 -0.1173 -0.5549
   57MOL0     C 7742   6.864   9.601  10.479  0.9924 -0.5710 -0.6941
   57MOL0     C 7743   6.944   9.717  10.419  0.1684 -0.2670 -0.6068
   57MOL0     C 7744   6.904   9.746  10.273 -0.4284  0.2302 -0.4972
   57MOL0     N 7745   6.983   9.860  10.225 -0.4014  0.2120  0.5962
   57MOL0     C 7746   7.107   9.849  10.167 -0.6405 -0.2592 -0.1132
   57MOL0     C 7747   7.139   9.979  10.135 -0.5630 -0.2843  0.3195
   57MOL0     C 7748   7.264  10.034  10.075  0.2589 -0.5751 -0.2572
   57MOL0     C 7749   7.361   9.951   9.989  0.3681  0.1712  0.1690
   57MOL0     C 7750   7.437   9.847  10.076 -0.1731  0.7891  0.1265
   57MOL0     C 7751   7.564   9.802   9.999  0.8601  0.2625  0.1581
   57MOL0     O 7752   7.536   9.698   9.893 -0.5986 -0.6598 -0.1416
   57MOL0     C 7753   7.527   9.569   9.927  0.3724  0.1984 -0.0964
   57MOL0     C 7754   7.638   9.501   9.964  0.4533 -0.2778 -0.0852
   57MOL0     C 7755   7.631   9.369  10.004  0.2629  0.3580 -0.8560
   57MOL0     C 7756   7.765   9.309  10.048 -0.4625 -0.1566  0.0201
   57MOL0     C 7757   7.506   9.298   9.997 -0.1024 -0.1031 -0.5671
   57MOL0     C 7758   7.481   9.160  10.039 -0.2783 -0.4221  0.5036
   57MOL0     O 7759   7.361   9.092  10.028 -0.6003 -0.2189  0.3327
   57MOL0     C 7760   7.345   8.960  10.043 -0.1435  0.0613  0.0196
   57MOL0     C 7761   7.430   8.866  10.101 -0.2574  0.2684 -0.9352
   57MOL0     C 7762   7.393   8.734  10.108  0.0856  0.7731 -0.8372
   57MOL0     C 7763   7.273   8.687  10.067  0.0783 -0.3910  0.0533
   57MOL0     O 7764   7.226   8.560  10.081 -0.0084  0.1028  0.0571
   57MOL0     C 7765   7.320   8.460  10.122 -0.3406 -0.3291 -0.7356
   57MOL0     C 7766   7.250   8.322  10.129  0.4046 -0.2749 -0.1700
   57MOL0     C 7767   7.135   8.326  10.234 -0.7063  0.1223  0.4212
   57MOL0     C 7768   7.011   8.253  10.174  0.3171  0.0264  0.1248
   57MOL0     C 7769   6.944   8.332  10.063 -0.6862  0.1590  0.7896
   57MOL0     C 7770   6.816   8.273   9.991  0.2452  0.3573  0.3489
   57MOL0     C 7771   6.760   8.378   9.894 -1.3370 -0.4790  0.2584
   57MOL0     C 7772   6.649   8.317   9.803  0.7836 -0.7870 -0.2977
   57MOL0    Cl 7773   6.569   8.445   9.710  0.6117 -0.1237 -0.2237
   57MOL0     C 7774   7.187   8.778  10.003 -0.2791  0.0531  0.1592
   57MOL0     C 7775   7.218   8.911   9.988 -1.2064 -0.5989 -0.0438
   57MOL0     O 7776   7.568   9.121  10.112 -0.3760  0.0824 -0.6158
   57MOL0     C 7777   7.404   9.367   9.935  0.5221  0.4363 -0.2380
   57MOL0     C 7778   7.406   9.502   9.909  0.0261  0.7266 -0.0016
   57MOL0     N 7779   7.034  10.063  10.162  0.0613  0.0092  0.8037
   57MOL0     N 7780   6.940   9.994  10.213  0.5393 -0.1733 -0.4967
   57MOL0     C 7781   7.032   8.813  10.314 -0.3149  0.2559 -0.1806
   57MOL0     C 7782   6.992   8.674  10.298  0.8988  0.0182 -0.1923
   57MOL0     C 7783   6.651   8.364  10.311  0.5630 -0.3121  0.8067
   57MOL0     C 7784   6.694   8.243  10.377 -0.2213 -0.4675 -0.0880
   57MOL0     C 7785   6.620   8.128  10.383  0.8822  0.5791  0.9401
   57MOL0     C 7786   6.499   8.125  10.330  0.8365  0.2351  0.1295
   57MOL0     O 7787   6.439   8.004  10.321  0.0979  0.5538  0.3686
   57MOL0     C 7788   6.374   7.943  10.436  0.3230 -0.6164  0.4492
   57MOL0     C 7789   6.270   7.843  10.397 -1.2940 -0.1016  0.7224
   57MOL0     C 7790   6.174   7.896  10.288 -0.1019 -0.3974 -0.7290
   57MOL0     C 7791   6.070   7.792  10.240  0.9717  1.4903  0.3161
   57MOL0     C 7792   6.136   7.679  10.168 -0.1055  0.2415 -0.1289
   57MOL0     C 7793   6.199   7.589  10.116  0.4952  0.5460  0.9522
   57MOL0     C 7794   6.442   8.240  10.280 -0.1566 -0.6649  0.1229
   57MOL0     C 7795   6.517   8.359  10.251  0.5830 -0.4019  0.2613
   57MOL0     C 7796   6.454   8.451  10.159 -0.1707  0.2617 -0.2761
   57MOL0     H 7797   6.814   8.642  10.588  0.4117  0.0756  0.0627
   57MOL0     H 7798   6.912   8.870  10.627  4.3229 -0.1802  1.4060
   57MOL0     H 7799   7.162   9.136  10.547 -0.9392 -0.2235 -1.3424
   57MOL0     H 7800   7.097   8.989  10.637 -2.6038 -0.5499  0.3844
   57MOL0     H 7801   6.857   9.113  10.596 -0.5031 -0.7573  0.2164
   57MOL0     H 7802   6.962   9.158  10.722 -0.1649  0.1420 -0.0996
   57MOL0     H 7803   6.914   9.373  10.656 -0.5851  1.9465 -1.4361
   57MOL0     H 7804   7.038   9.348  10.542 -0.6143  0.2236  0.1834
   57MOL0     H 7805   6.837   9.245  10.410 -4.2573  1.0291 -0.6427
   57MOL0     H 7806   6.732   9.331  10.508 -0.1477 -0.2352  0.9669
   57MOL0     H 7807   6.800   9.488  10.313  0.3845  0.9081 -0.6023
   57MOL0     H 7808   6.962   9.457  10.342 -0.0523 -2.1807 -0.3956
   57MOL0     H 7809   6.766   9.647  10.495  1.4300 -0.1735  1.0677
   57MOL0     H 7810   6.898   9.582  10.581 -2.0079  1.9701  0.9505
   57MOL0     H 7811   7.051   9.697  10.421  0.2830  0.4122  1.5088
   57MOL0     H 7812   6.931   9.808  10.478 -2.0760 -0.5522 -0.5701
   57MOL0     H 7813   6.919   9.663  10.203  0.2739  0.6867 -0.8910
   57MOL0     H 7814   6.799   9.777  10.270 -0.5473 -0.1685 -0.5227
   57MOL0     H 7815   7.164   9.759  10.144  0.5995  0.6457 -0.6546
   57MOL0     H 7816   7.319  10.076  10.160  0.9711 -0.1742 -0.9061
   57MOL0     H 7817   7.233  10.112  10.005 -1.6840 -2.1768 -1.2977
   57MOL0     H 7818   7.312   9.888   9.914  3.3393 -1.3301 -0.6996
   57MOL0     H 7819   7.431  10.019   9.939  1.7131 -0.9806  0.3902
   57MOL0     H 7820   7.462   9.892  10.172 -0.7335  0.3143  0.5020
   57MOL0     H 7821   7.371   9.762  10.097  0.7878  0.0054  0.0297
   57MOL0     H 7822   7.610   9.894   9.963 -3.5380  1.6563 -2.6808
   57MOL0     H 7823   7.634   9.760  10.071 -1.1484 -3.6669  0.1130
   57MOL0     H 7824   7.729   9.558   9.976  0.5686 -0.4478 -0.1495
   57MOL0     H 7825   7.779   9.305  10.157  2.6288  0.1325 -0.2938
   57MOL0     H 7826   7.846   9.372  10.010 -1.8883  2.1813  0.5724
   57MOL0     H 7827   7.780   9.208  10.011  0.8799 -0.7072  1.9278
   57MOL0     H 7828   7.524   8.883  10.154 -2.8484  2.1957  3.6119
   57MOL0     H 7829   7.461   8.672  10.166  0.0240 -0.7608 -2.3141
   57MOL0     H 7830   7.405   8.463  10.053  1.6044 -0.1689  1.5440
   57MOL0     H 7831   7.356   8.498  10.218 -2.4990  1.9925 -0.7528
   57MOL0     H 7832   7.221   8.298  10.026 -1.5986 -0.4396  0.3912
   57MOL0     H 7833   7.309   8.234  10.159 -0.9399 -0.9495  0.5740
   57MOL0     H 7834   7.093   8.423  10.261  0.2724 -0.0020  2.4813
   57MOL0     H 7835   7.174   8.267  10.317  0.0316  1.1160  0.7885
   57MOL0     H 7836   6.935   8.231  10.249 -0.0644 -0.6879 -0.4622
   57MOL0     H 7837   7.044   8.153  10.146 -0.5363 -0.0785 -0.5417
   57MOL0     H 7838   6.930   8.433  10.104  2.4848  0.4962  1.3378
   57MOL0     H 7839   7.020   8.343   9.986 -0.7320  2.2417  0.9829
   57MOL0     H 7840   6.750   8.258  10.077 -2.1073 -0.5653 -1.5292
   57MOL0     H 7841   6.829   8.178   9.939  1.0679  1.6284 -1.8728
   57MOL0     H 7842   6.847   8.390   9.829  2.6268 -4.3927  4.1120
   57MOL0     H 7843   6.733   8.471   9.946  1.1781  0.4203  0.0947
   57MOL0     H 7844   6.577   8.273   9.872 -2.4664  3.1824 -0.7831
   57MOL0     H 7845   6.694   8.232   9.750 -0.7932 -1.8650  0.0129
   57MOL0     H 7846   7.099   8.724   9.968 -0.5188 -0.3108  1.2757
   57MOL0     H 7847   7.151   8.973   9.929 -0.2958 -3.0431 -4.0333
   57MOL0     H 7848   7.306   9.324   9.947  1.9258 -2.5246  1.6047
   57MOL0     H 7849   7.334   9.569   9.863 -0.3235 -1.6697 -3.3199
   57MOL0     H 7850   7.100   8.862  10.245  0.2557  2.4907  1.8260
   57MOL0     H 7851   6.996   8.627  10.200 -3.0970 -1.2922  0.0653
   57MOL0     H 7852   6.790   8.247  10.428 -1.3471 -2.6700  2.4630
   57MOL0     H 7853   6.658   8.033  10.418  2.0538  0.5309 -0.3790
   57MOL0     H 7854   6.448   7.891  10.498  0.6745 -0.4600  0.1576
   57MOL0     H 7855   6.325   8.018  10.499  0.1475 -0.7240  0.4399
   57MOL0     H 7856   6.224   7.798  10.485  0.9402 -2.3431  0.8590
   57MOL0     H 7857   6.335   7.775  10.341  0.7311  1.6430  0.8475
   57MOL0     H 7858   6.116   7.980  10.327  3.1134  2.2708 -1.2695
   57MOL0     H 7859   6.225   7.927  10.197 -0.8870 -3.1749 -2.2485
   57MOL0     H 7860   6.000   7.830  10.165 -0.4759 -3.7621 -1.4285
   57MOL0     H 7861   6.012   7.760  10.327 -0.9160  0.0287 -1.3911
   57MOL0     H 7862   6.241   7.508  10.060 -1.9423  0.8972 -1.5886
   57MOL0     H 7863   6.344   8.234  10.233  0.6453  2.8219 -2.4183
   57MOL0     H 7864   6.428   8.540  10.216  2.8775  1.6447 -0.8811
   57MOL0     H 7865   6.529   8.481  10.085  0.3853 -2.2641 -0.8354
   57MOL0     H 7866   6.379   8.408  10.092  0.1685  2.3029 -2.0885
   58MOL0     O 7867   6.902   8.730   1.373  0.0991  0.4266  0.3958
   58MOL0     C 7868   6.966   8.678   1.285 -0.5238  0.1505 -0.3770
   58MOL0     O 7869   6.920   8.571   1.204 -0.2754 -0.2119  0.0755
   58MOL0     C 7870   6.790   8.539   1.221  0.0703 -0.2335 -0.2363
   58MOL0     C 7871   6.746   8.421   1.280  0.2757  0.1327 -0.2172
   58MOL0     C 7872   6.611   8.398   1.311  0.1972  0.1839 -0.2448
   58MOL0     C 7873   6.516   8.493   1.274 -0.3785 -0.1699  0.6418
   58MOL0     O 7874   6.388   8.482   1.319 -1.0092  0.3416  0.3681
   58MOL0     C 7875   6.309   8.371   1.282 -0.3943 -0.6108  0.0472
   58MOL0     C 7876   6.175   8.391   1.347  0.2361  0.8263 -0.1952
   58MOL0     C 7877   6.190   8.451   1.487  1.0173  0.5361  2.3580
   58MOL0     C 7878   6.061   8.441   1.561 -0.1648  0.9938  0.3062
   58MOL0     C 7879   6.039   8.315   1.646 -0.1571 -0.7794  0.0888
   58MOL0     C 7880   6.155   8.303   1.761  0.3599 -0.1347  0.9569
   58MOL0     C 7881   6.136   8.163   1.820  0.0620  0.0819 -0.0874
   58MOL0     C 7882   6.262   8.110   1.900 -0.6484 -0.3372  0.0657
   58MOL0     N 7883   6.375   8.068   1.808 -0.0330  0.2984  0.4291
   58MOL0     C 7884   6.466   8.142   1.737 -0.3741  0.0631 -0.1472
   58MOL0     C 7885   6.582   8.077   1.710  1.5490 -0.3722 -0.7263
   58MOL0     C 7886   6.697   8.133   1.639  1.0741 -0.1045  0.1280
   58MOL0     C 7887   6.828   8.054   1.659  0.3517 -1.0199 -0.4811
   58MOL0     C 7888   6.949   8.135   1.605 -0.2837  0.8009  0.4083
   58MOL0     C 7889   7.053   8.035   1.556  0.9118 -0.0063  0.1542
   58MOL0     O 7890   7.096   7.954   1.664  0.0517 -0.2571  0.4155
   58MOL0     C 7891   7.225   7.901   1.653  0.3686  0.0427  0.3653
   58MOL0     C 7892   7.285   7.867   1.769  0.0377 -0.2956 -1.2382
   58MOL0     C 7893   7.406   7.798   1.767  0.0609  0.4198  0.5358
   58MOL0     C 7894   7.451   7.753   1.901 -0.6450 -0.0597  0.0163
   58MOL0     C 7895   7.477   7.771   1.645 -0.1547  0.1535 -0.0146
   58MOL0     C 7896   7.601   7.702   1.627  0.3137  1.7058 -0.0587
   58MOL0     O 7897   7.633   7.664   1.500  0.1679 -0.0737 -0.2766
   58MOL0     C 7898   7.730   7.571   1.496 -0.1965  0.1684 -0.0463
   58MOL0     C 7899   7.843   7.596   1.421 -0.1006  0.3765 -0.2477
   58MOL0     C 7900   7.928   7.492   1.396 -0.6852  0.7954  0.0779
   58MOL0     C 7901   7.910   7.362   1.456 -1.2017 -0.2537  0.2431
   58MOL0     O 7902   8.001   7.262   1.448 -0.6541 -0.0786 -0.6655
   58MOL0     C 7903   8.099   7.266   1.558 -0.0036  0.3214 -1.0473
   58MOL0     C 7904   8.221   7.187   1.543 -0.4186  0.2070 -0.2667
   58MOL0     C 7905   8.212   7.043   1.487  0.4639 -0.2431  0.6751
   58MOL0     C 7906   8.136   6.950   1.581 -0.2821 -1.0881  0.6011
   58MOL0     C 7907   8.150   6.804   1.544 -0.8494  0.8888  0.8362
   58MOL0     C 7908   8.296   6.753   1.541 -0.4794  0.8493  0.3804
   58MOL0     C 7909   8.290   6.609   1.477  0.7228 -1.2311 -0.0103
   58MOL0     C 7910   8.418   6.544   1.445  0.5193  0.2682 -1.2403
   58MOL0    Cl 7911   8.511   6.538   1.599  0.2105 -0.3362  0.2735
   58MOL0     C 7912   7.799   7.339   1.531 -0.1518  0.0964  0.4006
   58MOL0     C 7913   7.713   7.442   1.557 -0.3122 -0.0926  0.1725
   58MOL0     O 7914   7.662   7.671   1.724 -0.0506  1.2999 -0.1024
   58MOL0     C 7915   7.411   7.818   1.523 -0.3996  0.5392  0.3985
   58MOL0     C 7916   7.291   7.883   1.530 -0.6389 -0.1443 -0.2738
   58MOL0     N 7917   6.565   7.955   1.777 -0.6150  0.6481  0.7799
   58MOL0     N 7918   6.450   7.957   1.827  0.7863 -0.0427  0.2603
   58MOL0     C 7919   6.557   8.612   1.218  1.4917  0.2111  0.3227
   58MOL0     C 7920   6.687   8.635   1.179 -0.5515  0.5221 -0.1416
   58MOL0     C 7921   7.105   8.730   1.267 -0.0138 -0.7140  0.0744
   58MOL0     C 7922   7.155   8.816   1.374  0.3783 -0.3354  0.0101
   58MOL0     C 7923   7.286   8.863   1.383  0.2048  0.6089 -0.3475
   58MOL0     C 7924   7.375   8.834   1.283 -0.8158 -0.6381  0.1988
   58MOL0     O 7925   7.506   8.872   1.274  0.2651 -0.2860 -0.0805
   58MOL0     C 7926   7.539   8.990   1.350 -0.4158  0.0586  0.1634
   58MOL0     C 7927   7.685   9.012   1.323  0.5682  0.1369  0.8130
   58MOL0     C 7928   7.712   9.030   1.168 -0.1938  0.1617  0.2695
   58MOL0     C 7929   7.861   9.029   1.144 -0.2974 -0.4648 -0.5891
   58MOL0     C 7930   7.886   9.103   1.024 -0.8452  0.7301 -0.0173
   58MOL0     C 7931   7.934   9.170   0.927 -0.3955 -0.5402 -0.4925
   58MOL0     C 7932   7.330   8.748   1.182 -0.9552  0.1861  0.4909
   58MOL0     C 7933   7.203   8.691   1.174  0.4286  0.1623 -0.1390
   58MOL0     C 7934   7.174   8.591   1.061  0.1293 -0.4925 -1.0427
   58MOL0     H 7935   6.820   8.346   1.306  0.3643 -0.1680 -1.3116
   58MOL0     H 7936   6.593   8.305   1.365  0.9246  0.1607 -0.0369
   58MOL0     H 7937   6.340   8.274   1.322  1.7438 -0.2645 -0.6324
   58MOL0     H 7938   6.304   8.349   1.175  1.0019  0.3186 -0.2438
   58MOL0     H 7939   6.115   8.462   1.290 -3.7459 -3.4165 -1.9092
   58MOL0     H 7940   6.118   8.298   1.345 -0.0230  0.9220  1.3348
   58MOL0     H 7941   6.278   8.403   1.532 -0.0045 -1.5436  2.2852
   58MOL0     H 7942   6.205   8.559   1.480 -0.0034  0.8322  4.1976
   58MOL0     H 7943   6.035   8.529   1.621  0.0762  2.3007 -1.4308
   58MOL0     H 7944   5.975   8.438   1.493 -0.5722 -2.4012  0.8011
   58MOL0     H 7945   6.042   8.229   1.578 -0.2682  0.1581 -1.1550
   58MOL0     H 7946   5.940   8.311   1.692 -1.7152 -3.2817 -3.0232
   58MOL0     H 7947   6.254   8.320   1.716  0.0063 -3.0011 -1.1501
   58MOL0     H 7948   6.153   8.378   1.841  2.3701  2.8525 -1.5184
   58MOL0     H 7949   6.109   8.085   1.748 -1.6805 -0.1297  0.7584
   58MOL0     H 7950   6.053   8.180   1.889  2.4047 -0.6447  3.1744
   58MOL0     H 7951   6.285   8.181   1.979 -0.4129 -1.4275  1.0046
   58MOL0     H 7952   6.220   8.023   1.951 -1.1696  0.2324  0.6109
   58MOL0     H 7953   6.450   8.246   1.711 -1.5401 -0.0137  0.1889
   58MOL0     H 7954   6.710   8.236   1.674 -1.7070  1.9538 -4.0497
   58MOL0     H 7955   6.676   8.153   1.534  1.2342  1.3868  0.3602
   58MOL0     H 7956   6.852   8.041   1.765  1.8848  0.5081 -0.5987
   58MOL0     H 7957   6.811   7.959   1.608 -2.2524 -2.0094  1.9653
   58MOL0     H 7958   6.929   8.212   1.530  3.2794 -0.1358 -1.7632
   58MOL0     H 7959   6.997   8.192   1.685 -2.8244  3.5920  0.1035
   58MOL0     H 7960   7.006   7.968   1.484  0.9541  0.2851 -0.1466
   58MOL0     H 7961   7.131   8.094   1.506  0.9974  0.1349  0.4477
   58MOL0     H 7962   7.249   7.885   1.870  2.7256 -3.0006  0.3842
   58MOL0     H 7963   7.448   7.644   1.903  0.4070 -0.0870  0.3530
   58MOL0     H 7964   7.392   7.786   1.986 -1.3166 -0.2913 -0.3485
   58MOL0     H 7965   7.556   7.775   1.919 -0.1438 -2.0837 -0.2529
   58MOL0     H 7966   7.856   7.694   1.377 -0.1141  1.6564  2.3749
   58MOL0     H 7967   8.023   7.516   1.349  0.8340  1.0994  3.0680
   58MOL0     H 7968   8.126   7.364   1.599  2.4919 -0.4009 -0.8317
   58MOL0     H 7969   8.042   7.221   1.639  0.4303  0.8046 -0.4706
   58MOL0     H 7970   8.297   7.233   1.479 -0.6032 -1.0233 -1.4020
   58MOL0     H 7971   8.256   7.185   1.647 -1.4055  2.2485  0.1558
   58MOL0     H 7972   8.310   7.012   1.450 -0.0286 -0.3371 -0.6057
   58MOL0     H 7973   8.152   7.048   1.395  1.9305  2.2328 -0.2339
   58MOL0     H 7974   8.031   6.980   1.587  0.4748  1.6837  2.1129
   58MOL0     H 7975   8.168   6.950   1.686 -1.4371 -0.7734  0.9672
   58MOL0     H 7976   8.097   6.740   1.614  0.3367 -3.2507 -1.7396
   58MOL0     H 7977   8.102   6.788   1.447  1.7237  1.9970 -0.7321
   58MOL0     H 7978   8.334   6.748   1.643  0.0626  0.0130  0.1507
   58MOL0     H 7979   8.353   6.809   1.466 -0.7044  0.7053  0.0988
   58MOL0     H 7980   8.223   6.600   1.391  0.8905  0.5069 -0.3541
   58MOL0     H 7981   8.247   6.542   1.552  2.0763 -1.4258  0.6396
   58MOL0     H 7982   8.477   6.599   1.370  1.2976  2.0102  0.5553
   58MOL0     H 7983   8.396   6.440   1.420  0.5299 -0.6023  1.9745
   58MOL0     H 7984   7.760   7.245   1.568 -1.7511  0.8107  0.6593
   58MOL0     H 7985   7.625   7.422   1.616  0.8272  0.6307  2.2147
   58MOL0     H 7986   7.462   7.824   1.428  0.3210  3.4559  0.8750
   58MOL0     H 7987   7.249   7.927   1.440  0.3446  0.1037 -0.6285
   58MOL0     H 7988   6.483   8.691   1.209 -0.1121 -0.4981  4.7019
   58MOL0     H 7989   6.725   8.725   1.131 -0.4361  0.2293 -0.6126
   58MOL0     H 7990   7.099   8.837   1.465  0.9920 -0.7932  0.4994
   58MOL0     H 7991   7.314   8.937   1.457  1.5397 -0.7867  0.6062
   58MOL0     H 7992   7.471   9.070   1.319 -2.0938 -0.3542  2.4303
   58MOL0     H 7993   7.531   8.990   1.459 -1.2331 -0.7827  0.1216
   58MOL0     H 7994   7.742   8.930   1.370  1.1870  0.1484  0.0939
   58MOL0     H 7995   7.706   9.107   1.373 -3.8563  1.2153  1.0459
   58MOL0     H 7996   7.669   8.950   1.107  1.9721 -1.3181  0.5490
   58MOL0     H 7997   7.672   9.131   1.158 -0.9474 -0.1039  0.5386
   58MOL0     H 7998   7.897   8.926   1.147 -0.4854 -0.5281 -0.4906
   58MOL0     H 7999   7.899   9.078   1.234 -0.2482  0.5019 -1.1263
   58MOL0     H 8000   7.958   9.221   0.836  0.5099  2.5699  1.3496
   58MOL0     H 8001   7.399   8.729   1.100 -0.7283  2.6289  0.0398
   58MOL0     H 8002   7.235   8.610   0.973 -0.5578  1.8325 -1.0781
   58MOL0     H 8003   7.191   8.487   1.091  3.2694  0.7049  1.9369
   58MOL0     H 8004   7.071   8.612   1.031  0.4904 -0.6177 -2.4421
   59MOL0     O 8005   4.015   0.055   4.147  0.2261  0.2703  0.6787
   59MOL0     C 8006   4.016   0.167   4.195 -0.2174 -0.6504 -0.2105
   59MOL0     O 8007   3.951   0.275   4.146 -0.1659  0.0057  0.0797
   59MOL0     C 8008   3.897   0.271   4.015  0.0112  0.1499 -0.5941
   59MOL0     C 8009   3.973   0.213   3.916 -0.8193  0.3109  0.3734
   59MOL0     C 8010   3.920   0.215   3.783  0.3802 -0.8365 -0.6105
   59MOL0     C 8011   3.789   0.264   3.756 -0.5601 -0.6258  0.9722
   59MOL0     O 8012   3.740   0.258   3.633  0.8776  0.1644  0.0049
   59MOL0     C 8013   3.603   0.239   3.609  0.2857 -0.5401  0.0760
   59MOL0     C 8014   3.587   0.177   3.475  0.5630 -0.2498 -0.7392
   59MOL0     C 8015   3.654   0.253   3.363  0.6505  0.9088  0.5476
   59MOL0     C 8016   3.593   0.215   3.224 -0.4052  0.0136 -0.5715
   59MOL0     C 8017   3.665   0.233   3.090 -0.9337  0.4456  0.6484
   59MOL0     C 8018   3.586   0.175   2.974  0.8549  0.1705 -0.2552
   59MOL0     C 8019   3.664   0.172   2.837 -0.1223  1.1792 -0.2151
   59MOL0     C 8020   3.569   0.165   2.717  0.1966 -0.2155 -0.6028
   59MOL0     N 8021   3.648   0.155   2.593 -0.1773 -0.3390 -0.7531
   59MOL0     C 8022   3.734   0.244   2.538 -0.5421  0.2598 -0.3258
   59MOL0     C 8023   3.794   0.172   2.441  0.3398 -0.1585 -0.6734
   59MOL0     C 8024   3.907   0.230   2.354 -0.8622  0.4558 -0.2435
   59MOL0     C 8025   4.043   0.238   2.432 -0.0467  0.0883  0.3424
   59MOL0     C 8026   4.105   0.097   2.429 -0.5426  0.2546 -0.6208
   59MOL0     C 8027   4.116   0.048   2.577 -0.5753 -0.0873 -0.0238
   59MOL0     O 8028   4.143  -0.095   2.579 -0.1696 -0.4095 -0.6031
   59MOL0     C 8029   4.070  -0.181   2.663  0.7497 -0.7408  0.5085
   59MOL0     C 8030   3.928  -0.166   2.677 -0.0495 -0.3218 -0.0282
   59MOL0     C 8031   3.859  -0.253   2.761  0.9999  0.0326  0.2597
   59MOL0     C 8032   3.724  -0.204   2.804  0.1043 -0.1110 -0.0436
   59MOL0     C 8033   3.930  -0.354   2.830  0.8782  0.6198  0.0873
   59MOL0     C 8034   3.866  -0.445   2.925  0.6603  0.1065  0.0755
   59MOL0     O 8035   3.941  -0.496   3.028 -0.5420  0.2340  0.8287
   59MOL0     C 8036   3.874  -0.579   3.112 -0.1592  0.0024  0.6068
   59MOL0     C 8037   3.802  -0.691   3.073  0.4855  0.7229 -0.1020
   59MOL0     C 8038   3.756  -0.777   3.173 -1.1222  0.3394  0.6884
   59MOL0     C 8039   3.785  -0.756   3.313  0.2470 -0.2525  0.5110
   59MOL0     O 8040   3.728  -0.835   3.412  0.2161 -0.8859  0.8405
   59MOL0     C 8041   3.612  -0.918   3.390 -0.0672 -0.1901  1.3140
   59MOL0     C 8042   3.546  -0.955   3.526 -0.5062 -0.4821 -0.1750
   59MOL0     C 8043   3.451  -1.072   3.519  0.0442 -0.0974 -0.2513
   59MOL0     C 8044   3.359  -1.069   3.638 -0.7313  1.5108  0.3549
   59MOL0     C 8045   3.274  -1.201   3.629 -0.2036 -0.0810 -0.4538
   59MOL0     C 8046   3.151  -1.178   3.721 -0.1614 -0.1867 -0.2755
   59MOL0     C 8047   3.070  -1.304   3.752 -0.3937 -0.0241 -0.1252
   59MOL0     C 8048   3.082  -1.328   3.903  0.1267 -0.5238 -0.1292
   59MOL0    Cl 8049   3.018  -1.494   3.926 -0.2413  0.2834 -0.2543
   59MOL0     C 8050   3.865  -0.659   3.343  0.1903 -0.8734 -0.4890
   59MOL0     C 8051   3.909  -0.563   3.249  0.2519 -0.8861 -0.1758
   59MOL0     O 8052   3.751  -0.482   2.896 -0.0829  0.8317 -0.5273
   59MOL0     C 8053   4.064  -0.365   2.810 -0.9862 -0.0134 -0.5851
   59MOL0     C 8054   4.135  -0.279   2.724  0.3821  0.1059 -0.0607
   59MOL0     N 8055   3.744   0.045   2.435 -0.1690  0.3737  0.2094
   59MOL0     N 8056   3.651   0.037   2.523 -0.0724 -0.4145  0.5687
   59MOL0     C 8057   3.713   0.315   3.862 -0.0667  0.2387  0.0460
   59MOL0     C 8058   3.766   0.321   3.985 -0.2522  0.1778 -0.3080
   59MOL0     C 8059   4.097   0.187   4.316  0.6712  0.1096 -0.1018
   59MOL0     C 8060   4.236   0.204   4.294  1.4876  0.5593  0.0445
   59MOL0     C 8061   4.317   0.221   4.407 -0.9724 -0.2838  0.3579
   59MOL0     C 8062   4.273   0.210   4.538  0.3654 -1.1818 -0.1700
   59MOL0     O 8063   4.349   0.221   4.652 -0.2837  0.2137 -0.5790
   59MOL0     C 8064   4.490   0.236   4.639  0.4136  0.1492  0.1226
   59MOL0     C 8065   4.558   0.236   4.774  0.1778  0.6117  0.6883
   59MOL0     C 8066   4.544   0.353   4.860  0.0886 -0.4968  0.9042
   59MOL0     C 8067   4.549   0.318   5.008 -0.1193 -0.5409 -0.5062
   59MOL0     C 8068   4.693   0.303   5.040  0.1816  0.2594 -0.3428
   59MOL0     C 8069   4.814   0.303   5.053  0.6910  0.7496 -0.5989
   59MOL0     C 8070   4.134   0.193   4.555 -0.1953  0.5564 -0.3089
   59MOL0     C 8071   4.043   0.198   4.446 -0.0407 -0.0151 -0.2809
   59MOL0     C 8072   3.903   0.222   4.469  0.2477 -0.0507  0.8236
   59MOL0     H 8073   4.075   0.184   3.939 -0.2288  1.8613 -0.1092
   59MOL0     H 8074   3.975   0.175   3.699 -1.2779  0.3578 -2.3297
   59MOL0     H 8075   3.547   0.332   3.614  1.5717  0.3771 -1.4652
   59MOL0     H 8076   3.548   0.184   3.685 -0.8638  0.6563  0.1448
   59MOL0     H 8077   3.612   0.071   3.486  0.3169 -0.0398  3.3124
   59MOL0     H 8078   3.480   0.183   3.454  0.1609 -2.4894  0.3357
   59MOL0     H 8079   3.649   0.361   3.379  1.6792  0.8280  1.5138
   59MOL0     H 8080   3.755   0.213   3.371 -0.6129 -2.9883 -0.8202
   59MOL0     H 8081   3.561   0.110   3.233  0.4344 -0.2001  0.0421
   59MOL0     H 8082   3.510   0.287   3.223  2.0445  3.2414  2.7275
   59MOL0     H 8083   3.761   0.182   3.104 -2.0921 -1.7681  1.0764
   59MOL0     H 8084   3.668   0.339   3.065 -2.2532  0.3477 -0.0158
   59MOL0     H 8085   3.557   0.071   2.988  4.9409 -1.0114  0.5678
   59MOL0     H 8086   3.497   0.237   2.961 -1.8011 -3.3085 -0.0170
   59MOL0     H 8087   3.729   0.085   2.834 -0.6955  0.5569  2.6363
   59MOL0     H 8088   3.723   0.264   2.829 -0.1487  1.2616  0.5100
   59MOL0     H 8089   3.494   0.087   2.733 -0.7534  0.6557 -0.6277
   59MOL0     H 8090   3.511   0.258   2.717  2.5418  1.4206  2.4869
   59MOL0     H 8091   3.756   0.345   2.572 -0.0923 -0.1267  0.5918
   59MOL0     H 8092   3.883   0.331   2.318  0.0066  0.8123  0.1526
   59MOL0     H 8093   3.923   0.175   2.261  2.3855  2.0783 -0.7931
   59MOL0     H 8094   4.112   0.305   2.380 -3.2445  2.2688 -1.4192
   59MOL0     H 8095   4.034   0.284   2.531  0.2824 -1.8152  1.3097
   59MOL0     H 8096   4.049   0.023   2.372  1.1710 -0.3057 -1.6490
   59MOL0     H 8097   4.207   0.099   2.390  0.1792 -2.2326  0.8700
   59MOL0     H 8098   4.198   0.101   2.627 -1.1062  0.1432  0.6182
   59MOL0     H 8099   4.029   0.085   2.631 -1.8780  0.3864 -2.3275
   59MOL0     H 8100   3.877  -0.084   2.628  0.4484 -0.6365 -1.1048
   59MOL0     H 8101   3.684  -0.117   2.752 -1.2744 -0.5369  0.2570
   59MOL0     H 8102   3.731  -0.188   2.912  1.3083  0.6120 -0.2121
   59MOL0     H 8103   3.651  -0.284   2.789 -0.9215  0.3378  2.1000
   59MOL0     H 8104   3.771  -0.700   2.969 -3.6997 -0.2398  1.0513
   59MOL0     H 8105   3.712  -0.867   3.131  1.4550 -0.7953  0.2030
   59MOL0     H 8106   3.529  -0.861   3.345 -0.0989 -2.3585 -1.6290
   59MOL0     H 8107   3.639  -1.005   3.330  0.1374 -1.6015  3.3633
   59MOL0     H 8108   3.631  -0.976   3.592  1.0404  1.6134 -1.3377
   59MOL0     H 8109   3.498  -0.866   3.567 -0.2911 -1.0144  1.3167
   59MOL0     H 8110   3.486  -1.175   3.509 -2.5820 -1.3455  2.1308
   59MOL0     H 8111   3.395  -1.059   3.426 -0.3786  2.1886  0.2814
   59MOL0     H 8112   3.291  -0.984   3.629 -2.4202  0.0002 -2.3912
   59MOL0     H 8113   3.412  -1.073   3.734 -2.2597 -0.3738  1.2139
   59MOL0     H 8114   3.231  -1.214   3.530  2.9098 -3.1493 -1.5878
   59MOL0     H 8115   3.336  -1.282   3.668 -1.0119 -0.8028 -0.6403
   59MOL0     H 8116   3.091  -1.095   3.681 -0.6931  1.6168  3.8158
   59MOL0     H 8117   3.178  -1.142   3.820 -0.7211 -0.2493 -0.0978
   59MOL0     H 8118   3.106  -1.395   3.703 -1.8104 -1.8736  2.0888
   59MOL0     H 8119   2.966  -1.280   3.728 -0.6200 -1.2380 -0.4540
   59MOL0     H 8120   3.024  -1.259   3.966  4.0250  1.2587  1.8474
   59MOL0     H 8121   3.185  -1.332   3.939  0.3869  1.6389 -0.5196
   59MOL0     H 8122   3.888  -0.664   3.449 -1.7489  0.8422  0.0656
   59MOL0     H 8123   3.981  -0.492   3.288 -1.7552  1.4241 -0.4717
   59MOL0     H 8124   4.126  -0.450   2.840 -1.9774 -0.8651 -0.9092
   59MOL0     H 8125   4.242  -0.295   2.718  0.6351 -0.7290  3.8643
   59MOL0     H 8126   3.612   0.350   3.846 -0.9066 -0.8901  2.3972
   59MOL0     H 8127   3.717   0.369   4.070  0.9746  1.1464 -0.1235
   59MOL0     H 8128   4.272   0.202   4.192 -1.4229 -0.1664 -1.0782
   59MOL0     H 8129   4.424   0.230   4.394 -1.2237  2.7306 -0.0998
   59MOL0     H 8130   4.531   0.154   4.580 -2.4628 -1.4414  0.1550
   59MOL0     H 8131   4.511   0.333   4.592  0.5446  0.7810  1.4323
   59MOL0     H 8132   4.665   0.229   4.751  0.3548 -1.4848  1.8605
   59MOL0     H 8133   4.545   0.146   4.834  4.0747 -0.8490 -0.3554
   59MOL0     H 8134   4.611   0.435   4.832  0.6350 -1.6299 -1.3057
   59MOL0     H 8135   4.449   0.400   4.833  0.9402 -0.7655 -3.1052
   59MOL0     H 8136   4.499   0.224   5.033  1.1283 -0.6153  2.0323
   59MOL0     H 8137   4.509   0.398   5.071  0.3733 -0.6174 -0.0924
   59MOL0     H 8138   4.919   0.289   5.073  0.8334 -0.5480 -2.0415
   59MOL0     H 8139   4.103   0.199   4.659  1.1628 -2.2584  0.3509
   59MOL0     H 8140   3.858   0.130   4.507 -0.2202  0.1888  0.8598
   59MOL0     H 8141   3.879   0.294   4.548  0.2805 -0.7177  1.4510
   59MOL0     H 8142   3.849   0.274   4.389 -0.4968  1.9783  2.5588
   60MOL0     O 8143   3.342   9.458   3.638 -0.2432  0.1100 -0.4603
   60MOL0     C 8144   3.232   9.521   3.647 -0.9739 -0.8368  0.5260
   60MOL0     O 8145   3.224   9.657   3.679 -0.1630 -0.4199  1.0000
   60MOL0     C 8146   3.334   9.737   3.644 -0.2145  0.9047 -1.1254
   60MOL0     C 8147   3.393   9.734   3.520  0.6070  0.3533 -0.1792
   60MOL0     C 8148   3.487   9.830   3.489  0.5291 -0.2832  0.5595
   60MOL0     C 8149   3.516   9.937   3.569 -0.3499 -0.7882 -0.3341
   60MOL0     O 8150   3.578  10.051   3.522 -0.0549 -0.4915 -0.6341
   60MOL0     C 8151   3.702  10.046   3.451 -0.3759 -0.5123  0.3726
   60MOL0     C 8152   3.766  10.183   3.418 -1.0393  0.2659  1.1184
   60MOL0     C 8153   3.919  10.160   3.375  0.1364  0.6139  0.9326
   60MOL0     C 8154   3.956  10.293   3.306  0.5113 -0.3238 -0.1574
   60MOL0     C 8155   4.107  10.317   3.273 -0.1766 -0.2805  0.5278
   60MOL0     C 8156   4.140  10.263   3.136 -0.0030  0.5519 -0.8104
   60MOL0     C 8157   4.256  10.161   3.138  0.0684 -0.6458  1.1372
   60MOL0     C 8158   4.285  10.114   2.994 -0.5947  0.0540  0.1962
   60MOL0     N 8159   4.297  10.216   2.888  0.1872 -0.9520 -0.2190
   60MOL0     C 8160   4.411  10.277   2.854 -0.4704  0.1547  0.7984
   60MOL0     C 8161   4.379  10.368   2.753  0.2112 -0.6479  0.1770
   60MOL0     C 8162   4.471  10.471   2.683 -0.0341  1.1065 -0.8018
   60MOL0     C 8163   4.617  10.467   2.737 -0.1174 -0.4206  0.0866
   60MOL0     C 8164   4.702  10.343   2.695  0.6906 -0.8138  0.0677
   60MOL0     C 8165   4.854  10.338   2.724  0.0493  0.5403  0.3518
   60MOL0     O 8166   4.914  10.466   2.708 -0.2432 -0.8069  0.7577
   60MOL0     C 8167   4.991  10.482   2.596  0.2717 -0.7995 -0.2261
   60MOL0     C 8168   4.966  10.416   2.476  0.3204 -0.0511  0.3360
   60MOL0     C 8169   5.045  10.439   2.366  0.0213  0.0498  0.4021
   60MOL0     C 8170   5.008  10.360   2.242  0.3281  0.2385  0.0525
   60MOL0     C 8171   5.165  10.516   2.379  0.0448  0.1284 -0.0474
   60MOL0     C 8172   5.260  10.530   2.263  0.2372  0.4194 -0.1676
   60MOL0     O 8173   5.366  10.613   2.293  0.2668 -0.6113  0.1405
   60MOL0     C 8174   5.431  10.662   2.182 -0.1200 -0.5011 -0.1168
   60MOL0     C 8175   5.455  10.796   2.190  0.4140  0.1347  0.1333
   60MOL0     C 8176   5.546  10.848   2.097 -0.3177  0.7420 -0.3081
   60MOL0     C 8177   5.605  10.776   1.989 -0.4109 -0.0715 -0.3996
   60MOL0     O 8178   5.697  10.846   1.915 -0.6198  0.0292 -1.3687
   60MOL0     C 8179   5.761  10.758   1.826 -0.6385 -0.5326 -0.9762
   60MOL0     C 8180   5.834  10.847   1.720 -0.1132 -0.2766 -0.7559
   60MOL0     C 8181   5.743  10.964   1.677  0.7597 -0.8727  0.0607
   60MOL0     C 8182   5.616  10.929   1.595 -0.3405  0.1757  1.2738
   60MOL0     C 8183   5.487  11.014   1.620  0.9867  0.3987  0.9800
   60MOL0     C 8184   5.422  10.988   1.753  0.9776 -0.6805 -1.0428
   60MOL0     C 8185   5.265  10.986   1.760 -0.0257 -0.6746  0.8378
   60MOL0     C 8186   5.212  10.968   1.899  0.8519 -0.0215  0.4296
   60MOL0    Cl 8187   5.266  11.096   2.000 -0.0409 -0.0212 -0.3892
   60MOL0     C 8188   5.578  10.634   1.988 -1.0157  1.2216 -0.3001
   60MOL0     C 8189   5.499  10.584   2.088 -0.3265  0.6366  0.5494
   60MOL0     O 8190   5.244  10.479   2.151 -0.0434 -0.0796 -0.1736
   60MOL0     C 8191   5.189  10.578   2.500 -0.1847  0.3581 -0.4963
   60MOL0     C 8192   5.108  10.559   2.608  0.2269 -0.5331 -0.0744
   60MOL0     N 8193   4.245  10.359   2.724 -0.2129  0.3393  0.0417
   60MOL0     N 8194   4.204  10.259   2.803 -0.2566  0.5935 -1.5723
   60MOL0     C 8195   3.456   9.941   3.698 -0.3453  0.0405  0.3728
   60MOL0     C 8196   3.365   9.844   3.734  0.1086  0.3432  0.2372
   60MOL0     C 8197   3.095   9.451   3.650 -0.3735  0.6289 -0.2839
   60MOL0     C 8198   3.083   9.332   3.588 -0.1001  0.1590  0.4970
   60MOL0     C 8199   2.969   9.250   3.586 -0.0819 -0.3392 -0.1316
   60MOL0     C 8200   2.853   9.288   3.659  0.6038 -0.1886 -1.3133
   60MOL0     O 8201   2.738   9.217   3.645 -0.4411  0.4118 -0.8193
   60MOL0     C 8202   2.718   9.130   3.758 -0.5866 -0.2785 -0.0761
   60MOL0     C 8203   2.570   9.096   3.764 -0.3478  0.7164  0.3185
   60MOL0     C 8204   2.487   9.216   3.823  1.2035 -0.0319  0.1510
   60MOL0     C 8205   2.339   9.171   3.853  0.0374 -0.8709  0.3222
   60MOL0     C 8206   2.262   9.147   3.737  0.0859  0.2156 -1.1677
   60MOL0     C 8207   2.213   9.122   3.628  1.4155 -0.6559 -0.5594
   60MOL0     C 8208   2.857   9.402   3.733 -0.5507  0.1106 -0.3872
   60MOL0     C 8209   2.975   9.485   3.722  0.3665 -0.0440  0.5359
   60MOL0     C 8210   2.973   9.610   3.800 -0.6739  0.1806  0.4667
   60MOL0     H 8211   3.363   9.656   3.450 -0.8877 -0.0961  0.8889
   60MOL0     H 8212   3.527   9.835   3.388  0.1155  1.0887  0.4403
   60MOL0     H 8213   3.688  10.004   3.351  1.2787 -0.2328 -0.0089
   60MOL0     H 8214   3.776   9.977   3.493 -1.7085 -3.7766 -2.1272
   60MOL0     H 8215   3.704  10.231   3.342 -2.0172  2.2613  3.0450
   60MOL0     H 8216   3.762  10.252   3.503 -3.1391  2.4838 -0.6544
   60MOL0     H 8217   3.986  10.142   3.460  0.2783  0.4017  0.7780
   60MOL0     H 8218   3.921  10.078   3.302  0.1278 -0.4515  2.1056
   60MOL0     H 8219   3.901  10.301   3.212 -3.5656  2.5479  2.1487
   60MOL0     H 8220   3.915  10.380   3.358  0.1950 -0.5528 -0.0239
   60MOL0     H 8221   4.173  10.268   3.345 -0.6043  0.0887  1.1738
   60MOL0     H 8222   4.136  10.423   3.274  2.7207 -0.9771  0.5462
   60MOL0     H 8223   4.055  10.204   3.100  0.6933 -3.2760  3.0715
   60MOL0     H 8224   4.153  10.344   3.063 -1.4059  1.4454 -0.1333
   60MOL0     H 8225   4.229  10.082   3.208 -2.8348 -1.3271 -0.5717
   60MOL0     H 8226   4.348  10.209   3.174  1.1169 -1.3834 -0.4158
   60MOL0     H 8227   4.378  10.056   2.984 -0.1661  0.9696 -1.5120
   60MOL0     H 8228   4.196  10.058   2.963 -3.1073  1.3180  4.3317
   60MOL0     H 8229   4.505  10.263   2.907  0.5075  1.3881 -0.5022
   60MOL0     H 8230   4.439  10.571   2.712  2.0469  0.4181  5.3187
   60MOL0     H 8231   4.472  10.458   2.574  0.3042 -2.2762 -0.5245
   60MOL0     H 8232   4.665  10.553   2.689 -0.4740  1.0596  2.2169
   60MOL0     H 8233   4.623  10.489   2.844 -2.7762  0.8940  0.0616
   60MOL0     H 8234   4.659  10.262   2.755 -0.7819  0.6846  1.1425
   60MOL0     H 8235   4.689  10.339   2.586 -0.1309  1.8756 -0.0218
   60MOL0     H 8236   4.874  10.292   2.821  1.7833  0.4877 -0.0017
   60MOL0     H 8237   4.898  10.265   2.657 -2.0698 -1.2587  0.8040
   60MOL0     H 8238   4.881  10.350   2.458  0.5965 -0.8193  1.7101
   60MOL0     H 8239   4.919  10.300   2.265 -2.2625  2.6897 -2.6833
   60MOL0     H 8240   5.094  10.295   2.226  0.8894  0.8323  0.5825
   60MOL0     H 8241   4.981  10.414   2.151 -0.5896  0.6377  0.5477
   60MOL0     H 8242   5.406  10.860   2.263  2.1761  2.2326 -0.3841
   60MOL0     H 8243   5.580  10.948   2.120  0.6465 -0.0680  2.0593
   60MOL0     H 8244   5.831  10.692   1.878 -0.4595 -0.2385 -0.8347
   60MOL0     H 8245   5.688  10.700   1.769 -1.6261  0.4994 -0.8040
   60MOL0     H 8246   5.927  10.892   1.757 -0.9603  1.6646 -0.8873
   60MOL0     H 8247   5.874  10.794   1.633  0.9032 -0.5180 -0.1634
   60MOL0     H 8248   5.810  11.038   1.633  0.6388  1.8798  4.0358
   60MOL0     H 8249   5.713  11.021   1.765  2.0978  1.7865 -1.0864
   60MOL0     H 8250   5.591  10.823   1.608  0.4814  0.0648  2.0347
   60MOL0     H 8251   5.645  10.944   1.490  0.3624  0.4673  1.5027
   60MOL0     H 8252   5.500  11.123   1.612 -0.2161  0.4933  0.0030
   60MOL0     H 8253   5.426  10.977   1.537 -1.6932  1.3198  2.4124
   60MOL0     H 8254   5.449  11.068   1.822 -0.4899 -0.1749 -1.0096
   60MOL0     H 8255   5.449  10.886   1.779  3.7538  0.2772  0.2067
   60MOL0     H 8256   5.230  10.897   1.707 -1.9642  1.4529 -1.7191
   60MOL0     H 8257   5.229  11.081   1.719 -2.3052 -1.8625 -0.1028
   60MOL0     H 8258   5.249  10.871   1.935  2.7876  0.5396  0.1002
   60MOL0     H 8259   5.104  10.957   1.907  0.7803  0.6952  0.5007
   60MOL0     H 8260   5.619  10.556   1.925 -1.6516  0.2136  0.4914
   60MOL0     H 8261   5.490  10.477   2.103  3.6607  0.0921  0.0363
   60MOL0     H 8262   5.280  10.636   2.502  0.7225 -0.9936 -1.0202
   60MOL0     H 8263   5.137  10.616   2.695 -3.0490 -0.2233  0.9287
   60MOL0     H 8264   3.500  10.012   3.768  3.8723 -1.7174 -0.1735
   60MOL0     H 8265   3.306   9.850   3.825  1.8256  1.9638  1.3160
   60MOL0     H 8266   3.173   9.283   3.552  0.9739  0.9429  1.9819
   60MOL0     H 8267   2.967   9.161   3.524  0.9834  0.1668 -0.9250
   60MOL0     H 8268   2.772   9.038   3.735 -1.1995 -0.3737 -1.2726
   60MOL0     H 8269   2.754   9.175   3.851  1.6960 -1.0238 -0.5527
   60MOL0     H 8270   2.557   9.002   3.818  1.2519 -0.9495 -2.0058
   60MOL0     H 8271   2.542   9.091   3.658 -1.9114  1.1812  0.6894
   60MOL0     H 8272   2.515   9.252   3.923 -2.5095  2.8237  0.3964
   60MOL0     H 8273   2.489   9.295   3.748 -2.8173  1.6935  1.5920
   60MOL0     H 8274   2.279   9.246   3.906  2.1657  2.5951 -1.7673
   60MOL0     H 8275   2.345   9.077   3.908 -0.1117 -1.7442 -1.0821
   60MOL0     H 8276   2.162   9.098   3.537 -2.3011  3.1035  0.2389
   60MOL0     H 8277   2.767   9.442   3.779 -0.5332  1.0029 -1.0866
   60MOL0     H 8278   2.879   9.625   3.855 -2.0136 -0.4955 -1.5368
   60MOL0     H 8279   3.051   9.608   3.877 -0.1279  1.0553 -0.0467
   60MOL0     H 8280   2.988   9.694   3.732  4.0920  1.0991  2.2377
   61MOL0     O 8281  10.292   0.005   9.742 -0.0411  0.4007  0.0006
   61MOL0     C 8282  10.166   0.012   9.750  0.1665  0.1325 -0.4674
   61MOL0     O 8283  10.084   0.095   9.671 -0.2116  0.1443  0.2161
   61MOL0     C 8284  10.133   0.183   9.579  0.4159 -0.6753  0.0961
   61MOL0     C 8285  10.248   0.259   9.606 -0.1134  0.3269  0.0698
   61MOL0     C 8286  10.297   0.358   9.514 -0.9469 -0.3071 -0.8115
   61MOL0     C 8287  10.231   0.377   9.388 -0.0717 -0.1594 -0.5663
   61MOL0     O 8288  10.281   0.475   9.311 -0.5244  0.4189 -0.4162
   61MOL0     C 8289  10.271   0.455   9.169 -0.2340  0.4572 -0.3267
   61MOL0     C 8290  10.350   0.568   9.107  0.1941 -0.8009 -0.5008
   61MOL0     C 8291  10.410   0.529   8.971  0.0296  0.2402  0.0395
   61MOL0     C 8292  10.307   0.512   8.856  1.2660 -0.5203  0.3535
   61MOL0     C 8293  10.362   0.460   8.729 -0.2127  0.7206 -0.9677
   61MOL0     C 8294  10.388   0.309   8.746 -0.6511 -0.4622  0.8868
   61MOL0     C 8295  10.411   0.251   8.604  0.6806  1.1225  0.0035
   61MOL0     C 8296  10.363   0.100   8.584 -0.3160 -0.4928 -0.0894
   61MOL0     N 8297  10.462   0.000   8.610  0.2987  0.3379 -0.5100
   61MOL0     C 8298  10.577  -0.007   8.526  0.6852 -0.4193  0.0212
   61MOL0     C 8299  10.630  -0.125   8.567 -1.4957 -0.2609 -0.4005
   61MOL0     C 8300  10.762  -0.201   8.547  0.0707 -0.1660 -0.4795
   61MOL0     C 8301  10.733  -0.344   8.519 -0.2635  0.0062  0.7607
   61MOL0     C 8302  10.856  -0.428   8.465  0.3117  0.5103 -0.3096
   61MOL0     C 8303  10.971  -0.415   8.568 -0.0006  0.3735  0.4768
   61MOL0     O 8304  11.087  -0.488   8.520 -0.4118  0.2956  0.1609
   61MOL0     C 8305  11.165  -0.548   8.610 -0.4440 -0.5677 -0.1886
   61MOL0     C 8306  11.260  -0.628   8.555 -0.7286  1.1110 -0.7306
   61MOL0     C 8307  11.358  -0.693   8.631  0.8927  0.3394  0.1882
   61MOL0     C 8308  11.452  -0.791   8.557 -0.0295 -0.1620  0.0152
   61MOL0     C 8309  11.338  -0.690   8.774  0.1983 -0.2677 -0.0487
   61MOL0     C 8310  11.442  -0.760   8.864  0.4071  1.0958 -0.1044
   61MOL0     O 8311  11.394  -0.778   8.987 -0.2048  0.1366 -0.3244
   61MOL0     C 8312  11.463  -0.854   9.079  0.1125  0.4143  0.3279
   61MOL0     C 8313  11.396  -0.963   9.129 -0.9453 -0.2804 -0.8156
   61MOL0     C 8314  11.469  -1.061   9.204 -0.5799  0.0048  0.0288
   61MOL0     C 8315  11.608  -1.040   9.240  0.1517 -0.7286 -0.1107
   61MOL0     O 8316  11.659  -1.146   9.309  0.0744  0.0242 -0.5290
   61MOL0     C 8317  11.593  -1.216   9.413  0.8562  0.7075 -0.3906
   61MOL0     C 8318  11.679  -1.246   9.533 -0.5860  0.3931  0.0902
   61MOL0     C 8319  11.814  -1.289   9.513  0.6061  0.1748  0.4581
   61MOL0     C 8320  11.884  -1.348   9.639 -0.8102  0.9291  0.3975
   61MOL0     C 8321  12.014  -1.436   9.599  0.1425  0.2288 -0.3751
   61MOL0     C 8322  12.130  -1.362   9.530 -0.5237  0.0020  0.0183
   61MOL0     C 8323  12.177  -1.233   9.601 -0.4976 -0.1258 -0.5493
   61MOL0     C 8324  12.312  -1.194   9.532  0.3024 -0.2114 -0.2083
   61MOL0    Cl 8325  12.289  -1.027   9.515  0.4223 -0.8388 -0.1609
   61MOL0     C 8326  11.669  -0.928   9.193 -1.4100 -1.0984  0.2049
   61MOL0     C 8327  11.595  -0.829   9.127 -0.3131  0.1682 -0.1259
   61MOL0     O 8328  11.560  -0.787   8.827 -0.8549  1.0978  0.0870
   61MOL0     C 8329  11.239  -0.605   8.831 -0.5580  0.7696 -0.0148
   61MOL0     C 8330  11.158  -0.530   8.746  0.2747 -0.4449  0.4059
   61MOL0     N 8331  10.559  -0.173   8.671 -0.1532 -0.0767  0.2517
   61MOL0     N 8332  10.456  -0.104   8.697  0.2826 -0.5226 -0.2420
   61MOL0     C 8333  10.123   0.295   9.360  0.7681  0.5398  0.2065
   61MOL0     C 8334  10.076   0.201   9.451  0.2334 -0.4656  0.0278
   61MOL0     C 8335  10.091  -0.070   9.856 -0.4420 -0.1770  0.6806
   61MOL0     C 8336   9.954  -0.098   9.838 -0.2150  0.9493  0.2378
   61MOL0     C 8337   9.881  -0.167   9.927  0.3643  0.4293  0.2338
   61MOL0     C 8338   9.933  -0.195  10.051  0.3149  0.4181  0.0110
   61MOL0     O 8339   9.840  -0.241  10.146 -0.0944  0.2219 -0.4342
   61MOL0     C 8340   9.878  -0.252  10.284  0.2436 -0.2123 -0.0478
   61MOL0     C 8341   9.893  -0.110  10.352 -0.6769  0.7739 -0.0518
   61MOL0     C 8342   9.763  -0.027  10.360  0.0398 -0.6617 -0.7825
   61MOL0     C 8343   9.794   0.074  10.471 -0.4945 -0.1704 -1.3227
   61MOL0     C 8344   9.679   0.166  10.474 -0.1548  0.1783 -0.2969
   61MOL0     C 8345   9.586   0.237  10.493 -1.1021 -0.4001  0.4984
   61MOL0     C 8346  10.071  -0.180  10.069 -0.3217 -0.2475  0.1024
   61MOL0     C 8347  10.151  -0.122   9.973 -0.5098  0.4639  0.2428
   61MOL0     C 8348  10.294  -0.098  10.012 -0.2288  0.0974  1.0030
   61MOL0     H 8349  10.298   0.247   9.701  0.0732  2.0529  0.2334
   61MOL0     H 8350  10.388   0.414   9.529 -2.5069  2.0629  0.4549
   61MOL0     H 8351  10.167   0.461   9.138 -1.1681 -1.7571  2.0084
   61MOL0     H 8352  10.311   0.357   9.140  2.4989  1.3526  0.0796
   61MOL0     H 8353  10.288   0.657   9.098  0.3728 -0.5918  0.2681
   61MOL0     H 8354  10.442   0.601   9.156  2.1431 -2.0336 -3.0670
   61MOL0     H 8355  10.480   0.608   8.946 -1.1308  3.3285  5.1900
   61MOL0     H 8356  10.467   0.436   8.979 -1.0575 -0.4253  0.3031
   61MOL0     H 8357  10.223   0.450   8.890  0.6338  0.3425  0.3941
   61MOL0     H 8358  10.276   0.616   8.838 -0.7293 -1.0044  0.7510
   61MOL0     H 8359  10.448   0.516   8.691  0.3458  0.2108 -0.4522
   61MOL0     H 8360  10.287   0.485   8.653  0.5875  0.1841 -1.9405
   61MOL0     H 8361  10.478   0.299   8.808 -0.3754  1.0784  0.7741
   61MOL0     H 8362  10.299   0.274   8.798 -2.7545  1.1570 -1.3655
   61MOL0     H 8363  10.516   0.259   8.575  0.5077 -1.2873 -1.5905
   61MOL0     H 8364  10.352   0.307   8.531  0.8476  1.2617 -0.0255
   61MOL0     H 8365  10.275   0.085   8.648  0.1468 -1.4722  0.3359
   61MOL0     H 8366  10.331   0.086   8.480  0.2421 -0.8768 -0.2150
   61MOL0     H 8367  10.618   0.047   8.442  0.5936 -2.5703 -1.4830
   61MOL0     H 8368  10.836  -0.186   8.626  1.9380  0.2664 -2.2295
   61MOL0     H 8369  10.816  -0.164   8.459 -1.2660  0.8513 -0.9230
   61MOL0     H 8370  10.692  -0.389   8.609  0.7381  1.1240  1.8159
   61MOL0     H 8371  10.654  -0.354   8.445 -0.9144  1.8755  1.1565
   61MOL0     H 8372  10.820  -0.531   8.450 -1.1608  1.1420 -1.4356
   61MOL0     H 8373  10.887  -0.401   8.364 -1.2646  0.3963 -0.8594
   61MOL0     H 8374  11.001  -0.309   8.572 -0.9141  0.9499 -3.6477
   61MOL0     H 8375  10.927  -0.448   8.663 -5.8041  2.5106 -1.0110
   61MOL0     H 8376  11.256  -0.623   8.446  1.1751  2.4113 -0.7852
   61MOL0     H 8377  11.431  -0.797   8.450  1.2603  3.4537 -0.5686
   61MOL0     H 8378  11.448  -0.892   8.600  0.6720  0.0506  0.5969
   61MOL0     H 8379  11.556  -0.760   8.571 -0.4875  1.5051 -0.0851
   61MOL0     H 8380  11.289  -0.971   9.109 -0.9658 -3.4099  0.0089
   61MOL0     H 8381  11.408  -1.145   9.233  0.8040 -0.8195  0.6916
   61MOL0     H 8382  11.503  -1.171   9.455  0.1414 -0.8717 -0.1412
   61MOL0     H 8383  11.561  -1.309   9.363  0.8903 -0.7463  2.1356
   61MOL0     H 8384  11.697  -1.149   9.581  0.0971  1.6283 -2.4825
   61MOL0     H 8385  11.638  -1.313   9.610 -1.0725  2.2661  1.5505
   61MOL0     H 8386  11.876  -1.209   9.472 -0.5521  0.2115 -1.3422
   61MOL0     H 8387  11.804  -1.365   9.435 -1.1026  1.6915 -0.8861
   61MOL0     H 8388  11.826  -1.419   9.698  1.3317 -0.7103  0.6872
   61MOL0     H 8389  11.911  -1.266   9.706 -2.9868  1.3641  0.8064
   61MOL0     H 8390  12.060  -1.469   9.692 -2.7583 -1.5267  0.5711
   61MOL0     H 8391  11.979  -1.528   9.552  0.7199 -0.2110  0.0448
   61MOL0     H 8392  12.091  -1.328   9.434  0.5814  2.8194  0.4485
   61MOL0     H 8393  12.218  -1.427   9.524  1.6268  2.3433  2.9872
   61MOL0     H 8394  12.206  -1.239   9.706 -1.3796  0.5276 -0.2526
   61MOL0     H 8395  12.095  -1.164   9.579 -2.2599 -2.1062 -0.4638
   61MOL0     H 8396  12.324  -1.233   9.431  0.5745 -1.0265  0.1317
   61MOL0     H 8397  12.402  -1.218   9.589  2.3001  3.5410 -1.4357
   61MOL0     H 8398  11.769  -0.912   9.234 -2.2942 -0.3591  2.2398
   61MOL0     H 8399  11.652  -0.743   9.091  2.0901 -1.1104  0.3836
   61MOL0     H 8400  11.241  -0.592   8.939 -3.4517 -1.1129  0.4153
   61MOL0     H 8401  11.082  -0.473   8.799 -0.4616 -2.8567  2.1259
   61MOL0     H 8402  10.053   0.311   9.278  1.3472  2.3612 -0.0015
   61MOL0     H 8403   9.992   0.150   9.406 -0.9456  1.3881  0.0122
   61MOL0     H 8404   9.912  -0.072   9.741  1.2472 -0.6586 -0.8778
   61MOL0     H 8405   9.775  -0.180   9.907  1.0441 -0.9306 -3.1658
   61MOL0     H 8406   9.814  -0.315  10.346  1.4081  2.3422  4.1550
   61MOL0     H 8407   9.977  -0.299  10.283  0.7332  0.7686 -2.0779
   61MOL0     H 8408   9.969  -0.050  10.300  1.9567 -1.1280  1.3436
   61MOL0     H 8409   9.937  -0.131  10.450 -0.3642 -0.1930 -0.3926
   61MOL0     H 8410   9.743   0.028  10.268  1.5567 -1.6090 -1.7334
   61MOL0     H 8411   9.673  -0.084  10.387  0.2629  0.1673  2.0023
   61MOL0     H 8412   9.892   0.119  10.450  1.1725 -0.9850  3.4827
   61MOL0     H 8413   9.813   0.032  10.570 -0.8662 -0.7396 -1.4938
   61MOL0     H 8414   9.508   0.310  10.505 -2.2019 -1.6701  1.3675
   61MOL0     H 8415  10.115  -0.221  10.159  2.1132 -2.1673 -1.8302
   61MOL0     H 8416  10.307  -0.141  10.112  2.6282 -1.9962 -0.1281
   61MOL0     H 8417  10.374  -0.149   9.959 -0.6523  0.2266  0.2274
   61MOL0     H 8418  10.306   0.011  10.009  0.3811  0.0161 -0.7232
   62MOL0     O 8419   7.040   4.989   5.507  0.3097 -1.2438  0.6301
   62MOL0     C 8420   7.062   4.937   5.400 -0.6626  0.4375 -0.1181
   62MOL0     O 8421   7.180   4.925   5.346  0.2987 -0.7219  0.0608
   62MOL0     C 8422   7.293   4.992   5.387  0.8682  1.0788  0.2575
   62MOL0     C 8423   7.394   4.993   5.287 -0.9133  0.1176  0.0183
   62MOL0     C 8424   7.522   5.060   5.312 -0.1099 -0.3670  0.8208
   62MOL0     C 8425   7.545   5.108   5.439  0.3019 -0.2412 -0.0927
   62MOL0     O 8426   7.661   5.157   5.485  0.2797 -0.4369  0.2732
   62MOL0     C 8427   7.762   5.184   5.386 -0.2005  0.1830 -0.0114
   62MOL0     C 8428   7.896   5.206   5.466 -0.3137 -0.2100 -0.0257
   62MOL0     C 8429   7.886   5.336   5.552 -0.4127  0.1100 -0.1562
   62MOL0     C 8430   8.027   5.396   5.566 -0.7802  0.5778  0.2381
   62MOL0     C 8431   8.024   5.516   5.659 -0.1741  0.9364  0.0139
   62MOL0     C 8432   8.124   5.622   5.628  0.7216 -0.0919  0.8969
   62MOL0     C 8433   8.151   5.726   5.740  0.2309 -1.0533  0.2983
   62MOL0     C 8434   8.034   5.817   5.773  0.5247  0.6715 -0.1201
   62MOL0     N 8435   8.073   5.915   5.873 -0.7262  0.6824  1.0330
   62MOL0     C 8436   7.992   5.940   5.979  0.4628 -0.4791  0.7641
   62MOL0     C 8437   8.063   6.030   6.055  0.5801  0.2917  0.6416
   62MOL0     C 8438   8.030   6.064   6.201 -0.7478  0.8412  0.2333
   62MOL0     C 8439   8.160   6.082   6.278 -0.7631  0.4306  0.4306
   62MOL0     C 8440   8.165   6.050   6.419 -0.2576 -0.3639  0.3140
   62MOL0     C 8441   8.302   6.087   6.476 -0.0513 -0.0697 -0.2552
   62MOL0     O 8442   8.391   5.987   6.423 -0.6076 -0.5693 -0.4813
   62MOL0     C 8443   8.526   5.991   6.457 -0.3242  0.1307  0.0302
   62MOL0     C 8444   8.579   6.099   6.522 -0.4616  0.5202  0.2778
   62MOL0     C 8445   8.719   6.113   6.539 -0.0457  0.2737  0.0136
   62MOL0     C 8446   8.770   6.238   6.587  0.3581 -0.8094  0.1623
   62MOL0     C 8447   8.808   6.001   6.513  1.3301 -0.3186  0.3721
   62MOL0     C 8448   8.953   5.997   6.538  0.4713  0.5235  0.9070
   62MOL0     O 8449   9.000   5.870   6.551  0.0133 -0.0974  0.1208
   62MOL0     C 8450   9.128   5.849   6.591  0.6090 -0.0857 -0.5916
   62MOL0     C 8451   9.209   5.946   6.661  0.5801  0.2652 -0.2974
   62MOL0     C 8452   9.340   5.908   6.712 -0.3849  0.2493 -0.1730
   62MOL0     C 8453   9.391   5.777   6.677  0.0943 -0.9541  0.3825
   62MOL0     O 8454   9.513   5.722   6.707  0.5394 -0.2291 -0.2890
   62MOL0     C 8455   9.571   5.782   6.825  0.5021  0.2760  0.4305
   62MOL0     C 8456   9.662   5.687   6.890  0.1138  0.6423  0.6046
   62MOL0     C 8457   9.800   5.669   6.827 -0.2238  0.3822  0.1727
   62MOL0     C 8458   9.885   5.791   6.839 -0.8357 -0.1824 -0.2868
   62MOL0     C 8459   9.991   5.773   6.956  0.6863  0.8040 -0.4278
   62MOL0     C 8460  10.073   5.903   6.968 -0.7948  0.4342 -0.0366
   62MOL0     C 8461  10.141   5.941   6.841 -0.9442 -0.0404 -0.5269
   62MOL0     C 8462  10.236   6.057   6.865 -0.5620 -0.4973 -0.1815
   62MOL0    Cl 8463  10.404   6.012   6.926  0.3212 -0.1808  0.0071
   62MOL0     C 8464   9.314   5.701   6.595 -0.3267  0.0904 -0.6604
   62MOL0     C 8465   9.189   5.732   6.555 -0.7021  0.4554  0.0108
   62MOL0     O 8466   9.024   6.098   6.520  0.8936 -0.6600 -0.7087
   62MOL0     C 8467   8.743   5.887   6.451  0.3258 -1.1904 -0.5748
   62MOL0     C 8468   8.606   5.882   6.430  0.3157  0.0160 -0.5632
   62MOL0     N 8469   8.180   6.061   5.990 -0.1943 -0.2445  0.0296
   62MOL0     N 8470   8.189   6.000   5.880 -0.4178 -0.4482  0.6519
   62MOL0     C 8471   7.442   5.099   5.536 -1.0497  0.6582  0.3768
   62MOL0     C 8472   7.320   5.047   5.510 -0.4116  0.0368 -0.3723
   62MOL0     C 8473   6.957   4.841   5.349  0.1106  0.6447 -0.3378
   62MOL0     C 8474   6.837   4.820   5.421 -0.4246 -0.4928 -0.0755
   62MOL0     C 8475   6.728   4.741   5.376 -0.4091 -0.0608 -0.0088
   62MOL0     C 8476   6.736   4.660   5.268  0.9401  0.0319 -0.1533
   62MOL0     O 8477   6.634   4.587   5.214  1.0021 -0.4587  0.0895
   62MOL0     C 8478   6.508   4.573   5.271  0.4241 -0.5721 -0.0879
   62MOL0     C 8479   6.433   4.461   5.199  0.4992  0.1044 -0.1338
   62MOL0     C 8480   6.527   4.337   5.169 -0.6308  0.3201  0.7019
   62MOL0     C 8481   6.470   4.215   5.100 -0.2611  0.2919 -0.1504
   62MOL0     C 8482   6.350   4.164   5.155 -0.0727 -1.1163  0.3817
   62MOL0     C 8483   6.239   4.138   5.204 -0.5288 -0.2278 -0.1139
   62MOL0     C 8484   6.858   4.675   5.198  0.4633 -0.2117 -0.8768
   62MOL0     C 8485   6.967   4.757   5.234  0.1340 -0.0687 -0.0336
   62MOL0     C 8486   7.083   4.763   5.129  0.4469  0.9519  0.0280
   62MOL0     H 8487   7.373   4.945   5.191 -0.7130  0.5139 -0.2261
   62MOL0     H 8488   7.589   5.074   5.228 -2.3640  1.2033 -0.8500
   62MOL0     H 8489   7.734   5.281   5.344 -0.0053 -0.6482 -2.2008
   62MOL0     H 8490   7.775   5.112   5.305 -4.2053 -0.6423 -0.1279
   62MOL0     H 8491   7.933   5.110   5.503  1.3597  1.3923  2.8214
   62MOL0     H 8492   7.966   5.236   5.387  0.8884 -0.8358  0.7735
   62MOL0     H 8493   7.830   5.416   5.503  0.5919  0.7872 -0.2434
   62MOL0     H 8494   7.848   5.314   5.652  0.8930 -2.7289 -0.1596
   62MOL0     H 8495   8.095   5.322   5.609 -2.1166  0.8362  3.0087
   62MOL0     H 8496   8.055   5.429   5.465 -0.9132  1.9217  0.6151
   62MOL0     H 8497   8.044   5.479   5.760 -0.8289  2.4513  0.7409
   62MOL0     H 8498   7.926   5.564   5.664  1.1299  3.7471  0.5232
   62MOL0     H 8499   8.221   5.583   5.594  0.1138  0.3764 -1.5756
   62MOL0     H 8500   8.093   5.669   5.534  0.0769 -2.4174 -0.1220
   62MOL0     H 8501   8.232   5.794   5.712  1.1634 -2.2446  0.0101
   62MOL0     H 8502   8.180   5.679   5.835  1.1399 -0.1371  0.4891
   62MOL0     H 8503   7.989   5.856   5.681 -0.7963 -0.0954  0.1833
   62MOL0     H 8504   7.947   5.765   5.813 -2.3204  3.0380 -2.6857
   62MOL0     H 8505   7.894   5.906   6.009  0.0485 -1.3626 -1.4038
   62MOL0     H 8506   7.969   5.983   6.240 -0.0321  0.1224 -0.1073
   62MOL0     H 8507   7.978   6.160   6.195  0.2945  1.5325  1.6001
   62MOL0     H 8508   8.246   6.025   6.240  0.0667  0.1977  2.5043
   62MOL0     H 8509   8.192   6.184   6.255  3.0892 -1.1500 -2.5224
   62MOL0     H 8510   8.096   6.112   6.477 -0.2694  0.4721 -0.5784
   62MOL0     H 8511   8.141   5.944   6.428 -5.6434  0.6982  1.8130
   62MOL0     H 8512   8.329   6.182   6.430  0.7003  0.4903  1.2801
   62MOL0     H 8513   8.305   6.096   6.585  3.8115 -1.7497 -0.0601
   62MOL0     H 8514   8.512   6.177   6.555  0.4951  0.9273  1.2997
   62MOL0     H 8515   8.689   6.303   6.622 -0.4995 -1.9390  0.3549
   62MOL0     H 8516   8.834   6.287   6.514 -1.6047 -0.4298 -1.3860
   62MOL0     H 8517   8.838   6.215   6.669  0.9607 -3.4036 -0.9667
   62MOL0     H 8518   9.175   6.045   6.690 -0.3596 -0.0201 -0.3750
   62MOL0     H 8519   9.396   5.975   6.777 -0.6344 -0.3087  0.6242
   62MOL0     H 8520   9.634   5.868   6.803 -2.3427  2.4785  0.2765
   62MOL0     H 8521   9.490   5.807   6.895  1.3862 -1.3002  2.1055
   62MOL0     H 8522   9.682   5.727   6.990  0.4398  0.3718  0.6473
   62MOL0     H 8523   9.626   5.585   6.899  4.1182 -0.7669  2.8108
   62MOL0     H 8524   9.774   5.652   6.722  0.7915 -0.7982  0.0956
   62MOL0     H 8525   9.851   5.581   6.866 -0.3951  1.7289  3.9020
   62MOL0     H 8526   9.827   5.880   6.864 -1.3776 -1.3781  3.3022
   62MOL0     H 8527   9.940   5.808   6.746 -2.4082  1.2339 -0.9933
   62MOL0     H 8528   9.940   5.753   7.051  1.5554 -0.3560 -0.1754
   62MOL0     H 8529  10.059   5.687   6.951 -0.8135 -0.4588  0.1634
   62MOL0     H 8530  10.152   5.884   7.041 -0.6617  2.1934  0.3286
   62MOL0     H 8531  10.011   5.980   7.015  0.6869  0.8763  1.2664
   62MOL0     H 8532  10.067   5.957   6.762 -3.2490  3.6488  2.0435
   62MOL0     H 8533  10.201   5.854   6.812 -0.7834  0.3610 -1.4030
   62MOL0     H 8534  10.191   6.125   6.938  1.1658  0.3123  0.1773
   62MOL0     H 8535  10.241   6.122   6.777 -4.1815  1.4877  0.8964
   62MOL0     H 8536   9.343   5.599   6.569  0.4614  0.1496 -0.0431
   62MOL0     H 8537   9.119   5.664   6.508 -1.6796  0.4494  1.4126
   62MOL0     H 8538   8.807   5.801   6.432  1.2978 -0.4245 -0.8816
   62MOL0     H 8539   8.563   5.790   6.392 -0.9606  1.4949 -2.9477
   62MOL0     H 8540   7.461   5.139   5.636  0.2134 -2.4837  1.5188
   62MOL0     H 8541   7.252   5.049   5.594  0.9687  0.6528  0.7721
   62MOL0     H 8542   6.814   4.859   5.519 -5.2069 -1.6766 -0.5111
   62MOL0     H 8543   6.636   4.745   5.432  0.5785  0.9245  1.6279
   62MOL0     H 8544   6.498   4.562   5.380 -2.1787  0.3284 -0.1468
   62MOL0     H 8545   6.458   4.669   5.253  1.6341  0.4395  1.6452
   62MOL0     H 8546   6.399   4.490   5.100  0.7622 -1.3584 -0.6820
   62MOL0     H 8547   6.347   4.424   5.256  0.5942  0.8662  0.5254
   62MOL0     H 8548   6.607   4.375   5.105 -0.1316  0.4115  1.3639
   62MOL0     H 8549   6.569   4.300   5.264  0.2081 -3.2825 -0.8934
   62MOL0     H 8550   6.546   4.136   5.099 -0.8017 -0.2425  0.1722
   62MOL0     H 8551   6.445   4.252   5.000  0.9030  1.1314 -0.1435
   62MOL0     H 8552   6.146   4.098   5.238 -0.5456 -0.5285 -0.5072
   62MOL0     H 8553   6.872   4.592   5.129 -0.2791 -3.4713  2.5239
   62MOL0     H 8554   7.075   4.856   5.071 -1.3466  2.4426  2.4807
   62MOL0     H 8555   7.182   4.759   5.175 -0.2107  0.7185  1.4666
   62MOL0     H 8556   7.073   4.675   5.064 -0.4784  0.4747  0.8033
   63MOL0     O 8557   6.314  10.519   3.792  0.7035 -1.1062 -0.5701
   63MOL0     C 8558   6.330  10.637   3.762 -0.1969  0.0967  0.2885
   63MOL0     O 8559   6.240  10.724   3.724  0.8375  0.4894 -0.3505
   63MOL0     C 8560   6.110  10.693   3.736 -0.4371  0.0996 -0.1636
   63MOL0     C 8561   6.057  10.604   3.641  0.8775  0.7213 -0.6078
   63MOL0     C 8562   5.924  10.569   3.640 -0.6857 -0.2450  0.2855
   63MOL0     C 8563   5.837  10.633   3.727  0.3420  0.1309 -0.3249
   63MOL0     O 8564   5.698  10.621   3.731 -0.3496 -0.1039 -0.0402
   63MOL0     C 8565   5.636  10.511   3.671  0.5109 -0.4741 -0.2786
   63MOL0     C 8566   5.622  10.407   3.781 -0.0116  0.0521  0.6806
   63MOL0     C 8567   5.558  10.282   3.716 -0.1821  0.0233  1.2649
   63MOL0     C 8568   5.568  10.162   3.802 -0.7423  0.3289  0.7269
   63MOL0     C 8569   5.520  10.051   3.719  0.3427  0.1280 -0.3562
   63MOL0     C 8570   5.486   9.921   3.793 -0.5568 -1.2509  0.1938
   63MOL0     C 8571   5.484   9.806   3.689  0.1736 -0.0104  0.9414
   63MOL0     C 8572   5.405   9.694   3.756  0.4603 -0.0828  0.9272
   63MOL0     N 8573   5.403   9.570   3.674 -0.1667 -0.7012 -0.4041
   63MOL0     C 8574   5.490   9.529   3.580  0.2232  0.3478  0.2905
   63MOL0     C 8575   5.485   9.388   3.570 -0.0551 -0.5451 -0.7027
   63MOL0     C 8576   5.578   9.307   3.481 -0.2559 -0.0917 -0.0987
   63MOL0     C 8577   5.699   9.236   3.544  0.0667  0.5605  0.2884
   63MOL0     C 8578   5.768   9.151   3.440 -0.4475  0.0860 -0.6234
   63MOL0     C 8579   5.901   9.100   3.494  0.6060  1.0301  0.1978
   63MOL0     O 8580   6.010   9.198   3.491  0.4477 -0.2486  0.0492
   63MOL0     C 8581   6.140   9.156   3.478  0.0969  0.1022  0.0085
   63MOL0     C 8582   6.182   9.027   3.466 -0.1432  0.0550  0.2466
   63MOL0     C 8583   6.316   9.004   3.436 -0.0167 -0.3286  0.4187
   63MOL0     C 8584   6.355   8.861   3.418  0.2549 -0.7142  0.7545
   63MOL0     C 8585   6.408   9.102   3.420 -0.2363 -1.0499 -0.0081
   63MOL0     C 8586   6.552   9.078   3.390  0.4760  0.6276  0.7119
   63MOL0     O 8587   6.607   9.183   3.331  0.1739  0.9215  0.3269
   63MOL0     C 8588   6.745   9.173   3.296 -0.7518  0.3256 -0.5740
   63MOL0     C 8589   6.786   9.074   3.207 -0.1621  0.6229 -0.3427
   63MOL0     C 8590   6.921   9.054   3.174  0.1312 -0.2316  0.5078
   63MOL0     C 8591   7.013   9.150   3.224  0.2891  0.3048  0.5367
   63MOL0     O 8592   7.141   9.132   3.168  0.9980  0.7806 -0.1377
   63MOL0     C 8593   7.238   9.217   3.211 -0.3024  0.5403 -0.1785
   63MOL0     C 8594   7.345   9.253   3.102 -0.0058 -0.0639 -0.5698
   63MOL0     C 8595   7.428   9.134   3.060 -0.3428  0.1829 -0.4018
   63MOL0     C 8596   7.539   9.162   2.959 -0.1966  0.1443 -0.3828
   63MOL0     C 8597   7.656   9.245   3.008 -0.1781 -0.2743 -0.1335
   63MOL0     C 8598   7.767   9.252   2.905  0.1736  0.2326  0.4234
   63MOL0     C 8599   7.891   9.323   2.961  1.5638  0.6131 -0.5002
   63MOL0     C 8600   8.014   9.303   2.883  0.8936  0.3910 -0.4213
   63MOL0    Cl 8601   7.985   9.380   2.734 -0.0619  0.1024 -0.1692
   63MOL0     C 8602   6.978   9.252   3.310 -0.2810 -0.0874  0.3436
   63MOL0     C 8603   6.840   9.267   3.341  0.3989 -0.3055  0.0835
   63MOL0     O 8604   6.608   8.997   3.460 -0.4922  0.2523  0.1916
   63MOL0     C 8605   6.360   9.234   3.442  0.3293 -0.4673  0.0795
   63MOL0     C 8606   6.227   9.255   3.458 -0.4242 -0.4235  0.0056
   63MOL0     N 8607   5.391   9.353   3.666  0.8181 -0.2403  0.4594
   63MOL0     N 8608   5.328   9.459   3.716 -0.3250 -0.0228  0.0567
   63MOL0     C 8609   5.890  10.721   3.826 -0.3256  0.6151 -0.1531
   63MOL0     C 8610   6.028  10.758   3.831 -0.6043 -0.9555 -0.2436
   63MOL0     C 8611   6.472  10.688   3.778  0.3965  0.0826 -0.6708
   63MOL0     C 8612   6.583  10.598   3.777  0.2146  1.0568 -0.4613
   63MOL0     C 8613   6.722  10.641   3.785  0.3066  0.0785 -0.4542
   63MOL0     C 8614   6.755  10.765   3.787 -0.6633 -0.3674 -1.2924
   63MOL0     O 8615   6.889  10.801   3.788  0.0126 -0.3946 -0.0746
   63MOL0     C 8616   6.969  10.731   3.886 -0.1979 -0.7004  0.4490
   63MOL0     C 8617   7.060  10.821   3.963  0.4375 -0.0535  0.8404
   63MOL0     C 8618   7.181  10.868   3.873 -0.4944  0.4198 -0.3102
   63MOL0     C 8619   7.243  10.976   3.956  0.2868  0.2739 -0.8916
   63MOL0     C 8620   7.372  11.019   3.904  0.0855 -0.5766  0.6832
   63MOL0     C 8621   7.468  11.058   3.841  0.5054  0.0417  0.4959
   63MOL0     C 8622   6.647  10.861   3.784 -0.2226 -0.6157 -0.2379
   63MOL0     C 8623   6.511  10.822   3.779 -0.5208  0.0638  0.0696
   63MOL0     C 8624   6.414  10.944   3.761 -0.2198 -0.3650 -0.8864
   63MOL0     H 8625   6.117  10.541   3.576 -1.3747 -0.5587 -1.5693
   63MOL0     H 8626   5.895  10.494   3.567  0.5328 -2.1035  1.6255
   63MOL0     H 8627   5.675  10.472   3.576 -1.3921 -0.6890 -1.0077
   63MOL0     H 8628   5.533  10.536   3.647  0.0649 -1.7156  0.2831
   63MOL0     H 8629   5.725  10.382   3.807  0.7546  1.5692 -0.6879
   63MOL0     H 8630   5.568  10.442   3.869 -0.2481  0.9918  0.1861
   63MOL0     H 8631   5.454  10.306   3.690 -0.0080 -1.9330 -1.8732
   63MOL0     H 8632   5.599  10.260   3.617 -1.3620 -2.8276  1.3224
   63MOL0     H 8633   5.669  10.133   3.833 -1.8535 -3.2988  1.3296
   63MOL0     H 8634   5.515  10.179   3.896 -0.1087  0.3729  1.0865
   63MOL0     H 8635   5.606  10.044   3.653  1.9378 -0.5936  1.6723
   63MOL0     H 8636   5.430  10.078   3.664 -0.3760 -2.5717 -0.6687
   63MOL0     H 8637   5.569   9.893   3.858  1.1875  2.1127 -0.3235
   63MOL0     H 8638   5.395   9.935   3.851 -1.6154 -3.0042 -0.9395
   63MOL0     H 8639   5.588   9.778   3.669  0.2293 -0.6885  2.0639
   63MOL0     H 8640   5.426   9.837   3.602 -3.1864 -0.1267  2.9690
   63MOL0     H 8641   5.453   9.677   3.853  1.0710  1.3985  0.9172
   63MOL0     H 8642   5.298   9.715   3.770  0.3244  0.3411 -0.5387
   63MOL0     H 8643   5.559   9.596   3.530  0.1640 -0.7063 -1.2686
   63MOL0     H 8644   5.612   9.382   3.409 -2.4580  3.2151  2.0368
   63MOL0     H 8645   5.522   9.232   3.425 -2.1055  1.6823 -0.7579
   63MOL0     H 8646   5.771   9.303   3.590  0.0963  0.6795  0.0701
   63MOL0     H 8647   5.662   9.177   3.629  1.2502 -0.0066  0.4305
   63MOL0     H 8648   5.704   9.066   3.415 -0.3696 -0.1998  0.1280
   63MOL0     H 8649   5.784   9.206   3.347  0.4352 -0.4201 -0.7932
   63MOL0     H 8650   5.886   9.061   3.596 -0.3867 -0.2255 -0.3953
   63MOL0     H 8651   5.931   9.016   3.430 -0.8738  0.6871 -0.0946
   63MOL0     H 8652   6.110   8.947   3.479 -1.5086  1.4416  1.5047
   63MOL0     H 8653   6.395   8.818   3.511 -0.2951  0.7196  1.6909
   63MOL0     H 8654   6.423   8.857   3.333 -0.3239  0.0198  0.2460
   63MOL0     H 8655   6.270   8.800   3.387  0.5916 -0.3415 -1.0099
   63MOL0     H 8656   6.717   8.995   3.178  3.1436 -3.2995  1.4231
   63MOL0     H 8657   6.970   8.979   3.112  2.1462 -2.0526  3.9513
   63MOL0     H 8658   7.195   9.317   3.226 -0.5724  0.6881 -1.8342
   63MOL0     H 8659   7.285   9.174   3.300 -0.4519 -2.4127 -1.4125
   63MOL0     H 8660   7.286   9.283   3.015  1.8153  1.1714 -1.4410
   63MOL0     H 8661   7.406   9.339   3.134  0.3097 -0.4581 -0.0941
   63MOL0     H 8662   7.366   9.068   2.998 -0.3071 -1.6501  1.4243
   63MOL0     H 8663   7.471   9.076   3.142  1.2959 -0.8075 -1.8584
   63MOL0     H 8664   7.495   9.205   2.868 -0.4973 -0.5313 -0.5689
   63MOL0     H 8665   7.567   9.061   2.927  0.6360 -0.8929  3.2401
   63MOL0     H 8666   7.623   9.349   3.018 -3.6556 -1.5171  4.2718
   63MOL0     H 8667   7.689   9.207   3.105 -0.2023  0.6030  0.2240
   63MOL0     H 8668   7.736   9.311   2.818  1.5476  1.1192  0.5106
   63MOL0     H 8669   7.785   9.153   2.865 -2.1167 -1.6708  3.5869
   63MOL0     H 8670   7.910   9.279   3.059 -0.2752  2.7474  0.9012
   63MOL0     H 8671   7.866   9.428   2.974 -1.9983 -0.1054 -0.3700
   63MOL0     H 8672   8.044   9.198   2.873 -2.8605 -1.0623  1.8302
   63MOL0     H 8673   8.099   9.356   2.926  0.9563  0.4415 -0.6056
   63MOL0     H 8674   7.045   9.323   3.356 -1.2939  0.5934  0.8170
   63MOL0     H 8675   6.810   9.346   3.410 -1.4269 -0.5675 -0.3560
   63MOL0     H 8676   6.422   9.323   3.441 -0.7047  0.2561 -0.4405
   63MOL0     H 8677   6.192   9.358   3.459 -0.4032 -0.3072 -2.6202
   63MOL0     H 8678   5.814  10.752   3.896 -0.6868  1.2236 -0.8092
   63MOL0     H 8679   6.073  10.816   3.911  2.8783 -2.1059 -1.2035
   63MOL0     H 8680   6.574  10.490   3.779  1.2852  0.8074  4.7952
   63MOL0     H 8681   6.805  10.574   3.764  2.8481  2.9116 -0.0910
   63MOL0     H 8682   6.909  10.674   3.958  1.1430 -0.1912  2.0414
   63MOL0     H 8683   7.031  10.653   3.841 -0.5281 -0.6912 -0.0354
   63MOL0     H 8684   7.080  10.773   4.059  0.2896  0.0584  0.9279
   63MOL0     H 8685   7.001  10.907   3.995 -0.5075 -0.3206 -0.1186
   63MOL0     H 8686   7.249  10.785   3.852 -2.7909 -1.7247  0.1853
   63MOL0     H 8687   7.138  10.913   3.783 -0.7553 -0.6967 -0.7649
   63MOL0     H 8688   7.241  10.945   4.061 -0.6430 -2.3165 -1.6155
   63MOL0     H 8689   7.185  11.069   3.950  0.5919  0.5669  0.3654
   63MOL0     H 8690   7.556  11.083   3.785  0.6328 -0.2084  0.5797
   63MOL0     H 8691   6.680  10.964   3.785  2.4107 -1.3554 -1.5359
   63MOL0     H 8692   6.330  10.957   3.829 -0.2313  0.2230 -1.0006
   63MOL0     H 8693   6.464  11.042   3.763  0.4591 -0.7233  1.0952
   63MOL0     H 8694   6.378  10.926   3.659  1.7084  1.5801 -2.0151
   64MOL0     O 8695   7.731   8.105   9.747 -0.3481  0.0564  0.3979
   64MOL0     C 8696   7.740   8.169   9.853  0.4498 -0.2175 -0.7158
   64MOL0     O 8697   7.664   8.286   9.879  0.2593  0.5199 -0.1162
   64MOL0     C 8698   7.675   8.343  10.004  0.3178 -0.9499  0.1288
   64MOL0     C 8699   7.708   8.475  10.004 -0.6336 -0.0267 -0.0533
   64MOL0     C 8700   7.731   8.542  10.124 -0.0261  0.7796 -1.2386
   64MOL0     C 8701   7.717   8.481  10.247 -1.3921 -0.2842  0.4745
   64MOL0     O 8702   7.740   8.556  10.358 -0.4148  0.1291  0.3745
   64MOL0     C 8703   7.726   8.493  10.483  0.3408 -0.1748 -0.3443
   64MOL0     C 8704   7.756   8.600  10.590  0.4144 -0.7958 -0.1673
   64MOL0     C 8705   7.725   8.559  10.740 -0.5679  0.0565 -0.1001
   64MOL0     C 8706   7.776   8.416  10.769 -0.2975  0.2483  0.3321
   64MOL0     C 8707   7.727   8.375  10.913 -1.3062 -0.1764 -0.6352
   64MOL0     C 8708   7.579   8.328  10.932  0.0347  0.5212 -0.5281
   64MOL0     C 8709   7.564   8.202  11.019 -0.4155 -0.3320 -0.3550
   64MOL0     C 8710   7.616   8.216  11.169 -0.3025 -0.2054  0.8115
   64MOL0     N 8711   7.754   8.185  11.196  0.2731 -0.0703 -0.0771
   64MOL0     C 8712   7.812   8.064  11.179 -0.5463  0.4058 -1.1041
   64MOL0     C 8713   7.939   8.070  11.212 -0.5389  0.6998 -0.7135
   64MOL0     C 8714   8.023   7.942  11.239  0.0215 -0.0102  0.2160
   64MOL0     C 8715   8.166   7.969  11.199 -1.1431  0.4262  0.1512
   64MOL0     C 8716   8.241   8.026  11.320 -0.1338 -0.0556 -0.0966
   64MOL0     C 8717   8.352   8.107  11.256 -0.6612  0.0643 -0.4181
   64MOL0     O 8718   8.440   8.166  11.358  0.3462 -0.0472  0.1852
   64MOL0     C 8719   8.562   8.217  11.324  0.2940 -0.3867 -0.0446
   64MOL0     C 8720   8.637   8.249  11.439  0.1895 -0.6382  0.0170
   64MOL0     C 8721   8.773   8.277  11.431  0.1846 -0.1941 -1.1338
   64MOL0     C 8722   8.851   8.279  11.560 -0.3163  0.0068 -0.4266
   64MOL0     C 8723   8.831   8.298  11.305 -0.2654  0.2958  0.0033
   64MOL0     C 8724   8.970   8.341  11.276  0.1646  0.3966 -0.1955
   64MOL0     O 8725   9.025   8.299  11.154  0.5955  0.3095  0.5680
   64MOL0     C 8726   9.160   8.324  11.126  0.0344  0.3239  0.8985
   64MOL0     C 8727   9.263   8.257  11.193 -1.2823 -1.2375  1.1776
   64MOL0     C 8728   9.391   8.315  11.191 -0.2042  0.3801  0.5472
   64MOL0     C 8729   9.430   8.417  11.102  0.9779 -0.3478  0.2321
   64MOL0     O 8730   9.564   8.454  11.099  0.3055 -0.0487 -0.0039
   64MOL0     C 8731   9.585   8.574  11.027  1.1684 -0.4737  0.0108
   64MOL0     C 8732   9.727   8.625  11.055 -0.1533  1.0085 -0.7934
   64MOL0     C 8733   9.833   8.515  11.003 -0.4604 -1.4542  0.3885
   64MOL0     C 8734   9.974   8.577  11.014 -0.2805  0.4746 -0.3817
   64MOL0     C 8735  10.074   8.489  11.075 -0.5934 -1.3359  0.0957
   64MOL0     C 8736  10.130   8.383  10.984 -0.1943 -0.4643  0.3930
   64MOL0     C 8737  10.274   8.347  10.991 -0.4070  0.3400  0.6114
   64MOL0     C 8738  10.300   8.231  10.888  0.0563 -0.2333  0.3181
   64MOL0    Cl 8739  10.255   8.068  10.943 -0.2494 -0.2179  0.1808
   64MOL0     C 8740   9.319   8.479  11.028 -0.1907  0.5088 -0.5253
   64MOL0     C 8741   9.192   8.436  11.043  0.2594 -0.3148 -0.0719
   64MOL0     O 8742   9.021   8.414  11.352 -0.1516  0.2280 -0.5862
   64MOL0     C 8743   8.752   8.283  11.187 -0.1450  0.2537  0.0446
   64MOL0     C 8744   8.622   8.232  11.203 -0.0634  0.5325  0.7872
   64MOL0     N 8745   7.969   8.200  11.248  0.3715  0.3735 -0.0417
   64MOL0     N 8746   7.856   8.265  11.245  0.1779 -0.2503  0.0161
   64MOL0     C 8747   7.669   8.345  10.241  0.3018 -0.4069 -0.2238
   64MOL0     C 8748   7.655   8.277  10.124  0.4390 -0.0074  0.2733
   64MOL0     C 8749   7.861   8.128   9.935  0.4944  1.0150 -0.3234
   64MOL0     C 8750   7.950   8.222   9.984  0.9741  0.2075  0.4063
   64MOL0     C 8751   8.056   8.196  10.063 -0.4764 -0.8397 -0.4063
   64MOL0     C 8752   8.076   8.064  10.105  0.2762  0.0816 -0.0422
   64MOL0     O 8753   8.159   8.017  10.201 -0.9235  0.1532  0.1350
   64MOL0     C 8754   8.294   8.072  10.197  0.1412 -0.9447  0.2201
   64MOL0     C 8755   8.384   7.961  10.260  0.5022  0.0132 -0.1479
   64MOL0     C 8756   8.339   7.821  10.205  0.9437  0.4734  0.5968
   64MOL0     C 8757   8.446   7.718  10.241 -0.8766 -0.0330  0.5826
   64MOL0     C 8758   8.424   7.594  10.176  0.6038  0.6863  1.1393
   64MOL0     C 8759   8.390   7.481  10.135 -0.8920  0.5375 -0.2938
   64MOL0     C 8760   7.981   7.970  10.064 -0.6330 -0.1009  0.4929
   64MOL0     C 8761   7.872   8.002   9.986  0.8007  0.7665 -0.2304
   64MOL0     C 8762   7.776   7.894   9.976 -0.2092  1.2905 -0.0070
   64MOL0     H 8763   7.718   8.524   9.908 -0.1527  1.3511  0.6608
   64MOL0     H 8764   7.759   8.646  10.108 -0.2256  1.5912  2.7782
   64MOL0     H 8765   7.799   8.413  10.497 -1.0719 -1.5155 -0.3942
   64MOL0     H 8766   7.624   8.456  10.499  0.1744 -0.4933 -1.9764
   64MOL0     H 8767   7.859   8.637  10.585 -0.1829  1.1793  0.9169
   64MOL0     H 8768   7.690   8.684  10.567  0.3382 -0.8916 -0.3003
   64MOL0     H 8769   7.785   8.618  10.810  0.5764 -1.4325  0.2424
   64MOL0     H 8770   7.619   8.583  10.753 -0.2798  1.1602  0.3112
   64MOL0     H 8771   7.738   8.340  10.700 -0.0689 -0.9259  1.4612
   64MOL0     H 8772   7.883   8.433  10.752 -0.7540  2.6766 -0.4661
   64MOL0     H 8773   7.740   8.452  10.990 -2.0581 -0.2214 -0.4536
   64MOL0     H 8774   7.806   8.302  10.937 -1.1701 -0.4489 -1.8627
   64MOL0     H 8775   7.525   8.414  10.970  2.7006  2.2905 -0.4506
   64MOL0     H 8776   7.538   8.300  10.835 -0.4625 -4.5641  0.8481
   64MOL0     H 8777   7.610   8.123  10.959  0.2009  0.3679 -0.8185
   64MOL0     H 8778   7.458   8.175  11.022  0.3783 -4.8454 -3.0794
   64MOL0     H 8779   7.591   8.318  11.197 -3.5381 -0.4661 -0.7117
   64MOL0     H 8780   7.564   8.149  11.238 -0.8724  1.5186  2.1266
   64MOL0     H 8781   7.756   7.978  11.145 -1.4079  1.0238 -1.2640
   64MOL0     H 8782   7.983   7.861  11.178 -1.0936 -0.4907  1.5396
   64MOL0     H 8783   8.008   7.908  11.342 -1.4946  2.3787  0.8681
   64MOL0     H 8784   8.203   7.867  11.183 -2.7268 -0.4595  1.8041
   64MOL0     H 8785   8.163   8.028  11.107 -0.3338 -0.2015 -0.2875
   64MOL0     H 8786   8.173   8.083  11.384 -0.3358 -2.2957  1.8547
   64MOL0     H 8787   8.277   7.936  11.372  1.2773 -0.5825 -1.8910
   64MOL0     H 8788   8.402   8.028  11.199  0.6364 -1.4045  2.5202
   64MOL0     H 8789   8.312   8.186  11.192 -1.3639 -0.7569 -1.0190
   64MOL0     H 8790   8.596   8.225  11.537  1.4542  1.0434  1.0241
   64MOL0     H 8791   8.953   8.250  11.534 -0.8143  0.5080 -3.2637
   64MOL0     H 8792   8.808   8.220  11.642  0.2054  1.2813  0.8148
   64MOL0     H 8793   8.850   8.383  11.594 -1.4907  0.4790 -1.8104
   64MOL0     H 8794   9.240   8.171  11.255  0.2506 -3.2217 -0.8168
   64MOL0     H 8795   9.471   8.259  11.238 -0.9228 -2.5107 -1.4431
   64MOL0     H 8796   9.581   8.552  10.920  0.4318 -0.8916  0.1220
   64MOL0     H 8797   9.509   8.648  11.054 -1.3684 -2.5236 -1.2039
   64MOL0     H 8798   9.736   8.723  11.006 -0.2345  2.2427  1.5388
   64MOL0     H 8799   9.750   8.632  11.162  0.2926  1.9364 -0.9325
   64MOL0     H 8800   9.812   8.495  10.898  0.2988  2.8254 -0.7892
   64MOL0     H 8801   9.821   8.424  11.063  2.9332 -1.3098  1.4770
   64MOL0     H 8802   9.963   8.648  11.097 -2.9375 -0.1953 -0.0601
   64MOL0     H 8803   9.991   8.633  10.922 -2.5907  0.6942 -0.7381
   64MOL0     H 8804  10.159   8.550  11.105 -1.6526  0.9916 -1.3407
   64MOL0     H 8805  10.030   8.444  11.165 -2.6606 -0.9398 -0.6405
   64MOL0     H 8806  10.116   8.412  10.879  0.9059 -2.1964 -0.2892
   64MOL0     H 8807  10.070   8.293  11.001  2.4043 -2.5225 -0.5326
   64MOL0     H 8808  10.310   8.307  11.087  1.0985  3.1190  1.3148
   64MOL0     H 8809  10.337   8.428  10.953  0.2877 -0.4908 -0.0294
   64MOL0     H 8810  10.407   8.230  10.869 -0.1229 -0.7894 -0.7764
   64MOL0     H 8811  10.257   8.258  10.790 -3.3780 -2.1163  1.1228
   64MOL0     H 8812   9.332   8.555  10.950  0.6666  0.7559 -0.1519
   64MOL0     H 8813   9.105   8.487  11.005  0.3410  0.2724  0.5057
   64MOL0     H 8814   8.796   8.310  11.091  4.7374  1.4014  2.2657
   64MOL0     H 8815   8.573   8.191  11.115 -0.8432 -3.5260  2.8629
   64MOL0     H 8816   7.651   8.286  10.330 -0.3006 -0.5557 -0.4376
   64MOL0     H 8817   7.619   8.174  10.117  0.9989 -0.0924 -3.1664
   64MOL0     H 8818   7.939   8.329   9.968  0.1994  0.2954  1.4514
   64MOL0     H 8819   8.120   8.273  10.104  1.4817 -2.1628 -0.7941
   64MOL0     H 8820   8.325   8.083  10.093  1.0430 -1.6306  0.4093
   64MOL0     H 8821   8.295   8.168  10.250  0.1613 -1.5717  1.4088
   64MOL0     H 8822   8.352   7.957  10.364 -1.4065  3.1776 -0.5043
   64MOL0     H 8823   8.488   7.994  10.245 -0.1213  1.7853 -0.8395
   64MOL0     H 8824   8.248   7.788  10.255  0.5647  0.1398 -0.3033
   64MOL0     H 8825   8.322   7.825  10.097  1.2634 -0.8157  0.4920
   64MOL0     H 8826   8.461   7.709  10.349 -2.8725 -0.9967  0.8187
   64MOL0     H 8827   8.535   7.761  10.195 -0.5533 -1.4109 -0.1513
   64MOL0     H 8828   8.365   7.381  10.105 -2.1603  0.0493  2.0718
   64MOL0     H 8829   8.019   7.873  10.094  0.3860 -0.2036 -0.9881
   64MOL0     H 8830   7.786   7.829  10.064 -2.4803 -1.3910 -1.5757
   64MOL0     H 8831   7.675   7.934   9.975  0.0597  2.0365 -2.1522
   64MOL0     H 8832   7.797   7.839   9.884 -0.3765  1.0516  0.0963
   65MOL0     O 8833  10.044   1.798   5.773 -0.0417 -0.6305 -0.8991
   65MOL0     C 8834   9.989   1.758   5.672  0.8945  0.1099  0.3998
   65MOL0     O 8835  10.021   1.629   5.619  0.8428 -0.3280 -0.4786
   65MOL0     C 8836  10.144   1.574   5.646 -0.0012 -0.3335 -0.1450
   65MOL0     C 8837  10.154   1.466   5.735 -0.8834 -0.3861  0.3715
   65MOL0     C 8838  10.279   1.415   5.776  0.0983  0.5737 -0.1008
   65MOL0     C 8839  10.393   1.480   5.730  0.0395 -0.3695  0.9903
   65MOL0     O 8840  10.515   1.439   5.763 -0.5856 -0.1307  0.2500
   65MOL0     C 8841  10.602   1.388   5.665 -0.3683 -0.0983  0.2858
   65MOL0     C 8842  10.718   1.312   5.728 -0.0889  0.1696  0.9666
   65MOL0     C 8843  10.809   1.238   5.625  0.5219  0.1070 -0.1347
   65MOL0     C 8844  10.927   1.164   5.688  0.8678  0.1760 -0.2467
   65MOL0     C 8845  10.991   1.081   5.578 -0.0852  0.0287  0.2292
   65MOL0     C 8846  11.142   1.028   5.628  0.5107 -0.4707  0.2127
   65MOL0     C 8847  11.233   1.143   5.652 -0.5908  0.6581 -0.5744
   65MOL0     C 8848  11.370   1.110   5.595 -0.3049  0.3423  0.5817
   65MOL0     N 8849  11.436   0.998   5.668 -0.0617  0.1135 -0.0328
   65MOL0     C 8850  11.464   1.001   5.806 -0.7345  0.9458  0.1217
   65MOL0     C 8851  11.539   0.894   5.821  0.4043  0.1559  0.6181
   65MOL0     C 8852  11.619   0.848   5.943  0.6719 -0.0968 -0.2567
   65MOL0     C 8853  11.768   0.839   5.920 -0.0023 -0.3502  0.5293
   65MOL0     C 8854  11.844   0.801   6.041 -0.6216 -0.3870 -0.7636
   65MOL0     C 8855  11.997   0.760   6.015  0.1661  0.0400 -0.5321
   65MOL0     O 8856  12.081   0.855   5.944  0.6532 -0.6098 -0.5907
   65MOL0     C 8857  12.211   0.824   5.928  0.2781  0.7230 -0.3186
   65MOL0     C 8858  12.285   0.733   5.998 -0.0907 -0.0252 -1.7003
   65MOL0     C 8859  12.418   0.697   5.983 -0.0735 -0.6493 -0.1439
   65MOL0     C 8860  12.463   0.567   6.053 -0.5579 -0.5051  0.6883
   65MOL0     C 8861  12.490   0.762   5.873 -0.1576  0.1180  0.4231
   65MOL0     C 8862  12.632   0.725   5.830  0.1633 -0.4466  0.2433
   65MOL0     O 8863  12.676   0.796   5.719 -0.4451 -0.8300 -0.3670
   65MOL0     C 8864  12.814   0.800   5.693 -0.5990  0.4283 -0.1947
   65MOL0     C 8865  12.908   0.837   5.794 -0.2891 -0.0183 -0.1088
   65MOL0     C 8866  13.047   0.840   5.767 -0.1727 -0.1923 -0.4180
   65MOL0     C 8867  13.092   0.823   5.629 -0.0618 -0.6952  0.2078
   65MOL0     O 8868  13.219   0.811   5.586 -0.8869 -0.2992  0.3168
   65MOL0     C 8869  13.298   0.723   5.664  1.2993 -0.6394  0.7882
   65MOL0     C 8870  13.422   0.711   5.584 -0.4645  0.4436  0.4507
   65MOL0     C 8871  13.541   0.788   5.646 -0.2443  0.3437  0.4195
   65MOL0     C 8872  13.518   0.938   5.669 -0.4867  0.2114  0.0683
   65MOL0     C 8873  13.640   1.011   5.713 -0.0535  1.0004  1.2291
   65MOL0     C 8874  13.754   0.988   5.609  0.0993 -0.8683 -0.2632
   65MOL0     C 8875  13.862   1.092   5.624  0.0153  0.1818 -0.0744
   65MOL0     C 8876  13.945   1.056   5.758  0.5189 -0.4788  0.4754
   65MOL0    Cl 8877  14.046   0.928   5.720 -0.3632 -0.4395  0.5452
   65MOL0     C 8878  12.995   0.808   5.534  0.0495  0.9871  0.2488
   65MOL0     C 8879  12.860   0.796   5.559 -1.1212  0.1850 -0.3775
   65MOL0     O 8880  12.704   0.650   5.897 -0.2351 -0.6916 -0.3837
   65MOL0     C 8881  12.415   0.854   5.796  0.4426  0.2209 -0.6587
   65MOL0     C 8882  12.283   0.894   5.826 -0.5447  0.2402 -0.2044
   65MOL0     N 8883  11.552   0.830   5.699  0.2108  0.0963  0.4105
   65MOL0     N 8884  11.487   0.892   5.606  0.4519  0.1763 -0.3834
   65MOL0     C 8885  10.390   1.591   5.646  0.0207  0.5501  0.0280
   65MOL0     C 8886  10.262   1.640   5.610 -0.4557  0.2089 -0.7157
   65MOL0     C 8887   9.868   1.823   5.626  0.7484 -0.2870  0.6538
   65MOL0     C 8888   9.767   1.737   5.562  0.4463  0.6513  0.2563
   65MOL0     C 8889   9.645   1.792   5.521  0.7101 -0.3639  0.0495
   65MOL0     C 8890   9.614   1.933   5.533  0.7418 -0.8098 -0.8302
   65MOL0     O 8891   9.497   1.978   5.482  0.3921  0.2581 -0.3508
   65MOL0     C 8892   9.465   2.117   5.487 -0.5041  0.5584 -0.5145
   65MOL0     C 8893   9.391   2.133   5.627 -0.1791  0.4886 -0.5707
   65MOL0     C 8894   9.252   2.071   5.631 -0.0430  0.8647  0.5438
   65MOL0     C 8895   9.140   2.126   5.717 -1.0092 -0.1026  0.1790
   65MOL0     C 8896   9.111   2.266   5.686 -0.2538  0.0729  0.4867
   65MOL0     C 8897   9.098   2.380   5.657  0.2738  0.4203 -0.3026
   65MOL0     C 8898   9.713   2.011   5.597 -1.1368  0.1300 -0.6221
   65MOL0     C 8899   9.843   1.960   5.641  0.5164 -0.6828  0.3762
   65MOL0     C 8900   9.926   2.072   5.688  0.1765 -0.3704 -0.3741
   65MOL0     H 8901  10.061   1.438   5.783 -1.0176 -1.7043 -0.6060
   65MOL0     H 8902  10.288   1.335   5.848 -2.3955 -1.9060 -2.3271
   65MOL0     H 8903  10.642   1.464   5.598  0.6030 -0.2734  0.6495
   65MOL0     H 8904  10.548   1.315   5.605 -0.7596 -0.6079  1.2252
   65MOL0     H 8905  10.778   1.385   5.783  0.5941  1.4937 -1.3831
   65MOL0     H 8906  10.698   1.237   5.806  1.2385  0.7185  1.8680
   65MOL0     H 8907  10.741   1.176   5.567 -0.0910  0.0490  0.6196
   65MOL0     H 8908  10.854   1.313   5.559 -0.6952  1.7977  0.8725
   65MOL0     H 8909  10.989   1.245   5.726  1.6593  0.7830 -2.6338
   65MOL0     H 8910  10.896   1.099   5.770  3.7645 -0.9753  0.0237
   65MOL0     H 8911  11.001   1.145   5.489 -2.8404  0.2788 -0.0039
   65MOL0     H 8912  10.919   1.001   5.559 -1.8707  1.6356 -0.1797
   65MOL0     H 8913  11.129   0.962   5.715 -2.0954 -0.1760  0.1310
   65MOL0     H 8914  11.191   0.962   5.556 -0.7936 -2.9303  1.4531
   65MOL0     H 8915  11.244   1.157   5.760  0.4504  2.1197 -0.8351
   65MOL0     H 8916  11.190   1.230   5.603 -0.1519  0.5212 -1.2326
   65MOL0     H 8917  11.358   1.085   5.489  3.3766 -2.3806  0.5792
   65MOL0     H 8918  11.431   1.200   5.602 -0.3355  0.4082  0.0400
   65MOL0     H 8919  11.450   1.077   5.882  1.4957  3.0853 -1.4438
   65MOL0     H 8920  11.587   0.748   5.970  3.3581 -0.9966 -0.1719
   65MOL0     H 8921  11.583   0.910   6.026 -1.1585 -0.8002 -0.4714
   65MOL0     H 8922  11.790   0.758   5.850 -1.3676  0.6204 -1.1304
   65MOL0     H 8923  11.798   0.928   5.863 -1.1033 -0.1546  0.2318
   65MOL0     H 8924  11.846   0.890   6.106  0.5568  1.7129 -3.4749
   65MOL0     H 8925  11.783   0.721   6.085  0.6641 -0.8136  0.3187
   65MOL0     H 8926  12.043   0.712   6.102 -0.9106 -1.5732 -0.8048
   65MOL0     H 8927  11.983   0.673   5.950 -2.6093 -2.0123  2.4882
   65MOL0     H 8928  12.235   0.671   6.072 -0.3945  4.7131  2.7048
   65MOL0     H 8929  12.454   0.570   6.162  2.1408  2.4800  0.9458
   65MOL0     H 8930  12.568   0.538   6.052  0.0145  1.2435  2.9564
   65MOL0     H 8931  12.390   0.498   6.009 -2.7557  1.3772  1.1421
   65MOL0     H 8932  12.875   0.859   5.895  1.1816  4.6215 -0.3833
   65MOL0     H 8933  13.120   0.849   5.846  1.0466  0.9868 -1.6376
   65MOL0     H 8934  13.314   0.764   5.765 -1.4464 -2.9030  2.2974
   65MOL0     H 8935  13.238   0.632   5.680 -0.3323  0.2765  0.1715
   65MOL0     H 8936  13.447   0.604   5.578  2.0450  0.8595  2.0169
   65MOL0     H 8937  13.400   0.739   5.481  0.9978  3.0519  0.7524
   65MOL0     H 8938  13.624   0.773   5.576  1.2879 -1.3691  2.4378
   65MOL0     H 8939  13.573   0.746   5.742 -1.7347  1.8386  1.6198
   65MOL0     H 8940  13.435   0.957   5.738 -0.2646  3.0011 -0.2949
   65MOL0     H 8941  13.496   0.975   5.568  2.6695 -0.9077 -1.1383
   65MOL0     H 8942  13.628   1.120   5.711  3.2351  1.4967 -1.1893
   65MOL0     H 8943  13.677   0.978   5.811  3.4401  1.4157  0.2110
   65MOL0     H 8944  13.725   1.003   5.505  2.6280  5.2660 -0.5176
   65MOL0     H 8945  13.793   0.889   5.637  2.1152  0.1293  0.6388
   65MOL0     H 8946  13.820   1.193   5.626 -1.1116 -0.2396 -1.0195
   65MOL0     H 8947  13.927   1.085   5.536  1.9351 -2.4542  1.3804
   65MOL0     H 8948  13.882   1.033   5.844 -1.4409  2.7972  0.0852
   65MOL0     H 8949  14.009   1.142   5.782 -0.2669  0.2546  0.0069
   65MOL0     H 8950  13.029   0.804   5.430 -0.5070 -0.9125  0.1125
   65MOL0     H 8951  12.792   0.794   5.474 -1.1083  1.2583 -0.4225
   65MOL0     H 8952  12.460   0.907   5.713  0.0386  1.3789 -0.1667
   65MOL0     H 8953  12.235   0.972   5.768  1.7253 -0.1254 -2.7719
   65MOL0     H 8954  10.482   1.639   5.614  0.0585 -0.1419 -0.9254
   65MOL0     H 8955  10.261   1.737   5.562  0.6475  0.7579  0.3138
   65MOL0     H 8956   9.780   1.632   5.539 -3.8273 -0.1926  0.9099
   65MOL0     H 8957   9.578   1.730   5.462  0.6056  1.2106 -1.5795
   65MOL0     H 8958   9.554   2.179   5.478 -0.9072  1.3174  0.5577
   65MOL0     H 8959   9.404   2.154   5.404  1.2460  1.9740 -1.2333
   65MOL0     H 8960   9.385   2.240   5.651  0.7589  0.5212 -0.4489
   65MOL0     H 8961   9.452   2.081   5.702 -0.9817 -1.2315 -1.0635
   65MOL0     H 8962   9.221   2.079   5.526  1.4903 -1.7954 -0.1956
   65MOL0     H 8963   9.276   1.969   5.662 -1.9111  0.4731  0.8147
   65MOL0     H 8964   9.165   2.119   5.823  0.9938  0.2546 -0.2227
   65MOL0     H 8965   9.060   2.059   5.685 -2.5978  2.0195 -0.5598
   65MOL0     H 8966   9.083   2.484   5.633  0.7186  0.7411  0.7627
   65MOL0     H 8967   9.706   2.117   5.618  1.9220  0.5437 -1.2605
   65MOL0     H 8968   9.924   2.081   5.797 -1.1349  1.4519 -0.5069
   65MOL0     H 8969  10.025   2.067   5.641 -0.1465 -0.8444 -1.0096
   65MOL0     H 8970   9.895   2.172   5.654 -1.6097 -1.5407 -2.4404
   66MOL0     O 8971   7.657  11.278   3.101  0.0506 -0.8277  0.0615
   66MOL0     C 8972   7.621  11.172   3.047  0.2052  0.2028  0.0977
   66MOL0     O 8973   7.709  11.070   3.010  0.4386  0.0249 -0.4372
   66MOL0     C 8974   7.841  11.092   3.026 -0.5391 -0.2164  0.4973
   66MOL0     C 8975   7.910  11.069   3.141 -0.2055  0.6937  0.1968
   66MOL0     C 8976   8.054  11.100   3.142  1.0011 -0.5247 -0.1695
   66MOL0     C 8977   8.117  11.145   3.029 -0.2153  0.3678 -0.3367
   66MOL0     O 8978   8.241  11.194   3.042  0.2575 -0.3218 -0.8407
   66MOL0     C 8979   8.313  11.232   2.924 -0.3077  0.5885 -0.6055
   66MOL0     C 8980   8.445  11.268   2.988  0.0750 -0.0978 -1.3790
   66MOL0     C 8981   8.545  11.293   2.882 -0.5518  1.0734  0.0731
   66MOL0     C 8982   8.533  11.431   2.827  0.4706  0.2538 -0.1575
   66MOL0     C 8983   8.628  11.463   2.716  0.2501  0.5402 -0.8440
   66MOL0     C 8984   8.775  11.466   2.759  1.4807  0.2049 -0.0166
   66MOL0     C 8985   8.868  11.495   2.651 -0.6978 -0.2846  0.5083
   66MOL0     C 8986   8.859  11.657   2.622  0.1380 -0.0855 -0.0478
   66MOL0     N 8987   8.879  11.751   2.731  0.3165 -0.1096  0.0092
   66MOL0     C 8988   8.992  11.769   2.810  1.3119 -0.3405 -0.1686
   66MOL0     C 8989   8.956  11.877   2.890 -0.2679  0.0679 -0.3397
   66MOL0     C 8990   9.057  11.946   2.983 -0.6845  0.1227  0.1167
   66MOL0     C 8991   9.153  12.039   2.914  0.1267 -0.8228  0.3598
   66MOL0     C 8992   9.236  12.115   3.013 -0.1091 -0.1262 -0.6231
   66MOL0     C 8993   9.325  12.220   2.941 -0.1794 -0.5974  0.0128
   66MOL0     O 8994   9.442  12.152   2.913 -0.5823 -0.0504 -0.6394
   66MOL0     C 8995   9.515  12.181   2.795  0.2132  0.3830  0.3449
   66MOL0     C 8996   9.503  12.295   2.712  0.0387  0.1932 -0.0755
   66MOL0     C 8997   9.583  12.304   2.591  0.4251  1.1174 -0.5205
   66MOL0     C 8998   9.538  12.421   2.505  0.1989  0.1313  0.5295
   66MOL0     C 8999   9.668  12.197   2.541 -0.1515  1.3427 -0.2772
   66MOL0     C 9000   9.746  12.190   2.421 -1.0994 -0.2654 -0.0436
   66MOL0     O 9001   9.835  12.086   2.411 -0.8011 -0.4842  0.6725
   66MOL0     C 9002   9.924  12.088   2.307 -0.2275 -0.0256 -0.2708
   66MOL0     C 9003  10.055  12.139   2.324  0.5355  0.5320 -0.2929
   66MOL0     C 9004  10.146  12.101   2.236 -1.1080 -0.5889  0.3054
   66MOL0     C 9005  10.127  12.023   2.128  0.3854 -0.6385  1.2139
   66MOL0     O 9006  10.224  11.986   2.035  0.5799 -0.0175 -0.0047
   66MOL0     C 9007  10.354  12.038   2.054  0.1266  0.5122 -0.0202
   66MOL0     C 9008  10.453  12.028   1.938  0.1518  0.4507  0.1907
   66MOL0     C 9009  10.400  12.028   1.796  0.4290 -0.2423  0.5281
   66MOL0     C 9010  10.512  12.061   1.699 -0.1489  0.1676  0.5382
   66MOL0     C 9011  10.473  12.033   1.558  0.1298  0.1567 -0.5123
   66MOL0     C 9012  10.590  12.068   1.480 -0.6327  0.0844  0.6874
   66MOL0     C 9013  10.545  12.047   1.335 -0.5277  0.5273 -0.7553
   66MOL0     C 9014  10.444  12.154   1.290 -0.6122  0.0639 -0.5158
   66MOL0    Cl 9015  10.418  12.141   1.115 -0.3316  0.5653  0.4102
   66MOL0     C 9016   9.990  11.991   2.103  0.0894 -0.1771  0.3042
   66MOL0     C 9017   9.889  12.020   2.196  0.3849  0.3408  0.0017
   66MOL0     O 9018   9.748  12.284   2.343 -0.3566  1.1472 -0.0817
   66MOL0     C 9019   9.672  12.082   2.625 -0.0440  0.1404 -0.0703
   66MOL0     C 9020   9.606  12.077   2.750  0.0452  1.2900 -0.1332
   66MOL0     N 9021   8.831  11.924   2.852 -1.2469 -0.0696 -0.6746
   66MOL0     N 9022   8.783  11.841   2.759 -0.9966 -0.0596 -0.0795
   66MOL0     C 9023   8.044  11.155   2.908  0.0153  0.2872 -0.1386
   66MOL0     C 9024   7.902  11.145   2.912  0.2322  0.3137 -0.2918
   66MOL0     C 9025   7.468  11.156   3.022 -0.9563 -0.3133 -0.2520
   66MOL0     C 9026   7.382  11.266   3.058  0.1730  0.5127 -0.2544
   66MOL0     C 9027   7.241  11.258   3.044  0.3541 -0.4746 -0.3364
   66MOL0     C 9028   7.189  11.139   3.014  0.5001  0.0923  0.7468
   66MOL0     O 9029   7.051  11.118   2.990 -0.5328  0.2712 -0.6250
   66MOL0     C 9030   6.961  11.225   3.041 -0.1886  0.1662  0.2235
   66MOL0     C 9031   6.817  11.189   3.030 -0.2800 -0.2573 -0.0312
   66MOL0     C 9032   6.784  11.086   3.134 -0.6242  0.7861  0.2921
   66MOL0     C 9033   6.779  10.939   3.078  0.2346 -0.0768 -0.5142
   66MOL0     C 9034   6.638  10.904   3.041  0.5289 -0.2214 -0.2233
   66MOL0     C 9035   6.535  10.878   2.986 -0.0660 -0.2002 -0.9120
   66MOL0     C 9036   7.266  11.025   2.992  0.0809 -1.3071 -0.5864
   66MOL0     C 9037   7.410  11.033   2.990  0.3729 -0.6417 -0.0623
   66MOL0     C 9038   7.481  10.908   2.944  0.4006 -0.8478  0.2120
   66MOL0     H 9039   7.858  11.041   3.233  0.1836 -2.0360 -0.3323
   66MOL0     H 9040   8.112  11.094   3.233  2.5309 -1.6285 -1.1635
   66MOL0     H 9041   8.268  11.323   2.883 -1.2370  0.0861 -0.7297
   66MOL0     H 9042   8.322  11.153   2.849  2.3292 -0.3601  0.6055
   66MOL0     H 9043   8.437  11.359   3.048 -1.3004 -0.3291 -1.1658
   66MOL0     H 9044   8.483  11.187   3.050 -0.0337  0.1260 -1.0186
   66MOL0     H 9045   8.643  11.277   2.928 -1.3897 -0.5808  1.4344
   66MOL0     H 9046   8.541  11.212   2.808  1.8715 -1.5395  2.5394
   66MOL0     H 9047   8.430  11.430   2.790  0.0466  0.1758  0.9916
   66MOL0     H 9048   8.536  11.516   2.895  0.5412  1.2124 -1.3327
   66MOL0     H 9049   8.595  11.560   2.680 -0.0326  0.2547 -1.3590
   66MOL0     H 9050   8.619  11.383   2.642  0.4675  0.5652 -0.8976
   66MOL0     H 9051   8.786  11.534   2.844 -1.4609  0.2800  0.4066
   66MOL0     H 9052   8.792  11.363   2.793  2.1028  1.1230  2.7371
   66MOL0     H 9053   8.849  11.448   2.555  2.6249  0.2150 -0.5263
   66MOL0     H 9054   8.969  11.471   2.685 -1.0591 -0.5508  1.4222
   66MOL0     H 9055   8.929  11.684   2.542  0.7987 -1.1729  0.1544
   66MOL0     H 9056   8.756  11.673   2.588  0.4886  2.3579 -0.1451
   66MOL0     H 9057   9.081  11.707   2.818 -0.7731 -3.6807 -1.0993
   66MOL0     H 9058   9.099  11.870   3.049 -1.8534  0.4599  1.3078
   66MOL0     H 9059   8.999  12.015   3.045 -0.9317 -0.0035  0.0267
   66MOL0     H 9060   9.217  11.989   2.840 -0.1033  2.2800 -2.2164
   66MOL0     H 9061   9.099  12.109   2.849 -0.7266  0.1682  2.0632
   66MOL0     H 9062   9.179  12.179   3.081  0.6903  1.2334 -1.2023
   66MOL0     H 9063   9.294  12.049   3.078 -1.4060  1.2116  2.0562
   66MOL0     H 9064   9.284  12.263   2.849 -1.7553 -1.8800  0.0686
   66MOL0     H 9065   9.340  12.308   3.005 -1.5331 -0.6621  0.4527
   66MOL0     H 9066   9.443  12.380   2.743 -0.2650  1.0218 -2.6781
   66MOL0     H 9067   9.464  12.484   2.555  0.8617  0.6518  0.8512
   66MOL0     H 9068   9.494  12.375   2.416  1.1548  0.7467 -0.2738
   66MOL0     H 9069   9.624  12.477   2.468 -0.6369 -0.2863 -2.2597
   66MOL0     H 9070  10.071  12.203   2.410  0.1020  0.1165  0.1068
   66MOL0     H 9071  10.247  12.131   2.262 -0.6972 -2.1267  0.6142
   66MOL0     H 9072  10.335  12.141   2.085 -0.4596  0.7608 -1.1706
   66MOL0     H 9073  10.408  11.985   2.133  1.8299 -0.1265 -1.5650
   66MOL0     H 9074  10.509  12.121   1.954  0.2841  0.1278  1.7528
   66MOL0     H 9075  10.513  11.940   1.959 -2.5782 -1.2204  1.5223
   66MOL0     H 9076  10.318  12.101   1.788  0.0616 -0.1680  3.5291
   66MOL0     H 9077  10.368  11.928   1.767  1.1756  0.2885 -2.3668
   66MOL0     H 9078  10.601  12.006   1.733 -0.4628 -0.3735  0.4908
   66MOL0     H 9079  10.538  12.167   1.708  0.1024  0.2180 -0.6799
   66MOL0     H 9080  10.448  11.927   1.549  2.2245 -0.6383  1.6905
   66MOL0     H 9081  10.384  12.093   1.536 -1.8890 -1.4032  2.6256
   66MOL0     H 9082  10.668  12.002   1.518 -0.3614 -0.0853 -0.1480
   66MOL0     H 9083  10.620  12.173   1.493  1.3670 -0.2877 -0.5666
   66MOL0     H 9084  10.510  11.943   1.336  0.9501 -0.0344  1.3760
   66MOL0     H 9085  10.634  12.041   1.272  0.2356  0.2207  0.3164
   66MOL0     H 9086  10.497  12.249   1.302  0.7577 -0.3620 -2.6573
   66MOL0     H 9087  10.349  12.148   1.345 -0.3738  1.8258  0.1359
   66MOL0     H 9088   9.964  11.936   2.013 -0.4263 -0.4252  0.6058
   66MOL0     H 9089   9.788  11.982   2.184  0.3449  1.1489 -2.8368
   66MOL0     H 9090   9.738  11.998   2.612 -0.6520 -0.4715  0.7014
   66MOL0     H 9091   9.606  11.985   2.806 -0.8620  0.1449 -1.9341
   66MOL0     H 9092   8.093  11.190   2.818  0.0855 -1.0801 -0.6551
   66MOL0     H 9093   7.844  11.169   2.824 -2.7426  0.8821  1.6763
   66MOL0     H 9094   7.428  11.361   3.082 -0.2542  0.1536  2.1891
   66MOL0     H 9095   7.189  11.354   3.043  0.9761 -0.0724  1.4239
   66MOL0     H 9096   6.987  11.256   3.142 -0.0834  0.5134  0.0901
   66MOL0     H 9097   6.988  11.312   2.980 -1.0319  0.3806  0.1406
   66MOL0     H 9098   6.788  11.149   2.932 -3.5088  2.8594 -0.5672
   66MOL0     H 9099   6.749  11.274   3.040  0.2464  0.1833 -0.1029
   66MOL0     H 9100   6.860  11.087   3.212  0.6851 -1.2458 -0.8416
   66MOL0     H 9101   6.689  11.111   3.180 -0.4632  0.0801  1.0352
   66MOL0     H 9102   6.818  10.873   3.156  1.7482  1.5935  0.2208
   66MOL0     H 9103   6.845  10.923   2.992 -0.6900  1.4859 -1.5497
   66MOL0     H 9104   6.437  10.859   2.947 -0.5703  0.9462 -0.2468
   66MOL0     H 9105   7.211  10.934   2.975  0.6726 -1.6371 -0.7839
   66MOL0     H 9106   7.547  10.860   3.017  1.5115  0.2952  0.0030
   66MOL0     H 9107   7.410  10.834   2.907  1.9197 -3.0374  1.4399
   66MOL0     H 9108   7.538  10.932   2.853  2.4082 -0.4561  1.5085
   67MOL0     O 9109   2.406   3.266   6.832 -0.5288  0.2899  0.6153
   67MOL0     C 9110   2.410   3.382   6.824  0.3346 -0.3580 -0.0710
   67MOL0     O 9111   2.466   3.466   6.908  0.5711  0.2349 -0.4915
   67MOL0     C 9112   2.583   3.428   6.980 -0.0764  0.5321  0.0761
   67MOL0     C 9113   2.584   3.330   7.084 -0.7743 -0.0959 -0.2175
   67MOL0     C 9114   2.705   3.309   7.160  0.4306  0.0406 -0.0364
   67MOL0     C 9115   2.815   3.394   7.144  0.0986 -0.2953 -0.2106
   67MOL0     O 9116   2.929   3.354   7.215  0.5027  0.4074  0.3537
   67MOL0     C 9117   3.060   3.362   7.159 -0.6250 -0.9406  0.3048
   67MOL0     C 9118   3.082   3.278   7.039 -0.1601  1.1264  0.7501
   67MOL0     C 9119   3.231   3.242   7.018 -0.3325 -0.1082 -0.2859
   67MOL0     C 9120   3.258   3.138   6.905  0.3559  0.2974  0.0137
   67MOL0     C 9121   3.398   3.170   6.850 -0.1491  0.4479 -0.5169
   67MOL0     C 9122   3.441   3.056   6.753  0.0834  0.0369 -0.2991
   67MOL0     C 9123   3.581   3.094   6.697 -0.6264  0.6800  0.3470
   67MOL0     C 9124   3.626   2.983   6.599 -1.0727 -0.8112  0.0193
   67MOL0     N 9125   3.772   2.983   6.570 -0.0408  0.1794 -0.0986
   67MOL0     C 9126   3.839   3.084   6.503  0.4999  0.1585  0.3914
   67MOL0     C 9127   3.963   3.036   6.513 -0.0244 -0.9021  0.3121
   67MOL0     C 9128   4.080   3.118   6.467 -0.3530  0.9347  0.2912
   67MOL0     C 9129   4.197   3.111   6.564  0.2162 -0.1801  0.7134
   67MOL0     C 9130   4.299   2.995   6.542 -0.0060  0.4216  0.4906
   67MOL0     C 9131   4.443   3.015   6.607 -0.3658 -0.7867 -0.0096
   67MOL0     O 9132   4.505   3.128   6.532 -0.2632 -0.1124  0.1288
   67MOL0     C 9133   4.628   3.092   6.500  0.0526  0.2632  0.3101
   67MOL0     C 9134   4.667   3.085   6.368 -0.8371  0.4904  0.4401
   67MOL0     C 9135   4.804   3.073   6.327  0.2121  0.3464  0.2245
   67MOL0     C 9136   4.836   3.107   6.174 -0.3871 -0.0282 -0.5481
   67MOL0     C 9137   4.896   3.054   6.424 -0.0059 -0.5947  0.9827
   67MOL0     C 9138   5.043   3.042   6.377  0.5235  0.0469 -0.4482
   67MOL0     O 9139   5.126   3.059   6.486 -0.1531  0.1142 -0.4095
   67MOL0     C 9140   5.254   3.026   6.466  0.0089 -0.3813 -0.2224
   67MOL0     C 9141   5.334   3.090   6.375  0.3975  0.5623 -0.2626
   67MOL0     C 9142   5.471   3.049   6.366  0.2563 -0.0423 -0.0898
   67MOL0     C 9143   5.519   2.949   6.446 -0.0441 -0.7351  0.5623
   67MOL0     O 9144   5.650   2.906   6.423 -0.1431  0.1238 -0.2022
   67MOL0     C 9145   5.665   2.764   6.391  0.7226 -0.1350 -0.2735
   67MOL0     C 9146   5.810   2.725   6.399  1.0637 -0.4969  1.1081
   67MOL0     C 9147   5.901   2.784   6.275  0.2328  0.7131 -0.2835
   67MOL0     C 9148   5.898   2.701   6.152  0.1816 -0.1895 -0.2239
   67MOL0     C 9149   5.972   2.772   6.031 -0.7506 -0.2829 -0.2528
   67MOL0     C 9150   6.125   2.790   6.039 -0.3965 -0.0782  0.8420
   67MOL0     C 9151   6.179   2.854   5.916 -0.2545 -0.7319  0.3952
   67MOL0     C 9152   6.288   2.959   5.941 -0.0070 -0.0107  0.5140
   67MOL0    Cl 9153   6.244   3.118   6.011 -0.2206 -0.0291 -0.1890
   67MOL0     C 9154   5.438   2.898   6.544 -0.5431  0.2877 -0.8141
   67MOL0     C 9155   5.305   2.937   6.553 -0.9862 -0.9987  0.1580
   67MOL0     O 9156   5.069   2.991   6.271 -0.0701 -0.1405  0.4669
   67MOL0     C 9157   4.858   3.051   6.561  0.3868 -0.4543  0.0508
   67MOL0     C 9158   4.722   3.071   6.599  0.3498 -0.4708  0.4743
   67MOL0     N 9159   3.966   2.912   6.574  0.3492  0.4195  0.2539
   67MOL0     N 9160   3.845   2.873   6.598 -0.1735  0.1265 -0.0788
   67MOL0     C 9161   2.808   3.488   7.039 -1.0054 -0.3844  0.4531
   67MOL0     C 9162   2.705   3.495   6.954  0.0858 -0.1382  0.2977
   67MOL0     C 9163   2.312   3.449   6.737 -0.3141  0.3353  0.7858
   67MOL0     C 9164   2.214   3.529   6.778  0.4859  0.1700 -0.9928
   67MOL0     C 9165   2.148   3.623   6.700  0.8123  0.5636 -0.1160
   67MOL0     C 9166   2.155   3.610   6.561 -0.3606 -0.0953 -0.5973
   67MOL0     O 9167   2.071   3.671   6.470  0.5687  0.5099 -0.4839
   67MOL0     C 9168   1.971   3.759   6.521  0.2773 -1.6965 -0.1597
   67MOL0     C 9169   1.884   3.820   6.406 -0.2050 -0.5182 -0.8094
   67MOL0     C 9170   1.768   3.909   6.471 -0.2615  0.3634  0.6538
   67MOL0     C 9171   1.676   3.973   6.363 -0.0169 -0.0858 -0.5663
   67MOL0     C 9172   1.735   4.074   6.276  0.7390 -0.4643 -0.4227
   67MOL0     C 9173   1.788   4.163   6.220 -0.3673 -0.4027  0.7495
   67MOL0     C 9174   2.260   3.535   6.517  0.1741  0.3577  0.0547
   67MOL0     C 9175   2.339   3.459   6.598 -0.2825  0.7665  0.9985
   67MOL0     C 9176   2.469   3.388   6.544 -1.4349 -0.3383  0.4334
   67MOL0     H 9177   2.491   3.276   7.096 -0.2234 -1.0692 -0.2628
   67MOL0     H 9178   2.708   3.251   7.252 -0.8243 -0.8117 -0.5213
   67MOL0     H 9179   3.127   3.327   7.239  0.1807  1.2624  0.6618
   67MOL0     H 9180   3.092   3.465   7.141  1.8301 -1.7261 -0.1997
   67MOL0     H 9181   3.028   3.184   7.052  1.2427  0.4855  2.2209
   67MOL0     H 9182   3.040   3.341   6.959  1.3201  0.6653 -0.4330
   67MOL0     H 9183   3.266   3.341   6.987 -3.9434  1.1882 -0.7091
   67MOL0     H 9184   3.286   3.208   7.107 -0.5816  0.7122  0.1904
   67MOL0     H 9185   3.257   3.032   6.932  0.1269  0.5845  1.1736
   67MOL0     H 9186   3.193   3.161   6.820  1.5556  3.5828 -0.1767
   67MOL0     H 9187   3.468   3.194   6.931 -1.5814  2.4830  0.2132
   67MOL0     H 9188   3.390   3.264   6.794  2.4365 -0.0794 -1.9117
   67MOL0     H 9189   3.443   2.963   6.810  2.3903  1.1629  1.6327
   67MOL0     H 9190   3.364   3.051   6.676 -0.7378 -2.0519  0.5783
   67MOL0     H 9191   3.654   3.107   6.778 -0.7555  1.4108  0.3490
   67MOL0     H 9192   3.571   3.181   6.633  1.7132 -0.1629 -1.3165
   67MOL0     H 9193   3.601   2.883   6.635 -0.2861 -0.8708  0.4305
   67MOL0     H 9194   3.575   3.001   6.504 -1.3615 -0.3341  0.2626
   67MOL0     H 9195   3.799   3.179   6.469  0.9389  0.8477  1.7169
   67MOL0     H 9196   4.048   3.221   6.449 -0.7309  0.6728 -0.6038
   67MOL0     H 9197   4.113   3.076   6.371  0.8790  0.0670  1.0730
   67MOL0     H 9198   4.249   3.207   6.564  1.7939 -0.9844 -0.7373
   67MOL0     H 9199   4.155   3.102   6.665 -0.0293 -2.7362  0.4419
   67MOL0     H 9200   4.258   2.901   6.582  4.1200 -0.9080  2.0551
   67MOL0     H 9201   4.309   2.967   6.437 -1.8687 -1.4100  0.7369
   67MOL0     H 9202   4.438   3.047   6.711  2.3432 -0.5551  0.1399
   67MOL0     H 9203   4.497   2.920   6.598  0.8767  0.0026 -1.4725
   67MOL0     H 9204   4.592   3.114   6.295  0.1220  1.4451 -0.1991
   67MOL0     H 9205   4.862   3.021   6.112  0.0486 -0.8281  0.7065
   67MOL0     H 9206   4.919   3.179   6.176  0.6239 -1.1708 -0.4945
   67MOL0     H 9207   4.749   3.152   6.124  0.2471  0.4385 -1.2565
   67MOL0     H 9208   5.309   3.185   6.329  0.0558  1.4948  1.7448
   67MOL0     H 9209   5.538   3.112   6.309  0.9151 -2.2612 -1.9547
   67MOL0     H 9210   5.615   2.697   6.461 -2.5111 -0.3480 -2.5694
   67MOL0     H 9211   5.639   2.736   6.288 -0.8766 -1.2202  0.3946
   67MOL0     H 9212   5.858   2.763   6.490  0.1928 -0.4811  1.5660
   67MOL0     H 9213   5.822   2.617   6.393 -1.0982 -0.7869  1.3683
   67MOL0     H 9214   6.004   2.778   6.312 -0.4182  0.0023  1.5718
   67MOL0     H 9215   5.858   2.883   6.258 -0.8292  0.0046 -2.0369
   67MOL0     H 9216   5.794   2.682   6.126 -0.1172 -1.0363  1.4829
   67MOL0     H 9217   5.953   2.611   6.181  0.3857  0.1647  0.4936
   67MOL0     H 9218   5.946   2.718   5.939 -2.6234  0.5646 -0.2742
   67MOL0     H 9219   5.925   2.870   6.014 -2.3816 -0.7009  1.5694
   67MOL0     H 9220   6.171   2.692   6.059  2.1601  1.5650  3.9677
   67MOL0     H 9221   6.152   2.841   6.132 -1.0172 -2.5462  2.4997
   67MOL0     H 9222   6.107   2.897   5.846  1.2727  1.1239 -0.1538
   67MOL0     H 9223   6.229   2.777   5.856 -2.3071 -2.1409  0.3831
   67MOL0     H 9224   6.342   2.976   5.847 -1.1016 -0.3087 -0.1895
   67MOL0     H 9225   6.364   2.915   6.005  0.4629 -2.2007 -1.4332
   67MOL0     H 9226   5.480   2.840   6.626  1.6681 -1.1529 -2.8192
   67MOL0     H 9227   5.252   2.900   6.640 -1.9883  0.6697  0.2978
   67MOL0     H 9228   4.923   3.025   6.643 -3.3241 -2.8428  2.5372
   67MOL0     H 9229   4.682   3.055   6.699 -4.7652  0.3502 -1.1082
   67MOL0     H 9230   2.902   3.538   7.021 -1.2419 -0.4069 -0.8820
   67MOL0     H 9231   2.709   3.554   6.864 -2.1765 -0.7740 -0.2811
   67MOL0     H 9232   2.201   3.513   6.885 -0.4806 -1.6339 -1.3530
   67MOL0     H 9233   2.067   3.685   6.736 -1.9639 -0.8727 -3.3854
   67MOL0     H 9234   1.895   3.726   6.593  0.2154  0.5874  0.9061
   67MOL0     H 9235   2.030   3.841   6.562  1.9075 -2.6868 -0.4676
   67MOL0     H 9236   1.840   3.735   6.354 -4.7744  1.1741 -0.2003
   67MOL0     H 9237   1.945   3.890   6.348 -2.2402  2.4855  0.3912
   67MOL0     H 9238   1.717   3.851   6.548  0.0618  0.2810  0.8059
   67MOL0     H 9239   1.806   3.997   6.525 -1.1382  0.4762  1.1051
   67MOL0     H 9240   1.603   4.018   6.431  1.6966 -0.1568  1.4077
   67MOL0     H 9241   1.625   3.906   6.293  0.5069 -0.5211 -0.5283
   67MOL0     H 9242   1.814   4.252   6.168 -0.5829 -0.6772  0.1663
   67MOL0     H 9243   2.261   3.543   6.409  0.8351  0.0395  0.0318
   67MOL0     H 9244   2.462   3.279   6.540  0.3781 -0.4406 -2.5133
   67MOL0     H 9245   2.487   3.433   6.447 -2.9384  1.7559  1.0686
   67MOL0     H 9246   2.557   3.421   6.601 -1.9540  0.0613  1.0163
   68MOL0     O 9247   4.021   2.492   0.103 -0.3713 -0.4621  0.2141
   68MOL0     C 9248   4.073   2.516   0.211 -0.1147  0.8395  0.0205
   68MOL0     O 9249   4.010   2.571   0.323  0.4890 -0.0388 -0.3286
   68MOL0     C 9250   3.870   2.578   0.319  0.6614 -0.1034 -0.2550
   68MOL0     C 9251   3.789   2.492   0.388 -0.1448  0.4882  0.2275
   68MOL0     C 9252   3.653   2.489   0.389  0.3862 -0.2205 -0.1412
   68MOL0     C 9253   3.587   2.597   0.317  0.1984  0.5474 -0.4052
   68MOL0     O 9254   3.455   2.631   0.316  0.1540 -0.1817  0.4253
   68MOL0     C 9255   3.374   2.602   0.434  0.3600 -0.4686  0.0867
   68MOL0     C 9256   3.246   2.678   0.418  0.0984  0.1509 -0.4367
   68MOL0     C 9257   3.182   2.706   0.557  0.3011 -0.6038 -0.4200
   68MOL0     C 9258   3.047   2.769   0.540  0.2070  0.1693  0.8743
   68MOL0     C 9259   2.983   2.825   0.666  1.0257  0.2536  0.4627
   68MOL0     C 9260   2.952   2.721   0.773 -0.4991 -0.6957  0.3250
   68MOL0     C 9261   2.887   2.780   0.900  0.0415 -0.1365 -0.6698
   68MOL0     C 9262   2.882   2.667   0.999  0.0752  0.6403 -0.5461
   68MOL0     N 9263   3.013   2.634   1.063 -0.0730 -0.1850  0.0958
   68MOL0     C 9264   3.096   2.726   1.123 -0.6647 -0.5912  0.1200
   68MOL0     C 9265   3.210   2.649   1.155 -0.1006  0.8747 -0.1405
   68MOL0     C 9266   3.339   2.683   1.220 -0.0631 -1.2640 -0.0878
   68MOL0     C 9267   3.338   2.680   1.376  0.0818  0.2333 -0.3736
   68MOL0     C 9268   3.478   2.691   1.434  0.4755 -0.5925 -0.6645
   68MOL0     C 9269   3.549   2.823   1.437  0.4422 -0.5521 -0.0906
   68MOL0     O 9270   3.692   2.806   1.451 -0.6700 -0.4429 -0.8755
   68MOL0     C 9271   3.749   2.800   1.578 -0.5348  0.9224 -0.1690
   68MOL0     C 9272   3.682   2.801   1.701 -0.2919  0.2548  0.2000
   68MOL0     C 9273   3.752   2.799   1.825  0.9916 -0.6973  0.3841
   68MOL0     C 9274   3.663   2.778   1.944 -0.7277  1.1358  0.2266
   68MOL0     C 9275   3.894   2.795   1.832  0.3236 -0.3406 -0.2981
   68MOL0     C 9276   3.976   2.777   1.953  0.1336 -0.5458  0.7076
   68MOL0     O 9277   4.099   2.719   1.929 -0.0420  0.4524 -0.4721
   68MOL0     C 9278   4.197   2.733   2.019 -0.6213  0.1944 -0.7125
   68MOL0     C 9279   4.230   2.862   2.078  1.1499  0.3057 -0.1861
   68MOL0     C 9280   4.345   2.877   2.153 -0.0179  1.0059  0.5625
   68MOL0     C 9281   4.435   2.774   2.175 -0.7810  0.1002 -0.1300
   68MOL0     O 9282   4.553   2.803   2.241  0.3085  0.2319 -0.1262
   68MOL0     C 9283   4.677   2.788   2.166 -0.1761 -0.1338 -0.8196
   68MOL0     C 9284   4.678   2.857   2.030 -0.5187  1.0523  0.0997
   68MOL0     C 9285   4.636   3.000   2.022 -0.2119 -0.3650 -0.6939
   68MOL0     C 9286   4.641   3.059   1.878 -0.1066 -0.7920  1.4072
   68MOL0     C 9287   4.584   3.206   1.864  0.0821  0.4214  0.0043
   68MOL0     C 9288   4.674   3.312   1.931  0.4580  0.9410 -1.1726
   68MOL0     C 9289   4.609   3.453   1.933  0.3507 -0.6659  0.6540
   68MOL0     C 9290   4.580   3.515   1.792  0.0677 -0.4397 -0.4432
   68MOL0    Cl 9291   4.717   3.501   1.667 -0.1870  0.3535  0.1439
   68MOL0     C 9292   4.406   2.647   2.122 -0.2671 -0.8466  0.7023
   68MOL0     C 9293   4.289   2.625   2.038 -0.0874 -0.8772  0.6267
   68MOL0     O 9294   3.943   2.832   2.059 -0.3812 -0.1810 -0.0227
   68MOL0     C 9295   3.960   2.794   1.705 -0.0459 -0.1827 -0.6643
   68MOL0     C 9296   3.886   2.802   1.591  0.1866  0.5003 -0.5502
   68MOL0     N 9297   3.183   2.512   1.122 -0.2761 -0.4156  0.1004
   68MOL0     N 9298   3.069   2.509   1.060 -0.2162 -0.2429 -0.6385
   68MOL0     C 9299   3.664   2.677   0.232 -0.2985  0.0810 -0.6687
   68MOL0     C 9300   3.801   2.662   0.233 -0.1197 -0.0686 -1.1639
   68MOL0     C 9301   4.225   2.506   0.224 -0.0343 -0.6315  0.4649
   68MOL0     C 9302   4.283   2.572   0.330  0.8018  0.5573  0.9230
   68MOL0     C 9303   4.415   2.563   0.355  0.4145  0.0912 -0.3067
   68MOL0     C 9304   4.502   2.480   0.281 -0.1791  0.1911  0.5080
   68MOL0     O 9305   4.635   2.459   0.312 -0.3369 -1.0820 -0.2743
   68MOL0     C 9306   4.686   2.326   0.339  0.5296 -0.2729  0.5023
   68MOL0     C 9307   4.646   2.285   0.481  0.6238 -0.6503 -0.6245
   68MOL0     C 9308   4.722   2.159   0.519 -1.2328 -0.1035 -0.4454
   68MOL0     C 9309   4.674   2.110   0.661  0.4977 -0.2090 -0.1170
   68MOL0     C 9310   4.538   2.057   0.659 -0.0950 -0.7162 -0.5822
   68MOL0     C 9311   4.424   2.026   0.649  0.4666  0.3707 -0.1436
   68MOL0     C 9312   4.446   2.416   0.170 -0.3676 -0.5737  0.5003
   68MOL0     C 9313   4.313   2.431   0.137  0.3550 -0.0571  0.6818
   68MOL0     C 9314   4.249   2.346   0.029  0.5485 -0.2506  0.1840
   68MOL0     H 9315   3.842   2.426   0.456  2.7289  0.6654 -1.6424
   68MOL0     H 9316   3.606   2.421   0.459 -1.5771  0.2260 -0.9830
   68MOL0     H 9317   3.426   2.630   0.526 -1.6096  0.1174  1.0912
   68MOL0     H 9318   3.350   2.496   0.439 -1.4549 -0.0742  0.6286
   68MOL0     H 9319   3.277   2.767   0.363 -1.3727 -0.5615 -2.5572
   68MOL0     H 9320   3.178   2.619   0.355 -2.2352  1.2093  0.9740
   68MOL0     H 9321   3.171   2.610   0.609  3.0860 -1.0058 -0.4308
   68MOL0     H 9322   3.239   2.783   0.609  0.8163 -0.0079 -1.8336
   68MOL0     H 9323   3.055   2.844   0.461 -0.2687 -0.0812  0.5841
   68MOL0     H 9324   2.977   2.696   0.497 -2.1921  2.8027 -0.0267
   68MOL0     H 9325   2.889   2.872   0.640  1.4746  1.7558  1.4285
   68MOL0     H 9326   3.046   2.899   0.717  0.2084  0.1963  1.5913
   68MOL0     H 9327   2.881   2.655   0.723 -1.1392  0.8343 -0.8647
   68MOL0     H 9328   3.040   2.662   0.798  0.7607  0.5885 -0.9580
   68MOL0     H 9329   2.783   2.801   0.874 -0.6784 -2.6470 -0.1437
   68MOL0     H 9330   2.942   2.869   0.931 -0.5687 -0.0799  0.3183
   68MOL0     H 9331   2.812   2.690   1.079 -2.2070  1.5063 -2.6771
   68MOL0     H 9332   2.855   2.574   0.948  1.9375 -0.0575 -0.3593
   68MOL0     H 9333   3.084   2.833   1.128 -2.4744 -0.5164 -3.2289
   68MOL0     H 9334   3.374   2.781   1.186 -2.2333  0.0006  1.0940
   68MOL0     H 9335   3.416   2.618   1.180  1.3970  2.8043 -4.9870
   68MOL0     H 9336   3.272   2.753   1.424  2.2899  1.5984  0.7314
   68MOL0     H 9337   3.306   2.579   1.404 -0.3058  0.1241 -1.1739
   68MOL0     H 9338   3.473   2.653   1.536  0.4492  1.3175  0.0856
   68MOL0     H 9339   3.541   2.621   1.378  1.0914  0.6642 -1.6186
   68MOL0     H 9340   3.512   2.892   1.361 -3.1988 -0.0630  1.8998
   68MOL0     H 9341   3.504   2.866   1.527  0.6767  0.3743 -0.4066
   68MOL0     H 9342   3.573   2.802   1.700 -0.5358 -4.0126 -2.1882
   68MOL0     H 9343   3.661   2.670   1.961 -0.2049  0.7792 -1.6981
   68MOL0     H 9344   3.563   2.821   1.936 -1.0367  0.3039 -0.4623
   68MOL0     H 9345   3.700   2.826   2.035  1.2349 -0.4823  0.3712
   68MOL0     H 9346   4.162   2.946   2.063  0.6469 -0.1201 -0.3074
   68MOL0     H 9347   4.377   2.972   2.196  0.8918  0.6588  0.6776
   68MOL0     H 9348   4.750   2.839   2.230 -1.0976 -2.2882  2.2133
   68MOL0     H 9349   4.715   2.686   2.163 -0.2454 -0.3113  1.9671
   68MOL0     H 9350   4.780   2.843   1.992  0.8800  2.2681  3.1153
   68MOL0     H 9351   4.610   2.796   1.970 -1.0662 -0.0370  1.7644
   68MOL0     H 9352   4.696   3.053   2.096 -2.7394 -2.2565  3.0700
   68MOL0     H 9353   4.534   2.995   2.061 -0.7703  0.1825 -2.0227
   68MOL0     H 9354   4.576   2.995   1.818  0.5907  1.9376 -2.7334
   68MOL0     H 9355   4.738   3.053   1.828 -1.2294  3.7456 -2.0167
   68MOL0     H 9356   4.582   3.224   1.756  3.5024  4.1450  0.3033
   68MOL0     H 9357   4.488   3.213   1.917  1.1041 -0.2926  2.0437
   68MOL0     H 9358   4.770   3.317   1.879  0.3073  0.7027 -1.4700
   68MOL0     H 9359   4.692   3.285   2.036  2.8696  2.4871 -1.1007
   68MOL0     H 9360   4.676   3.521   1.986  2.0781 -1.2380 -0.6961
   68MOL0     H 9361   4.514   3.453   1.986  0.9561 -0.4062  1.7710
   68MOL0     H 9362   4.550   3.619   1.807 -0.6943 -0.7145 -0.0127
   68MOL0     H 9363   4.490   3.461   1.760 -1.0342  0.2715  1.3438
   68MOL0     H 9364   4.478   2.566   2.127 -0.3105 -1.1718 -2.0158
   68MOL0     H 9365   4.281   2.532   1.984 -2.3198 -1.0312  1.1479
   68MOL0     H 9366   4.068   2.784   1.697 -0.0009 -2.2677  1.3381
   68MOL0     H 9367   3.944   2.815   1.499  1.0289 -0.2072 -0.1358
   68MOL0     H 9368   3.617   2.752   0.169 -2.2749 -1.1478 -0.7694
   68MOL0     H 9369   3.847   2.738   0.169 -1.8057  0.8336 -1.3753
   68MOL0     H 9370   4.236   2.657   0.378  0.7944  2.1517 -1.7022
   68MOL0     H 9371   4.464   2.624   0.430  0.7072  0.1662 -0.5577
   68MOL0     H 9372   4.647   2.247   0.274 -0.1559 -2.1591  3.0249
   68MOL0     H 9373   4.793   2.334   0.315  0.4892 -1.6098 -0.2070
   68MOL0     H 9374   4.537   2.273   0.481  0.5482 -0.1759 -2.0609
   68MOL0     H 9375   4.668   2.368   0.549 -0.4072  0.9524 -2.1651
   68MOL0     H 9376   4.721   2.079   0.444  0.0707  0.3173 -0.9541
   68MOL0     H 9377   4.826   2.192   0.535 -1.3413 -0.2583  0.6216
   68MOL0     H 9378   4.684   2.199   0.724  2.9664  0.7702 -1.7453
   68MOL0     H 9379   4.738   2.032   0.702 -1.4439 -1.2532  1.0509
   68MOL0     H 9380   4.323   1.991   0.649  0.3595  0.5812  1.6000
   68MOL0     H 9381   4.502   2.352   0.103 -1.0713 -0.2133 -0.4663
   68MOL0     H 9382   4.235   2.413  -0.056 -2.6130  0.1963  0.9279
   68MOL0     H 9383   4.315   2.263   0.003  3.5693  2.0150  0.1204
   68MOL0     H 9384   4.160   2.299   0.072  0.5395 -2.0203 -1.6243
   69MOL0     O 9385  10.886   3.754   5.810  0.5747  0.0123  0.0809
   69MOL0     C 9386  10.865   3.685   5.708 -0.4365 -0.0798 -1.0381
   69MOL0     O 9387  10.950   3.612   5.639 -0.5577 -0.2493 -0.1287
   69MOL0     C 9388  11.068   3.592   5.713 -0.3814  0.2254  0.8882
   69MOL0     C 9389  11.084   3.481   5.792 -0.2355  0.1222  1.4720
   69MOL0     C 9390  11.202   3.463   5.867  0.5490  1.0251  0.6081
   69MOL0     C 9391  11.309   3.553   5.853  0.4581  0.2008 -0.1695
   69MOL0     O 9392  11.440   3.543   5.905 -0.3112 -0.1076  0.3737
   69MOL0     C 9393  11.474   3.422   5.985 -0.8355 -0.1223  0.4876
   69MOL0     C 9394  11.490   3.288   5.899  0.3691 -0.1724  0.4250
   69MOL0     C 9395  11.546   3.308   5.751 -0.0494 -0.6099 -0.6421
   69MOL0     C 9396  11.587   3.177   5.697  0.2054  0.3723  1.0670
   69MOL0     C 9397  11.634   3.188   5.551 -0.2389  0.4739 -0.0308
   69MOL0     C 9398  11.688   3.046   5.512 -0.0166  1.3306 -0.4240
   69MOL0     C 9399  11.763   3.052   5.376  0.2932  0.1458  0.8623
   69MOL0     C 9400  11.819   2.914   5.357 -0.4387 -0.3159  1.1138
   69MOL0     N 9401  11.920   2.872   5.453 -0.0549  0.0471 -0.1539
   69MOL0     C 9402  12.051   2.922   5.470 -0.2522  0.1205 -0.3692
   69MOL0     C 9403  12.116   2.808   5.507 -0.1394 -1.1236  0.0980
   69MOL0     C 9404  12.263   2.796   5.545 -0.3299 -0.1402 -0.1924
   69MOL0     C 9405  12.266   2.764   5.691  0.5061 -1.0728  0.1185
   69MOL0     C 9406  12.403   2.783   5.752 -0.4975 -0.1353 -0.1310
   69MOL0     C 9407  12.413   2.773   5.900 -0.8043 -0.4531 -0.4502
   69MOL0     O 9408  12.376   2.637   5.935  0.7107  0.1107 -0.4056
   69MOL0     C 9409  12.471   2.550   5.972 -0.3054  0.5291  0.2890
   69MOL0     C 9410  12.554   2.568   6.084  0.1722  0.0654 -0.4321
   69MOL0     C 9411  12.658   2.478   6.119 -0.1679 -0.5687  0.4430
   69MOL0     C 9412  12.733   2.510   6.245  0.1360  0.0945  0.2166
   69MOL0     C 9413  12.672   2.363   6.040  0.4902  0.1160 -1.1315
   69MOL0     C 9414  12.770   2.247   6.072 -0.8436  0.3529  0.2221
   69MOL0     O 9415  12.825   2.240   6.198  0.3378 -1.0424 -0.5961
   69MOL0     C 9416  12.923   2.151   6.226  0.0051 -0.0984  0.1231
   69MOL0     C 9417  13.045   2.134   6.161  0.0314 -0.2209 -0.4882
   69MOL0     C 9418  13.134   2.042   6.204  0.1737  0.0747  0.5852
   69MOL0     C 9419  13.120   1.979   6.325  0.5073  0.3739 -0.0786
   69MOL0     O 9420  13.234   1.907   6.362  0.7392 -0.5657 -0.7182
   69MOL0     C 9421  13.249   1.880   6.498  0.8191 -0.0501  0.4176
   69MOL0     C 9422  13.401   1.865   6.538  0.3033 -0.5469  0.3679
   69MOL0     C 9423  13.479   1.991   6.484 -0.1769  0.0385  0.7128
   69MOL0     C 9424  13.581   2.052   6.582 -0.6305 -0.4153  0.5807
   69MOL0     C 9425  13.638   2.173   6.513 -0.2753  0.4758  0.0418
   69MOL0     C 9426  13.738   2.240   6.603 -0.6052 -0.2754 -0.4229
   69MOL0     C 9427  13.779   2.386   6.554  0.7397 -0.7893  0.2848
   69MOL0     C 9428  13.922   2.424   6.599  0.4386  0.6348  0.3570
   69MOL0    Cl 9429  14.040   2.322   6.514  0.4397 -0.0767 -0.2266
   69MOL0     C 9430  12.997   1.996   6.394 -1.0758 -0.3987  0.5984
   69MOL0     C 9431  12.899   2.080   6.344  0.3553 -0.8131  0.1476
   69MOL0     O 9432  12.794   2.167   5.978 -0.2184 -0.0166  0.1314
   69MOL0     C 9433  12.592   2.347   5.925  1.1075 -1.3427 -0.3096
   69MOL0     C 9434  12.492   2.443   5.898 -0.1456  0.6066  0.7524
   69MOL0     N 9435  12.033   2.701   5.519 -0.1194  0.1830 -0.0530
   69MOL0     N 9436  11.910   2.739   5.503  0.4353 -0.4520  0.1961
   69MOL0     C 9437  11.285   3.664   5.776 -0.5922  0.5037  1.1094
   69MOL0     C 9438  11.166   3.687   5.711  0.1556 -0.2659 -0.2450
   69MOL0     C 9439  10.728   3.692   5.656  0.0117 -0.2800 -0.4506
   69MOL0     C 9440  10.701   3.775   5.543  0.4279 -0.0712 -0.0158
   69MOL0     C 9441  10.576   3.771   5.483  0.7118 -0.2684 -0.1197
   69MOL0     C 9442  10.468   3.703   5.545  0.9161 -0.1004  0.1266
   69MOL0     O 9443  10.346   3.702   5.469 -0.2811 -0.3148  0.5258
   69MOL0     C 9444  10.227   3.640   5.526 -0.3875  0.3600  0.8090
   69MOL0     C 9445  10.115   3.657   5.428  0.4365  0.1439  0.2542
   69MOL0     C 9446  10.087   3.792   5.379  0.7458 -0.3549  0.8161
   69MOL0     C 9447  10.040   3.889   5.480 -0.2822 -0.2971  0.6489
   69MOL0     C 9448  10.007   4.021   5.418 -0.5368  0.2021  0.2017
   69MOL0     C 9449   9.980   4.128   5.362  0.2374 -0.5142  0.6549
   69MOL0     C 9450  10.495   3.629   5.661 -0.6719 -0.1446 -0.1836
   69MOL0     C 9451  10.625   3.615   5.718  0.1573  0.0222  0.2509
   69MOL0     C 9452  10.662   3.546   5.845  0.1945  0.0799 -0.1560
   69MOL0     H 9453  11.008   3.404   5.788  3.3876 -3.7978 -0.7089
   69MOL0     H 9454  11.205   3.367   5.918  0.4512  0.4474 -0.4409
   69MOL0     H 9455  11.400   3.413   6.066 -1.6055  4.5114  0.5724
   69MOL0     H 9456  11.573   3.430   6.031  0.4106  0.5317 -2.1311
   69MOL0     H 9457  11.548   3.212   5.953  2.3331  0.4776 -0.6519
   69MOL0     H 9458  11.390   3.247   5.881  0.8402 -0.1325 -3.1545
   69MOL0     H 9459  11.460   3.352   5.698 -0.7634  0.1724  1.1005
   69MOL0     H 9460  11.622   3.387   5.750 -0.9243  0.2593 -0.1344
   69MOL0     H 9461  11.661   3.129   5.762  0.6287 -1.4091 -0.6453
   69MOL0     H 9462  11.499   3.112   5.689  1.8435 -1.8683 -0.1527
   69MOL0     H 9463  11.712   3.265   5.557 -1.7269  1.9054  3.3080
   69MOL0     H 9464  11.549   3.223   5.492  1.0211  2.5612 -0.7277
   69MOL0     H 9465  11.754   3.005   5.588  0.4370 -0.7970 -1.8774
   69MOL0     H 9466  11.607   2.973   5.509  1.8952 -1.0348  1.7304
   69MOL0     H 9467  11.848   3.119   5.389 -0.1668  1.4561 -2.0814
   69MOL0     H 9468  11.695   3.082   5.296 -0.2677 -1.6387  0.6251
   69MOL0     H 9469  11.734   2.847   5.353 -0.5698 -0.1099  0.1593
   69MOL0     H 9470  11.866   2.920   5.258 -3.3287 -0.8349 -0.3712
   69MOL0     H 9471  12.096   3.018   5.449 -0.3588  0.7267  1.9037
   69MOL0     H 9472  12.309   2.890   5.514 -2.6823  0.6183 -1.6511
   69MOL0     H 9473  12.316   2.722   5.485 -0.4799  0.7812 -1.5142
   69MOL0     H 9474  12.204   2.839   5.739  0.7770 -0.0823 -1.0290
   69MOL0     H 9475  12.223   2.665   5.712 -1.9541  0.2191  1.5311
   69MOL0     H 9476  12.459   2.708   5.696  1.1848  0.8506  0.1541
   69MOL0     H 9477  12.438   2.881   5.719  2.0058 -1.8241 -2.9718
   69MOL0     H 9478  12.510   2.802   5.942 -0.6574  2.8966 -2.7737
   69MOL0     H 9479  12.351   2.841   5.958 -0.2980 -1.1483  0.9689
   69MOL0     H 9480  12.538   2.664   6.132  3.3068  1.3412 -1.6960
   69MOL0     H 9481  12.838   2.479   6.236  0.2542 -0.1974  2.2634
   69MOL0     H 9482  12.689   2.463   6.333 -0.4477 -1.3485 -0.8181
   69MOL0     H 9483  12.730   2.617   6.270 -0.5473  0.0500  0.3368
   69MOL0     H 9484  13.067   2.201   6.079 -1.8843 -1.1380 -1.8286
   69MOL0     H 9485  13.229   2.011   6.162  1.8759 -1.6919  5.1335
   69MOL0     H 9486  13.195   1.965   6.540  1.1752  1.6986 -2.3523
   69MOL0     H 9487  13.203   1.786   6.528  1.3516 -0.1647  0.9003
   69MOL0     H 9488  13.403   1.865   6.648  0.3516 -0.1454  0.3655
   69MOL0     H 9489  13.456   1.775   6.509  3.6349  2.3705 -3.5095
   69MOL0     H 9490  13.411   2.070   6.452 -0.4040  0.0677  1.2694
   69MOL0     H 9491  13.537   1.960   6.396 -0.3782 -2.9367  1.5139
   69MOL0     H 9492  13.674   1.999   6.605  0.1755  1.4492  1.8418
   69MOL0     H 9493  13.532   2.074   6.677  1.2952 -0.6834  1.6979
   69MOL0     H 9494  13.694   2.143   6.424  0.3686  2.3000 -0.2243
   69MOL0     H 9495  13.556   2.238   6.483 -1.1517 -0.0756  1.1932
   69MOL0     H 9496  13.824   2.173   6.617  0.5456  1.1052 -0.6315
   69MOL0     H 9497  13.696   2.251   6.703  0.5407  1.1762 -0.0759
   69MOL0     H 9498  13.711   2.458   6.602 -1.2227 -0.8950 -2.1099
   69MOL0     H 9499  13.761   2.402   6.448 -2.1070 -0.1805  0.7491
   69MOL0     H 9500  13.941   2.410   6.706  2.4284 -1.8721 -0.2158
   69MOL0     H 9501  13.935   2.521   6.551  0.5712 -0.1953 -1.3375
   69MOL0     H 9502  12.977   1.927   6.474 -2.0556 -0.1292  0.5915
   69MOL0     H 9503  12.802   2.077   6.391 -0.2098  1.1909 -0.7822
   69MOL0     H 9504  12.607   2.256   5.868  1.5712 -0.9472 -0.8313
   69MOL0     H 9505  12.434   2.436   5.806  0.1601 -0.8843  0.6444
   69MOL0     H 9506  11.359   3.743   5.767 -1.6127  1.8213  3.3473
   69MOL0     H 9507  11.171   3.785   5.666  0.1265 -0.6553 -1.1210
   69MOL0     H 9508  10.780   3.838   5.503 -1.0386  2.4641  0.8566
   69MOL0     H 9509  10.565   3.829   5.392 -0.8352  0.4227  0.4718
   69MOL0     H 9510  10.247   3.536   5.552 -0.0201 -0.1537 -1.3647
   69MOL0     H 9511  10.195   3.694   5.615 -0.3576 -0.7247  1.4916
   69MOL0     H 9512  10.023   3.612   5.467  1.7209 -0.6907  2.5506
   69MOL0     H 9513  10.146   3.594   5.344  0.0300  0.1912  0.0689
   69MOL0     H 9514  10.169   3.830   5.318 -0.6224  0.8614 -0.3271
   69MOL0     H 9515  10.002   3.772   5.314 -0.3894 -0.4976  2.2822
   69MOL0     H 9516  10.117   3.906   5.556  2.3103 -2.0897 -1.4298
   69MOL0     H 9517   9.956   3.850   5.539 -0.7663  0.4680  0.4876
   69MOL0     H 9518   9.957   4.220   5.312  0.1498 -1.2462 -0.7087
   69MOL0     H 9519  10.424   3.565   5.712  2.5674 -2.1009  2.3097
   69MOL0     H 9520  10.582   3.479   5.880  0.4812 -0.2438 -0.1138
   69MOL0     H 9521  10.750   3.486   5.823 -0.1261 -0.3643 -0.2489
   69MOL0     H 9522  10.671   3.613   5.931 -1.4680 -0.3819  0.4250
   70MOL0     O 9523   9.965   8.590   0.998  0.4359 -0.5466 -0.2610
   70MOL0     C 9524   9.969   8.482   1.066  0.9892 -0.6310  0.5629
   70MOL0     O 9525  10.074   8.435   1.151 -0.6624 -0.4921  0.1969
   70MOL0     C 9526  10.203   8.486   1.133  0.1793  0.7124  0.6660
   70MOL0     C 9527  10.293   8.478   1.243  0.8474  0.5163  0.4387
   70MOL0     C 9528  10.424   8.513   1.232  0.1905  0.3680  1.3492
   70MOL0     C 9529  10.470   8.562   1.106 -0.2291 -0.4574 -0.5158
   70MOL0     O 9530  10.607   8.590   1.102 -0.6610 -0.2152  0.3581
   70MOL0     C 9531  10.685   8.561   0.983  0.5972  0.3167 -0.5280
   70MOL0     C 9532  10.837   8.588   1.009  0.0452  0.8003 -0.5507
   70MOL0     C 9533  10.927   8.563   0.887  0.9327 -0.4484 -1.2710
   70MOL0     C 9534  11.069   8.599   0.947 -0.0118  0.5884  0.7061
   70MOL0     C 9535  11.173   8.557   0.848  0.2522  0.2286  0.1966
   70MOL0     C 9536  11.304   8.557   0.919 -0.4767  0.2273  0.0540
   70MOL0     C 9537  11.432   8.533   0.825 -0.1439 -0.5224  0.2016
   70MOL0     C 9538  11.437   8.397   0.760  0.9142 -0.0832  0.2961
   70MOL0     N 9539  11.521   8.407   0.635  0.3993  0.0363 -0.4622
   70MOL0     C 9540  11.660   8.405   0.631  1.2193  0.1320 -0.4653
   70MOL0     C 9541  11.682   8.391   0.501 -0.1488 -0.3784  0.3563
   70MOL0     C 9542  11.824   8.395   0.441  0.7157 -0.7829 -0.6829
   70MOL0     C 9543  11.908   8.267   0.462  0.7687  0.6147 -0.2561
   70MOL0     C 9544  12.034   8.293   0.381  0.6298 -0.3602  0.6075
   70MOL0     C 9545  12.139   8.194   0.405 -0.8920 -0.8319  0.3328
   70MOL0     O 9546  12.241   8.226   0.309 -0.4094 -0.5876  0.0129
   70MOL0     C 9547  12.344   8.134   0.290 -0.1959 -0.1773 -0.7150
   70MOL0     C 9548  12.350   8.012   0.355 -0.6698 -0.3880  0.2485
   70MOL0     C 9549  12.464   7.931   0.336  0.0292 -0.0157  1.1759
   70MOL0     C 9550  12.483   7.810   0.421  0.0629  1.6039  0.6751
   70MOL0     C 9551  12.570   7.980   0.256  0.0493  0.6680 -0.4815
   70MOL0     C 9552  12.690   7.894   0.217 -0.2742  0.5641 -0.3029
   70MOL0     O 9553  12.817   7.917   0.279  0.1144 -0.8909 -0.4007
   70MOL0     C 9554  12.922   7.898   0.204 -0.2277  0.1803 -0.4659
   70MOL0     C 9555  12.970   7.772   0.191  0.3989  0.0546  0.0209
   70MOL0     C 9556  13.101   7.750   0.140  0.4487  0.2239 -0.0144
   70MOL0     C 9557  13.181   7.853   0.091  0.2833 -0.0575 -0.8690
   70MOL0     O 9558  13.300   7.842   0.027 -0.2512 -0.6404  0.2905
   70MOL0     C 9559  13.380   7.723   0.044 -0.4800 -0.9018  0.2460
   70MOL0     C 9560  13.487   7.729  -0.066  0.4188  0.2507  0.2723
   70MOL0     C 9561  13.539   7.592  -0.092 -0.0774  0.2550 -0.2936
   70MOL0     C 9562  13.645   7.605  -0.208  0.5328 -0.1302  0.6159
   70MOL0     C 9563  13.738   7.484  -0.205 -0.5501  0.5217  1.1581
   70MOL0     C 9564  13.842   7.480  -0.314 -0.6338  0.2864 -0.2582
   70MOL0     C 9565  13.925   7.606  -0.299  0.2181 -1.0506 -0.2030
   70MOL0     C 9566  14.048   7.586  -0.400 -0.5755 -0.2113 -0.0060
   70MOL0    Cl 9567  14.127   7.747  -0.409  0.2464  0.0313  0.1094
   70MOL0     C 9568  13.135   7.979   0.107  0.5692  0.7926  0.0705
   70MOL0     C 9569  12.998   8.001   0.157 -0.8161  0.1476  0.5284
   70MOL0     O 9570  12.665   7.808   0.132  0.0945 -0.4218 -0.4744
   70MOL0     C 9571  12.554   8.100   0.176 -0.7871  0.6941 -1.2795
   70MOL0     C 9572  12.445   8.178   0.203 -0.1378  0.1546 -0.0889
   70MOL0     N 9573  11.567   8.399   0.433 -0.2295 -0.3673 -0.1455
   70MOL0     N 9574  11.468   8.405   0.514  1.1994 -0.9065  0.1035
   70MOL0     C 9575  10.382   8.579   0.999 -0.6680  0.5923 -0.0875
   70MOL0     C 9576  10.249   8.535   1.006  0.4408 -0.4879 -0.7139
   70MOL0     C 9577   9.840   8.404   1.077 -0.2968 -0.6124 -0.1173
   70MOL0     C 9578   9.726   8.484   1.094 -0.4495  0.0538 -0.5180
   70MOL0     C 9579   9.592   8.426   1.095 -0.1186  1.0659 -0.6641
   70MOL0     C 9580   9.581   8.290   1.079  0.6313 -0.2062 -0.4030
   70MOL0     O 9581   9.449   8.249   1.082  0.1528 -0.0992  0.0229
   70MOL0     C 9582   9.426   8.110   1.077 -0.3229 -0.2401  0.6188
   70MOL0     C 9583   9.283   8.074   1.049 -0.3766 -0.1198 -0.3981
   70MOL0     C 9584   9.200   8.087   1.179  0.3464  0.4792 -0.1033
   70MOL0     C 9585   9.057   8.031   1.153  0.2951 -0.3828 -0.0483
   70MOL0     C 9586   8.981   8.037   1.279 -0.6616  0.3690  0.9546
   70MOL0     C 9587   8.911   8.053   1.373 -0.5547 -0.1546 -0.8065
   70MOL0     C 9588   9.700   8.214   1.072  0.5804 -0.7135 -0.4410
   70MOL0     C 9589   9.824   8.269   1.067  0.0128 -0.8427  0.6798
   70MOL0     C 9590   9.940   8.174   1.027  0.4777  0.0720 -0.0994
   70MOL0     H 9591  10.251   8.425   1.328 -1.6518  1.9350  0.2009
   70MOL0     H 9592  10.493   8.508   1.315  3.0982  1.5685 -0.8071
   70MOL0     H 9593  10.659   8.620   0.894 -1.5421 -2.3671 -1.8502
   70MOL0     H 9594  10.664   8.457   0.957 -2.0957  0.4644  0.6590
   70MOL0     H 9595  10.851   8.688   1.051 -0.3831  0.2348  0.9873
   70MOL0     H 9596  10.858   8.518   1.090 -1.1304  2.0771  0.9188
   70MOL0     H 9597  10.898   8.462   0.857 -0.7477 -0.3665 -0.0939
   70MOL0     H 9598  10.904   8.623   0.799  2.2128 -0.2355 -1.4859
   70MOL0     H 9599  11.078   8.708   0.960  0.0688  0.5434  1.0297
   70MOL0     H 9600  11.089   8.543   1.039  0.9110 -1.2498 -0.5488
   70MOL0     H 9601  11.172   8.630   0.766 -0.5045 -0.5164 -0.4833
   70MOL0     H 9602  11.148   8.459   0.805  0.4766  0.3353 -0.1814
   70MOL0     H 9603  11.316   8.653   0.970 -0.1257  0.7707 -1.0412
   70MOL0     H 9604  11.302   8.472   0.989 -2.1052 -1.9893 -2.5064
   70MOL0     H 9605  11.528   8.559   0.872  0.3680  1.6943 -1.8510
   70MOL0     H 9606  11.420   8.615   0.754 -0.5591 -0.2900  0.5407
   70MOL0     H 9607  11.480   8.325   0.830  1.2985  1.5693  1.8030
   70MOL0     H 9608  11.333   8.369   0.742  1.0568 -1.2675  1.2026
   70MOL0     H 9609  11.740   8.416   0.704  2.1526  2.6274 -1.7258
   70MOL0     H 9610  11.884   8.480   0.474 -1.1613  0.2626  0.2025
   70MOL0     H 9611  11.813   8.407   0.333 -2.1111  2.1819 -0.2018
   70MOL0     H 9612  11.925   8.267   0.570  0.2629 -0.3304 -0.1621
   70MOL0     H 9613  11.860   8.170   0.442 -2.3444  1.6928  1.2637
   70MOL0     H 9614  12.003   8.289   0.276  0.5738 -0.7427  0.6373
   70MOL0     H 9615  12.075   8.386   0.420  1.9790  0.0051 -1.5738
   70MOL0     H 9616  12.186   8.209   0.502  0.0805 -0.3848 -0.1975
   70MOL0     H 9617  12.106   8.090   0.392 -0.6621 -1.1137  1.8701
   70MOL0     H 9618  12.286   7.986   0.438  1.6218 -0.6113  2.0552
   70MOL0     H 9619  12.513   7.726   0.357 -0.1164  1.4249  0.8212
   70MOL0     H 9620  12.388   7.789   0.472  0.5763  1.8143  1.7502
   70MOL0     H 9621  12.567   7.825   0.489  0.0317  0.3320  1.0212
   70MOL0     H 9622  12.924   7.677   0.219  2.2072 -1.5187 -2.0188
   70MOL0     H 9623  13.137   7.647   0.136 -1.4195 -0.4439 -2.5400
   70MOL0     H 9624  13.408   7.713   0.149 -1.7776 -2.4414  0.4872
   70MOL0     H 9625  13.314   7.642   0.012 -0.3031 -0.1047 -2.3740
   70MOL0     H 9626  13.446   7.770  -0.159 -0.3191  0.5487  0.7251
   70MOL0     H 9627  13.577   7.787  -0.045 -0.0289  1.4408 -0.9506
   70MOL0     H 9628  13.461   7.524  -0.128 -1.0881  1.1069  0.2420
   70MOL0     H 9629  13.585   7.554  -0.000  0.9223  3.5135  0.6916
   70MOL0     H 9630  13.697   7.700  -0.194  0.9276 -0.4022  1.0599
   70MOL0     H 9631  13.592   7.623  -0.302  1.1306 -1.6598 -0.0506
   70MOL0     H 9632  13.776   7.480  -0.103 -0.7710  1.6486  1.3011
   70MOL0     H 9633  13.669   7.402  -0.226 -1.0757  1.3089 -0.3200
   70MOL0     H 9634  13.786   7.473  -0.408  0.5498  1.8504 -1.1283
   70MOL0     H 9635  13.898   7.388  -0.301 -1.5240 -0.1224  0.8908
   70MOL0     H 9636  13.969   7.617  -0.200  2.1448  0.1808 -1.1376
   70MOL0     H 9637  13.867   7.696  -0.322 -0.2600 -0.7806  1.8507
   70MOL0     H 9638  14.020   7.548  -0.499 -0.7078 -1.9186  0.6535
   70MOL0     H 9639  14.113   7.517  -0.345  0.2880  1.4519  1.1358
   70MOL0     H 9640  13.187   8.066   0.068  1.8656  0.1344  0.3147
   70MOL0     H 9641  12.960   8.102   0.167  1.1486  1.1927 -1.5234
   70MOL0     H 9642  12.630   8.129   0.104  1.0184  2.4889  1.2082
   70MOL0     H 9643  12.440   8.273   0.150 -3.1469  0.6253  0.8359
   70MOL0     H 9644  10.413   8.626   0.905 -3.7910  1.7143 -0.6787
   70MOL0     H 9645  10.191   8.537   0.914 -0.4549 -1.4070 -0.1902
   70MOL0     H 9646   9.744   8.590   1.111  0.3131 -0.3582  1.5001
   70MOL0     H 9647   9.508   8.490   1.121 -0.2044 -0.2441  2.7855
   70MOL0     H 9648   9.488   8.074   0.995 -1.7667  0.0189 -0.6353
   70MOL0     H 9649   9.453   8.064   1.172 -0.6058 -1.3931  0.1613
   70MOL0     H 9650   9.274   7.974   1.006 -2.5323  0.4983 -1.5906
   70MOL0     H 9651   9.248   8.149   0.977  0.6538  0.3540 -0.4264
   70MOL0     H 9652   9.242   8.017   1.251  1.2925  1.7722  0.6410
   70MOL0     H 9653   9.189   8.189   1.217  0.8555 -0.2368  2.1120
   70MOL0     H 9654   9.071   7.926   1.128  0.1731 -0.2035 -0.8947
   70MOL0     H 9655   9.010   8.080   1.068 -0.0268 -1.5828 -0.5789
   70MOL0     H 9656   8.848   8.066   1.459  1.9935  0.3547  1.1247
   70MOL0     H 9657   9.689   8.106   1.083 -1.6320 -0.4712  0.4256
   70MOL0     H 9658   9.910   8.096   0.957  1.4892  0.7791 -1.3739
   70MOL0     H 9659  10.013   8.231   0.968 -1.8834  2.4959 -0.8813
   70MOL0     H 9660   9.988   8.135   1.117  0.2303  3.2890  1.5932
   71MOL0     O 9661   1.140   0.886   0.368  0.6043  0.3962  0.1917
   71MOL0     C 9662   1.143   1.003   0.414  0.2613 -0.7062  0.2779
   71MOL0     O 9663   1.239   1.091   0.403 -0.0996  0.2000  0.3111
   71MOL0     C 9664   1.362   1.044   0.387  0.4875  0.3165 -0.6303
   71MOL0     C 9665   1.420   0.952   0.474 -0.3930 -0.0641  0.8593
   71MOL0     C 9666   1.551   0.908   0.441  0.3306 -0.8577  0.3175
   71MOL0     C 9667   1.625   0.962   0.340  0.9142  0.5058 -0.3113
   71MOL0     O 9668   1.752   0.938   0.312 -0.2890  0.3394  0.0506
   71MOL0     C 9669   1.822   0.816   0.355  0.5609  0.2815 -0.1542
   71MOL0     C 9670   1.948   0.795   0.270  0.4394 -0.0635  0.2175
   71MOL0     C 9671   2.066   0.882   0.314  0.4003  0.0719 -0.0721
   71MOL0     C 9672   2.196   0.815   0.266 -0.1065  0.4336  1.4756
   71MOL0     C 9673   2.315   0.912   0.272 -0.1988  0.1000 -0.8540
   71MOL0     C 9674   2.454   0.859   0.249  1.8306  0.1718  1.2441
   71MOL0     C 9675   2.562   0.955   0.275 -0.0877 -0.0404 -0.4757
   71MOL0     C 9676   2.694   0.906   0.215  0.5121  0.1206  0.5311
   71MOL0     N 9677   2.813   0.989   0.247 -0.2499  0.0713 -0.7952
   71MOL0     C 9678   2.880   1.077   0.162 -0.8199 -0.0610  0.1588
   71MOL0     C 9679   2.962   1.153   0.235 -0.8302  0.7209  0.3287
   71MOL0     C 9680   3.046   1.263   0.180  1.1214  0.2516 -0.5724
   71MOL0     C 9681   3.162   1.197   0.121  0.6237  0.9111 -0.4985
   71MOL0     C 9682   3.276   1.301   0.100  0.1092  0.2359 -0.3283
   71MOL0     C 9683   3.409   1.235   0.060  0.3152  0.4672  0.1558
   71MOL0     O 9684   3.513   1.335   0.046 -0.0067  0.4150  0.1138
   71MOL0     C 9685   3.645   1.297   0.068  0.8447  0.9368 -0.4613
   71MOL0     C 9686   3.732   1.401   0.097  0.4355 -0.0056  0.5834
   71MOL0     C 9687   3.866   1.380   0.127 -0.1298  0.8594  0.9429
   71MOL0     C 9688   3.952   1.495   0.163 -0.6645 -0.0944 -0.4580
   71MOL0     C 9689   3.915   1.245   0.115 -0.0493  0.1866  0.3147
   71MOL0     C 9690   4.064   1.216   0.144 -0.2600  0.3407 -0.2691
   71MOL0     O 9691   4.146   1.302   0.213  0.3513  0.3702 -0.6583
   71MOL0     C 9692   4.262   1.252   0.264 -0.1985  0.0903  0.0783
   71MOL0     C 9693   4.372   1.274   0.185 -1.2033 -0.2447 -0.5061
   71MOL0     C 9694   4.499   1.248   0.248  0.9805 -0.7084  0.1242
   71MOL0     C 9695   4.511   1.210   0.383  0.5232 -1.3366  0.1699
   71MOL0     O 9696   4.632   1.190   0.446 -0.1384 -0.3834 -1.2278
   71MOL0     C 9697   4.756   1.224   0.385  1.0594 -0.3182 -0.2337
   71MOL0     C 9698   4.861   1.212   0.497  0.0336  0.3334  0.0251
   71MOL0     C 9699   4.991   1.170   0.436  0.0299 -0.2400 -0.2804
   71MOL0     C 9700   5.063   1.277   0.352 -0.7584  0.2995 -0.4320
   71MOL0     C 9701   5.181   1.226   0.281 -0.3762 -0.0854  0.3077
   71MOL0     C 9702   5.254   1.336   0.201 -0.3139 -0.3657 -0.1503
   71MOL0     C 9703   5.407   1.302   0.185 -0.0122  1.0396  0.8590
   71MOL0     C 9704   5.487   1.390   0.083  0.0651 -1.2684  0.4164
   71MOL0    Cl 9705   5.506   1.564   0.124  0.2917  0.1592  0.2886
   71MOL0     C 9706   4.386   1.172   0.450  0.7540  0.9223  0.8055
   71MOL0     C 9707   4.265   1.198   0.391  0.5225 -0.5103  0.3090
   71MOL0     O 9708   4.106   1.103   0.104 -0.2951  0.5651 -0.9137
   71MOL0     C 9709   3.833   1.144   0.059  0.6239 -0.2298 -0.0836
   71MOL0     C 9710   3.700   1.163   0.054  0.8352 -0.2813 -0.3886
   71MOL0     N 9711   2.956   1.096   0.365 -0.0348 -0.7468  0.2499
   71MOL0     N 9712   2.877   0.999   0.366  0.2326 -0.1736  0.1519
   71MOL0     C 9713   1.559   1.057   0.258 -0.1461 -0.3874  0.5155
   71MOL0     C 9714   1.432   1.086   0.279  0.0717  0.7358  0.0470
   71MOL0     C 9715   1.018   1.053   0.484  0.8973 -0.4521  0.8754
   71MOL0     C 9716   0.919   0.955   0.524 -0.5202  0.1519  0.4448
   71MOL0     C 9717   0.804   1.001   0.596 -0.1667 -0.1765 -0.4879
   71MOL0     C 9718   0.771   1.139   0.600 -0.4288  0.9145 -0.5561
   71MOL0     O 9719   0.643   1.175   0.617  0.5429 -0.6833  0.3543
   71MOL0     C 9720   0.620   1.309   0.645  0.1526  0.6014 -0.4478
   71MOL0     C 9721   0.462   1.310   0.662 -0.0868 -0.1018 -0.2608
   71MOL0     C 9722   0.385   1.435   0.707  0.1205 -0.4640 -0.7606
   71MOL0     C 9723   0.234   1.419   0.691  0.0621  0.3183 -0.0002
   71MOL0     C 9724   0.186   1.442   0.556 -0.4442  0.1540  0.6702
   71MOL0     C 9725   0.144   1.476   0.451  1.1198  0.5975  0.1443
   71MOL0     C 9726   0.879   1.227   0.583  0.2358  0.3052 -0.0780
   71MOL0     C 9727   0.999   1.187   0.523 -1.1557 -0.0179  0.1773
   71MOL0     C 9728   1.109   1.293   0.507  0.4393  0.4883 -0.2933
   71MOL0     H 9729   1.372   0.920   0.566 -0.8245 -0.0947  0.6255
   71MOL0     H 9730   1.593   0.833   0.507  1.0743  1.0646  2.1478
   71MOL0     H 9731   1.755   0.733   0.330 -1.9694  2.9044 -2.9972
   71MOL0     H 9732   1.844   0.823   0.462  0.2935  0.8800 -0.1337
   71MOL0     H 9733   1.980   0.691   0.283 -0.6332 -0.3652  0.4942
   71MOL0     H 9734   1.924   0.823   0.167 -2.7483  0.2648  0.9673
   71MOL0     H 9735   2.050   0.980   0.267 -0.3330  0.7690  1.5336
   71MOL0     H 9736   2.074   0.880   0.423 -1.1680 -1.1117  0.0645
   71MOL0     H 9737   2.220   0.727   0.326  1.7239 -0.9247 -1.0855
   71MOL0     H 9738   2.187   0.796   0.159 -1.4794  1.2931  1.4106
   71MOL0     H 9739   2.314   0.967   0.366 -1.1810  3.0040 -2.4268
   71MOL0     H 9740   2.292   0.993   0.202 -0.7380  1.5846  0.9457
   71MOL0     H 9741   2.475   0.769   0.308 -0.0882 -2.7487 -2.1223
   71MOL0     H 9742   2.452   0.818   0.148 -0.8218  0.1581  1.2327
   71MOL0     H 9743   2.581   0.963   0.383  0.2714 -5.0390  0.0869
   71MOL0     H 9744   2.547   1.056   0.236 -0.1327  0.1228 -0.0418
   71MOL0     H 9745   2.719   0.814   0.268 -0.2161 -2.0721 -2.6561
   71MOL0     H 9746   2.681   0.876   0.111  0.1279  0.8123  0.3707
   71MOL0     H 9747   2.888   1.086   0.054  1.2553  3.4484  0.4070
   71MOL0     H 9748   3.087   1.328   0.258  1.1256  1.7814 -1.8070
   71MOL0     H 9749   2.995   1.323   0.104  1.9413  3.3285  1.1307
   71MOL0     H 9750   3.197   1.118   0.187 -1.9077  1.9413  2.2902
   71MOL0     H 9751   3.133   1.154   0.025 -0.4137 -1.1116  0.6628
   71MOL0     H 9752   3.257   1.366   0.014  1.2216 -1.7378 -2.1776
   71MOL0     H 9753   3.287   1.363   0.189 -1.1194  1.4418 -0.9742
   71MOL0     H 9754   3.440   1.159   0.133 -1.9207 -0.2163  0.4582
   71MOL0     H 9755   3.399   1.174  -0.030  2.5581  0.0814  0.0996
   71MOL0     H 9756   3.692   1.502   0.097 -1.4162 -0.5172 -3.8343
   71MOL0     H 9757   3.906   1.593   0.146  1.4144  1.1135  0.5407
   71MOL0     H 9758   4.046   1.497   0.107 -1.6836  1.1996 -2.2460
   71MOL0     H 9759   3.956   1.490   0.272 -4.9626 -1.7567 -0.1832
   71MOL0     H 9760   4.355   1.310   0.084  3.0731 -0.8704 -1.6531
   71MOL0     H 9761   4.587   1.262   0.185  0.6714 -0.2360 -0.2079
   71MOL0     H 9762   4.781   1.163   0.298  0.8672  0.4142 -0.8182
   71MOL0     H 9763   4.737   1.324   0.344 -2.5011 -0.0865  1.6471
   71MOL0     H 9764   4.870   1.291   0.573  4.1330 -1.5030  1.7642
   71MOL0     H 9765   4.839   1.130   0.566 -0.0773  1.3102  1.1922
   71MOL0     H 9766   4.977   1.080   0.375  0.3124  0.3053 -1.1570
   71MOL0     H 9767   5.059   1.152   0.520  1.7796  1.9346 -1.1233
   71MOL0     H 9768   5.091   1.359   0.419 -3.3460  1.2279 -0.3691
   71MOL0     H 9769   4.992   1.326   0.284 -0.8050  0.1340 -0.5016
   71MOL0     H 9770   5.243   1.187   0.362  3.4295  0.7668 -1.9198
   71MOL0     H 9771   5.154   1.143   0.215 -3.4125 -0.4435  1.8062
   71MOL0     H 9772   5.261   1.427   0.261 -2.1870  0.6028 -1.2965
   71MOL0     H 9773   5.201   1.356   0.107  0.8833  0.4920 -0.6706
   71MOL0     H 9774   5.415   1.196   0.158 -1.7516  1.6532 -2.6589
   71MOL0     H 9775   5.464   1.311   0.278 -2.4669  1.7384  2.3993
   71MOL0     H 9776   5.442   1.374  -0.015  1.4821 -1.3035 -0.2497
   71MOL0     H 9777   5.586   1.346   0.071 -1.2722 -4.2415 -1.0652
   71MOL0     H 9778   4.384   1.129   0.549 -3.0408 -1.9680 -0.2897
   71MOL0     H 9779   4.173   1.189   0.447 -1.2199  0.8928 -2.1609
   71MOL0     H 9780   3.880   1.048   0.043  0.5292 -0.5314  1.3133
   71MOL0     H 9781   3.633   1.086   0.017  0.0124 -0.3871  1.2486
   71MOL0     H 9782   1.619   1.094   0.176 -0.2758  0.4251  0.7792
   71MOL0     H 9783   1.386   1.165   0.222 -0.5537  1.2068  1.1786
   71MOL0     H 9784   0.931   0.849   0.504  1.5045  0.3652  0.3557
   71MOL0     H 9785   0.734   0.923   0.623  1.1725 -0.2388  3.3194
   71MOL0     H 9786   0.677   1.346   0.731 -1.5027  2.6412 -0.1248
   71MOL0     H 9787   0.642   1.360   0.551 -1.6168 -0.4990 -1.5159
   71MOL0     H 9788   0.436   1.233   0.735 -1.1362  0.9768  0.5370
   71MOL0     H 9789   0.417   1.277   0.568  0.9851 -0.6755 -0.5874
   71MOL0     H 9790   0.409   1.477   0.805  0.1146  3.5667 -2.2812
   71MOL0     H 9791   0.412   1.512   0.633 -1.7301 -0.2376 -1.2620
   71MOL0     H 9792   0.186   1.488   0.761  2.3148  0.1433  1.8347
   71MOL0     H 9793   0.216   1.313   0.708  1.2796  0.1947  0.6332
   71MOL0     H 9794   0.099   1.514   0.361  0.9335  0.4500  0.1729
   71MOL0     H 9795   0.873   1.333   0.609 -0.6889 -0.2876  2.4031
   71MOL0     H 9796   1.196   1.264   0.567  0.2645 -0.3085 -0.4183
   71MOL0     H 9797   1.142   1.316   0.405 -0.2488  0.7364 -0.4702
   71MOL0     H 9798   1.078   1.392   0.542  1.2145  1.1780 -1.4908
   72MOL0     O 9799   3.083   4.578   5.677  0.0167 -0.6310  0.3291
   72MOL0     C 9800   2.972   4.563   5.724  0.2140  0.4900 -0.6723
   72MOL0     O 9801   2.923   4.635   5.825  0.4179 -0.2068 -0.6670
   72MOL0     C 9802   3.002   4.627   5.948  0.5768  0.6482  0.6642
   72MOL0     C 9803   2.936   4.651   6.069 -0.4227  0.0794 -0.6453
   72MOL0     C 9804   2.985   4.634   6.197  0.2777  0.0888 -0.0846
   72MOL0     C 9805   3.121   4.604   6.206  0.4253  0.2919 -0.2405
   72MOL0     O 9806   3.173   4.579   6.329 -0.0043 -0.1312 -0.0709
   72MOL0     C 9807   3.196   4.686   6.418  0.3400  0.2443  0.0147
   72MOL0     C 9808   3.252   4.619   6.550  0.2918 -0.7452 -0.1356
   72MOL0     C 9809   3.196   4.686   6.681 -0.4933 -0.1421  0.5797
   72MOL0     C 9810   3.227   4.611   6.817  0.1215  0.5616  0.1875
   72MOL0     C 9811   3.382   4.587   6.841  0.5545  0.3982  0.1759
   72MOL0     C 9812   3.413   4.551   6.988 -0.6560  0.0139 -0.0635
   72MOL0     C 9813   3.560   4.516   6.997 -0.0384 -0.6515  0.0596
   72MOL0     C 9814   3.660   4.632   6.980  0.7426 -0.1537  0.2372
   72MOL0     N 9815   3.803   4.602   7.006  0.1993  0.1645  0.2839
   72MOL0     C 9816   3.900   4.644   6.920  0.5293 -0.0340  0.2627
   72MOL0     C 9817   4.013   4.633   7.000 -0.0582 -0.4464  0.6164
   72MOL0     C 9818   4.153   4.649   6.946 -0.3205  0.0856 -0.4075
   72MOL0     C 9819   4.154   4.729   6.820 -0.1491 -0.2310 -0.7501
   72MOL0     C 9820   4.284   4.796   6.786  0.3282  0.6297  0.2850
   72MOL0     C 9821   4.405   4.704   6.791 -0.3729  0.3163 -0.2264
   72MOL0     O 9822   4.521   4.764   6.733 -0.5883 -0.0369  0.3140
   72MOL0     C 9823   4.634   4.690   6.741  0.6458 -0.1676  0.3272
   72MOL0     C 9824   4.738   4.730   6.654  0.3674  0.2786  0.0625
   72MOL0     C 9825   4.866   4.682   6.645 -0.2085  0.3797 -0.3924
   72MOL0     C 9826   4.956   4.733   6.547  0.4090  0.9225 -0.7328
   72MOL0     C 9827   4.898   4.586   6.746  0.3479  0.1841  0.2666
   72MOL0     C 9828   5.032   4.521   6.745  0.5387  0.8233  0.6425
   72MOL0     O 9829   5.041   4.385   6.775 -0.3524 -0.1543 -0.6941
   72MOL0     C 9830   5.160   4.319   6.796 -0.5401 -0.3368 -1.0570
   72MOL0     C 9831   5.290   4.352   6.736  1.1752 -0.0373 -0.2816
   72MOL0     C 9832   5.395   4.276   6.783  0.3377  0.1999  0.9702
   72MOL0     C 9833   5.392   4.182   6.883  0.1492  0.5749 -0.1168
   72MOL0     O 9834   5.508   4.132   6.939 -0.1006 -0.4652 -0.4654
   72MOL0     C 9835   5.530   4.157   7.087 -0.3345  0.5789  0.2388
   72MOL0     C 9836   5.664   4.102   7.132 -0.5419  0.8155 -0.0706
   72MOL0     C 9837   5.767   4.167   7.038  0.1348 -0.1382 -0.5790
   72MOL0     C 9838   5.910   4.117   7.077  0.4679 -0.0903 -0.5496
   72MOL0     C 9839   6.019   4.227   7.059  0.4133 -0.3222  0.4158
   72MOL0     C 9840   6.161   4.176   7.089  0.2308 -0.2332 -1.0181
   72MOL0     C 9841   6.192   4.032   7.030 -0.5406 -0.3731  0.9394
   72MOL0     C 9842   6.335   3.976   7.048  0.1959 -0.6900 -0.6960
   72MOL0    Cl 9843   6.452   4.074   6.954  0.3617  0.0530  0.1380
   72MOL0     C 9844   5.268   4.150   6.942  0.3225 -0.3692 -0.3768
   72MOL0     C 9845   5.158   4.221   6.892  0.8452  0.5172  0.2677
   72MOL0     O 9846   5.129   4.599   6.754 -0.0958 -0.4160  0.9430
   72MOL0     C 9847   4.795   4.544   6.832 -0.5714 -0.5341  0.2405
   72MOL0     C 9848   4.670   4.593   6.833 -0.4929  0.6995 -0.5225
   72MOL0     N 9849   3.978   4.586   7.123  0.3184  0.6518  0.0022
   72MOL0     N 9850   3.851   4.565   7.122  0.8395 -0.1089  0.0236
   72MOL0     C 9851   3.196   4.586   6.091 -0.1328 -0.2115 -0.4893
   72MOL0     C 9852   3.141   4.599   5.961 -0.1162 -0.5340 -0.4704
   72MOL0     C 9853   2.878   4.476   5.653  0.3454  0.1621 -0.3281
   72MOL0     C 9854   2.755   4.447   5.721 -0.2169  0.0910 -0.1239
   72MOL0     C 9855   2.650   4.392   5.649 -1.1153 -0.5505  0.3681
   72MOL0     C 9856   2.662   4.373   5.509  0.6348 -0.5732 -0.0663
   72MOL0     O 9857   2.564   4.356   5.419  0.2370  0.4138  0.0675
   72MOL0     C 9858   2.433   4.355   5.453  0.5226 -0.0174 -0.3660
   72MOL0     C 9859   2.341   4.327   5.328 -0.5377 -0.1225  0.3331
   72MOL0     C 9860   2.199   4.339   5.377  0.1269 -0.4978 -0.2890
   72MOL0     C 9861   2.094   4.344   5.265  0.0981  0.2605  0.2777
   72MOL0     C 9862   2.093   4.213   5.192  0.0603  0.6147  0.2213
   72MOL0     C 9863   2.092   4.106   5.133 -0.1793 -0.2287  0.2585
   72MOL0     C 9864   2.784   4.384   5.449 -0.8248  0.0896  0.4694
   72MOL0     C 9865   2.893   4.431   5.524  0.2962 -0.4705 -0.0073
   72MOL0     C 9866   3.027   4.440   5.445 -0.4070 -0.0103  0.0354
   72MOL0     H 9867   2.829   4.671   6.066 -1.0396 -2.1742  1.9085
   72MOL0     H 9868   2.915   4.639   6.280 -2.0336 -2.5716 -1.6905
   72MOL0     H 9869   3.100   4.737   6.432  1.1830  1.2877  2.5013
   72MOL0     H 9870   3.264   4.762   6.378  1.6188 -1.4342 -1.1169
   72MOL0     H 9871   3.220   4.514   6.546 -1.2688 -0.5061  2.9818
   72MOL0     H 9872   3.361   4.624   6.545  0.4131 -0.5854  1.7912
   72MOL0     H 9873   3.247   4.782   6.686 -0.7395 -0.0543  1.6901
   72MOL0     H 9874   3.090   4.711   6.683 -1.1538 -2.4674 -1.0374
   72MOL0     H 9875   3.175   4.672   6.891 -0.3176  2.8632 -1.9096
   72MOL0     H 9876   3.181   4.512   6.825 -0.7087  0.7950 -1.3342
   72MOL0     H 9877   3.427   4.687   6.833  1.1028  0.0263 -1.9172
   72MOL0     H 9878   3.438   4.527   6.769  1.3347 -1.4230  2.1569
   72MOL0     H 9879   3.383   4.634   7.053  0.0515 -0.6742  1.1582
   72MOL0     H 9880   3.360   4.461   7.019 -2.3568  1.4951  1.6407
   72MOL0     H 9881   3.584   4.427   6.938  0.4216  0.6604 -1.8146
   72MOL0     H 9882   3.574   4.481   7.100 -1.1949 -2.3119 -0.2981
   72MOL0     H 9883   3.643   4.670   6.879 -2.2520  1.0445  1.0900
   72MOL0     H 9884   3.630   4.721   7.037  0.1606 -0.4796  0.4420
   72MOL0     H 9885   3.884   4.673   6.816 -1.3854  0.5120  0.6784
   72MOL0     H 9886   4.211   4.557   6.929  3.1559  2.0973 -0.3709
   72MOL0     H 9887   4.197   4.706   7.028  0.5386 -0.4510 -0.4740
   72MOL0     H 9888   4.117   4.674   6.732 -2.7688  0.0728  0.0632
   72MOL0     H 9889   4.088   4.814   6.837 -0.5910 -0.7975  0.4964
   72MOL0     H 9890   4.265   4.819   6.681 -1.1125 -2.6211 -0.2671
   72MOL0     H 9891   4.292   4.888   6.846 -0.3751  0.0956  1.2417
   72MOL0     H 9892   4.425   4.677   6.895 -0.0095  0.8158 -0.1677
   72MOL0     H 9893   4.386   4.615   6.730  2.0518  0.1277 -0.8052
   72MOL0     H 9894   4.710   4.804   6.580  1.1985 -0.9385 -1.5173
   72MOL0     H 9895   5.000   4.650   6.490 -2.7650  0.2618 -2.4939
   72MOL0     H 9896   5.037   4.777   6.605  0.3442 -0.3245  0.3605
   72MOL0     H 9897   4.910   4.804   6.477 -0.7108 -0.6028 -1.6060
   72MOL0     H 9898   5.301   4.429   6.661  0.8876  0.3544  0.0763
   72MOL0     H 9899   5.497   4.291   6.747  2.0743 -0.6652  4.9332
   72MOL0     H 9900   5.542   4.260   7.122  3.7332  0.2400  0.2975
   72MOL0     H 9901   5.453   4.113   7.151 -0.7037  0.6559 -0.1466
   72MOL0     H 9902   5.681   4.135   7.235  0.2155  4.6536 -1.2312
   72MOL0     H 9903   5.654   3.995   7.115  1.5063  0.2898  1.7130
   72MOL0     H 9904   5.766   4.276   7.039 -3.4160 -0.0497  0.5130
   72MOL0     H 9905   5.742   4.141   6.935 -0.6286 -1.4208 -0.0972
   72MOL0     H 9906   5.936   4.044   6.999  3.5440 -1.8424  1.9011
   72MOL0     H 9907   5.905   4.070   7.175 -3.3676  1.1235  0.0091
   72MOL0     H 9908   6.016   4.239   6.950 -2.2483  0.2367  0.4791
   72MOL0     H 9909   6.000   4.321   7.110 -0.6854 -1.4311  2.1613
   72MOL0     H 9910   6.186   4.180   7.195 -1.2561  0.1525 -0.6654
   72MOL0     H 9911   6.243   4.236   7.050  1.4197 -0.2849  1.2618
   72MOL0     H 9912   6.160   4.017   6.927  0.3719 -0.2170  0.6237
   72MOL0     H 9913   6.144   3.959   7.096  1.4184 -2.3649  0.2959
   72MOL0     H 9914   6.341   3.874   7.009 -3.2269 -0.3808 -2.3598
   72MOL0     H 9915   6.362   3.968   7.154 -1.3621  2.9686  0.1206
   72MOL0     H 9916   5.264   4.077   7.022 -1.8361  0.5802  0.4567
   72MOL0     H 9917   5.068   4.200   6.948 -0.2029 -1.1180 -1.8988
   72MOL0     H 9918   4.815   4.475   6.914  0.6969  1.1418  1.4193
   72MOL0     H 9919   4.594   4.551   6.898  0.6651 -1.2906 -0.3723
   72MOL0     H 9920   3.303   4.571   6.089 -0.3423 -1.8743 -1.1363
   72MOL0     H 9921   3.210   4.579   5.880 -0.2485 -1.2890 -0.3991
   72MOL0     H 9922   2.736   4.487   5.820  0.1042 -0.0000 -0.0214
   72MOL0     H 9923   2.558   4.377   5.706  1.1496 -0.6121  4.3983
   72MOL0     H 9924   2.409   4.278   5.528 -0.7090  0.6997 -0.0017
   72MOL0     H 9925   2.418   4.455   5.495 -0.7045 -0.3002 -0.0925
   72MOL0     H 9926   2.368   4.228   5.289  0.8919 -0.8308  2.8980
   72MOL0     H 9927   2.357   4.406   5.254  0.3797 -0.4970  0.1113
   72MOL0     H 9928   2.174   4.247   5.431  1.4372 -1.5442 -1.3811
   72MOL0     H 9929   2.193   4.433   5.434  2.8524 -0.0897 -0.5349
   72MOL0     H 9930   2.095   4.424   5.191 -1.4028  2.3758  2.3958
   72MOL0     H 9931   1.995   4.361   5.309  0.1688  1.5538 -0.0425
   72MOL0     H 9932   2.086   4.009   5.088  0.4106  0.7534 -2.1319
   72MOL0     H 9933   2.792   4.373   5.341  0.7568 -0.1848  0.5870
   72MOL0     H 9934   3.070   4.537   5.419 -1.1278  1.0069  2.3487
   72MOL0     H 9935   3.102   4.386   5.504  1.0533  1.4034 -0.4496
   72MOL0     H 9936   3.012   4.388   5.350  0.6992 -4.6472  2.0911
   73MOL0     O 9937   7.500   6.522   0.062 -0.1788  0.1135 -0.4955
   73MOL0     C 9938   7.526   6.406   0.080  0.0663 -0.1721 -0.0646
   73MOL0     O 9939   7.641   6.353   0.131  0.2294  0.1827 -0.0032
   73MOL0     C 9940   7.746   6.422   0.183  0.1621 -0.0621 -0.3038
   73MOL0     C 9941   7.840   6.340   0.251  0.7942 -0.3082  0.1083
   73MOL0     C 9942   7.960   6.403   0.310  0.7033  0.5765  0.2465
   73MOL0     C 9943   7.980   6.543   0.292  0.2084 -0.1426 -0.4128
   73MOL0     O 9944   8.094   6.595   0.351  0.0493 -0.2897 -0.0302
   73MOL0     C 9945   8.148   6.723   0.313 -0.5950  0.6248  1.1133
   73MOL0     C 9946   8.290   6.734   0.372  0.6753 -0.5320  0.1559
   73MOL0     C 9947   8.325   6.876   0.431 -0.0860 -0.4158  1.5981
   73MOL0     C 9948   8.463   6.868   0.492 -0.1884  0.5391  0.0503
   73MOL0     C 9949   8.488   7.008   0.561  0.2986  0.0933  0.1478
   73MOL0     C 9950   8.607   7.015   0.646  0.6718  0.5310 -1.6008
   73MOL0     C 9951   8.730   7.054   0.568 -0.0223  0.2595  0.1823
   73MOL0     C 9952   8.841   7.038   0.660  0.0227 -0.4145  0.7404
   73MOL0     N 9953   8.971   7.087   0.616 -0.1709 -0.0208 -0.7345
   73MOL0     C 9954   9.091   7.039   0.669 -0.4173  0.3429  0.7910
   73MOL0     C 9955   9.186   7.119   0.611  0.0093  0.0102  0.5138
   73MOL0     C 9956   9.331   7.132   0.637 -0.4526 -0.2515  0.6056
   73MOL0     C 9957   9.419   7.096   0.510 -0.7078  0.1534 -0.0496
   73MOL0     C 9958   9.559   7.151   0.524  0.1029 -0.2641  0.5985
   73MOL0     C 9959   9.648   7.136   0.406  0.5753 -0.1357 -0.0864
   73MOL0     O 9960   9.774   7.200   0.447  0.5213 -0.2280  0.2646
   73MOL0     C 9961   9.867   7.211   0.351  0.1750  0.7706 -1.2974
   73MOL0     C 9962   9.970   7.299   0.365 -0.2968 -0.3455 -1.0149
   73MOL0     C 9963  10.084   7.295   0.282 -0.6350 -0.0626  0.3310
   73MOL0     C 9964  10.185   7.396   0.299 -0.8247  0.1181 -1.2519
   73MOL0     C 9965  10.093   7.201   0.169 -0.0119 -1.3902 -0.0620
   73MOL0     C 9966  10.203   7.196   0.067 -0.3673  0.4663  0.8040
   73MOL0     O 9967  10.209   7.075  -0.005 -0.4026  0.3880 -0.2041
   73MOL0     C 9968  10.324   7.024  -0.067 -0.2554 -0.8522 -0.4742
   73MOL0     C 9969  10.317   6.893  -0.108 -0.3829 -0.3481 -0.1883
   73MOL0     C 9970  10.417   6.831  -0.180 -0.5477 -0.7551  0.3113
   73MOL0     C 9971  10.535   6.904  -0.215 -0.2960 -0.3118  0.0324
   73MOL0     O 9972  10.629   6.873  -0.300  0.5945  0.6944  0.4673
   73MOL0     C 9973  10.598   6.787  -0.413  1.4319  0.2262 -0.0119
   73MOL0     C 9974  10.727   6.728  -0.463 -0.2325 -0.1842  0.4983
   73MOL0     C 9975  10.780   6.615  -0.379  0.0219  0.2027  0.4761
   73MOL0     C 9976  10.664   6.519  -0.327 -0.2295 -0.9915  0.5966
   73MOL0     C 9977  10.720   6.417  -0.237  0.3538  0.1606  0.6861
   73MOL0     C 9978  10.742   6.456  -0.093  0.0138 -0.2036  0.6807
   73MOL0     C 9979  10.783   6.334  -0.005  0.3462  1.1584 -0.8100
   73MOL0     C 9980  10.794   6.380   0.148 -0.3752  0.2875 -0.1886
   73MOL0    Cl 9981  10.874   6.553   0.178  0.3564 -0.2732 -0.2565
   73MOL0     C 9982  10.546   7.028  -0.154 -0.4002 -0.2391  0.5514
   73MOL0     C 9983  10.444   7.092  -0.077 -0.2609  0.6756  0.6898
   73MOL0     O 9984  10.273   7.297   0.056 -0.2951  0.2651 -0.0876
   73MOL0     C 9985   9.978   7.124   0.149 -0.4570  0.2638 -0.7802
   73MOL0     C 9986   9.870   7.121   0.246 -0.7773  0.1727  0.5036
   73MOL0     N 9987   9.122   7.216   0.535  0.6442  0.1619 -0.4449
   73MOL0     N 9988   8.997   7.198   0.540  0.4354 -0.6120  0.4897
   73MOL0     C 9989   7.889   6.612   0.218 -0.1897 -0.0166 -0.0978
   73MOL0     C 9990   7.773   6.560   0.174 -0.0796  0.2499 -0.5676
   73MOL0     C 9991   7.410   6.319   0.038 -0.5631  0.3303  0.4693
   73MOL0     C 9992   7.441   6.188   0.002  0.0495 -0.0158  0.0495
   73MOL0     C 9993   7.341   6.095  -0.041 -0.8001  0.9707  0.3642
   73MOL0     C 9994   7.206   6.128  -0.046  0.4272 -0.1964  0.0585
   73MOL0     O 9995   7.110   6.037  -0.095  0.0458  0.3091 -0.0714
   73MOL0     C 9996   6.977   6.074  -0.101 -0.2643 -0.1821 -0.6220
   73MOL0     C 9997   6.896   5.975  -0.191 -0.5913 -0.2630  0.6687
   73MOL0     C 9998   6.922   5.834  -0.144  0.1926  0.5136  0.2114
   73MOL0     C 9999   6.796   5.745  -0.181  0.2790 -0.9667 -0.6969
   73MOL0     C10000   6.814   5.669  -0.304 -0.5943 -0.5600  0.2891
   73MOL0     C10001   6.833   5.611  -0.405  0.6229  0.9499  0.7678
   73MOL0     C10002   7.181   6.255  -0.010 -1.5378 -0.1328 -0.3037
   73MOL0     C10003   7.272   6.350   0.033 -0.8270 -0.8625 -0.7775
   73MOL0     C10004   7.217   6.479   0.069  0.2104  0.7231  0.7337
   73MOL0     H10005   7.829   6.233   0.263 -1.0541 -0.1506  0.0661
   73MOL0     H10006   8.030   6.342   0.367 -0.1205  0.5484  1.2799
   73MOL0     H10007   8.085   6.801   0.357 -1.8242  1.2818 -1.6428
   73MOL0     H10008   8.147   6.727   0.204 -0.7353  1.5942  1.1399
   73MOL0     H10009   8.296   6.671   0.462  0.7974 -0.0151  0.5134
   73MOL0     H10010   8.361   6.707   0.293 -0.8274  0.4191 -1.5963
   73MOL0     H10011   8.320   6.955   0.356  0.4967 -0.7117  1.2387
   73MOL0     H10012   8.245   6.917   0.494 -1.6220  1.4666 -1.3734
   73MOL0     H10013   8.461   6.786   0.565  0.4491 -1.7524 -2.3590
   73MOL0     H10014   8.539   6.835   0.421  0.0120 -0.6857  0.7905
   73MOL0     H10015   8.412   7.030   0.636  0.6595 -1.6902  1.0940
   73MOL0     H10016   8.490   7.090   0.488  0.0764  0.6541  0.7607
   73MOL0     H10017   8.589   7.080   0.732 -3.1833  0.3761 -2.1028
   73MOL0     H10018   8.621   6.914   0.684 -2.5961  0.3861 -0.4157
   73MOL0     H10019   8.733   7.158   0.533  1.1689 -0.5634 -2.3961
   73MOL0     H10020   8.738   6.991   0.480  0.4497 -0.0450  0.4406
   73MOL0     H10021   8.815   7.097   0.748 -2.0595 -1.4923  0.8983
   73MOL0     H10022   8.850   6.934   0.691  1.2649 -0.2972  0.8431
   73MOL0     H10023   9.106   6.963   0.745 -0.1619  0.5557  0.9545
   73MOL0     H10024   9.359   7.052   0.706  1.0376  0.2586  0.6223
   73MOL0     H10025   9.346   7.232   0.678 -1.4894 -0.7137  2.2275
   73MOL0     H10026   9.410   6.987   0.503 -0.8651  0.2215 -1.1747
   73MOL0     H10027   9.375   7.140   0.420  0.1114  1.7982  0.3213
   73MOL0     H10028   9.558   7.260   0.537  1.1119 -0.1888  0.1263
   73MOL0     H10029   9.597   7.110   0.618  2.0783  0.5105  0.1821
   73MOL0     H10030   9.654   7.029   0.386 -4.1244 -0.3305 -1.7332
   73MOL0     H10031   9.603   7.184   0.318  1.0783  2.4691  0.9883
   73MOL0     H10032   9.975   7.367   0.449  1.5005 -2.0255  0.3306
   73MOL0     H10033  10.288   7.364   0.283 -0.2103 -0.3107  2.5641
   73MOL0     H10034  10.170   7.434   0.401  2.5682 -3.3474  0.7795
   73MOL0     H10035  10.152   7.470   0.226 -1.1046  1.7527  0.4386
   73MOL0     H10036  10.234   6.839  -0.064 -0.2142  0.5448  1.2767
   73MOL0     H10037  10.403   6.728  -0.214  1.8569 -0.8175 -0.6541
   73MOL0     H10038  10.525   6.709  -0.395  1.8103 -1.1306 -3.4745
   73MOL0     H10039  10.553   6.848  -0.492  0.3185 -0.1956  0.2876
   73MOL0     H10040  10.717   6.693  -0.566  0.2025  0.8308  0.0891
   73MOL0     H10041  10.793   6.814  -0.481 -3.5052  3.1118  2.8279
   73MOL0     H10042  10.829   6.665  -0.296 -0.8354  0.1141  1.0516
   73MOL0     H10043  10.857   6.567  -0.439 -1.0656  1.2011 -1.8851
   73MOL0     H10044  10.615   6.471  -0.412  3.9382  0.2775 -2.8392
   73MOL0     H10045  10.599   6.578  -0.260  3.0237 -1.1302  4.2435
   73MOL0     H10046  10.643   6.340  -0.230  2.5910 -2.7616 -3.0259
   73MOL0     H10047  10.812   6.377  -0.280 -1.6189 -0.9548 -2.8482
   73MOL0     H10048  10.647   6.493  -0.052  0.1326  1.4642 -0.4446
   73MOL0     H10049  10.812   6.540  -0.089 -0.2951  0.0574  0.6481
   73MOL0     H10050  10.873   6.287  -0.045 -0.5339  0.0475 -1.5235
   73MOL0     H10051  10.702   6.260  -0.002  0.6425  0.7946  3.5005
   73MOL0     H10052  10.849   6.313   0.215 -0.6041 -0.7998 -1.0734
   73MOL0     H10053  10.698   6.385   0.200  0.4777  2.4669  1.3757
   73MOL0     H10054  10.634   7.081  -0.188 -1.1230  0.1634 -0.7913
   73MOL0     H10055  10.464   7.195  -0.048 -0.9463  1.5424 -1.6815
   73MOL0     H10056   9.968   7.068   0.057  3.6908 -2.0749 -0.0571
   73MOL0     H10057   9.794   7.049   0.217 -0.4714  0.2456 -0.5275
   73MOL0     H10058   7.898   6.720   0.213  0.2631 -0.1125 -2.5234
   73MOL0     H10059   7.691   6.616   0.129 -0.3253  1.0064  0.7743
   73MOL0     H10060   7.537   6.141   0.023  1.0281  1.7725 -0.2407
   73MOL0     H10061   7.366   5.997  -0.081 -0.8145  0.6068  1.2334
   73MOL0     H10062   6.943   6.070   0.003  2.8868  1.0422  0.5820
   73MOL0     H10063   6.946   6.175  -0.128 -1.8384 -0.1691  1.0627
   73MOL0     H10064   6.939   5.988  -0.291 -0.9073 -0.0306  0.5607
   73MOL0     H10065   6.788   5.991  -0.201 -0.8424 -0.6518  2.4453
   73MOL0     H10066   7.015   5.793  -0.184  0.1937 -0.1025  0.8164
   73MOL0     H10067   6.912   5.835  -0.035  1.0425 -0.0527  0.3068
   73MOL0     H10068   6.705   5.806  -0.186  0.0011 -0.8738  2.8047
   73MOL0     H10069   6.781   5.674  -0.098  0.0238  1.4240  1.4294
   73MOL0     H10070   6.834   5.543  -0.488 -2.1505  0.2903  1.1597
   73MOL0     H10071   7.081   6.295  -0.021 -0.7688  1.2601 -3.0087
   73MOL0     H10072   7.271   6.527   0.152  1.9650 -0.5404  0.3803
   73MOL0     H10073   7.227   6.547  -0.017  2.5103  0.0379  0.3937
   73MOL0     H10074   7.112   6.469   0.100  0.0438 -0.2759 -0.1054
   74MOL0     O10075   7.940   2.736   6.416 -0.3373 -0.1600  0.2426
   74MOL0     C10076   7.883   2.802   6.508  0.3660 -0.3339  0.1289
   74MOL0     O10077   7.906   2.940   6.537 -0.2840 -0.0674 -0.5663
   74MOL0     C10078   7.956   3.016   6.440 -0.5735  0.3881 -0.8270
   74MOL0     C10079   7.919   3.007   6.306  0.0570 -0.1459  0.0781
   74MOL0     C10080   7.973   3.097   6.208  0.0174 -0.6492 -0.7371
   74MOL0     C10081   8.054   3.203   6.242 -0.1383  0.5776 -0.1507
   74MOL0     O10082   8.109   3.291   6.152  0.3699  0.1518  0.0931
   74MOL0     C10083   8.110   3.267   6.007  0.3186 -0.5246 -1.0566
   74MOL0     C10084   8.215   3.360   5.955 -0.0396 -0.1753 -0.7788
   74MOL0     C10085   8.172   3.514   5.947 -0.1813 -0.0957 -0.5559
   74MOL0     C10086   8.275   3.593   5.858 -0.1781  0.4350  0.2065
   74MOL0     C10087   8.234   3.747   5.854 -0.5374  0.4436 -0.5273
   74MOL0     C10088   8.102   3.774   5.775  0.5343  0.8352 -0.0349
   74MOL0     C10089   8.069   3.919   5.806  0.9840  0.4865 -1.1426
   74MOL0     C10090   7.951   3.967   5.721 -0.0486  0.0765  0.3699
   74MOL0     N10091   7.829   3.879   5.716 -0.2354  0.1256 -0.1178
   74MOL0     C10092   7.719   3.878   5.798  0.0314  0.0771 -0.6558
   74MOL0     C10093   7.632   3.796   5.738  0.1806  0.5746 -0.2214
   74MOL0     C10094   7.514   3.751   5.825 -0.3960  0.0888  1.3160
   74MOL0     C10095   7.531   3.622   5.908 -0.8171  0.7434 -0.5860
   74MOL0     C10096   7.409   3.588   5.992 -0.4074  0.2546 -0.2565
   74MOL0     C10097   7.429   3.446   6.033 -0.4151 -1.0604  0.0366
   74MOL0     O10098   7.348   3.438   6.157 -0.3617  0.3607  0.1630
   74MOL0     C10099   7.281   3.321   6.193  0.1096  0.1081  0.4739
   74MOL0     C10100   7.310   3.197   6.134  0.7814  0.4242 -0.2665
   74MOL0     C10101   7.259   3.072   6.162 -0.5020  0.0758  0.0877
   74MOL0     C10102   7.307   2.964   6.069 -0.0335 -0.5050 -0.6773
   74MOL0     C10103   7.163   3.063   6.264  0.8278  0.2186  0.1472
   74MOL0     C10104   7.097   2.939   6.310  0.4534 -0.4017  0.3677
   74MOL0     O10105   7.149   2.820   6.261 -0.7955  0.0570  0.5174
   74MOL0     C10106   7.063   2.710   6.267 -0.5703 -0.2136 -0.1974
   74MOL0     C10107   7.141   2.586   6.286  0.4654  0.0333  0.1308
   74MOL0     C10108   7.086   2.461   6.304  0.8127  0.2935  0.2020
   74MOL0     C10109   6.944   2.457   6.302  0.1399 -0.7477  0.1160
   74MOL0     O10110   6.896   2.331   6.337  0.4450  0.0524 -0.9359
   74MOL0     C10111   6.758   2.312   6.351  0.5208 -0.1554 -1.1186
   74MOL0     C10112   6.728   2.169   6.389  0.5712  0.6778 -0.5923
   74MOL0     C10113   6.764   2.070   6.275 -0.1407 -0.0402 -0.2024
   74MOL0     C10114   6.727   1.930   6.323 -0.2654  0.6011 -0.4832
   74MOL0     C10115   6.785   1.821   6.235  0.1314 -0.3470  0.5037
   74MOL0     C10116   6.726   1.840   6.083 -1.0729  0.3366 -0.8439
   74MOL0     C10117   6.736   1.706   6.000 -0.2365  0.0452 -0.3433
   74MOL0     C10118   6.622   1.613   6.024  0.4723  0.1393  0.4723
   74MOL0    Cl10119   6.479   1.685   5.948 -0.5085 -0.0052  0.1306
   74MOL0     C10120   6.872   2.571   6.280  0.2935  0.5947 -0.0469
   74MOL0     C10121   6.925   2.695   6.264  0.3819 -0.3664 -0.5664
   74MOL0     O10122   6.990   2.948   6.375 -0.0902 -0.6443 -0.2633
   74MOL0     C10123   7.119   3.188   6.323 -0.2724 -0.4562 -0.3451
   74MOL0     C10124   7.180   3.310   6.293  0.2360 -0.3694  1.0382
   74MOL0     N10125   7.684   3.748   5.618  0.2694 -0.2660 -0.0916
   74MOL0     N10126   7.792   3.812   5.603 -0.4353  0.4007  0.3870
   74MOL0     C10127   8.096   3.207   6.383  0.2224 -0.6994  0.1319
   74MOL0     C10128   8.036   3.125   6.477  0.5497  0.4234  0.2387
   74MOL0     C10129   7.790   2.735   6.600 -0.2072 -0.7494  0.5210
   74MOL0     C10130   7.723   2.815   6.690 -0.2175 -0.6769  0.4237
   74MOL0     C10131   7.652   2.765   6.799 -0.9165 -0.1487  0.1056
   74MOL0     C10132   7.633   2.626   6.815 -0.3549 -0.3926 -0.1009
   74MOL0     O10133   7.553   2.562   6.911 -0.8818  0.2179  0.1449
   74MOL0     C10134   7.480   2.640   7.009 -0.2134  0.7331 -1.0402
   74MOL0     C10135   7.396   2.539   7.084  0.0853 -0.4798  0.0263
   74MOL0     C10136   7.297   2.612   7.173 -0.4460  0.1192 -0.4619
   74MOL0     C10137   7.224   2.525   7.274  0.1307 -0.3951  0.6505
   74MOL0     C10138   7.317   2.454   7.370  0.1776  0.3368  0.3082
   74MOL0     C10139   7.389   2.398   7.454 -0.6116  0.3716 -0.4195
   74MOL0     C10140   7.687   2.543   6.716 -0.2549 -0.3985  0.0152
   74MOL0     C10141   7.765   2.597   6.613  0.0106 -0.4590  0.2950
   74MOL0     C10142   7.826   2.496   6.512  0.2215  0.4814 -0.2277
   74MOL0     H10143   7.854   2.927   6.272  0.1278 -0.0876 -0.1978
   74MOL0     H10144   7.947   3.082   6.104 -1.6121  2.6456 -0.9616
   74MOL0     H10145   8.017   3.296   5.956 -0.4814 -0.4819  0.3766
   74MOL0     H10146   8.140   3.164   5.984  0.9748 -0.8850  1.1748
   74MOL0     H10147   8.305   3.345   6.015  0.1794  0.0756 -1.0439
   74MOL0     H10148   8.243   3.323   5.856  2.4138 -2.6627  0.6704
   74MOL0     H10149   8.067   3.525   5.920 -0.4454  0.1622  0.5307
   74MOL0     H10150   8.182   3.560   6.045  3.7934 -1.1116 -0.3196
   74MOL0     H10151   8.376   3.559   5.883 -0.9702 -2.9236 -0.7260
   74MOL0     H10152   8.249   3.558   5.758  0.6676 -1.1099  0.4933
   74MOL0     H10153   8.319   3.803   5.813 -0.0105 -0.0663 -0.1331
   74MOL0     H10154   8.216   3.784   5.955 -0.8923 -3.2522  0.8844
   74MOL0     H10155   8.118   3.754   5.668 -2.2584 -0.5536 -0.2673
   74MOL0     H10156   8.018   3.711   5.805  2.7716 -1.4723  1.7501
   74MOL0     H10157   8.158   3.981   5.788  0.3696  2.4168  1.8411
   74MOL0     H10158   8.043   3.936   5.911 -0.1782 -0.8489 -1.1986
   74MOL0     H10159   7.912   4.062   5.757 -2.8650 -0.1193 -1.8234
   74MOL0     H10160   7.983   3.990   5.618  0.4402 -0.8838  0.2949
   74MOL0     H10161   7.712   3.914   5.900 -1.8752 -0.8136 -0.4274
   74MOL0     H10162   7.439   3.739   5.746 -0.9595  0.5778  1.7698
   74MOL0     H10163   7.489   3.828   5.898 -2.3356 -1.5336  2.4751
   74MOL0     H10164   7.563   3.538   5.845  2.7187 -0.7721  2.8073
   74MOL0     H10165   7.615   3.652   5.971  0.5843  0.0094 -2.0351
   74MOL0     H10166   7.389   3.652   6.078 -0.7489 -0.1113 -0.0602
   74MOL0     H10167   7.324   3.603   5.926 -0.5694  2.4780  0.3773
   74MOL0     H10168   7.402   3.378   5.951 -2.6611 -1.1249  0.7510
   74MOL0     H10169   7.533   3.427   6.061 -0.8236  0.1557  2.7350
   74MOL0     H10170   7.385   3.212   6.056 -1.0461  3.1431 -1.6905
   74MOL0     H10171   7.352   3.014   5.983  1.2755  0.6348  0.6214
   74MOL0     H10172   7.226   2.900   6.031 -1.1357  0.4079  0.0879
   74MOL0     H10173   7.378   2.897   6.118 -0.1380  1.1667  1.9261
   74MOL0     H10174   7.248   2.591   6.304  0.5628 -0.4841 -0.2904
   74MOL0     H10175   7.148   2.381   6.343  2.7806  1.6995  0.0537
   74MOL0     H10176   6.723   2.384   6.425 -0.8479  0.7492 -2.5928
   74MOL0     H10177   6.713   2.342   6.256  0.4284 -2.0121 -1.7125
   74MOL0     H10178   6.788   2.146   6.477 -1.1654  3.2612  1.4197
   74MOL0     H10179   6.624   2.150   6.415  1.2348 -0.9613  1.0816
   74MOL0     H10180   6.868   2.071   6.240  0.0398 -4.2930 -0.3612
   74MOL0     H10181   6.703   2.101   6.190 -0.0460 -0.1499 -0.3113
   74MOL0     H10182   6.619   1.914   6.326 -0.0778 -0.7789  2.8647
   74MOL0     H10183   6.760   1.921   6.427 -2.1974  1.5470  0.2576
   74MOL0     H10184   6.895   1.818   6.228  0.0729 -0.0204 -0.9114
   74MOL0     H10185   6.752   1.726   6.278  3.2681 -0.8357  2.1471
   74MOL0     H10186   6.799   1.908   6.038  2.5398 -2.6760 -0.0330
   74MOL0     H10187   6.625   1.880   6.073 -0.2445  3.2280  0.8785
   74MOL0     H10188   6.822   1.641   6.022 -0.2143  0.4842  0.9934
   74MOL0     H10189   6.730   1.734   5.895 -0.5320  0.2203 -0.2786
   74MOL0     H10190   6.604   1.589   6.129  1.6258 -1.2211  0.3790
   74MOL0     H10191   6.639   1.522   5.965  1.3964  1.4247 -1.3359
   74MOL0     H10192   6.764   2.575   6.268  0.3162  4.1270 -0.4085
   74MOL0     H10193   6.869   2.785   6.240 -0.1436  0.2259  2.4294
   74MOL0     H10194   7.043   3.199   6.399  0.4009  3.0800  0.0040
   74MOL0     H10195   7.164   3.408   6.337  0.0150  0.3163 -0.5131
   74MOL0     H10196   8.162   3.282   6.426 -2.3721 -0.4962  4.4443
   74MOL0     H10197   8.048   3.155   6.580 -2.0847 -1.4852  1.2068
   74MOL0     H10198   7.727   2.924   6.687 -0.4222 -0.6710  0.3350
   74MOL0     H10199   7.611   2.837   6.869 -2.3106 -0.2880 -0.5248
   74MOL0     H10200   7.554   2.685   7.076  0.8807  2.1973 -3.1169
   74MOL0     H10201   7.413   2.707   6.954 -1.2373  0.4355 -0.1843
   74MOL0     H10202   7.455   2.471   7.146 -0.4358 -1.2717 -0.3377
   74MOL0     H10203   7.338   2.477   7.015  1.6143 -1.2255 -0.6268
   74MOL0     H10204   7.358   2.682   7.231  1.8549 -0.2832 -2.2610
   74MOL0     H10205   7.206   2.651   7.129 -2.1128 -3.1331 -0.1893
   74MOL0     H10206   7.164   2.453   7.216  0.0694 -1.5403  2.0892
   74MOL0     H10207   7.168   2.594   7.338 -0.2496  0.4351 -0.5280
   74MOL0     H10208   7.460   2.358   7.524  1.7502  0.4415 -2.6519
   74MOL0     H10209   7.666   2.437   6.706 -0.5744 -0.2554 -0.9483
   74MOL0     H10210   7.932   2.517   6.495  0.4223 -0.3999 -0.1283
   74MOL0     H10211   7.808   2.391   6.535 -1.6240  0.6363 -0.7867
   74MOL0     H10212   7.761   2.500   6.424  1.8302 -0.9547 -1.5335
   75MOL0     O10213  11.275   2.705   5.726  0.2110 -1.1199  0.3062
   75MOL0     C10214  11.307   2.642   5.821  1.0318  0.4029  1.0735
   75MOL0     O10215  11.212   2.605   5.915  0.8676  0.1031  0.2655
   75MOL0     C10216  11.080   2.614   5.878  0.2783 -0.0844  0.0445
   75MOL0     C10217  11.001   2.521   5.804 -0.7993  0.2608 -0.4208
   75MOL0     C10218  10.861   2.531   5.793 -1.0946  0.1207  1.1032
   75MOL0     C10219  10.805   2.648   5.818  1.0289 -0.1492 -1.0827
   75MOL0     O10220  10.675   2.673   5.789 -0.0628  0.1159 -0.0648
   75MOL0     C10221  10.579   2.572   5.820  0.3785  0.2842  0.2641
   75MOL0     C10222  10.446   2.631   5.790  0.3048  0.1043 -0.4403
   75MOL0     C10223  10.393   2.717   5.905  0.0225  0.0503  0.3333
   75MOL0     C10224  10.242   2.757   5.881 -0.6941 -0.9588 -0.1834
   75MOL0     C10225  10.196   2.871   5.970 -0.0998  0.0914  0.1057
   75MOL0     C10226  10.038   2.873   5.966  0.0044  0.0972 -0.2702
   75MOL0     C10227   9.978   2.987   6.045  0.6536  0.1949 -0.5068
   75MOL0     C10228  10.001   3.131   5.981  1.0430  0.5281 -0.7370
   75MOL0     N10229   9.956   3.239   6.069 -1.1247 -0.4816  0.0565
   75MOL0     C10230  10.045   3.303   6.143  1.0509 -0.2375  0.7939
   75MOL0     C10231   9.979   3.340   6.251  0.9755 -0.4362  0.4162
   75MOL0     C10232  10.023   3.405   6.383  0.1058  0.0896 -0.7787
   75MOL0     C10233  10.143   3.339   6.441  0.1026  0.2469 -0.0350
   75MOL0     C10234  10.125   3.197   6.501  0.5471 -0.2983  0.5384
   75MOL0     C10235  10.118   3.079   6.397  0.1427 -0.2028  0.1281
   75MOL0     O10236  10.216   3.084   6.294 -0.1390 -0.1175  0.0040
   75MOL0     C10237  10.344   3.040   6.321 -0.1880  0.2668  0.3533
   75MOL0     C10238  10.437   3.054   6.214  1.1518  0.1849 -0.2946
   75MOL0     C10239  10.566   3.004   6.212 -0.3150  0.3920 -0.9887
   75MOL0     C10240  10.650   3.004   6.090 -0.6291 -0.3918  0.3942
   75MOL0     C10241  10.613   2.951   6.331  1.3122 -0.2854  0.1407
   75MOL0     C10242  10.738   2.877   6.344 -0.1720 -0.4738  0.0707
   75MOL0     O10243  10.835   2.885   6.243  0.2033 -0.6250  0.1846
   75MOL0     C10244  10.935   2.791   6.242 -0.1965 -0.1681 -0.1064
   75MOL0     C10245  11.066   2.828   6.254  0.1236 -0.0452 -0.2996
   75MOL0     C10246  11.156   2.721   6.262  0.8137  0.3692  0.0095
   75MOL0     C10247  11.127   2.581   6.260  0.0496  1.0864  0.4587
   75MOL0     O10248  11.213   2.469   6.283  0.5871 -0.5153  0.0792
   75MOL0     C10249  11.348   2.491   6.326  0.2967 -0.4380 -0.2016
   75MOL0     C10250  11.409   2.364   6.376  0.1685  0.7273  0.6400
   75MOL0     C10251  11.558   2.374   6.347  0.1540  0.2051 -0.6349
   75MOL0     C10252  11.629   2.262   6.414  0.3548 -0.1931 -0.4035
   75MOL0     C10253  11.775   2.294   6.448 -0.0501 -0.0628  0.0307
   75MOL0     C10254  11.858   2.265   6.318 -0.3256  0.8393 -0.5315
   75MOL0     C10255  12.010   2.281   6.355  0.6974 -0.4818  0.3403
   75MOL0     C10256  12.074   2.165   6.419  0.6918  0.0931 -0.3248
   75MOL0    Cl10257  12.232   2.228   6.464  0.1261 -0.2840  0.0034
   75MOL0     C10258  10.995   2.552   6.234  1.0041  0.0336 -0.2814
   75MOL0     C10259  10.896   2.654   6.221  0.4035 -0.5412 -0.2611
   75MOL0     O10260  10.745   2.806   6.446  0.4929 -0.5552 -0.6446
   75MOL0     C10261  10.536   2.970   6.449  0.8366  0.1467  0.4292
   75MOL0     C10262  10.400   3.009   6.441 -0.2937 -0.7812  0.2831
   75MOL0     N10263   9.843   3.305   6.214  0.7262 -0.4684 -0.0226
   75MOL0     N10264   9.826   3.255   6.103 -0.1516 -0.2621  0.2309
   75MOL0     C10265  10.880   2.748   5.895  0.1446  0.1196  0.5866
   75MOL0     C10266  11.012   2.727   5.922 -0.0305  0.8920 -0.7282
   75MOL0     C10267  11.454   2.626   5.843  0.1550  0.2721 -0.2495
   75MOL0     C10268  11.487   2.548   5.949 -0.0310 -0.5146 -0.3217
   75MOL0     C10269  11.612   2.510   5.981 -0.7151 -0.6454  0.0309
   75MOL0     C10270  11.720   2.553   5.904 -0.1268 -0.2026 -0.1584
   75MOL0     O10271  11.846   2.508   5.932  0.7311 -0.1074 -0.0964
   75MOL0     C10272  11.959   2.538   5.844 -0.0835 -0.7264  1.1439
   75MOL0     C10273  12.064   2.429   5.843 -0.7150  1.1624 -0.5177
   75MOL0     C10274  12.003   2.288   5.822  0.2976  0.0161 -0.3036
   75MOL0     C10275  12.110   2.189   5.779 -0.6345  0.1474  0.5063
   75MOL0     C10276  12.215   2.177   5.881 -0.1936  0.2123  0.7419
   75MOL0     C10277  12.297   2.172   5.974  0.3828  0.3011  0.5536
   75MOL0     C10278  11.685   2.637   5.791 -0.4306  0.2428  0.2192
   75MOL0     C10279  11.558   2.677   5.764 -0.8402 -0.5854 -0.0978
   75MOL0     C10280  11.540   2.764   5.642 -0.3819  0.0954  0.1008
   75MOL0     H10281  11.050   2.435   5.760 -0.9272 -0.8454  1.4826
   75MOL0     H10282  10.802   2.457   5.739  1.3911  0.3986 -2.2865
   75MOL0     H10283  10.579   2.538   5.924 -1.2426 -0.4161  0.0606
   75MOL0     H10284  10.599   2.493   5.746 -2.8194  0.0597 -0.4908
   75MOL0     H10285  10.460   2.682   5.695 -0.1917 -1.3610 -1.3253
   75MOL0     H10286  10.361   2.561   5.787 -0.0484  0.4999  0.1374
   75MOL0     H10287  10.415   2.664   5.999  1.4397  0.2220  0.1257
   75MOL0     H10288  10.455   2.806   5.919  1.3696 -0.7811 -0.1330
   75MOL0     H10289  10.238   2.787   5.776  2.9892  1.2430  0.1309
   75MOL0     H10290  10.186   2.664   5.894  0.7667 -2.0141 -1.0482
   75MOL0     H10291  10.230   2.969   5.935 -0.9286  0.0074 -0.9877
   75MOL0     H10292  10.241   2.851   6.068 -1.2576 -3.1362  0.0718
   75MOL0     H10293   9.999   2.870   5.864 -2.5134 -0.3538  0.6073
   75MOL0     H10294   9.998   2.782   6.013  0.6307  1.1234  2.4241
   75MOL0     H10295  10.023   2.986   6.145  0.2735 -0.0718 -0.3349
   75MOL0     H10296   9.870   2.974   6.058  0.4768  1.6706 -0.3097
   75MOL0     H10297  10.107   3.137   5.954  1.6611 -1.6213  0.9452
   75MOL0     H10298   9.945   3.137   5.887  0.5879  1.1743 -0.4322
   75MOL0     H10299  10.153   3.293   6.133  0.9405 -0.1611 -0.5851
   75MOL0     H10300   9.944   3.412   6.458  1.5836 -2.4259  1.1963
   75MOL0     H10301  10.051   3.507   6.355  2.8769 -0.6363 -0.9992
   75MOL0     H10302  10.223   3.339   6.367  0.3773 -4.6964 -0.0882
   75MOL0     H10303  10.178   3.396   6.528  2.9884  0.5472 -1.2875
   75MOL0     H10304  10.212   3.170   6.561 -0.1609 -1.1428  1.1957
   75MOL0     H10305  10.038   3.204   6.567 -0.6045  2.9465 -1.0848
   75MOL0     H10306  10.130   2.986   6.452 -1.6917 -1.5801 -1.6682
   75MOL0     H10307  10.016   3.080   6.357  0.5649  0.7606 -0.9877
   75MOL0     H10308  10.396   3.100   6.125 -1.4134 -1.0220  0.1754
   75MOL0     H10309  10.735   3.070   6.107  1.2199 -2.2341 -1.0210
   75MOL0     H10310  10.583   3.043   6.013  0.0223 -1.8108 -0.9679
   75MOL0     H10311  10.683   2.905   6.055 -1.6269 -0.7582  0.4594
   75MOL0     H10312  11.090   2.933   6.270 -1.2987  0.3995 -0.8925
   75MOL0     H10313  11.257   2.760   6.277  0.9024  0.2002 -0.1446
   75MOL0     H10314  11.400   2.533   6.239  2.1214  1.0403  1.5087
   75MOL0     H10315  11.344   2.565   6.406 -2.1205 -0.0097 -0.6313
   75MOL0     H10316  11.382   2.346   6.480  1.5098 -2.2968  0.5544
   75MOL0     H10317  11.380   2.276   6.318 -1.9438  2.2901 -0.8396
   75MOL0     H10318  11.587   2.477   6.372 -4.4592  1.8315 -1.0690
   75MOL0     H10319  11.565   2.354   6.240 -1.4892 -0.8325 -0.5744
   75MOL0     H10320  11.624   2.174   6.349  1.2633 -0.5213 -0.0546
   75MOL0     H10321  11.587   2.243   6.514  3.0287 -0.7221  0.7120
   75MOL0     H10322  11.789   2.398   6.478 -0.0920  0.2420 -0.9800
   75MOL0     H10323  11.809   2.236   6.535 -0.7920  2.9017  2.4785
   75MOL0     H10324  11.826   2.328   6.234 -3.0056  0.0597 -0.1995
   75MOL0     H10325  11.834   2.163   6.289 -3.7989  1.3283  0.2240
   75MOL0     H10326  12.012   2.372   6.414 -0.1400  0.5197 -1.1042
   75MOL0     H10327  12.056   2.283   6.255 -1.3461 -0.7727 -0.6624
   75MOL0     H10328  12.082   2.077   6.354 -0.0046 -0.0097 -0.2754
   75MOL0     H10329  12.020   2.134   6.509  1.7098  1.7019  0.8983
   75MOL0     H10330  10.964   2.448   6.225  0.2785  0.3643 -2.1590
   75MOL0     H10331  10.798   2.642   6.177  0.7947  0.3178 -1.4106
   75MOL0     H10332  10.571   2.949   6.549 -1.1652  1.3612  1.4534
   75MOL0     H10333  10.336   3.029   6.526  1.1865  0.3020  1.1798
   75MOL0     H10334  10.830   2.842   5.914 -0.5809 -0.0684 -0.3436
   75MOL0     H10335  11.070   2.802   5.974  2.4659 -0.4762 -1.3597
   75MOL0     H10336  11.410   2.513   6.017 -1.1471  1.6504 -0.3671
   75MOL0     H10337  11.632   2.438   6.060  0.1859 -2.8059 -2.0397
   75MOL0     H10338  11.932   2.543   5.738  2.9507  1.1131  0.3112
   75MOL0     H10339  11.998   2.634   5.879 -0.9401 -0.5176  1.5521
   75MOL0     H10340  12.101   2.428   5.946 -1.4674 -1.8890 -0.1632
   75MOL0     H10341  12.153   2.444   5.781 -0.9049  1.4444 -0.7240
   75MOL0     H10342  11.952   2.268   5.917 -2.0363 -0.1153 -1.5296
   75MOL0     H10343  11.934   2.292   5.738  0.9196 -1.9393 -0.9775
   75MOL0     H10344  12.146   2.228   5.684 -2.3675 -0.1977 -0.3342
   75MOL0     H10345  12.063   2.092   5.759  0.7502 -0.4583  0.0376
   75MOL0     H10346  12.369   2.161   6.053  0.7689 -1.2380  0.0135
   75MOL0     H10347  11.773   2.662   5.732 -0.6577 -1.8339 -1.1313
   75MOL0     H10348  11.448   2.739   5.589  0.9101 -1.7817 -1.3942
   75MOL0     H10349  11.562   2.867   5.670  2.3598 -0.4619  0.3036
   75MOL0     H10350  11.613   2.739   5.564  1.3012 -0.3508  1.7459
   76MOL0     O10351   1.251   5.365   4.323 -0.2982  0.0202  0.3788
   76MOL0     C10352   1.199   5.380   4.435 -0.0303 -0.0259 -0.3427
   76MOL0     O10353   1.262   5.347   4.554  1.0426 -0.9927  0.3571
   76MOL0     C10354   1.358   5.253   4.544  0.8922  0.4125  0.0952
   76MOL0     C10355   1.323   5.129   4.594  0.5062  0.0811  0.3245
   76MOL0     C10356   1.417   5.019   4.582  0.3098  0.3408  0.0088
   76MOL0     C10357   1.528   5.039   4.511  0.6217  0.4599  0.4653
   76MOL0     O10358   1.617   4.945   4.480  0.3404 -0.3667  0.7547
   76MOL0     C10359   1.626   4.829   4.569 -0.3331  0.4643 -0.8721
   76MOL0     C10360   1.756   4.749   4.521 -0.0473 -0.6057 -0.8177
   76MOL0     C10361   1.753   4.676   4.391 -0.0556  0.1561  0.3056
   76MOL0     C10362   1.849   4.551   4.390 -0.2282 -0.7158  0.0867
   76MOL0     C10363   1.988   4.581   4.440  0.1979 -0.3019 -0.1353
   76MOL0     C10364   2.088   4.461   4.431  0.0268  0.4828  1.1248
   76MOL0     C10365   2.239   4.511   4.443 -0.5676 -1.0950 -0.3366
   76MOL0     C10366   2.337   4.390   4.435  0.9952 -0.1687  0.1591
   76MOL0     N10367   2.329   4.311   4.560 -0.6818  0.4306 -0.2263
   76MOL0     C10368   2.388   4.349   4.683  0.0914  0.6112 -0.2340
   76MOL0     C10369   2.344   4.259   4.774 -0.3140  0.0165  0.2289
   76MOL0     C10370   2.388   4.240   4.915  0.1240  0.2275  0.2112
   76MOL0     C10371   2.520   4.312   4.948 -0.5601 -0.1646 -0.1158
   76MOL0     C10372   2.635   4.257   4.869  0.7612 -0.1553 -0.5575
   76MOL0     C10373   2.775   4.300   4.923 -0.6567 -0.6226  0.4948
   76MOL0     O10374   2.793   4.273   5.067  1.0614  0.8096  0.4631
   76MOL0     C10375   2.918   4.217   5.100  0.3379  0.1579 -0.1722
   76MOL0     C10376   2.937   4.140   5.217  0.2248 -0.1792  0.4884
   76MOL0     C10377   3.064   4.100   5.267  0.1782 -0.2152 -0.6965
   76MOL0     C10378   3.057   4.018   5.390 -0.0706 -0.1576  0.3599
   76MOL0     C10379   3.175   4.140   5.200  0.3478  0.9413  0.7080
   76MOL0     C10380   3.307   4.119   5.261 -0.6348 -0.4109  0.3456
   76MOL0     O10381   3.402   4.137   5.167  0.4945 -0.1499  0.1606
   76MOL0     C10382   3.530   4.111   5.195 -0.4413  0.2374  0.7253
   76MOL0     C10383   3.621   4.196   5.141 -0.0676 -1.4438 -0.0925
   76MOL0     C10384   3.758   4.194   5.174  0.6474 -0.8014 -1.0986
   76MOL0     C10385   3.800   4.101   5.270 -0.1194 -1.0840 -0.5785
   76MOL0     O10386   3.930   4.097   5.322  0.6128 -0.5055 -0.2444
   76MOL0     C10387   4.010   3.985   5.310  0.4233 -0.5289 -0.3337
   76MOL0     C10388   4.083   3.941   5.437  0.9830 -0.5914  0.5378
   76MOL0     C10389   4.178   3.820   5.415  0.1809  0.0313  0.3234
   76MOL0     C10390   4.309   3.842   5.344 -0.1973 -0.2561 -0.3606
   76MOL0     C10391   4.393   3.719   5.360 -0.1117  0.8788 -0.0607
   76MOL0     C10392   4.538   3.728   5.344 -0.1960  0.1341 -0.7815
   76MOL0     C10393   4.616   3.597   5.357 -0.5684  0.0863 -0.2294
   76MOL0     C10394   4.597   3.494   5.242 -1.0090 -0.4813 -0.2933
   76MOL0    Cl10395   4.654   3.573   5.097  0.2224  0.4434 -0.2820
   76MOL0     C10396   3.709   4.008   5.314  0.3351 -0.6430 -0.6810
   76MOL0     C10397   3.575   4.010   5.281 -0.4692  0.1948  0.4463
   76MOL0     O10398   3.318   4.091   5.382 -0.3908 -0.3750  0.2633
   76MOL0     C10399   3.162   4.215   5.084  0.5217  0.2527  0.7699
   76MOL0     C10400   3.035   4.252   5.029 -0.5891  0.2588  0.3886
   76MOL0     N10401   2.244   4.190   4.711 -0.8214 -1.0215  0.7717
   76MOL0     N10402   2.249   4.204   4.586  0.4716 -0.1395  0.0837
   76MOL0     C10403   1.554   5.161   4.451  0.4731  0.0042 -0.9361
   76MOL0     C10404   1.474   5.274   4.477 -0.1536 -0.1372 -0.0576
   76MOL0     C10405   1.071   5.458   4.444 -0.8876  0.1468  0.0921
   76MOL0     C10406   1.035   5.531   4.325 -0.5089 -0.4096  1.1587
   76MOL0     C10407   0.932   5.620   4.334 -0.5455  1.3228 -0.4361
   76MOL0     C10408   0.847   5.630   4.446 -0.1792 -0.0196 -0.8539
   76MOL0     O10409   0.747   5.728   4.451 -0.6398 -0.1884 -0.1134
   76MOL0     C10410   0.619   5.695   4.495 -0.5623 -0.1568  0.2783
   76MOL0     C10411   0.507   5.669   4.389 -0.2126  0.4375  0.4916
   76MOL0     C10412   0.380   5.633   4.458  0.2269  1.0216 -0.3407
   76MOL0     C10413   0.264   5.593   4.363 -0.6765 -0.2550 -0.1394
   76MOL0     C10414   0.236   5.713   4.286  0.2300  0.6637  0.4218
   76MOL0     C10415   0.212   5.819   4.234  0.1483  0.3709 -0.2074
   76MOL0     C10416   0.878   5.547   4.557  0.0881  0.3715  0.2238
   76MOL0     C10417   0.988   5.461   4.556 -0.5257  0.0724 -0.3736
   76MOL0     C10418   1.011   5.381   4.692 -0.2935 -0.0623  0.1954
   76MOL0     H10419   1.232   5.120   4.652 -0.5251  0.6328 -1.1532
   76MOL0     H10420   1.396   4.926   4.635 -0.2191 -1.5822 -3.2717
   76MOL0     H10421   1.540   4.764   4.556 -0.9523  1.0461  0.2338
   76MOL0     H10422   1.630   4.861   4.673 -0.1720  0.4287 -0.8661
   76MOL0     H10423   1.834   4.825   4.513 -2.7403  2.3084 -2.1416
   76MOL0     H10424   1.793   4.679   4.595  2.0304  3.2327  2.1316
   76MOL0     H10425   1.650   4.651   4.364  0.0491 -0.5145  0.5098
   76MOL0     H10426   1.794   4.745   4.317  0.6203  1.0844  1.5071
   76MOL0     H10427   1.809   4.467   4.447  0.4435 -1.1797 -0.1089
   76MOL0     H10428   1.860   4.509   4.290 -1.8505 -1.1125  0.0366
   76MOL0     H10429   1.977   4.601   4.547 -0.9075 -1.9719  0.1017
   76MOL0     H10430   2.041   4.667   4.398 -0.3081  0.7728  1.3204
   76MOL0     H10431   2.065   4.378   4.499  0.0043 -0.1637  0.3453
   76MOL0     H10432   2.082   4.419   4.331 -2.0348  0.4605  1.2096
   76MOL0     H10433   2.257   4.570   4.533  0.2474  1.8874 -2.3242
   76MOL0     H10434   2.259   4.590   4.371  1.3245  2.0876  3.3187
   76MOL0     H10435   2.296   4.327   4.356  0.4812  1.5160 -0.9670
   76MOL0     H10436   2.440   4.418   4.412  0.0983  0.5768 -3.6664
   76MOL0     H10437   2.449   4.438   4.692 -2.2302  2.3876 -0.9986
   76MOL0     H10438   2.400   4.133   4.929 -2.1481  0.0159  1.0054
   76MOL0     H10439   2.321   4.279   4.992  1.5522 -0.3264  1.7963
   76MOL0     H10440   2.507   4.416   4.917 -0.4489  0.5256  2.0475
   76MOL0     H10441   2.542   4.311   5.055 -0.7726  0.5947 -0.0606
   76MOL0     H10442   2.629   4.149   4.879  0.9409  0.0006  1.8258
   76MOL0     H10443   2.631   4.292   4.765 -4.9778 -1.1914 -1.0140
   76MOL0     H10444   2.852   4.252   4.862 -0.1511  1.4669 -0.5841
   76MOL0     H10445   2.797   4.404   4.898  1.9399 -1.2727 -0.2433
   76MOL0     H10446   2.846   4.113   5.269  0.5743  1.3796  1.9847
   76MOL0     H10447   3.092   4.069   5.480  2.3021 -3.7462  1.7240
   76MOL0     H10448   3.125   3.942   5.352 -1.5039 -0.3695 -1.9667
   76MOL0     H10449   2.958   3.972   5.398 -0.8627  1.2866 -0.7757
   76MOL0     H10450   3.589   4.265   5.063  2.4522 -1.0383 -0.8618
   76MOL0     H10451   3.836   4.251   5.124  1.7298 -3.0511 -2.1313
   76MOL0     H10452   3.961   3.896   5.271 -1.7090  0.1396  0.6816
   76MOL0     H10453   4.082   4.016   5.234 -1.3673  3.2294 -0.7016
   76MOL0     H10454   4.131   4.031   5.477 -1.2229  0.0793  1.8347
   76MOL0     H10455   4.017   3.899   5.514  0.7391 -1.5585 -0.1799
   76MOL0     H10456   4.123   3.738   5.368 -4.4608  0.3533  4.2962
   76MOL0     H10457   4.206   3.780   5.513  0.2778  0.5723  0.5243
   76MOL0     H10458   4.366   3.928   5.382 -1.0576  0.9165 -1.6441
   76MOL0     H10459   4.290   3.858   5.238 -0.0280  0.0909 -0.3384
   76MOL0     H10460   4.368   3.672   5.455 -2.4894  1.3641 -0.3944
   76MOL0     H10461   4.359   3.647   5.285  0.7284 -2.6251  2.6227
   76MOL0     H10462   4.580   3.780   5.431  1.7071 -1.6290 -0.5755
   76MOL0     H10463   4.559   3.780   5.250 -1.5669 -1.2862 -1.9137
   76MOL0     H10464   4.599   3.548   5.453 -1.0062 -3.3035 -1.8938
   76MOL0     H10465   4.723   3.620   5.368  0.2051 -3.8267  2.5046
   76MOL0     H10466   4.492   3.465   5.242 -1.1219 -0.5250  3.3738
   76MOL0     H10467   4.659   3.405   5.256  1.2655  0.6396 -2.3276
   76MOL0     H10468   3.742   3.931   5.384 -1.4175  0.6125  1.6690
   76MOL0     H10469   3.509   3.937   5.326  0.4998 -0.6133  0.5801
   76MOL0     H10470   3.250   4.260   5.039 -0.3117 -1.6799 -3.2771
   76MOL0     H10471   3.034   4.309   4.937 -0.3271 -1.3182 -0.6177
   76MOL0     H10472   1.649   5.175   4.399  0.2316  2.8095 -0.7802
   76MOL0     H10473   1.497   5.372   4.437  0.1280 -0.1436  0.0827
   76MOL0     H10474   1.087   5.526   4.230 -0.5853 -2.3463  1.1806
   76MOL0     H10475   0.910   5.695   4.258 -2.4493  0.2553 -0.9995
   76MOL0     H10476   0.640   5.611   4.561  1.1870  0.0776  0.0726
   76MOL0     H10477   0.593   5.781   4.557  2.5383  0.1347  1.3299
   76MOL0     H10478   0.550   5.585   4.333  0.9006  2.5929 -2.0736
   76MOL0     H10479   0.502   5.759   4.327  0.9237 -0.5216 -1.0811
   76MOL0     H10480   0.388   5.547   4.525  0.2735 -0.2040 -1.8757
   76MOL0     H10481   0.351   5.713   4.527 -4.0041  1.3980 -2.2710
   76MOL0     H10482   0.195   5.551   4.437  1.8389 -2.5774  1.0738
   76MOL0     H10483   0.283   5.509   4.296 -1.8441 -0.7584  0.1512
   76MOL0     H10484   0.189   5.917   4.198 -2.3593 -0.2057 -0.3640
   76MOL0     H10485   0.809   5.542   4.641 -0.3876 -2.2969 -0.2289
   76MOL0     H10486   1.083   5.442   4.748  0.9808 -0.2477 -1.1799
   76MOL0     H10487   0.920   5.375   4.753 -1.7219  0.7973 -1.7543
   76MOL0     H10488   1.063   5.285   4.682  2.5441  1.2264  1.4616
   77MOL0     O10489   8.504   9.964   9.839 -0.1302 -0.0797 -0.2352
   77MOL0     C10490   8.509  10.026   9.944 -1.5012  0.2142 -0.4094
   77MOL0     O10491   8.583  10.140   9.962  0.6545  0.5088 -0.1485
   77MOL0     C10492   8.631  10.203   9.858  0.1388  0.2277  0.2039
   77MOL0     C10493   8.589  10.335   9.835  1.4538  0.1230  0.1138
   77MOL0     C10494   8.621  10.406   9.720  0.7407  0.6541 -0.0529
   77MOL0     C10495   8.704  10.350   9.621 -0.1816  0.2163  0.1713
   77MOL0     O10496   8.727  10.402   9.496 -0.6397  0.3108  0.0423
   77MOL0     C10497   8.683  10.528   9.446 -0.2293 -0.8569 -1.1576
   77MOL0     C10498   8.763  10.650   9.494 -0.0812  0.4315 -0.3617
   77MOL0     C10499   8.917  10.628   9.454 -0.4449 -0.2644  0.1425
   77MOL0     C10500   9.016  10.752   9.479  0.8881 -0.0484  0.5528
   77MOL0     C10501   9.165  10.713   9.469  0.3561 -0.2525 -0.0054
   77MOL0     C10502   9.210  10.683   9.325 -0.1856  0.1766 -0.0115
   77MOL0     C10503   9.367  10.699   9.327  0.4943 -0.3476  0.0362
   77MOL0     C10504   9.446  10.595   9.397 -0.8129  0.2322  0.5272
   77MOL0     N10505   9.591  10.618   9.386  0.0317 -0.2921 -0.3746
   77MOL0     C10506   9.680  10.523   9.436 -0.9130 -0.1920 -1.1616
   77MOL0     C10507   9.806  10.555   9.379  0.0454 -1.0952 -0.3986
   77MOL0     C10508   9.938  10.491   9.403 -0.7526  0.5344 -0.4791
   77MOL0     C10509  10.055  10.585   9.419 -0.7382 -0.4420  0.4816
   77MOL0     C10510  10.047  10.670   9.545 -0.1000  0.1659 -0.7217
   77MOL0     C10511  10.133  10.632   9.669 -1.3322 -0.5867 -0.1355
   77MOL0     O10512  10.271  10.636   9.633  0.3434 -1.1222 -0.5761
   77MOL0     C10513  10.384  10.622   9.710  0.0851  0.1904 -0.4768
   77MOL0     C10514  10.393  10.576   9.843  0.7637  0.1002 -0.2077
   77MOL0     C10515  10.515  10.543   9.910  0.9567 -0.5051  0.2485
   77MOL0     C10516  10.500  10.501  10.053  0.2792  0.2375  0.5077
   77MOL0     C10517  10.635  10.581   9.848  0.2021  0.2637 -0.9924
   77MOL0     C10518  10.770  10.569   9.906  0.4499  0.8921 -0.4166
   77MOL0     O10519  10.882  10.560   9.820 -0.4254 -0.3678  0.2390
   77MOL0     C10520  11.004  10.537   9.866 -0.4475 -0.0684  0.3623
   77MOL0     C10521  11.107  10.632   9.854  0.7006  0.7511  0.2676
   77MOL0     C10522  11.235  10.600   9.896 -0.5327  0.0391 -0.0186
   77MOL0     C10523  11.269  10.474   9.946 -1.4476 -0.1647  0.2038
   77MOL0     O10524  11.396  10.461   9.997 -0.3669 -0.0701 -0.5493
   77MOL0     C10525  11.419  10.365  10.100  0.1023  0.9065 -0.6853
   77MOL0     C10526  11.571  10.364  10.142 -0.1097 -0.3463 -0.4982
   77MOL0     C10527  11.675  10.314  10.041  0.6042 -0.3236  0.2957
   77MOL0     C10528  11.813  10.298  10.103  0.5116 -0.7251  0.3157
   77MOL0     C10529  11.923  10.276  10.001 -0.5323 -0.0444 -0.9461
   77MOL0     C10530  12.065  10.282  10.074  0.2653 -0.3269  0.6451
   77MOL0     C10531  12.178  10.245   9.985  0.8350 -0.4618 -0.7029
   77MOL0     C10532  12.323  10.261  10.025 -0.7097  0.6777  0.1461
   77MOL0    Cl10533  12.414  10.159   9.899 -0.1027  0.0341 -0.1454
   77MOL0     C10534  11.172  10.372   9.941 -0.3527 -0.0729 -0.0017
   77MOL0     C10535  11.041  10.413   9.914 -0.5519 -0.4701  0.2814
   77MOL0     O10536  10.773  10.574  10.030 -0.7301 -0.3273  0.1516
   77MOL0     C10537  10.623  10.637   9.721  0.4860 -0.6490  0.0178
   77MOL0     C10538  10.503  10.650   9.652 -0.1229 -0.5402 -1.4300
   77MOL0     N10539   9.785  10.672   9.304  0.0563  0.0258 -0.4004
   77MOL0     N10540   9.661  10.709   9.305 -0.2665 -0.2151 -0.5609
   77MOL0     C10541   8.760  10.223   9.651 -0.0459  0.6574  0.4202
   77MOL0     C10542   8.722  10.147   9.772 -0.7022 -0.3590  0.8709
   77MOL0     C10543   8.444   9.966  10.054 -0.1790  0.2905  0.0164
   77MOL0     C10544   8.513   9.989  10.180 -1.0402  0.1310 -0.0415
   77MOL0     C10545   8.473   9.917  10.292  0.2078 -0.2502  0.0719
   77MOL0     C10546   8.360   9.831  10.293  0.4657  0.2189 -1.0896
   77MOL0     O10547   8.326   9.780  10.417 -0.3925  0.2526  1.0904
   77MOL0     C10548   8.210   9.692  10.432 -0.0736  1.5161  0.0592
   77MOL0     C10549   8.082   9.773  10.423 -0.6213  0.5009 -0.3579
   77MOL0     C10550   7.955   9.688  10.423 -0.1824 -0.3646 -0.3150
   77MOL0     C10551   7.936   9.616  10.292 -0.5242  0.2689  0.7720
   77MOL0     C10552   7.920   9.702  10.172  0.0143 -0.1458 -0.4734
   77MOL0     C10553   7.897   9.762  10.071  0.7298 -0.7459 -0.0799
   77MOL0     C10554   8.301   9.801  10.167  0.6008  0.2018  0.4781
   77MOL0     C10555   8.342   9.872  10.053  0.4369 -0.9194  0.2100
   77MOL0     C10556   8.261   9.850   9.930 -0.4320 -0.1269 -1.2525
   77MOL0     H10557   8.507  10.379   9.891  0.5458 -0.3315 -0.8094
   77MOL0     H10558   8.569  10.497   9.691 -0.1172  0.6014  1.2344
   77MOL0     H10559   8.584  10.557   9.482  0.9919  1.2206  0.8363
   77MOL0     H10560   8.679  10.513   9.338  2.5921 -2.8031 -1.0732
   77MOL0     H10561   8.729  10.742   9.446 -1.3852  0.9424  1.4199
   77MOL0     H10562   8.755  10.661   9.603 -1.0493  0.4429 -0.4275
   77MOL0     H10563   8.967  10.549   9.511 -0.6391  0.1851  0.9435
   77MOL0     H10564   8.922  10.586   9.353  0.6859 -0.9330  0.4576
   77MOL0     H10565   8.992  10.835   9.412  1.3234 -1.6168 -1.6625
   77MOL0     H10566   8.997  10.780   9.584  1.0855 -3.8407  1.7623
   77MOL0     H10567   9.192  10.630   9.535 -2.3024 -0.7755  0.5331
   77MOL0     H10568   9.220  10.799   9.510 -0.5902 -0.3958  1.6768
   77MOL0     H10569   9.174  10.583   9.301 -2.2841  0.2744  2.3485
   77MOL0     H10570   9.173  10.758   9.255  0.2852  2.5557  2.1231
   77MOL0     H10571   9.398  10.794   9.370 -2.3478 -0.0804  1.7758
   77MOL0     H10572   9.386  10.698   9.220 -2.1283 -1.1683 -0.5064
   77MOL0     H10573   9.406  10.603   9.499 -1.2210 -0.7943  0.4632
   77MOL0     H10574   9.416  10.496   9.362 -0.6722  0.8311 -1.4039
   77MOL0     H10575   9.641  10.446   9.502  0.9516 -2.8166 -2.9332
   77MOL0     H10576   9.969  10.426   9.321 -1.0269 -1.5515  0.9920
   77MOL0     H10577   9.940  10.423   9.489 -0.0578 -0.7426 -1.4755
   77MOL0     H10578  10.149  10.530   9.414 -0.8552 -0.8756  2.4387
   77MOL0     H10579  10.046  10.647   9.329 -0.1425  0.9671  1.3731
   77MOL0     H10580  10.067  10.775   9.522  0.1645  1.0891  3.0722
   77MOL0     H10581   9.943  10.662   9.579  0.2151  0.7495  0.4274
   77MOL0     H10582  10.122  10.692   9.759  0.5169 -0.6902  0.1869
   77MOL0     H10583  10.099  10.534   9.703 -1.9097  0.6554  3.2664
   77MOL0     H10584  10.299  10.564   9.895  0.3712  0.6115 -0.7922
   77MOL0     H10585  10.562  10.412  10.064 -1.0954 -0.9844 -1.0518
   77MOL0     H10586  10.399  10.463  10.073  0.2780 -1.4297 -2.0865
   77MOL0     H10587  10.534  10.580  10.120  0.6778  2.0814 -1.7566
   77MOL0     H10588  11.076  10.728   9.816 -0.6875  0.3531  0.3443
   77MOL0     H10589  11.310  10.678   9.887  0.8433 -1.2669 -0.4407
   77MOL0     H10590  11.353  10.391  10.183  2.7335  0.6593  1.5866
   77MOL0     H10591  11.388  10.268  10.061  1.3449  1.3609 -3.0006
   77MOL0     H10592  11.600  10.466  10.166  0.7206 -0.4532 -0.9957
   77MOL0     H10593  11.588  10.302  10.231  1.4193 -2.0418 -1.8919
   77MOL0     H10594  11.678  10.395   9.968 -2.0213 -0.1687  0.2671
   77MOL0     H10595  11.650  10.218   9.995  2.3608 -1.7327  2.0709
   77MOL0     H10596  11.814  10.218  10.177  0.5041 -1.7494 -0.7656
   77MOL0     H10597  11.823  10.395  10.153 -4.7560  0.5617 -0.5505
   77MOL0     H10598  11.908  10.185   9.942  2.5232 -0.1831 -1.6774
   77MOL0     H10599  11.920  10.358   9.930  0.0028 -1.6122 -2.8628
   77MOL0     H10600  12.068  10.217  10.161 -0.7191 -0.3093  0.6960
   77MOL0     H10601  12.074  10.388  10.100 -4.4590  0.6504 -0.7765
   77MOL0     H10602  12.162  10.305   9.895 -1.0442  1.2249  0.6494
   77MOL0     H10603  12.163  10.138   9.966  0.7301 -0.4494 -0.6934
   77MOL0     H10604  12.337  10.233  10.130 -1.3905  3.3789  1.0170
   77MOL0     H10605  12.353  10.366  10.024 -0.8225  0.7511 -2.0778
   77MOL0     H10606  11.200  10.273   9.975 -2.3371 -1.0905 -1.1534
   77MOL0     H10607  10.958  10.342   9.918 -1.6514  0.7983  0.8803
   77MOL0     H10608  10.711  10.670   9.667 -0.7295 -0.9279 -2.2285
   77MOL0     H10609  10.493  10.684   9.550 -1.7558  0.7457 -0.8865
   77MOL0     H10610   8.817  10.169   9.576 -1.7347  1.6376 -1.6462
   77MOL0     H10611   8.762  10.046   9.777 -1.8376 -0.8515  0.4400
   77MOL0     H10612   8.602  10.051  10.173  0.9480 -2.6932 -1.6080
   77MOL0     H10613   8.527   9.927  10.386 -1.5208  1.7174  0.9552
   77MOL0     H10614   8.209   9.610  10.359 -2.6118 -0.0782  1.7169
   77MOL0     H10615   8.217   9.642  10.529 -1.9022  1.1276  0.0274
   77MOL0     H10616   8.083   9.837  10.334 -1.9459  0.1851 -0.6112
   77MOL0     H10617   8.094   9.844  10.505 -2.2097 -2.1889  2.4183
   77MOL0     H10618   7.952   9.615  10.504 -0.7447 -0.8582 -0.7760
   77MOL0     H10619   7.879   9.766  10.433  0.5584  0.1098  2.4524
   77MOL0     H10620   7.850   9.549  10.298  1.1891 -2.2811 -0.9166
   77MOL0     H10621   8.022   9.549  10.287 -0.2084  0.6456  1.0514
   77MOL0     H10622   7.867   9.817   9.984 -1.9333  1.0961  1.8436
   77MOL0     H10623   8.220   9.730  10.160  1.6759 -0.9647 -0.5806
   77MOL0     H10624   8.326   9.777   9.880  3.2369  1.2252  1.0897
   77MOL0     H10625   8.163   9.809   9.956 -0.1573  0.8103  1.5483
   77MOL0     H10626   8.241   9.940   9.871  1.7286  2.9036  2.2414
   78MOL0     O10627   2.436   8.467   3.097  0.0984 -0.5392  0.2944
   78MOL0     C10628   2.474   8.574   3.049 -0.2499  0.0162 -0.0314
   78MOL0     O10629   2.597   8.630   3.070 -0.5997 -0.5590 -0.2976
   78MOL0     C10630   2.711   8.575   3.133  0.0432  0.2790 -0.0116
   78MOL0     C10631   2.850   8.592   3.084  0.8545 -0.0001 -0.4200
   78MOL0     C10632   2.953   8.524   3.152 -0.3905 -0.0356  0.6296
   78MOL0     C10633   2.931   8.454   3.269 -0.3952 -0.0892  0.1685
   78MOL0     O10634   3.043   8.409   3.338  0.2292  0.7045  0.4694
   78MOL0     C10635   3.041   8.336   3.461 -0.7646  0.6951 -0.6487
   78MOL0     C10636   3.183   8.309   3.504  0.3875  0.0147  0.0343
   78MOL0     C10637   3.244   8.437   3.572  0.5880  0.3271  0.0408
   78MOL0     C10638   3.392   8.433   3.585 -0.0472  0.1654  0.5536
   78MOL0     C10639   3.437   8.562   3.642  0.0147 -0.4920 -0.4297
   78MOL0     C10640   3.590   8.592   3.622  0.8865 -0.5366 -1.1398
   78MOL0     C10641   3.630   8.638   3.487 -0.4223  0.2568  0.6575
   78MOL0     C10642   3.757   8.742   3.469 -0.1418  1.1611  0.0119
   78MOL0     N10643   3.872   8.703   3.549 -0.3459 -0.1662  0.4496
   78MOL0     C10644   3.924   8.583   3.585 -0.3268 -0.0366 -0.5961
   78MOL0     C10645   4.026   8.611   3.667  0.0973  0.3956 -0.7869
   78MOL0     C10646   4.106   8.515   3.754  0.4836 -0.1694  0.4573
   78MOL0     C10647   4.210   8.425   3.666 -0.2755  0.3856 -0.4537
   78MOL0     C10648   4.310   8.330   3.754  1.0995 -0.2873  0.0632
   78MOL0     C10649   4.409   8.416   3.839 -0.1542  0.4932  0.5968
   78MOL0     O10650   4.456   8.531   3.760 -0.6078 -0.0489 -0.1800
   78MOL0     C10651   4.560   8.613   3.806 -0.2536  0.3692 -0.0350
   78MOL0     C10652   4.631   8.575   3.920 -0.3711 -0.0097 -0.2026
   78MOL0     C10653   4.748   8.647   3.959 -0.5210  0.2059  0.0697
   78MOL0     C10654   4.815   8.598   4.092  0.0212 -0.2563 -0.3268
   78MOL0     C10655   4.803   8.760   3.892  0.0089 -0.2264 -0.0974
   78MOL0     C10656   4.922   8.841   3.937 -0.2930 -0.3075 -0.3121
   78MOL0     O10657   4.943   8.953   3.869  0.8720 -1.4487 -0.1436
   78MOL0     C10658   4.987   9.067   3.927  0.3066  0.0985 -0.0088
   78MOL0     C10659   5.061   9.151   3.849  0.4211  0.0379 -0.2896
   78MOL0     C10660   5.102   9.274   3.909  0.0335  0.3902 -0.3050
   78MOL0     C10661   5.065   9.324   4.039  0.0908 -1.1014 -0.1555
   78MOL0     O10662   5.101   9.445   4.102 -0.6041  0.2461 -0.1175
   78MOL0     C10663   5.231   9.503   4.076 -0.4990 -0.2386  0.5046
   78MOL0     C10664   5.248   9.638   4.145 -1.1691 -0.2260  0.1220
   78MOL0     C10665   5.258   9.616   4.305  0.2822  0.3193  0.2939
   78MOL0     C10666   5.297   9.739   4.378 -0.6247 -0.1609 -0.2078
   78MOL0     C10667   5.320   9.714   4.531 -0.3293  0.1090  1.1755
   78MOL0     C10668   5.434   9.620   4.556  0.7117  0.6717  0.7849
   78MOL0     C10669   5.504   9.631   4.692  0.3979 -0.3692 -0.3028
   78MOL0     C10670   5.572   9.509   4.737 -0.7769  0.7654  0.4433
   78MOL0    Cl10671   5.461   9.380   4.798 -0.2649 -0.8476  0.3376
   78MOL0     C10672   4.972   9.248   4.112 -0.1498  0.9920  0.4886
   78MOL0     C10673   4.940   9.116   4.058  0.1839 -0.2740  0.2613
   78MOL0     O10674   4.990   8.799   4.029  0.2088 -0.6080  0.4640
   78MOL0     C10675   4.730   8.792   3.778  0.0984  0.3961  0.0314
   78MOL0     C10676   4.614   8.716   3.729  0.2199 -0.1544 -0.5434
   78MOL0     N10677   4.046   8.746   3.668  0.7810 -0.0110 -0.2087
   78MOL0     N10678   3.955   8.801   3.587 -1.3055  0.2589  0.0383
   78MOL0     C10679   2.807   8.450   3.326  0.2180  0.5406 -1.1712
   78MOL0     C10680   2.701   8.504   3.262  0.8979  0.2460  0.7298
   78MOL0     C10681   2.388   8.653   2.955 -0.5441 -0.1432 -0.0321
   78MOL0     C10682   2.438   8.767   2.889  0.3776  0.1629 -0.1403
   78MOL0     C10683   2.352   8.852   2.821 -0.2342 -0.2156 -0.3694
   78MOL0     C10684   2.218   8.825   2.807 -0.6810  1.0467  0.0103
   78MOL0     O10685   2.147   8.924   2.741  0.0246  0.3583  0.0014
   78MOL0     C10686   2.193   9.002   2.623  0.0605 -0.1746 -0.2932
   78MOL0     C10687   2.254   8.915   2.518 -0.9224  0.0570  0.1104
   78MOL0     C10688   2.163   8.803   2.465 -0.9399 -0.1026 -0.1598
   78MOL0     C10689   2.047   8.855   2.376  0.9384  0.0481 -0.6817
   78MOL0     C10690   1.977   8.737   2.308  0.9504 -0.9578 -0.4012
   78MOL0     C10691   1.919   8.655   2.242  1.3506  0.0757 -0.4570
   78MOL0     C10692   2.163   8.717   2.875  0.0164  0.0387  0.2873
   78MOL0     C10693   2.243   8.625   2.952  0.3899 -0.1414 -0.0895
   78MOL0     C10694   2.168   8.529   3.041 -0.5031  0.9307  0.2725
   78MOL0     H10695   2.876   8.666   3.009  1.0475 -1.4703 -1.8792
   78MOL0     H10696   3.055   8.540   3.119 -0.5772 -0.5874 -0.2537
   78MOL0     H10697   2.984   8.243   3.455  0.7399 -0.3983  0.9807
   78MOL0     H10698   2.991   8.394   3.539 -1.1715 -0.2536 -0.1865
   78MOL0     H10699   3.195   8.229   3.577 -0.7718 -1.4908 -1.3403
   78MOL0     H10700   3.241   8.283   3.415 -1.6547  0.4210 -1.5054
   78MOL0     H10701   3.221   8.521   3.506 -2.1836 -0.5636 -0.2720
   78MOL0     H10702   3.205   8.443   3.674  3.7341  0.0279  1.3696
   78MOL0     H10703   3.424   8.345   3.640  1.1980 -0.1888 -0.6668
   78MOL0     H10704   3.433   8.420   3.484 -1.2129 -0.7148  0.1738
   78MOL0     H10705   3.412   8.581   3.747 -1.9522  0.4003 -1.0188
   78MOL0     H10706   3.387   8.647   3.595  1.2986  0.9894  0.7972
   78MOL0     H10707   3.625   8.665   3.695 -2.9234 -0.4333  0.8180
   78MOL0     H10708   3.648   8.500   3.634 -1.1780 -1.7236  0.5113
   78MOL0     H10709   3.551   8.695   3.438 -1.7280 -0.6668  1.6414
   78MOL0     H10710   3.640   8.545   3.431  2.0674  0.6347  0.3324
   78MOL0     H10711   3.791   8.755   3.366  0.6963  1.9176  0.3767
   78MOL0     H10712   3.722   8.843   3.492  0.0245  1.4148 -0.8033
   78MOL0     H10713   3.883   8.485   3.563 -0.8974  0.1630 -0.4501
   78MOL0     H10714   4.035   8.453   3.809  0.3586  1.0874  1.7630
   78MOL0     H10715   4.162   8.572   3.828  2.9666 -0.4662 -1.0677
   78MOL0     H10716   4.155   8.348   3.612  4.2194 -2.9237 -0.9541
   78MOL0     H10717   4.256   8.494   3.594 -1.0612  3.0140  1.4318
   78MOL0     H10718   4.249   8.275   3.825  2.4869 -3.0924 -0.7874
   78MOL0     H10719   4.363   8.256   3.695  0.3860  1.0181 -2.3284
   78MOL0     H10720   4.374   8.440   3.939  0.1700 -0.8967  1.0663
   78MOL0     H10721   4.492   8.346   3.848 -1.3659 -0.8494  1.8687
   78MOL0     H10722   4.594   8.507   3.996 -0.9768  0.3012 -0.2151
   78MOL0     H10723   4.756   8.515   4.133 -1.1370  0.2258 -0.9661
   78MOL0     H10724   4.805   8.676   4.169 -2.1206 -0.5697 -0.2229
   78MOL0     H10725   4.917   8.561   4.100  0.2239  0.7153  3.6255
   78MOL0     H10726   5.094   9.121   3.750 -0.2450  1.9396 -1.1361
   78MOL0     H10727   5.137   9.351   3.841  0.4458  0.7253  0.2840
   78MOL0     H10728   5.311   9.433   4.104 -0.7588 -0.8317 -0.2161
   78MOL0     H10729   5.248   9.527   3.971 -0.1025 -0.1804  0.5766
   78MOL0     H10730   5.350   9.667   4.119 -0.5754  0.0010  2.4463
   78MOL0     H10731   5.180   9.719   4.116 -2.1603 -0.5984  1.3052
   78MOL0     H10732   5.338   9.542   4.317 -0.5214 -0.7184 -0.6295
   78MOL0     H10733   5.160   9.580   4.337 -0.8822  3.0369  0.0549
   78MOL0     H10734   5.224   9.818   4.360  2.4675  2.5577 -1.7713
   78MOL0     H10735   5.392   9.767   4.332 -0.2778 -0.5058  0.2800
   78MOL0     H10736   5.335   9.815   4.570  0.1058  0.2932  0.5429
   78MOL0     H10737   5.227   9.666   4.565 -0.5130 -1.3226 -1.1336
   78MOL0     H10738   5.513   9.635   4.481 -1.2838 -0.4886 -1.7373
   78MOL0     H10739   5.408   9.520   4.520  0.8979  1.9709 -3.6670
   78MOL0     H10740   5.425   9.661   4.762  0.8980 -1.0575  0.5691
   78MOL0     H10741   5.579   9.709   4.680  0.3279 -0.3678 -0.7584
   78MOL0     H10742   5.638   9.538   4.819  2.2772  0.8854 -1.9125
   78MOL0     H10743   5.624   9.476   4.647 -3.5509  0.5805 -1.2271
   78MOL0     H10744   4.931   9.303   4.197  0.1514  1.4428  0.3472
   78MOL0     H10745   4.869   9.054   4.112 -3.4797  1.4522 -2.1656
   78MOL0     H10746   4.758   8.885   3.730  1.1911 -0.6826 -1.5345
   78MOL0     H10747   4.552   8.748   3.646 -3.8839  0.4269  2.3993
   78MOL0     H10748   2.789   8.405   3.423  0.2094 -0.8855 -1.7968
   78MOL0     H10749   2.601   8.503   3.304 -0.4620 -0.8570 -2.2250
   78MOL0     H10750   2.541   8.799   2.899 -0.4289  2.3296  2.3786
   78MOL0     H10751   2.383   8.946   2.776 -0.0686  0.9385  1.9868
   78MOL0     H10752   2.117   9.062   2.573  1.6932  1.9523 -0.3554
   78MOL0     H10753   2.262   9.079   2.660  0.8892  0.3206 -2.6839
   78MOL0     H10754   2.341   8.869   2.566 -3.1658 -2.8505  1.7311
   78MOL0     H10755   2.290   8.981   2.439 -1.0827  0.7548  0.6060
   78MOL0     H10756   2.230   8.730   2.418 -0.4946 -0.8168  1.5035
   78MOL0     H10757   2.124   8.746   2.550  0.2829  1.8422  1.8205
   78MOL0     H10758   2.098   8.904   2.292 -0.7472  0.7702 -1.3276
   78MOL0     H10759   1.975   8.928   2.413  0.6590  0.4374 -1.9333
   78MOL0     H10760   1.865   8.586   2.180  0.8937  1.0300 -1.1586
   78MOL0     H10761   2.055   8.712   2.866 -0.2327 -0.3990  2.6760
   78MOL0     H10762   2.183   8.424   3.015 -3.8842  0.2249  0.6874
   78MOL0     H10763   2.196   8.555   3.144  3.3777 -0.4578 -0.2524
   78MOL0     H10764   2.061   8.540   3.021 -0.3566 -0.8227 -1.7848
   79MOL0     O10765   3.143   8.231   0.777  0.7241 -0.2967  0.5185
   79MOL0     C10766   3.231   8.147   0.754 -0.2886  0.0024 -0.4899
   79MOL0     O10767   3.202   8.021   0.714 -0.0125 -0.0785 -0.5756
   79MOL0     C10768   3.064   7.991   0.699 -0.4851 -0.3162 -0.6850
   79MOL0     C10769   2.998   7.943   0.807 -0.0368 -0.0286 -0.7152
   79MOL0     C10770   2.861   7.907   0.792  0.7444 -0.6701 -0.6153
   79MOL0     C10771   2.801   7.901   0.662 -0.2090 -0.6092  1.1443
   79MOL0     O10772   2.671   7.860   0.621  0.2706 -0.4818 -0.1190
   79MOL0     C10773   2.607   7.791   0.728  0.7950  0.1835  0.2349
   79MOL0     C10774   2.454   7.769   0.705 -0.4127 -0.2343  0.1137
   79MOL0     C10775   2.394   7.666   0.797 -0.4136 -0.0176  0.6982
   79MOL0     C10776   2.261   7.713   0.862  0.3568  0.1078  0.0797
   79MOL0     C10777   2.290   7.810   0.980  0.6492  0.4850 -0.3545
   79MOL0     C10778   2.395   7.757   1.077 -0.3705 -0.0407  0.4703
   79MOL0     C10779   2.393   7.829   1.210 -0.3056  0.7510  0.0136
   79MOL0     C10780   2.460   7.737   1.327 -0.6194  0.2862  0.7195
   79MOL0     N10781   2.603   7.716   1.305 -0.2534 -0.9732  0.5604
   79MOL0     C10782   2.661   7.601   1.353  0.7264 -0.4308  0.0570
   79MOL0     C10783   2.794   7.617   1.327 -0.4663 -0.2257  0.1962
   79MOL0     C10784   2.913   7.525   1.352  0.1152  0.0374 -0.5415
   79MOL0     C10785   2.967   7.534   1.492 -0.1692 -0.4739  0.3362
   79MOL0     C10786   3.089   7.446   1.508 -0.2608 -0.2440  0.2612
   79MOL0     C10787   3.143   7.455   1.647  0.6277 -0.2444 -0.1929
   79MOL0     O10788   3.042   7.439   1.751  0.6989 -0.5595  0.5577
   79MOL0     C10789   3.098   7.456   1.873  0.5668  0.3870 -0.2292
   79MOL0     C10790   3.074   7.581   1.929  0.0439 -0.7709 -0.2367
   79MOL0     C10791   3.122   7.612   2.057  0.7355 -0.0650  0.5033
   79MOL0     C10792   3.095   7.752   2.116  1.2227  0.4104  0.2186
   79MOL0     C10793   3.204   7.519   2.125  1.1518 -0.6052 -0.6405
   79MOL0     C10794   3.265   7.544   2.263  0.0362  0.7962 -0.0045
   79MOL0     O10795   3.393   7.487   2.276 -0.0361 -0.1143 -0.9616
   79MOL0     C10796   3.476   7.514   2.381  0.1059  0.1762 -0.4861
   79MOL0     C10797   3.599   7.445   2.381 -0.8610  0.2303  0.3876
   79MOL0     C10798   3.682   7.468   2.497  0.1118 -0.7626  0.3994
   79MOL0     C10799   3.647   7.531   2.613 -0.5116 -0.5896  0.3779
   79MOL0     O10800   3.721   7.527   2.726 -0.4321  0.2575 -0.6627
   79MOL0     C10801   3.644   7.526   2.851 -0.2809  0.0533  0.9386
   79MOL0     C10802   3.664   7.391   2.919  0.6506  0.3000  0.2802
   79MOL0     C10803   3.621   7.398   3.062 -0.7258  0.3755  0.3277
   79MOL0     C10804   3.630   7.260   3.132  0.1502 -0.8196  0.3351
   79MOL0     C10805   3.767   7.191   3.134 -0.6693 -0.1141 -0.7446
   79MOL0     C10806   3.773   7.057   3.218  0.0958  0.1175 -0.4369
   79MOL0     C10807   3.666   6.951   3.178  0.0957 -0.2689  0.4667
   79MOL0     C10808   3.642   6.850   3.283  0.0780  0.7888  0.2565
   79MOL0    Cl10809   3.794   6.759   3.303 -0.1902 -0.3021  0.0419
   79MOL0     C10810   3.539   7.609   2.598 -0.2201 -0.5122 -0.1995
   79MOL0     C10811   3.457   7.613   2.484  0.6654  0.1879  1.1118
   79MOL0     O10812   3.202   7.610   2.348  0.2068 -0.2381 -0.8064
   79MOL0     C10813   3.216   7.386   2.070 -0.8186  0.6396  0.1850
   79MOL0     C10814   3.160   7.352   1.946  0.3672 -0.5216 -0.2480
   79MOL0     N10815   2.816   7.744   1.274  0.1158 -0.0771  0.7162
   79MOL0     N10816   2.696   7.792   1.250  0.0433 -0.2767  0.2266
   79MOL0     C10817   2.868   7.946   0.554  0.4817 -0.3093  0.4741
   79MOL0     C10818   3.002   7.984   0.569 -1.0258  0.4747  0.4828
   79MOL0     C10819   3.362   8.189   0.770 -0.0942 -0.4603  0.1287
   79MOL0     C10820   3.457   8.093   0.736  0.7250 -0.0090 -0.2801
   79MOL0     C10821   3.596   8.127   0.733 -0.4084 -0.8260  0.3148
   79MOL0     C10822   3.640   8.246   0.787 -0.1903 -0.3013  0.9226
   79MOL0     O10823   3.777   8.266   0.793 -0.0708 -0.0550 -0.4894
   79MOL0     C10824   3.827   8.299   0.665  0.4316 -0.9427  0.0715
   79MOL0     C10825   3.978   8.284   0.646  0.3490 -0.4293  0.2564
   79MOL0     C10826   4.052   8.403   0.717 -1.0985 -0.0555  0.3430
   79MOL0     C10827   4.201   8.379   0.684  0.0045  1.2592 -0.3538
   79MOL0     C10828   4.259   8.275   0.776  0.4906 -0.0731  0.0865
   79MOL0     C10829   4.304   8.197   0.856 -0.5180 -0.3170  0.1164
   79MOL0     C10830   3.547   8.340   0.829 -0.0466 -0.3146 -0.6656
   79MOL0     C10831   3.407   8.316   0.815 -0.4116 -0.8679 -0.3970
   79MOL0     C10832   3.313   8.433   0.848  0.7845 -0.2849 -0.6256
   79MOL0     H10833   3.047   7.938   0.904 -0.1896 -1.8183 -0.6965
   79MOL0     H10834   2.803   7.866   0.874 -0.1111  1.1238 -0.2725
   79MOL0     H10835   2.617   7.852   0.818  0.3002 -0.0231  0.4300
   79MOL0     H10836   2.652   7.692   0.741  3.8300  1.0900 -2.2078
   79MOL0     H10837   2.407   7.868   0.709  0.6539  0.3169 -0.4566
   79MOL0     H10838   2.441   7.732   0.603 -1.5715 -0.2916  0.2705
   79MOL0     H10839   2.370   7.579   0.736  2.3771 -1.3221  1.2952
   79MOL0     H10840   2.462   7.623   0.871 -0.1433 -0.1979  0.3471
   79MOL0     H10841   2.201   7.757   0.782  0.8091 -1.9660 -1.4966
   79MOL0     H10842   2.200   7.631   0.903 -2.9262  1.7788 -1.1160
   79MOL0     H10843   2.198   7.823   1.038  2.5405  1.8139  2.5778
   79MOL0     H10844   2.323   7.908   0.945  1.7775  0.6018  0.9735
   79MOL0     H10845   2.364   7.655   1.104  1.0462 -0.6916 -0.2452
   79MOL0     H10846   2.495   7.735   1.037 -1.5635 -3.6929 -0.9521
   79MOL0     H10847   2.285   7.837   1.226 -0.7696  0.1221 -2.3717
   79MOL0     H10848   2.433   7.930   1.207 -2.2221  1.5253 -0.8980
   79MOL0     H10849   2.447   7.784   1.425  0.2806  2.3655 -0.0974
   79MOL0     H10850   2.408   7.641   1.329  0.3259 -0.2542  0.0067
   79MOL0     H10851   2.607   7.514   1.388  2.3476 -0.6882  2.0847
   79MOL0     H10852   2.988   7.544   1.275  0.2019 -0.4508 -0.5791
   79MOL0     H10853   2.872   7.423   1.346  2.3240 -1.1563  2.4151
   79MOL0     H10854   3.008   7.633   1.518 -2.8135  0.8897 -0.3670
   79MOL0     H10855   2.887   7.508   1.561  1.2730 -3.4118  1.0480
   79MOL0     H10856   3.055   7.344   1.493 -1.0079 -0.1119  1.0234
   79MOL0     H10857   3.166   7.469   1.433 -2.9845  0.3400 -2.5793
   79MOL0     H10858   3.229   7.389   1.660  0.9347 -0.0999 -1.3484
   79MOL0     H10859   3.179   7.557   1.665  1.7675 -0.4748 -1.0739
   79MOL0     H10860   3.003   7.650   1.886  0.3406 -0.4201 -0.1721
   79MOL0     H10861   3.189   7.804   2.139  2.9559 -1.8308 -1.3643
   79MOL0     H10862   3.042   7.747   2.212  2.2939  1.1317  0.8756
   79MOL0     H10863   3.044   7.820   2.047  0.8354 -0.9340 -0.8623
   79MOL0     H10864   3.622   7.373   2.303  2.2022 -0.1196  1.4494
   79MOL0     H10865   3.776   7.414   2.508  0.7110 -0.1360 -1.2577
   79MOL0     H10866   3.685   7.605   2.915  2.4553 -1.2037  0.8816
   79MOL0     H10867   3.536   7.529   2.830 -0.1206 -0.4141  0.0094
   79MOL0     H10868   3.604   7.312   2.873  2.3022 -0.8178 -0.0316
   79MOL0     H10869   3.770   7.363   2.912  0.2265 -1.0487 -3.8429
   79MOL0     H10870   3.516   7.425   3.070 -0.2008  2.1867  1.6640
   79MOL0     H10871   3.683   7.469   3.117 -1.6770  2.4789 -1.1993
   79MOL0     H10872   3.550   7.201   3.085 -0.8589  1.5453 -1.1207
   79MOL0     H10873   3.610   7.265   3.239 -0.8209 -1.9692  0.2346
   79MOL0     H10874   3.810   7.181   3.034  0.2097  0.8138 -0.4816
   79MOL0     H10875   3.836   7.254   3.191  0.0696 -2.6051  1.3060
   79MOL0     H10876   3.764   7.093   3.321 -1.6591  0.9482 -0.8436
   79MOL0     H10877   3.861   6.993   3.207 -0.6091 -0.8140 -0.7331
   79MOL0     H10878   3.680   6.902   3.081  1.1827 -2.0960  1.5022
   79MOL0     H10879   3.577   7.010   3.153  1.4676  1.3188 -0.8784
   79MOL0     H10880   3.562   6.782   3.254  0.3254 -0.2592  1.8751
   79MOL0     H10881   3.623   6.902   3.378 -0.2165  0.2192  0.5127
   79MOL0     H10882   3.509   7.690   2.665 -0.8122 -0.7408 -0.1766
   79MOL0     H10883   3.376   7.685   2.482  0.8353  0.5494 -3.4160
   79MOL0     H10884   3.280   7.316   2.123 -1.6875  0.2879  0.7948
   79MOL0     H10885   3.177   7.254   1.903 -2.1640 -2.1993  2.2071
   79MOL0     H10886   2.829   7.944   0.452 -1.4018  0.6016  1.1227
   79MOL0     H10887   3.068   8.019   0.491  0.0709  2.2805  2.1225
   79MOL0     H10888   3.423   7.999   0.694  1.8885 -1.1424  1.2275
   79MOL0     H10889   3.663   8.054   0.688  1.5503 -0.6086  2.6592
   79MOL0     H10890   3.778   8.256   0.577 -1.4080  1.9653 -0.4617
   79MOL0     H10891   3.804   8.404   0.649  2.2510  0.2194  3.8776
   79MOL0     H10892   4.021   8.272   0.546  1.9632 -3.4925  1.1763
   79MOL0     H10893   3.999   8.186   0.689 -1.8319 -0.4743  1.3475
   79MOL0     H10894   4.025   8.499   0.674 -0.4103  0.6044  1.3532
   79MOL0     H10895   4.031   8.406   0.824  0.6575 -1.6712  0.7930
   79MOL0     H10896   4.258   8.470   0.705  0.5751  0.0399  4.7037
   79MOL0     H10897   4.219   8.356   0.578  0.7047  0.7310 -0.1272
   79MOL0     H10898   4.339   8.134   0.935 -1.7833  0.6457  1.5098
   79MOL0     H10899   3.577   8.433   0.875 -0.8545 -1.1024  1.6004
   79MOL0     H10900   3.369   8.524   0.871  0.3411  0.4687 -2.3251
   79MOL0     H10901   3.251   8.465   0.764 -0.8288  0.1528  0.6778
   79MOL0     H10902   3.241   8.411   0.927 -0.7342  2.3918 -1.1278
   80MOL0     O10903   9.930   4.380   8.328 -0.1978 -0.1472 -1.0101
   80MOL0     C10904   9.860   4.385   8.231  0.5332  0.7685 -0.1974
   80MOL0     O10905   9.895   4.418   8.104  0.2782  0.3244 -0.2775
   80MOL0     C10906  10.028   4.436   8.081  1.3314 -0.3204  0.3514
   80MOL0     C10907  10.127   4.338   8.097  0.2601 -0.7273 -0.4063
   80MOL0     C10908  10.261   4.364   8.076  0.8638 -0.4371 -0.5145
   80MOL0     C10909  10.307   4.494   8.029 -0.8035 -0.8054  0.1401
   80MOL0     O10910  10.435   4.521   7.997  0.2840  0.0009 -0.2218
   80MOL0     C10911  10.534   4.421   8.038 -0.5023 -0.3401 -1.0915
   80MOL0     C10912  10.665   4.496   8.043  0.1163  0.6299 -0.2194
   80MOL0     C10913  10.777   4.389   8.063  0.1932 -0.6113  0.2618
   80MOL0     C10914  10.925   4.441   8.077 -0.2081  0.2186  0.1204
   80MOL0     C10915  11.019   4.333   8.126 -1.0478 -0.4438 -0.4368
   80MOL0     C10916  11.164   4.363   8.170 -0.3621 -0.2685  0.4255
   80MOL0     C10917  11.233   4.236   8.230 -0.2509  0.3506 -0.4924
   80MOL0     C10918  11.376   4.265   8.282  0.0585 -0.3944  0.1018
   80MOL0     N10919  11.436   4.148   8.357 -0.3212 -0.0726 -0.5685
   80MOL0     C10920  11.403   4.104   8.485 -0.0090 -0.2399  0.1834
   80MOL0     C10921  11.469   3.991   8.488 -0.0997 -0.2367 -0.2195
   80MOL0     C10922  11.459   3.900   8.605 -0.1601  0.6441 -0.0251
   80MOL0     C10923  11.355   3.779   8.575  0.0024 -1.0404 -0.2315
   80MOL0     C10924  11.400   3.683   8.462  0.7003  0.3245 -0.1527
   80MOL0     C10925  11.333   3.547   8.462  0.2788  0.8413 -0.3044
   80MOL0     O10926  11.406   3.452   8.385 -0.3106  0.4801 -0.0430
   80MOL0     C10927  11.523   3.396   8.437  0.1025  0.5818 -0.7681
   80MOL0     C10928  11.574   3.404   8.565 -0.2975  1.0249  1.0113
   80MOL0     C10929  11.688   3.327   8.608  0.5336  0.3540  0.8983
   80MOL0     C10930  11.720   3.327   8.753  0.3485  0.2852  0.6316
   80MOL0     C10931  11.769   3.252   8.513  0.6047 -0.2830  0.5240
   80MOL0     C10932  11.908   3.193   8.538 -0.7431 -0.1087  0.3008
   80MOL0     O10933  11.966   3.119   8.437  0.3707  0.3521 -0.3728
   80MOL0     C10934  12.073   3.042   8.465  0.3078 -0.7768 -0.0444
   80MOL0     C10935  12.192   3.078   8.509  0.6242 -0.6926  0.0215
   80MOL0     C10936  12.300   2.986   8.522  0.4481 -0.8534 -0.0280
   80MOL0     C10937  12.286   2.851   8.484 -0.3470  0.2271  0.5018
   80MOL0     O10938  12.382   2.759   8.461 -0.1128 -0.3631 -0.4970
   80MOL0     C10939  12.516   2.805   8.451  0.0034  0.1530 -0.1796
   80MOL0     C10940  12.610   2.704   8.378  0.4171 -0.0547  0.6123
   80MOL0     C10941  12.660   2.593   8.467 -1.2237  0.2670  0.1948
   80MOL0     C10942  12.773   2.514   8.394  0.3865  0.5939  0.3920
   80MOL0     C10943  12.833   2.414   8.489  0.2915  0.3610  0.7433
   80MOL0     C10944  12.953   2.344   8.420  0.0755  0.0652  0.7103
   80MOL0     C10945  13.039   2.270   8.517  0.2316  0.1004 -0.2865
   80MOL0     C10946  13.160   2.195   8.458 -0.4424 -1.1135  0.0925
   80MOL0    Cl10947  13.242   2.304   8.352 -0.2759 -0.7598 -0.3110
   80MOL0     C10948  12.156   2.810   8.454 -0.5553  0.4252  0.4669
   80MOL0     C10949  12.048   2.905   8.448 -0.3262 -0.7638  0.4400
   80MOL0     O10950  11.967   3.236   8.634 -0.5492  0.4627  0.4326
   80MOL0     C10951  11.711   3.245   8.386  0.6876 -0.0586 -0.5544
   80MOL0     C10952  11.592   3.308   8.354 -0.7848  0.3337  0.6707
   80MOL0     N10953  11.534   3.970   8.375  0.1143  0.3469 -0.1502
   80MOL0     N10954  11.509   4.062   8.289  0.6717 -0.4476 -0.3913
   80MOL0     C10955  10.207   4.592   8.003  0.4945  0.6350 -0.8143
   80MOL0     C10956  10.068   4.565   8.026  0.1500 -0.1909  0.0095
   80MOL0     C10957   9.715   4.353   8.243 -0.2629 -0.1948 -0.4569
   80MOL0     C10958   9.627   4.362   8.129  0.5976 -0.0033 -0.7729
   80MOL0     C10959   9.488   4.354   8.143  0.0538  0.3758  0.0719
   80MOL0     C10960   9.423   4.299   8.258 -0.2916  0.4987  0.8861
   80MOL0     O10961   9.289   4.262   8.272  0.3155 -0.0790  1.2241
   80MOL0     C10962   9.209   4.323   8.165 -1.3800 -0.6814 -0.1508
   80MOL0     C10963   9.061   4.293   8.184  0.1650 -0.3648  0.0275
   80MOL0     C10964   8.969   4.335   8.065 -0.0767  0.1164 -0.1476
   80MOL0     C10965   8.815   4.344   8.087 -0.4244 -0.3713  0.0703
   80MOL0     C10966   8.755   4.444   8.178  0.2773 -0.3654  0.4048
   80MOL0     C10967   8.698   4.524   8.247 -1.0196 -0.2699  0.1205
   80MOL0     C10968   9.509   4.279   8.366 -0.1576  0.1140 -0.2892
   80MOL0     C10969   9.654   4.300   8.360 -0.3559  0.0237  0.0047
   80MOL0     C10970   9.740   4.265   8.484 -0.6528  0.2430  0.8032
   80MOL0     H10971  10.095   4.241   8.134  0.7110 -0.1273  1.7283
   80MOL0     H10972  10.324   4.277   8.095 -0.6442 -1.1158  1.7892
   80MOL0     H10973  10.550   4.338   7.969  2.9672  0.3385 -1.3292
   80MOL0     H10974  10.507   4.380   8.135 -1.7567  3.6041  0.4294
   80MOL0     H10975  10.680   4.556   7.953  0.3210 -0.6865 -1.1039
   80MOL0     H10976  10.655   4.563   8.128  0.0003  1.5595 -0.9586
   80MOL0     H10977  10.756   4.318   8.143 -0.9172  0.0513  0.5778
   80MOL0     H10978  10.795   4.349   7.963 -0.0964  1.1627 -0.5531
   80MOL0     H10979  10.959   4.478   7.980  2.2012  0.1699  0.8809
   80MOL0     H10980  10.920   4.523   8.150 -2.4336  0.3134 -0.0775
   80MOL0     H10981  11.037   4.269   8.039  4.0061  3.1885 -2.5768
   80MOL0     H10982  10.968   4.277   8.205  0.1649 -1.7796 -0.5613
   80MOL0     H10983  11.222   4.391   8.082 -0.0394 -0.1504  0.6708
   80MOL0     H10984  11.165   4.453   8.233  0.6228  1.6020 -2.0711
   80MOL0     H10985  11.235   4.150   8.163  1.4537  1.6929 -2.2536
   80MOL0     H10986  11.179   4.206   8.321  2.6422  0.6987  1.4584
   80MOL0     H10987  11.435   4.292   8.194 -3.8085 -1.8311 -3.2345
   80MOL0     H10988  11.370   4.355   8.344 -0.6837  0.1313 -0.7155
   80MOL0     H10989  11.340   4.148   8.563  0.3741  1.0749 -0.2241
   80MOL0     H10990  11.421   3.952   8.693 -1.1541 -2.2563  1.3925
   80MOL0     H10991  11.558   3.860   8.628 -1.1379 -1.8193  0.2567
   80MOL0     H10992  11.336   3.718   8.664  1.8002 -2.4796 -0.7597
   80MOL0     H10993  11.268   3.843   8.558 -0.5170 -0.9703  2.3634
   80MOL0     H10994  11.366   3.720   8.365  2.0015 -0.9844 -1.1581
   80MOL0     H10995  11.509   3.681   8.454  1.0285  2.2312  2.5482
   80MOL0     H10996  11.326   3.501   8.561 -2.1511  1.2900 -0.1931
   80MOL0     H10997  11.229   3.558   8.429  0.4932  1.8164 -0.6859
   80MOL0     H10998  11.522   3.474   8.630 -2.9262 -0.7998  1.0374
   80MOL0     H10999  11.761   3.422   8.787 -2.6523  2.7212 -1.9252
   80MOL0     H11000  11.781   3.240   8.780  0.2239  0.7696  2.6253
   80MOL0     H11001  11.626   3.319   8.809  1.6597  1.2278  3.1198
   80MOL0     H11002  12.217   3.182   8.528 -0.7919 -0.1486 -0.9759
   80MOL0     H11003  12.399   3.021   8.552  0.3772 -1.3982  0.8567
   80MOL0     H11004  12.522   2.908   8.415  2.9459  0.2652  0.3595
   80MOL0     H11005  12.557   2.806   8.552  2.1819  1.0747 -1.0006
   80MOL0     H11006  12.548   2.670   8.294  0.4386  0.6779  0.2925
   80MOL0     H11007  12.693   2.755   8.329  0.9910  1.3704  2.9400
   80MOL0     H11008  12.581   2.524   8.497  1.1432 -1.4894  2.8947
   80MOL0     H11009  12.707   2.631   8.558  2.7305 -1.4476 -0.8824
   80MOL0     H11010  12.855   2.583   8.371 -0.9866  2.1014 -0.2053
   80MOL0     H11011  12.739   2.458   8.307  0.8281  0.3251  0.3887
   80MOL0     H11012  12.861   2.460   8.584 -0.2186  0.7015  0.7343
   80MOL0     H11013  12.763   2.332   8.509  1.0826 -1.0318 -1.6768
   80MOL0     H11014  13.017   2.424   8.380 -0.5566 -0.5087 -1.5568
   80MOL0     H11015  12.916   2.278   8.342  2.4598 -0.5009 -0.0373
   80MOL0     H11016  12.982   2.201   8.581 -2.0541  0.6725 -1.6045
   80MOL0     H11017  13.083   2.340   8.589 -1.0227 -1.1156  1.7838
   80MOL0     H11018  13.131   2.112   8.393  0.3191 -0.1478 -1.5181
   80MOL0     H11019  13.229   2.162   8.536  2.3045  0.4997 -1.4984
   80MOL0     H11020  12.141   2.705   8.432  2.6173 -0.2616  1.0918
   80MOL0     H11021  11.959   2.873   8.395 -0.7539  0.0313  0.6611
   80MOL0     H11022  11.762   3.193   8.307 -1.7751 -2.5719 -0.6453
   80MOL0     H11023  11.541   3.290   8.259  1.9396  0.2792 -0.8735
   80MOL0     H11024  10.230   4.688   7.959  1.7434  1.1245  0.8223
   80MOL0     H11025  10.001   4.648   8.005 -0.3863 -1.2021 -2.6893
   80MOL0     H11026   9.678   4.398   8.040  3.0021 -4.6735 -1.5886
   80MOL0     H11027   9.437   4.378   8.050 -2.4743 -4.0501  0.0696
   80MOL0     H11028   9.221   4.431   8.158  0.5561 -0.7028  1.7594
   80MOL0     H11029   9.243   4.287   8.067  1.9672 -0.4338  0.8197
   80MOL0     H11030   9.023   4.335   8.278  0.5758  0.3005 -0.1046
   80MOL0     H11031   9.050   4.186   8.203  0.3637 -0.2521  0.8002
   80MOL0     H11032   8.992   4.441   8.049  0.3643  0.6441  3.1555
   80MOL0     H11033   8.986   4.265   7.984  1.8587  1.4531 -0.9646
   80MOL0     H11034   8.787   4.246   8.129  0.5824  0.2733  2.4321
   80MOL0     H11035   8.772   4.359   7.988  1.4567  1.4830 -0.5202
   80MOL0     H11036   8.648   4.593   8.311 -0.2658  0.6440 -0.2324
   80MOL0     H11037   9.467   4.234   8.456  0.4030 -0.5093 -0.3260
   80MOL0     H11038   9.804   4.345   8.523  0.0400 -0.6238  1.4872
   80MOL0     H11039   9.672   4.239   8.566 -1.4104 -1.8227 -0.3828
   80MOL0     H11040   9.813   4.186   8.464 -1.4376 -0.9920  2.5457
   81MOL0     O11041  10.172   7.901   1.345 -0.2538  0.0341 -0.9096
   81MOL0     C11042  10.150   8.005   1.403 -0.0327  0.3616 -0.0009
   81MOL0     O11043  10.246   8.091   1.446 -1.0310  0.3085  0.1867
   81MOL0     C11044  10.364   8.104   1.385  0.1431  0.4604  0.3556
   81MOL0     C11045  10.384   8.076   1.251 -0.2351  0.1860  0.7227
   81MOL0     C11046  10.506   8.097   1.194  0.0433  0.2301 -1.0239
   81MOL0     C11047  10.619   8.141   1.269  0.7680 -0.7913  0.2847
   81MOL0     O11048  10.736   8.164   1.202 -0.6140  0.2022  0.4324
   81MOL0     C11049  10.856   8.173   1.289 -0.4745 -0.4031 -0.6201
   81MOL0     C11050  10.978   8.132   1.230  0.4217  0.0741  0.6489
   81MOL0     C11051  11.011   8.215   1.106  0.4887  0.3457  0.5153
   81MOL0     C11052  11.162   8.202   1.055 -0.0463 -0.2274 -0.6689
   81MOL0     C11053  11.274   8.188   1.160  0.2561  0.0009 -0.4640
   81MOL0     C11054  11.410   8.159   1.088  0.1032 -0.1347 -0.1073
   81MOL0     C11055  11.520   8.096   1.178  0.8386 -0.0554  0.3281
   81MOL0     C11056  11.665   8.127   1.149  0.3735  0.3223  0.4065
   81MOL0     N11057  11.691   8.108   1.009 -0.4549  0.6970  0.2743
   81MOL0     C11058  11.673   7.994   0.932 -0.1399  0.0772 -0.4419
   81MOL0     C11059  11.736   8.019   0.820 -0.9726  1.0169  0.3319
   81MOL0     C11060  11.745   7.921   0.712  1.5046 -0.5618  0.4245
   81MOL0     C11061  11.614   7.908   0.631  0.1387  0.5905  0.3007
   81MOL0     C11062  11.556   8.038   0.568 -0.0810  0.6086  0.1815
   81MOL0     C11063  11.416   8.015   0.517  0.6634 -0.6430  0.5070
   81MOL0     O11064  11.323   7.990   0.629 -0.0639  0.1168 -0.5323
   81MOL0     C11065  11.199   8.051   0.630  0.6649 -0.3985 -0.4269
   81MOL0     C11066  11.094   7.993   0.698 -1.3684  0.5798 -0.1264
   81MOL0     C11067  10.960   8.039   0.704  0.5184  0.2345  0.3779
   81MOL0     C11068  10.863   7.950   0.780 -0.1855 -0.4144 -0.1253
   81MOL0     C11069  10.927   8.166   0.644 -0.7584  0.0083 -0.1875
   81MOL0     C11070  10.803   8.239   0.665  1.4026 -0.2644  0.4478
   81MOL0     O11071  10.691   8.161   0.689  1.5905  0.1769 -0.3477
   81MOL0     C11072  10.568   8.223   0.709 -1.3417  0.9074 -0.4151
   81MOL0     C11073  10.501   8.178   0.814  0.8435 -0.0988 -0.2872
   81MOL0     C11074  10.365   8.223   0.834  0.1296 -0.3042 -0.7065
   81MOL0     C11075  10.301   8.304   0.745 -0.0194  0.1892 -0.0479
   81MOL0     O11076  10.167   8.324   0.777 -0.0030 -0.0731  0.5942
   81MOL0     C11077  10.073   8.336   0.671 -0.2795 -0.2295 -0.0831
   81MOL0     C11078   9.925   8.326   0.716 -0.0043  0.6142 -0.3885
   81MOL0     C11079   9.842   8.372   0.604  0.5953 -0.3604  0.5550
   81MOL0     C11080   9.812   8.261   0.494 -0.2312 -0.8967  0.4302
   81MOL0     C11081   9.702   8.170   0.557 -0.0391  0.4256 -1.1238
   81MOL0     C11082   9.567   8.246   0.549  0.0501 -0.0344 -0.2264
   81MOL0     C11083   9.512   8.253   0.696 -0.2039  0.1819 -1.1260
   81MOL0     C11084   9.365   8.286   0.704 -0.4679  0.3246 -1.5661
   81MOL0    Cl11085   9.253   8.145   0.663 -0.5267 -0.0884 -0.3074
   81MOL0     C11086  10.375   8.357   0.642 -0.5040 -0.6430  0.4642
   81MOL0     C11087  10.509   8.322   0.630 -0.4017 -0.6220  0.1282
   81MOL0     O11088  10.802   8.363   0.655 -0.1812 -0.1493  0.4915
   81MOL0     C11089  11.034   8.232   0.582 -0.1988  0.3657 -0.0147
   81MOL0     C11090  11.167   8.182   0.578 -0.2591  0.2644  0.8079
   81MOL0     N11091  11.806   8.137   0.835 -0.0713  0.5996  0.1399
   81MOL0     N11092  11.775   8.194   0.943  0.8842  0.0314 -0.5233
   81MOL0     C11093  10.591   8.184   1.402 -0.5929  0.3640 -0.5869
   81MOL0     C11094  10.462   8.168   1.457 -0.7268  0.2943  0.1059
   81MOL0     C11095  10.004   8.042   1.420 -0.5767 -0.1407 -0.6475
   81MOL0     C11096   9.919   7.932   1.399  0.4743  0.2881 -0.2832
   81MOL0     C11097   9.779   7.953   1.405 -0.5794 -0.9389 -0.5841
   81MOL0     C11098   9.725   8.078   1.423 -0.0814  0.3860  0.0304
   81MOL0     O11099   9.589   8.085   1.439 -0.1140 -0.5988 -0.6586
   81MOL0     C11100   9.524   8.200   1.500 -0.2009 -0.2032  0.2738
   81MOL0     C11101   9.387   8.177   1.533  0.8819 -0.1889  0.5131
   81MOL0     C11102   9.364   8.062   1.620 -0.1123  0.5563  0.1271
   81MOL0     C11103   9.210   8.060   1.652 -0.0936 -0.0276 -0.5102
   81MOL0     C11104   9.166   7.927   1.717 -1.0225 -1.1703  0.7762
   81MOL0     C11105   9.122   7.841   1.784  0.7133  0.3616 -0.0775
   81MOL0     C11106   9.811   8.188   1.449  0.2524 -0.4790  0.5967
   81MOL0     C11107   9.949   8.172   1.452  0.0070 -0.1629 -0.2587
   81MOL0     C11108  10.037   8.300   1.485  1.0608 -0.2213 -0.4025
   81MOL0     H11109  10.293   8.076   1.192 -0.3138 -1.4520  0.7759
   81MOL0     H11110  10.514   8.091   1.086 -0.6939 -4.9089 -1.0393
   81MOL0     H11111  10.850   8.115   1.381 -1.9075  2.7739  1.4944
   81MOL0     H11112  10.862   8.278   1.321 -1.1848 -1.2980  2.8937
   81MOL0     H11113  11.061   8.158   1.296  2.5879 -1.5358 -1.2932
   81MOL0     H11114  10.972   8.026   1.204  3.4242  0.5634 -2.8604
   81MOL0     H11115  10.936   8.200   1.029  0.7363  0.3417  0.2740
   81MOL0     H11116  11.004   8.319   1.140  2.5281  0.1145  1.8740
   81MOL0     H11117  11.166   8.124   0.979 -1.9675  1.1964 -2.3181
   81MOL0     H11118  11.186   8.292   0.997 -1.2079  2.8120  3.1165
   81MOL0     H11119  11.241   8.109   1.229  1.8982  0.5041  0.9863
   81MOL0     H11120  11.280   8.285   1.210  0.6535  0.4581 -1.3778
   81MOL0     H11121  11.387   8.109   0.994 -0.3631  2.6741 -1.6155
   81MOL0     H11122  11.448   8.257   1.056  1.4798 -1.5258 -3.2183
   81MOL0     H11123  11.506   7.987   1.183 -1.3060  0.2370  1.6332
   81MOL0     H11124  11.503   8.128   1.281 -0.4578  2.4603 -0.5824
   81MOL0     H11125  11.693   8.229   1.173  2.9715 -0.5628  1.4652
   81MOL0     H11126  11.736   8.056   1.192  0.0545 -1.3641 -1.6254
   81MOL0     H11127  11.604   7.914   0.956 -0.1940 -0.8207 -3.2657
   81MOL0     H11128  11.754   7.821   0.754  1.1373 -1.3835 -1.3321
   81MOL0     H11129  11.828   7.947   0.646  1.4380  2.4769  1.4156
   81MOL0     H11130  11.643   7.831   0.559 -0.6413 -0.3207  0.9398
   81MOL0     H11131  11.538   7.855   0.687  0.1197  0.4082  0.1034
   81MOL0     H11132  11.565   8.112   0.648  1.4934 -1.8715  2.4328
   81MOL0     H11133  11.612   8.076   0.482 -0.7482  2.0898  0.3669
   81MOL0     H11134  11.382   8.091   0.445  0.4753  0.4350  1.7042
   81MOL0     H11135  11.417   7.922   0.459 -4.5486 -1.0955  0.6311
   81MOL0     H11136  11.110   7.902   0.754 -0.2776  0.3686 -0.7606
   81MOL0     H11137  10.796   7.899   0.710 -1.5314  0.4359  0.5026
   81MOL0     H11138  10.807   8.017   0.846  2.4755  1.5866  0.2671
   81MOL0     H11139  10.928   7.888   0.844 -0.0807  1.5322  1.7951
   81MOL0     H11140  10.531   8.106   0.889 -0.3169 -0.1149  0.1871
   81MOL0     H11141  10.301   8.184   0.913  3.6085  2.1321  3.7728
   81MOL0     H11142  10.087   8.434   0.626  0.7018 -1.2141 -2.0680
   81MOL0     H11143  10.100   8.256   0.601  2.2845  1.7540 -1.5231
   81MOL0     H11144   9.898   8.225   0.747 -2.3396  1.3312  0.0995
   81MOL0     H11145   9.917   8.395   0.800 -1.0343 -0.3231  0.3092
   81MOL0     H11146   9.889   8.459   0.557 -0.0449 -0.4841 -0.3458
   81MOL0     H11147   9.747   8.410   0.642  0.5419 -0.5440  0.6051
   81MOL0     H11148   9.905   8.216   0.461 -0.1554 -0.5869  0.2159
   81MOL0     H11149   9.772   8.317   0.408 -1.2722 -0.4984  1.1493
   81MOL0     H11150   9.683   8.081   0.497 -0.5334  0.2526 -0.7067
   81MOL0     H11151   9.732   8.129   0.654  0.5318 -1.8825 -2.2088
   81MOL0     H11152   9.504   8.184   0.484  1.7221 -0.6419 -1.3399
   81MOL0     H11153   9.579   8.344   0.502  2.0494 -0.2901 -0.3106
   81MOL0     H11154   9.575   8.328   0.745 -0.4425 -0.3904  0.0929
   81MOL0     H11155   9.527   8.157   0.747 -0.3231  0.9952  0.4678
   81MOL0     H11156   9.340   8.378   0.650 -0.5465  1.2112 -0.0891
   81MOL0     H11157   9.363   8.302   0.812  2.9499 -3.3641 -0.7317
   81MOL0     H11158  10.332   8.421   0.566 -1.9801  0.1070  1.8745
   81MOL0     H11159  10.568   8.379   0.558 -1.3370  0.0237 -0.1502
   81MOL0     H11160  11.007   8.324   0.532 -0.8927  0.5665  0.7124
   81MOL0     H11161  11.226   8.258   0.529 -1.4107  2.7021  2.9457
   81MOL0     H11162  10.669   8.233   1.459  0.9372 -2.3748 -0.1548
   81MOL0     H11163  10.434   8.202   1.556  0.5094 -2.1944  1.4019
   81MOL0     H11164   9.946   7.828   1.384  0.2780  0.0965  0.6362
   81MOL0     H11165   9.711   7.868   1.409 -0.0870 -1.3928 -1.5104
   81MOL0     H11166   9.566   8.241   1.593  0.4682  4.3579 -1.7673
   81MOL0     H11167   9.534   8.284   1.430  0.4355 -1.9312 -1.7816
   81MOL0     H11168   9.336   8.158   1.438 -0.4486 -1.9147  1.5307
   81MOL0     H11169   9.343   8.271   1.567  0.0629  0.3379 -1.7837
   81MOL0     H11170   9.400   7.969   1.576 -2.2210  0.3076 -1.2452
   81MOL0     H11171   9.416   8.075   1.715  1.8756 -0.8219 -0.7225
   81MOL0     H11172   9.159   8.068   1.556  0.0295 -1.5984 -0.7291
   81MOL0     H11173   9.177   8.146   1.712  0.4269 -1.5367  2.0938
   81MOL0     H11174   9.093   7.752   1.836  1.7678  0.2140  0.2690
   81MOL0     H11175   9.782   8.285   1.488  0.5312  0.0481 -0.4717
   81MOL0     H11176  10.027   8.379   1.409  2.6219 -1.1987 -1.6900
   81MOL0     H11177   9.997   8.347   1.575 -0.0635 -0.1138 -0.9435
   81MOL0     H11178  10.144   8.284   1.496  1.3314  1.4104 -0.3316
   82MOL0     O11179   7.535   0.135   7.135 -0.3317 -0.2599 -0.8219
   82MOL0     C11180   7.539   0.022   7.149  0.9411  0.7666  0.2144
   82MOL0     O11181   7.654  -0.048   7.188  0.6009  0.0698 -0.4161
   82MOL0     C11182   7.760   0.029   7.226  1.1449  0.4182 -0.8305
   82MOL0     C11183   7.867   0.064   7.139  0.3025  0.1553  0.1589
   82MOL0     C11184   7.976   0.144   7.189 -0.7024  0.5933  0.6157
   82MOL0     C11185   7.972   0.184   7.324 -0.4810 -0.1178 -0.4139
   82MOL0     O11186   8.065   0.274   7.373  0.0851  0.2380 -0.2015
   82MOL0     C11187   8.196   0.264   7.307  0.0822  0.1753  0.4622
   82MOL0     C11188   8.299   0.339   7.391 -0.2418 -0.2247 -0.5671
   82MOL0     C11189   8.428   0.372   7.309 -0.1066  0.5139  0.4579
   82MOL0     C11190   8.529   0.456   7.390 -0.0636  0.3275 -0.5484
   82MOL0     C11191   8.648   0.493   7.299  0.5892  0.3395  0.3561
   82MOL0     C11192   8.750   0.585   7.369  0.4939 -0.5803 -0.2387
   82MOL0     C11193   8.709   0.729   7.402  1.0809 -1.1395  0.8548
   82MOL0     C11194   8.706   0.826   7.279 -0.1824  0.8157  0.1941
   82MOL0     N11195   8.767   0.948   7.320  0.6757 -0.5735 -0.4641
   82MOL0     C11196   8.898   0.984   7.330 -0.7816 -0.2731  0.8672
   82MOL0     C11197   8.890   1.115   7.379  0.5805 -1.3872 -0.0447
   82MOL0     C11198   8.999   1.215   7.398 -0.4416  0.4663 -0.0591
   82MOL0     C11199   9.113   1.166   7.486  0.3498 -0.8436 -0.1118
   82MOL0     C11200   9.076   1.127   7.631 -0.0589 -0.7943 -0.7573
   82MOL0     C11201   9.092   1.250   7.721 -0.1970  0.1446 -0.1665
   82MOL0     O11202   9.051   1.232   7.852  0.0180  0.4115  0.3645
   82MOL0     C11203   8.914   1.202   7.877  0.4864 -0.0525 -0.4982
   82MOL0     C11204   8.879   1.126   7.991 -0.1822 -0.4105  0.0811
   82MOL0     C11205   8.750   1.109   8.038  0.3784  0.6799  0.3281
   82MOL0     C11206   8.731   1.036   8.167 -0.3533  0.3994 -0.3442
   82MOL0     C11207   8.638   1.144   7.959 -0.0955 -0.6678  0.2547
   82MOL0     C11208   8.499   1.101   7.988  0.8791  0.3773 -0.0440
   82MOL0     O11209   8.445   1.020   7.892  0.1919  0.0818  0.3780
   82MOL0     C11210   8.338   0.946   7.922  0.1207  0.1278  0.3234
   82MOL0     C11211   8.210   0.996   7.882  0.2355  0.0217  0.0359
   82MOL0     C11212   8.102   0.924   7.916 -0.1955  0.6087 -0.7581
   82MOL0     C11213   8.101   0.796   7.973 -0.0258 -0.2011 -0.1168
   82MOL0     O11214   7.975   0.731   7.991 -0.5544  0.3006 -0.9728
   82MOL0     C11215   7.965   0.609   8.066 -0.5792 -0.1964  0.2844
   82MOL0     C11216   7.819   0.562   8.101 -1.0748  0.1182  0.0206
   82MOL0     C11217   7.720   0.584   7.995  1.0116  0.7513 -1.1179
   82MOL0     C11218   7.583   0.557   8.052  0.2462 -0.0912  0.6472
   82MOL0     C11219   7.476   0.574   7.942 -0.4968  0.3914 -0.7973
   82MOL0     C11220   7.335   0.606   7.996 -0.0897 -0.1492  0.0558
   82MOL0     C11221   7.267   0.480   8.049 -0.2029 -0.3468 -0.4193
   82MOL0     C11222   7.152   0.493   8.128 -0.4429  0.3318  0.0461
   82MOL0    Cl11223   7.036   0.615   8.069  0.3930 -0.1552 -0.5741
   82MOL0     C11224   8.226   0.742   8.007 -0.4069 -0.2713  0.1829
   82MOL0     C11225   8.344   0.817   7.983  0.0644  1.3463 -0.1586
   82MOL0     O11226   8.442   1.158   8.079  0.5155 -0.3428  0.7122
   82MOL0     C11227   8.667   1.212   7.836  0.0578 -0.5508  0.3460
   82MOL0     C11228   8.799   1.241   7.793 -0.1633 -0.4726 -0.8805
   82MOL0     N11229   8.760   1.139   7.394  1.0283 -0.1020  0.5264
   82MOL0     N11230   8.693   1.034   7.385  0.5697  0.7516 -0.0316
   82MOL0     C11231   7.868   0.148   7.404  0.5637  0.1361  0.5707
   82MOL0     C11232   7.765   0.076   7.358 -0.2527  0.2069 -0.2636
   82MOL0     C11233   7.412  -0.054   7.145 -0.3357  0.2489  0.1821
   82MOL0     C11234   7.409  -0.189   7.101 -0.4866 -0.0840 -0.8203
   82MOL0     C11235   7.292  -0.270   7.092  0.0387  0.4927 -0.4568
   82MOL0     C11236   7.173  -0.224   7.153  0.6403  0.8071 -0.8058
   82MOL0     O11237   7.062  -0.297   7.169 -0.1760  0.1144  0.0374
   82MOL0     C11238   7.059  -0.429   7.121  0.9788 -0.2514  0.1759
   82MOL0     C11239   7.150  -0.524   7.207  0.6813  0.1207 -0.5386
   82MOL0     C11240   7.107  -0.548   7.350  1.0078 -0.2150 -1.2255
   82MOL0     C11241   7.187  -0.669   7.404  1.0373  1.2692 -0.1618
   82MOL0     C11242   7.156  -0.800   7.343 -0.5366 -0.4631 -0.1186
   82MOL0     C11243   7.143  -0.912   7.295 -0.0599 -0.7902 -0.0591
   82MOL0     C11244   7.170  -0.087   7.182 -0.1698 -0.1115 -0.7601
   82MOL0     C11245   7.285  -0.002   7.181  0.2289 -0.3731  0.0518
   82MOL0     C11246   7.262   0.125   7.267  0.5314 -0.3606  0.6466
   82MOL0     H11247   7.877   0.009   7.046  0.3477 -1.3569  1.0155
   82MOL0     H11248   8.060   0.162   7.123 -0.2480  0.3665  1.1226
   82MOL0     H11249   8.185   0.329   7.220  3.0310  2.7235  1.8044
   82MOL0     H11250   8.226   0.160   7.290 -1.4265 -1.1241  4.5638
   82MOL0     H11251   8.260   0.436   7.425 -4.1475 -1.9736  0.5581
   82MOL0     H11252   8.314   0.285   7.485 -0.4406 -0.7715 -0.8416
   82MOL0     H11253   8.477   0.282   7.269 -3.3078 -1.7794  1.3169
   82MOL0     H11254   8.411   0.437   7.222 -1.7676  2.2032  1.9770
   82MOL0     H11255   8.476   0.549   7.414  0.5456  0.3317  0.8759
   82MOL0     H11256   8.551   0.412   7.488 -0.2377  2.5202  0.5320
   82MOL0     H11257   8.622   0.532   7.201  0.9649  1.2308  0.6018
   82MOL0     H11258   8.691   0.397   7.271  0.7145  0.2909  0.7025
   82MOL0     H11259   8.777   0.530   7.460  2.1855  0.5328 -0.0313
   82MOL0     H11260   8.844   0.599   7.315 -0.3272 -2.1443 -2.2311
   82MOL0     H11261   8.787   0.768   7.469 -0.3702  1.4009  1.1994
   82MOL0     H11262   8.612   0.718   7.452  0.1481  0.1233 -0.5808
   82MOL0     H11263   8.770   0.778   7.204  0.4763  1.3546  0.4027
   82MOL0     H11264   8.603   0.834   7.242 -0.5624 -1.5207  0.5454
   82MOL0     H11265   8.988   0.929   7.306  0.5128  1.9804  0.3097
   82MOL0     H11266   8.956   1.306   7.441 -0.2277  0.8561 -0.6511
   82MOL0     H11267   9.037   1.253   7.303 -1.8559  4.2751  0.7208
   82MOL0     H11268   9.174   1.086   7.440  0.8667 -1.1979  1.1599
   82MOL0     H11269   9.182   1.249   7.499  0.0803 -0.7758  0.8927
   82MOL0     H11270   8.973   1.091   7.642  0.2783 -1.2152  1.4225
   82MOL0     H11271   9.152   1.053   7.655  2.2446  1.6886  0.1471
   82MOL0     H11272   9.194   1.291   7.725  0.0271 -0.4574  3.4356
   82MOL0     H11273   9.033   1.331   7.679 -0.0732  0.4304  0.2093
   82MOL0     H11274   8.968   1.107   8.049  2.2075 -1.3923 -3.5789
   82MOL0     H11275   8.680   1.103   8.237  0.7573  1.6168 -0.6766
   82MOL0     H11276   8.824   1.009   8.216  0.4262  1.0864 -1.4037
   82MOL0     H11277   8.683   0.940   8.143 -0.4633 -0.8225  3.9015
   82MOL0     H11278   8.201   1.094   7.835 -2.4536 -1.1928 -2.2244
   82MOL0     H11279   8.008   0.960   7.876 -0.7001 -2.0742 -2.2013
   82MOL0     H11280   8.013   0.524   8.017  0.3107 -0.6880  1.9210
   82MOL0     H11281   8.017   0.624   8.161 -1.5775 -1.4928  1.0771
   82MOL0     H11282   7.830   0.453   8.113  0.0891 -0.0775 -2.2638
   82MOL0     H11283   7.792   0.601   8.200 -1.4199 -0.2535  0.0763
   82MOL0     H11284   7.743   0.527   7.904  1.1518  1.7513 -1.7143
   82MOL0     H11285   7.734   0.690   7.977  2.9872  0.9631  1.0810
   82MOL0     H11286   7.562   0.624   8.136  2.7178 -1.0890  2.1715
   82MOL0     H11287   7.572   0.453   8.084  1.4772  0.2136  2.1953
   82MOL0     H11288   7.490   0.666   7.884 -2.5715  1.2807  0.0206
   82MOL0     H11289   7.491   0.485   7.881  2.8065 -0.7677  1.4350
   82MOL0     H11290   7.272   0.649   7.917 -2.3578  2.1431  2.8611
   82MOL0     H11291   7.340   0.678   8.079 -1.7422 -0.7592  0.7475
   82MOL0     H11292   7.341   0.428   8.110 -1.3912  0.3700  1.7807
   82MOL0     H11293   7.256   0.419   7.959  0.8035  2.3838 -2.5381
   82MOL0     H11294   7.179   0.522   8.230 -2.9912 -0.0985  0.9375
   82MOL0     H11295   7.106   0.396   8.148  2.2968 -1.7603 -2.9069
   82MOL0     H11296   8.244   0.645   8.052 -1.3942 -0.0207  1.1578
   82MOL0     H11297   8.443   0.783   8.010 -0.6639  0.1136  1.0823
   82MOL0     H11298   8.576   1.232   7.779  0.1007  0.2635  0.5486
   82MOL0     H11299   8.812   1.310   7.710  0.3020  2.6036  1.5552
   82MOL0     H11300   7.857   0.158   7.511  0.6777 -0.6982  0.6626
   82MOL0     H11301   7.679   0.053   7.421  0.0043 -2.3849 -0.7609
   82MOL0     H11302   7.506  -0.217   7.061 -0.2275  1.3482 -1.2472
   82MOL0     H11303   7.295  -0.369   7.048 -2.6015 -0.1431  0.5818
   82MOL0     H11304   6.957  -0.464   7.136  0.4467  1.0934 -0.2495
   82MOL0     H11305   7.094  -0.432   7.017 -1.2783  0.5013 -0.6574
   82MOL0     H11306   7.255  -0.492   7.210  0.0680  2.2514 -0.1395
   82MOL0     H11307   7.150  -0.619   7.154 -0.8374 -0.1261 -0.1233
   82MOL0     H11308   7.117  -0.461   7.416  1.5094  0.9843 -2.8446
   82MOL0     H11309   7.001  -0.574   7.354 -0.9352  6.0657  0.2107
   82MOL0     H11310   7.159  -0.676   7.509 -0.3068  0.2588 -0.5450
   82MOL0     H11311   7.293  -0.647   7.391  1.1615  1.1531  0.6236
   82MOL0     H11312   7.124  -1.010   7.254 -3.2728 -0.9539  1.5196
   82MOL0     H11313   7.075  -0.054   7.223 -0.2109  0.7493 -1.5120
   82MOL0     H11314   7.168   0.114   7.321 -0.6115  0.9978 -0.9591
   82MOL0     H11315   7.351   0.148   7.327  1.9049  3.7590 -2.4792
   82MOL0     H11316   7.252   0.199   7.188 -2.1616 -1.6040 -0.2924
   83MOL0     O11317  10.515   3.389   8.835  0.4421 -0.2383 -0.2144
   83MOL0     C11318  10.515   3.400   8.961  0.3640  0.4925 -0.6624
   83MOL0     O11319  10.526   3.520   9.021  0.0165  0.0302 -0.1874
   83MOL0     C11320  10.501   3.646   8.969  0.2827 -0.0966  0.3984
   83MOL0     C11321  10.428   3.668   8.851  0.8623 -0.0240 -0.3592
   83MOL0     C11322  10.388   3.802   8.821 -0.0659  0.3270 -1.0045
   83MOL0     C11323  10.412   3.914   8.902 -0.6335  0.5185  0.7427
   83MOL0     O11324  10.342   4.035   8.874 -0.3007  0.4481  0.2240
   83MOL0     C11325  10.428   4.150   8.893 -0.3597  0.3288  0.8616
   83MOL0     C11326  10.345   4.256   8.816  0.2513 -0.7812 -0.4792
   83MOL0     C11327  10.422   4.395   8.805 -0.2357  0.4551  0.7062
   83MOL0     C11328  10.509   4.400   8.683 -0.0190 -0.1255  0.3459
   83MOL0     C11329  10.571   4.538   8.672 -1.0415 -0.3397 -0.3648
   83MOL0     C11330  10.688   4.544   8.565  1.0747  0.6502 -0.4883
   83MOL0     C11331  10.749   4.680   8.564 -0.1717  0.6840  0.0936
   83MOL0     C11332  10.861   4.688   8.458 -1.0169 -0.2032 -0.3418
   83MOL0     N11333  10.988   4.629   8.506 -0.0384 -0.6352 -0.3114
   83MOL0     C11334  11.075   4.680   8.599 -0.5496  0.2206  0.5495
   83MOL0     C11335  11.162   4.584   8.608 -0.7782 -1.1065 -0.2328
   83MOL0     C11336  11.272   4.593   8.712 -0.1440  0.0863 -0.1492
   83MOL0     C11337  11.400   4.552   8.641 -0.3564  0.2132 -0.2057
   83MOL0     C11338  11.503   4.495   8.733 -0.5411 -0.1092 -0.6305
   83MOL0     C11339  11.642   4.482   8.693  0.4358 -0.0122  0.5794
   83MOL0     O11340  11.653   4.383   8.592 -0.0050  0.3367  0.2637
   83MOL0     C11341  11.782   4.329   8.558  0.3926 -0.2380  1.5159
   83MOL0     C11342  11.789   4.225   8.462 -0.0704 -0.1776 -0.2924
   83MOL0     C11343  11.915   4.168   8.438  0.5783  0.1990  0.1824
   83MOL0     C11344  11.912   4.049   8.337 -0.2611 -0.0807  0.3898
   83MOL0     C11345  12.034   4.223   8.497  0.3446  0.3542 -0.3646
   83MOL0     C11346  12.168   4.174   8.470  1.1689 -0.4968 -0.0614
   83MOL0     O11347  12.246   4.270   8.443 -0.1715 -0.8741  0.1805
   83MOL0     C11348  12.378   4.249   8.410 -0.6501 -0.1844  0.5307
   83MOL0     C11349  12.450   4.127   8.433  0.5544  0.0365 -0.0841
   83MOL0     C11350  12.585   4.111   8.401  0.1007  0.1876 -0.7536
   83MOL0     C11351  12.655   4.219   8.348  0.5197 -0.0436  0.3509
   83MOL0     O11352  12.787   4.219   8.300 -0.1678 -0.2310 -0.0276
   83MOL0     C11353  12.873   4.127   8.364 -0.7248  0.4003 -0.0708
   83MOL0     C11354  13.015   4.164   8.343 -0.3490  0.3626  0.4283
   83MOL0     C11355  13.077   4.266   8.443  0.4635  0.9880 -0.1140
   83MOL0     C11356  13.204   4.322   8.371 -0.1624 -0.4291  0.4069
   83MOL0     C11357  13.317   4.229   8.322  0.1076 -0.6000 -0.4448
   83MOL0     C11358  13.413   4.193   8.438 -0.4246  0.5854  0.1577
   83MOL0     C11359  13.495   4.065   8.411  0.1615 -0.5577  0.3349
   83MOL0     C11360  13.628   4.058   8.462  0.4000 -0.1262  0.9355
   83MOL0    Cl11361  13.628   4.051   8.638  0.3324  0.0858 -0.1399
   83MOL0     C11362  12.585   4.339   8.325 -0.2819 -0.3687 -1.4883
   83MOL0     C11363  12.453   4.358   8.349  0.9057  0.0629 -0.1409
   83MOL0     O11364  12.188   4.057   8.473  0.0786  0.3881  0.0054
   83MOL0     C11365  12.022   4.324   8.589 -0.3173 -0.6577  0.3004
   83MOL0     C11366  11.898   4.378   8.619 -0.9769 -0.4005  0.8029
   83MOL0     N11367  11.131   4.469   8.531  0.0057 -0.2457 -0.1220
   83MOL0     N11368  11.034   4.512   8.465  0.0108  0.5342 -0.5207
   83MOL0     C11369  10.486   3.893   9.016 -0.9675 -0.5592  0.0987
   83MOL0     C11370  10.524   3.761   9.052 -0.8831 -0.0822  0.3832
   83MOL0     C11371  10.523   3.278   9.044 -0.1102 -0.3820  0.2082
   83MOL0     C11372  10.588   3.277   9.168  0.0601 -0.4810  0.2775
   83MOL0     C11373  10.604   3.165   9.254  0.1372  0.0702 -0.0116
   83MOL0     C11374  10.557   3.042   9.203 -0.0863  0.0286  0.9138
   83MOL0     O11375  10.560   2.923   9.275 -0.4056  0.0337 -0.1863
   83MOL0     C11376  10.565   2.925   9.418  1.1643  0.6116  0.1055
   83MOL0     C11377  10.523   2.788   9.468  0.3357  0.2234 -0.2596
   83MOL0     C11378  10.626   2.673   9.459 -0.7624  0.5101  0.6774
   83MOL0     C11379  10.770   2.697   9.495 -0.1782 -0.2510 -0.8859
   83MOL0     C11380  10.828   2.559   9.537 -0.2222  0.1647 -0.1912
   83MOL0     C11381  10.852   2.442   9.553 -0.2851  0.5333 -0.7393
   83MOL0     C11382  10.489   3.040   9.079  0.2445 -0.3451 -0.3004
   83MOL0     C11383  10.471   3.153   8.994 -0.2014  0.3652  0.0473
   83MOL0     C11384  10.382   3.125   8.864  0.2633 -1.0317 -0.1784
   83MOL0     H11385  10.376   3.595   8.790  0.8114  1.2314 -1.8685
   83MOL0     H11386  10.329   3.828   8.733 -0.3678  2.9810 -0.1014
   83MOL0     H11387  10.529   4.134   8.855 -1.4639 -0.4242 -1.9985
   83MOL0     H11388  10.438   4.191   8.994 -0.3410  1.8259  0.2798
   83MOL0     H11389  10.312   4.218   8.719 -1.4153 -0.7788  0.0507
   83MOL0     H11390  10.246   4.269   8.861  0.2987 -2.2261  0.1086
   83MOL0     H11391  10.346   4.473   8.806 -0.6711  0.1121  3.6430
   83MOL0     H11392  10.487   4.401   8.893 -0.1009 -2.3096  0.8928
   83MOL0     H11393  10.584   4.321   8.696 -1.9748 -1.8640  1.5659
   83MOL0     H11394  10.467   4.386   8.583  0.7827 -0.6102  0.0635
   83MOL0     H11395  10.610   4.568   8.770 -1.1259  1.4603 -0.8462
   83MOL0     H11396  10.499   4.616   8.646 -2.2970 -1.2166  0.4141
   83MOL0     H11397  10.770   4.474   8.583 -1.0770 -1.9683 -0.1648
   83MOL0     H11398  10.643   4.509   8.472 -1.7892  0.1841  0.9613
   83MOL0     H11399  10.794   4.715   8.657  2.7812  0.2861 -1.0898
   83MOL0     H11400  10.678   4.753   8.525  1.1154  1.2248 -1.3198
   83MOL0     H11401  10.826   4.644   8.364 -2.0583 -2.5628  1.0632
   83MOL0     H11402  10.881   4.794   8.440 -0.0512 -0.6592 -2.1478
   83MOL0     H11403  11.081   4.777   8.647  2.2316 -0.1046  0.9940
   83MOL0     H11404  11.244   4.521   8.791  0.9711  1.9857  2.1040
   83MOL0     H11405  11.284   4.690   8.762 -0.0279 -1.5390  3.3229
   83MOL0     H11406  11.401   4.476   8.562 -0.3649 -2.3050  2.0725
   83MOL0     H11407  11.445   4.642   8.597 -0.4494  0.0493 -0.6463
   83MOL0     H11408  11.515   4.551   8.826  1.5404 -1.2979 -0.1224
   83MOL0     H11409  11.470   4.397   8.769  1.2465 -0.2162  0.8338
   83MOL0     H11410  11.678   4.576   8.651  1.3151 -0.0363  1.2623
   83MOL0     H11411  11.707   4.454   8.776 -0.2320 -0.3633  1.0002
   83MOL0     H11412  11.698   4.200   8.408  0.5555  0.9373 -1.9320
   83MOL0     H11413  11.966   3.963   8.377  2.0723  0.9943 -0.2964
   83MOL0     H11414  11.960   4.067   8.241 -0.3417  0.7003  0.4876
   83MOL0     H11415  11.809   4.016   8.318 -0.4085 -0.3708  1.5833
   83MOL0     H11416  12.406   4.037   8.475  2.2088 -2.3985 -3.1735
   83MOL0     H11417  12.636   4.021   8.435  0.9358  1.5511  1.8626
   83MOL0     H11418  12.862   4.125   8.473  0.4651  1.2862  0.0865
   83MOL0     H11419  12.865   4.030   8.314  2.4399  0.8242 -1.6683
   83MOL0     H11420  13.075   4.073   8.343 -1.8445 -0.7036 -1.2842
   83MOL0     H11421  13.024   4.204   8.241  0.1257 -0.8446 -0.0141
   83MOL0     H11422  13.107   4.201   8.526 -0.2622 -0.9568 -1.3070
   83MOL0     H11423  13.010   4.350   8.464  1.5499  1.6248  0.8957
   83MOL0     H11424  13.246   4.393   8.443 -1.9293  0.2718  0.7987
   83MOL0     H11425  13.162   4.373   8.284  0.1636 -2.4774 -1.0267
   83MOL0     H11426  13.273   4.143   8.270  2.4454 -2.1697 -0.0094
   83MOL0     H11427  13.365   4.292   8.247 -1.3563  0.0273 -0.8881
   83MOL0     H11428  13.354   4.183   8.529 -2.2880 -0.0007 -1.0710
   83MOL0     H11429  13.487   4.274   8.445 -1.3156  1.2698  2.2781
   83MOL0     H11430  13.503   4.049   8.303  1.9514 -0.0277  0.3662
   83MOL0     H11431  13.429   3.985   8.445  1.7786 -0.9421  2.8273
   83MOL0     H11432  13.691   4.142   8.433  0.3201  0.1556  1.5574
   83MOL0     H11433  13.684   3.970   8.429 -0.3895 -0.1869 -0.2698
   83MOL0     H11434  12.642   4.422   8.285 -0.6808 -0.0477 -1.3958
   83MOL0     H11435  12.409   4.456   8.336 -0.7737  0.0796  4.0954
   83MOL0     H11436  12.106   4.362   8.647 -1.6611  1.2458  1.0924
   83MOL0     H11437  11.897   4.446   8.704  0.7576 -1.0679  1.4158
   83MOL0     H11438  10.518   3.957   9.097  0.2036 -2.5667  1.3064
   83MOL0     H11439  10.566   3.735   9.149 -0.6348 -2.8307 -0.3721
   83MOL0     H11440  10.604   3.373   9.215 -0.8743  0.6909 -1.6762
   83MOL0     H11441  10.645   3.170   9.354 -0.8140 -0.3987  0.4125
   83MOL0     H11442  10.662   2.951   9.461  0.4699  1.5203  1.1705
   83MOL0     H11443  10.484   2.990   9.452  1.2264  2.6429 -3.1338
   83MOL0     H11444  10.440   2.746   9.412  0.5339  0.5710 -0.8207
   83MOL0     H11445  10.491   2.797   9.573 -0.3594 -1.7677 -0.2569
   83MOL0     H11446  10.587   2.605   9.535  0.1457  1.0423  1.6431
   83MOL0     H11447  10.609   2.623   9.364  0.9891 -0.4020  0.8181
   83MOL0     H11448  10.778   2.774   9.571  0.1697 -0.0384 -1.1334
   83MOL0     H11449  10.812   2.746   9.406 -4.2713  3.1447 -1.2592
   83MOL0     H11450  10.859   2.335   9.556  0.4607  0.5868  0.7168
   83MOL0     H11451  10.434   2.950   9.051  0.8222 -0.2500 -1.8496
   83MOL0     H11452  10.318   3.214   8.856 -0.9619 -1.9438 -0.8155
   83MOL0     H11453  10.451   3.108   8.781  3.4689  1.2021  1.7887
   83MOL0     H11454  10.320   3.036   8.873  0.2929 -0.8519  2.3523
   84MOL0     O11455  11.080   3.756   4.398  0.6718  0.1783 -0.1608
   84MOL0     C11456  11.010   3.760   4.303  0.3164  0.9994  0.6372
   84MOL0     O11457  11.012   3.670   4.199 -0.1930 -0.6244 -0.4870
   84MOL0     C11458  11.071   3.542   4.190 -0.8038 -0.9675  0.5501
   84MOL0     C11459  11.163   3.488   4.284 -0.1253 -0.2429  0.0899
   84MOL0     C11460  11.228   3.373   4.262 -0.6005  0.5476 -0.2645
   84MOL0     C11461  11.194   3.288   4.149 -1.1615  0.1562 -0.5800
   84MOL0     O11462  11.253   3.164   4.120 -0.4009 -0.0769  0.3056
   84MOL0     C11463  11.365   3.181   4.039 -0.5342  0.7531  0.1858
   84MOL0     C11464  11.389   3.051   3.953  0.7193 -0.2496  0.1395
   84MOL0     C11465  11.490   3.068   3.836  0.8996 -0.5685 -0.3685
   84MOL0     C11466  11.526   2.930   3.772  0.0932  0.2969 -0.1233
   84MOL0     C11467  11.626   2.936   3.650 -0.4661 -0.1273  0.5653
   84MOL0     C11468  11.592   3.025   3.530  0.9502 -0.5718 -0.0624
   84MOL0     C11469  11.718   3.057   3.449  0.0111 -0.0642  0.3894
   84MOL0     C11470  11.686   3.144   3.331  0.2187 -0.4330 -0.0026
   84MOL0     N11471  11.654   3.287   3.370 -0.0926  0.3154 -0.0107
   84MOL0     C11472  11.744   3.377   3.413 -0.2365  0.1676 -0.1764
   84MOL0     C11473  11.667   3.480   3.456 -0.1122  0.6475  0.5354
   84MOL0     C11474  11.722   3.604   3.511 -0.7342 -1.0313 -0.4382
   84MOL0     C11475  11.669   3.633   3.652 -0.4996  0.2997 -0.8186
   84MOL0     C11476  11.647   3.789   3.675 -0.4654  0.5089  0.2267
   84MOL0     C11477  11.779   3.850   3.717 -0.2703 -0.1815 -0.5048
   84MOL0     O11478  11.823   3.815   3.850 -0.2666 -0.1883 -0.3041
   84MOL0     C11479  11.958   3.849   3.891  0.1529 -0.6078  0.0266
   84MOL0     C11480  12.068   3.896   3.812  0.3769  0.8984 -0.3199
   84MOL0     C11481  12.197   3.908   3.864  0.3256  0.4631 -0.4152
   84MOL0     C11482  12.301   3.971   3.776 -0.5020 -0.2089 -0.1092
   84MOL0     C11483  12.227   3.865   3.998  1.2677 -0.8486  0.3839
   84MOL0     C11484  12.357   3.884   4.069  0.6263 -0.4398  1.1590
   84MOL0     O11485  12.363   3.834   4.202 -0.5510 -0.1517 -0.5516
   84MOL0     C11486  12.485   3.803   4.264  1.1667 -0.6250  0.5444
   84MOL0     C11487  12.608   3.771   4.188  0.7504  0.6886 -0.9523
   84MOL0     C11488  12.718   3.736   4.263 -0.5852 -0.0489  0.6191
   84MOL0     C11489  12.718   3.731   4.406 -0.5145  0.1406  0.0826
   84MOL0     O11490  12.841   3.710   4.470  0.2154 -0.1401 -0.4300
   84MOL0     C11491  12.840   3.724   4.617  0.5105 -0.9956 -0.6414
   84MOL0     C11492  12.983   3.728   4.665 -0.8267  0.0084 -1.1522
   84MOL0     C11493  13.056   3.601   4.632 -0.1206  0.0452  1.0019
   84MOL0     C11494  13.205   3.603   4.607  0.0338  0.3459 -0.0350
   84MOL0     C11495  13.244   3.457   4.600  0.2077 -0.7517  0.3229
   84MOL0     C11496  13.373   3.435   4.526 -0.3868 -0.2964 -0.4298
   84MOL0     C11497  13.495   3.498   4.607 -0.3388  0.2652 -0.9339
   84MOL0     C11498  13.626   3.426   4.577  0.3237 -0.8968 -0.9530
   84MOL0    Cl11499  13.682   3.432   4.407  0.6041 -0.5482  0.0930
   84MOL0     C11500  12.601   3.763   4.476 -0.4317 -0.7156  0.9925
   84MOL0     C11501  12.485   3.803   4.410  0.2189  0.1818  0.3068
   84MOL0     O11502  12.453   3.942   4.009 -0.2405  0.1351 -0.1448
   84MOL0     C11503  12.114   3.811   4.074  1.2778 -0.1346 -0.4637
   84MOL0     C11504  11.984   3.800   4.021  0.5500  0.3428  0.4686
   84MOL0     N11505  11.536   3.449   3.434  0.6621 -0.3839 -0.5868
   84MOL0     N11506  11.524   3.336   3.373  0.6441  0.4147  0.1525
   84MOL0     C11507  11.104   3.343   4.057  0.8913 -0.2366  0.7474
   84MOL0     C11508  11.045   3.467   4.076 -0.1927 -0.1066 -0.1129
   84MOL0     C11509  10.920   3.870   4.283 -0.0643 -0.6234  0.4363
   84MOL0     C11510  10.797   3.849   4.224 -0.2236 -0.0241  0.2492
   84MOL0     C11511  10.699   3.947   4.202  1.0889  0.1914 -0.6594
   84MOL0     C11512  10.721   4.071   4.252 -0.6623  0.6568  0.2582
   84MOL0     O11513  10.634   4.172   4.231  0.1728  0.5078  0.0083
   84MOL0     C11514  10.650   4.236   4.106 -0.0719  0.0832 -0.4265
   84MOL0     C11515  10.526   4.320   4.072  0.1128 -0.0231  0.7419
   84MOL0     C11516  10.483   4.405   4.189 -0.8021 -0.4684 -0.1174
   84MOL0     C11517  10.596   4.505   4.233  1.1225 -0.5363  0.1370
   84MOL0     C11518  10.642   4.590   4.121  0.5048  0.1741  0.4538
   84MOL0     C11519  10.675   4.662   4.028 -0.0526  0.3997 -0.3643
   84MOL0     C11520  10.844   4.093   4.318  1.2147 -0.5238  0.5302
   84MOL0     C11521  10.946   3.996   4.329  0.9499  0.3638 -0.5132
   84MOL0     C11522  11.078   4.056   4.381  0.4018  0.2830  0.1600
   84MOL0     H11523  11.188   3.537   4.378 -0.5417  0.7788 -0.3265
   84MOL0     H11524  11.309   3.340   4.327 -0.1101  2.1916  0.0120
   84MOL0     H11525  11.445   3.217   4.104  1.1924  1.3893 -2.1700
   84MOL0     H11526  11.353   3.257   3.962  0.7372 -0.8245 -1.6746
   84MOL0     H11527  11.421   2.971   4.020  1.3704  0.2176  0.3948
   84MOL0     H11528  11.293   3.034   3.903  1.3913  4.4531 -3.4382
   84MOL0     H11529  11.450   3.144   3.769  3.4956  0.2031 -1.1328
   84MOL0     H11530  11.581   3.101   3.886 -1.1403  3.7959  0.9451
   84MOL0     H11531  11.560   2.868   3.855 -3.0407 -1.6478 -0.1478
   84MOL0     H11532  11.429   2.894   3.736 -0.2285  1.0065  0.0228
   84MOL0     H11533  11.644   2.834   3.615  2.1449  1.3088 -2.7918
   84MOL0     H11534  11.721   2.975   3.686 -0.4165 -0.6873  1.0657
   84MOL0     H11535  11.517   2.975   3.467 -0.6491  2.5112 -0.7869
   84MOL0     H11536  11.545   3.121   3.555  1.4506 -0.3239 -0.0701
   84MOL0     H11537  11.756   2.960   3.415  1.2446 -0.3275  2.3562
   84MOL0     H11538  11.798   3.102   3.508  0.4297  1.0538 -0.9818
   84MOL0     H11539  11.769   3.142   3.260  1.3238  0.7974  1.1710
   84MOL0     H11540  11.598   3.105   3.280 -1.8382  1.0380  2.1861
   84MOL0     H11541  11.852   3.384   3.420 -0.4657  4.4110  2.7665
   84MOL0     H11542  11.703   3.683   3.437  3.0080 -0.5793 -1.1593
   84MOL0     H11543  11.831   3.615   3.502 -0.9124  1.4429 -0.3433
   84MOL0     H11544  11.570   3.589   3.670  0.0179 -0.6006 -0.0996
   84MOL0     H11545  11.734   3.587   3.727 -0.0030 -0.7467 -1.8537
   84MOL0     H11546  11.605   3.832   3.583 -1.9193 -0.9641  0.1536
   84MOL0     H11547  11.573   3.807   3.754  1.7116  4.3003  1.6558
   84MOL0     H11548  11.857   3.835   3.642 -1.2213  0.6093 -1.6850
   84MOL0     H11549  11.771   3.958   3.704  0.8689 -0.3197 -2.8164
   84MOL0     H11550  12.048   3.928   3.710 -1.1450  2.2753  0.3624
   84MOL0     H11551  12.381   3.900   3.753  2.6754  0.9112  5.5771
   84MOL0     H11552  12.354   4.054   3.825  0.5156 -1.0068  0.1758
   84MOL0     H11553  12.248   4.004   3.686 -2.9840  2.4522  2.1029
   84MOL0     H11554  12.622   3.769   4.081 -0.5228 -2.3784 -1.1736
   84MOL0     H11555  12.817   3.721   4.222 -1.5967 -3.1308 -1.0263
   84MOL0     H11556  12.794   3.821   4.635  0.5892 -1.2072  0.7625
   84MOL0     H11557  12.783   3.645   4.665  1.4037 -0.0594  2.1084
   84MOL0     H11558  13.040   3.810   4.620  0.8035 -1.7236 -2.4228
   84MOL0     H11559  12.980   3.743   4.773 -1.6533  0.7961 -1.2728
   84MOL0     H11560  13.017   3.549   4.544  2.5127  0.8442 -0.7854
   84MOL0     H11561  13.038   3.530   4.713  2.6309  0.6746  2.2983
   84MOL0     H11562  13.256   3.647   4.693 -0.7129 -2.9308  2.3101
   84MOL0     H11563  13.228   3.644   4.509  1.4242  0.7731  0.4510
   84MOL0     H11564  13.247   3.410   4.699  0.3146 -0.6072  0.3889
   84MOL0     H11565  13.165   3.409   4.542 -1.2026  2.3200 -0.5363
   84MOL0     H11566  13.367   3.458   4.419 -3.0774 -1.9735 -0.7186
   84MOL0     H11567  13.393   3.328   4.517 -0.4512 -0.5338  1.8390
   84MOL0     H11568  13.477   3.477   4.713 -2.0960 -0.1048 -1.2706
   84MOL0     H11569  13.503   3.605   4.585 -1.5401  0.6387  0.2789
   84MOL0     H11570  13.622   3.324   4.617 -1.7290 -0.5492 -0.1336
   84MOL0     H11571  13.697   3.485   4.635  0.9953  0.3253 -2.9304
   84MOL0     H11572  12.599   3.754   4.584 -3.0357 -0.3769  1.0277
   84MOL0     H11573  12.390   3.819   4.459  1.0567 -1.4197  2.6582
   84MOL0     H11574  12.126   3.813   4.182 -3.2760  3.7914  0.3135
   84MOL0     H11575  11.898   3.770   4.080 -0.8091  3.8465  0.5282
   84MOL0     H11576  11.087   3.278   3.971  0.9084 -2.0098  2.0103
   84MOL0     H11577  10.978   3.510   4.003  1.4986  1.9043 -0.5662
   84MOL0     H11578  10.764   3.753   4.184  0.1736  0.1668 -0.5675
   84MOL0     H11579  10.608   3.909   4.156  1.1183 -1.7210  0.7273
   84MOL0     H11580  10.742   4.295   4.094 -1.0557  1.4763 -1.3886
   84MOL0     H11581  10.653   4.161   4.027 -3.4788 -0.0138 -0.6058
   84MOL0     H11582  10.449   4.246   4.046  1.7368 -1.2167 -0.9669
   84MOL0     H11583  10.543   4.375   3.979  1.4135 -3.2121 -1.0752
   84MOL0     H11584  10.389   4.458   4.171  0.2132  1.2116 -0.6896
   84MOL0     H11585  10.467   4.330   4.267 -1.3149  0.0584  0.2969
   84MOL0     H11586  10.684   4.451   4.271 -0.4819 -1.4086  2.8987
   84MOL0     H11587  10.555   4.563   4.316  2.3027 -1.9407  1.7759
   84MOL0     H11588  10.708   4.722   3.946 -0.4910 -0.2848 -1.0487
   84MOL0     H11589  10.854   4.194   4.355  4.2343  0.1153 -1.6646
   84MOL0     H11590  11.111   4.021   4.479 -0.9872 -0.2754  0.4452
   84MOL0     H11591  11.167   4.019   4.328  0.5061  0.1463  0.4280
   84MOL0     H11592  11.072   4.164   4.365 -1.1031  0.5443  2.1508
   85MOL0     O11593   1.352   1.878   6.670 -0.9269 -0.3681  0.0586
   85MOL0     C11594   1.378   1.824   6.779  0.0172  0.6871  0.3227
   85MOL0     O11595   1.492   1.829   6.847  0.1773  0.6701 -0.4338
   85MOL0     C11596   1.584   1.926   6.838  0.0899  0.0375  0.3396
   85MOL0     C11597   1.565   2.042   6.753 -0.3643  0.1549  0.3704
   85MOL0     C11598   1.672   2.139   6.756  0.4266  0.2070  1.2360
   85MOL0     C11599   1.796   2.121   6.816  0.1686  0.3692 -0.3465
   85MOL0     O11600   1.903   2.216   6.830 -0.2911 -0.5515 -0.1489
   85MOL0     C11601   1.886   2.353   6.787 -0.1764  0.5887  0.4034
   85MOL0     C11602   1.982   2.439   6.879 -0.3031 -0.9400 -0.0493
   85MOL0     C11603   1.955   2.590   6.859  0.4686  0.5052 -0.3976
   85MOL0     C11604   2.055   2.694   6.903 -0.0109  0.3096 -0.1841
   85MOL0     C11605   2.181   2.676   6.822 -1.0863 -0.1408 -0.2397
   85MOL0     C11606   2.304   2.774   6.850  0.2802  0.1535  0.0056
   85MOL0     C11607   2.276   2.921   6.829  0.1607  0.4880 -0.5532
   85MOL0     C11608   2.256   2.959   6.683 -0.4381 -0.1146  0.6784
   85MOL0     N11609   2.363   2.935   6.577 -0.3952 -0.8235 -0.0168
   85MOL0     C11610   2.386   3.024   6.476  0.4053  0.3544 -0.0421
   85MOL0     C11611   2.454   2.948   6.386 -0.1621  0.0426  0.1418
   85MOL0     C11612   2.491   2.992   6.241 -0.5391  0.4311  0.4220
   85MOL0     C11613   2.591   2.892   6.172  0.5765 -0.4803 -0.4245
   85MOL0     C11614   2.631   2.934   6.026  0.6625  0.2547  1.3787
   85MOL0     C11615   2.522   2.895   5.930  0.2619  0.4575 -0.0078
   85MOL0     O11616   2.541   2.916   5.787 -0.0136 -0.0247 -0.5917
   85MOL0     C11617   2.630   2.840   5.719  1.0413  0.4436 -0.1543
   85MOL0     C11618   2.659   2.712   5.754 -0.1061 -0.7677  0.0831
   85MOL0     C11619   2.746   2.636   5.680 -0.3242  0.6618 -0.7199
   85MOL0     C11620   2.765   2.495   5.732 -0.2815 -1.0666 -0.2343
   85MOL0     C11621   2.795   2.686   5.559 -0.2248 -0.3642 -1.0152
   85MOL0     C11622   2.879   2.612   5.466 -0.0643  0.9739  0.1820
   85MOL0     O11623   2.852   2.479   5.437  0.5140 -0.3737  0.4508
   85MOL0     C11624   2.921   2.406   5.342  0.0593 -0.4060 -0.0991
   85MOL0     C11625   2.840   2.307   5.285 -0.4744 -0.4975  0.5966
   85MOL0     C11626   2.894   2.216   5.199 -0.2402  1.0921  0.2906
   85MOL0     C11627   3.025   2.221   5.156 -0.0395  0.0187 -0.7699
   85MOL0     O11628   3.076   2.134   5.064 -0.8962 -0.0838  0.4906
   85MOL0     C11629   2.999   2.022   5.014 -0.7504 -0.6452 -0.8388
   85MOL0     C11630   3.093   1.936   4.937  0.0419  0.8584  0.0930
   85MOL0     C11631   3.198   2.011   4.861 -0.0539  0.1229  0.3657
   85MOL0     C11632   3.283   1.913   4.784  0.0406  0.5283  0.6616
   85MOL0     C11633   3.435   1.946   4.761  0.7661 -0.0674 -0.5308
   85MOL0     C11634   3.521   1.928   4.890 -0.0739 -0.1254 -0.5447
   85MOL0     C11635   3.667   1.978   4.871 -1.0082  0.5079 -0.1349
   85MOL0     C11636   3.769   1.938   4.982  0.1256  0.0463  0.7581
   85MOL0    Cl11637   3.938   1.936   4.923  0.6207 -0.2272 -0.1572
   85MOL0     C11638   3.110   2.320   5.212 -0.2642 -0.5589  0.3686
   85MOL0     C11639   3.059   2.418   5.300  0.4573  0.0008  1.1102
   85MOL0     O11640   2.968   2.672   5.412 -0.2811  1.0234 -0.3074
   85MOL0     C11641   2.753   2.822   5.522  0.0786 -0.0660  0.3541
   85MOL0     C11642   2.677   2.908   5.603  0.3155  0.5026 -0.4763
   85MOL0     N11643   2.456   2.825   6.423  0.3312  0.8905  0.1461
   85MOL0     N11644   2.416   2.821   6.545  0.7131  0.4114 -0.2259
   85MOL0     C11645   1.813   2.003   6.890  0.5613  0.1567 -0.0819
   85MOL0     C11646   1.709   1.909   6.899  0.1375  0.1530 -0.2872
   85MOL0     C11647   1.253   1.757   6.833 -0.4087  1.1737  0.7843
   85MOL0     C11648   1.145   1.754   6.743 -0.3250 -0.2231  0.6913
   85MOL0     C11649   1.033   1.674   6.771  0.3939  0.2910 -0.9619
   85MOL0     C11650   1.024   1.618   6.897  0.8995  0.5941 -0.0942
   85MOL0     O11651   0.924   1.530   6.941  0.3885 -0.6820 -0.5054
   85MOL0     C11652   0.793   1.547   6.886 -0.0334  0.4393 -0.2539
   85MOL0     C11653   0.695   1.452   6.950 -0.5421  0.0724  0.2441
   85MOL0     C11654   0.696   1.481   7.106 -0.0309  0.3454 -1.1301
   85MOL0     C11655   0.569   1.417   7.172 -0.5390 -0.7104 -0.6431
   85MOL0     C11656   0.589   1.279   7.171  0.2315 -0.2574  0.0034
   85MOL0     C11657   0.605   1.162   7.189 -0.6533  0.6510 -0.0212
   85MOL0     C11658   1.136   1.612   6.987  0.0108  0.0242 -0.0339
   85MOL0     C11659   1.249   1.683   6.948  0.1865 -0.2144 -0.4598
   85MOL0     C11660   1.371   1.672   7.043 -0.9175  0.3196 -0.0133
   85MOL0     H11661   1.470   2.062   6.705 -0.3035  2.3759  1.0488
   85MOL0     H11662   1.647   2.228   6.699 -2.4027 -3.2202 -3.6926
   85MOL0     H11663   1.782   2.386   6.797 -0.6828  1.4390 -4.9057
   85MOL0     H11664   1.916   2.366   6.682  0.1684  1.0033  0.5486
   85MOL0     H11665   1.968   2.422   6.986 -0.0725 -0.2160  0.1020
   85MOL0     H11666   2.085   2.417   6.853  0.3136  0.9743  0.6475
   85MOL0     H11667   1.950   2.604   6.750  0.9219  0.6590 -0.4015
   85MOL0     H11668   1.851   2.610   6.884  0.8385  0.6061  1.1227
   85MOL0     H11669   2.013   2.790   6.873  1.9243  1.4858  0.7098
   85MOL0     H11670   2.076   2.684   7.010 -1.9492 -5.2997 -0.0119
   85MOL0     H11671   2.139   2.677   6.721 -3.4805 -2.9794  0.5983
   85MOL0     H11672   2.221   2.575   6.833 -2.0996 -0.4078  1.1337
   85MOL0     H11673   2.329   2.754   6.955  1.3669 -1.6507 -0.5641
   85MOL0     H11674   2.391   2.747   6.789  0.6671  2.7920 -0.7319
   85MOL0     H11675   2.358   2.979   6.871 -0.1687  0.3602  0.2783
   85MOL0     H11676   2.185   2.946   6.884 -0.1167 -0.2773 -0.6415
   85MOL0     H11677   2.170   2.896   6.658 -0.6298 -0.3264  1.8119
   85MOL0     H11678   2.232   3.066   6.683 -1.8345 -0.3248  3.9058
   85MOL0     H11679   2.341   3.122   6.459 -0.4364 -0.3641 -2.3821
   85MOL0     H11680   2.537   3.091   6.251  0.8814  0.1234 -2.1883
   85MOL0     H11681   2.402   3.018   6.182  0.6559  5.0814  0.2454
   85MOL0     H11682   2.677   2.887   6.239 -1.2960 -1.4040  2.0962
   85MOL0     H11683   2.544   2.793   6.181  0.0343 -0.1027  1.1978
   85MOL0     H11684   2.662   3.039   6.026 -1.4437  0.9637 -0.4838
   85MOL0     H11685   2.718   2.870   6.009 -0.3271 -0.2860 -2.6572
   85MOL0     H11686   2.510   2.791   5.962  0.2992  1.7258  4.9794
   85MOL0     H11687   2.429   2.950   5.945  0.0108  0.2598 -0.8153
   85MOL0     H11688   2.619   2.663   5.843  1.2366 -0.0330  1.1372
   85MOL0     H11689   2.709   2.425   5.670 -0.8457 -0.6251 -0.2332
   85MOL0     H11690   2.750   2.489   5.840  1.0903  3.5893  0.4172
   85MOL0     H11691   2.873   2.481   5.728  0.4820  3.2710  0.4875
   85MOL0     H11692   2.734   2.293   5.304 -1.1512 -1.5168 -3.2201
   85MOL0     H11693   2.829   2.149   5.143 -0.4170  1.1407  0.4377
   85MOL0     H11694   2.972   1.961   5.100  0.0321  0.2073  0.0495
   85MOL0     H11695   2.914   2.051   4.952 -0.8705  1.2501  0.1414
   85MOL0     H11696   3.144   1.882   5.017  0.1616  2.9343  1.4842
   85MOL0     H11697   3.033   1.868   4.876  1.1314  2.0478 -2.4539
   85MOL0     H11698   3.257   2.074   4.928  1.5542 -2.5676  1.6826
   85MOL0     H11699   3.149   2.075   4.788 -0.1588  0.0018  0.3297
   85MOL0     H11700   3.250   1.898   4.681  2.4094 -1.1607  0.0495
   85MOL0     H11701   3.290   1.815   4.832  3.3965 -0.4349 -1.4309
   85MOL0     H11702   3.468   1.877   4.683 -2.7979 -0.1769 -2.1504
   85MOL0     H11703   3.444   2.051   4.734  1.3482  0.3401  1.1456
   85MOL0     H11704   3.524   1.821   4.913  0.7123 -0.0686 -0.3614
   85MOL0     H11705   3.473   1.989   4.968  2.6979  1.8835 -0.2559
   85MOL0     H11706   3.677   2.086   4.859  0.5259  0.6075  1.5838
   85MOL0     H11707   3.707   1.927   4.783 -0.1084  0.2503  0.4104
   85MOL0     H11708   3.738   1.837   5.009 -0.7932 -0.2226 -1.0941
   85MOL0     H11709   3.763   1.994   5.075  2.1532 -1.4955  1.8938
   85MOL0     H11710   3.218   2.317   5.204 -0.3370  0.9916 -2.9603
   85MOL0     H11711   3.113   2.506   5.334  2.6558 -2.1835  3.7391
   85MOL0     H11712   2.775   2.866   5.425 -1.2609 -2.4381 -1.1218
   85MOL0     H11713   2.647   3.011   5.591 -0.5402  0.2546 -0.5475
   85MOL0     H11714   1.915   1.992   6.926 -0.5938  0.7277  3.7767
   85MOL0     H11715   1.719   1.819   6.958 -4.0823  1.4605  2.9649
   85MOL0     H11716   1.143   1.820   6.657 -0.7623  0.9216  1.5584
   85MOL0     H11717   0.945   1.658   6.708  0.8788 -0.5033 -1.4607
   85MOL0     H11718   0.756   1.649   6.893 -2.4911 -0.4119  0.0859
   85MOL0     H11719   0.791   1.527   6.779 -0.7153  1.1866 -0.3834
   85MOL0     H11720   0.717   1.349   6.920 -0.0530  0.3883 -0.5353
   85MOL0     H11721   0.592   1.464   6.916 -1.2918 -1.3054  1.8875
   85MOL0     H11722   0.778   1.449   7.171 -1.8672  3.2865  3.1156
   85MOL0     H11723   0.688   1.590   7.117  0.3628  0.3522 -0.8646
   85MOL0     H11724   0.480   1.442   7.114  0.0722  0.5295 -1.1070
   85MOL0     H11725   0.562   1.446   7.278  1.3124 -0.7867 -0.4664
   85MOL0     H11726   0.614   1.058   7.210 -2.3513  0.3074 -0.8075
   85MOL0     H11727   1.117   1.559   7.080 -1.3129  2.8410  1.4339
   85MOL0     H11728   1.437   1.588   7.020 -0.0253  1.4838 -1.9959
   85MOL0     H11729   1.435   1.761   7.047 -0.5681  0.1186 -0.9088
   85MOL0     H11730   1.340   1.658   7.147  1.3025 -0.7088  0.5561
   86MOL0     O11731   3.483   9.563  11.349  0.3494 -0.4989 -0.0561
   86MOL0     C11732   3.426   9.578  11.245  0.1122 -0.1731  0.6997
   86MOL0     O11733   3.469   9.661  11.138 -0.7804 -0.7941  0.4958
   86MOL0     C11734   3.580   9.742  11.153 -0.6897 -0.3518  0.6409
   86MOL0     C11735   3.716   9.698  11.123  0.3746 -0.4596  0.2370
   86MOL0     C11736   3.821   9.786  11.132 -0.5708 -0.2839 -1.4714
   86MOL0     C11737   3.804   9.917  11.170 -0.2973  0.3542  0.5259
   86MOL0     O11738   3.911  10.007  11.156 -0.1960  0.1931  0.1419
   86MOL0     C11739   3.963  10.049  11.287 -0.0525  1.1146  0.4681
   86MOL0     C11740   4.006  10.195  11.292 -0.6844  0.0901 -0.2023
   86MOL0     C11741   4.146  10.220  11.226  0.2626  0.0484 -0.5118
   86MOL0     C11742   4.246  10.164  11.326 -0.1132 -0.3269 -0.3616
   86MOL0     C11743   4.387  10.206  11.283  0.1971  0.2235  0.7009
   86MOL0     C11744   4.480  10.160  11.392 -0.6845 -0.3088 -0.3208
   86MOL0     C11745   4.619  10.203  11.340 -0.7959 -0.0885 -0.3247
   86MOL0     C11746   4.725  10.163  11.449  0.2402 -0.4647  0.1845
   86MOL0     N11747   4.863  10.173  11.407 -0.7006 -0.2010 -0.7104
   86MOL0     C11748   4.945  10.270  11.457  0.6026  1.1155 -0.2034
   86MOL0     C11749   5.069  10.224  11.433  0.4784  0.6520 -0.4945
   86MOL0     C11750   5.182  10.309  11.450  0.8705 -0.3851  0.7513
   86MOL0     C11751   5.277  10.279  11.562  0.0125 -0.5099 -0.8039
   86MOL0     C11752   5.385  10.386  11.563  0.5003  0.6691  0.1733
   86MOL0     C11753   5.489  10.357  11.680 -0.1312 -0.7873  0.2671
   86MOL0     O11754   5.561  10.478  11.723 -0.1025  0.3673  0.9077
   86MOL0     C11755   5.696  10.478  11.693  0.2226 -0.4512 -0.2721
   86MOL0     C11756   5.738  10.451  11.558 -0.0385 -0.1038 -0.3389
   86MOL0     C11757   5.871  10.449  11.524 -0.2717  0.3370  0.0792
   86MOL0     C11758   5.901  10.418  11.374  0.1525  0.8595  0.7988
   86MOL0     C11759   5.970  10.471  11.627  1.0665 -0.1581  0.0821
   86MOL0     C11760   6.121  10.482  11.602 -0.5391  0.3060  1.0204
   86MOL0     O11761   6.190  10.538  11.702  0.3857 -0.5204  0.0395
   86MOL0     C11762   6.329  10.536  11.677  0.0302 -1.4196  0.3165
   86MOL0     C11763   6.402  10.421  11.663  0.2222  0.6176 -0.1253
   86MOL0     C11764   6.545  10.411  11.662  0.5072  0.2116  0.4079
   86MOL0     C11765   6.618  10.528  11.660 -0.5047 -0.6648  0.3628
   86MOL0     O11766   6.754  10.534  11.678 -0.5370 -0.4497  0.4868
   86MOL0     C11767   6.830  10.420  11.625  0.0164  0.0435 -0.3734
   86MOL0     C11768   6.979  10.449  11.607 -0.7181  0.1971 -0.1930
   86MOL0     C11769   7.025  10.562  11.510 -1.0921 -0.3948  0.2406
   86MOL0     C11770   7.183  10.597  11.524  0.9795  0.4842 -0.7104
   86MOL0     C11771   7.245  10.635  11.390 -0.0452  0.8255 -0.1070
   86MOL0     C11772   7.365  10.744  11.404  0.4283  0.3567  0.0678
   86MOL0     C11773   7.403  10.795  11.265  0.1040  0.1506 -0.3575
   86MOL0     C11774   7.502  10.699  11.206 -0.3516 -0.1321 -0.4795
   86MOL0    Cl11775   7.659  10.681  11.292  0.5771 -0.2996  0.2725
   86MOL0     C11776   6.545  10.654  11.663 -0.0555  0.2971 -0.6416
   86MOL0     C11777   6.409  10.658  11.683 -0.1896 -0.5619  0.3872
   86MOL0     O11778   6.166  10.446  11.497 -0.3406  0.0542 -0.2586
   86MOL0     C11779   5.924  10.512  11.755 -0.2313  0.2557  0.0439
   86MOL0     C11780   5.789  10.510  11.787  0.0563 -0.3377  0.6856
   86MOL0     N11781   5.061  10.101  11.371 -0.0973 -0.2261  0.1207
   86MOL0     N11782   4.933  10.067  11.352 -1.0836 -0.8954  0.2572
   86MOL0     C11783   3.673   9.962  11.204  0.1210 -0.0956 -0.1985
   86MOL0     C11784   3.560   9.879  11.182 -0.0579 -0.3683  0.3385
   86MOL0     C11785   3.291   9.517  11.231  0.4403  0.1313  0.0482
   86MOL0     C11786   3.201   9.590  11.147  0.9947 -0.1611  0.5713
   86MOL0     C11787   3.072   9.541  11.135  0.2822  0.1167 -0.2624
   86MOL0     C11788   3.025   9.423  11.206  0.4389 -0.1531  0.2747
   86MOL0     O11789   2.892   9.382  11.193  0.5878 -0.1995 -0.1040
   86MOL0     C11790   2.799   9.447  11.281 -0.2766  0.2184 -0.4004
   86MOL0     C11791   2.745   9.348  11.383  0.0263  0.3648  0.8090
   86MOL0     C11792   2.637   9.397  11.463 -0.4557  0.1858 -0.3283
   86MOL0     C11793   2.572   9.269  11.539  1.3561  0.1846 -0.2254
   86MOL0     C11794   2.494   9.316  11.659 -0.7464 -0.5685  0.0300
   86MOL0     C11795   2.420   9.365  11.737  0.4924 -0.0284  0.3669
   86MOL0     C11796   3.116   9.368  11.300 -0.6047  0.3194 -0.0685
   86MOL0     C11797   3.247   9.408  11.301 -1.0634 -0.0075 -0.6575
   86MOL0     C11798   3.344   9.329  11.393  0.5179  0.6097 -0.2945
   86MOL0     H11799   3.743   9.597  11.094  2.0028 -0.3131  1.1074
   86MOL0     H11800   3.920   9.751  11.106 -0.4939 -2.4043  1.2555
   86MOL0     H11801   4.038   9.973  11.312 -2.7900 -1.5970  1.1225
   86MOL0     H11802   3.886  10.040  11.364 -0.8866  1.2032 -0.3492
   86MOL0     H11803   3.942  10.264  11.236  1.8121  0.7097 -2.5193
   86MOL0     H11804   4.009  10.226  11.397  0.8355 -1.1335  0.1397
   86MOL0     H11805   4.158  10.193  11.121  2.1090  1.9020 -0.8469
   86MOL0     H11806   4.155  10.328  11.238 -1.6640  0.3055 -1.0432
   86MOL0     H11807   4.224  10.196  11.428 -0.5603 -1.5146 -0.0661
   86MOL0     H11808   4.247  10.055  11.333  2.8025 -0.4155 -1.1539
   86MOL0     H11809   4.381  10.313  11.261 -3.9698  0.4030  1.8445
   86MOL0     H11810   4.407  10.156  11.188 -0.3657 -2.1570  1.7778
   86MOL0     H11811   4.456  10.201  11.490 -0.1977 -0.3208 -0.1945
   86MOL0     H11812   4.494  10.052  11.403 -0.5282 -0.4669 -1.8695
   86MOL0     H11813   4.618  10.312  11.329  0.4052  0.3756  2.8988
   86MOL0     H11814   4.641  10.153  11.245  4.4160  1.0300 -0.0072
   86MOL0     H11815   4.705  10.233  11.531  1.3081 -1.2572  1.1499
   86MOL0     H11816   4.702  10.063  11.487  1.3836 -0.6809  0.3433
   86MOL0     H11817   4.918  10.365  11.504 -0.7194  0.2930  0.7724
   86MOL0     H11818   5.138  10.404  11.480  1.3319 -0.1185  0.5941
   86MOL0     H11819   5.228  10.334  11.354  0.9015  1.4379  1.2038
   86MOL0     H11820   5.229  10.272  11.660  1.2923 -2.0901 -0.2607
   86MOL0     H11821   5.328  10.183  11.561 -0.0149 -0.5257 -0.7385
   86MOL0     H11822   5.441  10.383  11.469  1.3901 -2.5818  0.6668
   86MOL0     H11823   5.346  10.487  11.573  1.2934  0.9291  0.7975
   86MOL0     H11824   5.435  10.321  11.768  1.1097 -0.3976  1.2150
   86MOL0     H11825   5.550  10.271  11.652 -2.4419 -1.7200 -2.3314
   86MOL0     H11826   5.663  10.446  11.480 -2.0578  3.5665  1.0952
   86MOL0     H11827   5.961  10.495  11.324 -0.9363  1.5805  0.5707
   86MOL0     H11828   5.814  10.391  11.313 -0.2840  3.9029 -0.1193
   86MOL0     H11829   5.961  10.326  11.380 -1.5113 -0.2079  1.5531
   86MOL0     H11830   6.359  10.322  11.654  0.9273  0.0363  2.2763
   86MOL0     H11831   6.581  10.309  11.652  0.2271  0.0559  0.9567
   86MOL0     H11832   6.819  10.334  11.692 -1.1869  1.4607  1.3392
   86MOL0     H11833   6.795  10.388  11.526  0.1823  0.2212 -0.4883
   86MOL0     H11834   7.007  10.475  11.710 -1.3731 -3.3718  1.0412
   86MOL0     H11835   7.042  10.363  11.582  0.4307  0.5167  1.4494
   86MOL0     H11836   6.978  10.658  11.533  0.9208  0.5462  0.6410
   86MOL0     H11837   7.006  10.522  11.410  0.4272  0.0114 -0.2389
   86MOL0     H11838   7.237  10.505  11.549 -1.9260 -1.1406  0.0407
   86MOL0     H11839   7.197  10.669  11.605  0.1526  1.3154 -1.2791
   86MOL0     H11840   7.282  10.540  11.349  2.7106  1.8362 -0.1886
   86MOL0     H11841   7.167  10.681  11.328 -1.6079  0.9911  1.8739
   86MOL0     H11842   7.455  10.699  11.446 -0.4647 -1.6074 -0.0440
   86MOL0     H11843   7.328  10.829  11.463 -1.7590  0.7514 -1.7356
   86MOL0     H11844   7.441  10.897  11.276  0.3662  0.1834 -1.5151
   86MOL0     H11845   7.313  10.795  11.203  0.1722  2.2916 -0.5304
   86MOL0     H11846   7.524  10.748  11.110 -0.2474 -1.1000 -0.9549
   86MOL0     H11847   7.443  10.609  11.186 -0.8421  0.5207 -2.1705
   86MOL0     H11848   6.598  10.749  11.669  0.5945  0.0324 -1.8668
   86MOL0     H11849   6.361  10.754  11.697 -0.3366  0.1429 -3.6637
   86MOL0     H11850   5.996  10.533  11.833  0.8257  0.8631 -1.0488
   86MOL0     H11851   5.756  10.528  11.889 -3.2239  0.3670 -0.3794
   86MOL0     H11852   3.650  10.063  11.235  2.8877  0.6200 -0.2399
   86MOL0     H11853   3.457   9.912  11.179  0.2456  0.5428 -0.4794
   86MOL0     H11854   3.226   9.682  11.094 -2.5386 -0.4606 -1.9859
   86MOL0     H11855   3.000   9.582  11.065  0.2285 -0.4783 -0.5577
   86MOL0     H11856   2.853   9.531  11.325  2.2665 -0.7814 -1.4175
   86MOL0     H11857   2.719   9.491  11.221 -3.2268 -1.8002  1.7300
   86MOL0     H11858   2.828   9.318  11.449  1.2849 -0.0724 -0.9104
   86MOL0     H11859   2.705   9.263  11.327  0.4173 -0.2135  1.3802
   86MOL0     H11860   2.669   9.478  11.529 -2.6463  0.3143  0.6823
   86MOL0     H11861   2.560   9.438  11.396 -0.2097 -0.9697 -1.3343
   86MOL0     H11862   2.655   9.201  11.560  1.4207  0.0970 -0.7464
   86MOL0     H11863   2.513   9.214  11.465 -0.1653  0.2790  0.8638
   86MOL0     H11864   2.339   9.406  11.793 -1.1629  1.7041 -2.9604
   86MOL0     H11865   3.094   9.275  11.352 -1.5666 -0.4235 -1.7057
   86MOL0     H11866   3.380   9.396  11.472  2.3989 -0.2531 -0.3631
   86MOL0     H11867   3.295   9.244  11.440 -1.4956 -0.1135 -3.3942
   86MOL0     H11868   3.431   9.296  11.335 -0.0040  1.8089 -1.8323
   87MOL0     O11869   6.890   6.993  10.340 -0.6613  0.2749 -0.8896
   87MOL0     C11870   6.896   6.949  10.230  0.6422  0.2659  1.0813
   87MOL0     O11871   6.984   6.987  10.129  0.0777 -0.5267  0.0165
   87MOL0     C11872   7.079   7.088  10.148  0.2588  0.3172  0.2133
   87MOL0     C11873   7.134   7.125  10.269  0.0453  0.0198  0.6771
   87MOL0     C11874   7.232   7.217  10.261  0.7490 -0.4699 -0.7554
   87MOL0     C11875   7.266   7.290  10.137 -0.3726  0.3041 -0.5118
   87MOL0     O11876   7.350   7.397  10.132  0.1663  0.1394 -0.0280
   87MOL0     C11877   7.448   7.394  10.240 -0.4018 -0.0761 -0.6037
   87MOL0     C11878   7.565   7.499  10.193 -0.7726  1.2081 -0.2021
   87MOL0     C11879   7.674   7.504  10.300 -0.2429  0.3099  0.2189
   87MOL0     C11880   7.768   7.622  10.275  0.2018 -0.1609 -0.2685
   87MOL0     C11881   7.851   7.655  10.400  0.6471 -0.6743 -0.8844
   87MOL0     C11882   7.982   7.740  10.365 -0.0260 -0.1540  0.7452
   87MOL0     C11883   8.074   7.766  10.491 -0.7041  0.3445 -0.6014
   87MOL0     C11884   8.137   7.636  10.548  0.3645 -0.2071 -0.1744
   87MOL0     N11885   8.199   7.647  10.675 -0.1291 -0.3599 -0.5243
   87MOL0     C11886   8.308   7.577  10.728 -0.1674 -0.1916  0.5686
   87MOL0     C11887   8.347   7.650  10.828  0.0272  0.0349 -0.0141
   87MOL0     C11888   8.444   7.598  10.932 -0.4567 -0.2286 -0.4552
   87MOL0     C11889   8.583   7.651  10.910 -0.0426 -0.9446  0.2553
   87MOL0     C11890   8.685   7.575  10.998  0.0232  0.0776 -0.0329
   87MOL0     C11891   8.791   7.668  11.062  0.5125 -0.1218 -0.0916
   87MOL0     O11892   8.869   7.739  10.963  0.5152  0.3870 -0.2038
   87MOL0     C11893   8.985   7.802  11.000  0.0294 -0.0151 -0.3919
   87MOL0     C11894   9.053   7.790  11.118  0.6293  0.3628 -0.0470
   87MOL0     C11895   9.176   7.853  11.144  0.1625  0.5475 -0.1501
   87MOL0     C11896   9.239   7.827  11.275 -0.1045  0.0820 -0.0423
   87MOL0     C11897   9.240   7.924  11.035 -0.5999 -0.3717  0.2081
   87MOL0     C11898   9.374   8.003  11.049 -0.3572  0.4074 -0.2630
   87MOL0     O11899   9.404   8.072  10.934  0.3784  0.8579 -0.2639
   87MOL0     C11900   9.524   8.134  10.904 -0.1283 -0.2311 -0.3513
   87MOL0     C11901   9.644   8.095  10.961  0.0260 -0.4576  0.2549
   87MOL0     C11902   9.767   8.134  10.914 -0.0954 -0.6771  0.1013
   87MOL0     C11903   9.764   8.237  10.817  0.3098  0.2077  0.6238
   87MOL0     O11904   9.879   8.283  10.758 -0.1319 -0.1002  0.6580
   87MOL0     C11905   9.974   8.186  10.721 -0.9547 -0.1628  0.3972
   87MOL0     C11906  10.049   8.212  10.585  0.5714  0.1210  0.6225
   87MOL0     C11907  10.138   8.089  10.559  0.9849  0.5058  0.8385
   87MOL0     C11908  10.179   8.083  10.412 -0.2204 -0.2700 -0.2779
   87MOL0     C11909  10.255   7.962  10.362  0.6694  0.4255  0.3744
   87MOL0     C11910  10.357   7.910  10.465 -0.6221  0.7669  0.6762
   87MOL0     C11911  10.450   7.804  10.406 -0.1589 -0.3533 -0.0015
   87MOL0     C11912  10.382   7.681  10.363 -0.1574 -0.5524 -0.7089
   87MOL0    Cl11913  10.486   7.615  10.231 -0.2429  0.2713  0.7917
   87MOL0     C11914   9.642   8.277  10.758  0.4436 -0.6603 -0.0814
   87MOL0     C11915   9.524   8.224  10.797  0.2343 -0.1210 -0.8990
   87MOL0     O11916   9.440   7.996  11.154  0.0996 -1.0884 -0.0899
   87MOL0     C11917   9.172   7.923  10.910 -0.9584  0.0124 -0.8521
   87MOL0     C11918   9.044   7.868  10.895  0.0796  0.2547  0.0822
   87MOL0     N11919   8.261   7.748  10.849 -0.4250 -0.3260 -0.3802
   87MOL0     N11920   8.175   7.749  10.758 -0.2299  0.2335  0.9706
   87MOL0     C11921   7.210   7.245  10.023  0.1473  0.2841  0.6780
   87MOL0     C11922   7.119   7.140  10.024 -1.0338  0.2478 -0.1552
   87MOL0     C11923   6.769   6.870  10.188  0.1434  0.7295 -0.3157
   87MOL0     C11924   6.693   6.806  10.286 -0.6582  0.6514  1.2876
   87MOL0     C11925   6.570   6.748  10.241  0.1931  1.0552 -0.0233
   87MOL0     C11926   6.535   6.716  10.117  0.1197 -0.0815 -0.2679
   87MOL0     O11927   6.425   6.635  10.095  0.8789  0.1343 -0.1888
   87MOL0     C11928   6.447   6.561   9.976  0.4994  1.1435  0.9852
   87MOL0     C11929   6.390   6.422   9.986 -0.5863  0.6544 -0.3476
   87MOL0     C11930   6.244   6.400  10.037  0.6270 -0.8339  0.0064
   87MOL0     C11931   6.204   6.254  10.046 -0.5910  0.1706 -0.2392
   87MOL0     C11932   6.056   6.235  10.071 -0.2031 -0.1015 -0.6580
   87MOL0     C11933   5.940   6.211  10.075  0.7315 -0.3775 -0.5677
   87MOL0     C11934   6.612   6.777  10.015 -0.2447 -0.1799 -0.4856
   87MOL0     C11935   6.724   6.856  10.049  0.4234  0.4651 -0.1994
   87MOL0     C11936   6.786   6.935   9.938 -0.5575 -0.0715  0.7208
   87MOL0     H11937   7.109   7.088  10.368  1.6530 -0.7559  0.8372
   87MOL0     H11938   7.271   7.247  10.357 -0.7444 -1.1002  0.0701
   87MOL0     H11939   7.492   7.296  10.263  0.1134  0.6343  1.6969
   87MOL0     H11940   7.406   7.434  10.333 -1.4233 -0.5368 -0.8463
   87MOL0     H11941   7.617   7.458  10.106  1.3998  0.6745  1.2428
   87MOL0     H11942   7.513   7.592  10.169 -0.0479  1.8023  0.4779
   87MOL0     H11943   7.621   7.528  10.393 -0.8351  0.1138 -0.0637
   87MOL0     H11944   7.725   7.408  10.289 -0.9129  0.0299 -0.5568
   87MOL0     H11945   7.830   7.586  10.193 -0.7535 -2.0348 -0.2245
   87MOL0     H11946   7.714   7.710  10.238 -1.5963 -1.5375 -1.0440
   87MOL0     H11947   7.877   7.560  10.449  2.7838  0.8399  1.1070
   87MOL0     H11948   7.790   7.717  10.466  3.5735  3.5938 -1.7643
   87MOL0     H11949   8.043   7.680  10.298  2.8273  3.1942  0.0103
   87MOL0     H11950   7.960   7.831  10.308  2.1622 -0.4480 -0.6605
   87MOL0     H11951   8.018   7.817  10.569 -0.5525 -0.7332  0.2373
   87MOL0     H11952   8.153   7.833  10.457 -1.1716 -0.3101 -3.2061
   87MOL0     H11953   8.064   7.555  10.553  0.8920 -0.7559 -1.0437
   87MOL0     H11954   8.212   7.602  10.475 -1.4199 -1.2604 -1.5988
   87MOL0     H11955   8.359   7.492  10.683  1.7126  1.0017  0.3457
   87MOL0     H11956   8.445   7.488  10.938  1.8412 -0.2307 -0.1270
   87MOL0     H11957   8.399   7.622  11.029 -0.0652  2.0910 -0.7947
   87MOL0     H11958   8.621   7.651  10.808  0.8738 -0.0233  0.5749
   87MOL0     H11959   8.577   7.759  10.927 -1.7532 -1.1781  1.3259
   87MOL0     H11960   8.626   7.521  11.073 -0.5166 -1.0872 -1.2673
   87MOL0     H11961   8.738   7.509  10.930  2.5613  3.9713 -2.2008
   87MOL0     H11962   8.746   7.753  11.114 -0.0946 -0.9525  0.7900
   87MOL0     H11963   8.859   7.616  11.130  0.5248  1.7992  1.4571
   87MOL0     H11964   9.012   7.735  11.202 -1.4642  1.3198 -0.3943
   87MOL0     H11965   9.337   7.782  11.255 -0.0983  1.0423 -2.4939
   87MOL0     H11966   9.177   7.768  11.343  2.2269 -0.3683  1.8207
   87MOL0     H11967   9.249   7.923  11.328  0.5800 -0.6607  1.2312
   87MOL0     H11968   9.651   8.037  11.052  0.1739  0.7453  1.0377
   87MOL0     H11969   9.865   8.114  10.954  0.8997  3.8849  0.3702
   87MOL0     H11970  10.049   8.170  10.799 -0.4634  0.9705  0.1717
   87MOL0     H11971   9.927   8.089  10.698  0.7968 -1.0055  0.2024
   87MOL0     H11972   9.972   8.209  10.507  1.7969 -0.0090 -0.6383
   87MOL0     H11973  10.119   8.296  10.585  1.1679 -0.3485  1.7742
   87MOL0     H11974  10.092   7.992  10.578 -1.1182  0.7925 -2.0513
   87MOL0     H11975  10.226   8.085  10.623 -0.1468  0.4293  2.4657
   87MOL0     H11976  10.233   8.176  10.392  2.4841 -1.9865 -1.5164
   87MOL0     H11977  10.085   8.084  10.356 -0.9671 -2.1861  0.8464
   87MOL0     H11978  10.181   7.884  10.341 -0.0918  1.3429 -0.4971
   87MOL0     H11979  10.307   7.987  10.270  1.7808  2.0816  1.3983
   87MOL0     H11980  10.304   7.863  10.549  0.8026 -0.9761  0.6447
   87MOL0     H11981  10.426   7.989  10.494 -1.8802  3.0554 -2.0404
   87MOL0     H11982  10.519   7.767  10.482  0.4683  0.6786 -0.0515
   87MOL0     H11983  10.501   7.844  10.318 -1.4278 -1.6642 -1.4065
   87MOL0     H11984  10.285   7.699  10.315 -0.9390 -1.1143  0.6153
   87MOL0     H11985  10.377   7.606  10.442  0.7402  0.3832  0.2618
   87MOL0     H11986   9.650   8.346  10.674 -0.3157 -3.1215 -2.3211
   87MOL0     H11987   9.433   8.239  10.740 -0.3183 -0.1269 -0.0417
   87MOL0     H11988   9.213   7.969  10.821  1.6154 -0.9807 -0.2598
   87MOL0     H11989   9.002   7.859  10.796  1.4780  0.8279 -0.5897
   87MOL0     H11990   7.230   7.298   9.930  1.7799  1.1400  1.4771
   87MOL0     H11991   7.072   7.108   9.932  1.1849  0.0855 -1.3020
   87MOL0     H11992   6.726   6.815  10.389  2.2634 -0.5381  0.5686
   87MOL0     H11993   6.507   6.711  10.322  0.3019  1.4562  0.2528
   87MOL0     H11994   6.408   6.611   9.887  2.5949 -0.9809 -1.2601
   87MOL0     H11995   6.552   6.547   9.950  0.3277  1.3970  0.1454
   87MOL0     H11996   6.459   6.366  10.049  2.0264  3.0676 -0.8533
   87MOL0     H11997   6.401   6.377   9.887  2.1902 -0.7125  0.4932
   87MOL0     H11998   6.229   6.442  10.137 -0.3000 -0.0808 -0.4379
   87MOL0     H11999   6.179   6.465   9.977 -0.2561  1.0595  2.8277
   87MOL0     H12000   6.266   6.207  10.122  1.3183  2.2503 -0.4048
   87MOL0     H12001   6.231   6.207   9.951 -0.7721  2.2224 -1.3626
   87MOL0     H12002   5.834   6.197  10.078  0.8424 -1.0925  1.6770
   87MOL0     H12003   6.592   6.771   9.908  0.1287 -0.1588 -0.5579
   87MOL0     H12004   6.889   6.907   9.916 -0.0355  1.1448  1.4640
   87MOL0     H12005   6.725   6.917   9.849 -3.9624  2.4367  2.3140
   87MOL0     H12006   6.784   7.042   9.962 -4.5509 -0.1273  1.3516
   88MOL0     O12007   0.002   1.010   9.896 -0.0827  0.4871 -0.3366
   88MOL0     C12008   0.111   1.045   9.859  0.0987 -0.1880  0.7977
   88MOL0     O12009   0.135   1.087   9.735 -0.6479 -0.1252  0.4206
   88MOL0     C12010   0.038   1.101   9.642  0.7712 -0.5949 -0.4757
   88MOL0     C12011  -0.022   0.993   9.578  0.5454  0.0955 -0.7896
   88MOL0     C12012  -0.115   1.008   9.476  0.6835 -0.1649  0.0912
   88MOL0     C12013  -0.173   1.132   9.448 -0.3177 -0.6174  0.2514
   88MOL0     O12014  -0.260   1.151   9.346  0.1296 -0.0205 -0.0397
   88MOL0     C12015  -0.338   1.043   9.288 -0.0194 -0.5707 -0.7530
   88MOL0     C12016  -0.439   1.091   9.188 -0.4301  0.5269 -0.1637
   88MOL0     C12017  -0.374   1.186   9.083  0.6987 -0.5905 -0.9447
   88MOL0     C12018  -0.451   1.191   8.950  0.3199  0.6788 -0.0712
   88MOL0     C12019  -0.400   1.312   8.860  0.1513  0.4764 -0.5682
   88MOL0     C12020  -0.334   1.264   8.730 -0.0373 -0.3199 -0.7803
   88MOL0     C12021  -0.277   1.379   8.654  0.0897 -0.4891  0.7830
   88MOL0     C12022  -0.173   1.333   8.552 -0.9243  0.0862 -0.2594
   88MOL0     N12023  -0.210   1.326   8.406 -0.2124 -0.4474  0.0486
   88MOL0     C12024  -0.153   1.399   8.305  0.2515 -0.3016 -0.4070
   88MOL0     C12025  -0.226   1.363   8.197  0.4011 -0.8308 -0.7652
   88MOL0     C12026  -0.217   1.436   8.068 -0.4373  0.0249  0.5181
   88MOL0     C12027  -0.333   1.529   8.026 -0.1495 -0.3422 -0.4792
   88MOL0     C12028  -0.293   1.608   7.910  0.3551 -0.8862  0.9714
   88MOL0     C12029  -0.422   1.639   7.827 -0.6237 -0.1330 -0.2290
   88MOL0     O12030  -0.520   1.712   7.906 -0.3971 -0.0556  0.8596
   88MOL0     C12031  -0.506   1.847   7.936  0.9993 -0.0425  0.3662
   88MOL0     C12032  -0.600   1.900   8.021  0.0103  0.8436 -0.4594
   88MOL0     C12033  -0.613   2.028   8.066  0.6440  0.2738 -0.1070
   88MOL0     C12034  -0.717   2.067   8.171  0.5724  0.9359  0.8929
   88MOL0     C12035  -0.533   2.124   8.002  0.1974  0.1908 -0.1240
   88MOL0     C12036  -0.525   2.278   8.035  0.1832  0.5588  0.0187
   88MOL0     O12037  -0.412   2.347   7.994  0.5214 -0.1690 -0.3171
   88MOL0     C12038  -0.390   2.464   8.065 -0.0296  1.0318 -0.7658
   88MOL0     C12039  -0.480   2.578   8.066 -0.0892 -0.2801  0.0586
   88MOL0     C12040  -0.443   2.705   8.124 -0.5812  0.9054  0.3499
   88MOL0     C12041  -0.331   2.707   8.209 -0.5646  0.3937 -0.0739
   88MOL0     O12042  -0.272   2.817   8.277  0.2725 -0.1734  0.5217
   88MOL0     C12043  -0.250   2.930   8.189 -0.6996 -0.4226 -0.8966
   88MOL0     C12044  -0.145   2.884   8.082 -0.0714  1.0024 -0.3788
   88MOL0     C12045  -0.071   2.999   8.019  0.7541  0.2162  0.6992
   88MOL0     C12046   0.051   2.962   7.926  0.6100 -0.3609  0.3940
   88MOL0     C12047   0.142   3.085   7.908  0.8579  0.4341  0.1955
   88MOL0     C12048   0.273   3.038   7.859 -0.7247 -0.9238 -0.1159
   88MOL0     C12049   0.355   3.159   7.822 -0.2837 -0.0861  0.2311
   88MOL0     C12050   0.495   3.108   7.796  0.2519  0.3649  1.1548
   88MOL0    Cl12051   0.507   2.986   7.668  0.2411  0.3360  0.2102
   88MOL0     C12052  -0.253   2.585   8.226 -0.3658  0.7505  0.3329
   88MOL0     C12053  -0.271   2.473   8.144 -0.3695 -0.7268  0.6120
   88MOL0     O12054  -0.613   2.328   8.098 -0.7660  1.0937  0.1673
   88MOL0     C12055  -0.433   2.076   7.914  0.8194 -0.9653 -0.2322
   88MOL0     C12056  -0.418   1.941   7.879  0.3709  0.0845 -1.1568
   88MOL0     N12057  -0.317   1.265   8.225  0.3016 -0.5985 -1.4230
   88MOL0     N12058  -0.297   1.245   8.356 -0.0351  0.4946  0.6721
   88MOL0     C12059  -0.117   1.241   9.509  0.0729 -0.3881 -0.3349
   88MOL0     C12060  -0.015   1.224   9.606 -0.0789  0.0946  0.0170
   88MOL0     C12061   0.224   1.054   9.962  0.6180 -0.4014  0.1354
   88MOL0     C12062   0.205   1.003  10.088  0.0963 -0.4532 -0.1662
   88MOL0     C12063   0.298   0.999  10.192 -0.1030  1.0983  0.0403
   88MOL0     C12064   0.434   1.045  10.169  0.5297  0.3946  0.8741
   88MOL0     O12065   0.544   1.051  10.250 -0.3323  0.7432  0.0307
   88MOL0     C12066   0.526   1.017  10.385  0.1425  0.2273 -0.5109
   88MOL0     C12067   0.581   0.882  10.413 -0.4792 -0.2614  0.5636
   88MOL0     C12068   0.738   0.885  10.382 -0.1372 -0.2693 -0.8716
   88MOL0     C12069   0.788   0.743  10.420 -0.4485 -0.4532  0.0963
   88MOL0     C12070   0.925   0.732  10.374  0.3725 -0.0204 -0.3397
   88MOL0     C12071   1.044   0.716  10.376  0.2338  0.0226 -0.5664
   88MOL0     C12072   0.459   1.096  10.044  0.5415  0.0011  0.5271
   88MOL0     C12073   0.358   1.098   9.944  0.2371 -1.0096  0.0970
   88MOL0     C12074   0.419   1.146   9.807  0.8481  0.1380 -0.5179
   88MOL0     H12075  -0.006   0.892   9.615 -0.2204  0.0655 -0.5105
   88MOL0     H12076  -0.165   0.916   9.445 -0.4620 -0.0961  1.6240
   88MOL0     H12077  -0.390   0.981   9.361 -1.9469  0.8181 -0.8547
   88MOL0     H12078  -0.267   0.982   9.231 -0.6039 -3.2286  1.1988
   88MOL0     H12079  -0.478   1.004   9.135 -1.0297 -0.0935  1.2505
   88MOL0     H12080  -0.529   1.128   9.239  0.2856 -0.4908  1.9343
   88MOL0     H12081  -0.352   1.285   9.124  1.8691 -0.1123 -2.5968
   88MOL0     H12082  -0.284   1.137   9.043  0.1172 -1.3390 -1.3557
   88MOL0     H12083  -0.446   1.096   8.897 -0.0922  0.0929  0.9040
   88MOL0     H12084  -0.557   1.216   8.958  0.1224  0.0465 -0.6616
   88MOL0     H12085  -0.323   1.370   8.912  1.1105  1.2854 -2.7939
   88MOL0     H12086  -0.478   1.386   8.840 -1.0118 -0.5102  0.1554
   88MOL0     H12087  -0.264   1.184   8.755 -1.6376 -2.1477 -1.8152
   88MOL0     H12088  -0.411   1.217   8.667  0.2475  1.4064 -2.4736
   88MOL0     H12089  -0.235   1.451   8.725  1.7002  0.7513 -1.3221
   88MOL0     H12090  -0.357   1.428   8.596 -0.2002 -2.7155 -0.8174
   88MOL0     H12091  -0.082   1.392   8.566  0.2399 -1.9847  1.6283
   88MOL0     H12092  -0.144   1.230   8.573 -0.7999 -0.0452 -1.0455
   88MOL0     H12093  -0.084   1.481   8.315 -1.6702  1.2606  0.7226
   88MOL0     H12094  -0.206   1.372   7.980 -0.7118  2.6664 -1.5435
   88MOL0     H12095  -0.125   1.494   8.080 -1.0484  0.9144  1.0609
   88MOL0     H12096  -0.419   1.463   8.011 -0.8947  0.9788 -2.4595
   88MOL0     H12097  -0.368   1.588   8.110 -3.8777  1.9752 -3.3169
   88MOL0     H12098  -0.248   1.703   7.938 -1.9563  0.2662  1.0016
   88MOL0     H12099  -0.231   1.540   7.850  0.6251 -0.6657  1.0015
   88MOL0     H12100  -0.390   1.694   7.739  2.4465 -0.1332  0.7648
   88MOL0     H12101  -0.475   1.552   7.785 -2.4724  1.3626 -1.1134
   88MOL0     H12102  -0.669   1.830   8.066  2.1819 -1.6939 -0.8045
   88MOL0     H12103  -0.674   2.123   8.254  1.9597  2.2150 -0.6049
   88MOL0     H12104  -0.767   1.981   8.217 -2.1151 -0.0492 -3.3148
   88MOL0     H12105  -0.788   2.134   8.122  1.0721  0.4548 -0.5692
   88MOL0     H12106  -0.566   2.556   8.003 -0.1172  1.1070 -0.4316
   88MOL0     H12107  -0.507   2.789   8.098 -0.8861  0.3900 -0.6010
   88MOL0     H12108  -0.340   2.984   8.156 -0.0356  1.6368  0.4433
   88MOL0     H12109  -0.191   2.995   8.254 -2.7470 -0.3079  0.9899
   88MOL0     H12110  -0.071   2.819   8.131 -2.2430 -0.7688  0.7522
   88MOL0     H12111  -0.190   2.816   8.009  1.6592  0.2369 -0.8054
   88MOL0     H12112  -0.041   3.065   8.100 -0.2517  0.2621  1.0370
   88MOL0     H12113  -0.146   3.043   7.953 -0.0462 -1.8823  0.1258
   88MOL0     H12114   0.005   2.920   7.836 -1.2751 -1.0595  1.6178
   88MOL0     H12115   0.108   2.884   7.978 -0.8379 -0.2216  2.2724
   88MOL0     H12116   0.096   3.156   7.839  1.5922 -0.0480 -0.8113
   88MOL0     H12117   0.147   3.127   8.009  0.4549 -0.8680  0.7762
   88MOL0     H12118   0.263   2.969   7.774  2.1030 -0.0412 -1.2916
   88MOL0     H12119   0.324   2.986   7.941  0.2997  2.7502  1.7555
   88MOL0     H12120   0.372   3.244   7.889  1.4885 -1.2660  1.3677
   88MOL0     H12121   0.314   3.193   7.726 -0.6872 -0.5393  0.2365
   88MOL0     H12122   0.521   3.060   7.891  1.9365 -2.3490 -0.5553
   88MOL0     H12123   0.566   3.188   7.772  0.9408 -0.3160  0.8451
   88MOL0     H12124  -0.168   2.596   8.293  2.5384  1.8176 -3.2035
   88MOL0     H12125  -0.190   2.402   8.132  1.8921  1.6449  0.9659
   88MOL0     H12126  -0.364   2.144   7.865 -0.1947 -0.2739 -0.7336
   88MOL0     H12127  -0.338   1.915   7.811  3.5311 -0.4139  2.4248
   88MOL0     H12128  -0.145   1.343   9.484  0.8073  0.3208  1.5499
   88MOL0     H12129   0.036   1.315   9.637  2.9046 -0.7295 -1.9945
   88MOL0     H12130   0.112   0.951  10.109 -0.4721  0.4054 -0.4728
   88MOL0     H12131   0.283   0.949  10.287  2.7550 -0.6244 -0.2981
   88MOL0     H12132   0.587   1.080  10.451 -0.4607 -1.6420  1.9530
   88MOL0     H12133   0.422   1.020  10.419  0.2208  0.6346 -0.2979
   88MOL0     H12134   0.540   0.799  10.355  0.6848 -0.7083  0.3423
   88MOL0     H12135   0.560   0.868  10.520 -1.8865  2.9665  0.7962
   88MOL0     H12136   0.757   0.904  10.276  0.2709 -2.7892 -1.3331
   88MOL0     H12137   0.791   0.957  10.444 -1.6628  0.0214  0.1418
   88MOL0     H12138   0.732   0.656  10.385 -0.4578 -0.7988  0.9531
   88MOL0     H12139   0.782   0.736  10.528  0.9721 -1.2705  0.1495
   88MOL0     H12140   1.145   0.683  10.393 -0.3335 -0.6241  1.8424
   88MOL0     H12141   0.555   1.145  10.032 -0.0141  1.2807  1.0043
   88MOL0     H12142   0.526   1.169   9.807  1.6377 -2.9255 -2.5672
   88MOL0     H12143   0.405   1.070   9.729  0.2071  0.0813 -0.3588
   88MOL0     H12144   0.371   1.236   9.767 -1.4262 -0.1491  1.3080
   89MOL0     O12145   3.745   8.932   8.630  0.0147 -0.0667  0.0752
   89MOL0     C12146   3.712   8.919   8.513 -0.4382 -0.6043 -0.0447
   89MOL0     O12147   3.790   8.869   8.416  0.1261  1.1357 -0.2527
   89MOL0     C12148   3.929   8.852   8.438  0.9189 -0.3114  0.6882
   89MOL0     C12149   3.988   8.739   8.497  0.1709 -0.6552 -0.6252
   89MOL0     C12150   4.126   8.742   8.524 -0.4130 -0.6497  0.5647
   89MOL0     C12151   4.205   8.842   8.467 -0.0639 -0.2511  0.2655
   89MOL0     O12152   4.344   8.846   8.482 -0.0314  0.5443 -0.0702
   89MOL0     C12153   4.427   8.950   8.428 -0.4005  0.0893  0.5996
   89MOL0     C12154   4.575   8.911   8.454  0.7076  0.4035 -1.5139
   89MOL0     C12155   4.608   8.781   8.381 -0.1412  0.1336 -0.0637
   89MOL0     C12156   4.749   8.734   8.422 -0.1357 -0.5723  0.5308
   89MOL0     C12157   4.777   8.607   8.351 -0.3067  0.3926 -0.0040
   89MOL0     C12158   4.914   8.553   8.387 -0.8915  0.8535 -0.4391
   89MOL0     C12159   4.938   8.407   8.351  0.5444 -0.0352 -0.3500
   89MOL0     C12160   4.942   8.402   8.199  0.1022 -1.1041  0.0099
   89MOL0     N12161   4.953   8.265   8.148  0.5156  0.1385 -0.1988
   89MOL0     C12162   5.071   8.188   8.154  0.0738  0.8872 -0.2658
   89MOL0     C12163   5.041   8.074   8.085 -0.4898  0.0222 -0.2059
   89MOL0     C12164   5.132   7.952   8.059 -0.0602 -0.7205 -0.0574
   89MOL0     C12165   5.288   7.973   8.080  0.7036 -0.1623 -0.3236
   89MOL0     C12166   5.360   7.879   7.981 -0.5983 -0.0972 -1.1535
   89MOL0     C12167   5.509   7.856   8.020  0.9531 -0.0993 -0.8567
   89MOL0     O12168   5.588   7.774   7.936 -0.2538 -0.4228  0.5792
   89MOL0     C12169   5.725   7.774   7.953 -0.3168  0.0279 -0.3824
   89MOL0     C12170   5.801   7.700   7.864 -0.5236 -0.0790 -0.4037
   89MOL0     C12171   5.935   7.690   7.873  0.7768 -0.2770 -0.2993
   89MOL0     C12172   6.003   7.593   7.774  0.0404 -0.1372 -0.1884
   89MOL0     C12173   6.010   7.754   7.978 -0.3595  0.1317 -0.3528
   89MOL0     C12174   6.159   7.751   8.000 -0.3666  1.0013  0.6740
   89MOL0     O12175   6.200   7.820   8.114  0.0324  0.0487 -0.4275
   89MOL0     C12176   6.339   7.811   8.145  0.3538  0.1172 -0.0280
   89MOL0     C12177   6.376   7.757   8.268  0.7025 -0.3571  0.5542
   89MOL0     C12178   6.514   7.736   8.281  0.1641 -0.1598 -0.3967
   89MOL0     C12179   6.610   7.767   8.184 -0.0934  0.0809 -0.4534
   89MOL0     O12180   6.744   7.745   8.215  0.2693 -0.3424 -0.6528
   89MOL0     C12181   6.839   7.749   8.107  0.5288 -0.5843 -0.5610
   89MOL0     C12182   6.824   7.639   7.989  0.0255  0.0830 -0.2624
   89MOL0     C12183   6.843   7.493   8.040 -0.0846  0.0093 -0.4339
   89MOL0     C12184   6.848   7.397   7.924  0.1148 -0.2723 -0.0565
   89MOL0     C12185   6.885   7.255   7.969 -0.1861 -1.2179  0.3350
   89MOL0     C12186   7.029   7.250   8.007 -0.3686 -0.1357  0.8309
   89MOL0     C12187   7.070   7.132   8.094 -0.3408  0.2806 -0.5753
   89MOL0     C12188   7.051   7.161   8.240  0.4038  0.2941  1.1350
   89MOL0    Cl12189   7.161   7.285   8.307  0.2622 -0.1559  0.4644
   89MOL0     C12190   6.568   7.838   8.073  0.0079  0.0502  0.6568
   89MOL0     C12191   6.435   7.850   8.047 -0.7202 -0.1772 -1.0998
   89MOL0     O12192   6.235   7.682   7.929  0.2096 -0.5593  0.0380
   89MOL0     C12193   5.932   7.830   8.068  0.1042  0.3111 -0.5967
   89MOL0     C12194   5.788   7.838   8.059  0.2660  0.1768  0.4798
   89MOL0     N12195   4.917   8.093   8.029  0.2871 -0.1613  0.8956
   89MOL0     N12196   4.859   8.200   8.074  0.5622  0.8524 -0.3208
   89MOL0     C12197   4.142   8.943   8.395  0.5641  0.3862  0.6647
   89MOL0     C12198   4.005   8.949   8.377  0.5478 -0.6374  0.1812
   89MOL0     C12199   3.570   8.956   8.474 -0.4548  0.2336 -0.4605
   89MOL0     C12200   3.532   8.912   8.345  0.8878 -0.0619 -0.0511
   89MOL0     C12201   3.405   8.927   8.306  0.1950 -0.0698  0.5874
   89MOL0     C12202   3.309   8.997   8.376  0.4942 -0.6178  0.1485
   89MOL0     O12203   3.193   9.017   8.310  0.9330  0.7164  0.2735
   89MOL0     C12204   3.108   9.126   8.346  0.2240 -0.0984  0.2599
   89MOL0     C12205   3.015   9.150   8.230 -0.0969 -0.1952 -0.0112
   89MOL0     C12206   2.933   9.284   8.254 -1.2158 -0.4858  0.1800
   89MOL0     C12207   2.838   9.307   8.147  0.1209  0.3675  0.6032
   89MOL0     C12208   2.885   9.314   8.004 -0.4223  0.8217 -0.0540
   89MOL0     C12209   2.904   9.302   7.888  0.0591 -1.1903  0.0668
   89MOL0     C12210   3.341   9.045   8.499 -0.3587  0.5633 -0.6963
   89MOL0     C12211   3.471   9.025   8.552  0.3534 -0.1023  0.7747
   89MOL0     C12212   3.490   9.083   8.682 -0.1977 -0.5555 -0.8315
   89MOL0     H12213   3.918   8.676   8.551 -0.8773  1.9794  1.3009
   89MOL0     H12214   4.171   8.662   8.582 -1.2471 -1.7236 -0.2205
   89MOL0     H12215   4.416   9.048   8.475  2.0227  2.2889 -2.8549
   89MOL0     H12216   4.409   8.953   8.320  0.3787 -3.4506  0.2529
   89MOL0     H12217   4.640   8.993   8.425  0.7054  1.6228  1.5047
   89MOL0     H12218   4.594   8.894   8.561  2.0015  1.6041 -1.5250
   89MOL0     H12219   4.534   8.703   8.401 -0.6455  0.1314 -1.8116
   89MOL0     H12220   4.607   8.808   8.276 -1.2308  2.0333  0.3832
   89MOL0     H12221   4.828   8.806   8.398 -1.3545 -0.5478 -4.6523
   89MOL0     H12222   4.744   8.708   8.528 -0.8621  0.0010  0.6478
   89MOL0     H12223   4.775   8.614   8.241 -0.2727 -2.7219 -0.3222
   89MOL0     H12224   4.692   8.544   8.380 -2.3878  3.1772  0.3058
   89MOL0     H12225   4.989   8.620   8.345  0.0983 -0.1515 -0.3351
   89MOL0     H12226   4.931   8.559   8.494  2.9454 -0.4364 -0.8214
   89MOL0     H12227   4.859   8.341   8.390  1.9952 -1.0174  1.0724
   89MOL0     H12228   5.030   8.374   8.399 -0.3190  0.5902  1.8848
   89MOL0     H12229   4.866   8.459   8.144  1.6388  1.4247  0.3327
   89MOL0     H12230   5.038   8.450   8.178 -1.2775  2.1805  0.5547
   89MOL0     H12231   5.163   8.195   8.211 -0.7088  2.0796  0.8958
   89MOL0     H12232   5.111   7.919   7.956  1.3041 -0.3310 -0.4799
   89MOL0     H12233   5.096   7.887   8.139 -5.5350 -1.6161 -2.7621
   89MOL0     H12234   5.330   8.072   8.061  0.6357  0.0041  0.3557
   89MOL0     H12235   5.319   7.944   8.180  0.4888 -0.9356 -0.4741
   89MOL0     H12236   5.309   7.782   7.986  0.8186 -0.8587 -1.0489
   89MOL0     H12237   5.365   7.917   7.879  2.0404  0.8787 -0.7177
   89MOL0     H12238   5.557   7.952   8.038  2.3658 -1.1223  1.3265
   89MOL0     H12239   5.508   7.817   8.122  1.4619 -0.1258 -0.8629
   89MOL0     H12240   5.740   7.640   7.797 -2.8404  0.8519  0.7613
   89MOL0     H12241   5.992   7.491   7.813  3.8418 -0.0240  1.6809
   89MOL0     H12242   6.104   7.622   7.743  0.3380  0.5285  1.3072
   89MOL0     H12243   5.958   7.600   7.675  1.2188  2.2266 -0.6283
   89MOL0     H12244   6.307   7.725   8.344 -1.5967  1.2229 -0.7435
   89MOL0     H12245   6.545   7.697   8.378  1.7613  4.6625  1.3305
   89MOL0     H12246   6.833   7.850   8.065  1.8906 -0.3047 -0.1245
   89MOL0     H12247   6.940   7.738   8.148  1.2482  0.0868 -2.0596
   89MOL0     H12248   6.730   7.626   7.936 -0.2212  1.8719 -0.3183
   89MOL0     H12249   6.893   7.669   7.909 -0.5839  2.0908 -0.0756
   89MOL0     H12250   6.768   7.468   8.116 -0.9794  1.2746 -0.8623
   89MOL0     H12251   6.935   7.493   8.099 -0.4094 -5.1874  0.5722
   89MOL0     H12252   6.927   7.438   7.861 -1.1827 -0.8108 -2.1356
   89MOL0     H12253   6.757   7.385   7.865 -0.5475 -1.9511  1.1960
   89MOL0     H12254   6.832   7.224   8.060  1.8983  0.2329  2.1394
   89MOL0     H12255   6.871   7.176   7.894  1.2181 -1.2822  0.1191
   89MOL0     H12256   7.056   7.346   8.052 -0.4871  0.6396 -0.6868
   89MOL0     H12257   7.094   7.236   7.920  1.8797  3.4100  1.7173
   89MOL0     H12258   7.178   7.111   8.091 -0.4812 -1.2913  2.1190
   89MOL0     H12259   7.011   7.044   8.064 -2.1285  0.2710  2.5399
   89MOL0     H12260   7.074   7.068   8.293 -0.2950 -1.3053 -1.2301
   89MOL0     H12261   6.945   7.182   8.256 -0.0886 -2.3725  1.9796
   89MOL0     H12262   6.629   7.864   7.987  0.4538 -3.4454 -0.2341
   89MOL0     H12263   6.400   7.884   7.951  0.2067 -2.3201 -2.2658
   89MOL0     H12264   5.985   7.868   8.155  1.3780 -2.9288  0.1968
   89MOL0     H12265   5.731   7.889   8.136 -3.6988 -3.0882  0.0672
   89MOL0     H12266   4.207   9.007   8.337  0.2814 -1.4940 -1.9007
   89MOL0     H12267   3.950   9.029   8.329  0.5756  0.7553  2.3010
   89MOL0     H12268   3.594   8.851   8.281  2.4571  1.2854  0.1192
   89MOL0     H12269   3.386   8.890   8.205  0.2659  4.4157 -1.3354
   89MOL0     H12270   3.057   9.097   8.439  0.8012 -0.2378  0.5383
   89MOL0     H12271   3.171   9.214   8.363  1.2831 -0.8257  0.2106
   89MOL0     H12272   2.948   9.063   8.220  2.4067 -2.6708  2.7187
   89MOL0     H12273   3.076   9.150   8.139  3.2332  0.4675  2.0665
   89MOL0     H12274   2.877   9.285   8.348 -0.6074  0.0845  0.5414
   89MOL0     H12275   3.007   9.363   8.241  0.7638 -2.1934  0.4059
   89MOL0     H12276   2.811   9.412   8.162  1.3328  0.8570 -0.4016
   89MOL0     H12277   2.753   9.242   8.170  0.6366 -0.2067  0.9240
   89MOL0     H12278   2.919   9.293   7.782 -1.9514  1.7014 -0.5555
   89MOL0     H12279   3.262   9.098   8.550 -1.9333 -1.8622 -0.4303
   89MOL0     H12280   3.394   9.116   8.725  0.1812  0.5863 -0.8064
   89MOL0     H12281   3.519   8.999   8.745 -0.9636  0.3600  0.8101
   89MOL0     H12282   3.555   9.171   8.672 -3.5406  2.3986  0.9047
   90MOL0     O12283  10.366   0.620   6.536 -0.1032  0.1471  0.6811
   90MOL0     C12284  10.411   0.724   6.571 -0.0439 -0.2633  0.2486
   90MOL0     O12285  10.542   0.764   6.559 -1.0328 -0.8459  0.7990
   90MOL0     C12286  10.644   0.677   6.532 -0.2586 -0.9868 -0.1631
   90MOL0     C12287  10.664   0.563   6.604 -0.1297 -0.1527  0.0592
   90MOL0     C12288  10.771   0.476   6.578 -0.0240  0.1750  0.7024
   90MOL0     C12289  10.861   0.505   6.475 -0.8669  0.4123  0.4434
   90MOL0     O12290  10.963   0.421   6.447 -0.6033  0.4067  0.1987
   90MOL0     C12291  11.038   0.444   6.339 -1.1876  0.6371  0.1396
   90MOL0     C12292  11.137   0.329   6.308  0.6072  0.8119  0.2874
   90MOL0     C12293  11.213   0.343   6.177 -0.2371  0.0408 -0.4482
   90MOL0     C12294  11.298   0.461   6.171 -0.2766 -0.2334 -0.2456
   90MOL0     C12295  11.399   0.453   6.051 -1.1689  0.0021 -0.3833
   90MOL0     C12296  11.533   0.385   6.097  0.2823  0.2343 -0.0973
   90MOL0     C12297  11.643   0.381   6.000 -0.1340  0.5616  0.1856
   90MOL0     C12298  11.776   0.299   6.038  0.3843 -0.1799  0.2128
   90MOL0     N12299  11.907   0.348   5.985 -0.9232  0.8240  0.2902
   90MOL0     C12300  11.946   0.336   5.853 -0.4929  0.0139 -0.2897
   90MOL0     C12301  12.079   0.350   5.849  0.0431  0.3455 -0.8685
   90MOL0     C12302  12.157   0.344   5.722 -0.3668 -0.4372  1.0206
   90MOL0     C12303  12.296   0.412   5.717 -0.0974 -0.3023  0.1423
   90MOL0     C12304  12.407   0.313   5.758  0.0091 -0.3095 -0.6682
   90MOL0     C12305  12.552   0.367   5.759 -0.0109 -0.1457  0.1808
   90MOL0     O12306  12.649   0.266   5.774  0.5873 -0.0011  0.0551
   90MOL0     C12307  12.772   0.293   5.742  0.4025  0.3004  0.3638
   90MOL0     C12308  12.865   0.200   5.779 -1.1891 -0.1624 -0.0337
   90MOL0     C12309  13.005   0.217   5.754 -0.8564 -0.7695  0.0876
   90MOL0     C12310  13.103   0.106   5.794  0.0861 -0.6093 -1.0674
   90MOL0     C12311  13.047   0.336   5.679  0.1728 -0.0183 -0.0674
   90MOL0     C12312  13.191   0.363   5.655 -0.3996  0.2073 -0.0846
   90MOL0     O12313  13.268   0.335   5.760 -0.1890  0.7348  0.9678
   90MOL0     C12314  13.402   0.371   5.754 -0.2886 -0.0345 -0.6358
   90MOL0     C12315  13.486   0.288   5.681 -0.6190  0.2698 -0.0751
   90MOL0     C12316  13.629   0.318   5.675 -0.1769  0.9727  0.8312
   90MOL0     C12317  13.681   0.413   5.754 -0.1577  1.6178 -0.3823
   90MOL0     O12318  13.814   0.442   5.745 -0.0499  1.0547  0.3121
   90MOL0     C12319  13.842   0.588   5.757  0.1081 -0.1010  0.1541
   90MOL0     C12320  13.943   0.618   5.869 -0.5217  0.5936 -0.6507
   90MOL0     C12321  14.067   0.525   5.869 -0.6330 -0.4742 -1.0849
   90MOL0     C12322  14.169   0.564   5.752  0.1103  0.6525 -0.3654
   90MOL0     C12323  14.310   0.486   5.772  0.9413 -0.0395 -0.6356
   90MOL0     C12324  14.310   0.330   5.774 -0.0483 -0.1908  0.3808
   90MOL0     C12325  14.443   0.268   5.799 -0.4730  0.4303  0.2640
   90MOL0     C12326  14.532   0.275   5.677  0.3075 -0.4548 -0.5333
   90MOL0    Cl12327  14.515   0.114   5.604 -0.1261  0.7889  0.1849
   90MOL0     C12328  13.593   0.487   5.833 -0.2595  0.0705 -0.6594
   90MOL0     C12329  13.454   0.467   5.834  0.3785  1.0853 -0.2887
   90MOL0     O12330  13.220   0.428   5.558 -0.1990 -0.0324 -0.1790
   90MOL0     C12331  12.946   0.432   5.657 -1.3878  0.4321  0.2844
   90MOL0     C12332  12.810   0.408   5.683 -0.4321  0.2757  0.0370
   90MOL0     N12333  12.116   0.376   5.987  0.7382  0.4221  0.2800
   90MOL0     N12334  12.012   0.370   6.065  0.1719  0.2747 -1.0426
   90MOL0     C12335  10.857   0.637   6.424  0.8776 -0.1314  0.4125
   90MOL0     C12336  10.745   0.720   6.443  0.1672 -0.6794 -0.4120
   90MOL0     C12337  10.321   0.827   6.638 -0.6181 -0.1279 -0.1477
   90MOL0     C12338  10.189   0.836   6.576  0.6373  0.6111 -0.3457
   90MOL0     C12339  10.093   0.926   6.631 -0.0238  0.3711 -0.2524
   90MOL0     C12340  10.127   1.007   6.740 -0.5094  0.0393 -0.3604
   90MOL0     O12341  10.054   1.117   6.793  0.9826 -0.3703  0.2080
   90MOL0     C12342   9.915   1.137   6.754 -0.5706 -1.0553  0.7330
   90MOL0     C12343   9.910   1.221   6.623 -0.0583  0.0500  0.1640
   90MOL0     C12344   9.802   1.333   6.603 -0.4811  0.2349  1.1362
   90MOL0     C12345   9.666   1.254   6.612 -0.2771  0.6913  0.2510
   90MOL0     C12346   9.550   1.329   6.609  0.6185  0.3653  0.0082
   90MOL0     C12347   9.452   1.397   6.579  0.0419  0.7955  0.1126
   90MOL0     C12348  10.255   0.987   6.797 -0.3486  0.0348 -0.1796
   90MOL0     C12349  10.352   0.901   6.747 -0.1812 -0.2506  0.3977
   90MOL0     C12350  10.490   0.900   6.814 -0.2663  0.4990 -0.5550
   90MOL0     H12351  10.590   0.546   6.682 -1.5924  1.2786 -0.9442
   90MOL0     H12352  10.776   0.378   6.624 -1.4953  0.2142  0.9906
   90MOL0     H12353  11.103   0.532   6.353  0.6730 -0.4784 -0.9869
   90MOL0     H12354  10.967   0.455   6.257 -1.5637  4.1558  0.7617
   90MOL0     H12355  11.215   0.326   6.384 -0.3033 -4.2240  1.3530
   90MOL0     H12356  11.086   0.233   6.299 -1.3769  1.7455  0.9355
   90MOL0     H12357  11.280   0.257   6.175  2.7672  2.2149  0.6320
   90MOL0     H12358  11.144   0.350   6.092  0.8800  2.0483 -1.2684
   90MOL0     H12359  11.238   0.546   6.137  1.5621  0.5090 -1.8809
   90MOL0     H12360  11.338   0.493   6.268 -0.6467  1.0305 -0.4986
   90MOL0     H12361  11.412   0.553   6.010  0.2468  0.3624  0.8596
   90MOL0     H12362  11.348   0.404   5.967  0.2743 -0.3206 -1.0889
   90MOL0     H12363  11.564   0.428   6.193  1.9918  1.4727 -1.1251
   90MOL0     H12364  11.515   0.279   6.116 -1.6969  0.7662  1.3334
   90MOL0     H12365  11.663   0.488   5.988 -1.2080  0.8419  0.6794
   90MOL0     H12366  11.601   0.338   5.909  0.5784  1.6403 -0.6689
   90MOL0     H12367  11.784   0.305   6.147 -0.8794  0.3099  0.2970
   90MOL0     H12368  11.756   0.194   6.013 -1.2272 -0.0280  0.7308
   90MOL0     H12369  11.879   0.326   5.768 -2.3904  0.7331  1.0546
   90MOL0     H12370  12.105   0.376   5.631  3.0795 -5.3183 -3.2928
   90MOL0     H12371  12.172   0.238   5.697  0.8172 -0.5534  2.1131
   90MOL0     H12372  12.333   0.456   5.623  1.0359 -0.2424  0.5986
   90MOL0     H12373  12.290   0.505   5.774 -0.1662 -0.2162 -0.0043
   90MOL0     H12374  12.390   0.270   5.857 -2.2395  1.4503 -0.2166
   90MOL0     H12375  12.414   0.229   5.689 -0.4641 -1.7496  0.9900
   90MOL0     H12376  12.563   0.401   5.656 -0.8339 -0.3900  0.0117
   90MOL0     H12377  12.554   0.443   5.838  0.4616  0.4825 -0.4231
   90MOL0     H12378  12.833   0.111   5.834 -1.2266  1.2123  2.3016
   90MOL0     H12379  13.159   0.148   5.878 -0.0506 -1.5734 -0.4845
   90MOL0     H12380  13.166   0.079   5.709 -1.4046  0.7441 -2.6938
   90MOL0     H12381  13.055   0.014   5.829 -0.4995  0.2607  0.5554
   90MOL0     H12382  13.447   0.211   5.616 -0.9052  0.4165 -0.0802
   90MOL0     H12383  13.698   0.273   5.605 -0.8518 -0.7793  1.2241
   90MOL0     H12384  13.885   0.625   5.664  2.5557 -0.8257  0.9173
   90MOL0     H12385  13.755   0.653   5.770  0.1688 -0.3325  2.0099
   90MOL0     H12386  13.980   0.721   5.861 -0.4310  0.5482 -0.8129
   90MOL0     H12387  13.886   0.602   5.961  0.3062  2.8845  0.3442
   90MOL0     H12388  14.042   0.418   5.870 -0.5991 -0.4780 -0.5461
   90MOL0     H12389  14.123   0.541   5.961 -2.5631 -2.1288  0.4700
   90MOL0     H12390  14.179   0.671   5.771 -0.1713 -0.0179  5.2827
   90MOL0     H12391  14.131   0.548   5.650  0.3985  1.6849 -0.6479
   90MOL0     H12392  14.373   0.526   5.692 -0.1513 -1.1953 -2.1299
   90MOL0     H12393  14.362   0.515   5.864  2.3268 -1.1377 -1.0448
   90MOL0     H12394  14.257   0.301   5.682 -0.4579  1.9167 -0.1170
   90MOL0     H12395  14.239   0.293   5.849 -1.7911  2.0295 -0.0289
   90MOL0     H12396  14.431   0.166   5.836  1.4565 -0.2661 -0.8661
   90MOL0     H12397  14.499   0.329   5.870 -2.6796 -0.7358  3.1951
   90MOL0     H12398  14.638   0.279   5.706 -0.1545  2.4461  1.1874
   90MOL0     H12399  14.512   0.354   5.604 -1.6757 -1.4902 -1.1740
   90MOL0     H12400  13.631   0.563   5.900  2.0018 -2.1474  0.7540
   90MOL0     H12401  13.382   0.528   5.889 -1.1171 -2.6742  2.3451
   90MOL0     H12402  12.974   0.517   5.596 -2.0911 -1.5799 -3.1152
   90MOL0     H12403  12.735   0.485   5.669 -0.4025  0.2621 -0.1979
   90MOL0     H12404  10.931   0.689   6.363  0.8714 -0.4884  0.0995
   90MOL0     H12405  10.745   0.819   6.399  0.1783 -0.2531  0.5111
   90MOL0     H12406  10.165   0.781   6.486 -1.9663 -0.8210  1.1062
   90MOL0     H12407   9.993   0.930   6.590  0.5616 -4.5610 -2.8683
   90MOL0     H12408   9.860   1.043   6.741 -0.3583 -1.2117  0.9604
   90MOL0     H12409   9.870   1.191   6.838  2.1351  0.5462  1.2910
   90MOL0     H12410   9.906   1.165   6.529 -0.4121  4.5859 -2.8424
   90MOL0     H12411  10.004   1.278   6.622 -0.0063  0.0584  2.0209
   90MOL0     H12412   9.804   1.416   6.674 -1.3565  1.3307 -0.0773
   90MOL0     H12413   9.812   1.378   6.504  3.5850 -0.1088  1.2508
   90MOL0     H12414   9.664   1.190   6.701 -1.6866 -2.3755 -1.8080
   90MOL0     H12415   9.662   1.186   6.526 -0.2683 -0.5284  1.1912
   90MOL0     H12416   9.363   1.457   6.569 -1.0501 -1.0863 -2.7713
   90MOL0     H12417  10.290   1.063   6.867  2.3910 -1.4703  0.2182
   90MOL0     H12418  10.557   0.961   6.753 -1.3219 -0.0889 -2.3945
   90MOL0     H12419  10.485   0.919   6.922 -1.4261  0.3881 -0.5699
   90MOL0     H12420  10.531   0.799   6.820 -0.9159  0.2959  0.9589
   91MOL0     O12421   1.248  11.074   4.251  0.1782  0.2167  0.1914
   91MOL0     C12422   1.205  11.039   4.143 -0.7935 -0.9890 -0.6849
   91MOL0     O12423   1.263  11.067   4.023 -0.4082  1.1787 -0.2939
   91MOL0     C12424   1.389  11.121   4.026 -0.2933 -0.2178 -0.0841
   91MOL0     C12425   1.415  11.244   3.973 -0.6927  0.5292 -0.1204
   91MOL0     C12426   1.545  11.301   3.984 -0.1698  0.5541  0.4444
   91MOL0     C12427   1.657  11.226   4.029 -0.8092  0.6837  0.0572
   91MOL0     O12428   1.789  11.263   4.029  0.4066 -0.0049  0.0840
   91MOL0     C12429   1.819  11.388   3.967  0.0631  0.2344 -0.4567
   91MOL0     C12430   1.963  11.428   3.987 -0.3974 -0.6402  0.1474
   91MOL0     C12431   2.041  11.390   3.861 -0.0200  0.3748  0.1086
   91MOL0     C12432   2.187  11.366   3.898 -0.5240 -0.5084  0.5948
   91MOL0     C12433   2.252  11.501   3.928  0.4404 -0.9387  0.5354
   91MOL0     C12434   2.406  11.485   3.928  0.1396 -0.0264 -0.3783
   91MOL0     C12435   2.459  11.615   3.970  0.4720 -0.5052 -0.0802
   91MOL0     C12436   2.615  11.607   3.964 -0.0082 -0.3226 -0.4162
   91MOL0     N12437   2.671  11.474   3.995  0.6444 -0.1534 -0.0188
   91MOL0     C12438   2.676  11.395   4.111  0.1389  0.3630 -0.6274
   91MOL0     C12439   2.747  11.276   4.092  0.4876  0.1481 -0.0745
   91MOL0     C12440   2.789  11.176   4.196  0.6232 -0.3549 -0.8430
   91MOL0     C12441   2.809  11.036   4.147  0.7470  0.1049 -0.0409
   91MOL0     C12442   2.886  10.949   4.248 -0.1502  1.1060 -0.9178
   91MOL0     C12443   2.808  10.943   4.381  0.9187  1.0051  0.1856
   91MOL0     O12444   2.672  10.899   4.346 -0.2702  0.2451  0.8148
   91MOL0     C12445   2.578  10.900   4.448 -0.1525 -0.0512  0.3466
   91MOL0     C12446   2.607  10.946   4.577  0.7944 -0.3024  0.4076
   91MOL0     C12447   2.504  10.977   4.669 -0.4604  0.8465  0.6026
   91MOL0     C12448   2.550  11.052   4.789 -0.1535  0.3063 -0.4141
   91MOL0     C12449   2.375  10.962   4.626  0.2999 -0.9952 -0.1279
   91MOL0     C12450   2.258  10.987   4.719 -0.3452  0.5864 -0.4032
   91MOL0     O12451   2.145  10.982   4.655 -0.5464  0.4907 -0.3174
   91MOL0     C12452   2.028  10.991   4.724 -0.1838 -0.0015 -0.3519
   91MOL0     C12453   1.926  10.912   4.672 -0.9216  0.7475 -0.7828
   91MOL0     C12454   1.801  10.905   4.739  0.3768  0.0403  0.3776
   91MOL0     C12455   1.775  10.990   4.843 -0.6476 -0.2477  0.2700
   91MOL0     O12456   1.643  11.000   4.872 -0.8903  0.1788 -0.5938
   91MOL0     C12457   1.626  11.041   5.008 -0.5257 -0.8645  0.1183
   91MOL0     C12458   1.477  11.035   5.044 -0.4730  0.3386 -0.1868
   91MOL0     C12459   1.437  10.883   5.071 -0.5789 -0.1517  0.5249
   91MOL0     C12460   1.309  10.861   5.136 -0.2706  0.3473  0.0331
   91MOL0     C12461   1.182  10.856   5.042 -0.7051 -0.6339 -0.6403
   91MOL0     C12462   1.054  10.853   5.127  0.7492 -0.7155  0.4432
   91MOL0     C12463   0.933  10.837   5.024 -0.5025 -0.9652 -0.0362
   91MOL0     C12464   0.855  10.710   5.052  0.5507  0.6030  0.7110
   91MOL0    Cl12465   0.772  10.737   5.203 -0.0778  0.7930 -0.3937
   91MOL0     C12466   1.880  11.069   4.901 -0.2608  0.5812 -0.0716
   91MOL0     C12467   2.000  11.076   4.834 -0.2054  0.5694  0.5663
   91MOL0     O12468   2.274  10.994   4.836  0.9137 -0.3476 -0.2803
   91MOL0     C12469   2.348  10.907   4.499 -0.7624  0.7172  0.0761
   91MOL0     C12470   2.446  10.871   4.413 -0.3614 -0.2967  0.5648
   91MOL0     N12471   2.788  11.278   3.964 -0.3214 -0.3638  0.4963
   91MOL0     N12472   2.745  11.394   3.911 -0.1745  0.6077  0.4947
   91MOL0     C12473   1.628  11.097   4.076  0.1752 -0.0602  0.4888
   91MOL0     C12474   1.494  11.048   4.078 -0.0233  0.1510  0.3823
   91MOL0     C12475   1.066  10.990   4.133  0.5788  0.3025  0.0048
   91MOL0     C12476   0.984  11.036   4.034  0.2047 -0.6853 -0.1052
   91MOL0     C12477   0.846  11.013   4.034  0.4006  0.4127  0.4748
   91MOL0     C12478   0.787  10.928   4.129 -0.2473  0.0515 -0.1029
   91MOL0     O12479   0.655  10.896   4.126  0.4123 -0.5990 -0.7475
   91MOL0     C12480   0.627  10.779   4.048  0.1108  0.8032 -0.5700
   91MOL0     C12481   0.475  10.755   4.044  1.0845 -0.1102 -0.7222
   91MOL0     C12482   0.421  10.669   4.160  0.6970 -0.7744 -0.3544
   91MOL0     C12483   0.452  10.729   4.307 -0.3811  0.0931  0.3298
   91MOL0     C12484   0.334  10.701   4.393  0.0797 -0.8315  0.5109
   91MOL0     C12485   0.222  10.696   4.424  0.0871 -1.0676 -0.5987
   91MOL0     C12486   0.876  10.871   4.228  0.2878 -0.8411  0.0448
   91MOL0     C12487   1.010  10.897   4.228 -0.5064  0.1268  0.0572
   91MOL0     C12488   1.097  10.825   4.326 -0.0228 -2.0036  0.0002
   91MOL0     H12489   1.322  11.290   3.941 -3.2051 -1.8349  3.0933
   91MOL0     H12490   1.561  11.400   3.942 -2.1305  0.6730 -0.1263
   91MOL0     H12491   1.757  11.462   4.019  1.4610  0.7151  0.5750
   91MOL0     H12492   1.784  11.390   3.863 -2.6918  0.2986  0.4020
   91MOL0     H12493   1.963  11.536   4.006 -1.2795 -0.5992 -0.0470
   91MOL0     H12494   2.001  11.378   4.076  2.7336 -1.3568 -1.4140
   91MOL0     H12495   1.994  11.297   3.827 -0.7785  1.1351 -1.0043
   91MOL0     H12496   2.033  11.462   3.779  3.4369  0.2431 -0.4579
   91MOL0     H12497   2.201  11.307   3.989 -0.0400 -1.5505 -0.1463
   91MOL0     H12498   2.237  11.309   3.819  3.2816 -0.9604  3.0570
   91MOL0     H12499   2.218  11.535   4.027 -2.3672  0.4198 -0.7831
   91MOL0     H12500   2.222  11.572   3.850 -0.8925 -2.3613 -0.3101
   91MOL0     H12501   2.437  11.405   3.994 -1.0426  1.4271  2.0738
   91MOL0     H12502   2.440  11.467   3.825 -0.2666 -0.5045 -0.4271
   91MOL0     H12503   2.415  11.629   4.070 -2.0905 -0.7009 -1.1018
   91MOL0     H12504   2.423  11.693   3.902 -0.0611 -1.9197 -1.4978
   91MOL0     H12505   2.656  11.639   3.869  0.0981  0.9235  0.0347
   91MOL0     H12506   2.656  11.674   4.040 -0.4013  0.9136 -1.2752
   91MOL0     H12507   2.645  11.424   4.211  0.0957  0.0454 -0.5478
   91MOL0     H12508   2.721  11.184   4.280 -0.7389 -0.6578 -1.8759
   91MOL0     H12509   2.880  11.222   4.236 -0.2560  2.9264 -2.3200
   91MOL0     H12510   2.718  10.982   4.118  0.8527  0.7858 -1.7116
   91MOL0     H12511   2.866  11.041   4.054 -2.7373 -2.0557 -2.5927
   91MOL0     H12512   2.900  10.848   4.209  0.1418  1.0831 -0.7546
   91MOL0     H12513   2.985  10.991   4.272  2.0348 -2.2215 -3.2959
   91MOL0     H12514   2.855  10.874   4.452 -0.5751 -0.7284 -0.4469
   91MOL0     H12515   2.807  11.038   4.436  0.5964  0.1036  1.8014
   91MOL0     H12516   2.705  10.969   4.617  1.6813 -3.0369  0.0381
   91MOL0     H12517   2.507  11.153   4.780 -0.7611  0.0954  0.0321
   91MOL0     H12518   2.658  11.056   4.799 -0.2038  1.3517 -0.1785
   91MOL0     H12519   2.515  11.005   4.881 -0.9615  1.2707 -0.2053
   91MOL0     H12520   1.941  10.832   4.600  0.4546 -0.8190  1.1483
   91MOL0     H12521   1.726  10.832   4.712  3.8929 -3.4113 -1.1633
   91MOL0     H12522   1.688  10.975   5.068 -0.1217  0.0862  0.7774
   91MOL0     H12523   1.660  11.146   5.010 -3.0804  0.2146 -3.2757
   91MOL0     H12524   1.473  11.091   5.138  2.5147  1.7971 -0.7958
   91MOL0     H12525   1.413  11.069   4.961 -2.4945 -2.6830 -0.0171
   91MOL0     H12526   1.520  10.836   5.124  0.9550 -1.4782 -2.7334
   91MOL0     H12527   1.423  10.828   4.977 -1.5783 -0.6322  0.9424
   91MOL0     H12528   1.299  10.938   5.212  1.0356  0.9726 -0.4036
   91MOL0     H12529   1.313  10.767   5.192 -2.9182 -0.5332 -1.0940
   91MOL0     H12530   1.176  10.949   4.984 -0.0578 -2.6538 -4.2515
   91MOL0     H12531   1.187  10.774   4.969 -1.4253 -2.9660  1.7705
   91MOL0     H12532   1.043  10.946   5.183  1.0021  1.0808 -2.2872
   91MOL0     H12533   1.061  10.770   5.198 -2.6021 -0.7737  0.8606
   91MOL0     H12534   0.954  10.855   4.919  1.3350  0.1679  0.4684
   91MOL0     H12535   0.866  10.922   5.043  1.7997  1.8167 -3.2910
   91MOL0     H12536   0.904  10.612   5.055 -0.5770  0.0054  0.3550
   91MOL0     H12537   0.785  10.689   4.970  4.5353 -3.0528 -2.2005
   91MOL0     H12538   1.864  11.141   4.980 -0.3365  1.5784 -0.9744
   91MOL0     H12539   2.072  11.147   4.874 -1.2238  2.8170 -1.3564
   91MOL0     H12540   2.245  10.893   4.469 -1.0805  1.7834  0.6240
   91MOL0     H12541   2.417  10.840   4.313  1.4697  1.5126 -0.6141
   91MOL0     H12542   1.710  11.032   4.104 -3.1477 -4.3379  1.4901
   91MOL0     H12543   1.471  10.948   4.114  1.4541 -0.8690 -1.2954
   91MOL0     H12544   1.026  11.105   3.961  0.6172  1.8839  2.3587
   91MOL0     H12545   0.785  11.059   3.957 -0.5994  0.9728  1.5656
   91MOL0     H12546   0.668  10.789   3.947 -1.2050 -1.3237 -1.3859
   91MOL0     H12547   0.678  10.694   4.093 -3.9351 -1.1922  0.7660
   91MOL0     H12548   0.441  10.705   3.953  0.0380 -1.4541  0.3587
   91MOL0     H12549   0.425  10.851   4.037 -0.5145 -0.9200 -0.8699
   91MOL0     H12550   0.313  10.660   4.147  0.5636 -1.5340  0.9664
   91MOL0     H12551   0.465  10.569   4.150  0.7655 -0.5848 -2.1946
   91MOL0     H12552   0.464  10.836   4.288  0.4813 -0.3067 -1.7084
   91MOL0     H12553   0.551  10.696   4.340 -0.0926 -1.6683 -2.0122
   91MOL0     H12554   0.116  10.695   4.439  0.1451 -1.3503 -0.1979
   91MOL0     H12555   0.827  10.815   4.307  0.9808 -0.2570  0.9108
   91MOL0     H12556   1.139  10.897   4.397 -2.5997 -1.0515  0.6901
   91MOL0     H12557   1.024  10.768   4.385 -0.1102  0.4344  2.4819
   91MOL0     H12558   1.169  10.756   4.282  1.0074 -0.3008 -1.1172
   92MOL0     O12559   8.153   8.380   3.511  0.1233 -1.0257  0.5066
   92MOL0     C12560   8.215   8.420   3.608 -0.2620 -0.7045 -0.4497
   92MOL0     O12561   8.352   8.433   3.621 -0.1707 -0.3485 -0.3592
   92MOL0     C12562   8.440   8.391   3.524  0.1457  0.7378 -0.2241
   92MOL0     C12563   8.509   8.485   3.450 -0.0819  0.1275  0.4903
   92MOL0     C12564   8.596   8.448   3.344  0.1739 -0.2620 -0.6196
   92MOL0     C12565   8.604   8.309   3.313  0.7743 -0.2377  0.0961
   92MOL0     O12566   8.703   8.274   3.224 -0.3162 -0.5121  0.0733
   92MOL0     C12567   8.753   8.146   3.218 -0.1262  0.1223 -0.5129
   92MOL0     C12568   8.820   8.142   3.074  0.1952  0.0096  0.1951
   92MOL0     C12569   8.932   8.247   3.055 -0.0818  1.1239  0.5563
   92MOL0     C12570   9.072   8.210   3.109  0.0843 -0.1407  0.3112
   92MOL0     C12571   9.177   8.295   3.056  0.1869 -0.6001 -0.3974
   92MOL0     C12572   9.267   8.337   3.169 -0.5884  0.3814 -0.3066
   92MOL0     C12573   9.398   8.395   3.104  0.6002  0.4340  0.1749
   92MOL0     C12574   9.481   8.472   3.206  0.2258 -0.0223 -0.1692
   92MOL0     N12575   9.622   8.490   3.152  0.6004 -0.5279  0.4624
   92MOL0     C12576   9.726   8.404   3.129  0.6962  0.2804 -0.2835
   92MOL0     C12577   9.831   8.480   3.112 -0.5955 -0.3817  0.1732
   92MOL0     C12578   9.972   8.429   3.105  0.3523  0.3645 -0.0913
   92MOL0     C12579  10.037   8.413   3.248  0.0304 -0.1460  0.2076
   92MOL0     C12580  10.089   8.548   3.311 -0.3083  0.5264  0.9858
   92MOL0     C12581  10.140   8.528   3.451 -0.2025 -0.4387  0.1059
   92MOL0     O12582  10.256   8.446   3.457  0.1155 -0.4929 -0.7314
   92MOL0     C12583  10.380   8.478   3.400  1.3520  0.1235 -0.8122
   92MOL0     C12584  10.411   8.610   3.376  0.1744 -1.0239  0.3814
   92MOL0     C12585  10.535   8.647   3.314 -0.5018  0.4324 -0.3071
   92MOL0     C12586  10.551   8.790   3.276 -0.0504 -0.5343  0.0404
   92MOL0     C12587  10.635   8.555   3.283  0.0693 -0.1688 -0.2816
   92MOL0     C12588  10.776   8.585   3.234  0.1169  0.0687 -0.7508
   92MOL0     O12589  10.846   8.472   3.196 -1.0805 -0.0419 -0.3035
   92MOL0     C12590  10.979   8.502   3.163 -0.3126 -0.3824 -0.0659
   92MOL0     C12591  11.011   8.527   3.032 -0.2431 -0.6304  0.5451
   92MOL0     C12592  11.151   8.557   3.003  0.1788 -0.6098  0.0667
   92MOL0     C12593  11.242   8.570   3.106 -0.7809 -0.6951  0.6335
   92MOL0     O12594  11.363   8.616   3.062  0.0334 -0.2176 -0.3454
   92MOL0     C12595  11.478   8.540   3.096  0.4035 -0.0098  0.9352
   92MOL0     C12596  11.538   8.445   2.993 -0.3161 -0.8277 -0.0183
   92MOL0     C12597  11.589   8.524   2.870  0.4650  0.5413 -0.4521
   92MOL0     C12598  11.682   8.638   2.909  0.9518 -0.1139  0.0522
   92MOL0     C12599  11.796   8.595   3.003 -0.2718 -0.4048 -0.6716
   92MOL0     C12600  11.904   8.512   2.939  0.7807 -0.5639  0.8130
   92MOL0     C12601  12.043   8.542   3.001  0.1877  0.1178  1.4522
   92MOL0     C12602  12.153   8.476   2.914  0.3226 -0.0398  0.2734
   92MOL0    Cl12603  12.207   8.577   2.786 -0.1591  0.0264 -0.0049
   92MOL0     C12604  11.211   8.533   3.233 -0.0224  0.0068 -0.0171
   92MOL0     C12605  11.077   8.498   3.267  0.3774 -0.1587 -0.0956
   92MOL0     O12606  10.827   8.696   3.260  0.6820 -0.0786  0.1898
   92MOL0     C12607  10.603   8.425   3.328 -0.1453  0.6084 -1.2067
   92MOL0     C12608  10.481   8.385   3.380  0.3295  0.0141 -0.6137
   92MOL0     N12609   9.798   8.617   3.116 -0.9427 -0.0237 -0.8192
   92MOL0     N12610   9.674   8.616   3.143 -0.5839  0.5382  0.3890
   92MOL0     C12611   8.536   8.214   3.391  0.1905 -0.2549 -0.3260
   92MOL0     C12612   8.449   8.251   3.502  0.1251 -0.3311 -0.3443
   92MOL0     C12613   8.138   8.449   3.731  1.1201  1.6668  0.1000
   92MOL0     C12614   8.205   8.432   3.858 -0.6126  0.2277 -0.4627
   92MOL0     C12615   8.139   8.456   3.984  0.4908  0.5067  1.0943
   92MOL0     C12616   8.010   8.494   3.978  0.0563  0.0833  0.0034
   92MOL0     O12617   7.956   8.515   4.100  0.2804 -0.6791  0.0456
   92MOL0     C12618   7.816   8.511   4.116  0.0376  0.9562  0.4584
   92MOL0     C12619   7.778   8.413   4.221  0.1398  0.1576  0.8212
   92MOL0     C12620   7.780   8.264   4.186  0.5304 -0.8636 -0.0997
   92MOL0     C12621   7.911   8.202   4.141 -0.1511 -0.2167 -0.0800
   92MOL0     C12622   8.012   8.234   4.246 -0.2520  0.2374  0.3338
   92MOL0     C12623   8.099   8.270   4.323  0.7294  0.1110 -0.9610
   92MOL0     C12624   7.951   8.517   3.853 -0.4305 -0.8887 -0.2447
   92MOL0     C12625   7.997   8.479   3.735  0.9092 -0.0486  0.6861
   92MOL0     C12626   7.908   8.494   3.617  0.9420  0.4356 -0.0247
   92MOL0     H12627   8.510   8.592   3.467  3.6936  0.2840  0.0644
   92MOL0     H12628   8.666   8.520   3.303 -0.3748  2.1815  2.3634
   92MOL0     H12629   8.675   8.069   3.221 -0.6543  0.6470  3.0605
   92MOL0     H12630   8.821   8.132   3.302 -1.8230 -3.3518  0.4653
   92MOL0     H12631   8.849   8.039   3.052 -2.7775 -0.6449 -1.1224
   92MOL0     H12632   8.745   8.182   3.005  2.3516  3.1575 -0.5449
   92MOL0     H12633   8.942   8.258   2.947 -1.3973 -2.3357 -0.0637
   92MOL0     H12634   8.909   8.345   3.098 -3.6473  0.4353  0.5270
   92MOL0     H12635   9.065   8.223   3.217  0.2268 -0.7407  0.3962
   92MOL0     H12636   9.094   8.106   3.083 -0.9778 -0.1975 -0.4477
   92MOL0     H12637   9.137   8.381   3.002 -2.8071 -1.9921 -0.5758
   92MOL0     H12638   9.230   8.232   2.984  0.0680  0.2393 -1.2443
   92MOL0     H12639   9.215   8.411   3.232 -5.5630 -1.8113 -1.3449
   92MOL0     H12640   9.294   8.248   3.227 -1.0389  0.1981 -0.3734
   92MOL0     H12641   9.368   8.473   3.034  1.9676  2.0155  1.2733
   92MOL0     H12642   9.460   8.320   3.053 -1.7793 -0.8691 -0.9390
   92MOL0     H12643   9.437   8.572   3.218  1.5981  0.7780 -1.5084
   92MOL0     H12644   9.475   8.413   3.298 -1.4025 -0.1875 -0.3377
   92MOL0     H12645   9.731   8.296   3.122 -0.3334  0.3165 -2.1816
   92MOL0     H12646  10.038   8.489   3.042  1.7948  0.8685  1.8034
   92MOL0     H12647   9.968   8.331   3.056 -0.5375 -2.2756  4.6385
   92MOL0     H12648   9.966   8.360   3.313  1.7295 -1.5479  0.9947
   92MOL0     H12649  10.120   8.343   3.242 -0.0400 -0.1360 -1.2772
   92MOL0     H12650  10.165   8.593   3.247  0.1171 -1.6801 -0.1744
   92MOL0     H12651  10.009   8.622   3.314  0.6408  1.7119 -1.0694
   92MOL0     H12652  10.164   8.620   3.505 -0.5172 -1.6894  2.5400
   92MOL0     H12653  10.071   8.467   3.511 -0.1646  1.2959  2.0197
   92MOL0     H12654  10.340   8.690   3.395 -0.4936 -0.9686 -2.0157
   92MOL0     H12655  10.456   8.842   3.257  1.0358  1.1417 -1.0144
   92MOL0     H12656  10.609   8.806   3.186  0.6551  0.0026  0.5798
   92MOL0     H12657  10.592   8.854   3.355 -1.6333 -0.2104  0.6566
   92MOL0     H12658  10.936   8.523   2.954 -1.0796 -1.2100  1.3658
   92MOL0     H12659  11.161   8.580   2.897 -2.6342  0.7015 -0.0162
   92MOL0     H12660  11.547   8.619   3.126  1.7373  0.6545 -3.2359
   92MOL0     H12661  11.453   8.479   3.183 -2.7387  0.9108  0.8030
   92MOL0     H12662  11.616   8.391   3.048 -0.2420 -1.2098 -0.4953
   92MOL0     H12663  11.473   8.363   2.962 -0.5092 -0.0186 -1.8203
   92MOL0     H12664  11.506   8.566   2.812  0.1490 -0.4073 -0.7008
   92MOL0     H12665  11.641   8.453   2.806  0.0741 -0.3967  0.2592
   92MOL0     H12666  11.611   8.710   2.951 -3.4610 -1.5807 -3.9471
   92MOL0     H12667  11.723   8.686   2.820 -1.4123  0.6524 -0.7094
   92MOL0     H12668  11.839   8.691   3.032 -2.7043  0.3467  0.7067
   92MOL0     H12669  11.764   8.552   3.098  0.7515 -0.4832 -0.3520
   92MOL0     H12670  11.892   8.536   2.833 -1.8627 -1.3489  0.8559
   92MOL0     H12671  11.877   8.407   2.954  3.2884 -1.0822  2.1224
   92MOL0     H12672  12.047   8.484   3.094 -0.3095 -0.2296  1.2625
   92MOL0     H12673  12.059   8.649   3.015 -2.2567  0.7865 -0.2574
   92MOL0     H12674  12.111   8.383   2.874 -3.1310  2.4026 -2.3883
   92MOL0     H12675  12.237   8.451   2.980  1.7902  1.0304 -1.1351
   92MOL0     H12676  11.290   8.540   3.307  1.8466 -1.4860 -1.7388
   92MOL0     H12677  11.054   8.449   3.361  0.7848 -2.0293 -0.9410
   92MOL0     H12678  10.683   8.352   3.317  0.1892  1.0876 -2.0671
   92MOL0     H12679  10.466   8.281   3.407 -1.3299  0.7843  1.7878
   92MOL0     H12680   8.563   8.111   3.370 -0.0967 -0.1947 -1.0202
   92MOL0     H12681   8.388   8.185   3.562 -0.4359 -0.3046 -0.8814
   92MOL0     H12682   8.309   8.403   3.861 -0.8745 -0.7007  1.9654
   92MOL0     H12683   8.198   8.452   4.075  2.3745 -0.6623 -0.1112
   92MOL0     H12684   7.785   8.614   4.138  2.8495  1.4420  2.7896
   92MOL0     H12685   7.762   8.467   4.032 -0.7118  0.3219  1.2538
   92MOL0     H12686   7.677   8.425   4.261  0.6613 -1.5147  2.8092
   92MOL0     H12687   7.843   8.439   4.305 -2.7025  2.4855  2.5191
   92MOL0     H12688   7.752   8.214   4.280  1.4002  2.0615  1.8463
   92MOL0     H12689   7.699   8.241   4.116  1.5678  0.8005 -1.9156
   92MOL0     H12690   7.941   8.244   4.044 -1.7606 -2.5265 -1.6967
   92MOL0     H12691   7.897   8.094   4.135 -3.1096  0.1343 -0.8826
   92MOL0     H12692   8.172   8.317   4.385 -1.6340  2.1849  0.4742
   92MOL0     H12693   7.847   8.549   3.855 -0.0596  0.5308  3.5693
   92MOL0     H12694   7.804   8.526   3.630  0.5566  0.5943 -2.7464
   92MOL0     H12695   7.949   8.564   3.543 -0.2256  0.7239 -0.4293
   92MOL0     H12696   7.906   8.405   3.554  2.0407  1.3617 -1.4378
   93MOL0     O12697   6.518   4.832   9.524 -0.0862 -0.0403 -0.0430
   93MOL0     C12698   6.533   4.939   9.583  0.0981  0.3100  0.2485
   93MOL0     O12699   6.642   4.976   9.653  0.2858  0.1243  0.1668
   93MOL0     C12700   6.756   4.899   9.651 -0.3667  0.0309  0.0415
   93MOL0     C12701   6.825   4.870   9.530  0.3318 -1.1128 -0.9701
   93MOL0     C12702   6.936   4.781   9.521 -0.2793 -0.1967 -0.1598
   93MOL0     C12703   6.977   4.712   9.633  0.5621  0.4868 -0.3064
   93MOL0     O12704   7.076   4.619   9.615  0.0590  0.4815 -0.2802
   93MOL0     C12705   7.052   4.491   9.681  0.7126  0.0562 -0.1629
   93MOL0     C12706   7.173   4.434   9.761 -0.7749 -0.4809  0.1348
   93MOL0     C12707   7.292   4.415   9.671 -0.8811 -0.2183 -0.2578
   93MOL0     C12708   7.421   4.400   9.748 -0.4658  0.8991 -0.1796
   93MOL0     C12709   7.540   4.361   9.657 -0.3531  0.8171  0.3732
   93MOL0     C12710   7.584   4.484   9.567  0.0663 -0.0067 -0.4283
   93MOL0     C12711   7.707   4.443   9.479 -0.5700 -0.0390  0.3839
   93MOL0     C12712   7.686   4.365   9.348 -1.0185  0.2642 -0.0336
   93MOL0     N12713   7.802   4.290   9.296  0.5926  0.4428 -0.3951
   93MOL0     C12714   7.914   4.333   9.231 -0.0940  0.1355 -0.7202
   93MOL0     C12715   8.004   4.225   9.225 -0.1369 -0.5084  0.8214
   93MOL0     C12716   8.138   4.231   9.170 -0.6243 -0.5084  0.2485
   93MOL0     C12717   8.146   4.143   9.042 -0.5861 -0.4357 -0.5061
   93MOL0     C12718   8.085   4.209   8.915 -0.7673 -0.3712 -0.1127
   93MOL0     C12719   8.120   4.128   8.785  0.9063  0.3074 -1.1139
   93MOL0     O12720   8.017   4.018   8.770  0.3681  0.5477 -0.3395
   93MOL0     C12721   8.032   3.930   8.668 -0.2608  0.1728 -1.1998
   93MOL0     C12722   8.125   3.936   8.568  0.4023 -0.4301  1.1220
   93MOL0     C12723   8.142   3.832   8.479  0.6531 -0.4470  0.1353
   93MOL0     C12724   8.256   3.848   8.376 -0.7717  0.5098  0.1075
   93MOL0     C12725   8.063   3.718   8.491 -0.0672  0.7117  0.1064
   93MOL0     C12726   8.073   3.608   8.385  0.2489 -0.0851 -0.8615
   93MOL0     O12727   7.967   3.513   8.401 -0.6344  0.0441 -0.3693
   93MOL0     C12728   7.960   3.391   8.342  0.7286  0.3327  1.0005
   93MOL0     C12729   8.050   3.326   8.262 -0.1574 -1.0577  0.1771
   93MOL0     C12730   8.042   3.199   8.229 -0.1430 -0.0118 -0.3857
   93MOL0     C12731   7.933   3.123   8.264  0.2508 -0.8548  0.4826
   93MOL0     O12732   7.935   2.999   8.217 -0.0154  0.5361  0.0877
   93MOL0     C12733   7.809   2.933   8.208 -0.4249  0.1847 -0.4547
   93MOL0     C12734   7.818   2.845   8.086 -0.2793  0.8243  0.4041
   93MOL0     C12735   7.928   2.731   8.092  0.4234 -0.3530  0.6542
   93MOL0     C12736   7.932   2.644   7.962  0.6780 -0.3794  0.8108
   93MOL0     C12737   8.014   2.517   7.964 -0.4680 -0.6094  0.3879
   93MOL0     C12738   8.164   2.554   7.974  0.1398  0.3333  0.1108
   93MOL0     C12739   8.263   2.438   7.941 -0.7468  0.5446 -0.0578
   93MOL0     C12740   8.401   2.480   7.988 -0.4655 -0.1509 -0.2588
   93MOL0    Cl12741   8.512   2.358   7.917 -0.2503 -0.2313 -0.0546
   93MOL0     C12742   7.837   3.173   8.346  0.3093 -0.9634  0.0896
   93MOL0     C12743   7.849   3.316   8.377  0.4334 -1.2039  0.0998
   93MOL0     O12744   8.154   3.608   8.293 -0.1856 -0.1860  0.0883
   93MOL0     C12745   7.966   3.713   8.593  0.2936 -0.2230 -0.8586
   93MOL0     C12746   7.956   3.816   8.684  0.2828 -0.1804 -0.4040
   93MOL0     N12747   7.935   4.117   9.274  0.7554  0.4237 -0.4616
   93MOL0     N12748   7.823   4.154   9.324 -0.4286  0.5736  0.4403
   93MOL0     C12749   6.908   4.731   9.753 -0.5412  0.6731  0.2308
   93MOL0     C12750   6.801   4.822   9.763 -0.8526 -0.7612  0.1171
   93MOL0     C12751   6.411   5.020   9.590 -0.0269  0.4164 -0.9779
   93MOL0     C12752   6.282   4.959   9.561 -0.5514  0.7565 -0.7842
   93MOL0     C12753   6.167   5.034   9.559  0.2816  0.1571  0.8337
   93MOL0     C12754   6.165   5.172   9.585  0.0443  0.6476  0.4174
   93MOL0     O12755   6.052   5.243   9.561  0.3806  0.3970  0.0319
   93MOL0     C12756   6.023   5.332   9.671  0.1613 -0.1143  0.0350
   93MOL0     C12757   5.875   5.387   9.663  0.6590  0.4224  0.0202
   93MOL0     C12758   5.844   5.514   9.576  0.0016  0.1567 -0.0068
   93MOL0     C12759   5.943   5.525   9.465  1.0483  0.4138 -0.0801
   93MOL0     C12760   5.925   5.652   9.398  0.0962 -0.2934 -0.4916
   93MOL0     C12761   5.933   5.763   9.349 -0.3880  1.2394  0.5457
   93MOL0     C12762   6.294   5.229   9.600 -0.0498  0.2142  0.5191
   93MOL0     C12763   6.414   5.156   9.609  0.3193  0.1143 -0.3144
   93MOL0     C12764   6.544   5.237   9.630  0.4993  0.5922  0.9496
   93MOL0     H12765   6.797   4.917   9.436 -0.7430  5.4367  2.0644
   93MOL0     H12766   6.988   4.762   9.427  3.0394 -2.6347  1.9485
   93MOL0     H12767   7.014   4.420   9.608 -3.9430  0.1281  1.8663
   93MOL0     H12768   6.966   4.489   9.749 -1.6361 -1.3449 -2.9823
   93MOL0     H12769   7.198   4.500   9.845  2.0576 -1.4594  0.1923
   93MOL0     H12770   7.150   4.334   9.800 -1.6990 -1.7622 -3.3362
   93MOL0     H12771   7.268   4.332   9.605  2.6929 -1.7899  0.1941
   93MOL0     H12772   7.285   4.503   9.606 -2.0598  1.3183  1.8376
   93MOL0     H12773   7.453   4.495   9.794  1.9149 -0.8545  2.0997
   93MOL0     H12774   7.393   4.327   9.824 -0.8703  0.7890 -0.4334
   93MOL0     H12775   7.513   4.271   9.600  1.1974 -0.1141  1.0348
   93MOL0     H12776   7.634   4.334   9.706 -0.8212 -0.1408  0.7675
   93MOL0     H12777   7.498   4.507   9.503 -0.1094 -2.1777 -1.0536
   93MOL0     H12778   7.612   4.571   9.627 -1.0703  0.4760 -0.5831
   93MOL0     H12779   7.786   4.396   9.538 -0.1168 -4.7462 -3.4090
   93MOL0     H12780   7.748   4.539   9.444 -0.0371  0.2428  1.7448
   93MOL0     H12781   7.605   4.293   9.364 -0.6673  0.4340  3.1057
   93MOL0     H12782   7.655   4.430   9.265  2.2007 -1.1889 -2.5914
   93MOL0     H12783   7.933   4.439   9.213  2.2684 -0.0335  0.3611
   93MOL0     H12784   8.220   4.207   9.238 -0.6301  0.8340  0.7690
   93MOL0     H12785   8.156   4.338   9.151 -0.0112 -0.5670  0.4817
   93MOL0     H12786   8.252   4.120   9.024 -0.8314 -0.7953 -1.5707
   93MOL0     H12787   8.105   4.044   9.064  1.2878 -1.1183  0.1316
   93MOL0     H12788   7.977   4.205   8.926 -0.8378 -0.5977 -0.8645
   93MOL0     H12789   8.119   4.312   8.898  2.3043 -1.6195 -2.5578
   93MOL0     H12790   8.116   4.192   8.697 -1.2043  0.1952 -1.1519
   93MOL0     H12791   8.217   4.081   8.801  0.2253 -0.4974  1.0771
   93MOL0     H12792   8.193   4.020   8.561  2.5048 -1.8878  2.8845
   93MOL0     H12793   8.285   3.953   8.373 -2.0885  1.0339  2.5967
   93MOL0     H12794   8.216   3.812   8.281  0.0938 -0.7291  0.1903
   93MOL0     H12795   8.347   3.791   8.399 -2.2966 -1.8094  0.7842
   93MOL0     H12796   8.143   3.378   8.240  0.4100 -1.8095  0.7539
   93MOL0     H12797   8.128   3.148   8.187 -0.1904 -1.1234  0.7903
   93MOL0     H12798   7.792   2.875   8.299  0.6754 -0.6216 -0.7388
   93MOL0     H12799   7.721   2.995   8.192 -2.1077 -2.2885 -1.3216
   93MOL0     H12800   7.718   2.804   8.073  0.1116 -0.0549  0.0460
   93MOL0     H12801   7.839   2.906   7.997  1.8412 -1.1738 -0.5990
   93MOL0     H12802   7.899   2.658   8.168 -2.5498 -1.8138 -1.6849
   93MOL0     H12803   8.024   2.777   8.118 -0.0577  0.5807  0.8343
   93MOL0     H12804   7.962   2.708   7.878 -3.2259 -0.3511 -0.7523
   93MOL0     H12805   7.833   2.609   7.933 -0.0031  1.3673  0.9482
   93MOL0     H12806   7.991   2.452   8.049  1.8323 -1.0564  0.7315
   93MOL0     H12807   7.997   2.468   7.868 -4.4728 -2.0184  1.6408
   93MOL0     H12808   8.176   2.584   8.079  0.1288  0.7102  0.0040
   93MOL0     H12809   8.187   2.640   7.911  1.5547  0.0860  0.2633
   93MOL0     H12810   8.263   2.406   7.836 -3.0716 -2.5888  0.7333
   93MOL0     H12811   8.231   2.348   7.993  0.6326  0.1376  0.1432
   93MOL0     H12812   8.393   2.485   8.097 -1.7180 -0.4295 -0.3146
   93MOL0     H12813   8.424   2.580   7.949 -2.3290 -0.3120 -1.9647
   93MOL0     H12814   7.753   3.120   8.390  0.8084 -1.4420  0.4673
   93MOL0     H12815   7.775   3.364   8.440  0.2241  4.5929 -3.8168
   93MOL0     H12816   7.906   3.624   8.608  0.8499 -0.1420  2.5915
   93MOL0     H12817   7.895   3.815   8.774 -1.3451  1.0932 -1.4539
   93MOL0     H12818   6.949   4.683   9.841  1.2781  1.4542 -0.1421
   93MOL0     H12819   6.755   4.846   9.859  1.2046 -0.4661  1.0891
   93MOL0     H12820   6.278   4.852   9.539  5.6417 -0.2122  0.9008
   93MOL0     H12821   6.076   4.978   9.541  1.6766 -1.2706 -2.7418
   93MOL0     H12822   6.016   5.273   9.763 -4.5611 -2.0703 -1.2747
   93MOL0     H12823   6.093   5.416   9.680  2.4678 -1.9030 -0.3798
   93MOL0     H12824   5.839   5.408   9.764 -0.1308 -0.3576 -0.0849
   93MOL0     H12825   5.820   5.305   9.616  2.5864 -1.6335  1.2183
   93MOL0     H12826   5.744   5.511   9.533 -0.4863 -2.0235  1.1306
   93MOL0     H12827   5.847   5.607   9.634  0.9496  1.4154 -1.9815
   93MOL0     H12828   5.915   5.450   9.391  1.2043 -0.2535  0.5328
   93MOL0     H12829   6.051   5.519   9.481  0.9984  1.7018  0.8712
   93MOL0     H12830   5.956   5.862   9.316  1.9135 -0.0757 -2.2151
   93MOL0     H12831   6.310   5.337   9.600 -1.8028  0.5176 -0.7753
   93MOL0     H12832   6.522   5.341   9.604  1.8915  0.8176  0.6369
   93MOL0     H12833   6.585   5.238   9.731  4.3138 -0.9586 -0.3951
   93MOL0     H12834   6.613   5.194   9.558 -0.4634  1.0703 -0.3013
   94MOL0     O12835   0.177   2.643   9.425 -0.2413  0.5193 -0.6132
   94MOL0     C12836   0.163   2.663   9.552 -0.3545  0.4574  0.1730
   94MOL0     O12837   0.238   2.595   9.642  0.3035 -0.2007 -0.4728
   94MOL0     C12838   0.318   2.491   9.592 -0.3470  0.0951  0.4099
   94MOL0     C12839   0.446   2.524   9.559 -0.0415 -0.4968 -0.0721
   94MOL0     C12840   0.533   2.423   9.520  0.4639 -0.4555 -0.3738
   94MOL0     C12841   0.490   2.292   9.504  0.6087  0.7751 -0.5201
   94MOL0     O12842   0.570   2.190   9.462  0.8779 -0.4908  0.5132
   94MOL0     C12843   0.693   2.209   9.395 -0.1886 -0.8214  0.5069
   94MOL0     C12844   0.665   2.268   9.255  0.9881 -0.0653  0.8730
   94MOL0     C12845   0.585   2.171   9.157  0.8474 -0.4607 -0.4211
   94MOL0     C12846   0.645   2.025   9.145  0.3082 -0.7203 -0.5462
   94MOL0     C12847   0.595   1.954   9.018  0.1156  0.0971  0.1731
   94MOL0     C12848   0.691   1.966   8.900 -0.3143 -0.3196 -0.3885
   94MOL0     C12849   0.636   1.892   8.789  0.1756  0.4231  0.2792
   94MOL0     C12850   0.737   1.880   8.676 -0.6574  0.3338 -0.8505
   94MOL0     N12851   0.831   1.769   8.713  0.1736  1.1500  0.1839
   94MOL0     C12852   0.968   1.789   8.706  0.1614 -0.3503  0.1248
   94MOL0     C12853   1.018   1.675   8.752  0.5747  0.3487 -0.4623
   94MOL0     C12854   1.169   1.669   8.791 -0.4763 -0.4703  0.1039
   94MOL0     C12855   1.246   1.537   8.803 -0.1385 -1.0917 -0.4917
   94MOL0     C12856   1.229   1.457   8.666  0.0014  0.6202  0.1847
   94MOL0     C12857   1.322   1.340   8.641  0.2236  0.6316 -0.7150
   94MOL0     O12858   1.458   1.369   8.678  0.1057  0.6608  0.0493
   94MOL0     C12859   1.555   1.270   8.667 -0.0063 -0.2740 -0.0427
   94MOL0     C12860   1.530   1.141   8.630  0.3042 -0.4397  0.8587
   94MOL0     C12861   1.634   1.048   8.613 -0.1081  0.3176 -0.8253
   94MOL0     C12862   1.597   0.909   8.586  0.1513  0.5519  0.1831
   94MOL0     C12863   1.766   1.087   8.640  0.9838 -0.4031 -0.4829
   94MOL0     C12864   1.882   0.998   8.659 -0.3131  0.2102 -0.6745
   94MOL0     O12865   2.004   1.058   8.627 -0.3459 -0.1292 -0.1194
   94MOL0     C12866   2.120   0.991   8.650 -0.4061  0.7218 -0.3592
   94MOL0     C12867   2.191   0.918   8.549 -0.3041 -0.5843  0.7677
   94MOL0     C12868   2.301   0.848   8.578 -0.0482 -0.9442 -0.7209
   94MOL0     C12869   2.365   0.867   8.707  0.2386 -0.7910 -0.7295
   94MOL0     O12870   2.482   0.813   8.741  0.1628  0.1487  0.0146
   94MOL0     C12871   2.543   0.722   8.648 -0.4770  0.2323 -0.0260
   94MOL0     C12872   2.677   0.692   8.708 -0.7726 -0.3148  0.4234
   94MOL0     C12873   2.717   0.547   8.676  0.3150  0.2885  0.6306
   94MOL0     C12874   2.835   0.503   8.769  0.3077  0.6236 -0.1283
   94MOL0     C12875   2.858   0.358   8.778 -0.0038 -0.4317  0.5975
   94MOL0     C12876   2.891   0.301   8.641 -0.1688  0.4747  0.0306
   94MOL0     C12877   2.934   0.147   8.646  0.9178 -0.4904  0.5080
   94MOL0     C12878   2.977   0.114   8.504 -1.3707 -0.2151  0.8012
   94MOL0    Cl12879   2.948  -0.064   8.463  0.0384 -0.1042  0.1033
   94MOL0     C12880   2.299   0.942   8.804 -0.0288 -0.6596  0.7757
   94MOL0     C12881   2.177   1.003   8.778 -0.7814 -0.3009 -0.0365
   94MOL0     O12882   1.869   0.881   8.692 -1.3152  0.0274 -0.0488
   94MOL0     C12883   1.792   1.225   8.658 -0.4313  0.9530 -0.2925
   94MOL0     C12884   1.690   1.314   8.667  0.0122  0.2114  0.1996
   94MOL0     N12885   0.908   1.577   8.745  0.5986  0.5953 -0.1814
   94MOL0     N12886   0.794   1.639   8.721 -0.0334 -0.1679  0.7274
   94MOL0     C12887   0.365   2.246   9.545  0.1525 -0.1771  0.3540
   94MOL0     C12888   0.277   2.351   9.587 -0.0733 -0.1907 -0.5563
   94MOL0     C12889   0.057   2.747   9.604  0.7527 -0.3347  0.3924
   94MOL0     C12890  -0.054   2.764   9.518 -0.0965 -0.0425 -0.2867
   94MOL0     C12891  -0.161   2.841   9.555 -0.1151  0.4939  0.0501
   94MOL0     C12892  -0.165   2.912   9.684 -1.0106 -0.4341 -0.5299
   94MOL0     O12893  -0.258   3.005   9.713  0.8452 -0.5235  0.6725
   94MOL0     C12894  -0.386   3.006   9.647  0.0379 -0.5138 -0.0888
   94MOL0     C12895  -0.479   3.108   9.724 -0.3654  0.4748 -0.1060
   94MOL0     C12896  -0.617   3.111   9.668 -0.4086  0.0735  0.3361
   94MOL0     C12897  -0.678   3.249   9.674 -0.3443  0.1379 -0.7456
   94MOL0     C12898  -0.691   3.303   9.807 -0.1972  0.2762 -0.0398
   94MOL0     C12899  -0.700   3.367   9.914 -0.5453 -0.3803 -0.5278
   94MOL0     C12900  -0.040   2.901   9.759 -0.6226 -0.1161 -0.4341
   94MOL0     C12901   0.069   2.816   9.721  0.0095 -0.6317 -0.3814
   94MOL0     C12902   0.196   2.814   9.809  1.1222  0.2332  0.2508
   94MOL0     H12903   0.477   2.627   9.576  1.1082 -1.4017  4.8780
   94MOL0     H12904   0.632   2.461   9.497  0.1325  0.8822  0.3209
   94MOL0     H12905   0.748   2.115   9.390 -2.7099 -2.3086 -1.0056
   94MOL0     H12906   0.757   2.274   9.456  2.2007 -2.3001 -0.2900
   94MOL0     H12907   0.602   2.357   9.254 -1.5185 -1.7282 -0.0400
   94MOL0     H12908   0.762   2.300   9.216 -0.6813  1.8436 -2.0793
   94MOL0     H12909   0.480   2.164   9.186  0.4375  0.1383 -1.6836
   94MOL0     H12910   0.591   2.223   9.060  0.9039 -0.7486 -0.5736
   94MOL0     H12911   0.754   2.029   9.146  0.3183 -0.9320 -0.8427
   94MOL0     H12912   0.620   1.967   9.234  2.4944 -0.0805  0.5540
   94MOL0     H12913   0.501   2.000   8.984 -0.2961 -2.0627 -1.9321
   94MOL0     H12914   0.571   1.849   9.038 -2.0149  0.7473  1.3469
   94MOL0     H12915   0.703   2.074   8.886 -0.7739 -0.2397 -0.1945
   94MOL0     H12916   0.786   1.932   8.941  0.4342  1.6319 -0.3957
   94MOL0     H12917   0.556   1.955   8.749  2.3357  3.9289  1.0763
   94MOL0     H12918   0.596   1.796   8.822 -1.7554  0.8026 -0.7995
   94MOL0     H12919   0.702   1.872   8.573  0.2003  2.0381 -1.3173
   94MOL0     H12920   0.795   1.973   8.680 -0.3333  0.0970  2.0988
   94MOL0     H12921   1.028   1.878   8.690  1.5166 -1.4414 -1.0571
   94MOL0     H12922   1.179   1.729   8.882  2.7888 -1.2986  0.4126
   94MOL0     H12923   1.215   1.732   8.714  0.8637  0.0881  1.3120
   94MOL0     H12924   1.349   1.558   8.830 -0.2023 -1.9027  0.4297
   94MOL0     H12925   1.194   1.477   8.878  0.5408 -1.4381 -0.2947
   94MOL0     H12926   1.133   1.405   8.661  0.7222 -0.8189  0.7296
   94MOL0     H12927   1.232   1.523   8.579 -3.1415  0.1496 -0.4242
   94MOL0     H12928   1.275   1.257   8.696 -0.6591  0.8251 -1.1608
   94MOL0     H12929   1.317   1.299   8.540  0.5437 -2.8057  0.5020
   94MOL0     H12930   1.431   1.103   8.609  1.3684 -2.3752 -1.1674
   94MOL0     H12931   1.672   0.859   8.524 -1.6551 -0.5685 -1.2057
   94MOL0     H12932   1.500   0.902   8.536  1.2484  0.4931 -2.0539
   94MOL0     H12933   1.593   0.843   8.673 -0.5755 -0.5144 -0.6324
   94MOL0     H12934   2.144   0.914   8.451  1.0987  0.4462  0.0161
   94MOL0     H12935   2.356   0.800   8.497  1.2345  2.5247 -2.1233
   94MOL0     H12936   2.476   0.637   8.636 -1.5644  0.8965  1.1005
   94MOL0     H12937   2.558   0.757   8.545 -1.1499 -1.4753 -0.7334
   94MOL0     H12938   2.750   0.763   8.670 -3.5496  1.6323 -1.6805
   94MOL0     H12939   2.673   0.694   8.818 -1.6858 -1.4405  0.4271
   94MOL0     H12940   2.734   0.525   8.571 -1.5618 -1.4610  0.6308
   94MOL0     H12941   2.638   0.480   8.711 -1.5112  2.8984  1.8480
   94MOL0     H12942   2.820   0.551   8.866 -2.9612  2.7009 -1.4744
   94MOL0     H12943   2.921   0.553   8.726  0.9392 -1.1069 -0.9859
   94MOL0     H12944   2.943   0.334   8.842  1.5953 -2.1270 -2.0056
   94MOL0     H12945   2.769   0.303   8.811  0.9988 -2.0821  0.6797
   94MOL0     H12946   2.968   0.368   8.603 -1.5354  2.5194  0.7020
   94MOL0     H12947   2.811   0.320   8.569 -0.2987  4.2483  0.9827
   94MOL0     H12948   2.839   0.098   8.671 -1.6360  2.5605 -2.2690
   94MOL0     H12949   3.021   0.136   8.711  2.2807 -0.8834 -1.3183
   94MOL0     H12950   3.084   0.135   8.492 -0.8511 -2.7095  0.5432
   94MOL0     H12951   2.926   0.172   8.427  3.7224 -0.7698 -3.6226
   94MOL0     H12952   2.339   0.958   8.904  1.7421  1.1560 -0.1591
   94MOL0     H12953   2.127   1.049   8.863 -0.9561 -3.6454  1.8500
   94MOL0     H12954   1.890   1.262   8.687  0.2111 -1.7124  1.2855
   94MOL0     H12955   1.705   1.417   8.696 -0.2879  0.0578  0.9226
   94MOL0     H12956   0.342   2.140   9.545  0.9523 -0.4164  2.4265
   94MOL0     H12957   0.176   2.329   9.620 -1.3678  2.9616 -1.9666
   94MOL0     H12958  -0.058   2.715   9.421  0.5197 -2.6017  0.9192
   94MOL0     H12959  -0.246   2.854   9.490 -1.0472 -1.1688  0.8839
   94MOL0     H12960  -0.371   3.049   9.547 -1.9525  1.8205  0.5381
   94MOL0     H12961  -0.425   2.905   9.637  0.9609 -1.1732  2.2324
   94MOL0     H12962  -0.442   3.208   9.702  3.6702 -1.1696 -1.6676
   94MOL0     H12963  -0.471   3.079   9.829  0.9545  2.9479  0.5353
   94MOL0     H12964  -0.617   3.085   9.561 -1.8788  2.0412 -0.1942
   94MOL0     H12965  -0.687   3.049   9.724 -4.6029  2.4443 -1.7635
   94MOL0     H12966  -0.770   3.235   9.617  1.1110 -4.0773 -2.4969
   94MOL0     H12967  -0.619   3.326   9.624  2.4652 -0.4485  1.3655
   94MOL0     H12968  -0.710   3.440   9.992 -1.0964 -1.6398  0.6214
   94MOL0     H12969  -0.023   2.963   9.847  2.5484 -2.8051  1.0545
   94MOL0     H12970   0.202   2.725   9.871  2.0472  0.2239  0.1642
   94MOL0     H12971   0.275   2.821   9.734  0.0249 -0.1174 -0.9652
   94MOL0     H12972   0.190   2.901   9.876 -2.8280  2.5785 -2.6720
   95MOL0     O12973   9.263   1.083   2.786 -0.2495  0.6580 -0.0863
   95MOL0     C12974   9.249   1.187   2.844 -0.0632 -0.3990 -0.6538
   95MOL0     O12975   9.341   1.266   2.887  0.0157  0.0757  0.5585
   95MOL0     C12976   9.464   1.206   2.901  0.1859  0.7009 -0.5210
   95MOL0     C12977   9.573   1.242   2.824 -0.3918  0.0727 -0.3347
   95MOL0     C12978   9.701   1.173   2.841 -0.2972 -0.3585 -0.5587
   95MOL0     C12979   9.722   1.067   2.938  1.2691  0.7257  0.6797
   95MOL0     O12980   9.834   0.983   2.937 -1.0553  0.5162  0.3658
   95MOL0     C12981   9.911   0.976   2.814  0.3502  0.3476 -0.2153
   95MOL0     C12982  10.013   0.868   2.823  0.3234  0.3725 -0.3697
   95MOL0     C12983   9.951   0.743   2.766  0.5358  0.4165 -0.7798
   95MOL0     C12984  10.064   0.647   2.736  0.0533 -0.0829 -0.7164
   95MOL0     C12985  10.018   0.503   2.694 -0.3128  0.0221  0.8364
   95MOL0     C12986  10.139   0.405   2.722  0.0401 -0.2453  0.0527
   95MOL0     C12987  10.174   0.330   2.600  0.1789  1.0387 -0.3772
   95MOL0     C12988  10.231   0.406   2.482 -0.1146  0.1026 -0.0380
   95MOL0     N12989  10.275   0.310   2.381 -0.5620  0.0967 -0.1918
   95MOL0     C12990  10.187   0.251   2.289 -0.2867  0.1663 -0.6570
   95MOL0     C12991  10.260   0.147   2.239  0.8429 -0.5586  0.6629
   95MOL0     C12992  10.211   0.027   2.167  0.6019  0.9911 -0.3244
   95MOL0     C12993  10.100   0.053   2.062 -0.8860  0.0534  0.0158
   95MOL0     C12994  10.132   0.161   1.955 -1.1163 -0.6589  0.2235
   95MOL0     C12995  10.037   0.163   1.830 -0.1349 -0.2992 -0.6696
   95MOL0     O12996   9.910   0.204   1.882  0.6973  0.4458  0.4328
   95MOL0     C12997   9.842   0.318   1.845  0.2657  0.6761 -0.5738
   95MOL0     C12998   9.880   0.422   1.757 -0.0133 -0.7466 -0.0922
   95MOL0     C12999   9.795   0.540   1.734 -0.0380  0.0131  0.1798
   95MOL0     C13000   9.857   0.653   1.653  0.8954  0.9610 -0.3255
   95MOL0     C13001   9.674   0.554   1.797 -0.0161  0.5391  0.0345
   95MOL0     C13002   9.566   0.650   1.752 -0.0576  0.4384  0.3329
   95MOL0     O13003   9.462   0.679   1.845  0.7206 -0.0390 -0.1053
   95MOL0     C13004   9.382   0.789   1.835  0.0041 -0.5379  0.2367
   95MOL0     C13005   9.248   0.770   1.790  0.3495 -0.3080  0.2150
   95MOL0     C13006   9.176   0.883   1.749 -0.1968  0.1414 -0.4024
   95MOL0     C13007   9.229   1.009   1.765 -0.2667 -0.6389  1.0288
   95MOL0     O13008   9.167   1.120   1.724 -0.2447 -0.3622  0.4377
   95MOL0     C13009   9.182   1.230   1.809 -0.8311  0.3966 -0.8453
   95MOL0     C13010   9.051   1.307   1.795 -0.1708  0.2002 -0.0999
   95MOL0     C13011   9.067   1.461   1.806 -0.3829  0.2277  0.2392
   95MOL0     C13012   8.939   1.527   1.866  0.2716 -0.4651  0.6600
   95MOL0     C13013   8.949   1.531   2.019  0.4822 -0.0367 -0.1065
   95MOL0     C13014   8.820   1.583   2.085 -0.0913 -0.2605  0.0607
   95MOL0     C13015   8.761   1.709   2.028 -0.3137 -0.2741 -0.3529
   95MOL0     C13016   8.856   1.834   2.047 -0.7763 -0.5182 -0.1694
   95MOL0    Cl13017   8.880   1.855   2.224 -0.1030  0.2209 -0.2848
   95MOL0     C13018   9.365   1.019   1.811  0.0538 -0.0433  1.8675
   95MOL0     C13019   9.441   0.912   1.838  0.0099  0.8983 -0.0083
   95MOL0     O13020   9.571   0.704   1.641  0.9461  0.2316 -0.0779
   95MOL0     C13021   9.642   0.455   1.891 -0.3469  0.1430  0.4241
   95MOL0     C13022   9.724   0.340   1.912  1.1208  0.0659  0.3254
   95MOL0     N13023  10.391   0.162   2.278 -0.2594 -0.2130 -0.0764
   95MOL0     N13024  10.399   0.261   2.356  0.0039 -0.3109 -0.2026
   95MOL0     C13025   9.607   1.031   3.005 -0.8919 -0.3074 -0.3047
   95MOL0     C13026   9.484   1.099   2.996  0.1352 -1.0037 -0.9369
   95MOL0     C13027   9.106   1.231   2.886 -0.0956 -0.0323  0.8297
   95MOL0     C13028   9.083   1.363   2.924  0.2499 -0.5235  0.6662
   95MOL0     C13029   8.957   1.410   2.966  0.7106  0.8034 -0.2955
   95MOL0     C13030   8.858   1.319   2.988 -0.2929  0.1364  0.1856
   95MOL0     O13031   8.753   1.345   3.074  0.1650  0.4140  0.1431
   95MOL0     C13032   8.629   1.352   3.008 -0.6124 -0.0973  0.0674
   95MOL0     C13033   8.550   1.469   3.078  0.2414  0.0615 -0.7243
   95MOL0     C13034   8.410   1.468   3.006 -0.4619 -0.5438 -0.0545
   95MOL0     C13035   8.400   1.505   2.860 -0.0502 -0.3856  0.1019
   95MOL0     C13036   8.260   1.531   2.813  0.8202  0.8904  0.6434
   95MOL0     C13037   8.145   1.532   2.772 -0.0544 -0.4839 -0.0521
   95MOL0     C13038   8.865   1.188   2.930 -0.4950 -0.3373  0.0578
   95MOL0     C13039   8.989   1.150   2.867  0.8027 -1.2491 -0.5852
   95MOL0     C13040   8.977   1.034   2.785 -0.0084  0.6306  0.8082
   95MOL0     H13041   9.564   1.312   2.741 -1.7372  0.2023 -0.0998
   95MOL0     H13042   9.780   1.205   2.773 -2.2274  1.5393 -2.0566
   95MOL0     H13043   9.979   1.061   2.818  0.3099  0.3524  0.4409
   95MOL0     H13044   9.853   0.976   2.721 -0.6585 -1.4288  0.3815
   95MOL0     H13045  10.100   0.898   2.764 -0.3353  4.9667  0.6871
   95MOL0     H13046  10.026   0.845   2.929 -1.2458 -0.5807 -0.3377
   95MOL0     H13047   9.872   0.704   2.831  2.3380 -2.0819  0.0211
   95MOL0     H13048   9.893   0.769   2.677 -2.2744  0.6225  0.9777
   95MOL0     H13049  10.128   0.684   2.656  3.4542 -1.4465  1.1911
   95MOL0     H13050  10.126   0.644   2.826 -0.0478 -0.7752 -0.6630
   95MOL0     H13051   9.978   0.502   2.592  0.4390 -0.3371  0.5374
   95MOL0     H13052   9.945   0.473   2.770  1.5922 -1.3435  2.2533
   95MOL0     H13053  10.225   0.472   2.726  0.0042 -0.1907 -0.0902
   95MOL0     H13054  10.138   0.349   2.816 -0.6203 -0.1429  0.1108
   95MOL0     H13055  10.089   0.268   2.570  1.4346 -1.9357  1.6953
   95MOL0     H13056  10.257   0.267   2.635 -0.3795  0.6975  0.3787
   95MOL0     H13057  10.154   0.473   2.443  0.0472  0.3280  0.0243
   95MOL0     H13058  10.317   0.459   2.526  0.2734  0.1633 -0.8599
   95MOL0     H13059  10.079   0.264   2.282 -1.1580 -4.1316  1.7149
   95MOL0     H13060  10.172  -0.042   2.242  0.1305 -0.4499 -1.8147
   95MOL0     H13061  10.298  -0.016   2.117 -0.0246  0.0057 -0.6115
   95MOL0     H13062  10.077  -0.040   2.009 -3.6417  1.6164 -1.8081
   95MOL0     H13063  10.011   0.080   2.120 -1.8228 -2.2570 -0.2608
   95MOL0     H13064  10.139   0.262   1.997  2.4412 -0.5523 -0.2955
   95MOL0     H13065  10.234   0.150   1.917 -0.7008  0.9489  0.7843
   95MOL0     H13066  10.073   0.230   1.752 -0.2260  1.3601  0.6663
   95MOL0     H13067  10.026   0.064   1.784 -3.5658 -0.8946  1.1166
   95MOL0     H13068   9.980   0.414   1.716 -0.6742 -1.6941 -1.5714
   95MOL0     H13069   9.966   0.658   1.668  0.8591  1.9036 -0.3686
   95MOL0     H13070   9.824   0.745   1.701  3.9129  0.5439  3.0288
   95MOL0     H13071   9.830   0.642   1.548  0.2520 -0.9413  0.0037
   95MOL0     H13072   9.196   0.675   1.786  0.2426 -0.2439  0.0626
   95MOL0     H13073   9.075   0.862   1.715  0.0507 -0.8842 -0.5253
   95MOL0     H13074   9.203   1.211   1.914  1.2675 -2.7374 -1.6975
   95MOL0     H13075   9.267   1.289   1.772  0.2925 -0.7555 -0.1855
   95MOL0     H13076   9.000   1.269   1.706  0.8497 -2.4779  0.3399
   95MOL0     H13077   8.985   1.280   1.878 -0.9006  2.1976  0.0272
   95MOL0     H13078   9.077   1.497   1.703 -1.1075  0.6960  0.3213
   95MOL0     H13079   9.153   1.483   1.870  0.7027  0.2614 -1.1932
   95MOL0     H13080   8.854   1.463   1.839  1.3564 -1.2725 -1.0315
   95MOL0     H13081   8.923   1.626   1.823  0.0009 -1.0770 -0.7120
   95MOL0     H13082   8.955   1.425   2.045 -3.9978 -0.5889 -0.5454
   95MOL0     H13083   9.031   1.588   2.062 -0.8101  1.2108  0.8091
   95MOL0     H13084   8.828   1.600   2.193 -0.3840  4.3689 -0.4360
   95MOL0     H13085   8.749   1.501   2.071  3.2536 -3.7851  1.6678
   95MOL0     H13086   8.665   1.726   2.078 -1.9410 -1.0436 -3.0041
   95MOL0     H13087   8.731   1.707   1.923  1.5982 -1.0931 -0.9270
   95MOL0     H13088   8.808   1.924   2.009 -0.8353  1.2144  3.5789
   95MOL0     H13089   8.959   1.834   2.011 -1.5448  0.4606 -2.5720
   95MOL0     H13090   9.411   1.117   1.799  3.5056 -1.3552  3.0807
   95MOL0     H13091   9.543   0.919   1.875  0.0437  0.8152 -0.0838
   95MOL0     H13092   9.551   0.447   1.950 -0.7737  2.6034  0.2023
   95MOL0     H13093   9.673   0.277   1.984  0.5487  1.3444  1.0706
   95MOL0     H13094   9.614   0.946   3.072 -1.9061 -0.3905 -0.2889
   95MOL0     H13095   9.400   1.082   3.063 -0.9073  3.9056 -0.5579
   95MOL0     H13096   9.165   1.434   2.931 -0.2029  0.1218 -0.3800
   95MOL0     H13097   8.947   1.517   2.984  0.7799  0.8101 -0.2931
   95MOL0     H13098   8.639   1.363   2.900 -1.4621 -1.4503 -0.1868
   95MOL0     H13099   8.576   1.257   3.026 -1.8769  0.5037 -0.3824
   95MOL0     H13100   8.599   1.565   3.058  0.6124 -0.2715 -1.5043
   95MOL0     H13101   8.536   1.447   3.184  1.9069 -1.6707 -0.8129
   95MOL0     H13102   8.378   1.364   3.019  0.9383 -0.7569  2.2884
   95MOL0     H13103   8.338   1.535   3.054  0.3121  1.1792 -1.1976
   95MOL0     H13104   8.432   1.417   2.804 -2.6995 -0.1161 -2.0358
   95MOL0     H13105   8.449   1.596   2.823  3.1851 -2.1982 -0.4899
   95MOL0     H13106   8.055   1.535   2.714 -0.2588  3.7813  0.1737
   95MOL0     H13107   8.785   1.117   2.948 -0.6896 -0.3942 -0.9720
   95MOL0     H13108   8.888   0.978   2.815  1.1905 -2.3120 -0.8238
   95MOL0     H13109   8.963   1.057   2.679 -0.2813  1.2556  0.9714
   95MOL0     H13110   9.066   0.973   2.800 -1.3624 -1.2559  1.5928
   96MOL0     O13111   5.591   0.258   9.770 -0.2597 -0.3978 -0.3009
   96MOL0     C13112   5.533   0.332   9.850  0.3583 -0.3048  0.8601
   96MOL0     O13113   5.596   0.397   9.950  0.0092 -0.6244  0.1452
   96MOL0     C13114   5.721   0.347   9.986  0.9150 -0.7630  0.2574
   96MOL0     C13115   5.742   0.279  10.106  0.7376  0.6280  0.0582
   96MOL0     C13116   5.864   0.213  10.123 -0.9231 -0.0387  0.4037
   96MOL0     C13117   5.976   0.239  10.047 -0.5839  0.2532  0.3109
   96MOL0     O13118   6.088   0.167  10.077 -0.6560  0.0295 -0.2224
   96MOL0     C13119   6.206   0.189  10.000  0.3973 -0.0594  0.3769
   96MOL0     C13120   6.296   0.062  10.008  0.4064 -0.0065  0.8174
   96MOL0     C13121   6.407   0.071   9.899 -0.4209  0.3987  0.3808
   96MOL0     C13122   6.545   0.109   9.960  0.3327  0.6021  0.9350
   96MOL0     C13123   6.637   0.102   9.840 -0.6944 -0.2992  0.3943
   96MOL0     C13124   6.769   0.168   9.860 -0.7013 -0.3612  0.2581
   96MOL0     C13125   6.761   0.324   9.830 -0.9405  0.2496  0.6156
   96MOL0     C13126   6.778   0.344   9.673  0.6359 -1.0295 -1.0950
   96MOL0     N13127   6.908   0.304   9.617  0.4826  0.1002 -1.0245
   96MOL0     C13128   7.030   0.353   9.666 -0.2353 -0.1799 -0.3411
   96MOL0     C13129   7.118   0.281   9.594  0.8160 -0.6559 -0.0033
   96MOL0     C13130   7.262   0.304   9.605 -0.5311  0.3051  0.5323
   96MOL0     C13131   7.325   0.200   9.700  0.0098  0.6889 -0.5399
   96MOL0     C13132   7.346   0.253   9.840  0.4394  0.3055  0.3288
   96MOL0     C13133   7.476   0.324   9.864 -0.0585  0.6636  0.5927
   96MOL0     O13134   7.524   0.382   9.737 -0.2868  0.0779 -0.1991
   96MOL0     C13135   7.633   0.468   9.746  0.0745 -0.1324  0.3806
   96MOL0     C13136   7.711   0.482   9.859  0.4323 -0.9282 -0.4634
   96MOL0     C13137   7.828   0.563   9.851 -0.6862  0.0773 -0.1126
   96MOL0     C13138   7.897   0.595   9.978 -0.4098  0.1662 -0.2138
   96MOL0     C13139   7.873   0.616   9.726  0.3988 -0.3252  0.3815
   96MOL0     C13140   7.996   0.689   9.709 -0.0025  0.9096 -0.3957
   96MOL0     O13141   7.998   0.799   9.629  0.3044  0.2373  0.2112
   96MOL0     C13142   8.103   0.895   9.625  0.4532  0.1885  0.4316
   96MOL0     C13143   8.204   0.899   9.722 -0.0525  0.2143 -0.2439
   96MOL0     C13144   8.316   0.991   9.709  0.5800  0.0653 -0.1207
   96MOL0     C13145   8.314   1.089   9.608  0.3532 -0.4533 -0.2680
   96MOL0     O13146   8.417   1.184   9.611  0.0184 -0.6519  0.1530
   96MOL0     C13147   8.444   1.237   9.473  0.6630  0.4215 -0.0556
   96MOL0     C13148   8.578   1.307   9.474 -0.1552  0.0675  0.2722
   96MOL0     C13149   8.692   1.220   9.518 -0.3269  0.3450 -0.7785
   96MOL0     C13150   8.823   1.271   9.470  0.2214 -1.6328 -0.4363
   96MOL0     C13151   8.936   1.163   9.472  0.1091  0.3040  0.2775
   96MOL0     C13152   9.064   1.227   9.425 -0.0168 -0.2499 -0.6156
   96MOL0     C13153   9.081   1.224   9.270  0.1089  0.2256 -0.1862
   96MOL0     C13154   9.129   1.354   9.205 -0.2635 -0.0049 -0.7830
   96MOL0    Cl13155   9.004   1.481   9.188  0.1728  0.5095  0.1428
   96MOL0     C13156   8.202   1.083   9.524  0.0199  0.3320 -0.5470
   96MOL0     C13157   8.103   0.987   9.532 -0.7417  0.0611 -0.5731
   96MOL0     O13158   8.093   0.631   9.757  0.2061 -0.2494 -0.0047
   96MOL0     C13159   7.779   0.612   9.626  0.6067  0.1534 -0.4420
   96MOL0     C13160   7.663   0.539   9.629 -0.2513 -1.0126 -0.6944
   96MOL0     N13161   7.053   0.197   9.511  1.2880 -0.6069 -0.4738
   96MOL0     N13162   6.924   0.220   9.510 -0.2632  0.1792  0.1479
   96MOL0     C13163   5.959   0.328   9.946  0.4430  0.1394  0.5497
   96MOL0     C13164   5.833   0.380   9.907 -0.3835  0.5336 -0.7487
   96MOL0     C13165   5.387   0.318   9.853  0.3554  0.1252  0.6782
   96MOL0     C13166   5.329   0.279   9.731  0.3075  0.2551 -0.1669
   96MOL0     C13167   5.189   0.266   9.718 -0.4728  0.3736 -0.1462
   96MOL0     C13168   5.104   0.275   9.827 -0.1243  0.5587 -0.0411
   96MOL0     O13169   4.970   0.232   9.811 -0.1944 -0.0650  0.5742
   96MOL0     C13170   4.890   0.265   9.926 -0.0056  0.1413 -0.2901
   96MOL0     C13171   4.744   0.223   9.902  0.3421  0.3642  0.5010
   96MOL0     C13172   4.727   0.063   9.899  0.1133 -0.0374 -0.8022
   96MOL0     C13173   4.579   0.034   9.874  0.3872  0.2660  0.4902
   96MOL0     C13174   4.548   0.076   9.742  0.1106  0.1844  0.7601
   96MOL0     C13175   4.534   0.089   9.621 -0.0802  0.2851  0.0014
   96MOL0     C13176   5.160   0.319   9.953 -0.2221 -0.4954 -0.6620
   96MOL0     C13177   5.301   0.338   9.968  0.0929  0.0874  0.1528
   96MOL0     C13178   5.353   0.371  10.101  0.1875 -0.1582  0.3874
   96MOL0     H13179   5.668   0.267  10.185  1.1584 -0.5594  0.2995
   96MOL0     H13180   5.873   0.140  10.202 -0.7278  1.4517  1.7955
   96MOL0     H13181   6.255   0.281  10.034 -3.2442  1.8680  0.9576
   96MOL0     H13182   6.176   0.200   9.896  4.4673 -2.0281 -1.2256
   96MOL0     H13183   6.348   0.062  10.104  1.4128  2.0713  0.3415
   96MOL0     H13184   6.231  -0.025   9.999  0.4587 -0.1353  1.6457
   96MOL0     H13185   6.421  -0.027   9.853 -0.9541 -0.9248  2.8380
   96MOL0     H13186   6.393   0.147   9.822  3.1229  1.3230  0.4604
   96MOL0     H13187   6.544   0.210  10.002 -1.1130  0.3947  1.4729
   96MOL0     H13188   6.560   0.040  10.043 -2.1445 -3.2129 -1.4688
   96MOL0     H13189   6.591   0.143   9.750  3.0717  2.7660 -0.4060
   96MOL0     H13190   6.657  -0.005   9.824  0.1265 -0.2412  0.9697
   96MOL0     H13191   6.803   0.157   9.964 -1.3651 -1.4634  0.3858
   96MOL0     H13192   6.850   0.120   9.805  1.9563  3.1382  0.8164
   96MOL0     H13193   6.846   0.378   9.873  0.5056 -1.7095  0.3578
   96MOL0     H13194   6.671   0.374   9.867  0.6443  2.4899  1.6798
   96MOL0     H13195   6.700   0.287   9.622 -0.2086  0.1375 -1.1517
   96MOL0     H13196   6.760   0.451   9.659 -0.0469 -0.9868 -0.0148
   96MOL0     H13197   7.047   0.429   9.741 -0.1101 -1.7292  1.2647
   96MOL0     H13198   7.285   0.407   9.632 -2.1088  0.7558  0.2582
   96MOL0     H13199   7.307   0.279   9.509 -1.9963 -2.7517  0.5175
   96MOL0     H13200   7.261   0.112   9.713  1.6286 -0.7562 -1.8480
   96MOL0     H13201   7.418   0.169   9.651  1.3849  0.7735  1.8988
   96MOL0     H13202   7.266   0.324   9.864  0.2778 -0.9224  3.9515
   96MOL0     H13203   7.346   0.167   9.908  6.0675 -1.1769 -1.0111
   96MOL0     H13204   7.457   0.399   9.941  2.5338  2.3246 -0.2436
   96MOL0     H13205   7.542   0.254   9.916 -0.5519 -0.0717  0.2475
   96MOL0     H13206   7.686   0.434   9.953 -0.5559  0.5211  0.0587
   96MOL0     H13207   7.820   0.602  10.055  0.3532  0.3787  0.5350
   96MOL0     H13208   7.945   0.692   9.965 -0.8546  0.7035  1.8612
   96MOL0     H13209   7.973   0.521  10.005  1.7891  2.3359 -0.1071
   96MOL0     H13210   8.205   0.836   9.810 -0.2461  2.8717  1.7873
   96MOL0     H13211   8.403   0.991   9.775  2.1415  2.4304 -1.9706
   96MOL0     H13212   8.434   1.156   9.400 -3.0752 -1.8879  2.6329
   96MOL0     H13213   8.361   1.303   9.446 -2.0746 -1.8131  2.2368
   96MOL0     H13214   8.592   1.335   9.369  1.2001  1.1472  0.7050
   96MOL0     H13215   8.573   1.400   9.531 -1.3219  0.3627 -0.2879
   96MOL0     H13216   8.675   1.114   9.496 -1.5494 -0.6018  3.7001
   96MOL0     H13217   8.698   1.221   9.627 -0.6105 -2.8646 -0.6336
   96MOL0     H13218   8.850   1.355   9.534  3.0605 -1.0288 -2.2599
   96MOL0     H13219   8.813   1.314   9.370  1.0113  1.2986  0.6418
   96MOL0     H13220   8.945   1.131   9.576 -2.1178 -0.8945  0.1697
   96MOL0     H13221   8.911   1.070   9.419 -1.1493  0.0692  1.2418
   96MOL0     H13222   9.147   1.179   9.477 -1.1017  0.2293  1.7277
   96MOL0     H13223   9.056   1.332   9.455 -2.1746 -0.1145 -1.4739
   96MOL0     H13224   8.997   1.187   9.211  0.1621  2.2488 -1.6568
   96MOL0     H13225   9.159   1.149   9.253 -1.5119 -1.2939 -1.2269
   96MOL0     H13226   9.180   1.344   9.108  0.3424 -0.3448 -0.4317
   96MOL0     H13227   9.196   1.409   9.272  0.8076  0.6950 -2.3563
   96MOL0     H13228   8.185   1.150   9.441  1.7956 -0.2685 -1.4199
   96MOL0     H13229   8.037   0.975   9.446 -2.4363  0.7700  0.5589
   96MOL0     H13230   7.800   0.669   9.536  2.7507  0.0262 -0.0941
   96MOL0     H13231   7.605   0.524   9.538 -3.8201 -3.1220  1.6962
   96MOL0     H13232   6.042   0.351   9.881  0.5764  2.8877  1.5723
   96MOL0     H13233   5.809   0.444   9.822 -1.6985  1.8418  0.5503
   96MOL0     H13234   5.392   0.259   9.646 -0.9194  0.2839 -1.1100
   96MOL0     H13235   5.160   0.228   9.621 -1.9763  0.3831  0.2660
   96MOL0     H13236   4.926   0.206  10.011  1.9531  3.5411  1.4205
   96MOL0     H13237   4.912   0.369   9.950  2.7419  0.0066 -1.8831
   96MOL0     H13238   4.707   0.270   9.811  0.7002  0.3776  0.3610
   96MOL0     H13239   4.684   0.266   9.984  0.9648 -0.0854  1.2062
   96MOL0     H13240   4.796   0.039   9.817  2.4981  3.4639 -0.0398
   96MOL0     H13241   4.761   0.015   9.991  0.0028  0.7195 -0.3540
   96MOL0     H13242   4.516   0.091   9.942  0.8029 -0.0544  1.1485
   96MOL0     H13243   4.558  -0.073   9.887 -0.8338  0.1962 -1.5478
   96MOL0     H13244   4.517   0.083   9.516 -2.7086 -4.0697  0.4184
   96MOL0     H13245   5.099   0.313  10.043 -0.6269  0.8580 -0.8197
   96MOL0     H13246   5.288   0.343  10.184 -1.6108  1.5615 -0.3571
   96MOL0     H13247   5.446   0.317  10.121 -0.3421 -0.7042  1.4618
   96MOL0     H13248   5.384   0.475  10.113  2.7610 -0.9786  1.5526
   97MOL0     O13249   8.566   1.568   6.507 -0.0356 -0.4922  0.0984
   97MOL0     C13250   8.470   1.524   6.444 -0.1914  0.0366 -0.2980
   97MOL0     O13251   8.459   1.540   6.308  0.6529  0.1815 -0.3380
   97MOL0     C13252   8.576   1.548   6.242 -1.0648 -0.3754 -0.2085
   97MOL0     C13253   8.629   1.444   6.167  0.4118  1.3100 -0.3408
   97MOL0     C13254   8.750   1.463   6.106 -0.0872 -0.5498 -0.1177
   97MOL0     C13255   8.816   1.587   6.103 -0.6280  0.4087 -0.0295
   97MOL0     O13256   8.930   1.609   6.032  0.4967  0.1602  0.1415
   97MOL0     C13257   8.956   1.526   5.922 -0.2881  0.1030 -0.2676
   97MOL0     C13258   9.051   1.607   5.827 -0.7733  0.6453 -0.5639
   97MOL0     C13259   9.192   1.632   5.888  0.4088 -0.2696  0.1467
   97MOL0     C13260   9.279   1.720   5.793 -0.5627 -0.6477 -0.6823
   97MOL0     C13261   9.419   1.750   5.856  0.1677 -0.0138  0.5149
   97MOL0     C13262   9.404   1.856   5.962 -0.7522 -1.1162  1.1822
   97MOL0     C13263   9.539   1.869   6.034  0.2473 -0.9007 -0.3631
   97MOL0     C13264   9.662   1.909   5.942 -0.4245  0.0036 -0.0789
   97MOL0     N13265   9.784   1.934   6.020  0.5058  0.1760 -0.6484
   97MOL0     C13266   9.894   1.855   6.027  0.9409  0.1493  0.7022
   97MOL0     C13267   9.982   1.917   6.102  0.0406 -0.5263 -0.5699
   97MOL0     C13268  10.112   1.870   6.133 -0.0330 -0.3252 -0.0974
   97MOL0     C13269  10.219   1.860   6.030 -0.0158  0.3440  0.4293
   97MOL0     C13270  10.259   1.717   5.997 -0.1931  0.3224  0.2288
   97MOL0     C13271  10.355   1.669   6.100  0.6966 -0.0457 -1.5288
   97MOL0     O13272  10.481   1.730   6.070 -0.1932  0.5776 -0.4690
   97MOL0     C13273  10.590   1.638   6.089  0.2116 -0.3177  0.4004
   97MOL0     C13274  10.608   1.557   6.203  0.2845 -0.6661 -0.0308
   97MOL0     C13275  10.720   1.483   6.228 -0.3708  0.1741 -0.2707
   97MOL0     C13276  10.733   1.403   6.357 -0.6193 -1.2848  0.6136
   97MOL0     C13277  10.829   1.491   6.134 -0.1057  0.1283 -0.2201
   97MOL0     C13278  10.965   1.406   6.152 -0.0203  0.1691 -0.2891
   97MOL0     O13279  11.012   1.340   6.045 -0.2816 -0.3124  0.4565
   97MOL0     C13280  11.148   1.347   6.034 -0.9187  0.0400  1.1348
   97MOL0     C13281  11.226   1.253   6.110  0.6920 -0.0474  0.1885
   97MOL0     C13282  11.364   1.268   6.122 -0.2706 -0.5987  0.6380
   97MOL0     C13283  11.437   1.367   6.048 -0.3208 -0.0708  0.4336
   97MOL0     O13284  11.572   1.382   6.051 -0.1135 -0.0864  0.0762
   97MOL0     C13285  11.671   1.274   6.034 -0.2074  0.6159 -0.1790
   97MOL0     C13286  11.803   1.343   6.080  0.0176  0.6996  0.2329
   97MOL0     C13287  11.918   1.240   6.054 -0.1210 -0.1939  0.0139
   97MOL0     C13288  12.053   1.299   6.085 -0.7681 -0.3554 -0.1859
   97MOL0     C13289  12.166   1.195   6.055  0.5992  0.0204  0.4819
   97MOL0     C13290  12.317   1.245   6.081  0.9687  0.5951 -0.1602
   97MOL0     C13291  12.413   1.126   6.067  0.1105 -0.4914  0.4958
   97MOL0     C13292  12.559   1.180   6.086  0.4099 -0.1905 -0.2291
   97MOL0    Cl13293  12.667   1.049   6.089  0.1222 -0.3248  0.6152
   97MOL0     C13294  11.365   1.448   5.966  0.1386  0.4476  0.3136
   97MOL0     C13295  11.222   1.442   5.958  0.0874 -0.0799 -0.2669
   97MOL0     O13296  11.019   1.409   6.265  0.1324  0.3032  0.6428
   97MOL0     C13297  10.807   1.571   6.019 -0.4057  0.5510  0.1526
   97MOL0     C13298  10.686   1.640   5.994  0.0356 -1.4851 -0.3207
   97MOL0     N13299   9.940   2.050   6.119 -0.4417 -0.6987  0.5626
   97MOL0     N13300   9.823   2.056   6.065 -0.2425 -0.2318 -1.1377
   97MOL0     C13301   8.767   1.689   6.175 -0.5650 -0.2851 -0.0591
   97MOL0     C13302   8.646   1.669   6.241 -0.3912  0.2214 -0.0652
   97MOL0     C13303   8.358   1.462   6.520 -0.5785 -0.3992 -1.0538
   97MOL0     C13304   8.235   1.461   6.464 -0.8685 -0.5777  0.5598
   97MOL0     C13305   8.128   1.395   6.510  0.2412 -0.2164 -0.3833
   97MOL0     C13306   8.134   1.318   6.630 -0.6222  0.6343  0.6631
   97MOL0     O13307   8.040   1.258   6.700 -0.1953  0.4025 -0.2033
   97MOL0     C13308   7.910   1.299   6.670  0.5300  0.1965  0.0000
   97MOL0     C13309   7.835   1.320   6.796  0.1635  0.6504  0.4142
   97MOL0     C13310   7.862   1.455   6.862 -0.6767 -0.2748  0.2298
   97MOL0     C13311   7.817   1.444   7.011 -0.0107 -0.4285 -0.2043
   97MOL0     C13312   7.908   1.366   7.092 -0.3916  0.3139 -0.3813
   97MOL0     C13313   7.978   1.297   7.164 -0.2310 -0.2906  0.4341
   97MOL0     C13314   8.256   1.314   6.694  0.6447 -0.0374 -0.4964
   97MOL0     C13315   8.370   1.377   6.645 -0.7867 -0.6415 -0.5941
   97MOL0     C13316   8.503   1.363   6.718  0.0133 -0.3149 -0.4268
   97MOL0     H13317   8.584   1.346   6.180  3.8744 -0.0661  3.3410
   97MOL0     H13318   8.797   1.381   6.053 -2.5802 -1.4337 -1.1214
   97MOL0     H13319   8.865   1.503   5.867  0.7946 -2.5365 -1.1414
   97MOL0     H13320   9.011   1.437   5.953 -0.0312  0.7031  1.0851
   97MOL0     H13321   9.063   1.555   5.731 -1.0786  0.0087 -0.2628
   97MOL0     H13322   9.004   1.703   5.803  0.9402  2.0051  1.2109
   97MOL0     H13323   9.191   1.686   5.983  0.6348  1.1708 -0.6388
   97MOL0     H13324   9.245   1.538   5.908  1.9766  0.5762  0.1337
   97MOL0     H13325   9.287   1.671   5.696 -0.1065 -2.4032  0.2031
   97MOL0     H13326   9.219   1.811   5.777  0.4926 -0.3831 -3.7252
   97MOL0     H13327   9.494   1.780   5.782 -0.9497  1.9070  0.0774
   97MOL0     H13328   9.453   1.660   5.908 -0.7008  0.1295  1.3755
   97MOL0     H13329   9.395   1.952   5.909  0.7523 -1.0288  1.0488
   97MOL0     H13330   9.328   1.836   6.038 -2.7513 -1.1517 -0.7158
   97MOL0     H13331   9.560   1.772   6.081 -1.0637 -2.1624 -2.2486
   97MOL0     H13332   9.528   1.949   6.108 -0.7791  0.2651 -1.7213
   97MOL0     H13333   9.676   1.824   5.875  0.8937  0.8524 -0.9320
   97MOL0     H13334   9.642   2.005   5.893  3.4581  1.0813  0.0942
   97MOL0     H13335   9.910   1.749   6.004 -1.3163 -0.0641 -0.1180
   97MOL0     H13336  10.101   1.769   6.173  1.6278 -0.0171  1.2833
   97MOL0     H13337  10.162   1.927   6.212  2.8686  1.3674 -2.9277
   97MOL0     H13338  10.186   1.911   5.939 -1.9860 -1.5392  0.0199
   97MOL0     H13339  10.311   1.917   6.048  0.1786  0.5277 -0.9642
   97MOL0     H13340  10.165   1.662   5.995 -1.0852  1.4740  3.5493
   97MOL0     H13341  10.302   1.712   5.896  1.1065 -0.4356  0.8030
   97MOL0     H13342  10.331   1.709   6.200 -1.2799 -1.3852 -1.4131
   97MOL0     H13343  10.345   1.560   6.104  2.3542 -0.2347  2.2285
   97MOL0     H13344  10.523   1.540   6.268 -0.0290 -2.1479 -0.7935
   97MOL0     H13345  10.795   1.461   6.427  0.0756  2.7497 -2.9748
   97MOL0     H13346  10.779   1.308   6.329 -1.5231 -1.3622 -0.6995
   97MOL0     H13347  10.635   1.377   6.398 -1.5653 -1.6228 -1.7504
   97MOL0     H13348  11.175   1.181   6.174 -0.5765  1.2122  0.6390
   97MOL0     H13349  11.413   1.199   6.190 -1.3090 -2.1660 -0.1414
   97MOL0     H13350  11.659   1.186   6.096 -0.2970  2.2252  2.2145
   97MOL0     H13351  11.658   1.248   5.928 -0.3266 -1.2206  0.2626
   97MOL0     H13352  11.836   1.428   6.018 -1.9869 -1.0322 -3.5538
   97MOL0     H13353  11.793   1.369   6.186  2.6104  1.4111  0.3814
   97MOL0     H13354  11.916   1.209   5.950 -1.6362 -2.2134  0.5867
   97MOL0     H13355  11.899   1.153   6.118 -1.7337 -0.1067 -0.2957
   97MOL0     H13356  12.055   1.327   6.190  0.9010 -0.4410 -0.1662
   97MOL0     H13357  12.078   1.383   6.019  1.3159  2.7488  4.1299
   97MOL0     H13358  12.136   1.102   6.104  0.3140 -0.6219 -0.8758
   97MOL0     H13359  12.153   1.163   5.951  1.1137 -5.1153  1.7460
   97MOL0     H13360  12.317   1.292   6.180  0.8587 -0.2439  0.2481
   97MOL0     H13361  12.342   1.323   6.008  0.4165 -1.0021 -2.1236
   97MOL0     H13362  12.398   1.089   5.966 -2.9247  0.1760  0.5992
   97MOL0     H13363  12.392   1.058   6.150 -1.2924  1.3199  1.7173
   97MOL0     H13364  12.569   1.230   6.183  0.4509 -0.3682 -0.1405
   97MOL0     H13365  12.583   1.247   6.003  2.1255  0.5326  0.7715
   97MOL0     H13366  11.411   1.524   5.904  0.9869 -0.7783 -0.6072
   97MOL0     H13367  11.174   1.523   5.904  0.7979  1.5900  1.4951
   97MOL0     H13368  10.885   1.590   5.946 -1.5204  0.4952 -1.0783
   97MOL0     H13369  10.684   1.696   5.901 -1.4553 -1.5469 -0.3516
   97MOL0     H13370   8.832   1.775   6.177 -3.0120  1.7034 -1.0212
   97MOL0     H13371   8.616   1.758   6.295 -2.9775 -1.0909  0.8626
   97MOL0     H13372   8.222   1.518   6.372 -1.0298  0.5585  1.2661
   97MOL0     H13373   8.042   1.402   6.443 -0.4950  0.2918  0.5910
   97MOL0     H13374   7.896   1.395   6.619  1.5811  0.4423  0.1383
   97MOL0     H13375   7.851   1.227   6.613  1.5860 -1.4746  0.9286
   97MOL0     H13376   7.863   1.237   6.862  0.6097 -0.4668 -1.1109
   97MOL0     H13377   7.733   1.301   6.759 -0.1694 -0.7403  1.8895
   97MOL0     H13378   7.966   1.490   6.864 -1.7742  3.4108  1.1703
   97MOL0     H13379   7.805   1.531   6.807 -0.0642  0.3117  0.3947
   97MOL0     H13380   7.717   1.401   7.006 -0.7239  1.2576 -2.0399
   97MOL0     H13381   7.819   1.545   7.053  0.1825 -0.8532  0.8210
   97MOL0     H13382   8.033   1.230   7.228 -0.6036  1.2006  2.3853
   97MOL0     H13383   8.265   1.256   6.785  1.1382 -1.9573 -1.7184
   97MOL0     H13384   8.544   1.453   6.764 -2.5104 -0.9364  3.5634
   97MOL0     H13385   8.481   1.301   6.805 -1.3841 -2.1450 -1.9732
   97MOL0     H13386   8.581   1.315   6.658  2.8205  2.0550  1.0655
   98MOL0     O13387   1.131  11.055   5.946 -0.2748 -0.1518 -0.2135
   98MOL0     C13388   1.136  11.181   5.945 -0.1543 -1.1834 -0.1289
   98MOL0     O13389   1.238  11.258   5.889  0.6520  0.2609  0.1219
   98MOL0     C13390   1.327  11.185   5.814  0.2526 -0.2676 -0.1807
   98MOL0     C13391   1.283  11.120   5.695  0.4584  0.1452  0.6734
   98MOL0     C13392   1.373  11.049   5.615  0.4237 -0.1842 -0.5637
   98MOL0     C13393   1.512  11.046   5.655  0.0571  0.5463 -0.4659
   98MOL0     O13394   1.608  10.964   5.599  0.5048  0.4803  0.5672
   98MOL0     C13395   1.581  10.944   5.462 -0.3725  0.4704 -0.3714
   98MOL0     C13396   1.713  10.908   5.388 -0.5002  0.1136  0.0275
   98MOL0     C13397   1.804  11.035   5.372  0.1255  0.1180  0.1841
   98MOL0     C13398   1.950  11.013   5.354  0.0425 -0.1473 -0.0175
   98MOL0     C13399   1.984  10.953   5.222  0.4217 -0.0690  0.1302
   98MOL0     C13400   2.112  10.871   5.222  0.4266  0.1993 -0.3518
   98MOL0     C13401   2.181  10.888   5.091 -0.0927 -0.5124 -1.0637
   98MOL0     C13402   2.296  10.777   5.073 -1.1562 -0.1352  0.8258
   98MOL0     N13403   2.394  10.769   5.185 -0.1636 -0.2553  0.5173
   98MOL0     C13404   2.496  10.853   5.209 -0.3762  0.0891  0.7418
   98MOL0     C13405   2.517  10.841   5.337 -0.2171 -0.1644 -0.2869
   98MOL0     C13406   2.607  10.907   5.433 -1.0093 -0.6315  0.7586
   98MOL0     C13407   2.741  10.830   5.436  0.1933  0.5736  0.2982
   98MOL0     C13408   2.843  10.900   5.539  0.0060 -0.4868 -0.4685
   98MOL0     C13409   2.979  10.827   5.555 -0.8386  0.2596 -0.4606
   98MOL0     O13410   3.044  10.825   5.427  0.3063  0.3144  0.3153
   98MOL0     C13411   3.176  10.861   5.409  0.4675  0.0803  0.1655
   98MOL0     C13412   3.275  10.845   5.508 -1.1472  0.7760  0.2222
   98MOL0     C13413   3.416  10.872   5.487  0.4188  0.3431 -0.1126
   98MOL0     C13414   3.514  10.840   5.595 -0.4863  0.6651 -1.1837
   98MOL0     C13415   3.456  10.909   5.360  0.0954  0.2213  0.6283
   98MOL0     C13416   3.586  10.944   5.315 -0.3035  1.0239 -0.3456
   98MOL0     O13417   3.600  11.039   5.210 -0.2909  0.2507  0.2121
   98MOL0     C13418   3.721  11.064   5.158  0.0680 -1.0643 -0.2218
   98MOL0     C13419   3.753  11.201   5.122  0.8423 -0.1050  0.3820
   98MOL0     C13420   3.876  11.246   5.081 -0.4723  0.3100  0.4328
   98MOL0     C13421   3.981  11.153   5.061 -0.0928 -0.1292 -0.5889
   98MOL0     O13422   4.106  11.180   5.017  0.6703  1.0579  0.4059
   98MOL0     C13423   4.123  11.301   4.939  0.0586 -0.4559  0.2514
   98MOL0     C13424   4.250  11.311   4.855 -0.0165 -0.8435 -1.1687
   98MOL0     C13425   4.245  11.219   4.735 -0.4991 -0.0280  0.4062
   98MOL0     C13426   4.341  11.263   4.620  0.0330 -0.3055 -1.1797
   98MOL0     C13427   4.478  11.309   4.669 -0.4545 -0.1563  0.1149
   98MOL0     C13428   4.559  11.197   4.749 -0.3975  0.3336  1.0071
   98MOL0     C13429   4.718  11.213   4.745 -0.0941 -0.3549 -0.3584
   98MOL0     C13430   4.777  11.090   4.801  0.0181 -0.7953 -0.0461
   98MOL0    Cl13431   4.950  11.095   4.769  0.2144  0.1763  0.1555
   98MOL0     C13432   3.948  11.021   5.092 -0.0570 -0.4293 -0.8276
   98MOL0     C13433   3.824  10.974   5.132 -0.4655 -0.7288  0.1528
   98MOL0     O13434   3.685  10.886   5.372  0.4235 -1.2312  0.9197
   98MOL0     C13435   3.356  10.935   5.269 -0.3341  0.5630  0.5706
   98MOL0     C13436   3.219  10.911   5.293 -0.1487 -0.0113 -0.3624
   98MOL0     N13437   2.442  10.744   5.390  0.3734  0.4025  0.0659
   98MOL0     N13438   2.362  10.700   5.301 -0.7189 -0.0871 -0.0721
   98MOL0     C13439   1.548  11.095   5.784 -0.0783  0.3121  0.2471
   98MOL0     C13440   1.457  11.166   5.860 -0.2603  0.3683 -0.0612
   98MOL0     C13441   1.024  11.262   6.013 -0.7910  0.3208 -0.2505
   98MOL0     C13442   1.043  11.401   6.023  0.1555  0.1393  0.0358
   98MOL0     C13443   0.967  11.483   6.103 -0.0936 -0.3306 -0.5692
   98MOL0     C13444   0.851  11.424   6.162  0.4372 -0.1233 -0.2543
   98MOL0     O13445   0.772  11.506   6.243  0.0377 -0.8281 -0.1478
   98MOL0     C13446   0.656  11.464   6.316  1.4312  0.4626  0.7965
   98MOL0     C13447   0.631  11.555   6.441  0.0734  0.4374  0.5070
   98MOL0     C13448   0.588  11.695   6.407  1.2336 -0.7040 -0.9528
   98MOL0     C13449   0.692  11.799   6.363 -0.2262  0.2125  0.1790
   98MOL0     C13450   0.775  11.834   6.477 -1.1876  0.0464 -0.7936
   98MOL0     C13451   0.819  11.871   6.588 -0.0596  0.3539 -0.2277
   98MOL0     C13452   0.818  11.290   6.131  0.2883 -0.6551 -0.5344
   98MOL0     C13453   0.906  11.203   6.060  0.2075 -0.2375  0.4400
   98MOL0     C13454   0.857  11.069   6.011  0.3355  0.8108 -0.2771
   98MOL0     H13455   1.177  11.125   5.673  0.9182  0.1519 -1.8650
   98MOL0     H13456   1.323  10.996   5.535 -1.7835 -0.4055  0.8852
   98MOL0     H13457   1.548  11.039   5.418  0.2964  0.7707 -0.2341
   98MOL0     H13458   1.505  10.867   5.447 -0.5386  0.9517 -2.2325
   98MOL0     H13459   1.758  10.826   5.445  0.7044 -0.4509 -1.6556
   98MOL0     H13460   1.695  10.875   5.286  0.7959 -1.8813  0.3649
   98MOL0     H13461   1.767  11.095   5.288  0.0769  0.6332  0.5649
   98MOL0     H13462   1.801  11.102   5.459  2.5526 -0.3621  0.7110
   98MOL0     H13463   1.997  11.111   5.364  1.1978 -0.7653  0.7837
   98MOL0     H13464   1.976  10.939   5.429 -2.6254  0.5165  1.7168
   98MOL0     H13465   1.998  11.042   5.161 -2.1976  0.1718 -0.2300
   98MOL0     H13466   1.907  10.880   5.192  0.8090 -0.5593  0.3134
   98MOL0     H13467   2.176  10.926   5.292 -1.0349 -0.7596  1.8331
   98MOL0     H13468   2.101  10.767   5.253  3.4543 -0.1838 -0.2762
   98MOL0     H13469   2.242  10.979   5.090  1.9458 -1.8073 -1.5805
   98MOL0     H13470   2.111  10.882   5.007 -1.8240 -1.4417  0.3634
   98MOL0     H13471   2.261  10.673   5.071 -1.2212 -0.1687 -2.6848
   98MOL0     H13472   2.345  10.790   4.976 -1.7957  2.0395  0.7338
   98MOL0     H13473   2.544  10.918   5.137 -0.0522 -1.3676 -0.4209
   98MOL0     H13474   2.549  10.899   5.525 -2.1209  1.3392  0.2857
   98MOL0     H13475   2.620  11.014   5.415 -1.8585 -0.3656  1.6383
   98MOL0     H13476   2.729  10.723   5.455  2.1131 -0.2061 -2.2615
   98MOL0     H13477   2.785  10.838   5.336 -0.9669  1.1241 -0.1826
   98MOL0     H13478   2.868  11.000   5.504  0.5452 -1.0485 -1.7698
   98MOL0     H13479   2.795  10.901   5.637 -0.0087  0.6396 -0.4816
   98MOL0     H13480   3.041  10.877   5.630  0.9927 -0.2912 -1.5543
   98MOL0     H13481   2.954  10.724   5.583 -0.3649  0.5280  1.0110
   98MOL0     H13482   3.230  10.804   5.598 -3.5939  2.2607 -0.2428
   98MOL0     H13483   3.526  10.733   5.611 -2.3225  0.5508 -0.3745
   98MOL0     H13484   3.460  10.870   5.685 -1.0293 -0.5442 -1.0885
   98MOL0     H13485   3.602  10.905   5.581 -1.0717  1.9835  0.8768
   98MOL0     H13486   3.674  11.272   5.145 -0.0955 -1.2116  0.6609
   98MOL0     H13487   3.875  11.352   5.061 -3.1610  0.5280  1.2838
   98MOL0     H13488   4.035  11.309   4.875  0.9319 -2.6027 -1.3567
   98MOL0     H13489   4.123  11.385   5.009  1.0520 -1.8048  1.9452
   98MOL0     H13490   4.261  11.411   4.812 -2.9394 -1.6557 -4.1560
   98MOL0     H13491   4.334  11.288   4.921 -0.6248  1.2484  0.4533
   98MOL0     H13492   4.140  11.215   4.704 -0.5477  2.3928  0.0396
   98MOL0     H13493   4.279  11.123   4.774  1.9083 -0.0995 -1.6054
   98MOL0     H13494   4.293  11.344   4.564 -2.1304  0.4236  1.4937
   98MOL0     H13495   4.366  11.179   4.555  1.5626 -0.4911 -0.3806
   98MOL0     H13496   4.542  11.348   4.589 -2.8863  1.3560 -1.2133
   98MOL0     H13497   4.459  11.387   4.743 -3.2602 -1.6776  1.1039
   98MOL0     H13498   4.531  11.102   4.704 -0.7996  0.0772  1.7816
   98MOL0     H13499   4.518  11.185   4.850 -2.0220 -0.1297  0.3166
   98MOL0     H13500   4.754  11.306   4.789  0.8123  1.7447 -4.9016
   98MOL0     H13501   4.755  11.225   4.643  0.8842  1.3812  0.1685
   98MOL0     H13502   4.741  10.997   4.755 -2.5125  0.9440 -1.8658
   98MOL0     H13503   4.763  11.092   4.909 -2.1551 -0.1673 -0.3035
   98MOL0     H13504   4.023  10.946   5.073 -0.4733 -1.4854  1.4092
   98MOL0     H13505   3.806  10.870   5.156  2.4313 -0.9703  1.6675
   98MOL0     H13506   3.377  10.952   5.164  1.6748 -0.0751  0.8445
   98MOL0     H13507   3.149  10.928   5.212  0.4067 -0.7492 -0.9977
   98MOL0     H13508   1.652  11.088   5.815  0.0048 -1.4754 -0.3098
   98MOL0     H13509   1.504  11.201   5.952 -1.3047 -1.5438  1.2792
   98MOL0     H13510   1.136  11.451   5.997  0.9423 -0.0209  2.2960
   98MOL0     H13511   0.993  11.581   6.140  0.7789  0.1018 -2.2362
   98MOL0     H13512   0.565  11.463   6.254  2.7208  0.1644 -1.1616
   98MOL0     H13513   0.681  11.364   6.354 -1.6700 -1.0098 -0.5926
   98MOL0     H13514   0.729  11.573   6.488 -0.2606 -0.6629  1.6856
   98MOL0     H13515   0.570  11.504   6.516  1.5446  2.3243  3.1643
   98MOL0     H13516   0.504  11.697   6.336  0.7973  2.4554 -0.4757
   98MOL0     H13517   0.546  11.748   6.492 -2.1589  1.1981 -3.5174
   98MOL0     H13518   0.638  11.881   6.315 -1.2469  0.0455  1.0062
   98MOL0     H13519   0.760  11.748   6.294 -1.0036 -0.5443 -0.0506
   98MOL0     H13520   0.874  11.915   6.669 -1.2507  0.7260  0.4231
   98MOL0     H13521   0.715  11.257   6.140  0.0983 -1.1257 -3.5049
   98MOL0     H13522   0.914  10.985   6.052  1.2401  1.6947  0.3308
   98MOL0     H13523   0.754  11.042   6.037  1.6940 -3.1793  1.6701
   98MOL0     H13524   0.861  11.083   5.903 -0.4396  2.3415 -0.1430
   99MOL0     O13525   9.068   3.879   6.563  0.0863  0.1575  0.5838
   99MOL0     C13526   9.004   3.878   6.669 -0.5719  0.3560  0.3811
   99MOL0     O13527   9.050   3.825   6.785  0.0310  0.6011 -0.2008
   99MOL0     C13528   9.183   3.791   6.795  0.3226 -0.5321  0.1011
   99MOL0     C13529   9.223   3.663   6.802  0.1918  0.0173  0.9969
   99MOL0     C13530   9.362   3.627   6.824 -0.3057 -0.2371  0.9526
   99MOL0     C13531   9.459   3.736   6.815  0.3506  0.5776 -0.6838
   99MOL0     O13532   9.594   3.730   6.839  0.7575 -0.0469  0.0749
   99MOL0     C13533   9.658   3.605   6.848 -0.2271 -0.7353 -0.2578
   99MOL0     C13534   9.807   3.615   6.878  1.2208  0.2266 -0.4812
   99MOL0     C13535   9.901   3.702   6.788 -0.1997 -0.6000  0.3202
   99MOL0     C13536  10.035   3.646   6.741 -0.2208 -0.2500  0.3558
   99MOL0     C13537  10.120   3.757   6.677 -0.5823  0.2481 -0.3197
   99MOL0     C13538  10.260   3.701   6.629  0.2265  0.1256 -0.9258
   99MOL0     C13539  10.368   3.806   6.625 -0.6729 -0.0095  0.7129
   99MOL0     C13540  10.508   3.762   6.622 -0.3928  0.6769  1.0760
   99MOL0     N13541  10.533   3.690   6.499 -0.4123  0.1131 -0.2151
   99MOL0     C13542  10.522   3.555   6.481 -0.3209  0.3604 -0.2066
   99MOL0     C13543  10.571   3.531   6.355  0.9524 -0.4440  0.3306
   99MOL0     C13544  10.605   3.396   6.288  0.3649 -0.0805 -0.2345
   99MOL0     C13545  10.764   3.385   6.290 -0.0818 -0.8337  0.1795
   99MOL0     C13546  10.842   3.441   6.163  0.6276 -0.4160 -0.0497
   99MOL0     C13547  10.987   3.427   6.165  0.1318  0.2881 -0.4051
   99MOL0     O13548  11.016   3.291   6.129 -0.2374 -0.9649  0.0193
   99MOL0     C13549  11.142   3.244   6.153  0.2401  0.2217 -0.4533
   99MOL0     C13550  11.172   3.132   6.071  0.1280  0.3270  0.6560
   99MOL0     C13551  11.295   3.070   6.079  0.5778  0.0957 -0.4779
   99MOL0     C13552  11.319   2.961   5.976  0.4752  0.2720 -0.8846
   99MOL0     C13553  11.389   3.108   6.180  0.3224  0.6189 -0.2135
   99MOL0     C13554  11.516   3.030   6.201  0.3999  0.1986  0.0958
   99MOL0     O13555  11.515   2.895   6.183 -0.6548  0.0553 -1.0103
   99MOL0     C13556  11.627   2.827   6.187 -0.7460 -0.0495 -0.1861
   99MOL0     C13557  11.657   2.742   6.296  0.1398 -0.4735 -0.9598
   99MOL0     C13558  11.783   2.684   6.311  0.5930  0.4803  0.6747
   99MOL0     C13559  11.880   2.697   6.218 -0.2728 -0.2757  0.0869
   99MOL0     O13560  12.006   2.639   6.230  0.1598 -0.5327 -0.0531
   99MOL0     C13561  12.070   2.662   6.355 -0.7429  0.1933 -0.0619
   99MOL0     C13562  12.222   2.675   6.340 -0.2377 -0.1521  0.7818
   99MOL0     C13563  12.293   2.661   6.475  0.3872  0.2147  0.6492
   99MOL0     C13564  12.442   2.685   6.460 -0.5247 -1.1785 -0.4089
   99MOL0     C13565  12.533   2.666   6.577  1.2093  0.3972  0.1067
   99MOL0     C13566  12.665   2.726   6.558  0.1471 -0.3106 -0.4361
   99MOL0     C13567  12.770   2.682   6.659 -0.4789 -0.2736 -0.1166
   99MOL0     C13568  12.800   2.539   6.631  0.2482  0.9155 -0.6416
   99MOL0    Cl13569  12.951   2.488   6.728 -0.0419 -0.0058  0.0830
   99MOL0     C13570  11.853   2.781   6.110 -0.2283 -0.3974 -0.1604
   99MOL0     C13571  11.729   2.841   6.092  0.2054  0.0468 -0.2742
   99MOL0     O13572  11.606   3.100   6.248 -0.1759 -0.2711  1.3821
   99MOL0     C13573  11.357   3.214   6.263  0.9832 -0.0129  0.1303
   99MOL0     C13574  11.225   3.276   6.260  0.3130  0.0056 -0.8507
   99MOL0     N13575  10.602   3.656   6.301 -0.0431 -0.6643 -0.0082
   99MOL0     N13576  10.577   3.750   6.387  0.1803 -0.2880  0.3613
   99MOL0     C13577   9.421   3.865   6.793  1.0637  0.7525 -0.2415
   99MOL0     C13578   9.279   3.899   6.798  0.3893  0.6640  0.0239
   99MOL0     C13579   8.874   3.933   6.678  0.0204  0.4414  0.6494
   99MOL0     C13580   8.786   3.877   6.779  0.0990 -0.0772  0.2075
   99MOL0     C13581   8.654   3.912   6.784 -0.6251 -0.0400  0.4866
   99MOL0     C13582   8.616   4.021   6.708 -1.0012  0.6401  0.6617
   99MOL0     O13583   8.482   4.056   6.713  0.3403 -1.0414  0.0425
   99MOL0     C13584   8.424   4.179   6.671  1.0113 -0.6781  0.2648
   99MOL0     C13585   8.275   4.157   6.680  0.0733 -0.6494  0.1298
   99MOL0     C13586   8.176   4.251   6.607  0.3627 -0.6405  0.2841
   99MOL0     C13587   8.059   4.288   6.702  0.2308 -0.4409 -0.7149
   99MOL0     C13588   7.953   4.357   6.623  0.3294 -0.6613  0.0734
   99MOL0     C13589   7.872   4.417   6.553 -0.8688 -0.1016 -1.5508
   99MOL0     C13590   8.698   4.074   6.616 -0.3704 -1.1688 -0.0385
   99MOL0     C13591   8.833   4.036   6.600  0.1094 -0.4936  0.0482
   99MOL0     C13592   8.918   4.121   6.502  0.1370  0.1996  0.1703
   99MOL0     H13593   9.148   3.584   6.798  2.7222 -2.5696  1.4979
   99MOL0     H13594   9.380   3.521   6.838  1.0008 -0.0254  1.0242
   99MOL0     H13595   9.647   3.563   6.747  0.1651 -0.1536 -0.5481
   99MOL0     H13596   9.608   3.540   6.920 -1.3391  0.8356  0.4664
   99MOL0     H13597   9.807   3.659   6.978 -6.1088 -1.6973  0.9408
   99MOL0     H13598   9.857   3.517   6.880 -1.1089 -1.0220  0.4398
   99MOL0     H13599   9.838   3.723   6.700 -1.8208  0.5345  1.6746
   99MOL0     H13600   9.915   3.793   6.847  0.8933  0.6684 -1.7754
   99MOL0     H13601  10.076   3.586   6.823 -0.9428 -1.4011 -0.0996
   99MOL0     H13602  10.008   3.575   6.663 -0.8752  3.1159 -2.7463
   99MOL0     H13603  10.140   3.830   6.757  1.5857 -0.7351  0.1049
   99MOL0     H13604  10.067   3.797   6.591 -0.7917  0.8637  0.0868
   99MOL0     H13605  10.291   3.639   6.714 -0.5871 -0.3373 -0.9532
   99MOL0     H13606  10.258   3.636   6.540  0.6093  1.0642 -1.6346
   99MOL0     H13607  10.344   3.868   6.712 -1.8760 -0.5617  0.7940
   99MOL0     H13608  10.334   3.857   6.534 -2.8123  0.4121  1.6946
   99MOL0     H13609  10.574   3.848   6.610  1.9005 -0.8456  1.9344
   99MOL0     H13610  10.537   3.697   6.706 -0.2658 -0.6940  0.0142
   99MOL0     H13611  10.499   3.482   6.559 -0.6850  1.6849  0.9660
   99MOL0     H13612  10.571   3.394   6.184 -1.3679 -2.0512  0.2961
   99MOL0     H13613  10.560   3.309   6.336  2.8505 -0.1174  2.2443
   99MOL0     H13614  10.807   3.420   6.384  0.9374  2.6433 -1.4319
   99MOL0     H13615  10.780   3.276   6.286  1.7621 -0.5708 -3.1237
   99MOL0     H13616  10.816   3.384   6.073  0.0232 -1.6158  0.8480
   99MOL0     H13617  10.814   3.545   6.146 -3.5017 -1.7606 -3.1851
   99MOL0     H13618  11.016   3.491   6.082 -2.1171 -0.5964 -1.9783
   99MOL0     H13619  11.022   3.458   6.264 -0.5188  0.1958 -0.1376
   99MOL0     H13620  11.117   3.098   5.984  3.6813 -2.5562 -0.7491
   99MOL0     H13621  11.422   2.953   5.938  0.2495 -2.4972 -1.1562
   99MOL0     H13622  11.256   2.976   5.889 -0.2915  2.3746 -0.0328
   99MOL0     H13623  11.290   2.865   6.019 -1.6898  0.5149 -1.7179
   99MOL0     H13624  11.578   2.728   6.370 -0.0218  2.0129 -0.5869
   99MOL0     H13625  11.793   2.614   6.393 -1.2102 -2.2886 -1.2995
   99MOL0     H13626  12.029   2.755   6.395  0.3449 -0.3101  2.4632
   99MOL0     H13627  12.059   2.587   6.434  2.3936 -1.3291 -0.9098
   99MOL0     H13628  12.256   2.597   6.272  0.5202  1.3501 -0.6046
   99MOL0     H13629  12.245   2.775   6.303 -0.0586 -1.5883 -3.5925
   99MOL0     H13630  12.287   2.559   6.513 -2.2229  0.1515  0.2860
   99MOL0     H13631  12.246   2.732   6.545  0.8863 -0.3688  1.5960
   99MOL0     H13632  12.469   2.784   6.422  0.0370 -0.7421  1.0604
   99MOL0     H13633  12.478   2.614   6.385  0.6856 -0.4936 -0.5034
   99MOL0     H13634  12.489   2.715   6.664  2.5125  1.2809  0.3034
   99MOL0     H13635  12.542   2.561   6.606  6.0882  0.5559 -0.0623
   99MOL0     H13636  12.667   2.835   6.556  0.8266 -0.3230 -0.7863
   99MOL0     H13637  12.702   2.692   6.461  0.4177  0.2111 -0.5202
   99MOL0     H13638  12.730   2.707   6.757 -0.9104  1.1299 -0.6205
   99MOL0     H13639  12.861   2.739   6.639  0.5519 -1.8205  0.0197
   99MOL0     H13640  12.818   2.517   6.525 -1.3506 -2.0416 -0.4266
   99MOL0     H13641  12.720   2.476   6.672  0.0056  2.2484  1.0226
   99MOL0     H13642  11.930   2.807   6.039  1.4145 -2.9566  0.5333
   99MOL0     H13643  11.705   2.899   6.003 -0.0586 -2.1876 -1.7274
   99MOL0     H13644  11.419   3.229   6.351 -0.3742  0.7239  1.0009
   99MOL0     H13645  11.204   3.362   6.323  0.2687  0.1530 -1.0659
   99MOL0     H13646   9.494   3.943   6.813  3.4851 -1.5277  0.3753
   99MOL0     H13647   9.251   4.004   6.800 -2.0786  0.0937 -0.8078
   99MOL0     H13648   8.815   3.806   6.856 -3.2237 -0.3717  1.3452
   99MOL0     H13649   8.582   3.875   6.856 -1.0139  0.3675  0.3101
   99MOL0     H13650   8.456   4.260   6.736  1.0584 -0.1664 -0.3871
   99MOL0     H13651   8.439   4.210   6.567 -0.8233 -1.0859 -0.1735
   99MOL0     H13652   8.254   4.176   6.786  1.6906 -1.2258  0.5837
   99MOL0     H13653   8.246   4.054   6.657 -0.1530 -0.5354 -0.1114
   99MOL0     H13654   8.224   4.342   6.571 -0.2925 -1.0461 -1.7341
   99MOL0     H13655   8.137   4.206   6.515  0.5596  2.2495 -1.3082
   99MOL0     H13656   8.093   4.361   6.775  1.3249  0.5980 -2.2136
   99MOL0     H13657   8.020   4.195   6.746  1.6137 -1.8737 -2.3579
   99MOL0     H13658   7.795   4.461   6.493 -1.4858  1.7433  0.4238
   99MOL0     H13659   8.671   4.152   6.544  1.0687  0.7731  1.4129
   99MOL0     H13660   9.007   4.068   6.466  1.4924  1.2861  1.7657
   99MOL0     H13661   8.864   4.154   6.413 -1.0373 -1.1771  0.3472
   99MOL0     H13662   8.969   4.205   6.550 -1.9806  0.9738  1.1744
  100MOL0     O13663   0.224   4.441   9.265  0.0939 -0.2489 -0.1695
  100MOL0     C13664   0.167   4.526   9.331 -0.0082  0.2490 -0.3333
  100MOL0     O13665   0.210   4.567   9.451  0.3905  0.2735 -0.3249
  100MOL0     C13666   0.277   4.470   9.521 -0.0970  1.1320  0.0744
  100MOL0     C13667   0.409   4.451   9.494 -0.2042 -0.5210  0.1196
  100MOL0     C13668   0.482   4.350   9.565  0.4498  0.9099  0.0366
  100MOL0     C13669   0.429   4.270   9.668  0.2977  0.5868 -0.2690
  100MOL0     O13670   0.510   4.176   9.717  0.5174 -0.7627  0.1305
  100MOL0     C13671   0.467   4.090   9.817 -0.1654 -0.1460  0.0198
  100MOL0     C13672   0.445   4.151   9.953 -0.3027  0.0736  0.7057
  100MOL0     C13673   0.577   4.136  10.045 -0.3077  0.1278 -0.6435
  100MOL0     C13674   0.673   4.243  10.016  0.6219 -1.0659  0.9127
  100MOL0     C13675   0.804   4.243  10.094 -0.9472 -0.1612 -0.1282
  100MOL0     C13676   0.890   4.360  10.024 -1.0373 -0.0349 -0.1436
  100MOL0     C13677   1.042   4.369  10.053 -0.9772 -0.3756  0.6788
  100MOL0     C13678   1.062   4.434  10.194 -0.0121  1.3717  1.0052
  100MOL0     N13679   1.196   4.409  10.246  0.1263  0.5796 -0.7703
  100MOL0     C13680   1.303   4.476  10.193 -0.4201  0.2636 -0.7221
  100MOL0     C13681   1.408   4.428  10.257  0.0283  0.4838 -0.4073
  100MOL0     C13682   1.551   4.474  10.222 -0.4203 -0.4828  0.8150
  100MOL0     C13683   1.603   4.381  10.108 -0.0281  0.8444 -0.9806
  100MOL0     C13684   1.612   4.231  10.147  0.4773  0.7025 -0.0127
  100MOL0     C13685   1.670   4.139  10.051  0.4416 -0.1524 -0.0260
  100MOL0     O13686   1.794   4.189   9.996  0.0833  0.7392 -0.3132
  100MOL0     C13687   1.912   4.122  10.015 -0.5777 -0.0171 -0.0629
  100MOL0     C13688   2.012   4.143   9.920 -0.2825 -0.2916 -0.0267
  100MOL0     C13689   2.134   4.080   9.912  0.2872  0.5690 -0.6378
  100MOL0     C13690   2.223   4.127   9.810 -0.1294  0.6514 -0.3734
  100MOL0     C13691   2.170   3.991  10.010 -0.7528  0.7559 -0.3492
  100MOL0     C13692   2.299   3.919  10.025 -0.4631 -0.7641 -0.0839
  100MOL0     O13693   2.336   3.865  10.143  0.3794  0.2073  0.6100
  100MOL0     C13694   2.445   3.781  10.146  1.1291  0.8334  0.3478
  100MOL0     C13695   2.524   3.781  10.258  0.2255  0.5797  0.8762
  100MOL0     C13696   2.643   3.712  10.263  0.0824 -0.3366  0.2799
  100MOL0     C13697   2.680   3.618  10.166 -0.7625 -1.1893  0.6434
  100MOL0     O13698   2.802   3.555  10.182 -0.3906  0.1124  0.3198
  100MOL0     C13699   2.821   3.438  10.098  0.0482  0.3133 -0.0300
  100MOL0     C13700   2.930   3.350  10.158  1.3377 -0.2050 -0.0180
  100MOL0     C13701   3.073   3.405  10.134  0.2053  0.6427  0.3471
  100MOL0     C13702   3.086   3.412   9.977 -0.2133 -0.3662 -0.3285
  100MOL0     C13703   3.237   3.423   9.927 -0.7690  0.8719  0.1551
  100MOL0     C13704   3.308   3.551   9.962 -0.1475  0.0042  0.2739
  100MOL0     C13705   3.439   3.576   9.890  1.1759  0.0962 -0.3895
  100MOL0     C13706   3.542   3.466   9.921 -0.6719 -0.1930  0.1522
  100MOL0    Cl13707   3.712   3.524   9.893 -0.0027 -0.1270  0.6003
  100MOL0     C13708   2.594   3.606  10.057 -0.7681  0.3758  0.0965
  100MOL0     C13709   2.478   3.688  10.043 -0.2592  0.5426 -0.8140
  100MOL0     O13710   2.368   3.923   9.927  1.0314  0.7846 -0.6006
  100MOL0     C13711   2.072   3.952  10.103  0.5080  0.9183  0.4970
  100MOL0     C13712   1.955   4.024  10.108 -0.1549  0.4401  0.3946
  100MOL0     N13713   1.364   4.330  10.348  0.4993 -0.5967  0.1430
  100MOL0     N13714   1.241   4.321  10.340  0.0092  0.2221  0.2880
  100MOL0     C13715   0.295   4.291   9.698 -0.4419 -0.4973 -0.0617
  100MOL0     C13716   0.221   4.375   9.611  0.0685 -0.1774  0.0625
  100MOL0     C13717   0.055   4.602   9.255 -0.0424 -0.2920  0.4558
  100MOL0     C13718   0.033   4.739   9.287 -0.0450  0.8344  0.0321
  100MOL0     C13719  -0.052   4.812   9.207  0.7148  0.1589  0.8565
  100MOL0     C13720  -0.137   4.760   9.107  0.4684  0.0937  0.3129
  100MOL0     O13721  -0.195   4.843   9.018  0.6468  0.4785  0.2460
  100MOL0     C13722  -0.269   4.965   9.059  0.0011  0.4483 -0.8146
  100MOL0     C13723  -0.384   5.007   8.972  0.2101 -0.5772  0.3157
  100MOL0     C13724  -0.489   4.894   8.939  0.3108 -0.0034  0.3271
  100MOL0     C13725  -0.594   4.957   8.838 -0.5162  0.3039  0.0042
  100MOL0     C13726  -0.544   5.000   8.702  0.5499 -0.2224  0.5970
  100MOL0     C13727  -0.515   5.037   8.590 -0.2057 -0.2873 -0.4407
  100MOL0     C13728  -0.125   4.625   9.080 -0.0883  0.5468 -0.8466
  100MOL0     C13729  -0.029   4.547   9.152 -0.1598 -0.1944  0.1957
  100MOL0     C13730  -0.028   4.402   9.120 -0.3326 -0.2273 -0.0663
  100MOL0     H13731   0.476   4.514   9.436 -0.1980  1.9705  2.6554
  100MOL0     H13732   0.586   4.342   9.533 -0.8017  1.0335 -4.7889
  100MOL0     H13733   0.538   4.007   9.821 -0.4052 -0.5318 -2.2808
  100MOL0     H13734   0.381   4.029   9.788  2.4855 -3.0713 -2.3931
  100MOL0     H13735   0.408   4.254   9.946 -0.4883  0.0981  1.8639
  100MOL0     H13736   0.361   4.098   9.999 -0.5174  0.2222  0.4901
  100MOL0     H13737   0.541   4.132  10.148  0.2050  1.6518 -0.3741
  100MOL0     H13738   0.630   4.043  10.023  0.8126  1.0051 -1.8074
  100MOL0     H13739   0.703   4.234   9.911  1.6590 -0.6893  1.1690
  100MOL0     H13740   0.623   4.341  10.016  0.2055 -1.1609 -2.3346
  100MOL0     H13741   0.841   4.141  10.078  0.7124 -0.4020  4.0131
  100MOL0     H13742   0.779   4.257  10.200  0.8532 -1.3010  0.5106
  100MOL0     H13743   0.885   4.348   9.916 -1.4346  0.0094 -0.1308
  100MOL0     H13744   0.842   4.454  10.052  1.1779  0.6823  1.5571
  100MOL0     H13745   1.093   4.439   9.986 -0.6864 -1.4226 -0.2238
  100MOL0     H13746   1.083   4.268  10.044 -0.0598  0.0030  0.4722
  100MOL0     H13747   1.050   4.542  10.188 -2.1181  1.1134 -0.0938
  100MOL0     H13748   0.991   4.399  10.270  0.6379  1.8689  1.8677
  100MOL0     H13749   1.298   4.554  10.117 -0.3228 -0.4738 -1.5079
  100MOL0     H13750   1.613   4.472  10.312  2.8430  0.6204 -1.2420
  100MOL0     H13751   1.548   4.570  10.169  0.7198 -1.4013 -1.0050
  100MOL0     H13752   1.537   4.388  10.021  0.3414 -1.4292 -1.5120
  100MOL0     H13753   1.704   4.415  10.083  1.0941 -0.6818  1.1222
  100MOL0     H13754   1.666   4.222  10.242  1.2503 -1.4782 -0.5973
  100MOL0     H13755   1.508   4.200  10.163  0.8500 -0.5210  0.1252
  100MOL0     H13756   1.684   4.046  10.106  0.2550  0.5635  1.2611
  100MOL0     H13757   1.599   4.121   9.970 -0.5543  0.2005  0.7438
  100MOL0     H13758   1.981   4.217   9.847 -0.6017  0.8180  1.1959
  100MOL0     H13759   2.166   4.160   9.722 -0.8472 -0.5120 -0.3595
  100MOL0     H13760   2.295   4.058   9.764  1.1452  1.3656  0.4888
  100MOL0     H13761   2.288   4.208   9.844 -0.0400 -0.4842  2.4111
  100MOL0     H13762   2.494   3.854  10.332 -1.1516  0.7393  0.1814
  100MOL0     H13763   2.689   3.720  10.360 -1.0686  1.6251  0.7137
  100MOL0     H13764   2.728   3.382  10.102  0.1988  0.0521 -0.1312
  100MOL0     H13765   2.840   3.453   9.991 -0.0458  0.4151 -0.0329
  100MOL0     H13766   2.917   3.350  10.267  0.4466 -0.3116 -0.1189
  100MOL0     H13767   2.913   3.246  10.130 -2.4489  0.0213  0.9068
  100MOL0     H13768   3.147   3.331  10.166 -0.0096 -0.7087 -2.0098
  100MOL0     H13769   3.081   3.500  10.187 -2.8696  0.9462  0.4440
  100MOL0     H13770   3.035   3.501   9.939  2.7774  1.2237 -0.9390
  100MOL0     H13771   3.039   3.325   9.931  1.8640 -2.5623  1.4410
  100MOL0     H13772   3.298   3.336   9.953  3.2589  3.1839 -0.6188
  100MOL0     H13773   3.239   3.415   9.817  2.5942  0.1823  0.1629
  100MOL0     H13774   3.339   3.552  10.066 -2.4101  0.0062  0.9959
  100MOL0     H13775   3.237   3.635   9.956 -1.6727 -1.0894  2.0664
  100MOL0     H13776   3.483   3.672   9.916 -0.8285  1.3539 -1.3588
  100MOL0     H13777   3.421   3.575   9.782  0.7353 -1.9636 -0.3407
  100MOL0     H13778   3.521   3.378   9.858  0.6064  0.5013 -1.3171
  100MOL0     H13779   3.527   3.442  10.026  1.5857 -1.5206  0.2437
  100MOL0     H13780   2.620   3.533   9.981 -2.1073  0.0046 -0.0403
  100MOL0     H13781   2.418   3.682   9.953 -2.4522 -1.4140  0.6615
  100MOL0     H13782   2.080   3.864  10.166 -2.1228 -1.1888 -1.8312
  100MOL0     H13783   1.873   3.997  10.174 -1.2311  0.6667 -0.8028
  100MOL0     H13784   0.244   4.233   9.775  1.1313  0.3183  1.6723
  100MOL0     H13785   0.114   4.382   9.627  0.1767 -0.3552  0.9360
  100MOL0     H13786   0.079   4.800   9.363  0.1052  0.6808  0.0649
  100MOL0     H13787  -0.058   4.920   9.215 -0.6381  0.0782  1.2900
  100MOL0     H13788  -0.302   4.960   9.163 -1.2065  0.9187 -1.1577
  100MOL0     H13789  -0.190   5.040   9.044  0.8203 -0.2280  0.0277
  100MOL0     H13790  -0.343   5.050   8.881 -2.1749 -0.0256 -0.5677
  100MOL0     H13791  -0.436   5.087   9.026  1.6974  0.2250  0.6064
  100MOL0     H13792  -0.445   4.805   8.892 -1.1564 -1.6390  1.9080
  100MOL0     H13793  -0.529   4.864   9.036  1.9088  0.0078  1.0094
  100MOL0     H13794  -0.641   5.041   8.888 -1.5646  0.7606 -1.6648
  100MOL0     H13795  -0.683   4.895   8.826 -0.4572  0.2793 -0.3388
  100MOL0     H13796  -0.482   5.077   8.496  1.0125 -0.0151  0.0901
  100MOL0     H13797  -0.179   4.582   8.996  2.3206 -2.1933 -1.1670
  100MOL0     H13798  -0.121   4.379   9.068  0.9030  2.7850 -4.0781
  100MOL0     H13799   0.059   4.395   9.054  1.7868  0.5938  2.4420
  100MOL0     H13800  -0.007   4.342   9.210  3.1875  1.3793  0.3663
  101MOL0     O13801   1.067   8.155   6.438 -0.5173  0.0721  0.1060
  101MOL0     C13802   0.968   8.179   6.369 -0.7904  0.2939 -0.1737
  101MOL0     O13803   0.972   8.222   6.241 -0.1942  0.2845 -0.0036
  101MOL0     C13804   1.092   8.217   6.175  0.1951  0.6236  0.6861
  101MOL0     C13805   1.078   8.124   6.074  0.5543  0.5598 -0.3749
  101MOL0     C13806   1.179   8.108   5.975  0.0553 -0.3745  0.3471
  101MOL0     C13807   1.299   8.177   5.998 -0.0444 -0.7758 -0.5833
  101MOL0     O13808   1.410   8.178   5.920  0.1135 -0.3859  0.0997
  101MOL0     C13809   1.428   8.081   5.812 -0.8838 -0.0658 -0.3321
  101MOL0     C13810   1.579   8.082   5.769  0.5602 -0.3919  0.2332
  101MOL0     C13811   1.677   8.042   5.883  0.7559  0.3202  0.8034
  101MOL0     C13812   1.829   8.043   5.847  0.2683 -0.5485  0.8677
  101MOL0     C13813   1.916   8.008   5.967  0.3721  0.2117 -0.6968
  101MOL0     C13814   2.065   7.998   5.927 -1.1334 -0.1634  0.0231
  101MOL0     C13815   2.135   7.962   6.057  0.2247  0.2772  0.8965
  101MOL0     C13816   2.285   7.959   6.034 -0.2583  0.0102  0.3960
  101MOL0     N13817   2.325   7.870   5.917  0.5275 -1.1197 -0.2522
  101MOL0     C13818   2.347   7.921   5.793 -0.6986 -0.2613  0.3973
  101MOL0     C13819   2.398   7.821   5.719 -0.0779 -0.3334 -0.5619
  101MOL0     C13820   2.458   7.832   5.580 -0.1013 -0.4189 -0.4761
  101MOL0     C13821   2.378   7.769   5.471  1.1677  0.8914 -1.6376
  101MOL0     C13822   2.264   7.864   5.429 -0.4381  0.2064 -0.0337
  101MOL0     C13823   2.189   7.806   5.309 -0.2655  0.1670 -0.7754
  101MOL0     O13824   2.130   7.681   5.334  0.2635  0.7245 -0.0303
  101MOL0     C13825   2.021   7.674   5.419 -0.8115 -0.2642  0.5000
  101MOL0     C13826   2.001   7.548   5.468  0.5089  0.7313 -0.5003
  101MOL0     C13827   1.889   7.521   5.551  0.4752  0.1280  0.2119
  101MOL0     C13828   1.859   7.383   5.591  0.4717 -0.6369  0.2966
  101MOL0     C13829   1.800   7.629   5.583 -0.3992 -0.2180 -0.7015
  101MOL0     C13830   1.676   7.614   5.673  0.0939  0.0638 -0.0933
  101MOL0     O13831   1.633   7.723   5.736 -0.5636 -0.3240  0.2018
  101MOL0     C13832   1.502   7.725   5.777 -0.4569  0.1012 -0.9600
  101MOL0     C13833   1.393   7.724   5.691 -0.1933  0.2058 -0.0447
  101MOL0     C13834   1.261   7.722   5.742 -1.1945  0.7477 -0.0365
  101MOL0     C13835   1.239   7.716   5.877 -0.7788  0.2002  0.2250
  101MOL0     O13836   1.106   7.714   5.927  0.3916 -0.1823  0.7478
  101MOL0     C13837   1.002   7.643   5.855  0.3914  0.4774  0.5463
  101MOL0     C13838   0.899   7.611   5.962  0.0990 -0.4411 -0.3413
  101MOL0     C13839   0.844   7.729   6.051 -0.2098 -0.7231  0.6332
  101MOL0     C13840   0.803   7.850   5.961  0.7826 -0.3309 -0.6338
  101MOL0     C13841   0.704   7.943   6.034  0.6117 -0.5286 -0.1594
  101MOL0     C13842   0.586   7.869   6.085  0.5654 -0.3924 -0.3941
  101MOL0     C13843   0.475   7.974   6.100  0.0644 -0.3105 -0.4984
  101MOL0     C13844   0.356   7.920   6.170 -0.0267  0.3649 -0.0353
  101MOL0    Cl13845   0.394   7.840   6.328 -0.0604  0.1946  0.0292
  101MOL0     C13846   1.349   7.726   5.967  0.2132  0.2768 -0.2734
  101MOL0     C13847   1.482   7.725   5.919 -0.1866 -0.3724 -0.1315
  101MOL0     O13848   1.621   7.502   5.684  0.0748 -0.1042 -0.3421
  101MOL0     C13849   1.827   7.759   5.531 -0.4357 -0.0037 -0.8922
  101MOL0     C13850   1.941   7.778   5.455  0.0827 -0.7960  0.5929
  101MOL0     N13851   2.404   7.710   5.798 -0.0252  0.6880 -0.5054
  101MOL0     N13852   2.369   7.746   5.921 -0.8437 -0.1239 -0.0977
  101MOL0     C13853   1.319   8.253   6.107 -1.0911 -0.3981  0.1142
  101MOL0     C13854   1.214   8.278   6.200  0.4440 -0.4054  0.7242
  101MOL0     C13855   0.838   8.148   6.430 -0.3373 -0.3198  0.4437
  101MOL0     C13856   0.723   8.204   6.367 -0.5569 -0.0786  0.0763
  101MOL0     C13857   0.599   8.181   6.415  0.8687 -0.3826 -0.5476
  101MOL0     C13858   0.582   8.106   6.530 -0.0273  0.1859  0.0922
  101MOL0     O13859   0.460   8.083   6.581  0.2972  0.7348  0.7960
  101MOL0     C13860   0.344   8.135   6.511  0.3736  0.5220  0.1932
  101MOL0     C13861   0.210   8.089   6.572 -1.0003  0.6352  1.0593
  101MOL0     C13862   0.091   8.128   6.485  0.3500  0.5114 -0.3304
  101MOL0     C13863  -0.038   8.142   6.576  0.2197 -0.0076  0.1663
  101MOL0     C13864  -0.047   8.039   6.674 -0.5045  0.3830 -0.2205
  101MOL0     C13865  -0.051   7.952   6.763 -0.6664 -0.5353 -0.8030
  101MOL0     C13866   0.695   8.044   6.585  0.5381  0.5567  0.0923
  101MOL0     C13867   0.820   8.073   6.545  0.7349  0.1408 -0.3214
  101MOL0     C13868   0.927   7.997   6.624 -0.0316  0.5699  1.0886
  101MOL0     H13869   0.981   8.080   6.052  0.5364  0.6347 -0.4461
  101MOL0     H13870   1.175   8.041   5.890  1.1846 -2.1370  1.5871
  101MOL0     H13871   1.366   8.108   5.726 -0.0448 -1.8463 -1.5552
  101MOL0     H13872   1.389   7.988   5.855 -3.9191  1.2050 -0.0842
  101MOL0     H13873   1.584   8.012   5.686 -0.0017 -2.1957  1.6634
  101MOL0     H13874   1.599   8.184   5.733 -0.8733 -0.5085 -0.9854
  101MOL0     H13875   1.654   8.100   5.973 -3.3408 -1.1100  0.9030
  101MOL0     H13876   1.639   7.941   5.905 -0.4476  0.2915 -1.1700
  101MOL0     H13877   1.861   7.978   5.765 -0.1770 -0.7498  0.8518
  101MOL0     H13878   1.863   8.143   5.818  2.8958 -1.8945 -1.1120
  101MOL0     H13879   1.886   7.912   6.009 -1.6834  1.1266  0.0485
  101MOL0     H13880   1.902   8.083   6.046  2.2174 -1.9783  1.9298
  101MOL0     H13881   2.074   7.921   5.850  1.2990  1.0560 -1.0099
  101MOL0     H13882   2.113   8.091   5.895  0.7121 -0.3728  1.9265
  101MOL0     H13883   2.122   7.862   6.100  0.8742 -0.4041 -0.4164
  101MOL0     H13884   2.109   8.035   6.134  1.2759  1.6969 -0.0470
  101MOL0     H13885   2.323   8.060   6.022  1.7247 -0.6129  1.0206
  101MOL0     H13886   2.346   7.923   6.117  0.8782  3.1543  1.0581
  101MOL0     H13887   2.351   8.018   5.744 -1.5910  0.0960  1.0133
  101MOL0     H13888   2.553   7.779   5.586 -0.3411 -0.7786  0.2624
  101MOL0     H13889   2.478   7.938   5.564 -2.4812  0.0206 -0.9698
  101MOL0     H13890   2.460   7.753   5.400  4.2903 -0.9417  2.0224
  101MOL0     H13891   2.340   7.672   5.504  0.0014  1.8193 -0.1047
  101MOL0     H13892   2.195   7.885   5.511 -0.4378 -0.5859  0.1816
  101MOL0     H13893   2.303   7.962   5.400  0.8714 -0.2270  0.1541
  101MOL0     H13894   2.122   7.882   5.267 -1.1612 -0.8838 -1.2955
  101MOL0     H13895   2.266   7.785   5.234  1.8860 -4.7602  2.3331
  101MOL0     H13896   2.061   7.465   5.432 -0.3214 -0.1160  0.0148
  101MOL0     H13897   1.784   7.347   5.520 -0.7412  1.1774  0.6267
  101MOL0     H13898   1.818   7.373   5.692 -1.9473  3.0003 -0.1306
  101MOL0     H13899   1.951   7.328   5.568 -0.2482 -1.4553 -0.7077
  101MOL0     H13900   1.412   7.720   5.584 -1.6149 -1.6078 -0.2708
  101MOL0     H13901   1.177   7.706   5.675 -2.0166 -2.4176  1.5506
  101MOL0     H13902   0.949   7.700   5.779 -2.6196 -2.8681 -0.1483
  101MOL0     H13903   1.044   7.555   5.804 -1.7277 -0.3635  0.1400
  101MOL0     H13904   0.804   7.576   5.920 -2.2834  2.0312  2.4922
  101MOL0     H13905   0.937   7.537   6.032 -0.5465  0.6528  1.2274
  101MOL0     H13906   0.919   7.754   6.126  0.0291 -0.0750  0.1913
  101MOL0     H13907   0.760   7.685   6.105 -0.1917  1.7808  2.9339
  101MOL0     H13908   0.745   7.815   5.874  1.3186 -0.5771 -0.8965
  101MOL0     H13909   0.884   7.910   5.919  0.7169  0.5934  0.5161
  101MOL0     H13910   0.749   8.006   6.112 -4.6421  1.0379  2.0525
  101MOL0     H13911   0.662   8.007   5.956  2.4129  0.8403 -0.0718
  101MOL0     H13912   0.604   7.805   6.172 -1.1888 -0.7156 -0.2445
  101MOL0     H13913   0.552   7.796   6.011  0.1020 -0.3782 -0.1981
  101MOL0     H13914   0.446   7.992   5.996  1.8383 -1.4304 -1.2322
  101MOL0     H13915   0.514   8.064   6.149 -1.5436  0.4819 -0.6163
  101MOL0     H13916   0.316   7.847   6.100  2.4993  1.4306 -2.8088
  101MOL0     H13917   0.286   8.004   6.176  0.7117  0.9953 -0.0366
  101MOL0     H13918   1.350   7.725   6.075 -4.2650 -0.0352 -0.0745
  101MOL0     H13919   1.571   7.728   5.983  0.3542  1.8096 -0.8916
  101MOL0     H13920   1.776   7.854   5.547 -0.2976  0.5655 -3.3706
  101MOL0     H13921   1.960   7.877   5.415 -0.9264 -0.5930  0.6016
  101MOL0     H13922   1.419   8.292   6.124 -2.1141  2.5866 -0.1123
  101MOL0     H13923   1.242   8.341   6.284  0.0715  1.1544 -0.2746
  101MOL0     H13924   0.735   8.269   6.281  3.2996 -3.1097 -1.9931
  101MOL0     H13925   0.520   8.229   6.359  0.4653  1.7023  1.6108
  101MOL0     H13926   0.353   8.244   6.518  2.5118  0.3408  1.4509
  101MOL0     H13927   0.346   8.100   6.408  0.8853  1.0962  0.0015
  101MOL0     H13928   0.198   8.137   6.670 -2.5558 -1.6293  2.0794
  101MOL0     H13929   0.213   7.980   6.582  0.2965  0.0839 -3.3370
  101MOL0     H13930   0.105   8.218   6.424 -1.2724  1.0922  0.0971
  101MOL0     H13931   0.088   8.036   6.426 -4.2261 -0.2282  0.6799
  101MOL0     H13932  -0.134   8.154   6.524  0.8267  0.8709 -0.7909
  101MOL0     H13933  -0.026   8.225   6.645  0.0904 -1.1002  1.5575
  101MOL0     H13934  -0.057   7.879   6.841  0.7115  0.9744  0.7932
  101MOL0     H13935   0.673   7.970   6.661 -0.6586  0.2927 -0.4839
  101MOL0     H13936   0.881   7.917   6.683 -1.2120  1.8689  1.9702
  101MOL0     H13937   0.998   7.950   6.554 -0.2955  0.9986  0.5241
  101MOL0     H13938   0.987   8.061   6.689  3.4316 -0.7956 -0.5016
  102MOL0     O13939   9.596   2.459   6.523 -0.1082  0.4837 -0.0014
  102MOL0     C13940   9.530   2.372   6.582  0.0912 -0.1779  0.3167
  102MOL0     O13941   9.567   2.240   6.590  0.2690 -0.8474  0.5525
  102MOL0     C13942   9.710   2.210   6.584 -0.9225 -1.1300 -0.4407
  102MOL0     C13943   9.785   2.252   6.700  0.3249 -0.2228  0.2007
  102MOL0     C13944   9.917   2.228   6.703  0.3346  0.3096  0.1782
  102MOL0     C13945   9.975   2.148   6.604  0.3515 -0.5249 -0.0701
  102MOL0     O13946  10.106   2.113   6.629  0.1651  0.8501 -0.2552
  102MOL0     C13947  10.159   2.028   6.527 -0.3031  0.3136  0.3652
  102MOL0     C13948  10.295   1.970   6.575  0.1038  0.2232  1.0417
  102MOL0     C13949  10.404   2.076   6.604 -0.7577 -0.0310 -0.2633
  102MOL0     C13950  10.534   2.010   6.662 -0.4771 -0.7551  0.4435
  102MOL0     C13951  10.647   2.120   6.678  0.3959  0.4196  0.3682
  102MOL0     C13952  10.785   2.059   6.694  0.0074  0.1755 -0.4552
  102MOL0     C13953  10.802   1.947   6.800 -0.0172  0.4922  0.2357
  102MOL0     C13954  10.805   1.989   6.946 -0.1339  0.1010 -0.6866
  102MOL0     N13955  10.946   2.026   6.976 -0.3025 -0.4091  0.0061
  102MOL0     C13956  10.996   2.155   6.982  0.0475  1.1280 -0.7109
  102MOL0     C13957  11.128   2.137   6.978  0.3987 -0.2895 -0.4731
  102MOL0     C13958  11.219   2.255   6.976  0.3748  0.1964  0.4388
  102MOL0     C13959  11.364   2.216   6.964 -0.0419 -0.3240  1.2891
  102MOL0     C13960  11.428   2.327   6.882 -1.2192 -0.8281  0.3451
  102MOL0     C13961  11.584   2.312   6.887 -0.2537 -0.3278 -0.3656
  102MOL0     O13962  11.640   2.192   6.820 -0.5043 -0.1287  0.1369
  102MOL0     C13963  11.767   2.161   6.857 -0.2008 -0.0410  0.1807
  102MOL0     C13964  11.840   2.233   6.949  0.5142  0.1319 -0.5091
  102MOL0     C13965  11.962   2.179   7.000 -0.9653  0.7891 -0.5585
  102MOL0     C13966  12.034   2.255   7.096  0.0279  0.1368 -0.5979
  102MOL0     C13967  12.014   2.056   6.954  0.8857  0.0874  0.7381
  102MOL0     C13968  12.139   1.992   7.001 -0.1867 -0.0307  0.2691
  102MOL0     O13969  12.214   2.037   7.114  0.0908 -0.2953 -0.1954
  102MOL0     C13970  12.318   1.984   7.180 -0.3373 -0.1250  0.9526
  102MOL0     C13971  12.371   2.066   7.279  0.2232  0.0762 -0.2580
  102MOL0     C13972  12.490   2.037   7.350  0.6247 -0.1574  0.9361
  102MOL0     C13973  12.542   1.910   7.321  0.4327  0.5750 -0.2912
  102MOL0     O13974  12.652   1.859   7.385  0.6735  0.4034 -0.0816
  102MOL0     C13975  12.652   1.868   7.533  0.8353  0.3316  0.5870
  102MOL0     C13976  12.771   1.797   7.585 -0.0834 -0.0951  0.2708
  102MOL0     C13977  12.771   1.651   7.536  0.2827  0.3152 -0.1964
  102MOL0     C13978  12.856   1.556   7.629  0.1115  0.0651  0.1984
  102MOL0     C13979  13.004   1.566   7.588  0.4465  0.3112 -0.7286
  102MOL0     C13980  13.088   1.469   7.678  0.3793  0.6704 -0.0515
  102MOL0     C13981  13.074   1.495   7.821  0.4472 -1.0308 -0.3246
  102MOL0     C13982  13.097   1.639   7.857 -0.1195  0.0263  0.8099
  102MOL0    Cl13983  13.141   1.675   8.024 -0.3851 -0.0613 -0.5086
  102MOL0     C13984  12.488   1.820   7.230 -0.1736 -0.5207  0.5173
  102MOL0     C13985  12.380   1.860   7.150 -0.0463 -0.0382 -0.5293
  102MOL0     O13986  12.183   1.907   6.923 -0.3664  0.4698  0.6276
  102MOL0     C13987  11.944   1.993   6.853  0.2235  0.5449  0.1948
  102MOL0     C13988  11.825   2.043   6.807  0.7086 -0.9188  0.1150
  102MOL0     N13989  11.154   2.004   6.981  0.0314  0.0095 -0.6224
  102MOL0     N13990  11.042   1.936   6.986  0.0547 -0.4022 -0.4455
  102MOL0     C13991   9.902   2.111   6.494  0.3592  0.2301  0.9606
  102MOL0     C13992   9.769   2.145   6.480 -0.3796  0.1085  0.6168
  102MOL0     C13993   9.408   2.409   6.650  0.1203  0.7095 -0.0802
  102MOL0     C13994   9.385   2.341   6.768 -0.1113 -0.2844 -0.5523
  102MOL0     C13995   9.267   2.361   6.844 -0.2944  0.3296 -0.1203
  102MOL0     C13996   9.178   2.466   6.809 -0.2232 -0.1719 -0.3102
  102MOL0     O13997   9.069   2.500   6.888  0.0825  0.1920  0.0056
  102MOL0     C13998   8.960   2.426   6.850  0.7500  0.1128  0.6879
  102MOL0     C13999   8.849   2.526   6.879 -0.6062  0.1533 -0.3747
  102MOL0     C14000   8.863   2.569   7.023 -0.1508 -0.6641 -0.7644
  102MOL0     C14001   8.722   2.584   7.089 -0.7726 -0.2444 -0.5514
  102MOL0     C14002   8.656   2.454   7.110 -0.0052  0.1972  0.9596
  102MOL0     C14003   8.600   2.350   7.144 -0.9143 -0.2515 -0.6089
  102MOL0     C14004   9.211   2.536   6.695 -0.4282 -1.4859 -0.3365
  102MOL0     C14005   9.323   2.508   6.611 -0.2471  0.1383 -0.0188
  102MOL0     C14006   9.323   2.580   6.474 -0.1057 -0.8708 -0.1624
  102MOL0     H14007   9.742   2.306   6.784  0.6534  0.4868 -0.0769
  102MOL0     H14008   9.979   2.254   6.788  0.4086 -1.2601  0.6468
  102MOL0     H14009  10.167   2.072   6.427  0.3339  1.7958  1.0295
  102MOL0     H14010  10.090   1.943   6.519  0.3521 -0.3965  1.9185
  102MOL0     H14011  10.267   1.909   6.661 -3.3753 -1.2980 -0.9671
  102MOL0     H14012  10.336   1.897   6.505 -2.0880  1.1897 -1.3725
  102MOL0     H14013  10.435   2.129   6.513  1.5754 -0.5424  0.1453
  102MOL0     H14014  10.358   2.139   6.679  0.6055  0.6793  0.0106
  102MOL0     H14015  10.511   1.965   6.759  1.9829 -2.4598  0.3328
  102MOL0     H14016  10.562   1.938   6.584 -1.1422  0.7267 -1.2241
  102MOL0     H14017  10.629   2.193   6.757 -1.7887  2.1115 -1.5585
  102MOL0     H14018  10.646   2.181   6.587  0.7492 -2.9508 -2.0934
  102MOL0     H14019  10.814   2.027   6.594  0.4876 -0.8357 -0.0091
  102MOL0     H14020  10.854   2.141   6.719  1.6981 -1.4206  0.3202
  102MOL0     H14021  10.892   1.887   6.782 -0.3795 -0.7202  2.1060
  102MOL0     H14022  10.721   1.875   6.786  0.8394 -0.2378 -1.2205
  102MOL0     H14023  10.740   2.074   6.967 -0.1832 -0.0575 -0.1733
  102MOL0     H14024  10.779   1.906   7.013  1.7921 -0.5449 -0.6728
  102MOL0     H14025  10.948   2.251   6.968  0.9631  1.3382 -2.8484
  102MOL0     H14026  11.212   2.306   7.073 -4.0263  1.7092 -0.4333
  102MOL0     H14027  11.179   2.318   6.896  0.9596  0.9497  0.7223
  102MOL0     H14028  11.419   2.208   7.059  1.7497 -0.0224  0.3189
  102MOL0     H14029  11.376   2.119   6.914 -1.4358  0.6090 -0.9677
  102MOL0     H14030  11.403   2.332   6.775  1.7580  4.9479 -0.5057
  102MOL0     H14031  11.407   2.421   6.933 -1.5045  0.0165 -1.2533
  102MOL0     H14032  11.631   2.401   6.844 -2.5973  1.7768  1.1521
  102MOL0     H14033  11.601   2.312   6.995 -1.5446 -0.1541 -0.1461
  102MOL0     H14034  11.809   2.330   6.988  2.2514  0.8970 -0.9555
  102MOL0     H14035  12.136   2.279   7.064 -0.0368  1.6303  0.2147
  102MOL0     H14036  12.032   2.193   7.186  0.2447  0.3130 -0.4693
  102MOL0     H14037  11.979   2.347   7.120  0.0493  0.1862 -0.7386
  102MOL0     H14038  12.325   2.163   7.290  2.9679  1.4037  0.4548
  102MOL0     H14039  12.537   2.109   7.416  0.3917  1.0635 -0.1922
  102MOL0     H14040  12.651   1.976   7.555 -3.3266  0.8705 -1.3159
  102MOL0     H14041  12.562   1.824   7.578  1.0991 -1.3619 -0.4529
  102MOL0     H14042  12.866   1.843   7.555  0.1179 -2.2775 -2.9740
  102MOL0     H14043  12.780   1.806   7.693  0.3291 -1.5439  0.3811
  102MOL0     H14044  12.820   1.640   7.439  0.6803 -1.0493  0.1423
  102MOL0     H14045  12.672   1.605   7.537  1.3038 -2.0864 -1.4821
  102MOL0     H14046  12.833   1.451   7.609  2.3253 -0.0108 -2.4624
  102MOL0     H14047  12.852   1.580   7.735  1.5939  0.1136  0.2549
  102MOL0     H14048  13.027   1.550   7.482 -0.1282  1.4488 -1.0408
  102MOL0     H14049  13.040   1.668   7.603  1.2677 -0.1706  0.7599
  102MOL0     H14050  13.188   1.495   7.642  0.5046  0.0549 -0.1712
  102MOL0     H14051  13.070   1.362   7.658  1.5540  0.4863 -0.1894
  102MOL0     H14052  13.154   1.442   7.874 -0.3930 -2.2341 -0.2346
  102MOL0     H14053  12.978   1.470   7.867  0.3151  1.3748  0.8361
  102MOL0     H14054  13.011   1.701   7.828 -0.9144 -2.1154 -1.8769
  102MOL0     H14055  13.184   1.673   7.801 -1.0821  1.0312 -0.1294
  102MOL0     H14056  12.553   1.733   7.218  0.9372  0.0131  2.1837
  102MOL0     H14057  12.349   1.796   7.068 -1.0373 -1.1727  0.6848
  102MOL0     H14058  11.979   1.903   6.803  3.5591  1.3074  0.8711
  102MOL0     H14059  11.756   1.992   6.741  0.1633 -0.9249  0.6768
  102MOL0     H14060   9.932   2.054   6.407 -2.2592  1.3219 -0.7679
  102MOL0     H14061   9.720   2.104   6.392 -0.0933 -1.9680  1.3534
  102MOL0     H14062   9.449   2.260   6.801 -3.3493 -2.1358  1.7746
  102MOL0     H14063   9.238   2.300   6.929 -1.2073 -0.6408 -1.0884
  102MOL0     H14064   8.957   2.384   6.749  1.5212 -2.8704  1.8002
  102MOL0     H14065   8.945   2.336   6.911  0.5413 -0.7646 -0.6149
  102MOL0     H14066   8.759   2.464   6.869 -0.3901 -0.5376  1.5808
  102MOL0     H14067   8.843   2.615   6.816 -1.1797 -0.4504 -1.2053
  102MOL0     H14068   8.916   2.494   7.082 -2.1849  0.2042  2.4467
  102MOL0     H14069   8.928   2.657   7.024 -1.0913  0.0491 -0.1061
  102MOL0     H14070   8.651   2.646   7.034 -2.7684 -0.9842  1.0496
  102MOL0     H14071   8.743   2.622   7.189 -0.2723 -1.7778 -0.0366
  102MOL0     H14072   8.548   2.260   7.168  0.3509 -1.6547 -2.7687
  102MOL0     H14073   9.146   2.618   6.670 -1.4498 -2.0717  0.3360
  102MOL0     H14074   9.332   2.504   6.395  1.2765 -3.2111  2.0794
  102MOL0     H14075   9.229   2.635   6.466  0.4893  0.4730  1.4831
  102MOL0     H14076   9.407   2.648   6.460 -0.4849  0.0342  1.6763
  103MOL0     O14077   3.172   8.010   7.913 -0.0531  0.4356 -1.1033
  103MOL0     C14078   3.067   8.000   7.982 -0.8410 -0.6043  1.1831
  103MOL0     O14079   3.052   7.942   8.100  0.6983  0.5298 -0.3140
  103MOL0     C14080   3.162   7.887   8.167  0.3765 -0.6122 -0.2485
  103MOL0     C14081   3.147   7.883   8.302 -0.2693 -0.1500 -1.4333
  103MOL0     C14082   3.243   7.831   8.387  0.1476 -0.2052 -0.7290
  103MOL0     C14083   3.358   7.787   8.325  0.0545  1.3077 -0.3967
  103MOL0     O14084   3.449   7.744   8.418  0.0512 -0.4633  1.1949
  103MOL0     C14085   3.583   7.704   8.386 -0.5713 -0.1225 -0.2655
  103MOL0     C14086   3.677   7.822   8.361  0.0839 -0.3623  0.1654
  103MOL0     C14087   3.825   7.784   8.390 -0.0109 -1.0440  0.1400
  103MOL0     C14088   3.872   7.853   8.522  0.1716  0.6243  1.1088
  103MOL0     C14089   3.822   7.779   8.648  0.9526  0.1550 -0.3943
  103MOL0     C14090   3.836   7.866   8.774  0.1604  0.1000 -0.3019
  103MOL0     C14091   3.714   7.953   8.795 -0.2113 -0.8877  0.0039
  103MOL0     C14092   3.745   8.052   8.913 -0.1366 -0.4170  0.2389
  103MOL0     N14093   3.767   7.987   9.037 -1.0145  0.2899  0.0981
  103MOL0     C14094   3.665   7.948   9.117  0.6092  0.2351  0.4460
  103MOL0     C14095   3.722   7.876   9.220 -0.1892 -0.0903  0.4053
  103MOL0     C14096   3.649   7.824   9.336  0.6202 -1.2381 -0.1373
  103MOL0     C14097   3.600   7.927   9.430 -0.4712 -0.9305 -1.5212
  103MOL0     C14098   3.457   7.990   9.404 -0.6876  0.1280 -0.1864
  103MOL0     C14099   3.350   7.880   9.435  0.6713 -0.1743 -0.2000
  103MOL0     O14100   3.232   7.949   9.451 -0.2660 -0.3599  0.5480
  103MOL0     C14101   3.153   7.970   9.332 -0.3556 -0.3839 -0.4508
  103MOL0     C14102   3.050   8.063   9.352  0.4857  0.6922 -0.6171
  103MOL0     C14103   2.967   8.104   9.245 -0.6247  0.2188  0.1933
  103MOL0     C14104   2.844   8.188   9.283 -0.0410  0.4434 -0.1159
  103MOL0     C14105   3.006   8.075   9.113  0.2838  0.0491  0.3376
  103MOL0     C14106   2.927   8.120   8.987 -0.1945 -0.1286 -0.4815
  103MOL0     O14107   2.998   8.103   8.871 -0.3771 -0.1216 -0.0802
  103MOL0     C14108   2.934   8.144   8.757  0.5817 -0.4402 -0.7308
  103MOL0     C14109   2.929   8.276   8.719 -0.0281 -0.1580  0.3003
  103MOL0     C14110   2.850   8.307   8.602  0.0509 -0.2661 -0.0268
  103MOL0     C14111   2.771   8.205   8.532  0.3310 -0.2278 -0.0959
  103MOL0     O14112   2.708   8.232   8.414 -0.0040  0.4399 -0.5331
  103MOL0     C14113   2.575   8.192   8.389 -0.1361 -0.0808 -0.3773
  103MOL0     C14114   2.552   8.219   8.238  0.2604 -0.3717 -0.3626
  103MOL0     C14115   2.426   8.145   8.185  0.9902  0.4314 -0.0954
  103MOL0     C14116   2.374   8.204   8.045  0.8048  0.5120  0.0929
  103MOL0     C14117   2.271   8.113   7.978 -0.4770 -0.3438 -0.0892
  103MOL0     C14118   2.203   8.177   7.859  0.0527 -1.1406 -0.3453
  103MOL0     C14119   2.080   8.254   7.909  0.0006 -0.5193  0.1565
  103MOL0     C14120   2.026   8.351   7.796 -0.8689 -0.1555  0.5821
  103MOL0    Cl14121   2.130   8.491   7.754 -0.0656  0.1887  0.0616
  103MOL0     C14122   2.776   8.076   8.581 -0.5383 -0.7690 -0.0527
  103MOL0     C14123   2.850   8.053   8.699  0.3525 -0.4130 -0.0663
  103MOL0     O14124   2.806   8.150   8.996  0.1498  0.3691  0.3194
  103MOL0     C14125   3.126   8.009   9.097  0.5187  0.1647 -0.7791
  103MOL0     C14126   3.186   7.944   9.202 -0.1595  0.3826  0.0183
  103MOL0     N14127   3.860   7.868   9.205  0.0641 -0.2755  0.1413
  103MOL0     N14128   3.885   7.937   9.098 -1.1462  0.7135 -0.0171
  103MOL0     C14129   3.382   7.793   8.187 -0.6053  0.6762  0.7865
  103MOL0     C14130   3.279   7.839   8.105  0.5878 -0.7225 -0.0506
  103MOL0     C14131   2.937   8.039   7.916  0.1718 -0.4501 -1.0900
  103MOL0     C14132   2.954   8.095   7.787  0.3826 -0.3806  0.0801
  103MOL0     C14133   2.846   8.142   7.714  0.3067  0.2204  0.0751
  103MOL0     C14134   2.716   8.129   7.771 -0.2273 -0.6739  0.3612
  103MOL0     O14135   2.604   8.186   7.714 -0.3559  0.2642 -0.0449
  103MOL0     C14136   2.604   8.250   7.588 -1.2125  0.4593  1.0555
  103MOL0     C14137   2.463   8.262   7.540 -0.3255 -0.7210  0.5760
  103MOL0     C14138   2.398   8.125   7.495 -1.1617  0.4545 -0.0478
  103MOL0     C14139   2.336   8.129   7.359  0.1722 -0.1980 -0.5658
  103MOL0     C14140   2.234   8.022   7.361  0.7091  0.0019  0.7146
  103MOL0     C14141   2.175   7.918   7.335 -0.2284 -0.1293 -0.0741
  103MOL0     C14142   2.698   8.055   7.894  0.3709  0.2222  0.1045
  103MOL0     C14143   2.809   8.014   7.966 -0.1515 -0.0141 -0.0238
  103MOL0     C14144   2.777   7.916   8.082  0.5895  0.3095 -1.0712
  103MOL0     H14145   3.052   7.920   8.340  1.5183  1.1601  2.1519
  103MOL0     H14146   3.222   7.823   8.493 -1.1324 -1.3471 -1.0454
  103MOL0     H14147   3.588   7.631   8.305  1.7366 -0.9706  0.5371
  103MOL0     H14148   3.623   7.658   8.477 -0.2286  3.6962  1.7153
  103MOL0     H14149   3.657   7.864   8.262  1.2723 -1.4380 -0.5565
  103MOL0     H14150   3.656   7.904   8.430  0.3505  0.5359 -0.7994
  103MOL0     H14151   3.843   7.676   8.390  0.8399 -0.9964 -2.9940
  103MOL0     H14152   3.887   7.829   8.311  2.4907 -2.2694  1.2842
  103MOL0     H14153   3.981   7.840   8.525  0.3505 -3.6662 -5.2675
  103MOL0     H14154   3.840   7.957   8.535 -0.5474  0.4740  0.5948
  103MOL0     H14155   3.882   7.691   8.669 -0.8839 -1.0663  0.0042
  103MOL0     H14156   3.717   7.750   8.634 -0.2137  4.2257 -1.5520
  103MOL0     H14157   3.850   7.803   8.862  1.1300 -1.2078 -1.3449
  103MOL0     H14158   3.933   7.916   8.764  0.6517 -0.5590  0.9883
  103MOL0     H14159   3.630   7.883   8.806  0.4817 -1.7404 -0.0667
  103MOL0     H14160   3.703   8.020   8.709 -0.7627  1.7167  1.9844
  103MOL0     H14161   3.836   8.109   8.896 -0.2764 -0.2928 -0.1046
  103MOL0     H14162   3.677   8.137   8.923 -0.5851 -1.0301  3.3798
  103MOL0     H14163   3.559   7.972   9.114  0.4363 -0.5839 -0.4829
  103MOL0     H14164   3.706   7.748   9.391 -0.0178 -0.6432  1.4254
  103MOL0     H14165   3.562   7.776   9.291  1.2703 -1.5241 -1.1005
  103MOL0     H14166   3.609   7.878   9.528 -2.7987  0.2227 -0.6464
  103MOL0     H14167   3.673   8.010   9.431  0.0805 -1.3430  1.3930
  103MOL0     H14168   3.433   8.076   9.468 -0.7845  1.3417 -1.7866
  103MOL0     H14169   3.442   8.012   9.298  0.6941  1.5329 -0.1344
  103MOL0     H14170   3.356   7.804   9.356  0.9726 -0.3766  0.0143
  103MOL0     H14171   3.370   7.816   9.521 -1.3746 -1.7285 -0.7709
  103MOL0     H14172   3.032   8.093   9.454 -0.4992 -1.1427 -0.2117
  103MOL0     H14173   2.753   8.155   9.232 -0.0855  2.6592 -1.5996
  103MOL0     H14174   2.856   8.294   9.261 -0.3699  1.4238  3.7530
  103MOL0     H14175   2.834   8.179   9.391 -0.9638  0.1007 -0.2194
  103MOL0     H14176   2.993   8.336   8.782 -1.6767 -1.5279  3.5131
  103MOL0     H14177   2.842   8.408   8.564 -2.7042  0.2612  1.6930
  103MOL0     H14178   2.561   8.087   8.414 -2.2815  0.5627  1.3987
  103MOL0     H14179   2.499   8.250   8.441 -1.3359 -0.1997 -1.9241
  103MOL0     H14180   2.535   8.324   8.212  3.0364  0.3117  0.2675
  103MOL0     H14181   2.643   8.194   8.183 -0.5744  2.0208 -3.1247
  103MOL0     H14182   2.349   8.144   8.263  0.6050 -0.7370 -0.4638
  103MOL0     H14183   2.437   8.036   8.183  0.0933  0.3343 -0.1619
  103MOL0     H14184   2.456   8.214   7.973  1.6549  1.0173  1.1182
  103MOL0     H14185   2.325   8.301   8.060  0.5148  0.6973 -1.7783
  103MOL0     H14186   2.319   8.019   7.951 -2.7190 -0.5016 -4.3741
  103MOL0     H14187   2.195   8.085   8.053 -2.9944  3.1878 -1.0679
  103MOL0     H14188   2.164   8.098   7.794  0.0569  1.2569 -3.4826
  103MOL0     H14189   2.279   8.237   7.809  2.3587 -3.4060  0.2563
  103MOL0     H14190   2.119   8.306   7.997  4.3310 -2.1895 -0.5190
  103MOL0     H14191   2.003   8.179   7.929  1.4623 -2.3032 -0.5655
  103MOL0     H14192   1.923   8.375   7.824 -1.1033  0.4684 -0.7371
  103MOL0     H14193   2.026   8.295   7.703  3.6399 -0.6782  0.6466
  103MOL0     H14194   2.722   7.989   8.545 -1.0100 -1.0160  1.2136
  103MOL0     H14195   2.857   7.952   8.739  0.3220  0.4056  2.1265
  103MOL0     H14196   3.164   7.990   8.997  3.3005 -1.4480  0.4798
  103MOL0     H14197   3.265   7.873   9.180 -1.2423 -1.4905  1.8147
  103MOL0     H14198   3.472   7.745   8.151 -1.7861 -2.8427  2.0382
  103MOL0     H14199   3.294   7.837   7.998  4.3041  0.7041  0.3086
  103MOL0     H14200   3.053   8.116   7.749  1.0212  0.1459  1.9494
  103MOL0     H14201   2.864   8.187   7.616 -0.5578  0.1610 -0.1138
  103MOL0     H14202   2.641   8.353   7.585  1.2850 -0.3814 -1.1326
  103MOL0     H14203   2.666   8.195   7.516 -0.7795 -0.4672  2.0987
  103MOL0     H14204   2.463   8.327   7.452 -0.3796 -1.3325  0.1201
  103MOL0     H14205   2.396   8.320   7.605 -3.6282 -1.7096 -1.6777
  103MOL0     H14206   2.484   8.058   7.496  0.0853  1.9598 -0.9571
  103MOL0     H14207   2.324   8.093   7.569 -0.5310 -3.1375 -0.7838
  103MOL0     H14208   2.411   8.120   7.279 -0.3629  0.4585 -1.1583
  103MOL0     H14209   2.279   8.220   7.344 -1.7089 -1.0809  0.8388
  103MOL0     H14210   2.122   7.830   7.306 -1.4055  1.0040 -1.5886
  103MOL0     H14211   2.597   8.034   7.928  0.0352  0.3737 -0.7646
  103MOL0     H14212   2.813   7.958   8.177 -0.1820 -1.5942  0.1176
  103MOL0     H14213   2.669   7.901   8.090  0.5857  1.4265  2.7122
  103MOL0     H14214   2.823   7.820   8.058 -0.4511 -0.1830 -1.1458
  104MOL0     O14215   4.335   1.393   5.164  1.0411 -0.0415 -0.0969
  104MOL0     C14216   4.235   1.379   5.234  0.3978  0.2566 -0.5694
  104MOL0     O14217   4.228   1.289   5.343 -0.2317 -0.2947 -0.0417
  104MOL0     C14218   4.315   1.186   5.364 -1.3323  0.4262 -0.2550
  104MOL0     C14219   4.421   1.197   5.458  0.3751  0.2284 -0.0000
  104MOL0     C14220   4.495   1.082   5.495  1.4188 -0.1226  1.2385
  104MOL0     C14221   4.482   0.967   5.418  0.0495 -0.2464 -0.3129
  104MOL0     O14222   4.571   0.865   5.453  0.0678  0.0286 -0.4281
  104MOL0     C14223   4.607   0.774   5.351  0.0216  0.5730  0.2532
  104MOL0     C14224   4.729   0.689   5.390  0.3481  0.5719  0.2275
  104MOL0     C14225   4.851   0.780   5.386 -0.2127  0.3464 -0.1491
  104MOL0     C14226   4.985   0.705   5.347  0.8949  0.2639  0.4498
  104MOL0     C14227   5.118   0.781   5.353  1.0820  0.2730  0.3830
  104MOL0     C14228   5.235   0.684   5.327  0.6678 -0.1117 -0.0699
  104MOL0     C14229   5.372   0.743   5.351 -0.0346 -0.5114  0.2081
  104MOL0     C14230   5.487   0.664   5.278  1.2848  0.2333 -0.6017
  104MOL0     N14231   5.625   0.700   5.327  0.4311  0.4746 -0.0603
  104MOL0     C14232   5.742   0.671   5.262 -0.5648  0.2497  0.0591
  104MOL0     C14233   5.846   0.667   5.346  0.3419 -0.0181 -0.1245
  104MOL0     C14234   5.997   0.647   5.316  0.2639 -0.0806  0.5489
  104MOL0     C14235   6.067   0.550   5.415 -0.8915  0.3358 -0.3587
  104MOL0     C14236   6.063   0.410   5.369  0.0477  0.0693  0.2909
  104MOL0     C14237   6.070   0.312   5.484 -1.3001  0.6522 -0.5646
  104MOL0     O14238   5.972   0.206   5.473  0.2381  0.1964 -0.3676
  104MOL0     C14239   5.844   0.224   5.511  0.9622 -0.5986 -0.6190
  104MOL0     C14240   5.767   0.102   5.527  0.0932  0.1853 -0.3097
  104MOL0     C14241   5.649   0.097   5.597  1.2444 -1.0868  0.0168
  104MOL0     C14242   5.576  -0.039   5.620  0.1703  0.9085 -0.1256
  104MOL0     C14243   5.592   0.219   5.638  0.7006  0.8699  0.4583
  104MOL0     C14244   5.451   0.236   5.690  0.5898 -0.5203  0.8604
  104MOL0     O14245   5.422   0.347   5.773 -0.2414 -0.6195 -0.4178
  104MOL0     C14246   5.302   0.413   5.760  0.5315  0.2640  0.6879
  104MOL0     C14247   5.187   0.351   5.814  0.4340  0.7732 -0.0210
  104MOL0     C14248   5.063   0.419   5.805  0.1753  0.3384  0.0041
  104MOL0     C14249   5.054   0.546   5.746 -0.3442 -0.3837  0.6118
  104MOL0     O14250   4.946   0.628   5.737  0.2233  0.0394  0.5979
  104MOL0     C14251   4.828   0.606   5.821  1.1031  0.2861  0.3078
  104MOL0     C14252   4.761   0.751   5.832  1.0503  0.2191  0.6545
  104MOL0     C14253   4.769   0.814   5.970  0.3580  0.5188  0.3903
  104MOL0     C14254   4.737   0.960   5.977  0.3133  0.2477  0.0409
  104MOL0     C14255   4.728   1.004   6.117  0.4978 -0.5147 -0.1197
  104MOL0     C14256   4.752   1.165   6.118  1.3700 -0.2279 -0.1729
  104MOL0     C14257   4.729   1.232   6.259 -0.5584  0.5444 -0.3835
  104MOL0     C14258   4.644   1.357   6.246 -0.4797 -0.2487  0.0386
  104MOL0    Cl14259   4.663   1.440   6.405  0.2328 -0.1623  0.2882
  104MOL0     C14260   5.172   0.611   5.706 -0.2215 -0.3179 -0.8412
  104MOL0     C14261   5.298   0.547   5.726  0.8847  1.8957  0.6684
  104MOL0     O14262   5.357   0.161   5.645  0.1886 -0.1174  0.2785
  104MOL0     C14263   5.665   0.336   5.627 -0.5114 -0.5556 -0.7758
  104MOL0     C14264   5.793   0.346   5.567  0.6803  0.3888  0.2850
  104MOL0     N14265   5.791   0.691   5.476 -0.3940 -0.6788 -0.1943
  104MOL0     N14266   5.663   0.718   5.461  0.4488  0.6753  0.5742
  104MOL0     C14267   4.375   0.955   5.328 -0.3507  1.1354  0.6856
  104MOL0     C14268   4.291   1.063   5.298 -0.7319  0.0857  0.7336
  104MOL0     C14269   4.108   1.428   5.193  1.1615 -0.8488  0.1203
  104MOL0     C14270   3.988   1.376   5.245  0.6455  0.4466 -0.1660
  104MOL0     C14271   3.868   1.442   5.227 -0.2699 -0.1330  0.7321
  104MOL0     C14272   3.855   1.562   5.150 -0.8600 -0.5064 -0.3051
  104MOL0     O14273   3.734   1.625   5.132  0.0985  0.4703 -0.0909
  104MOL0     C14274   3.649   1.639   5.248  0.6584  0.1588 -0.3086
  104MOL0     C14275   3.516   1.683   5.205 -0.0388  0.5283 -0.5003
  104MOL0     C14276   3.428   1.723   5.332  0.0757  0.6266  0.8732
  104MOL0     C14277   3.303   1.793   5.293 -0.3897  0.4094  0.3381
  104MOL0     C14278   3.183   1.712   5.261 -0.4541 -0.0377 -0.6096
  104MOL0     C14279   3.087   1.658   5.210  0.6802  0.1271  0.5544
  104MOL0     C14280   3.971   1.605   5.084  0.6643  0.5320 -0.1351
  104MOL0     C14281   4.101   1.545   5.108 -0.6120  0.5909 -0.2787
  104MOL0     C14282   4.215   1.622   5.051 -0.3060  0.5153  0.3145
  104MOL0     H14283   4.426   1.290   5.514 -3.1916 -1.1294  2.9163
  104MOL0     H14284   4.580   1.092   5.562  2.6125  0.9797 -0.3591
  104MOL0     H14285   4.624   0.829   5.258  0.5103  1.5799  0.9268
  104MOL0     H14286   4.526   0.703   5.333 -0.4336  0.8711  1.0835
  104MOL0     H14287   4.723   0.643   5.489  0.6031 -0.3537 -0.1677
  104MOL0     H14288   4.741   0.604   5.322  1.4371  1.0498 -0.2001
  104MOL0     H14289   4.836   0.857   5.309  0.9241 -1.5375 -2.3798
  104MOL0     H14290   4.851   0.836   5.480 -1.2913  0.1102 -0.0044
  104MOL0     H14291   4.999   0.615   5.407  2.3213 -1.0575 -1.7236
  104MOL0     H14292   4.960   0.679   5.244  0.1782 -0.1852  0.7299
  104MOL0     H14293   5.119   0.830   5.451  2.6041 -0.2158  0.6361
  104MOL0     H14294   5.126   0.860   5.278  0.4306 -0.0817 -0.0720
  104MOL0     H14295   5.231   0.598   5.393 -1.6520 -1.9534 -2.3849
  104MOL0     H14296   5.230   0.651   5.222 -0.4192  0.0127 -0.0719
  104MOL0     H14297   5.397   0.735   5.457  2.3228 -1.5705 -0.3715
  104MOL0     H14298   5.374   0.843   5.307 -2.3253 -1.4452 -2.3427
  104MOL0     H14299   5.463   0.559   5.298  2.0547 -0.4868 -3.0576
  104MOL0     H14300   5.490   0.679   5.169  0.6949  4.3129 -0.1878
  104MOL0     H14301   5.742   0.682   5.154  1.7112 -0.8458 -0.1069
  104MOL0     H14302   6.047   0.744   5.326 -0.6214  0.4293  0.1768
  104MOL0     H14303   6.008   0.615   5.212 -2.0324  1.7432 -0.3393
  104MOL0     H14304   6.168   0.591   5.411 -1.4068  2.3698  3.1524
  104MOL0     H14305   6.018   0.562   5.513 -1.6023 -0.0320 -0.6644
  104MOL0     H14306   5.974   0.397   5.307  1.5281 -0.9470 -1.7297
  104MOL0     H14307   6.149   0.394   5.303  0.8741 -0.1427  1.3940
  104MOL0     H14308   6.166   0.261   5.478 -0.9963  1.0615  0.4906
  104MOL0     H14309   6.050   0.356   5.582 -4.7585  1.4230 -1.4493
  104MOL0     H14310   5.814   0.007   5.506 -2.2253 -1.8711  2.9149
  104MOL0     H14311   5.647  -0.118   5.594  0.0313  0.4544  0.8531
  104MOL0     H14312   5.495  -0.046   5.546 -0.7458  3.8500  0.4602
  104MOL0     H14313   5.545  -0.065   5.721  1.8099 -1.2864 -0.1053
  104MOL0     H14314   5.194   0.250   5.853 -1.7909 -0.7600 -3.1015
  104MOL0     H14315   4.974   0.375   5.848 -0.3719  1.7357  0.3697
  104MOL0     H14316   4.771   0.527   5.770  0.2956 -0.0540  1.7076
  104MOL0     H14317   4.852   0.573   5.922  0.1596 -1.0825  0.1130
  104MOL0     H14318   4.793   0.818   5.752 -3.0830  1.5468 -0.0983
  104MOL0     H14319   4.657   0.732   5.804  1.8062  2.0361 -4.3293
  104MOL0     H14320   4.869   0.803   6.014  1.2150 -0.9829 -1.7777
  104MOL0     H14321   4.707   0.753   6.035  0.4368 -0.4842 -0.4598
  104MOL0     H14322   4.647   0.968   5.915  0.3057 -3.2969 -0.5831
  104MOL0     H14323   4.813   1.013   5.919 -0.8674 -1.1704 -3.0281
  104MOL0     H14324   4.627   0.980   6.154 -0.5631  2.8158 -0.4929
  104MOL0     H14325   4.798   0.955   6.185  1.0144 -0.0126 -0.2835
  104MOL0     H14326   4.676   1.213   6.055  3.1687  2.5440 -0.3730
  104MOL0     H14327   4.844   1.201   6.072  0.9010 -0.9573 -1.7420
  104MOL0     H14328   4.825   1.244   6.309  0.7843 -4.6401 -1.1164
  104MOL0     H14329   4.675   1.158   6.319  1.7690 -0.2907  0.7940
  104MOL0     H14330   4.540   1.327   6.229 -0.6566  0.1434  0.4151
  104MOL0     H14331   4.689   1.410   6.161 -3.4280 -1.6070 -2.5633
  104MOL0     H14332   5.173   0.715   5.674 -1.5077  1.1179  3.1692
  104MOL0     H14333   5.388   0.601   5.699 -0.2780  2.7423 -1.8172
  104MOL0     H14334   5.632   0.431   5.668  2.0314  0.1236 -0.1593
  104MOL0     H14335   5.853   0.436   5.558  4.5956 -2.0942 -0.9434
  104MOL0     H14336   4.367   0.859   5.278 -2.8971  1.3418  0.5761
  104MOL0     H14337   4.213   1.053   5.223  1.0664 -0.3537 -1.1649
  104MOL0     H14338   3.983   1.281   5.298  2.7055 -0.6304 -1.7080
  104MOL0     H14339   3.773   1.391   5.242 -0.4569  0.3787  1.3614
  104MOL0     H14340   3.636   1.542   5.296  2.1412  0.1067  0.0448
  104MOL0     H14341   3.705   1.708   5.313  1.5354 -0.1688 -0.7023
  104MOL0     H14342   3.464   1.596   5.162 -0.0941  0.4422 -0.2587
  104MOL0     H14343   3.526   1.762   5.130  0.4391  1.4670  0.5258
  104MOL0     H14344   3.411   1.633   5.392  2.5448  0.4837  1.4720
  104MOL0     H14345   3.489   1.790   5.393  2.0001  0.3617 -0.6567
  104MOL0     H14346   3.334   1.867   5.218  1.8315  1.5045  2.1990
  104MOL0     H14347   3.285   1.862   5.377  0.2100 -1.0389  1.7095
  104MOL0     H14348   3.006   1.599   5.172 -1.2645  3.3330 -0.6923
  104MOL0     H14349   3.967   1.695   5.024  0.3227  1.1771  0.8333
  104MOL0     H14350   4.279   1.644   5.137  0.4168 -0.2078 -0.0215
  104MOL0     H14351   4.264   1.572   4.967 -2.5545  0.4079 -1.0001
  104MOL0     H14352   4.176   1.708   4.995 -2.9819  0.0452  1.3129
  105MOL0     O14353   9.077   5.952   0.025  0.7630 -0.5508  0.4109
  105MOL0     C14354   9.042   5.845  -0.017 -0.2331  0.8985  0.9594
  105MOL0     O14355   9.091   5.727   0.036  0.0260  0.5237 -0.9579
  105MOL0     C14356   9.201   5.732   0.118  0.0811 -0.4648  0.5528
  105MOL0     C14357   9.187   5.692   0.250 -0.7150  0.1960  0.6848
  105MOL0     C14358   9.291   5.714   0.342 -1.0047 -0.5019 -0.8620
  105MOL0     C14359   9.423   5.747   0.295 -0.3789 -0.2231  0.5329
  105MOL0     O14360   9.527   5.743   0.386  0.0581  0.2641  0.4022
  105MOL0     C14361   9.660   5.770   0.345 -0.5232  0.2949  0.5366
  105MOL0     C14362   9.751   5.734   0.457 -0.1722  0.3612 -0.5062
  105MOL0     C14363   9.737   5.833   0.575 -0.2322 -0.1445  0.9016
  105MOL0     C14364   9.780   5.980   0.551  0.7392  0.2039  0.4773
  105MOL0     C14365   9.887   6.028   0.650  0.0623  0.0769  0.6145
  105MOL0     C14366  10.019   5.943   0.649  0.1647  0.3898 -0.7176
  105MOL0     C14367  10.128   6.003   0.735 -0.0140 -0.5595 -0.4337
  105MOL0     C14368  10.263   5.934   0.714  0.1826  0.5724 -0.5569
  105MOL0     N14369  10.371   5.976   0.799 -0.3510  0.0067 -0.5764
  105MOL0     C14370  10.396   6.106   0.842 -0.5398  0.1061  0.1334
  105MOL0     C14371  10.509   6.093   0.914  0.1559  0.1319  0.2147
  105MOL0     C14372  10.577   6.206   0.984 -0.0211 -0.0468 -0.7732
  105MOL0     C14373  10.713   6.224   0.912 -1.2124 -0.1063  0.2136
  105MOL0     C14374  10.811   6.327   0.960 -0.9436  1.8079  0.5760
  105MOL0     C14375  10.953   6.300   0.912  0.3858  0.4524 -0.6020
  105MOL0     O14376  11.041   6.408   0.925  0.4836 -0.0739  0.0645
  105MOL0     C14377  11.180   6.393   0.909 -0.4942 -0.3314  0.6665
  105MOL0     C14378  11.245   6.267   0.917 -0.6759 -0.0462  0.0081
  105MOL0     C14379  11.386   6.256   0.920  0.1469  0.0971 -0.0315
  105MOL0     C14380  11.450   6.118   0.943  0.3070 -0.2046  0.1032
  105MOL0     C14381  11.468   6.372   0.927 -0.7083 -0.9047 -0.5618
  105MOL0     C14382  11.617   6.370   0.932 -0.1419 -0.1752 -0.1600
  105MOL0     O14383  11.698   6.476   0.974 -0.0936  0.3023 -0.5128
  105MOL0     C14384  11.840   6.478   0.989  0.8460  0.0553  0.5374
  105MOL0     C14385  11.906   6.478   1.117  1.0066 -0.4187  0.2882
  105MOL0     C14386  12.046   6.500   1.112  0.3342 -0.4330  0.0788
  105MOL0     C14387  12.113   6.479   0.996 -0.2394  1.6554 -0.2252
  105MOL0     O14388  12.252   6.467   1.007  0.0625 -0.4257  0.1170
  105MOL0     C14389  12.338   6.530   0.916  0.1668  0.0846 -0.1021
  105MOL0     C14390  12.485   6.494   0.930 -0.6677 -1.0842  0.3798
  105MOL0     C14391  12.531   6.530   1.072 -0.0392 -0.4451  0.5027
  105MOL0     C14392  12.674   6.568   1.073 -0.9987  0.1998 -0.3802
  105MOL0     C14393  12.767   6.459   1.003  0.1409  0.4521  0.2954
  105MOL0     C14394  12.918   6.489   1.023  0.1782 -0.1480  0.1392
  105MOL0     C14395  12.973   6.450   1.165 -0.3485  0.4031  0.5790
  105MOL0     C14396  13.125   6.471   1.190  0.5628 -1.2577 -0.3306
  105MOL0    Cl14397  13.174   6.433   1.359  0.2748  0.1652  0.4210
  105MOL0     C14398  12.052   6.470   0.874 -0.6500  0.9276  0.3952
  105MOL0     C14399  11.913   6.467   0.876 -0.6530 -0.2956  0.6579
  105MOL0     O14400  11.667   6.276   0.871 -0.3695 -0.3899  0.4768
  105MOL0     C14401  11.401   6.499   0.919 -1.1825 -0.1350  0.1537
  105MOL0     C14402  11.266   6.505   0.902 -0.2796  0.4164  0.4822
  105MOL0     N14403  10.539   5.957   0.920  0.2109 -0.9354 -0.1062
  105MOL0     N14404  10.453   5.883   0.852 -0.1911 -0.5603 -0.7480
  105MOL0     C14405   9.436   5.781   0.158 -0.0518 -0.6736  0.5976
  105MOL0     C14406   9.319   5.784   0.075 -0.7556 -0.6071  0.3293
  105MOL0     C14407   8.940   5.834  -0.129 -0.2033  0.4653 -1.0291
  105MOL0     C14408   8.931   5.718  -0.213 -0.2637  0.7508 -0.3708
  105MOL0     C14409   8.838   5.696  -0.316  0.3759  0.0362 -0.8427
  105MOL0     C14410   8.755   5.795  -0.355 -0.3626  0.4315  0.1374
  105MOL0     O14411   8.677   5.800  -0.468  0.3076 -0.2315 -0.7991
  105MOL0     C14412   8.552   5.729  -0.449 -0.9823  0.4779  0.3498
  105MOL0     C14413   8.434   5.764  -0.529 -0.5508  0.8556 -0.2558
  105MOL0     C14414   8.485   5.784  -0.673 -0.3807  0.3222  0.2355
  105MOL0     C14415   8.360   5.784  -0.763 -0.6879  0.2279  0.8686
  105MOL0     C14416   8.393   5.816  -0.903  0.2408 -0.9213  0.2097
  105MOL0     C14417   8.427   5.855  -1.012 -0.9022 -0.5649  0.1158
  105MOL0     C14418   8.753   5.906  -0.274 -0.6279 -0.1550 -1.0689
  105MOL0     C14419   8.838   5.931  -0.158 -0.4584 -0.1247  0.2648
  105MOL0     C14420   8.813   6.054  -0.084 -0.2356  0.6091 -0.2013
  105MOL0     H14421   9.090   5.651   0.276 -1.2215  0.9585  0.0307
  105MOL0     H14422   9.269   5.682   0.443 -2.4095  2.6992 -0.0538
  105MOL0     H14423   9.673   5.876   0.322  2.6589 -0.1057  0.1097
  105MOL0     H14424   9.693   5.712   0.259  1.9311  1.2422  0.7697
  105MOL0     H14425   9.718   5.638   0.500 -1.6334  1.7137  1.5908
  105MOL0     H14426   9.854   5.717   0.426 -0.2791  0.2218 -0.7951
  105MOL0     H14427   9.634   5.842   0.611  0.1122  1.6373  1.5240
  105MOL0     H14428   9.797   5.789   0.655  1.0647 -0.2405 -0.0825
  105MOL0     H14429   9.822   5.978   0.450  0.1522 -1.1412  0.2364
  105MOL0     H14430   9.691   6.044   0.552 -0.2107 -0.9000 -2.5471
  105MOL0     H14431   9.838   6.031   0.748  1.4437 -1.7032  1.4322
  105MOL0     H14432   9.903   6.130   0.617 -0.5142  0.6101  1.9115
  105MOL0     H14433  10.004   5.839   0.679  1.5690  0.1598 -0.7739
  105MOL0     H14434  10.039   5.949   0.542 -0.1779  0.4180 -0.7807
  105MOL0     H14435  10.119   5.994   0.843 -0.1050  2.0437 -0.1548
  105MOL0     H14436  10.138   6.112   0.724 -0.1024 -0.4997  0.0657
  105MOL0     H14437  10.248   5.830   0.743  0.4619  1.1291  1.8397
  105MOL0     H14438  10.289   5.952   0.609 -1.9622  0.6973 -1.1155
  105MOL0     H14439  10.331   6.192   0.829 -0.2205  0.1363 -1.4268
  105MOL0     H14440  10.592   6.183   1.090  1.0339 -2.2646 -1.3466
  105MOL0     H14441  10.511   6.293   0.980 -0.5276 -0.4050 -0.3811
  105MOL0     H14442  10.760   6.126   0.922 -2.3088 -0.7422 -0.5964
  105MOL0     H14443  10.700   6.247   0.806  2.5477 -3.8406 -1.3584
  105MOL0     H14444  10.773   6.425   0.930  1.6537  2.3760 -1.1474
  105MOL0     H14445  10.812   6.330   1.069 -2.3468  0.7392  0.6524
  105MOL0     H14446  10.989   6.216   0.971 -1.0628  0.4210  0.2681
  105MOL0     H14447  10.943   6.272   0.806  3.6317 -0.5703 -0.7491
  105MOL0     H14448  11.193   6.173   0.929 -0.4910 -0.1484  0.0174
  105MOL0     H14449  11.510   6.084   0.857 -2.0616 -0.0498 -1.7191
  105MOL0     H14450  11.371   6.046   0.963  0.2963  0.2321  1.7401
  105MOL0     H14451  11.512   6.112   1.033 -0.7109  1.3250  0.9390
  105MOL0     H14452  11.847   6.478   1.208 -1.3531  0.8204 -1.1087
  105MOL0     H14453  12.107   6.506   1.202  0.8681  1.6304 -0.3706
  105MOL0     H14454  12.308   6.528   0.811 -2.5681  2.5836  0.5052
  105MOL0     H14455  12.322   6.635   0.940 -3.5153 -0.9590  3.1381
  105MOL0     H14456  12.505   6.390   0.902  0.0889 -0.4597 -1.5539
  105MOL0     H14457  12.546   6.543   0.854 -3.0189 -1.0907 -1.6335
  105MOL0     H14458  12.528   6.450   1.147 -0.5901 -1.3878 -0.5154
  105MOL0     H14459  12.473   6.611   1.118 -0.2230 -0.9451  1.1743
  105MOL0     H14460  12.696   6.576   1.180 -2.9243  1.8236 -0.0419
  105MOL0     H14461  12.694   6.664   1.026  1.7652  0.0386  0.2584
  105MOL0     H14462  12.750   6.366   1.060  0.5057  0.2981  0.1538
  105MOL0     H14463  12.745   6.439   0.898  1.2786 -1.3579  0.3496
  105MOL0     H14464  12.937   6.596   1.012  4.3810 -0.7627 -0.3363
  105MOL0     H14465  12.978   6.437   0.948 -0.8715 -1.6963  0.3086
  105MOL0     H14466  12.948   6.344   1.172  0.8122  0.0604 -0.3254
  105MOL0     H14467  12.923   6.504   1.247 -2.0363 -0.7895  0.4070
  105MOL0     H14468  13.150   6.576   1.173  0.5423 -1.5839 -2.6604
  105MOL0     H14469  13.183   6.416   1.115  1.5867  0.6846 -1.0402
  105MOL0     H14470  12.116   6.468   0.786 -0.1515 -0.2935  0.7543
  105MOL0     H14471  11.852   6.471   0.786 -1.8592  0.1986  1.4688
  105MOL0     H14472  11.449   6.596   0.905 -1.6011 -0.0264 -0.6163
  105MOL0     H14473  11.212   6.599   0.895  0.2026  0.6394 -0.3405
  105MOL0     H14474   9.533   5.817   0.129 -0.6347 -0.4341 -1.1300
  105MOL0     H14475   9.329   5.820  -0.027 -3.8589 -0.4509 -0.0269
  105MOL0     H14476   8.997   5.635  -0.193  0.8069  1.3924 -1.1354
  105MOL0     H14477   8.820   5.596  -0.355 -1.3336  0.3378 -0.9086
  105MOL0     H14478   8.573   5.623  -0.467  1.2671  0.8718  0.4121
  105MOL0     H14479   8.518   5.746  -0.347 -1.0172  1.5547  0.1775
  105MOL0     H14480   8.396   5.861  -0.494  0.0273  1.6839 -1.7827
  105MOL0     H14481   8.361   5.683  -0.527 -0.4429  0.7654  1.4603
  105MOL0     H14482   8.540   5.879  -0.677  2.2890 -1.1159  0.8185
  105MOL0     H14483   8.546   5.703  -0.714 -1.2967  0.7477 -2.1609
  105MOL0     H14484   8.296   5.870  -0.743  0.7999  1.2594  1.4007
  105MOL0     H14485   8.305   5.690  -0.763 -0.7779  0.2770  0.3917
  105MOL0     H14486   8.452   5.912  -1.098  2.3639 -0.4600  0.9967
  105MOL0     H14487   8.686   5.986  -0.304 -0.4152  0.4253 -0.0424
  105MOL0     H14488   8.857   6.144  -0.127  0.6674  1.3083  2.0384
  105MOL0     H14489   8.705   6.065  -0.068 -0.3759 -0.9389  0.1155
  105MOL0     H14490   8.858   6.042   0.015 -2.4741  0.1951  0.8449
  106MOL0     O14491   0.166   8.137   9.390 -0.4432  0.3429 -0.2748
  106MOL0     C14492   0.211   8.249   9.365 -0.2776 -0.4137 -0.2311
  106MOL0     O14493   0.133   8.356   9.361  0.6558  0.6309 -0.2140
  106MOL0     C14494   0.010   8.345   9.418  0.1652  1.0054 -0.3672
  106MOL0     C14495  -0.105   8.335   9.335  0.0359 -0.4009  0.7533
  106MOL0     C14496  -0.238   8.323   9.396  0.4468 -1.0683  0.0504
  106MOL0     C14497  -0.249   8.319   9.538 -0.4186 -0.1275 -0.0830
  106MOL0     O14498  -0.372   8.293   9.595  0.0909 -0.6115 -0.3776
  106MOL0     C14499  -0.366   8.231   9.725  0.2802  0.9304  0.7164
  106MOL0     C14500  -0.499   8.182   9.797  0.4427 -0.2441 -0.6971
  106MOL0     C14501  -0.594   8.301   9.798  0.0265  0.0103  0.4221
  106MOL0     C14502  -0.727   8.276   9.876  1.4650 -0.2500 -0.3253
  106MOL0     C14503  -0.819   8.403   9.881 -0.1886  0.8683 -0.4257
  106MOL0     C14504  -0.938   8.379   9.986 -0.7680 -0.2092 -0.6616
  106MOL0     C14505  -0.882   8.354  10.130  0.8921 -0.8737  0.0339
  106MOL0     C14506  -1.010   8.316  10.216 -0.2446 -0.3507  0.6921
  106MOL0     N14507  -0.964   8.295  10.357 -0.3401 -0.2050  0.3150
  106MOL0     C14508  -0.873   8.200  10.389 -0.5071 -0.1337  0.1366
  106MOL0     C14509  -0.872   8.206  10.520 -0.2954 -0.3507 -0.2339
  106MOL0     C14510  -0.779   8.139  10.613 -0.5780  0.0960 -0.3791
  106MOL0     C14511  -0.685   8.028  10.562  0.1161 -0.5075 -0.8945
  106MOL0     C14512  -0.570   8.017  10.661 -0.7390  1.2872 -0.2475
  106MOL0     C14513  -0.470   7.908  10.617  0.2908  0.5604  0.4002
  106MOL0     O14514  -0.429   7.941  10.487 -0.7177 -0.4457 -0.1714
  106MOL0     C14515  -0.296   7.902  10.470  0.1932 -0.4512 -0.3427
  106MOL0     C14516  -0.224   8.013  10.413 -1.2401  0.0348 -0.6014
  106MOL0     C14517  -0.082   8.008  10.398  0.2437  0.7692  0.5116
  106MOL0     C14518  -0.007   8.129  10.350 -0.8447  0.0331 -0.7653
  106MOL0     C14519  -0.016   7.880  10.402  1.4002  0.4030  0.1961
  106MOL0     C14520   0.116   7.840  10.347 -0.0285 -0.3785  0.0406
  106MOL0     O14521   0.156   7.703  10.341 -0.3338 -0.6015 -0.1227
  106MOL0     C14522   0.262   7.675  10.252  0.8932 -0.1873 -0.2586
  106MOL0     C14523   0.240   7.636  10.116 -0.1363  0.2311 -0.4216
  106MOL0     C14524   0.351   7.608  10.032 -0.1964 -0.1567 -0.4613
  106MOL0     C14525   0.486   7.622  10.082  0.0343 -0.3222  0.2053
  106MOL0     O14526   0.584   7.588   9.989 -0.1078  0.5281 -0.0391
  106MOL0     C14527   0.717   7.599  10.041  1.1639 -0.1309 -0.6444
  106MOL0     C14528   0.772   7.736  10.058  0.5596 -0.4321  0.7246
  106MOL0     C14529   0.917   7.732  10.103 -0.6955  0.1467 -0.2672
  106MOL0     C14530   0.943   7.684  10.251 -0.1510 -0.7734  0.7889
  106MOL0     C14531   1.097   7.656  10.273 -0.4220  0.2042  0.2626
  106MOL0     C14532   1.120   7.593  10.424  0.1377  0.3884  1.0033
  106MOL0     C14533   1.273   7.554  10.435 -0.2251 -1.1411 -0.1806
  106MOL0     C14534   1.302   7.462  10.559  0.3697 -0.2149  0.2273
  106MOL0    Cl14535   1.227   7.531  10.704  0.0805 -0.0427  0.3077
  106MOL0     C14536   0.499   7.673  10.217 -0.6158 -0.9354 -0.0296
  106MOL0     C14537   0.392   7.686  10.302  0.1502  0.8011 -0.3655
  106MOL0     O14538   0.182   7.931  10.303  0.4646  0.3596 -0.6349
  106MOL0     C14539  -0.092   7.768  10.462 -0.4658  0.5576 -0.3159
  106MOL0     C14540  -0.224   7.784  10.499  0.0185  0.0846 -0.6087
  106MOL0     N14541  -0.961   8.300  10.570  0.1168 -0.4442  0.4774
  106MOL0     N14542  -1.009   8.357  10.461 -0.0566 -0.1009 -0.3717
  106MOL0     C14543  -0.129   8.321   9.613 -0.5263  0.1730 -0.0979
  106MOL0     C14544  -0.004   8.330   9.554  0.1230 -0.5063  0.8809
  106MOL0     C14545   0.347   8.253   9.314  0.3196 -0.1864 -0.9939
  106MOL0     C14546   0.373   8.346   9.206 -0.6436 -0.5284 -0.0975
  106MOL0     C14547   0.488   8.351   9.134  1.1813  0.4161 -0.0963
  106MOL0     C14548   0.585   8.258   9.170 -0.1196 -0.9404 -0.0758
  106MOL0     O14549   0.709   8.255   9.109  0.2693 -0.8416 -0.7466
  106MOL0     C14550   0.707   8.240   8.968  0.0853  1.5976  0.2553
  106MOL0     C14551   0.700   8.091   8.920 -0.8989  0.3215  0.5670
  106MOL0     C14552   0.837   8.010   8.929  0.1427  0.2179  0.5521
  106MOL0     C14553   0.864   7.953   9.075 -0.4849 -0.0707 -0.0635
  106MOL0     C14554   0.787   7.821   9.106 -0.1713 -0.7271 -0.0440
  106MOL0     C14555   0.703   7.737   9.142 -0.3143  0.5012 -0.5081
  106MOL0     C14556   0.568   8.169   9.272 -0.0870 -0.7205  0.2337
  106MOL0     C14557   0.448   8.165   9.347  0.5487 -0.0163 -0.0380
  106MOL0     C14558   0.432   8.070   9.458 -0.3155 -1.3779  0.1836
  106MOL0     H14559  -0.085   8.336   9.228 -0.8554 -1.3071  0.5629
  106MOL0     H14560  -0.329   8.312   9.337 -1.5189  3.6124  1.7659
  106MOL0     H14561  -0.323   8.301   9.797  1.5843  0.2577  0.6320
  106MOL0     H14562  -0.303   8.142   9.715  1.5254  1.7398  1.1270
  106MOL0     H14563  -0.544   8.100   9.739  0.0208  0.0753 -0.8251
  106MOL0     H14564  -0.481   8.141   9.897  2.1654  1.1104 -0.4108
  106MOL0     H14565  -0.549   8.381   9.858 -2.8216  3.7386 -1.9534
  106MOL0     H14566  -0.604   8.330   9.693 -1.3874 -1.7896  0.0155
  106MOL0     H14567  -0.787   8.194   9.834 -1.3799  2.5393 -2.1163
  106MOL0     H14568  -0.692   8.249   9.976  1.1060 -1.2727 -0.4614
  106MOL0     H14569  -0.857   8.414   9.779 -2.5496  0.2416  0.3220
  106MOL0     H14570  -0.756   8.485   9.916 -0.0380 -0.4689  2.6922
  106MOL0     H14571  -1.002   8.467   9.995 -0.1202  0.4610 -2.2137
  106MOL0     H14572  -0.999   8.293   9.958  0.7136 -1.9856  1.2527
  106MOL0     H14573  -0.837   8.444  10.172 -0.6042 -0.7482  1.4693
  106MOL0     H14574  -0.817   8.266  10.135  0.0063 -1.6114 -0.8296
  106MOL0     H14575  -1.079   8.401  10.219 -1.0308 -0.9816  0.8547
  106MOL0     H14576  -1.068   8.228  10.188 -0.7329 -0.1327  0.9979
  106MOL0     H14577  -0.821   8.139  10.316  0.6992  0.7695  0.2019
  106MOL0     H14578  -0.836   8.104  10.701  2.3530  0.1175  1.6691
  106MOL0     H14579  -0.715   8.217  10.654 -1.4618 -0.9938  3.5196
  106MOL0     H14580  -0.736   7.933  10.549 -3.6497  1.1587  0.2506
  106MOL0     H14581  -0.648   8.062  10.465  2.7146  0.7977  0.4401
  106MOL0     H14582  -0.510   8.109  10.668 -2.4025  2.3917  0.0196
  106MOL0     H14583  -0.611   8.004  10.762 -1.7465  2.6409 -0.4485
  106MOL0     H14584  -0.392   7.905  10.694 -1.7097  0.5095  2.4986
  106MOL0     H14585  -0.513   7.808  10.607 -0.1772  0.8007 -0.0480
  106MOL0     H14586  -0.268   8.111  10.395  1.3439  1.4790  0.3994
  106MOL0     H14587   0.082   8.145  10.412 -2.0950 -0.3378  1.1945
  106MOL0     H14588  -0.063   8.223  10.358  0.7948  0.9467  0.5416
  106MOL0     H14589   0.016   8.106  10.245 -0.6637 -0.6301 -0.5824
  106MOL0     H14590   0.138   7.638  10.080 -0.8419  3.4820  1.2989
  106MOL0     H14591   0.328   7.570   9.933 -0.0508  2.2830 -1.5053
  106MOL0     H14592   0.725   7.555  10.141  0.6644  2.1905  0.4762
  106MOL0     H14593   0.776   7.541   9.970  3.4069 -0.6694  1.5483
  106MOL0     H14594   0.774   7.790   9.963 -1.2790 -2.8787 -0.8244
  106MOL0     H14595   0.713   7.804  10.121 -1.2636  1.1868 -2.4580
  106MOL0     H14596   0.963   7.830  10.093  1.6145 -0.9484 -1.2070
  106MOL0     H14597   0.967   7.665  10.033 -3.4170  2.0312 -4.3298
  106MOL0     H14598   0.889   7.591  10.267  3.2228 -3.1904 -0.5868
  106MOL0     H14599   0.906   7.762  10.318 -2.7531 -1.6095  0.4120
  106MOL0     H14600   1.139   7.596  10.191 -1.6849  2.5727 -2.2949
  106MOL0     H14601   1.152   7.750  10.273  1.0704 -0.6251  0.8580
  106MOL0     H14602   1.064   7.499  10.431  1.0136 -0.1647  0.8293
  106MOL0     H14603   1.085   7.670  10.493  0.7035  0.7013  0.9513
  106MOL0     H14604   1.330   7.648  10.437 -2.0188 -0.0165  1.5123
  106MOL0     H14605   1.293   7.511  10.337 -1.8322  3.0529 -2.6217
  106MOL0     H14606   1.410   7.464  10.579  0.1788 -3.0032  2.0721
  106MOL0     H14607   1.273   7.357  10.545  1.6807 -0.5373 -0.2351
  106MOL0     H14608   0.596   7.690  10.262 -0.3115  0.8861 -1.2350
  106MOL0     H14609   0.406   7.717  10.405  1.3885 -1.9200  0.3715
  106MOL0     H14610  -0.054   7.667  10.474 -1.9021 -0.3954 -2.8226
  106MOL0     H14611  -0.273   7.699  10.544  0.8351  0.6287  1.4332
  106MOL0     H14612  -0.117   8.325   9.721  1.9807  3.5685 -0.3514
  106MOL0     H14613   0.082   8.326   9.621  1.1174  0.4626 -0.2850
  106MOL0     H14614   0.296   8.420   9.185 -1.4362 -0.5087  2.5767
  106MOL0     H14615   0.497   8.415   9.048 -1.6475  0.9133 -0.0923
  106MOL0     H14616   0.615   8.286   8.931 -0.6468  1.6968  2.0890
  106MOL0     H14617   0.799   8.278   8.923  2.0364  1.2038  3.5762
  106MOL0     H14618   0.651   8.110   8.825  0.5629  1.4817  0.0002
  106MOL0     H14619   0.625   8.040   8.982  1.0039  0.3480  3.0932
  106MOL0     H14620   0.831   7.932   8.854 -0.9838  2.0351 -1.3573
  106MOL0     H14621   0.918   8.070   8.887  0.3631 -0.1567  0.4383
  106MOL0     H14622   0.854   8.027   9.156  0.7641 -1.6688  1.6364
  106MOL0     H14623   0.968   7.921   9.070  0.4574  2.7637 -0.4935
  106MOL0     H14624   0.645   7.653   9.177  1.7912 -1.3539 -1.2628
  106MOL0     H14625   0.654   8.106   9.294 -1.3095 -3.6026 -2.4324
  106MOL0     H14626   0.380   7.981   9.422 -0.2981 -1.0152 -0.7689
  106MOL0     H14627   0.528   8.039   9.500 -0.2390 -0.5301  0.6557
  106MOL0     H14628   0.369   8.114   9.536  0.5429  0.9635 -0.3615
  107MOL0     O14629   7.387   0.150   2.991  0.1058 -0.5860  0.0750
  107MOL0     C14630   7.354   0.264   3.023  0.2738  0.1940  0.1705
  107MOL0     O14631   7.241   0.333   2.977 -0.2359  0.4760 -0.1544
  107MOL0     C14632   7.145   0.254   2.924 -0.9025 -0.6975  0.2754
  107MOL0     C14633   7.130   0.224   2.790  0.3130 -0.4540  0.2051
  107MOL0     C14634   7.027   0.135   2.748  0.2189 -0.2192 -0.2032
  107MOL0     C14635   6.921   0.099   2.842  0.2096 -0.2343 -0.1079
  107MOL0     O14636   6.819   0.011   2.812 -0.5340 -0.0929  0.6269
  107MOL0     C14637   6.770   0.003   2.682 -0.6722  0.0935 -0.5906
  107MOL0     C14638   6.670  -0.119   2.678 -0.1177 -0.6169  0.0343
  107MOL0     C14639   6.559  -0.094   2.784 -0.4509 -0.1626  0.0109
  107MOL0     C14640   6.474  -0.224   2.797 -0.2815  0.0900 -0.0801
  107MOL0     C14641   6.356  -0.203   2.891  0.4483  0.4171 -0.6478
  107MOL0     C14642   6.402  -0.152   3.028  0.1055  0.2865 -0.0073
  107MOL0     C14643   6.288  -0.133   3.134  1.4035 -0.2642  1.6331
  107MOL0     C14644   6.239  -0.260   3.204 -0.5036 -0.4377  0.5226
  107MOL0     N14645   6.144  -0.343   3.120 -0.4534  0.9148  0.2558
  107MOL0     C14646   6.036  -0.299   3.047  0.3185 -0.4418  0.4234
  107MOL0     C14647   5.978  -0.405   2.989 -0.1769 -0.1696  0.6415
  107MOL0     C14648   5.849  -0.403   2.911  0.1873  0.3087 -0.0429
  107MOL0     C14649   5.728  -0.385   3.002 -0.4430  0.6070  0.3663
  107MOL0     C14650   5.605  -0.436   2.932  0.7225 -0.0976 -0.1522
  107MOL0     C14651   5.485  -0.444   3.029 -0.3517 -0.1121 -1.0295
  107MOL0     O14652   5.433  -0.311   3.067  0.2830 -0.0626 -0.3780
  107MOL0     C14653   5.492  -0.234   3.167 -0.3146 -0.0295  0.4646
  107MOL0     C14654   5.470  -0.091   3.167  0.4688  1.0335  0.5000
  107MOL0     C14655   5.519  -0.016   3.270 -0.7430  0.4370  0.1258
  107MOL0     C14656   5.483   0.131   3.262 -0.4725  0.4339  0.7599
  107MOL0     C14657   5.594  -0.067   3.376  0.5060  1.1730  0.1547
  107MOL0     C14658   5.668   0.005   3.484 -0.2642  0.4155 -0.7077
  107MOL0     O14659   5.738  -0.074   3.584 -0.7239 -0.8808 -0.6445
  107MOL0     C14660   5.783  -0.022   3.707 -0.0521  0.0728 -0.5567
  107MOL0     C14661   5.738  -0.079   3.829  0.4116 -0.2047  0.4521
  107MOL0     C14662   5.769  -0.016   3.952 -0.9906 -0.0864  0.1300
  107MOL0     C14663   5.848   0.101   3.953 -0.3117  0.3600 -1.5104
  107MOL0     O14664   5.891   0.161   4.072  0.3986  0.6136  0.0951
  107MOL0     C14665   5.828   0.132   4.192  0.8247  0.1146  0.2954
  107MOL0     C14666   5.861   0.237   4.298  0.3376  0.0364  0.0168
  107MOL0     C14667   6.008   0.225   4.332  0.0188 -0.5634  0.2052
  107MOL0     C14668   6.048   0.330   4.445  0.1452 -0.0206 -0.1943
  107MOL0     C14669   6.201   0.354   4.434 -0.2315 -0.3281 -0.2149
  107MOL0     C14670   6.269   0.448   4.539 -0.1327  0.6340  0.8880
  107MOL0     C14671   6.424   0.441   4.519  0.8887 -0.1599  0.5933
  107MOL0     C14672   6.521   0.398   4.621  0.8988 -0.4988  0.1578
  107MOL0    Cl14673   6.508   0.478   4.770 -0.2536  0.1377 -0.1767
  107MOL0     C14674   5.897   0.154   3.840 -0.4478 -0.2371  0.2902
  107MOL0     C14675   5.868   0.091   3.713 -0.2409  0.2293  0.1278
  107MOL0     O14676   5.649   0.126   3.494  0.2433  0.0399  0.0020
  107MOL0     C14677   5.610  -0.206   3.375 -0.3988  0.8545 -0.1942
  107MOL0     C14678   5.568  -0.287   3.268 -1.0183  0.6134  0.6176
  107MOL0     N14679   6.058  -0.517   3.035  0.0371 -0.2895 -0.0043
  107MOL0     N14680   6.157  -0.482   3.108 -0.4783 -0.1904  0.6463
  107MOL0     C14681   6.934   0.144   2.970  0.2297  0.3888 -0.5606
  107MOL0     C14682   7.042   0.219   3.011 -0.2680  0.2653 -1.0693
  107MOL0     C14683   7.427   0.343   3.126  0.4961 -0.6037 -0.0223
  107MOL0     C14684   7.394   0.479   3.141  0.2050 -0.5719  0.6077
  107MOL0     C14685   7.455   0.560   3.245 -0.6928 -0.8296 -0.2862
  107MOL0     C14686   7.555   0.510   3.332 -0.2765 -0.0817  0.4709
  107MOL0     O14687   7.595   0.595   3.438  0.6991  0.2397 -0.3302
  107MOL0     C14688   7.585   0.553   3.574 -0.3149  0.3064 -0.3382
  107MOL0     C14689   7.565   0.666   3.671  0.1284 -0.0578  0.0741
  107MOL0     C14690   7.437   0.744   3.622 -0.3103  0.2499  0.5434
  107MOL0     C14691   7.312   0.659   3.616 -0.5039 -0.7396 -1.2788
  107MOL0     C14692   7.186   0.738   3.609 -0.5615  0.0636  0.1883
  107MOL0     C14693   7.083   0.797   3.587 -0.3654  0.4415 -0.0613
  107MOL0     C14694   7.582   0.378   3.308 -0.9822 -0.6315 -0.7009
  107MOL0     C14695   7.531   0.293   3.214  0.7400 -0.1480  0.5626
  107MOL0     C14696   7.593   0.156   3.205  0.5203 -0.3202 -0.2256
  107MOL0     H14697   7.207   0.260   2.723  2.2285 -0.6849  2.1566
  107MOL0     H14698   7.034   0.091   2.649  0.9103 -3.4050  1.1315
  107MOL0     H14699   6.854  -0.006   2.612 -0.1211 -2.6167  0.2885
  107MOL0     H14700   6.709   0.093   2.673  0.7963  1.0434 -1.4433
  107MOL0     H14701   6.645  -0.138   2.573  0.7877 -2.9979  0.1951
  107MOL0     H14702   6.718  -0.207   2.722 -0.5724 -0.4211  0.9373
  107MOL0     H14703   6.616  -0.077   2.876  0.9645  0.1596 -0.8904
  107MOL0     H14704   6.505  -0.003   2.758  0.6446  0.6385  0.4651
  107MOL0     H14705   6.446  -0.252   2.695  1.4951  0.0172 -0.5774
  107MOL0     H14706   6.542  -0.303   2.831  1.2676  1.4460  0.1079
  107MOL0     H14707   6.313  -0.303   2.903 -0.5846  1.0555  1.6224
  107MOL0     H14708   6.285  -0.134   2.845  0.2972 -0.7326 -2.2291
  107MOL0     H14709   6.477  -0.222   3.067 -1.7656 -1.5261  0.5076
  107MOL0     H14710   6.442  -0.052   3.009 -1.6706  1.5682  2.4123
  107MOL0     H14711   6.207  -0.086   3.078  3.5548  0.9896 -0.6756
  107MOL0     H14712   6.318  -0.065   3.214  0.6355  1.9820  0.0837
  107MOL0     H14713   6.328  -0.320   3.225 -0.1404  0.8907  3.2429
  107MOL0     H14714   6.194  -0.226   3.298 -1.3533 -0.3605  0.0948
  107MOL0     H14715   6.005  -0.195   3.042  1.2594 -0.1925 -0.5101
  107MOL0     H14716   5.848  -0.495   2.852  2.4716 -1.9459  3.0846
  107MOL0     H14717   5.856  -0.312   2.851 -1.5968  0.6832  0.2644
  107MOL0     H14718   5.742  -0.444   3.093 -1.9397  1.3720  1.1207
  107MOL0     H14719   5.719  -0.281   3.034  1.4220  0.8410  0.2247
  107MOL0     H14720   5.583  -0.374   2.845 -0.8969  0.3584  0.5430
  107MOL0     H14721   5.625  -0.540   2.904  2.0810  0.3132 -0.7991
  107MOL0     H14722   5.410  -0.503   2.975 -2.4085 -1.5090  2.9449
  107MOL0     H14723   5.512  -0.501   3.119  0.7656 -1.0204 -1.9069
  107MOL0     H14724   5.414  -0.038   3.091  0.4794  0.6674  0.2334
  107MOL0     H14725   5.427   0.169   3.347 -0.1915  0.0071  1.1422
  107MOL0     H14726   5.416   0.152   3.178 -1.3655  1.8235  1.7864
  107MOL0     H14727   5.575   0.188   3.247  0.1746 -0.5587  0.8488
  107MOL0     H14728   5.666  -0.160   3.839 -1.0011  1.2914  3.8644
  107MOL0     H14729   5.747  -0.064   4.047  0.2732  2.3429  1.7340
  107MOL0     H14730   5.720   0.125   4.179  1.0578 -1.7319 -1.0948
  107MOL0     H14731   5.835   0.031   4.234 -4.9609 -2.2505 -3.2660
  107MOL0     H14732   5.847   0.338   4.260 -0.7286 -0.7423 -1.7884
  107MOL0     H14733   5.801   0.221   4.388  1.8556 -2.2970  0.7183
  107MOL0     H14734   6.065   0.253   4.243 -0.2988 -0.3555  0.0685
  107MOL0     H14735   6.042   0.122   4.352  2.4002  0.2362  0.6353
  107MOL0     H14736   6.017   0.297   4.545 -1.9624  3.4688  0.4594
  107MOL0     H14737   5.999   0.427   4.436  2.1002  1.0959  0.5719
  107MOL0     H14738   6.235   0.250   4.436  0.4798 -0.1119 -0.7211
  107MOL0     H14739   6.220   0.387   4.331 -1.8427 -3.2173 -1.5609
  107MOL0     H14740   6.234   0.411   4.636 -0.1453 -3.0568 -0.3917
  107MOL0     H14741   6.227   0.547   4.518  2.7116  2.2259  2.1454
  107MOL0     H14742   6.461   0.537   4.482  2.6321 -0.7204  0.7739
  107MOL0     H14743   6.442   0.381   4.429 -0.8101  1.8064 -1.1516
  107MOL0     H14744   6.624   0.401   4.586  1.7216 -2.4645  2.1464
  107MOL0     H14745   6.509   0.291   4.642  3.9288 -1.0173 -0.3164
  107MOL0     H14746   5.972   0.232   3.831 -1.6877  0.8907 -0.8828
  107MOL0     H14747   5.906   0.126   3.618 -0.6665  0.5826  0.0846
  107MOL0     H14748   5.665  -0.258   3.453 -0.3386  0.7479 -0.3067
  107MOL0     H14749   5.594  -0.393   3.273  0.0271  0.8832  1.3079
  107MOL0     H14750   6.860   0.107   3.040 -0.6678  3.5973  0.3693
  107MOL0     H14751   7.039   0.262   3.110  0.7984  2.0057 -1.7619
  107MOL0     H14752   7.326   0.530   3.073  0.8735  0.7005  0.8682
  107MOL0     H14753   7.429   0.663   3.264  3.6245  0.4206 -0.2614
  107MOL0     H14754   7.509   0.477   3.591  0.8349 -0.3996  2.0691
  107MOL0     H14755   7.678   0.501   3.599  0.1541  1.2995  0.0398
  107MOL0     H14756   7.654   0.730   3.675  1.6525 -2.0023 -0.6248
  107MOL0     H14757   7.535   0.641   3.773 -0.4370 -1.5398 -0.4335
  107MOL0     H14758   7.423   0.825   3.694 -1.0296 -1.5709  2.5421
  107MOL0     H14759   7.449   0.793   3.525  0.4850 -0.7518  0.1172
  107MOL0     H14760   7.303   0.602   3.709  0.2997 -0.9132 -1.3039
  107MOL0     H14761   7.316   0.592   3.530  2.3505 -2.1511 -0.1454
  107MOL0     H14762   6.991   0.847   3.563 -1.7939 -2.0514 -0.1208
  107MOL0     H14763   7.642   0.328   3.382 -0.6210  0.5310 -0.1802
  107MOL0     H14764   7.529   0.075   3.241 -0.3694  0.8596  0.9330
  107MOL0     H14765   7.627   0.149   3.101  1.7566 -3.2032  0.2680
  107MOL0     H14766   7.685   0.140   3.262 -1.2104 -0.1228  2.7928
  108MOL0     O14767   8.272  11.200   6.119 -0.0959  0.3085  0.3523
  108MOL0     C14768   8.267  11.080   6.105  0.0686  0.9271  0.2815
  108MOL0     O14769   8.358  11.001   6.166 -1.2330 -0.3739  0.6541
  108MOL0     C14770   8.468  11.058   6.233 -1.0086 -0.8596 -0.3498
  108MOL0     C14771   8.473  11.062   6.372 -0.5880  0.5266 -0.2451
  108MOL0     C14772   8.585  11.130   6.437 -0.2266  0.4344  0.6565
  108MOL0     C14773   8.685  11.180   6.361 -0.1871 -0.5401  0.4226
  108MOL0     O14774   8.800  11.241   6.408  0.9154  0.3189 -0.3395
  108MOL0     C14775   8.812  11.286   6.548 -0.7029  0.3651  0.1467
  108MOL0     C14776   8.951  11.353   6.567 -0.4386  0.8866  0.0753
  108MOL0     C14777   9.056  11.250   6.531 -0.0270  0.2421 -0.6708
  108MOL0     C14778   9.206  11.288   6.557  0.6477 -0.3009 -0.1378
  108MOL0     C14779   9.296  11.173   6.511 -0.9721 -0.1209 -0.3398
  108MOL0     C14780   9.263  11.054   6.600 -0.2052  0.8991  0.0975
  108MOL0     C14781   9.373  10.947   6.606  0.1727 -0.0741 -0.3484
  108MOL0     C14782   9.418  10.891   6.471 -0.0964 -0.0479  0.6774
  108MOL0     N14783   9.529  10.797   6.490 -0.3627  0.8604 -0.2495
  108MOL0     C14784   9.530  10.698   6.583 -0.2037  0.5117 -0.6164
  108MOL0     C14785   9.654  10.639   6.568  0.4457 -0.1904 -0.5190
  108MOL0     C14786   9.690  10.512   6.645  0.1326 -0.5727  0.6887
  108MOL0     C14787   9.657  10.525   6.794  0.7846  0.3368 -0.4223
  108MOL0     C14788   9.671  10.390   6.872  0.2546 -0.0248 -0.3600
  108MOL0     C14789   9.693  10.415   7.017  0.0634  0.2316 -0.0810
  108MOL0     O14790   9.585  10.479   7.095  0.7740 -0.3390 -0.4122
  108MOL0     C14791   9.460  10.436   7.066  1.1027  0.9512  0.2675
  108MOL0     C14792   9.421  10.296   7.077  0.0823  0.6425  0.0508
  108MOL0     C14793   9.281  10.256   7.070 -0.3373 -0.4069  0.5403
  108MOL0     C14794   9.258  10.103   7.065 -0.3948  0.1314 -0.8712
  108MOL0     C14795   9.183  10.359   7.055  0.6060 -0.9406 -0.4062
  108MOL0     C14796   9.035  10.340   7.041  1.2943  0.3922  0.3814
  108MOL0     O14797   8.950  10.458   7.026  0.3780  0.2420  0.4477
  108MOL0     C14798   8.816  10.443   7.000 -0.4153  0.3983  1.0281
  108MOL0     C14799   8.751  10.436   6.874 -0.3763  0.1512 -0.3308
  108MOL0     C14800   8.612  10.426   6.860 -0.0231  0.3959 -1.1054
  108MOL0     C14801   8.525  10.410   6.971  0.8792 -0.3425  0.6002
  108MOL0     O14802   8.389  10.398   6.955 -0.5286 -0.0799 -0.8134
  108MOL0     C14803   8.325  10.466   6.843  0.4648  0.3259 -0.4433
  108MOL0     C14804   8.297  10.615   6.880 -0.2028 -0.3473 -0.5348
  108MOL0     C14805   8.169  10.634   6.962 -0.1487 -0.6408 -0.4805
  108MOL0     C14806   8.193  10.596   7.110 -0.1503 -0.1934 -0.4181
  108MOL0     C14807   8.075  10.653   7.206 -0.2169  0.5812 -0.6910
  108MOL0     C14808   8.098  10.590   7.349  0.0863 -0.6389 -0.1277
  108MOL0     C14809   8.008  10.654   7.456  0.3669  1.2225  0.0483
  108MOL0     C14810   8.014  10.567   7.584 -0.5414 -0.2075 -0.3349
  108MOL0    Cl14811   8.179  10.536   7.637 -0.1854 -0.3149  0.7323
  108MOL0     C14812   8.586  10.422   7.093 -0.0343 -0.8285  0.2586
  108MOL0     C14813   8.724  10.445   7.110 -0.0733 -0.5251 -0.0267
  108MOL0     O14814   8.992  10.225   7.022 -0.7425 -0.1882  0.6945
  108MOL0     C14815   9.223  10.494   7.050 -0.2075 -0.2713 -0.2378
  108MOL0     C14816   9.358  10.529   7.051  0.1004 -0.3530 -0.8024
  108MOL0     N14817   9.725  10.709   6.480  0.0690 -0.5257 -0.3261
  108MOL0     N14818   9.652  10.812   6.442  0.7150  0.4651  0.4611
  108MOL0     C14819   8.680  11.175   6.214 -0.4916  0.3255 -0.1749
  108MOL0     C14820   8.570  11.114   6.158  0.0409  0.3106  0.3810
  108MOL0     C14821   8.148  11.022   6.035 -0.2937 -0.1107  0.3086
  108MOL0     C14822   8.039  11.112   6.011 -0.5464  0.7211 -1.1990
  108MOL0     C14823   7.921  11.061   5.965  0.3547  0.1473 -0.4833
  108MOL0     C14824   7.911  10.928   5.913 -0.1415  0.2280 -1.2126
  108MOL0     O14825   7.797  10.874   5.848 -0.2633 -0.5601 -0.2271
  108MOL0     C14826   7.680  10.970   5.834  0.7576  0.1204  0.1359
  108MOL0     C14827   7.621  10.981   5.970 -0.3820 -0.3329 -0.2576
  108MOL0     C14828   7.535  11.106   5.966 -0.3295  0.9226  0.3748
  108MOL0     C14829   7.438  11.123   6.089 -0.3272  0.0054 -0.2831
  108MOL0     C14830   7.386  11.258   6.100 -0.2216  0.0624 -0.5495
  108MOL0     C14831   7.335  11.366   6.102 -0.0980 -0.1415 -0.1069
  108MOL0     C14832   8.016  10.840   5.932  0.2717  0.6775  0.3046
  108MOL0     C14833   8.134  10.885   5.993 -0.1912 -0.4044 -1.0550
  108MOL0     C14834   8.237  10.784   6.029  0.3914 -0.2729  0.3031
  108MOL0     H14835   8.393  11.040   6.442  1.8599 -1.7274  2.0573
  108MOL0     H14836   8.585  11.113   6.544 -0.0078 -1.5697  0.3615
  108MOL0     H14837   8.803  11.198   6.612  0.0931  1.1120  1.3181
  108MOL0     H14838   8.740  11.365   6.570 -1.0942  0.3669 -1.0735
  108MOL0     H14839   8.953  11.452   6.520  0.7233  0.7559 -0.1977
  108MOL0     H14840   8.957  11.365   6.675  1.4174 -0.2464  0.1574
  108MOL0     H14841   9.022  11.171   6.599 -0.8414  2.2034  1.3342
  108MOL0     H14842   9.043  11.228   6.425  1.8011 -1.4322 -0.6108
  108MOL0     H14843   9.227  11.388   6.518 -2.2114  0.8338  1.0022
  108MOL0     H14844   9.210  11.312   6.663  0.3767  0.2159 -0.2428
  108MOL0     H14845   9.398  11.209   6.524 -0.2810 -1.3817 -1.8835
  108MOL0     H14846   9.272  11.153   6.406  0.7982  0.1107 -0.8217
  108MOL0     H14847   9.260  11.088   6.704 -1.1023  0.9702  0.0557
  108MOL0     H14848   9.167  11.004   6.582  1.6697 -4.8003  3.2099
  108MOL0     H14849   9.328  10.867   6.664  0.0004 -0.6582 -1.2698
  108MOL0     H14850   9.461  10.995   6.651  0.7303 -0.7758 -0.6684
  108MOL0     H14851   9.343  10.830   6.421  0.5339 -1.0638  0.9413
  108MOL0     H14852   9.473  10.967   6.415  2.7302  0.0427  3.2989
  108MOL0     H14853   9.447  10.653   6.636  0.6195 -0.5367 -0.1935
  108MOL0     H14854   9.796  10.488   6.634  0.9781  2.8681  0.1373
  108MOL0     H14855   9.637  10.427   6.601 -1.7231  0.4403  0.8867
  108MOL0     H14856   9.722  10.600   6.841  3.1925 -0.5938 -2.0686
  108MOL0     H14857   9.556  10.565   6.806  0.2479 -0.7899 -1.0358
  108MOL0     H14858   9.577  10.336   6.860  0.5390 -1.0388  1.6307
  108MOL0     H14859   9.752  10.329   6.830 -0.7812  0.5008 -3.3392
  108MOL0     H14860   9.692  10.314   7.060  0.8106 -1.5354 -3.8323
  108MOL0     H14861   9.796  10.449   7.032  0.2264  1.6263 -3.4598
  108MOL0     H14862   9.497  10.219   7.091  0.5478  0.7797 -1.5441
  108MOL0     H14863   9.180  10.067   7.132  1.9444 -1.6685  1.1095
  108MOL0     H14864   9.356  10.061   7.091  0.2716  2.1092 -0.0171
  108MOL0     H14865   9.227  10.067   6.967 -0.4674 -0.1538 -0.7437
  108MOL0     H14866   8.809  10.446   6.783 -1.2339  0.1188 -0.8901
  108MOL0     H14867   8.568  10.416   6.761 -2.3274  0.2416 -0.1375
  108MOL0     H14868   8.378  10.455   6.748 -1.6314  1.4544 -1.8292
  108MOL0     H14869   8.230  10.416   6.823  1.2645 -1.1152 -0.7197
  108MOL0     H14870   8.382  10.669   6.922 -0.4764 -2.6160  3.4108
  108MOL0     H14871   8.281  10.656   6.780  1.4080 -0.0895 -0.7001
  108MOL0     H14872   8.078  10.592   6.918  0.6422 -2.5517 -0.3929
  108MOL0     H14873   8.152  10.742   6.963  0.1110 -0.6000  0.6025
  108MOL0     H14874   8.291  10.633   7.142 -1.7706  2.6468  1.7641
  108MOL0     H14875   8.195  10.487   7.117 -2.6861 -0.2205  1.2258
  108MOL0     H14876   8.072  10.761   7.217 -1.2931  0.4964  0.1524
  108MOL0     H14877   7.978  10.616   7.171  0.5006  0.3156 -2.5054
  108MOL0     H14878   8.203  10.601   7.379 -0.9637 -0.6200  4.1352
  108MOL0     H14879   8.068  10.485   7.344  0.5986 -0.9588  2.2496
  108MOL0     H14880   7.903  10.660   7.425  0.2997 -3.0741 -1.2359
  108MOL0     H14881   8.050  10.753   7.479 -0.8597  1.8147 -0.1934
  108MOL0     H14882   7.963  10.471   7.574  2.5622 -1.8569 -1.8393
  108MOL0     H14883   7.965  10.620   7.666  1.3472 -0.8474  1.3121
  108MOL0     H14884   8.522  10.407   7.179  0.2078 -2.3438  0.1973
  108MOL0     H14885   8.756  10.449   7.214 -2.1311 -1.5255  0.7097
  108MOL0     H14886   9.145  10.570   7.047 -1.7721 -1.8368 -2.3905
  108MOL0     H14887   9.387  10.633   7.040 -2.5219  0.3310 -2.1330
  108MOL0     H14888   8.765  11.203   6.152 -2.0263  2.3497 -1.5089
  108MOL0     H14889   8.574  11.120   6.050  0.6610 -2.9686  0.1349
  108MOL0     H14890   8.052  11.218   6.030  1.7025  0.4123 -0.7315
  108MOL0     H14891   7.839  11.131   5.966  0.3605  0.1738  1.5675
  108MOL0     H14892   7.720  11.060   5.786  0.7318  0.4026  0.6340
  108MOL0     H14893   7.598  10.932   5.772  1.9678 -3.5519  0.5960
  108MOL0     H14894   7.697  10.977   6.049 -0.5153  1.7596  0.0322
  108MOL0     H14895   7.561  10.891   5.987  0.7465 -1.1107 -0.2832
  108MOL0     H14896   7.593  11.199   5.965 -2.1745  2.1788  1.8240
  108MOL0     H14897   7.472  11.112   5.877 -2.1344  0.5484  1.5733
  108MOL0     H14898   7.495  11.115   6.182  0.1669  0.0177 -0.5830
  108MOL0     H14899   7.352  11.057   6.097 -1.6024  1.6233 -0.0527
  108MOL0     H14900   7.295  11.466   6.103  0.3276  0.0304  0.0950
  108MOL0     H14901   7.993  10.743   5.889 -1.5498  1.7331 -1.2843
  108MOL0     H14902   8.342  10.815   6.032 -0.0614  1.3396 -0.0756
  108MOL0     H14903   8.230  10.746   6.131 -1.8664  0.6015  0.5210
  108MOL0     H14904   8.246  10.697   5.962 -2.8642 -2.0846  1.9550
  109MOL0     O14905   3.888   3.073   3.874  0.4644 -0.7522 -0.0054
  109MOL0     C14906   3.949   3.013   3.958  0.3279 -0.2628  0.4292
  109MOL0     O14907   3.899   2.971   4.076 -0.0866  0.2400  0.4464
  109MOL0     C14908   3.786   3.037   4.125 -0.3156  0.5943 -0.6106
  109MOL0     C14909   3.799   3.101   4.247 -0.4968 -0.0229  0.1911
  109MOL0     C14910   3.691   3.140   4.322  0.3731  0.0431  0.8259
  109MOL0     C14911   3.557   3.137   4.261 -1.3463  0.0905 -0.2818
  109MOL0     O14912   3.453   3.175   4.344  0.6032 -0.8357  0.2251
  109MOL0     C14913   3.327   3.184   4.275  0.1922 -0.4146 -0.1275
  109MOL0     C14914   3.220   3.215   4.381 -0.3619 -0.1793  0.1507
  109MOL0     C14915   3.176   3.079   4.460 -0.3480 -0.6552  0.9075
  109MOL0     C14916   3.030   3.092   4.518 -0.3742 -0.3433  0.4688
  109MOL0     C14917   3.002   2.989   4.631 -0.4756 -0.4132  0.1201
  109MOL0     C14918   3.022   2.837   4.587  0.8521 -0.1677  1.1575
  109MOL0     C14919   2.925   2.775   4.484 -0.0639  0.9739  0.0916
  109MOL0     C14920   2.926   2.622   4.473  0.4610 -0.3700 -0.0264
  109MOL0     N14921   3.021   2.577   4.371  0.0274  0.6663 -0.5287
  109MOL0     C14922   3.020   2.482   4.266 -0.7051  1.0173  0.2468
  109MOL0     C14923   3.144   2.480   4.207 -0.2338 -0.6951  0.1607
  109MOL0     C14924   3.174   2.410   4.081 -0.2759  0.9041  0.5673
  109MOL0     C14925   3.060   2.431   3.978  0.1892  0.5034  0.3214
  109MOL0     C14926   3.078   2.351   3.846 -0.8523 -0.1229 -0.3174
  109MOL0     C14927   3.170   2.431   3.758 -0.1005  0.0536  0.0210
  109MOL0     O14928   3.300   2.439   3.810 -0.8436 -0.0302 -0.0813
  109MOL0     C14929   3.382   2.340   3.760  0.0767 -0.6699 -0.7253
  109MOL0     C14930   3.378   2.307   3.626  0.4587  0.6512 -0.0486
  109MOL0     C14931   3.458   2.206   3.580  0.2935  0.1256 -0.9631
  109MOL0     C14932   3.440   2.167   3.435  0.2824  0.4063  0.6487
  109MOL0     C14933   3.541   2.126   3.671  0.1928 -0.5672  0.9993
  109MOL0     C14934   3.635   2.017   3.622 -0.0006  0.2296 -0.7476
  109MOL0     O14935   3.736   1.989   3.705 -1.0106 -0.3909  0.1607
  109MOL0     C14936   3.826   1.886   3.658  0.6485 -0.4339  0.1559
  109MOL0     C14937   3.865   1.783   3.746  0.3516 -0.4337 -0.5407
  109MOL0     C14938   3.950   1.683   3.713 -0.6697  0.3210 -1.4737
  109MOL0     C14939   4.021   1.685   3.598 -0.1752 -0.1084  0.2822
  109MOL0     O14940   4.114   1.583   3.582 -0.3385  0.7146  0.4542
  109MOL0     C14941   4.192   1.564   3.466 -0.5794 -0.1679  0.4914
  109MOL0     C14942   4.268   1.430   3.488 -1.1111 -0.5188 -0.1975
  109MOL0     C14943   4.384   1.414   3.386  0.1772  0.3618 -0.0207
  109MOL0     C14944   4.335   1.382   3.248  0.6602  0.1888  0.5470
  109MOL0     C14945   4.437   1.336   3.149 -0.3409 -0.4568  0.0990
  109MOL0     C14946   4.383   1.312   3.007  0.2305 -0.1719 -0.2716
  109MOL0     C14947   4.320   1.175   2.995  0.6197  0.2287  0.6707
  109MOL0     C14948   4.166   1.178   2.998 -0.6266 -0.0922 -1.0997
  109MOL0    Cl14949   4.091   1.258   2.853  0.0053  0.4338 -0.5752
  109MOL0     C14950   3.987   1.791   3.500  0.3144  0.0653 -0.6087
  109MOL0     C14951   3.892   1.894   3.539  0.0856 -0.0033  0.5295
  109MOL0     O14952   3.602   1.950   3.526 -0.0199  0.6339 -0.0316
  109MOL0     C14953   3.534   2.155   3.803 -0.5692 -0.4885 -0.5233
  109MOL0     C14954   3.467   2.269   3.843  0.3753 -0.2463  0.2836
  109MOL0     N14955   3.215   2.576   4.272  0.3509  0.0188 -0.2614
  109MOL0     N14956   3.145   2.634   4.366  0.0432  0.4770 -0.1965
  109MOL0     C14957   3.547   3.074   4.134 -0.0597 -0.2627 -0.9847
  109MOL0     C14958   3.659   3.025   4.065  0.8649 -0.3522 -0.1127
  109MOL0     C14959   4.085   2.968   3.923  0.8068 -0.9268 -0.6450
  109MOL0     C14960   4.167   2.918   4.028 -0.0139  1.0850 -0.7790
  109MOL0     C14961   4.293   2.872   4.003 -0.1587  0.7712 -0.0079
  109MOL0     C14962   4.353   2.890   3.886 -0.0032 -0.0471  0.5842
  109MOL0     O14963   4.476   2.836   3.877  0.7003  0.4323 -0.6050
  109MOL0     C14964   4.543   2.845   3.745 -0.4747  0.3409 -0.4709
  109MOL0     C14965   4.672   2.780   3.767  0.0700  0.5561 -0.1313
  109MOL0     C14966   4.781   2.816   3.665  0.8560  0.1457 -0.4021
  109MOL0     C14967   4.907   2.724   3.680  0.8952 -0.1749  1.1292
  109MOL0     C14968   4.965   2.732   3.814  0.7185 -0.6150  1.0089
  109MOL0     C14969   5.005   2.743   3.926 -0.5005  0.7807 -0.1207
  109MOL0     C14970   4.286   2.953   3.774 -0.0290  0.2573 -1.3808
  109MOL0     C14971   4.153   2.999   3.798  0.0236 -0.4893 -0.3467
  109MOL0     C14972   4.089   3.055   3.675 -0.6381 -0.4766 -0.1309
  109MOL0     H14973   3.904   3.093   4.274 -0.2379 -2.1810 -1.1743
  109MOL0     H14974   3.696   3.167   4.427 -2.4967  1.9652  0.5814
  109MOL0     H14975   3.300   3.085   4.236  0.9712  0.2798 -2.6060
  109MOL0     H14976   3.331   3.262   4.198 -0.9033  1.9647  2.0736
  109MOL0     H14977   3.269   3.284   4.451  0.5117  1.1375 -1.6482
  109MOL0     H14978   3.137   3.268   4.334  0.8336  0.5148 -1.2564
  109MOL0     H14979   3.193   2.997   4.390 -3.3756 -0.9460  0.3669
  109MOL0     H14980   3.240   3.066   4.548  1.1563 -0.9410 -0.1869
  109MOL0     H14981   3.030   3.194   4.558 -0.6194 -0.2602  0.2588
  109MOL0     H14982   2.959   3.077   4.436  0.1083 -0.7965  0.1250
  109MOL0     H14983   2.902   3.008   4.672 -0.5401 -3.9160  1.9550
  109MOL0     H14984   3.052   3.011   4.725  2.9867  1.0489 -1.8978
  109MOL0     H14985   3.116   2.828   4.532  0.1040 -0.8804 -0.0395
  109MOL0     H14986   3.029   2.782   4.682  2.5017 -0.1611  1.0625
  109MOL0     H14987   2.942   2.824   4.387  1.4671  0.5859  0.1317
  109MOL0     H14988   2.827   2.787   4.530 -1.1196  0.1014 -1.8041
  109MOL0     H14989   2.953   2.570   4.565  0.3654 -2.7124 -1.2647
  109MOL0     H14990   2.827   2.584   4.447 -1.4430  3.4624  0.8552
  109MOL0     H14991   2.938   2.422   4.228 -0.5679  0.7244  0.4155
  109MOL0     H14992   3.202   2.309   4.109 -0.0685  1.4279  2.3430
  109MOL0     H14993   3.257   2.467   4.038  0.3979 -1.8260 -2.0662
  109MOL0     H14994   2.962   2.402   4.015 -0.2529 -0.0548 -1.2072
  109MOL0     H14995   3.051   2.539   3.961 -1.0126  0.5279  0.9785
  109MOL0     H14996   3.114   2.253   3.879  0.8749 -0.2413 -2.3602
  109MOL0     H14997   2.973   2.340   3.818 -1.5273  0.3007  1.8272
  109MOL0     H14998   3.145   2.398   3.656 -0.6784 -1.1426  0.5218
  109MOL0     H14999   3.140   2.536   3.751  2.0350  0.6065 -2.0285
  109MOL0     H15000   3.323   2.349   3.542  1.4523  0.9923 -0.5467
  109MOL0     H15001   3.532   2.184   3.379  0.4499 -0.7301  0.5638
  109MOL0     H15002   3.373   2.234   3.380  1.1111 -0.6523 -1.7660
  109MOL0     H15003   3.378   2.077   3.428 -2.7072  2.2716  1.1078
  109MOL0     H15004   3.811   1.764   3.839 -0.0342 -0.7185 -0.8237
  109MOL0     H15005   3.962   1.605   3.788 -1.0604  2.2937  0.7522
  109MOL0     H15006   4.128   1.543   3.379  0.1409 -4.3080  0.7632
  109MOL0     H15007   4.258   1.647   3.439 -0.3449 -0.7288 -0.7243
  109MOL0     H15008   4.318   1.434   3.585  1.8789 -2.4268 -1.5178
  109MOL0     H15009   4.204   1.341   3.489 -0.2156 -1.1694  0.7783
  109MOL0     H15010   4.448   1.340   3.433  3.1135  2.0830 -1.0187
  109MOL0     H15011   4.450   1.502   3.385  1.2178 -0.4058 -1.3993
  109MOL0     H15012   4.289   1.476   3.215  0.1876 -0.3417 -0.3540
  109MOL0     H15013   4.253   1.311   3.256 -0.7261  1.7632  1.0368
  109MOL0     H15014   4.499   1.426   3.143  0.8613 -1.2985 -0.6058
  109MOL0     H15015   4.493   1.249   3.184  1.0815 -0.2164 -1.4591
  109MOL0     H15016   4.467   1.324   2.937 -1.0819 -1.6079 -2.1987
  109MOL0     H15017   4.311   1.392   2.987  0.1317  0.7879  3.2779
  109MOL0     H15018   4.362   1.109   3.072  2.4232  1.1487  0.5432
  109MOL0     H15019   4.349   1.133   2.898 -3.8261  2.1063 -1.7529
  109MOL0     H15020   4.119   1.224   3.085 -2.6122 -2.0540 -1.0462
  109MOL0     H15021   4.134   1.073   3.001 -1.9863  0.3253  0.4756
  109MOL0     H15022   4.039   1.787   3.405  2.2037 -1.9439  0.4215
  109MOL0     H15023   3.871   1.970   3.464  1.1866 -0.3494 -0.1577
  109MOL0     H15024   3.589   2.099   3.878  1.7519  4.4489  1.9383
  109MOL0     H15025   3.472   2.306   3.945  1.3770  0.7444 -0.0995
  109MOL0     H15026   3.448   3.057   4.094 -0.7259  0.4854  0.2711
  109MOL0     H15027   3.631   2.977   3.972 -1.6609 -0.7084  0.7463
  109MOL0     H15028   4.130   2.900   4.128  0.8723 -1.7933 -0.8770
  109MOL0     H15029   4.347   2.817   4.079 -0.8905  1.0381  0.7094
  109MOL0     H15030   4.487   2.788   3.670 -0.0297  0.9343 -1.2611
  109MOL0     H15031   4.567   2.947   3.715 -0.8367  1.1403  1.7810
  109MOL0     H15032   4.653   2.672   3.755  0.1938  0.6491 -1.2956
  109MOL0     H15033   4.712   2.796   3.867 -3.9062 -0.0127  1.7502
  109MOL0     H15034   4.738   2.811   3.565  0.0230  0.1332 -0.0444
  109MOL0     H15035   4.804   2.923   3.678  2.4575  0.3182 -3.5670
  109MOL0     H15036   4.993   2.753   3.618 -0.6341  1.5905 -0.2752
  109MOL0     H15037   4.894   2.616   3.664  1.3516  0.1242 -1.8035
  109MOL0     H15038   5.046   2.753   4.025  0.2674 -2.3363 -0.0166
  109MOL0     H15039   4.345   2.978   3.687 -0.3952  2.5615 -1.0525
  109MOL0     H15040   4.157   3.059   3.590 -1.1379  0.9231 -0.4876
  109MOL0     H15041   4.002   2.995   3.647 -1.1023  0.3813 -0.5464
  109MOL0     H15042   4.045   3.154   3.689 -1.7598 -0.9068 -0.5060
  110MOL0     O15043   4.370   5.010   0.476 -0.7583 -0.7242 -0.1427
  110MOL0     C15044   4.282   4.989   0.395  0.1171 -1.4365 -0.0896
  110MOL0     O15045   4.233   5.088   0.313 -0.1324 -0.5620 -0.1781
  110MOL0     C15046   4.305   5.200   0.278  0.0366 -0.6404  0.0226
  110MOL0     C15047   4.224   5.294   0.218 -0.9356 -0.3986 -0.2202
  110MOL0     C15048   4.287   5.422   0.185  0.0602  0.0755  0.5818
  110MOL0     C15049   4.421   5.449   0.202  0.0839 -0.2995  0.1109
  110MOL0     O15050   4.469   5.565   0.150  0.6818 -0.2843 -0.3031
  110MOL0     C15051   4.539   5.548   0.034 -0.2583  0.5526 -0.4115
  110MOL0     C15052   4.625   5.671   0.022  0.0904 -0.0607 -0.1628
  110MOL0     C15053   4.667   5.696  -0.124 -0.0953 -0.3915  0.1329
  110MOL0     C15054   4.800   5.759  -0.136 -0.3985  0.3996 -0.2952
  110MOL0     C15055   4.820   5.801  -0.280 -0.2315 -0.1290 -0.2337
  110MOL0     C15056   4.948   5.883  -0.297 -0.7886  0.2900 -0.8483
  110MOL0     C15057   4.976   5.919  -0.439  0.6655 -0.0991  0.0877
  110MOL0     C15058   5.117   5.961  -0.452  0.2501  0.8128  0.4953
  110MOL0     N15059   5.135   6.101  -0.426  0.3523 -0.2467 -0.3478
  110MOL0     C15060   5.137   6.160  -0.305 -0.2805  0.4182  0.4037
  110MOL0     C15061   5.089   6.289  -0.309 -0.5398  0.4451  0.3618
  110MOL0     C15062   5.073   6.392  -0.202  0.4445 -0.2959  0.1151
  110MOL0     C15063   4.975   6.360  -0.090  0.3625 -0.0807 -0.6892
  110MOL0     C15064   5.019   6.228  -0.020 -0.2645 -0.3256  1.6383
  110MOL0     C15065   4.951   6.203   0.108 -0.3090  0.7845 -0.2436
  110MOL0     O15066   5.029   6.104   0.175 -0.4199  0.2697 -0.3531
  110MOL0     C15067   4.969   6.034   0.274 -0.5989  0.1435  0.4586
  110MOL0     C15068   4.959   6.072   0.416 -0.4600  0.2455 -0.4205
  110MOL0     C15069   4.893   6.005   0.511  0.3057  0.9417  0.1011
  110MOL0     C15070   4.922   6.048   0.656 -0.3292  0.0710  0.4544
  110MOL0     C15071   4.814   5.893   0.476 -0.1127 -0.6292  0.2657
  110MOL0     C15072   4.732   5.824   0.570 -0.2703 -1.0302  0.5818
  110MOL0     O15073   4.733   5.692   0.539  0.0810 -0.5960 -0.0869
  110MOL0     C15074   4.646   5.605   0.598  0.0544  0.5480 -0.2320
  110MOL0     C15075   4.683   5.466   0.578  0.4386 -0.3991  0.0036
  110MOL0     C15076   4.601   5.361   0.637  0.5106 -0.5821 -0.3525
  110MOL0     C15077   4.493   5.389   0.719 -0.5627  0.8629 -0.6121
  110MOL0     O15078   4.426   5.290   0.783  0.0828 -0.1585  0.2028
  110MOL0     C15079   4.293   5.281   0.740 -0.0367  0.4662 -0.2306
  110MOL0     C15080   4.231   5.152   0.790  1.0227 -0.8294 -1.0120
  110MOL0     C15081   4.093   5.145   0.717 -0.1570  0.6251  0.3336
  110MOL0     C15082   3.987   5.065   0.791 -0.5432 -1.2982  0.5843
  110MOL0     C15083   3.872   5.030   0.698  0.1896  0.3424  0.5289
  110MOL0     C15084   3.752   4.993   0.787  0.0469 -0.3075  0.2674
  110MOL0     C15085   3.639   4.938   0.706 -0.3016  0.8037 -0.5381
  110MOL0     C15086   3.536   4.871   0.791  0.1412  0.6469  0.4786
  110MOL0    Cl15087   3.385   4.828   0.691  0.0404 -0.0895 -0.4336
  110MOL0     C15088   4.461   5.522   0.747  0.2885  0.5150  0.4246
  110MOL0     C15089   4.531   5.624   0.678  0.4969  0.0399  0.0555
  110MOL0     O15090   4.663   5.886   0.649 -1.0509  0.2073  0.1020
  110MOL0     C15091   4.817   5.851   0.338  0.0957 -0.1149  0.5654
  110MOL0     C15092   4.890   5.923   0.243 -1.5285  0.2427 -0.4966
  110MOL0     N15093   5.065   6.309  -0.441  0.3185 -0.6802 -0.9611
  110MOL0     N15094   5.096   6.200  -0.513 -0.0477  0.5524 -0.7172
  110MOL0     C15095   4.503   5.355   0.275 -0.2649 -0.2960 -0.1646
  110MOL0     C15096   4.442   5.234   0.311  0.5252 -0.7285  1.3207
  110MOL0     C15097   4.205   4.856   0.410 -0.5433 -0.3853  0.4242
  110MOL0     C15098   4.071   4.849   0.366 -1.1260 -0.1121 -0.1589
  110MOL0     C15099   3.989   4.737   0.375 -0.3522 -0.3541  0.0263
  110MOL0     C15100   4.039   4.623   0.422 -1.0879  0.4546 -0.9311
  110MOL0     O15101   3.939   4.524   0.432  0.1045  0.0253  0.9991
  110MOL0     C15102   3.977   4.402   0.361 -0.2323  0.2337  0.7863
  110MOL0     C15103   3.855   4.339   0.301  0.2900  0.6700  0.9445
  110MOL0     C15104   3.731   4.317   0.388 -0.1443 -0.5289 -0.0326
  110MOL0     C15105   3.628   4.237   0.310 -0.7760 -0.8034  0.3833
  110MOL0     C15106   3.642   4.094   0.348  0.1397 -0.4904  0.4057
  110MOL0     C15107   3.663   3.977   0.366  0.4169 -0.2724  0.3266
  110MOL0     C15108   4.172   4.624   0.466 -0.3445  0.3571  0.9817
  110MOL0     C15109   4.264   4.739   0.458  0.2757  0.7563  0.5486
  110MOL0     C15110   4.409   4.710   0.497 -0.6819 -0.6769  0.9138
  110MOL0     H15111   4.120   5.287   0.186 -0.7546  0.3331 -1.0344
  110MOL0     H15112   4.224   5.500   0.144  1.5909  0.7996 -0.5102
  110MOL0     H15113   4.477   5.527  -0.054  0.2188 -2.4439 -0.1196
  110MOL0     H15114   4.604   5.460   0.037 -0.9707  0.0164 -0.4350
  110MOL0     H15115   4.584   5.761   0.068 -1.5626 -1.1533  0.6269
  110MOL0     H15116   4.710   5.642   0.084  0.5447  0.8037 -0.3771
  110MOL0     H15117   4.671   5.596  -0.169  1.3488  1.0015 -3.1504
  110MOL0     H15118   4.588   5.750  -0.177 -1.5047 -2.2066  0.2568
  110MOL0     H15119   4.812   5.848  -0.073  1.0586  0.5811 -0.7958
  110MOL0     H15120   4.879   5.691  -0.103 -0.4276  0.8523  0.7542
  110MOL0     H15121   4.729   5.847  -0.319  0.2628  2.7982  1.6869
  110MOL0     H15122   4.834   5.715  -0.346 -2.0014  0.1662 -1.0548
  110MOL0     H15123   4.946   5.964  -0.224 -1.4681 -1.2461  0.9389
  110MOL0     H15124   5.028   5.822  -0.255  0.3424  0.3513 -2.8140
  110MOL0     H15125   4.910   6.004  -0.461  0.3112  0.2432  2.3075
  110MOL0     H15126   4.954   5.831  -0.500  0.3925  0.5591 -0.7979
  110MOL0     H15127   5.173   5.892  -0.387 -2.4648 -0.7225  1.3595
  110MOL0     H15128   5.152   5.942  -0.554  1.0070  2.0217  0.5125
  110MOL0     H15129   5.169   6.113  -0.213 -1.8960  3.1896  2.5318
  110MOL0     H15130   5.046   6.484  -0.255 -0.3723 -1.6650 -1.9700
  110MOL0     H15131   5.173   6.413  -0.163 -0.6936  2.0225  2.0132
  110MOL0     H15132   4.979   6.448  -0.025  1.1153 -1.5788  1.4032
  110MOL0     H15133   4.874   6.357  -0.131 -1.0686  1.4494  2.3792
  110MOL0     H15134   5.006   6.141  -0.085  0.4028  1.1898 -0.6593
  110MOL0     H15135   5.128   6.234  -0.017 -0.1437  0.8000 -1.2098
  110MOL0     H15136   4.958   6.285   0.181 -1.8747 -0.2041  1.0978
  110MOL0     H15137   4.845   6.181   0.094  0.0930 -1.7974  0.3062
  110MOL0     H15138   5.013   6.156   0.459 -1.8441  0.9176  0.0498
  110MOL0     H15139   4.927   5.961   0.723 -1.3087 -0.3678 -0.0213
  110MOL0     H15140   4.840   6.114   0.687 -0.8543 -0.2691 -0.1928
  110MOL0     H15141   5.025   6.083   0.666  0.7251 -1.7916 -2.5638
  110MOL0     H15142   4.778   5.451   0.528  0.1150  0.5669 -0.9438
  110MOL0     H15143   4.610   5.255   0.618  0.3392 -0.9647  1.4968
  110MOL0     H15144   4.233   5.365   0.775  0.7287  1.1465 -0.5284
  110MOL0     H15145   4.285   5.287   0.631 -1.2137  1.7496 -0.0934
  110MOL0     H15146   4.290   5.065   0.761  1.3357  0.1056 -3.4085
  110MOL0     H15147   4.224   5.163   0.899  0.8663  1.3503 -1.1909
  110MOL0     H15148   4.113   5.106   0.617 -0.2222  2.4212 -0.4141
  110MOL0     H15149   4.066   5.249   0.699 -2.5248  0.4012  2.0967
  110MOL0     H15150   3.951   5.126   0.874 -2.1213  0.2768 -1.1768
  110MOL0     H15151   4.029   4.967   0.818  0.1724 -0.6320  1.9806
  110MOL0     H15152   3.845   5.113   0.631  0.3718 -0.6178 -0.7831
  110MOL0     H15153   3.896   4.946   0.633 -1.0449  1.3948 -1.3924
  110MOL0     H15154   3.722   5.089   0.831 -0.8768 -1.0692  1.3851
  110MOL0     H15155   3.786   4.920   0.860 -0.5488 -1.8955 -0.9818
  110MOL0     H15156   3.684   4.860   0.644 -0.4716 -0.0073  0.3321
  110MOL0     H15157   3.588   5.014   0.647 -2.2648  3.0824  3.6132
  110MOL0     H15158   3.506   4.945   0.866 -0.3163 -0.3668  1.3218
  110MOL0     H15159   3.580   4.783   0.839 -1.3039  0.6843  1.9825
  110MOL0     H15160   4.378   5.546   0.813 -0.5615  0.8031 -0.7200
  110MOL0     H15161   4.484   5.721   0.691  1.2107  0.2714  1.0231
  110MOL0     H15162   4.768   5.758   0.309  0.9138 -0.1800 -0.7235
  110MOL0     H15163   4.886   5.890   0.140 -0.8868  0.1788 -0.5046
  110MOL0     H15164   4.600   5.378   0.320 -0.1228 -0.8530 -0.1728
  110MOL0     H15165   4.501   5.154   0.356  1.7337  0.0293  1.1393
  110MOL0     H15166   4.021   4.939   0.332 -0.7271 -0.1054 -0.7329
  110MOL0     H15167   3.888   4.754   0.339 -0.3153  2.3882  0.9583
  110MOL0     H15168   4.046   4.415   0.277 -1.6110 -0.9788 -0.6011
  110MOL0     H15169   4.020   4.334   0.435 -1.0587 -1.6295 -0.3595
  110MOL0     H15170   3.883   4.245   0.252 -1.9071  0.9427 -1.0169
  110MOL0     H15171   3.825   4.408   0.221  1.8376  1.1751  0.7638
  110MOL0     H15172   3.744   4.287   0.492  0.2401 -2.5284 -0.6128
  110MOL0     H15173   3.684   4.414   0.404 -1.8652 -1.5284  1.4291
  110MOL0     H15174   3.644   4.237   0.202 -0.3285 -4.3595  0.3096
  110MOL0     H15175   3.529   4.274   0.336 -0.2125  0.8773  0.2658
  110MOL0     H15176   3.690   3.877   0.392  2.3198  0.9885  3.8047
  110MOL0     H15177   4.206   4.531   0.510 -2.1393 -0.5747  0.4884
  110MOL0     H15178   4.435   4.604   0.507  2.2359 -0.1678 -0.3337
  110MOL0     H15179   4.467   4.751   0.414 -0.0662  0.5176  1.9128
  110MOL0     H15180   4.447   4.767   0.582  0.9711 -0.4915  0.0845
  111MOL0     O15181   3.997   3.921   0.749  0.4830 -0.0321  0.0135
  111MOL0     C15182   3.893   3.970   0.717 -0.4229 -0.0501 -0.2480
  111MOL0     O15183   3.890   4.088   0.643 -0.6308  0.3147  0.2172
  111MOL0     C15184   4.014   4.130   0.594  0.1865  0.3063  0.0029
  111MOL0     C15185   4.066   4.056   0.480 -0.8527  0.2401 -0.8565
  111MOL0     C15186   4.187   4.113   0.419  0.5793 -0.4232 -0.2955
  111MOL0     C15187   4.260   4.215   0.480 -0.3691 -0.1792  0.0248
  111MOL0     O15188   4.366   4.280   0.418  0.0906 -0.1247  0.7004
  111MOL0     C15189   4.476   4.293   0.515  0.0994 -0.1933 -0.2747
  111MOL0     C15190   4.607   4.281   0.432  0.6894  0.1662 -0.7160
  111MOL0     C15191   4.656   4.415   0.389 -0.3672 -0.2097  0.3474
  111MOL0     C15192   4.707   4.504   0.510  0.1233  0.0313  0.2708
  111MOL0     C15193   4.765   4.646   0.475  0.2763  0.5562 -0.5583
  111MOL0     C15194   4.813   4.661   0.333  0.1357 -0.2180  0.1258
  111MOL0     C15195   4.867   4.808   0.315  0.3273 -0.8584 -0.0812
  111MOL0     C15196   4.926   4.856   0.178  0.5000 -0.0513 -0.4956
  111MOL0     N15197   5.069   4.853   0.156 -0.1712 -1.0531 -0.0211
  111MOL0     C15198   5.122   4.921   0.049  0.3763 -0.1080  0.0327
  111MOL0     C15199   5.247   4.892   0.042 -0.7952  0.3616 -0.8737
  111MOL0     C15200   5.348   4.962  -0.048 -0.6648  0.3305  0.5792
  111MOL0     C15201   5.401   5.100   0.001  0.5203  0.1271 -0.2789
  111MOL0     C15202   5.531   5.129  -0.079 -0.6029 -0.0288 -0.3563
  111MOL0     C15203   5.504   5.189  -0.217  0.4647  0.7876 -0.4374
  111MOL0     O15204   5.624   5.167  -0.287 -0.0212  0.4550 -0.2756
  111MOL0     C15205   5.646   5.227  -0.407 -0.8387  0.2147 -0.2041
  111MOL0     C15206   5.767   5.199  -0.474  0.3924 -0.2495 -0.9864
  111MOL0     C15207   5.804   5.255  -0.593  0.4262  0.6475  0.3097
  111MOL0     C15208   5.941   5.213  -0.655  0.8345  0.5243  0.1088
  111MOL0     C15209   5.704   5.348  -0.656 -0.4624  0.7507  0.3616
  111MOL0     C15210   5.726   5.415  -0.786  0.6435  0.0273  0.0965
  111MOL0     O15211   5.616   5.481  -0.839  0.8035  0.4670 -0.3453
  111MOL0     C15212   5.629   5.558  -0.947  0.6221  0.3734  0.8135
  111MOL0     C15213   5.743   5.644  -0.970  0.8735 -0.4884 -0.7189
  111MOL0     C15214   5.750   5.720  -1.096  0.4450  0.4504 -0.5171
  111MOL0     C15215   5.641   5.721  -1.176 -0.6425 -0.1472 -0.2415
  111MOL0     O15216   5.646   5.807  -1.283  0.8254 -0.6883  0.2899
  111MOL0     C15217   5.628   5.740  -1.408 -1.1401 -0.0449  0.1810
  111MOL0     C15218   5.724   5.804  -1.510  0.2769 -0.5676  0.3179
  111MOL0     C15219   5.869   5.774  -1.476 -0.1492 -0.1929  0.3321
  111MOL0     C15220   5.950   5.815  -1.599 -0.1256 -0.0983  0.3513
  111MOL0     C15221   6.089   5.770  -1.574  0.7802  0.0560 -0.7363
  111MOL0     C15222   6.196   5.826  -1.672  0.5658 -0.4076  0.3567
  111MOL0     C15223   6.158   5.818  -1.824  0.2917  0.0358  0.8687
  111MOL0     C15224   6.273   5.819  -1.925 -0.5741  0.1203  0.0919
  111MOL0    Cl15225   6.384   5.670  -1.928  0.5261  0.0291  0.1006
  111MOL0     C15226   5.531   5.640  -1.156  0.4855 -0.3012 -0.2603
  111MOL0     C15227   5.530   5.553  -1.046  0.0333 -0.3665  0.3066
  111MOL0     O15228   5.839   5.407  -0.831  0.0525  0.5926  0.7251
  111MOL0     C15229   5.580   5.358  -0.594 -0.0145 -0.4649  0.2876
  111MOL0     C15230   5.548   5.303  -0.468 -0.4654 -0.6496 -0.4455
  111MOL0     N15231   5.277   4.817   0.154 -0.6470  0.2307  0.1358
  111MOL0     N15232   5.168   4.797   0.224 -0.6657 -0.0210 -1.0278
  111MOL0     C15233   4.205   4.275   0.596 -0.0608  0.9926  0.4906
  111MOL0     C15234   4.085   4.228   0.657  0.0215 -0.1262 -0.3612
  111MOL0     C15235   3.762   3.907   0.751  0.0816 -1.1973 -0.2883
  111MOL0     C15236   3.653   3.974   0.703  0.5404  0.1037  0.6187
  111MOL0     C15237   3.522   3.937   0.743  0.6906  0.2441  0.1867
  111MOL0     C15238   3.503   3.828   0.825 -1.0287  0.4245  0.8782
  111MOL0     O15239   3.380   3.780   0.854  0.5693 -0.0115  0.8126
  111MOL0     C15240   3.260   3.804   0.778  0.6065 -0.1740  0.5347
  111MOL0     C15241   3.168   3.880   0.874  0.1110  0.2805  0.2190
  111MOL0     C15242   3.032   3.917   0.800  0.1466 -0.5890  0.3157
  111MOL0     C15243   3.048   4.032   0.698 -1.1251 -0.0742 -0.1230
  111MOL0     C15244   2.940   4.040   0.596  0.3520  0.2801  0.6664
  111MOL0     C15245   2.848   4.041   0.522 -0.0640  0.3876 -0.9667
  111MOL0     C15246   3.607   3.758   0.878 -0.4562 -0.0285 -0.6615
  111MOL0     C15247   3.734   3.798   0.843  0.2027 -0.6932 -0.3869
  111MOL0     C15248   3.839   3.713   0.906 -0.7790 -1.0201  1.7565
  111MOL0     H15249   4.023   3.967   0.434 -0.4873 -0.3625 -0.0619
  111MOL0     H15250   4.220   4.082   0.321  1.5922  0.6811 -0.3231
  111MOL0     H15251   4.468   4.205   0.579  3.2061  0.0166  0.5339
  111MOL0     H15252   4.481   4.387   0.572  1.9322  0.9001 -2.0766
  111MOL0     H15253   4.678   4.239   0.503 -0.7322  0.8279  1.1574
  111MOL0     H15254   4.600   4.226   0.337  1.8188  0.5799 -1.0533
  111MOL0     H15255   4.742   4.404   0.323  1.2853 -0.0462  2.3680
  111MOL0     H15256   4.576   4.470   0.339  2.2548  2.6042 -1.1252
  111MOL0     H15257   4.633   4.534   0.585 -0.5761  2.2522 -1.2067
  111MOL0     H15258   4.790   4.451   0.558  1.0853  0.7450 -0.5381
  111MOL0     H15259   4.842   4.667   0.549 -1.0461  0.5032  0.8885
  111MOL0     H15260   4.684   4.719   0.483 -0.2727  0.0159 -1.0075
  111MOL0     H15261   4.892   4.588   0.313 -0.4072 -0.2119 -2.2841
  111MOL0     H15262   4.736   4.655   0.256  1.4616  1.1110 -1.3801
  111MOL0     H15263   4.943   4.831   0.391 -0.1474  1.4450 -0.2524
  111MOL0     H15264   4.779   4.870   0.331  0.5993 -0.2462 -0.9442
  111MOL0     H15265   4.889   4.785   0.104  2.3811 -4.8672  2.7302
  111MOL0     H15266   4.905   4.962   0.159  1.0823  0.1171 -0.2372
  111MOL0     H15267   5.057   4.976  -0.019 -0.8276 -0.5162  0.8148
  111MOL0     H15268   5.306   4.968  -0.149 -1.9387  0.2554  1.0901
  111MOL0     H15269   5.431   4.892  -0.063 -1.5060 -0.2473 -1.8653
  111MOL0     H15270   5.326   5.180  -0.005  0.7202  0.5715  1.9652
  111MOL0     H15271   5.423   5.085   0.107  1.1498  0.0629 -0.4123
  111MOL0     H15272   5.593   5.203  -0.026 -1.2817 -0.1916  0.6978
  111MOL0     H15273   5.593   5.040  -0.089  1.1613  0.8755  1.6720
  111MOL0     H15274   5.426   5.140  -0.276 -0.9437  1.0072  1.1471
  111MOL0     H15275   5.480   5.296  -0.217  0.2342  0.8513 -3.7948
  111MOL0     H15276   5.836   5.130  -0.427 -0.4804 -0.8225 -0.5185
  111MOL0     H15277   5.926   5.179  -0.758  0.9135  1.2747 -0.1566
  111MOL0     H15278   6.000   5.148  -0.591 -1.1705 -0.6149  0.9002
  111MOL0     H15279   6.001   5.304  -0.663  0.1994  0.8731 -0.8607
  111MOL0     H15280   5.828   5.649  -0.902  1.2346  0.2386 -1.2008
  111MOL0     H15281   5.839   5.781  -1.110  0.7131  0.0990 -0.3622
  111MOL0     H15282   5.660   5.635  -1.417  0.4180  0.5618 -2.5445
  111MOL0     H15283   5.529   5.756  -1.451 -0.7122  3.1690  0.1860
  111MOL0     H15284   5.699   5.756  -1.605  4.4513 -4.3970  0.8455
  111MOL0     H15285   5.696   5.910  -1.513 -1.9201 -1.1270 -1.7453
  111MOL0     H15286   5.882   5.665  -1.474  2.0894  0.0443  0.9878
  111MOL0     H15287   5.913   5.825  -1.390 -1.6532  0.6815  0.6181
  111MOL0     H15288   5.960   5.923  -1.594  1.6524 -0.1339 -1.2145
  111MOL0     H15289   5.907   5.779  -1.693  1.5908 -4.4916  0.9632
  111MOL0     H15290   6.116   5.784  -1.469 -0.6210  1.3424 -0.5127
  111MOL0     H15291   6.105   5.662  -1.585  3.3432  0.2603  0.2029
  111MOL0     H15292   6.290   5.774  -1.649  0.2915 -1.5219 -0.9019
  111MOL0     H15293   6.210   5.928  -1.637  1.0156 -1.0085  2.0424
  111MOL0     H15294   6.087   5.900  -1.841 -0.7191 -0.3978  2.6975
  111MOL0     H15295   6.113   5.720  -1.841 -0.1018  0.3377  0.1256
  111MOL0     H15296   6.327   5.909  -1.893  1.7033 -1.3413  0.5791
  111MOL0     H15297   6.226   5.834  -2.022  0.2071  0.3920 -0.2523
  111MOL0     H15298   5.447   5.647  -1.225  0.4000 -0.6268 -0.1915
  111MOL0     H15299   5.451   5.478  -1.047 -0.5109  0.2018 -0.3782
  111MOL0     H15300   5.502   5.424  -0.632 -1.7268 -2.3337  0.3698
  111MOL0     H15301   5.455   5.338  -0.424 -0.0883 -0.5739  0.3066
  111MOL0     H15302   4.268   4.343   0.651 -2.1545  0.3113  4.0462
  111MOL0     H15303   4.022   4.270   0.735 -1.1742 -0.2746 -1.2209
  111MOL0     H15304   3.654   4.061   0.638 -0.0921 -0.9228 -0.8262
  111MOL0     H15305   3.434   3.985   0.701  1.9252  2.0497 -0.4643
  111MOL0     H15306   3.276   3.855   0.683 -1.2775 -1.5125 -0.5705
  111MOL0     H15307   3.211   3.714   0.739 -2.3897  2.4443 -2.3625
  111MOL0     H15308   3.221   3.971   0.905 -0.3697 -0.0595  2.1559
  111MOL0     H15309   3.138   3.812   0.954 -1.1657 -2.8857 -2.7396
  111MOL0     H15310   2.995   3.828   0.749  1.2716 -1.2877  0.6919
  111MOL0     H15311   2.943   3.929   0.863  0.3521 -2.5263  1.0285
  111MOL0     H15312   3.139   4.021   0.638 -1.0450 -1.1824  0.1761
  111MOL0     H15313   3.049   4.130   0.746  1.9954 -1.2678  2.6428
  111MOL0     H15314   2.746   4.043   0.487 -0.4410 -1.4121 -0.1002
  111MOL0     H15315   3.583   3.675   0.944 -3.1163  1.2348  0.1134
  111MOL0     H15316   3.903   3.775   0.970 -2.8572 -1.0308  3.9692
  111MOL0     H15317   3.807   3.627   0.966  2.1692 -2.4093  1.5599
  111MOL0     H15318   3.906   3.678   0.826 -0.4623  1.4563  0.8344
  112MOL0     O15319   5.959   9.017   9.199  0.8605 -0.6979 -0.1624
  112MOL0     C15320   5.939   8.914   9.146 -0.5131  0.4055 -0.0777
  112MOL0     O15321   6.005   8.802   9.173 -0.0513 -0.6971 -0.1803
  112MOL0     C15322   6.063   8.789   9.295  0.2434 -1.2300 -0.7882
  112MOL0     C15323   6.198   8.764   9.283  0.5609  0.7538 -1.2136
  112MOL0     C15324   6.271   8.729   9.392  0.1402 -0.1070  0.0771
  112MOL0     C15325   6.219   8.728   9.523  0.2384  0.0581  0.1467
  112MOL0     O15326   6.299   8.686   9.630  0.0885  0.0557 -0.8701
  112MOL0     C15327   6.418   8.760   9.645 -0.2685 -0.7926 -0.5164
  112MOL0     C15328   6.457   8.763   9.790 -0.1798  0.0219 -1.0721
  112MOL0     C15329   6.606   8.804   9.823 -0.0210 -0.7315  0.0442
  112MOL0     C15330   6.628   8.905   9.940  0.0972  0.9106  0.8389
  112MOL0     C15331   6.773   8.924   9.971  0.7381 -1.1067  0.4062
  112MOL0     C15332   6.796   8.997  10.104 -0.8755 -0.5652  0.4767
  112MOL0     C15333   6.798   9.147  10.077  0.1638 -0.1968  0.0556
  112MOL0     C15334   6.943   9.203  10.053  0.0125 -0.9136  0.0621
  112MOL0     N15335   6.955   9.343  10.009  0.6790 -0.1829 -0.1071
  112MOL0     C15336   6.928   9.387   9.886  0.0293 -0.5898  0.1253
  112MOL0     C15337   6.993   9.507   9.880 -0.3622 -0.2894 -0.7344
  112MOL0     C15338   7.008   9.592   9.763 -0.1243  0.2999  0.0904
  112MOL0     C15339   7.018   9.735   9.799 -0.6723  0.0552  0.7624
  112MOL0     C15340   6.984   9.826   9.682 -0.5620 -0.1117  0.0616
  112MOL0     C15341   7.076   9.815   9.560 -0.1545 -0.2022  0.1629
  112MOL0     O15342   7.209   9.828   9.616 -0.1716 -1.1762  0.7910
  112MOL0     C15343   7.312   9.823   9.522  0.5787  0.4269  0.1193
  112MOL0     C15344   7.290   9.756   9.397  0.1301  0.1938 -0.5857
  112MOL0     C15345   7.393   9.747   9.303 -0.3242 -0.0857 -0.0632
  112MOL0     C15346   7.367   9.667   9.176  0.3338 -0.4126  0.1464
  112MOL0     C15347   7.521   9.798   9.341 -0.1204 -0.8089  0.4702
  112MOL0     C15348   7.642   9.787   9.254  0.1166  0.4090 -0.1131
  112MOL0     O15349   7.766   9.790   9.325  0.4038  0.3386 -0.4620
  112MOL0     C15350   7.881   9.807   9.249  0.2781 -0.0147 -0.3082
  112MOL0     C15351   7.903   9.884   9.130 -0.5004  0.7825 -0.7259
  112MOL0     C15352   8.032   9.887   9.068  0.8992 -0.5152 -0.6617
  112MOL0     C15353   8.141   9.825   9.125  0.2585 -1.3552 -0.1025
  112MOL0     O15354   8.264   9.844   9.068  0.1525 -0.1120  0.4132
  112MOL0     C15355   8.371   9.750   9.081  0.5877  0.4258  0.0743
  112MOL0     C15356   8.364   9.636   8.979  0.5026 -1.5285  0.4328
  112MOL0     C15357   8.467   9.527   8.999 -0.0583  0.6355 -0.0919
  112MOL0     C15358   8.421   9.411   8.915 -0.1724  0.3088  0.2605
  112MOL0     C15359   8.523   9.295   8.889 -0.2231  0.1599 -0.1705
  112MOL0     C15360   8.672   9.314   8.873 -0.2633 -0.0677  0.9174
  112MOL0     C15361   8.705   9.394   8.750 -0.4335 -0.3530  0.1741
  112MOL0     C15362   8.839   9.466   8.756 -0.1709  0.5984 -0.1202
  112MOL0    Cl15363   8.973   9.346   8.742  0.1344  0.4589  0.1291
  112MOL0     C15364   8.116   9.748   9.239 -0.6530  0.7692 -0.1621
  112MOL0     C15365   7.994   9.744   9.295  0.4835 -0.2512  0.4292
  112MOL0     O15366   7.632   9.773   9.132  0.0402  0.1136  0.0581
  112MOL0     C15367   7.537   9.859   9.468  1.0929 -0.7105  1.2360
  112MOL0     C15368   7.431   9.881   9.556  0.5755  0.2812  0.3477
  112MOL0     N15369   7.054   9.530  10.003 -0.2316  0.3652  0.0428
  112MOL0     N15370   7.026   9.431  10.077 -0.1951 -0.5663 -0.1450
  112MOL0     C15371   6.083   8.758   9.537 -0.5800 -0.0740  0.8460
  112MOL0     C15372   6.009   8.783   9.420 -0.1242 -0.4971 -1.1885
  112MOL0     C15373   5.840   8.913   9.029 -0.2216 -0.4007 -0.1842
  112MOL0     C15374   5.725   8.846   9.045 -0.0158 -0.3225 -0.2398
  112MOL0     C15375   5.634   8.840   8.940  0.0305  0.2200 -0.4525
  112MOL0     C15376   5.650   8.917   8.827 -0.7846  0.0218 -1.4634
  112MOL0     O15377   5.542   8.918   8.743 -0.0034  0.0553  0.2613
  112MOL0     C15378   5.536   9.016   8.649 -0.2140 -0.7335  0.0690
  112MOL0     C15379   5.396   9.039   8.605  0.1192  0.0990 -0.2561
  112MOL0     C15380   5.326   8.915   8.549  0.5657  0.3345  0.4461
  112MOL0     C15381   5.170   8.921   8.559  0.0280  0.3196  0.3248
  112MOL0     C15382   5.112   8.904   8.696  0.3362  0.7931  0.0854
  112MOL0     C15383   5.072   8.890   8.812  0.0463 -0.4114  0.0663
  112MOL0     C15384   5.770   8.991   8.811 -1.2488  0.6883 -0.8585
  112MOL0     C15385   5.873   8.984   8.906  0.3680 -0.9953 -0.6718
  112MOL0     C15386   6.001   9.069   8.894 -0.0370  0.5535 -1.2094
  112MOL0     H15387   6.237   8.759   9.182 -2.6897 -1.1646 -2.5327
  112MOL0     H15388   6.375   8.700   9.383 -0.0121 -0.7674  0.4340
  112MOL0     H15389   6.406   8.867   9.621 -0.8891  0.1736  3.4364
  112MOL0     H15390   6.505   8.717   9.594 -0.2296  0.6886 -1.7717
  112MOL0     H15391   6.390   8.830   9.846 -1.0716 -1.6826  0.0000
  112MOL0     H15392   6.441   8.668   9.842 -0.4797 -1.1589 -3.1774
  112MOL0     H15393   6.663   8.713   9.842  0.5134 -0.2751  0.6942
  112MOL0     H15394   6.659   8.859   9.744 -3.0632  0.7153 -1.1431
  112MOL0     H15395   6.587   9.002   9.909  0.6810  0.5170 -1.3541
  112MOL0     H15396   6.568   8.867  10.023 -0.1262  1.6834  1.0405
  112MOL0     H15397   6.829   8.969   9.889  2.2354 -1.1239  1.3778
  112MOL0     H15398   6.815   8.825   9.992  1.5295 -1.4422 -2.4148
  112MOL0     H15399   6.713   8.973  10.171 -0.8057 -1.0493  0.3887
  112MOL0     H15400   6.892   8.964  10.146 -1.4258 -1.1313  1.3189
  112MOL0     H15401   6.746   9.201  10.157  1.0044 -0.5832  0.8813
  112MOL0     H15402   6.728   9.180  10.000 -2.0700 -0.5525  1.8242
  112MOL0     H15403   7.001   9.191  10.145  0.8797 -0.1825 -0.3716
  112MOL0     H15404   6.977   9.155   9.961  0.9842 -0.2089  0.0433
  112MOL0     H15405   6.882   9.328   9.807 -1.0522 -0.4484  0.6306
  112MOL0     H15406   6.919   9.576   9.702 -1.4029 -1.4550  2.3078
  112MOL0     H15407   7.093   9.551   9.707 -0.5858 -1.0414  0.3509
  112MOL0     H15408   6.942   9.763   9.872 -0.9644  5.6014 -1.2131
  112MOL0     H15409   7.113   9.760   9.847 -0.6310  0.0948  0.6626
  112MOL0     H15410   6.882   9.809   9.646 -0.0977 -1.8923 -0.5010
  112MOL0     H15411   6.984   9.928   9.722  1.5543 -0.3861  0.8683
  112MOL0     H15412   7.056   9.718   9.511 -0.0626 -0.2140  0.1503
  112MOL0     H15413   7.055   9.897   9.491  1.4185  0.9219  0.9595
  112MOL0     H15414   7.200   9.700   9.373  0.2364 -0.0170 -0.4933
  112MOL0     H15415   7.268   9.623   9.191 -0.6515  2.0433  1.4912
  112MOL0     H15416   7.437   9.584   9.182  1.4504  0.5871  2.8626
  112MOL0     H15417   7.385   9.726   9.086  0.5720 -2.7886 -1.4313
  112MOL0     H15418   7.823   9.936   9.079  0.0562  4.0481  1.4512
  112MOL0     H15419   8.021   9.945   8.977 -3.3817 -0.8601 -0.5406
  112MOL0     H15420   8.464   9.807   9.076 -0.3072  1.9435 -0.1631
  112MOL0     H15421   8.376   9.705   9.181 -1.4580  4.7228  2.4069
  112MOL0     H15422   8.263   9.593   8.973  1.7359 -4.4775 -1.5151
  112MOL0     H15423   8.376   9.686   8.882 -0.3115 -0.0878  1.0331
  112MOL0     H15424   8.473   9.498   9.104 -0.3605  1.5938  0.1974
  112MOL0     H15425   8.564   9.567   8.971  1.3332 -0.2606  3.0047
  112MOL0     H15426   8.389   9.463   8.825  1.8106  0.7646 -0.2270
  112MOL0     H15427   8.328   9.374   8.960 -0.3450  0.8665  0.3742
  112MOL0     H15428   8.497   9.230   8.973 -0.4505  2.3539  1.5467
  112MOL0     H15429   8.503   9.236   8.799  1.0142 -0.2025 -0.2189
  112MOL0     H15430   8.727   9.220   8.858  1.3361  0.5820  2.3393
  112MOL0     H15431   8.713   9.349   8.968 -1.8130 -0.3658  1.7164
  112MOL0     H15432   8.634   9.475   8.729  0.2590  0.0644 -0.5767
  112MOL0     H15433   8.706   9.330   8.661  1.2578  1.1399 -0.9428
  112MOL0     H15434   8.849   9.528   8.845  0.0112 -0.6002  0.7107
  112MOL0     H15435   8.847   9.519   8.661  0.7295 -0.5868 -0.7421
  112MOL0     H15436   8.194   9.691   9.289  0.2810  1.0210 -1.3047
  112MOL0     H15437   7.987   9.679   9.382 -1.7317 -0.9372 -0.2171
  112MOL0     H15438   7.636   9.885   9.502  1.7773  1.5048 -1.9932
  112MOL0     H15439   7.460   9.931   9.648  4.3302 -1.9561  0.6078
  112MOL0     H15440   6.022   8.743   9.625 -1.6764 -0.7489 -0.0060
  112MOL0     H15441   5.902   8.803   9.427 -0.1330  0.3030 -2.9348
  112MOL0     H15442   5.721   8.788   9.137 -2.7157 -0.4070 -0.3268
  112MOL0     H15443   5.542   8.786   8.957 -1.5105  3.0520  0.9963
  112MOL0     H15444   5.583   9.108   8.683 -2.2981  0.4774 -0.1437
  112MOL0     H15445   5.601   8.980   8.569 -0.0177 -1.3668  0.5068
  112MOL0     H15446   5.410   9.122   8.536  0.2368 -0.2389 -0.6413
  112MOL0     H15447   5.334   9.075   8.688  1.3531 -1.5029  1.4518
  112MOL0     H15448   5.348   8.894   8.444  0.9344 -2.6031  1.0369
  112MOL0     H15449   5.359   8.828   8.606 -2.5858 -2.0347 -1.0364
  112MOL0     H15450   5.127   8.846   8.491 -0.5794  1.1954 -0.2848
  112MOL0     H15451   5.134   9.016   8.518  1.2129  1.0040  0.8115
  112MOL0     H15452   5.028   8.895   8.909 -2.2821  1.2986 -0.9886
  112MOL0     H15453   5.777   9.052   8.721 -2.1789 -2.8146 -3.5063
  112MOL0     H15454   6.026   9.062   8.788  2.5865 -1.2877 -0.5688
  112MOL0     H15455   5.991   9.172   8.929 -2.1942 -0.3694  1.1802
  112MOL0     H15456   6.085   9.027   8.950 -1.5171 -3.5236 -1.7001
  113MOL0     O15457   7.350   0.076   1.648  0.0519 -0.0918  0.7462
  113MOL0     C15458   7.302   0.092   1.755  0.1346  0.2258  0.3342
  113MOL0     O15459   7.368   0.136   1.868 -0.0734  0.2529  0.2362
  113MOL0     C15460   7.498   0.190   1.868  1.0822 -0.0350  0.1691
  113MOL0     C15461   7.587   0.180   1.757  0.0807 -1.2162 -0.2946
  113MOL0     C15462   7.721   0.226   1.774  0.0586 -0.5697 -0.7778
  113MOL0     C15463   7.766   0.287   1.897  0.3481 -0.5182 -0.3354
  113MOL0     O15464   7.896   0.329   1.907 -0.1976 -0.5435  0.0708
  113MOL0     C15465   7.928   0.424   2.009 -1.1641 -0.5302 -0.2277
  113MOL0     C15466   8.084   0.435   2.034  0.9638  0.8638  0.3077
  113MOL0     C15467   8.150   0.311   2.099  0.7232  0.3140  0.2753
  113MOL0     C15468   8.165   0.204   1.990  0.2535  0.3349 -0.7442
  113MOL0     C15469   8.068   0.080   2.013 -0.2768 -0.0474  0.5742
  113MOL0     C15470   8.056   0.009   1.881  0.1593 -0.2343  0.6216
  113MOL0     C15471   7.956  -0.106   1.893 -0.4110  0.2289  0.6534
  113MOL0     C15472   7.882  -0.142   1.763 -0.3704  0.3301 -0.5145
  113MOL0     N15473   7.981  -0.154   1.659  0.2817  0.0085  0.6480
  113MOL0     C15474   8.065  -0.263   1.635 -0.8843 -0.2564 -0.3743
  113MOL0     C15475   8.153  -0.212   1.543  0.2394  0.4829 -0.6098
  113MOL0     C15476   8.294  -0.269   1.513  0.5473 -0.5332  0.5143
  113MOL0     C15477   8.404  -0.162   1.517 -0.5914  0.1275  0.0619
  113MOL0     C15478   8.472  -0.137   1.653  0.0292 -0.3473  0.8599
  113MOL0     C15479   8.564  -0.251   1.704 -0.9596 -0.3199 -0.1662
  113MOL0     O15480   8.667  -0.299   1.608  0.0045 -1.0105 -0.7128
  113MOL0     C15481   8.769  -0.382   1.645 -0.8140 -0.9702  0.5435
  113MOL0     C15482   8.790  -0.428   1.778 -0.5164 -0.0952 -1.6847
  113MOL0     C15483   8.888  -0.513   1.813 -0.1891  0.3714 -0.1989
  113MOL0     C15484   8.900  -0.543   1.956  0.5348  0.1876  1.1429
  113MOL0     C15485   8.972  -0.561   1.709 -0.0818 -0.1538  0.5402
  113MOL0     C15486   9.095  -0.639   1.741 -0.5864 -0.5135 -0.0419
  113MOL0     O15487   9.158  -0.711   1.637  0.3805  0.0013 -0.5615
  113MOL0     C15488   9.257  -0.802   1.666  0.5893  0.0413 -0.1824
  113MOL0     C15489   9.380  -0.786   1.600  0.4272  0.2799  0.0621
  113MOL0     C15490   9.486  -0.880   1.620 -0.3881 -0.5056  0.0449
  113MOL0     C15491   9.460  -1.000   1.688  0.4564 -0.2380  0.7029
  113MOL0     O15492   9.564  -1.090   1.686 -0.0393 -0.3027  0.2950
  113MOL0     C15493   9.582  -1.161   1.807  0.4885  0.4003  0.5744
  113MOL0     C15494   9.729  -1.217   1.796  1.1962 -0.6889  0.5111
  113MOL0     C15495   9.827  -1.112   1.855 -0.5061  0.6031  0.2178
  113MOL0     C15496   9.980  -1.118   1.809  1.2285  0.1257  0.7419
  113MOL0     C15497  10.068  -1.052   1.908 -0.5992  0.0520  0.0403
  113MOL0     C15498  10.214  -1.118   1.893  0.3135 -0.2551  0.5747
  113MOL0     C15499  10.313  -1.052   1.989  0.3197  0.4470 -0.1987
  113MOL0     C15500  10.462  -1.101   2.002  0.4214 -0.4133  0.4226
  113MOL0    Cl15501  10.564  -0.969   2.065 -0.1718  0.1033  0.0849
  113MOL0     C15502   9.333  -1.010   1.754  0.5946  0.4418 -0.6065
  113MOL0     C15503   9.235  -0.909   1.748  0.4982  0.0982 -0.0323
  113MOL0     O15504   9.146  -0.612   1.850  0.2904  0.2216  0.0893
  113MOL0     C15505   8.940  -0.524   1.577  0.5627  0.4482  0.1773
  113MOL0     C15506   8.847  -0.424   1.546 -0.1676  0.2052  0.4689
  113MOL0     N15507   8.111  -0.086   1.499  0.0121  0.4122  0.4784
  113MOL0     N15508   8.010  -0.053   1.567  0.7805  0.0876  0.5542
  113MOL0     C15509   7.671   0.300   1.997  0.7988 -0.8138  0.5715
  113MOL0     C15510   7.542   0.247   1.984 -0.0889  1.0044 -0.1980
  113MOL0     C15511   7.159   0.045   1.768 -0.6048  0.9418 -0.2816
  113MOL0     C15512   7.107   0.040   1.905  0.7515  0.4368  0.2287
  113MOL0     C15513   6.977   0.008   1.923 -0.5024  0.7761 -1.1677
  113MOL0     C15514   6.895  -0.040   1.824 -0.3197 -1.0313  1.0765
  113MOL0     O15515   6.765  -0.084   1.842  0.0625 -0.0859  0.2142
  113MOL0     C15516   6.653  -0.043   1.762 -0.1210  0.1266 -0.0064
  113MOL0     C15517   6.629   0.109   1.788  0.2891 -0.3344  0.3450
  113MOL0     C15518   6.528   0.161   1.685  0.1664 -0.5696 -0.1278
  113MOL0     C15519   6.393   0.099   1.688  0.4679 -0.0979 -1.2670
  113MOL0     C15520   6.345   0.071   1.826  0.3429  0.7198  0.4808
  113MOL0     C15521   6.306   0.050   1.941  0.1474 -0.3867 -0.3495
  113MOL0     C15522   6.940  -0.034   1.688  0.0011  0.4858  0.1313
  113MOL0     C15523   7.065   0.019   1.659 -0.8663  0.4900  0.2118
  113MOL0     C15524   7.099   0.031   1.516  0.3473 -0.8736  0.6581
  113MOL0     H15525   7.560   0.151   1.656  1.1683 -1.0052 -0.6618
  113MOL0     H15526   7.789   0.226   1.689  0.5914  1.5672 -0.3964
  113MOL0     H15527   7.887   0.397   2.107 -0.4738  3.0151  1.1883
  113MOL0     H15528   7.896   0.524   1.981  1.0564  0.5803  0.9566
  113MOL0     H15529   8.135   0.463   1.941  0.8340  0.7296  0.1952
  113MOL0     H15530   8.095   0.522   2.098  1.3615  2.2367 -1.5412
  113MOL0     H15531   8.249   0.341   2.135  0.9751  1.9338 -1.6258
  113MOL0     H15532   8.092   0.276   2.185 -1.4348 -0.4867 -1.4214
  113MOL0     H15533   8.145   0.248   1.892 -0.0194 -1.1192 -1.3614
  113MOL0     H15534   8.267   0.165   1.985 -1.0098 -3.4106 -0.1783
  113MOL0     H15535   7.969   0.113   2.045 -1.1970 -3.7557  2.1311
  113MOL0     H15536   8.110   0.015   2.090  1.9690  0.1341 -0.4287
  113MOL0     H15537   8.018   0.085   1.812 -0.3558 -0.3366  0.7832
  113MOL0     H15538   8.149  -0.026   1.837 -0.7511 -0.7129 -0.9844
  113MOL0     H15539   7.889  -0.087   1.978  1.2805  0.3341  2.0278
  113MOL0     H15540   8.013  -0.191   1.930 -2.0967 -0.7932  1.0413
  113MOL0     H15541   7.838  -0.243   1.765  2.0284 -0.7795  1.3152
  113MOL0     H15542   7.813  -0.062   1.739  0.1600  2.2231  3.4852
  113MOL0     H15543   8.073  -0.355   1.692  0.9127 -0.7223 -1.2995
  113MOL0     H15544   8.291  -0.306   1.410 -1.3690 -1.3716  0.8340
  113MOL0     H15545   8.314  -0.354   1.578  2.0662 -0.6391 -0.0444
  113MOL0     H15546   8.481  -0.180   1.441  0.4322  0.6869  0.9352
  113MOL0     H15547   8.350  -0.073   1.485  2.1151  1.1549 -2.0840
  113MOL0     H15548   8.521  -0.041   1.639 -1.8618  0.9528  2.5751
  113MOL0     H15549   8.393  -0.109   1.723 -1.9996 -0.2055 -1.3803
  113MOL0     H15550   8.620  -0.212   1.790  1.5608 -1.4429 -1.2014
  113MOL0     H15551   8.510  -0.342   1.730  1.0831 -0.9401  2.3248
  113MOL0     H15552   8.720  -0.398   1.856 -2.2988 -0.4789 -3.0819
  113MOL0     H15553   8.804  -0.564   2.005  0.1245 -2.8663 -0.6854
  113MOL0     H15554   8.947  -0.469   2.021 -0.4211  1.9505 -0.0630
  113MOL0     H15555   8.944  -0.642   1.968  4.7416  1.3253 -2.4092
  113MOL0     H15556   9.400  -0.692   1.549  1.8926  1.2012  2.1917
  113MOL0     H15557   9.582  -0.877   1.569  1.1158  2.5447  2.6914
  113MOL0     H15558   9.576  -1.101   1.899  0.0367  0.1883  0.6833
  113MOL0     H15559   9.515  -1.246   1.813  0.0580  0.5881 -1.0901
  113MOL0     H15560   9.748  -1.311   1.847  2.0651  0.6287  2.7493
  113MOL0     H15561   9.749  -1.231   1.689 -1.3381  0.0397 -0.1388
  113MOL0     H15562   9.823  -1.113   1.965  0.6439  0.5887  0.2691
  113MOL0     H15563   9.799  -1.012   1.821  1.5750  0.4003 -2.3664
  113MOL0     H15564   9.988  -1.073   1.710  2.6841 -1.5849  0.0264
  113MOL0     H15565  10.011  -1.221   1.791  0.6039  0.1089 -0.2838
  113MOL0     H15566  10.068  -0.943   1.902  2.1605  0.4172  3.2782
  113MOL0     H15567  10.022  -1.068   2.006 -0.3719  1.2940  0.3696
  113MOL0     H15568  10.250  -1.108   1.790  0.2272  1.5527  0.6806
  113MOL0     H15569  10.206  -1.225   1.914  0.8080 -0.4823 -0.3495
  113MOL0     H15570  10.277  -1.058   2.092  1.1049 -0.0630  0.0550
  113MOL0     H15571  10.320  -0.943   1.980  1.0289  0.6886  2.3625
  113MOL0     H15572  10.503  -1.129   1.905 -1.2446 -0.1471 -0.3958
  113MOL0     H15573  10.453  -1.193   2.060 -2.9943 -0.6882 -0.3081
  113MOL0     H15574   9.302  -1.094   1.816  1.8401 -1.5690 -2.5425
  113MOL0     H15575   9.136  -0.927   1.789 -0.0905 -0.7566 -1.7527
  113MOL0     H15576   8.997  -0.578   1.503 -2.8428 -0.5286 -1.9736
  113MOL0     H15577   8.839  -0.377   1.449  0.7948  0.2402  0.3950
  113MOL0     H15578   7.699   0.346   2.091  0.4153 -2.5916  1.6149
  113MOL0     H15579   7.474   0.250   2.068 -0.1666  0.4482 -0.2364
  113MOL0     H15580   7.163   0.089   1.984 -0.6065  3.8831 -0.7940
  113MOL0     H15581   6.947   0.001   2.027  1.3439  0.7932 -0.6040
  113MOL0     H15582   6.659  -0.062   1.655 -1.0127  0.5006 -0.1307
  113MOL0     H15583   6.571  -0.102   1.803  1.9411 -2.0831  1.1596
  113MOL0     H15584   6.725   0.156   1.766  1.3224 -3.3997 -2.7173
  113MOL0     H15585   6.601   0.123   1.893 -1.4547  1.3264 -0.2755
  113MOL0     H15586   6.517   0.268   1.706  4.1313 -0.4356  2.1796
  113MOL0     H15587   6.572   0.150   1.585 -1.1503  0.6683 -0.8886
  113MOL0     H15588   6.393   0.007   1.629  0.8135 -0.7851 -0.2004
  113MOL0     H15589   6.331   0.171   1.634 -0.7460 -0.2676 -0.1422
  113MOL0     H15590   6.265   0.041   2.040 -1.4790 -1.8241 -1.0859
  113MOL0     H15591   6.881  -0.071   1.605 -0.2431 -1.4974  1.1308
  113MOL0     H15592   7.111   0.137   1.491 -1.0968 -0.9561 -0.5105
  113MOL0     H15593   7.186  -0.027   1.484  1.9803  1.4116  0.6681
  113MOL0     H15594   7.015   0.006   1.452  1.9469 -1.6521 -1.2491
  114MOL0     O15595   1.864  10.008   4.153  0.3481  0.4057  0.3964
  114MOL0     C15596   1.897  10.083   4.060 -0.0536  0.2133 -0.4853
  114MOL0     O15597   2.021  10.092   4.017 -0.0039 -0.0981  0.1119
  114MOL0     C15598   2.130  10.059   4.094  0.0215  0.0866  0.6321
  114MOL0     C15599   2.145  10.090   4.229  0.1527 -0.4148  0.3705
  114MOL0     C15600   2.274  10.066   4.283  0.2185 -0.2486 -0.0958
  114MOL0     C15601   2.390  10.007   4.214  0.0615  0.1401 -0.3825
  114MOL0     O15602   2.517   9.988   4.257 -0.2703 -0.1091  1.0661
  114MOL0     C15603   2.535  10.024   4.393 -0.1996 -0.7185  0.0142
  114MOL0     C15604   2.667   9.967   4.457 -0.3230  0.5361 -0.7148
  114MOL0     C15605   2.803  10.023   4.403 -0.6096 -0.1216  0.3763
  114MOL0     C15606   2.907   9.933   4.458 -0.5302  0.0802 -0.4398
  114MOL0     C15607   3.039   9.990   4.421 -0.4768 -0.7863  0.0389
  114MOL0     C15608   3.071   9.982   4.266  0.3204  0.4269 -0.2544
  114MOL0     C15609   3.216  10.020   4.231  0.5005  0.6435  0.4459
  114MOL0     C15610   3.237  10.167   4.236  0.8480 -0.1407  0.1393
  114MOL0     N15611   3.369  10.203   4.192  0.6525 -0.5249 -0.0772
  114MOL0     C15612   3.445  10.158   4.084  0.4432  0.0259  0.5864
  114MOL0     C15613   3.565  10.220   4.100 -0.0924 -0.4315  0.3926
  114MOL0     C15614   3.693  10.209   4.012 -0.7294 -0.1743 -0.3943
  114MOL0     C15615   3.673  10.282   3.882  0.7792  0.7209 -0.4583
  114MOL0     C15616   3.811  10.286   3.800  0.8271  0.3347  0.7689
  114MOL0     C15617   3.886  10.155   3.780  0.0872 -0.5183 -0.0342
  114MOL0     O15618   4.004  10.175   3.695 -0.3467  0.2232  0.1800
  114MOL0     C15619   4.123  10.219   3.761 -0.4761 -0.4543 -0.3916
  114MOL0     C15620   4.230  10.213   3.673 -0.3365  0.1232 -0.3075
  114MOL0     C15621   4.358  10.249   3.706 -0.0946  0.2079 -0.5914
  114MOL0     C15622   4.471  10.225   3.606 -0.3476  0.6109 -0.0474
  114MOL0     C15623   4.374  10.307   3.836 -0.1307  0.5421  0.0152
  114MOL0     C15624   4.502  10.372   3.890 -0.1940 -1.0268 -0.4986
  114MOL0     O15625   4.478  10.465   3.991  0.2289 -0.2136  0.2693
  114MOL0     C15626   4.599  10.526   4.022  0.1733  0.0013  0.0060
  114MOL0     C15627   4.614  10.663   4.006  0.9602 -0.3312  0.4480
  114MOL0     C15628   4.731  10.731   4.037  0.1244 -0.8412 -0.2242
  114MOL0     C15629   4.837  10.671   4.104 -1.1388  1.2038  0.0226
  114MOL0     O15630   4.931  10.746   4.161 -0.0809 -0.6250  0.3472
  114MOL0     C15631   5.068  10.704   4.157  0.6170  0.8471  0.0888
  114MOL0     C15632   5.138  10.697   4.022  0.3110 -0.1399 -0.0512
  114MOL0     C15633   5.297  10.681   4.026 -0.1620 -0.1791  0.6266
  114MOL0     C15634   5.345  10.567   4.110  0.5315 -0.0825 -0.0973
  114MOL0     C15635   5.279  10.428   4.094  1.3991  0.0608 -0.5177
  114MOL0     C15636   5.357  10.311   4.136  0.2612  0.3743 -0.1183
  114MOL0     C15637   5.286  10.183   4.110 -0.1198  0.1703  0.1233
  114MOL0     C15638   5.362  10.061   4.160 -0.3201  0.0385 -0.1471
  114MOL0    Cl15639   5.363  10.064   4.342 -0.4247 -0.2572 -0.2483
  114MOL0     C15640   4.823  10.530   4.129  0.9757 -0.1059 -0.2478
  114MOL0     C15641   4.698  10.466   4.101 -1.0303 -0.3122 -0.5677
  114MOL0     O15642   4.611  10.348   3.831  0.3497 -1.0452 -0.5640
  114MOL0     C15643   4.261  10.313   3.921  0.0210 -0.4235 -0.1593
  114MOL0     C15644   4.132  10.270   3.883 -0.3017 -0.1058 -0.1138
  114MOL0     N15645   3.553  10.308   4.208  0.4624  0.4471  1.4549
  114MOL0     N15646   3.435  10.299   4.262  1.0752  0.2109  0.1230
  114MOL0     C15647   2.367   9.975   4.084  0.1466  0.2778 -0.5982
  114MOL0     C15648   2.242   9.998   4.021  0.1543 -0.6058 -0.0757
  114MOL0     C15649   1.788  10.136   3.965 -0.1604 -0.2728  0.2172
  114MOL0     C15650   1.842  10.170   3.834  0.1945  0.8586 -0.1775
  114MOL0     C15651   1.753  10.216   3.736 -0.4204 -0.3913  0.4152
  114MOL0     C15652   1.623  10.237   3.768  0.0048  0.1052  0.3053
  114MOL0     O15653   1.554  10.291   3.670  0.6505  0.6767  0.4995
  114MOL0     C15654   1.414  10.328   3.675 -0.2887 -0.2313  0.2030
  114MOL0     C15655   1.322  10.201   3.665  0.9218  0.2896  0.4226
  114MOL0     C15656   1.174  10.236   3.644 -0.3966  1.0025  0.3477
  114MOL0     C15657   1.088  10.108   3.651 -0.7411  0.2929 -0.3647
  114MOL0     C15658   0.962  10.146   3.582  0.1598  0.0972 -0.9975
  114MOL0     C15659   0.859  10.183   3.534 -0.6301 -0.3457  0.4531
  114MOL0     C15660   1.575  10.215   3.898 -0.0215  0.5121  0.8780
  114MOL0     C15661   1.650  10.164   3.998 -1.1249  0.0742  0.4702
  114MOL0     C15662   1.581  10.136   4.122  0.4453 -0.5625  0.9877
  114MOL0     H15663   2.066  10.126   4.295  0.5299  4.3057 -1.3462
  114MOL0     H15664   2.296  10.090   4.387 -1.7591  1.4061 -0.0087
  114MOL0     H15665   2.453   9.976   4.446 -2.1700  0.8842 -1.4449
  114MOL0     H15666   2.538  10.130   4.418 -5.9762 -0.0401 -0.7920
  114MOL0     H15667   2.662   9.990   4.564 -0.5695  2.8603 -1.1701
  114MOL0     H15668   2.666   9.858   4.444 -0.2725  0.7562 -2.8596
  114MOL0     H15669   2.794  10.019   4.294 -1.0667 -0.2776  0.4162
  114MOL0     H15670   2.809  10.124   4.443 -2.7799  0.5006 -0.7185
  114MOL0     H15671   2.903   9.937   4.567 -1.7815  1.5561 -0.5119
  114MOL0     H15672   2.906   9.828   4.427  3.7176 -1.1192  2.4441
  114MOL0     H15673   3.119   9.942   4.478  2.1771  1.2471 -1.7402
  114MOL0     H15674   3.045  10.093   4.457  1.9296  0.0588 -2.4538
  114MOL0     H15675   3.043   9.882   4.230 -1.3511  0.9891 -0.6177
  114MOL0     H15676   3.005  10.055   4.217 -1.4732  0.7078  2.3774
  114MOL0     H15677   3.234   9.991   4.127  1.9972 -0.6473  1.0223
  114MOL0     H15678   3.286   9.959   4.289 -0.5005 -1.4576 -0.4403
  114MOL0     H15679   3.162  10.220   4.176 -1.4450 -1.6747  1.4828
  114MOL0     H15680   3.226  10.200   4.340 -1.5288  0.1535 -0.1448
  114MOL0     H15681   3.401  10.083   4.018  0.8279 -0.1889  0.5710
  114MOL0     H15682   3.694  10.100   4.000 -3.5703 -0.5370  1.6943
  114MOL0     H15683   3.776  10.249   4.072 -0.4706 -1.1138 -0.1113
  114MOL0     H15684   3.597  10.219   3.834  0.4183  0.3205  0.6189
  114MOL0     H15685   3.624  10.377   3.905 -0.9183  0.2371 -1.8325
  114MOL0     H15686   3.782  10.328   3.703  1.4182 -0.6629  0.1452
  114MOL0     H15687   3.870  10.367   3.843  1.9006  1.4066 -2.4124
  114MOL0     H15688   3.908  10.110   3.877  5.6358  3.0428  0.8181
  114MOL0     H15689   3.816  10.087   3.731 -0.1899  0.1104 -0.5301
  114MOL0     H15690   4.210  10.171   3.575  1.0031  3.4816 -2.2141
  114MOL0     H15691   4.529  10.147   3.655 -0.9092  0.1888 -0.0430
  114MOL0     H15692   4.526  10.318   3.588  1.9025 -0.8859 -1.4332
  114MOL0     H15693   4.433  10.190   3.509  1.2104 -0.0737 -0.4449
  114MOL0     H15694   4.538  10.718   3.952 -0.0564 -0.0512  2.0989
  114MOL0     H15695   4.744  10.836   4.013  1.5547 -1.4423 -2.5055
  114MOL0     H15696   5.120  10.781   4.214  0.4770 -0.2664  1.8046
  114MOL0     H15697   5.087  10.612   4.213  1.3509 -0.4988 -2.2160
  114MOL0     H15698   5.103  10.610   3.966  0.1455  0.4148 -0.8193
  114MOL0     H15699   5.124  10.784   3.957  1.2446 -0.4570 -0.7059
  114MOL0     H15700   5.347  10.769   4.067  0.5543  1.5906 -3.5491
  114MOL0     H15701   5.335  10.661   3.925 -0.2884  0.8010  0.3764
  114MOL0     H15702   5.329  10.601   4.212 -1.3241  2.0390 -0.9916
  114MOL0     H15703   5.452  10.552   4.096  0.8148  1.1465  0.6564
  114MOL0     H15704   5.184  10.430   4.147  1.0824 -4.8054 -0.5022
  114MOL0     H15705   5.260  10.396   3.991 -1.6054  1.6828 -0.5946
  114MOL0     H15706   5.399  10.319   4.237  4.0520 -2.3278 -1.2845
  114MOL0     H15707   5.437  10.308   4.062  0.9681  0.7381  0.6106
  114MOL0     H15708   5.266  10.178   4.002 -0.6161 -0.1829  0.2285
  114MOL0     H15709   5.185  10.169   4.151 -0.9273  0.0994 -1.7698
  114MOL0     H15710   5.460  10.040   4.115 -1.5317 -1.6622 -2.1746
  114MOL0     H15711   5.302   9.975   4.129 -0.8954  0.1133  0.7214
  114MOL0     H15712   4.899  10.480   4.188 -1.0498  0.2878  2.9882
  114MOL0     H15713   4.677  10.367   4.140  1.2368 -0.5425  0.2073
  114MOL0     H15714   4.270  10.357   4.020 -2.3505  1.0747 -0.5083
  114MOL0     H15715   4.044  10.286   3.944 -0.4579  0.7111 -0.5326
  114MOL0     H15716   2.429   9.912   4.021 -0.3218 -1.0955  0.2624
  114MOL0     H15717   2.215   9.960   3.922  2.6736 -2.0415 -0.2965
  114MOL0     H15718   1.944  10.153   3.804 -0.0463 -1.5575  0.1741
  114MOL0     H15719   1.788  10.238   3.635 -1.0750 -0.6194  0.1342
  114MOL0     H15720   1.396  10.380   3.769  0.8902  1.3195 -0.3960
  114MOL0     H15721   1.384  10.399   3.596  1.3010  0.9026  0.5858
  114MOL0     H15722   1.345  10.143   3.755  1.8723 -0.3409 -0.2000
  114MOL0     H15723   1.367  10.132   3.592 -1.4211 -3.2541  2.0606
  114MOL0     H15724   1.140  10.309   3.717  2.1006 -0.8029  3.5784
  114MOL0     H15725   1.169  10.264   3.538 -0.2661 -0.3068 -0.0241
  114MOL0     H15726   1.062  10.092   3.756  3.1796 -2.8655  0.3797
  114MOL0     H15727   1.129  10.011   3.621  0.6185  0.4535  0.8582
  114MOL0     H15728   0.769  10.221   3.492 -0.6376 -1.8730 -0.9979
  114MOL0     H15729   1.471  10.236   3.919  0.2113  1.4858  1.1003
  114MOL0     H15730   1.494  10.078   4.089  0.5045  1.4990 -3.4013
  114MOL0     H15731   1.627  10.077   4.202  0.7952 -0.1566  1.0873
  114MOL0     H15732   1.567  10.228   4.180  1.9045 -0.3184  0.9926
  115MOL0     O15733   9.357   9.018   1.604  0.5443  0.4917 -0.7129
  115MOL0     C15734   9.349   9.137   1.604  0.7361 -0.2138 -0.6021
  115MOL0     O15735   9.454   9.218   1.619  0.5141  0.3279 -0.0450
  115MOL0     C15736   9.583   9.174   1.636  0.6467  0.6257  0.6270
  115MOL0     C15737   9.671   9.270   1.599 -0.3056  0.2853  0.1198
  115MOL0     C15738   9.812   9.248   1.628 -0.6474  0.1679 -0.3939
  115MOL0     C15739   9.858   9.128   1.689  0.4807 -0.2098 -0.4041
  115MOL0     O15740   9.989   9.104   1.727 -0.8233  0.0084 -0.0051
  115MOL0     C15741  10.020   9.135   1.863 -0.1080  0.4012 -0.0874
  115MOL0     C15742  10.151   9.068   1.901 -0.4270  0.6035 -0.1392
  115MOL0     C15743  10.195   9.087   2.050 -0.0960  0.4039 -0.0309
  115MOL0     C15744  10.316   8.996   2.080  0.2628  0.0573  0.8175
  115MOL0     C15745  10.437   9.071   2.038  0.1943  0.5265  0.1281
  115MOL0     C15746  10.558   9.039   2.127  0.1464 -0.1043 -0.1843
  115MOL0     C15747  10.673   9.069   2.041 -0.5611 -0.8488 -0.0909
  115MOL0     C15748  10.706   8.936   1.956  0.6176  0.5569  0.3821
  115MOL0     N15749  10.805   8.967   1.848 -0.0389  1.0605  0.0870
  115MOL0     C15750  10.926   9.025   1.867 -0.2187 -0.7489 -0.2108
  115MOL0     C15751  10.978   9.037   1.742  0.1695 -0.0348 -0.2628
  115MOL0     C15752  11.105   9.094   1.692 -1.0192 -0.8804  0.1407
  115MOL0     C15753  11.099   9.237   1.640  0.6064  0.1309 -0.2656
  115MOL0     C15754  11.234   9.312   1.639 -0.3193 -0.8160 -0.4148
  115MOL0     C15755  11.244   9.463   1.622  0.8043 -0.0162  0.8068
  115MOL0     O15756  11.376   9.503   1.606  1.0926 -1.1338 -0.1815
  115MOL0     C15757  11.449   9.547   1.718  0.7148 -0.4774 -0.3970
  115MOL0     C15758  11.400   9.650   1.806 -0.0691 -0.2728  0.1563
  115MOL0     C15759  11.472   9.683   1.918 -0.9629 -0.0442  0.9177
  115MOL0     C15760  11.402   9.772   2.023  0.5609  0.3772  0.1044
  115MOL0     C15761  11.603   9.626   1.943  0.7460  0.1899  0.0773
  115MOL0     C15762  11.684   9.667   2.057  0.3470 -0.5160 -0.4048
  115MOL0     O15763  11.744   9.563   2.119  0.7158 -0.5359 -0.0037
  115MOL0     C15764  11.799   9.577   2.242 -0.6356 -0.3632 -0.7752
  115MOL0     C15765  11.731   9.622   2.356  1.2174  0.0737  0.3209
  115MOL0     C15766  11.807   9.633   2.472  0.3372  0.6069  0.1684
  115MOL0     C15767  11.937   9.590   2.480 -0.5023  0.7069 -0.3271
  115MOL0     O15768  12.012   9.617   2.587 -0.3198  1.1274 -0.8636
  115MOL0     C15769  11.966   9.554   2.716 -0.5821  0.2323  0.1781
  115MOL0     C15770  12.081   9.558   2.819  0.2333  0.4482  0.2876
  115MOL0     C15771  12.109   9.708   2.870  0.4606 -0.6082  0.2773
  115MOL0     C15772  12.251   9.734   2.917  0.0312 -0.4343  0.1281
  115MOL0     C15773  12.268   9.660   3.052 -0.5242 -0.1835 -0.3511
  115MOL0     C15774  12.403   9.692   3.124  0.1138 -0.2983  0.6583
  115MOL0     C15775  12.403   9.606   3.259 -0.1607 -0.2520  0.2519
  115MOL0     C15776  12.529   9.627   3.325  0.2781  0.0738 -0.2688
  115MOL0    Cl15777  12.543   9.785   3.407  0.0710 -0.2674  0.2564
  115MOL0     C15778  12.007   9.534   2.375  0.0743 -0.2031  0.1664
  115MOL0     C15779  11.933   9.532   2.257  0.4817 -0.4529 -0.6118
  115MOL0     O15780  11.705   9.785   2.079  0.3802  0.2087 -0.6982
  115MOL0     C15781  11.650   9.527   1.848 -0.0667  0.2985 -0.3065
  115MOL0     C15782  11.569   9.486   1.744 -0.3246 -0.3528 -0.8530
  115MOL0     N15783  10.891   8.996   1.653  0.1381  0.4525 -1.1359
  115MOL0     N15784  10.793   8.947   1.719  0.6285  0.2752 -0.3114
  115MOL0     C15785   9.759   9.036   1.721 -0.0644  1.1686 -0.8029
  115MOL0     C15786   9.629   9.054   1.693  0.4983  0.0559  0.9524
  115MOL0     C15787   9.196   9.195   1.610 -0.6059 -0.0903 -0.1352
  115MOL0     C15788   9.086   9.103   1.626 -0.9203 -1.0548 -0.7336
  115MOL0     C15789   8.959   9.146   1.608  0.6416  0.3683 -0.1173
  115MOL0     C15790   8.929   9.279   1.574  0.5759 -0.8721  0.3395
  115MOL0     O15791   8.797   9.323   1.566  0.1522 -0.0727  0.5191
  115MOL0     C15792   8.754   9.449   1.500 -0.1653  0.0221 -0.9294
  115MOL0     C15793   8.598   9.466   1.499 -0.9152  1.0057  0.3348
  115MOL0     C15794   8.526   9.443   1.635 -0.0098 -0.5749  0.2146
  115MOL0     C15795   8.374   9.445   1.628  0.3225 -0.4916  0.3263
  115MOL0     C15796   8.310   9.562   1.559 -0.8630 -0.1851 -0.7301
  115MOL0     C15797   8.249   9.643   1.498 -0.2737 -0.6889  0.0982
  115MOL0     C15798   9.036   9.363   1.542  0.1621  0.2143  0.0131
  115MOL0     C15799   9.163   9.320   1.569  0.1678 -0.4119  0.2562
  115MOL0     C15800   9.273   9.427   1.557  1.3858  0.4958  0.2983
  115MOL0     H15801   9.644   9.362   1.549  0.4188  0.6333  0.3556
  115MOL0     H15802   9.893   9.319   1.612  4.5079 -4.0939  3.3519
  115MOL0     H15803   9.943   9.100   1.932  1.5177  1.0635  2.1787
  115MOL0     H15804  10.032   9.243   1.859  1.3410  0.2701  0.1892
  115MOL0     H15805  10.142   8.962   1.879 -1.3825  0.9356 -1.4846
  115MOL0     H15806  10.235   9.111   1.846 -1.1014  1.3854 -0.5928
  115MOL0     H15807  10.226   9.187   2.084  0.5047 -0.6673  2.8735
  115MOL0     H15808  10.117   9.067   2.124 -1.4049  3.0790 -0.5516
  115MOL0     H15809  10.334   8.978   2.186 -0.7564  2.6690  1.5150
  115MOL0     H15810  10.304   8.897   2.035  0.5077  0.1026  0.6548
  115MOL0     H15811  10.432   9.180   2.042  2.5677  0.6836  0.5717
  115MOL0     H15812  10.460   9.036   1.937  1.5407 -0.2462  0.6671
  115MOL0     H15813  10.556   9.115   2.206 -2.4481 -1.7396  1.4529
  115MOL0     H15814  10.558   8.940   2.173  1.0847  0.9649  2.3341
  115MOL0     H15815  10.768   9.088   2.093  0.6798 -4.1317 -0.9237
  115MOL0     H15816  10.656   9.156   1.977 -0.7662 -1.9231 -1.5521
  115MOL0     H15817  10.757   8.860   2.016  1.2294 -1.1504 -2.1121
  115MOL0     H15818  10.614   8.895   1.915 -0.5437  0.9470  2.5069
  115MOL0     H15819  10.978   9.062   1.955  2.8196 -0.4061 -2.0047
  115MOL0     H15820  11.133   9.037   1.603 -5.0358 -1.6398 -0.8324
  115MOL0     H15821  11.181   9.084   1.770 -1.2052  2.4267  0.9100
  115MOL0     H15822  11.049   9.228   1.543 -3.6560 -1.4655  1.8093
  115MOL0     H15823  11.038   9.305   1.701  1.9055  1.8822 -0.8163
  115MOL0     H15824  11.276   9.293   1.738 -3.4896 -0.5253  1.1171
  115MOL0     H15825  11.300   9.268   1.563  1.7721  1.6112 -0.1222
  115MOL0     H15826  11.196   9.483   1.525  2.0953  1.5089  0.4319
  115MOL0     H15827  11.183   9.510   1.700 -0.2504  1.3649 -0.7622
  115MOL0     H15828  11.296   9.679   1.795  0.1737  0.3143 -0.7394
  115MOL0     H15829  11.440   9.873   2.041  3.2547 -0.5878  0.2967
  115MOL0     H15830  11.402   9.722   2.120 -0.8101  1.0256  0.4697
  115MOL0     H15831  11.296   9.773   1.995 -0.2977 -3.7393  2.3958
  115MOL0     H15832  11.629   9.658   2.346  0.4225 -2.1392 -0.0414
  115MOL0     H15833  11.766   9.677   2.562  0.8471  0.8624  0.2801
  115MOL0     H15834  11.880   9.589   2.774 -0.0850 -1.2885  1.9177
  115MOL0     H15835  11.942   9.451   2.688  2.1503  0.4956 -3.9812
  115MOL0     H15836  12.062   9.480   2.893  0.9620  0.8075  0.8694
  115MOL0     H15837  12.175   9.532   2.769  0.3717 -1.2268  1.3733
  115MOL0     H15838  12.038   9.735   2.949 -1.8704  0.7779 -2.1509
  115MOL0     H15839  12.079   9.783   2.796 -1.2638 -0.6502  0.8900
  115MOL0     H15840  12.273   9.839   2.937 -0.2055 -1.0580  4.9628
  115MOL0     H15841  12.319   9.697   2.840  1.3590  2.5433 -0.2752
  115MOL0     H15842  12.188   9.701   3.115 -1.2824 -0.4860 -1.0882
  115MOL0     H15843  12.254   9.552   3.039 -0.8631  0.0505 -2.2441
  115MOL0     H15844  12.422   9.798   3.144 -3.6902  0.8449 -0.8996
  115MOL0     H15845  12.481   9.652   3.060  2.8152  1.2658  2.7525
  115MOL0     H15846  12.388   9.497   3.256  1.0401 -0.4120 -0.6654
  115MOL0     H15847  12.322   9.655   3.313 -0.9675  0.9093 -1.8852
  115MOL0     H15848  12.603   9.599   3.250 -0.7918  0.7200 -1.6183
  115MOL0     H15849  12.552   9.550   3.400  1.9050  0.0706 -0.7426
  115MOL0     H15850  12.110   9.500   2.383  0.0177 -0.4609 -0.2017
  115MOL0     H15851  11.961   9.488   2.162 -3.8648 -0.9592 -1.8757
  115MOL0     H15852  11.748   9.482   1.860 -0.0870  0.3692  0.1452
  115MOL0     H15853  11.607   9.405   1.683 -0.6560 -0.3927 -1.0100
  115MOL0     H15854   9.783   8.939   1.765 -0.4362  0.4344 -2.1631
  115MOL0     H15855   9.567   8.973   1.732  0.1273 -0.3251 -0.3815
  115MOL0     H15856   9.112   9.000   1.649  1.6327 -0.2615  0.2647
  115MOL0     H15857   8.871   9.088   1.635 -0.0336  1.6708  0.5860
  115MOL0     H15858   8.792   9.536   1.553  1.6875 -0.5781 -1.2085
  115MOL0     H15859   8.793   9.459   1.399 -0.8743 -0.7647 -1.2959
  115MOL0     H15860   8.565   9.392   1.426  1.3051  2.0800 -1.9215
  115MOL0     H15861   8.577   9.568   1.464  0.9523  1.4590  0.4162
  115MOL0     H15862   8.564   9.354   1.686 -0.8710 -0.2533  1.4563
  115MOL0     H15863   8.551   9.522   1.706 -4.2364 -0.3925  1.7754
  115MOL0     H15864   8.324   9.436   1.725 -0.5076  1.9550  0.2193
  115MOL0     H15865   8.342   9.355   1.574  0.2500  0.0724 -0.5983
  115MOL0     H15866   8.193   9.707   1.433 -0.5527 -0.2562  0.7464
  115MOL0     H15867   9.008   9.464   1.513  1.8084  0.4844 -0.7559
  115MOL0     H15868   9.325   9.439   1.653 -0.7764  1.3673  1.4270
  115MOL0     H15869   9.337   9.393   1.475  0.7272 -0.9271  0.3509
  115MOL0     H15870   9.228   9.525   1.537  2.8188  1.1033 -0.1363
  116MOL0     O15871   6.748   8.828   2.808 -0.4651 -0.4452  0.1170
  116MOL0     C15872   6.695   8.938   2.825  0.8807 -0.0566  0.9594
  116MOL0     O15873   6.760   9.055   2.793  0.4620  0.3948  0.0192
  116MOL0     C15874   6.883   9.061   2.733  1.2528 -0.3353 -0.9325
  116MOL0     C15875   6.898   9.158   2.635 -0.4193 -0.2629 -0.4088
  116MOL0     C15876   7.022   9.177   2.572  0.6592 -0.6935  0.2582
  116MOL0     C15877   7.133   9.101   2.610 -0.3142  0.0440 -0.2108
  116MOL0     O15878   7.250   9.138   2.555  0.0249 -0.6190 -0.1792
  116MOL0     C15879   7.365   9.046   2.569  0.5505 -0.3010  0.5425
  116MOL0     C15880   7.489   9.105   2.498 -0.1973  0.3936 -0.0945
  116MOL0     C15881   7.514   9.259   2.509 -0.2581  0.4500 -1.2999
  116MOL0     C15882   7.661   9.293   2.527  0.4251 -0.6069  0.7020
  116MOL0     C15883   7.749   9.258   2.400  0.2349  0.0581  1.2732
  116MOL0     C15884   7.879   9.340   2.388  0.0133  0.0650 -0.6581
  116MOL0     C15885   7.930   9.323   2.246  0.7325 -0.7205 -0.6892
  116MOL0     C15886   7.962   9.179   2.212  0.3671  0.5690 -0.2688
  116MOL0     N15887   8.042   9.180   2.083 -0.1760 -0.5338  0.0549
  116MOL0     C15888   8.176   9.146   2.083 -0.3278 -0.0058  0.7230
  116MOL0     C15889   8.210   9.181   1.954  0.1682  0.4259  0.4258
  116MOL0     C15890   8.352   9.156   1.898  0.3784  0.0075  0.1356
  116MOL0     C15891   8.382   9.019   1.839 -0.0646  0.8510 -1.1055
  116MOL0     C15892   8.526   9.002   1.786 -0.3926  0.2906  0.1448
  116MOL0     C15893   8.644   9.036   1.880 -0.4372  0.0986 -0.3280
  116MOL0     O15894   8.676   9.175   1.874  1.1547 -0.6590  0.0577
  116MOL0     C15895   8.791   9.229   1.927 -0.2994 -0.8288 -0.5077
  116MOL0     C15896   8.868   9.158   2.027  0.2760  0.2908 -0.7537
  116MOL0     C15897   8.998   9.208   2.069  0.5339  0.2301  0.5289
  116MOL0     C15898   9.072   9.124   2.176  0.3191 -0.6251 -0.0825
  116MOL0     C15899   9.038   9.332   2.014 -0.4740 -0.7091 -0.1534
  116MOL0     C15900   9.172   9.395   2.041  0.0850  0.4013 -0.0664
  116MOL0     O15901   9.185   9.521   1.997  0.8211  1.1540 -0.1540
  116MOL0     C15902   9.299   9.593   2.023  1.0714 -1.2326  0.6102
  116MOL0     C15903   9.432   9.568   1.991  0.1398 -0.5700 -0.2594
  116MOL0     C15904   9.537   9.657   2.008 -0.3780  0.1712 -0.3242
  116MOL0     C15905   9.510   9.781   2.048 -0.4018  0.8051 -0.1201
  116MOL0     O15906   9.603   9.879   2.044  0.1061 -0.2554 -0.0533
  116MOL0     C15907   9.742   9.849   2.060 -0.8848 -0.4500 -0.5174
  116MOL0     C15908   9.821   9.981   2.090 -0.0512  0.3607 -0.0434
  116MOL0     C15909   9.966   9.943   2.106  0.0493  0.2273  0.8197
  116MOL0     C15910  10.035  10.044   2.199  0.9840  0.1342 -0.0198
  116MOL0     C15911  10.180   9.997   2.206 -0.4019 -0.0814 -0.7446
  116MOL0     C15912  10.262  10.103   2.284  0.2845 -0.0739  0.4708
  116MOL0     C15913  10.213  10.116   2.431  0.3692 -0.1448  0.1892
  116MOL0     C15914  10.306  10.210   2.504  0.0659  0.2277 -0.1621
  116MOL0    Cl15915  10.276  10.201   2.680  0.1836  0.0031 -0.3711
  116MOL0     C15916   9.379   9.816   2.075 -0.1926 -0.9932 -0.4347
  116MOL0     C15917   9.272   9.724   2.075  0.3956  0.8359 -0.8809
  116MOL0     O15918   9.263   9.330   2.098 -0.3710  0.3969  0.9447
  116MOL0     C15919   8.948   9.406   1.934 -0.2777 -0.7732 -0.0937
  116MOL0     C15920   8.831   9.349   1.883  0.3365 -0.7032  0.4136
  116MOL0     N15921   8.106   9.228   1.882  0.3864 -0.3633  0.3052
  116MOL0     N15922   8.002   9.219   1.958 -0.3235 -0.1018  0.2690
  116MOL0     C15923   7.114   9.004   2.710  0.3306  0.7454  0.0340
  116MOL0     C15924   6.994   8.982   2.776  0.1383 -0.2329  0.0431
  116MOL0     C15925   6.560   8.968   2.879  0.5059  0.1438  0.1079
  116MOL0     C15926   6.526   9.093   2.922  0.3906  0.2526  0.8009
  116MOL0     C15927   6.408   9.114   2.993 -1.4168  0.6378 -0.8347
  116MOL0     C15928   6.313   9.019   3.025 -0.3771 -0.0753 -0.0733
  116MOL0     O15929   6.189   9.029   3.085  0.1876 -0.6486 -0.8000
  116MOL0     C15930   6.127   9.165   3.092  0.5465  0.2972 -0.4378
  116MOL0     C15931   6.052   9.198   2.961  0.4983 -0.7316 -0.2351
  116MOL0     C15932   5.919   9.117   2.943  0.8082 -0.7941  0.8733
  116MOL0     C15933   5.826   9.197   2.847  0.5240  0.0275  0.7269
  116MOL0     C15934   5.898   9.231   2.722  0.1957 -0.2891  0.2725
  116MOL0     C15935   5.954   9.250   2.611  0.6523  0.1460 -0.1187
  116MOL0     C15936   6.346   8.894   2.979 -0.3759 -0.7943  0.7005
  116MOL0     C15937   6.468   8.865   2.906 -0.3191  0.4152  0.6354
  116MOL0     C15938   6.486   8.715   2.877  0.0148 -0.8891  0.9218
  116MOL0     H15939   6.821   9.221   2.591  2.2314  2.4047 -1.5000
  116MOL0     H15940   7.041   9.257   2.501 -2.1733 -0.6511 -0.5834
  116MOL0     H15941   7.330   8.952   2.527 -0.6750 -0.7984  2.5065
  116MOL0     H15942   7.398   9.027   2.672  1.8748  0.0461  0.2079
  116MOL0     H15943   7.573   9.055   2.546 -1.1036 -2.7296 -1.5277
  116MOL0     H15944   7.480   9.069   2.395  0.2518 -2.4366  0.7915
  116MOL0     H15945   7.477   9.302   2.416 -0.9135  0.7317 -0.9111
  116MOL0     H15946   7.445   9.297   2.585  0.0641 -1.7503  0.2053
  116MOL0     H15947   7.662   9.402   2.540 -0.7747 -0.3518 -1.0352
  116MOL0     H15948   7.700   9.243   2.616  0.5994 -0.3027  0.7991
  116MOL0     H15949   7.690   9.297   2.317  0.7263 -2.2681 -0.2753
  116MOL0     H15950   7.763   9.150   2.384  2.5985  0.6436 -1.3101
  116MOL0     H15951   7.849   9.442   2.411  0.4999 -0.3618  2.4353
  116MOL0     H15952   7.941   9.310   2.474  0.4742 -0.5235 -1.1849
  116MOL0     H15953   8.028   9.371   2.250  0.0339  0.7223 -0.2707
  116MOL0     H15954   7.861   9.363   2.171  0.9264 -0.7878 -0.9055
  116MOL0     H15955   8.022   9.141   2.295  0.6357 -0.8327 -1.0807
  116MOL0     H15956   7.863   9.136   2.198  0.1749  0.5983  0.8470
  116MOL0     H15957   8.235   9.110   2.166  5.5900  1.2198 -2.3934
  116MOL0     H15958   8.416   9.167   1.986 -2.1921  2.6383  1.8296
  116MOL0     H15959   8.380   9.229   1.821 -1.8052  1.2158  0.4181
  116MOL0     H15960   8.350   8.943   1.912 -3.0721  2.5054 -0.5247
  116MOL0     H15961   8.327   9.000   1.746  1.9668 -0.5431 -2.1050
  116MOL0     H15962   8.526   8.896   1.757 -0.9656  0.5688 -0.9530
  116MOL0     H15963   8.535   9.062   1.695  0.7335  1.9905  1.3264
  116MOL0     H15964   8.618   9.003   1.981 -1.3712  2.1490  0.1599
  116MOL0     H15965   8.731   8.981   1.844 -0.5563  0.5232 -1.2820
  116MOL0     H15966   8.823   9.067   2.067 -1.8036  1.5858  0.0125
  116MOL0     H15967   9.086   9.188   2.264  1.7171  3.6103 -3.0979
  116MOL0     H15968   9.174   9.093   2.152 -0.5598 -3.0065 -1.0707
  116MOL0     H15969   9.023   9.032   2.209  2.0314 -0.2566  4.1965
  116MOL0     H15970   9.460   9.471   1.951  3.6397  0.3324 -0.2993
  116MOL0     H15971   9.639   9.640   1.974  0.3274  3.7198 -0.3286
  116MOL0     H15972   9.756   9.781   2.145  0.4173 -0.1668 -0.4803
  116MOL0     H15973   9.786   9.821   1.963 -0.0994  2.1878 -1.0009
  116MOL0     H15974   9.808  10.065   2.021 -1.4657  0.8948  0.8150
  116MOL0     H15975   9.775  10.033   2.175 -0.8742  1.5269 -1.1556
  116MOL0     H15976  10.009   9.941   2.006 -0.5592  0.3119  0.5494
  116MOL0     H15977   9.976   9.852   2.165 -0.5819  1.1173  2.3603
  116MOL0     H15978   9.985  10.035   2.296  2.7608  0.1379  0.9400
  116MOL0     H15979  10.042  10.141   2.148  1.7340 -0.2266 -0.6110
  116MOL0     H15980  10.185   9.900   2.255  1.2472  0.8499  1.1093
  116MOL0     H15981  10.216   9.996   2.102  4.0102  0.3036  0.5513
  116MOL0     H15982  10.245  10.194   2.225  0.4850  0.0858  0.6592
  116MOL0     H15983  10.371  10.090   2.283  0.2541 -0.3295 -0.2754
  116MOL0     H15984  10.206  10.013   2.467 -1.5969 -0.2124 -0.2403
  116MOL0     H15985  10.115  10.166   2.437  0.0219 -0.8172  0.1744
  116MOL0     H15986  10.283  10.312   2.472  1.0393  0.6673  0.4923
  116MOL0     H15987  10.410  10.190   2.480  0.1572  3.4546 -3.3059
  116MOL0     H15988   9.358   9.917   2.107  0.6202 -0.7268 -0.7106
  116MOL0     H15989   9.170   9.752   2.099  1.1517  1.1130  2.6457
  116MOL0     H15990   8.984   9.495   1.883  1.7986 -1.6294 -0.2578
  116MOL0     H15991   8.769   9.405   1.815  0.9596 -0.9459 -0.3812
  116MOL0     H15992   7.199   8.945   2.744 -0.5236  0.4702  1.7860
  116MOL0     H15993   6.994   8.900   2.846 -0.3037  0.5738  1.0063
  116MOL0     H15994   6.592   9.178   2.914  0.2751  0.4384  1.6534
  116MOL0     H15995   6.394   9.215   3.029  0.5686  0.7475 -0.2501
  116MOL0     H15996   6.058   9.164   3.178  0.5001  0.4984 -0.4719
  116MOL0     H15997   6.206   9.232   3.128 -0.0541  1.5199 -1.3406
  116MOL0     H15998   6.127   9.173   2.885  0.4562 -2.1503  0.1525
  116MOL0     H15999   6.030   9.305   2.965  1.5219 -0.2875 -3.4690
  116MOL0     H16000   5.926   9.017   2.899 -2.2574 -0.2276 -1.1935
  116MOL0     H16001   5.867   9.101   3.038 -0.1292 -2.1522  0.1747
  116MOL0     H16002   5.790   9.285   2.902  1.4752  0.4035  0.7607
  116MOL0     H16003   5.740   9.134   2.823 -0.0505  1.1324 -0.2398
  116MOL0     H16004   5.994   9.254   2.511  4.5872 -2.3117  1.1229
  116MOL0     H16005   6.291   8.807   3.012 -0.2768 -2.6486 -3.4266
  116MOL0     H16006   6.436   8.699   2.781 -1.1359 -4.1917  1.9488
  116MOL0     H16007   6.590   8.682   2.863  0.9063  1.9868 -0.1689
  116MOL0     H16008   6.438   8.651   2.951 -0.2574 -1.7049  0.0626
  117MOL0     O16009   2.274   2.633   8.002  0.3922  0.3040  0.8344
  117MOL0     C16010   2.171   2.581   8.044  0.6811 -0.3060  1.3861
  117MOL0     O16011   2.152   2.449   8.029  0.5632  0.2629  0.3117
  117MOL0     C16012   2.212   2.376   7.924 -0.6596 -0.5152 -0.3388
  117MOL0     C16013   2.152   2.383   7.801 -0.5953  0.4252  0.0517
  117MOL0     C16014   2.210   2.324   7.688 -0.5300 -0.0319  0.8100
  117MOL0     C16015   2.341   2.268   7.697 -0.2055 -0.0319  0.0621
  117MOL0     O16016   2.405   2.215   7.591 -0.1148  0.6533 -0.1626
  117MOL0     C16017   2.320   2.123   7.516  0.4304  0.3383 -0.2202
  117MOL0     C16018   2.281   1.984   7.578 -0.8500 -0.5424  0.3039
  117MOL0     C16019   2.409   1.896   7.582 -0.2627  0.1431 -0.3032
  117MOL0     C16020   2.367   1.753   7.629  0.1054 -0.6340  0.4108
  117MOL0     C16021   2.485   1.670   7.671 -0.0003 -0.4053 -0.2222
  117MOL0     C16022   2.442   1.525   7.711 -0.2692 -0.7963  0.0356
  117MOL0     C16023   2.577   1.458   7.740 -0.0421 -0.5253  1.0211
  117MOL0     C16024   2.570   1.321   7.827  0.2592 -0.6513 -0.2089
  117MOL0     N16025   2.694   1.254   7.820 -0.7234 -0.3922  0.1061
  117MOL0     C16026   2.796   1.279   7.923  0.8388 -0.2702  1.1927
  117MOL0     C16027   2.887   1.186   7.894 -0.1192  0.1145 -0.8539
  117MOL0     C16028   3.016   1.164   7.973 -0.3402  1.1706  0.3696
  117MOL0     C16029   2.989   1.146   8.122 -0.1667 -0.0151 -0.0549
  117MOL0     C16030   3.091   1.063   8.205  0.9711  0.8619 -0.3403
  117MOL0     C16031   3.079   0.910   8.190  0.0746 -1.0104  0.0336
  117MOL0     O16032   3.170   0.839   8.275  0.9120  0.1638  0.7474
  117MOL0     C16033   3.303   0.834   8.250  0.9916 -0.3849  0.7320
  117MOL0     C16034   3.393   0.802   8.349 -0.6887  0.1214 -0.7137
  117MOL0     C16035   3.534   0.809   8.327  0.3817  0.2583  0.3650
  117MOL0     C16036   3.621   0.791   8.446 -0.3697 -0.5757 -0.1704
  117MOL0     C16037   3.582   0.816   8.193  0.4734 -0.2399  0.7700
  117MOL0     C16038   3.718   0.799   8.154  0.7039  0.3530 -0.1361
  117MOL0     O16039   3.775   0.679   8.195  0.6652 -0.3118  0.3356
  117MOL0     C16040   3.895   0.635   8.137  0.9661 -0.5276 -0.5926
  117MOL0     C16041   3.907   0.499   8.124  1.1794  0.1499  0.2720
  117MOL0     C16042   4.027   0.438   8.081 -0.5836 -0.6580  1.5214
  117MOL0     C16043   4.135   0.518   8.055  0.5232 -0.0488  0.7290
  117MOL0     O16044   4.242   0.455   8.010 -0.3484  0.2565 -0.0826
  117MOL0     C16045   4.330   0.506   7.909 -0.7285 -0.3304  0.4079
  117MOL0     C16046   4.424   0.409   7.838 -0.4677 -0.3489 -0.0566
  117MOL0     C16047   4.440   0.448   7.689  0.6196 -0.1141 -0.1142
  117MOL0     C16048   4.522   0.579   7.666 -0.1853 -1.0490  0.1476
  117MOL0     C16049   4.541   0.623   7.521 -0.3658  0.3902  0.7759
  117MOL0     C16050   4.614   0.760   7.522  0.4956  0.3359  0.1386
  117MOL0     C16051   4.520   0.875   7.490 -0.3047  0.3225 -0.4654
  117MOL0     C16052   4.566   0.956   7.371  1.4463 -0.1520  0.1033
  117MOL0    Cl16053   4.576   0.865   7.219 -0.1384  0.3627 -0.1953
  117MOL0     C16054   4.126   0.656   8.076  0.4748  0.0306  0.3049
  117MOL0     C16055   4.003   0.714   8.110  0.5049 -0.3644  0.3144
  117MOL0     O16056   3.765   0.875   8.069 -0.8354 -0.3889  0.0158
  117MOL0     C16057   3.490   0.850   8.093  0.7724  0.1304  0.5190
  117MOL0     C16058   3.355   0.854   8.122  1.0398  0.1452  0.1951
  117MOL0     N16059   2.852   1.112   7.782  1.3766 -0.0926  0.6148
  117MOL0     N16060   2.737   1.156   7.734  0.5547 -0.0127  0.2689
  117MOL0     C16061   2.398   2.269   7.821 -0.2198  0.5565 -0.8535
  117MOL0     C16062   2.342   2.322   7.940 -0.3109 -1.1838  0.1121
  117MOL0     C16063   2.068   2.659   8.128 -0.5081  0.3317  0.2445
  117MOL0     C16064   1.980   2.573   8.202  0.3559 -0.2101 -0.0265
  117MOL0     C16065   1.879   2.637   8.283 -0.9698  0.1540  0.3419
  117MOL0     C16066   1.861   2.772   8.274  0.3826 -0.7051  0.3643
  117MOL0     O16067   1.749   2.808   8.348  0.1441  0.8434 -0.5629
  117MOL0     C16068   1.705   2.939   8.357  0.9793  0.3812 -0.3423
  117MOL0     C16069   1.573   2.938   8.443 -0.2198 -0.7861 -0.7164
  117MOL0     C16070   1.499   3.076   8.446 -0.0236  0.2686  0.1971
  117MOL0     C16071   1.342   3.053   8.467 -0.3738  0.2078 -0.2419
  117MOL0     C16072   1.272   3.188   8.482 -0.5330  1.0492 -0.5799
  117MOL0     C16073   1.205   3.277   8.522 -0.2610  0.3538  1.5184
  117MOL0     C16074   1.944   2.857   8.189 -1.0817  0.4300 -0.8927
  117MOL0     C16075   2.049   2.801   8.122 -0.4792  1.0071 -0.1334
  117MOL0     C16076   2.142   2.888   8.039 -0.3175 -0.8963  0.1189
  117MOL0     H16077   2.060   2.440   7.798  0.1355  1.9837  3.0607
  117MOL0     H16078   2.173   2.332   7.586  0.3794 -1.4726  0.3377
  117MOL0     H16079   2.383   2.094   7.431  1.1274 -1.6330  0.8912
  117MOL0     H16080   2.233   2.171   7.471  2.0091  2.0306 -1.6073
  117MOL0     H16081   2.237   1.992   7.678  1.2499 -3.9438  1.6687
  117MOL0     H16082   2.197   1.950   7.517 -0.7954  0.1780 -0.1939
  117MOL0     H16083   2.460   1.899   7.485 -0.0565 -0.4671 -0.2132
  117MOL0     H16084   2.480   1.936   7.655 -1.4503  0.5959  0.6456
  117MOL0     H16085   2.291   1.759   7.708  0.4863  1.2189  0.6709
  117MOL0     H16086   2.310   1.708   7.547  0.5193 -2.2244  0.9500
  117MOL0     H16087   2.516   1.714   7.766 -2.1834  0.0499  0.3273
  117MOL0     H16088   2.562   1.666   7.593  0.1470 -0.7278 -0.0623
  117MOL0     H16089   2.379   1.538   7.800  0.3730  2.7049  0.1301
  117MOL0     H16090   2.390   1.470   7.633  1.4930 -0.6173 -1.3324
  117MOL0     H16091   2.635   1.530   7.797 -1.6159  2.3219 -0.7461
  117MOL0     H16092   2.628   1.451   7.644  0.0701 -0.4404  1.0741
  117MOL0     H16093   2.542   1.346   7.930  0.0942  0.4697 -0.5238
  117MOL0     H16094   2.500   1.246   7.788  0.5562 -0.7879 -0.4859
  117MOL0     H16095   2.788   1.353   8.002  0.6863 -0.2761  1.1834
  117MOL0     H16096   3.076   1.254   7.957  0.3404  0.8587  1.0968
  117MOL0     H16097   3.067   1.075   7.933  0.5243  2.1510 -0.7832
  117MOL0     H16098   2.981   1.245   8.167  0.5155 -1.0307  2.4874
  117MOL0     H16099   2.892   1.098   8.136  0.4409 -1.6595 -1.2042
  117MOL0     H16100   3.192   1.093   8.175  1.1864  0.0662 -0.4366
  117MOL0     H16101   3.089   1.095   8.310  1.2393  1.2216 -0.4447
  117MOL0     H16102   2.981   0.875   8.223 -0.0213 -0.4011  0.4136
  117MOL0     H16103   3.097   0.892   8.084  2.6164  0.4398  0.1359
  117MOL0     H16104   3.353   0.794   8.450 -1.8427  3.2237 -0.8126
  117MOL0     H16105   3.722   0.827   8.422 -0.7583  0.7141  0.0616
  117MOL0     H16106   3.635   0.686   8.470 -2.2534 -0.9661 -0.6179
  117MOL0     H16107   3.600   0.849   8.536  1.2902  3.6983 -2.2179
  117MOL0     H16108   3.824   0.429   8.131  1.2702  0.1693  1.7777
  117MOL0     H16109   4.039   0.330   8.073  2.1594 -0.3181 -0.0854
  117MOL0     H16110   4.268   0.551   7.830  0.3015 -0.0750 -0.2785
  117MOL0     H16111   4.390   0.588   7.949 -0.1972 -0.5156  0.0084
  117MOL0     H16112   4.523   0.408   7.884 -0.0692 -2.5036 -0.8118
  117MOL0     H16113   4.373   0.312   7.837 -0.3977 -0.4718  2.3081
  117MOL0     H16114   4.343   0.456   7.640 -1.5583 -2.4042  3.4164
  117MOL0     H16115   4.496   0.368   7.640  0.8205 -1.0506  1.5829
  117MOL0     H16116   4.617   0.543   7.707 -0.2059  0.5015  1.6630
  117MOL0     H16117   4.496   0.657   7.737 -0.0746 -0.9382  0.0676
  117MOL0     H16118   4.617   0.557   7.477 -0.9899  0.9999 -1.3403
  117MOL0     H16119   4.446   0.613   7.467  0.3553 -1.1269 -0.2883
  117MOL0     H16120   4.705   0.763   7.462  0.9746  2.2935  0.8937
  117MOL0     H16121   4.654   0.774   7.623 -0.9188  1.6796  0.5553
  117MOL0     H16122   4.520   0.939   7.578  1.2187 -0.6589  0.3051
  117MOL0     H16123   4.415   0.848   7.475 -0.3119  0.9802 -1.6213
  117MOL0     H16124   4.664   1.000   7.390  1.3626 -0.9138  2.5448
  117MOL0     H16125   4.499   1.031   7.327  0.2192 -1.2609  0.0275
  117MOL0     H16126   4.204   0.722   8.039 -0.8300  1.2724 -0.3051
  117MOL0     H16127   3.998   0.822   8.114  0.7457 -0.3758  1.0440
  117MOL0     H16128   3.521   0.841   7.989  1.0201  2.6070  0.3359
  117MOL0     H16129   3.286   0.862   8.039 -0.2496 -2.2158  0.9529
  117MOL0     H16130   2.500   2.231   7.820 -0.9925 -1.6964 -0.5272
  117MOL0     H16131   2.399   2.357   8.025 -0.7790  1.4605 -0.5673
  117MOL0     H16132   1.989   2.466   8.212 -0.8529 -0.3035  0.2251
  117MOL0     H16133   1.812   2.575   8.342  1.2257 -0.3198  2.5014
  117MOL0     H16134   1.782   2.999   8.407 -0.4970 -0.2389  2.9261
  117MOL0     H16135   1.677   2.977   8.258  0.5902  1.0792  0.0305
  117MOL0     H16136   1.604   2.904   8.542  1.2791  0.5115 -0.7000
  117MOL0     H16137   1.504   2.869   8.394 -2.3241 -0.1420  1.1871
  117MOL0     H16138   1.548   3.135   8.524  1.8128 -3.5099  2.2279
  117MOL0     H16139   1.504   3.129   8.351 -0.6651  0.2371  0.1462
  117MOL0     H16140   1.313   2.990   8.552 -0.0025 -3.0202 -2.3443
  117MOL0     H16141   1.301   3.009   8.376  0.6724 -0.9313 -0.1823
  117MOL0     H16142   1.148   3.360   8.560 -1.9264  0.3723 -0.8170
  117MOL0     H16143   1.924   2.963   8.181 -1.9298  0.4757  1.2863
  117MOL0     H16144   2.122   2.993   8.063 -0.4749 -0.3253 -2.2819
  117MOL0     H16145   2.246   2.866   8.066 -0.3870 -0.9797  0.3246
  117MOL0     H16146   2.135   2.868   7.932 -0.3658 -3.0847  0.4815
  118MOL0     O16147  11.233   3.632  11.072 -0.4431  0.0437 -0.4897
  118MOL0     C16148  11.265   3.747  11.042  0.3819 -0.7203 -0.5019
  118MOL0     O16149  11.371   3.782  10.975  0.7013 -0.2584  0.8756
  118MOL0     C16150  11.460   3.691  10.918  0.0223  0.3781  0.2241
  118MOL0     C16151  11.509   3.589  11.002  0.0527  0.3584  0.3551
  118MOL0     C16152  11.596   3.493  10.941 -0.8749  0.4487 -0.6016
  118MOL0     C16153  11.624   3.501  10.800 -0.2390 -0.2724 -1.3155
  118MOL0     O16154  11.699   3.399  10.746 -0.2879  0.4100  0.4795
  118MOL0     C16155  11.837   3.397  10.786 -0.4626  0.2533 -0.0955
  118MOL0     C16156  11.920   3.520  10.743 -0.7713 -0.0976  0.3797
  118MOL0     C16157  11.964   3.514  10.593  0.4450 -0.2125  0.4397
  118MOL0     C16158  12.061   3.625  10.555  0.8450 -0.2028 -1.2478
  118MOL0     C16159  12.202   3.631  10.618  0.1182 -0.4980 -0.7492
  118MOL0     C16160  12.276   3.497  10.644 -0.2325  0.3491  0.1181
  118MOL0     C16161  12.326   3.422  10.514  0.4355  0.0285 -0.5438
  118MOL0     C16162  12.449   3.491  10.439 -0.3770  0.4247 -0.7392
  118MOL0     N16163  12.480   3.439  10.311  0.0224  0.1345 -0.3114
  118MOL0     C16164  12.546   3.514  10.220 -0.0656  0.2290 -1.4355
  118MOL0     C16165  12.553   3.437  10.110  0.2588 -0.5859 -0.5478
  118MOL0     C16166  12.608   3.471   9.977  0.4063  0.0453  0.8290
  118MOL0     C16167  12.749   3.547   9.964 -0.4951 -0.2544  0.0374
  118MOL0     C16168  12.873   3.459   9.974 -0.7241  0.3737 -0.1545
  118MOL0     C16169  12.915   3.408  10.113  0.2422  0.7623  0.5869
  118MOL0     O16170  13.029   3.323  10.107  1.1797  0.0069  0.4293
  118MOL0     C16171  13.150   3.369  10.066 -0.2511  1.1022  0.2972
  118MOL0     C16172  13.215   3.287   9.968 -0.3748  0.1896  0.2568
  118MOL0     C16173  13.330   3.331   9.901  0.7082  0.6354  0.0923
  118MOL0     C16174  13.392   3.230   9.808 -0.1249 -0.3234  0.3321
  118MOL0     C16175  13.376   3.460   9.925 -0.3179  0.5898 -0.5336
  118MOL0     C16176  13.492   3.527   9.861 -1.3159  0.8473 -0.8581
  118MOL0     O16177  13.548   3.475   9.749  0.0732 -0.2249  0.4665
  118MOL0     C16178  13.671   3.518   9.723  0.4756  0.3967  0.5913
  118MOL0     C16179  13.697   3.649   9.694 -0.0721  1.0381  0.0866
  118MOL0     C16180  13.823   3.696   9.688 -0.2953 -0.2421  1.1039
  118MOL0     C16181  13.932   3.612   9.716  0.2476 -0.3270 -0.0224
  118MOL0     O16182  14.058   3.656   9.725  0.2035  0.3027  0.6229
  118MOL0     C16183  14.084   3.798   9.699  0.5869 -0.6555  0.2558
  118MOL0     C16184  14.232   3.836   9.714  0.6346 -0.2438  0.4821
  118MOL0     C16185  14.283   3.798   9.848 -0.6693  0.0665  0.2255
  118MOL0     C16186  14.429   3.846   9.877 -0.2702 -0.8434 -0.1297
  118MOL0     C16187  14.477   3.801  10.024 -0.0343  0.1211 -0.2181
  118MOL0     C16188  14.418   3.862  10.144  1.2359 -0.5567  0.2388
  118MOL0     C16189  14.468   3.800  10.275 -0.0757 -1.3417  0.4926
  118MOL0     C16190  14.479   3.903  10.387  0.2234  0.9045 -0.5379
  118MOL0    Cl16191  14.322   3.977  10.404  0.3344  0.0774  0.1314
  118MOL0     C16192  13.909   3.480   9.752 -0.2674  0.2806 -0.2903
  118MOL0     C16193  13.776   3.423   9.750 -0.7539  0.1995  0.7016
  118MOL0     O16194  13.524   3.635   9.916 -0.1153  0.0556  0.1928
  118MOL0     C16195  13.313   3.533  10.032  0.3816 -0.1354  0.4145
  118MOL0     C16196  13.207   3.485  10.101  0.5395 -0.4351 -0.2251
  118MOL0     N16197  12.507   3.307  10.139 -0.1561  0.1919 -0.6445
  118MOL0     N16198  12.469   3.312  10.265 -0.2063  0.0897  0.0108
  118MOL0     C16199  11.564   3.596  10.722 -0.9286 -0.4401 -0.5107
  118MOL0     C16200  11.489   3.694  10.780  0.1071 -0.8312 -0.1312
  118MOL0     C16201  11.184   3.871  11.090 -0.5970 -0.0303 -0.3251
  118MOL0     C16202  11.190   3.988  11.013  0.7090  1.1076 -0.3543
  118MOL0     C16203  11.110   4.097  11.040  0.1134  1.0496 -0.3628
  118MOL0     C16204  11.015   4.092  11.148  0.3430 -0.2768 -0.2785
  118MOL0     O16205  10.916   4.188  11.164  0.7762  0.1568 -0.3400
  118MOL0     C16206  10.912   4.313  11.091  0.2629  0.4869 -0.0191
  118MOL0     C16207  10.786   4.295  11.009  0.3489  0.0317  0.7665
  118MOL0     C16208  10.662   4.360  11.087 -0.1728  1.3161  0.1649
  118MOL0     C16209  10.524   4.347  11.020  1.1646  0.3827  0.4935
  118MOL0     C16210  10.507   4.424  10.895  0.1168  0.0913 -0.3861
  118MOL0     C16211  10.506   4.498  10.802 -0.7290 -0.2019 -0.9991
  118MOL0     C16212  11.024   3.977  11.226  0.3646 -0.5904 -0.6721
  118MOL0     C16213  11.102   3.864  11.200  0.1162  0.6007  0.1908
  118MOL0     C16214  11.095   3.744  11.293  0.4859  0.1537  0.0908
  118MOL0     H16215  11.497   3.589  11.110 -1.3067  4.3835  0.4102
  118MOL0     H16216  11.651   3.417  10.996  0.6990  1.3877 -0.8230
  118MOL0     H16217  11.880   3.310  10.736  0.2131  0.2610  0.4554
  118MOL0     H16218  11.848   3.387  10.895  3.3343 -0.8963 -0.4410
  118MOL0     H16219  11.859   3.610  10.757 -1.7441 -0.5000 -1.0889
  118MOL0     H16220  12.004   3.527  10.814 -0.0834  2.9924 -0.5708
  118MOL0     H16221  12.015   3.419  10.571 -0.0236 -0.1842 -0.8734
  118MOL0     H16222  11.882   3.522  10.521  2.2501  1.3281 -1.5731
  118MOL0     H16223  12.067   3.627  10.446  0.7160  2.8053 -1.2855
  118MOL0     H16224  12.011   3.720  10.576  0.2342  0.0822 -3.7246
  118MOL0     H16225  12.191   3.678  10.716  2.6330  1.8144 -1.4862
  118MOL0     H16226  12.255   3.699  10.551 -0.9951  2.2508  1.0065
  118MOL0     H16227  12.364   3.526  10.703 -0.7339  0.7491  0.6744
  118MOL0     H16228  12.214   3.436  10.710  0.4275  3.7715  4.4505
  118MOL0     H16229  12.251   3.418  10.434  1.1250 -1.3094 -1.1621
  118MOL0     H16230  12.346   3.317  10.538  0.4216 -0.4133 -2.2758
  118MOL0     H16231  12.421   3.596  10.429 -2.8602 -0.1962 -0.8346
  118MOL0     H16232  12.539   3.465  10.495 -1.6994 -1.3394  0.7116
  118MOL0     H16233  12.587   3.612  10.243 -1.4727  0.8023 -1.2921
  118MOL0     H16234  12.532   3.524   9.919  1.4346  1.2785  0.5602
  118MOL0     H16235  12.614   3.376   9.923 -0.0400 -0.1608  1.1342
  118MOL0     H16236  12.754   3.585   9.862 -0.6002 -0.6682 -0.1245
  118MOL0     H16237  12.765   3.634  10.028  4.3606 -0.2124 -0.8804
  118MOL0     H16238  12.845   3.370   9.917 -0.1887  1.6797 -2.5925
  118MOL0     H16239  12.960   3.506   9.926 -0.1748  0.6460  1.0624
  118MOL0     H16240  12.931   3.493  10.180  0.3005 -0.3941  2.0955
  118MOL0     H16241  12.839   3.350  10.166  0.2520  1.7022  1.6772
  118MOL0     H16242  13.180   3.186   9.950  0.1209  0.0354  0.1432
  118MOL0     H16243  13.395   3.289   9.716 -2.3539  1.4439  1.2859
  118MOL0     H16244  13.318   3.151   9.787  0.6673 -0.8992 -0.3428
  118MOL0     H16245  13.488   3.197   9.849  0.6584  1.7548  0.2480
  118MOL0     H16246  13.607   3.704   9.668  0.0279  0.1178 -2.5248
  118MOL0     H16247  13.838   3.799   9.659 -1.0400 -0.5181 -0.3618
  118MOL0     H16248  14.049   3.812   9.596 -0.0643  2.1997  0.7774
  118MOL0     H16249  14.021   3.868   9.755 -0.2222 -1.0798 -0.1062
  118MOL0     H16250  14.282   3.804   9.622 -1.4877 -1.6764 -0.2580
  118MOL0     H16251  14.236   3.945   9.703  0.7123 -0.4554 -2.4580
  118MOL0     H16252  14.270   3.691   9.866 -0.9697  0.4195  2.3325
  118MOL0     H16253  14.221   3.840   9.928 -0.8788 -0.8285  0.5453
  118MOL0     H16254  14.422   3.955   9.866 -0.5768 -1.0261 -1.9977
  118MOL0     H16255  14.496   3.813   9.797 -0.4955  0.8308 -1.0584
  118MOL0     H16256  14.462   3.693  10.024  3.4765 -0.5531 -3.1448
  118MOL0     H16257  14.582   3.827  10.040 -0.4497  1.6281  0.2124
  118MOL0     H16258  14.308   3.866  10.146  1.1461 -2.4826  1.4988
  118MOL0     H16259  14.448   3.967  10.144  0.0237 -0.1888 -0.6481
  118MOL0     H16260  14.566   3.755  10.255 -0.4089 -1.8901  0.0888
  118MOL0     H16261  14.403   3.721  10.311  1.3535 -2.9022 -0.2216
  118MOL0     H16262  14.546   3.985  10.360  2.1513 -0.6980 -0.8565
  118MOL0     H16263  14.514   3.857  10.480  0.2951 -0.4961 -1.2299
  118MOL0     H16264  13.989   3.412   9.780 -1.9450 -2.1305 -1.0552
  118MOL0     H16265  13.753   3.317   9.754  1.7884 -0.4071  1.5025
  118MOL0     H16266  13.345   3.633  10.061  0.9196  0.3536 -1.6993
  118MOL0     H16267  13.162   3.542  10.182  0.3659  0.9948 -1.2918
  118MOL0     H16268  11.585   3.609  10.616 -0.5545 -1.5610 -0.5907
  118MOL0     H16269  11.441   3.771  10.719 -0.8400  0.1309  1.7438
  118MOL0     H16270  11.259   3.996  10.930  1.1984 -4.9436 -0.9224
  118MOL0     H16271  11.142   4.176  10.974  4.1104 -0.4709 -0.5452
  118MOL0     H16272  10.923   4.399  11.157  3.2445 -1.9032  2.9261
  118MOL0     H16273  10.997   4.320  11.023  2.8788 -2.6562  2.5508
  118MOL0     H16274  10.771   4.190  10.985  1.1207 -0.4673  2.3144
  118MOL0     H16275  10.807   4.350  10.917  1.7388 -0.7282  0.6142
  118MOL0     H16276  10.660   4.304  11.180 -0.1022 -2.5753 -1.9755
  118MOL0     H16277  10.680   4.465  11.111 -0.2125  0.9896  1.7161
  118MOL0     H16278  10.444   4.363  11.092  2.7350  0.3065  2.3198
  118MOL0     H16279  10.509   4.243  10.990 -2.9223  0.7936  0.5027
  118MOL0     H16280  10.508   4.563  10.717  2.4247  0.3748 -0.6102
  118MOL0     H16281  10.958   3.981  11.313 -0.3252  1.1527 -1.2404
  118MOL0     H16282  11.053   3.766  11.391  2.0895  0.6062  0.7062
  118MOL0     H16283  11.029   3.671  11.243 -0.8663  1.8899 -0.7529
  118MOL0     H16284  11.195   3.706  11.317  2.1192  3.4603 -0.8516
  119MOL0     O16285   9.142   7.615   4.185  0.3069 -0.0397  0.5287
  119MOL0     C16286   9.095   7.567   4.283  0.1445 -0.5866 -0.1634
  119MOL0     O16287   9.155   7.551   4.403  0.1543  0.3904 -0.1099
  119MOL0     C16288   9.274   7.595   4.433 -1.0067 -0.4215 -0.5004
  119MOL0     C16289   9.294   7.673   4.552  0.2225  0.2035 -0.3713
  119MOL0     C16290   9.423   7.703   4.603 -0.1872 -0.4292 -0.0073
  119MOL0     C16291   9.531   7.651   4.540 -0.4908 -0.3966  0.1924
  119MOL0     O16292   9.651   7.679   4.592  0.2180 -0.5014 -0.0222
  119MOL0     C16293   9.762   7.662   4.513 -0.0278  0.0601  0.4454
  119MOL0     C16294   9.883   7.671   4.603 -1.0973  0.6562 -0.5505
  119MOL0     C16295  10.013   7.627   4.528 -0.5151  0.6349  0.7610
  119MOL0     C16296  10.132   7.603   4.621 -0.1703  0.2760 -0.2662
  119MOL0     C16297  10.264   7.600   4.540  0.1872 -0.1675 -0.2318
  119MOL0     C16298  10.293   7.735   4.478  0.8023 -0.1511 -0.4097
  119MOL0     C16299  10.437   7.768   4.444  0.0132 -0.0490 -0.8739
  119MOL0     C16300  10.452   7.901   4.372  0.4956 -0.6745  0.5439
  119MOL0     N16301  10.592   7.919   4.339  1.1701 -0.1224  0.3772
  119MOL0     C16302  10.681   8.011   4.381 -0.8381  0.4217 -0.2104
  119MOL0     C16303  10.790   8.001   4.297  0.3228 -0.6012 -0.2540
  119MOL0     C16304  10.915   8.071   4.309 -0.4865 -0.1758 -0.0923
  119MOL0     C16305  11.043   7.990   4.354  1.1469  0.3333  0.8224
  119MOL0     C16306  11.011   7.917   4.488 -0.0205  0.3633  0.3237
  119MOL0     C16307  11.126   7.823   4.535  0.2656 -0.1275  0.5399
  119MOL0     O16308  11.145   7.707   4.451 -1.3398  0.1988 -0.6302
  119MOL0     C16309  11.260   7.631   4.465  0.1976  0.6371  0.8275
  119MOL0     C16310  11.358   7.654   4.560  0.7658  0.1853  0.7658
  119MOL0     C16311  11.480   7.577   4.566 -0.0585 -0.0550  1.0319
  119MOL0     C16312  11.587   7.610   4.667  0.3578 -0.6307  0.8526
  119MOL0     C16313  11.499   7.465   4.478  0.7547  0.1622  0.5860
  119MOL0     C16314  11.616   7.373   4.479 -0.0185  0.2331 -0.5234
  119MOL0     O16315  11.687   7.343   4.595  0.6485  0.2603  0.3111
  119MOL0     C16316  11.793   7.254   4.576 -0.4120  0.1393  0.5353
  119MOL0     C16317  11.778   7.111   4.593  0.0258  0.0151  1.4070
  119MOL0     C16318  11.887   7.025   4.559 -0.2928 -0.3467  0.4579
  119MOL0     C16319  12.010   7.081   4.520 -0.5872 -0.0247  0.4996
  119MOL0     O16320  12.129   7.012   4.500 -0.4926 -0.3133 -0.0259
  119MOL0     C16321  12.151   6.891   4.574 -0.8039 -0.2738 -0.6768
  119MOL0     C16322  12.302   6.855   4.555 -0.0724  1.3182 -0.4562
  119MOL0     C16323  12.330   6.705   4.551  1.1222  0.0502 -0.3865
  119MOL0     C16324  12.486   6.671   4.543 -0.4702 -0.4696 -0.3991
  119MOL0     C16325  12.557   6.744   4.429 -0.7924 -0.4732  0.1001
  119MOL0     C16326  12.704   6.719   4.412 -0.0662  1.3443  0.6239
  119MOL0     C16327  12.747   6.750   4.268  0.0514 -0.2609 -0.1841
  119MOL0     C16328  12.893   6.702   4.250 -0.0486  0.1198 -0.4364
  119MOL0    Cl16329  12.961   6.719   4.081  0.3183  0.0974 -0.0717
  119MOL0     C16330  12.017   7.219   4.497  0.5413 -0.1089  0.3377
  119MOL0     C16331  11.914   7.306   4.530  0.1713  0.1436 -0.1676
  119MOL0     O16332  11.646   7.333   4.366  0.5830  0.1101  0.5528
  119MOL0     C16333  11.388   7.434   4.393  0.4642 -0.3144 -0.5180
  119MOL0     C16334  11.271   7.514   4.383 -0.0898 -0.4571 -0.3624
  119MOL0     N16335  10.750   7.915   4.197  0.9132 -0.0814  0.1377
  119MOL0     N16336  10.638   7.869   4.227  0.1631  0.7271  0.4051
  119MOL0     C16337   9.511   7.571   4.432 -0.2909 -0.8294  0.2725
  119MOL0     C16338   9.387   7.537   4.384 -0.2115 -0.3549  0.0679
  119MOL0     C16339   8.963   7.508   4.261  0.4866 -0.0344 -0.5323
  119MOL0     C16340   8.925   7.454   4.132  0.1640 -0.2317 -0.4517
  119MOL0     C16341   8.799   7.399   4.107  0.7570 -0.3611 -0.4328
  119MOL0     C16342   8.713   7.391   4.221  0.2501  0.0787 -0.3796
  119MOL0     O16343   8.586   7.342   4.222 -0.0921  0.4717 -0.9174
  119MOL0     C16344   8.508   7.369   4.097  1.2935  0.6342  0.2724
  119MOL0     C16345   8.488   7.516   4.047 -0.1322 -0.1340  0.3698
  119MOL0     C16346   8.435   7.604   4.152 -0.3681 -0.1406  0.3248
  119MOL0     C16347   8.287   7.578   4.172 -0.9120  0.0746  0.4376
  119MOL0     C16348   8.209   7.604   4.053  0.7191  0.5395  0.4277
  119MOL0     C16349   8.141   7.647   3.960 -0.3108  0.7511  0.7157
  119MOL0     C16350   8.754   7.432   4.342  0.0607 -0.4099 -0.2903
  119MOL0     C16351   8.871   7.492   4.371 -0.6615  0.1836  0.4542
  119MOL0     C16352   8.892   7.546   4.514 -0.6219 -0.1389  0.4858
  119MOL0     H16353   9.211   7.685   4.620  1.4289 -1.1860  1.4669
  119MOL0     H16354   9.432   7.758   4.696  0.6387  0.3335 -0.5115
  119MOL0     H16355   9.769   7.735   4.431  2.2978 -0.4328  0.1319
  119MOL0     H16356   9.751   7.568   4.458 -0.2015 -0.3481  1.1702
  119MOL0     H16357   9.893   7.768   4.653  0.8231 -0.5307  1.5475
  119MOL0     H16358   9.865   7.593   4.677  0.7067 -0.8087 -1.5593
  119MOL0     H16359   9.993   7.532   4.476 -2.6864 -0.5773  3.5505
  119MOL0     H16360  10.041   7.701   4.453  2.1766 -1.2275 -0.2256
  119MOL0     H16361  10.127   7.685   4.693  2.8173 -1.1168  1.7526
  119MOL0     H16362  10.112   7.513   4.680 -0.7888 -0.2513 -1.2543
  119MOL0     H16363  10.257   7.517   4.469 -1.1525 -0.1633 -0.1316
  119MOL0     H16364  10.345   7.573   4.609  0.0758 -0.0992 -0.0747
  119MOL0     H16365  10.237   7.733   4.384  1.3820 -0.4292 -0.7560
  119MOL0     H16366  10.262   7.815   4.545 -2.2607 -2.7307  1.5682
  119MOL0     H16367  10.477   7.689   4.379  3.5794 -0.0858  1.1115
  119MOL0     H16368  10.488   7.776   4.541 -0.1510  0.5799 -0.8390
  119MOL0     H16369  10.389   7.889   4.283 -0.2267 -0.1002  0.9667
  119MOL0     H16370  10.418   7.989   4.427 -1.4668 -0.8145 -0.3506
  119MOL0     H16371  10.664   8.088   4.456  1.1742  1.1257 -0.4246
  119MOL0     H16372  10.903   8.144   4.389  3.0866 -0.1428  0.5693
  119MOL0     H16373  10.932   8.129   4.217 -1.3459  0.8188  0.3557
  119MOL0     H16374  11.060   7.908   4.285 -2.2836 -0.3452  0.6472
  119MOL0     H16375  11.137   8.047   4.362  1.2185  0.2719  0.4127
  119MOL0     H16376  10.964   7.982   4.563 -1.7681 -0.8428  0.3222
  119MOL0     H16377  10.938   7.842   4.457  1.2051 -0.2387 -1.2258
  119MOL0     H16378  11.221   7.877   4.544 -0.4849  1.3089  0.2286
  119MOL0     H16379  11.097   7.788   4.635 -1.5480 -1.4588 -0.4082
  119MOL0     H16380  11.353   7.732   4.635  1.8895 -0.4183  1.4941
  119MOL0     H16381  11.679   7.644   4.619  0.4362  4.2416  3.7010
  119MOL0     H16382  11.613   7.523   4.727  0.0042 -0.2539  1.5666
  119MOL0     H16383  11.560   7.691   4.736 -0.2728  0.6896 -0.8772
  119MOL0     H16384  11.682   7.088   4.637  1.0778  1.6005  4.9239
  119MOL0     H16385  11.867   6.921   4.580 -0.9077 -0.0878  1.1999
  119MOL0     H16386  12.134   6.898   4.682  1.1191 -1.7809 -0.2218
  119MOL0     H16387  12.087   6.817   4.526  0.3969 -0.5323 -1.9723
  119MOL0     H16388  12.342   6.896   4.462  0.2897 -0.3400 -1.0756
  119MOL0     H16389  12.367   6.895   4.633  2.5844 -2.4288 -0.4671
  119MOL0     H16390  12.274   6.672   4.463  2.0969  0.6492 -1.2631
  119MOL0     H16391  12.280   6.664   4.639 -1.2687  2.0739 -0.6644
  119MOL0     H16392  12.493   6.563   4.528 -0.4269 -0.4106 -0.8186
  119MOL0     H16393  12.533   6.713   4.632  2.3967  1.3253 -2.5896
  119MOL0     H16394  12.506   6.717   4.336  1.5974  1.2217 -1.8326
  119MOL0     H16395  12.545   6.853   4.426 -1.0255 -0.5134 -0.8135
  119MOL0     H16396  12.716   6.610   4.421 -2.2078  1.2078  2.6120
  119MOL0     H16397  12.753   6.761   4.500 -2.6885  3.4342  1.2359
  119MOL0     H16398  12.734   6.853   4.235 -2.2337 -0.0390  1.1961
  119MOL0     H16399  12.689   6.689   4.198 -2.8911  3.3915 -1.2302
  119MOL0     H16400  12.894   6.595   4.274  0.6692 -0.3338 -2.3405
  119MOL0     H16401  12.965   6.751   4.315 -0.7648  2.2443 -1.1535
  119MOL0     H16402  12.108   7.258   4.454  0.1247 -0.9984 -1.4471
  119MOL0     H16403  11.927   7.412   4.512  0.3916 -0.3442 -3.5596
  119MOL0     H16404  11.386   7.338   4.342 -1.2399 -1.0098  0.7207
  119MOL0     H16405  11.187   7.485   4.320 -0.1289  1.2808 -1.1649
  119MOL0     H16406   9.592   7.511   4.392  0.9250 -0.3014  1.8470
  119MOL0     H16407   9.377   7.461   4.307  0.8943 -0.4221 -0.0289
  119MOL0     H16408   8.992   7.459   4.047  2.9887 -2.7053  1.4154
  119MOL0     H16409   8.761   7.365   4.012 -0.9940 -1.2551  0.5337
  119MOL0     H16410   8.546   7.309   4.014  1.1604 -1.2907  1.5311
  119MOL0     H16411   8.406   7.331   4.111  0.7551  1.3731 -1.4794
  119MOL0     H16412   8.431   7.518   3.953 -0.0989  0.5784  0.3640
  119MOL0     H16413   8.588   7.556   4.028  0.0349  1.0708  3.3070
  119MOL0     H16414   8.501   7.588   4.238 -0.6283  3.5569  1.3850
  119MOL0     H16415   8.443   7.710   4.125  1.5289 -0.2151  0.4536
  119MOL0     H16416   8.248   7.634   4.258 -0.0976  0.0174  0.8495
  119MOL0     H16417   8.264   7.476   4.205  0.1144  0.1258  1.3715
  119MOL0     H16418   8.078   7.668   3.876  0.6989  1.4231  0.1087
  119MOL0     H16419   8.683   7.418   4.423 -1.1805  0.1666 -1.2575
  119MOL0     H16420   8.812   7.527   4.586 -0.0499  1.4887  1.5996
  119MOL0     H16421   8.977   7.498   4.564  0.7965  2.5504  0.8517
  119MOL0     H16422   8.916   7.653   4.508  0.1455 -0.2383  1.4315
  120MOL0     O16423   2.123   0.624   6.816 -0.0313 -0.9273  0.6883
  120MOL0     C16424   2.082   0.593   6.925  0.7476 -1.0258 -1.0130
  120MOL0     O16425   2.049   0.459   6.959  0.8296  0.0283  0.4977
  120MOL0     C16426   2.098   0.358   6.882 -1.1326  0.2119 -0.0096
  120MOL0     C16427   2.223   0.371   6.817 -0.6009 -0.3653  0.2936
  120MOL0     C16428   2.267   0.261   6.741  0.5039  1.0785  0.9356
  120MOL0     C16429   2.193   0.134   6.735  0.5150 -0.0823 -1.0374
  120MOL0     O16430   2.251   0.037   6.666  1.0793  0.0375 -0.3984
  120MOL0     C16431   2.171  -0.031   6.564 -0.7617 -0.4801  0.3878
  120MOL0     C16432   2.258  -0.137   6.487  0.3839 -0.3885 -0.3815
  120MOL0     C16433   2.380  -0.067   6.417 -0.3595  0.2244  1.0374
  120MOL0     C16434   2.464  -0.181   6.363  0.1902  0.7663  0.2581
  120MOL0     C16435   2.599  -0.112   6.328  0.7472 -0.4342  0.4051
  120MOL0     C16436   2.681  -0.210   6.237  0.2100 -0.6747  0.2210
  120MOL0     C16437   2.751  -0.313   6.329  0.7086  0.0232  0.3042
  120MOL0     C16438   2.876  -0.377   6.260 -0.8861 -0.0809  0.5129
  120MOL0     N16439   2.824  -0.451   6.144 -0.3265  0.2444  0.3116
  120MOL0     C16440   2.706  -0.524   6.127 -0.0914 -0.1310  1.0969
  120MOL0     C16441   2.714  -0.575   6.000  0.7652  0.4630 -0.1966
  120MOL0     C16442   2.605  -0.661   5.940 -0.5495  0.5653  0.6917
  120MOL0     C16443   2.519  -0.572   5.852 -0.9231 -0.3642 -1.1310
  120MOL0     C16444   2.391  -0.645   5.796 -0.0712  0.0315 -0.8173
  120MOL0     C16445   2.305  -0.717   5.893  0.8708 -0.3606 -0.6843
  120MOL0     O16446   2.350  -0.847   5.930 -0.2660  0.7096  0.5459
  120MOL0     C16447   2.273  -0.903   6.023 -0.5053 -1.0056 -1.5988
  120MOL0     C16448   2.312  -0.924   6.159  0.5009  0.6530 -0.0699
  120MOL0     C16449   2.223  -0.984   6.248 -0.5205  0.1809  0.0344
  120MOL0     C16450   2.269  -1.006   6.391 -0.2496 -0.7047 -0.3268
  120MOL0     C16451   2.098  -1.041   6.201 -0.0138 -0.3804 -0.5186
  120MOL0     C16452   2.012  -1.138   6.280 -0.5171  0.1151 -0.2451
  120MOL0     O16453   1.906  -1.202   6.218 -0.6833 -0.2033 -0.5161
  120MOL0     C16454   1.845  -1.304   6.280 -0.2776  0.4240 -0.1087
  120MOL0     C16455   1.746  -1.277   6.383  0.7606 -0.3062  0.1857
  120MOL0     C16456   1.683  -1.390   6.437 -0.0498  0.3153 -0.6431
  120MOL0     C16457   1.728  -1.518   6.413  0.6754  0.8166 -0.2213
  120MOL0     O16458   1.662  -1.637   6.466  0.0711 -0.2872  0.3218
  120MOL0     C16459   1.580  -1.633   6.585 -0.6862 -0.2099  0.4078
  120MOL0     C16460   1.654  -1.642   6.718 -0.5901 -0.7372  0.3078
  120MOL0     C16461   1.642  -1.506   6.783 -0.1962 -0.3124 -0.2021
  120MOL0     C16462   1.505  -1.485   6.847 -0.3702  0.2906  0.1600
  120MOL0     C16463   1.467  -1.356   6.906 -0.8540  0.2109 -1.2913
  120MOL0     C16464   1.422  -1.253   6.803 -0.4381 -0.0430  0.3485
  120MOL0     C16465   1.330  -1.141   6.861 -0.2487  0.3759 -0.7930
  120MOL0     C16466   1.396  -1.053   6.968 -0.5855  0.4546 -0.4361
  120MOL0    Cl16467   1.295  -0.904   7.002 -0.4402  0.2933 -0.1427
  120MOL0     C16468   1.826  -1.540   6.317  0.1407 -0.2172 -0.7109
  120MOL0     C16469   1.892  -1.435   6.257  0.3087  0.6120  0.3252
  120MOL0     O16470   2.041  -1.161   6.397 -0.5633 -0.3159  0.2443
  120MOL0     C16471   2.061  -1.002   6.070  0.4758  0.3195 -0.4734
  120MOL0     C16472   2.146  -0.926   5.994 -0.6957  0.6349  0.1455
  120MOL0     N16473   2.831  -0.531   5.945  0.7184 -0.5438 -0.1433
  120MOL0     N16474   2.900  -0.465   6.034  0.0431  0.9057 -0.4514
  120MOL0     C16475   2.069   0.127   6.800  0.6494  0.5722 -0.2763
  120MOL0     C16476   2.016   0.239   6.863 -0.6547 -0.6691 -0.8974
  120MOL0     C16477   2.059   0.700   7.035  0.4022  1.0559  0.2448
  120MOL0     C16478   2.040   0.664   7.167  0.4543  0.0307 -0.3205
  120MOL0     C16479   2.004   0.754   7.259  1.0328 -0.5930 -0.3041
  120MOL0     C16480   1.997   0.891   7.234  0.2753  0.1024  0.8123
  120MOL0     O16481   1.968   0.977   7.338 -0.0081  0.0467  0.0788
  120MOL0     C16482   1.983   1.121   7.320  0.7489  0.2604 -0.7170
  120MOL0     C16483   2.011   1.194   7.444 -0.0478  0.6681  0.3204
  120MOL0     C16484   1.889   1.204   7.541 -0.5319 -0.2071  0.5172
  120MOL0     C16485   1.874   1.082   7.637  0.0594 -0.1103 -0.3635
  120MOL0     C16486   1.744   1.103   7.697 -0.1182 -0.2555 -1.1762
  120MOL0     C16487   1.629   1.113   7.733 -1.4035 -0.1674 -1.0987
  120MOL0     C16488   2.016   0.931   7.097 -0.1622  0.6816  0.1292
  120MOL0     C16489   2.048   0.838   7.000  0.3672  0.6084 -0.2545
  120MOL0     C16490   2.061   0.901   6.855  0.6196  0.2822  0.0877
  120MOL0     H16491   2.283   0.462   6.818 -0.7397 -0.0973 -3.4276
  120MOL0     H16492   2.360   0.266   6.684 -1.5928  0.7489 -2.8674
  120MOL0     H16493   2.128   0.039   6.493 -0.9358 -1.5196 -0.5599
  120MOL0     H16494   2.092  -0.086   6.615 -0.3295 -1.9539 -0.4526
  120MOL0     H16495   2.289  -0.218   6.554  1.6591  1.4406  1.3437
  120MOL0     H16496   2.197  -0.174   6.403  1.7504  0.5603 -1.8499
  120MOL0     H16497   2.348  -0.008   6.330  1.5572  0.2392  0.2991
  120MOL0     H16498   2.433  -0.004   6.489  1.8426  0.7939 -0.9566
  120MOL0     H16499   2.475  -0.258   6.439  3.4901  1.0252  0.2119
  120MOL0     H16500   2.424  -0.209   6.265  1.7315 -0.0057 -0.1838
  120MOL0     H16501   2.649  -0.078   6.419 -2.7904  3.5945  1.2077
  120MOL0     H16502   2.579  -0.019   6.274  2.0951 -0.9830 -1.1068
  120MOL0     H16503   2.616  -0.266   6.170  0.4898  1.1501 -1.6856
  120MOL0     H16504   2.755  -0.155   6.178  0.6635 -0.4635  0.9685
  120MOL0     H16505   2.679  -0.388   6.364 -0.4014  0.9646  0.0897
  120MOL0     H16506   2.787  -0.253   6.413 -0.5007  0.9943  0.1594
  120MOL0     H16507   2.952  -0.303   6.232 -0.4242 -0.4217  0.8386
  120MOL0     H16508   2.929  -0.455   6.316 -0.4538  2.4814  3.9158
  120MOL0     H16509   2.629  -0.520   6.203 -0.3781  1.0630  0.7741
  120MOL0     H16510   2.544  -0.713   6.014  0.1880 -1.0069  0.2491
  120MOL0     H16511   2.655  -0.749   5.898  1.8738  0.0644  4.1886
  120MOL0     H16512   2.482  -0.488   5.911  0.8457  0.0204 -0.5044
  120MOL0     H16513   2.583  -0.539   5.770 -1.4376  1.7785 -0.7355
  120MOL0     H16514   2.326  -0.567   5.756 -1.8460 -0.6677  0.5805
  120MOL0     H16515   2.424  -0.700   5.708 -0.6189 -0.6706 -0.5880
  120MOL0     H16516   2.291  -0.657   5.983  3.4056 -0.7453  0.0255
  120MOL0     H16517   2.212  -0.713   5.835  2.1984  3.1453 -2.8703
  120MOL0     H16518   2.415  -0.898   6.182  0.2912  0.1985  1.5256
  120MOL0     H16519   2.285  -1.112   6.412 -1.9585 -0.7512  0.9725
  120MOL0     H16520   2.202  -0.961   6.465 -1.2190 -2.0975 -0.3115
  120MOL0     H16521   2.369  -0.963   6.401 -0.5383 -0.4050  2.0058
  120MOL0     H16522   1.710  -1.178   6.408 -1.6183  0.0566 -3.8309
  120MOL0     H16523   1.604  -1.386   6.512  2.0319 -0.6927  1.7392
  120MOL0     H16524   1.507  -1.553   6.571  0.4833  0.9737  0.8268
  120MOL0     H16525   1.519  -1.724   6.579  1.3384 -1.6667  0.8727
  120MOL0     H16526   1.604  -1.715   6.781 -1.0855 -0.0895  0.6768
  120MOL0     H16527   1.755  -1.684   6.712 -1.1855 -2.2347  0.4384
  120MOL0     H16528   1.675  -1.433   6.708 -1.8254 -2.2011 -2.9316
  120MOL0     H16529   1.716  -1.487   6.862  1.8956 -1.6813 -1.7277
  120MOL0     H16530   1.494  -1.563   6.924 -1.3012  1.1423  0.9135
  120MOL0     H16531   1.422  -1.516   6.783 -1.3926 -0.3648  1.7287
  120MOL0     H16532   1.385  -1.380   6.975 -3.2377  3.2496 -2.8016
  120MOL0     H16533   1.548  -1.319   6.969 -0.8387  2.8342 -2.7137
  120MOL0     H16534   1.378  -1.296   6.712  0.3002  1.0397 -0.5525
  120MOL0     H16535   1.507  -1.193   6.768  0.2819 -0.5373  1.2060
  120MOL0     H16536   1.236  -1.185   6.895  1.0443  0.1102  2.8594
  120MOL0     H16537   1.329  -1.071   6.778  2.2703 -1.8816 -2.9225
  120MOL0     H16538   1.496  -1.016   6.941  0.0013 -0.7954 -0.0270
  120MOL0     H16539   1.413  -1.113   7.058  0.1662 -1.2731 -1.6799
  120MOL0     H16540   1.868  -1.638   6.297  2.1966  0.2796  0.7861
  120MOL0     H16541   1.977  -1.440   6.190 -1.9840  0.9651 -2.8206
  120MOL0     H16542   1.963  -1.026   6.032  1.1658 -2.0371 -0.9132
  120MOL0     H16543   2.118  -0.877   5.901  3.1960  0.1802 -1.4695
  120MOL0     H16544   2.018   0.031   6.801 -2.5819  2.1579 -0.1253
  120MOL0     H16545   1.924   0.225   6.920  1.5901 -1.2588  2.8863
  120MOL0     H16546   2.055   0.562   7.199 -1.6931 -0.2478 -0.0597
  120MOL0     H16547   1.986   0.714   7.358  0.1312 -1.2256 -0.7172
  120MOL0     H16548   2.073   1.140   7.262 -1.0063 -1.1923 -4.2354
  120MOL0     H16549   1.893   1.162   7.273 -0.0286  0.3259  0.7883
  120MOL0     H16550   2.057   1.291   7.421 -0.8384  1.1709  0.7986
  120MOL0     H16551   2.082   1.134   7.502 -1.6068  0.5071  2.1602
  120MOL0     H16552   1.911   1.297   7.594 -3.4303  2.1168 -1.9536
  120MOL0     H16553   1.793   1.214   7.490 -1.0096 -2.4928  0.8395
  120MOL0     H16554   1.948   1.070   7.716  0.7511 -2.2707 -1.2706
  120MOL0     H16555   1.868   0.991   7.576  1.4715  0.2216 -1.0427
  120MOL0     H16556   1.523   1.123   7.744 -1.3362 -0.5345  0.0128
  120MOL0     H16557   2.002   1.035   7.071 -3.6286  0.5493  1.0086
  120MOL0     H16558   2.030   1.006   6.862  1.2344  0.4613  0.1924
  120MOL0     H16559   2.166   0.901   6.825  0.3945  1.5534 -0.8280
  120MOL0     H16560   2.001   0.851   6.778  0.9851  0.7232 -0.4915
  121MOL0     O16561   0.316   2.330   4.063 -0.3758  0.2051  0.7236
  121MOL0     C16562   0.336   2.210   4.093 -0.6568 -0.0669 -0.7307
  121MOL0     O16563   0.245   2.120   4.148 -0.0954 -0.1213  0.4136
  121MOL0     C16564   0.120   2.163   4.163  0.1995  0.2081 -0.7826
  121MOL0     C16565   0.014   2.159   4.073  0.2756  0.9005  0.0522
  121MOL0     C16566  -0.122   2.178   4.101 -0.1724 -0.0699  0.3082
  121MOL0     C16567  -0.164   2.207   4.226  0.4733 -0.3416 -0.1752
  121MOL0     O16568  -0.301   2.218   4.244  0.3755  0.6766  0.1899
  121MOL0     C16569  -0.355   2.178   4.367  0.1582 -0.2615  1.2841
  121MOL0     C16570  -0.362   2.019   4.367 -0.0637 -0.4165 -0.0319
  121MOL0     C16571  -0.467   1.967   4.269  0.4258 -0.3329  0.0736
  121MOL0     C16572  -0.402   1.860   4.180  0.6224 -0.3617  0.7452
  121MOL0     C16573  -0.480   1.825   4.048  0.3735 -0.7330  0.4568
  121MOL0     C16574  -0.397   1.730   3.967 -0.2409  0.6625  0.9296
  121MOL0     C16575  -0.453   1.693   3.817 -0.1221 -0.6270 -1.3498
  121MOL0     C16576  -0.365   1.583   3.752  0.0164  0.2651  0.4499
  121MOL0     N16577  -0.437   1.527   3.641  0.0700 -0.8427  0.8363
  121MOL0     C16578  -0.466   1.389   3.634 -0.4504 -0.9346 -0.0503
  121MOL0     C16579  -0.553   1.376   3.528 -0.3273  0.5205  0.7178
  121MOL0     C16580  -0.624   1.247   3.499 -1.2806 -0.0490  0.1948
  121MOL0     C16581  -0.530   1.171   3.390  0.0994 -0.0801 -0.9576
  121MOL0     C16582  -0.542   1.016   3.413  0.2847  0.5074  0.2623
  121MOL0     C16583  -0.424   0.943   3.358 -0.9760  0.3165 -0.2797
  121MOL0     O16584  -0.383   0.987   3.229  0.2807 -0.1972  0.1419
  121MOL0     C16585  -0.384   0.900   3.123  0.3855  1.2734 -0.8403
  121MOL0     C16586  -0.426   0.953   2.997  0.3118 -0.7108  0.2791
  121MOL0     C16587  -0.422   0.886   2.876 -0.8455  0.6077 -0.0318
  121MOL0     C16588  -0.471   0.956   2.753  0.0676 -0.0471  0.2310
  121MOL0     C16589  -0.367   0.756   2.875 -0.3844  0.6374  0.0410
  121MOL0     C16590  -0.368   0.672   2.758  0.7524  0.3130  0.2300
  121MOL0     O16591  -0.256   0.620   2.708  0.1669  0.0964  0.1756
  121MOL0     C16592  -0.134   0.644   2.764  0.2563  0.1177  0.4937
  121MOL0     C16593  -0.080   0.564   2.862 -1.1250  0.5279  0.1498
  121MOL0     C16594   0.044   0.584   2.918  0.1662  0.2310 -0.0784
  121MOL0     C16595   0.117   0.688   2.874 -0.4970  0.5897  0.0619
  121MOL0     O16596   0.242   0.720   2.923 -0.2114  0.3111  0.1546
  121MOL0     C16597   0.354   0.652   2.861 -1.0221 -0.2156 -0.3777
  121MOL0     C16598   0.496   0.708   2.903 -0.0769 -0.2246  0.4372
  121MOL0     C16599   0.602   0.686   2.794 -0.4247  0.0449 -0.7631
  121MOL0     C16600   0.735   0.745   2.837 -0.1159  0.3534  0.3141
  121MOL0     C16601   0.795   0.833   2.725  0.3981 -0.1603 -0.3348
  121MOL0     C16602   0.932   0.894   2.748 -0.1547  0.6441 -0.4514
  121MOL0     C16603   1.036   0.779   2.795 -0.4127  0.8035  0.5676
  121MOL0     C16604   1.180   0.839   2.790 -0.1400 -0.4510  0.7353
  121MOL0    Cl16605   1.289   0.744   2.893  0.0182  0.1355 -0.0495
  121MOL0     C16606   0.065   0.776   2.777 -0.5277  0.4922  0.3292
  121MOL0     C16607  -0.058   0.752   2.726  0.3068 -0.3879  0.0179
  121MOL0     O16608  -0.475   0.656   2.707 -0.3109  0.5618  0.3258
  121MOL0     C16609  -0.335   0.698   3.000 -2.0669  0.7020 -0.1031
  121MOL0     C16610  -0.342   0.760   3.129 -0.2398  0.5291  0.6261
  121MOL0     N16611  -0.588   1.498   3.482  0.0074  0.2585 -0.7977
  121MOL0     N16612  -0.518   1.591   3.548 -0.5783 -0.2562 -0.3069
  121MOL0     C16613  -0.057   2.233   4.313  0.1257  0.0237 -0.1868
  121MOL0     C16614   0.082   2.209   4.288 -0.8321 -0.8611  0.2111
  121MOL0     C16615   0.479   2.170   4.095  0.3029 -0.0644 -0.2690
  121MOL0     C16616   0.512   2.042   4.064 -0.0033 -1.1599  0.0741
  121MOL0     C16617   0.651   1.996   4.054  0.2676  0.1844  0.2734
  121MOL0     C16618   0.757   2.080   4.093  0.0477  0.4881 -1.1366
  121MOL0     O16619   0.883   2.021   4.118  0.7028  0.0534  0.6382
  121MOL0     C16620   0.920   1.947   3.995 -0.1034 -0.0386  0.0392
  121MOL0     C16621   1.076   1.955   3.985 -0.2682  0.5119  0.5911
  121MOL0     C16622   1.137   1.870   3.869 -0.2313  0.0460  0.5765
  121MOL0     C16623   1.292   1.898   3.876  0.2706 -1.2332  0.3469
  121MOL0     C16624   1.357   1.851   3.750 -0.5432 -0.0466  0.6551
  121MOL0     C16625   1.415   1.821   3.647 -0.0508  0.2932 -0.2010
  121MOL0     C16626   0.724   2.202   4.141 -0.2795  0.1596  0.2476
  121MOL0     C16627   0.594   2.256   4.129  1.3138  0.7098  1.7288
  121MOL0     C16628   0.567   2.397   4.192 -0.6579 -0.4980  0.3796
  121MOL0     H16629   0.052   2.122   3.979 -0.9727 -1.2024  0.3074
  121MOL0     H16630  -0.195   2.170   4.021  1.4158 -2.5615 -1.0075
  121MOL0     H16631  -0.460   2.207   4.382 -0.5886 -0.7205 -2.1358
  121MOL0     H16632  -0.302   2.223   4.452 -0.0739 -0.8408  1.7414
  121MOL0     H16633  -0.262   1.982   4.341  0.7446  2.7299 -1.9977
  121MOL0     H16634  -0.388   1.975   4.464  1.3046 -0.7511  0.2017
  121MOL0     H16635  -0.557   1.935   4.321 -1.1235  1.0285 -1.6290
  121MOL0     H16636  -0.488   2.053   4.204  2.7917  0.4658  0.2680
  121MOL0     H16637  -0.314   1.917   4.148 -0.9804  1.5407 -0.5253
  121MOL0     H16638  -0.368   1.775   4.240  1.2497 -0.3305  0.4435
  121MOL0     H16639  -0.490   1.915   3.988  0.5051 -0.1250  1.3267
  121MOL0     H16640  -0.578   1.784   4.075  0.4202 -2.8997 -2.2536
  121MOL0     H16641  -0.300   1.782   3.967 -1.0581  2.2829  1.6112
  121MOL0     H16642  -0.399   1.637   4.025 -1.1560 -0.7092 -1.1949
  121MOL0     H16643  -0.452   1.778   3.748 -0.3719 -0.5533 -1.2642
  121MOL0     H16644  -0.557   1.660   3.829  0.0443 -0.3241  1.4066
  121MOL0     H16645  -0.273   1.635   3.728  1.5998 -0.4911  4.1755
  121MOL0     H16646  -0.350   1.510   3.832  0.7025  0.7434  0.7583
  121MOL0     H16647  -0.446   1.323   3.718  1.5660  2.0302  1.9894
  121MOL0     H16648  -0.722   1.267   3.455 -0.5151  0.7363 -1.2361
  121MOL0     H16649  -0.643   1.184   3.586  1.3906 -2.1476 -0.6067
  121MOL0     H16650  -0.538   1.207   3.287  0.4244  0.9975 -0.6164
  121MOL0     H16651  -0.426   1.195   3.412 -0.9857  2.0595  2.8334
  121MOL0     H16652  -0.545   0.991   3.519  1.0752  0.1416  0.2014
  121MOL0     H16653  -0.632   0.990   3.357 -0.6681  0.6937  1.6642
  121MOL0     H16654  -0.341   0.971   3.423  0.4876 -1.1382 -1.4415
  121MOL0     H16655  -0.432   0.835   3.371 -1.5101  0.3189 -0.5864
  121MOL0     H16656  -0.449   1.059   3.001 -0.4819 -0.8805  0.2904
  121MOL0     H16657  -0.554   1.019   2.785 -0.9150 -1.3670  0.3510
  121MOL0     H16658  -0.508   0.883   2.680  2.8993 -1.0479 -0.3201
  121MOL0     H16659  -0.395   1.018   2.704 -0.5252 -1.4399 -2.7019
  121MOL0     H16660  -0.133   0.477   2.899 -1.3586  0.8642  0.6214
  121MOL0     H16661   0.065   0.519   3.003 -1.0014 -0.7535 -0.5067
  121MOL0     H16662   0.355   0.546   2.888  1.9342 -0.3152 -0.5136
  121MOL0     H16663   0.351   0.660   2.752  0.7057  0.7016 -0.3910
  121MOL0     H16664   0.479   0.816   2.910 -0.0651 -0.2476  0.8810
  121MOL0     H16665   0.526   0.664   2.999  0.9844 -1.9188 -0.6205
  121MOL0     H16666   0.553   0.728   2.706 -3.6420  3.8914  2.4416
  121MOL0     H16667   0.621   0.579   2.780  0.3330 -0.1871  1.6270
  121MOL0     H16668   0.800   0.659   2.852 -0.8589 -0.6565 -1.7824
  121MOL0     H16669   0.725   0.798   2.932  0.3303 -1.5096  1.4468
  121MOL0     H16670   0.813   0.778   2.633  1.3191  0.9052 -0.8182
  121MOL0     H16671   0.720   0.908   2.698 -0.7947 -2.0550 -2.6449
  121MOL0     H16672   0.925   0.959   2.835 -0.9309 -0.5526  0.4078
  121MOL0     H16673   0.957   0.940   2.652 -4.4871  1.5174 -1.4031
  121MOL0     H16674   1.026   0.693   2.729  0.7855  3.1810 -3.0436
  121MOL0     H16675   1.010   0.753   2.898 -1.3547 -0.9894 -0.0788
  121MOL0     H16676   1.189   0.944   2.820 -0.3269 -0.4355  0.7356
  121MOL0     H16677   1.215   0.826   2.687  0.8333  0.5800  0.9129
  121MOL0     H16678   0.110   0.869   2.746  0.8997  0.8467  3.0932
  121MOL0     H16679  -0.110   0.823   2.663 -0.3163  0.9749  1.9778
  121MOL0     H16680  -0.293   0.599   3.003  0.6719  1.7765  0.0709
  121MOL0     H16681  -0.325   0.708   3.223 -1.0616 -0.0556  0.4588
  121MOL0     H16682  -0.074   2.271   4.414  1.2412 -0.9818  0.3968
  121MOL0     H16683   0.154   2.228   4.367 -2.3107 -2.9694  2.1855
  121MOL0     H16684   0.432   1.976   4.033 -2.8061  2.1030 -0.1237
  121MOL0     H16685   0.678   1.893   4.033 -0.1190 -0.6748  3.4432
  121MOL0     H16686   0.898   1.841   4.011  2.4803 -0.4408  1.4124
  121MOL0     H16687   0.881   1.991   3.903  1.4584 -1.1702 -1.2266
  121MOL0     H16688   1.133   1.936   4.077  2.1645 -2.6861 -1.3752
  121MOL0     H16689   1.104   2.056   3.957  0.0685  0.6549  1.3947
  121MOL0     H16690   1.118   1.762   3.872 -1.7929 -0.1193 -4.6300
  121MOL0     H16691   1.100   1.902   3.771  0.2067 -1.8368 -0.2511
  121MOL0     H16692   1.340   1.846   3.960  2.1560 -3.5892 -2.0364
  121MOL0     H16693   1.306   2.005   3.898  1.2803 -1.3284  0.2035
  121MOL0     H16694   1.473   1.793   3.560  0.9772 -0.4457  0.6929
  121MOL0     H16695   0.805   2.260   4.185  0.5522  0.9360 -2.1263
  121MOL0     H16696   0.658   2.454   4.213 -0.3023 -1.9810  3.5032
  121MOL0     H16697   0.504   2.456   4.125  1.3800  1.4068  0.0105
  121MOL0     H16698   0.507   2.398   4.283  1.0109  0.2478  1.5140
  122MOL0     O16699   4.211   1.414   9.360 -0.0639 -0.3192  0.2845
  122MOL0     C16700   4.161   1.403   9.246 -0.4379  0.2211 -1.0242
  122MOL0     O16701   4.214   1.463   9.136 -0.1652  0.5206 -0.6102
  122MOL0     C16702   4.350   1.496   9.142 -0.8065  0.1091  0.0102
  122MOL0     C16703   4.445   1.429   9.069  0.4543 -0.2558  0.7149
  122MOL0     C16704   4.581   1.460   9.066  0.1804  0.4614 -1.1487
  122MOL0     C16705   4.630   1.572   9.141  0.3026  0.3491  0.2984
  122MOL0     O16706   4.761   1.605   9.171  0.6289  0.0902  0.2434
  122MOL0     C16707   4.857   1.581   9.057  0.7020  0.1061 -0.3785
  122MOL0     C16708   4.973   1.675   9.084 -0.1399  0.2196  0.4458
  122MOL0     C16709   5.062   1.693   8.952  0.1733  0.3939  0.6014
  122MOL0     C16710   5.178   1.789   8.991  0.4213 -0.3554  0.2099
  122MOL0     C16711   5.286   1.801   8.874  0.0224 -0.0780 -0.1465
  122MOL0     C16712   5.393   1.893   8.925  0.2045 -0.4139  0.4554
  122MOL0     C16713   5.478   1.953   8.811 -0.1321 -0.0516  0.3406
  122MOL0     C16714   5.587   2.046   8.852 -0.4692 -0.8001  0.4238
  122MOL0     N16715   5.711   1.978   8.888 -0.2425  0.1250 -1.3501
  122MOL0     C16716   5.778   1.889   8.810  0.3965 -0.1901  1.1544
  122MOL0     C16717   5.883   1.844   8.878 -0.5480 -0.0148  0.3538
  122MOL0     C16718   6.008   1.777   8.828 -0.2779  0.2329 -0.4209
  122MOL0     C16719   6.014   1.778   8.673  0.2580 -0.5061 -0.3674
  122MOL0     C16720   6.133   1.700   8.624 -0.2271 -0.2201 -0.2447
  122MOL0     C16721   6.271   1.774   8.655 -0.1241 -0.3026  0.3834
  122MOL0     O16722   6.372   1.679   8.684  0.2354  0.2395 -0.2216
  122MOL0     C16723   6.500   1.704   8.657  0.6250  0.1620  0.4336
  122MOL0     C16724   6.575   1.817   8.693  0.5170 -0.1878 -0.3185
  122MOL0     C16725   6.713   1.828   8.676  0.5878 -0.4685  1.2923
  122MOL0     C16726   6.777   1.957   8.721  0.0509 -0.1030  0.6854
  122MOL0     C16727   6.781   1.721   8.622 -0.8193  0.3069  0.6094
  122MOL0     C16728   6.929   1.718   8.599  0.0540 -0.3380  0.1710
  122MOL0     O16729   7.015   1.801   8.672  0.2922  0.2622  0.4830
  122MOL0     C16730   7.146   1.813   8.640 -0.2503  0.3265 -0.0759
  122MOL0     C16731   7.207   1.911   8.558  0.7376 -0.0327 -0.2901
  122MOL0     C16732   7.344   1.933   8.560 -0.0572 -0.1938  0.0578
  122MOL0     C16733   7.434   1.848   8.636  0.6223  0.0964 -0.5504
  122MOL0     O16734   7.568   1.871   8.653  0.6107 -0.4234 -0.4238
  122MOL0     C16735   7.606   1.972   8.740  0.1879  0.4577  0.0918
  122MOL0     C16736   7.750   1.941   8.773 -1.0419 -0.3619  0.0260
  122MOL0     C16737   7.810   2.041   8.878  0.4887 -0.3667 -0.7995
  122MOL0     C16738   7.962   2.039   8.858  0.6552  0.1771 -0.3699
  122MOL0     C16739   8.035   2.127   8.958 -0.5650 -0.4447 -0.4288
  122MOL0     C16740   8.007   2.278   8.951 -0.2618 -0.2873  0.1269
  122MOL0     C16741   8.008   2.340   8.813  0.0800 -0.9233  0.3135
  122MOL0     C16742   7.930   2.475   8.810  0.0597  0.2927  0.1761
  122MOL0    Cl16743   7.784   2.480   8.713  0.0379  0.3041 -0.2081
  122MOL0     C16744   7.376   1.749   8.706 -0.2430  0.4702  0.1448
  122MOL0     C16745   7.239   1.725   8.703 -0.7367 -0.6503 -0.0125
  122MOL0     O16746   6.969   1.651   8.502 -0.2364 -0.3433  0.5857
  122MOL0     C16747   6.713   1.603   8.580  0.3034  0.4837 -1.1503
  122MOL0     C16748   6.569   1.605   8.587 -0.1027  0.2902 -0.3139
  122MOL0     N16749   5.874   1.910   8.998 -0.7961 -0.1496 -0.6129
  122MOL0     N16750   5.778   1.991   9.001  0.4177  0.3894 -0.2261
  122MOL0     C16751   4.538   1.647   9.210 -0.2990 -0.0834  0.0967
  122MOL0     C16752   4.400   1.611   9.207  0.5777  0.9504 -0.2815
  122MOL0     C16753   4.040   1.317   9.223  0.0921  0.4461 -0.1597
  122MOL0     C16754   4.026   1.262   9.094 -0.4875 -0.0327 -0.6400
  122MOL0     C16755   3.913   1.191   9.064 -0.0718  0.4515  0.7121
  122MOL0     C16756   3.809   1.169   9.156 -0.0197  1.0639  0.9908
  122MOL0     O16757   3.712   1.088   9.095  0.4018  0.2998  0.3374
  122MOL0     C16758   3.607   1.032   9.174  0.7460 -0.5242 -0.2677
  122MOL0     C16759   3.480   1.019   9.096  0.5125 -0.7895  0.2570
  122MOL0     C16760   3.423   1.160   9.063  1.0376 -0.3335 -0.0608
  122MOL0     C16761   3.296   1.159   8.981 -0.5429 -1.1094 -0.4810
  122MOL0     C16762   3.317   1.104   8.845 -0.1011 -0.7741 -0.5888
  122MOL0     C16763   3.342   1.043   8.745  0.2080  0.3828 -0.6022
  122MOL0     C16764   3.819   1.224   9.288  0.6780 -0.2746  0.0867
  122MOL0     C16765   3.938   1.286   9.322  0.0505 -0.7705  0.4491
  122MOL0     C16766   3.956   1.334   9.465 -0.4483  0.4576  0.7580
  122MOL0     H16767   4.414   1.345   9.008 -1.7100 -1.0140  2.6949
  122MOL0     H16768   4.647   1.392   9.014 -2.6235 -1.6882 -2.1229
  122MOL0     H16769   4.807   1.607   8.964 -3.0851 -0.4341  1.3338
  122MOL0     H16770   4.890   1.477   9.055  0.5498  0.0469  0.0262
  122MOL0     H16771   4.924   1.766   9.117 -1.3215  0.3290 -1.4863
  122MOL0     H16772   5.036   1.646   9.169  0.0711  1.8538  0.8673
  122MOL0     H16773   5.099   1.593   8.924 -0.5353 -0.0468  1.1895
  122MOL0     H16774   4.996   1.732   8.875  0.3529  1.5270  1.0104
  122MOL0     H16775   5.121   1.881   9.003 -2.8412 -1.8528 -2.1600
  122MOL0     H16776   5.222   1.767   9.089  1.6279  1.5058  0.1443
  122MOL0     H16777   5.237   1.831   8.781 -0.5101 -1.3041 -0.2784
  122MOL0     H16778   5.330   1.705   8.845  0.4975  0.3585 -0.9096
  122MOL0     H16779   5.349   1.979   8.976 -0.3870 -1.3556  1.5681
  122MOL0     H16780   5.454   1.840   8.998  0.7079  3.3012  3.0016
  122MOL0     H16781   5.409   2.014   8.752  2.2578  2.1460 -0.3765
  122MOL0     H16782   5.515   1.879   8.739  0.1180  1.5290 -1.2303
  122MOL0     H16783   5.613   2.107   8.766  0.1735  1.8495  2.3771
  122MOL0     H16784   5.557   2.117   8.929 -0.1159  1.9406 -1.8151
  122MOL0     H16785   5.756   1.875   8.705 -1.2747 -0.0317  1.4423
  122MOL0     H16786   5.994   1.673   8.859  0.5514  0.4890  0.8773
  122MOL0     H16787   6.093   1.809   8.888  2.1199 -2.1003 -2.2919
  122MOL0     H16788   5.918   1.743   8.635 -1.7813 -0.1425  3.8619
  122MOL0     H16789   6.019   1.882   8.639 -0.5365 -0.9491 -1.9233
  122MOL0     H16790   6.120   1.597   8.661 -2.3460 -0.8536 -2.4584
  122MOL0     H16791   6.126   1.698   8.515  0.4849  1.2438 -0.3375
  122MOL0     H16792   6.302   1.829   8.566 -0.2951  0.9516  1.0842
  122MOL0     H16793   6.260   1.847   8.735 -0.1042  0.3730 -0.2170
  122MOL0     H16794   6.515   1.898   8.733  0.8875 -0.5991  1.1580
  122MOL0     H16795   6.694   2.029   8.728 -0.8924 -0.9917 -0.7374
  122MOL0     H16796   6.849   1.995   8.648  1.3997  1.4979  2.7268
  122MOL0     H16797   6.831   1.942   8.814  0.3876 -0.8276  0.3812
  122MOL0     H16798   7.136   1.976   8.508 -1.1827 -0.0128  2.2232
  122MOL0     H16799   7.387   2.015   8.503  1.6710 -1.6228 -0.8073
  122MOL0     H16800   7.588   2.065   8.686  2.7842  1.5124  0.8954
  122MOL0     H16801   7.538   1.970   8.826 -0.8234  0.4809 -0.6847
  122MOL0     H16802   7.763   1.839   8.810  0.5079  1.3411  4.9854
  122MOL0     H16803   7.813   1.952   8.684  0.3601  0.7123  1.1202
  122MOL0     H16804   7.784   2.016   8.982  1.6916 -1.0233 -0.6345
  122MOL0     H16805   7.773   2.142   8.857  0.5038  0.1221  1.2678
  122MOL0     H16806   7.980   2.069   8.754  1.8401 -0.5207 -0.3776
  122MOL0     H16807   8.006   1.939   8.862  1.7665  0.6700  0.1837
  122MOL0     H16808   8.011   2.083   9.055  1.6880 -0.4936  0.1601
  122MOL0     H16809   8.144   2.119   8.952 -0.2532  2.6801 -0.4434
  122MOL0     H16810   8.080   2.328   9.015  1.0799  0.1799 -1.7091
  122MOL0     H16811   7.901   2.290   8.979 -0.4349  1.6643 -1.2104
  122MOL0     H16812   7.956   2.276   8.741 -0.1877 -0.4319  0.0631
  122MOL0     H16813   8.107   2.355   8.768 -0.3239 -1.2828 -0.7440
  122MOL0     H16814   7.998   2.550   8.768  0.9246  0.1405  1.2309
  122MOL0     H16815   7.893   2.510   8.907  0.2014  2.2660 -0.4365
  122MOL0     H16816   7.435   1.692   8.777  3.8260  2.7707 -1.0141
  122MOL0     H16817   7.197   1.646   8.765 -1.1878 -1.3848 -1.2151
  122MOL0     H16818   6.766   1.522   8.532 -0.4030 -1.8427  1.6825
  122MOL0     H16819   6.503   1.534   8.538 -2.1657  2.3705 -0.6997
  122MOL0     H16820   4.570   1.724   9.279  0.1854  1.3730 -1.6802
  122MOL0     H16821   4.330   1.667   9.270 -0.3765 -0.4510 -0.0497
  122MOL0     H16822   4.099   1.271   9.014 -1.3795  0.0551 -1.4569
  122MOL0     H16823   3.904   1.131   8.974 -1.2203  0.2899  0.9191
  122MOL0     H16824   3.623   0.930   9.210 -1.5366 -1.4134 -1.5711
  122MOL0     H16825   3.586   1.091   9.264  0.3206 -1.5527  0.3137
  122MOL0     H16826   3.404   0.959   9.147  1.8022 -0.8843  2.2105
  122MOL0     H16827   3.496   0.969   9.000 -0.0966  1.5618 -1.1420
  122MOL0     H16828   3.404   1.211   9.159 -2.5385 -3.8073  1.3761
  122MOL0     H16829   3.509   1.207   9.015  1.2259 -2.2158 -1.6697
  122MOL0     H16830   3.246   1.255   8.969 -0.8381 -1.1087  0.6485
  122MOL0     H16831   3.232   1.087   9.033 -0.7975 -3.4497 -3.7155
  122MOL0     H16832   3.354   0.982   8.658 -0.5276 -1.9441  0.8447
  122MOL0     H16833   3.737   1.214   9.358 -1.7610 -0.1668 -2.5615
  122MOL0     H16834   4.043   1.299   9.521 -0.1321  0.2144  0.1099
  122MOL0     H16835   3.950   1.444   9.470  0.2192  0.7416 -2.4985
  122MOL0     H16836   3.872   1.302   9.527 -1.1342  0.4424 -0.1703
  123MOL0     O16837   3.645   9.576   2.965 -0.2250  0.5986  0.4955
  123MOL0     C16838   3.607   9.460   2.958  0.4647 -0.0214 -0.0144
  123MOL0     O16839   3.690   9.359   2.928  0.4589 -0.6047  0.0380
  123MOL0     C16840   3.824   9.376   2.954  0.6291 -0.0125 -0.0081
  123MOL0     C16841   3.876   9.424   3.077  0.8664  0.3856  0.6258
  123MOL0     C16842   4.012   9.433   3.108  0.5133 -0.5204  0.8388
  123MOL0     C16843   4.109   9.393   3.020  0.2404 -0.3856 -0.6356
  123MOL0     O16844   4.243   9.390   3.056  0.2823  0.7212 -0.4687
  123MOL0     C16845   4.271   9.263   3.130  0.1222  0.1286 -0.0782
  123MOL0     C16846   4.424   9.244   3.156 -0.0276 -0.2055 -0.2620
  123MOL0     C16847   4.507   9.202   3.034  0.0491  0.4829 -0.1717
  123MOL0     C16848   4.521   9.315   2.927 -0.3551 -0.3520 -0.8765
  123MOL0     C16849   4.608   9.432   2.981  0.3716 -0.4775  0.7398
  123MOL0     C16850   4.635   9.540   2.870  0.3386 -0.6468 -0.1830
  123MOL0     C16851   4.690   9.668   2.941 -0.2215 -0.5160 -0.4803
  123MOL0     C16852   4.578   9.775   2.956  0.4068 -0.5368  0.3453
  123MOL0     N16853   4.625   9.905   3.009  0.5706 -0.7107 -0.3389
  123MOL0     C16854   4.599   9.963   3.135 -0.0368  0.5455 -0.1680
  123MOL0     C16855   4.661  10.085   3.129  0.4413 -0.6916 -0.7771
  123MOL0     C16856   4.658  10.190   3.245 -0.7237  0.2005 -0.4625
  123MOL0     C16857   4.630  10.327   3.187 -0.3317  0.1914 -0.9025
  123MOL0     C16858   4.659  10.443   3.287 -0.4213  0.4113  0.3640
  123MOL0     C16859   4.806  10.490   3.303  0.2903  0.6016 -0.2322
  123MOL0     O16860   4.907  10.388   3.314  0.1472  0.3990 -0.8326
  123MOL0     C16861   5.032  10.431   3.268  0.1498 -0.0009 -0.3727
  123MOL0     C16862   5.151  10.449   3.343 -0.7870  0.3012 -0.2542
  123MOL0     C16863   5.272  10.489   3.285 -0.3424  0.0828 -0.6697
  123MOL0     C16864   5.399  10.497   3.372 -0.3006 -0.0191  0.4387
  123MOL0     C16865   5.283  10.507   3.143 -0.0025 -0.2482 -0.3285
  123MOL0     C16866   5.394  10.566   3.072  0.4091 -0.6973  0.2112
  123MOL0     O16867   5.419  10.499   2.950 -0.7124 -0.5357 -0.2627
  123MOL0     C16868   5.513  10.560   2.881  0.5852 -0.3541 -0.4817
  123MOL0     C16869   5.476  10.656   2.784  0.0469 -0.0169 -1.0855
  123MOL0     C16870   5.567  10.715   2.697  0.3526 -0.2193 -0.1883
  123MOL0     C16871   5.698  10.679   2.707  0.6875 -0.1366  0.3376
  123MOL0     O16872   5.785  10.745   2.618  0.3427  0.4222 -0.3496
  123MOL0     C16873   5.923  10.746   2.653 -0.3849  1.1345 -0.2489
  123MOL0     C16874   6.018  10.830   2.565  0.8207  0.2216 -0.3484
  123MOL0     C16875   5.986  10.809   2.415  0.3050  0.0518  0.8715
  123MOL0     C16876   6.060  10.910   2.327 -0.1797  0.8597  0.4326
  123MOL0     C16877   5.964  10.982   2.233  0.1552  0.2184  0.3752
  123MOL0     C16878   6.034  11.087   2.133  0.4473 -0.0569 -0.5216
  123MOL0     C16879   5.936  11.168   2.052  0.2093 -1.6272  0.1494
  123MOL0     C16880   5.991  11.244   1.928  0.2705 -1.5398 -0.3053
  123MOL0    Cl16881   5.874  11.380   1.889  0.0588  0.0546  0.5047
  123MOL0     C16882   5.735  10.575   2.800 -0.8192  0.1451 -1.3179
  123MOL0     C16883   5.640  10.521   2.892 -0.2950 -0.8719  0.5496
  123MOL0     O16884   5.438  10.679   3.109  0.4789  0.3138 -0.0306
  123MOL0     C16885   5.169  10.474   3.061  0.5292  0.9178 -0.1168
  123MOL0     C16886   5.050  10.442   3.124 -0.0473  0.5567  0.5145
  123MOL0     N16887   4.735  10.090   3.010  0.5926  0.3177  0.6233
  123MOL0     N16888   4.710   9.979   2.940  0.1421 -0.3720 -0.1984
  123MOL0     C16889   4.060   9.357   2.887 -0.3108 -0.9398 -0.5176
  123MOL0     C16890   3.920   9.353   2.856 -0.1960  0.5386 -0.1746
  123MOL0     C16891   3.456   9.431   2.966 -0.6023 -0.3836  1.1865
  123MOL0     C16892   3.429   9.312   2.904  0.4614 -0.1193  0.3685
  123MOL0     C16893   3.301   9.258   2.919  0.1607  0.9506 -0.9062
  123MOL0     C16894   3.199   9.322   2.990  0.1625  0.0419  0.1596
  123MOL0     O16895   3.084   9.251   3.005 -0.3951 -0.8292 -0.1120
  123MOL0     C16896   2.993   9.295   3.099  0.0148  1.1655  0.5211
  123MOL0     C16897   2.883   9.186   3.134 -0.5395 -0.0182  0.0511
  123MOL0     C16898   2.943   9.068   3.221 -0.3767  0.1263  0.2440
  123MOL0     C16899   2.975   8.942   3.131 -0.1853  0.4121 -0.1729
  123MOL0     C16900   3.035   8.850   3.224 -0.9270  0.3183 -0.9313
  123MOL0     C16901   3.069   8.759   3.299 -0.7514  0.7574 -0.1606
  123MOL0     C16902   3.227   9.450   3.041 -0.4879 -0.4985  0.0744
  123MOL0     C16903   3.362   9.494   3.039 -0.3628 -0.5531  0.2412
  123MOL0     C16904   3.405   9.613   3.108  0.3713 -0.4502 -0.1379
  123MOL0     H16905   3.803   9.436   3.156 -0.0808 -3.5572  0.5586
  123MOL0     H16906   4.042   9.465   3.207 -3.2065  0.5345  1.7838
  123MOL0     H16907   4.226   9.178   3.078 -0.7149  2.3780 -3.3793
  123MOL0     H16908   4.225   9.273   3.229 -1.3481 -0.7294 -0.6521
  123MOL0     H16909   4.469   9.328   3.210  0.2769 -0.4467 -0.1391
  123MOL0     H16910   4.429   9.155   3.219  2.3719  0.6542  0.8637
  123MOL0     H16911   4.604   9.174   3.078  0.0487  2.8234  1.5248
  123MOL0     H16912   4.473   9.115   2.978  1.7415 -0.8968  0.8200
  123MOL0     H16913   4.572   9.273   2.840 -0.8700 -0.6536 -1.0413
  123MOL0     H16914   4.425   9.356   2.893  0.9111  2.0077 -1.7981
  123MOL0     H16915   4.701   9.385   3.014 -0.4530 -5.0358 -2.5395
  123MOL0     H16916   4.557   9.476   3.067 -0.3011 -4.5465  2.6531
  123MOL0     H16917   4.711   9.507   2.799  0.8628  3.4312 -1.8321
  123MOL0     H16918   4.544   9.556   2.810  0.3279  1.6309  0.3199
  123MOL0     H16919   4.769   9.725   2.890 -0.5437  0.5259  0.1616
  123MOL0     H16920   4.722   9.638   3.041  0.7349 -0.3747 -0.7382
  123MOL0     H16921   4.550   9.794   2.851  0.1080  0.8981  0.6606
  123MOL0     H16922   4.487   9.737   3.003 -1.3242  2.5850 -0.1885
  123MOL0     H16923   4.525   9.925   3.204 -2.1869 -0.6330 -2.9172
  123MOL0     H16924   4.759  10.183   3.288  0.0999  0.8053 -2.2197
  123MOL0     H16925   4.583  10.157   3.317  1.4377 -3.0630  0.5429
  123MOL0     H16926   4.683  10.347   3.093  0.0803  1.0731 -0.4942
  123MOL0     H16927   4.522  10.330   3.170 -0.2630  2.1452 -1.1645
  123MOL0     H16928   4.593  10.529   3.269  0.6583  1.3308  0.6385
  123MOL0     H16929   4.637  10.390   3.380  0.6517 -1.1888 -0.2533
  123MOL0     H16930   4.827  10.553   3.216  2.2323 -3.4368 -3.0320
  123MOL0     H16931   4.814  10.553   3.392 -0.6721  0.6306 -0.1512
  123MOL0     H16932   5.145  10.426   3.449 -1.7733 -0.0180 -0.3734
  123MOL0     H16933   5.401  10.431   3.459  0.2252 -1.1900 -0.4239
  123MOL0     H16934   5.419  10.601   3.401 -0.3268 -0.1500  0.9408
  123MOL0     H16935   5.486  10.474   3.310  1.8854  3.7213  1.7744
  123MOL0     H16936   5.374  10.692   2.774 -1.0136 -2.1345  1.0511
  123MOL0     H16937   5.549  10.793   2.624 -1.1097 -0.0974  0.2769
  123MOL0     H16938   5.940  10.765   2.759  0.1405 -2.2349  0.4027
  123MOL0     H16939   5.961  10.643   2.645 -2.6598  0.1903  0.3194
  123MOL0     H16940   6.001  10.935   2.593 -0.8009  0.4758 -2.0766
  123MOL0     H16941   6.114  10.787   2.597 -1.0451 -3.7722  0.4699
  123MOL0     H16942   5.878  10.819   2.403  0.4153  2.6849  1.5555
  123MOL0     H16943   6.021  10.711   2.380  0.1328  0.9207 -2.0560
  123MOL0     H16944   6.135  10.851   2.275 -1.4299 -2.2982  1.9154
  123MOL0     H16945   6.104  10.983   2.395 -0.5204 -0.4673  2.1569
  123MOL0     H16946   5.912  10.901   2.181  0.1841  0.2767  0.2545
  123MOL0     H16947   5.892  11.036   2.295  0.8398  1.9097 -0.2699
  123MOL0     H16948   6.105  11.031   2.072  0.7378  1.2084 -1.3740
  123MOL0     H16949   6.099  11.155   2.189 -1.4491  3.3942 -2.2035
  123MOL0     H16950   5.902  11.245   2.122  1.9398  0.3414 -1.0652
  123MOL0     H16951   5.851  11.100   2.040 -2.0523  0.6184  2.2034
  123MOL0     H16952   6.022  11.182   1.844 -0.0763 -1.6100 -0.3823
  123MOL0     H16953   6.087  11.284   1.962  0.3531 -1.5686 -0.5039
  123MOL0     H16954   5.838  10.541   2.803 -1.3621 -1.5573 -0.0826
  123MOL0     H16955   5.670  10.454   2.973  1.5584  0.3605  0.9402
  123MOL0     H16956   5.163  10.488   2.954 -0.9197 -3.0774 -0.7255
  123MOL0     H16957   4.959  10.424   3.068 -1.0117 -0.8339  2.4360
  123MOL0     H16958   4.128   9.332   2.806  1.0950  4.5534 -1.4566
  123MOL0     H16959   3.882   9.306   2.766  0.6316 -0.7868  0.1340
  123MOL0     H16960   3.496   9.240   2.857 -0.9181 -1.4571  0.3621
  123MOL0     H16961   3.286   9.161   2.873 -4.2533  1.1884 -0.3542
  123MOL0     H16962   3.044   9.313   3.194 -0.2541  1.3758  0.6273
  123MOL0     H16963   2.935   9.383   3.069  0.0459  2.0348  2.8325
  123MOL0     H16964   2.831   9.156   3.043 -1.0335 -0.2919  0.4174
  123MOL0     H16965   2.807   9.235   3.195  0.9234 -0.4082  2.3572
  123MOL0     H16966   3.036   9.108   3.262 -0.7308  1.0035  0.2015
  123MOL0     H16967   2.895   9.052   3.317  2.0468  0.4337  1.5814
  123MOL0     H16968   3.051   8.970   3.058 -0.4065  2.1019  0.1935
  123MOL0     H16969   2.887   8.903   3.079  0.3283  2.0448 -2.4336
  123MOL0     H16970   3.100   8.676   3.359 -0.4020  2.0822  1.5833
  123MOL0     H16971   3.154   9.511   3.093 -0.0536 -1.6170  2.0866
  123MOL0     H16972   3.487   9.592   3.178 -0.1723  0.2955  0.7565
  123MOL0     H16973   3.438   9.695   3.044  1.4711  0.1763  1.1752
  123MOL0     H16974   3.326   9.641   3.179  0.6430 -0.4052  0.1516
  124MOL0     O16975   5.595   1.585   7.402 -0.0737 -0.0153  0.0845
  124MOL0     C16976   5.590   1.507   7.497  0.1412  0.2173  0.1908
  124MOL0     O16977   5.695   1.459   7.557 -0.9364  0.0245  0.6708
  124MOL0     C16978   5.826   1.464   7.514  0.1874 -0.6545 -0.6645
  124MOL0     C16979   5.931   1.500   7.598 -0.1709 -0.9933 -0.8848
  124MOL0     C16980   6.061   1.514   7.547 -0.3772  0.5710 -0.3491
  124MOL0     C16981   6.097   1.492   7.415  0.0470  0.1760  0.3065
  124MOL0     O16982   6.231   1.490   7.387  1.4432  0.2537  0.3435
  124MOL0     C16983   6.260   1.500   7.246 -0.8840  0.8716  1.1338
  124MOL0     C16984   6.408   1.513   7.233  0.5022 -0.2188 -0.2886
  124MOL0     C16985   6.470   1.374   7.225 -0.0250  0.1832  0.9298
  124MOL0     C16986   6.456   1.279   7.344 -0.2572 -0.9677 -0.3488
  124MOL0     C16987   6.479   1.134   7.311  0.2436  0.1810 -0.3920
  124MOL0     C16988   6.437   1.028   7.419 -0.5579 -0.5686  0.2438
  124MOL0     C16989   6.504   1.076   7.557 -0.6917 -0.2436  0.7772
  124MOL0     C16990   6.485   0.963   7.656 -0.1320  0.4780 -0.5294
  124MOL0     N16991   6.561   0.982   7.776 -0.9915 -0.8408  0.4116
  124MOL0     C16992   6.684   0.929   7.809 -0.2977  0.1089  1.2661
  124MOL0     C16993   6.727   1.006   7.912  0.5969  0.3920 -0.1045
  124MOL0     C16994   6.846   0.977   7.998  0.1424  0.4478  1.2476
  124MOL0     C16995   6.973   1.031   7.925  0.8901 -0.4598 -0.1756
  124MOL0     C16996   7.107   0.971   7.962 -0.1900 -0.3702  0.0900
  124MOL0     C16997   7.144   0.982   8.108 -0.3029  0.5975  0.0452
  124MOL0     O16998   7.277   0.942   8.122 -0.2066 -0.5317  0.0287
  124MOL0     C16999   7.384   1.023   8.080  0.5946 -0.4792 -0.1938
  124MOL0     C17000   7.514   0.972   8.085 -0.6415  0.3080 -1.2122
  124MOL0     C17001   7.631   1.050   8.059 -0.4003  0.3380 -0.5182
  124MOL0     C17002   7.762   0.978   8.067  0.5238 -0.5714  0.1800
  124MOL0     C17003   7.617   1.186   8.014 -1.0565  0.3857  0.0662
  124MOL0     C17004   7.739   1.257   7.966  0.2450 -0.3620  0.2197
  124MOL0     O17005   7.808   1.193   7.863  0.1658 -0.5048 -0.0095
  124MOL0     C17006   7.912   1.267   7.803  0.6411  1.1536 -0.0192
  124MOL0     C17007   7.913   1.276   7.661 -0.0281 -0.6477  0.2965
  124MOL0     C17008   8.025   1.337   7.588  0.1810 -1.2211  0.7001
  124MOL0     C17009   8.125   1.397   7.658 -0.6830  0.2984 -0.7353
  124MOL0     O17010   8.237   1.451   7.591 -0.4552  0.1556  0.1095
  124MOL0     C17011   8.358   1.474   7.666 -0.7362 -0.5793 -0.1973
  124MOL0     C17012   8.476   1.503   7.570 -0.1777  0.3527  0.3066
  124MOL0     C17013   8.602   1.560   7.639  1.2527 -0.2921 -0.5446
  124MOL0     C17014   8.700   1.586   7.525  0.2757 -0.2349 -0.5201
  124MOL0     C17015   8.824   1.649   7.580 -1.3624 -0.1484  0.1784
  124MOL0     C17016   8.925   1.684   7.469  0.1957 -0.0917  0.4227
  124MOL0     C17017   9.077   1.657   7.499  0.5931  0.0075 -0.5510
  124MOL0     C17018   9.168   1.673   7.384  0.2453  0.4093  0.7814
  124MOL0    Cl17019   9.125   1.557   7.251  0.6396 -0.0510 -0.3692
  124MOL0     C17020   8.122   1.381   7.800  0.1036 -0.7521  0.7551
  124MOL0     C17021   8.023   1.315   7.869  0.0078  0.0338 -0.1604
  124MOL0     O17022   7.764   1.374   8.001 -0.2288 -0.2347 -0.3261
  124MOL0     C17023   7.487   1.235   8.019  0.4882 -0.2282 -0.0108
  124MOL0     C17024   7.369   1.163   8.055  0.1512 -0.0133  0.0205
  124MOL0     N17025   6.619   1.071   7.959 -0.2547  0.2521  0.0648
  124MOL0     N17026   6.518   1.063   7.886 -0.9499  0.0698  0.1230
  124MOL0     C17027   5.989   1.460   7.334 -0.0117 -0.1999  0.6834
  124MOL0     C17028   5.857   1.431   7.386 -0.1625 -0.7542  0.2747
  124MOL0     C17029   5.474   1.471   7.558  0.5929  0.7102 -0.0805
  124MOL0     C17030   5.453   1.336   7.595 -1.0631 -0.5477  0.3133
  124MOL0     C17031   5.337   1.292   7.671 -0.1713  0.2223 -0.1024
  124MOL0     C17032   5.238   1.385   7.704  0.2478  0.2652 -0.1119
  124MOL0     O17033   5.130   1.329   7.771  0.0647  0.1171 -0.0829
  124MOL0     C17034   5.019   1.413   7.815  0.3402  0.4369  0.2140
  124MOL0     C17035   4.896   1.338   7.836  0.0975 -0.0257 -0.6279
  124MOL0     C17036   4.849   1.250   7.726 -0.6155  0.3041 -1.0254
  124MOL0     C17037   4.748   1.146   7.780  0.2373  0.6230 -1.0839
  124MOL0     C17038   4.823   1.019   7.814 -1.0339 -0.3090 -0.3702
  124MOL0     C17039   4.888   0.912   7.830 -0.3863 -1.2489  0.4519
  124MOL0     C17040   5.250   1.515   7.648  0.0142 -0.7173 -0.5711
  124MOL0     C17041   5.369   1.561   7.586  0.7241 -0.7669 -0.5197
  124MOL0     C17042   5.383   1.713   7.565  1.1053  0.2499  0.2762
  124MOL0     H17043   5.909   1.521   7.702  0.5766  0.6131 -1.0291
  124MOL0     H17044   6.141   1.536   7.617 -0.7717  1.6257 -0.2176
  124MOL0     H17045   6.211   1.582   7.193 -2.2813 -0.5994  0.0597
  124MOL0     H17046   6.239   1.407   7.192  4.4144 -0.5622  0.9444
  124MOL0     H17047   6.429   1.565   7.139 -1.6035 -0.8781 -1.1836
  124MOL0     H17048   6.450   1.573   7.314 -0.7153 -0.9720  0.9428
  124MOL0     H17049   6.431   1.323   7.136  1.5210  0.9544 -0.2365
  124MOL0     H17050   6.576   1.387   7.205 -0.0359 -2.2313 -1.3828
  124MOL0     H17051   6.526   1.326   7.413 -0.9685  0.6972 -0.7163
  124MOL0     H17052   6.354   1.286   7.382 -0.6551 -0.6566 -1.4219
  124MOL0     H17053   6.584   1.111   7.289 -0.3316 -1.5018 -1.6419
  124MOL0     H17054   6.440   1.105   7.213  0.7998 -0.2327 -0.4981
  124MOL0     H17055   6.328   1.035   7.412 -0.5469  1.1526  1.2128
  124MOL0     H17056   6.469   0.929   7.387  3.1749  0.8712 -1.1136
  124MOL0     H17057   6.455   1.168   7.592 -1.1382 -0.3092  0.3454
  124MOL0     H17058   6.609   1.100   7.540 -0.3911 -2.6394 -1.4114
  124MOL0     H17059   6.378   0.964   7.682 -0.1572  0.0789 -0.6058
  124MOL0     H17060   6.517   0.870   7.607  2.5650  1.2476 -0.3880
  124MOL0     H17061   6.736   0.857   7.747 -0.4369  2.3619 -1.6546
  124MOL0     H17062   6.853   0.868   8.001 -0.2521  0.4248  3.6896
  124MOL0     H17063   6.844   1.013   8.101  2.0015  2.0921  0.7719
  124MOL0     H17064   6.964   1.033   7.816  0.9520 -2.9876 -0.2719
  124MOL0     H17065   6.990   1.137   7.945  1.9942 -0.7947  0.7895
  124MOL0     H17066   7.118   0.865   7.938 -0.2174  0.0136 -1.7524
  124MOL0     H17067   7.176   1.027   7.898  0.2710 -1.1805 -0.1331
  124MOL0     H17068   7.125   1.084   8.143 -0.8985  0.8485 -0.9745
  124MOL0     H17069   7.087   0.908   8.164  2.1877 -1.2973  0.2436
  124MOL0     H17070   7.515   0.866   8.105  1.5062  0.4422 -0.3418
  124MOL0     H17071   7.841   1.042   8.107 -2.4421  3.5961 -0.0105
  124MOL0     H17072   7.797   0.950   7.967  3.1521 -0.9108  1.1019
  124MOL0     H17073   7.756   0.887   8.127  3.6332  0.6440  2.6424
  124MOL0     H17074   7.826   1.239   7.608 -0.3501  1.7372 -0.9622
  124MOL0     H17075   8.039   1.331   7.481  0.1236  0.3069  0.5886
  124MOL0     H17076   8.339   1.555   7.737  1.3712 -0.0353 -0.1812
  124MOL0     H17077   8.389   1.388   7.726  1.5709 -0.0497 -0.5592
  124MOL0     H17078   8.490   1.407   7.520  2.3092  0.8594 -0.1282
  124MOL0     H17079   8.452   1.569   7.486  0.6056 -1.6525 -1.5888
  124MOL0     H17080   8.645   1.471   7.686 -0.5342  0.1952  2.2516
  124MOL0     H17081   8.595   1.641   7.711  1.2637  1.7662 -2.7437
  124MOL0     H17082   8.668   1.662   7.452 -1.7712  3.1262  3.4514
  124MOL0     H17083   8.719   1.489   7.479  0.0261 -1.1419  1.2027
  124MOL0     H17084   8.799   1.735   7.644  0.9531  2.4695 -2.1406
  124MOL0     H17085   8.871   1.581   7.652 -0.1998  1.7987  1.3698
  124MOL0     H17086   8.921   1.793   7.469  0.3608  0.1384  5.0693
  124MOL0     H17087   8.898   1.643   7.371  1.3100 -1.1504  0.5396
  124MOL0     H17088   9.083   1.556   7.540  0.3716  0.4891  0.7224
  124MOL0     H17089   9.099   1.728   7.579  1.0780 -1.4558  0.6721
  124MOL0     H17090   9.272   1.647   7.402  0.6428  1.3930  0.0666
  124MOL0     H17091   9.166   1.777   7.350 -1.0553  0.7048  1.6858
  124MOL0     H17092   8.205   1.418   7.860  0.0421 -0.2635  0.5488
  124MOL0     H17093   8.018   1.325   7.977  2.1175  1.5618 -0.1542
  124MOL0     H17094   7.476   1.338   7.986  2.1361  0.3210  1.0393
  124MOL0     H17095   7.276   1.218   8.056  1.5234  2.4641 -0.0690
  124MOL0     H17096   5.978   1.443   7.227 -0.7931 -0.4527  0.7973
  124MOL0     H17097   5.774   1.390   7.330 -1.7660  0.2957  1.8154
  124MOL0     H17098   5.520   1.254   7.571  0.1449  0.9184 -1.5840
  124MOL0     H17099   5.335   1.188   7.702 -2.6830  0.9223  2.4880
  124MOL0     H17100   5.041   1.465   7.909 -0.0377  0.5077  0.2683
  124MOL0     H17101   4.990   1.486   7.739  0.4358 -0.1573 -0.3935
  124MOL0     H17102   4.818   1.412   7.854  1.4632  1.0024  1.5745
  124MOL0     H17103   4.911   1.270   7.921  1.9860 -0.4263 -1.2317
  124MOL0     H17104   4.806   1.315   7.649 -1.2217  2.4378  1.0089
  124MOL0     H17105   4.925   1.188   7.677 -0.8211  0.8009 -2.0017
  124MOL0     H17106   4.679   1.120   7.699  2.7040 -0.8954 -2.8487
  124MOL0     H17107   4.693   1.179   7.868 -0.4591 -1.2251 -0.7844
  124MOL0     H17108   4.921   0.811   7.825 -2.5407 -1.9600 -2.5119
  124MOL0     H17109   5.171   1.589   7.660 -0.6051 -1.6539  1.6478
  124MOL0     H17110   5.483   1.748   7.591  1.3259 -1.6431  2.2343
  124MOL0     H17111   5.356   1.725   7.460 -0.2020 -1.9790  0.2831
  124MOL0     H17112   5.313   1.775   7.622 -1.5896 -1.3317 -1.1258
  125MOL0     O17113   8.119   4.970  10.776 -0.9814 -0.7589  0.9020
  125MOL0     C17114   8.135   4.842  10.785  0.5019 -0.3839  0.0196
  125MOL0     O17115   8.248   4.783  10.848 -0.1980  0.3912  0.5072
  125MOL0     C17116   8.322   4.865  10.923 -0.0329 -0.7859  0.8878
  125MOL0     C17117   8.438   4.912  10.859  0.0569  0.1889 -0.6325
  125MOL0     C17118   8.527   4.984  10.945  0.1128  0.3889  0.0987
  125MOL0     C17119   8.505   5.002  11.081 -0.5694 -0.1200  0.8956
  125MOL0     O17120   8.585   5.066  11.176 -0.1683  0.1335  0.2625
  125MOL0     C17121   8.623   5.199  11.122 -0.0839  0.0426  0.4368
  125MOL0     C17122   8.700   5.283  11.231  0.4023  0.2385  0.7442
  125MOL0     C17123   8.843   5.240  11.236  0.2798 -0.2324  0.1258
  125MOL0     C17124   8.922   5.328  11.331  0.1556  0.2441 -0.0774
  125MOL0     C17125   9.068   5.292  11.329 -0.4617  0.1440  0.2365
  125MOL0     C17126   9.142   5.368  11.438 -0.1518 -0.2763 -0.9327
  125MOL0     C17127   9.270   5.295  11.485 -0.8391 -0.1117  0.3501
  125MOL0     C17128   9.355   5.380  11.578 -0.5904 -0.0031  0.5824
  125MOL0     N17129   9.491   5.317  11.613  0.8985  0.5502 -0.8162
  125MOL0     C17130   9.543   5.321  11.744  0.1362  0.4807 -1.0921
  125MOL0     C17131   9.675   5.288  11.740 -0.0228  0.5107  0.1063
  125MOL0     C17132   9.763   5.271  11.864 -0.4213  0.7306  0.7630
  125MOL0     C17133   9.911   5.321  11.858  0.3306 -0.0124  0.1928
  125MOL0     C17134   9.969   5.334  11.991 -0.1488 -0.6668  0.3992
  125MOL0     C17135  10.120   5.364  11.986 -0.7704  0.2839 -0.3445
  125MOL0     O17136  10.154   5.505  11.969  0.5442 -0.2472  0.4012
  125MOL0     C17137  10.277   5.547  12.010  0.1509 -0.1647  0.3105
  125MOL0     C17138  10.334   5.522  12.138  0.2416  0.3333 -0.4274
  125MOL0     C17139  10.461   5.573  12.160  0.3479  0.0225 -0.5372
  125MOL0     C17140  10.521   5.545  12.297 -0.0497  0.2308  0.0010
  125MOL0     C17141  10.524   5.653  12.062 -1.0570  0.0323  0.7761
  125MOL0     C17142  10.667   5.721  12.071  0.3022  0.3288 -0.6675
  125MOL0     O17143  10.671   5.855  12.043 -0.4810  0.0196  0.4422
  125MOL0     C17144  10.787   5.923  12.064 -0.4293 -0.5976 -0.6372
  125MOL0     C17145  10.839   6.007  11.962 -0.3519  0.1837  0.0247
  125MOL0     C17146  10.958   6.081  11.977  0.2915  0.0408 -0.6399
  125MOL0     C17147  11.029   6.066  12.094  0.5603 -0.6415 -0.0828
  125MOL0     O17148  11.152   6.118  12.113 -0.0796 -0.8201  0.6823
  125MOL0     C17149  11.241   6.132  11.992  0.3165 -0.0922 -0.5168
  125MOL0     C17150  11.395   6.162  12.027 -0.1381  0.4523  0.3254
  125MOL0     C17151  11.486   6.154  11.894 -0.2766  0.0061  1.6541
  125MOL0     C17152  11.622   6.209  11.919  1.0163 -0.6565 -0.5594
  125MOL0     C17153  11.705   6.217  11.792 -0.3724  0.9935  0.6464
  125MOL0     C17154  11.851   6.269  11.823 -0.2608 -1.7797  0.4775
  125MOL0     C17155  11.884   6.415  11.811  0.1696 -0.6691  0.1798
  125MOL0     C17156  12.041   6.436  11.829  0.3959  0.0344  0.2108
  125MOL0    Cl17157  12.105   6.385  11.975 -0.0381  0.2344 -0.5676
  125MOL0     C17158  10.967   6.008  12.201  0.2468  0.1246 -0.0423
  125MOL0     C17159  10.857   5.922  12.186  0.5041  0.6049  0.0814
  125MOL0     O17160  10.767   5.654  12.114  0.9543 -0.9065  0.5671
  125MOL0     C17161  10.470   5.673  11.936  0.4621  0.3809 -0.4877
  125MOL0     C17162  10.347   5.625  11.917 -0.3863 -0.2025 -1.0108
  125MOL0     N17163   9.698   5.271  11.599  0.6914  0.0441 -0.2707
  125MOL0     N17164   9.587   5.290  11.527 -0.2616  0.1667  0.5777
  125MOL0     C17165   8.396   4.945  11.140 -0.2361  0.2875  0.2800
  125MOL0     C17166   8.302   4.875  11.058  0.5964 -0.4476  0.0895
  125MOL0     C17167   8.010   4.757  10.748 -0.0523  0.4310 -0.7713
  125MOL0     C17168   8.021   4.623  10.785 -0.7253 -0.9240 -0.4610
  125MOL0     C17169   7.911   4.542  10.763  0.0525 -0.0430 -0.1223
  125MOL0     C17170   7.790   4.586  10.706 -1.0696  0.5101  0.4345
  125MOL0     O17171   7.691   4.505  10.724 -0.1016  0.1261  0.2852
  125MOL0     C17172   7.569   4.506  10.655  0.6082 -0.0385  0.0652
  125MOL0     C17173   7.597   4.456  10.519  0.4644 -0.3420  0.5857
  125MOL0     C17174   7.635   4.311  10.522  0.2165 -0.5726 -0.4601
  125MOL0     C17175   7.740   4.260  10.412  0.6996  0.2673  0.5081
  125MOL0     C17176   7.876   4.285  10.466 -0.0306 -0.3288 -0.2284
  125MOL0     C17177   7.985   4.305  10.510 -0.8114  0.3511 -0.3209
  125MOL0     C17178   7.785   4.720  10.664 -0.2196  0.0394  0.1217
  125MOL0     C17179   7.898   4.804  10.681 -0.4546  0.1223  0.7924
  125MOL0     C17180   7.897   4.945  10.621 -0.5744 -0.0096 -0.1493
  125MOL0     H17181   8.452   4.898  10.752 -1.7644 -0.5234 -0.8192
  125MOL0     H17182   8.616   5.022  10.897  0.4486 -1.1166 -0.5241
  125MOL0     H17183   8.532   5.255  11.096 -0.2138 -0.4643 -0.2271
  125MOL0     H17184   8.680   5.201  11.029 -0.4673 -2.0060  0.1054
  125MOL0     H17185   8.694   5.390  11.208  1.4006  0.1554  0.0094
  125MOL0     H17186   8.645   5.267  11.324  0.7465 -1.5358  0.6776
  125MOL0     H17187   8.849   5.136  11.267 -0.4324 -0.6454 -1.0422
  125MOL0     H17188   8.885   5.242  11.135  0.4283 -2.0591  0.1194
  125MOL0     H17189   8.902   5.434  11.313 -1.4514 -0.2998 -1.7812
  125MOL0     H17190   8.886   5.296  11.429 -2.0578  2.1746 -0.1568
  125MOL0     H17191   9.115   5.316  11.234 -0.3554  2.4462  0.8025
  125MOL0     H17192   9.086   5.185  11.340  0.8255  0.3128 -0.0665
  125MOL0     H17193   9.158   5.471  11.405 -5.1452  0.6001 -1.3981
  125MOL0     H17194   9.084   5.376  11.531  0.7219 -0.3468 -0.3609
  125MOL0     H17195   9.326   5.274  11.393 -0.9899  2.0830 -0.3092
  125MOL0     H17196   9.256   5.200  11.537  1.8566 -0.6595  0.2536
  125MOL0     H17197   9.380   5.470  11.521  0.5917 -0.4641  0.3453
  125MOL0     H17198   9.290   5.399  11.664 -2.1384 -2.4220  0.0542
  125MOL0     H17199   9.495   5.328  11.842  0.1659 -1.7925 -0.8531
  125MOL0     H17200   9.765   5.165  11.888 -0.5320  0.6362  0.3723
  125MOL0     H17201   9.708   5.307  11.951 -0.9144  0.1126  0.7147
  125MOL0     H17202   9.977   5.250  11.808  2.1023 -0.1666  2.5789
  125MOL0     H17203   9.915   5.418  11.807 -2.3359  1.5209  2.5788
  125MOL0     H17204   9.925   5.414  12.051 -0.1889 -1.5991  1.6635
  125MOL0     H17205   9.961   5.240  12.047  2.7325 -0.4318  1.3651
  125MOL0     H17206  10.158   5.333  12.084 -1.3763  1.4821  0.2947
  125MOL0     H17207  10.169   5.303  11.910 -2.3675 -1.9397  0.3004
  125MOL0     H17208  10.272   5.479  12.216  2.5579 -0.2037  1.1945
  125MOL0     H17209  10.604   5.478  12.273 -0.1833  0.1555 -0.2662
  125MOL0     H17210  10.453   5.497  12.368  1.5198  0.0773  1.4631
  125MOL0     H17211  10.558   5.634  12.348  1.6905 -0.4560  0.0191
  125MOL0     H17212  10.789   6.008  11.866 -0.1509 -2.9592 -0.2068
  125MOL0     H17213  10.995   6.150  11.902  0.1258  1.7488  0.7849
  125MOL0     H17214  11.227   6.033  11.947 -0.8350  1.3404 -3.6143
  125MOL0     H17215  11.212   6.208  11.919  0.6825  1.3616  0.7809
  125MOL0     H17216  11.396   6.261  12.074  3.6555  1.4589 -1.5169
  125MOL0     H17217  11.446   6.096  12.097 -0.5292 -1.2326 -0.9127
  125MOL0     H17218  11.454   6.210  11.805 -0.0378 -0.5641  1.2048
  125MOL0     H17219  11.493   6.049  11.865 -3.4371 -0.4506  2.2266
  125MOL0     H17220  11.665   6.140  11.993 -0.3293 -1.0187 -0.0972
  125MOL0     H17221  11.610   6.313  11.953 -1.3686 -0.6368 -1.3040
  125MOL0     H17222  11.722   6.122  11.741  3.3418  1.3888  0.8771
  125MOL0     H17223  11.661   6.295  11.729 -1.2687 -0.5166 -0.6515
  125MOL0     H17224  11.920   6.205  11.766  0.4987 -1.2921  0.8305
  125MOL0     H17225  11.874   6.242  11.927  1.4348  0.3313  0.7213
  125MOL0     H17226  11.825   6.467  11.887 -0.7853 -2.9134  1.0664
  125MOL0     H17227  11.863   6.464  11.715  0.7291  1.5309  1.1342
  125MOL0     H17228  12.060   6.544  11.819  0.9418 -0.0229  0.6189
  125MOL0     H17229  12.093   6.389  11.745  0.7037  1.9050 -0.7085
  125MOL0     H17230  11.008   6.008  12.301  1.5414  1.2997 -0.5444
  125MOL0     H17231  10.827   5.870  12.277  2.1248  2.8614  2.0613
  125MOL0     H17232  10.520   5.724  11.854 -0.4467  0.4188 -1.0315
  125MOL0     H17233  10.308   5.648  11.818  0.5044 -0.4287 -1.4274
  125MOL0     H17234   8.368   4.958  11.244 -2.1579  2.4275 -0.4375
  125MOL0     H17235   8.213   4.834  11.105  1.9780 -0.2698  3.1012
  125MOL0     H17236   8.109   4.571  10.822 -0.0221 -0.2724 -1.1838
  125MOL0     H17237   7.920   4.436  10.788  1.9014  0.3842  1.2003
  125MOL0     H17238   7.491   4.447  10.706  1.3850 -0.3577  0.9128
  125MOL0     H17239   7.531   4.608  10.651  0.7619 -0.0130 -0.9332
  125MOL0     H17240   7.668   4.520  10.466 -1.2169 -0.1247 -1.5663
  125MOL0     H17241   7.506   4.471  10.460  1.2017 -0.4781 -0.6282
  125MOL0     H17242   7.664   4.272  10.620 -1.0371 -1.6862 -0.4952
  125MOL0     H17243   7.545   4.251  10.504 -0.5201  0.1144  0.8356
  125MOL0     H17244   7.721   4.295  10.310 -0.4468 -1.3919  0.1231
  125MOL0     H17245   7.729   4.152  10.404 -0.1862  0.4720 -2.0329
  125MOL0     H17246   8.086   4.311  10.545 -1.5692 -0.0486  2.1526
  125MOL0     H17247   7.694   4.762  10.623 -0.3904  0.9604  1.3795
  125MOL0     H17248   7.804   4.969  10.569 -0.2966  2.2974  0.2897
  125MOL0     H17249   7.893   5.014  10.706  1.9216  0.9856 -0.7256
  125MOL0     H17250   7.991   4.955  10.565 -0.9677 -1.1989 -1.0748
  126MOL0     O17251   0.831   5.762   3.376 -0.1859 -0.0333 -0.6607
  126MOL0     C17252   0.890   5.708   3.470  0.1445 -0.1420 -0.3249
  126MOL0     O17253   0.830   5.642   3.571 -0.2139  0.1335 -0.6574
  126MOL0     C17254   0.693   5.666   3.594 -0.8635  0.2941  0.8869
  126MOL0     C17255   0.600   5.582   3.530 -0.4811  0.3965  0.2798
  126MOL0     C17256   0.460   5.592   3.568 -0.0984 -0.3370  0.6735
  126MOL0     C17257   0.423   5.675   3.670  0.6925 -0.0879 -0.0109
  126MOL0     O17258   0.292   5.677   3.687  0.2697 -0.6222 -0.7054
  126MOL0     C17259   0.231   5.752   3.788  0.0374  0.0970 -0.3424
  126MOL0     C17260   0.090   5.715   3.788 -0.0153 -0.2186  0.3829
  126MOL0     C17261   0.002   5.788   3.895  0.7320  1.0476  0.3106
  126MOL0     C17262  -0.024   5.937   3.862 -0.4246  0.6884 -0.2409
  126MOL0     C17263  -0.147   5.974   3.946 -0.3637 -0.0135 -0.2958
  126MOL0     C17264  -0.169   6.127   3.945  0.5249  0.3924  0.0305
  126MOL0     C17265  -0.304   6.165   4.010 -0.4750 -0.6680 -0.3249
  126MOL0     C17266  -0.320   6.319   4.034 -0.1371  0.2092  0.1551
  126MOL0     N17267  -0.237   6.368   4.147 -0.1763 -0.8216 -0.7673
  126MOL0     C17268  -0.151   6.290   4.226  0.5781 -0.2914  0.4018
  126MOL0     C17269  -0.110   6.372   4.328 -0.0835 -0.3616  0.0195
  126MOL0     C17270  -0.009   6.333   4.430  0.3024  0.6526  0.6429
  126MOL0     C17271   0.118   6.280   4.359  0.1771 -0.5182 -0.8495
  126MOL0     C17272   0.228   6.238   4.453 -0.4452 -0.6513  0.3992
  126MOL0     C17273   0.278   6.101   4.419 -0.1620 -0.6500  0.4823
  126MOL0     O17274   0.381   6.049   4.503 -0.3521 -0.5894  0.0818
  126MOL0     C17275   0.367   6.046   4.643 -0.0856  0.3203 -0.7705
  126MOL0     C17276   0.485   6.033   4.717  0.7722 -0.7930 -0.0831
  126MOL0     C17277   0.470   6.027   4.855  0.1526 -0.9244 -0.5986
  126MOL0     C17278   0.606   6.016   4.934 -0.8770  0.6710  0.1849
  126MOL0     C17279   0.353   6.051   4.924 -0.7429 -0.3737 -0.5120
  126MOL0     C17280   0.348   6.046   5.074  0.4750  0.0745 -0.5676
  126MOL0     O17281   0.439   6.116   5.143 -0.0588  0.0543 -0.0322
  126MOL0     C17282   0.435   6.102   5.276 -0.0558  0.0343 -0.7952
  126MOL0     C17283   0.368   6.203   5.343 -1.0993 -0.6345  0.3469
  126MOL0     C17284   0.359   6.197   5.484  0.2888  0.6190 -0.0737
  126MOL0     C17285   0.396   6.087   5.555  0.1265 -0.1899 -1.1374
  126MOL0     O17286   0.384   6.087   5.691  0.2581  0.1540  0.1401
  126MOL0     C17287   0.432   5.970   5.765  0.9223  0.2630 -0.7659
  126MOL0     C17288   0.465   6.024   5.905 -0.0602  0.6410  0.2178
  126MOL0     C17289   0.549   5.919   5.987 -0.2599 -1.0863 -0.7354
  126MOL0     C17290   0.694   5.905   5.937  0.4354  0.5954  0.9651
  126MOL0     C17291   0.772   5.793   6.015 -0.4366 -0.0472  0.3728
  126MOL0     C17292   0.881   5.732   5.929  0.2239 -0.1444  0.0751
  126MOL0     C17293   0.835   5.657   5.801 -0.6893 -0.3894  0.2778
  126MOL0     C17294   0.956   5.599   5.725  0.3288 -1.2807 -0.1150
  126MOL0    Cl17295   1.092   5.706   5.672 -0.1841  0.0680 -0.5117
  126MOL0     C17296   0.455   5.973   5.487  0.0790  0.0047  0.3943
  126MOL0     C17297   0.479   5.993   5.349 -0.4171  0.0499  0.2495
  126MOL0     O17298   0.255   5.990   5.128 -0.5684  0.1294  0.2176
  126MOL0     C17299   0.233   6.060   4.846 -0.9304  0.5197 -0.3991
  126MOL0     C17300   0.240   6.055   4.712  1.0393 -0.7698 -0.2303
  126MOL0     N17301  -0.185   6.489   4.316  0.4982  1.1246  0.0685
  126MOL0     N17302  -0.262   6.491   4.214 -0.2113 -0.2890  0.0504
  126MOL0     C17303   0.522   5.741   3.740  0.3139 -0.2244  0.0179
  126MOL0     C17304   0.654   5.733   3.706 -0.1016  1.0227  0.1379
  126MOL0     C17305   1.038   5.703   3.464  0.3897 -0.1178 -0.2264
  126MOL0     C17306   1.107   5.794   3.382 -0.4413  0.1038 -0.4420
  126MOL0     C17307   1.241   5.791   3.364  0.1630  0.1092  0.0142
  126MOL0     C17308   1.318   5.688   3.416 -0.9918 -0.4528  0.2428
  126MOL0     O17309   1.454   5.690   3.381 -0.1235 -0.2584 -0.1492
  126MOL0     C17310   1.544   5.594   3.445 -1.4727  0.4397 -0.7376
  126MOL0     C17311   1.637   5.542   3.327  0.2844  0.2536  0.5426
  126MOL0     C17312   1.753   5.448   3.375 -0.0545  0.0968  1.0895
  126MOL0     C17313   1.874   5.441   3.279 -0.6121  0.4380  0.2845
  126MOL0     C17314   1.982   5.540   3.301 -0.4757 -0.0683 -1.0044
  126MOL0     C17315   2.074   5.606   3.341  0.1112  0.6376 -0.4565
  126MOL0     C17316   1.257   5.588   3.502 -0.1359  0.9864 -0.0926
  126MOL0     C17317   1.111   5.594   3.518 -1.1000  0.0734  0.3290
  126MOL0     C17318   1.054   5.471   3.586  0.7446  1.1084 -0.1468
  126MOL0     H17319   0.626   5.511   3.452 -1.4066 -0.7919  1.0180
  126MOL0     H17320   0.377   5.536   3.526 -0.7565  0.0941  1.3887
  126MOL0     H17321   0.249   5.859   3.770 -0.1248  0.0286 -0.9210
  126MOL0     H17322   0.274   5.731   3.887 -3.5427  4.0309  2.4369
  126MOL0     H17323   0.056   5.747   3.690  1.1141  2.6915  0.8196
  126MOL0     H17324   0.081   5.608   3.808 -3.0303  0.0182  0.8260
  126MOL0     H17325  -0.095   5.737   3.894 -0.0154  2.3054 -2.5794
  126MOL0     H17326   0.052   5.794   3.992 -0.5598  1.2953  0.9767
  126MOL0     H17327   0.068   5.991   3.886  1.1281 -1.8124 -0.2360
  126MOL0     H17328  -0.035   5.957   3.755  0.4437  3.0603  0.0411
  126MOL0     H17329  -0.135   5.947   4.051 -0.9755 -0.0104 -0.2211
  126MOL0     H17330  -0.238   5.924   3.912 -0.2201  1.3431 -2.9171
  126MOL0     H17331  -0.086   6.175   3.998  0.7671  1.9805 -1.7053
  126MOL0     H17332  -0.171   6.146   3.838  1.0075  0.8652  0.1017
  126MOL0     H17333  -0.319   6.108   4.102  2.4921  0.1145  0.7540
  126MOL0     H17334  -0.387   6.136   3.945 -1.9168 -2.1832  2.0317
  126MOL0     H17335  -0.294   6.368   3.939 -0.3353 -0.4236 -0.2312
  126MOL0     H17336  -0.425   6.338   4.058 -1.3103 -0.4535 -3.7851
  126MOL0     H17337  -0.120   6.187   4.213  1.3513  0.0922 -1.0135
  126MOL0     H17338  -0.056   6.269   4.505 -2.3808 -2.3227 -3.1288
  126MOL0     H17339   0.025   6.427   4.473  0.4630  2.3707 -2.9205
  126MOL0     H17340   0.095   6.193   4.297 -1.9699 -0.0179 -0.8249
  126MOL0     H17341   0.154   6.359   4.291 -1.7071  0.9370 -0.2348
  126MOL0     H17342   0.303   6.317   4.463 -0.4370 -0.7720  1.3832
  126MOL0     H17343   0.180   6.238   4.551  1.7955 -0.2894  1.5749
  126MOL0     H17344   0.195   6.029   4.424 -0.0686 -0.9365 -1.4732
  126MOL0     H17345   0.328   6.101   4.322 -0.0531 -0.8592  0.5396
  126MOL0     H17346   0.584   6.021   4.674  0.0351 -1.0350 -1.7939
  126MOL0     H17347   0.678   5.967   4.868 -0.3718  0.0018  1.2032
  126MOL0     H17348   0.589   5.944   5.015  2.4322 -0.9747 -0.4200
  126MOL0     H17349   0.651   6.107   4.973 -0.6830 -0.2962  2.3715
  126MOL0     H17350   0.316   6.287   5.298 -1.0517 -0.9604 -0.3157
  126MOL0     H17351   0.278   6.260   5.520 -0.8578  1.1934 -3.3315
  126MOL0     H17352   0.361   5.888   5.779 -0.0910  1.2860  0.3826
  126MOL0     H17353   0.519   5.919   5.722  0.4400  1.6096 -3.5689
  126MOL0     H17354   0.528   6.113   5.894  0.0962  0.4565 -0.3989
  126MOL0     H17355   0.376   6.054   5.960 -1.0132 -1.9181  0.2010
  126MOL0     H17356   0.498   5.823   5.994  0.4292 -1.4836 -1.1094
  126MOL0     H17357   0.552   5.963   6.087  2.6513  0.9159 -1.5554
  126MOL0     H17358   0.746   5.999   5.960 -0.7094  0.6073  3.9391
  126MOL0     H17359   0.706   5.887   5.830  0.4931  3.4142  0.4102
  126MOL0     H17360   0.819   5.837   6.103 -4.7645 -1.0809  3.5613
  126MOL0     H17361   0.705   5.714   6.049  0.6116 -1.2384 -0.2580
  126MOL0     H17362   0.953   5.667   5.978  0.0575  0.1266  0.6832
  126MOL0     H17363   0.939   5.817   5.893 -0.1562  0.2926  0.4878
  126MOL0     H17364   0.775   5.710   5.726 -0.6273 -0.3006  0.2896
  126MOL0     H17365   0.767   5.574   5.824 -0.4608 -0.5751  0.2886
  126MOL0     H17366   0.906   5.559   5.636  0.0034  1.1628 -1.1338
  126MOL0     H17367   1.000   5.520   5.785  0.1353  0.5267  2.6080
  126MOL0     H17368   0.483   5.880   5.536 -1.3266 -0.1819  0.8781
  126MOL0     H17369   0.538   5.923   5.290 -0.2749 -0.2768  0.7724
  126MOL0     H17370   0.139   6.074   4.898 -0.8932 -1.2617  0.1981
  126MOL0     H17371   0.149   6.066   4.654  1.5500  0.0053 -0.9011
  126MOL0     H17372   0.482   5.788   3.829  2.0911  0.8200  0.3090
  126MOL0     H17373   0.735   5.777   3.764 -1.7706  0.7306  2.8524
  126MOL0     H17374   1.052   5.863   3.320 -1.3152  0.3524  0.5810
  126MOL0     H17375   1.278   5.884   3.323 -1.3384  1.4469  1.5316
  126MOL0     H17376   1.612   5.651   3.510 -0.5786 -0.9322 -0.4391
  126MOL0     H17377   1.512   5.506   3.501  3.2979 -0.2458  1.3799
  126MOL0     H17378   1.683   5.627   3.276  1.5082 -1.1703 -0.8558
  126MOL0     H17379   1.573   5.488   3.258  1.2720  1.0653 -1.0628
  126MOL0     H17380   1.787   5.479   3.473 -0.6074  2.7333  0.5270
  126MOL0     H17381   1.707   5.348   3.376 -1.9218  0.7860 -1.8082
  126MOL0     H17382   1.841   5.446   3.175 -1.6037 -1.6802  0.4228
  126MOL0     H17383   1.927   5.348   3.301 -0.3887  0.2757 -0.9228
  126MOL0     H17384   2.153   5.673   3.370  0.2528  0.0952  0.4439
  126MOL0     H17385   1.307   5.499   3.541 -1.1041  0.1952 -0.6064
  126MOL0     H17386   1.019   5.491   3.688 -0.4204 -1.8722  0.1339
  126MOL0     H17387   0.972   5.426   3.529  1.3963 -0.7203  0.2933
  126MOL0     H17388   1.136   5.402   3.607  0.8176  2.1156  3.6056
  127MOL0     O17389   9.316   9.820   2.735 -1.2850 -0.4689 -0.4300
  127MOL0     C17390   9.286   9.870   2.631 -0.1049  0.5526 -0.2201
  127MOL0     O17391   9.370   9.923   2.538 -0.1204 -0.4259 -0.6877
  127MOL0     C17392   9.501   9.942   2.576  0.3398 -0.4676 -0.8683
  127MOL0     C17393   9.566   9.938   2.707  0.3713 -0.3771  0.2662
  127MOL0     C17394   9.702   9.956   2.732  0.5383  0.7475 -1.1269
  127MOL0     C17395   9.784   9.983   2.625  0.0302 -0.0867  1.0154
  127MOL0     O17396   9.919   9.984   2.630  1.2183 -0.2013 -0.2002
  127MOL0     C17397   9.972  10.023   2.757  0.0500  0.2942 -1.0660
  127MOL0     C17398  10.028   9.916   2.847 -0.2654 -0.5588  0.5538
  127MOL0     C17399  10.051   9.967   2.987  0.2995  0.3042 -1.1461
  127MOL0     C17400  10.166  10.052   3.012  0.1643 -0.5638  0.2438
  127MOL0     C17401  10.299   9.975   2.980 -0.3381  0.7671 -0.2453
  127MOL0     C17402  10.409  10.013   3.079 -0.5706 -0.3970 -0.7402
  127MOL0     C17403  10.535   9.922   3.086  0.5804  0.2927 -0.0512
  127MOL0     C17404  10.632   9.944   2.967  0.3631 -0.0124  0.7595
  127MOL0     N17405  10.745   9.837   2.983 -0.0198 -0.0940  0.5809
  127MOL0     C17406  10.719   9.700   2.981 -0.4044 -0.1320  0.0890
  127MOL0     C17407  10.843   9.644   3.000 -0.0461 -0.4703 -0.2932
  127MOL0     C17408  10.869   9.497   2.999 -0.2565 -0.4060  0.3103
  127MOL0     C17409  10.914   9.443   2.864 -0.6224  0.1861  0.5947
  127MOL0     C17410  10.999   9.317   2.875  0.8837 -0.0395  0.3507
  127MOL0     C17411  11.138   9.331   2.942 -0.0077  0.2255 -0.1973
  127MOL0     O17412  11.223   9.214   2.949  0.7902  0.6590  0.2597
  127MOL0     C17413  11.357   9.221   2.951 -0.4440 -0.6162 -0.1404
  127MOL0     C17414  11.431   9.336   2.963  0.2196 -0.3441  0.7438
  127MOL0     C17415  11.575   9.334   2.951  0.3924  0.3072  0.2068
  127MOL0     C17416  11.644   9.464   2.954  0.5016  0.1361  0.2209
  127MOL0     C17417  11.641   9.210   2.956 -0.1817  0.3225  0.3516
  127MOL0     C17418  11.795   9.194   2.958 -0.2458  0.4531 -0.2157
  127MOL0     O17419  11.860   9.115   3.044 -0.0981  0.2242 -0.1503
  127MOL0     C17420  11.993   9.087   3.017 -0.5596 -0.8736 -0.7447
  127MOL0     C17421  12.100   9.168   3.069  1.0168 -0.3536 -0.3834
  127MOL0     C17422  12.233   9.137   3.048  0.1289 -0.9018  0.4770
  127MOL0     C17423  12.272   9.015   2.989 -0.6919  0.9145  0.0870
  127MOL0     O17424  12.401   8.974   2.976 -0.3682 -0.5318 -0.7341
  127MOL0     C17425  12.459   9.010   2.846  0.1595 -0.7996 -0.6084
  127MOL0     C17426  12.595   8.943   2.817  0.1645  0.5297  0.0256
  127MOL0     C17427  12.608   8.788   2.842 -0.8733 -0.7215 -0.2599
  127MOL0     C17428  12.514   8.715   2.747  0.0828  0.3819  0.6302
  127MOL0     C17429  12.551   8.742   2.600  0.4961 -0.9030 -1.0037
  127MOL0     C17430  12.461   8.655   2.502  0.6260 -0.5040 -0.6154
  127MOL0     C17431  12.474   8.692   2.353 -0.1419 -0.1006 -0.3396
  127MOL0     C17432  12.424   8.831   2.313 -0.6741  0.1509 -0.0086
  127MOL0    Cl17433  12.451   8.820   2.130  0.2012  0.0395 -0.0483
  127MOL0     C17434  12.171   8.930   2.936  0.4734 -0.0890 -1.6501
  127MOL0     C17435  12.030   8.974   2.947  0.3912 -0.4223  0.1841
  127MOL0     O17436  11.849   9.255   2.863  0.8339  0.4865  1.1436
  127MOL0     C17437  11.562   9.094   2.959 -0.0674  0.5836 -0.5497
  127MOL0     C17438  11.423   9.100   2.953 -0.5035  1.1384  0.1338
  127MOL0     N17439  10.939   9.745   3.009  0.2097 -0.1238  0.5969
  127MOL0     N17440  10.876   9.857   2.989  0.1166  0.5403 -0.4105
  127MOL0     C17441   9.733   9.977   2.494  0.1849  0.6744  0.1706
  127MOL0     C17442   9.596   9.947   2.471  0.1972 -0.2327  0.5639
  127MOL0     C17443   9.137   9.890   2.606  0.2504 -0.4657  0.1789
  127MOL0     C17444   9.052   9.805   2.676  0.7024 -0.5869 -0.1848
  127MOL0     C17445   8.917   9.813   2.651 -0.1205 -0.3552  0.7191
  127MOL0     C17446   8.864   9.903   2.554 -0.8386 -0.3145 -0.2334
  127MOL0     O17447   8.726   9.895   2.553  0.1527  0.0136  0.0380
  127MOL0     C17448   8.656   9.991   2.459 -0.4257  0.0708 -0.1062
  127MOL0     C17449   8.541   9.913   2.400 -0.2809 -0.0152 -0.6204
  127MOL0     C17450   8.420  10.007   2.378 -0.3906 -0.1578  0.1426
  127MOL0     C17451   8.458  10.131   2.289  0.1314  0.3888 -0.4573
  127MOL0     C17452   8.502  10.093   2.157 -0.5885  0.3264  0.1292
  127MOL0     C17453   8.547  10.062   2.048  0.5828  1.2606 -0.3576
  127MOL0     C17454   8.957   9.969   2.478  0.1207 -0.1360 -0.1535
  127MOL0     C17455   9.091   9.974   2.495 -0.1241 -0.3478 -0.0188
  127MOL0     C17456   9.174  10.042   2.392  0.2138 -0.3232 -0.3118
  127MOL0     H17457   9.507   9.939   2.798 -1.2355 -0.5891 -0.7198
  127MOL0     H17458   9.716   9.945   2.839 -1.9602 -0.4801 -0.8547
  127MOL0     H17459   9.906  10.085   2.819  0.0673  0.4448 -1.1951
  127MOL0     H17460  10.046  10.089   2.710 -0.5034 -1.0006 -3.9377
  127MOL0     H17461   9.951   9.839   2.858 -1.8978  1.1114  1.1449
  127MOL0     H17462  10.113   9.868   2.797  0.8442  0.3994  1.4553
  127MOL0     H17463   9.955  10.010   3.014 -0.8129 -1.2474 -2.4568
  127MOL0     H17464  10.058   9.879   3.052 -1.2997  0.4817 -0.7065
  127MOL0     H17465  10.153  10.141   2.949 -0.4638 -0.4649  0.5101
  127MOL0     H17466  10.167  10.084   3.116  1.8103  0.2842  0.0032
  127MOL0     H17467  10.339   9.978   2.878  3.5834  1.2074  1.1310
  127MOL0     H17468  10.286   9.869   3.006 -0.0393  1.1634  1.7165
  127MOL0     H17469  10.444  10.114   3.057 -1.8044  0.5315  1.2271
  127MOL0     H17470  10.373  10.017   3.183 -2.0518  0.0411 -1.2353
  127MOL0     H17471  10.510   9.817   3.102 -0.0384  0.6366  1.3925
  127MOL0     H17472  10.591   9.949   3.176 -0.3400  0.3481  0.5107
  127MOL0     H17473  10.585   9.922   2.871 -3.2096 -2.9260  2.9260
  127MOL0     H17474  10.675  10.044   2.966  1.5207 -0.4845 -0.5982
  127MOL0     H17475  10.624   9.654   2.953  0.2525 -1.8423  0.5657
  127MOL0     H17476  10.782   9.443   3.038 -1.3630  0.0986 -1.3723
  127MOL0     H17477  10.952   9.490   3.070  0.4356  0.1039 -0.4360
  127MOL0     H17478  10.829   9.434   2.795  2.7961  1.3763 -4.2999
  127MOL0     H17479  10.979   9.510   2.807  1.1132 -0.5891  1.5837
  127MOL0     H17480  10.941   9.242   2.930  0.8899 -0.8537 -0.7309
  127MOL0     H17481  11.013   9.272   2.776 -0.4753 -0.7495  0.4540
  127MOL0     H17482  11.189   9.418   2.899 -0.0127  1.4633  2.1552
  127MOL0     H17483  11.123   9.363   3.045 -0.7842 -1.6712  0.3100
  127MOL0     H17484  11.378   9.428   2.986  2.8265  1.1383  1.3184
  127MOL0     H17485  11.647   9.518   2.859  2.5468  0.5683  0.4817
  127MOL0     H17486  11.748   9.454   2.988  0.9755 -1.3995 -1.5129
  127MOL0     H17487  11.599   9.525   3.032  1.3797  0.4214  0.5224
  127MOL0     H17488  12.074   9.244   3.141  1.6519  2.5318 -2.9811
  127MOL0     H17489  12.302   9.204   3.099  0.0824 -0.0302 -0.5613
  127MOL0     H17490  12.390   8.970   2.771 -0.6176 -5.5890  2.2279
  127MOL0     H17491  12.469   9.119   2.841 -0.3005 -0.8035 -2.0361
  127MOL0     H17492  12.633   8.971   2.718  0.3897  0.6036  0.1328
  127MOL0     H17493  12.664   8.991   2.887  1.1698  0.1080 -0.6426
  127MOL0     H17494  12.596   8.752   2.944 -0.5903 -0.8177 -0.2607
  127MOL0     H17495  12.712   8.771   2.814 -0.0372  3.1647 -0.1277
  127MOL0     H17496  12.409   8.742   2.763  0.1581  1.8958 -1.1323
  127MOL0     H17497  12.511   8.611   2.782 -0.0579  0.4543  0.8301
  127MOL0     H17498  12.518   8.845   2.580  1.0099 -0.6723 -0.6732
  127MOL0     H17499  12.655   8.727   2.569  0.5401 -1.0153 -0.7982
  127MOL0     H17500  12.352   8.668   2.503  0.4439 -1.0985 -3.4254
  127MOL0     H17501  12.484   8.549   2.517  2.0329 -0.3080 -1.2643
  127MOL0     H17502  12.424   8.615   2.294  0.1313 -1.6249  1.3247
  127MOL0     H17503  12.578   8.689   2.319  0.5408 -0.4924  1.6532
  127MOL0     H17504  12.484   8.910   2.359 -0.6423 -1.7014  3.4904
  127MOL0     H17505  12.317   8.838   2.336 -1.3100  1.8362 -2.9790
  127MOL0     H17506  12.195   8.830   2.901  0.4757 -1.6826  2.3595
  127MOL0     H17507  11.947   8.908   2.926 -1.0744  0.8264  1.7695
  127MOL0     H17508  11.601   8.993   2.963  0.6022  0.8686  2.1978
  127MOL0     H17509  11.381   9.000   2.948  1.6589  0.1129  1.1486
  127MOL0     H17510   9.801   9.967   2.409 -1.3036 -0.5977 -0.9323
  127MOL0     H17511   9.571   9.931   2.367 -0.5607 -1.9191  0.9843
  127MOL0     H17512   9.088   9.734   2.750  3.9780  0.0863 -0.9846
  127MOL0     H17513   8.845   9.742   2.691  0.9533 -2.1742 -0.4251
  127MOL0     H17514   8.622  10.076   2.518 -2.8881 -0.5558 -0.5093
  127MOL0     H17515   8.721  10.028   2.380  1.7343  1.2356  2.0704
  127MOL0     H17516   8.512   9.831   2.466  0.2930  1.0411  1.0211
  127MOL0     H17517   8.579   9.872   2.306  3.1124  0.3378  0.4314
  127MOL0     H17518   8.330   9.968   2.329  0.2920 -0.0112 -1.2901
  127MOL0     H17519   8.390  10.058   2.470  2.4723  4.2007 -1.0158
  127MOL0     H17520   8.537  10.200   2.320  0.0905  0.6353 -0.8858
  127MOL0     H17521   8.369  10.192   2.273 -1.7890 -2.6455 -2.3177
  127MOL0     H17522   8.580  10.041   1.948  1.5004 -0.2411  0.2277
  127MOL0     H17523   8.919  10.019   2.389  1.5644 -0.1121 -0.7781
  127MOL0     H17524   9.229  10.121   2.444 -0.7205  1.9503 -2.5397
  127MOL0     H17525   9.238   9.975   2.333  2.0056  0.1469  1.0200
  127MOL0     H17526   9.107  10.095   2.323  0.0880 -0.5505 -0.3646
  128MOL0     O17527   8.422   0.081   0.689 -0.5045  0.4488 -0.4055
  128MOL0     C17528   8.456   0.018   0.788  0.0680  1.0721 -0.1998
  128MOL0     O17529   8.438   0.057   0.919 -0.2584  0.0317 -0.3612
  128MOL0     C17530   8.346   0.147   0.957  0.2331  0.0592  0.0352
  128MOL0     C17531   8.381   0.230   1.059  0.6222 -0.6289 -0.3463
  128MOL0     C17532   8.294   0.331   1.108  0.4361 -0.1406 -0.4391
  128MOL0     C17533   8.164   0.333   1.055 -0.4252 -0.0731  0.8027
  128MOL0     O17534   8.080   0.427   1.105  0.7545 -0.4432  0.1738
  128MOL0     C17535   7.993   0.498   1.014 -0.8194 -0.8746 -0.7575
  128MOL0     C17536   7.964   0.641   1.071 -0.5513 -0.2999 -0.1616
  128MOL0     C17537   7.888   0.642   1.199  0.2803 -0.6029  0.3166
  128MOL0     C17538   7.920   0.785   1.266  0.5253 -0.1507 -0.1325
  128MOL0     C17539   7.843   0.805   1.398  0.4198 -0.6162  0.4291
  128MOL0     C17540   7.884   0.938   1.466  0.1316  0.3308  0.2736
  128MOL0     C17541   7.777   1.000   1.557 -0.2257  0.8967  0.4124
  128MOL0     C17542   7.746   0.921   1.681  0.5705 -0.6135 -0.3642
  128MOL0     N17543   7.627   0.977   1.749 -0.2545  0.2916  0.3694
  128MOL0     C17544   7.504   0.926   1.767 -0.2337  0.7564 -0.1220
  128MOL0     C17545   7.431   1.017   1.828  0.1860  0.1494 -0.7778
  128MOL0     C17546   7.278   1.011   1.873 -0.0774 -0.1865  0.8534
  128MOL0     C17547   7.188   1.038   1.748 -0.7120 -0.2189  0.5066
  128MOL0     C17548   7.052   0.969   1.760  0.9524 -0.5867  0.0654
  128MOL0     C17549   6.987   0.957   1.624  0.6995 -1.0427 -0.0907
  128MOL0     O17550   6.928   1.085   1.602 -0.4844  0.2034 -0.0442
  128MOL0     C17551   6.788   1.084   1.593 -0.8340  0.0764 -0.3526
  128MOL0     C17552   6.701   0.993   1.637  0.0361  0.4799 -0.8316
  128MOL0     C17553   6.566   1.001   1.605 -1.0689 -0.4415  1.1888
  128MOL0     C17554   6.472   0.883   1.638  0.2259 -0.5035  0.3579
  128MOL0     C17555   6.520   1.109   1.521  0.0827  0.5400  0.7859
  128MOL0     C17556   6.385   1.122   1.464 -0.7194  0.3615  0.2161
  128MOL0     O17557   6.376   1.187   1.345 -0.4448  0.0491  0.2414
  128MOL0     C17558   6.251   1.238   1.305  0.2137  0.1983  0.1586
  128MOL0     C17559   6.157   1.159   1.243  0.3925 -0.4969  0.1672
  128MOL0     C17560   6.027   1.211   1.204  0.1981 -0.0109 -0.3902
  128MOL0     C17561   5.992   1.343   1.220  0.8184  0.2435 -0.1775
  128MOL0     O17562   5.885   1.420   1.179  0.1005  0.1879  0.5813
  128MOL0     C17563   5.766   1.343   1.161 -0.2862  0.4515 -0.3749
  128MOL0     C17564   5.643   1.420   1.213  0.0064 -0.0718 -0.3218
  128MOL0     C17565   5.513   1.338   1.206 -0.8834 -0.3907 -0.4264
  128MOL0     C17566   5.413   1.393   1.308  0.3928  0.6584 -0.0928
  128MOL0     C17567   5.279   1.316   1.288 -0.1871  0.1775 -0.6646
  128MOL0     C17568   5.180   1.358   1.402  0.2406 -0.7021  0.2233
  128MOL0     C17569   5.066   1.257   1.425  0.2981  0.1705 -0.2974
  128MOL0     C17570   4.944   1.328   1.495  0.5725  0.4515  0.6150
  128MOL0    Cl17571   4.803   1.221   1.526 -0.1163 -0.1299  0.1843
  128MOL0     C17572   6.082   1.418   1.295 -0.5974 -0.6556  0.0676
  128MOL0     C17573   6.212   1.374   1.337  0.8201  0.1178  0.1232
  128MOL0     O17574   6.291   1.102   1.539 -0.0201  0.7746  0.1204
  128MOL0     C17575   6.613   1.206   1.482 -0.6952 -0.0014  0.1205
  128MOL0     C17576   6.748   1.193   1.521  0.1592  0.6602  0.4285
  128MOL0     N17577   7.514   1.123   1.860  0.2598  0.4255 -0.2612
  128MOL0     N17578   7.635   1.100   1.815  0.5585  0.4638 -0.0104
  128MOL0     C17579   8.122   0.246   0.964 -0.6669 -0.1035  0.3364
  128MOL0     C17580   8.211   0.155   0.909  0.9669 -0.0168 -0.2534
  128MOL0     C17581   8.541  -0.107   0.772  0.2482  1.0140 -0.3587
  128MOL0     C17582   8.614  -0.160   0.883  0.3261  0.0775 -0.1596
  128MOL0     C17583   8.703  -0.265   0.875 -0.2793 -0.3439 -0.6292
  128MOL0     C17584   8.738  -0.325   0.753  0.4005 -0.1177 -0.9078
  128MOL0     O17585   8.822  -0.432   0.762 -0.6500 -0.6978 -0.3306
  128MOL0     C17586   8.890  -0.453   0.632  0.6631 -0.1422 -0.2691
  128MOL0     C17587   8.985  -0.570   0.658  1.0939  0.4876 -0.2836
  128MOL0     C17588   9.056  -0.589   0.530  0.3875 -0.2860 -0.1868
  128MOL0     C17589   9.168  -0.695   0.538  0.0935 -0.7680 -0.1541
  128MOL0     C17590   9.186  -0.764   0.408  0.3357 -1.0374 -0.1708
  128MOL0     C17591   9.185  -0.824   0.305  0.2826  0.2146  0.8982
  128MOL0     C17592   8.650  -0.294   0.651  0.1603  0.2180 -0.0025
  128MOL0     C17593   8.552  -0.190   0.655  0.7891  0.8808  0.1267
  128MOL0     C17594   8.472  -0.170   0.530  0.5014 -0.0428 -0.1292
  128MOL0     H17595   8.484   0.243   1.092  0.7505  0.8050 -1.2418
  128MOL0     H17596   8.326   0.396   1.188 -0.3765 -2.7109  2.1380
  128MOL0     H17597   7.895   0.451   1.002 -0.3355 -1.7692 -1.2485
  128MOL0     H17598   8.039   0.516   0.916  1.8130 -0.6266  0.4452
  128MOL0     H17599   8.062   0.690   1.080 -1.4501  1.5784 -0.1546
  128MOL0     H17600   7.903   0.686   0.993 -0.3661  1.0302  0.4293
  128MOL0     H17601   7.780   0.628   1.189  0.6943 -2.5415 -2.7592
  128MOL0     H17602   7.922   0.565   1.268 -2.4288 -2.7088 -0.5300
  128MOL0     H17603   8.028   0.800   1.274  0.3528  1.9584 -1.0352
  128MOL0     H17604   7.885   0.862   1.196 -2.2914 -1.1173  0.1096
  128MOL0     H17605   7.851   0.721   1.468 -0.1615  0.6577  2.1015
  128MOL0     H17606   7.739   0.805   1.365 -0.0204 -0.5230  1.7289
  128MOL0     H17607   7.978   0.924   1.520  0.0665  1.9753  0.8548
  128MOL0     H17608   7.914   1.018   1.397  1.1546  0.6356  1.0492
  128MOL0     H17609   7.684   1.005   1.501  1.9425  2.8890 -3.4284
  128MOL0     H17610   7.805   1.102   1.583  1.2473  0.7379 -0.3893
  128MOL0     H17611   7.732   0.817   1.650 -2.4881 -0.5970  0.6740
  128MOL0     H17612   7.822   0.925   1.760 -0.9452  0.8243  1.0906
  128MOL0     H17613   7.469   0.829   1.734 -0.4130  0.2669  1.4394
  128MOL0     H17614   7.260   1.090   1.946 -0.4428 -0.3847  0.9825
  128MOL0     H17615   7.247   0.909   1.900 -3.0234  0.6476  0.9825
  128MOL0     H17616   7.167   1.145   1.749 -2.5835 -0.5461 -0.0408
  128MOL0     H17617   7.239   0.996   1.660 -0.1128 -1.3132  1.3537
  128MOL0     H17618   7.070   0.870   1.803 -0.8784 -1.3915 -0.9324
  128MOL0     H17619   6.987   1.026   1.828  3.3798 -1.3700  3.3285
  128MOL0     H17620   7.070   0.944   1.554  0.6713  0.7711 -0.5051
  128MOL0     H17621   6.916   0.873   1.625 -2.4753  1.4277 -0.3090
  128MOL0     H17622   6.724   0.912   1.705 -2.0849  0.4288 -0.1155
  128MOL0     H17623   6.405   0.871   1.553 -1.7431  2.7076  1.2799
  128MOL0     H17624   6.409   0.887   1.727  0.7929 -3.0997  0.9545
  128MOL0     H17625   6.528   0.789   1.638  2.8657  0.9188  2.2778
  128MOL0     H17626   6.172   1.051   1.241  0.3853 -0.5617  2.0466
  128MOL0     H17627   5.964   1.149   1.141  1.4898 -0.8252 -0.9341
  128MOL0     H17628   5.755   1.312   1.057  3.1324 -3.4415  0.1355
  128MOL0     H17629   5.772   1.247   1.213 -2.2627 -0.0650 -1.0099
  128MOL0     H17630   5.664   1.447   1.317 -0.0381  2.2303 -0.8699
  128MOL0     H17631   5.644   1.509   1.150  1.7457 -0.7376 -1.3241
  128MOL0     H17632   5.524   1.230   1.213 -3.6802 -0.7050  0.2529
  128MOL0     H17633   5.478   1.354   1.103  1.2877  1.5563 -0.9641
  128MOL0     H17634   5.391   1.499   1.298 -1.9984  0.1060 -1.3471
  128MOL0     H17635   5.454   1.375   1.408 -0.8446  1.9269  0.6801
  128MOL0     H17636   5.239   1.328   1.187  1.4205  1.8314 -1.1810
  128MOL0     H17637   5.298   1.209   1.299 -0.1780  0.3472  1.5344
  128MOL0     H17638   5.133   1.453   1.377  1.2075 -0.5185 -0.9741
  128MOL0     H17639   5.234   1.376   1.496 -0.3591  0.5789  0.3402
  128MOL0     H17640   5.098   1.178   1.493 -0.6417  0.2220  0.2169
  128MOL0     H17641   5.037   1.203   1.335  0.6970 -3.1670  1.4054
  128MOL0     H17642   4.900   1.406   1.432 -2.8352 -2.3283 -0.8132
  128MOL0     H17643   4.971   1.379   1.588 -0.9179  0.3787  1.1100
  128MOL0     H17644   6.066   1.523   1.314  0.1611 -0.5985  0.4271
  128MOL0     H17645   6.267   1.444   1.397  0.7844  1.9301 -1.8439
  128MOL0     H17646   6.588   1.285   1.412  2.1148 -0.4805 -1.5454
  128MOL0     H17647   6.820   1.265   1.484  1.6527  0.3250  2.4791
  128MOL0     H17648   8.028   0.256   0.911  0.5494  0.0431 -1.9068
  128MOL0     H17649   8.164   0.084   0.841 -0.8645  0.6656  0.2291
  128MOL0     H17650   8.617  -0.122   0.985  3.3835 -3.0268  1.0853
  128MOL0     H17651   8.758  -0.286   0.967  2.4129  2.7237 -1.3695
  128MOL0     H17652   8.809  -0.481   0.564 -0.2318 -3.6113  1.9866
  128MOL0     H17653   8.943  -0.364   0.596  2.2142 -0.5613  0.8264
  128MOL0     H17654   8.930  -0.661   0.686 -2.9358  2.3652 -1.3389
  128MOL0     H17655   9.052  -0.546   0.740  0.5893 -0.2713  0.3695
  128MOL0     H17656   8.980  -0.626   0.461  0.7350  0.7257 -1.1371
  128MOL0     H17657   9.092  -0.495   0.489 -4.1055  2.6743  1.8907
  128MOL0     H17658   9.170  -0.771   0.617 -1.5866  0.3325  1.0194
  128MOL0     H17659   9.253  -0.627   0.548 -0.8127  0.2094  1.2560
  128MOL0     H17660   9.173  -0.888   0.220 -1.6898 -0.0748  1.3505
  128MOL0     H17661   8.657  -0.350   0.558 -0.3802 -0.5038  0.3830
  128MOL0     H17662   8.511  -0.090   0.467  0.4427 -0.5054 -0.7634
  128MOL0     H17663   8.473  -0.266   0.478 -0.3551 -1.1438  1.7724
  128MOL0     H17664   8.367  -0.148   0.551  0.4770  0.7937 -1.0703
  129MOL0     O17665   2.018  10.023  10.899 -0.5692 -0.1042  0.2707
  129MOL0     C17666   1.915  10.079  10.850  0.3885 -0.6525  0.5782
  129MOL0     O17667   1.881  10.209  10.861  0.3499 -0.2083 -0.2635
  129MOL0     C17668   1.919  10.279  10.968 -0.1476  0.0567 -0.1186
  129MOL0     C17669   1.820  10.335  11.057 -0.4619 -0.3042  0.7527
  129MOL0     C17670   1.861  10.405  11.168  0.0819  0.9374 -0.2528
  129MOL0     C17671   2.005  10.430  11.180 -0.7229 -0.4919 -0.0951
  129MOL0     O17672   2.042  10.511  11.290  0.4065 -0.0137  0.2636
  129MOL0     C17673   2.096  10.443  11.406  0.7671 -0.7249  1.0736
  129MOL0     C17674   2.116  10.543  11.519  0.6271 -0.0315 -0.9578
  129MOL0     C17675   1.983  10.630  11.533 -0.4308 -0.2738  0.4619
  129MOL0     C17676   1.964  10.687  11.673 -0.5035  0.5003  0.3156
  129MOL0     C17677   1.841  10.778  11.665  0.1201  1.4311 -0.0528
  129MOL0     C17678   1.805  10.823  11.798 -1.4548  0.4512 -0.1311
  129MOL0     C17679   1.653  10.855  11.807 -0.2315  0.1458 -0.4476
  129MOL0     C17680   1.597  10.857  11.943  0.6108  0.8125  0.1415
  129MOL0     N17681   1.569  10.711  11.981 -0.4485  0.6854  0.1304
  129MOL0     C17682   1.660  10.628  12.038 -0.6150  0.7912  0.0363
  129MOL0     C17683   1.600  10.509  12.034  0.0295 -0.0329 -0.0414
  129MOL0     C17684   1.667  10.379  12.078 -0.0631 -0.1961 -0.2170
  129MOL0     C17685   1.571  10.258  12.092 -1.0097 -0.6155 -0.4961
  129MOL0     C17686   1.548  10.184  11.952  0.0607 -0.3251  0.4565
  129MOL0     C17687   1.410  10.114  11.950 -0.1838  0.0439 -0.1096
  129MOL0     O17688   1.419  10.001  11.856 -0.6877 -0.3371  0.2826
  129MOL0     C17689   1.310   9.955  11.802 -0.2448 -0.4802  0.8629
  129MOL0     C17690   1.305   9.937  11.664 -0.6362 -0.6043  0.4898
  129MOL0     C17691   1.181   9.899  11.604 -0.0778  0.0027  0.4340
  129MOL0     C17692   1.190   9.896  11.456  0.2801 -0.1632 -0.0142
  129MOL0     C17693   1.066   9.865  11.679  0.5927 -0.2726 -0.4642
  129MOL0     C17694   0.940   9.804  11.617 -0.7495  0.0576 -0.7043
  129MOL0     O17695   0.838   9.766  11.708 -0.3555  0.7200  0.8602
  129MOL0     C17696   0.709   9.749  11.653  0.1395  0.1921  0.9834
  129MOL0     C17697   0.631   9.645  11.708 -0.0340 -0.1517 -0.8848
  129MOL0     C17698   0.515   9.603  11.641  0.0844  0.4032 -0.8134
  129MOL0     C17699   0.473   9.673  11.529  0.2965  0.0081 -0.3452
  129MOL0     O17700   0.360   9.614  11.467  0.1488  0.0054 -0.6232
  129MOL0     C17701   0.254   9.709  11.447 -0.1606  0.0670 -0.6950
  129MOL0     C17702   0.217   9.805  11.565  0.1719  0.6828  0.5454
  129MOL0     C17703   0.106   9.754  11.649  0.2266  0.7934 -0.3748
  129MOL0     C17704  -0.030   9.765  11.595  0.3907  0.7775  0.2294
  129MOL0     C17705  -0.121   9.740  11.711 -0.7222 -0.2989 -0.8211
  129MOL0     C17706  -0.269   9.785  11.681 -0.2420  0.2558 -0.4784
  129MOL0     C17707  -0.349   9.793  11.806 -0.8775 -0.2229 -0.0022
  129MOL0     C17708  -0.497   9.795  11.784  0.6208  0.5603 -0.3531
  129MOL0    Cl17709  -0.556   9.865  11.641 -0.2244 -0.3264  0.0879
  129MOL0     C17710   0.543   9.779  11.477  0.2754 -0.0368 -1.1115
  129MOL0     C17711   0.659   9.820  11.546  0.1257 -0.3566  0.0710
  129MOL0     O17712   0.925   9.812  11.495 -0.5970 -0.7389  0.5111
  129MOL0     C17713   1.069   9.880  11.822  0.3406  0.4850  0.8258
  129MOL0     C17714   1.192   9.929  11.873 -0.2375 -0.6503  0.2039
  129MOL0     N17715   1.478  10.519  11.982  0.4297 -0.2953  0.2888
  129MOL0     N17716   1.455  10.641  11.953 -0.3215  1.6069 -0.4301
  129MOL0     C17717   2.097  10.392  11.084  0.2752 -0.3813  1.0202
  129MOL0     C17718   2.059  10.311  10.981  0.1589 -0.2533 -0.7872
  129MOL0     C17719   1.831  10.015  10.745  0.2042  0.2915  0.1203
  129MOL0     C17720   1.762  10.087  10.644 -0.4269  0.0615 -0.4553
  129MOL0     C17721   1.679  10.029  10.545  0.5462  0.1703 -1.0193
  129MOL0     C17722   1.667   9.898  10.546  0.3319 -0.3990  0.0571
  129MOL0     O17723   1.595   9.838  10.438 -0.3333  0.1799  0.2301
  129MOL0     C17724   1.472   9.908  10.405  0.6029 -0.2767  0.7002
  129MOL0     C17725   1.357   9.811  10.409 -0.0589  0.1213 -0.1001
  129MOL0     C17726   1.218   9.878  10.390 -0.0563  0.3046 -0.4637
  129MOL0     C17727   1.105   9.802  10.448 -0.0004 -0.4357 -0.2906
  129MOL0     C17728   0.974   9.853  10.400 -0.1499 -0.5461 -0.1650
  129MOL0     C17729   0.862   9.893  10.362 -0.0211  0.1568 -0.4890
  129MOL0     C17730   1.721   9.822  10.641 -0.8670 -0.3193 -0.9426
  129MOL0     C17731   1.803   9.878  10.739  0.0074  0.1400  0.2812
  129MOL0     C17732   1.852   9.780  10.846 -0.1491 -0.3756  0.4120
  129MOL0     H17733   1.715  10.309  11.046 -1.0856  2.1642  0.3796
  129MOL0     H17734   1.797  10.441  11.248 -0.1842 -2.0612  1.0275
  129MOL0     H17735   2.189  10.391  11.385 -0.1844 -2.4603  1.0382
  129MOL0     H17736   2.023  10.366  11.431  0.1460 -0.2436  0.7774
  129MOL0     H17737   2.137  10.488  11.610 -1.5618  0.9386  0.2048
  129MOL0     H17738   2.200  10.609  11.494  0.5996  0.1939 -0.4554
  129MOL0     H17739   1.984  10.719  11.469 -1.3555  0.9451  2.0684
  129MOL0     H17740   1.898  10.566  11.505 -0.3703 -0.8629  1.5960
  129MOL0     H17741   1.963  10.612  11.752 -0.7957  1.4677  1.2603
  129MOL0     H17742   2.049  10.756  11.679  0.6513 -0.2446 -4.0301
  129MOL0     H17743   1.750  10.725  11.634  1.1974  0.3399 -1.5063
  129MOL0     H17744   1.862  10.860  11.596 -1.3998 -0.5371 -3.1409
  129MOL0     H17745   1.835  10.744  11.868  0.9865  1.8495  0.5235
  129MOL0     H17746   1.866  10.910  11.825  0.4310 -0.8847  0.0626
  129MOL0     H17747   1.590  10.795  11.741 -0.0089 -2.3714  1.4777
  129MOL0     H17748   1.651  10.954  11.761  0.1933 -1.2887 -3.8059
  129MOL0     H17749   1.669  10.902  12.011  0.1122  0.5561  0.8544
  129MOL0     H17750   1.506  10.917  11.952 -1.9075 -2.9203  2.8731
  129MOL0     H17751   1.757  10.660  12.073  0.2086 -1.7303  0.2644
  129MOL0     H17752   1.711  10.405  12.175 -2.3257  2.1421  0.2977
  129MOL0     H17753   1.751  10.356  12.011  2.7176  3.5497  1.5766
  129MOL0     H17754   1.608  10.191  12.171  0.8519 -0.8650 -1.5213
  129MOL0     H17755   1.473  10.299  12.118 -1.0068  0.2302 -1.7359
  129MOL0     H17756   1.554  10.251  11.866 -1.1849 -0.3687  0.3134
  129MOL0     H17757   1.623  10.105  11.947  0.8552  0.4694 -0.4847
  129MOL0     H17758   1.381  10.077  12.049  0.3297 -2.0626 -0.7004
  129MOL0     H17759   1.333  10.182  11.914  0.3536 -0.9896 -3.5159
  129MOL0     H17760   1.391   9.952  11.600 -2.3463  3.5153 -1.1929
  129MOL0     H17761   1.186   9.793  11.419 -0.4914  0.8389 -3.0136
  129MOL0     H17762   1.281   9.942  11.416  0.0863 -0.9585 -1.4432
  129MOL0     H17763   1.102   9.952  11.424 -1.2169 -0.4875  3.1767
  129MOL0     H17764   0.674   9.594  11.793 -1.7999  0.3825  0.3790
  129MOL0     H17765   0.452   9.517  11.664  0.1475  0.3806 -0.7250
  129MOL0     H17766   0.279   9.770  11.360  0.8363  1.3670  0.4568
  129MOL0     H17767   0.168   9.648  11.419 -1.5809  0.5627  2.2298
  129MOL0     H17768   0.305   9.827  11.626 -1.8943  1.1975  3.5573
  129MOL0     H17769   0.189   9.907  11.535 -0.4067  1.1177  2.4494
  129MOL0     H17770   0.110   9.813  11.741 -1.1744  1.3538 -0.6589
  129MOL0     H17771   0.131   9.651  11.677  1.7115  1.5649  1.3284
  129MOL0     H17772  -0.062   9.701  11.512 -5.0985  3.8112 -0.5125
  129MOL0     H17773  -0.042   9.868  11.558  1.3951  0.1270 -2.0883
  129MOL0     H17774  -0.117   9.634  11.738 -0.2635 -0.4236 -1.3453
  129MOL0     H17775  -0.088   9.804  11.793 -1.5258  0.3343 -0.9802
  129MOL0     H17776  -0.320   9.705  11.626 -1.2057 -1.0206  2.1123
  129MOL0     H17777  -0.282   9.874  11.619 -0.3268  1.7621  1.5844
  129MOL0     H17778  -0.324   9.882  11.863 -0.9718  0.0704 -0.4121
  129MOL0     H17779  -0.330   9.698  11.858  1.6827 -1.7850 -3.3885
  129MOL0     H17780  -0.549   9.841  11.869  0.2814  1.4406 -1.0285
  129MOL0     H17781  -0.530   9.692  11.769 -1.1534  1.2596 -1.5599
  129MOL0     H17782   0.507   9.838  11.394  1.2652  0.3698 -1.2638
  129MOL0     H17783   0.712   9.907  11.509  2.4322 -1.4396  0.5907
  129MOL0     H17784   0.984   9.851  11.882 -0.3729  1.7192  0.4443
  129MOL0     H17785   1.207   9.944  11.980  1.7397  1.0747 -0.2465
  129MOL0     H17786   2.203  10.411  11.092  0.3620 -0.6714  0.6300
  129MOL0     H17787   2.124  10.259  10.911 -0.9517 -2.1196 -0.5192
  129MOL0     H17788   1.770  10.196  10.642 -1.3325  0.1336 -0.5890
  129MOL0     H17789   1.633  10.076  10.458 -1.6145 -1.8937 -1.1186
  129MOL0     H17790   1.441   9.985  10.476 -3.5671 -0.5682 -0.5579
  129MOL0     H17791   1.490   9.945  10.303 -0.7445 -1.4791 -0.0026
  129MOL0     H17792   1.355   9.738  10.491  2.1820 -0.7075 -0.6981
  129MOL0     H17793   1.378   9.750  10.320  0.0519 -2.3697  1.5236
  129MOL0     H17794   1.228   9.974  10.442  0.3874 -0.1102  0.2398
  129MOL0     H17795   1.202   9.906  10.286  0.7814  0.7254 -0.4876
  129MOL0     H17796   1.108   9.803  10.557  0.6944  0.0216 -0.3125
  129MOL0     H17797   1.115   9.696  10.421  2.1615 -0.0024 -1.3768
  129MOL0     H17798   0.763   9.926  10.336 -0.2859  1.9844  2.4113
  129MOL0     H17799   1.696   9.717  10.644  0.4565 -0.6473  1.3576
  129MOL0     H17800   1.900   9.834  10.929  1.0885 -0.0791 -0.4704
  129MOL0     H17801   1.766   9.729  10.892  1.1404 -1.6712  1.5001
  129MOL0     H17802   1.919   9.703  10.805  2.8603  0.7476  2.8071
  130MOL0     O17803   2.345   8.823   8.940 -0.0337  0.2872 -0.2212
  130MOL0     C17804   2.278   8.919   8.983 -0.1453 -0.3243 -0.1051
  130MOL0     O17805   2.241   9.029   8.902 -0.4890 -0.2311  0.2024
  130MOL0     C17806   2.283   9.034   8.771  0.1672 -0.2872 -0.4004
  130MOL0     C17807   2.405   8.992   8.714 -1.3787 -0.4351  0.1779
  130MOL0     C17808   2.436   9.014   8.581 -1.5533  0.9449 -1.0612
  130MOL0     C17809   2.356   9.092   8.501 -0.3246 -0.3904  0.0965
  130MOL0     O17810   2.403   9.114   8.375  0.7139  0.5392 -0.2016
  130MOL0     C17811   2.296   9.116   8.275 -0.3751  0.1089 -0.0837
  130MOL0     C17812   2.369   9.139   8.143 -0.6257  0.7459  0.2173
  130MOL0     C17813   2.429   9.291   8.130  0.0089  0.3129 -0.1365
  130MOL0     C17814   2.451   9.347   7.989 -0.8591 -0.6006  0.4484
  130MOL0     C17815   2.526   9.489   7.992 -0.5116  0.0093 -0.7988
  130MOL0     C17816   2.532   9.538   7.848  0.0804 -0.4515  0.2748
  130MOL0     C17817   2.616   9.670   7.855  0.4836  0.9186 -0.2806
  130MOL0     C17818   2.610   9.765   7.728 -0.5101  0.0225 -0.5746
  130MOL0     N17819   2.479   9.823   7.713  0.0337  0.2831 -0.3440
  130MOL0     C17820   2.375   9.814   7.804  0.2214  0.5865  0.3027
  130MOL0     C17821   2.311   9.932   7.795  0.4548  0.5670  1.1058
  130MOL0     C17822   2.191   9.954   7.880  0.5848 -0.0294  0.1237
  130MOL0     C17823   2.222   9.938   8.031  0.0891 -0.4053 -0.3057
  130MOL0     C17824   2.105   9.939   8.126  0.4561  0.1053  0.5867
  130MOL0     C17825   2.157   9.940   8.268  0.0781 -0.8404  0.4508
  130MOL0     O17826   2.236   9.823   8.282  0.0242 -0.2287  0.0830
  130MOL0     C17827   2.338   9.824   8.374  0.0565 -0.0031 -0.5748
  130MOL0     C17828   2.451   9.740   8.359 -0.2140 -0.1042  0.2636
  130MOL0     C17829   2.543   9.735   8.463 -0.1801  0.5942  0.2274
  130MOL0     C17830   2.651   9.627   8.456  0.5619 -0.7727 -0.1804
  130MOL0     C17831   2.546   9.829   8.566 -0.7669  0.6671 -0.9442
  130MOL0     C17832   2.651   9.839   8.678  0.5807  0.1176  0.1838
  130MOL0     O17833   2.637   9.753   8.788  0.4186  1.1612  0.6874
  130MOL0     C17834   2.713   9.777   8.900  0.0305  0.1432 -0.0616
  130MOL0     C17835   2.755   9.901   8.954 -0.3981 -0.5268  0.7714
  130MOL0     C17836   2.845   9.899   9.061  0.2762  0.3821  0.5685
  130MOL0     C17837   2.883   9.779   9.118 -0.4760 -0.8715  0.5662
  130MOL0     O17838   2.981   9.780   9.214  0.4958  1.3016  0.1693
  130MOL0     C17839   2.957   9.712   9.339  0.1832  0.5781  0.0475
  130MOL0     C17840   2.826   9.767   9.412 -0.5781  0.4354  0.6497
  130MOL0     C17841   2.787   9.672   9.534 -0.4905 -0.4809  0.4783
  130MOL0     C17842   2.678   9.733   9.616  0.2763 -0.5656  0.4077
  130MOL0     C17843   2.596   9.632   9.690 -0.4466  0.8332 -0.6456
  130MOL0     C17844   2.462   9.684   9.746  0.5497 -0.9168 -0.2502
  130MOL0     C17845   2.374   9.579   9.820 -0.3203 -0.1673 -0.5163
  130MOL0     C17846   2.285   9.656   9.925 -0.2738  1.5042 -0.1629
  130MOL0    Cl17847   2.386   9.725  10.057  0.1377  0.4082  0.2391
  130MOL0     C17848   2.839   9.654   9.069 -0.2750  0.2503  0.7534
  130MOL0     C17849   2.759   9.655   8.962  0.2260 -0.6006 -0.4372
  130MOL0     O17850   2.714   9.946   8.675 -0.8912  0.5824  0.3576
  130MOL0     C17851   2.444   9.924   8.583  0.3010  0.1122 -0.1317
  130MOL0     C17852   2.334   9.906   8.488  0.2280  0.0745 -0.4409
  130MOL0     N17853   2.364  10.009   7.698 -0.3688 -0.9308  0.4955
  130MOL0     N17854   2.461   9.943   7.648  0.0190  0.0709 -0.0761
  130MOL0     C17855   2.232   9.137   8.553  0.2127  0.1699 -1.1440
  130MOL0     C17856   2.194   9.103   8.685  0.3781 -0.1191 -0.6131
  130MOL0     C17857   2.221   8.909   9.120 -0.5660  0.5321  0.4445
  130MOL0     C17858   2.238   8.791   9.197 -0.3616  0.2116  0.6448
  130MOL0     C17859   2.184   8.776   9.326 -0.0745 -0.6792  0.2601
  130MOL0     C17860   2.101   8.878   9.377 -0.3798  0.4235 -0.0165
  130MOL0     O17861   2.056   8.839   9.501 -0.1784  1.1142  0.4132
  130MOL0     C17862   1.954   8.905   9.562  0.9579 -0.7901  0.9854
  130MOL0     C17863   2.017   9.018   9.649  0.1278  0.0597  0.3831
  130MOL0     C17864   1.919   9.124   9.700  0.0242  0.4497  0.6688
  130MOL0     C17865   1.989   9.231   9.777 -0.0196  1.0634  0.6244
  130MOL0     C17866   1.901   9.340   9.811  0.1931 -0.0365 -0.1850
  130MOL0     C17867   1.831   9.439   9.837 -0.0013  0.7465  0.3849
  130MOL0     C17868   2.074   8.992   9.300 -0.7529 -0.4484  0.9977
  130MOL0     C17869   2.139   9.009   9.177 -1.0456  0.5966 -0.5820
  130MOL0     C17870   2.115   9.144   9.111 -0.0442  0.4194  0.0381
  130MOL0     H17871   2.486   8.956   8.777 -0.5710  0.4748 -0.3241
  130MOL0     H17872   2.522   8.961   8.542 -0.0537 -0.0131  3.0280
  130MOL0     H17873   2.227   9.200   8.289 -0.2296  0.5127 -1.6232
  130MOL0     H17874   2.247   9.020   8.289  0.0192  0.3027  3.5238
  130MOL0     H17875   2.444   9.062   8.126 -1.4319 -0.3020  1.3253
  130MOL0     H17876   2.297   9.124   8.062 -1.4941  3.9341  0.2302
  130MOL0     H17877   2.355   9.360   8.173 -0.7635 -0.5457 -0.0729
  130MOL0     H17878   2.526   9.306   8.179  0.5326  3.9203 -1.9193
  130MOL0     H17879   2.518   9.281   7.933  0.0504  0.6141  0.0683
  130MOL0     H17880   2.357   9.356   7.933 -0.3118 -1.0612 -0.5591
  130MOL0     H17881   2.622   9.473   8.042 -1.3236  0.8231  1.1323
  130MOL0     H17882   2.475   9.565   8.052 -1.4870  0.8256 -2.5893
  130MOL0     H17883   2.588   9.462   7.792 -1.8284 -2.1600  0.5877
  130MOL0     H17884   2.431   9.553   7.809  1.2084  1.6920 -2.1871
  130MOL0     H17885   2.718   9.635   7.871  0.5651  1.6398  0.8818
  130MOL0     H17886   2.585   9.731   7.940  0.3404 -0.1690  0.4698
  130MOL0     H17887   2.679   9.848   7.745 -0.6580 -0.2932  1.8937
  130MOL0     H17888   2.630   9.718   7.631  2.4282  0.3199 -0.2066
  130MOL0     H17889   2.333   9.734   7.863  0.6606 -1.9975 -2.6370
  130MOL0     H17890   2.115   9.878   7.861  0.7741 -0.2967  0.4197
  130MOL0     H17891   2.141  10.048   7.858  1.2359  0.0027 -1.3250
  130MOL0     H17892   2.271   9.841   8.049 -1.3161 -0.8438  1.2888
  130MOL0     H17893   2.298  10.014   8.051  0.1487  0.3767 -3.0520
  130MOL0     H17894   2.043  10.028   8.112  0.2295  0.4397  3.2933
  130MOL0     H17895   2.042   9.851   8.109  0.8645 -0.0980  0.0859
  130MOL0     H17896   2.211  10.034   8.285 -0.8557 -0.1680 -0.1886
  130MOL0     H17897   2.068   9.934   8.330 -0.6765  0.6975 -0.4123
  130MOL0     H17898   2.461   9.671   8.277  2.5519 -0.5006  0.8285
  130MOL0     H17899   2.622   9.560   8.538 -0.3850 -0.2888 -0.1093
  130MOL0     H17900   2.755   9.657   8.468 -0.4587  2.1901  2.6595
  130MOL0     H17901   2.634   9.570   8.364 -4.6347 -1.9894  1.2078
  130MOL0     H17902   2.724  10.000   8.924  0.0908 -0.1473  1.4937
  130MOL0     H17903   2.884   9.991   9.102 -1.7100  1.5947 -0.0965
  130MOL0     H17904   2.952   9.604   9.330 -1.9082  0.4108  2.2523
  130MOL0     H17905   3.038   9.739   9.407  2.9605 -0.0342 -2.8070
  130MOL0     H17906   2.834   9.869   9.452 -3.3723  0.8351  0.3834
  130MOL0     H17907   2.743   9.779   9.342 -0.4645  4.4279  0.9762
  130MOL0     H17908   2.878   9.666   9.594  0.4721  3.7325 -0.2449
  130MOL0     H17909   2.767   9.569   9.505  1.3409 -0.6416 -0.3599
  130MOL0     H17910   2.603   9.780   9.552  1.6113  0.2307 -0.6207
  130MOL0     H17911   2.715   9.811   9.683 -0.5549  1.0041 -0.8917
  130MOL0     H17912   2.573   9.542   9.632 -3.6421  1.4087 -0.4450
  130MOL0     H17913   2.657   9.616   9.779 -0.0731  0.3023 -0.9923
  130MOL0     H17914   2.405   9.729   9.665  3.2195  1.0559 -1.1956
  130MOL0     H17915   2.494   9.766   9.812 -0.1689 -1.0251  0.2380
  130MOL0     H17916   2.433   9.502   9.870  0.1762 -0.4275 -1.4826
  130MOL0     H17917   2.306   9.535   9.747  0.4299 -3.3996  0.5907
  130MOL0     H17918   2.211   9.584   9.963  1.5164 -0.1635  0.3038
  130MOL0     H17919   2.227   9.742   9.890 -3.8268 -0.1254  1.1544
  130MOL0     H17920   2.874   9.560   9.112  2.2108  2.1113  3.1919
  130MOL0     H17921   2.710   9.566   8.924 -1.9735  1.6703 -3.4165
  130MOL0     H17922   2.440   9.997   8.664  0.9891 -0.6918  0.6536
  130MOL0     H17923   2.255   9.972   8.522  0.3560  0.4372 -0.8414
  130MOL0     H17924   2.153   9.181   8.493  0.2135  0.9684 -0.5620
  130MOL0     H17925   2.100   9.132   8.731  0.9096 -0.3981  0.6956
  130MOL0     H17926   2.301   8.708   9.165  0.8002  1.0192  0.8142
  130MOL0     H17927   2.195   8.678   9.371 -1.0110 -2.2031 -2.5643
  130MOL0     H17928   1.892   8.955   9.487  3.7503  0.0499 -0.8919
  130MOL0     H17929   1.885   8.848   9.626 -3.2954  2.1695 -0.5203
  130MOL0     H17930   2.085   9.068   9.579  0.1971 -2.6139 -1.6127
  130MOL0     H17931   2.071   8.978   9.735 -1.0100  1.2691  1.7185
  130MOL0     H17932   1.866   9.156   9.610 -0.9558 -2.5662  0.0589
  130MOL0     H17933   1.841   9.078   9.760 -0.8579 -0.8621 -1.3648
  130MOL0     H17934   2.068   9.280   9.719 -0.4245  1.5134  0.4435
  130MOL0     H17935   2.041   9.185   9.861  2.9554 -0.8237 -1.9986
  130MOL0     H17936   1.769   9.525   9.853 -0.0124  1.0341 -1.0306
  130MOL0     H17937   2.007   9.062   9.348 -0.1173 -0.2441  1.6088
  130MOL0     H17938   2.068   9.137   9.013 -2.5849 -1.6591  1.2616
  130MOL0     H17939   2.044   9.205   9.168 -3.2368 -0.7020 -2.4437
  130MOL0     H17940   2.209   9.199   9.099 -0.1971  0.3258 -1.9019
  131MOL0     O17941   8.377   6.421   8.862 -0.2252  0.6420  0.0676
  131MOL0     C17942   8.266   6.430   8.807 -0.3257 -0.9609  0.1092
  131MOL0     O17943   8.234   6.402   8.691  0.1677  0.2979  1.0269
  131MOL0     C17944   8.323   6.391   8.583 -0.2602  0.0521 -0.2534
  131MOL0     C17945   8.267   6.337   8.471  0.1171  0.2517 -0.1024
  131MOL0     C17946   8.336   6.320   8.350 -0.0407  0.1197  0.6752
  131MOL0     C17947   8.466   6.361   8.330  0.2651 -0.3860 -0.4508
  131MOL0     O17948   8.530   6.353   8.208  0.3035  0.2884 -0.7888
  131MOL0     C17949   8.640   6.265   8.207 -0.0252 -1.4493 -0.3636
  131MOL0     C17950   8.696   6.252   8.070  0.5797  0.0060  0.1225
  131MOL0     C17951   8.825   6.161   8.063 -0.3956 -0.1644 -0.2736
  131MOL0     C17952   8.939   6.191   8.165  1.3109 -0.0623 -0.7727
  131MOL0     C17953   9.062   6.106   8.145  0.3365  0.0438 -0.0292
  131MOL0     C17954   9.171   6.157   8.240 -0.2627  0.0610 -0.2826
  131MOL0     C17955   9.307   6.090   8.210 -0.2789  0.1454  0.6496
  131MOL0     C17956   9.411   6.098   8.326  0.0363 -0.2953 -0.0039
  131MOL0     N17957   9.550   6.107   8.282 -1.1463 -0.0779  0.3137
  131MOL0     C17958   9.632   6.006   8.270  0.2783  0.5072 -0.5349
  131MOL0     C17959   9.750   6.057   8.240 -0.2763  0.3201  0.6883
  131MOL0     C17960   9.880   5.985   8.208  0.1551 -0.1915 -0.2598
  131MOL0     C17961   9.982   6.021   8.321  0.3882  0.2680  1.2401
  131MOL0     C17962  10.036   6.167   8.337 -0.6984  0.6125 -0.3598
  131MOL0     C17963  10.084   6.230   8.205  0.9110  0.1650  0.0720
  131MOL0     O17964  10.179   6.334   8.231 -0.0248  0.0959  0.4514
  131MOL0     C17965  10.308   6.294   8.250 -1.0064  0.1244 -0.4196
  131MOL0     C17966  10.352   6.167   8.273 -0.2253  0.2650  0.8432
  131MOL0     C17967  10.487   6.126   8.262 -0.3431  0.3177  0.2187
  131MOL0     C17968  10.512   5.983   8.297 -0.4666 -0.1588 -0.4306
  131MOL0     C17969  10.578   6.224   8.226  0.0612  0.3460  0.1001
  131MOL0     C17970  10.719   6.194   8.184 -0.3181  0.3302  0.6438
  131MOL0     O17971  10.804   6.302   8.157 -0.6811  0.5561  0.2434
  131MOL0     C17972  10.913   6.268   8.074 -0.0121  0.0115  0.0703
  131MOL0     C17973  10.892   6.250   7.940  0.4556 -0.4072  0.1703
  131MOL0     C17974  10.996   6.223   7.857  0.1497  0.2558 -0.5030
  131MOL0     C17975  11.126   6.204   7.915  0.0056 -0.8477  0.4190
  131MOL0     O17976  11.219   6.187   7.817 -0.5512 -0.4859  0.2333
  131MOL0     C17977  11.364   6.213   7.843  0.9102  0.6389  0.6383
  131MOL0     C17978  11.445   6.247   7.719 -0.2641 -0.0493  0.1024
  131MOL0     C17979  11.442   6.146   7.606 -0.1142 -0.1771 -0.6999
  131MOL0     C17980  11.539   6.161   7.491  0.1159  0.0899  0.7419
  131MOL0     C17981  11.522   6.045   7.395 -0.6991 -0.0596  0.8207
  131MOL0     C17982  11.625   6.046   7.275 -0.6253  0.1517 -0.0939
  131MOL0     C17983  11.771   6.062   7.305 -0.1380  0.6672 -0.7806
  131MOL0     C17984  11.820   5.943   7.391 -0.2267 -0.3167 -0.0180
  131MOL0    Cl17985  11.981   5.969   7.433  0.0021  0.4558 -0.1945
  131MOL0     C17986  11.157   6.230   8.048  0.9189  1.1383  0.8511
  131MOL0     C17987  11.047   6.255   8.121  0.6285 -0.2746 -0.1309
  131MOL0     O17988  10.755   6.080   8.178  0.2014  0.2034 -0.6319
  131MOL0     C17989  10.530   6.355   8.217 -0.1818 -0.6288 -0.1713
  131MOL0     C17990  10.401   6.391   8.224  0.1754  0.7865 -0.9606
  131MOL0     N17991   9.731   6.195   8.232  0.9446 -0.1400  0.4152
  131MOL0     N17992   9.614   6.224   8.264 -0.6228  0.6850  0.8131
  131MOL0     C17993   8.526   6.412   8.443 -0.2429  0.0716 -0.0372
  131MOL0     C17994   8.458   6.428   8.569 -1.1621 -0.3295 -0.0788
  131MOL0     C17995   8.168   6.498   8.895  0.5588 -0.9374  0.6031
  131MOL0     C17996   8.199   6.526   9.028 -0.3965 -0.2174  0.0830
  131MOL0     C17997   8.114   6.589   9.118 -0.3612 -0.6146  0.1113
  131MOL0     C17998   7.987   6.632   9.074  0.1963  0.0691  0.7637
  131MOL0     O17999   7.883   6.688   9.143 -0.8940  0.0766  0.0411
  131MOL0     C18000   7.920   6.713   9.289  0.1110 -1.0976 -0.0884
  131MOL0     C18001   7.797   6.782   9.350  0.2133  0.2366  0.8153
  131MOL0     C18002   7.764   6.713   9.485  0.2429  0.5742 -0.3719
  131MOL0     C18003   7.660   6.787   9.574 -0.7766 -1.0607 -0.4448
  131MOL0     C18004   7.721   6.908   9.644 -0.2601  0.2000  0.2220
  131MOL0     C18005   7.780   7.010   9.696  0.8244  0.3653  0.1416
  131MOL0     C18006   7.948   6.613   8.936  0.1012 -0.1315 -0.7307
  131MOL0     C18007   8.039   6.549   8.846 -0.1893 -0.2718 -0.0110
  131MOL0     C18008   7.994   6.506   8.704 -0.2958  0.6022 -0.3078
  131MOL0     H18009   8.164   6.305   8.481  0.7062 -1.2868  1.4106
  131MOL0     H18010   8.277   6.287   8.265 -0.4103 -1.9408  1.6492
  131MOL0     H18011   8.606   6.169   8.246 -1.7678 -0.6936  0.0540
  131MOL0     H18012   8.721   6.302   8.271 -1.1360 -0.3894  0.4830
  131MOL0     H18013   8.625   6.207   8.000  0.4205  3.4214 -2.1639
  131MOL0     H18014   8.712   6.353   8.032 -0.0808 -0.2669 -0.9411
  131MOL0     H18015   8.804   6.054   8.052  4.1829 -1.1470 -1.2957
  131MOL0     H18016   8.867   6.177   7.963 -1.3248  0.2226 -0.6165
  131MOL0     H18017   8.974   6.295   8.162 -0.1317  0.4682 -0.1798
  131MOL0     H18018   8.896   6.177   8.264 -0.5111 -0.3601 -1.5661
  131MOL0     H18019   9.104   6.111   8.044  1.3819 -3.9486  0.0224
  131MOL0     H18020   9.030   6.003   8.162  1.7677 -0.1786  1.7945
  131MOL0     H18021   9.182   6.265   8.229  1.1731 -0.1634 -1.3168
  131MOL0     H18022   9.138   6.135   8.342 -0.5368 -0.4519 -0.4806
  131MOL0     H18023   9.352   6.149   8.130 -1.0357 -0.1069  0.0201
  131MOL0     H18024   9.292   5.986   8.179  3.9997 -1.0537  1.9468
  131MOL0     H18025   9.393   6.194   8.376 -0.8186 -0.1299 -0.6015
  131MOL0     H18026   9.402   6.011   8.391 -0.8591 -1.3326 -1.4576
  131MOL0     H18027   9.598   5.905   8.289 -0.5236  0.8639 -0.0543
  131MOL0     H18028   9.912   6.031   8.114 -0.6365  0.8045 -0.0616
  131MOL0     H18029   9.874   5.878   8.189 -0.5569 -0.4916  1.5145
  131MOL0     H18030   9.946   5.976   8.413  0.7758  2.0704  2.3206
  131MOL0     H18031  10.072   5.961   8.302  0.9856  1.4543  0.1022
  131MOL0     H18032   9.978   6.243   8.389 -2.2772 -1.3716  0.9496
  131MOL0     H18033  10.128   6.167   8.397  0.9025 -0.0900 -2.6403
  131MOL0     H18034  10.138   6.153   8.147 -0.0116  0.6125 -1.4526
  131MOL0     H18035  10.007   6.254   8.132  2.7439 -0.8302 -2.3533
  131MOL0     H18036  10.285   6.082   8.286  1.1436 -1.1296 -0.8053
  131MOL0     H18037  10.450   5.932   8.371  1.2332 -2.8300 -0.6583
  131MOL0     H18038  10.613   5.980   8.340 -0.9631 -1.7228  0.7290
  131MOL0     H18039  10.513   5.927   8.203  1.9397  0.1018 -0.6382
  131MOL0     H18040  10.803   6.280   7.886 -0.1717  0.7172  1.7817
  131MOL0     H18041  10.994   6.206   7.750 -2.0403 -0.1544 -0.4349
  131MOL0     H18042  11.383   6.290   7.919 -0.1554  1.2031  0.3515
  131MOL0     H18043  11.405   6.121   7.885 -2.8418 -0.8060  1.4943
  131MOL0     H18044  11.394   6.339   7.687  0.7368  0.2426 -0.7421
  131MOL0     H18045  11.550   6.264   7.745  0.3751 -0.7763 -1.8068
  131MOL0     H18046  11.338   6.139   7.574  0.1931 -0.6318 -1.6134
  131MOL0     H18047  11.463   6.046   7.644  2.0499  0.9172  1.2610
  131MOL0     H18048  11.636   6.151   7.541 -1.0010 -2.8753  2.5726
  131MOL0     H18049  11.514   6.251   7.435 -0.9714 -1.3558 -1.1802
  131MOL0     H18050  11.543   5.949   7.443  2.4764 -0.2463 -0.6657
  131MOL0     H18051  11.421   6.047   7.354  0.3547 -3.4659 -2.4731
  131MOL0     H18052  11.595   6.134   7.216 -2.6916 -1.1593 -1.1093
  131MOL0     H18053  11.623   5.955   7.215  4.6733  0.2551 -0.9422
  131MOL0     H18054  11.800   6.157   7.353  0.9220 -0.0901  0.1472
  131MOL0     H18055  11.839   6.055   7.220  2.2081 -0.6644  1.0400
  131MOL0     H18056  11.806   5.849   7.338  3.5996 -0.6791 -0.6840
  131MOL0     H18057  11.757   5.954   7.479  0.6338  0.3897  0.5352
  131MOL0     H18058  11.259   6.221   8.084  0.8202  1.3871  1.2016
  131MOL0     H18059  11.064   6.274   8.227 -2.2732  2.3193  0.0225
  131MOL0     H18060  10.606   6.429   8.197 -1.2128  1.4742  2.8668
  131MOL0     H18061  10.364   6.493   8.212 -0.8830  0.8828  2.2833
  131MOL0     H18062   8.628   6.448   8.429  0.0484 -0.9905 -0.8896
  131MOL0     H18063   8.505   6.469   8.657  0.0379 -1.7132 -0.0249
  131MOL0     H18064   8.297   6.503   9.068  0.3353  1.6251 -0.5661
  131MOL0     H18065   8.139   6.602   9.223 -0.2861  0.9648 -0.0706
  131MOL0     H18066   7.941   6.624   9.349 -1.7627 -1.7966 -0.3982
  131MOL0     H18067   7.999   6.789   9.295 -1.4517  0.8225 -2.1369
  131MOL0     H18068   7.712   6.788   9.282  0.4769  0.2945  0.4862
  131MOL0     H18069   7.827   6.885   9.374 -0.8262  1.0815 -1.2478
  131MOL0     H18070   7.719   6.614   9.471  2.2955 -0.2359 -1.6786
  131MOL0     H18071   7.850   6.690   9.549 -0.5728  0.3953  0.6892
  131MOL0     H18072   7.610   6.729   9.652 -2.2807  1.7113  0.7905
  131MOL0     H18073   7.577   6.825   9.513  0.3893 -0.1297 -1.5039
  131MOL0     H18074   7.828   7.099   9.731  4.9649 -0.5222 -2.5407
  131MOL0     H18075   7.854   6.646   8.893  1.4777  1.1789 -2.9472
  131MOL0     H18076   7.890   6.534   8.682 -1.3896 -1.4670  1.8097
  131MOL0     H18077   8.055   6.539   8.619 -0.7617 -0.2526 -0.9965
  131MOL0     H18078   7.990   6.397   8.702  0.2829  0.5793 -0.5084
  132MOL0     O18079  10.161   4.062   0.680  0.0568 -0.3821 -0.4667
  132MOL0     C18080  10.160   3.943   0.705  0.1497 -0.7834 -0.2150
  132MOL0     O18081  10.216   3.890   0.820 -0.1935  0.1137 -0.2057
  132MOL0     C18082  10.287   3.980   0.896  0.6906  0.2339  0.1800
  132MOL0     C18083  10.427   4.002   0.886  0.5280 -0.2321  0.6563
  132MOL0     C18084  10.489   4.089   0.986  0.4884  0.0543  0.5146
  132MOL0     C18085  10.417   4.147   1.086  0.0745  0.2222  0.7869
  132MOL0     O18086  10.466   4.218   1.189 -0.1880 -0.1660 -0.7005
  132MOL0     C18087  10.599   4.202   1.235 -1.0437 -0.8647 -1.2357
  132MOL0     C18088  10.620   4.070   1.324  0.6524  0.2871 -0.2125
  132MOL0     C18089  10.652   3.951   1.237 -0.2558 -0.7666 -0.4452
  132MOL0     C18090  10.647   3.825   1.318 -0.2083  0.4068  0.4591
  132MOL0     C18091  10.658   3.702   1.230 -0.1374  0.2665  0.2195
  132MOL0     C18092  10.765   3.691   1.130 -0.5285  0.4853 -0.4905
  132MOL0     C18093  10.773   3.549   1.074  0.5955  0.4826  0.2055
  132MOL0     C18094  10.873   3.546   0.963 -0.2221 -0.0922 -0.2752
  132MOL0     N18095  10.844   3.634   0.851  0.2243  0.2194 -0.0081
  132MOL0     C18096  10.719   3.662   0.797 -0.1144  0.1285 -0.4903
  132MOL0     C18097  10.742   3.710   0.676 -1.0569  0.0552  0.6262
  132MOL0     C18098  10.651   3.763   0.568  0.1353  0.3035  0.1889
  132MOL0     C18099  10.554   3.659   0.535  0.2704 -0.1607  0.2658
  132MOL0     C18100  10.593   3.587   0.407 -0.3311 -0.1902  0.2611
  132MOL0     C18101  10.507   3.463   0.378 -0.0568 -0.4458  0.7822
  132MOL0     O18102  10.370   3.504   0.383  0.0017  0.2482  0.0274
  132MOL0     C18103  10.275   3.413   0.359  0.4359 -1.4161  0.7811
  132MOL0     C18104  10.300   3.276   0.344 -0.4672  0.0548 -0.7558
  132MOL0     C18105  10.199   3.187   0.302  0.0091  0.0537  0.1760
  132MOL0     C18106  10.248   3.044   0.281 -0.6902  0.1212  0.4363
  132MOL0     C18107  10.073   3.235   0.274  0.2646  1.0084  0.0222
  132MOL0     C18108   9.954   3.155   0.233 -0.7301  0.3215 -0.4225
  132MOL0     O18109   9.843   3.227   0.206 -0.5717 -0.4443  0.7723
  132MOL0     C18110   9.714   3.178   0.179 -0.1417 -0.2429  0.1373
  132MOL0     C18111   9.644   3.089   0.266 -0.1957 -1.5554 -0.1590
  132MOL0     C18112   9.509   3.061   0.261  0.6800 -0.0168 -0.0798
  132MOL0     C18113   9.426   3.121   0.167  0.2255  0.2516 -0.1625
  132MOL0     O18114   9.288   3.102   0.162 -0.1864  0.5881  0.7689
  132MOL0     C18115   9.237   2.967   0.186 -0.1183 -0.0486 -0.1236
  132MOL0     C18116   9.090   2.952   0.173 -0.2261 -0.2485 -0.7594
  132MOL0     C18117   9.016   3.040   0.276 -0.6229 -0.2271 -0.0093
  132MOL0     C18118   8.859   3.029   0.255 -0.3282 -0.2001  0.1515
  132MOL0     C18119   8.806   2.889   0.294 -0.9549 -0.4400  0.3633
  132MOL0     C18120   8.648   2.875   0.280  0.1483 -0.0496 -0.9795
  132MOL0     C18121   8.591   2.733   0.267 -0.1273 -0.6083  1.2466
  132MOL0     C18122   8.442   2.732   0.229  0.6826 -0.1611 -0.3056
  132MOL0    Cl18123   8.373   2.572   0.213 -0.0066 -0.0484  0.1906
  132MOL0     C18124   9.491   3.212   0.079  0.0381  0.1477  0.1809
  132MOL0     C18125   9.631   3.233   0.084 -0.8209 -0.9251  0.2380
  132MOL0     O18126   9.965   3.033   0.213 -0.0631  0.1350 -0.4966
  132MOL0     C18127  10.044   3.364   0.315 -0.7994 -0.2346  0.2421
  132MOL0     C18128  10.147   3.458   0.353  0.7004 -1.2335  0.2110
  132MOL0     N18129  10.879   3.706   0.652 -0.1912 -0.7411 -0.0611
  132MOL0     N18130  10.935   3.659   0.757 -0.3344 -0.3245 -0.8025
  132MOL0     C18131  10.279   4.115   1.094 -0.5659 -0.4656  0.2430
  132MOL0     C18132  10.216   4.034   1.001 -0.7173 -1.2146 -0.7358
  132MOL0     C18133  10.057   3.864   0.628 -0.1968  0.2690  0.3973
  132MOL0     C18134  10.041   3.730   0.672  0.5548 -0.0127  0.2213
  132MOL0     C18135   9.954   3.654   0.612  0.4819 -0.2659 -0.1920
  132MOL0     C18136   9.876   3.693   0.502  0.2515  0.3146 -0.0418
  132MOL0     O18137   9.782   3.605   0.457 -0.5699  0.2209  0.0432
  132MOL0     C18138   9.712   3.638   0.334  0.3232  0.1718 -0.1169
  132MOL0     C18139   9.605   3.526   0.305  0.2343 -0.5813 -0.6649
  132MOL0     C18140   9.499   3.520   0.415  0.1611 -0.0109 -0.1080
  132MOL0     C18141   9.366   3.445   0.374 -0.3229  0.0226  0.2946
  132MOL0     C18142   9.294   3.429   0.501  0.7009 -0.6295  0.6259
  132MOL0     C18143   9.227   3.397   0.591 -0.2682 -0.2256  0.1862
  132MOL0     C18144   9.911   3.819   0.447  1.2503  0.7486 -0.6289
  132MOL0     C18145   9.993   3.914   0.511 -0.3616  0.5420 -0.1802
  132MOL0     C18146  10.007   4.048   0.461 -0.3291 -0.1285  1.2222
  132MOL0     H18147  10.473   3.959   0.798 -2.8559 -0.5341 -1.1606
  132MOL0     H18148  10.596   4.101   0.982  0.3345  1.0472 -1.0232
  132MOL0     H18149  10.623   4.296   1.285 -0.5938 -1.0691 -1.0642
  132MOL0     H18150  10.675   4.185   1.158  0.7971 -1.7833  0.6861
  132MOL0     H18151  10.712   4.090   1.380  2.2684  0.0421 -2.6504
  132MOL0     H18152  10.534   4.054   1.389  1.0700  0.1004  0.3013
  132MOL0     H18153  10.568   3.934   1.170 -0.2279  1.4549 -1.1303
  132MOL0     H18154  10.745   3.965   1.180 -1.0011  3.5684 -0.9713
  132MOL0     H18155  10.732   3.817   1.386  0.6526  0.0990 -0.6244
  132MOL0     H18156  10.556   3.813   1.377 -0.1507 -3.6855  0.0037
  132MOL0     H18157  10.574   3.703   1.160 -0.7675 -2.9265  0.7809
  132MOL0     H18158  10.657   3.610   1.289 -3.1171 -2.3445 -3.3938
  132MOL0     H18159  10.750   3.770   1.057  0.7827  0.6348 -0.6263
  132MOL0     H18160  10.855   3.701   1.190 -0.1982 -1.7203 -0.5142
  132MOL0     H18161  10.675   3.511   1.043 -0.8289 -0.0809  4.6696
  132MOL0     H18162  10.809   3.471   1.142  0.9846  1.0794  0.7001
  132MOL0     H18163  10.968   3.582   1.005 -1.1547 -0.2151  2.0561
  132MOL0     H18164  10.879   3.448   0.916  1.3853  1.2434 -3.1512
  132MOL0     H18165  10.625   3.638   0.846  0.1519  1.3164  0.6270
  132MOL0     H18166  10.713   3.799   0.486  0.9943  1.2437  1.2235
  132MOL0     H18167  10.587   3.846   0.600  0.3787  0.6614 -0.2377
  132MOL0     H18168  10.552   3.593   0.622  0.2633 -1.1209 -0.4473
  132MOL0     H18169  10.456   3.702   0.511  0.3282 -0.0321  0.2604
  132MOL0     H18170  10.593   3.648   0.316 -0.7882 -0.3148  0.1768
  132MOL0     H18171  10.694   3.546   0.416 -0.6138 -1.8899 -2.8301
  132MOL0     H18172  10.527   3.428   0.276  0.1126  1.2888  0.1747
  132MOL0     H18173  10.532   3.383   0.447  0.4512 -0.1454  0.9524
  132MOL0     H18174  10.399   3.235   0.365 -0.2536  1.2511  0.8131
  132MOL0     H18175  10.178   2.975   0.330 -1.2938 -0.9427 -1.7745
  132MOL0     H18176  10.348   3.034   0.323 -0.4643  1.9503  0.4169
  132MOL0     H18177  10.255   3.018   0.175  1.3650  3.2426 -0.3185
  132MOL0     H18178   9.698   3.048   0.351  1.7380 -0.5992 -0.8668
  132MOL0     H18179   9.462   2.977   0.311  0.0816 -0.1193 -0.8100
  132MOL0     H18180   9.290   2.900   0.118  0.7749  1.3313 -0.8081
  132MOL0     H18181   9.254   2.950   0.293  2.1309  2.5998  0.0336
  132MOL0     H18182   9.051   2.968   0.072  2.7512  2.3321 -1.6719
  132MOL0     H18183   9.068   2.852   0.209 -0.3650  0.1994  0.4407
  132MOL0     H18184   9.047   3.145   0.270 -0.9675 -0.0040  1.6511
  132MOL0     H18185   9.033   2.998   0.375  1.3610  0.1804 -0.1263
  132MOL0     H18186   8.840   3.037   0.148 -0.2630 -0.3570  0.1281
  132MOL0     H18187   8.806   3.107   0.311 -0.3497  0.4741 -0.7883
  132MOL0     H18188   8.860   2.830   0.220 -0.5609  2.9548 -2.3383
  132MOL0     H18189   8.835   2.866   0.397  1.9080  0.2475 -0.2124
  132MOL0     H18190   8.614   2.934   0.194 -0.3832 -2.0146 -2.1649
  132MOL0     H18191   8.609   2.913   0.375  2.5901 -1.9086  0.8885
  132MOL0     H18192   8.621   2.678   0.357  5.0209 -1.5270 -0.7048
  132MOL0     H18193   8.642   2.681   0.185  0.1392 -1.5863  2.0099
  132MOL0     H18194   8.427   2.782   0.133  1.8261 -1.2449 -1.0886
  132MOL0     H18195   8.390   2.789   0.306 -0.5825  0.5196 -1.6454
  132MOL0     H18196   9.423   3.244   0.001 -0.5673 -0.7482  0.3283
  132MOL0     H18197   9.673   3.318   0.031  3.3815 -1.8533  1.6695
  132MOL0     H18198   9.952   3.421   0.303 -0.8957 -0.3112  0.6009
  132MOL0     H18199  10.127   3.564   0.359  3.3817 -0.6259 -0.1919
  132MOL0     H18200  10.234   4.162   1.181 -2.3854 -3.3308  1.0220
  132MOL0     H18201  10.110   4.014   1.011 -0.6240 -0.8700  1.1552
  132MOL0     H18202  10.104   3.691   0.751 -0.1232 -3.0911 -0.6127
  132MOL0     H18203   9.935   3.554   0.649 -1.7278 -0.1303 -0.8037
  132MOL0     H18204   9.663   3.733   0.358  1.3089  0.7676 -0.4240
  132MOL0     H18205   9.775   3.636   0.244 -1.4041  1.2657 -1.4292
  132MOL0     H18206   9.646   3.424   0.310 -0.9862 -1.0260  1.1669
  132MOL0     H18207   9.569   3.556   0.206  2.2796  0.4530 -1.1309
  132MOL0     H18208   9.548   3.479   0.504  0.1665 -0.7757 -0.4625
  132MOL0     H18209   9.482   3.625   0.444  2.2330  0.5094 -0.6212
  132MOL0     H18210   9.393   3.349   0.329 -1.0787  0.0427 -0.2095
  132MOL0     H18211   9.310   3.500   0.298 -0.9496  1.8142  1.9565
  132MOL0     H18212   9.162   3.346   0.660 -0.6418 -0.4062 -0.2870
  132MOL0     H18213   9.858   3.841   0.355 -1.4902 -0.9017  0.4303
  132MOL0     H18214   9.959   4.112   0.536 -2.0470 -0.3845  0.4075
  132MOL0     H18215  10.110   4.074   0.437 -0.2597  0.2566  1.9141
  132MOL0     H18216   9.943   4.076   0.376 -1.5360 -0.0143  2.1334
  133MOL0     O18217   5.411   3.817   1.932  0.0079  0.0008  0.1038
  133MOL0     C18218   5.431   3.904   1.853 -0.6004 -0.1004  0.1170
  133MOL0     O18219   5.362   4.030   1.855 -0.0537 -0.4238  0.0311
  133MOL0     C18220   5.264   4.045   1.951 -0.3888 -0.2109  0.2946
  133MOL0     C18221   5.295   4.027   2.090 -0.8193  0.5394  0.0344
  133MOL0     C18222   5.195   4.055   2.180 -1.0319  0.1118 -0.0331
  133MOL0     C18223   5.070   4.102   2.146  0.2616 -0.0193  0.8901
  133MOL0     O18224   4.971   4.132   2.238  0.1504  0.3999  0.1834
  133MOL0     C18225   4.913   4.015   2.314 -0.1316  0.0649 -0.0658
  133MOL0     C18226   4.834   4.070   2.435  0.3036 -0.5032 -0.1445
  133MOL0     C18227   4.727   4.157   2.391  0.8361 -0.2839  0.5504
  133MOL0     C18228   4.612   4.154   2.484  0.8490  0.9268  1.5934
  133MOL0     C18229   4.547   4.293   2.493 -0.6453  0.6183  0.9938
  133MOL0     C18230   4.409   4.297   2.543 -0.0112  0.2796  0.1574
  133MOL0     C18231   4.387   4.228   2.676 -0.0603 -0.2663  0.2387
  133MOL0     C18232   4.242   4.268   2.724  0.0659 -0.6217  0.4544
  133MOL0     N18233   4.233   4.387   2.808  0.2845  0.3361 -0.2267
  133MOL0     C18234   4.333   4.457   2.874 -0.2506  0.0518  0.0338
  133MOL0     C18235   4.271   4.554   2.940 -0.3038  0.0184 -0.3266
  133MOL0     C18236   4.324   4.685   3.000 -0.3316 -0.1522  0.8837
  133MOL0     C18237   4.326   4.690   3.148 -0.9416  0.3830  0.9800
  133MOL0     C18238   4.443   4.609   3.205  0.1647  0.8418 -0.4317
  133MOL0     C18239   4.417   4.458   3.200  0.1082 -0.5205  0.0492
  133MOL0     O18240   4.460   4.387   3.320  0.0117 -0.1069  0.1050
  133MOL0     C18241   4.589   4.355   3.336 -0.5529 -0.2864  0.0687
  133MOL0     C18242   4.692   4.394   3.248 -0.7456  0.3688 -0.7914
  133MOL0     C18243   4.821   4.334   3.268  0.0555  0.4253 -0.0482
  133MOL0     C18244   4.913   4.355   3.144 -0.6786  0.1740  0.4851
  133MOL0     C18245   4.846   4.236   3.375 -0.1442 -0.0261  0.0837
  133MOL0     C18246   4.975   4.172   3.383 -0.5479 -0.0545  0.2625
  133MOL0     O18247   5.092   4.233   3.343  0.3917  0.0116  0.3648
  133MOL0     C18248   5.210   4.170   3.379  0.1263 -0.0525  0.2695
  133MOL0     C18249   5.259   4.064   3.300  1.1831 -0.5443  0.2878
  133MOL0     C18250   5.390   4.016   3.317 -0.2250  0.5463  0.1654
  133MOL0     C18251   5.471   4.066   3.430 -0.4842 -0.3076 -0.1207
  133MOL0     O18252   5.606   4.030   3.450 -0.7151 -0.5278  0.5117
  133MOL0     C18253   5.638   3.906   3.391 -0.4872  0.2832  0.4234
  133MOL0     C18254   5.780   3.864   3.408 -0.5088 -0.3692  1.3165
  133MOL0     C18255   5.823   3.738   3.321 -0.7166 -0.5499  0.3524
  133MOL0     C18256   5.967   3.725   3.316  0.1100  0.1018 -0.1440
  133MOL0     C18257   5.999   3.574   3.304  0.9104  0.4122 -0.0517
  133MOL0     C18258   6.149   3.549   3.318 -0.0167  1.0023  0.3602
  133MOL0     C18259   6.188   3.397   3.302 -1.0571  0.3914  1.2510
  133MOL0     C18260   6.328   3.365   3.313  0.5193  0.7773  0.2957
  133MOL0    Cl18261   6.394   3.445   3.451  0.0196 -0.5175  0.0985
  133MOL0     C18262   5.409   4.166   3.504  0.8545 -0.3190 -0.2259
  133MOL0     C18263   5.280   4.214   3.491  0.7848  0.0796  0.4773
  133MOL0     O18264   4.969   4.060   3.426  0.0661  0.1336 -0.3832
  133MOL0     C18265   4.736   4.196   3.452 -0.2275 -0.3413 -0.6163
  133MOL0     C18266   4.618   4.269   3.435  1.1366  1.2221 -0.6206
  133MOL0     N18267   4.138   4.527   2.938 -0.3540 -0.4380 -0.1243
  133MOL0     N18268   4.111   4.431   2.860  0.3048 -0.1689 -0.0106
  133MOL0     C18269   5.046   4.124   2.012  0.3831  0.3209  0.8488
  133MOL0     C18270   5.140   4.103   1.910 -0.4441 -0.4606 -1.0482
  133MOL0     C18271   5.557   3.892   1.773 -0.7556  0.3645  0.3178
  133MOL0     C18272   5.625   4.014   1.728  0.6399  0.9437 -0.7057
  133MOL0     C18273   5.745   4.009   1.669  0.8743  0.3805 -0.3137
  133MOL0     C18274   5.803   3.879   1.638 -0.0603  0.0182  0.3991
  133MOL0     O18275   5.912   3.872   1.558  0.3628 -0.1480  0.5903
  133MOL0     C18276   5.954   3.759   1.479 -0.0590 -1.2530  0.3807
  133MOL0     C18277   6.067   3.673   1.544 -0.1827  0.0552  0.0832
  133MOL0     C18278   6.136   3.577   1.442 -0.1029  0.4709  0.6712
  133MOL0     C18279   6.259   3.632   1.384 -0.5094  0.3997 -0.8676
  133MOL0     C18280   6.302   3.550   1.270 -0.6776 -0.8750 -0.0264
  133MOL0     C18281   6.338   3.488   1.173  0.0745  0.5143 -0.4431
  133MOL0     C18282   5.735   3.761   1.684 -0.0815  0.3411  0.0921
  133MOL0     C18283   5.620   3.762   1.756  0.3189 -0.0345  0.2542
  133MOL0     C18284   5.558   3.621   1.773  0.6945  1.4388  0.5575
  133MOL0     H18285   5.382   3.989   2.142 -0.8086 -0.7966 -0.8928
  133MOL0     H18286   5.223   4.036   2.283 -2.0162  0.0432  0.2356
  133MOL0     H18287   4.991   3.945   2.345 -0.6797 -0.5076  0.0386
  133MOL0     H18288   4.855   3.955   2.243  3.8722 -2.3678 -1.5555
  133MOL0     H18289   4.790   3.986   2.490  0.2311  0.1252  0.7882
  133MOL0     H18290   4.899   4.121   2.507 -0.2575  1.0110 -0.6733
  133MOL0     H18291   4.769   4.258   2.381 -1.2818  0.8628  2.3185
  133MOL0     H18292   4.688   4.126   2.294 -3.6776 -0.2829  2.1321
  133MOL0     H18293   4.533   4.085   2.451  0.8210  0.9055  1.7020
  133MOL0     H18294   4.637   4.123   2.586  0.1413 -0.2360  1.4433
  133MOL0     H18295   4.537   4.340   2.395 -0.4410 -0.1880  0.5759
  133MOL0     H18296   4.604   4.351   2.567 -0.0824  4.1943 -1.9816
  133MOL0     H18297   4.358   4.394   2.543 -1.6267 -0.5060 -1.7349
  133MOL0     H18298   4.352   4.231   2.479 -0.5877  1.5959 -0.7300
  133MOL0     H18299   4.456   4.265   2.752 -0.3667  1.2937 -0.2075
  133MOL0     H18300   4.401   4.120   2.684 -0.1292 -0.1184  3.2675
  133MOL0     H18301   4.159   4.281   2.653  1.9487 -1.3852 -2.0387
  133MOL0     H18302   4.208   4.188   2.790 -1.9194 -0.9003 -0.8161
  133MOL0     H18303   4.439   4.436   2.867 -0.1042  1.1875 -2.0301
  133MOL0     H18304   4.245   4.755   2.972  0.5192  0.1547 -0.9046
  133MOL0     H18305   4.418   4.715   2.954 -1.1260 -0.2069 -0.8901
  133MOL0     H18306   4.342   4.795   3.172 -4.3350  2.4334 -3.9766
  133MOL0     H18307   4.229   4.650   3.181 -1.5365 -1.6791 -2.7119
  133MOL0     H18308   4.526   4.622   3.135 -0.7541 -1.9644 -2.2226
  133MOL0     H18309   4.455   4.635   3.311 -1.0703 -0.9051  0.1941
  133MOL0     H18310   4.312   4.435   3.180 -0.2227  1.8162 -1.3106
  133MOL0     H18311   4.460   4.420   3.107 -1.4419 -4.1760  0.6594
  133MOL0     H18312   4.677   4.460   3.162  0.0247  1.2836 -0.2501
  133MOL0     H18313   4.974   4.444   3.162  0.2317 -0.4379  0.4795
  133MOL0     H18314   4.849   4.364   3.055  0.7131 -0.4835 -0.6223
  133MOL0     H18315   4.984   4.274   3.124 -0.8255  0.1225  0.1642
  133MOL0     H18316   5.204   4.049   3.207 -0.6813  3.0280  0.6331
  133MOL0     H18317   5.413   3.948   3.236 -0.3613  1.2121 -0.4451
  133MOL0     H18318   5.571   3.827   3.427  1.1663 -1.9954 -1.1918
  133MOL0     H18319   5.618   3.910   3.284 -1.6141 -1.9203  0.4976
  133MOL0     H18320   5.852   3.944   3.388  0.4625 -1.7014 -0.9105
  133MOL0     H18321   5.796   3.842   3.515  2.0797  0.4292  1.1789
  133MOL0     H18322   5.782   3.738   3.219  1.5882  0.8421 -0.6506
  133MOL0     H18323   5.776   3.658   3.378 -0.8331  1.4034  3.2306
  133MOL0     H18324   6.013   3.758   3.410  1.3498 -0.2412 -0.6106
  133MOL0     H18325   6.008   3.782   3.231 -1.2150  1.1568 -0.1188
  133MOL0     H18326   5.955   3.520   3.389  3.9917 -2.1862  0.1140
  133MOL0     H18327   5.956   3.536   3.211  2.3130  0.4309 -0.7343
  133MOL0     H18328   6.181   3.601   3.409  0.1273  0.3135  0.7102
  133MOL0     H18329   6.201   3.600   3.236  1.3466 -0.3190  0.3598
  133MOL0     H18330   6.168   3.358   3.202  2.3640 -2.0769  1.3286
  133MOL0     H18331   6.136   3.331   3.372 -3.3967  0.7089 -0.0825
  133MOL0     H18332   6.385   3.388   3.223 -1.9371 -0.9639 -1.8890
  133MOL0     H18333   6.342   3.258   3.332  0.5449  1.0605  2.0398
  133MOL0     H18334   5.460   4.181   3.599  0.5234 -2.0312  0.2509
  133MOL0     H18335   5.237   4.290   3.555 -2.1651 -1.0193 -0.0043
  133MOL0     H18336   4.747   4.123   3.531  0.7447  0.9863  0.5372
  133MOL0     H18337   4.540   4.226   3.497  2.4984 -3.0708 -1.5732
  133MOL0     H18338   4.950   4.158   1.975  1.3392 -0.7727 -3.1779
  133MOL0     H18339   5.125   4.116   1.803  0.7599  0.5268 -1.1319
  133MOL0     H18340   5.580   4.111   1.746 -3.3438 -1.0989  1.7744
  133MOL0     H18341   5.788   4.102   1.633 -1.3620  2.0279  1.0146
  133MOL0     H18342   5.862   3.706   1.453 -0.5756 -0.1464 -0.1264
  133MOL0     H18343   5.993   3.809   1.390  0.7851 -1.3797  0.6694
  133MOL0     H18344   6.021   3.619   1.627 -2.1648  1.8183  0.2231
  133MOL0     H18345   6.132   3.753   1.580 -0.1381 -0.6388  1.6381
  133MOL0     H18346   6.167   3.486   1.494 -0.9308 -1.1380 -1.5386
  133MOL0     H18347   6.067   3.529   1.373  0.7290 -2.2132  1.5803
  133MOL0     H18348   6.345   3.631   1.451 -2.5216 -2.5111  1.9645
  133MOL0     H18349   6.251   3.737   1.356  2.1344  0.6857 -0.8281
  133MOL0     H18350   6.374   3.425   1.094 -3.5377  0.9123 -2.6060
  133MOL0     H18351   5.773   3.663   1.659 -0.9754  0.2058 -0.8169
  133MOL0     H18352   5.620   3.543   1.727 -0.5329  1.3603 -1.0741
  133MOL0     H18353   5.529   3.591   1.874 -1.0672 -2.4687 -0.8822
  133MOL0     H18354   5.465   3.611   1.715  1.1027  2.5629 -0.3177
  134MOL0     O18355   0.749   2.103   4.751  0.0525  0.2788  0.3939
  134MOL0     C18356   0.724   2.059   4.862 -0.0961  0.3526 -0.1065
  134MOL0     O18357   0.808   1.991   4.943 -0.1875 -0.0242 -0.2964
  134MOL0     C18358   0.937   1.974   4.916  0.2937  0.2318 -0.0345
  134MOL0     C18359   1.020   2.015   5.024 -0.1504 -0.2460  0.2216
  134MOL0     C18360   1.156   1.996   5.015 -0.4082  0.8022  0.1823
  134MOL0     C18361   1.219   1.950   4.901  0.5528 -0.2311  0.0532
  134MOL0     O18362   1.356   1.953   4.906 -0.4602 -0.4332  0.0539
  134MOL0     C18363   1.437   1.966   4.792 -0.3969 -0.2048 -0.4849
  134MOL0     C18364   1.581   1.966   4.831 -0.1673 -0.9045 -0.3201
  134MOL0     C18365   1.644   1.834   4.880  0.5080  0.6362  0.3336
  134MOL0     C18366   1.762   1.846   4.968 -0.8000 -0.4332  1.2661
  134MOL0     C18367   1.732   1.850   5.115  0.0058  1.0050  0.1412
  134MOL0     C18368   1.708   1.721   5.172 -0.5773  0.1553  0.1738
  134MOL0     C18369   1.742   1.707   5.322  0.5788 -0.9397  1.0396
  134MOL0     C18370   1.675   1.811   5.412  0.1481 -0.1685  1.1443
  134MOL0     N18371   1.539   1.761   5.424 -0.7252  0.2127 -0.0262
  134MOL0     C18372   1.430   1.807   5.363 -0.3546 -0.7857 -0.1084
  134MOL0     C18373   1.331   1.743   5.419 -0.5331  0.7585  0.7913
  134MOL0     C18374   1.196   1.761   5.381 -0.2367 -0.2332  0.5417
  134MOL0     C18375   1.160   1.709   5.236 -0.0284 -0.1719  0.3472
  134MOL0     C18376   1.010   1.713   5.206  0.5970 -0.3216 -0.0310
  134MOL0     C18377   0.934   1.591   5.268  1.3527  0.2068 -0.1318
  134MOL0     O18378   1.013   1.476   5.265  0.6314 -0.0248 -0.3097
  134MOL0     C18379   0.974   1.350   5.303  0.1982  0.1845 -0.1041
  134MOL0     C18380   1.075   1.264   5.351 -0.3779  1.3243  0.6127
  134MOL0     C18381   1.051   1.121   5.365  0.3980 -0.4247 -0.0266
  134MOL0     C18382   1.162   1.023   5.382 -0.2397 -0.0431  0.4407
  134MOL0     C18383   0.916   1.075   5.358 -0.4948  0.4055  0.1970
  134MOL0     C18384   0.874   0.937   5.381 -0.2436  0.0687 -1.0437
  134MOL0     O18385   0.768   0.925   5.465 -0.1423 -0.0159  0.2000
  134MOL0     C18386   0.671   0.833   5.434 -0.1730  0.1326  0.7222
  134MOL0     C18387   0.597   0.782   5.538  0.3359  0.1650 -0.4454
  134MOL0     C18388   0.485   0.694   5.521  0.1514  0.7890  0.0607
  134MOL0     C18389   0.440   0.672   5.389  0.2894  0.8880  0.1001
  134MOL0     O18390   0.312   0.619   5.372  0.4775  0.3098  0.1609
  134MOL0     C18391   0.277   0.563   5.251 -0.5127 -0.2881 -0.2325
  134MOL0     C18392   0.122   0.565   5.243 -0.4319 -0.7758  0.2515
  134MOL0     C18393   0.083   0.711   5.250 -0.7634 -0.3461  0.5109
  134MOL0     C18394  -0.069   0.723   5.223 -0.4294  0.2486 -0.2489
  134MOL0     C18395  -0.126   0.866   5.228 -0.0581  0.7766  0.5810
  134MOL0     C18396  -0.283   0.847   5.199  0.0277 -0.9077  0.6727
  134MOL0     C18397  -0.340   0.989   5.179  0.7417  0.4578 -0.4037
  134MOL0     C18398  -0.498   0.990   5.174 -0.1487  0.3630  0.5963
  134MOL0    Cl18399  -0.570   0.896   5.313 -0.3056 -0.4545 -0.1333
  134MOL0     C18400   0.504   0.738   5.284  0.8094  0.0010  0.2032
  134MOL0     C18401   0.616   0.814   5.307  0.2311  0.8889 -0.2063
  134MOL0     O18402   0.933   0.839   5.342 -0.8644  0.6194  0.1306
  134MOL0     C18403   0.817   1.165   5.327 -0.4418  0.5007 -0.5280
  134MOL0     C18404   0.841   1.301   5.294 -0.6749  0.5882  0.9910
  134MOL0     N18405   1.373   1.653   5.507 -0.9864  0.3601 -0.4140
  134MOL0     N18406   1.507   1.658   5.507  0.3418 -0.6381  0.5290
  134MOL0     C18407   1.139   1.915   4.786  1.1329  1.0874  0.1540
  134MOL0     C18408   0.993   1.925   4.798  0.0926  0.6761  0.9421
  134MOL0     C18409   0.588   2.074   4.926 -0.2828 -0.1548  0.6566
  134MOL0     C18410   0.576   2.077   5.065  0.2399  0.5041  0.1428
  134MOL0     C18411   0.456   2.087   5.129 -0.6899  0.1964 -0.1910
  134MOL0     C18412   0.336   2.085   5.052 -0.5161  0.3921  0.5110
  134MOL0     O18413   0.227   2.093   5.129  1.0943  0.3821  0.1422
  134MOL0     C18414   0.091   2.097   5.083  0.2525  0.0923 -0.4982
  134MOL0     C18415   0.037   2.241   5.092  0.4307  0.4727 -0.7294
  134MOL0     C18416  -0.113   2.231   5.069 -0.3228 -0.2960  0.2564
  134MOL0     C18417  -0.174   2.365   5.122  0.8440  0.1494 -0.4321
  134MOL0     C18418  -0.179   2.389   5.267 -0.3278 -0.4092 -0.2783
  134MOL0     C18419  -0.167   2.411   5.386 -0.1254  0.0197  0.2838
  134MOL0     C18420   0.348   2.058   4.914  0.1519 -0.8748 -0.5155
  134MOL0     C18421   0.473   2.065   4.848  0.0801  0.0334 -0.9256
  134MOL0     C18422   0.479   2.046   4.706  0.3977  0.0376  0.1251
  134MOL0     H18423   0.983   2.035   5.124 -0.6035 -2.8078  0.6242
  134MOL0     H18424   1.217   2.021   5.101 -1.8620  3.5127  0.5373
  134MOL0     H18425   1.421   2.064   4.745  1.2645 -0.4402 -1.6408
  134MOL0     H18426   1.421   1.884   4.721  0.1955 -2.1586  1.5255
  134MOL0     H18427   1.629   1.998   4.738  3.7444 -0.5709  1.5990
  134MOL0     H18428   1.601   2.042   4.908  0.4087 -2.6904  1.4056
  134MOL0     H18429   1.562   1.769   4.912  0.0460  1.5599  1.1141
  134MOL0     H18430   1.678   1.781   4.791 -1.6732 -1.8668  0.8721
  134MOL0     H18431   1.821   1.757   4.945 -1.8790 -1.1980  1.4136
  134MOL0     H18432   1.815   1.940   4.946  1.5953 -2.2989 -1.7058
  134MOL0     H18433   1.641   1.908   5.136 -1.7670 -2.2845  2.5470
  134MOL0     H18434   1.820   1.890   5.166 -0.3854 -1.2263  2.8458
  134MOL0     H18435   1.604   1.690   5.158 -0.8208  1.1882 -0.3320
  134MOL0     H18436   1.781   1.657   5.120  1.4902  2.2411  0.3448
  134MOL0     H18437   1.850   1.719   5.328  0.7797 -1.7631 -0.4882
  134MOL0     H18438   1.724   1.606   5.362 -2.0958 -1.7139 -1.7548
  134MOL0     H18439   1.712   1.838   5.512  1.8621  2.7861 -0.1472
  134MOL0     H18440   1.670   1.905   5.356 -0.1789 -1.2992 -0.8081
  134MOL0     H18441   1.424   1.880   5.283 -2.1394  0.8363  1.4115
  134MOL0     H18442   1.174   1.868   5.388 -1.9282 -0.3683 -1.6580
  134MOL0     H18443   1.131   1.713   5.455 -0.1986  1.5341  1.7807
  134MOL0     H18444   1.212   1.772   5.163 -0.2560 -0.7407 -0.3235
  134MOL0     H18445   1.197   1.608   5.216 -0.6792 -0.4688  0.6255
  134MOL0     H18446   0.976   1.812   5.239  0.0047 -1.4255  2.9173
  134MOL0     H18447   0.990   1.695   5.100 -0.9158 -2.0304  0.4949
  134MOL0     H18448   0.891   1.610   5.367  0.3364 -0.8498 -0.3533
  134MOL0     H18449   0.843   1.565   5.212  1.3694  0.3317 -0.2206
  134MOL0     H18450   1.175   1.304   5.360  0.2504 -0.0621  0.1257
  134MOL0     H18451   1.144   0.948   5.460  0.7277  0.5833  1.2967
  134MOL0     H18452   1.255   1.075   5.409 -0.5573  0.4681  0.5618
  134MOL0     H18453   1.173   0.973   5.285 -1.6707 -0.6961  0.5969
  134MOL0     H18454   0.633   0.813   5.636  0.6721  3.2357 -1.4402
  134MOL0     H18455   0.437   0.632   5.595 -1.0055 -1.0679 -2.1407
  134MOL0     H18456   0.313   0.612   5.159  0.4676 -2.1238 -0.8766
  134MOL0     H18457   0.318   0.462   5.245 -0.6734 -0.3267 -0.7366
  134MOL0     H18458   0.106   0.514   5.148 -0.8078 -1.5927  0.7355
  134MOL0     H18459   0.081   0.499   5.321  0.1340 -0.9004  0.4538
  134MOL0     H18460   0.130   0.763   5.166 -0.5600 -1.5606 -0.1409
  134MOL0     H18461   0.100   0.763   5.345  0.8669  1.6298 -0.7873
  134MOL0     H18462  -0.113   0.654   5.295  0.9742  0.5896  0.9830
  134MOL0     H18463  -0.087   0.695   5.119 -2.9140 -0.8568  0.4217
  134MOL0     H18464  -0.115   0.928   5.317  0.4706  0.7575  0.5283
  134MOL0     H18465  -0.061   0.918   5.158  1.0097 -2.3429 -0.9613
  134MOL0     H18466  -0.338   0.805   5.283 -1.2324  0.8161  0.7667
  134MOL0     H18467  -0.290   0.773   5.119  3.7458 -0.0804 -0.6472
  134MOL0     H18468  -0.310   1.036   5.084 -1.7091 -0.9280 -1.9723
  134MOL0     H18469  -0.303   1.053   5.259  1.3663 -0.9538  0.4737
  134MOL0     H18470  -0.541   0.954   5.080  2.8751 -0.6875 -0.5069
  134MOL0     H18471  -0.530   1.093   5.193  2.0985  1.0764  0.7916
  134MOL0     H18472   0.471   0.736   5.181 -1.2144 -2.6527  0.7736
  134MOL0     H18473   0.659   0.848   5.213 -0.6292  0.5560 -0.7311
  134MOL0     H18474   0.716   1.127   5.310  0.4755 -1.3579 -2.1920
  134MOL0     H18475   0.769   1.365   5.245  0.3115 -0.7836 -2.5629
  134MOL0     H18476   1.177   1.866   4.697 -1.7861  3.4128 -2.6104
  134MOL0     H18477   0.924   1.887   4.723 -3.1368  1.0317  3.4922
  134MOL0     H18478   0.665   2.057   5.123  0.5422  0.0079 -0.4820
  134MOL0     H18479   0.445   2.096   5.236  1.7750  2.6070 -0.0155
  134MOL0     H18480   0.083   2.059   4.981 -3.0179  2.6987 -1.3719
  134MOL0     H18481   0.040   2.030   5.153  4.1976 -0.9767  1.6686
  134MOL0     H18482   0.094   2.297   5.018  2.6961 -0.3536  0.3107
  134MOL0     H18483   0.052   2.283   5.192  0.0176 -0.3804 -0.2940
  134MOL0     H18484  -0.130   2.223   4.961 -0.3139  1.2497  0.1192
  134MOL0     H18485  -0.154   2.145   5.123 -1.4102  2.4268  4.2227
  134MOL0     H18486  -0.275   2.374   5.079  0.9565 -1.0115 -0.9844
  134MOL0     H18487  -0.113   2.443   5.076  2.1627  0.1182  1.1774
  134MOL0     H18488  -0.163   2.428   5.492 -0.4325 -0.6978  0.4202
  134MOL0     H18489   0.260   2.044   4.852  0.6660  3.6536 -2.6846
  134MOL0     H18490   0.517   1.951   4.667 -0.7293  0.4851 -2.3073
  134MOL0     H18491   0.375   2.049   4.671 -0.3497  0.6710  2.2340
  134MOL0     H18492   0.535   2.129   4.660  1.0625  0.7694  2.1249
  135MOL0     O18493   6.682   9.228   9.683 -1.0835 -0.1383  0.3991
  135MOL0     C18494   6.631   9.181   9.576  0.1243  0.9005 -0.3740
  135MOL0     O18495   6.690   9.189   9.458 -0.3320  0.4069 -0.1093
  135MOL0     C18496   6.818   9.241   9.461  0.4243 -1.5279 -0.2615
  135MOL0     C18497   6.841   9.374   9.436  0.7089  0.8598  0.0739
  135MOL0     C18498   6.971   9.423   9.423 -0.7120 -0.4413 -0.4067
  135MOL0     C18499   7.081   9.337   9.448 -0.9204  0.3709  0.7692
  135MOL0     O18500   7.208   9.386   9.441  0.4315  0.3229  0.3531
  135MOL0     C18501   7.298   9.347   9.541 -0.2656  0.0843  0.4317
  135MOL0     C18502   7.443   9.395   9.505  0.4858  0.5383  0.0067
  135MOL0     C18503   7.555   9.344   9.592 -0.5398  0.9236 -0.2718
  135MOL0     C18504   7.552   9.198   9.645  0.2533 -0.2879  0.7775
  135MOL0     C18505   7.688   9.144   9.693  0.1597  0.1008  0.9752
  135MOL0     C18506   7.682   8.988   9.716 -0.3983 -0.0844 -0.6779
  135MOL0     C18507   7.809   8.932   9.785  0.2131  0.3009  0.4450
  135MOL0     C18508   7.786   8.816   9.879 -0.0213  0.4219 -0.2460
  135MOL0     N18509   7.916   8.779   9.934 -0.2331 -0.1820 -0.5404
  135MOL0     C18510   7.967   8.813  10.056 -0.0939 -0.5292 -0.0324
  135MOL0     C18511   8.058   8.713  10.082  0.5586 -0.2233 -0.5889
  135MOL0     C18512   8.152   8.693  10.200  0.7616  0.3470 -0.6183
  135MOL0     C18513   8.272   8.786  10.178  0.9639  0.4300  0.1130
  135MOL0     C18514   8.357   8.749  10.059  0.4927  0.1415  0.0755
  135MOL0     C18515   8.396   8.597  10.046  0.5856 -0.1776 -0.5304
  135MOL0     O18516   8.415   8.541  10.177 -0.3861  0.0533  0.0474
  135MOL0     C18517   8.548   8.513  10.198 -0.8439  1.0246  0.3942
  135MOL0     C18518   8.615   8.580  10.303 -0.5112  0.2508  0.5182
  135MOL0     C18519   8.753   8.554  10.320  0.3594  0.4086 -0.8112
  135MOL0     C18520   8.833   8.627  10.423  0.0683 -1.1647 -1.2671
  135MOL0     C18521   8.816   8.451  10.245 -0.8929 -0.1680 -0.0084
  135MOL0     C18522   8.962   8.427  10.258  0.0168  0.0545 -0.5469
  135MOL0     O18523   8.999   8.345  10.375  0.2813 -0.2089  0.4033
  135MOL0     C18524   9.130   8.306  10.379 -0.0341  0.5239  0.4401
  135MOL0     C18525   9.149   8.177  10.424  1.1164 -0.8408  0.7898
  135MOL0     C18526   9.276   8.133  10.450 -0.0064 -0.2220  0.6864
  135MOL0     C18527   9.386   8.207  10.423  0.0801 -0.2970  0.0038
  135MOL0     O18528   9.504   8.152  10.462  0.2734  0.4180 -0.4128
  135MOL0     C18529   9.623   8.207  10.404 -0.0420  0.0303  0.5588
  135MOL0     C18530   9.683   8.135  10.293 -0.0284  0.3431  0.1102
  135MOL0     C18531   9.631   8.161  10.154  0.2370 -0.7874  0.1273
  135MOL0     C18532   9.700   8.080  10.043 -1.0275 -0.3398 -0.0158
  135MOL0     C18533   9.671   8.109   9.893  0.1435  0.3073  0.3844
  135MOL0     C18534   9.714   7.982   9.812  0.0818  0.0702  0.0607
  135MOL0     C18535   9.615   7.873   9.806  0.2709  0.8450 -0.5481
  135MOL0     C18536   9.662   7.758   9.714  0.0415 -0.1783 -1.1425
  135MOL0    Cl18537   9.788   7.645   9.791  0.2126  0.1827 -0.1170
  135MOL0     C18538   9.367   8.340  10.377  0.3637 -0.0399  0.2897
  135MOL0     C18539   9.238   8.388  10.350 -0.2796 -0.1616 -1.0745
  135MOL0     O18540   9.037   8.472  10.165  0.2942  0.3342  0.1068
  135MOL0     C18541   8.754   8.390  10.140  0.3242  0.9844  0.5893
  135MOL0     C18542   8.618   8.414  10.123 -0.5573 -0.3719  0.6779
  135MOL0     N18543   8.075   8.634   9.969  1.1453  0.8173  0.5454
  135MOL0     N18544   7.997   8.679   9.881  0.7099  0.4590 -0.1659
  135MOL0     C18545   7.053   9.201   9.484 -0.7095 -0.3933 -0.1361
  135MOL0     C18546   6.924   9.150   9.483 -0.2239 -0.6474  0.8116
  135MOL0     C18547   6.483   9.138   9.576  0.3574 -0.5628 -0.5930
  135MOL0     C18548   6.420   9.150   9.706 -0.6519  0.9308 -0.4926
  135MOL0     C18549   6.285   9.135   9.723 -0.2081  0.0964  0.1155
  135MOL0     C18550   6.196   9.104   9.613 -0.2773 -0.2876  0.1986
  135MOL0     O18551   6.062   9.099   9.628 -1.0972 -0.4199  0.3580
  135MOL0     C18552   5.973   9.142   9.520 -0.6499 -0.0944 -1.0033
  135MOL0     C18553   5.828   9.169   9.571 -0.1377 -0.2635 -0.6979
  135MOL0     C18554   5.826   9.309   9.635  0.4245  0.8233  0.1789
  135MOL0     C18555   5.919   9.325   9.759 -0.1915 -0.4247 -0.0089
  135MOL0     C18556   5.870   9.425   9.855  0.4076  0.6157 -0.4353
  135MOL0     C18557   5.822   9.505   9.937  0.2935 -0.1155 -0.0332
  135MOL0     C18558   6.256   9.103   9.482 -0.0606  0.5117 -0.4195
  135MOL0     C18559   6.398   9.116   9.465 -0.8286 -0.5310  0.5101
  135MOL0     C18560   6.447   9.110   9.320  0.5821 -1.2487  0.5409
  135MOL0     H18561   6.761   9.446   9.429  1.0017  1.5557  2.7275
  135MOL0     H18562   6.983   9.526   9.391  0.5030 -0.9648 -1.7243
  135MOL0     H18563   7.297   9.239   9.557 -0.7358 -0.5927 -3.3180
  135MOL0     H18564   7.277   9.390   9.640  0.5299 -1.1351  1.1673
  135MOL0     H18565   7.467   9.374   9.401 -0.9204  1.1028 -0.4506
  135MOL0     H18566   7.446   9.504   9.514 -0.2322  0.6842 -1.2907
  135MOL0     H18567   7.653   9.377   9.554  0.5705 -0.2273  1.4401
  135MOL0     H18568   7.546   9.404   9.682 -2.3960 -0.3880  0.4732
  135MOL0     H18569   7.486   9.182   9.732  1.0889 -2.1847  1.1149
  135MOL0     H18570   7.515   9.131   9.567  2.2616 -2.6791  1.7490
  135MOL0     H18571   7.729   9.207   9.773  2.6112 -0.1587 -0.0142
  135MOL0     H18572   7.761   9.161   9.613  0.7175 -0.3463  1.3811
  135MOL0     H18573   7.604   8.981   9.792  0.6684 -0.4745  0.4217
  135MOL0     H18574   7.660   8.945   9.618  1.5950  0.5131 -1.4438
  135MOL0     H18575   7.860   9.013   9.837 -3.0924  0.7438  3.3204
  135MOL0     H18576   7.872   8.897   9.702 -2.2049 -0.0255 -1.3802
  135MOL0     H18577   7.721   8.854   9.958  1.5082  1.7980  0.4178
  135MOL0     H18578   7.744   8.726   9.833 -0.4925  0.0351  0.8967
  135MOL0     H18579   7.942   8.893  10.126 -0.5187 -0.1152 -0.6516
  135MOL0     H18580   8.164   8.584  10.203 -0.2691  0.2349 -0.0651
  135MOL0     H18581   8.099   8.732  10.287  0.8418  3.1829 -1.7652
  135MOL0     H18582   8.224   8.882  10.157  0.2319 -0.0858 -0.6275
  135MOL0     H18583   8.338   8.782  10.264 -0.4221 -2.4406  1.1642
  135MOL0     H18584   8.313   8.786   9.966  1.0767  0.1061 -0.2192
  135MOL0     H18585   8.447   8.810  10.071  0.7036 -0.2090  0.2879
  135MOL0     H18586   8.310   8.548   9.999 -0.0776  1.3984 -1.0221
  135MOL0     H18587   8.488   8.595   9.986  1.0370  0.7414  0.1039
  135MOL0     H18588   8.556   8.653  10.358 -2.0846 -0.6643  0.1149
  135MOL0     H18589   8.915   8.683  10.377 -1.2386  2.2720  0.1996
  135MOL0     H18590   8.870   8.555  10.497  1.1483  0.9790  0.4168
  135MOL0     H18591   8.774   8.704  10.475  0.6883 -1.2649 -0.3899
  135MOL0     H18592   9.058   8.121  10.446  1.6012 -1.5258  1.0926
  135MOL0     H18593   9.278   8.038  10.502 -0.9243  0.2065  1.5496
  135MOL0     H18594   9.614   8.314  10.381  2.9773  1.1186  3.5450
  135MOL0     H18595   9.689   8.203  10.492 -1.1072 -0.3544  1.3550
  135MOL0     H18596   9.787   8.170  10.287  0.5089 -1.0735  0.7825
  135MOL0     H18597   9.688   8.029  10.316 -1.2179  0.5867  1.6341
  135MOL0     H18598   9.636   8.267  10.124  0.0717 -1.0312 -0.8079
  135MOL0     H18599   9.523   8.144  10.150  0.2025 -0.4745 -0.5308
  135MOL0     H18600   9.657   7.981  10.063 -2.3257 -0.1612 -1.7010
  135MOL0     H18601   9.806   8.078  10.070 -1.0014  0.3414 -0.0545
  135MOL0     H18602   9.570   8.126   9.855  1.7714  1.1603 -4.2780
  135MOL0     H18603   9.724   8.202   9.870  0.7349 -0.0047  0.4438
  135MOL0     H18604   9.806   7.940   9.853  0.1814 -0.9837 -1.2054
  135MOL0     H18605   9.734   8.007   9.708  1.7561 -2.4468 -0.3228
  135MOL0     H18606   9.521   7.898   9.756  1.6170 -0.6690 -4.1272
  135MOL0     H18607   9.592   7.838   9.907  1.6708  1.1861 -0.0881
  135MOL0     H18608   9.698   7.804   9.621  0.7568  2.1358  0.1980
  135MOL0     H18609   9.569   7.707   9.687 -0.1770  0.9669 -2.6913
  135MOL0     H18610   9.450   8.403  10.346  1.6992 -2.3069 -0.9304
  135MOL0     H18611   9.228   8.484  10.301  0.4278 -0.3905 -1.6849
  135MOL0     H18612   8.805   8.311  10.086 -0.0595  0.8920  0.3558
  135MOL0     H18613   8.567   8.353  10.049  2.8541 -1.0198 -1.3563
  135MOL0     H18614   7.131   9.127   9.503 -1.3755 -0.9446  0.5429
  135MOL0     H18615   6.901   9.049   9.515  0.7647 -1.0420  0.3022
  135MOL0     H18616   6.478   9.171   9.795  0.8130 -2.5961 -0.4597
  135MOL0     H18617   6.237   9.160   9.817 -0.5766  0.4695 -0.1736
  135MOL0     H18618   6.003   9.226   9.457 -1.1355 -0.0049 -1.1170
  135MOL0     H18619   5.969   9.054   9.455 -1.6043 -0.0582 -0.9989
  135MOL0     H18620   5.786   9.094   9.639 -1.4141  2.4261  1.6816
  135MOL0     H18621   5.756   9.171   9.489 -0.6223 -0.5469 -0.2901
  135MOL0     H18622   5.842   9.378   9.551 -2.5833  0.1742 -1.0468
  135MOL0     H18623   5.725   9.318   9.675  0.8181 -0.6475  1.6119
  135MOL0     H18624   6.014   9.359   9.717  0.0330  2.6273  2.5486
  135MOL0     H18625   5.921   9.228   9.809 -2.0450 -0.5399 -0.0667
  135MOL0     H18626   5.788   9.585  10.000 -1.7462  0.0168 -1.2090
  135MOL0     H18627   6.195   9.083   9.395  2.2799 -5.1156 -1.2028
  135MOL0     H18628   6.476   9.210   9.285 -0.0808 -1.4713 -0.6721
  135MOL0     H18629   6.533   9.046   9.303  0.7290 -0.8605 -0.2130
  135MOL0     H18630   6.370   9.078   9.250 -0.1025  0.7839  0.2871
  136MOL0     O18631   8.188   9.364  10.612 -0.6664 -0.4109  0.0089
  136MOL0     C18632   8.093   9.351  10.682 -0.0583 -0.8476  0.1184
  136MOL0     O18633   8.088   9.341  10.819  0.4546 -0.5093  0.2517
  136MOL0     C18634   8.198   9.371  10.902 -0.4481  0.4642 -0.3267
  136MOL0     C18635   8.294   9.477  10.891  0.4499 -0.2794  0.2799
  136MOL0     C18636   8.390   9.495  10.986 -0.5264 -0.1257 -0.2407
  136MOL0     C18637   8.394   9.413  11.106 -0.9617  0.1569  0.7733
  136MOL0     O18638   8.487   9.442  11.202 -0.8294 -0.3383  0.4549
  136MOL0     C18639   8.478   9.420  11.345  0.0710 -0.1888 -0.2216
  136MOL0     C18640   8.599   9.487  11.406  0.7265  0.3616  0.0852
  136MOL0     C18641   8.551   9.627  11.441  0.5618 -0.8263  0.3364
  136MOL0     C18642   8.669   9.711  11.496 -0.0448 -0.6300  0.0625
  136MOL0     C18643   8.625   9.836  11.584 -0.5900 -0.1332 -0.6085
  136MOL0     C18644   8.744   9.900  11.662  0.2633 -0.0882  0.3236
  136MOL0     C18645   8.689  10.027  11.735 -0.9448 -0.0162 -0.1417
  136MOL0     C18646   8.805  10.114  11.787  1.6572  0.3674 -0.0502
  136MOL0     N18647   8.867  10.059  11.904 -0.6509  0.9630 -0.5813
  136MOL0     C18648   8.810  10.047  12.033 -0.9961  0.4564 -0.2175
  136MOL0     C18649   8.913  10.002  12.106 -0.0469  1.0656 -0.3349
  136MOL0     C18650   8.916   9.961  12.254  0.0183  0.0234 -0.4662
  136MOL0     C18651   9.029  10.050  12.322  0.5837  0.2851  0.3896
  136MOL0     C18652   9.067   9.999  12.457 -0.1041 -1.4794 -0.2250
  136MOL0     C18653   9.153  10.110  12.533 -0.4523 -0.1518  0.1377
  136MOL0     O18654   9.193  10.067  12.658 -0.4650  0.4360 -1.4600
  136MOL0     C18655   9.093  10.055  12.758 -0.0404  0.1552  0.6040
  136MOL0     C18656   9.091   9.938  12.831  0.2998  0.2723  0.3525
  136MOL0     C18657   8.983   9.914  12.919  0.1484  0.8993 -0.8133
  136MOL0     C18658   8.975   9.774  12.975  0.6766  1.0557  0.4960
  136MOL0     C18659   8.880  10.015  12.938 -1.2228 -0.0098 -0.2612
  136MOL0     C18660   8.757   9.991  13.021 -0.2996 -0.1944 -0.0655
  136MOL0     O18661   8.698   9.863  13.027 -0.6105  0.0145 -0.1504
  136MOL0     C18662   8.574   9.867  13.085 -0.4063 -0.3414 -0.0150
  136MOL0     C18663   8.467   9.941  13.026  0.8522  0.6502  0.3445
  136MOL0     C18664   8.334   9.943  13.067 -0.0635 -0.1561 -0.0737
  136MOL0     C18665   8.313   9.869  13.182  0.3945  0.2817 -0.5809
  136MOL0     O18666   8.189   9.854  13.233  0.0455 -0.0826 -0.3211
  136MOL0     C18667   8.073   9.902  13.169  0.6234 -0.4506 -0.1947
  136MOL0     C18668   7.952   9.853  13.247  0.9986 -0.2276 -0.4235
  136MOL0     C18669   7.828   9.913  13.181  0.2795 -0.2128  0.0762
  136MOL0     C18670   7.694   9.873  13.236  0.7853  1.1613  0.1289
  136MOL0     C18671   7.557   9.922  13.166 -1.0266 -0.0748 -0.0303
  136MOL0     C18672   7.569  10.074  13.125 -0.0246  0.6799  0.5975
  136MOL0     C18673   7.573  10.172  13.246 -0.7616  0.2993  0.3948
  136MOL0     C18674   7.438  10.199  13.318 -0.2370  0.2402  0.3944
  136MOL0    Cl18675   7.453  10.306  13.465 -0.0434  0.2192 -0.4118
  136MOL0     C18676   8.414   9.808  13.254 -0.1981  0.5354 -0.2103
  136MOL0     C18677   8.546   9.797  13.202  0.3498 -0.0123  0.2173
  136MOL0     O18678   8.710  10.096  13.070 -0.4122  0.1265 -0.0333
  136MOL0     C18679   8.892  10.136  12.876  0.5940  0.0471  0.2718
  136MOL0     C18680   8.997  10.155  12.788 -0.3012 -0.0846  0.2175
  136MOL0     N18681   9.013   9.959  12.021 -0.1286  0.0357  1.1267
  136MOL0     N18682   8.984  10.000  11.899  0.8057 -0.2018 -0.2636
  136MOL0     C18683   8.309   9.301  11.108  0.9777 -0.6752  0.7491
  136MOL0     C18684   8.210   9.283  11.007 -0.2675  0.3254  0.1585
  136MOL0     C18685   7.955   9.354  10.622 -0.8626  0.3973 -0.1822
  136MOL0     C18686   7.850   9.411  10.699  0.0351  0.0544 -0.2804
  136MOL0     C18687   7.721   9.411  10.651 -0.3173  0.4864  0.4895
  136MOL0     C18688   7.689   9.348  10.529 -0.4503 -0.1337 -0.1502
  136MOL0     O18689   7.558   9.341  10.496  0.8651  0.2331  0.2528
  136MOL0     C18690   7.509   9.300  10.374  0.6121  0.0330  0.1958
  136MOL0     C18691   7.377   9.380  10.338 -0.1490  0.4805 -0.0674
  136MOL0     C18692   7.374   9.532  10.312 -0.3967  0.2257 -0.0779
  136MOL0     C18693   7.386   9.612  10.442 -1.1149  0.6185 -0.0202
  136MOL0     C18694   7.351   9.753  10.434  0.5118 -0.3645  0.6981
  136MOL0     C18695   7.318   9.867  10.409  0.4139  0.5043 -0.5206
  136MOL0     C18696   7.794   9.293  10.451 -0.8252 -1.1433  0.4825
  136MOL0     C18697   7.930   9.299  10.494  0.3303  0.6084 -0.5561
  136MOL0     C18698   8.040   9.239  10.415 -0.0713 -0.6774  0.0587
  136MOL0     H18699   8.282   9.539  10.803 -2.1396 -0.7617  0.2109
  136MOL0     H18700   8.463   9.573  10.970 -1.4812  0.4173 -2.1333
  136MOL0     H18701   8.485   9.312  11.361 -3.5392 -0.2566  2.0183
  136MOL0     H18702   8.378   9.449  11.378 -0.3813 -0.3665 -1.3856
  136MOL0     H18703   8.631   9.438  11.499  3.8194  0.4331 -0.8259
  136MOL0     H18704   8.684   9.474  11.338  0.2015 -0.2181 -0.4723
  136MOL0     H18705   8.503   9.684  11.361 -0.5953 -0.0380  1.5523
  136MOL0     H18706   8.469   9.623  11.513  0.6007  1.5159  0.5718
  136MOL0     H18707   8.740   9.661  11.563  1.7994  2.1413  0.3842
  136MOL0     H18708   8.717   9.737  11.401 -2.2680 -0.6089 -1.1127
  136MOL0     H18709   8.547   9.815  11.658 -0.0918 -4.2216 -1.0395
  136MOL0     H18710   8.594   9.914  11.513  2.7468  0.0224 -2.0870
  136MOL0     H18711   8.793   9.832  11.732  3.0500 -0.6599 -1.9969
  136MOL0     H18712   8.820   9.926  11.588  2.4544  1.4033  2.9324
  136MOL0     H18713   8.623  10.007  11.820 -2.1001  1.0993 -0.7304
  136MOL0     H18714   8.625  10.088  11.670 -2.0028 -0.6999  0.2289
  136MOL0     H18715   8.879  10.132  11.708  1.0766  3.1869 -0.0337
  136MOL0     H18716   8.760  10.207  11.822  2.3757  0.2087  1.3565
  136MOL0     H18717   8.709  10.076  12.059 -2.9447 -2.8215 -3.3380
  136MOL0     H18718   8.960   9.861  12.252 -1.2462 -0.6098  0.7899
  136MOL0     H18719   8.822   9.965  12.310 -0.3508  1.0085 -1.1220
  136MOL0     H18720   9.122  10.041  12.266  0.3065 -0.4230  0.0225
  136MOL0     H18721   8.991  10.152  12.336 -1.9162 -0.5533  0.1705
  136MOL0     H18722   8.978   9.982  12.518 -0.5810  0.4415 -0.3306
  136MOL0     H18723   9.118   9.902  12.448 -0.3852 -1.7157  0.6490
  136MOL0     H18724   9.249  10.137  12.490  1.9235 -1.2407  4.1933
  136MOL0     H18725   9.097  10.204  12.533 -2.9314 -1.4570  2.6578
  136MOL0     H18726   9.181   9.877  12.823  0.1764  0.2616 -1.2059
  136MOL0     H18727   8.886   9.721  12.941  0.6341  0.5794  1.3317
  136MOL0     H18728   8.965   9.781  13.083 -0.0564  0.3265  0.4779
  136MOL0     H18729   9.069   9.718  12.970  0.7629  0.7108  3.9226
  136MOL0     H18730   8.486   9.989  12.931  0.7014 -3.4247 -2.0140
  136MOL0     H18731   8.267  10.007  13.011 -0.7612  0.7125  1.6611
  136MOL0     H18732   8.071  10.011  13.162 -3.1378 -0.4669 -2.0331
  136MOL0     H18733   8.075   9.858  13.069  3.4693 -0.1966 -0.3312
  136MOL0     H18734   7.945   9.744  13.242  2.0885 -0.6113  3.4244
  136MOL0     H18735   7.956   9.886  13.351 -3.6281 -1.9653  0.5018
  136MOL0     H18736   7.845   9.888  13.076 -1.8768  2.1264 -0.9313
  136MOL0     H18737   7.833  10.022  13.172  0.5487 -0.3855 -3.0708
  136MOL0     H18738   7.687   9.909  13.339  2.0332  0.6268  0.4080
  136MOL0     H18739   7.687   9.764  13.234 -3.4600  1.2475 -1.5055
  136MOL0     H18740   7.535   9.863  13.077 -1.2460 -3.5381  2.1623
  136MOL0     H18741   7.471   9.911  13.232 -1.3802  0.7784 -0.3248
  136MOL0     H18742   7.481  10.116  13.075  1.4547  4.4562  0.8374
  136MOL0     H18743   7.650  10.092  13.054  2.6696  1.9327  3.7208
  136MOL0     H18744   7.622  10.263  13.212  0.9789 -0.8480 -0.3204
  136MOL0     H18745   7.644  10.128  13.316 -1.3349 -0.7007  0.3815
  136MOL0     H18746   7.395  10.104  13.351  1.0697 -0.8592 -0.9491
  136MOL0     H18747   7.367  10.244  13.247 -0.2302 -1.4209 -0.7270
  136MOL0     H18748   8.391   9.774  13.355  0.0501 -2.5639 -1.1208
  136MOL0     H18749   8.626   9.744  13.252 -0.4569  0.7009  2.3608
  136MOL0     H18750   8.823  10.218  12.896 -0.2685 -0.4019 -0.7812
  136MOL0     H18751   8.989  10.250  12.738  0.9816 -0.6623 -1.1640
  136MOL0     H18752   8.307   9.229  11.190 -1.0256 -0.8314  0.6176
  136MOL0     H18753   8.148   9.195  11.012  1.4777 -1.1436 -1.9857
  136MOL0     H18754   7.879   9.469  10.787 -0.5989 -1.9794  1.3399
  136MOL0     H18755   7.639   9.446  10.712 -1.5110 -0.1284 -0.6975
  136MOL0     H18756   7.578   9.310  10.290 -1.1262  2.1912 -1.1094
  136MOL0     H18757   7.486   9.196  10.398  2.0559  0.7111  6.4400
  136MOL0     H18758   7.309   9.359  10.421 -1.2078 -2.0362 -1.4413
  136MOL0     H18759   7.327   9.330  10.254 -2.7147  1.6759  0.6333
  136MOL0     H18760   7.450   9.556  10.238 -1.9383  0.0442 -1.7767
  136MOL0     H18761   7.277   9.546  10.263  0.1005 -1.4238 -1.6624
  136MOL0     H18762   7.483   9.596  10.491 -0.9708  0.9189 -0.2091
  136MOL0     H18763   7.322   9.576  10.524  1.7925  0.6789  2.4668
  136MOL0     H18764   7.284   9.969  10.410  0.2938  0.4814 -1.3732
  136MOL0     H18765   7.765   9.249  10.357 -1.1537  1.6703 -0.8456
  136MOL0     H18766   8.118   9.312  10.391 -1.1441 -0.2156 -2.3078
  136MOL0     H18767   8.084   9.153  10.466  1.8936  0.4408  0.3284
  136MOL0     H18768   8.000   9.203  10.320 -0.7511  0.0927  0.0448
  137MOL0     O18769   8.860   2.977   8.536 -0.2434 -0.1990  0.7681
  137MOL0     C18770   8.974   3.015   8.573  0.1984 -0.9371 -0.6587
  137MOL0     O18771   8.999   3.148   8.610 -0.1977 -0.3935 -0.4513
  137MOL0     C18772   8.900   3.232   8.640 -0.0386  0.2185 -0.1867
  137MOL0     C18773   8.789   3.196   8.710  0.3885 -0.4272 -0.4539
  137MOL0     C18774   8.692   3.295   8.738 -0.5990 -0.3277 -0.3244
  137MOL0     C18775   8.715   3.431   8.706 -0.0249  0.2583 -0.3166
  137MOL0     O18776   8.635   3.537   8.736  0.2284  0.1317 -0.5691
  137MOL0     C18777   8.511   3.508   8.662  0.0429  0.3175  0.6457
  137MOL0     C18778   8.409   3.621   8.692 -0.7510 -0.1063  0.9647
  137MOL0     C18779   8.347   3.616   8.835 -0.5274 -0.1459  0.3299
  137MOL0     C18780   8.325   3.763   8.884  0.3982 -0.3740 -0.2371
  137MOL0     C18781   8.262   3.763   9.025  0.5604  0.2842 -0.4009
  137MOL0     C18782   8.123   3.704   9.036 -0.2836  0.0446 -0.3351
  137MOL0     C18783   8.059   3.758   9.161 -0.2601 -0.8104 -0.6442
  137MOL0     C18784   8.128   3.769   9.289 -0.0667  0.1785 -0.8234
  137MOL0     N18785   8.137   3.634   9.345  0.0594  0.0194 -1.5640
  137MOL0     C18786   8.230   3.532   9.324 -0.0320 -0.4446 -0.4032
  137MOL0     C18787   8.193   3.428   9.404 -0.3656  0.0525 -0.6164
  137MOL0     C18788   8.261   3.294   9.422 -0.4652 -0.3059 -0.8316
  137MOL0     C18789   8.330   3.288   9.559 -0.7302 -0.7141  0.3987
  137MOL0     C18790   8.482   3.307   9.570  0.0993 -0.8340 -0.9141
  137MOL0     C18791   8.549   3.300   9.708  0.4389 -0.0071 -0.7003
  137MOL0     O18792   8.685   3.354   9.693  0.1554 -0.4127  0.2530
  137MOL0     C18793   8.782   3.300   9.766  0.0108  0.1929 -0.9230
  137MOL0     C18794   8.781   3.309   9.907  0.3643  0.0477  0.5237
  137MOL0     C18795   8.881   3.261   9.988 -0.5439 -0.4106 -0.7252
  137MOL0     C18796   8.870   3.294  10.133 -0.4781  0.3808  0.0585
  137MOL0     C18797   8.987   3.190   9.940 -0.0599  0.1526  0.4494
  137MOL0     C18798   9.106   3.133  10.017  0.2605  0.4595  0.1617
  137MOL0     O18799   9.220   3.119   9.946  0.1589 -0.6234  0.0230
  137MOL0     C18800   9.333   3.066  10.006 -0.5277  0.3535  0.4566
  137MOL0     C18801   9.367   2.924   9.985 -0.1721 -0.6964  0.4223
  137MOL0     C18802   9.487   2.874  10.044  0.3897 -0.0682 -0.3726
  137MOL0     C18803   9.585   2.951  10.110 -0.2862 -0.5968 -0.1987
  137MOL0     O18804   9.707   2.889  10.139  0.2760  0.1778  0.1727
  137MOL0     C18805   9.817   2.961  10.190 -0.4045  0.9726 -0.5713
  137MOL0     C18806   9.931   2.860  10.225 -1.0383  0.8814  0.0667
  137MOL0     C18807  10.017   2.838  10.099  0.0597 -0.1837 -0.2217
  137MOL0     C18808  10.117   2.726  10.131 -0.7932  0.4939 -0.3590
  137MOL0     C18809  10.186   2.686   9.994 -0.4935 -0.0565  0.7758
  137MOL0     C18810  10.280   2.566  10.010  0.7942  0.2552 -0.1007
  137MOL0     C18811  10.356   2.522   9.883  0.1325 -0.1069  0.1111
  137MOL0     C18812  10.492   2.469   9.917 -0.3927 -0.4973  0.2813
  137MOL0    Cl18813  10.604   2.479   9.772  0.0326  0.3069 -0.3649
  137MOL0     C18814   9.558   3.085  10.126 -0.0485 -0.8386  0.3358
  137MOL0     C18815   9.432   3.140  10.082 -0.3902 -0.3876  0.5428
  137MOL0     O18816   9.097   3.099  10.141 -0.6000 -0.0340  0.3149
  137MOL0     C18817   8.991   3.182   9.794 -0.2984 -0.1656  0.1213
  137MOL0     C18818   8.896   3.239   9.715 -0.0869 -0.5952  0.3073
  137MOL0     N18819   8.086   3.463   9.474  0.1601 -0.9065 -0.3759
  137MOL0     N18820   8.047   3.588   9.440  0.1553  0.7918  0.4035
  137MOL0     C18821   8.841   3.466   8.650 -0.9822 -0.0267  1.5009
  137MOL0     C18822   8.930   3.363   8.609 -0.1711 -0.4254 -0.0797
  137MOL0     C18823   9.085   2.907   8.579  0.0446  0.5491  0.2624
  137MOL0     C18824   9.044   2.769   8.604  0.0056 -0.4416 -0.1107
  137MOL0     C18825   9.139   2.671   8.610  0.2225 -0.3203  0.6553
  137MOL0     C18826   9.270   2.706   8.604  0.3416 -0.1659 -0.3563
  137MOL0     O18827   9.368   2.611   8.624 -0.0077 -0.8016 -0.8268
  137MOL0     C18828   9.369   2.550   8.753 -0.5594  0.4376 -0.0923
  137MOL0     C18829   9.520   2.529   8.799 -0.8344 -0.3523 -0.5039
  137MOL0     C18830   9.586   2.443   8.688 -0.5350 -0.2132 -1.1253
  137MOL0     C18831   9.717   2.403   8.736  0.8081  0.1773 -0.2111
  137MOL0     C18832   9.812   2.506   8.783  0.6869  0.8863 -0.3409
  137MOL0     C18833   9.890   2.599   8.799 -0.1095 -0.4567 -0.1504
  137MOL0     C18834   9.318   2.829   8.570 -0.0057 -0.6747  0.5125
  137MOL0     C18835   9.225   2.930   8.555  0.0612 -0.1506 -0.8815
  137MOL0     C18836   9.272   3.067   8.509  0.0271 -0.4268 -0.0368
  137MOL0     H18837   8.758   3.098   8.744 -1.7904 -0.3821 -2.0364
  137MOL0     H18838   8.610   3.279   8.806 -1.3264  3.1225 -0.2143
  137MOL0     H18839   8.480   3.404   8.678  4.3822 -1.0148  1.6607
  137MOL0     H18840   8.532   3.520   8.555  2.0589 -1.7532  0.7188
  137MOL0     H18841   8.469   3.710   8.671  3.3503 -2.3330  2.2938
  137MOL0     H18842   8.318   3.626   8.631 -1.0453  2.8032  1.4723
  137MOL0     H18843   8.253   3.560   8.834 -1.1355  0.4621  4.6807
  137MOL0     H18844   8.416   3.563   8.901  1.2124  1.3193 -0.2217
  137MOL0     H18845   8.426   3.803   8.896  0.1145 -0.3881  3.7487
  137MOL0     H18846   8.257   3.806   8.810 -2.0727 -3.4252  0.0457
  137MOL0     H18847   8.246   3.867   9.055 -1.6641 -0.2459  0.3865
  137MOL0     H18848   8.323   3.720   9.105 -0.3585  1.5379  1.0320
  137MOL0     H18849   8.072   3.735   8.945  1.1897  2.8566 -0.3085
  137MOL0     H18850   8.121   3.594   9.035  0.3777  0.0270 -0.8002
  137MOL0     H18851   7.964   3.706   9.172  0.7701 -3.0567 -1.7325
  137MOL0     H18852   8.022   3.859   9.140 -3.6869 -2.0318 -1.1381
  137MOL0     H18853   8.228   3.813   9.285 -0.2670  0.7970  0.4212
  137MOL0     H18854   8.072   3.827   9.364  0.1618 -0.6900  0.0362
  137MOL0     H18855   8.316   3.537   9.257  0.9735 -0.4744  0.8508
  137MOL0     H18856   8.345   3.286   9.351  1.0162  0.5784  0.7365
  137MOL0     H18857   8.179   3.221   9.420 -0.2740 -0.6083  0.9300
  137MOL0     H18858   8.287   3.347   9.641  0.0648 -0.3366  0.5485
  137MOL0     H18859   8.316   3.180   9.571 -0.2481 -0.8832 -0.4709
  137MOL0     H18860   8.529   3.229   9.510  2.1853  0.2381 -0.7889
  137MOL0     H18861   8.501   3.408   9.532 -1.3146 -0.1984 -0.0071
  137MOL0     H18862   8.484   3.352   9.780  3.7351  1.5585  1.3534
  137MOL0     H18863   8.556   3.197   9.744 -3.1175 -0.3503 -0.6127
  137MOL0     H18864   8.685   3.347   9.939  0.1297  0.7204 -0.9345
  137MOL0     H18865   8.789   3.366  10.143 -0.0176  0.6531  2.7651
  137MOL0     H18866   8.964   3.338  10.169 -0.2641 -1.5473  2.0503
  137MOL0     H18867   8.849   3.211  10.201 -1.1982  1.0583  0.6819
  137MOL0     H18868   9.304   2.873   9.914 -2.1818  0.7788  1.0366
  137MOL0     H18869   9.511   2.780   9.996 -0.7193  0.5172 -2.1774
  137MOL0     H18870   9.849   3.042  10.123  0.2390 -0.2516 -1.8019
  137MOL0     H18871   9.788   3.011  10.282  0.1988 -0.3755  0.3889
  137MOL0     H18872   9.998   2.901  10.300 -0.6342  1.6341 -0.6894
  137MOL0     H18873   9.890   2.765  10.261  1.4261 -0.0674  0.5484
  137MOL0     H18874  10.072   2.924  10.062  0.5631 -1.0830 -1.6756
  137MOL0     H18875   9.954   2.811  10.013 -0.2110 -0.8233  0.1712
  137MOL0     H18876  10.070   2.635  10.168  3.3183 -0.5252  3.1252
  137MOL0     H18877  10.193   2.757  10.203  1.4198 -2.2076 -1.3280
  137MOL0     H18878  10.116   2.644   9.921  1.9739  0.2234 -1.9361
  137MOL0     H18879  10.228   2.773   9.942 -3.2441 -0.3825 -2.3181
  137MOL0     H18880  10.228   2.477  10.048 -0.0648  1.9449  3.0260
  137MOL0     H18881  10.348   2.596  10.091  0.4630 -1.4229  0.8519
  137MOL0     H18882  10.362   2.604   9.811  0.9151 -0.1698  0.1037
  137MOL0     H18883  10.303   2.443   9.828  0.5060  2.3473 -4.2236
  137MOL0     H18884  10.495   2.374   9.973 -1.0670  0.0011  1.1846
  137MOL0     H18885  10.530   2.542   9.988  0.5197  0.2208 -0.9139
  137MOL0     H18886   9.620   3.150  10.186 -1.1444 -1.2985  2.0352
  137MOL0     H18887   9.409   3.244  10.105  1.7045  0.3461 -0.3912
  137MOL0     H18888   9.080   3.146   9.744  2.0095  3.8898  0.8821
  137MOL0     H18889   8.908   3.232   9.607 -1.8154 -2.0731  0.1643
  137MOL0     H18890   8.854   3.571   8.624  1.7379 -0.5236  0.5579
  137MOL0     H18891   9.024   3.373   8.555 -0.6561 -2.2019 -1.3296
  137MOL0     H18892   8.937   2.755   8.613 -0.7000  2.1663 -2.6486
  137MOL0     H18893   9.109   2.568   8.628 -0.8890 -0.0049  0.6675
  137MOL0     H18894   9.325   2.603   8.838 -0.8072  2.0923 -1.2142
  137MOL0     H18895   9.312   2.457   8.746 -2.7714  1.3918  2.9773
  137MOL0     H18896   9.528   2.475   8.894 -1.4216  0.6877  0.1437
  137MOL0     H18897   9.560   2.630   8.811 -1.9707  0.1768 -1.0472
  137MOL0     H18898   9.534   2.356   8.647 -1.1082  0.5364 -2.0167
  137MOL0     H18899   9.611   2.516   8.611  1.1364 -0.8363 -1.2117
  137MOL0     H18900   9.767   2.363   8.647 -0.1893 -1.5124 -0.0675
  137MOL0     H18901   9.711   2.321   8.808  0.1278  1.4779  1.2609
  137MOL0     H18902   9.971   2.669   8.792  1.3794 -2.2330 -1.9032
  137MOL0     H18903   9.423   2.854   8.561 -0.2545 -0.2984 -2.5405
  137MOL0     H18904   9.274   3.132   8.597  2.9539 -0.3834 -0.0457
  137MOL0     H18905   9.363   3.061   8.449 -0.6390 -0.6782 -1.0480
  137MOL0     H18906   9.193   3.102   8.442 -0.4937 -4.3664 -1.7607
  138MOL0     O18907   3.357   5.893   5.481  0.0401 -0.1841 -0.2037
  138MOL0     C18908   3.468   5.845   5.485  0.2105  0.1686 -0.7137
  138MOL0     O18909   3.582   5.911   5.505  0.0347 -0.5093  0.4083
  138MOL0     C18910   3.589   6.051   5.520 -0.1592  0.0506  0.1796
  138MOL0     C18911   3.705   6.099   5.591  0.8550 -0.4831  0.2358
  138MOL0     C18912   3.723   6.235   5.616 -0.2178 -0.4139 -0.1756
  138MOL0     C18913   3.635   6.332   5.563  0.0024 -0.1195 -0.3059
  138MOL0     O18914   3.636   6.470   5.597 -0.8756 -0.3215 -0.5618
  138MOL0     C18915   3.749   6.517   5.670  0.0925  1.3334 -0.1774
  138MOL0     C18916   3.740   6.666   5.695 -0.6691  0.7002  0.6348
  138MOL0     C18917   3.742   6.748   5.567 -0.3414  0.6095 -0.3658
  138MOL0     C18918   3.652   6.870   5.574 -0.7739  0.5988  0.5367
  138MOL0     C18919   3.710   6.972   5.671  0.0176  0.4283 -0.2732
  138MOL0     C18920   3.598   7.068   5.709 -0.4996 -0.9065 -0.6117
  138MOL0     C18921   3.647   7.191   5.790  0.2988 -0.2425 -0.5791
  138MOL0     C18922   3.786   7.199   5.860  0.0078  0.0630  0.1008
  138MOL0     N18923   3.794   7.316   5.938  1.5199  0.1942  0.0985
  138MOL0     C18924   3.859   7.425   5.883  0.5037  0.6023  0.1989
  138MOL0     C18925   3.872   7.512   5.981  0.3870  0.4638  0.0017
  138MOL0     C18926   3.922   7.650   5.972  0.5454 -0.5430  0.2603
  138MOL0     C18927   4.032   7.667   6.057 -0.2569 -0.2066 -0.4830
  138MOL0     C18928   4.106   7.797   6.052 -0.1757 -0.4611 -0.0401
  138MOL0     C18929   4.234   7.778   6.137 -0.1887  0.5945  0.2867
  138MOL0     O18930   4.312   7.904   6.148  0.8242  0.2545 -0.6447
  138MOL0     C18931   4.425   7.910   6.225  0.3337  0.6478  0.8770
  138MOL0     C18932   4.462   7.797   6.308 -0.3264 -0.7294 -0.6011
  138MOL0     C18933   4.580   7.806   6.388  0.2778 -1.1970 -0.6332
  138MOL0     C18934   4.597   7.699   6.490 -0.0703 -0.2919  0.2718
  138MOL0     C18935   4.660   7.929   6.376 -0.2672  0.5645 -0.0455
  138MOL0     C18936   4.776   7.957   6.467  0.3894  0.1583  0.2481
  138MOL0     O18937   4.864   8.052   6.421 -0.5397  0.1048  0.6340
  138MOL0     C18938   4.958   8.109   6.514  0.8235  0.3536  0.5318
  138MOL0     C18939   5.071   8.039   6.551  1.0811 -0.2486  0.0781
  138MOL0     C18940   5.162   8.081   6.646  0.4661  0.3541 -0.0693
  138MOL0     C18941   5.140   8.195   6.722 -1.0259 -0.0254  0.3710
  138MOL0     O18942   5.234   8.236   6.817  0.2500 -0.6843 -0.2488
  138MOL0     C18943   5.306   8.147   6.906  0.4537 -0.2737  0.0160
  138MOL0     C18944   5.409   8.212   6.992  0.0580 -0.3451 -0.5431
  138MOL0     C18945   5.492   8.315   6.913  0.2958 -0.6878  0.0289
  138MOL0     C18946   5.612   8.247   6.829 -0.3492 -0.2955 -0.2471
  138MOL0     C18947   5.707   8.332   6.750 -0.6913 -0.2920 -0.1060
  138MOL0     C18948   5.831   8.257   6.692 -0.0954  0.2352  0.7887
  138MOL0     C18949   5.787   8.170   6.570  0.7754 -0.1769  0.0410
  138MOL0     C18950   5.902   8.094   6.496  0.3914  0.1408  0.0749
  138MOL0    Cl18951   6.026   8.202   6.439 -0.2700  0.0314 -0.4568
  138MOL0     C18952   5.039   8.278   6.667 -0.3814 -0.2743 -0.0797
  138MOL0     C18953   4.949   8.240   6.570  0.6623 -0.2271 -0.3139
  138MOL0     O18954   4.788   7.902   6.580  0.0446  0.6142  0.0542
  138MOL0     C18955   4.621   8.035   6.296 -0.2922 -0.5874  0.0762
  138MOL0     C18956   4.511   8.019   6.212  0.2747 -0.3578 -0.2131
  138MOL0     N18957   3.806   7.462   6.098 -1.0711 -0.1022 -0.3246
  138MOL0     N18958   3.766   7.337   6.067 -0.7696  0.0849  0.1322
  138MOL0     C18959   3.514   6.288   5.507 -0.5957  0.6229  0.2223
  138MOL0     C18960   3.499   6.154   5.482  0.9140 -0.0097 -0.2045
  138MOL0     C18961   3.483   5.700   5.473  0.1897  0.4856  0.4034
  138MOL0     C18962   3.612   5.638   5.499  1.1628 -0.4559 -0.5763
  138MOL0     C18963   3.639   5.498   5.492 -0.3832  0.4727  0.2154
  138MOL0     C18964   3.535   5.409   5.453  0.3321  0.8706  1.1199
  138MOL0     O18965   3.538   5.272   5.456  0.6111 -0.5442 -0.1083
  138MOL0     C18966   3.665   5.208   5.456  0.9567  0.6052 -0.6324
  138MOL0     C18967   3.732   5.180   5.597  0.7417  0.0172  0.7284
  138MOL0     C18968   3.645   5.085   5.686 -0.3827 -0.3727  0.1307
  138MOL0     C18969   3.712   5.053   5.817 -0.5194 -0.2659  0.1127
  138MOL0     C18970   3.840   4.979   5.807  1.0858  0.4889  0.2573
  138MOL0     C18971   3.952   4.933   5.789 -0.0971 -1.4887 -0.0984
  138MOL0     C18972   3.418   5.469   5.423  0.9511  0.4255 -0.3620
  138MOL0     C18973   3.388   5.606   5.433  0.9725  0.0522  0.9828
  138MOL0     C18974   3.258   5.650   5.380 -0.1066 -0.1895 -0.6596
  138MOL0     H18975   3.770   6.018   5.621 -1.9309 -2.8877  0.2624
  138MOL0     H18976   3.817   6.269   5.658  0.6490 -1.6124 -1.0588
  138MOL0     H18977   3.841   6.505   5.613  0.9866  0.2130  1.4228
  138MOL0     H18978   3.761   6.457   5.761 -0.1343 -2.9661 -2.6781
  138MOL0     H18979   3.654   6.686   5.761 -1.5439  0.8853 -0.5352
  138MOL0     H18980   3.828   6.696   5.754 -0.5640 -0.4955  1.1093
  138MOL0     H18981   3.844   6.781   5.551 -0.4044  1.4789  0.8735
  138MOL0     H18982   3.714   6.684   5.483 -0.1151  0.7097 -0.5179
  138MOL0     H18983   3.645   6.908   5.472 -0.0391  1.0961  0.6626
  138MOL0     H18984   3.551   6.842   5.606 -0.3240 -0.9474  0.6889
  138MOL0     H18985   3.798   7.023   5.630 -1.6500  2.1987 -1.9235
  138MOL0     H18986   3.735   6.918   5.762 -2.7073 -1.2614 -0.4127
  138MOL0     H18987   3.526   7.103   5.634 -1.5763  3.0956  1.9829
  138MOL0     H18988   3.534   7.024   5.785 -1.8681  2.0367  0.0882
  138MOL0     H18989   3.578   7.223   5.868  1.0754 -0.4094  0.1906
  138MOL0     H18990   3.661   7.269   5.715  1.8093 -0.6381 -0.7430
  138MOL0     H18991   3.794   7.112   5.925  2.8337 -0.3918 -0.7298
  138MOL0     H18992   3.871   7.196   5.792 -0.2483 -0.5004 -0.2048
  138MOL0     H18993   3.898   7.443   5.783 -1.7711 -1.2339 -1.1309
  138MOL0     H18994   3.841   7.720   5.996 -1.0701 -1.4389 -2.2609
  138MOL0     H18995   3.945   7.673   5.868 -0.3276 -0.2975  0.1212
  138MOL0     H18996   4.008   7.644   6.161  0.5681 -1.9428 -0.6315
  138MOL0     H18997   4.107   7.595   6.022  0.3931 -0.2043  0.8587
  138MOL0     H18998   4.131   7.830   5.951 -0.8916 -2.5692 -0.9553
  138MOL0     H18999   4.045   7.874   6.102 -2.0037 -1.1877 -1.0726
  138MOL0     H19000   4.220   7.736   6.237  0.9856 -0.6668 -0.0533
  138MOL0     H19001   4.300   7.711   6.082 -2.0920 -1.2319  0.1151
  138MOL0     H19002   4.399   7.710   6.323 -1.2099 -0.3120 -1.7584
  138MOL0     H19003   4.698   7.659   6.478 -0.4449 -0.8432 -1.2380
  138MOL0     H19004   4.530   7.616   6.465 -1.7608  1.4057 -1.1614
  138MOL0     H19005   4.583   7.738   6.591 -2.0199 -0.4045  0.0927
  138MOL0     H19006   5.099   7.939   6.518 -0.1850 -1.2568  1.8427
  138MOL0     H19007   5.252   8.027   6.673  1.9216  1.2504 -2.7586
  138MOL0     H19008   5.221   8.096   6.952 -0.6663  1.4838 -0.0298
  138MOL0     H19009   5.356   8.073   6.842  0.9012 -0.4823  0.5993
  138MOL0     H19010   5.357   8.267   7.072  2.2179  1.1389 -0.0636
  138MOL0     H19011   5.477   8.131   7.021 -0.6406 -0.6825  0.1984
  138MOL0     H19012   5.521   8.390   6.987 -1.6804  1.4096 -1.1952
  138MOL0     H19013   5.436   8.374   6.840  1.4578  1.7153  0.9551
  138MOL0     H19014   5.561   8.184   6.755  2.5049 -2.0401 -0.8814
  138MOL0     H19015   5.675   8.192   6.899 -0.6840 -0.2078  0.1270
  138MOL0     H19016   5.664   8.377   6.660  4.7542  1.5463 -2.1882
  138MOL0     H19017   5.736   8.411   6.820 -0.1668  0.5424 -1.2410
  138MOL0     H19018   5.862   8.192   6.774  0.9345  0.7884  0.8566
  138MOL0     H19019   5.909   8.324   6.654  0.5487 -1.5024 -1.1985
  138MOL0     H19020   5.737   8.232   6.495 -1.6806  0.5379  2.1302
  138MOL0     H19021   5.712   8.097   6.602 -0.1729 -0.5116 -2.6892
  138MOL0     H19022   5.867   8.030   6.414  2.4325  1.1714 -1.7246
  138MOL0     H19023   5.951   8.024   6.564 -2.1039 -1.6575  0.1615
  138MOL0     H19024   5.048   8.381   6.698 -1.1906 -0.5734  1.1914
  138MOL0     H19025   4.863   8.305   6.559 -0.2322 -0.6594  3.0514
  138MOL0     H19026   4.686   8.121   6.286  1.3196 -1.7278  0.3362
  138MOL0     H19027   4.478   8.092   6.139  2.5179  1.2857  0.3135
  138MOL0     H19028   3.440   6.363   5.482 -3.6464 -2.1632  0.1742
  138MOL0     H19029   3.407   6.135   5.429 -0.6428 -0.0198  2.3253
  138MOL0     H19030   3.697   5.696   5.534  0.1613 -1.2436  3.8339
  138MOL0     H19031   3.736   5.457   5.520 -0.9034 -1.0737 -0.1331
  138MOL0     H19032   3.661   5.116   5.398  0.5856  2.3410 -3.5742
  138MOL0     H19033   3.731   5.277   5.403 -0.2162  1.4252 -1.0784
  138MOL0     H19034   3.742   5.276   5.647  0.8301  1.3780 -1.7188
  138MOL0     H19035   3.829   5.132   5.575  0.7584 -0.7910  2.4290
  138MOL0     H19036   3.546   5.132   5.697  0.8978  2.6220 -0.0630
  138MOL0     H19037   3.643   4.985   5.643  2.5296 -2.0684  3.4792
  138MOL0     H19038   3.644   4.981   5.864 -3.4312  0.9470 -1.8935
  138MOL0     H19039   3.715   5.135   5.890  4.1782 -0.1745  0.0904
  138MOL0     H19040   4.051   4.898   5.768  0.7999  0.9477 -0.2958
  138MOL0     H19041   3.328   5.410   5.407  0.7461  0.9445 -1.2062
  138MOL0     H19042   3.199   5.681   5.466 -0.3395 -0.1335 -0.8391
  138MOL0     H19043   3.271   5.729   5.305  0.0875  0.9476  0.5380
  138MOL0     H19044   3.210   5.561   5.337 -0.2007 -1.1737  1.3813
  139MOL0     O19045   1.175   7.086   0.068 -0.3837  0.7710 -0.3048
  139MOL0     C19046   1.093   7.112  -0.016 -0.1263  0.1081  0.4597
  139MOL0     O19047   1.073   7.036  -0.135 -0.5622 -0.5805  0.2718
  139MOL0     C19048   1.186   6.999  -0.201 -0.1580  0.1247 -0.1163
  139MOL0     C19049   1.197   6.883  -0.285 -0.3963  0.9326  0.2988
  139MOL0     C19050   1.304   6.857  -0.373 -0.4084  0.1508 -0.9872
  139MOL0     C19051   1.420   6.938  -0.379  0.1357  1.0441  0.1365
  139MOL0     O19052   1.528   6.915  -0.451 -0.9309 -0.3288 -0.0127
  139MOL0     C19053   1.533   6.816  -0.552  0.6985  0.0696  0.0588
  139MOL0     C19054   1.651   6.842  -0.640 -0.2059  0.4413  0.4104
  139MOL0     C19055   1.680   6.749  -0.762  0.0361  0.5184 -0.1703
  139MOL0     C19056   1.563   6.749  -0.867  0.0805 -0.4212 -0.0993
  139MOL0     C19057   1.612   6.661  -0.986 -0.6496 -0.2720  1.1607
  139MOL0     C19058   1.501   6.664  -1.092 -0.3642 -0.4077  0.0994
  139MOL0     C19059   1.557   6.648  -1.228  0.9301  0.0841  0.4189
  139MOL0     C19060   1.575   6.498  -1.279 -0.3353  0.6115 -0.5610
  139MOL0     N19061   1.448   6.430  -1.292 -1.2494  0.2302  0.0124
  139MOL0     C19062   1.357   6.453  -1.390 -0.4891  0.4152 -0.0638
  139MOL0     C19063   1.259   6.370  -1.355 -0.0402  0.5403 -0.6470
  139MOL0     C19064   1.124   6.363  -1.429  0.1531  0.1189  0.1525
  139MOL0     C19065   1.061   6.502  -1.397 -0.4191 -0.3955  0.0176
  139MOL0     C19066   0.907   6.492  -1.446 -0.4132 -0.0270 -0.2766
  139MOL0     C19067   0.837   6.627  -1.433 -0.1685  0.3257 -0.1724
  139MOL0     O19068   0.839   6.674  -1.301 -0.0793 -0.1429  0.2104
  139MOL0     C19069   0.739   6.763  -1.268  0.9635  0.7350 -0.9988
  139MOL0     C19070   0.710   6.778  -1.133 -0.5228 -0.5766  0.2374
  139MOL0     C19071   0.607   6.856  -1.088  1.1781 -0.0892 -0.2569
  139MOL0     C19072   0.590   6.866  -0.938 -0.2759 -0.3385  0.4284
  139MOL0     C19073   0.526   6.927  -1.181  0.0562 -0.8116  0.6839
  139MOL0     C19074   0.410   7.019  -1.138 -0.1826  0.4955  0.9508
  139MOL0     O19075   0.399   7.124  -1.232 -0.1848 -0.0661 -0.1361
  139MOL0     C19076   0.280   7.192  -1.225 -0.1651 -0.0322 -0.1855
  139MOL0     C19077   0.263   7.297  -1.137  0.7773  0.2812  0.8172
  139MOL0     C19078   0.142   7.367  -1.133  0.3143  0.2296  0.0375
  139MOL0     C19079   0.037   7.345  -1.217  0.8432 -0.8504  0.9407
  139MOL0     O19080  -0.067   7.431  -1.196  1.0465 -0.1392  0.2138
  139MOL0     C19081  -0.163   7.446  -1.298  0.0301 -1.1005 -0.9402
  139MOL0     C19082  -0.226   7.587  -1.267  0.7314  0.2829  0.6448
  139MOL0     C19083  -0.356   7.594  -1.344 -0.3934 -0.5869 -0.0017
  139MOL0     C19084  -0.429   7.726  -1.317  0.2396  0.0337  1.6144
  139MOL0     C19085  -0.548   7.738  -1.403  0.6465 -0.4072  0.7849
  139MOL0     C19086  -0.580   7.873  -1.453 -0.0892 -0.0195 -0.8202
  139MOL0     C19087  -0.704   7.859  -1.541  0.5086 -0.1717  1.1221
  139MOL0     C19088  -0.836   7.856  -1.469 -0.7137  0.3277 -0.1566
  139MOL0    Cl19089  -0.844   8.010  -1.381  0.2238  0.1781  0.2769
  139MOL0     C19090   0.058   7.247  -1.317  0.0556  0.9787 -0.6567
  139MOL0     C19091   0.175   7.167  -1.318  0.4611 -0.1299  0.1200
  139MOL0     O19092   0.331   6.992  -1.051  0.0872  0.2857 -0.1269
  139MOL0     C19093   0.558   6.924  -1.319 -0.7229  0.3887  0.0256
  139MOL0     C19094   0.657   6.833  -1.363  0.2500  0.1360 -0.3887
  139MOL0     N19095   1.287   6.303  -1.240  0.3373  0.7609 -0.4753
  139MOL0     N19096   1.410   6.331  -1.204  0.0636  0.1605  0.0686
  139MOL0     C19097   1.412   7.049  -0.295  0.0060 -0.8631 -0.2376
  139MOL0     C19098   1.299   7.081  -0.215 -0.3501  0.0554  0.4633
  139MOL0     C19099   1.020   7.247  -0.008 -0.4617 -0.2618 -0.1968
  139MOL0     C19100   1.085   7.364   0.031  0.4061  0.0933  0.9189
  139MOL0     C19101   1.029   7.492   0.026 -0.3555  0.3972 -0.3801
  139MOL0     C19102   0.899   7.508   0.002  0.2659 -0.3254 -0.6134
  139MOL0     O19103   0.833   7.626  -0.006 -0.4312 -0.1888  0.0580
  139MOL0     C19104   0.900   7.754   0.020 -0.2827 -0.3333 -1.0219
  139MOL0     C19105   0.783   7.849   0.023 -0.0846  0.0103 -1.0898
  139MOL0     C19106   0.681   7.823   0.137 -0.0821 -0.2683  0.4514
  139MOL0     C19107   0.568   7.925   0.117 -0.8144  0.0244  0.1444
  139MOL0     C19108   0.478   7.909   0.234 -0.0101 -0.2157  0.0098
  139MOL0     C19109   0.406   7.896   0.327 -0.0636  0.7352 -1.0718
  139MOL0     C19110   0.832   7.391  -0.040  0.0729  0.5685 -0.1927
  139MOL0     C19111   0.885   7.257  -0.041 -0.0211  0.6739  0.8267
  139MOL0     C19112   0.796   7.146  -0.085  0.2430  0.6360 -0.2806
  139MOL0     H19113   1.096   6.844  -0.293 -0.9396  1.8987  1.9724
  139MOL0     H19114   1.306   6.778  -0.447  0.8019  0.2571 -1.0909
  139MOL0     H19115   1.449   6.842  -0.616  0.6693  0.4635  0.2473
  139MOL0     H19116   1.534   6.713  -0.516  0.0141 -1.1188 -3.0791
  139MOL0     H19117   1.651   6.946  -0.673 -0.5415  1.2848  2.8133
  139MOL0     H19118   1.744   6.837  -0.582 -0.2141 -3.5082  0.3434
  139MOL0     H19119   1.766   6.787  -0.818 -0.0067  0.5185 -0.2355
  139MOL0     H19120   1.696   6.648  -0.722 -0.5371  0.5302  0.1029
  139MOL0     H19121   1.470   6.722  -0.815  1.5634  2.0902  4.3681
  139MOL0     H19122   1.543   6.855  -0.880 -0.1310 -0.5891 -1.2475
  139MOL0     H19123   1.613   6.556  -0.955 -2.4349 -0.8547 -0.5166
  139MOL0     H19124   1.708   6.697  -1.023 -0.6922 -0.4748  0.8439
  139MOL0     H19125   1.430   6.583  -1.069 -2.1769  1.3804  1.1268
  139MOL0     H19126   1.452   6.761  -1.095  0.0344 -0.1873  0.5882
  139MOL0     H19127   1.643   6.714  -1.242  1.1017 -0.2944 -0.3390
  139MOL0     H19128   1.480   6.682  -1.298 -0.2448  0.4059  1.8067
  139MOL0     H19129   1.619   6.503  -1.379  1.6180 -2.0009  0.0641
  139MOL0     H19130   1.636   6.440  -1.209  2.1163  0.9801 -2.2594
  139MOL0     H19131   1.365   6.519  -1.476 -1.2824 -1.4975 -1.6830
  139MOL0     H19132   1.071   6.279  -1.384  0.4906  2.0746  4.7659
  139MOL0     H19133   1.132   6.336  -1.535 -0.4663 -1.9763  0.5877
  139MOL0     H19134   1.062   6.527  -1.291 -1.0056 -0.7566  0.1164
  139MOL0     H19135   1.114   6.587  -1.442 -1.1424  0.7690  1.2797
  139MOL0     H19136   0.909   6.465  -1.552  0.2553  3.1018 -1.1827
  139MOL0     H19137   0.857   6.413  -1.390  0.7724  0.0885  0.9830
  139MOL0     H19138   0.880   6.697  -1.505 -0.6767 -0.9763 -1.8294
  139MOL0     H19139   0.736   6.602  -1.468 -0.3466 -0.7216  1.0119
  139MOL0     H19140   0.782   6.740  -1.062 -1.8413 -0.9568  1.4263
  139MOL0     H19141   0.489   6.831  -0.917 -2.1529  3.7245 -0.7451
  139MOL0     H19142   0.599   6.971  -0.907  0.2076  0.8317 -3.2071
  139MOL0     H19143   0.673   6.811  -0.893 -0.3437 -0.9262 -0.1480
  139MOL0     H19144   0.339   7.319  -1.062 -0.5432  0.1098  2.2464
  139MOL0     H19145   0.123   7.444  -1.059 -0.2211 -0.2930  0.4504
  139MOL0     H19146  -0.120   7.466  -1.396 -1.4327  3.0062 -0.9056
  139MOL0     H19147  -0.231   7.360  -1.297 -3.2423  1.2883  1.8339
  139MOL0     H19148  -0.244   7.586  -1.159 -0.2254  0.9312  0.5052
  139MOL0     H19149  -0.162   7.672  -1.292  0.8462  0.7385  2.3285
  139MOL0     H19150  -0.416   7.508  -1.316  2.4551 -3.3280 -1.6794
  139MOL0     H19151  -0.334   7.583  -1.451 -1.0226  0.1507 -0.2168
  139MOL0     H19152  -0.363   7.811  -1.336 -1.4871  0.9014 -1.0732
  139MOL0     H19153  -0.462   7.735  -1.214 -2.7577 -0.4886  0.7847
  139MOL0     H19154  -0.527   7.678  -1.492 -0.1014 -0.6436  0.7595
  139MOL0     H19155  -0.636   7.695  -1.353  0.6765 -0.7420  0.5512
  139MOL0     H19156  -0.498   7.904  -1.519  1.1675  0.6055  0.9395
  139MOL0     H19157  -0.588   7.943  -1.369 -0.3726 -0.2709 -0.6373
  139MOL0     H19158  -0.685   7.771  -1.602  3.0666  1.5495 -0.7905
  139MOL0     H19159  -0.698   7.944  -1.609  1.0610 -1.5989 -0.6860
  139MOL0     H19160  -0.850   7.765  -1.410 -0.2137  0.9736  0.9886
  139MOL0     H19161  -0.912   7.863  -1.547  1.0324  3.3657 -1.7372
  139MOL0     H19162  -0.024   7.232  -1.387 -2.0081  1.4419  1.5326
  139MOL0     H19163   0.175   7.077  -1.378  0.4362  0.4231 -0.7299
  139MOL0     H19164   0.514   6.994  -1.389  0.3546 -0.2770 -1.3779
  139MOL0     H19165   0.669   6.826  -1.470  0.1975  1.6276 -0.5127
  139MOL0     H19166   1.496   7.117  -0.285 -1.7650  1.1358  2.2056
  139MOL0     H19167   1.298   7.183  -0.178 -1.9689 -0.1161  0.9835
  139MOL0     H19168   1.194   7.365   0.032  0.5106 -2.4169  0.0071
  139MOL0     H19169   1.097   7.576   0.035  1.2264 -0.6517 -1.9585
  139MOL0     H19170   0.936   7.739   0.123 -3.0467  0.3579  0.1185
  139MOL0     H19171   0.979   7.768  -0.054 -0.4850 -1.4657 -1.4743
  139MOL0     H19172   0.729   7.870  -0.069 -0.1619  1.4325 -0.7531
  139MOL0     H19173   0.828   7.945   0.050 -2.4973  1.2488 -1.1869
  139MOL0     H19174   0.650   7.718   0.140 -0.0628 -0.2590  1.0524
  139MOL0     H19175   0.741   7.850   0.224  1.2459  1.3983 -0.9160
  139MOL0     H19176   0.521   7.912   0.019  1.8709  0.2618 -1.2602
  139MOL0     H19177   0.611   8.024   0.105 -2.8231  0.7487 -1.7213
  139MOL0     H19178   0.347   7.866   0.411 -0.0191 -0.8935 -1.5797
  139MOL0     H19179   0.728   7.399  -0.069 -0.1670 -0.8536  0.2001
  139MOL0     H19180   0.811   7.114  -0.189 -0.0215  1.1917 -0.4927
  139MOL0     H19181   0.797   7.066  -0.010  0.8518  0.5807 -0.3491
  139MOL0     H19182   0.689   7.170  -0.088 -0.2530 -1.4109 -1.3748
  140MOL0     O19183   5.628   1.785   8.402 -0.1894  0.0106  0.4305
  140MOL0     C19184   5.512   1.750   8.429  0.0289 -0.7240 -0.7443
  140MOL0     O19185   5.481   1.668   8.531 -0.2680 -0.4971  0.3196
  140MOL0     C19186   5.583   1.583   8.578  0.3180 -0.0550  0.3337
  140MOL0     C19187   5.638   1.582   8.712  0.9530  0.2141  0.4869
  140MOL0     C19188   5.736   1.500   8.758 -0.3591  0.3799  0.1554
  140MOL0     C19189   5.793   1.416   8.666 -0.0973 -0.4371  0.1668
  140MOL0     O19190   5.898   1.323   8.687 -0.5975  0.4500 -0.0236
  140MOL0     C19191   5.886   1.235   8.804  0.8027  0.7037  0.1048
  140MOL0     C19192   6.014   1.164   8.852 -0.0584 -0.3829  0.4656
  140MOL0     C19193   6.139   1.244   8.887 -0.3683  0.3982  0.6343
  140MOL0     C19194   6.259   1.216   8.793 -0.1086 -0.1136 -0.1234
  140MOL0     C19195   6.393   1.284   8.828  0.1995 -0.3931 -1.1253
  140MOL0     C19196   6.512   1.215   8.757  0.0634  0.3178 -0.0844
  140MOL0     C19197   6.645   1.281   8.791  0.2131 -0.4131 -0.5015
  140MOL0     C19198   6.764   1.218   8.723 -0.1897  0.2104  0.0051
  140MOL0     N19199   6.893   1.242   8.796 -0.7353  0.5492 -0.7094
  140MOL0     C19200   6.993   1.151   8.834 -0.7590 -0.3857 -0.1004
  140MOL0     C19201   7.065   1.213   8.927 -0.4905 -0.2675 -0.1546
  140MOL0     C19202   7.191   1.156   8.976  0.1837  0.5221  0.2188
  140MOL0     C19203   7.317   1.208   8.910 -0.3249 -0.2786 -0.0156
  140MOL0     C19204   7.433   1.162   9.001  1.1948 -0.2032 -0.0731
  140MOL0     C19205   7.566   1.185   8.936  0.6973  0.4099 -0.3737
  140MOL0     O19206   7.611   1.317   8.963 -0.5426  0.4534  0.1213
  140MOL0     C19207   7.725   1.360   8.896  1.0203 -0.4233  0.0560
  140MOL0     C19208   7.818   1.282   8.827  0.7392  0.4670  0.4501
  140MOL0     C19209   7.928   1.340   8.768 -0.2774  0.6669  0.7264
  140MOL0     C19210   8.015   1.244   8.695 -0.5356 -0.1276  0.1455
  140MOL0     C19211   7.962   1.476   8.780 -0.4216 -0.7429 -0.4347
  140MOL0     C19212   8.081   1.534   8.734  0.5814  0.3295 -1.5642
  140MOL0     O19213   8.066   1.641   8.654 -1.1617 -0.0406 -0.5287
  140MOL0     C19214   8.151   1.746   8.670 -0.2811  0.6453 -0.5660
  140MOL0     C19215   8.225   1.775   8.784  0.8596 -0.0261 -0.0806
  140MOL0     C19216   8.293   1.899   8.790 -0.5566  0.4244 -0.1098
  140MOL0     C19217   8.288   1.997   8.691  0.5272  0.6487  1.1128
  140MOL0     O19218   8.354   2.118   8.695 -0.1462 -0.4108 -0.0671
  140MOL0     C19219   8.470   2.129   8.777  0.0552  0.5494 -0.1096
  140MOL0     C19220   8.549   2.257   8.724 -0.1277 -0.5703 -0.2863
  140MOL0     C19221   8.572   2.273   8.573 -0.7291 -0.1383  0.2506
  140MOL0     C19222   8.692   2.374   8.557 -0.1937  0.2577 -0.1007
  140MOL0     C19223   8.751   2.367   8.413 -0.5052  0.5107 -0.4455
  140MOL0     C19224   8.856   2.487   8.408 -0.2631 -0.3460  0.5260
  140MOL0     C19225   8.917   2.506   8.265  0.1706  0.3962 -0.7584
  140MOL0     C19226   8.813   2.496   8.157 -0.2151 -1.0935 -0.7362
  140MOL0    Cl19227   8.883   2.543   7.995  0.0257 -0.3780 -0.8201
  140MOL0     C19228   8.203   1.963   8.583  0.4955 -0.1680 -0.0329
  140MOL0     C19229   8.134   1.843   8.572  0.5426  0.1331 -1.2112
  140MOL0     O19230   8.191   1.486   8.773 -0.2307  0.1499 -0.8143
  140MOL0     C19231   7.864   1.555   8.833  0.2243 -0.2481 -0.3052
  140MOL0     C19232   7.743   1.501   8.883  0.4801 -0.9371 -1.1502
  140MOL0     N19233   7.026   1.350   8.918 -1.0395 -0.5066  0.0205
  140MOL0     N19234   6.923   1.361   8.848  0.0024 -0.5219 -0.6024
  140MOL0     C19235   5.756   1.420   8.529  0.4943  0.3907 -0.3604
  140MOL0     C19236   5.650   1.503   8.481 -0.2097  0.0200  0.3423
  140MOL0     C19237   5.406   1.838   8.359  0.5698  0.7041  0.3198
  140MOL0     C19238   5.454   1.919   8.246  0.4778 -1.1781 -0.7415
  140MOL0     C19239   5.362   2.007   8.191 -0.2792 -0.2488  0.1369
  140MOL0     C19240   5.226   1.992   8.207  0.3359 -0.6885 -0.0730
  140MOL0     O19241   5.144   2.070   8.121 -0.5172 -0.3178  0.4554
  140MOL0     C19242   5.006   2.058   8.125 -0.7839 -0.2819  0.7060
  140MOL0     C19243   4.959   1.927   8.084  1.2894 -0.1055 -0.4064
  140MOL0     C19244   5.007   1.891   7.947 -0.6334  0.3466 -0.2502
  140MOL0     C19245   4.958   1.753   7.916  0.1158  1.0072 -0.7800
  140MOL0     C19246   4.811   1.733   7.911  0.5649  0.1837 -0.1884
  140MOL0     C19247   4.694   1.708   7.931  0.7629 -0.0447 -0.3511
  140MOL0     C19248   5.184   1.920   8.317  0.2624  0.7576 -0.0263
  140MOL0     C19249   5.269   1.843   8.391 -0.1641 -0.3702 -0.2698
  140MOL0     C19250   5.189   1.759   8.491  0.1803  0.4399 -0.5183
  140MOL0     H19251   5.608   1.652   8.789 -0.0724 -0.0615  0.3634
  140MOL0     H19252   5.775   1.523   8.856 -2.0585  1.4486  0.6358
  140MOL0     H19253   5.820   1.153   8.776  0.8425  1.0866 -1.1634
  140MOL0     H19254   5.838   1.289   8.886  3.5837 -0.4406  2.7118
  140MOL0     H19255   5.979   1.102   8.935 -1.2558  0.6971  0.8116
  140MOL0     H19256   6.046   1.088   8.780 -2.7420 -1.0543 -0.1610
  140MOL0     H19257   6.111   1.349   8.895 -0.7395  0.5292 -1.7306
  140MOL0     H19258   6.180   1.229   8.987  0.6809  0.2701  0.1986
  140MOL0     H19259   6.282   1.109   8.795 -1.6159 -0.4801 -1.2884
  140MOL0     H19260   6.246   1.241   8.687  0.2780 -1.4210 -0.4932
  140MOL0     H19261   6.410   1.274   8.935 -1.4574  0.5830 -0.7461
  140MOL0     H19262   6.387   1.391   8.808  0.8077  0.0037  0.6723
  140MOL0     H19263   6.505   1.113   8.793 -2.7567  0.1320 -0.9409
  140MOL0     H19264   6.504   1.217   8.648  0.4400 -2.0569 -0.2087
  140MOL0     H19265   6.660   1.284   8.899  0.6876 -0.2923 -0.5698
  140MOL0     H19266   6.643   1.383   8.750  1.5922 -1.1974 -2.6683
  140MOL0     H19267   6.746   1.110   8.715 -0.8830  0.3602 -0.4967
  140MOL0     H19268   6.769   1.255   8.621 -1.4950  2.0734  0.5718
  140MOL0     H19269   7.006   1.053   8.791  0.2511  0.2016 -1.2185
  140MOL0     H19270   7.203   1.048   8.963  0.0302  0.4691  0.5288
  140MOL0     H19271   7.196   1.175   9.083  1.9425 -1.5215  0.5810
  140MOL0     H19272   7.320   1.169   8.807 -0.2255  1.6298 -0.7669
  140MOL0     H19273   7.316   1.316   8.921  2.2135 -0.4114  2.7406
  140MOL0     H19274   7.445   1.214   9.097  2.9167  0.1054 -0.4215
  140MOL0     H19275   7.433   1.053   9.009  2.2967 -0.2044  0.0229
  140MOL0     H19276   7.630   1.113   8.987  0.4795  1.5357  1.5909
  140MOL0     H19277   7.565   1.159   8.830 -1.6442 -0.1486 -0.2782
  140MOL0     H19278   7.807   1.174   8.822 -0.3493  0.6134 -2.0584
  140MOL0     H19279   7.955   1.163   8.653  1.0141 -1.2727  0.0434
  140MOL0     H19280   8.083   1.197   8.767  0.8074 -1.5295 -1.9151
  140MOL0     H19281   8.072   1.290   8.613  0.4433 -1.7093 -0.1006
  140MOL0     H19282   8.232   1.715   8.874  0.9323  2.8050  1.9018
  140MOL0     H19283   8.343   1.935   8.879 -2.1456  1.3582  0.4427
  140MOL0     H19284   8.434   2.151   8.878  2.3609  0.9089  0.6987
  140MOL0     H19285   8.525   2.035   8.777  1.5752  1.4015 -1.2467
  140MOL0     H19286   8.487   2.344   8.746 -2.3839 -1.9094 -0.9788
  140MOL0     H19287   8.641   2.274   8.781  0.3597 -1.9539 -0.6273
  140MOL0     H19288   8.481   2.315   8.531 -1.2340  0.3533  1.7633
  140MOL0     H19289   8.596   2.177   8.527 -2.0545 -1.5865  2.4048
  140MOL0     H19290   8.772   2.345   8.627  0.4941  3.7887  0.7751
  140MOL0     H19291   8.656   2.474   8.584 -1.8033 -1.2489  4.2850
  140MOL0     H19292   8.802   2.275   8.384 -0.3999 -0.2027  1.7617
  140MOL0     H19293   8.662   2.383   8.353 -2.8865  1.0520  2.9742
  140MOL0     H19294   8.934   2.463   8.481  0.6627  0.1328 -0.2905
  140MOL0     H19295   8.799   2.576   8.435  2.2204  1.6031 -0.2884
  140MOL0     H19296   8.998   2.434   8.248 -0.9156 -0.3055 -3.7083
  140MOL0     H19297   8.956   2.608   8.259 -1.4128  1.2185  1.5589
  140MOL0     H19298   8.723   2.554   8.176  0.1920 -1.2858  2.2063
  140MOL0     H19299   8.787   2.390   8.159  1.9573 -1.6590  0.7495
  140MOL0     H19300   8.190   2.034   8.501 -0.8768 -0.5307 -0.1442
  140MOL0     H19301   8.062   1.825   8.493 -0.0249 -1.9498 -0.2980
  140MOL0     H19302   7.883   1.662   8.838  2.1849 -0.6112  1.8389
  140MOL0     H19303   7.666   1.567   8.920 -1.2307 -2.7738 -1.2719
  140MOL0     H19304   5.797   1.345   8.462 -1.1739 -0.0518 -0.9398
  140MOL0     H19305   5.620   1.499   8.377  1.8552  1.9669 -0.4117
  140MOL0     H19306   5.558   1.937   8.220  0.7646  1.9817  1.9930
  140MOL0     H19307   5.407   2.085   8.132  1.8054 -0.9483  0.7346
  140MOL0     H19308   4.973   2.093   8.223  0.4708  0.4360  0.8852
  140MOL0     H19309   4.963   2.126   8.051 -0.3591 -0.0346  0.6837
  140MOL0     H19310   4.851   1.948   8.081  1.1585  0.1220  2.6785
  140MOL0     H19311   4.971   1.854   8.164  0.9379 -0.2718 -0.5016
  140MOL0     H19312   4.986   1.968   7.872 -1.0380 -0.2071 -0.7132
  140MOL0     H19313   5.115   1.876   7.943 -0.8020 -1.2620  0.4691
  140MOL0     H19314   4.996   1.687   7.995  0.5224  3.9848  1.7172
  140MOL0     H19315   4.992   1.721   7.817 -1.0834 -2.1387 -0.2694
  140MOL0     H19316   4.588   1.692   7.933  0.6475  0.6982 -0.2446
  140MOL0     H19317   5.077   1.902   8.320  0.5104 -1.2187 -1.2358
  140MOL0     H19318   5.138   1.669   8.453  0.4096 -1.4287  3.1698
  140MOL0     H19319   5.256   1.713   8.564 -3.2336 -2.1379  1.3607
  140MOL0     H19320   5.125   1.822   8.554  1.2746 -0.6472  1.8230
  141MOL0     O19321   8.611  10.035   1.086 -0.2037  0.3016 -0.8742
  141MOL0     C19322   8.514  10.109   1.096 -0.2108  0.0512  0.6247
  141MOL0     O19323   8.509  10.232   1.043 -0.6975 -0.1329  0.0737
  141MOL0     C19324   8.610  10.264   0.961  0.2658 -0.0733 -0.2581
  141MOL0     C19325   8.729  10.321   1.009 -0.2631  0.4266 -0.4814
  141MOL0     C19326   8.823  10.373   0.921 -0.3347  0.6750 -0.0842
  141MOL0     C19327   8.789  10.374   0.785  0.5483  0.3718  0.9221
  141MOL0     O19328   8.872  10.458   0.711  0.2761 -0.2845 -0.0682
  141MOL0     C19329   8.927  10.418   0.589 -0.3525  0.2614 -0.2573
  141MOL0     C19330   9.045  10.323   0.608  0.3241  0.0528 -0.1762
  141MOL0     C19331   9.169  10.394   0.653  0.0310 -0.5406  0.0744
  141MOL0     C19332   9.257  10.307   0.732 -0.3342  1.3802 -0.6833
  141MOL0     C19333   9.391  10.378   0.764  0.5693 -0.1640 -0.0193
  141MOL0     C19334   9.488  10.278   0.825 -0.0770  0.1995  0.3586
  141MOL0     C19335   9.638  10.315   0.842 -0.0114  0.3211  0.0059
  141MOL0     C19336   9.648  10.442   0.925 -0.0185  0.2166 -0.2200
  141MOL0     N19337   9.786  10.460   0.981 -0.4855 -0.1915  0.3715
  141MOL0     C19338   9.900  10.481   0.903  0.0974 -0.4188  0.8291
  141MOL0     C19339  10.004  10.472   0.989 -0.7866  0.1467 -0.6436
  141MOL0     C19340  10.150  10.480   0.956  0.1925  0.3002  0.4428
  141MOL0     C19341  10.202  10.620   0.945 -0.2265 -0.5067 -0.2352
  141MOL0     C19342  10.171  10.691   1.076 -0.3821 -0.6563 -0.5419
  141MOL0     C19343  10.229  10.642   1.206 -0.1115  0.0257 -0.0669
  141MOL0     O19344  10.374  10.638   1.201  0.7960  0.4064 -0.2811
  141MOL0     C19345  10.454  10.724   1.266 -0.6885  0.1840  0.6468
  141MOL0     C19346  10.425  10.837   1.342 -0.4283  0.2705  0.0520
  141MOL0     C19347  10.529  10.921   1.381 -0.0343 -0.5653 -0.8146
  141MOL0     C19348  10.495  11.052   1.449 -0.0377 -0.3605 -0.6377
  141MOL0     C19349  10.664  10.888   1.350  0.0564  0.2198 -0.9514
  141MOL0     C19350  10.779  10.975   1.388 -0.0351  0.7050 -0.2312
  141MOL0     O19351  10.796  11.002   1.521  0.9037  0.4029  0.0558
  141MOL0     C19352  10.910  11.078   1.547 -0.2040 -0.1204 -0.6232
  141MOL0     C19353  11.028  11.018   1.604  0.2122  0.2253  0.2413
  141MOL0     C19354  11.126  11.098   1.654  0.9012  0.2860  0.5846
  141MOL0     C19355  11.131  11.242   1.643 -0.2917 -0.1311  0.5547
  141MOL0     O19356  11.235  11.324   1.674 -0.6297 -0.0346  0.3050
  141MOL0     C19357  11.303  11.298   1.795 -0.1465  0.0605  1.0227
  141MOL0     C19358  11.451  11.280   1.775 -0.6954  0.0135 -0.3704
  141MOL0     C19359  11.508  11.250   1.910 -0.2162 -0.4836 -1.1701
  141MOL0     C19360  11.661  11.244   1.905  0.2510 -0.1667 -0.7372
  141MOL0     C19361  11.731  11.273   2.038 -0.2227 -0.9382 -0.1532
  141MOL0     C19362  11.889  11.270   2.037  0.4300  0.0896 -0.3400
  141MOL0     C19363  11.958  11.234   2.167 -0.3049  0.2968 -0.8606
  141MOL0     C19364  12.099  11.183   2.143  0.1568  0.3058  0.0480
  141MOL0    Cl19365  12.193  11.330   2.098  0.0998 -0.0015  0.0832
  141MOL0     C19366  11.018  11.300   1.572  0.9542  0.1105  0.2193
  141MOL0     C19367  10.911  11.216   1.534 -0.0071 -0.1528 -0.9036
  141MOL0     O19368  10.844  11.020   1.293 -0.7855  0.6287 -0.2638
  141MOL0     C19369  10.689  10.771   1.284 -0.2702 -0.0817 -0.4675
  141MOL0     C19370  10.585  10.694   1.229  0.0663  0.3758 -0.0274
  141MOL0     N19371   9.952  10.434   1.114  0.3208  0.4626  0.6390
  141MOL0     N19372   9.823  10.433   1.107  0.7467 -0.5660 -0.0479
  141MOL0     C19373   8.675  10.311   0.732 -0.2745 -1.0016  0.2160
  141MOL0     C19374   8.580  10.261   0.825 -0.0740  0.5776  1.5372
  141MOL0     C19375   8.390  10.062   1.163 -0.1952 -0.1031 -0.4849
  141MOL0     C19376   8.332   9.945   1.111  0.2043  0.2445  0.0490
  141MOL0     C19377   8.209   9.909   1.160 -0.2342  0.3085 -0.0234
  141MOL0     C19378   8.136   9.994   1.250  0.4847  0.3619 -0.3948
  141MOL0     O19379   8.011   9.958   1.304  0.1207  0.5417 -0.0167
  141MOL0     C19380   7.952   9.836   1.255  0.3319 -0.6700 -0.9051
  141MOL0     C19381   7.833   9.815   1.341  0.8066  0.2270 -0.4536
  141MOL0     C19382   7.744   9.708   1.280 -0.8032 -0.7411 -0.7703
  141MOL0     C19383   7.604   9.701   1.350 -0.1295  0.5792  0.2915
  141MOL0     C19384   7.535   9.822   1.330 -0.6896 -0.1094 -0.0951
  141MOL0     C19385   7.489   9.940   1.328  0.7380  0.8540  0.3963
  141MOL0     C19386   8.194  10.118   1.288  0.5838 -0.4597 -0.4042
  141MOL0     C19387   8.332  10.149   1.250  0.4410 -0.1630  0.6023
  141MOL0     C19388   8.398  10.272   1.305 -0.5459  0.0086 -0.1540
  141MOL0     H19389   8.755  10.307   1.114 -0.4374  0.7908 -0.3885
  141MOL0     H19390   8.915  10.418   0.957 -0.5138  0.6937  0.3650
  141MOL0     H19391   8.972  10.508   0.548 -1.3934  0.4978 -0.9320
  141MOL0     H19392   8.849  10.388   0.518 -2.4871  3.0643  0.7233
  141MOL0     H19393   9.000  10.249   0.675 -0.7450 -1.2792 -2.2617
  141MOL0     H19394   9.054  10.268   0.514 -4.1785  0.2532 -0.9297
  141MOL0     H19395   9.216  10.429   0.561  3.4296  0.0946  1.8674
  141MOL0     H19396   9.149  10.485   0.710  1.7184 -1.8808  3.0603
  141MOL0     H19397   9.219  10.268   0.826  1.4124 -0.4487 -0.6723
  141MOL0     H19398   9.282  10.219   0.672  0.8236  1.4236 -0.2790
  141MOL0     H19399   9.379  10.472   0.818  0.3363  1.6561 -2.9902
  141MOL0     H19400   9.440  10.414   0.673  0.7921 -1.1560 -0.3006
  141MOL0     H19401   9.451  10.247   0.923  1.3388  2.5176  1.7175
  141MOL0     H19402   9.495  10.186   0.766  1.1352 -1.1783  2.4814
  141MOL0     H19403   9.687  10.320   0.745 -3.0037  0.6666 -1.6363
  141MOL0     H19404   9.679  10.225   0.888  0.1026 -2.0883 -4.3144
  141MOL0     H19405   9.610  10.533   0.878  0.4458  2.0244  2.6055
  141MOL0     H19406   9.588  10.420   1.014 -1.0658  1.6771 -0.5216
  141MOL0     H19407   9.902  10.510   0.798  2.9692  1.8332  1.3855
  141MOL0     H19408  10.155  10.425   0.862 -2.7799 -1.8814  1.3946
  141MOL0     H19409  10.207  10.428   1.033 -2.5055 -3.4552  0.1774
  141MOL0     H19410  10.311  10.621   0.940 -0.0910 -2.5605  0.9243
  141MOL0     H19411  10.154  10.666   0.858  0.9411 -0.4315 -0.8493
  141MOL0     H19412  10.214  10.792   1.070  2.7712 -1.7837  0.6937
  141MOL0     H19413  10.064  10.703   1.095 -0.0927  3.3573 -0.6382
  141MOL0     H19414  10.179  10.704   1.281  1.1079  0.1362  0.6733
  141MOL0     H19415  10.192  10.543   1.237  0.1022  0.2546  0.9637
  141MOL0     H19416  10.326  10.867   1.374 -0.4519  1.7419 -1.2487
  141MOL0     H19417  10.578  11.121   1.462  1.8007 -1.9412 -3.0723
  141MOL0     H19418  10.450  11.026   1.545  0.2361 -2.2030 -0.9623
  141MOL0     H19419  10.414  11.093   1.387  0.7526 -1.7766 -2.7125
  141MOL0     H19420  11.023  10.910   1.612 -2.3240  0.4182  2.6751
  141MOL0     H19421  11.223  11.057   1.678  0.5342 -0.4764  0.7971
  141MOL0     H19422  11.276  11.380   1.863  1.6939  2.3930 -0.8427
  141MOL0     H19423  11.268  11.203   1.836  1.2911 -1.6379 -1.4226
  141MOL0     H19424  11.469  11.195   1.707  2.8110  1.4495 -1.4472
  141MOL0     H19425  11.503  11.365   1.730  0.2628 -0.2493  0.2185
  141MOL0     H19426  11.466  11.167   1.967 -1.9338  1.3810  0.4773
  141MOL0     H19427  11.488  11.348   1.956 -1.5753 -0.3123 -2.0470
  141MOL0     H19428  11.700  11.313   1.830 -1.2807 -1.6114 -2.9972
  141MOL0     H19429  11.690  11.153   1.853  1.6735 -1.3632  1.9567
  141MOL0     H19430  11.713  11.374   2.074  3.1132 -0.5870  0.8932
  141MOL0     H19431  11.703  11.212   2.124 -0.5745  1.0419  1.1969
  141MOL0     H19432  11.927  11.364   1.996  1.6616  0.9551  2.5229
  141MOL0     H19433  11.918  11.198   1.959  0.4833  1.0813 -1.2658
  141MOL0     H19434  11.906  11.158   2.226 -2.3601  1.8744 -0.5337
  141MOL0     H19435  11.951  11.325   2.227 -1.8888  1.1632 -2.3003
  141MOL0     H19436  12.087  11.104   2.068 -3.3666  0.4357  0.3224
  141MOL0     H19437  12.150  11.141   2.231  3.2765  1.2894 -1.1604
  141MOL0     H19438  11.020  11.407   1.557 -0.1799  0.0642 -0.4504
  141MOL0     H19439  10.818  11.246   1.487 -0.9365 -1.8778 -0.2956
  141MOL0     H19440  10.790  10.747   1.250 -0.7224  0.8097 -2.5932
  141MOL0     H19441  10.620  10.604   1.180 -0.5132  0.1766 -0.0769
  141MOL0     H19442   8.641  10.328   0.630  4.0003  0.1796 -1.1933
  141MOL0     H19443   8.482  10.222   0.801 -0.1985  0.2612  2.4948
  141MOL0     H19444   8.381   9.887   1.033 -1.0978 -0.1511 -0.5040
  141MOL0     H19445   8.169   9.812   1.133  0.4984 -0.1927  0.6527
  141MOL0     H19446   7.915   9.864   1.156 -3.6419 -1.3503  0.2072
  141MOL0     H19447   8.015   9.748   1.267 -0.7855 -1.3288  0.2796
  141MOL0     H19448   7.780   9.910   1.357  1.2167  0.4239 -0.2420
  141MOL0     H19449   7.871   9.776   1.436 -1.8413 -0.7394  0.2953
  141MOL0     H19450   7.726   9.732   1.174 -0.2059  2.3594 -0.2738
  141MOL0     H19451   7.793   9.612   1.299  1.0358  0.1757 -0.6344
  141MOL0     H19452   7.624   9.686   1.457  2.3670 -2.6705 -0.4755
  141MOL0     H19453   7.542   9.614   1.327  0.4808  0.0804  0.4941
  141MOL0     H19454   7.458  10.040   1.350 -0.3893  0.2504  1.7193
  141MOL0     H19455   8.135  10.189   1.345  1.0713 -1.4868  1.4672
  141MOL0     H19456   8.341  10.302   1.394  2.1077  2.1760  0.9716
  141MOL0     H19457   8.502  10.262   1.339 -0.3869 -1.5857 -1.0464
  141MOL0     H19458   8.393  10.358   1.237 -0.2015  1.4420  1.5530
  142MOL0     O19459   9.777   5.892   1.375 -0.8375 -0.5387  0.1016
  142MOL0     C19460   9.718   5.901   1.479  0.2058  0.6099 -0.1917
  142MOL0     O19461   9.776   5.910   1.611  0.3257  0.2597  0.4948
  142MOL0     C19462   9.908   5.879   1.625 -0.8901 -0.3171  0.9560
  142MOL0     C19463  10.003   5.981   1.615  0.9277 -0.1462  0.6702
  142MOL0     C19464  10.130   5.967   1.653 -1.0394  0.1922 -0.9537
  142MOL0     C19465  10.174   5.845   1.702 -0.0077  0.8533 -0.3562
  142MOL0     O19466  10.307   5.822   1.748 -0.5125 -0.4864 -0.0669
  142MOL0     C19467  10.403   5.851   1.647 -0.5049  0.0866 -0.2528
  142MOL0     C19468  10.535   5.827   1.728 -0.0024  0.3821  0.1828
  142MOL0     C19469  10.541   5.931   1.844  0.5969 -0.9857  0.7754
  142MOL0     C19470  10.687   5.976   1.876 -0.2267  0.4383 -0.2900
  142MOL0     C19471  10.683   6.098   1.962 -0.6146 -0.5549 -0.3348
  142MOL0     C19472  10.800   6.093   2.065 -0.5523  0.2826 -1.0708
  142MOL0     C19473  10.909   6.193   2.006  0.1256  0.3357 -0.0865
  142MOL0     C19474  11.018   6.208   2.098  0.7285  0.1256  0.1169
  142MOL0     N19475  11.100   6.323   2.074  0.5600  0.1041  0.6196
  142MOL0     C19476  11.076   6.455   2.103 -0.1757 -0.2917  0.0359
  142MOL0     C19477  11.186   6.523   2.054 -0.5815  0.1017 -0.2390
  142MOL0     C19478  11.188   6.672   2.050  0.1134  0.2052  0.5987
  142MOL0     C19479  11.294   6.728   2.138 -0.7235  0.8843 -0.7308
  142MOL0     C19480  11.310   6.877   2.095  0.4238  0.8218  0.4523
  142MOL0     C19481  11.417   6.948   2.176 -0.1564 -0.2361 -0.5148
  142MOL0     O19482  11.549   6.897   2.149  0.1666  0.3527  0.2982
  142MOL0     C19483  11.644   6.992   2.105  0.2079 -0.5158  0.0573
  142MOL0     C19484  11.620   7.088   2.002 -0.0503 -0.0124 -0.7813
  142MOL0     C19485  11.716   7.186   1.979 -0.2202  0.1171 -0.2790
  142MOL0     C19486  11.660   7.299   1.897 -0.9299 -0.6818  0.3499
  142MOL0     C19487  11.841   7.179   2.041 -1.0327 -0.0183  0.1906
  142MOL0     C19488  11.941   7.293   2.026 -0.4714  0.1438 -0.6831
  142MOL0     O19489  12.062   7.267   2.095 -0.6108 -0.8303  0.7329
  142MOL0     C19490  12.154   7.371   2.088 -0.3083 -0.3569 -0.2427
  142MOL0     C19491  12.254   7.391   1.983  0.2823  0.5981  0.6256
  142MOL0     C19492  12.343   7.497   1.987 -0.7154  0.3228  0.6173
  142MOL0     C19493  12.325   7.593   2.084 -0.7473 -0.0865 -0.9552
  142MOL0     O19494  12.395   7.712   2.090  0.0316  0.4781  0.3165
  142MOL0     C19495  12.537   7.699   2.065 -0.5440  0.2126 -0.0597
  142MOL0     C19496  12.595   7.842   2.042  0.2899  0.3689  0.4818
  142MOL0     C19497  12.752   7.844   2.055 -0.6762 -0.0565 -0.2425
  142MOL0     C19498  12.811   7.781   1.933  0.7989  0.5479  0.2995
  142MOL0     C19499  12.965   7.772   1.926  0.0203  0.4749  0.5507
  142MOL0     C19500  13.011   7.706   1.796  0.4690 -0.9301 -1.1447
  142MOL0     C19501  13.154   7.731   1.769 -0.2994 -0.0444 -0.4568
  142MOL0     C19502  13.240   7.620   1.829 -0.9014 -0.7940 -0.0435
  142MOL0    Cl19503  13.413   7.661   1.816 -0.2842 -0.0083 -0.1235
  142MOL0     C19504  12.222   7.584   2.177  0.4548  0.0569 -0.0777
  142MOL0     C19505  12.137   7.476   2.183 -0.4913 -0.1718 -1.1389
  142MOL0     O19506  11.920   7.393   1.954  0.8186 -0.3596  0.1031
  142MOL0     C19507  11.872   7.077   2.131 -0.4631  0.9508  0.8074
  142MOL0     C19508  11.767   6.991   2.170  0.2234  0.0637  0.4223
  142MOL0     N19509  11.284   6.439   2.004  0.0199  0.1614  0.4584
  142MOL0     N19510  11.223   6.327   2.013 -0.2795  0.0234  0.5258
  142MOL0     C19511  10.083   5.734   1.714  0.1886 -1.1910 -0.9884
  142MOL0     C19512   9.946   5.753   1.682 -0.2185  0.0226  0.5136
  142MOL0     C19513   9.576   5.916   1.475  0.1012  0.8103 -0.4202
  142MOL0     C19514   9.513   5.967   1.590 -0.7012  0.2180  0.3441
  142MOL0     C19515   9.380   5.975   1.597 -0.4266 -0.5916 -0.1004
  142MOL0     C19516   9.296   5.934   1.489 -0.3166  0.3603  0.4937
  142MOL0     O19517   9.162   5.958   1.487 -0.8257  0.3395  0.5862
  142MOL0     C19518   9.075   5.853   1.443  0.9547  0.5748  0.0015
  142MOL0     C19519   9.066   5.743   1.550  0.7811 -0.2045 -0.0805
  142MOL0     C19520   9.009   5.609   1.498  0.0416  0.9035  0.4535
  142MOL0     C19521   9.054   5.538   1.375  0.2684 -0.0342 -0.1158
  142MOL0     C19522   9.186   5.486   1.364 -0.3752 -0.3463  0.9326
  142MOL0     C19523   9.289   5.440   1.340 -0.5867 -0.2301  0.6218
  142MOL0     C19524   9.358   5.885   1.377  0.4958 -0.3646  0.1132
  142MOL0     C19525   9.497   5.871   1.364  1.1143  0.5453  0.2453
  142MOL0     C19526   9.536   5.790   1.253 -0.0973  0.8427  0.0470
  142MOL0     H19527   9.975   6.076   1.569  1.8198 -0.5661 -0.8222
  142MOL0     H19528  10.196   6.053   1.651 -1.9965  0.9726 -0.0891
  142MOL0     H19529  10.398   5.953   1.609  0.7468  0.4512  0.5297
  142MOL0     H19530  10.401   5.781   1.563 -2.8887 -2.1046  1.4397
  142MOL0     H19531  10.548   5.722   1.755  0.0957  0.2778 -0.2633
  142MOL0     H19532  10.626   5.846   1.671  1.2331  2.8162  2.7244
  142MOL0     H19533  10.497   6.026   1.812 -0.4096 -0.2538  4.0267
  142MOL0     H19534  10.488   5.899   1.934 -0.5081  0.0523  0.5259
  142MOL0     H19535  10.735   5.888   1.920 -2.1151 -1.6015 -2.0524
  142MOL0     H19536  10.749   5.986   1.786  1.6057 -4.5678  0.0854
  142MOL0     H19537  10.597   6.105   2.028  0.6247  3.3551  1.1711
  142MOL0     H19538  10.689   6.189   1.901  2.6232  0.7983  1.7480
  142MOL0     H19539  10.763   6.131   2.160  0.5424  1.0937 -0.9429
  142MOL0     H19540  10.830   5.989   2.080 -2.0572  0.0183  0.4134
  142MOL0     H19541  10.863   6.290   1.985 -1.5953  0.0380  1.9187
  142MOL0     H19542  10.954   6.156   1.914  1.7488 -0.9825  1.1794
  142MOL0     H19543  10.967   6.221   2.194 -3.8234  3.1521 -2.3272
  142MOL0     H19544  11.076   6.115   2.098  2.6343  1.2305  1.5139
  142MOL0     H19545  10.987   6.505   2.140 -0.8694 -0.3406 -1.4887
  142MOL0     H19546  11.087   6.703   2.080 -0.1595  0.7693 -0.8103
  142MOL0     H19547  11.207   6.704   1.947  1.0833 -0.1515  0.6593
  142MOL0     H19548  11.268   6.726   2.244  2.4087  1.9943  0.1743
  142MOL0     H19549  11.385   6.669   2.122  0.4985  2.7952 -1.0972
  142MOL0     H19550  11.348   6.874   1.993 -0.1490 -0.9215  0.2602
  142MOL0     H19551  11.212   6.925   2.099 -0.4125 -0.6858 -0.8118
  142MOL0     H19552  11.403   7.055   2.159 -1.6409 -0.6213 -1.9830
  142MOL0     H19553  11.390   6.931   2.280 -2.0133 -0.2596 -0.9480
  142MOL0     H19554  11.531   7.091   1.941  1.0910  0.0641 -2.5219
  142MOL0     H19555  11.666   7.400   1.939 -1.7544  0.5836 -2.3785
  142MOL0     H19556  11.553   7.300   1.873 -0.4735 -2.1479 -2.0299
  142MOL0     H19557  11.718   7.299   1.805  0.4117  0.8583  1.1416
  142MOL0     H19558  12.266   7.323   1.899  1.7494 -1.6018  2.4682
  142MOL0     H19559  12.397   7.512   1.895 -2.5522 -3.8233 -1.3795
  142MOL0     H19560  12.583   7.661   2.157 -2.7282 -2.0904  0.1936
  142MOL0     H19561  12.559   7.639   1.977  1.1173  0.3527  0.2289
  142MOL0     H19562  12.564   7.870   1.941 -0.3691  0.0161  0.5813
  142MOL0     H19563  12.556   7.912   2.116  0.0956 -1.2091  1.9326
  142MOL0     H19564  12.784   7.798   2.149  0.0894  1.7258  0.4080
  142MOL0     H19565  12.778   7.950   2.054 -0.3235 -0.1210  0.6582
  142MOL0     H19566  12.764   7.832   1.848 -0.5761 -1.4412 -0.2148
  142MOL0     H19567  12.771   7.680   1.921  0.6953  0.8618 -2.8627
  142MOL0     H19568  13.005   7.872   1.943 -1.5516  1.3421 -0.5631
  142MOL0     H19569  13.001   7.714   2.012  0.1654 -1.6257 -0.8642
  142MOL0     H19570  12.947   7.759   1.725 -3.0736  1.8782  3.4692
  142MOL0     H19571  12.999   7.598   1.798  2.0881 -1.1429 -1.6677
  142MOL0     H19572  13.198   7.820   1.817  3.1384 -2.3320  1.0615
  142MOL0     H19573  13.171   7.737   1.661  0.6083  0.6782 -0.2926
  142MOL0     H19574  13.227   7.519   1.788 -1.1679 -1.4901  1.6602
  142MOL0     H19575  13.213   7.616   1.935  1.1744  1.0399  0.6213
  142MOL0     H19576  12.235   7.661   2.253  0.0272 -2.4796  2.7547
  142MOL0     H19577  12.068   7.472   2.267  2.2763 -3.1088  1.3016
  142MOL0     H19578  11.970   7.060   2.176 -0.4331 -2.3843 -0.1939
  142MOL0     H19579  11.791   6.929   2.256 -0.1962  0.2785  0.6976
  142MOL0     H19580  10.123   5.645   1.763  3.1325  1.4283  1.8502
  142MOL0     H19581   9.869   5.677   1.689 -1.9356  1.2925 -2.4745
  142MOL0     H19582   9.578   5.992   1.674  0.6534  0.0743 -0.6256
  142MOL0     H19583   9.321   6.017   1.677 -1.3231 -1.9973  0.0237
  142MOL0     H19584   8.974   5.887   1.419  0.7383 -0.6267 -0.9376
  142MOL0     H19585   9.109   5.795   1.356 -0.1880 -1.7856  1.0145
  142MOL0     H19586   8.995   5.781   1.623 -0.8810 -0.3984 -1.5444
  142MOL0     H19587   9.161   5.719   1.600 -0.6808 -2.1052  1.9779
  142MOL0     H19588   9.026   5.536   1.577  0.1589  1.9395  1.4070
  142MOL0     H19589   8.901   5.621   1.499  0.2248  3.1067 -0.1301
  142MOL0     H19590   9.042   5.587   1.278  2.0660  0.9788  0.1386
  142MOL0     H19591   8.992   5.448   1.383 -0.3189  0.4103  0.3207
  142MOL0     H19592   9.379   5.383   1.323 -0.2220  0.1115  1.4000
  142MOL0     H19593   9.297   5.870   1.289  1.7451  1.8370 -1.2410
  142MOL0     H19594   9.636   5.752   1.275  0.0138  1.9217  1.5409
  142MOL0     H19595   9.476   5.703   1.226  1.1622 -1.2307  3.2659
  142MOL0     H19596   9.546   5.851   1.163  1.8733  0.9357  0.2839
  143MOL0     O19597   7.095  10.696   8.344  0.4731 -0.2939  0.0032
  143MOL0     C19598   7.146  10.628   8.433  0.0730  0.2456  0.3048
  143MOL0     O19599   7.277  10.640   8.472 -0.1522 -0.1956 -0.8498
  143MOL0     C19600   7.357  10.739   8.415  0.2185  0.6311 -0.5368
  143MOL0     C19601   7.321  10.872   8.388 -0.3303 -0.4020 -0.9471
  143MOL0     C19602   7.399  10.955   8.329  0.0442 -0.6243 -0.4013
  143MOL0     C19603   7.528  10.911   8.302  0.9973  0.5483  0.3483
  143MOL0     O19604   7.618  10.974   8.232 -0.8598 -0.1323 -0.1198
  143MOL0     C19605   7.647  11.116   8.274  0.0675  0.0657  0.7700
  143MOL0     C19606   7.783  11.160   8.232  0.2461  0.4681 -0.3149
  143MOL0     C19607   7.893  11.086   8.310  0.3638 -0.3873 -0.5270
  143MOL0     C19608   8.032  11.107   8.247  0.2433  0.0074  1.0239
  143MOL0     C19609   8.117  11.001   8.326 -0.8213  0.2115  0.5354
  143MOL0     C19610   8.249  10.980   8.249 -0.3074  0.6942  0.1861
  143MOL0     C19611   8.341  10.875   8.313 -0.3698  0.2334  0.2864
  143MOL0     C19612   8.490  10.912   8.296  1.0474 -0.0589 -0.0260
  143MOL0     N19613   8.540  10.895   8.151  0.6414  0.7667 -0.2872
  143MOL0     C19614   8.494  10.833   8.040  0.6038  0.5115 -0.6061
  143MOL0     C19615   8.593  10.828   7.957 -0.0117  0.0018  0.9930
  143MOL0     C19616   8.582  10.757   7.826 -0.0420 -0.2448  0.3200
  143MOL0     C19617   8.531  10.612   7.830 -0.6095 -0.4207  0.5002
  143MOL0     C19618   8.612  10.512   7.923 -0.3471  0.1986 -0.3579
  143MOL0     C19619   8.763  10.516   7.922 -0.6521  0.2553  0.0236
  143MOL0     O19620   8.800  10.490   7.783  0.0295 -0.0856 -0.0094
  143MOL0     C19621   8.933  10.504   7.753 -0.2592  0.2682 -0.5879
  143MOL0     C19622   8.959  10.523   7.620 -0.0614  1.0977  0.4255
  143MOL0     C19623   9.084  10.529   7.571 -0.1146  0.5955  0.9378
  143MOL0     C19624   9.117  10.526   7.415 -0.5336  0.6371 -0.0393
  143MOL0     C19625   9.193  10.522   7.663  0.0014  0.3901  0.1632
  143MOL0     C19626   9.342  10.544   7.628 -0.1105  0.7059 -0.4755
  143MOL0     O19627   9.356  10.619   7.516 -0.5395 -0.3997  0.0523
  143MOL0     C19628   9.495  10.649   7.485  0.6880 -0.1155 -0.0133
  143MOL0     C19629   9.547  10.760   7.550  0.6339 -0.7942  0.3490
  143MOL0     C19630   9.672  10.795   7.519  0.4105  0.0835 -0.2742
  143MOL0     C19631   9.754  10.721   7.435 -0.1284  0.1607  0.0048
  143MOL0     O19632   9.881  10.748   7.400 -0.5068 -0.4089 -0.8467
  143MOL0     C19633   9.919  10.886   7.425  0.3480 -0.4944  0.1274
  143MOL0     C19634  10.010  10.935   7.324  0.2647  0.1963 -0.3146
  143MOL0     C19635  10.078  11.071   7.357  0.8812  0.8049 -0.0023
  143MOL0     C19636  10.209  11.064   7.281  0.3974 -0.5007  0.3120
  143MOL0     C19637  10.278  11.201   7.310  0.3548  0.6200  0.4710
  143MOL0     C19638  10.403  11.224   7.219 -0.7529  0.1172  0.1354
  143MOL0     C19639  10.511  11.126   7.272  0.3381 -0.3234 -0.0747
  143MOL0     C19640  10.538  10.999   7.190 -0.0909 -0.5547 -0.2782
  143MOL0    Cl19641  10.625  11.041   7.041 -0.2387  0.0163 -0.4198
  143MOL0     C19642   9.701  10.613   7.369  0.5210  0.7040  0.0162
  143MOL0     C19643   9.562  10.588   7.379 -0.1324 -0.0155 -0.3959
  143MOL0     O19644   9.436  10.515   7.705  0.9414 -0.2969  0.2803
  143MOL0     C19645   9.167  10.514   7.800  0.3560 -0.6055  0.1726
  143MOL0     C19646   9.039  10.491   7.840 -0.2586  0.2668 -0.4547
  143MOL0     N19647   8.709  10.874   8.012 -0.3723 -0.2453  0.4724
  143MOL0     N19648   8.668  10.926   8.125  0.5608  0.3147  0.2411
  143MOL0     C19649   7.565  10.774   8.318  0.5307  0.5572  0.1380
  143MOL0     C19650   7.483  10.687   8.384  0.2504 -0.2040 -0.2906
  143MOL0     C19651   7.065  10.522   8.487 -0.1910 -0.6940  0.4581
  143MOL0     C19652   6.926  10.538   8.497 -0.6710  1.0580 -0.2623
  143MOL0     C19653   6.839  10.448   8.561 -0.5671 -0.5023  0.9036
  143MOL0     C19654   6.891  10.343   8.623  0.4667 -0.7417  0.0010
  143MOL0     O19655   6.801  10.268   8.697  0.5160 -0.3351  0.9988
  143MOL0     C19656   6.828  10.130   8.732  1.0562  0.2344  0.5764
  143MOL0     C19657   6.711  10.078   8.836 -0.3171 -0.5384  0.4883
  143MOL0     C19658   6.585  10.026   8.769 -0.3679 -0.8654  0.0194
  143MOL0     C19659   6.512   9.922   8.858 -0.0323 -0.0133  0.0814
  143MOL0     C19660   6.378   9.894   8.805  0.1893  0.8411  0.5397
  143MOL0     C19661   6.276   9.864   8.746 -0.7101 -0.3439  0.0714
  143MOL0     C19662   7.034  10.319   8.612 -0.1721  0.5823 -0.6411
  143MOL0     C19663   7.118  10.408   8.556 -0.0097 -0.2355 -0.3122
  143MOL0     C19664   7.271  10.370   8.566  0.3472  0.3185 -0.2250
  143MOL0     H19665   7.223  10.905   8.421 -0.0762 -0.9906  0.4535
  143MOL0     H19666   7.364  11.057   8.312 -3.2552 -1.1714  2.1412
  143MOL0     H19667   7.658  11.119   8.383 -1.0976 -0.5428  0.9161
  143MOL0     H19668   7.562  11.175   8.240 -1.7735 -3.2980 -0.9231
  143MOL0     H19669   7.790  11.156   8.123 -0.9073  0.2794 -0.3929
  143MOL0     H19670   7.799  11.267   8.248  0.9299  0.0108  2.7818
  143MOL0     H19671   7.898  11.115   8.415  0.7319  2.1371 -1.1686
  143MOL0     H19672   7.865  10.981   8.299  1.7030 -0.5831 -2.7737
  143MOL0     H19673   8.040  11.095   8.138 -1.1089  0.5386  0.8422
  143MOL0     H19674   8.056  11.211   8.269 -1.1899  0.0923  2.3195
  143MOL0     H19675   8.069  10.903   8.318  0.7667 -0.8168  2.6153
  143MOL0     H19676   8.138  11.032   8.428  1.1134  0.3092  0.1478
  143MOL0     H19677   8.230  10.956   8.144  0.2066  0.9398  0.0337
  143MOL0     H19678   8.300  11.076   8.259 -0.1287  0.7363 -0.9669
  143MOL0     H19679   8.324  10.774   8.274  0.5209  0.2674 -0.2229
  143MOL0     H19680   8.326  10.891   8.420  3.4618  4.6131  0.5034
  143MOL0     H19681   8.508  11.016   8.323  0.1271  0.5990 -1.7632
  143MOL0     H19682   8.527  10.836   8.365 -1.3016 -0.6530  0.7030
  143MOL0     H19683   8.395  10.792   8.027  0.1760  1.7217 -1.3547
  143MOL0     H19684   8.679  10.745   7.778 -0.7293  0.3232 -1.3011
  143MOL0     H19685   8.530  10.820   7.753  4.7050 -1.0762 -4.3841
  143MOL0     H19686   8.427  10.606   7.861 -0.7274 -1.2819 -0.0290
  143MOL0     H19687   8.528  10.589   7.723  0.6011  0.2366  0.2996
  143MOL0     H19688   8.568  10.523   8.023  0.5602  3.5834 -0.2091
  143MOL0     H19689   8.583  10.415   7.883  3.0979 -0.3410 -1.9283
  143MOL0     H19690   8.794  10.616   7.956  0.0594  0.5406 -1.3774
  143MOL0     H19691   8.806  10.444   7.991 -0.3773  2.4288  2.2823
  143MOL0     H19692   8.875  10.518   7.552 -1.8725  1.5377  2.5098
  143MOL0     H19693   9.193  10.449   7.397  0.2866  0.5115  3.3702
  143MOL0     H19694   9.150  10.625   7.379 -1.6631  0.1710 -2.6126
  143MOL0     H19695   9.027  10.502   7.357 -0.3374 -0.2698  0.0174
  143MOL0     H19696   9.485  10.828   7.608 -0.9647 -2.2257  0.3932
  143MOL0     H19697   9.714  10.883   7.565 -1.6531  0.7943  0.3970
  143MOL0     H19698   9.841  10.963   7.431 -0.5295 -1.4432  1.3339
  143MOL0     H19699   9.967  10.888   7.523 -2.1693  0.8617  1.4315
  143MOL0     H19700  10.073  10.849   7.302 -1.2813 -0.6180 -1.7884
  143MOL0     H19701   9.948  10.950   7.235 -2.8357  0.4221  1.7354
  143MOL0     H19702  10.105  11.076   7.463 -3.3225 -2.0385  1.4527
  143MOL0     H19703  10.024  11.159   7.321  0.7844  1.3928  1.4930
  143MOL0     H19704  10.192  11.057   7.173  0.0681 -1.9271  0.4306
  143MOL0     H19705  10.279  10.982   7.299 -1.1239 -1.9913 -0.2521
  143MOL0     H19706  10.208  11.284   7.300 -0.4337 -0.1136 -0.2116
  143MOL0     H19707  10.303  11.194   7.416 -1.2165 -0.6897  0.7808
  143MOL0     H19708  10.430  11.330   7.208  0.4335 -0.2748 -1.0276
  143MOL0     H19709  10.372  11.193   7.118 -3.1644 -1.5206  1.2983
  143MOL0     H19710  10.491  11.089   7.373  0.0300  0.3593  0.1179
  143MOL0     H19711  10.605  11.183   7.278 -1.8726  3.6194  0.0276
  143MOL0     H19712  10.444  10.950   7.166 -0.0076 -1.6767  1.4708
  143MOL0     H19713  10.600  10.934   7.253 -1.0247 -1.0902  0.0981
  143MOL0     H19714   9.757  10.556   7.296 -0.4596 -2.2491  1.3731
  143MOL0     H19715   9.513  10.516   7.314  1.3234 -0.9776 -0.4737
  143MOL0     H19716   9.249  10.503   7.871 -1.2981  0.3170  2.3506
  143MOL0     H19717   9.011  10.469   7.942 -0.2334 -0.8760 -0.6812
  143MOL0     H19718   7.658  10.734   8.278 -0.3005  0.0345 -1.3493
  143MOL0     H19719   7.496  10.583   8.411  1.7911  0.3189  1.1101
  143MOL0     H19720   6.884  10.623   8.444 -0.1871 -0.0937 -2.6470
  143MOL0     H19721   6.731  10.456   8.562 -0.9055 -1.4439 -3.7571
  143MOL0     H19722   6.820  10.068   8.642  1.0801 -3.6611  3.0327
  143MOL0     H19723   6.928  10.122   8.776  1.6951 -3.0096 -1.1538
  143MOL0     H19724   6.677  10.160   8.900 -1.1403 -0.0211 -0.5947
  143MOL0     H19725   6.765  10.006   8.899 -0.5639 -2.2345 -1.1805
  143MOL0     H19726   6.524  10.114   8.745  1.0146 -0.1534 -1.0280
  143MOL0     H19727   6.607   9.979   8.673  0.6820 -1.9148  0.7451
  143MOL0     H19728   6.501   9.960   8.960  0.7497  1.0739 -0.2253
  143MOL0     H19729   6.558   9.822   8.859  0.9958  0.4180  2.6807
  143MOL0     H19730   6.190   9.836   8.688 -0.5709  0.8886 -0.7732
  143MOL0     H19731   7.066  10.225   8.656 -4.2693 -0.4277  0.6200
  143MOL0     H19732   7.311  10.426   8.651  0.1018 -1.4137  1.0786
  143MOL0     H19733   7.284  10.263   8.584 -0.0477  0.1803 -0.7169
  143MOL0     H19734   7.319  10.383   8.468 -0.5326  1.3022 -0.5524
  144MOL0     O19735   2.359   4.520   1.716 -0.5915  0.5384 -0.6405
  144MOL0     C19736   2.311   4.513   1.603 -0.2077  0.5313  0.4713
  144MOL0     O19737   2.201   4.440   1.565  0.4633  0.1780 -0.5118
  144MOL0     C19738   2.140   4.373   1.671 -0.1888 -0.5561 -0.0277
  144MOL0     C19739   2.080   4.440   1.775 -0.0792 -0.2893  0.9240
  144MOL0     C19740   2.008   4.377   1.880 -1.0250 -0.4144  0.5552
  144MOL0     C19741   2.014   4.230   1.875 -0.1819 -0.4152 -0.0144
  144MOL0     O19742   1.938   4.173   1.975 -0.0043  0.6284 -0.4961
  144MOL0     C19743   2.004   4.142   2.099  0.6702 -0.3510  0.2136
  144MOL0     C19744   1.893   4.100   2.181  0.5813 -0.0542  0.1504
  144MOL0     C19745   1.902   4.102   2.337 -0.5456  0.3194  0.5113
  144MOL0     C19746   2.013   4.001   2.387 -0.0477  0.4376  0.5103
  144MOL0     C19747   2.031   4.003   2.538 -0.3443 -1.2128  0.2216
  144MOL0     C19748   2.114   3.884   2.587 -0.1301 -0.2643 -0.4407
  144MOL0     C19749   2.128   3.897   2.741  0.3137 -0.4548  1.0180
  144MOL0     C19750   2.241   3.802   2.784  0.0244  0.0606  0.1553
  144MOL0     N19751   2.372   3.827   2.711  0.7604  1.1269 -0.8714
  144MOL0     C19752   2.452   3.941   2.720 -0.4753 -0.4828  0.2841
  144MOL0     C19753   2.570   3.906   2.662 -0.0623 -0.3207 -0.3204
  144MOL0     C19754   2.705   3.983   2.655 -0.7017 -0.8785 -0.5079
  144MOL0     C19755   2.746   4.040   2.526 -0.1746 -0.2729  0.6418
  144MOL0     C19756   2.889   4.096   2.526  0.1770  0.0334 -0.1963
  144MOL0     C19757   2.917   4.154   2.391 -0.8141  1.3692 -0.4219
  144MOL0     O19758   2.888   4.059   2.286  0.0921 -0.2383  0.7996
  144MOL0     C19759   2.987   3.988   2.231  0.1486 -0.7061  0.3029
  144MOL0     C19760   3.118   3.976   2.274 -0.0482 -0.0246  1.2680
  144MOL0     C19761   3.217   3.907   2.200  0.3701  0.2975 -0.5785
  144MOL0     C19762   3.364   3.910   2.245  0.6458  0.2651  0.5060
  144MOL0     C19763   3.172   3.834   2.082 -0.0435  0.4853 -0.1294
  144MOL0     C19764   3.278   3.755   2.000  0.0198  0.3504 -0.1984
  144MOL0     O19765   3.259   3.741   1.864  0.1405 -0.3602 -0.2118
  144MOL0     C19766   3.295   3.627   1.807  0.2189  0.3093  0.2946
  144MOL0     C19767   3.400   3.616   1.718 -0.2835  0.3101 -0.1212
  144MOL0     C19768   3.435   3.489   1.654  0.3848 -0.5268 -1.0554
  144MOL0     C19769   3.340   3.387   1.665  0.5257  0.0501 -0.1974
  144MOL0     O19770   3.352   3.271   1.594 -0.4466  0.9310  0.1391
  144MOL0     C19771   3.386   3.288   1.456  0.1214 -0.9742  0.0269
  144MOL0     C19772   3.498   3.198   1.412  0.3637  0.0885 -0.1299
  144MOL0     C19773   3.637   3.232   1.469  0.6231 -0.7368  0.4587
  144MOL0     C19774   3.752   3.171   1.381  0.8248 -0.0988 -0.1768
  144MOL0     C19775   3.893   3.181   1.455  0.1314  0.7347 -0.6326
  144MOL0     C19776   3.906   3.153   1.601  0.4427  0.3735 -0.6691
  144MOL0     C19777   4.051   3.121   1.637 -0.3572 -0.0375  0.0994
  144MOL0     C19778   4.074   3.123   1.792 -0.6448  0.2823 -0.3082
  144MOL0    Cl19779   4.236   3.051   1.835 -0.1855  0.1090 -0.3867
  144MOL0     C19780   3.237   3.393   1.758 -1.0214  0.3910 -0.0999
  144MOL0     C19781   3.218   3.508   1.829 -0.1975 -0.3771  0.0768
  144MOL0     O19782   3.362   3.686   2.061  0.1085  0.2690  0.3947
  144MOL0     C19783   3.037   3.844   2.043 -0.1660 -0.0755  0.0965
  144MOL0     C19784   2.947   3.905   2.129  0.1990 -0.6482  0.8243
  144MOL0     N19785   2.562   3.770   2.621  0.0769 -0.3671  0.5123
  144MOL0     N19786   2.444   3.725   2.649 -0.1686  0.4162  0.3086
  144MOL0     C19787   2.067   4.163   1.763  1.2990  0.0069  0.0718
  144MOL0     C19788   2.132   4.234   1.659 -0.0014  0.0876  1.0148
  144MOL0     C19789   2.391   4.560   1.484 -0.3879 -0.8597  0.4459
  144MOL0     C19790   2.322   4.621   1.378  0.9404  0.4420 -0.2182
  144MOL0     C19791   2.387   4.651   1.259  0.9964 -0.6062 -0.0340
  144MOL0     C19792   2.524   4.660   1.243 -0.2818 -0.7819 -0.2199
  144MOL0     O19793   2.575   4.703   1.118  0.0415  0.6235 -0.1414
  144MOL0     C19794   2.670   4.805   1.122  0.0201  0.2960  0.0606
  144MOL0     C19795   2.754   4.808   0.996 -0.1729  0.2566  0.8984
  144MOL0     C19796   2.824   4.680   0.964 -1.1763  0.1086  0.3657
  144MOL0     C19797   2.911   4.702   0.830  0.4007 -0.6516  0.3296
  144MOL0     C19798   2.937   4.565   0.771 -0.0115  0.5463  0.0244
  144MOL0     C19799   2.953   4.463   0.704  0.9502 -0.7749 -0.4775
  144MOL0     C19800   2.601   4.603   1.350  0.6251  1.0245 -0.8820
  144MOL0     C19801   2.535   4.554   1.472 -0.0999  0.2564 -0.6347
  144MOL0     C19802   2.634   4.512   1.578 -0.5150  0.4128 -0.2347
  144MOL0     H19803   2.086   4.549   1.776  0.5709 -0.3210  1.7667
  144MOL0     H19804   1.949   4.435   1.951 -1.1007  0.4173 -0.1756
  144MOL0     H19805   2.054   4.228   2.144 -0.1404  0.5410 -0.5452
  144MOL0     H19806   2.075   4.063   2.073 -0.1030 -0.0109 -3.3320
  144MOL0     H19807   1.809   4.164   2.151  1.8285  1.2582 -0.6564
  144MOL0     H19808   1.862   4.000   2.148  0.6867  0.3164 -1.1233
  144MOL0     H19809   1.927   4.202   2.374  2.0424  0.1929 -0.6848
  144MOL0     H19810   1.804   4.070   2.375 -0.0240 -1.2882  0.5749
  144MOL0     H19811   1.992   3.900   2.351 -2.3883  0.9760  0.1889
  144MOL0     H19812   2.107   4.037   2.345  1.7399 -0.7860  3.1782
  144MOL0     H19813   1.932   3.996   2.585 -0.5138 -0.6194 -0.0334
  144MOL0     H19814   2.077   4.098   2.568 -0.1046 -0.6572 -1.7521
  144MOL0     H19815   2.060   3.789   2.573 -2.6368  0.7833  1.4431
  144MOL0     H19816   2.213   3.877   2.541  0.4362 -4.2502  0.9323
  144MOL0     H19817   2.031   3.865   2.780  0.1534 -1.2179  0.0370
  144MOL0     H19818   2.149   3.998   2.778  2.2871  0.3669 -1.9447
  144MOL0     H19819   2.248   3.792   2.893 -3.0950 -0.3704  0.4050
  144MOL0     H19820   2.208   3.702   2.754  0.9956 -0.2121 -0.0500
  144MOL0     H19821   2.438   4.038   2.768  2.4180 -0.0401  0.4190
  144MOL0     H19822   2.778   3.906   2.683 -1.4034 -2.1592 -2.0255
  144MOL0     H19823   2.693   4.064   2.727  0.1700  0.1900 -1.5159
  144MOL0     H19824   2.743   3.955   2.457  2.1774 -0.1137  0.2501
  144MOL0     H19825   2.679   4.123   2.504  1.6234  1.3952  1.1046
  144MOL0     H19826   2.908   4.171   2.603  2.6211  0.9896 -1.6136
  144MOL0     H19827   2.957   4.013   2.546 -0.9276 -0.7371  0.5029
  144MOL0     H19828   2.864   4.247   2.369  0.3885  1.9138 -1.0878
  144MOL0     H19829   3.020   4.188   2.405  0.5937 -2.4629 -0.2639
  144MOL0     H19830   3.152   4.025   2.365 -0.6264 -1.0676  2.0714
  144MOL0     H19831   3.402   3.816   2.286 -2.2723 -1.8968 -1.3825
  144MOL0     H19832   3.388   3.987   2.319 -0.5684 -0.0141  1.2152
  144MOL0     H19833   3.429   3.934   2.160  2.7271  1.3152  2.2849
  144MOL0     H19834   3.467   3.702   1.707 -1.3524  1.4395  1.7340
  144MOL0     H19835   3.516   3.492   1.582  0.0675  0.5153 -1.3901
  144MOL0     H19836   3.300   3.251   1.399 -0.5222  2.3984 -1.4205
  144MOL0     H19837   3.396   3.393   1.427 -0.3577 -0.8995  0.1289
  144MOL0     H19838   3.466   3.095   1.428  0.0959  0.5336  2.6915
  144MOL0     H19839   3.515   3.206   1.304 -0.8004  0.2531 -0.3163
  144MOL0     H19840   3.645   3.215   1.577  1.1428  1.2792  0.7798
  144MOL0     H19841   3.654   3.340   1.458  0.0510 -0.5512  1.2568
  144MOL0     H19842   3.767   3.219   1.284  0.3713  0.2616 -0.0703
  144MOL0     H19843   3.725   3.066   1.369  1.0191 -0.5631  2.7435
  144MOL0     H19844   3.949   3.103   1.403 -1.4801 -2.5253  2.1124
  144MOL0     H19845   3.937   3.280   1.441  2.2115  0.3220  2.1039
  144MOL0     H19846   3.835   3.073   1.626  2.6982 -1.0419  1.8090
  144MOL0     H19847   3.879   3.242   1.659  0.3769 -0.5295  0.7277
  144MOL0     H19848   4.119   3.188   1.583 -1.4672  2.2298  1.3580
  144MOL0     H19849   4.067   3.021   1.595 -0.2669  0.7476 -1.8349
  144MOL0     H19850   3.989   3.074   1.841 -2.2652  4.2484  1.2945
  144MOL0     H19851   4.062   3.218   1.846 -0.3114 -0.8180  1.8236
  144MOL0     H19852   3.167   3.311   1.772 -0.1530 -0.7801 -2.1386
  144MOL0     H19853   3.142   3.510   1.906  1.8093 -0.4032  2.1763
  144MOL0     H19854   2.997   3.810   1.948  1.4115 -0.6956 -0.3658
  144MOL0     H19855   2.839   3.910   2.123  0.3327  1.9770 -3.4562
  144MOL0     H19856   2.040   4.059   1.747 -2.5067  0.9667 -1.0153
  144MOL0     H19857   2.175   4.191   1.570 -1.9284 -0.7342  0.4170
  144MOL0     H19858   2.215   4.638   1.386  0.1432 -3.8595  1.0944
  144MOL0     H19859   2.311   4.711   1.208 -2.5765 -1.3844  3.7968
  144MOL0     H19860   2.621   4.903   1.127 -0.5138 -0.0226  1.7867
  144MOL0     H19861   2.742   4.794   1.204  1.0684 -0.8059 -0.9705
  144MOL0     H19862   2.833   4.882   1.006  2.0695 -1.7393 -0.9656
  144MOL0     H19863   2.687   4.833   0.913  0.8707 -1.6805 -0.6229
  144MOL0     H19864   2.897   4.656   1.042 -1.6954  1.0540  1.1634
  144MOL0     H19865   2.758   4.593   0.953  0.9711 -1.6207  0.4333
  144MOL0     H19866   3.004   4.756   0.847  0.0742  0.8067 -2.0438
  144MOL0     H19867   2.856   4.757   0.753 -0.5895 -3.0109 -0.7708
  144MOL0     H19868   2.964   4.365   0.661  0.8934 -0.2446 -1.7655
  144MOL0     H19869   2.709   4.592   1.350  0.6618  1.0786 -2.8469
  144MOL0     H19870   2.723   4.576   1.576 -0.2684  0.0797 -0.2128
  144MOL0     H19871   2.601   4.515   1.682 -1.5710 -3.7959 -0.2601
  144MOL0     H19872   2.663   4.409   1.552 -0.2631  0.4010  0.0852
  145MOL0     O19873   5.411   7.723   7.229 -0.0296  0.2252  0.5441
  145MOL0     C19874   5.362   7.771   7.126 -0.1182  0.8916  0.0216
  145MOL0     O19875   5.435   7.813   7.017  0.1893 -0.4133  0.3311
  145MOL0     C19876   5.577   7.829   7.027  0.6633  0.6294  0.9703
  145MOL0     C19877   5.643   7.903   7.127  0.0346 -0.7877  0.3087
  145MOL0     C19878   5.777   7.921   7.117 -0.4332 -0.0882  0.7509
  145MOL0     C19879   5.860   7.868   7.018 -0.2639  0.1381  0.1315
  145MOL0     O19880   5.997   7.884   7.036  0.8504  0.4839 -0.0088
  145MOL0     C19881   6.065   7.918   6.915 -0.2991  0.6987  0.9676
  145MOL0     C19882   6.155   8.039   6.936 -0.3436 -0.5192  0.3814
  145MOL0     C19883   6.228   8.048   7.076 -0.2854 -0.6295  0.0153
  145MOL0     C19884   6.315   7.928   7.095 -0.0084 -0.0114 -0.8104
  145MOL0     C19885   6.383   7.922   7.233  0.5345  0.5733 -0.5927
  145MOL0     C19886   6.531   7.976   7.241 -0.2526 -0.4562 -0.4836
  145MOL0     C19887   6.651   7.894   7.169 -0.2322 -0.4335  0.1177
  145MOL0     C19888   6.783   7.978   7.169  0.5724  0.3120 -0.0408
  145MOL0     N19889   6.842   7.959   7.306 -0.4347 -0.0476  0.0700
  145MOL0     C19890   6.892   7.838   7.352 -0.9778 -0.0440  0.3535
  145MOL0     C19891   6.980   7.874   7.447  0.6788 -0.5239 -0.2108
  145MOL0     C19892   7.088   7.777   7.500  1.2034 -0.0581  0.5162
  145MOL0     C19893   7.101   7.778   7.653  0.1142 -0.5218  0.4848
  145MOL0     C19894   7.247   7.731   7.689  0.3186  0.7740 -0.5140
  145MOL0     C19895   7.229   7.690   7.835 -0.7828 -0.2156 -0.1578
  145MOL0     O19896   7.188   7.547   7.860 -0.2922 -0.1839 -0.0772
  145MOL0     C19897   7.283   7.471   7.921 -0.0428 -0.9259  1.2585
  145MOL0     C19898   7.332   7.368   7.845 -0.6354  0.0230  0.1970
  145MOL0     C19899   7.428   7.286   7.904 -0.6012  0.0069 -0.2695
  145MOL0     C19900   7.491   7.174   7.817 -0.5299  0.1453  0.5612
  145MOL0     C19901   7.458   7.304   8.046 -0.3618 -1.1268 -0.9392
  145MOL0     C19902   7.557   7.218   8.113 -0.1622 -0.4103  0.1701
  145MOL0     O19903   7.546   7.086   8.093  0.1622 -0.1623 -0.5489
  145MOL0     C19904   7.654   7.009   8.125  0.4455 -0.8857  0.1435
  145MOL0     C19905   7.649   6.896   8.204  0.2232 -0.0422 -0.6884
  145MOL0     C19906   7.765   6.816   8.232  0.2763 -0.4747  0.0336
  145MOL0     C19907   7.887   6.853   8.177 -0.3472 -0.8753  1.1928
  145MOL0     O19908   8.007   6.778   8.195 -0.5854 -0.7440  0.2918
  145MOL0     C19909   8.009   6.643   8.237 -0.3846  0.7266 -0.0324
  145MOL0     C19910   7.996   6.569   8.111 -0.2673  0.6322  0.2113
  145MOL0     C19911   8.003   6.416   8.133  0.9500  0.1554 -0.5115
  145MOL0     C19912   7.858   6.362   8.138 -0.4806 -0.5275  0.1679
  145MOL0     C19913   7.844   6.210   8.180  0.1175  0.4299 -0.3022
  145MOL0     C19914   7.875   6.161   8.330  0.2546  0.3397  0.8790
  145MOL0     C19915   7.877   6.011   8.339 -0.6257  0.3820 -0.8386
  145MOL0     C19916   8.004   5.953   8.403 -0.7527 -0.4985  0.8244
  145MOL0    Cl19917   8.073   6.036   8.547  0.1196  0.5476  0.6297
  145MOL0     C19918   7.896   6.969   8.096  0.0277 -0.4490  0.5526
  145MOL0     C19919   7.781   7.045   8.070  0.4486  0.4175  0.2010
  145MOL0     O19920   7.634   7.273   8.191 -0.1002  0.0985 -0.2723
  145MOL0     C19921   7.405   7.420   8.117 -0.0417 -0.0537  0.2729
  145MOL0     C19922   7.328   7.504   8.053 -0.0161 -0.5563 -0.0212
  145MOL0     N19923   6.989   8.013   7.454 -0.0109  0.5139 -0.1481
  145MOL0     N19924   6.901   8.061   7.377 -0.6061  0.0715  0.1616
  145MOL0     C19925   5.796   7.795   6.919 -0.1335 -0.6018  0.8600
  145MOL0     C19926   5.654   7.775   6.919  0.1362  0.0712 -0.2457
  145MOL0     C19927   5.213   7.774   7.126 -1.3550 -0.6063  0.2032
  145MOL0     C19928   5.147   7.787   7.252  0.0174  0.4294 -0.3254
  145MOL0     C19929   5.008   7.779   7.258 -0.7051 -0.3447  0.1926
  145MOL0     C19930   4.939   7.807   7.140  0.3971  0.1659 -0.3717
  145MOL0     O19931   4.801   7.796   7.154 -0.4026 -0.8454  0.1810
  145MOL0     C19932   4.720   7.842   7.048 -0.3224 -0.3104  0.5080
  145MOL0     C19933   4.576   7.820   7.096 -0.2099  0.5946  0.7336
  145MOL0     C19934   4.471   7.886   6.999 -0.2043 -0.4996  0.6853
  145MOL0     C19935   4.470   7.810   6.867 -0.2542  1.0004 -0.0473
  145MOL0     C19936   4.394   7.872   6.760  0.0209  0.3567 -0.0256
  145MOL0     C19937   4.339   7.919   6.663  0.3609  0.5372  0.1277
  145MOL0     C19938   5.005   7.819   7.019 -0.1917 -0.8074  0.6934
  145MOL0     C19939   5.140   7.799   7.009 -0.5618  0.6512 -0.5381
  145MOL0     C19940   5.187   7.786   6.875 -0.3000  0.5276  0.0302
  145MOL0     H19941   5.589   7.966   7.196  0.7187 -0.0742  0.2143
  145MOL0     H19942   5.834   7.976   7.191 -0.0949  1.4555 -0.5980
  145MOL0     H19943   6.005   7.935   6.825  0.5474 -3.5480 -0.6302
  145MOL0     H19944   6.126   7.830   6.892  0.0877  1.8683 -3.5051
  145MOL0     H19945   6.226   8.030   6.853 -0.8958  2.1982 -0.4708
  145MOL0     H19946   6.106   8.136   6.934 -0.4535 -0.5021  2.0498
  145MOL0     H19947   6.300   8.129   7.087  0.2756 -0.8132 -1.8718
  145MOL0     H19948   6.151   8.060   7.153 -0.7958  3.1118 -0.8923
  145MOL0     H19949   6.245   7.844   7.094  1.4500 -1.3620  1.3358
  145MOL0     H19950   6.384   7.921   7.010 -0.3826  2.8122 -1.4262
  145MOL0     H19951   6.388   7.817   7.264  2.7858  1.1547  1.3390
  145MOL0     H19952   6.318   7.955   7.315 -1.4089 -0.8247 -1.4886
  145MOL0     H19953   6.530   8.079   7.205  1.4207  0.6856  2.3835
  145MOL0     H19954   6.553   7.982   7.348 -5.3624  1.1513  0.8033
  145MOL0     H19955   6.624   7.883   7.063 -0.6169  0.4092  0.1140
  145MOL0     H19956   6.661   7.795   7.214 -2.4221 -0.4535  0.6551
  145MOL0     H19957   6.849   7.937   7.092 -0.3741 -0.8080 -0.2966
  145MOL0     H19958   6.758   8.083   7.154 -2.0305 -0.0479  1.1787
  145MOL0     H19959   6.865   7.736   7.328  0.4673 -0.5996  1.0073
  145MOL0     H19960   7.182   7.816   7.457 -0.2509  3.7983  0.4695
  145MOL0     H19961   7.069   7.676   7.462 -3.4640  0.6676  0.3916
  145MOL0     H19962   7.096   7.885   7.677 -0.1131 -0.1886 -0.9372
  145MOL0     H19963   7.010   7.733   7.694 -0.3606 -1.0275 -1.0725
  145MOL0     H19964   7.271   7.649   7.621 -1.8721  0.6460 -1.2066
  145MOL0     H19965   7.303   7.825   7.681 -2.2205  2.3284 -1.4333
  145MOL0     H19966   7.321   7.717   7.888 -1.6284 -1.1982  1.9723
  145MOL0     H19967   7.153   7.751   7.885 -0.5786 -1.2599  1.5399
  145MOL0     H19968   7.299   7.347   7.744  1.8306  0.7840 -0.8559
  145MOL0     H19969   7.498   7.214   7.715  0.8950 -2.2511 -0.3708
  145MOL0     H19970   7.429   7.084   7.810  0.0192 -0.1381 -1.3265
  145MOL0     H19971   7.595   7.154   7.843  0.4909  0.6966 -2.7077
  145MOL0     H19972   7.553   6.867   8.245  0.5820  2.0751  1.9905
  145MOL0     H19973   7.768   6.731   8.299  2.1593 -0.7308 -0.3213
  145MOL0     H19974   8.109   6.620   8.277 -0.1808  0.3613 -0.7368
  145MOL0     H19975   7.934   6.621   8.313  1.1702 -1.0896  1.0603
  145MOL0     H19976   7.899   6.592   8.065 -1.6354  0.2885  2.6825
  145MOL0     H19977   8.080   6.602   8.050  0.1243 -0.2323  0.2751
  145MOL0     H19978   8.053   6.402   8.230 -0.9889 -0.2413  0.4822
  145MOL0     H19979   8.060   6.367   8.054 -1.1696  0.2844 -2.2242
  145MOL0     H19980   7.804   6.377   8.045  1.2851 -0.2733 -0.8532
  145MOL0     H19981   7.811   6.417   8.221 -0.5771 -1.1687  0.5476
  145MOL0     H19982   7.739   6.193   8.157 -0.1538  1.7602 -0.1050
  145MOL0     H19983   7.907   6.144   8.119 -0.7749 -1.1372  0.4139
  145MOL0     H19984   7.802   6.194   8.405 -0.2079 -0.5514  0.8369
  145MOL0     H19985   7.978   6.186   8.355  1.1645 -2.7814  0.6614
  145MOL0     H19986   7.860   5.969   8.239  1.1730 -1.5484 -0.4117
  145MOL0     H19987   7.797   5.974   8.403 -2.3708  2.7352 -1.5441
  145MOL0     H19988   8.079   5.941   8.324  0.0911  1.4440  1.2623
  145MOL0     H19989   7.996   5.851   8.440 -0.8075 -0.6741  0.3303
  145MOL0     H19990   7.988   6.981   8.040 -0.6899 -1.4014 -0.8947
  145MOL0     H19991   7.793   7.128   8.001  2.6964 -0.7025 -0.8397
  145MOL0     H19992   7.437   7.443   8.219 -0.9585  0.4770  0.4466
  145MOL0     H19993   7.285   7.590   8.104  1.7336  0.1263  0.4035
  145MOL0     H19994   5.843   7.755   6.829  0.9851  2.9175 -0.3078
  145MOL0     H19995   5.606   7.730   6.833  0.7556 -1.2277  0.0627
  145MOL0     H19996   5.198   7.787   7.348 -0.0942 -0.1569 -0.2631
  145MOL0     H19997   4.951   7.762   7.349 -3.9717  1.0575 -1.4123
  145MOL0     H19998   4.736   7.950   7.043  0.7615 -0.1969  3.7876
  145MOL0     H19999   4.749   7.794   6.954  1.6278 -0.0258  0.9198
  145MOL0     H20000   4.569   7.864   7.195  0.7849 -1.7792  1.9343
  145MOL0     H20001   4.551   7.715   7.117  0.1189  0.3837  0.1043
  145MOL0     H20002   4.371   7.878   7.044 -0.2141  2.1955  1.2832
  145MOL0     H20003   4.494   7.993   6.996 -0.7365 -0.4138 -0.9807
  145MOL0     H20004   4.441   7.707   6.891  2.2682  0.3012  0.2739
  145MOL0     H20005   4.574   7.795   6.839 -0.9414 -1.0385 -1.7514
  145MOL0     H20006   4.286   7.936   6.571 -1.3576 -2.7706  0.3317
  145MOL0     H20007   4.951   7.841   6.927 -0.3035  1.4378  1.2525
  145MOL0     H20008   5.257   7.705   6.857  3.6403  3.7559 -0.5843
  145MOL0     H20009   5.097   7.762   6.817 -2.5402  0.7338  3.1141
  145MOL0     H20010   5.228   7.881   6.840 -0.1370  0.7495  0.7955
  146MOL0     O20011  10.107   8.526   9.739  0.2369  0.0644 -0.2370
  146MOL0     C20012  10.097   8.614   9.823  0.6782  0.1959  0.1277
  146MOL0     O20013  10.066   8.742   9.789  0.0864  0.2331 -0.0769
  146MOL0     C20014  10.022   8.760   9.661 -0.0267  0.2510 -0.8352
  146MOL0     C20015  10.111   8.805   9.566 -0.1264  0.0049  0.0643
  146MOL0     C20016  10.069   8.819   9.434 -0.0279  0.2458 -0.4302
  146MOL0     C20017   9.945   8.784   9.397  0.4284 -1.0436  1.1909
  146MOL0     O20018   9.912   8.812   9.261  0.2468 -0.0848 -0.2604
  146MOL0     C20019   9.917   8.949   9.231  0.3753 -0.5765  0.7774
  146MOL0     C20020   9.940   8.968   9.077  0.9572  0.1128 -0.9495
  146MOL0     C20021   9.817   8.921   8.997  0.1707 -0.3654  0.0854
  146MOL0     C20022   9.699   9.014   9.009 -0.4549 -0.7648  0.2504
  146MOL0     C20023   9.580   8.980   8.919 -0.6745 -0.3924 -0.9264
  146MOL0     C20024   9.614   8.986   8.768 -0.1518  0.8290  0.2031
  146MOL0     C20025   9.476   8.955   8.703  0.1873 -0.2135 -0.3680
  146MOL0     C20026   9.496   8.993   8.561 -0.3219 -0.5843  0.0195
  146MOL0     N20027   9.376   8.978   8.473 -0.1058 -0.1487  0.3903
  146MOL0     C20028   9.320   8.861   8.437 -0.1103 -0.3113  0.6240
  146MOL0     C20029   9.215   8.885   8.355 -0.1295  0.2425  0.4272
  146MOL0     C20030   9.115   8.787   8.294 -1.0416 -0.3771 -0.0175
  146MOL0     C20031   8.965   8.818   8.328 -0.1955 -0.6531  0.7650
  146MOL0     C20032   8.926   8.765   8.466 -0.1636 -0.2896  0.5627
  146MOL0     C20033   8.988   8.845   8.578  0.3886  0.0946  0.1765
  146MOL0     O20034   9.100   8.772   8.632 -0.0628 -0.0530 -0.0156
  146MOL0     C20035   9.155   8.824   8.744  0.2620  0.6380 -0.6798
  146MOL0     C20036   9.231   8.733   8.824  0.1362  1.2358  0.1645
  146MOL0     C20037   9.277   8.760   8.951 -0.2966 -0.2212 -0.2131
  146MOL0     C20038   9.364   8.660   9.013 -1.2572 -0.4935 -0.1355
  146MOL0     C20039   9.246   8.886   9.003 -0.8032 -0.4044  0.2904
  146MOL0     C20040   9.290   8.933   9.128 -0.2069 -0.4978  0.1215
  146MOL0     O20041   9.310   8.848   9.237  0.5378  0.2372 -0.0780
  146MOL0     C20042   9.357   8.910   9.345 -0.0345  0.6111  0.7671
  146MOL0     C20043   9.268   8.981   9.433 -1.0469  0.0698  0.3390
  146MOL0     C20044   9.316   9.020   9.561  0.1200  0.5441  0.2303
  146MOL0     C20045   9.457   9.000   9.591 -0.3647 -0.4280 -0.4573
  146MOL0     O20046   9.505   9.065   9.704 -0.1433 -0.2178 -0.3304
  146MOL0     C20047   9.602   8.994   9.782  0.3655  0.6123 -0.1779
  146MOL0     C20048   9.623   9.063   9.919  0.5940 -0.6356  0.2915
  146MOL0     C20049   9.701   8.969  10.005  0.2883  1.4847 -0.3613
  146MOL0     C20050   9.775   9.057  10.111 -0.2422 -0.0614 -0.3489
  146MOL0     C20051   9.884   8.966  10.166  0.0760  0.2705 -0.7964
  146MOL0     C20052   9.936   9.031  10.305  0.2397 -0.5057  0.2378
  146MOL0     C20053   9.830   9.028  10.413  0.3067  0.4174 -0.7250
  146MOL0     C20054   9.906   9.126  10.508 -0.2145  0.5193 -0.5314
  146MOL0    Cl20055  10.072   9.073  10.546 -0.5370  0.1395 -0.6787
  146MOL0     C20056   9.535   8.923   9.507 -0.9021  0.0013  0.2589
  146MOL0     C20057   9.489   8.882   9.377  0.0256 -0.8381 -0.4058
  146MOL0     O20058   9.314   9.051   9.127  0.2412  0.1992  0.4526
  146MOL0     C20059   9.174   8.977   8.921  0.0884  0.5774 -0.2395
  146MOL0     C20060   9.133   8.949   8.799 -0.1678  0.3677 -0.5869
  146MOL0     N20061   9.216   9.020   8.337 -0.1306 -0.4262  0.4160
  146MOL0     N20062   9.310   9.073   8.402 -1.0769 -0.6952  0.1017
  146MOL0     C20063   9.863   8.719   9.483  0.4296 -0.7727  0.2249
  146MOL0     C20064   9.900   8.715   9.624 -1.4620  0.3482  0.6384
  146MOL0     C20065  10.101   8.577   9.965 -0.9883 -0.0582 -0.9863
  146MOL0     C20066  10.144   8.683  10.054 -0.3020  0.6072  1.0743
  146MOL0     C20067  10.156   8.657  10.197 -0.6810 -1.1845 -0.0616
  146MOL0     C20068  10.122   8.529  10.244  0.2289  0.3243 -0.9259
  146MOL0     O20069  10.116   8.492  10.378  0.4784  0.3044  0.2558
  146MOL0     C20070  10.173   8.561  10.482 -0.0331  0.1976 -0.1073
  146MOL0     C20071  10.067   8.665  10.532 -0.2184 -0.4950  0.5635
  146MOL0     C20072   9.947   8.601  10.597 -0.2212  0.4694  0.2825
  146MOL0     C20073   9.853   8.719  10.645  0.4372  0.4107  0.1317
  146MOL0     C20074   9.915   8.812  10.744  0.1929 -0.4287 -0.0017
  146MOL0     C20075   9.956   8.891  10.826 -0.2268 -0.8901  0.4929
  146MOL0     C20076  10.069   8.428  10.159  0.1432 -0.1028  0.8823
  146MOL0     C20077  10.069   8.444  10.017 -0.8709  0.5997  0.1835
  146MOL0     C20078  10.016   8.331   9.938 -0.0692  1.3053 -0.9976
  146MOL0     H20079  10.213   8.798   9.603 -1.0714 -3.1765  2.4627
  146MOL0     H20080  10.150   8.843   9.366 -0.9368 -0.1377 -1.6983
  146MOL0     H20081  10.003   8.999   9.277  0.0315 -1.0675  2.0018
  146MOL0     H20082   9.823   8.997   9.256 -0.2816 -1.1283 -0.5356
  146MOL0     H20083   9.961   9.073   9.052  1.4613  0.4942  0.8848
  146MOL0     H20084  10.024   8.911   9.037  0.1115  0.3464 -3.1689
  146MOL0     H20085   9.838   8.913   8.889  0.3307 -0.0628  0.0958
  146MOL0     H20086   9.780   8.825   9.035 -2.0541  0.8386  1.1206
  146MOL0     H20087   9.678   9.015   9.116  1.2538 -1.1481  0.6183
  146MOL0     H20088   9.734   9.115   8.986 -1.5253 -0.2217  0.9134
  146MOL0     H20089   9.502   9.055   8.935 -0.1791  0.1582 -1.0398
  146MOL0     H20090   9.557   8.876   8.942  0.3566 -0.9765 -2.3453
  146MOL0     H20091   9.661   9.080   8.738  3.8162 -0.9098  0.2485
  146MOL0     H20092   9.676   8.902   8.735  0.1420  1.7076 -1.5773
  146MOL0     H20093   9.385   8.996   8.746  0.7373  0.2383  0.3870
  146MOL0     H20094   9.467   8.846   8.707  2.3850 -0.5770 -2.5196
  146MOL0     H20095   9.519   9.100   8.553 -0.7435 -0.5012 -0.0730
  146MOL0     H20096   9.579   8.953   8.502 -1.6015 -0.3165 -2.0972
  146MOL0     H20097   9.345   8.760   8.468 -1.3955 -0.8854 -0.1369
  146MOL0     H20098   9.131   8.690   8.340  0.2195 -1.8404 -3.2604
  146MOL0     H20099   9.133   8.783   8.186  0.5030  0.9909  0.1453
  146MOL0     H20100   8.934   8.922   8.314 -0.2795 -0.7197  0.4510
  146MOL0     H20101   8.909   8.750   8.263 -1.1391 -2.2404  3.0855
  146MOL0     H20102   8.819   8.778   8.483 -0.3774 -1.4850  0.2289
  146MOL0     H20103   8.951   8.659   8.472  1.9573  0.1787  0.8069
  146MOL0     H20104   9.016   8.945   8.543 -0.6749  0.2954 -0.1632
  146MOL0     H20105   8.910   8.855   8.655 -2.0000  0.2859 -2.1096
  146MOL0     H20106   9.251   8.637   8.778  0.8629  1.3753  0.1722
  146MOL0     H20107   9.402   8.583   8.945  0.6968 -0.7962  1.2058
  146MOL0     H20108   9.310   8.609   9.093 -2.3015  0.2164 -0.3709
  146MOL0     H20109   9.445   8.714   9.064 -1.3973 -1.1190  0.7590
  146MOL0     H20110   9.162   8.975   9.414 -1.6747 -1.1697  3.5217
  146MOL0     H20111   9.242   9.053   9.634 -0.9660  2.2837 -1.5781
  146MOL0     H20112   9.569   8.893   9.810  3.9433 -0.0052  2.5550
  146MOL0     H20113   9.699   8.981   9.732  0.4156 -1.5131  0.3767
  146MOL0     H20114   9.675   9.159   9.903 -0.2271 -0.1243  0.6276
  146MOL0     H20115   9.525   9.096   9.955  0.2456 -2.0946  0.7473
  146MOL0     H20116   9.773   8.916   9.943 -1.4995 -0.6373 -0.7439
  146MOL0     H20117   9.630   8.902  10.054  1.0234  2.3758  2.0765
  146MOL0     H20118   9.703   9.086  10.188 -1.7467 -2.7014 -0.6176
  146MOL0     H20119   9.805   9.153  10.068  2.6852 -0.8535 -0.2934
  146MOL0     H20120   9.856   8.861  10.179  0.6859  0.1457 -0.4225
  146MOL0     H20121   9.968   8.965  10.096  1.4655  1.5121  0.7687
  146MOL0     H20122   9.956   9.132  10.268 -0.8066 -1.2040 -2.5458
  146MOL0     H20123  10.029   8.978  10.322 -1.5363 -4.6728 -1.6664
  146MOL0     H20124   9.808   8.924  10.439 -1.5788  0.9629 -0.0210
  146MOL0     H20125   9.741   9.091  10.408  0.7625  1.1412 -0.0575
  146MOL0     H20126   9.857   9.120  10.605  1.8482  0.2959  0.5465
  146MOL0     H20127   9.909   9.229  10.470 -1.9048  1.6616  2.1153
  146MOL0     H20128   9.641   8.921   9.528 -0.5808 -1.5843 -1.3098
  146MOL0     H20129   9.539   8.832   9.294 -1.3527 -1.7964 -0.7032
  146MOL0     H20130   9.141   9.070   8.965  1.7576  0.2460  1.8743
  146MOL0     H20131   9.090   9.034   8.747 -1.2710 -0.3663 -0.9159
  146MOL0     H20132   9.765   8.684   9.453  0.1294 -0.4934  0.8540
  146MOL0     H20133   9.821   8.682   9.691 -0.4878 -1.5923  0.8862
  146MOL0     H20134  10.165   8.784  10.021 -0.1445 -0.6147 -3.1009
  146MOL0     H20135  10.184   8.717  10.282  0.7566 -3.1095  0.8960
  146MOL0     H20136  10.206   8.496  10.564  1.3260  1.8560  0.7319
  146MOL0     H20137  10.261   8.619  10.454 -0.1750 -0.6362 -2.5175
  146MOL0     H20138  10.023   8.724  10.451  1.7888  0.1424 -0.1086
  146MOL0     H20139  10.131   8.721  10.601  2.1872 -1.4954 -0.7797
  146MOL0     H20140   9.895   8.534  10.528 -1.7760 -0.9023  2.6353
  146MOL0     H20141   9.992   8.532  10.669  0.6570 -1.1033 -1.6744
  146MOL0     H20142   9.774   8.669  10.701  2.5060 -2.4967  0.6966
  146MOL0     H20143   9.790   8.765  10.568  0.7814  1.9275  0.7194
  146MOL0     H20144   9.972   8.975  10.891 -2.0056  1.1536 -1.5128
  146MOL0     H20145  10.055   8.329  10.203  1.0071 -1.0230 -0.7964
  146MOL0     H20146   9.944   8.280  10.003 -0.0038  0.0465 -1.8680
  146MOL0     H20147   9.960   8.355   9.848 -4.2900 -0.0296  1.0013
  146MOL0     H20148  10.100   8.262   9.921  1.5229  3.4375 -2.2450
  147MOL0     O20149  10.909   6.051  11.085 -0.3886 -0.5754 -0.6352
  147MOL0     C20150  11.003   6.014  11.162  0.0437  0.3925 -0.0582
  147MOL0     O20151  11.102   6.095  11.199  0.5369  0.4689 -0.0434
  147MOL0     C20152  11.108   6.227  11.166 -0.2671 -0.2886 -0.2769
  147MOL0     C20153  11.144   6.311  11.267 -0.2007  0.1740  0.0708
  147MOL0     C20154  11.161   6.446  11.254 -0.1843 -0.7273  0.2996
  147MOL0     C20155  11.132   6.506  11.129  0.4701  1.5400 -0.9793
  147MOL0     O20156  11.140   6.634  11.106  0.3784 -0.2159  0.2584
  147MOL0     C20157  11.114   6.716  11.221  0.9078  0.1392  0.2954
  147MOL0     C20158  11.070   6.855  11.168 -0.8528  0.7294  0.7452
  147MOL0     C20159  10.982   6.917  11.273  0.5055  0.1033  0.0911
  147MOL0     C20160  10.959   7.066  11.241  0.1655  0.5508  0.0939
  147MOL0     C20161  10.910   7.086  11.099 -0.5006  0.7228  1.0000
  147MOL0     C20162  10.842   7.224  11.054  0.9987 -0.4152 -0.6382
  147MOL0     C20163  10.880   7.331  11.153  1.0409 -0.3091 -0.8361
  147MOL0     C20164  10.883   7.471  11.091 -0.3441 -0.2757 -0.2901
  147MOL0     N20165  10.996   7.488  10.995  0.6230  0.4037  0.1272
  147MOL0     C20166  11.123   7.429  11.003 -1.2877 -0.6044 -0.0428
  147MOL0     C20167  11.188   7.491  10.894 -0.6635  0.3095  0.4394
  147MOL0     C20168  11.338   7.474  10.885  0.1611 -0.1807  0.0918
  147MOL0     C20169  11.383   7.331  10.850  0.2356  0.1509  0.6427
  147MOL0     C20170  11.374   7.303  10.691 -0.2748  0.7984  0.1932
  147MOL0     C20171  11.460   7.179  10.668 -0.0228  0.7775  0.1395
  147MOL0     O20172  11.413   7.072  10.756 -0.0414 -0.0985  0.2988
  147MOL0     C20173  11.472   6.951  10.733 -0.1557  0.1557  0.3952
  147MOL0     C20174  11.387   6.836  10.739 -0.5204 -0.0058 -0.4533
  147MOL0     C20175  11.434   6.712  10.706  0.1516 -0.5495 -0.0197
  147MOL0     C20176  11.340   6.597  10.731  0.0045 -0.1501  0.3703
  147MOL0     C20177  11.558   6.696  10.633 -0.5468  0.3303  0.5104
  147MOL0     C20178  11.632   6.567  10.576  0.7370  0.2316  0.5947
  147MOL0     O20179  11.746   6.585  10.509 -0.0707  0.2047 -0.4458
  147MOL0     C20180  11.838   6.483  10.490  0.2930 -0.7358 -0.5455
  147MOL0     C20181  11.930   6.488  10.382 -0.2520 -1.0976 -1.6310
  147MOL0     C20182  12.025   6.385  10.366 -0.5181 -0.6342 -0.2618
  147MOL0     C20183  12.032   6.284  10.453  0.3042  0.2608  0.3339
  147MOL0     O20184  12.116   6.180  10.435 -0.4099  1.2506 -1.2418
  147MOL0     C20185  12.249   6.207  10.389  0.2038 -0.8629 -0.2996
  147MOL0     C20186  12.316   6.319  10.468  0.0539  0.4212  0.0584
  147MOL0     C20187  12.457   6.330  10.425 -0.0685  0.7319 -0.0095
  147MOL0     C20188  12.542   6.399  10.530 -0.4000 -0.6420  0.5932
  147MOL0     C20189  12.502   6.550  10.557 -0.2628 -0.4808 -0.3766
  147MOL0     C20190  12.524   6.621  10.418 -0.1793 -0.6928  0.0152
  147MOL0     C20191  12.567   6.763  10.431 -0.5507  0.2205 -0.5104
  147MOL0     C20192  12.579   6.835  10.298  1.0880 -0.7933  1.0083
  147MOL0    Cl20193  12.669   6.997  10.333  0.3057  0.3468 -0.3624
  147MOL0     C20194  11.938   6.276  10.558  0.4159  0.0439 -0.3267
  147MOL0     C20195  11.848   6.379  10.579 -0.4604  0.5943  0.3693
  147MOL0     O20196  11.576   6.464  10.592  0.2713 -0.2946 -0.3323
  147MOL0     C20197  11.643   6.811  10.627  0.1963  0.5480  0.5485
  147MOL0     C20198  11.598   6.942  10.675  0.3064  0.4496  0.2437
  147MOL0     N20199  11.105   7.578  10.830  0.0509  0.0279  0.6031
  147MOL0     N20200  10.987   7.570  10.894 -0.0391  0.6037  0.8313
  147MOL0     C20201  11.098   6.422  11.018 -0.2999  0.8220 -0.0073
  147MOL0     C20202  11.085   6.281  11.038 -1.0090  0.3196 -0.0860
  147MOL0     C20203  11.010   5.871  11.221  0.2247 -0.5603  0.4400
  147MOL0     C20204  11.117   5.846  11.312  0.0636 -0.7013  0.4054
  147MOL0     C20205  11.140   5.719  11.367 -0.5180  0.7666  0.0564
  147MOL0     C20206  11.050   5.607  11.338 -0.3695 -0.8508  0.2163
  147MOL0     O20207  11.058   5.479  11.389  1.1251 -0.0133 -0.1338
  147MOL0     C20208  11.073   5.463  11.538 -0.5100  0.0353  1.0506
  147MOL0     C20209  11.220   5.426  11.561 -0.2141  0.2177 -0.1056
  147MOL0     C20210  11.276   5.318  11.476 -0.4814 -0.0303 -0.3093
  147MOL0     C20211  11.211   5.179  11.505  0.1580 -0.4107  0.4636
  147MOL0     C20212  11.267   5.119  11.626  0.0783 -0.1965  0.4787
  147MOL0     C20213  11.335   5.096  11.723  0.5266  0.4885 -0.3664
  147MOL0     C20214  10.951   5.640  11.238 -0.6567 -0.9235 -0.1197
  147MOL0     C20215  10.927   5.769  11.180  0.8149 -0.3426  0.5029
  147MOL0     C20216  10.796   5.794  11.100  0.7112  0.3471 -0.3732
  147MOL0     H20217  11.148   6.258  11.362  2.4174  0.5062  0.2332
  147MOL0     H20218  11.185   6.513  11.336 -0.3818 -0.7755  0.3958
  147MOL0     H20219  11.196   6.734  11.291 -0.4397 -2.1714  2.5945
  147MOL0     H20220  11.041   6.677  11.292  1.2598 -0.5617  0.2816
  147MOL0     H20221  11.166   6.904  11.147 -0.8125 -0.4096 -2.2684
  147MOL0     H20222  11.017   6.844  11.073 -0.5911  1.8636  0.4522
  147MOL0     H20223  10.882   6.873  11.272 -0.0404  1.3083 -0.6332
  147MOL0     H20224  11.035   6.905  11.368 -0.0087 -2.0566  0.1546
  147MOL0     H20225  10.886   7.103  11.314  1.4861  2.3238  0.5905
  147MOL0     H20226  11.050   7.117  11.275 -0.5126 -1.1360  5.3029
  147MOL0     H20227  10.845   7.002  11.072  0.6488  0.3900 -0.9651
  147MOL0     H20228  10.994   7.070  11.030 -0.9820 -2.3664  0.9843
  147MOL0     H20229  10.881   7.252  10.956 -2.2667 -1.1439 -2.2804
  147MOL0     H20230  10.734   7.221  11.038  0.9389 -1.7502 -0.0958
  147MOL0     H20231  10.982   7.321  11.191  1.8554  0.1837 -2.7658
  147MOL0     H20232  10.810   7.332  11.238  0.0176 -0.0742 -1.6578
  147MOL0     H20233  10.790   7.492  11.037  0.0303 -0.3123 -0.9541
  147MOL0     H20234  10.883   7.559  11.156 -2.1604 -1.9312  2.1537
  147MOL0     H20235  11.161   7.368  11.085  1.1466 -0.7914 -1.2342
  147MOL0     H20236  11.384   7.495  10.983  0.6403 -0.0314 -0.1616
  147MOL0     H20237  11.386   7.531  10.805  2.0496 -0.5696  0.8923
  147MOL0     H20238  11.482   7.306  10.890  1.1522  0.4214 -1.3280
  147MOL0     H20239  11.319   7.259  10.903  0.0042  0.3942  0.6963
  147MOL0     H20240  11.274   7.280  10.653 -0.4275 -0.0914  1.0774
  147MOL0     H20241  11.408   7.385  10.628 -0.1521  0.0319 -0.7615
  147MOL0     H20242  11.453   7.141  10.565  0.3419 -1.2585  0.8214
  147MOL0     H20243  11.564   7.210  10.681  0.3978  0.4409 -2.0103
  147MOL0     H20244  11.281   6.848  10.761 -0.7589  3.0430 -2.5617
  147MOL0     H20245  11.282   6.572  10.641  1.7187 -1.2160 -0.4817
  147MOL0     H20246  11.273   6.609  10.817  1.6733  2.3262  1.4307
  147MOL0     H20247  11.389   6.500  10.743  1.0108  0.2622 -0.3008
  147MOL0     H20248  11.939   6.570  10.311 -1.3385  0.0277 -0.5110
  147MOL0     H20249  12.096   6.389  10.284 -1.7116  1.3620 -1.2771
  147MOL0     H20250  12.298   6.109  10.391 -1.6070 -1.8093 -0.3342
  147MOL0     H20251  12.252   6.231  10.282 -0.6413 -0.5953 -0.2702
  147MOL0     H20252  12.256   6.411  10.461 -0.8414 -0.1376  0.2644
  147MOL0     H20253  12.309   6.301  10.575 -0.5488  1.3814  0.1980
  147MOL0     H20254  12.453   6.375  10.325 -1.7910  0.0829 -0.2678
  147MOL0     H20255  12.482   6.224  10.424 -2.2321  0.1615 -1.1587
  147MOL0     H20256  12.646   6.404  10.498 -0.2784  1.7988  1.1894
  147MOL0     H20257  12.530   6.340  10.621 -0.3991 -0.6270  0.6024
  147MOL0     H20258  12.401   6.547  10.599 -0.2042  0.9993 -0.0475
  147MOL0     H20259  12.559   6.584  10.644 -0.4457 -3.4040  0.9897
  147MOL0     H20260  12.433   6.613  10.358 -0.5105  0.8053  0.2799
  147MOL0     H20261  12.594   6.573  10.350 -0.8877  0.6572 -1.7478
  147MOL0     H20262  12.661   6.766  10.487 -1.8337 -0.3811  1.7955
  147MOL0     H20263  12.496   6.826  10.485  0.0770  0.2829  0.2712
  147MOL0     H20264  12.482   6.862  10.255 -1.2049 -1.0893  5.4296
  147MOL0     H20265  12.638   6.768  10.235  2.8319 -0.0646  1.8110
  147MOL0     H20266  11.944   6.185  10.617 -1.0466  0.1103 -0.0196
  147MOL0     H20267  11.778   6.370  10.662 -0.6486 -0.7301  0.0764
  147MOL0     H20268  11.739   6.808  10.577  0.1636 -0.6553  0.5488
  147MOL0     H20269  11.674   7.019  10.662  0.9060  0.3883  2.7423
  147MOL0     H20270  11.084   6.464  10.918 -1.1778  0.1997 -0.1601
  147MOL0     H20271  11.053   6.208  10.964  0.5540 -0.7387  0.2441
  147MOL0     H20272  11.180   5.926  11.350 -1.2494  0.4857  0.1719
  147MOL0     H20273  11.221   5.715  11.438  2.4038 -2.8897 -3.0210
  147MOL0     H20274  11.043   5.556  11.588 -0.1793  0.1421  1.0558
  147MOL0     H20275  11.009   5.380  11.569  1.3142 -2.1238 -0.6300
  147MOL0     H20276  11.238   5.411  11.668 -4.2896 -1.9863  0.4833
  147MOL0     H20277  11.283   5.509  11.527  1.0619 -0.5734  0.2497
  147MOL0     H20278  11.258   5.333  11.369  1.7861 -1.5578 -0.9737
  147MOL0     H20279  11.382   5.322  11.501 -0.8809 -0.9466  1.7874
  147MOL0     H20280  11.222   5.108  11.422 -0.9138  1.7712 -1.6554
  147MOL0     H20281  11.107   5.188  11.536  0.8022 -0.4257  2.7869
  147MOL0     H20282  11.378   5.068  11.818 -2.9358 -1.9491  0.6685
  147MOL0     H20283  10.896   5.556  11.198  0.4423 -1.5944 -0.2551
  147MOL0     H20284  10.817   5.827  10.998 -0.1711  0.1277 -0.6375
  147MOL0     H20285  10.723   5.713  11.096  3.5237 -2.3402 -0.8639
  147MOL0     H20286  10.741   5.882  11.135 -0.0198 -0.1027 -0.3800
  148MOL0     O20287   7.937   7.099   3.857  0.0970  0.2936 -0.0127
  148MOL0     C20288   7.958   7.209   3.901 -0.0947  0.5460 -0.8415
  148MOL0     O20289   8.078   7.255   3.943 -1.0384 -0.6483 -0.0294
  148MOL0     C20290   8.200   7.182   3.930  0.2119 -0.7212 -0.0913
  148MOL0     C20291   8.225   7.092   4.029 -0.2461 -0.1573 -0.1554
  148MOL0     C20292   8.350   7.032   4.032 -1.6963  0.8825  0.3570
  148MOL0     C20293   8.444   7.051   3.927 -0.2698 -0.1510 -0.5084
  148MOL0     O20294   8.564   6.983   3.910  0.5750  0.2373  1.0447
  148MOL0     C20295   8.598   6.877   4.002  0.0863  0.1542  0.1906
  148MOL0     C20296   8.669   6.941   4.126  0.6991  0.9585  0.3618
  148MOL0     C20297   8.792   7.027   4.083 -0.4065  0.3624  0.0512
  148MOL0     C20298   8.866   7.067   4.210 -0.7541 -0.9457 -0.0050
  148MOL0     C20299   9.017   7.113   4.191 -0.4950  0.2736 -0.0857
  148MOL0     C20300   9.067   7.160   4.329  0.6919  0.4615 -0.1534
  148MOL0     C20301   9.210   7.216   4.310 -0.0200  0.5009  0.1258
  148MOL0     C20302   9.317   7.112   4.317  0.2187  0.8615 -0.1736
  148MOL0     N20303   9.443   7.185   4.323  0.7515 -0.5350 -0.0811
  148MOL0     C20304   9.529   7.164   4.432 -0.3341  0.0776  0.2331
  148MOL0     C20305   9.639   7.234   4.377 -0.5023  0.1664 -0.2759
  148MOL0     C20306   9.764   7.244   4.449  1.0946 -0.1324  0.0912
  148MOL0     C20307   9.867   7.133   4.409 -0.6442 -0.3493  0.4955
  148MOL0     C20308  10.011   7.175   4.398 -1.0650  0.0336 -0.3661
  148MOL0     C20309  10.080   7.212   4.534 -1.2341 -0.2970  0.8333
  148MOL0     O20310  10.225   7.240   4.509  0.1052 -0.3325  0.0658
  148MOL0     C20311  10.305   7.273   4.616  0.2692  0.1589  0.2002
  148MOL0     C20312  10.288   7.229   4.750  0.7695 -0.1176 -0.8457
  148MOL0     C20313  10.374   7.255   4.860  0.5391 -0.2251 -0.3187
  148MOL0     C20314  10.330   7.212   4.996  0.2633  0.1201 -0.4372
  148MOL0     C20315  10.492   7.320   4.838  0.0197  0.4064 -0.8021
  148MOL0     C20316  10.603   7.348   4.941 -0.0299  0.6714 -0.5812
  148MOL0     O20317  10.716   7.405   4.903 -0.3816 -0.0454 -0.2646
  148MOL0     C20318  10.829   7.418   4.986  1.4252  0.8752  0.8031
  148MOL0     C20319  10.909   7.299   4.993  0.0746  0.4250  0.6246
  148MOL0     C20320  11.017   7.298   5.072 -0.1775 -0.3062  0.2843
  148MOL0     C20321  11.047   7.418   5.148 -0.4203 -0.1097 -0.0239
  148MOL0     O20322  11.161   7.418   5.218  1.0575  0.8103 -0.2428
  148MOL0     C20323  11.155   7.450   5.362  0.3270  0.2153  0.6615
  148MOL0     C20324  11.279   7.522   5.419  0.0180  0.9039  0.4363
  148MOL0     C20325  11.341   7.605   5.306  1.1590  0.2409 -0.9006
  148MOL0     C20326  11.445   7.697   5.384 -0.7212  0.3766  0.8671
  148MOL0     C20327  11.535   7.772   5.282 -0.1227  0.2733  0.1440
  148MOL0     C20328  11.650   7.859   5.349 -0.6640 -0.0462  0.3953
  148MOL0     C20329  11.598   7.984   5.417  0.0297  0.4784 -0.1820
  148MOL0     C20330  11.708   8.100   5.428  0.3190  0.8515  0.1330
  148MOL0    Cl20331  11.729   8.176   5.269 -0.2760  0.1047 -0.1486
  148MOL0     C20332  10.975   7.535   5.130 -0.3960 -0.9320  0.9317
  148MOL0     C20333  10.857   7.536   5.054 -0.2414  0.1582  0.1300
  148MOL0     O20334  10.581   7.321   5.061  0.6661 -0.6616  0.3461
  148MOL0     C20335  10.513   7.367   4.705  0.3914 -0.6150 -0.2062
  148MOL0     C20336  10.433   7.335   4.601 -0.4093 -0.8837  0.6208
  148MOL0     N20337   9.610   7.297   4.251  0.0090  0.6640 -0.5889
  148MOL0     N20338   9.493   7.263   4.221 -0.5080 -0.0138 -0.4202
  148MOL0     C20339   8.411   7.135   3.817 -0.2874 -0.6430 -0.1887
  148MOL0     C20340   8.284   7.205   3.825 -0.4363  0.0170 -0.3031
  148MOL0     C20341   7.845   7.301   3.922  0.2637  0.3188 -0.7210
  148MOL0     C20342   7.867   7.421   3.989  0.2185 -0.7155  0.2460
  148MOL0     C20343   7.760   7.508   4.041  0.7791  0.7180 -0.5104
  148MOL0     C20344   7.634   7.464   4.015  0.6567 -0.8592 -0.1794
  148MOL0     O20345   7.539   7.547   4.079  0.2730  0.1271  0.3845
  148MOL0     C20346   7.426   7.483   4.132 -0.3335  0.0386  0.1106
  148MOL0     C20347   7.392   7.543   4.273 -0.1891  0.5024 -0.5554
  148MOL0     C20348   7.335   7.688   4.258 -0.2020 -0.5816 -0.2491
  148MOL0     C20349   7.300   7.766   4.384  0.2794 -0.3305 -0.2824
  148MOL0     C20350   7.387   7.740   4.499 -0.8469  0.1430  0.4309
  148MOL0     C20351   7.461   7.723   4.594 -0.4122 -0.3570  0.2184
  148MOL0     C20352   7.604   7.350   3.947  0.5950  0.7582 -0.2518
  148MOL0     C20353   7.706   7.270   3.900 -0.9502 -0.1528  0.3277
  148MOL0     C20354   7.656   7.159   3.810 -0.0616  0.3951 -0.5727
  148MOL0     H20355   8.160   7.067   4.113  0.5909  2.4200  1.3639
  148MOL0     H20356   8.379   6.974   4.119 -0.3795  1.3298  0.2398
  148MOL0     H20357   8.678   6.813   3.963  0.5994  1.4322 -0.9648
  148MOL0     H20358   8.510   6.816   4.023  1.4336 -1.8612  0.2600
  148MOL0     H20359   8.593   7.003   4.174  1.3604  0.7967  1.6453
  148MOL0     H20360   8.696   6.867   4.202  1.1349 -0.2333 -0.8936
  148MOL0     H20361   8.851   6.977   4.006 -2.1455  0.3821 -1.3639
  148MOL0     H20362   8.766   7.120   4.032  2.0123  0.3991 -1.2826
  148MOL0     H20363   8.806   7.148   4.253 -0.7869 -1.8020  1.6556
  148MOL0     H20364   8.871   6.986   4.284 -1.0350  1.0339  2.3125
  148MOL0     H20365   9.018   7.190   4.114 -0.7426 -1.4017 -1.8493
  148MOL0     H20366   9.091   7.037   4.164 -1.4309 -0.8456  0.3869
  148MOL0     H20367   9.001   7.244   4.354 -2.5350 -1.2128 -2.3147
  148MOL0     H20368   9.056   7.089   4.411  0.2583  2.6668  1.7909
  148MOL0     H20369   9.220   7.294   4.385  1.1529  2.8910 -2.3466
  148MOL0     H20370   9.209   7.273   4.216 -0.4148  3.9412  2.0560
  148MOL0     H20371   9.303   7.053   4.408 -2.3418  0.6852 -0.6082
  148MOL0     H20372   9.315   7.046   4.230  0.6038  1.3016 -0.5252
  148MOL0     H20373   9.523   7.090   4.511 -2.4479 -0.5568 -0.4523
  148MOL0     H20374   9.742   7.243   4.556  0.6125  2.4176  0.0789
  148MOL0     H20375   9.804   7.344   4.435 -2.1981  1.3508  0.3412
  148MOL0     H20376   9.865   7.061   4.491 -0.2728  0.5895  1.3593
  148MOL0     H20377   9.834   7.086   4.316 -1.1476 -0.7084  0.8475
  148MOL0     H20378  10.074   7.093   4.360  0.6675  1.1708 -0.0919
  148MOL0     H20379  10.007   7.261   4.331  1.4802  1.0749  0.6841
  148MOL0     H20380  10.036   7.306   4.569  1.4245  0.6581  1.8926
  148MOL0     H20381  10.069   7.139   4.614 -0.0620  1.3348  2.5861
  148MOL0     H20382  10.197   7.178   4.780  0.9976 -0.3702 -0.5758
  148MOL0     H20383  10.316   7.297   5.064 -0.4465 -1.4323  1.4599
  148MOL0     H20384  10.404   7.142   5.037 -0.8056 -2.1331 -2.2096
  148MOL0     H20385  10.233   7.164   4.988 -1.6243  3.6809 -0.8858
  148MOL0     H20386  10.888   7.204   4.945  1.8697 -0.2713  1.1502
  148MOL0     H20387  11.078   7.209   5.086  0.7257  0.6391  3.0998
  148MOL0     H20388  11.072   7.517   5.384  0.4493  0.3839  0.6123
  148MOL0     H20389  11.138   7.353   5.409 -1.0769  0.6639  1.1216
  148MOL0     H20390  11.267   7.582   5.510 -3.0272  3.5875 -1.5030
  148MOL0     H20391  11.344   7.443   5.457  0.1961  1.1582  0.6687
  148MOL0     H20392  11.266   7.671   5.262 -2.1649 -2.3605  0.4096
  148MOL0     H20393  11.396   7.545   5.234 -1.5320 -2.2156 -1.0972
  148MOL0     H20394  11.517   7.639   5.443  1.5180  2.3802  0.2716
  148MOL0     H20395  11.386   7.763   5.449  1.2759  0.7937  2.3877
  148MOL0     H20396  11.583   7.698   5.216  1.0043  2.3292 -1.4767
  148MOL0     H20397  11.477   7.845   5.225  0.6030  0.2134 -0.7024
  148MOL0     H20398  11.731   7.888   5.281  2.2021 -2.4307  2.5369
  148MOL0     H20399  11.707   7.787   5.410 -3.2483 -2.6232 -0.0110
  148MOL0     H20400  11.557   7.972   5.517 -1.6467  0.9597 -0.7884
  148MOL0     H20401  11.519   8.022   5.352  1.2841  2.0484 -0.8612
  148MOL0     H20402  11.805   8.082   5.476  0.6616  0.2112 -0.7587
  148MOL0     H20403  11.646   8.171   5.482 -1.1950 -0.4420  0.1970
  148MOL0     H20404  11.011   7.625   5.178 -1.5529  0.0555 -0.0115
  148MOL0     H20405  10.805   7.629   5.036 -1.0853 -0.4361 -0.6414
  148MOL0     H20406  10.608   7.412   4.678 -0.7773  0.9924 -1.8139
  148MOL0     H20407  10.467   7.363   4.502  2.4426 -1.6475  1.3073
  148MOL0     H20408   8.463   7.140   3.722  1.0198  3.3396  0.5741
  148MOL0     H20409   8.251   7.270   3.745 -0.7138 -0.1059 -0.2902
  148MOL0     H20410   7.969   7.452   4.004  1.5989 -3.5898 -2.1227
  148MOL0     H20411   7.782   7.597   4.099  2.3988  0.1214 -0.1389
  148MOL0     H20412   7.346   7.484   4.058  0.0847  0.6730 -0.3426
  148MOL0     H20413   7.456   7.379   4.150  2.9056  0.9939  1.0716
  148MOL0     H20414   7.477   7.542   4.343 -1.8311 -1.5928  1.5790
  148MOL0     H20415   7.323   7.473   4.322 -0.8293  1.6756  0.2592
  148MOL0     H20416   7.408   7.751   4.207 -0.2579 -1.0970 -0.9850
  148MOL0     H20417   7.260   7.692   4.179 -2.3950 -3.1363  1.4845
  148MOL0     H20418   7.196   7.757   4.416  0.5345 -0.1139  0.6391
  148MOL0     H20419   7.300   7.873   4.360 -0.7393 -0.1397  0.4789
  148MOL0     H20420   7.537   7.705   4.667  1.7257 -1.0294 -2.0379
  148MOL0     H20421   7.505   7.313   3.921  1.1519 -1.7296  0.9165
  148MOL0     H20422   7.713   7.159   3.716 -1.9440 -0.8680 -1.7932
  148MOL0     H20423   7.657   7.062   3.862  0.3863  0.7145  0.0265
  148MOL0     H20424   7.555   7.185   3.776 -0.8618 -0.8686  0.7131
  149MOL0     O20425   2.376   0.994   2.354 -0.3056 -0.6932 -0.0780
  149MOL0     C20426   2.272   0.963   2.297 -0.1390  0.6509 -0.9168
  149MOL0     O20427   2.193   1.048   2.222 -0.0399 -0.1278 -0.2352
  149MOL0     C20428   2.235   1.181   2.211 -0.1052 -0.1080  0.5245
  149MOL0     C20429   2.314   1.229   2.099  0.3187  1.4264  0.3011
  149MOL0     C20430   2.338   1.362   2.088 -0.0895  0.0035 -0.2217
  149MOL0     C20431   2.267   1.451   2.178 -0.2833  0.0587  0.1562
  149MOL0     O20432   2.255   1.591   2.167  0.5166 -0.0194 -0.6878
  149MOL0     C20433   2.329   1.647   2.063 -1.1887  0.2279 -0.2519
  149MOL0     C20434   2.298   1.792   2.050 -1.3908 -0.4047  0.4165
  149MOL0     C20435   2.399   1.841   1.951 -0.2501  0.7041 -0.0314
  149MOL0     C20436   2.386   1.993   1.956 -0.8013  0.3735  0.8363
  149MOL0     C20437   2.526   2.066   1.921  0.7325  1.0143 -0.7403
  149MOL0     C20438   2.575   2.045   1.786 -0.6797 -0.0176  0.8804
  149MOL0     C20439   2.700   2.137   1.756 -0.6527  0.4000 -0.1524
  149MOL0     C20440   2.747   2.128   1.616 -0.4707 -0.3346  0.5437
  149MOL0     N20441   2.876   2.202   1.594 -0.2474  0.1349 -1.2227
  149MOL0     C20442   2.960   2.155   1.494 -0.3911  0.0736  0.1269
  149MOL0     C20443   3.067   2.242   1.497 -0.0113  0.9460 -0.5385
  149MOL0     C20444   3.188   2.228   1.415 -0.1113  0.5422 -1.0909
  149MOL0     C20445   3.312   2.190   1.496  0.3466 -0.4726 -0.3291
  149MOL0     C20446   3.437   2.201   1.401  0.4426 -0.8199  0.1273
  149MOL0     C20447   3.561   2.132   1.462  0.6973  0.4812  0.5301
  149MOL0     O20448   3.618   2.210   1.563 -0.3592  0.4252  0.5346
  149MOL0     C20449   3.740   2.272   1.528 -0.0685 -0.5630 -0.5323
  149MOL0     C20450   3.846   2.207   1.461 -0.5990 -0.0310 -0.5219
  149MOL0     C20451   3.967   2.266   1.438  0.0730 -0.5563 -0.5817
  149MOL0     C20452   4.065   2.180   1.367  0.6297 -0.4722 -0.2728
  149MOL0     C20453   3.995   2.395   1.488  0.1859  1.2223 -0.3754
  149MOL0     C20454   4.126   2.470   1.470  0.3856 -0.2309 -1.1016
  149MOL0     O20455   4.127   2.600   1.513  0.2847 -0.6743  0.2398
  149MOL0     C20456   4.230   2.686   1.484 -0.7753  0.0600 -0.5827
  149MOL0     C20457   4.262   2.740   1.358  0.5404  0.4005 -0.1591
  149MOL0     C20458   4.380   2.813   1.333 -0.4660  0.7844 -0.5527
  149MOL0     C20459   4.480   2.837   1.431  0.7641 -0.7544  0.3303
  149MOL0     O20460   4.600   2.896   1.388 -0.2838 -0.2327 -0.7372
  149MOL0     C20461   4.674   2.959   1.486  0.5868 -0.0318  0.3642
  149MOL0     C20462   4.764   3.071   1.431  0.7381 -0.8949  0.0956
  149MOL0     C20463   4.868   3.118   1.534 -0.1668 -0.1269  0.2525
  149MOL0     C20464   4.951   3.230   1.485  0.5865 -0.2752 -0.1934
  149MOL0     C20465   5.073   3.239   1.575  0.1695 -0.2667 -0.2409
  149MOL0     C20466   5.057   3.358   1.678 -0.3319 -0.1404  0.1274
  149MOL0     C20467   5.189   3.377   1.765  0.2194 -0.0818  0.3869
  149MOL0     C20468   5.177   3.497   1.852  0.1416  0.5492  0.0074
  149MOL0    Cl20469   5.261   3.468   2.009 -0.1584 -0.7844  0.3988
  149MOL0     C20470   4.445   2.788   1.560 -0.6823 -0.9319  0.2803
  149MOL0     C20471   4.329   2.705   1.583 -1.0080  0.3021  0.4924
  149MOL0     O20472   4.219   2.409   1.434 -0.1247  1.0644  0.2802
  149MOL0     C20473   3.888   2.460   1.552  0.3605  0.6527  0.4574
  149MOL0     C20474   3.760   2.401   1.571  0.4647  0.4376  0.2881
  149MOL0     N20475   3.039   2.338   1.589  0.3790  1.2008  1.3623
  149MOL0     N20476   2.931   2.314   1.651  0.3417  1.0376  0.2550
  149MOL0     C20477   2.191   1.397   2.278 -0.3191 -0.0872 -0.0547
  149MOL0     C20478   2.186   1.265   2.300 -0.2008 -0.7998 -0.4462
  149MOL0     C20479   2.237   0.820   2.308 -0.0953  0.1706  0.6216
  149MOL0     C20480   2.101   0.785   2.282 -0.1462 -0.5405  0.1636
  149MOL0     C20481   2.051   0.651   2.303 -0.4611  0.1407  0.2062
  149MOL0     C20482   2.143   0.545   2.325  0.0054 -0.2617  0.1766
  149MOL0     O20483   2.099   0.419   2.354  0.6397  0.8118 -0.6390
  149MOL0     C20484   2.178   0.313   2.410 -0.1328 -0.8550  0.2861
  149MOL0     C20485   2.086   0.191   2.448 -0.0718  0.2176 -0.4964
  149MOL0     C20486   1.967   0.229   2.542 -0.3393  0.1569 -0.0518
  149MOL0     C20487   1.865   0.123   2.578  0.7482 -0.7813  0.0299
  149MOL0     C20488   1.762   0.179   2.668  0.5499  0.0203  0.9150
  149MOL0     C20489   1.661   0.212   2.738 -0.5672  0.5365 -0.6403
  149MOL0     C20490   2.272   0.581   2.330  0.1121 -0.4806 -0.7779
  149MOL0     C20491   2.327   0.712   2.321 -0.0942  0.4310  0.3765
  149MOL0     C20492   2.475   0.732   2.326 -0.9228  0.0680  0.5665
  149MOL0     H20493   2.366   1.149   2.046  1.8130  1.9850  0.8620
  149MOL0     H20494   2.407   1.391   2.009 -0.4485  1.5114 -0.0121
  149MOL0     H20495   2.297   1.604   1.967 -0.6678  2.2825 -1.4149
  149MOL0     H20496   2.435   1.627   2.081 -2.0178 -2.8813  1.9035
  149MOL0     H20497   2.201   1.815   2.004 -0.6793  0.0993 -0.8683
  149MOL0     H20498   2.309   1.843   2.145  0.9010 -1.3725  0.7305
  149MOL0     H20499   2.500   1.811   1.980  0.1151  0.8561 -1.0925
  149MOL0     H20500   2.383   1.801   1.850  1.9992 -2.2884  0.6400
  149MOL0     H20501   2.310   2.019   1.882  0.1792 -2.6816 -1.4678
  149MOL0     H20502   2.345   2.024   2.053 -0.8264  0.3067  0.8477
  149MOL0     H20503   2.595   2.028   1.996  1.9616  2.3636 -1.1527
  149MOL0     H20504   2.511   2.170   1.949 -0.9462  0.5962  0.0711
  149MOL0     H20505   2.598   1.939   1.776 -2.4052 -0.4056  0.5748
  149MOL0     H20506   2.502   2.067   1.707 -0.6636 -4.5831 -0.6398
  149MOL0     H20507   2.780   2.101   1.821 -1.6605  0.2401  1.0532
  149MOL0     H20508   2.679   2.243   1.776 -0.3043  0.2233  1.2964
  149MOL0     H20509   2.770   2.025   1.587  0.3314 -0.1182  0.3773
  149MOL0     H20510   2.665   2.170   1.557 -1.7315  0.2495  2.6140
  149MOL0     H20511   2.959   2.065   1.434  2.1647 -1.3460  2.0569
  149MOL0     H20512   3.217   2.313   1.352  1.0221 -1.9727 -4.2683
  149MOL0     H20513   3.167   2.140   1.353 -0.4215 -0.0345 -0.1867
  149MOL0     H20514   3.329   2.267   1.572 -0.7033  1.4256 -1.9262
  149MOL0     H20515   3.300   2.095   1.547 -2.0594  0.6470  1.3711
  149MOL0     H20516   3.415   2.146   1.309 -1.9534 -0.4742  0.4080
  149MOL0     H20517   3.450   2.307   1.376 -0.9389 -0.9351 -1.3037
  149MOL0     H20518   3.548   2.030   1.499  0.9701 -0.0494 -0.7889
  149MOL0     H20519   3.627   2.123   1.375  2.0925 -1.3030  1.7006
  149MOL0     H20520   3.842   2.104   1.429 -0.2109 -1.9544  4.7063
  149MOL0     H20521   4.094   2.204   1.264  0.8510 -0.3501 -0.1834
  149MOL0     H20522   4.012   2.086   1.346 -0.2686 -0.1996  0.7101
  149MOL0     H20523   4.151   2.159   1.432  1.2508  1.9221 -0.2227
  149MOL0     H20524   4.206   2.700   1.274  0.4578  1.1077 -0.4455
  149MOL0     H20525   4.410   2.847   1.234  1.2247 -0.2861 -0.4526
  149MOL0     H20526   4.602   3.001   1.557  0.0359 -0.6774  0.1937
  149MOL0     H20527   4.737   2.889   1.540  1.2661 -0.3523 -0.8177
  149MOL0     H20528   4.816   3.049   1.338  0.8792  0.5872 -0.2101
  149MOL0     H20529   4.693   3.153   1.413  0.4117 -0.9234  1.1436
  149MOL0     H20530   4.932   3.030   1.540 -0.4596 -0.7060 -2.9841
  149MOL0     H20531   4.822   3.146   1.629 -3.6584 -1.2908 -0.9294
  149MOL0     H20532   4.891   3.321   1.474 -0.3765 -1.0712 -2.0316
  149MOL0     H20533   4.983   3.205   1.383 -2.3355  0.6514 -1.4480
  149MOL0     H20534   5.095   3.148   1.631 -3.4273 -2.5695 -2.1747
  149MOL0     H20535   5.160   3.265   1.515  2.2321 -0.5432  2.4364
  149MOL0     H20536   4.978   3.333   1.749  0.2161  1.5223  1.3843
  149MOL0     H20537   5.015   3.451   1.639 -0.8247 -1.2606 -2.2164
  149MOL0     H20538   5.267   3.381   1.688 -1.1381 -0.9415 -1.0892
  149MOL0     H20539   5.216   3.284   1.815  0.2257  0.5808  1.6582
  149MOL0     H20540   5.076   3.531   1.873 -0.7566 -0.9110 -1.7126
  149MOL0     H20541   5.218   3.582   1.795  0.3915 -0.7545 -1.8268
  149MOL0     H20542   4.504   2.796   1.650 -2.1882  1.7527  1.1468
  149MOL0     H20543   4.295   2.664   1.678  2.4762 -1.4087  1.1752
  149MOL0     H20544   3.897   2.562   1.590 -0.2497  1.1306 -0.6331
  149MOL0     H20545   3.674   2.448   1.616  1.0736  0.9756  0.9079
  149MOL0     H20546   2.141   1.460   2.351  2.7951 -0.4861  2.6519
  149MOL0     H20547   2.131   1.215   2.379 -0.5860  1.0434  0.5178
  149MOL0     H20548   2.029   0.863   2.261 -1.9593 -0.9946  3.9035
  149MOL0     H20549   1.946   0.630   2.284 -0.5847  1.3155 -0.4569
  149MOL0     H20550   2.241   0.280   2.327 -0.3878  1.6715 -1.0312
  149MOL0     H20551   2.234   0.344   2.499 -3.5714  2.8638  1.4593
  149MOL0     H20552   2.152   0.110   2.478  0.1348 -0.1396 -1.8581
  149MOL0     H20553   2.055   0.151   2.351  0.8241  0.1979 -0.7820
  149MOL0     H20554   2.008   0.280   2.630 -0.2367  0.1657 -0.1051
  149MOL0     H20555   1.916   0.306   2.482 -1.1661 -2.3011 -2.7346
  149MOL0     H20556   1.921   0.041   2.626  1.2192 -0.1869  0.5068
  149MOL0     H20557   1.824   0.099   2.479 -0.2007 -1.0381  0.4722
  149MOL0     H20558   1.592   0.253   2.809  0.1572  1.0413 -0.2081
  149MOL0     H20559   2.342   0.499   2.344  0.6138 -0.3436 -2.2568
  149MOL0     H20560   2.512   0.786   2.413  1.5229  0.3505 -0.5414
  149MOL0     H20561   2.534   0.640   2.331 -0.6214  0.3177  2.5620
  149MOL0     H20562   2.497   0.783   2.231 -1.0002  2.1956  1.6358
  150MOL0     O20563   4.102   7.923   9.968  0.1442 -0.2240  0.4236
  150MOL0     C20564   4.026   7.928   9.872 -0.1996 -0.2849  0.4231
  150MOL0     O20565   4.049   8.020   9.771  0.2274 -0.2401  0.2253
  150MOL0     C20566   4.132   8.129   9.803  0.0237 -0.5492 -0.6280
  150MOL0     C20567   4.271   8.122   9.806 -0.9055 -0.8108  0.6664
  150MOL0     C20568   4.356   8.226   9.824  0.5266 -0.0928 -0.6435
  150MOL0     C20569   4.297   8.351   9.865 -0.1066  0.0394  0.5395
  150MOL0     O20570   4.371   8.464   9.892  0.1953 -0.0367 -0.8318
  150MOL0     C20571   4.505   8.474   9.851  0.4212  0.3814 -0.3897
  150MOL0     C20572   4.572   8.606   9.891  0.7938 -0.4024 -0.7899
  150MOL0     C20573   4.724   8.621   9.851  0.8241  0.4267 -1.1681
  150MOL0     C20574   4.800   8.483   9.856  1.3344 -0.4478  1.1269
  150MOL0     C20575   4.958   8.503   9.826  0.9573 -0.6818 -1.2796
  150MOL0     C20576   5.023   8.370   9.803 -0.1679  1.0242  0.4227
  150MOL0     C20577   5.178   8.376   9.795  0.1897 -0.5530  1.2012
  150MOL0     C20578   5.232   8.246   9.731 -0.0806  0.0909 -1.0642
  150MOL0     N20579   5.238   8.251   9.589  0.9022  0.2025  0.5305
  150MOL0     C20580   5.138   8.227   9.496  0.4256 -0.1812  0.2479
  150MOL0     C20581   5.201   8.244   9.373  0.9984 -0.1300 -0.2888
  150MOL0     C20582   5.138   8.241   9.238  0.8936  0.8183  0.7547
  150MOL0     C20583   5.096   8.101   9.200  0.8488  0.4332  0.7271
  150MOL0     C20584   5.066   8.095   9.051 -0.2649 -0.1947  0.0968
  150MOL0     C20585   5.001   7.972   8.998  0.3744  1.3514  0.3383
  150MOL0     O20586   4.878   7.946   9.065 -0.2193  1.0730 -0.0739
  150MOL0     C20587   4.827   7.818   9.067  0.0368 -1.0257 -0.0047
  150MOL0     C20588   4.721   7.785   9.149  0.6316  0.6426  0.4906
  150MOL0     C20589   4.674   7.653   9.172  0.2414  0.0778  0.3150
  150MOL0     C20590   4.570   7.631   9.280 -0.3832 -0.9591 -0.0205
  150MOL0     C20591   4.735   7.549   9.090  0.1351  0.7706 -0.1513
  150MOL0     C20592   4.691   7.402   9.098 -0.0865 -0.3010  0.4648
  150MOL0     O20593   4.742   7.316   9.008 -0.3979  0.4634 -0.5822
  150MOL0     C20594   4.698   7.180   9.019 -0.2981 -0.3259 -0.2384
  150MOL0     C20595   4.763   7.091   9.105 -0.7835  0.0074 -0.7190
  150MOL0     C20596   4.705   6.964   9.124  0.6854 -0.3394 -0.2901
  150MOL0     C20597   4.601   6.916   9.042  0.6864  0.7547  0.7261
  150MOL0     O20598   4.552   6.786   9.056  0.3994  0.1617 -0.3247
  150MOL0     C20599   4.410   6.749   9.030 -0.3834 -0.6284 -0.1066
  150MOL0     C20600   4.348   6.626   9.101  0.6424  0.0064 -0.0383
  150MOL0     C20601   4.227   6.579   9.029 -0.6047 -0.2792  0.2041
  150MOL0     C20602   4.149   6.465   9.090 -0.0585  0.4252  0.1703
  150MOL0     C20603   4.217   6.326   9.055 -0.7167  0.8309 -0.4844
  150MOL0     C20604   4.110   6.226   9.012  0.5816 -0.5035  0.3816
  150MOL0     C20605   4.083   6.212   8.857 -0.1862 -0.8305  0.3599
  150MOL0     C20606   4.181   6.116   8.785  0.7841  0.5830 -0.1253
  150MOL0    Cl20607   4.152   5.955   8.858  0.0528 -0.0470  0.1901
  150MOL0     C20608   4.538   7.017   8.954 -0.5539  0.2214 -0.5310
  150MOL0     C20609   4.593   7.145   8.937 -0.2224 -0.1653 -0.7087
  150MOL0     O20610   4.607   7.370   9.183  0.7511 -0.3767 -0.3223
  150MOL0     C20611   4.828   7.587   8.995 -0.9363 -0.7790 -0.5528
  150MOL0     C20612   4.877   7.719   8.990 -0.0767 -0.1312 -0.7721
  150MOL0     N20613   5.331   8.276   9.393 -0.2144  0.8132  0.0781
  150MOL0     N20614   5.350   8.279   9.518  0.7772 -0.6395  0.0569
  150MOL0     C20615   4.155   8.366   9.867 -1.1151  0.7317 -0.1439
  150MOL0     C20616   4.078   8.252   9.830  0.7411  0.5567 -0.1585
  150MOL0     C20617   3.922   7.830   9.858  0.8210 -0.5014  0.4726
  150MOL0     C20618   3.871   7.806   9.724  0.1544 -0.2566  0.1644
  150MOL0     C20619   3.768   7.712   9.704 -0.0246  0.7246 -0.3466
  150MOL0     C20620   3.707   7.642   9.810 -0.0114  0.2461 -1.1404
  150MOL0     O20621   3.602   7.565   9.791 -0.3577  0.0192  0.5809
  150MOL0     C20622   3.579   7.446   9.875  0.3366  0.8687  0.3803
  150MOL0     C20623   3.600   7.312   9.786  0.1812 -0.4306  0.4114
  150MOL0     C20624   3.754   7.298   9.763  0.5591  0.4738  0.3477
  150MOL0     C20625   3.794   7.187   9.661 -0.6531  0.2559  0.2682
  150MOL0     C20626   3.943   7.171   9.650  0.8153  0.2973 -0.0531
  150MOL0     C20627   4.067   7.165   9.654 -0.1859 -0.0411 -0.0999
  150MOL0     C20628   3.753   7.675   9.942  0.7405 -0.1469 -0.5806
  150MOL0     C20629   3.857   7.762   9.965 -0.3589 -0.0465 -0.8631
  150MOL0     C20630   3.907   7.786  10.109  0.4337 -0.7040 -0.1843
  150MOL0     H20631   4.314   8.026   9.776 -1.4086 -0.5354 -1.0316
  150MOL0     H20632   4.464   8.221   9.826  0.5247 -0.0328  1.0661
  150MOL0     H20633   4.509   8.461   9.743  0.6952 -1.2430 -0.2142
  150MOL0     H20634   4.550   8.390   9.905  1.3157  2.2704  1.9945
  150MOL0     H20635   4.510   8.688   9.855  1.6053  1.6910  2.2063
  150MOL0     H20636   4.570   8.599  10.001 -3.5623  0.7598 -0.5903
  150MOL0     H20637   4.727   8.662   9.750  0.5464  0.2191 -1.2629
  150MOL0     H20638   4.768   8.693   9.921 -0.2776 -0.3910  0.4465
  150MOL0     H20639   4.788   8.429   9.950  1.7309 -1.1668  0.7795
  150MOL0     H20640   4.754   8.423   9.776 -0.6871  0.2159  1.7356
  150MOL0     H20641   4.997   8.559   9.911  0.7795  0.1392 -1.7253
  150MOL0     H20642   4.963   8.573   9.742 -0.9429 -1.7227 -2.3131
  150MOL0     H20643   5.010   8.298   9.885  0.8983 -0.8658 -0.9956
  150MOL0     H20644   4.996   8.328   9.705  2.0922  0.7657 -0.1295
  150MOL0     H20645   5.217   8.397   9.895 -0.2247  0.3694  1.1880
  150MOL0     H20646   5.208   8.452   9.722 -0.8124 -2.2252 -1.0861
  150MOL0     H20647   5.328   8.231   9.782 -1.7117  0.4452  2.3903
  150MOL0     H20648   5.162   8.162   9.740 -0.9353  0.7816 -1.1654
  150MOL0     H20649   5.031   8.223   9.515  0.3913  0.4399  0.2121
  150MOL0     H20650   5.196   8.289   9.159 -0.1106 -0.6181 -0.9300
  150MOL0     H20651   5.040   8.290   9.244  1.0325  1.0569  1.1087
  150MOL0     H20652   5.177   8.033   9.229  2.8636  1.7210 -1.5572
  150MOL0     H20653   5.012   8.076   9.266  2.3312 -2.7526  1.6209
  150MOL0     H20654   4.987   8.170   9.040 -0.8074 -0.8267 -0.3392
  150MOL0     H20655   5.152   8.117   8.988 -0.8643  0.2142 -0.5952
  150MOL0     H20656   4.966   7.977   8.894 -3.7056  1.2751  1.5371
  150MOL0     H20657   5.073   7.894   9.022 -0.2120  0.2618 -1.2662
  150MOL0     H20658   4.680   7.868   9.205  1.5013  1.7390 -0.4400
  150MOL0     H20659   4.571   7.721   9.343  2.9921 -0.8520 -0.0298
  150MOL0     H20660   4.600   7.551   9.348 -0.6589 -0.2805  0.9156
  150MOL0     H20661   4.477   7.611   9.227 -0.0499 -1.6683 -0.3451
  150MOL0     H20662   4.833   7.128   9.179  0.3002 -3.1061 -0.0023
  150MOL0     H20663   4.751   6.903   9.200  1.6011  0.9125  0.1897
  150MOL0     H20664   4.341   6.829   9.057  1.7846  0.9649  1.0484
  150MOL0     H20665   4.400   6.745   8.921  2.1965  1.2166 -0.4972
  150MOL0     H20666   4.417   6.541   9.114  2.1969  0.9522 -1.7263
  150MOL0     H20667   4.316   6.657   9.201  0.1691 -0.5079 -0.0227
  150MOL0     H20668   4.268   6.541   8.935 -0.9515 -1.2488  0.4352
  150MOL0     H20669   4.155   6.659   9.010  1.3230  0.9186 -2.7809
  150MOL0     H20670   4.047   6.474   9.052 -0.4598  0.3815  1.2076
  150MOL0     H20671   4.138   6.474   9.199 -1.4141 -1.6397  0.2586
  150MOL0     H20672   4.294   6.333   8.978 -0.5118  1.5483 -0.2285
  150MOL0     H20673   4.273   6.292   9.142 -0.4319  0.0494 -0.9704
  150MOL0     H20674   4.020   6.251   9.070 -1.1561 -0.4540 -2.1475
  150MOL0     H20675   4.140   6.127   9.048 -0.5459 -0.7025  0.8111
  150MOL0     H20676   4.098   6.311   8.814 -1.5622 -2.0278 -3.2348
  150MOL0     H20677   3.981   6.183   8.830  0.4183 -0.5714 -2.4818
  150MOL0     H20678   4.286   6.139   8.802  1.4076 -1.9976 -0.0302
  150MOL0     H20679   4.171   6.099   8.678  0.0931  0.3655 -0.0319
  150MOL0     H20680   4.447   6.982   8.907 -1.2438  1.2751 -0.0144
  150MOL0     H20681   4.549   7.235   8.896  0.1592  0.2638 -0.1851
  150MOL0     H20682   4.881   7.517   8.932  0.3615 -1.3878  1.1452
  150MOL0     H20683   4.951   7.744   8.914 -0.2407 -1.6364 -1.4534
  150MOL0     H20684   4.115   8.466   9.880 -0.6914  1.0558 -1.2056
  150MOL0     H20685   3.970   8.259   9.821  0.2560 -2.7487  1.5241
  150MOL0     H20686   3.918   7.858   9.641 -0.5366 -0.1652 -0.1749
  150MOL0     H20687   3.728   7.676   9.610  2.3771 -2.0678 -0.4216
  150MOL0     H20688   3.644   7.442   9.963  0.5607  1.1751  0.2323
  150MOL0     H20689   3.474   7.442   9.905 -0.2497  0.6503 -1.5711
  150MOL0     H20690   3.555   7.321   9.687  1.3201  0.3802 -0.0633
  150MOL0     H20691   3.567   7.221   9.836 -1.1590 -1.0930 -1.5536
  150MOL0     H20692   3.797   7.389   9.721  3.9407 -0.4086  1.5873
  150MOL0     H20693   3.808   7.280   9.856  1.2588 -1.4064 -0.3894
  150MOL0     H20694   3.746   7.224   9.570 -2.9612  1.4848  1.8879
  150MOL0     H20695   3.744   7.091   9.677 -0.7533  0.1809 -0.4408
  150MOL0     H20696   4.173   7.152   9.642 -0.2796 -0.5495 -0.4295
  150MOL0     H20697   3.711   7.628  10.030 -1.4004  1.3943 -0.6962
  150MOL0     H20698   3.881   7.885  10.147  0.7928  0.0118 -1.7018
  150MOL0     H20699   3.853   7.711  10.167 -1.9555  0.0685 -1.2783
  150MOL0     H20700   4.015   7.772  10.122  0.2628 -0.5633  1.7016
  151MOL0     O20701   6.639   8.979  10.663  0.2241  0.1888  0.4713
  151MOL0     C20702   6.535   9.023  10.620 -0.8397 -0.8104  1.1847
  151MOL0     O20703   6.494   9.156  10.628  0.6252  0.2261  1.0360
  151MOL0     C20704   6.545   9.249  10.714  0.8684 -1.0844 -0.8045
  151MOL0     C20705   6.514   9.382  10.690 -0.6747  1.4199 -0.1182
  151MOL0     C20706   6.586   9.483  10.755 -0.1512 -0.2109 -0.6916
  151MOL0     C20707   6.683   9.448  10.848 -1.0743  0.1396 -0.1903
  151MOL0     O20708   6.763   9.554  10.889 -0.1042  0.0182 -0.2200
  151MOL0     C20709   6.891   9.520  10.944  0.4682 -0.0769  0.0565
  151MOL0     C20710   6.973   9.647  10.950 -0.0257  0.0330 -1.5565
  151MOL0     C20711   7.015   9.706  10.815  0.1318  0.1587  0.0590
  151MOL0     C20712   7.098   9.829  10.844 -0.5325 -0.8430  0.1323
  151MOL0     C20713   7.100   9.931  10.726 -0.5995 -0.0717 -0.2306
  151MOL0     C20714   7.177  10.059  10.767 -0.3801  0.7219  0.0805
  151MOL0     C20715   7.179  10.164  10.662  0.1672  1.0627  0.4127
  151MOL0     C20716   7.261  10.296  10.695 -0.5372 -0.4955 -0.1375
  151MOL0     N20717   7.393  10.296  10.614 -0.6862 -0.0088  0.0682
  151MOL0     C20718   7.404  10.295  10.480 -0.6914  0.2277 -0.2631
  151MOL0     C20719   7.537  10.287  10.463 -0.8216 -0.1548 -0.0183
  151MOL0     C20720   7.607  10.271  10.326 -0.1354  0.7357  0.0928
  151MOL0     C20721   7.623  10.125  10.290  0.1965 -0.9577 -0.2012
  151MOL0     C20722   7.701  10.041  10.393  0.0947 -0.4697 -0.0066
  151MOL0     C20723   7.848  10.093  10.410 -0.4379 -0.0399  0.0247
  151MOL0     O20724   7.925  10.094  10.289  0.4438  0.3425  0.1958
  151MOL0     C20725   7.990  10.207  10.244 -0.0356  0.3187  0.0670
  151MOL0     C20726   8.065  10.185  10.133 -0.4304  0.3769 -0.0140
  151MOL0     C20727   8.133  10.287  10.059 -0.2088 -0.3668 -0.1220
  151MOL0     C20728   8.196  10.241   9.931  0.7202  0.0080 -0.9721
  151MOL0     C20729   8.141  10.416  10.107 -0.2474 -0.0246  0.2833
  151MOL0     C20730   8.226  10.528  10.049 -0.5383  0.1629 -0.7659
  151MOL0     O20731   8.270  10.517   9.912  0.0761 -0.3796  0.2357
  151MOL0     C20732   8.330  10.624   9.845 -0.1269 -0.7274  0.0762
  151MOL0     C20733   8.294  10.666   9.719 -0.2864 -0.8188 -0.0939
  151MOL0     C20734   8.367  10.758   9.642 -0.0298  0.4817  0.5683
  151MOL0     C20735   8.484  10.819   9.697 -0.1400 -0.6968 -0.2477
  151MOL0     O20736   8.563  10.904   9.617 -0.2243 -0.0775  0.2322
  151MOL0     C20737   8.620  11.011   9.678 -0.1574  0.0907 -0.3820
  151MOL0     C20738   8.717  11.063   9.575 -1.1864  0.2058 -0.0848
  151MOL0     C20739   8.788  11.188   9.635  0.5000  0.2438  1.0040
  151MOL0     C20740   8.709  11.312   9.592  1.1273 -0.2432 -0.1084
  151MOL0     C20741   8.773  11.435   9.663  0.0808 -1.0625 -0.3710
  151MOL0     C20742   8.736  11.558   9.581  0.1159  0.2624  0.0487
  151MOL0     C20743   8.586  11.579   9.609  0.4822 -0.2608 -0.0384
  151MOL0     C20744   8.527  11.675   9.509  0.7327 -0.1071  0.8896
  151MOL0    Cl20745   8.538  11.615   9.334 -0.1240  0.0021 -0.3475
  151MOL0     C20746   8.533  10.769   9.819  0.9160 -0.2211  0.1061
  151MOL0     C20747   8.451  10.680   9.888  1.7559  0.7263  0.2370
  151MOL0     O20748   8.251  10.619  10.125 -0.8382 -0.2624 -0.1678
  151MOL0     C20749   8.069  10.432  10.224  0.0705  0.1266 -0.5465
  151MOL0     C20750   7.995  10.329  10.292  0.2473 -0.0261  0.2366
  151MOL0     N20751   7.611  10.281  10.584 -0.0870  0.7190  0.3636
  151MOL0     N20752   7.519  10.270  10.667 -0.6245  0.3008 -0.2093
  151MOL0     C20753   6.714   9.319  10.867 -0.9101  0.6310  0.3042
  151MOL0     C20754   6.632   9.214  10.815 -0.4506  0.1217  0.8316
  151MOL0     C20755   6.456   8.942  10.523  0.1123 -0.3432  0.0252
  151MOL0     C20756   6.526   8.869  10.425 -0.2105  0.6319  0.2637
  151MOL0     C20757   6.452   8.802  10.328 -0.3954 -0.4115 -0.2904
  151MOL0     C20758   6.317   8.796  10.331  0.6726  0.2361 -0.7011
  151MOL0     O20759   6.251   8.728  10.231 -0.4364  0.7750  0.2886
  151MOL0     C20760   6.103   8.722  10.221  0.3423  0.3001  0.1799
  151MOL0     C20761   6.072   8.658  10.077  0.6458  0.3642  0.7809
  151MOL0     C20762   6.100   8.748   9.953 -0.1786  0.4894  0.3488
  151MOL0     C20763   6.072   8.904   9.982  0.4975 -0.0221 -0.0330
  151MOL0     C20764   5.933   8.931  10.030  1.0239 -0.7496 -0.1486
  151MOL0     C20765   5.814   8.932  10.061 -0.8319 -0.8817 -0.2402
  151MOL0     C20766   6.248   8.853  10.433 -0.4660 -0.1131  0.2680
  151MOL0     C20767   6.316   8.927  10.527 -0.4080  0.9316  0.5102
  151MOL0     C20768   6.234   9.000  10.629 -1.1256 -0.0236 -0.3670
  151MOL0     H20769   6.439   9.390  10.612 -1.5779  1.7671  0.7628
  151MOL0     H20770   6.560   9.587  10.738 -0.9749 -0.4131 -0.6955
  151MOL0     H20771   6.938   9.451  10.874 -0.7733 -0.8664 -0.0189
  151MOL0     H20772   6.880   9.468  11.039  1.0222  0.9040  0.6745
  151MOL0     H20773   6.911   9.724  10.997 -0.1795 -0.7617 -0.4246
  151MOL0     H20774   7.063   9.625  11.009 -2.7801 -3.5149  1.7702
  151MOL0     H20775   7.080   9.641  10.754 -0.9434  0.6110 -1.6329
  151MOL0     H20776   6.928   9.739  10.759  2.1882  3.4834 -1.5024
  151MOL0     H20777   7.060   9.887  10.928  3.0823  1.0233  0.6820
  151MOL0     H20778   7.201   9.807  10.872  0.2456 -2.4756 -3.4501
  151MOL0     H20779   6.997   9.961  10.705 -0.5423 -0.0129 -0.4305
  151MOL0     H20780   7.129   9.885  10.631  0.6864 -0.2093  0.2151
  151MOL0     H20781   7.133  10.093  10.861 -2.4559  0.0254 -0.5762
  151MOL0     H20782   7.278  10.016  10.773 -0.4568  0.5340  0.0507
  151MOL0     H20783   7.074  10.192  10.654 -0.8406 -1.5733  2.8523
  151MOL0     H20784   7.220  10.127  10.568 -1.8636  2.2376 -1.0224
  151MOL0     H20785   7.224  10.393  10.662  0.0136 -0.8706 -1.9938
  151MOL0     H20786   7.277  10.284  10.802  4.0974 -0.8521 -0.6485
  151MOL0     H20787   7.326  10.285  10.405  0.8221 -0.9911 -1.7595
  151MOL0     H20788   7.709  10.311  10.333  1.1851 -2.3158 -0.3494
  151MOL0     H20789   7.555  10.335  10.254  1.7656  1.4893 -0.6981
  151MOL0     H20790   7.521  10.086  10.279 -0.0250 -1.9847  3.9466
  151MOL0     H20791   7.668  10.132  10.190 -0.9127 -0.5120 -0.6885
  151MOL0     H20792   7.653  10.041  10.491 -0.8323 -0.3002 -0.4536
  151MOL0     H20793   7.704   9.938  10.359 -0.3849 -0.3842 -0.3087
  151MOL0     H20794   7.840  10.193  10.454 -3.9541  0.3624 -1.1961
  151MOL0     H20795   7.895  10.022  10.480 -1.2076  0.2740  0.8826
  151MOL0     H20796   8.056  10.086  10.088 -1.7048  0.6969 -0.5245
  151MOL0     H20797   8.305  10.250   9.928  0.8983 -1.8401 -2.7406
  151MOL0     H20798   8.157  10.285   9.839  2.2902  0.6269 -1.3777
  151MOL0     H20799   8.165  10.139   9.906  1.5217 -0.3785 -0.4324
  151MOL0     H20800   8.202  10.625   9.677 -2.5017  1.8496  1.8167
  151MOL0     H20801   8.328  10.800   9.550 -0.8106 -1.7520 -0.1724
  151MOL0     H20802   8.547  11.089   9.702  0.1768  0.6180 -1.0482
  151MOL0     H20803   8.669  10.987   9.773 -1.6488  2.6133  1.1483
  151MOL0     H20804   8.782  10.981   9.543 -2.4302 -0.7501 -0.2783
  151MOL0     H20805   8.670  11.090   9.480 -0.2663 -2.0333 -1.2610
  151MOL0     H20806   8.883  11.201   9.583 -0.3927  1.8273 -0.3229
  151MOL0     H20807   8.793  11.194   9.744 -0.8764 -0.4345  1.1331
  151MOL0     H20808   8.605  11.285   9.613  0.8261  0.0755 -1.1348
  151MOL0     H20809   8.712  11.331   9.485 -1.3167  0.7487 -0.0589
  151MOL0     H20810   8.746  11.436   9.769 -0.2073 -0.8804 -0.4446
  151MOL0     H20811   8.882  11.423   9.661  0.3393  0.9774 -1.5240
  151MOL0     H20812   8.748  11.538   9.474  0.4577 -1.5494  0.3965
  151MOL0     H20813   8.792  11.643   9.621  0.8840 -1.3260  2.5628
  151MOL0     H20814   8.585  11.612   9.713 -0.0461  3.5875 -1.1389
  151MOL0     H20815   8.530  11.486   9.595  1.6057 -1.4184  2.4880
  151MOL0     H20816   8.574  11.773   9.521 -1.5048  0.8568  2.3908
  151MOL0     H20817   8.421  11.697   9.527  0.8715  0.5959  0.8598
  151MOL0     H20818   8.626  10.815   9.853  0.5632  1.0709 -0.5699
  151MOL0     H20819   8.492  10.655   9.985 -2.7736  4.8439  3.6610
  151MOL0     H20820   8.058  10.529  10.270 -0.8411 -0.6963  1.0649
  151MOL0     H20821   7.942  10.364  10.380  0.0208  2.1620 -0.6993
  151MOL0     H20822   6.801   9.280  10.918 -2.2590 -1.2503  1.2989
  151MOL0     H20823   6.655   9.114  10.850 -3.4077 -0.1494  2.3836
  151MOL0     H20824   6.635   8.875  10.433 -0.0265 -0.7175 -0.8375
  151MOL0     H20825   6.505   8.745  10.253 -1.7636 -0.5433 -1.2011
  151MOL0     H20826   6.077   8.653  10.301  2.8862  1.3165  2.0232
  151MOL0     H20827   6.041   8.811  10.236  0.5319  0.4227  0.2315
  151MOL0     H20828   5.965   8.636  10.081  0.3884  1.3326 -0.1956
  151MOL0     H20829   6.125   8.563  10.064  0.2244  0.3602 -1.2628
  151MOL0     H20830   6.197   8.741   9.904 -0.5396  2.9698 -0.8775
  151MOL0     H20831   6.028   8.726   9.874  1.1686 -1.0378 -0.5203
  151MOL0     H20832   6.070   8.958   9.887 -1.5291  2.2179  1.1635
  151MOL0     H20833   6.146   8.940  10.053 -2.3382  2.0100  2.1182
  151MOL0     H20834   5.711   8.910  10.083 -1.2430 -2.4516 -3.2097
  151MOL0     H20835   6.140   8.851  10.445 -0.2239 -0.6577  2.8799
  151MOL0     H20836   6.275   8.988  10.729  1.0560  2.2182 -0.9073
  151MOL0     H20837   6.227   9.107  10.608 -0.3976  0.1267  0.1293
  151MOL0     H20838   6.132   8.959  10.631 -1.0558 -0.3932  3.5267
  152MOL0     O20839   6.520   7.004  11.128 -0.4044  0.6225 -0.1957
  152MOL0     C20840   6.443   6.977  11.038 -0.6999  0.2386 -0.3551
  152MOL0     O20841   6.483   6.974  10.910 -0.5645 -0.2075 -0.2641
  152MOL0     C20842   6.587   7.055  10.874 -0.2299  0.2847  0.3311
  152MOL0     C20843   6.612   7.178  10.930 -0.2255 -0.8754  0.0666
  152MOL0     C20844   6.714   7.273  10.876  0.2264  0.0711  0.0236
  152MOL0     C20845   6.785   7.230  10.773 -0.7447 -0.2161 -0.3462
  152MOL0     O20846   6.883   7.317  10.724 -0.1705 -0.1877  0.2514
  152MOL0     C20847   6.917   7.307  10.588  0.1762 -0.1554  0.1152
  152MOL0     C20848   7.009   7.429  10.553  0.6608  0.1198  0.3731
  152MOL0     C20849   7.145   7.421  10.628  0.3323  0.5211  0.3896
  152MOL0     C20850   7.226   7.548  10.608 -0.3073 -0.1186  0.0256
  152MOL0     C20851   7.367   7.516  10.675  0.1320  0.6382 -0.2048
  152MOL0     C20852   7.469   7.625  10.646  0.6112 -0.3914 -1.2985
  152MOL0     C20853   7.441   7.759  10.723 -0.4040 -0.5532  0.3501
  152MOL0     C20854   7.578   7.845  10.734  0.2447  0.1124  0.0345
  152MOL0     N20855   7.668   7.780  10.832 -0.2768 -0.1683  0.2488
  152MOL0     C20856   7.770   7.692  10.798 -0.3350 -0.4785  0.0013
  152MOL0     C20857   7.814   7.647  10.921 -0.6766  0.6732  0.4430
  152MOL0     C20858   7.950   7.587  10.946  0.3763  0.4284  0.3644
  152MOL0     C20859   7.950   7.486  11.066  0.2134  0.4477  0.3401
  152MOL0     C20860   8.097   7.435  11.106 -0.4499 -0.3284  0.2786
  152MOL0     C20861   8.125   7.384  11.246  0.5001 -0.4513 -0.1938
  152MOL0     O20862   8.159   7.481  11.345  0.1875  0.3311 -0.5695
  152MOL0     C20863   8.284   7.528  11.360 -0.8275  0.2331 -0.4464
  152MOL0     C20864   8.302   7.634  11.450  0.6690  0.1633  1.1318
  152MOL0     C20865   8.429   7.677  11.491 -0.2714  0.3294 -0.4069
  152MOL0     C20866   8.433   7.790  11.588 -0.5890  0.0074 -0.3490
  152MOL0     C20867   8.543   7.615  11.438 -0.1470  0.3928  0.6745
  152MOL0     C20868   8.684   7.673  11.458  1.0524 -0.3767  0.5616
  152MOL0     O20869   8.683   7.803  11.423  0.0621 -0.3982 -0.7576
  152MOL0     C20870   8.790   7.877  11.443 -0.1653 -0.7925 -0.6287
  152MOL0     C20871   8.842   7.881  11.567  0.7268 -0.3364 -0.0329
  152MOL0     C20872   8.963   7.922  11.587 -0.4234  0.0985 -0.0412
  152MOL0     C20873   9.031   7.993  11.490 -0.2469 -0.3122  0.6738
  152MOL0     O20874   9.147   8.064  11.509  0.2708  0.1357  0.1178
  152MOL0     C20875   9.192   8.103  11.638 -0.3111 -0.7339  0.1737
  152MOL0     C20876   9.345   8.114  11.646  0.3890  0.2616 -0.6533
  152MOL0     C20877   9.404   7.973  11.638 -0.0941  0.6249  0.0264
  152MOL0     C20878   9.547   7.955  11.697 -1.1465  0.0073  0.6526
  152MOL0     C20879   9.651   8.054  11.638 -0.0304 -0.7979  0.3104
  152MOL0     C20880   9.675   8.030  11.497  0.1200  0.2896  0.3204
  152MOL0     C20881   9.790   8.120  11.443 -0.0358 -0.2275 -0.6722
  152MOL0     C20882   9.760   8.127  11.293  0.5204 -0.2455 -0.1170
  152MOL0    Cl20883   9.891   8.206  11.195  0.0779  0.2869 -0.1050
  152MOL0     C20884   8.980   8.000  11.367  1.4118 -0.2471  0.2063
  152MOL0     C20885   8.861   7.934  11.338  0.2926  0.0606  0.5216
  152MOL0     O20886   8.779   7.604  11.486  0.9545  0.2184 -0.0219
  152MOL0     C20887   8.526   7.512  11.347 -0.4746 -0.0510  0.0337
  152MOL0     C20888   8.404   7.470  11.311  0.4102 -0.2533 -0.4599
  152MOL0     N20889   7.729   7.688  11.023  0.5992 -0.4191  0.0944
  152MOL0     N20890   7.642   7.771  10.966  0.2511 -0.2243 -0.3170
  152MOL0     C20891   6.750   7.110  10.709 -0.2064  0.2635  0.2614
  152MOL0     C20892   6.652   7.027  10.756 -0.3842 -0.7610 -0.6396
  152MOL0     C20893   6.306   6.945  11.082  0.5436 -0.5399  0.0492
  152MOL0     C20894   6.267   6.920  11.214  0.1468  0.6878 -0.0310
  152MOL0     C20895   6.140   6.874  11.244 -0.0494 -0.7569 -0.4495
  152MOL0     C20896   6.041   6.862  11.150  0.3216  0.2340 -0.5928
  152MOL0     O20897   5.911   6.824  11.168  0.2438  0.5461 -0.3347
  152MOL0     C20898   5.872   6.812  11.305 -0.1916  0.5406  0.2410
  152MOL0     C20899   5.720   6.811  11.303  0.4771 -0.1743 -0.0762
  152MOL0     C20900   5.659   6.720  11.202  0.9181  0.2733 -0.3312
  152MOL0     C20901   5.505   6.729  11.216  0.2167 -0.7181  0.1150
  152MOL0     C20902   5.440   6.624  11.149 -0.0073  0.1487 -0.6326
  152MOL0     C20903   5.373   6.543  11.093  0.3479  0.1567 -0.7030
  152MOL0     C20904   6.076   6.888  11.022 -0.8098  0.4251  0.1909
  152MOL0     C20905   6.204   6.930  10.982  0.0954  0.2940  0.1927
  152MOL0     C20906   6.215   6.958  10.829 -0.3268  0.0629 -0.2908
  152MOL0     H20907   6.555   7.226  11.009  0.0943  1.4199 -1.0229
  152MOL0     H20908   6.738   7.362  10.934  3.4627  0.1090 -1.1539
  152MOL0     H20909   6.825   7.306  10.528 -0.9732  0.3256  1.7984
  152MOL0     H20910   6.970   7.213  10.574  0.4149  0.0315 -0.2609
  152MOL0     H20911   7.030   7.414  10.447  3.0616 -3.7214  1.1830
  152MOL0     H20912   6.958   7.524  10.570 -0.8119  0.1884 -3.3767
  152MOL0     H20913   7.129   7.402  10.734 -3.3905 -1.8358 -0.4068
  152MOL0     H20914   7.206   7.343  10.581 -0.4136  1.5909 -2.6334
  152MOL0     H20915   7.247   7.568  10.502 -1.1706  0.2074 -0.0949
  152MOL0     H20916   7.181   7.634  10.659  1.9442 -0.4781  2.8765
  152MOL0     H20917   7.412   7.432  10.623  1.9298  1.3638  0.0868
  152MOL0     H20918   7.350   7.495  10.781 -1.7113  1.3483 -0.3220
  152MOL0     H20919   7.570   7.587  10.666  1.3678  2.9543  2.6097
  152MOL0     H20920   7.461   7.654  10.541 -1.6522 -0.5462 -1.2346
  152MOL0     H20921   7.395   7.751  10.822  1.4230  0.4622  1.3107
  152MOL0     H20922   7.369   7.817  10.665 -0.4716 -0.3149  0.6712
  152MOL0     H20923   7.631   7.858  10.640  2.1913 -0.7484  0.9613
  152MOL0     H20924   7.545   7.940  10.777 -1.3775 -0.0102 -0.8517
  152MOL0     H20925   7.828   7.687  10.707 -0.2757  0.2273 -0.0039
  152MOL0     H20926   8.009   7.677  10.966 -0.4472  1.2853 -0.8968
  152MOL0     H20927   7.987   7.544  10.852  1.8752  0.4529  0.9125
  152MOL0     H20928   7.898   7.528  11.152  0.3804 -1.7133  1.5753
  152MOL0     H20929   7.883   7.403  11.040 -1.4025  2.2058 -1.3630
  152MOL0     H20930   8.126   7.363  11.029  0.2786  0.7841 -0.5120
  152MOL0     H20931   8.166   7.518  11.092 -0.3511 -0.0152  2.3077
  152MOL0     H20932   8.033   7.332  11.276 -0.7889 -0.6810 -3.9747
  152MOL0     H20933   8.208   7.314  11.231  0.2336 -0.5653 -1.2148
  152MOL0     H20934   8.212   7.684  11.484 -0.5416 -0.7202 -0.6294
  152MOL0     H20935   8.340   7.816  11.640 -0.0628  0.0797  0.5862
  152MOL0     H20936   8.462   7.881  11.534  0.8547  1.5385  2.7074
  152MOL0     H20937   8.506   7.781  11.670  0.2559  1.0452 -0.9636
  152MOL0     H20938   8.792   7.835  11.652 -1.4735  2.7993  0.5410
  152MOL0     H20939   8.988   7.921  11.692 -2.9679  1.4835  0.6735
  152MOL0     H20940   9.156   8.201  11.672 -1.3829 -1.3562  0.8947
  152MOL0     H20941   9.166   8.037  11.721 -0.8140  1.7231  2.0628
  152MOL0     H20942   9.388   8.171  11.563 -0.2115  1.8506  0.1003
  152MOL0     H20943   9.377   8.163  11.738 -2.1995  1.2247 -0.1783
  152MOL0     H20944   9.397   7.943  11.533  1.6415 -0.9876  0.3192
  152MOL0     H20945   9.336   7.907  11.692  1.2868 -0.4139  0.5485
  152MOL0     H20946   9.579   7.852  11.676 -0.4858  0.5740 -1.3742
  152MOL0     H20947   9.550   7.973  11.805 -3.1294 -1.8909  1.0792
  152MOL0     H20948   9.614   8.156  11.648 -0.7756 -0.6534 -2.8243
  152MOL0     H20949   9.748   8.056  11.688  1.4842 -1.2891 -2.3592
  152MOL0     H20950   9.582   8.055  11.443 -0.1535  0.5124  0.8914
  152MOL0     H20951   9.708   7.926  11.491  1.9770  0.9281 -1.8659
  152MOL0     H20952   9.884   8.076  11.478  0.0499  0.5859  0.1475
  152MOL0     H20953   9.785   8.222  11.481 -1.0527 -1.1282  1.8538
  152MOL0     H20954   9.669   8.184  11.272  1.5502  1.0631 -1.1881
  152MOL0     H20955   9.741   8.025  11.259  0.5446 -0.3946  0.3042
  152MOL0     H20956   9.021   8.062  11.287  0.8441 -1.1376 -0.7958
  152MOL0     H20957   8.830   7.921  11.235  0.2753 -1.3872  0.6791
  152MOL0     H20958   8.611   7.465  11.299  0.3815 -1.1183  2.3900
  152MOL0     H20959   8.405   7.385  11.244 -0.3437 -1.9034  1.5353
  152MOL0     H20960   6.795   7.083  10.614  0.5961  2.7026 -0.1260
  152MOL0     H20961   6.628   6.941  10.695  1.4648 -0.8892 -1.2447
  152MOL0     H20962   6.325   6.939  11.303  1.9248 -0.7599 -0.8117
  152MOL0     H20963   6.124   6.857  11.350 -1.7433 -0.5622 -0.6542
  152MOL0     H20964   5.913   6.729  11.363 -1.7300 -0.1496  0.3786
  152MOL0     H20965   5.905   6.901  11.360 -0.7929  0.3284  0.9622
  152MOL0     H20966   5.680   6.910  11.278 -1.6199 -0.7784  0.7189
  152MOL0     H20967   5.680   6.786  11.401  3.8113 -1.2993  1.1516
  152MOL0     H20968   5.679   6.735  11.095 -1.8723 -0.3373 -1.0178
  152MOL0     H20969   5.692   6.619  11.230 -1.0268 -0.0648  0.8856
  152MOL0     H20970   5.474   6.820  11.165  1.6669 -1.3885 -2.0917
  152MOL0     H20971   5.481   6.733  11.323 -1.0645  1.3827 -0.1946
  152MOL0     H20972   5.305   6.467  11.061 -0.8016  0.1704  1.5325
  152MOL0     H20973   5.989   6.869  10.959  0.1129 -0.5914 -0.8118
  152MOL0     H20974   6.126   6.924  10.774  1.1545 -0.0293 -2.7745
  152MOL0     H20975   6.236   7.064  10.810  0.4172  0.3009  1.7005
  152MOL0     H20976   6.297   6.900  10.786 -0.0065  0.7299 -0.6086
  153MOL0     O20977   2.507   0.452   1.128  0.4868  1.0030 -0.0299
  153MOL0     C20978   2.530   0.563   1.080 -0.2864 -0.2446 -0.1059
  153MOL0     O20979   2.446   0.631   0.992  0.2085  0.5986 -0.2981
  153MOL0     C20980   2.340   0.563   0.948  0.7775 -0.0115  0.0027
  153MOL0     C20981   2.342   0.456   0.861  0.7595  1.0749  0.1887
  153MOL0     C20982   2.220   0.387   0.826 -1.1212 -0.3664 -0.8733
  153MOL0     C20983   2.099   0.438   0.865  0.8462  0.4912  0.6160
  153MOL0     O20984   1.977   0.393   0.828  0.3868  0.0628  0.9528
  153MOL0     C20985   1.987   0.297   0.719 -0.7604  0.8870  0.2359
  153MOL0     C20986   1.841   0.265   0.668 -0.4410 -0.0593 -0.1392
  153MOL0     C20987   1.767   0.395   0.619  0.2693  0.4530 -0.0699
  153MOL0     C20988   1.612   0.371   0.648 -0.1268 -0.1893  0.2923
  153MOL0     C20989   1.549   0.510   0.652 -0.0707 -0.0313 -0.4678
  153MOL0     C20990   1.396   0.485   0.648 -1.2361 -0.5459 -0.1887
  153MOL0     C20991   1.319   0.622   0.641 -0.0450 -0.5285 -1.0816
  153MOL0     C20992   1.173   0.610   0.666  1.3950  0.3680 -0.9484
  153MOL0     N20993   1.127   0.565   0.802  0.3345  0.9567  0.9144
  153MOL0     C20994   1.012   0.500   0.826 -0.0507  0.3466 -0.7384
  153MOL0     C20995   0.998   0.492   0.960 -0.5030 -0.5770 -0.0825
  153MOL0     C20996   0.894   0.415   1.033 -0.9233  0.4725  0.6889
  153MOL0     C20997   0.949   0.282   1.086  0.6917  0.0376 -0.0570
  153MOL0     C20998   0.961   0.175   0.966  0.9650 -0.1999  0.6558
  153MOL0     C20999   0.828   0.120   0.929  0.6517 -0.4009 -0.4107
  153MOL0     O21000   0.851   0.036   0.811 -0.5256  0.2790 -0.0517
  153MOL0     C21001   0.739  -0.027   0.748 -0.0643  0.5636 -0.3325
  153MOL0     C21002   0.766  -0.126   0.651  0.4457 -1.2507 -0.3452
  153MOL0     C21003   0.672  -0.191   0.579 -0.5226  0.0984 -0.2751
  153MOL0     C21004   0.722  -0.281   0.467  0.1373  0.4991 -0.2103
  153MOL0     C21005   0.533  -0.159   0.604  1.0703  0.1057 -1.0234
  153MOL0     C21006   0.418  -0.211   0.520  0.2274  0.1632  0.6050
  153MOL0     O21007   0.447  -0.323   0.453  0.2140 -0.0101  0.2150
  153MOL0     C21008   0.363  -0.345   0.340  0.3480  0.3206 -0.4535
  153MOL0     C21009   0.357  -0.237   0.242 -0.1818  0.0753 -0.8600
  153MOL0     C21010   0.278  -0.252   0.132 -0.0911  0.0505  0.2532
  153MOL0     C21011   0.205  -0.365   0.108  1.5433  0.2821 -0.7781
  153MOL0     O21012   0.123  -0.372  -0.007 -0.4560 -0.0257 -0.4670
  153MOL0     C21013   0.007  -0.442   0.006  0.5894 -0.3630 -0.0863
  153MOL0     C21014  -0.082  -0.421  -0.113  0.2426 -0.0812 -0.4859
  153MOL0     C21015  -0.175  -0.298  -0.100  0.5471  0.1505  0.0111
  153MOL0     C21016  -0.245  -0.285  -0.234  0.4007  1.1408  0.1184
  153MOL0     C21017  -0.379  -0.218  -0.209  0.5546 -0.7874 -0.0281
  153MOL0     C21018  -0.372  -0.071  -0.156 -0.0974 -0.3857  0.6017
  153MOL0     C21019  -0.279   0.012  -0.234 -0.2053 -0.2073 -0.3037
  153MOL0     C21020  -0.283   0.001  -0.396  0.4299 -0.0599 -0.1774
  153MOL0    Cl21021  -0.154   0.097  -0.478 -0.0830  0.8169 -0.3926
  153MOL0     C21022   0.222  -0.477   0.189 -1.3510 -0.1109 -0.4590
  153MOL0     C21023   0.302  -0.468   0.308  0.5172  0.4462 -0.6679
  153MOL0     O21024   0.309  -0.147   0.523  0.1400  0.3518  0.4371
  153MOL0     C21025   0.503  -0.070   0.706  0.4487  0.3196  0.4703
  153MOL0     C21026   0.610  -0.002   0.780  0.2212  0.4451 -0.3185
  153MOL0     N21027   1.104   0.565   1.012  0.0806 -0.0762  0.4473
  153MOL0     N21028   1.175   0.601   0.916  0.6560 -0.3057  0.2278
  153MOL0     C21029   2.097   0.551   0.950 -0.9271 -0.9040  0.6646
  153MOL0     C21030   2.221   0.606   0.999 -0.3413 -0.3540  0.0057
  153MOL0     C21031   2.663   0.629   1.105  0.2727  0.4961  0.8344
  153MOL0     C21032   2.679   0.749   1.046 -1.2656  0.1588  0.1713
  153MOL0     C21033   2.802   0.824   1.056 -1.0240  0.4197  0.6764
  153MOL0     C21034   2.910   0.760   1.116  0.2541 -0.7384 -0.4943
  153MOL0     O21035   3.026   0.828   1.124  0.1507  0.2679 -0.1913
  153MOL0     C21036   3.134   0.794   1.041  0.5807  0.1275  0.4328
  153MOL0     C21037   3.237   0.908   1.049 -0.0836  0.0034 -0.1618
  153MOL0     C21038   3.263   0.949   1.196  0.3407 -0.0019 -0.6247
  153MOL0     C21039   3.359   1.058   1.205 -0.9046  1.2681 -0.3147
  153MOL0     C21040   3.373   1.078   1.353  0.6427  0.2144 -0.1465
  153MOL0     C21041   3.388   1.100   1.469  0.2562 -0.5477  0.4454
  153MOL0     C21042   2.903   0.641   1.167 -0.3622 -0.0487 -0.7602
  153MOL0     C21043   2.777   0.583   1.174  0.2495  0.5445 -0.0294
  153MOL0     C21044   2.767   0.445   1.250  1.0958  0.1932  0.4401
  153MOL0     H21045   2.440   0.419   0.832  1.1133  0.6659  1.8308
  153MOL0     H21046   2.223   0.297   0.766 -1.5046  0.3490 -1.9954
  153MOL0     H21047   2.040   0.207   0.750 -1.2262  0.4696 -0.1633
  153MOL0     H21048   2.036   0.338   0.631  1.1528 -2.7798 -0.6289
  153MOL0     H21049   1.852   0.192   0.588  0.3408 -1.8751  1.5305
  153MOL0     H21050   1.781   0.207   0.739 -1.3057  1.3185  0.3072
  153MOL0     H21051   1.801   0.483   0.674  1.2536 -0.4296  0.7756
  153MOL0     H21052   1.789   0.413   0.513 -1.4594  2.8693 -0.0940
  153MOL0     H21053   1.569   0.298   0.579 -2.1343  0.6010  0.6158
  153MOL0     H21054   1.588   0.333   0.748 -2.4335 -1.2021 -0.5691
  153MOL0     H21055   1.569   0.565   0.559 -3.2836  0.7580 -0.8213
  153MOL0     H21056   1.575   0.578   0.734  4.0599 -1.2104 -0.5820
  153MOL0     H21057   1.360   0.414   0.574 -0.3126  0.2744 -1.4638
  153MOL0     H21058   1.377   0.437   0.745  0.2279  0.2027  0.5083
  153MOL0     H21059   1.338   0.669   0.545  2.1068  0.5350 -0.1901
  153MOL0     H21060   1.355   0.686   0.722 -1.6400 -0.6936 -0.2004
  153MOL0     H21061   1.117   0.701   0.640 -0.2541  0.2738  1.8766
  153MOL0     H21062   1.134   0.530   0.602 -1.6546  0.5884  0.5016
  153MOL0     H21063   0.947   0.454   0.751  1.0657 -0.8320 -1.0221
  153MOL0     H21064   0.803   0.409   0.972  0.5687 -2.7426 -1.4897
  153MOL0     H21065   0.876   0.474   1.123 -0.4779  2.9376 -0.7208
  153MOL0     H21066   1.049   0.304   1.124  0.3660  0.9468  0.3103
  153MOL0     H21067   0.889   0.243   1.169 -1.9086  0.9449 -1.3857
  153MOL0     H21068   0.987   0.228   0.875 -1.8336  2.2365  1.0937
  153MOL0     H21069   1.030   0.095   0.994  2.2460  0.3796 -0.7359
  153MOL0     H21070   0.768   0.067   1.004  0.7076 -1.4410 -1.0781
  153MOL0     H21071   0.756   0.200   0.909 -0.4268 -1.4022 -0.6499
  153MOL0     H21072   0.870  -0.121   0.621  0.3994 -0.6713 -0.4242
  153MOL0     H21073   0.685  -0.380   0.495  0.2290  0.9316  1.5677
  153MOL0     H21074   0.831  -0.290   0.458 -0.0016 -1.5833 -0.4127
  153MOL0     H21075   0.676  -0.251   0.372 -0.2057 -0.7648 -0.4579
  153MOL0     H21076   0.419  -0.148   0.252  2.3594 -1.6590  0.0245
  153MOL0     H21077   0.265  -0.165   0.068 -0.2292  0.0362  0.2610
  153MOL0     H21078   0.035  -0.548  -0.002  0.3692 -0.7883  3.3381
  153MOL0     H21079  -0.037  -0.417   0.103  1.1909  0.1010  0.0782
  153MOL0     H21080  -0.022  -0.406  -0.203 -2.1622  0.9279 -2.0108
  153MOL0     H21081  -0.145  -0.509  -0.132  0.3912  0.1042 -1.9528
  153MOL0     H21082  -0.125  -0.205  -0.072  0.1475  0.0645  1.0256
  153MOL0     H21083  -0.240  -0.321  -0.016 -1.3777 -4.3631 -2.3764
  153MOL0     H21084  -0.274  -0.385  -0.270 -1.9600  1.0488  1.9855
  153MOL0     H21085  -0.181  -0.240  -0.310  1.9892 -0.9625  0.0996
  153MOL0     H21086  -0.436  -0.215  -0.302  0.9560 -0.7352 -0.2740
  153MOL0     H21087  -0.441  -0.276  -0.140 -1.0744  0.6723 -0.1814
  153MOL0     H21088  -0.329  -0.066  -0.055 -0.2367  0.0526  0.6419
  153MOL0     H21089  -0.474  -0.031  -0.149  0.0939 -0.0198  1.4097
  153MOL0     H21090  -0.175  -0.007  -0.209 -0.2222 -0.1401 -0.1803
  153MOL0     H21091  -0.304   0.118  -0.220 -2.0312 -0.7131  0.5427
  153MOL0     H21092  -0.382   0.028  -0.435  0.1729  0.4234  0.7724
  153MOL0     H21093  -0.267  -0.098  -0.440  0.5867 -0.4350  0.6884
  153MOL0     H21094   0.187  -0.575   0.157  1.2450 -0.7769 -1.5743
  153MOL0     H21095   0.327  -0.555   0.368 -1.0481 -1.0433 -2.0879
  153MOL0     H21096   0.401  -0.039   0.723  0.6681  1.9146 -0.8245
  153MOL0     H21097   0.592   0.067   0.862  0.5021 -0.1649  0.2622
  153MOL0     H21098   2.002   0.588   0.987 -1.0567  0.7599 -1.1879
  153MOL0     H21099   2.228   0.673   1.084  3.8854 -2.4083  1.6107
  153MOL0     H21100   2.601   0.799   0.989  0.2478  1.5251 -0.8043
  153MOL0     H21101   2.803   0.925   1.016 -2.0011  0.2975  0.3066
  153MOL0     H21102   3.174   0.697   1.074 -0.9374 -0.5173  0.4774
  153MOL0     H21103   3.102   0.784   0.937 -0.0090 -1.0662  0.7102
  153MOL0     H21104   3.210   0.998   0.993  1.2902  1.3126  1.1676
  153MOL0     H21105   3.330   0.874   1.004  0.5451  1.7380 -0.2585
  153MOL0     H21106   3.175   0.979   1.253 -0.7165 -2.9172 -0.5503
  153MOL0     H21107   3.310   0.864   1.246 -0.1413  0.2401  0.2522
  153MOL0     H21108   3.326   1.148   1.153 -3.6848 -0.3103 -1.4826
  153MOL0     H21109   3.458   1.028   1.169 -1.3459 -0.4679 -0.1467
  153MOL0     H21110   3.403   1.128   1.571  1.6174 -0.0118  0.1238
  153MOL0     H21111   2.994   0.602   1.212 -1.4434 -1.6813  0.1253
  153MOL0     H21112   2.684   0.442   1.322 -0.3760  0.8699 -1.1566
  153MOL0     H21113   2.751   0.364   1.179 -0.1303  1.3730 -0.6756
  153MOL0     H21114   2.853   0.426   1.315  3.1610  1.5294 -1.7451
  154MOL0     O21115   3.288   6.589   8.756 -1.1376 -0.1015 -0.5510
  154MOL0     C21116   3.192   6.524   8.810 -0.2111 -0.6386  0.2642
  154MOL0     O21117   3.160   6.392   8.786 -0.0609  0.0132 -0.4471
  154MOL0     C21118   3.244   6.309   8.720  0.5247 -0.2448 -0.2852
  154MOL0     C21119   3.262   6.314   8.582  0.1643 -0.3731 -0.3888
  154MOL0     C21120   3.358   6.233   8.518  0.3948  0.6245  0.1379
  154MOL0     C21121   3.425   6.138   8.591  0.1463 -0.2386  0.1991
  154MOL0     O21122   3.500   6.036   8.530 -0.6996 -0.3953  0.1259
  154MOL0     C21123   3.586   6.082   8.421  0.4119  0.3829 -0.7295
  154MOL0     C21124   3.663   5.952   8.383 -0.4776 -0.3896  0.5915
  154MOL0     C21125   3.748   5.964   8.254 -0.0494  0.8723  0.4414
  154MOL0     C21126   3.887   6.023   8.272  0.5394 -0.0821 -0.0156
  154MOL0     C21127   3.989   5.974   8.171 -0.1817  0.1591  0.0684
  154MOL0     C21128   4.121   6.037   8.208 -0.2477 -0.3479 -0.4010
  154MOL0     C21129   4.235   5.995   8.104  1.2550 -0.1226 -0.2618
  154MOL0     C21130   4.198   6.018   7.962  0.0904  0.6021 -0.0635
  154MOL0     N21131   4.187   6.165   7.940  0.0057  0.3848  0.2294
  154MOL0     C21132   4.111   6.214   7.831 -0.6095 -0.4717 -0.6926
  154MOL0     C21133   4.159   6.342   7.806  0.1262 -0.0696  0.6885
  154MOL0     C21134   4.107   6.419   7.686  0.1641 -0.1715  0.2460
  154MOL0     C21135   4.215   6.413   7.574  0.1775 -0.0813 -0.3754
  154MOL0     C21136   4.173   6.511   7.467 -0.2766 -0.7178 -0.2063
  154MOL0     C21137   4.277   6.502   7.358  0.7659  0.7077 -0.1309
  154MOL0     O21138   4.403   6.551   7.419  0.7547  0.4791 -0.2287
  154MOL0     C21139   4.520   6.495   7.360  0.3702 -0.1343  0.1075
  154MOL0     C21140   4.554   6.536   7.234 -0.1151 -0.8169  0.6671
  154MOL0     C21141   4.676   6.488   7.176  0.3115  0.2658 -0.7521
  154MOL0     C21142   4.711   6.552   7.042 -0.0836  0.0418  0.4610
  154MOL0     C21143   4.751   6.387   7.235 -1.0167 -0.1421  0.7441
  154MOL0     C21144   4.875   6.330   7.183 -0.2677  0.0242  0.4560
  154MOL0     O21145   4.915   6.215   7.241 -0.0539  0.0225 -0.2526
  154MOL0     C21146   5.042   6.159   7.235 -0.2155  0.3165 -0.5505
  154MOL0     C21147   5.052   6.034   7.293  0.6475 -0.0168 -0.1792
  154MOL0     C21148   5.175   5.970   7.285 -0.3118 -0.5987 -0.0496
  154MOL0     C21149   5.289   6.039   7.243  0.7580  0.5885  0.6697
  154MOL0     O21150   5.401   5.963   7.235  0.4680 -0.0357  0.1200
  154MOL0     C21151   5.526   6.035   7.265  0.5073  0.3267  0.5666
  154MOL0     C21152   5.642   5.937   7.305 -0.6359  0.0533  0.0326
  154MOL0     C21153   5.648   5.812   7.214 -1.2777 -0.5161  0.1582
  154MOL0     C21154   5.690   5.835   7.069  0.2543  0.1767 -0.4165
  154MOL0     C21155   5.713   5.699   6.991 -0.5782 -0.5212 -0.5991
  154MOL0     C21156   5.577   5.625   6.970 -0.6497 -1.0641 -0.0213
  154MOL0     C21157   5.602   5.488   6.904 -0.3964 -0.2465 -0.3285
  154MOL0     C21158   5.483   5.390   6.921 -1.2148  1.0540  0.3093
  154MOL0    Cl21159   5.505   5.252   6.816  0.5556  0.6739 -0.1961
  154MOL0     C21160   5.279   6.176   7.201  0.2646  1.1008 -0.2174
  154MOL0     C21161   5.154   6.234   7.191  0.3415 -0.1859  0.2933
  154MOL0     O21162   4.925   6.373   7.083 -0.0452 -0.8416  0.0788
  154MOL0     C21163   4.706   6.343   7.361  0.7471  0.1684  0.3539
  154MOL0     C21164   4.593   6.401   7.425  0.1702  0.3589 -0.1793
  154MOL0     N21165   4.264   6.373   7.892  0.1819  1.1723  0.0237
  154MOL0     N21166   4.273   6.265   7.977 -0.4541  0.0043 -0.5527
  154MOL0     C21167   3.410   6.128   8.727  0.3708  0.3406 -0.5278
  154MOL0     C21168   3.327   6.224   8.786  0.3628  0.1879 -0.2248
  154MOL0     C21169   3.092   6.609   8.883  0.6370  0.9337  0.2242
  154MOL0     C21170   2.990   6.540   8.947  0.2171  0.3853 -0.1373
  154MOL0     C21171   2.906   6.600   9.036 -0.0567 -1.0047 -1.1708
  154MOL0     C21172   2.903   6.736   9.051  0.0746 -0.8140 -0.9810
  154MOL0     O21173   2.809   6.804   9.131  0.3036 -0.0150 -0.4775
  154MOL0     C21174   2.696   6.743   9.199 -0.5259  0.4647  0.6474
  154MOL0     C21175   2.632   6.848   9.289 -0.6302  0.0453  0.3906
  154MOL0     C21176   2.606   6.984   9.214 -0.2584  0.2223  0.2493
  154MOL0     C21177   2.503   7.075   9.284 -0.4048 -0.2468 -0.3547
  154MOL0     C21178   2.514   7.219   9.240  0.2847  0.5122  0.0957
  154MOL0     C21179   2.516   7.331   9.206  1.2285 -0.4547  0.4417
  154MOL0     C21180   2.993   6.815   8.982 -0.9677  0.5444  0.3019
  154MOL0     C21181   3.085   6.751   8.888 -0.5263  0.9162 -0.6548
  154MOL0     C21182   3.187   6.841   8.820  0.1170 -0.5029  0.7167
  154MOL0     H21183   3.197   6.387   8.535 -1.8912 -3.3216 -2.4852
  154MOL0     H21184   3.370   6.236   8.410 -0.5041  2.3364  0.0459
  154MOL0     H21185   3.656   6.161   8.449  1.5456 -1.0855  0.7769
  154MOL0     H21186   3.533   6.123   8.334  0.8950  2.1224 -0.2465
  154MOL0     H21187   3.736   5.932   8.462 -0.4197  2.0602  1.2386
  154MOL0     H21188   3.591   5.872   8.362 -0.1056 -0.4998 -0.2996
  154MOL0     H21189   3.749   5.860   8.220 -2.5945 -0.0949  2.9260
  154MOL0     H21190   3.697   6.010   8.169 -2.3171 -0.0178  1.2419
  154MOL0     H21191   3.887   6.132   8.284  1.3418 -0.0684 -0.1143
  154MOL0     H21192   3.917   5.982   8.369  0.9220 -0.4530 -0.2886
  154MOL0     H21193   3.954   6.014   8.075 -0.6025 -0.3235  0.0160
  154MOL0     H21194   3.992   5.866   8.159 -2.8111 -0.0518  0.7613
  154MOL0     H21195   4.097   6.143   8.215 -1.2306 -0.6840  2.8658
  154MOL0     H21196   4.151   6.006   8.308 -2.9982 -2.3883 -0.0976
  154MOL0     H21197   4.255   5.887   8.111 -0.3201 -0.6261 -2.3758
  154MOL0     H21198   4.329   6.041   8.137 -0.3527  0.9507  3.3030
  154MOL0     H21199   4.279   5.977   7.902 -1.0529  0.9907 -1.9374
  154MOL0     H21200   4.107   5.970   7.924  0.7135 -0.8120  0.1586
  154MOL0     H21201   4.029   6.168   7.778 -0.9516 -0.9760  0.2597
  154MOL0     H21202   4.090   6.526   7.704 -2.0744 -0.4426  0.0358
  154MOL0     H21203   4.006   6.388   7.659 -0.5980  2.4067 -0.1911
  154MOL0     H21204   4.317   6.429   7.611 -0.0628 -0.1657  0.3262
  154MOL0     H21205   4.207   6.314   7.527 -0.6249  0.9031 -2.4377
  154MOL0     H21206   4.070   6.501   7.433 -0.7904 -2.2187  1.5978
  154MOL0     H21207   4.185   6.612   7.507  1.0738 -1.0783  0.3727
  154MOL0     H21208   4.289   6.402   7.313 -0.6404  0.2485  0.4572
  154MOL0     H21209   4.248   6.563   7.272 -3.3125  0.0959  0.5849
  154MOL0     H21210   4.495   6.612   7.182  0.8094 -0.9765 -0.6777
  154MOL0     H21211   4.640   6.633   7.022  0.3891 -0.0156 -1.7807
  154MOL0     H21212   4.702   6.480   6.959  1.1202  0.0260  0.3369
  154MOL0     H21213   4.812   6.593   7.036 -0.0373 -0.1493 -0.1734
  154MOL0     H21214   4.962   5.986   7.329 -0.3520 -0.6838 -3.2977
  154MOL0     H21215   5.180   5.867   7.319 -0.8826 -0.3106  0.9271
  154MOL0     H21216   5.559   6.095   7.179 -1.7133  2.8239  1.3060
  154MOL0     H21217   5.516   6.106   7.348 -0.7859  2.3582 -1.2168
  154MOL0     H21218   5.739   5.988   7.307 -0.1967 -0.6665 -1.6045
  154MOL0     H21219   5.626   5.898   7.406  0.7210  0.3443  0.3779
  154MOL0     H21220   5.550   5.764   7.221 -0.5620 -1.7902  2.6571
  154MOL0     H21221   5.719   5.747   7.268 -0.4288 -0.3586 -0.7349
  154MOL0     H21222   5.784   5.891   7.071  0.1979  0.2436  0.8074
  154MOL0     H21223   5.622   5.900   7.014 -0.7099 -0.0988  0.4207
  154MOL0     H21224   5.761   5.715   6.894  2.0844 -0.6061  0.6113
  154MOL0     H21225   5.780   5.624   7.034 -0.5222  1.4331  3.0542
  154MOL0     H21226   5.509   5.682   6.906  1.5396 -0.1424 -1.6518
  154MOL0     H21227   5.517   5.620   7.061  0.5230 -2.6400  0.7059
  154MOL0     H21228   5.685   5.440   6.956  2.2462  2.1136 -2.0249
  154MOL0     H21229   5.626   5.500   6.798  2.0134 -0.6669  0.1064
  154MOL0     H21230   5.382   5.423   6.894 -1.0803 -0.2866 -2.0817
  154MOL0     H21231   5.472   5.347   7.021  0.7258  1.0315  0.5486
  154MOL0     H21232   5.362   6.238   7.168  0.2167  0.4616 -1.6429
  154MOL0     H21233   5.152   6.336   7.154  1.7572 -0.5326 -0.8042
  154MOL0     H21234   4.763   6.272   7.421 -1.3802  2.0969  5.1197
  154MOL0     H21235   4.567   6.384   7.529  0.7331 -2.2505 -0.3982
  154MOL0     H21236   3.456   6.049   8.786  0.6700  1.0277  0.1851
  154MOL0     H21237   3.311   6.220   8.894 -0.8954  2.7543 -0.2360
  154MOL0     H21238   2.995   6.432   8.942  1.4482  0.3639  1.0804
  154MOL0     H21239   2.828   6.549   9.091 -0.1690  0.5692  0.2108
  154MOL0     H21240   2.631   6.693   9.127  0.2636  1.6605 -0.9392
  154MOL0     H21241   2.738   6.663   9.262 -0.6422 -1.1944 -1.2900
  154MOL0     H21242   2.700   6.872   9.371  0.6805 -3.0386  0.3312
  154MOL0     H21243   2.544   6.798   9.330 -1.2506 -1.2347 -2.2711
  154MOL0     H21244   2.697   7.045   9.214 -1.0525  1.4622  1.0469
  154MOL0     H21245   2.580   6.968   9.109 -0.8166  0.7770  0.2923
  154MOL0     H21246   2.518   7.074   9.392 -0.6369 -1.3492 -0.3182
  154MOL0     H21247   2.402   7.038   9.262 -0.8560  1.8986 -2.3335
  154MOL0     H21248   2.513   7.432   9.172 -0.5463 -0.3094  0.9273
  154MOL0     H21249   2.998   6.921   9.000  3.8718  0.3767  1.0909
  154MOL0     H21250   3.280   6.857   8.876 -0.3822  0.1419  1.3882
  154MOL0     H21251   3.213   6.807   8.719  1.4440 -0.9595  1.1923
  154MOL0     H21252   3.148   6.940   8.794 -0.0991 -1.2156 -1.9850
  155MOL0     O21253   9.028   5.383   6.697  0.9774  0.4661  0.3287
  155MOL0     C21254   9.018   5.405   6.813 -0.5214 -0.3180 -0.6688
  155MOL0     O21255   9.077   5.328   6.906  0.7886 -0.0406 -0.1268
  155MOL0     C21256   9.195   5.258   6.870 -0.1374 -0.0749 -0.5788
  155MOL0     C21257   9.309   5.329   6.823 -0.4381 -0.1136 -0.4738
  155MOL0     C21258   9.423   5.253   6.790  0.0501 -0.6475 -0.0267
  155MOL0     C21259   9.425   5.112   6.790 -0.1943  0.1158 -0.7807
  155MOL0     O21260   9.525   5.034   6.731 -0.6308 -0.6735 -0.2012
  155MOL0     C21261   9.644   5.108   6.693 -0.5387  1.2732  0.9585
  155MOL0     C21262   9.743   5.006   6.639 -0.3930 -0.0110 -0.0469
  155MOL0     C21263   9.826   5.082   6.532 -0.2032  0.0012  0.2390
  155MOL0     C21264   9.908   4.979   6.453 -0.2198  0.6130  0.3193
  155MOL0     C21265  10.013   5.041   6.358  0.2167 -0.0913  1.4115
  155MOL0     C21266  10.082   4.939   6.269  0.3802  0.5198 -0.0588
  155MOL0     C21267  10.214   4.994   6.213 -0.1358 -0.6959  0.2162
  155MOL0     C21268  10.267   4.878   6.135  0.0219  0.7683  0.2819
  155MOL0     N21269  10.413   4.892   6.105 -0.3048  0.0137 -0.4844
  155MOL0     C21270  10.505   4.897   6.206 -0.2433 -0.3554  0.1479
  155MOL0     C21271  10.625   4.885   6.143  0.4358  0.6188 -0.3908
  155MOL0     C21272  10.759   4.876   6.214 -0.3667 -0.6671  0.3438
  155MOL0     C21273  10.867   4.816   6.122 -0.1845 -0.4573  0.3272
  155MOL0     C21274  11.010   4.847   6.183 -0.1976  0.4176  0.0099
  155MOL0     C21275  11.117   4.783   6.087 -0.1101 -0.1496  0.0047
  155MOL0     O21276  11.247   4.806   6.144  0.2396 -0.2851  0.6834
  155MOL0     C21277  11.348   4.738   6.091  0.8639 -0.7347 -0.7269
  155MOL0     C21278  11.473   4.758   6.158 -0.6163 -0.3306 -0.9376
  155MOL0     C21279  11.596   4.698   6.115  0.2599 -0.3366 -0.0783
  155MOL0     C21280  11.723   4.725   6.193 -0.2039  0.1336  0.1137
  155MOL0     C21281  11.594   4.606   6.007  0.0462  0.1061  0.5302
  155MOL0     C21282  11.708   4.525   5.974 -0.4123  0.1558  0.0436
  155MOL0     O21283  11.793   4.478   6.074 -0.5500 -0.0385 -0.3720
  155MOL0     C21284  11.925   4.437   6.048  0.8817 -0.0836 -0.7001
  155MOL0     C21285  11.997   4.424   6.171  0.3921  0.2714 -0.3549
  155MOL0     C21286  12.137   4.390   6.163  0.1106  0.3303 -0.2558
  155MOL0     C21287  12.199   4.364   6.040 -0.3914 -0.1173  1.1772
  155MOL0     O21288  12.330   4.328   6.015  0.2127 -0.0717 -0.7001
  155MOL0     C21289  12.407   4.294   6.134 -0.5269  0.0762  0.2181
  155MOL0     C21290  12.544   4.232   6.110 -0.1728  0.0340  1.1016
  155MOL0     C21291  12.627   4.326   6.029 -0.9262  0.4002 -0.2341
  155MOL0     C21292  12.772   4.307   6.059  0.0373  0.9398  0.5209
  155MOL0     C21293  12.874   4.377   5.963  0.0880  1.2594 -0.3816
  155MOL0     C21294  13.013   4.341   5.998 -0.2773 -0.3124 -0.3028
  155MOL0     C21295  13.111   4.407   5.898 -0.5130 -0.7614  0.1916
  155MOL0     C21296  13.170   4.541   5.937 -0.2741 -0.3056 -0.7874
  155MOL0    Cl21297  13.286   4.497   6.072 -0.1585  0.0593 -0.1859
  155MOL0     C21298  12.129   4.390   5.922  0.2989 -0.2057 -1.0390
  155MOL0     C21299  11.992   4.414   5.925 -0.9769  0.0949 -0.2624
  155MOL0     O21300  11.715   4.488   5.857 -0.5507  0.1464 -0.2686
  155MOL0     C21301  11.474   4.592   5.937 -0.0330  0.8304 -1.0524
  155MOL0     C21302  11.358   4.661   5.973 -0.9599  0.8472  0.3463
  155MOL0     N21303  10.601   4.889   6.007 -0.7638 -0.0752  0.5477
  155MOL0     N21304  10.472   4.893   5.976 -0.5940  0.9855 -0.4663
  155MOL0     C21305   9.305   5.052   6.830  0.7783  0.1600  0.2802
  155MOL0     C21306   9.192   5.116   6.873  0.4721  0.0465 -0.3189
  155MOL0     C21307   8.921   5.511   6.865 -0.2382 -0.2443 -0.2742
  155MOL0     C21308   8.942   5.635   6.805 -0.4350 -0.2247 -0.2304
  155MOL0     C21309   8.868   5.750   6.857 -0.6210  0.9492 -0.1247
  155MOL0     C21310   8.787   5.736   6.971  0.4989  0.1022  0.5211
  155MOL0     O21311   8.714   5.833   7.029  0.2412 -0.0643 -0.1939
  155MOL0     C21312   8.733   5.971   6.981  0.4611  0.1788  0.8004
  155MOL0     C21313   8.840   6.036   7.057 -1.1948  0.3717 -1.1880
  155MOL0     C21314   8.812   6.043   7.212 -0.1064  0.3754  0.6165
  155MOL0     C21315   8.726   6.166   7.254  0.3240  0.7753  0.3258
  155MOL0     C21316   8.811   6.272   7.301  0.6816  0.3232 -0.5002
  155MOL0     C21317   8.890   6.362   7.330  0.5622  0.5034 -0.8145
  155MOL0     C21318   8.758   5.612   7.019 -0.3734 -0.3664 -0.0997
  155MOL0     C21319   8.828   5.501   6.967 -0.4127  1.0147  0.3906
  155MOL0     C21320   8.815   5.378   7.050  0.2302  0.1362  0.0463
  155MOL0     H21321   9.300   5.436   6.810 -3.2537 -0.1359  0.6064
  155MOL0     H21322   9.507   5.308   6.749  0.1528 -1.8970 -1.6027
  155MOL0     H21323   9.688   5.178   6.764 -0.2342  1.1764  0.8691
  155MOL0     H21324   9.607   5.150   6.599 -2.7464 -0.9830  0.7196
  155MOL0     H21325   9.813   4.971   6.716 -0.8202 -3.2352 -1.0023
  155MOL0     H21326   9.704   4.909   6.608  1.3674 -2.4529  4.3783
  155MOL0     H21327   9.766   5.128   6.452 -0.4254 -2.5995 -1.2150
  155MOL0     H21328   9.888   5.162   6.573 -0.9129  2.4177 -2.9662
  155MOL0     H21329   9.965   4.912   6.518 -1.7494 -0.2926  0.7734
  155MOL0     H21330   9.841   4.922   6.388 -1.1094  0.7727  1.0824
  155MOL0     H21331  10.086   5.090   6.423  1.7317 -0.0158 -0.2682
  155MOL0     H21332   9.964   5.112   6.290 -2.0466 -2.8937 -0.1296
  155MOL0     H21333  10.100   4.854   6.334  2.7003  1.3635  0.5184
  155MOL0     H21334  10.022   4.905   6.184  2.8592 -2.4025 -0.8119
  155MOL0     H21335  10.279   5.017   6.297  2.5802 -3.9661 -0.7794
  155MOL0     H21336  10.201   5.085   6.153 -0.8421 -2.2181 -2.1162
  155MOL0     H21337  10.274   4.780   6.184  4.1369  1.6347  1.8288
  155MOL0     H21338  10.201   4.867   6.048 -2.7689 -1.5525  2.4762
  155MOL0     H21339  10.490   4.897   6.313  1.3031  1.5325  0.4224
  155MOL0     H21340  10.746   4.811   6.301 -2.9808  1.2424  1.5043
  155MOL0     H21341  10.797   4.972   6.248 -0.5901 -0.0933 -0.9692
  155MOL0     H21342  10.863   4.708   6.106 -1.7223 -0.3827  0.0876
  155MOL0     H21343  10.863   4.842   6.016  3.1241 -0.0369  0.1951
  155MOL0     H21344  11.035   4.952   6.196  0.9278  0.0353  1.2142
  155MOL0     H21345  11.024   4.799   6.281  3.3804 -0.7617 -0.9472
  155MOL0     H21346  11.103   4.676   6.071  1.5520 -0.6667  1.6130
  155MOL0     H21347  11.112   4.835   5.991 -4.9542 -0.6888 -0.2749
  155MOL0     H21348  11.472   4.824   6.244  0.1596  0.2920 -1.3877
  155MOL0     H21349  11.815   4.724   6.133  1.1787 -2.9368  2.0376
  155MOL0     H21350  11.734   4.650   6.272  0.9481  0.0528 -0.1008
  155MOL0     H21351  11.727   4.818   6.250 -0.7528  0.7001 -0.7443
  155MOL0     H21352  11.954   4.433   6.271  4.3246 -1.4976  1.7078
  155MOL0     H21353  12.187   4.371   6.258  1.1240  0.7761 -0.6806
  155MOL0     H21354  12.428   4.386   6.190 -0.2822  0.1605 -0.0123
  155MOL0     H21355  12.349   4.224   6.195  0.5822 -0.9821  0.0895
  155MOL0     H21356  12.609   4.217   6.197  1.8478  1.6285 -0.0516
  155MOL0     H21357  12.523   4.138   6.058 -1.4640 -0.2616  2.0977
  155MOL0     H21358  12.597   4.431   6.041  0.5281  0.9863 -1.3341
  155MOL0     H21359  12.617   4.315   5.921 -0.2127 -0.4708 -0.2258
  155MOL0     H21360  12.799   4.201   6.051  3.0073  1.7357 -2.8269
  155MOL0     H21361  12.776   4.343   6.162 -1.1458  5.8756 -0.9014
  155MOL0     H21362  12.853   4.352   5.859  0.1960  0.0894 -0.1315
  155MOL0     H21363  12.852   4.483   5.982 -2.5213  0.6947  0.2542
  155MOL0     H21364  13.017   4.232   5.998 -0.8135 -0.3362 -0.8431
  155MOL0     H21365  13.042   4.378   6.097 -0.8664 -0.6462  0.0037
  155MOL0     H21366  13.067   4.406   5.797  1.2414  0.2708 -0.6420
  155MOL0     H21367  13.197   4.339   5.897 -0.3286 -0.5710  1.7516
  155MOL0     H21368  13.092   4.613   5.961 -1.5714 -1.4167 -1.5092
  155MOL0     H21369  13.241   4.570   5.859  0.4149 -1.7280 -0.7222
  155MOL0     H21370  12.175   4.373   5.825  2.2855  5.2271 -1.4461
  155MOL0     H21371  11.940   4.413   5.830 -0.1394  0.2997 -0.7342
  155MOL0     H21372  11.475   4.530   5.847  1.8236 -1.8747  0.6579
  155MOL0     H21373  11.280   4.650   5.899  1.1781  0.1244 -1.9170
  155MOL0     H21374   9.297   4.944   6.833  0.5173  0.1618 -0.2103
  155MOL0     H21375   9.098   5.066   6.897  1.0028 -0.3005  1.1826
  155MOL0     H21376   9.009   5.638   6.720  2.0275 -1.2666  1.5440
  155MOL0     H21377   8.892   5.839   6.799  0.5042  1.6906  1.4049
  155MOL0     H21378   8.751   5.963   6.874 -2.0270  2.6827  0.0734
  155MOL0     H21379   8.643   6.032   6.992 -0.3384 -0.1626 -2.7277
  155MOL0     H21380   8.866   6.136   7.021  4.1132 -0.9929 -2.0023
  155MOL0     H21381   8.932   5.978   7.037 -0.5913 -0.1875  2.5169
  155MOL0     H21382   8.750   5.956   7.236 -0.0884  0.3473  0.5578
  155MOL0     H21383   8.903   6.060   7.271 -1.4158  1.1312  2.5138
  155MOL0     H21384   8.668   6.135   7.341 -0.7961 -0.2326 -0.7343
  155MOL0     H21385   8.655   6.197   7.176  0.7161  2.1148  0.4779
  155MOL0     H21386   8.948   6.442   7.370 -1.1593  1.6058 -0.4259
  155MOL0     H21387   8.703   5.597   7.111  1.8200  0.8325  1.5023
  155MOL0     H21388   8.883   5.394   7.135 -0.9938  3.2094  0.5939
  155MOL0     H21389   8.710   5.375   7.080  0.1115 -1.3226 -0.4680
  155MOL0     H21390   8.836   5.290   6.989 -3.9684 -1.6754  0.8688
  156MOL0     O21391   2.266   7.042   9.888  0.8201  0.3004  0.0329
  156MOL0     C21392   2.194   6.946   9.856  0.4444  0.2634  0.0494
  156MOL0     O21393   2.072   6.954   9.796 -0.7938 -1.1009 -0.2961
  156MOL0     C21394   2.019   7.085   9.781  0.5048 -0.9784 -0.6819
  156MOL0     C21395   1.982   7.127   9.648 -0.2785 -0.1018 -0.5818
  156MOL0     C21396   1.926   7.258   9.627 -1.1552  1.2136  1.0422
  156MOL0     C21397   1.903   7.336   9.731  0.2656 -0.6559  0.5258
  156MOL0     O21398   1.849   7.464   9.708 -0.2826  0.5649 -0.3319
  156MOL0     C21399   1.951   7.567   9.711 -0.6922 -0.5370 -0.4489
  156MOL0     C21400   1.926   7.649   9.840  0.2025  0.2030  0.2960
  156MOL0     C21401   2.055   7.681   9.899  0.3165 -0.0336 -0.7201
  156MOL0     C21402   2.026   7.768  10.028  0.3664  0.4454 -0.6132
  156MOL0     C21403   2.157   7.831  10.083 -0.2351 -0.2054 -1.1943
  156MOL0     C21404   2.130   7.926  10.193 -0.1993  0.9202 -0.2485
  156MOL0     C21405   2.249   8.012  10.235  0.0808 -0.1439  0.3162
  156MOL0     C21406   2.264   8.146  10.158 -0.8420 -0.0681  0.5211
  156MOL0     N21407   2.390   8.213  10.195  0.4571 -0.1689 -0.1879
  156MOL0     C21408   2.417   8.268  10.316 -0.8147  0.4418  0.2830
  156MOL0     C21409   2.540   8.314  10.300  0.0770 -0.2998  0.3469
  156MOL0     C21410   2.633   8.366  10.404 -0.6553  0.0769 -0.5723
  156MOL0     C21411   2.695   8.251  10.487  0.4130 -0.1483  0.7088
  156MOL0     C21412   2.793   8.305  10.599  0.5674  0.0275  0.3152
  156MOL0     C21413   2.809   8.206  10.707 -0.3895  0.1287  0.2790
  156MOL0     O21414   2.863   8.097  10.643  0.8225 -0.2538  0.4243
  156MOL0     C21415   2.984   8.039  10.685 -0.5713 -0.0657 -0.2358
  156MOL0     C21416   3.039   8.035  10.815  0.0640  0.4294 -0.2332
  156MOL0     C21417   3.156   7.962  10.845 -0.3168  0.8298  0.2173
  156MOL0     C21418   3.211   7.986  10.979 -0.0129 -0.8955  0.9270
  156MOL0     C21419   3.221   7.893  10.745 -0.3984 -0.1903  0.1620
  156MOL0     C21420   3.354   7.830  10.763  0.7196  0.1803 -0.6876
  156MOL0     O21421   3.422   7.793  10.646  0.2147 -0.0171 -0.3777
  156MOL0     C21422   3.553   7.749  10.668  0.3215 -0.7523 -0.0812
  156MOL0     C21423   3.646   7.815  10.746 -0.5707 -0.2761  1.1375
  156MOL0     C21424   3.785   7.764  10.743  0.1907 -0.9196  0.1226
  156MOL0     C21425   3.826   7.651  10.673 -0.9628 -0.0741 -0.0289
  156MOL0     O21426   3.953   7.600  10.667 -0.1996  0.3291 -0.0595
  156MOL0     C21427   4.069   7.688  10.672  0.0723  0.3532  0.1731
  156MOL0     C21428   4.184   7.650  10.582 -0.2792  0.1205  0.0828
  156MOL0     C21429   4.134   7.642  10.438  0.0931  0.1538 -0.1192
  156MOL0     C21430   4.240   7.637  10.334  0.5080  0.6228 -0.2048
  156MOL0     C21431   4.309   7.772  10.303 -0.1529 -0.2835  0.0008
  156MOL0     C21432   4.403   7.763  10.186  0.6153  0.3123 -0.4067
  156MOL0     C21433   4.463   7.894  10.142 -0.9926  0.1254  0.0514
  156MOL0     C21434   4.569   7.866  10.024  0.9623  0.5278 -0.1375
  156MOL0    Cl21435   4.631   8.025   9.963  0.1396  0.1406 -0.1375
  156MOL0     C21436   3.721   7.578  10.614 -0.3278  0.0499  0.4559
  156MOL0     C21437   3.593   7.630  10.602 -0.4824  0.3247 -0.0140
  156MOL0     O21438   3.401   7.818  10.876  0.1001  0.9506 -0.4339
  156MOL0     C21439   3.162   7.886  10.612 -0.5682  0.1880  0.2015
  156MOL0     C21440   3.045   7.956  10.589  0.4854 -0.6188  0.7983
  156MOL0     N21441   2.581   8.294  10.172 -0.4640  0.3480 -0.2742
  156MOL0     N21442   2.494   8.230  10.107 -0.3381 -0.3713 -0.2878
  156MOL0     C21443   1.938   7.294   9.864  0.5329 -0.5941 -0.0770
  156MOL0     C21444   1.992   7.172   9.890 -0.0820 -0.0264 -0.1654
  156MOL0     C21445   2.254   6.809   9.866  0.8028 -0.1737  0.9104
  156MOL0     C21446   2.165   6.696   9.872  0.0232 -0.1379  0.2254
  156MOL0     C21447   2.216   6.563   9.855  0.7751  0.8339 -0.0362
  156MOL0     C21448   2.345   6.537   9.866 -0.3333  0.6590 -0.1513
  156MOL0     O21449   2.370   6.403   9.855  0.2428  0.3916 -0.4935
  156MOL0     C21450   2.507   6.356   9.828 -0.0856 -1.4527  0.5128
  156MOL0     C21451   2.512   6.204   9.860  0.4470  1.1713  0.9610
  156MOL0     C21452   2.501   6.131   9.720  0.4548  0.4411 -0.1646
  156MOL0     C21453   2.488   5.977   9.735 -0.7088  0.1198  0.1895
  156MOL0     C21454   2.613   5.931   9.796 -1.0348  0.0584  0.4160
  156MOL0     C21455   2.720   5.925   9.852 -0.6724 -0.2467  0.0761
  156MOL0     C21456   2.439   6.641   9.873  0.3323 -0.3147  0.5367
  156MOL0     C21457   2.394   6.783   9.882 -0.2533 -0.8917  0.2496
  156MOL0     C21458   2.511   6.880   9.891  1.2146 -0.1028 -0.0822
  156MOL0     H21459   1.997   7.061   9.563 -1.9633 -2.3780  0.8010
  156MOL0     H21460   1.893   7.299   9.533 -0.0594 -1.3000 -0.5332
  156MOL0     H21461   1.949   7.637   9.627  1.8005 -4.1196 -3.8650
  156MOL0     H21462   2.051   7.523   9.707 -0.9324 -1.2227  0.8688
  156MOL0     H21463   1.877   7.745   9.824  0.4414  0.4782  1.1822
  156MOL0     H21464   1.865   7.586   9.905  0.2509  0.5749  0.7033
  156MOL0     H21465   2.126   7.599   9.915  0.8235  0.7430  1.2962
  156MOL0     H21466   2.102   7.753   9.832  3.7740  1.1874  2.6566
  156MOL0     H21467   1.949   7.843  10.007 -1.0155 -1.1918 -1.7725
  156MOL0     H21468   1.990   7.711  10.114 -0.1394  2.6023  0.6717
  156MOL0     H21469   2.207   7.878   9.997  1.8581 -0.9399 -0.4403
  156MOL0     H21470   2.219   7.748  10.116 -0.4657  0.3217  0.6861
  156MOL0     H21471   2.044   7.991  10.175 -2.5005 -0.2124  4.7632
  156MOL0     H21472   2.100   7.868  10.281  0.4993  2.0385  0.7532
  156MOL0     H21473   2.336   7.951  10.211 -0.8187  0.1318 -4.5428
  156MOL0     H21474   2.237   8.039  10.341  1.1329  0.7759  0.2158
  156MOL0     H21475   2.269   8.114  10.054 -1.9366  0.8561  0.1610
  156MOL0     H21476   2.182   8.216  10.176 -2.3888 -0.8661 -2.7128
  156MOL0     H21477   2.369   8.280  10.412  1.3781 -0.5157  1.5879
  156MOL0     H21478   2.571   8.428  10.469 -1.6955 -0.0104 -1.4526
  156MOL0     H21479   2.706   8.430  10.353 -0.4041 -0.9027 -1.4814
  156MOL0     H21480   2.615   8.191  10.530  1.7482 -1.0799  2.0131
  156MOL0     H21481   2.760   8.190  10.424  0.7881 -0.1658  1.1010
  156MOL0     H21482   2.888   8.338  10.555  0.4004 -1.4577 -1.2919
  156MOL0     H21483   2.756   8.393  10.653  1.8341 -0.5812  2.2938
  156MOL0     H21484   2.867   8.243  10.792  0.1504 -0.7454  0.3136
  156MOL0     H21485   2.707   8.188  10.742 -1.3340  2.9456 -0.7531
  156MOL0     H21486   2.977   8.089  10.886 -2.7112 -0.5895 -1.7011
  156MOL0     H21487   3.315   8.020  10.987 -0.6802  1.1823  1.5809
  156MOL0     H21488   3.185   7.906  11.048 -0.9118 -1.2908  0.1548
  156MOL0     H21489   3.165   8.077  11.019 -0.4754 -1.3249  1.3915
  156MOL0     H21490   3.614   7.905  10.798  0.2529  1.6507 -1.4786
  156MOL0     H21491   3.862   7.816  10.799  2.8158 -1.1052 -3.0467
  156MOL0     H21492   4.054   7.796  10.656  0.9470  0.7086  1.5390
  156MOL0     H21493   4.102   7.691  10.776 -0.9912 -2.6538  0.7069
  156MOL0     H21494   4.270   7.714  10.599  1.1099 -1.5270 -0.4342
  156MOL0     H21495   4.221   7.551  10.612  2.0667  1.0080  0.2931
  156MOL0     H21496   4.071   7.729  10.414 -0.9786 -0.7691 -0.7763
  156MOL0     H21497   4.085   7.545  10.428 -0.7299  0.5812 -0.3444
  156MOL0     H21498   4.195   7.595  10.243 -1.5665 -0.4552  1.2369
  156MOL0     H21499   4.318   7.568  10.368  0.8941  1.2002  0.1129
  156MOL0     H21500   4.242   7.857  10.287  1.5480  0.7960 -1.6426
  156MOL0     H21501   4.361   7.804  10.393 -0.9729  1.6774 -0.1824
  156MOL0     H21502   4.350   7.727  10.098  0.1970  0.6750 -0.3055
  156MOL0     H21503   4.479   7.687  10.207  0.3367 -0.3279 -1.6075
  156MOL0     H21504   4.520   7.940  10.224 -0.7123  0.4872 -0.3412
  156MOL0     H21505   4.384   7.961  10.107 -1.8067 -2.1330 -2.7693
  156MOL0     H21506   4.516   7.811   9.946  0.3609 -0.8276  1.1832
  156MOL0     H21507   4.655   7.808  10.056 -0.8057 -2.1538  0.0472
  156MOL0     H21508   3.738   7.481  10.569 -2.2213  0.2455 -0.7890
  156MOL0     H21509   3.510   7.584  10.550 -0.1829  1.1223 -1.2428
  156MOL0     H21510   3.219   7.844  10.530 -0.0077 -0.7050  1.0205
  156MOL0     H21511   3.007   7.962  10.488  1.9377  4.2990  0.2721
  156MOL0     H21512   1.931   7.361   9.949  0.0542 -1.1543  0.3337
  156MOL0     H21513   2.027   7.150   9.990  1.0079  0.1226 -0.4975
  156MOL0     H21514   2.056   6.694   9.865 -0.0787  2.5870  0.0897
  156MOL0     H21515   2.138   6.487   9.852  1.2954  0.3133 -2.4782
  156MOL0     H21516   2.531   6.384   9.725  1.0290 -2.0371  0.6012
  156MOL0     H21517   2.576   6.414   9.890  0.1249  0.8913 -1.6962
  156MOL0     H21518   2.422   6.183   9.919 -0.0212 -0.5016 -0.2724
  156MOL0     H21519   2.596   6.173   9.922 -1.2432 -1.7410  1.9599
  156MOL0     H21520   2.416   6.176   9.667 -0.4365  1.4723  2.0146
  156MOL0     H21521   2.595   6.167   9.679  0.4877  1.1142  0.4752
  156MOL0     H21522   2.457   5.929   9.641 -1.1040 -1.2382  0.9781
  156MOL0     H21523   2.410   5.937   9.801 -0.1118 -1.1714  0.1504
  156MOL0     H21524   2.809   5.927   9.913  1.8911  2.7747 -3.3294
  156MOL0     H21525   2.546   6.625   9.883  0.0020 -2.4964  1.0863
  156MOL0     H21526   2.597   6.836   9.944 -0.2732 -0.2877  2.3306
  156MOL0     H21527   2.534   6.916   9.791 -3.9668 -1.1591 -1.9388
  156MOL0     H21528   2.484   6.969   9.948 -1.9102 -0.6402 -0.5892
  157MOL0     O21529   9.034   6.193   5.615  0.2628  0.1976  0.1587
  157MOL0     C21530   8.982   6.087   5.593  0.6760 -0.9421 -0.3805
  157MOL0     O21531   9.028   5.962   5.645  0.3778 -0.3943  0.5524
  157MOL0     C21532   9.153   5.943   5.699 -0.1914 -0.3402 -0.0081
  157MOL0     C21533   9.170   5.842   5.798  0.8551  0.3597 -0.4043
  157MOL0     C21534   9.291   5.800   5.839 -0.0503  0.0593 -0.3990
  157MOL0     C21535   9.407   5.872   5.802  0.5151  0.1756  0.3930
  157MOL0     O21536   9.526   5.833   5.852 -0.0925 -1.1336 -0.1571
  157MOL0     C21537   9.593   5.932   5.936 -0.5323  0.0418  0.3762
  157MOL0     C21538   9.719   5.989   5.865  0.7175 -0.3932  0.3474
  157MOL0     C21539   9.793   5.883   5.794 -0.5222 -0.5297 -0.1272
  157MOL0     C21540   9.927   5.928   5.753  0.2093  0.0752 -0.7539
  157MOL0     C21541  10.033   5.863   5.844  0.1302 -0.3879 -0.6496
  157MOL0     C21542  10.174   5.917   5.818  0.7054 -0.2983 -0.3582
  157MOL0     C21543  10.269   5.902   5.930 -0.0918 -0.3218 -0.0632
  157MOL0     C21544  10.410   5.972   5.907  0.0187 -0.0350  0.3630
  157MOL0     N21545  10.488   5.960   6.029  0.8242 -0.6334 -0.3135
  157MOL0     C21546  10.574   5.856   6.051  0.1771  0.1852 -0.0273
  157MOL0     C21547  10.631   5.886   6.170 -0.6287 -0.2844  0.0783
  157MOL0     C21548  10.741   5.802   6.239 -0.2620 -0.5259  0.5418
  157MOL0     C21549  10.719   5.652   6.216  1.1601  1.3206  0.3037
  157MOL0     C21550  10.827   5.564   6.287  0.0417 -0.2859  1.2204
  157MOL0     C21551  10.779   5.412   6.297 -0.0646 -0.1961  0.2311
  157MOL0     O21552  10.746   5.339   6.176  0.3188  0.0127 -0.2778
  157MOL0     C21553  10.842   5.273   6.100 -0.1164  0.6398 -0.2445
  157MOL0     C21554  10.987   5.260   6.126  0.2198 -0.5008  0.6521
  157MOL0     C21555  11.065   5.180   6.036 -0.3637  0.4201 -0.3160
  157MOL0     C21556  11.214   5.157   6.093 -0.0246 -0.0823 -0.0411
  157MOL0     C21557  11.015   5.128   5.911  0.1981  0.2434 -0.5823
  157MOL0     C21558  11.093   5.055   5.811  0.0261  0.1039 -0.6929
  157MOL0     O21559  11.230   5.079   5.810 -0.5504 -0.3197  0.0838
  157MOL0     C21560  11.307   5.007   5.719 -0.1671  0.3134  0.2897
  157MOL0     C21561  11.396   4.922   5.779 -0.1868 -0.4475 -0.8053
  157MOL0     C21562  11.491   4.849   5.708 -0.1892  0.2287  0.2142
  157MOL0     C21563  11.487   4.864   5.562  0.9767  1.3073  0.0131
  157MOL0     O21564  11.566   4.784   5.482  0.1552 -0.8783 -0.8670
  157MOL0     C21565  11.613   4.657   5.536 -0.8302 -0.5245  0.6722
  157MOL0     C21566  11.638   4.551   5.429 -0.9575  0.1817  0.7840
  157MOL0     C21567  11.768   4.574   5.349 -0.3568  0.1688 -0.3089
  157MOL0     C21568  11.801   4.441   5.281  0.1313 -0.1047  1.5069
  157MOL0     C21569  11.906   4.455   5.174  0.9529 -1.0753  0.1058
  157MOL0     C21570  11.973   4.315   5.150 -0.0338 -0.6149  0.0682
  157MOL0     C21571  12.066   4.306   5.030 -0.1315  0.6110 -0.3847
  157MOL0     C21572  12.186   4.389   5.014 -0.1236 -0.2129 -0.5290
  157MOL0    Cl21573  12.325   4.305   5.078  0.4173 -0.0833 -0.0853
  157MOL0     C21574  11.387   4.948   5.505 -0.2763  0.7359 -0.2889
  157MOL0     C21575  11.296   5.015   5.579  0.4746 -0.4125  0.3979
  157MOL0     O21576  11.040   4.983   5.726  0.8071  0.9502  0.3863
  157MOL0     C21577  10.876   5.151   5.893  0.7687  0.1800  0.9180
  157MOL0     C21578  10.795   5.214   5.983  0.1223 -0.3326 -0.5934
  157MOL0     N21579  10.580   6.008   6.220  0.4052 -0.5878 -0.0596
  157MOL0     N21580  10.488   6.052   6.134  0.3981  0.1643  0.4788
  157MOL0     C21581   9.392   5.981   5.708 -0.0933  0.9802 -0.5897
  157MOL0     C21582   9.265   5.999   5.643  0.3433 -0.4792  0.0142
  157MOL0     C21583   8.842   6.086   5.539 -0.6868  0.4372  0.5514
  157MOL0     C21584   8.768   5.965   5.560 -0.2363  0.5117  0.3198
  157MOL0     C21585   8.627   5.961   5.540  0.2636 -0.1185 -0.3330
  157MOL0     C21586   8.566   6.081   5.495  0.0189 -0.4225 -0.4671
  157MOL0     O21587   8.435   6.109   5.466 -0.1036  0.4156  0.1805
  157MOL0     C21588   8.331   6.012   5.492  0.0605  0.4237  0.9353
  157MOL0     C21589   8.332   5.890   5.405  0.9085 -0.1482  0.0344
  157MOL0     C21590   8.391   5.907   5.265  0.2289 -0.3579  0.0550
  157MOL0     C21591   8.322   6.032   5.188  0.2526  0.5784  0.5061
  157MOL0     C21592   8.190   5.992   5.136 -1.0377  0.0326  0.2053
  157MOL0     C21593   8.084   5.954   5.102 -0.0457  0.4046  0.2505
  157MOL0     C21594   8.639   6.198   5.474 -0.0202 -0.3414 -0.5949
  157MOL0     C21595   8.778   6.204   5.489 -0.2377  0.6378 -0.1308
  157MOL0     C21596   8.839   6.330   5.447  0.5352  0.9172 -1.3357
  157MOL0     H21597   9.081   5.798   5.843 -0.1992  0.0294 -2.6937
  157MOL0     H21598   9.299   5.723   5.915  0.7995  3.0036  2.7704
  157MOL0     H21599   9.620   5.878   6.027  1.3586 -1.2552 -0.8805
  157MOL0     H21600   9.525   6.013   5.967  0.4914  0.7161  0.9163
  157MOL0     H21601   9.685   6.061   5.790 -2.9560 -1.7914  0.4467
  157MOL0     H21602   9.789   6.040   5.932  2.2517 -2.9785  0.8522
  157MOL0     H21603   9.803   5.794   5.858  1.1311  0.6655  1.3451
  157MOL0     H21604   9.735   5.845   5.709  0.1972  2.0107 -1.8316
  157MOL0     H21605   9.956   5.902   5.651  0.1370  0.2106 -0.8099
  157MOL0     H21606   9.935   6.037   5.750 -0.9216  0.1824 -0.5508
  157MOL0     H21607  10.038   5.755   5.835  0.8695 -0.2114 -2.9930
  157MOL0     H21608  10.026   5.888   5.951  0.9895  0.1517 -0.7151
  157MOL0     H21609  10.218   5.867   5.731  2.9113 -1.8697  1.5515
  157MOL0     H21610  10.156   6.025   5.814 -1.7157 -0.6045  0.5164
  157MOL0     H21611  10.284   5.793   5.936 -0.1641 -0.3848 -0.9678
  157MOL0     H21612  10.224   5.943   6.021  0.1802 -0.4762  0.1450
  157MOL0     H21613  10.454   5.927   5.818 -1.7078  2.0969 -1.6958
  157MOL0     H21614  10.399   6.080   5.888 -0.0296 -0.0966  0.0399
  157MOL0     H21615  10.596   5.774   5.984 -1.6152 -0.0786 -0.3212
  157MOL0     H21616  10.745   5.820   6.346  1.7253  1.0174  0.2602
  157MOL0     H21617  10.840   5.823   6.198 -1.4315  1.4347 -1.5610
  157MOL0     H21618  10.619   5.618   6.246  0.9766 -1.1075 -2.5314
  157MOL0     H21619  10.726   5.632   6.108  0.6155 -0.1093  0.5032
  157MOL0     H21620  10.919   5.571   6.228 -0.1127 -2.6577  0.5899
  157MOL0     H21621  10.844   5.604   6.387 -4.2433  1.7246  1.3523
  157MOL0     H21622  10.863   5.360   6.345 -0.1506 -0.3959  0.1689
  157MOL0     H21623  10.690   5.413   6.361 -0.7159 -2.4469 -0.5389
  157MOL0     H21624  11.031   5.309   6.213  2.0154  0.7298 -0.8805
  157MOL0     H21625  11.232   5.225   6.177  2.4452 -1.4092  0.6098
  157MOL0     H21626  11.283   5.174   6.010  0.6192  0.1446  0.5268
  157MOL0     H21627  11.218   5.053   6.127 -0.8884 -0.1537 -0.1408
  157MOL0     H21628  11.403   4.900   5.885  3.1451  1.0351 -0.5713
  157MOL0     H21629  11.569   4.796   5.762 -0.1814 -0.3640 -0.3633
  157MOL0     H21630  11.710   4.671   5.585 -0.4811  0.1014 -0.1692
  157MOL0     H21631  11.553   4.609   5.614  1.9951 -3.0024  1.4970
  157MOL0     H21632  11.644   4.458   5.485  0.0444  1.7294  3.4090
  157MOL0     H21633  11.558   4.551   5.354 -0.6576  3.1174  0.3459
  157MOL0     H21634  11.846   4.606   5.418 -0.1640 -2.4407  0.8232
  157MOL0     H21635  11.753   4.642   5.265 -0.4262 -1.2913 -1.5378
  157MOL0     H21636  11.715   4.390   5.236 -0.3051  1.1366  0.8871
  157MOL0     H21637  11.850   4.383   5.360 -1.3223  1.2002  3.4681
  157MOL0     H21638  11.854   4.483   5.082 -0.4143 -2.6332  0.3546
  157MOL0     H21639  11.979   4.533   5.196  3.4225 -2.9850 -0.8063
  157MOL0     H21640  11.898   4.235   5.146  0.9659 -1.5341 -2.2522
  157MOL0     H21641  12.029   4.285   5.239  0.5304  2.2604  0.7923
  157MOL0     H21642  12.002   4.342   4.949  0.2652  2.1653 -0.0229
  157MOL0     H21643  12.097   4.204   5.004 -1.2147 -0.4281  2.0891
  157MOL0     H21644  12.175   4.484   5.067  1.0265 -0.4549  0.1711
  157MOL0     H21645  12.207   4.408   4.909  0.8518  3.3729  0.1561
  157MOL0     H21646  11.389   4.977   5.400  0.8760  0.6614 -0.2965
  157MOL0     H21647  11.221   5.081   5.536  2.7451  0.5308 -2.4959
  157MOL0     H21648  10.835   5.115   5.799  0.2029 -1.3227  1.7143
  157MOL0     H21649  10.690   5.215   5.956 -0.3713 -1.6997  1.1094
  157MOL0     H21650   9.482   6.037   5.685 -0.4495  1.8583  0.0885
  157MOL0     H21651   9.260   6.076   5.566 -0.7230  0.3142  0.8532
  157MOL0     H21652   8.818   5.875   5.593 -0.5117 -0.1715 -1.0601
  157MOL0     H21653   8.577   5.871   5.575 -0.7080 -0.1549 -1.7065
  157MOL0     H21654   8.354   5.972   5.591 -2.0122 -2.6405  0.2959
  157MOL0     H21655   8.240   6.071   5.480  0.3972  0.6930 -0.4688
  157MOL0     H21656   8.227   5.858   5.400  0.8504  0.1732 -1.1704
  157MOL0     H21657   8.379   5.813   5.466  3.2041  1.8583  0.9713
  157MOL0     H21658   8.500   5.912   5.271  0.1471  0.2709  1.1674
  157MOL0     H21659   8.374   5.817   5.205  1.2320 -0.8625  0.5176
  157MOL0     H21660   8.389   6.062   5.107  1.0388  0.4624  1.1063
  157MOL0     H21661   8.315   6.119   5.254  1.5452  0.3762  0.9381
  157MOL0     H21662   7.991   5.930   5.054 -0.2897 -2.3789  1.9039
  157MOL0     H21663   8.583   6.288   5.452  1.2409  0.6393  0.0681
  157MOL0     H21664   8.912   6.313   5.367  0.3829  2.2369 -1.7793
  157MOL0     H21665   8.767   6.401   5.403 -0.6098 -0.3344 -1.5427
  157MOL0     H21666   8.897   6.371   5.530  1.7742  1.4575 -2.4280
  158MOL0     O21667   6.175   6.438   5.126  0.4477 -0.4470 -0.1619
  158MOL0     C21668   6.208   6.558   5.135  0.1766 -0.3349  0.0191
  158MOL0     O21669   6.159   6.654   5.228  0.7092  0.0182  0.6432
  158MOL0     C21670   6.051   6.622   5.310 -0.3173 -0.3417 -0.3705
  158MOL0     C21671   5.930   6.568   5.272 -0.4259  0.6441 -0.1177
  158MOL0     C21672   5.814   6.565   5.360 -0.0024  0.6737  0.5600
  158MOL0     C21673   5.833   6.612   5.492  0.3142 -0.0220 -0.2492
  158MOL0     O21674   5.727   6.622   5.584  0.1101 -0.5216  0.1175
  158MOL0     C21675   5.605   6.664   5.527  0.5380  0.5292 -0.3684
  158MOL0     C21676   5.514   6.739   5.624  0.0797 -0.9693  0.9859
  158MOL0     C21677   5.373   6.755   5.579 -0.9182  0.4978  0.9212
  158MOL0     C21678   5.312   6.866   5.657  0.3292 -0.0221  0.7309
  158MOL0     C21679   5.286   6.812   5.801 -0.6101 -1.3243  1.1561
  158MOL0     C21680   5.194   6.902   5.884  0.1308  0.4924  0.4350
  158MOL0     C21681   5.153   6.855   6.026 -0.2983  0.0653  0.1982
  158MOL0     C21682   5.077   6.973   6.090 -0.3350 -0.8766 -0.4490
  158MOL0     N21683   5.164   7.076   6.149  0.2917 -0.1511  0.7339
  158MOL0     C21684   5.227   7.055   6.269  0.0161  0.8737 -0.1745
  158MOL0     C21685   5.292   7.176   6.294 -0.4706 -0.0159 -0.0807
  158MOL0     C21686   5.355   7.216   6.420 -0.0451 -0.4329  0.2563
  158MOL0     C21687   5.423   7.110   6.500 -0.4343  0.8362 -0.3381
  158MOL0     C21688   5.584   7.104   6.481 -0.0091 -0.2891 -0.1544
  158MOL0     C21689   5.654   7.248   6.477 -0.2864  0.0502 -0.4112
  158MOL0     O21690   5.804   7.216   6.489  0.2259 -0.9408  0.0140
  158MOL0     C21691   5.879   7.325   6.527  0.2686 -0.2452 -0.4414
  158MOL0     C21692   6.011   7.293   6.564 -0.1890 -0.0014 -0.4619
  158MOL0     C21693   6.096   7.393   6.606 -0.4154  0.4012  0.1575
  158MOL0     C21694   6.239   7.358   6.644 -0.2587 -0.1819 -0.1256
  158MOL0     C21695   6.061   7.531   6.600  0.3310 -0.3002 -0.0431
  158MOL0     C21696   6.153   7.636   6.637 -1.0207 -0.3829  0.2392
  158MOL0     O21697   6.183   7.720   6.534 -0.3817  0.0181 -0.7863
  158MOL0     C21698   6.293   7.808   6.548  1.0662  0.3517  0.1408
  158MOL0     C21699   6.265   7.942   6.554  0.5598  0.0451 -0.3020
  158MOL0     C21700   6.365   8.036   6.586  0.6084  0.3503  0.9787
  158MOL0     C21701   6.488   7.984   6.611 -0.1557 -0.3639  0.6042
  158MOL0     O21702   6.584   8.072   6.634 -0.3819 -0.0128 -0.2011
  158MOL0     C21703   6.661   8.042   6.747  0.2820  0.1257 -0.5412
  158MOL0     C21704   6.678   8.163   6.841  1.0378 -0.1179  0.0694
  158MOL0     C21705   6.541   8.208   6.919  0.0650  0.3766  0.4115
  158MOL0     C21706   6.561   8.343   6.990 -0.2716 -0.1443  0.4507
  158MOL0     C21707   6.446   8.382   7.085 -0.2573  0.4824 -0.1745
  158MOL0     C21708   6.315   8.416   7.000  0.4028  0.7863  0.1856
  158MOL0     C21709   6.198   8.443   7.081  0.3740 -0.1924 -0.4722
  158MOL0     C21710   6.064   8.446   7.010  0.3567 -0.5981 -0.0713
  158MOL0    Cl21711   6.070   8.567   6.892  0.2821 -0.0783  0.0888
  158MOL0     C21712   6.519   7.851   6.605  0.1175 -0.1392 -0.5843
  158MOL0     C21713   6.419   7.763   6.572 -0.1761 -0.5302  0.6072
  158MOL0     O21714   6.184   7.647   6.753 -0.1105 -0.1195  0.1821
  158MOL0     C21715   5.934   7.563   6.547 -0.2328 -0.4704 -1.0653
  158MOL0     C21716   5.843   7.459   6.518 -0.0780 -0.3552  0.5090
  158MOL0     N21717   5.267   7.263   6.190  0.3451 -0.1886 -0.4567
  158MOL0     N21718   5.180   7.209   6.114 -0.2087  0.6191 -0.0084
  158MOL0     C21719   5.963   6.669   5.535  0.6405 -0.2641  0.1787
  158MOL0     C21720   6.063   6.672   5.445  0.1545  0.4047 -0.0973
  158MOL0     C21721   6.307   6.612   5.029 -0.0797 -0.0195 -0.5503
  158MOL0     C21722   6.312   6.755   5.017  0.0377 -1.1578 -0.0091
  158MOL0     C21723   6.389   6.828   4.922  0.3580  1.0259 -0.5832
  158MOL0     C21724   6.472   6.751   4.839  0.1740  0.0220  0.3170
  158MOL0     O21725   6.573   6.797   4.757 -0.1905 -0.1554 -0.2738
  158MOL0     C21726   6.561   6.928   4.697 -0.3121  0.2480 -0.2360
  158MOL0     C21727   6.672   6.959   4.596 -0.2378  0.0619 -0.4672
  158MOL0     C21728   6.668   6.858   4.486  0.3675  0.8217  0.7749
  158MOL0     C21729   6.772   6.895   4.378 -0.0602  0.7404  0.2704
  158MOL0     C21730   6.739   7.016   4.302  0.9176 -0.0888 -0.9002
  158MOL0     C21731   6.720   7.122   4.250 -0.0984  0.6501  0.9014
  158MOL0     C21732   6.485   6.608   4.865 -0.4470 -0.5029 -0.4371
  158MOL0     C21733   6.396   6.534   4.947 -1.0846 -0.0130 -0.0334
  158MOL0     C21734   6.408   6.384   4.949  0.2339 -0.4544 -0.3578
  158MOL0     H21735   5.910   6.546   5.168 -1.5589  0.3306  0.1501
  158MOL0     H21736   5.718   6.520   5.339 -0.6345  0.7473  3.0108
  158MOL0     H21737   5.556   6.579   5.477  2.6837 -0.6355 -0.6409
  158MOL0     H21738   5.624   6.727   5.440 -0.1794  0.4612 -0.5819
  158MOL0     H21739   5.503   6.684   5.717 -0.3130 -0.4972  1.2263
  158MOL0     H21740   5.556   6.837   5.649  0.1336 -0.3714 -1.2247
  158MOL0     H21741   5.371   6.789   5.475  0.6299  3.6426  1.7940
  158MOL0     H21742   5.324   6.659   5.598 -0.6857 -0.3987 -2.4071
  158MOL0     H21743   5.366   6.961   5.667  0.3324 -0.1089  1.5756
  158MOL0     H21744   5.213   6.884   5.614  0.4491 -2.1357 -0.6048
  158MOL0     H21745   5.383   6.806   5.852 -0.9435 -1.3172  1.8101
  158MOL0     H21746   5.242   6.713   5.795 -0.0270 -1.8287  3.7428
  158MOL0     H21747   5.235   7.003   5.887  0.0850  1.1723 -6.1109
  158MOL0     H21748   5.100   6.904   5.827  0.4494  0.3062 -0.1024
  158MOL0     H21749   5.240   6.829   6.087 -0.3637  0.0536  0.2873
  158MOL0     H21750   5.094   6.764   6.022 -2.5634  1.5001 -0.7289
  158MOL0     H21751   5.022   7.021   6.009  1.5142  0.1975 -1.1370
  158MOL0     H21752   5.009   6.943   6.171 -0.0913 -0.2292  0.0043
  158MOL0     H21753   5.221   6.958   6.317  1.0336 -0.0053 -1.7479
  158MOL0     H21754   5.276   7.256   6.484  0.0617  1.7372 -0.8859
  158MOL0     H21755   5.418   7.296   6.379 -1.8347  0.7344 -0.3043
  158MOL0     H21756   5.399   7.134   6.603  0.0235  0.1324 -0.0607
  158MOL0     H21757   5.405   7.003   6.492  2.6255 -0.0099  2.1952
  158MOL0     H21758   5.629   7.053   6.567  2.2595  0.3890 -0.8755
  158MOL0     H21759   5.608   7.039   6.397 -0.0047 -2.4186  1.3984
  158MOL0     H21760   5.627   7.298   6.383 -1.1573 -0.9061 -0.6832
  158MOL0     H21761   5.620   7.304   6.564 -1.5422  1.4989 -1.7711
  158MOL0     H21762   6.025   7.186   6.570 -1.7933 -0.2553 -0.7292
  158MOL0     H21763   6.255   7.250   6.650  2.0352  0.1223  0.1803
  158MOL0     H21764   6.257   7.397   6.745 -0.7832 -0.4432  0.0744
  158MOL0     H21765   6.308   7.407   6.575 -0.0277  0.2015  0.3696
  158MOL0     H21766   6.163   7.976   6.569  0.5019  0.9562 -2.4616
  158MOL0     H21767   6.342   8.142   6.596  1.3979  0.8445 -1.5658
  158MOL0     H21768   6.605   7.973   6.812  0.1382  1.7451  1.1460
  158MOL0     H21769   6.759   8.007   6.714 -0.2618 -0.6351 -1.3983
  158MOL0     H21770   6.756   8.140   6.914  1.5539  1.8180  0.1834
  158MOL0     H21771   6.714   8.246   6.779  0.8027  1.0558  1.4422
  158MOL0     H21772   6.507   8.139   6.997 -2.6553 -1.4648 -2.1582
  158MOL0     H21773   6.461   8.221   6.846  1.4708 -0.9705 -1.5123
  158MOL0     H21774   6.581   8.421   6.916  1.3269 -0.2763  0.7107
  158MOL0     H21775   6.649   8.348   7.054 -0.3683  0.3326  0.5503
  158MOL0     H21776   6.436   8.302   7.158 -1.5345  0.3921 -0.4266
  158MOL0     H21777   6.469   8.472   7.144 -0.0317 -0.3397  1.0307
  158MOL0     H21778   6.289   8.336   6.929  0.2400  0.2327  0.8630
  158MOL0     H21779   6.335   8.503   6.937  0.2532  1.4816  1.0865
  158MOL0     H21780   6.216   8.532   7.142  1.1286 -2.6174  3.2051
  158MOL0     H21781   6.197   8.360   7.152  0.9565  0.6432  0.5525
  158MOL0     H21782   5.980   8.454   7.079  1.1038  1.3976  0.6943
  158MOL0     H21783   6.047   8.356   6.950 -1.6865 -0.3725  0.1049
  158MOL0     H21784   6.614   7.822   6.648  0.0753  2.2774  1.3502
  158MOL0     H21785   6.432   7.655   6.564  3.7476 -0.0565 -2.6567
  158MOL0     H21786   5.905   7.667   6.537 -2.5212 -1.1629 -2.4066
  158MOL0     H21787   5.749   7.489   6.474  0.5598  1.5023  0.3347
  158MOL0     H21788   5.984   6.703   5.636  0.7950 -0.0038  0.0608
  158MOL0     H21789   6.156   6.716   5.478  0.9055  0.1523 -1.7555
  158MOL0     H21790   6.257   6.821   5.084 -0.6635 -1.3510 -0.3842
  158MOL0     H21791   6.389   6.936   4.918 -1.9072  1.1037  0.2932
  158MOL0     H21792   6.462   6.943   4.654 -1.6457  1.6822  3.0051
  158MOL0     H21793   6.563   7.006   4.773  1.9377 -1.6596  1.8317
  158MOL0     H21794   6.774   6.966   4.636  0.9150 -3.0018 -2.4532
  158MOL0     H21795   6.632   7.055   4.563 -4.5148 -1.2408  0.3993
  158MOL0     H21796   6.692   6.758   4.523 -0.3766 -0.1822 -1.2803
  158MOL0     H21797   6.569   6.854   4.440  0.7109  0.9675  0.0121
  158MOL0     H21798   6.775   6.814   4.304 -0.1162 -0.0542  1.1271
  158MOL0     H21799   6.870   6.916   4.423 -1.0439  3.5351  1.2570
  158MOL0     H21800   6.695   7.212   4.197  0.3569 -0.5928 -1.5651
  158MOL0     H21801   6.558   6.552   4.807  2.7284  2.9658 -0.2203
  158MOL0     H21802   6.429   6.354   5.052 -1.3091 -2.0479 -0.4789
  158MOL0     H21803   6.313   6.340   4.918  0.2748  0.6786 -2.2328
  158MOL0     H21804   6.490   6.350   4.885  0.5371  0.1339 -0.2915
  159MOL0     O21805   5.528   4.549   0.854 -0.4284 -0.6199  0.3446
  159MOL0     C21806   5.587   4.567   0.959 -0.7224  0.1492  0.7314
  159MOL0     O21807   5.704   4.495   0.999 -0.3706 -0.2822  0.0150
  159MOL0     C21808   5.752   4.405   0.902  0.4951  0.5107 -0.8289
  159MOL0     C21809   5.783   4.277   0.943 -0.5900  0.2491 -0.7729
  159MOL0     C21810   5.836   4.187   0.856  0.1194  0.5136  0.6218
  159MOL0     C21811   5.876   4.229   0.724  1.2621 -0.1791 -0.0322
  159MOL0     O21812   5.940   4.156   0.632 -0.5847 -0.3427 -0.2002
  159MOL0     C21813   5.927   4.014   0.643  0.0772  0.1017  0.6226
  159MOL0     C21814   5.984   3.940   0.526  0.7553 -0.4809  0.0223
  159MOL0     C21815   6.125   4.000   0.486 -0.0063 -0.2786  0.4095
  159MOL0     C21816   6.174   3.947   0.347 -0.5547  0.3284 -0.4566
  159MOL0     C21817   6.316   3.997   0.335 -0.3784 -0.3544 -0.2837
  159MOL0     C21818   6.336   4.143   0.289 -0.3653  0.1740 -0.7114
  159MOL0     C21819   6.278   4.155   0.144 -0.3670 -0.7835  0.3975
  159MOL0     C21820   6.357   4.075   0.029 -0.0952 -0.1621  0.6403
  159MOL0     N21821   6.339   4.151  -0.099 -0.4835  0.5208  0.2279
  159MOL0     C21822   6.429   4.209  -0.190 -0.1641  0.4211 -0.4343
  159MOL0     C21823   6.360   4.261  -0.291  0.0002 -0.0304  0.5059
  159MOL0     C21824   6.410   4.330  -0.408 -0.1509 -0.3232  1.2120
  159MOL0     C21825   6.294   4.340  -0.510 -0.3094  0.3131  0.5640
  159MOL0     C21826   6.280   4.208  -0.599 -0.0941  0.1308  0.5315
  159MOL0     C21827   6.192   4.109  -0.541 -0.3761  1.4701  0.4191
  159MOL0     O21828   6.054   4.150  -0.534  0.1683  0.2621  0.1819
  159MOL0     C21829   5.970   4.085  -0.614  0.4842  0.4650  0.4240
  159MOL0     C21830   5.830   4.103  -0.588 -0.2555 -0.4800 -0.2084
  159MOL0     C21831   5.726   4.053  -0.655  0.1317 -0.1971  0.2579
  159MOL0     C21832   5.590   4.080  -0.607  0.2830 -0.3837  0.0603
  159MOL0     C21833   5.764   3.983  -0.775  0.9890 -0.1264  0.4956
  159MOL0     C21834   5.657   3.927  -0.867 -0.2136 -0.5546  0.2023
  159MOL0     O21835   5.714   3.883  -0.990  0.2248  0.2845  0.1355
  159MOL0     C21836   5.628   3.853  -1.093 -0.3511  0.0781 -0.0799
  159MOL0     C21837   5.590   3.716  -1.102 -0.4906 -0.6978  0.0751
  159MOL0     C21838   5.516   3.677  -1.219 -0.1314  0.5782  0.6680
  159MOL0     C21839   5.484   3.765  -1.322 -0.2149 -0.1787  0.2068
  159MOL0     O21840   5.432   3.724  -1.438  0.7890  0.0141  0.6872
  159MOL0     C21841   5.479   3.791  -1.565 -0.0109 -0.2547 -0.8734
  159MOL0     C21842   5.624   3.760  -1.584 -0.0618  0.5183 -0.2040
  159MOL0     C21843   5.679   3.791  -1.713 -0.0058  0.2466  0.0302
  159MOL0     C21844   5.814   3.727  -1.726  0.2020 -0.3899 -0.6398
  159MOL0     C21845   5.860   3.754  -1.875  0.6615  0.6636 -0.1319
  159MOL0     C21846   5.999   3.684  -1.887  0.1711 -0.8469  0.0635
  159MOL0     C21847   5.990   3.536  -1.948 -0.0991 -0.0003 -0.1109
  159MOL0     C21848   5.927   3.510  -2.083  0.4083 -0.0630  0.0371
  159MOL0    Cl21849   5.995   3.362  -2.156 -0.1901 -0.4510  0.5874
  159MOL0     C21850   5.516   3.901  -1.299  0.0387  1.5931  0.1468
  159MOL0     C21851   5.577   3.943  -1.180 -0.0513 -0.5999  0.3333
  159MOL0     O21852   5.545   3.920  -0.831  0.1159  0.4040 -0.2690
  159MOL0     C21853   5.900   3.956  -0.809 -0.0658  0.7027 -0.2485
  159MOL0     C21854   6.005   4.002  -0.733 -0.5900 -0.7753  0.6723
  159MOL0     N21855   6.225   4.260  -0.248 -0.3041 -0.6387 -0.1100
  159MOL0     N21856   6.218   4.206  -0.140 -0.3679  0.4573  0.7287
  159MOL0     C21857   5.831   4.357   0.678 -0.4023  0.3161  0.2253
  159MOL0     C21858   5.778   4.441   0.774 -0.3618 -0.8798  0.1329
  159MOL0     C21859   5.512   4.631   1.076 -0.2654 -0.8644  0.1321
  159MOL0     C21860   5.550   4.606   1.213 -0.1323 -0.0499  0.1155
  159MOL0     C21861   5.483   4.663   1.326 -0.3673 -1.0675  0.6475
  159MOL0     C21862   5.367   4.745   1.298 -0.8599  0.1399 -0.4429
  159MOL0     O21863   5.296   4.801   1.405  0.5327  0.1444 -0.7304
  159MOL0     C21864   5.174   4.869   1.376 -0.5064  0.6474 -0.2825
  159MOL0     C21865   5.097   4.922   1.499  0.2092 -0.5594  0.2384
  159MOL0     C21866   4.940   4.962   1.463 -0.3828  0.5270 -0.2982
  159MOL0     C21867   4.845   5.008   1.574 -0.8426  0.1332  0.5853
  159MOL0     C21868   4.823   4.911   1.679  0.3797  0.4542 -0.5907
  159MOL0     C21869   4.817   4.818   1.759 -0.3501  0.5213  0.6451
  159MOL0     C21870   5.314   4.749   1.165 -0.6736  0.6891 -0.2852
  159MOL0     C21871   5.386   4.699   1.058  0.5573 -0.1298  0.0825
  159MOL0     C21872   5.307   4.722   0.933 -0.0299 -0.7012 -0.2140
  159MOL0     H21873   5.776   4.258   1.050  2.1218  1.7019 -0.2385
  159MOL0     H21874   5.855   4.087   0.894  2.0417  1.2172  1.6279
  159MOL0     H21875   5.823   3.987   0.661  0.2434 -0.6709  0.4598
  159MOL0     H21876   5.991   3.993   0.729  0.9107  3.8874  1.0934
  159MOL0     H21877   6.002   3.835   0.549  2.3693 -0.1913  0.2364
  159MOL0     H21878   5.919   3.948   0.439 -1.4393  0.3508  1.6715
  159MOL0     H21879   6.109   4.107   0.466 -2.9616 -1.0165 -2.1036
  159MOL0     H21880   6.205   3.990   0.559  1.8303  1.5431 -1.2241
  159MOL0     H21881   6.179   3.838   0.342  1.6492  0.4060 -0.9547
  159MOL0     H21882   6.099   3.974   0.273 -2.8473 -0.8065  1.3408
  159MOL0     H21883   6.359   3.939   0.252  0.3288  0.7943 -0.7345
  159MOL0     H21884   6.384   3.979   0.418  0.7250  1.0730 -0.8520
  159MOL0     H21885   6.285   4.215   0.354 -1.8554  0.2965 -1.9435
  159MOL0     H21886   6.440   4.174   0.281 -0.8300  1.6365 -1.4618
  159MOL0     H21887   6.286   4.264   0.140 -0.6815 -0.6255  2.8318
  159MOL0     H21888   6.171   4.129   0.139 -1.1226  2.1799 -2.3021
  159MOL0     H21889   6.465   4.066   0.046 -0.0756 -1.4920 -0.0855
  159MOL0     H21890   6.325   3.972   0.018  0.3129 -0.3773  1.3421
  159MOL0     H21891   6.538   4.214  -0.187  0.1147 -0.9510 -3.9126
  159MOL0     H21892   6.490   4.289  -0.471 -0.4364  0.5168  0.2819
  159MOL0     H21893   6.440   4.431  -0.379  1.2818 -0.0832 -0.9000
  159MOL0     H21894   6.193   4.368  -0.479  0.0326  0.7266  1.3365
  159MOL0     H21895   6.324   4.429  -0.567  1.3361 -1.0453 -0.8189
  159MOL0     H21896   6.240   4.228  -0.699  2.1109 -2.9067 -1.1057
  159MOL0     H21897   6.383   4.172  -0.614 -0.9546 -1.5171 -2.2318
  159MOL0     H21898   6.203   4.015  -0.597 -5.2175  0.0397  1.4324
  159MOL0     H21899   6.219   4.075  -0.440 -1.6838  3.2824  1.4239
  159MOL0     H21900   5.808   4.180  -0.515 -2.7576 -2.2814  1.1061
  159MOL0     H21901   5.536   4.156  -0.664  0.4954  1.0339  1.6666
  159MOL0     H21902   5.594   4.124  -0.507 -1.8458  0.9985 -0.3953
  159MOL0     H21903   5.526   3.992  -0.598  0.8596 -1.0504 -1.8639
  159MOL0     H21904   5.629   3.652  -1.024 -3.1955  0.0717  2.2177
  159MOL0     H21905   5.505   3.571  -1.239  2.7745  0.6409 -2.1601
  159MOL0     H21906   5.423   3.743  -1.646 -1.0270 -1.4856  0.4856
  159MOL0     H21907   5.459   3.898  -1.574 -1.8876 -0.4422  0.4425
  159MOL0     H21908   5.691   3.825  -1.528  1.0369 -0.6453 -0.1332
  159MOL0     H21909   5.642   3.656  -1.558  0.8902  0.1448 -2.1963
  159MOL0     H21910   5.690   3.900  -1.720 -0.1823  0.2857  0.3385
  159MOL0     H21911   5.617   3.760  -1.798 -0.1245  0.3264  0.0863
  159MOL0     H21912   5.806   3.621  -1.700 -0.7137 -0.2880 -0.4917
  159MOL0     H21913   5.880   3.778  -1.655 -1.1679  5.2746 -2.8856
  159MOL0     H21914   5.790   3.722  -1.953 -1.5313  1.2928  1.4801
  159MOL0     H21915   5.861   3.862  -1.891 -2.4178  0.8002  0.1172
  159MOL0     H21916   6.060   3.689  -1.796 -1.8441  1.3991  1.3996
  159MOL0     H21917   6.055   3.745  -1.958 -0.3172 -2.4986 -1.8357
  159MOL0     H21918   5.940   3.468  -1.878  3.4894 -3.3348 -0.4720
  159MOL0     H21919   6.090   3.492  -1.939 -0.5158 -0.9078  0.1866
  159MOL0     H21920   5.938   3.595  -2.151 -1.4928  0.0904 -0.1529
  159MOL0     H21921   5.820   3.484  -2.087  0.6472 -0.9897 -0.8304
  159MOL0     H21922   5.489   3.974  -1.375 -2.4826 -0.1194 -0.7443
  159MOL0     H21923   5.592   4.050  -1.167  1.6069 -0.3755 -2.5963
  159MOL0     H21924   5.921   3.907  -0.903 -2.1582 -1.1687  0.1653
  159MOL0     H21925   6.104   3.992  -0.774 -0.2989  2.0101  0.4817
  159MOL0     H21926   5.864   4.394   0.581  0.4063 -2.1688 -0.5279
  159MOL0     H21927   5.757   4.542   0.741 -0.4719 -1.0572 -0.3373
  159MOL0     H21928   5.631   4.536   1.233 -0.1576  0.1074  0.8202
  159MOL0     H21929   5.526   4.669   1.426  1.0058 -0.5086  0.0642
  159MOL0     H21930   5.187   4.953   1.307  0.0923 -0.0201 -1.0065
  159MOL0     H21931   5.108   4.807   1.313  1.6225  0.7018 -2.7446
  159MOL0     H21932   5.157   5.005   1.537 -1.2959 -0.5700  2.9188
  159MOL0     H21933   5.102   4.841   1.573 -3.0912 -2.6590 -1.5844
  159MOL0     H21934   4.951   5.039   1.386 -0.1718  0.3727 -0.4234
  159MOL0     H21935   4.901   4.873   1.413  0.2864 -1.5617  2.6184
  159MOL0     H21936   4.749   5.043   1.536 -2.0614 -1.2312  2.2407
  159MOL0     H21937   4.889   5.089   1.633 -2.5051  1.7401 -0.2763
  159MOL0     H21938   4.799   4.739   1.829 -1.2115  3.5108  4.1005
  159MOL0     H21939   5.224   4.806   1.143 -1.1285 -0.6531 -2.2248
  159MOL0     H21940   5.310   4.627   0.877  0.7896 -1.3377  0.8651
  159MOL0     H21941   5.204   4.758   0.937  0.2697  0.0528  0.9245
  159MOL0     H21942   5.363   4.795   0.873 -0.1960 -2.1601 -2.2883
  160MOL0     O21943   1.189   6.942   5.628  0.3706  0.6797  0.4395
  160MOL0     C21944   1.238   6.881   5.721  0.5283  0.0112 -0.7611
  160MOL0     O21945   1.184   6.792   5.797  0.9200  0.5483  1.0264
  160MOL0     C21946   1.079   6.720   5.740 -0.8787  0.1071  0.3291
  160MOL0     C21947   0.952   6.747   5.748  1.1191 -0.0532 -0.3962
  160MOL0     C21948   0.848   6.668   5.678 -0.5926 -0.2498 -0.3143
  160MOL0     C21949   0.889   6.548   5.624  0.7975 -0.4627 -0.3749
  160MOL0     O21950   0.810   6.450   5.571  0.9826 -0.2619  0.0853
  160MOL0     C21951   0.720   6.382   5.663  0.4235  0.8355 -0.0932
  160MOL0     C21952   0.692   6.246   5.604 -0.3218  0.0491  0.3047
  160MOL0     C21953   0.807   6.151   5.573 -0.0076 -0.3323  0.2993
  160MOL0     C21954   0.925   6.160   5.666 -0.4405  0.3344 -0.6319
  160MOL0     C21955   1.037   6.061   5.634 -0.5208 -0.4274  0.6193
  160MOL0     C21956   1.092   6.096   5.482 -0.2178  0.3210 -0.3884
  160MOL0     C21957   1.180   5.990   5.428 -0.0561  0.1714  0.0004
  160MOL0     C21958   1.316   5.977   5.498 -0.2311 -0.2914 -0.0011
  160MOL0     N21959   1.381   6.103   5.460  0.5330  0.2126 -0.4559
  160MOL0     C21960   1.415   6.127   5.331 -0.0867  0.3793 -0.4109
  160MOL0     C21961   1.453   6.261   5.344 -0.8525 -1.4811  0.0101
  160MOL0     C21962   1.494   6.352   5.227 -0.0852  0.1125  0.2513
  160MOL0     C21963   1.630   6.421   5.246  0.5366 -0.7038  0.4791
  160MOL0     C21964   1.680   6.509   5.127 -0.6577  1.0260 -0.2836
  160MOL0     C21965   1.788   6.601   5.170 -0.0714 -0.2838  0.8011
  160MOL0     O21966   1.883   6.525   5.240  0.1752  0.3614 -0.2196
  160MOL0     C21967   2.011   6.568   5.242  0.3207 -0.1000  0.5622
  160MOL0     C21968   2.115   6.476   5.272  0.0458  0.3813 -0.3246
  160MOL0     C21969   2.252   6.497   5.273  0.1908 -0.3011 -0.5217
  160MOL0     C21970   2.343   6.375   5.289  0.6509  0.1433 -0.2551
  160MOL0     C21971   2.296   6.630   5.250  0.1322 -0.3608  0.6012
  160MOL0     C21972   2.438   6.677   5.240  0.1580 -0.6386 -0.5483
  160MOL0     O21973   2.456   6.810   5.229 -0.1059  0.2820 -0.5763
  160MOL0     C21974   2.579   6.845   5.193  0.5056 -0.7113  0.0074
  160MOL0     C21975   2.655   6.883   5.299 -0.5886 -0.7288  0.1357
  160MOL0     C21976   2.786   6.929   5.277  0.4133  0.0678  0.8226
  160MOL0     C21977   2.853   6.921   5.151  0.3572  0.4317 -0.7521
  160MOL0     O21978   2.985   6.928   5.133 -0.1508 -0.0323 -0.5560
  160MOL0     C21979   3.072   6.913   5.241 -0.5051  0.3151  0.2543
  160MOL0     C21980   3.092   6.760   5.280 -1.0068 -0.6201 -0.7430
  160MOL0     C21981   3.159   6.664   5.174  0.1314 -0.3926  0.3302
  160MOL0     C21982   3.294   6.621   5.222 -0.5474  0.5132  0.0699
  160MOL0     C21983   3.371   6.506   5.153  0.5259 -0.3577  0.4494
  160MOL0     C21984   3.515   6.480   5.202 -0.0646  0.9998 -0.3625
  160MOL0     C21985   3.615   6.582   5.138  0.1499  0.0675 -0.8421
  160MOL0     C21986   3.761   6.536   5.194  0.3013  0.0510  0.5427
  160MOL0    Cl21987   3.895   6.651   5.169 -0.3822  0.3609 -0.0356
  160MOL0     C21988   2.781   6.862   5.045  0.8577 -0.0510  0.2901
  160MOL0     C21989   2.643   6.825   5.065  0.2635 -0.1734 -0.4455
  160MOL0     O21990   2.521   6.597   5.218  0.1707  0.6040 -0.0285
  160MOL0     C21991   2.202   6.733   5.234  0.3242 -0.3985 -0.6899
  160MOL0     C21992   2.059   6.704   5.236  0.0348  0.5249  0.4943
  160MOL0     N21993   1.448   6.301   5.476  0.1158 -0.6145 -0.2175
  160MOL0     N21994   1.393   6.209   5.541 -0.0450  0.2621 -0.7246
  160MOL0     C21995   1.026   6.520   5.623  0.6923  0.0855 -0.0829
  160MOL0     C21996   1.124   6.610   5.676  0.6193  0.2036  0.5065
  160MOL0     C21997   1.381   6.920   5.767 -0.0202  0.0996 -0.1063
  160MOL0     C21998   1.443   6.838   5.871  0.0265  0.9183 -0.3901
  160MOL0     C21999   1.564   6.873   5.927 -0.0025 -0.4496  0.2359
  160MOL0     C22000   1.640   6.974   5.866  0.4711 -0.6454 -0.2847
  160MOL0     O22001   1.758   6.994   5.941  0.0386 -0.6333 -0.4851
  160MOL0     C22002   1.871   7.055   5.867 -0.1642  0.3757 -0.0880
  160MOL0     C22003   1.994   7.077   5.953  0.0991  0.4834 -1.0552
  160MOL0     C22004   2.049   6.945   6.017  0.4205 -0.3558  0.4968
  160MOL0     C22005   2.175   6.965   6.095  0.4384 -0.8546  0.7872
  160MOL0     C22006   2.155   7.053   6.203  0.8007  0.1996  0.4036
  160MOL0     C22007   2.134   7.131   6.293 -0.2355  1.1179 -0.2148
  160MOL0     C22008   1.590   7.049   5.766 -0.0741  0.5403  0.7890
  160MOL0     C22009   1.461   7.023   5.713  0.2459 -0.7569  0.2578
  160MOL0     C22010   1.416   7.129   5.603  0.4202  0.6466 -0.9837
  160MOL0     H22011   0.906   6.831   5.799 -1.1581 -2.6915  2.3733
  160MOL0     H22012   0.746   6.705   5.685 -0.3906  0.0030  3.3226
  160MOL0     H22013   0.625   6.436   5.673  1.2181  1.8731  3.0720
  160MOL0     H22014   0.776   6.377   5.757  0.8593  0.4377 -0.3708
  160MOL0     H22015   0.622   6.202   5.676  1.6008 -0.3302  2.0587
  160MOL0     H22016   0.646   6.273   5.509 -0.0624 -0.7622 -0.0535
  160MOL0     H22017   0.769   6.049   5.560  0.4201 -0.8419  2.6124
  160MOL0     H22018   0.835   6.179   5.471 -0.7848  1.5444  0.5648
  160MOL0     H22019   0.970   6.259   5.674 -0.9557  0.4773  0.8778
  160MOL0     H22020   0.883   6.134   5.764 -1.5086 -2.2268 -1.6925
  160MOL0     H22021   0.995   5.961   5.624  0.1742 -0.6243 -0.4850
  160MOL0     H22022   1.121   6.061   5.704  0.0829 -1.1479 -0.0997
  160MOL0     H22023   1.009   6.100   5.411 -0.3401  0.3689 -0.2426
  160MOL0     H22024   1.131   6.198   5.484  1.4878 -0.3069  0.3491
  160MOL0     H22025   1.195   5.997   5.320 -1.0397  0.3563 -0.1365
  160MOL0     H22026   1.141   5.889   5.439  3.1790 -1.4646 -2.0532
  160MOL0     H22027   1.300   5.975   5.606 -1.0376  0.5624 -0.0942
  160MOL0     H22028   1.377   5.891   5.467  1.7576  1.6305 -1.7618
  160MOL0     H22029   1.411   6.063   5.244 -0.7622 -0.8044  0.4698
  160MOL0     H22030   1.426   6.435   5.211  1.5355  1.1908 -1.5832
  160MOL0     H22031   1.495   6.303   5.129 -2.4433  3.0755 -1.4176
  160MOL0     H22032   1.620   6.478   5.339  3.6440  1.5694 -0.4211
  160MOL0     H22033   1.703   6.342   5.265  0.1117 -0.9233  1.2712
  160MOL0     H22034   1.709   6.442   5.046  2.3911 -0.4309  1.8198
  160MOL0     H22035   1.605   6.572   5.078 -0.5421  1.1523 -0.2988
  160MOL0     H22036   1.822   6.646   5.077 -0.8097 -0.3319  0.4944
  160MOL0     H22037   1.743   6.681   5.230 -2.9224 -0.0644 -1.3892
  160MOL0     H22038   2.089   6.372   5.288 -1.5755  0.5387 -1.7007
  160MOL0     H22039   2.287   6.289   5.250 -0.5902  0.8384 -0.0577
  160MOL0     H22040   2.353   6.359   5.397  1.7833 -0.5804 -0.4579
  160MOL0     H22041   2.442   6.375   5.244  0.6111  1.0427 -0.3466
  160MOL0     H22042   2.623   6.882   5.403  2.4176 -2.1879  1.1588
  160MOL0     H22043   2.835   6.973   5.363 -0.9298  4.4276 -0.3795
  160MOL0     H22044   3.175   6.929   5.206 -0.4509 -1.4259 -0.4654
  160MOL0     H22045   3.038   6.981   5.320 -4.0813 -0.4855 -0.4591
  160MOL0     H22046   3.147   6.762   5.374 -3.3832  2.7245  0.7728
  160MOL0     H22047   2.992   6.728   5.307 -1.5176 -1.2724 -3.1395
  160MOL0     H22048   3.171   6.714   5.077 -0.4690  2.0140  1.4077
  160MOL0     H22049   3.095   6.579   5.152  2.0729 -1.0236 -3.7619
  160MOL0     H22050   3.292   6.591   5.327 -0.5124 -0.8630 -0.3079
  160MOL0     H22051   3.355   6.712   5.216  4.8568 -2.7259 -1.8991
  160MOL0     H22052   3.315   6.412   5.155 -0.4308  0.1194 -1.6237
  160MOL0     H22053   3.381   6.527   5.046 -0.6515 -2.1164 -0.0517
  160MOL0     H22054   3.550   6.379   5.180  3.7897  1.8410  1.1306
  160MOL0     H22055   3.517   6.485   5.311  2.6014 -0.7284 -0.2384
  160MOL0     H22056   3.583   6.680   5.177 -1.4971  0.4210 -2.9096
  160MOL0     H22057   3.607   6.579   5.029  0.2717 -0.2045 -0.8420
  160MOL0     H22058   3.782   6.452   5.128  1.4519  0.9186 -0.2411
  160MOL0     H22059   3.756   6.525   5.303  0.3631  4.3777  1.1577
  160MOL0     H22060   2.833   6.847   4.951 -1.2362  0.0729 -0.9530
  160MOL0     H22061   2.571   6.800   4.987 -0.3767 -1.5160  0.5345
  160MOL0     H22062   2.237   6.834   5.215 -0.2204 -0.1268 -0.2998
  160MOL0     H22063   1.977   6.775   5.243 -2.2253 -1.9555  0.9013
  160MOL0     H22064   1.079   6.430   5.593  0.6236  0.0045  0.0346
  160MOL0     H22065   1.228   6.583   5.659  0.7161  0.0789  1.2873
  160MOL0     H22066   1.383   6.760   5.917  0.8775 -0.2226 -1.1580
  160MOL0     H22067   1.605   6.818   6.011  0.2398  0.7546  0.9197
  160MOL0     H22068   1.890   6.987   5.784  0.3264 -0.8345  0.9763
  160MOL0     H22069   1.848   7.156   5.832  0.4372  0.8593  0.8518
  160MOL0     H22070   1.967   7.144   6.036 -1.6722  0.9958 -1.9730
  160MOL0     H22071   2.062   7.139   5.894 -1.2392  1.4248 -1.6786
  160MOL0     H22072   1.971   6.886   6.065  1.3064 -1.4989  0.5789
  160MOL0     H22073   2.097   6.887   5.937  0.5086  0.2372  0.1141
  160MOL0     H22074   2.255   7.003   6.032  0.5777 -2.2961  0.0430
  160MOL0     H22075   2.212   6.872   6.140  2.2720 -0.7753 -0.4750
  160MOL0     H22076   2.104   7.213   6.356  0.7054 -0.7222  2.8564
  160MOL0     H22077   1.647   7.133   5.729  1.7373 -0.2669  1.6572
  160MOL0     H22078   1.420   7.089   5.501 -0.1835  0.5667 -0.9787
  160MOL0     H22079   1.310   7.152   5.619  0.8305  0.4624  2.9747
  160MOL0     H22080   1.453   7.230   5.620 -0.5277  0.8359  0.0828
  161MOL0     O22081   7.560   1.243   3.157 -0.0840  0.8860  0.5353
  161MOL0     C22082   7.466   1.226   3.230 -0.5332 -0.2621  0.4901
  161MOL0     O22083   7.470   1.221   3.367 -0.5924  0.0942  0.0894
  161MOL0     C22084   7.594   1.199   3.432  0.6825 -0.0500  1.4280
  161MOL0     C22085   7.642   1.073   3.453 -0.2748  0.6950 -0.6018
  161MOL0     C22086   7.771   1.053   3.491  0.0863 -0.3681 -0.0934
  161MOL0     C22087   7.862   1.161   3.498 -1.0634 -0.0938  0.3118
  161MOL0     O22088   7.998   1.148   3.527 -0.2921 -0.0968  0.0201
  161MOL0     C22089   8.019   1.046   3.626 -0.3309  0.3758 -0.8248
  161MOL0     C22090   8.154   1.049   3.695 -0.0594 -0.3456 -0.2291
  161MOL0     C22091   8.171   1.173   3.779 -1.0011 -0.8922  0.0754
  161MOL0     C22092   8.321   1.192   3.809  0.5522  0.8332 -1.0527
  161MOL0     C22093   8.344   1.324   3.877  0.5696 -1.2851  0.1980
  161MOL0     C22094   8.502   1.351   3.878 -0.1052  0.5536  0.4515
  161MOL0     C22095   8.549   1.492   3.899 -0.1176  0.4722 -0.2135
  161MOL0     C22096   8.696   1.512   3.845 -0.4295  0.2767  0.5008
  161MOL0     N22097   8.736   1.659   3.850  0.2400  0.4030  1.1421
  161MOL0     C22098   8.797   1.713   3.741 -1.0004  0.9848 -0.6771
  161MOL0     C22099   8.823   1.836   3.770 -0.0096 -0.0320 -1.1424
  161MOL0     C22100   8.867   1.954   3.682  0.4164  0.4106 -0.6190
  161MOL0     C22101   9.005   1.930   3.614 -0.3157  0.6227 -0.2951
  161MOL0     C22102   9.005   1.841   3.484 -0.4398 -0.6474 -0.4982
  161MOL0     C22103   9.144   1.829   3.423  0.5603 -0.2423 -0.3247
  161MOL0     O22104   9.137   1.739   3.307 -0.1347  0.2719 -0.4562
  161MOL0     C22105   9.240   1.760   3.225 -0.6363  0.0567  0.7900
  161MOL0     C22106   9.361   1.828   3.258  0.4112  0.5068 -0.1276
  161MOL0     C22107   9.456   1.872   3.156  0.5560 -0.8670 -0.1270
  161MOL0     C22108   9.587   1.947   3.196  0.6699 -0.1699  0.2303
  161MOL0     C22109   9.412   1.845   3.025 -0.0702 -0.1440  0.3845
  161MOL0     C22110   9.493   1.894   2.910  0.5480  0.5185  0.1506
  161MOL0     O22111   9.624   1.900   2.922  0.1718 -1.0065  0.1995
  161MOL0     C22112   9.703   1.953   2.822  0.3346 -0.5409 -0.3453
  161MOL0     C22113   9.838   1.914   2.807 -0.2193  0.7618 -0.5614
  161MOL0     C22114   9.924   1.971   2.714  0.3280 -0.4983  0.0153
  161MOL0     C22115   9.878   2.083   2.631  0.1231  0.2906  0.6328
  161MOL0     O22116   9.958   2.159   2.550  0.3178 -0.5953 -0.6115
  161MOL0     C22117  10.105   2.153   2.545  1.3097  0.1867  0.7633
  161MOL0     C22118  10.164   2.236   2.654  0.4351 -0.3423 -0.2684
  161MOL0     C22119  10.306   2.214   2.671 -0.4339 -0.0197  0.1905
  161MOL0     C22120  10.397   2.276   2.564  0.0392  0.3054 -0.3321
  161MOL0     C22121  10.550   2.278   2.612 -0.1132  0.1133  0.4893
  161MOL0     C22122  10.651   2.317   2.499 -0.4387  0.3719  0.2072
  161MOL0     C22123  10.698   2.203   2.421 -0.6052 -0.1507  0.5339
  161MOL0     C22124  10.836   2.225   2.354  0.5674  0.2072 -0.1914
  161MOL0    Cl22125  10.863   2.402   2.303 -0.0512  0.5063 -0.1230
  161MOL0     C22126   9.744   2.125   2.642 -0.5366  0.7306  0.2689
  161MOL0     C22127   9.661   2.059   2.735 -0.2981 -0.6029 -0.4019
  161MOL0     O22128   9.430   1.900   2.799 -0.2761 -0.0802 -0.0296
  161MOL0     C22129   9.299   1.759   2.996 -0.0178  0.3695  0.5361
  161MOL0     C22130   9.217   1.716   3.099  0.1587 -0.6154  0.5497
  161MOL0     N22131   8.783   1.855   3.901 -0.8372 -0.3235  0.0308
  161MOL0     N22132   8.727   1.749   3.950  0.5574  0.3362 -1.5690
  161MOL0     C22133   7.818   1.288   3.462  0.1586  0.4118  0.6841
  161MOL0     C22134   7.679   1.308   3.441 -0.6466 -0.7291 -0.5747
  161MOL0     C22135   7.332   1.240   3.179 -0.3675  0.1071 -0.1103
  161MOL0     C22136   7.304   1.347   3.092 -0.8246 -0.2180 -0.2496
  161MOL0     C22137   7.171   1.369   3.047  0.7083  0.9060  0.6936
  161MOL0     C22138   7.065   1.296   3.093  0.4595  0.4839  0.3870
  161MOL0     O22139   6.941   1.323   3.044 -0.0897  0.2569 -0.0247
  161MOL0     C22140   6.822   1.256   3.094  0.4905 -1.3233 -0.0119
  161MOL0     C22141   6.700   1.326   3.035  0.6428 -0.0220  1.0050
  161MOL0     C22142   6.663   1.461   3.102  0.8956  0.7330 -0.1354
  161MOL0     C22143   6.543   1.523   3.045 -0.9450 -0.2203  0.1195
  161MOL0     C22144   6.430   1.431   3.024  0.8233 -0.3529 -0.2780
  161MOL0     C22145   6.337   1.362   2.992  0.9730 -0.0012  0.1317
  161MOL0     C22146   7.093   1.196   3.190 -0.3860 -0.0660  0.1067
  161MOL0     C22147   7.224   1.169   3.235 -1.0872  0.3825  0.2366
  161MOL0     C22148   7.229   1.059   3.339  0.4532  1.4458 -0.5700
  161MOL0     H22149   7.573   0.993   3.429  0.3294  1.2181 -4.9715
  161MOL0     H22150   7.799   0.948   3.498 -0.1990 -0.7408 -2.9781
  161MOL0     H22151   8.021   0.954   3.567  0.0531 -1.8085  2.3485
  161MOL0     H22152   7.944   1.036   3.704 -1.1979  0.6660 -1.6016
  161MOL0     H22153   8.165   0.957   3.753  1.4173 -0.9119 -1.3382
  161MOL0     H22154   8.229   1.053   3.616  0.1270 -2.3539 -0.2004
  161MOL0     H22155   8.142   1.262   3.722  2.4466 -0.1994 -0.8299
  161MOL0     H22156   8.105   1.179   3.867 -2.7467 -0.5416 -1.2052
  161MOL0     H22157   8.351   1.108   3.873  1.1791  1.1918 -0.8571
  161MOL0     H22158   8.383   1.190   3.719  1.2429 -0.9710 -0.5916
  161MOL0     H22159   8.297   1.331   3.976 -1.1601 -2.2439 -0.5055
  161MOL0     H22160   8.302   1.405   3.817  0.8964 -2.0641 -1.1215
  161MOL0     H22161   8.544   1.287   3.957  1.3766 -3.4286 -3.1637
  161MOL0     H22162   8.554   1.306   3.793 -0.8444 -0.7676  0.6726
  161MOL0     H22163   8.544   1.521   4.004  0.4675 -1.1588  0.2964
  161MOL0     H22164   8.475   1.555   3.848 -1.2698  1.8563  2.9466
  161MOL0     H22165   8.763   1.461   3.916  1.1961 -0.4353 -1.4465
  161MOL0     H22166   8.708   1.480   3.742 -0.9880  2.1222 -0.1849
  161MOL0     H22167   8.799   1.668   3.643 -4.1279 -0.1365 -0.3405
  161MOL0     H22168   8.858   2.049   3.736 -3.0756  1.7419 -3.1812
  161MOL0     H22169   8.793   1.948   3.601  2.1339 -4.0116 -2.1763
  161MOL0     H22170   9.058   2.018   3.578  0.1312  0.5482  0.1680
  161MOL0     H22171   9.063   1.877   3.690  0.9151  0.1386 -1.5328
  161MOL0     H22172   8.958   1.745   3.508  2.2159 -1.4153  2.1370
  161MOL0     H22173   8.935   1.889   3.415 -1.0127  0.3253  0.7360
  161MOL0     H22174   9.182   1.925   3.389 -0.1293  0.2317  0.2028
  161MOL0     H22175   9.216   1.792   3.497 -1.3396 -0.3245  1.5799
  161MOL0     H22176   9.382   1.866   3.358 -0.3049 -1.5911  0.8800
  161MOL0     H22177   9.578   2.053   3.171 -0.8408 -0.6298 -1.3914
  161MOL0     H22178   9.678   1.912   3.147 -0.8215 -1.9306 -1.4594
  161MOL0     H22179   9.587   1.939   3.305 -1.4665  1.9847  0.4719
  161MOL0     H22180   9.871   1.837   2.875  3.9820 -1.1750 -4.2916
  161MOL0     H22181  10.025   1.930   2.717  0.7311  0.0582 -2.7097
  161MOL0     H22182  10.139   2.051   2.565 -0.7543 -0.7089  0.0272
  161MOL0     H22183  10.132   2.180   2.443 -0.0255 -0.6968  0.1342
  161MOL0     H22184  10.140   2.342   2.644  0.2171 -0.5532 -2.5346
  161MOL0     H22185  10.118   2.192   2.743 -0.6091  1.5741  0.1936
  161MOL0     H22186  10.334   2.108   2.679  2.6701  0.8469  2.9047
  161MOL0     H22187  10.336   2.271   2.759  2.0175  3.2017 -2.4729
  161MOL0     H22188  10.373   2.382   2.548  0.6489  0.1913 -2.3423
  161MOL0     H22189  10.388   2.212   2.476 -2.5080 -2.0921  1.4943
  161MOL0     H22190  10.553   2.348   2.695  0.1853  1.2706 -0.4719
  161MOL0     H22191  10.581   2.188   2.667  2.4192  0.7819  0.2733
  161MOL0     H22192  10.737   2.365   2.546 -0.1839 -1.2959  1.5262
  161MOL0     H22193  10.598   2.396   2.446  0.1654  1.0216  0.5577
  161MOL0     H22194  10.620   2.187   2.346 -0.4293 -1.7742  0.6623
  161MOL0     H22195  10.709   2.118   2.488 -0.4450 -0.3766  0.2243
  161MOL0     H22196  10.845   2.158   2.269 -0.2441  1.2840 -1.1542
  161MOL0     H22197  10.915   2.212   2.428 -0.3923  2.7185  1.4206
  161MOL0     H22198   9.701   2.189   2.566  1.0318 -1.3406 -2.5650
  161MOL0     H22199   9.554   2.077   2.736 -0.1343  0.5920 -1.7914
  161MOL0     H22200   9.273   1.733   2.894  1.0307  0.0500  0.3451
  161MOL0     H22201   9.124   1.665   3.075  0.0637 -0.2040  0.0262
  161MOL0     H22202   7.896   1.363   3.472 -1.0117  1.4499  2.5023
  161MOL0     H22203   7.634   1.405   3.422 -1.5882 -1.2463 -0.9964
  161MOL0     H22204   7.381   1.408   3.045  0.5462 -1.2812  0.5250
  161MOL0     H22205   7.136   1.448   2.981  2.6751 -0.1101 -1.7428
  161MOL0     H22206   6.825   1.148   3.075 -2.1401 -0.9989 -3.0016
  161MOL0     H22207   6.809   1.281   3.200 -2.3212  0.8252 -0.7731
  161MOL0     H22208   6.617   1.258   3.057  1.3712 -0.6213  2.0045
  161MOL0     H22209   6.710   1.327   2.926 -2.7179 -0.0541  0.6045
  161MOL0     H22210   6.646   1.450   3.209 -1.6836 -0.9036 -0.6360
  161MOL0     H22211   6.747   1.529   3.085  1.4049  0.0236 -0.5123
  161MOL0     H22212   6.567   1.559   2.944 -3.6208 -1.6881 -1.1314
  161MOL0     H22213   6.510   1.611   3.102 -0.6947  1.7125 -2.5061
  161MOL0     H22214   6.262   1.290   2.963  2.0492 -0.8206 -0.7238
  161MOL0     H22215   7.010   1.140   3.229 -1.7511  1.4563 -0.4884
  161MOL0     H22216   7.145   0.990   3.326  0.6260  1.5160 -2.3591
  161MOL0     H22217   7.319   0.998   3.330  0.3622  0.4868  3.3531
  161MOL0     H22218   7.220   1.114   3.432  1.4745  3.2934 -1.5170
  162MOL0     O22219   4.172  10.558   9.532  0.5493  0.3899 -0.0829
  162MOL0     C22220   4.135  10.535   9.649 -0.0624  0.6359 -0.2535
  162MOL0     O22221   4.022  10.469   9.685 -0.4809 -0.4235  0.7431
  162MOL0     C22222   3.933  10.432   9.590  0.6746  0.1791 -0.6798
  162MOL0     C22223   3.885  10.297   9.582  0.7102 -0.8365  0.0446
  162MOL0     C22224   3.788  10.272   9.476 -0.1359  0.6863 -0.6738
  162MOL0     C22225   3.740  10.369   9.391  0.3612  0.0632 -0.6299
  162MOL0     O22226   3.640  10.360   9.297 -0.3916  0.1188 -0.4821
  162MOL0     C22227   3.590  10.224   9.263  0.0181  0.0689  1.4986
  162MOL0     C22228   3.525  10.227   9.124 -0.6957  0.6019 -0.1083
  162MOL0     C22229   3.635  10.260   9.020 -0.3849 -0.0163  0.0943
  162MOL0     C22230   3.575  10.246   8.881 -0.2398 -0.3802  0.2983
  162MOL0     C22231   3.678  10.295   8.779 -0.5103 -0.1253  0.3275
  162MOL0     C22232   3.606  10.334   8.651 -0.1000  0.0878 -0.4041
  162MOL0     C22233   3.699  10.362   8.533 -0.1427 -0.4639  0.1318
  162MOL0     C22234   3.631  10.442   8.422 -0.7534  0.4908 -0.1150
  162MOL0     N22235   3.712  10.457   8.305 -0.5426 -1.0461  0.9112
  162MOL0     C22236   3.842  10.445   8.286 -0.5754 -0.7132 -0.0303
  162MOL0     C22237   3.855  10.425   8.158  0.3784  0.0140  1.0331
  162MOL0     C22238   3.982  10.388   8.078  1.0144  0.5157 -0.2830
  162MOL0     C22239   3.952  10.344   7.921  0.6030 -0.8388  0.3387
  162MOL0     C22240   3.869  10.223   7.890 -0.0052  0.3875  1.0370
  162MOL0     C22241   3.897  10.161   7.749 -0.5634 -0.1525 -0.3849
  162MOL0     O22242   3.839  10.240   7.648  0.2157  0.2941  0.8663
  162MOL0     C22243   3.927  10.315   7.580  0.7041  0.1239 -0.3231
  162MOL0     C22244   4.024  10.264   7.492  0.7527 -0.7309 -0.1647
  162MOL0     C22245   4.126  10.350   7.449  0.4958  0.2034  1.0938
  162MOL0     C22246   4.249  10.277   7.389  0.4491  0.2641 -0.6910
  162MOL0     C22247   4.117  10.490   7.473  0.3108 -0.1506  0.2024
  162MOL0     C22248   4.206  10.593   7.407 -0.4051 -0.4080 -1.0398
  162MOL0     O22249   4.203  10.725   7.467 -0.0348  0.8975  0.8632
  162MOL0     C22250   4.294  10.826   7.423  0.7565  0.1437 -0.0700
  162MOL0     C22251   4.252  10.963   7.406  0.5798  0.2887 -0.5722
  162MOL0     C22252   4.342  11.069   7.383  0.3267 -0.3749 -0.5734
  162MOL0     C22253   4.477  11.030   7.362 -0.0203 -0.7299 -0.1434
  162MOL0     O22254   4.566  11.135   7.346  0.1974 -0.1180  0.2822
  162MOL0     C22255   4.690  11.127   7.290 -0.0314  0.3630  0.4242
  162MOL0     C22256   4.754  11.267   7.275  0.7679  0.0016  0.0492
  162MOL0     C22257   4.899  11.248   7.211  0.7768 -0.1469  0.2529
  162MOL0     C22258   4.969  11.382   7.221 -0.7945 -0.3491  0.1852
  162MOL0     C22259   5.101  11.369   7.141  0.3116 -0.2307  0.2734
  162MOL0     C22260   5.177  11.509   7.143  0.2600 -0.2141  0.4392
  162MOL0     C22261   5.310  11.502   7.068  0.7106 -0.1613 -0.2627
  162MOL0     C22262   5.323  11.626   6.974 -0.0966 -0.2325  0.0960
  162MOL0    Cl22263   5.492  11.661   6.912  0.2360 -0.2438 -0.6253
  162MOL0     C22264   4.520  10.900   7.373 -0.5987 -0.0443 -0.3829
  162MOL0     C22265   4.428  10.797   7.407  0.9783  0.0456  0.6118
  162MOL0     O22266   4.275  10.560   7.312  0.4344 -0.5631  0.4690
  162MOL0     C22267   4.003  10.541   7.532 -0.0419 -0.3317 -0.3842
  162MOL0     C22268   3.913  10.453   7.588 -0.0177 -0.3804 -0.1988
  162MOL0     N22269   3.733  10.442   8.091 -0.0940 -0.3498 -0.3694
  162MOL0     N22270   3.645  10.458   8.185  0.1356  0.0413 -0.2510
  162MOL0     C22271   3.782  10.500   9.415 -0.7633  0.7294  0.5045
  162MOL0     C22272   3.873  10.531   9.518 -1.1441  0.3983  0.1748
  162MOL0     C22273   4.231  10.598   9.741 -0.8949  0.3245 -0.8371
  162MOL0     C22274   4.373  10.586   9.726  0.3762  0.6938  0.3093
  162MOL0     C22275   4.459  10.656   9.813  0.1003 -0.5806  0.2030
  162MOL0     C22276   4.417  10.742   9.906 -0.5323 -0.4930 -0.5241
  162MOL0     O22277   4.504  10.809   9.986 -0.3076 -0.1926  0.5530
  162MOL0     C22278   4.464  10.933  10.045 -0.1998 -0.4853  0.0639
  162MOL0     C22279   4.586  11.017  10.100 -0.3026  0.1806  1.1064
  162MOL0     C22280   4.692  11.038   9.995  0.3723  0.2515  0.4154
  162MOL0     C22281   4.798  11.136  10.046  0.4456 -0.0204  0.1178
  162MOL0     C22282   4.872  11.075  10.150  0.8620 -0.1335  0.5546
  162MOL0     C22283   4.922  11.008  10.237  0.0219 -0.0729 -0.4163
  162MOL0     C22284   4.278  10.760   9.930  0.3168 -0.3874  0.6659
  162MOL0     C22285   4.188  10.688   9.845  1.1114  0.6998  0.3779
  162MOL0     C22286   4.044  10.697   9.869  0.9527  0.2921 -1.1923
  162MOL0     H22287   3.924  10.219   9.647 -0.2539 -0.4119  1.1520
  162MOL0     H22288   3.763  10.166   9.470  3.8953 -0.7525  2.8432
  162MOL0     H22289   3.522  10.173   9.332  0.8306 -1.5290  1.1662
  162MOL0     H22290   3.678  10.159   9.254 -0.9521 -1.1614  0.6709
  162MOL0     H22291   3.494  10.122   9.112  0.0910  0.1209  1.6999
  162MOL0     H22292   3.439  10.293   9.120 -3.1330 -2.3809 -3.3656
  162MOL0     H22293   3.662  10.365   9.036  0.4476 -0.4977  2.3562
  162MOL0     H22294   3.718  10.190   9.041 -1.8402 -1.4021  1.5490
  162MOL0     H22295   3.554  10.139   8.872 -1.5441 -0.2312  1.2763
  162MOL0     H22296   3.476  10.294   8.877 -0.7253 -1.3256  0.7128
  162MOL0     H22297   3.751  10.214   8.768  2.4790  2.5834 -1.5790
  162MOL0     H22298   3.737  10.370   8.832  1.5190 -3.0005  2.4828
  162MOL0     H22299   3.536  10.254   8.624  3.0761 -2.5426 -1.5758
  162MOL0     H22300   3.551  10.425   8.677  0.0452  0.4787 -1.4166
  162MOL0     H22301   3.755  10.276   8.496  2.2679  1.1751 -0.2629
  162MOL0     H22302   3.776  10.433   8.565 -0.5140  0.8393 -1.6696
  162MOL0     H22303   3.544  10.384   8.390 -0.5097 -0.8147  1.4460
  162MOL0     H22304   3.608  10.540   8.466  1.5229  0.3521  1.5444
  162MOL0     H22305   3.925  10.450   8.356  1.0025 -0.6381 -1.8476
  162MOL0     H22306   4.040  10.308   8.127  1.2690  1.7990  1.6027
  162MOL0     H22307   4.052  10.472   8.083  1.8411 -0.2056  0.7903
  162MOL0     H22308   3.903  10.427   7.870  2.3291 -1.2600 -2.2213
  162MOL0     H22309   4.052  10.332   7.877  1.0555  0.8688  0.8513
  162MOL0     H22310   3.884  10.136   7.954 -1.6292  0.8818  2.1532
  162MOL0     H22311   3.763  10.249   7.903 -0.2893 -1.2377  2.3736
  162MOL0     H22312   4.005  10.144   7.745 -0.5822 -0.7221  0.9612
  162MOL0     H22313   3.840  10.068   7.750 -0.1394 -0.4138 -0.3433
  162MOL0     H22314   4.016  10.157   7.474 -4.1947 -0.6755  0.3677
  162MOL0     H22315   4.245  10.290   7.281 -1.8457 -1.4836 -0.8971
  162MOL0     H22316   4.229  10.171   7.409  0.0017  0.4152 -0.3120
  162MOL0     H22317   4.342  10.316   7.432  0.0015  0.9542 -0.3247
  162MOL0     H22318   4.154  11.003   7.431 -0.0653 -1.3699 -0.2885
  162MOL0     H22319   4.311  11.173   7.385  4.5436  1.0928 -0.6120
  162MOL0     H22320   4.755  11.056   7.343  0.1643  1.6973  2.0776
  162MOL0     H22321   4.686  11.087   7.189  2.8019 -3.9971  1.7608
  162MOL0     H22322   4.691  11.331   7.214  1.2580  1.2006  0.7655
  162MOL0     H22323   4.771  11.313   7.373  4.2595  1.1504 -0.9535
  162MOL0     H22324   4.882  11.211   7.110  0.4382 -1.2265  0.6926
  162MOL0     H22325   4.950  11.179   7.280 -0.9488 -2.0083 -0.2355
  162MOL0     H22326   5.004  11.401   7.323 -0.3841 -2.4034  0.4670
  162MOL0     H22327   4.914  11.466   7.176 -2.3403 -0.4184  1.8597
  162MOL0     H22328   5.166  11.289   7.179 -0.5108 -0.1303  1.9458
  162MOL0     H22329   5.072  11.357   7.036  1.6663  2.9315 -0.5774
  162MOL0     H22330   5.188  11.554   7.242  1.9285  1.9698 -0.6682
  162MOL0     H22331   5.105  11.574   7.092  0.7601 -1.4533 -2.0229
  162MOL0     H22332   5.324  11.407   7.014 -1.9983  0.1682 -1.7142
  162MOL0     H22333   5.386  11.499   7.146 -1.6523 -1.9039  2.1527
  162MOL0     H22334   5.276  11.713   7.021 -3.4014 -1.3061 -0.8870
  162MOL0     H22335   5.260  11.594   6.890  0.7896  0.0294 -0.6883
  162MOL0     H22336   4.620  10.864   7.352  0.0784  1.9259 -0.7602
  162MOL0     H22337   4.453  10.695   7.434 -2.4351 -0.7555  1.2508
  162MOL0     H22338   3.977  10.646   7.540  1.3788  0.0701 -0.8430
  162MOL0     H22339   3.839  10.495   7.656  0.8058  0.8131  0.0004
  162MOL0     H22340   3.727  10.581   9.368  0.4623 -0.1755 -2.8243
  162MOL0     H22341   3.892  10.634   9.545 -1.2706  0.1495  1.2553
  162MOL0     H22342   4.400  10.522   9.642 -1.2682  1.6042 -0.9846
  162MOL0     H22343   4.568  10.662   9.805 -0.0370  0.9771 -1.1134
  162MOL0     H22344   4.415  10.985   9.962  0.4097 -0.7061 -0.4398
  162MOL0     H22345   4.389  10.921  10.125  0.1363 -0.2640  0.4132
  162MOL0     H22346   4.626  10.945  10.173  0.0962 -1.0569 -0.2983
  162MOL0     H22347   4.554  11.111  10.146 -1.1487  0.1277  0.6448
  162MOL0     H22348   4.749  10.950   9.964 -0.0504  0.5478 -1.3146
  162MOL0     H22349   4.647  11.083   9.906  1.4126  1.8324  0.6519
  162MOL0     H22350   4.761  11.233  10.080  0.4193 -0.6148  1.9163
  162MOL0     H22351   4.864  11.156   9.961  2.8742 -2.8536  1.1393
  162MOL0     H22352   4.967  10.951  10.316 -0.8367 -0.7713 -0.4164
  162MOL0     H22353   4.239  10.835   9.997 -4.4461  2.0393 -4.0490
  162MOL0     H22354   4.019  10.777   9.939  5.1627  2.4866 -1.9100
  162MOL0     H22355   3.994  10.730   9.777  1.5048 -0.3304 -1.7331
  162MOL0     H22356   3.998  10.605   9.907  1.2512  1.4935  2.4608
  163MOL0     O22357   9.921   6.938   7.865 -0.1369 -0.3570 -0.2702
  163MOL0     C22358   9.934   7.059   7.851 -0.1459 -0.3117 -0.6625
  163MOL0     O22359  10.040   7.127   7.799 -0.1581 -0.1803 -0.6009
  163MOL0     C22360  10.132   7.070   7.725 -0.1564 -0.3365  0.5976
  163MOL0     C22361  10.247   7.144   7.730  0.6285  0.1866  0.9390
  163MOL0     C22362  10.363   7.106   7.669  0.3190 -0.1222  0.7131
  163MOL0     C22363  10.370   6.978   7.615  0.2337  0.0527 -0.0699
  163MOL0     O22364  10.475   6.939   7.542  0.8652  0.3409 -0.3648
  163MOL0     C22365  10.602   6.953   7.610 -0.0773 -0.4550 -0.4029
  163MOL0     C22366  10.708   6.881   7.537 -0.3704 -0.4065 -0.5556
  163MOL0     C22367  10.690   6.732   7.563  0.3669  0.2754  0.0195
  163MOL0     C22368  10.788   6.637   7.488  0.0441  0.4396 -0.1320
  163MOL0     C22369  10.931   6.694   7.508 -0.3443  0.8278 -0.7704
  163MOL0     C22370  11.029   6.584   7.490 -0.1189  0.5653 -0.0051
  163MOL0     C22371  11.179   6.614   7.506 -0.6287 -0.3394  0.2029
  163MOL0     C22372  11.275   6.488   7.488  0.8064 -0.8333  0.9337
  163MOL0     N22373  11.272   6.420   7.355  0.5861  0.2796  0.1024
  163MOL0     C22374  11.160   6.343   7.308  0.2025 -0.5946 -0.0318
  163MOL0     C22375  11.196   6.289   7.191 -0.6254 -0.0859  0.8035
  163MOL0     C22376  11.113   6.193   7.106  0.4055  0.2863  0.3630
  163MOL0     C22377  11.192   6.099   7.010  0.5217  0.0471  0.6087
  163MOL0     C22378  11.245   5.983   7.089  0.5948  0.5376  1.0164
  163MOL0     C22379  11.315   5.878   7.000  0.5154  0.0168 -0.1270
  163MOL0     O22380  11.232   5.842   6.889 -0.3880  0.7837 -0.7976
  163MOL0     C22381  11.284   5.755   6.794  0.2756 -0.4242 -0.0302
  163MOL0     C22382  11.205   5.722   6.685 -0.8051  0.8605 -0.4049
  163MOL0     C22383  11.242   5.641   6.583  0.1247  0.6647  0.0194
  163MOL0     C22384  11.133   5.592   6.483 -1.0186 -0.4420  0.4925
  163MOL0     C22385  11.375   5.587   6.576  1.5695  0.1586  0.2879
  163MOL0     C22386  11.424   5.499   6.473 -0.2944  0.8250  0.2922
  163MOL0     O22387  11.557   5.492   6.468  0.0512  0.1945 -0.3111
  163MOL0     C22388  11.627   5.377   6.418  0.6939 -1.0008  0.5617
  163MOL0     C22389  11.589   5.289   6.310  0.5577  0.1654 -0.6188
  163MOL0     C22390  11.682   5.190   6.270 -0.4826  1.0150  0.7413
  163MOL0     C22391  11.807   5.164   6.334  1.1407 -0.1742  0.3452
  163MOL0     O22392  11.879   5.055   6.308  0.5292 -0.1156  0.4206
  163MOL0     C22393  11.984   5.013   6.387 -0.9549  0.3589  0.0418
  163MOL0     C22394  12.032   4.880   6.331 -1.1399  0.5235 -0.5769
  163MOL0     C22395  12.136   4.903   6.224 -0.2282 -0.3312  0.3389
  163MOL0     C22396  12.071   4.894   6.085 -0.0948 -0.7321  0.0549
  163MOL0     C22397  12.171   4.900   5.974  0.6644 -0.0069  0.7121
  163MOL0     C22398  12.263   4.783   5.960 -0.0532 -0.1543  0.4312
  163MOL0     C22399  12.338   4.789   5.820  0.3099  0.4809  0.7404
  163MOL0     C22400  12.429   4.668   5.811 -0.6424 -0.6113 -0.1863
  163MOL0    Cl22401  12.578   4.688   5.907 -0.3309 -0.3423 -0.5674
  163MOL0     C22402  11.844   5.263   6.436 -0.1327  0.4275  0.5660
  163MOL0     C22403  11.753   5.360   6.476  0.1902 -0.2242 -0.0654
  163MOL0     O22404  11.347   5.423   6.419  0.1340  0.1984  0.1616
  163MOL0     C22405  11.461   5.615   6.685 -0.0815 -0.1208 -0.6852
  163MOL0     C22406  11.413   5.698   6.789  0.8535  0.2096 -0.1870
  163MOL0     N22407  11.330   6.323   7.161  1.1965  0.6916  1.1732
  163MOL0     N22408  11.374   6.395   7.261  0.3080 -0.4721 -0.3030
  163MOL0     C22409  10.251   6.901   7.611  0.3704  0.9186  0.6957
  163MOL0     C22410  10.131   6.947   7.667  0.2519 -0.0667  0.3465
  163MOL0     C22411   9.812   7.129   7.868  0.2676 -0.4945  0.3769
  163MOL0     C22412   9.701   7.080   7.796 -0.0206  0.3287 -0.1737
  163MOL0     C22413   9.570   7.133   7.814 -0.2690  0.7208  0.0442
  163MOL0     C22414   9.555   7.235   7.905 -0.5231 -0.7377  0.7373
  163MOL0     O22415   9.436   7.298   7.928  0.0483 -0.3833  0.3235
  163MOL0     C22416   9.350   7.319   7.822  0.4980  0.1391 -0.2376
  163MOL0     C22417   9.215   7.374   7.869  0.3107  0.5422 -0.1359
  163MOL0     C22418   9.149   7.281   7.972 -0.6689 -0.2727  0.0323
  163MOL0     C22419   9.037   7.350   8.051  0.3594 -0.4595 -0.1449
  163MOL0     C22420   8.925   7.401   7.961 -0.4970  0.0296 -0.8705
  163MOL0     C22421   8.828   7.429   7.897 -0.0001 -0.6028  0.2681
  163MOL0     C22422   9.664   7.285   7.982  0.2825 -0.1802  0.8549
  163MOL0     C22423   9.794   7.236   7.958  0.5997  0.2598 -0.4762
  163MOL0     C22424   9.899   7.296   8.043 -0.5643 -0.0195  0.1741
  163MOL0     H22425  10.251   7.246   7.765 -1.2509  0.4661  0.4590
  163MOL0     H22426  10.444   7.177   7.680 -1.0867  1.7783 -0.4946
  163MOL0     H22427  10.607   6.918   7.713  1.1886  2.2602  0.5265
  163MOL0     H22428  10.636   7.056   7.596  2.1547 -0.9871  0.7184
  163MOL0     H22429  10.698   6.908   7.431  0.7069  0.2741 -0.4995
  163MOL0     H22430  10.807   6.916   7.566  0.0295 -1.7297 -0.2457
  163MOL0     H22431  10.692   6.712   7.670 -0.5541  2.1945  0.4361
  163MOL0     H22432  10.590   6.698   7.536  0.0856 -1.0048  2.4171
  163MOL0     H22433  10.773   6.541   7.538  2.1380  0.1196  0.0023
  163MOL0     H22434  10.765   6.645   7.382  0.6218 -3.2745 -0.6857
  163MOL0     H22435  10.941   6.734   7.610  1.2853  3.1155 -1.7505
  163MOL0     H22436  10.963   6.771   7.437  4.2837  1.4716  1.6300
  163MOL0     H22437  11.001   6.501   7.555  2.6532 -1.8676 -1.6194
  163MOL0     H22438  11.014   6.555   7.385  0.3151  1.1765 -0.2405
  163MOL0     H22439  11.194   6.655   7.606  0.5835 -0.3816  0.0601
  163MOL0     H22440  11.209   6.691   7.434  0.2751  0.1945  1.1281
  163MOL0     H22441  11.374   6.525   7.516  1.1170  0.0963 -1.1534
  163MOL0     H22442  11.237   6.416   7.561  1.1791 -1.8072  0.1900
  163MOL0     H22443  11.063   6.320   7.353 -0.0632  0.6663  0.0721
  163MOL0     H22444  11.048   6.251   7.040 -0.0732 -0.0224  0.5585
  163MOL0     H22445  11.057   6.128   7.173  0.2681 -0.1198 -0.1351
  163MOL0     H22446  11.127   6.058   6.933  2.1303 -0.2324 -0.6638
  163MOL0     H22447  11.283   6.144   6.969  0.3697 -0.9416 -0.9162
  163MOL0     H22448  11.320   6.028   7.155  0.4977 -0.2018  1.6404
  163MOL0     H22449  11.163   5.930   7.139  0.2562  0.3165  0.2464
  163MOL0     H22450  11.401   5.933   6.961  1.7885 -0.8336  1.3575
  163MOL0     H22451  11.342   5.784   7.048 -1.4519 -1.2474 -1.3425
  163MOL0     H22452  11.107   5.767   6.671 -0.5887  1.2202 -0.8192
  163MOL0     H22453  11.169   5.612   6.382  2.0354  1.7169  1.8427
  163MOL0     H22454  11.043   5.653   6.498  1.0542  2.2061  3.7997
  163MOL0     H22455  11.114   5.485   6.496 -3.1034 -0.6246 -2.9621
  163MOL0     H22456  11.498   5.305   6.254  1.2751  0.8965 -1.5983
  163MOL0     H22457  11.648   5.129   6.187 -0.0193  0.7165  0.7672
  163MOL0     H22458  12.061   5.087   6.366 -1.4532  0.4143 -1.7990
  163MOL0     H22459  11.947   5.017   6.490 -0.2660  0.0739  0.3011
  163MOL0     H22460  12.076   4.832   6.419 -1.2489 -1.3969 -1.5053
  163MOL0     H22461  11.957   4.806   6.301  0.3375  0.3105 -4.2602
  163MOL0     H22462  12.209   4.823   6.238  1.0847  1.1337  2.4932
  163MOL0     H22463  12.192   4.995   6.234 -1.2324  0.4872 -1.1263
  163MOL0     H22464  11.996   4.969   6.058  0.9926  0.5200  0.4038
  163MOL0     H22465  12.019   4.798   6.082 -0.8766 -0.2960 -0.9798
  163MOL0     H22466  12.106   4.921   5.889 -2.5727 -1.7087  2.5703
  163MOL0     H22467  12.230   4.992   5.980 -1.8052  2.0468 -2.8867
  163MOL0     H22468  12.206   4.689   5.964  0.6488 -0.7218 -1.5375
  163MOL0     H22469  12.339   4.780   6.038  3.0998  0.8349 -2.3551
  163MOL0     H22470  12.388   4.885   5.804 -2.8591  1.9050 -1.9043
  163MOL0     H22471  12.263   4.787   5.740  0.6963  1.2038  0.3447
  163MOL0     H22472  12.461   4.643   5.710 -0.2024 -2.5404  0.3782
  163MOL0     H22473  12.369   4.580   5.838 -1.6636  0.1805  0.1981
  163MOL0     H22474  11.939   5.254   6.488  0.2953 -1.6337 -0.4681
  163MOL0     H22475  11.794   5.419   6.558  0.2671  0.2090 -0.4084
  163MOL0     H22476  11.559   5.568   6.692 -0.2240 -0.5021 -1.1960
  163MOL0     H22477  11.488   5.720   6.863  1.4103 -0.6506 -0.4781
  163MOL0     H22478  10.259   6.802   7.568 -2.5960  2.0208 -2.9963
  163MOL0     H22479  10.040   6.887   7.662 -0.6315  1.2403  0.2426
  163MOL0     H22480   9.729   7.012   7.717 -1.5267 -2.2195  1.3433
  163MOL0     H22481   9.491   7.076   7.764 -0.0159  1.0515 -0.7458
  163MOL0     H22482   9.403   7.395   7.763 -0.9202  2.1859  0.9918
  163MOL0     H22483   9.330   7.229   7.763 -2.4109  0.7932 -0.3857
  163MOL0     H22484   9.151   7.400   7.784  2.0524  0.9987 -1.3622
  163MOL0     H22485   9.243   7.463   7.926  1.1831  0.8174 -0.9738
  163MOL0     H22486   9.113   7.195   7.914 -1.7657 -1.0493  1.8108
  163MOL0     H22487   9.215   7.248   8.052 -2.4656  2.2183  2.7118
  163MOL0     H22488   9.069   7.428   8.120 -2.9137  2.5274 -1.6845
  163MOL0     H22489   8.978   7.275   8.105 -1.8431  1.1229 -0.1856
  163MOL0     H22490   8.736   7.449   7.847 -0.0993  3.5948  1.7496
  163MOL0     H22491   9.634   7.363   8.051 -0.0629 -1.5863  2.3751
  163MOL0     H22492   9.992   7.237   8.049  0.0293  0.9520  0.7526
  163MOL0     H22493   9.944   7.386   8.000  2.4194 -0.8640  1.2502
  163MOL0     H22494   9.868   7.322   8.144  2.0150  2.9079  0.3543
  164MOL0     O22495   5.538   1.020   6.920  0.1857 -0.2903  0.2540
  164MOL0     C22496   5.535   0.904   6.899  0.4783 -0.1162 -0.4314
  164MOL0     O22497   5.634   0.834   6.845 -0.7499  0.1300 -0.3792
  164MOL0     C22498   5.695   0.891   6.737  0.0912  0.7623 -1.9410
  164MOL0     C22499   5.635   0.991   6.653 -0.7506  0.1812  0.8261
  164MOL0     C22500   5.719   1.049   6.553  0.0904 -0.3868 -0.0057
  164MOL0     C22501   5.845   1.004   6.530 -0.3157 -0.5289 -0.0751
  164MOL0     O22502   5.919   1.061   6.425 -0.0255  0.4625 -0.3220
  164MOL0     C22503   6.062   1.077   6.450 -0.2103  0.1182  0.5787
  164MOL0     C22504   6.094   1.206   6.379  0.0050 -0.2199  0.0017
  164MOL0     C22505   6.241   1.226   6.358  0.5435 -0.1068 -0.0588
  164MOL0     C22506   6.296   1.261   6.498 -0.8239  0.4515 -0.4354
  164MOL0     C22507   6.447   1.292   6.490  1.1065  0.3906  0.5473
  164MOL0     C22508   6.487   1.398   6.392  0.6308 -0.0840 -0.4306
  164MOL0     C22509   6.634   1.447   6.416  0.0125  0.3107 -0.5489
  164MOL0     C22510   6.737   1.330   6.384 -0.1136 -0.0535  0.0444
  164MOL0     N22511   6.867   1.385   6.415  1.0432  0.0646  0.5247
  164MOL0     C22512   6.947   1.341   6.515  0.6669  0.2605  0.2274
  164MOL0     C22513   7.051   1.425   6.511  0.0840  0.2070  0.5890
  164MOL0     C22514   7.184   1.420   6.582 -0.2206 -0.2515 -0.5478
  164MOL0     C22515   7.293   1.352   6.505 -0.5277 -0.0790  0.4108
  164MOL0     C22516   7.420   1.431   6.536 -0.4412  0.4580 -0.2640
  164MOL0     C22517   7.539   1.369   6.472 -0.6755 -0.9860  0.9576
  164MOL0     O22518   7.562   1.236   6.511 -0.0325  0.1178  0.0650
  164MOL0     C22519   7.637   1.165   6.430 -1.2520 -0.3449 -0.2519
  164MOL0     C22520   7.629   1.025   6.426  0.8745  1.0845  0.5409
  164MOL0     C22521   7.709   0.944   6.352  0.5014 -0.5752  0.3520
  164MOL0     C22522   7.656   0.795   6.354  0.0663  0.4881  0.0192
  164MOL0     C22523   7.805   0.999   6.270  0.1618 -0.5224  0.4459
  164MOL0     C22524   7.898   0.921   6.184 -0.3392  0.0684  0.2789
  164MOL0     O22525   7.970   1.002   6.097  0.4831 -0.0174 -0.6821
  164MOL0     C22526   8.055   0.954   5.994 -0.4470 -0.5098 -0.1881
  164MOL0     C22527   8.068   1.049   5.891 -0.2499 -0.2560 -0.1731
  164MOL0     C22528   8.141   1.032   5.772 -0.8622 -1.0675 -0.8350
  164MOL0     C22529   8.203   0.906   5.753  0.1420 -0.5383 -0.4972
  164MOL0     O22530   8.267   0.886   5.633  0.2906 -0.2387 -0.0138
  164MOL0     C22531   8.332   0.761   5.607  0.1984 -0.1885 -0.1901
  164MOL0     C22532   8.463   0.744   5.694  0.2740  0.5928  0.2246
  164MOL0     C22533   8.529   0.608   5.671 -0.1992 -0.0596 -0.7726
  164MOL0     C22534   8.548   0.563   5.526 -0.0137 -0.0471 -0.6265
  164MOL0     C22535   8.629   0.424   5.525 -0.7760  0.2487 -0.2045
  164MOL0     C22536   8.543   0.300   5.552  0.1773  0.3626 -0.4921
  164MOL0     C22537   8.430   0.286   5.441  0.5252  0.4885 -0.5985
  164MOL0     C22538   8.287   0.272   5.506 -1.0221 -0.4655 -0.0675
  164MOL0    Cl22539   8.268   0.096   5.550 -0.3371 -0.1358  0.4809
  164MOL0     C22540   8.180   0.807   5.853 -0.0930 -0.5721  0.1234
  164MOL0     C22541   8.118   0.830   5.977 -0.1663  0.6854 -0.8683
  164MOL0     O22542   7.921   0.800   6.195  0.2276 -0.0896  0.2612
  164MOL0     C22543   7.824   1.136   6.286 -0.6608 -0.0657  0.0336
  164MOL0     C22544   7.739   1.222   6.346 -0.2462 -0.3587 -0.2144
  164MOL0     N22545   7.035   1.513   6.408  0.1270  1.0201  0.8437
  164MOL0     N22546   6.922   1.492   6.350 -0.4181  0.1651 -0.4050
  164MOL0     C22547   5.904   0.912   6.615 -0.2076  0.5109 -0.1109
  164MOL0     C22548   5.828   0.860   6.721 -0.0904 -0.0256  1.2717
  164MOL0     C22549   5.444   0.822   6.967  0.4804 -0.1905 -0.6913
  164MOL0     C22550   5.443   0.835   7.114 -0.8150  0.2708 -0.1148
  164MOL0     C22551   5.345   0.769   7.189  0.7516 -0.9048 -0.4482
  164MOL0     C22552   5.242   0.694   7.124  1.5894 -0.1996  0.0821
  164MOL0     O22553   5.138   0.622   7.179 -0.1154 -0.3942 -0.1151
  164MOL0     C22554   5.108   0.669   7.312  0.7881 -0.1409 -0.1359
  164MOL0     C22555   5.022   0.791   7.297 -0.4564  0.7527  0.5691
  164MOL0     C22556   4.979   0.846   7.434 -0.2024  0.4891 -0.4106
  164MOL0     C22557   5.086   0.939   7.507  0.1337 -0.5352 -0.2656
  164MOL0     C22558   5.172   0.859   7.592 -0.3576  0.4402 -0.3220
  164MOL0     C22559   5.242   0.800   7.675  0.2295  0.3196  0.3393
  164MOL0     C22560   5.239   0.683   6.979  1.1128 -0.2201  0.1723
  164MOL0     C22561   5.341   0.744   6.908 -0.5990 -0.6456  0.5683
  164MOL0     C22562   5.340   0.734   6.755  0.0246  0.1968  0.4813
  164MOL0     H22563   5.531   1.025   6.653 -0.8892  0.1422 -2.8993
  164MOL0     H22564   5.670   1.112   6.479 -2.2695 -3.7055 -1.5391
  164MOL0     H22565   6.121   0.996   6.407 -0.4814  0.2726 -0.1022
  164MOL0     H22566   6.083   1.093   6.556  1.5733  0.9536  0.1406
  164MOL0     H22567   6.035   1.209   6.287 -0.3381 -2.6129  0.0803
  164MOL0     H22568   6.063   1.288   6.443  0.8169  0.0101  0.1153
  164MOL0     H22569   6.293   1.142   6.311  2.3161  1.4423 -1.0118
  164MOL0     H22570   6.255   1.312   6.291  0.9683  0.4112  0.6736
  164MOL0     H22571   6.250   1.343   6.553  1.2896  0.0291  2.1762
  164MOL0     H22572   6.287   1.173   6.563 -1.6465  1.7426  1.2523
  164MOL0     H22573   6.490   1.197   6.458 -1.3657 -0.0835 -1.7252
  164MOL0     H22574   6.470   1.328   6.591 -1.5858  2.8588  0.4049
  164MOL0     H22575   6.476   1.369   6.287 -0.2008  0.8827 -0.6346
  164MOL0     H22576   6.418   1.481   6.410 -2.8549 -2.6325 -1.0057
  164MOL0     H22577   6.645   1.485   6.517 -1.3835 -0.2712 -0.1571
  164MOL0     H22578   6.654   1.539   6.360  2.8764 -0.3571 -0.7449
  164MOL0     H22579   6.722   1.240   6.444  1.4685  1.5717  3.0878
  164MOL0     H22580   6.732   1.317   6.275  0.4418  1.3951 -0.1773
  164MOL0     H22581   6.944   1.249   6.573  1.4615  1.4288  2.2332
  164MOL0     H22582   7.157   1.356   6.667 -1.1867 -1.1774 -1.5187
  164MOL0     H22583   7.205   1.523   6.611 -0.6307 -0.5481  0.8922
  164MOL0     H22584   7.301   1.245   6.527  0.3338 -1.0308 -3.6399
  164MOL0     H22585   7.278   1.345   6.397  3.2065 -4.1950 -0.1439
  164MOL0     H22586   7.398   1.536   6.514 -0.7479  1.3271  3.4501
  164MOL0     H22587   7.429   1.438   6.645 -2.8066 -0.2194  0.0364
  164MOL0     H22588   7.526   1.372   6.363 -0.0100  0.5635  0.8857
  164MOL0     H22589   7.628   1.431   6.490 -1.9610  1.5470 -0.7876
  164MOL0     H22590   7.547   0.974   6.476  0.8346 -1.5318 -1.9395
  164MOL0     H22591   7.726   0.734   6.411  0.6062  0.4591 -0.6690
  164MOL0     H22592   7.635   0.752   6.256 -0.0630 -2.1056  1.1000
  164MOL0     H22593   7.560   0.784   6.407 -0.4588  1.7934 -0.5977
  164MOL0     H22594   8.015   1.143   5.909 -1.2319 -0.8185 -0.0270
  164MOL0     H22595   8.145   1.106   5.693  2.1773 -0.4607 -0.2366
  164MOL0     H22596   8.264   0.677   5.620 -0.5858 -0.2915 -3.8817
  164MOL0     H22597   8.350   0.763   5.499 -3.6716 -2.3999 -1.0495
  164MOL0     H22598   8.538   0.820   5.670  1.2651 -0.0052  1.3385
  164MOL0     H22599   8.433   0.750   5.799  0.9055 -1.0814  0.5338
  164MOL0     H22600   8.468   0.533   5.723  0.6895  0.1418  0.6178
  164MOL0     H22601   8.622   0.601   5.728  1.3624 -1.1671 -3.3059
  164MOL0     H22602   8.597   0.647   5.475 -1.3836  1.6377  0.6851
  164MOL0     H22603   8.450   0.541   5.483  0.0445 -1.0980 -0.2491
  164MOL0     H22604   8.667   0.407   5.424 -1.5420  0.8940 -0.6075
  164MOL0     H22605   8.711   0.434   5.597  1.1769 -1.3712 -2.0737
  164MOL0     H22606   8.503   0.318   5.652 -0.0347 -2.2421 -0.0434
  164MOL0     H22607   8.601   0.208   5.556  0.5423  0.5832 -0.6278
  164MOL0     H22608   8.448   0.203   5.372  0.8270  0.9163 -1.0392
  164MOL0     H22609   8.436   0.379   5.384 -4.8735  1.5144 -0.0207
  164MOL0     H22610   8.202   0.297   5.443 -0.9873 -1.0361 -0.3506
  164MOL0     H22611   8.278   0.338   5.593  0.4625 -0.6394  0.2559
  164MOL0     H22612   8.212   0.705   5.834 -4.2896 -1.9938 -0.4277
  164MOL0     H22613   8.110   0.757   6.057  1.5147  2.2884  0.8595
  164MOL0     H22614   7.901   1.192   6.235  1.4512 -0.7663  2.2529
  164MOL0     H22615   7.767   1.326   6.356 -0.9021 -0.3996  3.1875
  164MOL0     H22616   5.997   0.860   6.593 -1.9048 -1.9914 -1.9851
  164MOL0     H22617   5.879   0.787   6.783 -2.2407 -3.7357 -0.8750
  164MOL0     H22618   5.518   0.901   7.158  1.1062 -0.8333 -1.5692
  164MOL0     H22619   5.334   0.789   7.295 -0.5837 -1.3523 -0.4753
  164MOL0     H22620   5.036   0.598   7.355 -1.6169  2.1844 -0.1000
  164MOL0     H22621   5.187   0.689   7.384 -0.3003 -0.5069  1.1999
  164MOL0     H22622   4.935   0.759   7.239 -1.6971  1.4313  1.9852
  164MOL0     H22623   5.072   0.869   7.240  1.5566 -0.7205  0.2011
  164MOL0     H22624   4.887   0.899   7.406  0.2612  1.0724 -0.8482
  164MOL0     H22625   4.939   0.763   7.493  2.5587 -1.0870 -0.6096
  164MOL0     H22626   5.026   1.004   7.572 -2.0117 -2.7523  0.1666
  164MOL0     H22627   5.135   0.992   7.425  0.6982 -1.3332 -0.4606
  164MOL0     H22628   5.306   0.767   7.755 -1.8122 -1.5075  1.3211
  164MOL0     H22629   5.162   0.624   6.930  0.1421  1.0696  0.0765
  164MOL0     H22630   5.312   0.826   6.703  0.0838 -1.2290 -2.2397
  164MOL0     H22631   5.433   0.691   6.718  0.6745  0.4918  1.7115
  164MOL0     H22632   5.260   0.666   6.725 -1.4458  2.0396  0.0418
  165MOL0     O22633   3.855   4.195   4.718  0.0854 -0.3270  0.1340
  165MOL0     C22634   3.843   4.083   4.668 -0.4905 -0.7048 -0.4039
  165MOL0     O22635   3.939   4.017   4.587 -0.0138  0.1840 -0.0632
  165MOL0     C22636   4.010   4.095   4.493 -0.0954 -0.1256 -0.6841
  165MOL0     C22637   4.107   4.026   4.422  0.1555  0.2615  0.4901
  165MOL0     C22638   4.177   4.090   4.324 -0.8874  0.3954  0.8203
  165MOL0     C22639   4.151   4.225   4.292 -0.8568  0.3213  0.4592
  165MOL0     O22640   4.214   4.295   4.189  0.2246 -0.0234 -0.1551
  165MOL0     C22641   4.217   4.231   4.061  0.0663  0.2686 -0.1088
  165MOL0     C22642   4.335   4.286   3.968 -0.3656  0.3139  0.0209
  165MOL0     C22643   4.463   4.260   4.043  0.0490  0.8941  0.5429
  165MOL0     C22644   4.585   4.296   3.954  0.1265 -0.2171 -0.0674
  165MOL0     C22645   4.717   4.278   4.037  0.2164 -0.1774 -0.3679
  165MOL0     C22646   4.860   4.314   3.969  0.6383  0.5766 -0.0217
  165MOL0     C22647   4.876   4.246   3.836 -0.4462 -0.8644 -0.8321
  165MOL0     C22648   5.003   4.290   3.768  0.3722 -0.3900 -0.5223
  165MOL0     N22649   5.011   4.430   3.725  0.4313 -0.7453  0.1782
  165MOL0     C22650   4.926   4.495   3.628  0.9642 -0.0567 -0.1355
  165MOL0     C22651   4.967   4.618   3.610 -0.9162 -1.0014 -0.3257
  165MOL0     C22652   4.927   4.717   3.500  0.4158  0.1446 -0.1468
  165MOL0     C22653   4.950   4.664   3.356  0.3392 -0.0440 -1.2122
  165MOL0     C22654   5.103   4.632   3.328  0.0572  0.3088 -0.0454
  165MOL0     C22655   5.192   4.755   3.365  0.5402 -0.6683 -0.3467
  165MOL0     O22656   5.324   4.738   3.313  0.0365 -0.0274 -0.0499
  165MOL0     C22657   5.405   4.647   3.370 -0.4745  1.2798 -1.1162
  165MOL0     C22658   5.532   4.637   3.315  0.1240 -0.4022 -0.2300
  165MOL0     C22659   5.643   4.584   3.381  0.0343  0.0360 -0.1528
  165MOL0     C22660   5.775   4.606   3.310 -0.3425 -0.7888  0.3627
  165MOL0     C22661   5.627   4.517   3.506  0.8949 -0.2833  0.3082
  165MOL0     C22662   5.728   4.428   3.564 -0.3159  0.3332  0.2588
  165MOL0     O22663   5.825   4.367   3.487 -0.4315 -0.8508 -0.8702
  165MOL0     C22664   5.911   4.276   3.542  0.8555  0.2892  0.2678
  165MOL0     C22665   6.051   4.297   3.523  1.0072  0.2879 -0.9756
  165MOL0     C22666   6.149   4.203   3.575 -0.2382 -0.5866  0.2265
  165MOL0     C22667   6.100   4.089   3.638  1.1679 -0.2231  0.1994
  165MOL0     O22668   6.183   3.994   3.700 -0.1192  0.0421 -0.4682
  165MOL0     C22669   6.324   4.024   3.732  0.6631 -0.2924  0.2358
  165MOL0     C22670   6.372   3.932   3.849 -0.0303 -0.2655 -0.0669
  165MOL0     C22671   6.492   3.858   3.795  0.7039  0.1158 -0.3849
  165MOL0     C22672   6.526   3.732   3.884  0.3781  0.0840 -0.6808
  165MOL0     C22673   6.574   3.609   3.809 -0.2979 -0.2572  1.0953
  165MOL0     C22674   6.589   3.496   3.903 -0.2520  0.1930  0.2214
  165MOL0     C22675   6.604   3.352   3.845 -0.3310 -0.2620  0.3854
  165MOL0     C22676   6.752   3.337   3.810 -0.0226  0.4558 -0.2348
  165MOL0    Cl22677   6.787   3.173   3.755 -0.0440 -0.2066  0.3108
  165MOL0     C22678   5.963   4.067   3.644  0.1455 -0.0071 -0.4527
  165MOL0     C22679   5.871   4.159   3.595  0.3219 -0.0444  0.1547
  165MOL0     O22680   5.712   4.397   3.681 -0.6210  0.3441 -0.2882
  165MOL0     C22681   5.498   4.525   3.561  0.0326  0.4756  0.0628
  165MOL0     C22682   5.390   4.583   3.498 -0.3828  0.5555  1.1806
  165MOL0     N22683   5.077   4.638   3.694  0.4005  0.2133 -0.3414
  165MOL0     N22684   5.101   4.527   3.763 -0.2035  0.5081 -1.0890
  165MOL0     C22685   4.067   4.296   4.370  0.6154  0.2614 -0.5720
  165MOL0     C22686   3.990   4.233   4.466  0.1461 -0.2055  0.7092
  165MOL0     C22687   3.722   4.019   4.698 -1.2502 -0.9060  1.0245
  165MOL0     C22688   3.662   4.024   4.823 -0.1344 -0.4838 -0.2943
  165MOL0     C22689   3.549   3.957   4.859 -0.4227 -0.0695  0.2583
  165MOL0     C22690   3.492   3.874   4.764 -0.0252  0.2356 -0.1861
  165MOL0     O22691   3.376   3.794   4.781 -0.2195 -0.0144  0.1788
  165MOL0     C22692   3.307   3.788   4.907 -0.2572  0.1839 -0.4154
  165MOL0     C22693   3.191   3.894   4.922  0.0128  0.3808  0.2749
  165MOL0     C22694   3.081   3.862   4.830  1.2346 -0.1494  0.6312
  165MOL0     C22695   3.000   3.976   4.774  0.5625  0.1060 -0.1047
  165MOL0     C22696   2.920   3.926   4.658 -0.1606  0.3366 -0.2062
  165MOL0     C22697   2.857   3.869   4.563  0.2384 -0.5647 -0.1249
  165MOL0     C22698   3.547   3.867   4.642  0.1229  0.0687 -0.4155
  165MOL0     C22699   3.650   3.954   4.602 -0.1155 -0.4722  0.0926
  165MOL0     C22700   3.683   3.954   4.455  0.1216 -0.2472 -0.2098
  165MOL0     H22701   4.119   3.920   4.444 -2.3527 -0.5783 -1.7128
  165MOL0     H22702   4.254   4.033   4.272  0.8672  0.7843  2.8747
  165MOL0     H22703   4.132   4.254   3.995  2.0845  0.5250 -2.7612
  165MOL0     H22704   4.220   4.122   4.067  1.1007  0.3504  1.6760
  165MOL0     H22705   4.335   4.224   3.879 -1.9116  0.6609 -0.2389
  165MOL0     H22706   4.313   4.390   3.942 -3.7416 -0.3301 -0.0955
  165MOL0     H22707   4.472   4.318   4.135  0.6551  0.5970  0.6744
  165MOL0     H22708   4.462   4.153   4.065 -0.3340  0.7306 -0.2056
  165MOL0     H22709   4.579   4.236   3.863  1.4904  0.4836 -0.6498
  165MOL0     H22710   4.576   4.402   3.928 -0.8295 -0.5706 -1.2375
  165MOL0     H22711   4.711   4.174   4.071 -0.9046 -0.2118 -0.6453
  165MOL0     H22712   4.712   4.328   4.134 -1.7934 -1.7359  0.4039
  165MOL0     H22713   4.848   4.421   3.952 -1.9497 -0.2105 -4.6630
  165MOL0     H22714   4.945   4.287   4.033  1.6404 -2.3948 -2.3859
  165MOL0     H22715   4.791   4.273   3.774  0.5186  4.0047 -0.4298
  165MOL0     H22716   4.872   4.137   3.839 -1.5879 -0.8852  3.4534
  165MOL0     H22717   5.088   4.268   3.833 -0.6970 -0.4996  0.8966
  165MOL0     H22718   5.013   4.239   3.672  1.1455  2.9288 -2.3909
  165MOL0     H22719   4.846   4.452   3.569  1.4559 -0.9573 -0.1606
  165MOL0     H22720   4.982   4.809   3.523 -0.4471  0.6188  0.0539
  165MOL0     H22721   4.821   4.741   3.516  0.5387 -0.4345  1.7483
  165MOL0     H22722   4.898   4.568   3.353 -0.6925  0.3271  1.4583
  165MOL0     H22723   4.913   4.734   3.280 -2.1238  2.5779  2.0849
  165MOL0     H22724   5.140   4.544   3.381  1.3334  0.1811 -1.0812
  165MOL0     H22725   5.101   4.610   3.221 -0.9455 -1.2816  0.2689
  165MOL0     H22726   5.149   4.850   3.331 -1.6430 -1.2027  0.7294
  165MOL0     H22727   5.199   4.766   3.473  0.9516 -0.2985 -0.4073
  165MOL0     H22728   5.552   4.691   3.223 -0.0943 -0.6656 -0.4347
  165MOL0     H22729   5.778   4.689   3.239  0.5560 -0.4855  0.7416
  165MOL0     H22730   5.806   4.515   3.258  1.0652 -1.5702  2.4920
  165MOL0     H22731   5.857   4.618   3.381  1.0169 -3.5995 -0.5734
  165MOL0     H22732   6.079   4.384   3.465  0.7105 -0.4454 -2.2745
  165MOL0     H22733   6.253   4.234   3.581 -1.1969  2.8306  2.9943
  165MOL0     H22734   6.389   4.005   3.646  1.7400 -1.1249  1.1914
  165MOL0     H22735   6.333   4.128   3.764  2.2825 -0.9138  2.0290
  165MOL0     H22736   6.393   3.992   3.938 -0.7493  2.1682 -1.4353
  165MOL0     H22737   6.292   3.864   3.881 -0.3936  0.0894 -0.2178
  165MOL0     H22738   6.575   3.928   3.784 -0.0213  0.7447 -2.2912
  165MOL0     H22739   6.477   3.816   3.695 -0.2237 -1.6283  0.4327
  165MOL0     H22740   6.433   3.701   3.933  0.1552  2.5289  0.5471
  165MOL0     H22741   6.603   3.760   3.956  1.2962  0.0766 -1.6325
  165MOL0     H22742   6.498   3.583   3.735  0.4755  3.5577 -1.3861
  165MOL0     H22743   6.669   3.641   3.765 -0.0483 -1.2304  0.9221
  165MOL0     H22744   6.499   3.492   3.966 -2.2737  0.0866 -2.5151
  165MOL0     H22745   6.679   3.520   3.960  0.1968  0.4665 -0.6066
  165MOL0     H22746   6.530   3.336   3.765  0.4541  1.2028 -0.6907
  165MOL0     H22747   6.578   3.291   3.931 -1.1450  0.6666  0.8265
  165MOL0     H22748   6.807   3.368   3.900  0.4054 -0.8496 -0.0263
  165MOL0     H22749   6.782   3.405   3.729 -2.0039  1.6665 -0.0195
  165MOL0     H22750   5.922   3.979   3.694 -2.6280  1.6893  0.4386
  165MOL0     H22751   5.764   4.140   3.601  0.5438 -1.3457  0.4707
  165MOL0     H22752   5.477   4.480   3.658  1.2037  3.1587  1.6529
  165MOL0     H22753   5.295   4.587   3.551 -1.4363 -1.6764 -0.4165
  165MOL0     H22754   4.065   4.404   4.370  1.5327  0.2818 -0.5766
  165MOL0     H22755   3.929   4.302   4.522 -1.5334 -0.2587 -0.9490
  165MOL0     H22756   3.718   4.055   4.910 -0.6509  0.0783 -0.1593
  165MOL0     H22757   3.524   3.956   4.964 -1.5408 -1.6183  0.0154
  165MOL0     H22758   3.256   3.692   4.911  2.8592 -1.5827 -0.0601
  165MOL0     H22759   3.374   3.795   4.993  2.2150 -2.7856 -1.8925
  165MOL0     H22760   3.232   3.994   4.906 -1.2954  0.9705  0.4870
  165MOL0     H22761   3.147   3.898   5.022  0.0184  1.9138  0.2305
  165MOL0     H22762   3.122   3.807   4.745 -0.8279 -1.5737  0.4923
  165MOL0     H22763   3.011   3.794   4.880 -0.0701 -2.4987 -3.8635
  165MOL0     H22764   3.064   4.059   4.743 -0.3858 -0.2737 -3.4698
  165MOL0     H22765   2.930   4.010   4.851 -0.6575  1.2546 -1.6531
  165MOL0     H22766   2.783   3.820   4.503 -0.3334 -1.5240  1.3367
  165MOL0     H22767   3.492   3.811   4.567  1.1724 -2.7896  0.8024
  165MOL0     H22768   3.596   3.916   4.400 -0.6295 -1.5486  1.7706
  165MOL0     H22769   3.697   4.059   4.428 -1.8292  0.3173  0.7703
  165MOL0     H22770   3.767   3.885   4.438  1.2785  0.9939  0.2453
  166MOL0     O22771   5.157   0.250  10.469 -0.8006  0.0159  0.2040
  166MOL0     C22772   5.072   0.279  10.553  0.6894  0.2299 -0.0624
  166MOL0     O22773   5.095   0.262  10.684  0.4505  0.0449 -0.3355
  166MOL0     C22774   5.187   0.174  10.731 -1.0255 -0.2446  0.5581
  166MOL0     C22775   5.177   0.037  10.690 -0.1607 -1.3879  0.1378
  166MOL0     C22776   5.268  -0.054  10.740  0.6208 -1.7738 -0.8436
  166MOL0     C22777   5.368  -0.021  10.832  0.4849 -0.3175  0.0308
  166MOL0     O22778   5.460  -0.106  10.888 -0.0104  0.4291 -0.2838
  166MOL0     C22779   5.451  -0.247  10.847 -0.1384  0.3532  0.5612
  166MOL0     C22780   5.529  -0.333  10.948  0.3104  0.4129  0.8472
  166MOL0     C22781   5.677  -0.311  10.921  0.1620 -0.1440 -0.2940
  166MOL0     C22782   5.761  -0.395  11.017 -0.9709 -0.5431  0.5803
  166MOL0     C22783   5.911  -0.366  11.019 -1.0645  0.3102  0.7323
  166MOL0     C22784   5.975  -0.330  10.875  0.4198 -0.0281 -0.6253
  166MOL0     C22785   6.123  -0.328  10.885  0.5237  0.0158 -0.8017
  166MOL0     C22786   6.180  -0.233  10.989 -0.0561  0.1708  0.3171
  166MOL0     N22787   6.322  -0.198  10.974  0.1490  0.4632  0.9281
  166MOL0     C22788   6.425  -0.290  10.963  0.1848 -0.1558  0.3182
  166MOL0     C22789   6.538  -0.217  10.976  0.3424 -0.0412  0.4889
  166MOL0     C22790   6.675  -0.284  10.976  0.7351 -0.5720  0.0417
  166MOL0     C22791   6.797  -0.187  11.002  0.8215  0.2606  0.1385
  166MOL0     C22792   6.911  -0.257  11.077  1.3184 -0.0208  0.2829
  166MOL0     C22793   7.043  -0.191  11.058 -0.7184  0.5335 -0.1667
  166MOL0     O22794   7.136  -0.300  11.044 -0.4651  0.2106  0.2044
  166MOL0     C22795   7.269  -0.290  11.047  0.2973  0.0499  0.8044
  166MOL0     C22796   7.328  -0.164  11.049  1.2177  0.2418  0.5126
  166MOL0     C22797   7.461  -0.143  11.052  0.9591 -0.9092  0.3592
  166MOL0     C22798   7.512   0.002  11.044  0.3174  0.2080  0.3878
  166MOL0     C22799   7.548  -0.252  11.055  0.8251  0.4019  0.6967
  166MOL0     C22800   7.700  -0.249  11.057 -0.1390  0.7255 -0.2277
  166MOL0     O22801   7.757  -0.370  11.065  0.1209 -0.2244 -0.0132
  166MOL0     C22802   7.879  -0.386  11.021  0.2497  0.4678 -0.9992
  166MOL0     C22803   7.935  -0.317  10.908  0.2815  0.3988 -1.5420
  166MOL0     C22804   8.062  -0.348  10.872 -0.7088  0.1827  0.6056
  166MOL0     C22805   8.133  -0.448  10.943  0.6201 -0.1786 -0.6284
  166MOL0     O22806   8.258  -0.465  10.898  0.2833  0.4967 -0.0295
  166MOL0     C22807   8.364  -0.436  10.990 -0.0232  0.2152  0.4216
  166MOL0     C22808   8.466  -0.350  10.900  0.0327 -0.2614 -0.1976
  166MOL0     C22809   8.551  -0.434  10.799  0.9263 -0.6759 -0.1650
  166MOL0     C22810   8.480  -0.444  10.663 -0.1476  0.2388  0.0234
  166MOL0     C22811   8.579  -0.495  10.556 -0.3887  0.9572 -0.4203
  166MOL0     C22812   8.495  -0.515  10.423  0.1594 -1.3014  1.3239
  166MOL0     C22813   8.577  -0.602  10.333 -0.7880 -0.1996  0.3543
  166MOL0     C22814   8.618  -0.514  10.203 -0.1478  0.6755  0.6471
  166MOL0    Cl22815   8.749  -0.576  10.103  0.5550 -0.1149  0.4816
  166MOL0     C22816   8.080  -0.512  11.054  0.3931  0.2087  0.1783
  166MOL0     C22817   7.956  -0.473  11.100 -0.2179  0.4271  0.1049
  166MOL0     O22818   7.749  -0.139  11.048 -0.3735 -0.7636  0.1320
  166MOL0     C22819   7.491  -0.381  11.050 -1.2882 -0.3863 -0.3003
  166MOL0     C22820   7.358  -0.398  11.042  0.4278 -0.0664 -0.4256
  166MOL0     N22821   6.505  -0.079  10.966 -0.3304 -0.1255 -0.3296
  166MOL0     N22822   6.369  -0.074  10.957 -1.1069  0.8459  0.3653
  166MOL0     C22823   5.376   0.110  10.878  0.7654  0.1785 -1.0651
  166MOL0     C22824   5.283   0.207  10.825  0.2951 -0.0104  1.4926
  166MOL0     C22825   4.939   0.344  10.515 -0.5736 -0.7507  0.2864
  166MOL0     C22826   4.848   0.355  10.620  0.8625  0.3068 -0.2903
  166MOL0     C22827   4.712   0.392  10.603  0.3234 -1.1043  0.5659
  166MOL0     C22828   4.665   0.425  10.478 -0.0592  0.0476  0.5967
  166MOL0     O22829   4.533   0.449  10.435 -0.3671  0.5423 -0.4586
  166MOL0     C22830   4.438   0.464  10.539  0.6207  0.4065  0.9584
  166MOL0     C22831   4.312   0.524  10.469  0.0690  0.1975  0.8459
  166MOL0     C22832   4.192   0.555  10.565  0.7178 -0.0078  0.2537
  166MOL0     C22833   4.087   0.642  10.494  0.4451  0.0282 -0.2638
  166MOL0     C22834   3.945   0.604  10.516  0.2079 -1.3819 -0.2376
  166MOL0     C22835   3.837   0.560  10.519 -0.6087 -0.0800  0.5747
  166MOL0     C22836   4.760   0.419  10.375  0.6315 -0.3971  0.3392
  166MOL0     C22837   4.896   0.378  10.389  0.2116  0.0342 -0.0297
  166MOL0     C22838   4.985   0.367  10.266  0.5829  0.6954 -0.3824
  166MOL0     H22839   5.101   0.001  10.621 -0.4619 -1.7277  0.6429
  166MOL0     H22840   5.259  -0.156  10.703 -3.5962 -2.2700  1.0207
  166MOL0     H22841   5.477  -0.270  10.743 -0.6987  0.5584  0.3766
  166MOL0     H22842   5.346  -0.276  10.857 -0.4607  0.5194 -1.8540
  166MOL0     H22843   5.501  -0.307  11.050  1.4360  1.9826  0.8027
  166MOL0     H22844   5.504  -0.438  10.933 -0.1378  0.4608  1.2678
  166MOL0     H22845   5.707  -0.331  10.818 -0.9582 -2.6491 -0.2171
  166MOL0     H22846   5.702  -0.208  10.949 -0.7911  0.5705 -1.9193
  166MOL0     H22847   5.737  -0.374  11.122  3.1630 -1.6330  1.9255
  166MOL0     H22848   5.743  -0.498  10.986 -2.1739  0.3408 -1.8999
  166MOL0     H22849   5.957  -0.462  11.045  0.7309  0.8797 -0.1843
  166MOL0     H22850   5.945  -0.291  11.091 -0.1114 -2.1396  3.0223
  166MOL0     H22851   5.955  -0.406  10.799 -0.4059  1.4944 -1.9975
  166MOL0     H22852   5.938  -0.239  10.828 -1.7980 -1.0694 -0.9924
  166MOL0     H22853   6.166  -0.279  10.797  2.3555 -2.8740 -1.6653
  166MOL0     H22854   6.162  -0.429  10.896 -0.7132 -0.5229 -1.2256
  166MOL0     H22855   6.117  -0.144  11.003 -2.3114 -0.7184 -2.8423
  166MOL0     H22856   6.185  -0.286  11.085 -0.3928 -2.7648 -1.1770
  166MOL0     H22857   6.418  -0.398  10.962  1.2497 -0.2422 -1.1359
  166MOL0     H22858   6.685  -0.320  10.873 -2.0157  0.0036 -0.5033
  166MOL0     H22859   6.678  -0.370  11.043  3.8390 -0.8015 -0.2172
  166MOL0     H22860   6.830  -0.151  10.904 -1.6882  1.0731 -0.4776
  166MOL0     H22861   6.757  -0.106  11.064 -0.1483  0.8843 -1.2484
  166MOL0     H22862   6.894  -0.263  11.185  1.9269 -1.2323  0.3200
  166MOL0     H22863   6.930  -0.358  11.041  3.1290  1.8765 -5.0557
  166MOL0     H22864   7.048  -0.145  10.959  3.2707  3.1816  1.0238
  166MOL0     H22865   7.077  -0.126  11.140 -0.5401 -0.8575  0.9011
  166MOL0     H22866   7.260  -0.080  11.040 -1.2187 -1.4340  2.1711
  166MOL0     H22867   7.586   0.028  10.968 -0.5614 -0.6810 -0.8150
  166MOL0     H22868   7.558   0.029  11.140  1.6102  0.4211 -0.2636
  166MOL0     H22869   7.424   0.064  11.026 -0.4426 -1.1092 -0.6125
  166MOL0     H22870   7.875  -0.250  10.848  1.6989  0.7467 -2.6184
  166MOL0     H22871   8.102  -0.305  10.781  1.1471 -0.6422  0.9831
  166MOL0     H22872   8.318  -0.385  11.075  0.7634  1.3945  0.1683
  166MOL0     H22873   8.395  -0.535  11.025 -1.5322 -0.2427  0.5209
  166MOL0     H22874   8.412  -0.266  10.854  3.2424 -0.2479 -4.5301
  166MOL0     H22875   8.534  -0.310  10.976 -2.5342 -0.2407  2.2913
  166MOL0     H22876   8.571  -0.533  10.842  1.2787 -1.0252 -1.1060
  166MOL0     H22877   8.645  -0.381  10.779  1.7238 -1.2274  1.8518
  166MOL0     H22878   8.459  -0.346  10.618 -0.7438 -0.6796 -1.7939
  166MOL0     H22879   8.388  -0.496  10.691  0.0128  2.2768  5.7850
  166MOL0     H22880   8.664  -0.428  10.541 -0.4297  0.4168 -4.1630
  166MOL0     H22881   8.621  -0.588  10.595 -1.5852  0.0809 -1.1266
  166MOL0     H22882   8.466  -0.419  10.379  5.2270 -0.0514  0.1699
  166MOL0     H22883   8.409  -0.580  10.445  0.0143 -1.0303  1.5549
  166MOL0     H22884   8.527  -0.691  10.291 -0.7238  0.2510 -0.7164
  166MOL0     H22885   8.661  -0.654  10.380 -0.9766 -1.6358 -0.8051
  166MOL0     H22886   8.665  -0.422  10.242 -0.8457  1.7050 -0.8523
  166MOL0     H22887   8.533  -0.487  10.139  0.5238 -0.0116 -0.5496
  166MOL0     H22888   8.132  -0.589  11.109 -0.0050 -0.5262 -0.4611
  166MOL0     H22889   7.912  -0.523  11.186  0.8676 -2.2504 -0.7782
  166MOL0     H22890   7.547  -0.474  11.057  0.4556  0.7555  2.3067
  166MOL0     H22891   7.314  -0.498  11.044 -0.2993  0.1686 -2.3886
  166MOL0     H22892   5.450   0.144  10.950 -1.4678 -0.1977  1.5749
  166MOL0     H22893   5.285   0.314  10.842 -0.3119  0.3597 -0.5393
  166MOL0     H22894   4.883   0.309  10.712  2.1147 -0.2513 -1.0217
  166MOL0     H22895   4.654   0.388  10.694  1.4632  2.4683  1.6127
  166MOL0     H22896   4.409   0.372  10.590 -0.6251  0.0990 -0.2547
  166MOL0     H22897   4.454   0.534  10.622 -3.2865 -0.9743  3.1185
  166MOL0     H22898   4.285   0.461  10.384  2.0551  1.8358 -1.1029
  166MOL0     H22899   4.343   0.624  10.440  0.1471  0.5133  1.9640
  166MOL0     H22900   4.151   0.459  10.599  1.5034 -0.8916 -1.1854
  166MOL0     H22901   4.238   0.597  10.655  1.7601 -1.3003  0.3602
  166MOL0     H22902   4.101   0.617  10.389 -1.5348 -3.1578  0.0875
  166MOL0     H22903   4.109   0.748  10.507 -1.2996  0.3905 -0.1295
  166MOL0     H22904   3.738   0.527  10.545 -1.6435  3.3013  1.4490
  166MOL0     H22905   4.737   0.443  10.272 -1.1877  0.1029  0.8364
  166MOL0     H22906   4.995   0.265  10.227 -2.0037  0.9235 -1.8255
  166MOL0     H22907   4.931   0.413  10.182  0.3436  0.2889 -0.4527
  166MOL0     H22908   5.080   0.422  10.266  0.5699  0.7173 -0.3510
  167MOL0     O22909  10.331   9.135   8.925 -0.1582 -0.1250 -0.1180
  167MOL0     C22910  10.230   9.214   8.915 -0.0631  0.1010 -0.3797
  167MOL0     O22911  10.219   9.324   9.002 -0.3137  0.2470  0.0170
  167MOL0     C22912  10.268   9.307   9.127 -0.6847  0.0585 -0.1258
  167MOL0     C22913  10.400   9.337   9.144  0.8001  0.0773 -0.1375
  167MOL0     C22914  10.463   9.300   9.263  0.0413 -0.1796 -0.3540
  167MOL0     C22915  10.388   9.233   9.358  0.2838  1.0112 -0.3782
  167MOL0     O22916  10.443   9.182   9.476  0.0017 -0.8091 -0.0894
  167MOL0     C22917  10.531   9.072   9.478 -0.0738 -0.6238  0.8034
  167MOL0     C22918  10.645   9.102   9.579 -0.2458  0.0585  0.2015
  167MOL0     C22919  10.656   8.978   9.669  0.0916  1.0930  0.9232
  167MOL0     C22920  10.745   9.005   9.784 -0.3824  0.0697  0.5792
  167MOL0     C22921  10.838   8.890   9.824 -0.1535 -0.0632  0.2264
  167MOL0     C22922  10.938   8.829   9.726 -0.6606  0.3159  0.1174
  167MOL0     C22923  10.972   8.690   9.777 -0.1427  0.7476  0.5488
  167MOL0     C22924  11.091   8.628   9.707 -0.6681 -0.5052  0.5933
  167MOL0     N22925  11.227   8.660   9.763 -0.3669  0.2112  0.5675
  167MOL0     C22926  11.345   8.699   9.697 -1.1106  0.4996 -0.3040
  167MOL0     C22927  11.442   8.688   9.788 -0.5962  0.4507  0.3111
  167MOL0     C22928  11.590   8.738   9.764 -0.0340  0.0101 -0.6378
  167MOL0     C22929  11.674   8.621   9.705 -0.9870 -0.3245 -0.2677
  167MOL0     C22930  11.721   8.524   9.818  0.2121  0.0683 -0.0801
  167MOL0     C22931  11.807   8.410   9.760 -0.1913  0.1676  0.7208
  167MOL0     O22932  11.937   8.463   9.739  0.6701  0.4487 -0.6090
  167MOL0     C22933  12.038   8.368   9.718  0.5481 -0.2144 -0.0846
  167MOL0     C22934  12.100   8.311   9.832  0.3986  0.3001  0.6550
  167MOL0     C22935  12.213   8.223   9.820 -1.2766 -0.1348 -0.7453
  167MOL0     C22936  12.291   8.185   9.940  0.5286  0.7627 -0.1195
  167MOL0     C22937  12.246   8.181   9.694 -0.1650 -0.3805 -0.1897
  167MOL0     C22938  12.353   8.076   9.668  0.5070 -0.1448  0.4868
  167MOL0     O22939  12.475   8.097   9.721 -0.1627  0.1911  0.0014
  167MOL0     C22940  12.564   7.989   9.710  0.4817 -0.7893  0.0910
  167MOL0     C22941  12.547   7.873   9.781 -0.6733  0.6300 -0.3092
  167MOL0     C22942  12.650   7.778   9.781  0.6094 -0.5135  0.4750
  167MOL0     C22943  12.765   7.795   9.707 -1.3563 -0.0506 -0.4654
  167MOL0     O22944  12.857   7.695   9.698 -0.1404 -0.0985  0.5202
  167MOL0     C22945  12.903   7.667   9.568  0.0358 -0.4265  0.9484
  167MOL0     C22946  12.960   7.514   9.565  1.1718  0.0143  0.4723
  167MOL0     C22947  13.023   7.468   9.437  0.9968  0.5187  0.1842
  167MOL0     C22948  13.153   7.541   9.398  0.2167  0.5290 -0.5919
  167MOL0     C22949  13.225   7.470   9.290  0.1795 -0.3778  0.5557
  167MOL0     C22950  13.146   7.453   9.162  0.1624  0.0248  0.4425
  167MOL0     C22951  13.233   7.434   9.040  0.7238 -0.6680  0.2541
  167MOL0     C22952  13.146   7.437   8.912 -0.1697 -0.8239  0.2318
  167MOL0    Cl22953  13.230   7.405   8.764 -0.1663  0.3787 -0.0143
  167MOL0     C22954  12.784   7.917   9.638  0.3901  0.4405 -0.1647
  167MOL0     C22955  12.674   8.013   9.637  0.1722  0.0548 -0.2911
  167MOL0     O22956  12.316   7.974   9.607 -0.9312 -0.7633  0.7927
  167MOL0     C22957  12.188   8.241   9.582 -0.9698  0.8850  0.2208
  167MOL0     C22958  12.081   8.330   9.591 -0.2744  0.6722  0.1273
  167MOL0     N22959  11.384   8.662   9.909 -0.2306 -0.5681  0.7025
  167MOL0     N22960  11.258   8.643   9.889  0.2625  0.2509 -0.2385
  167MOL0     C22961  10.246   9.212   9.344 -0.8424  0.2801 -0.2491
  167MOL0     C22962  10.194   9.246   9.224  0.1137  0.5590  0.1620
  167MOL0     C22963  10.129   9.190   8.811 -0.4437 -0.6704 -0.7563
  167MOL0     C22964  10.042   9.300   8.796  0.0179 -0.2912  0.3274
  167MOL0     C22965   9.949   9.300   8.696  0.4397  0.2463  0.0956
  167MOL0     C22966   9.931   9.188   8.608 -0.3153 -0.2190  0.2446
  167MOL0     O22967   9.844   9.195   8.506  0.7976  0.0011 -1.0250
  167MOL0     C22968   9.851   9.097   8.409  0.7624  0.8938  1.1863
  167MOL0     C22969   9.763   9.110   8.282  0.1667  0.8471  0.0571
  167MOL0     C22970   9.814   9.221   8.191 -0.1596  0.0567 -0.3546
  167MOL0     C22971   9.770   9.360   8.242 -0.6453 -0.4602  1.4042
  167MOL0     C22972   9.783   9.463   8.132  0.1680 -0.0830 -0.7938
  167MOL0     C22973   9.791   9.538   8.044  0.0720  0.1790 -0.4347
  167MOL0     C22974  10.018   9.079   8.627 -0.3088  0.4611 -0.3321
  167MOL0     C22975  10.113   9.085   8.725  0.2919  1.5834 -0.0752
  167MOL0     C22976  10.207   8.968   8.724  0.1749 -0.3304  0.1865
  167MOL0     H22977  10.451   9.394   9.067  0.8161  0.6406  0.2828
  167MOL0     H22978  10.569   9.315   9.282 -0.3271  0.4674  1.3265
  167MOL0     H22979  10.587   9.052   9.386  1.9374  0.4838  1.7302
  167MOL0     H22980  10.476   8.984   9.514 -1.3764  0.4976  1.6502
  167MOL0     H22981  10.741   9.119   9.530  0.6039 -2.6622  0.7555
  167MOL0     H22982  10.617   9.188   9.640 -1.1470  0.4118 -0.6659
  167MOL0     H22983  10.558   8.957   9.715  1.9653  1.1038  5.4724
  167MOL0     H22984  10.690   8.894   9.608 -4.3518  0.2449 -0.7541
  167MOL0     H22985  10.808   9.089   9.751 -1.7409  1.0213  0.3515
  167MOL0     H22986  10.682   9.042   9.865  1.1501 -0.9638  2.3290
  167MOL0     H22987  10.778   8.805   9.859 -0.8071 -0.7375 -2.2982
  167MOL0     H22988  10.910   8.925   9.898  1.2671 -2.3415  0.0410
  167MOL0     H22989  10.899   8.807   9.626 -0.0318 -1.4960  0.2315
  167MOL0     H22990  11.028   8.890   9.710  1.0236 -1.2206  2.8568
  167MOL0     H22991  10.888   8.622   9.758 -0.7965  2.2913 -2.7963
  167MOL0     H22992  10.994   8.682   9.884  2.2801  1.3658  0.1651
  167MOL0     H22993  11.086   8.519   9.704 -0.3325 -0.5184 -2.0349
  167MOL0     H22994  11.091   8.659   9.602 -1.2128 -2.8842 -0.1692
  167MOL0     H22995  11.351   8.732   9.594 -2.3781  0.0958 -0.5274
  167MOL0     H22996  11.638   8.770   9.857  2.9666 -1.4599 -1.5581
  167MOL0     H22997  11.604   8.825   9.700  1.3575  0.5025  0.3016
  167MOL0     H22998  11.618   8.565   9.630 -1.7729 -0.0098  0.0800
  167MOL0     H22999  11.760   8.667   9.655 -0.2290 -0.8595  0.5176
  167MOL0     H23000  11.784   8.570   9.895  0.3355  0.3774 -0.3675
  167MOL0     H23001  11.631   8.488   9.869  0.4521 -1.0117 -0.3732
  167MOL0     H23002  11.819   8.324   9.827 -2.2537 -1.2150 -0.5545
  167MOL0     H23003  11.766   8.377   9.664  1.3637  0.0007  0.0907
  167MOL0     H23004  12.067   8.337   9.932  1.5433  0.8105  0.9127
  167MOL0     H23005  12.252   8.238  10.028 -1.6850  0.1302 -0.6594
  167MOL0     H23006  12.400   8.193   9.938  0.4664  1.7440 -0.3196
  167MOL0     H23007  12.270   8.082   9.969  1.9456  0.4121 -0.2718
  167MOL0     H23008  12.458   7.859   9.841 -2.6554 -2.6004 -3.6221
  167MOL0     H23009  12.639   7.694   9.848 -0.7760  1.3447  2.7213
  167MOL0     H23010  12.825   7.662   9.491  1.6882 -0.9713 -0.7920
  167MOL0     H23011  12.981   7.739   9.541 -1.3751  0.9401  0.3870
  167MOL0     H23012  13.042   7.519   9.637  2.6545  1.0475 -1.2327
  167MOL0     H23013  12.880   7.446   9.597  0.6820  0.5542  0.4106
  167MOL0     H23014  12.944   7.469   9.361  1.1145 -1.8430 -0.0180
  167MOL0     H23015  13.042   7.361   9.449 -3.9439 -1.0497 -2.8888
  167MOL0     H23016  13.221   7.557   9.483 -0.6107 -1.3620  0.4690
  167MOL0     H23017  13.123   7.638   9.357  0.7394  1.9777  2.1830
  167MOL0     H23018  13.319   7.523   9.272  0.5785 -1.1984  0.1628
  167MOL0     H23019  13.254   7.367   9.316  1.1040 -0.2006  0.2665
  167MOL0     H23020  13.083   7.542   9.148  2.4242  1.5976 -0.3249
  167MOL0     H23021  13.081   7.368   9.184  2.6140 -1.3527  2.9399
  167MOL0     H23022  13.308   7.355   9.044  0.8005 -0.6020  0.1284
  167MOL0     H23023  13.289   7.527   9.041 -0.7543  0.2646  0.2086
  167MOL0     H23024  13.103   7.537   8.907  5.9373  2.2800 -0.2232
  167MOL0     H23025  13.062   7.368   8.923 -1.1507  0.3972  0.4688
  167MOL0     H23026  12.870   7.952   9.583  0.4101  3.3200  1.4767
  167MOL0     H23027  12.673   8.113   9.594 -1.2501 -0.0212 -0.4829
  167MOL0     H23028  12.222   8.223   9.480 -1.0237  2.6250 -0.1378
  167MOL0     H23029  12.037   8.374   9.502  0.8267  2.4085  0.3940
  167MOL0     H23030  10.194   9.166   9.428  2.8962 -3.1543  0.5300
  167MOL0     H23031  10.091   9.225   9.197  0.2279  0.4357 -0.1848
  167MOL0     H23032  10.041   9.389   8.858 -0.6625 -2.0381  2.9560
  167MOL0     H23033   9.880   9.382   8.679  0.4388  0.1095 -0.6206
  167MOL0     H23034   9.954   9.077   8.377  0.5939  1.3130  0.3571
  167MOL0     H23035   9.817   9.004   8.456  0.9347  1.2817  2.0959
  167MOL0     H23036   9.662   9.133   8.318  0.5827  3.3882 -0.1931
  167MOL0     H23037   9.753   9.017   8.225 -0.6264  0.7796  0.2860
  167MOL0     H23038   9.922   9.216   8.175 -0.2361  0.6748 -1.0694
  167MOL0     H23039   9.766   9.213   8.093 -0.7970 -0.2444 -0.0267
  167MOL0     H23040   9.830   9.398   8.325  0.8582  2.2552 -0.7457
  167MOL0     H23041   9.667   9.350   8.276 -0.0612  0.3564  3.5373
  167MOL0     H23042   9.810   9.617   7.974  1.8819  1.2335  1.1446
  167MOL0     H23043  10.023   8.994   8.561  1.2469  0.4188 -0.2014
  167MOL0     H23044  10.220   8.932   8.826  0.6371 -0.2437  0.1622
  167MOL0     H23045  10.176   8.879   8.668  1.3065 -1.4311  1.2319
  167MOL0     H23046  10.306   8.992   8.684 -1.1138  1.3591 -2.2346
  168MOL0     O23047   1.360   9.190   1.048  0.3422 -0.2561  0.6310
  168MOL0     C23048   1.338   9.186   1.165  1.3555 -0.3615  0.0768
  168MOL0     O23049   1.413   9.114   1.251  0.0883 -0.0707 -0.1103
  168MOL0     C23050   1.534   9.060   1.223 -0.2418  0.0055 -0.2322
  168MOL0     C23051   1.571   8.951   1.310 -0.0637  0.1356 -0.9199
  168MOL0     C23052   1.691   8.887   1.289 -0.3332 -0.7328 -0.2347
  168MOL0     C23053   1.787   8.927   1.194  0.6037 -0.4115 -0.1354
  168MOL0     O23054   1.904   8.858   1.183  0.5093  0.1114 -0.0877
  168MOL0     C23055   2.021   8.935   1.181 -0.2157  0.9204 -0.5716
  168MOL0     C23056   2.111   8.877   1.073  0.1686  0.2183 -0.1348
  168MOL0     C23057   2.256   8.936   1.063 -0.2695  0.3762  0.0591
  168MOL0     C23058   2.339   8.888   1.192 -0.2269  0.2312  0.2175
  168MOL0     C23059   2.479   8.934   1.193  0.0301  0.0086  0.3853
  168MOL0     C23060   2.538   8.898   1.325 -0.2658  0.2410 -0.0514
  168MOL0     C23061   2.681   8.940   1.338  0.2376  0.6245 -0.2957
  168MOL0     C23062   2.773   8.870   1.235 -0.6996  0.8155 -0.9858
  168MOL0     N23063   2.778   8.730   1.247 -0.8505  0.6866  0.5629
  168MOL0     C23064   2.681   8.647   1.191  0.4194 -0.2310 -0.4025
  168MOL0     C23065   2.731   8.523   1.223 -0.4755 -0.1401 -0.2142
  168MOL0     C23066   2.657   8.397   1.200  0.7702  0.4382  0.5606
  168MOL0     C23067   2.681   8.327   1.076  0.6093 -0.1141  0.8497
  168MOL0     C23068   2.598   8.202   1.049 -0.9090 -0.3132 -0.4014
  168MOL0     C23069   2.626   8.134   0.911  0.0296 -0.0853 -0.2764
  168MOL0     O23070   2.588   8.233   0.809 -0.6927  0.4305 -1.0470
  168MOL0     C23071   2.654   8.225   0.691  0.0739  0.9135  0.4419
  168MOL0     C23072   2.595   8.169   0.581  0.3626 -0.4057 -0.2205
  168MOL0     C23073   2.650   8.186   0.455  0.0867  0.3302 -0.7200
  168MOL0     C23074   2.581   8.123   0.341 -0.0662 -0.0883 -0.4602
  168MOL0     C23075   2.775   8.243   0.442 -0.9357 -0.4805 -0.0978
  168MOL0     C23076   2.848   8.266   0.315  0.5211  0.1715 -0.2485
  168MOL0     O23077   2.985   8.259   0.318 -0.2628 -0.0137  0.1996
  168MOL0     C23078   3.050   8.281   0.201  0.0434 -0.6820 -0.6840
  168MOL0     C23079   3.061   8.411   0.140 -0.3064 -0.2361 -0.1158
  168MOL0     C23080   3.140   8.425   0.021  0.3030 -0.2905 -0.2246
  168MOL0     C23081   3.221   8.325  -0.025 -0.3194  0.1691 -0.5412
  168MOL0     O23082   3.307   8.357  -0.130  0.2053  0.5187  0.3095
  168MOL0     C23083   3.389   8.255  -0.179  0.3991  0.3989 -0.3082
  168MOL0     C23084   3.491   8.308  -0.271 -0.3061 -1.2364  0.4102
  168MOL0     C23085   3.594   8.402  -0.186 -0.6015 -0.8247 -0.0329
  168MOL0     C23086   3.706   8.325  -0.120  0.3642 -0.8171 -0.2667
  168MOL0     C23087   3.840   8.390  -0.106 -0.9884 -0.6259  0.2433
  168MOL0     C23088   3.914   8.417  -0.244  1.3405 -0.0208 -1.0403
  168MOL0     C23089   4.053   8.484  -0.221 -1.1935 -0.0730  0.0439
  168MOL0     C23090   4.110   8.544  -0.355  0.8541 -0.0315 -0.1730
  168MOL0    Cl23091   4.155   8.412  -0.454 -0.3580  0.1226 -0.1578
  168MOL0     C23092   3.224   8.205   0.051 -0.2011 -0.3613 -0.4837
  168MOL0     C23093   3.142   8.182   0.166 -0.3429  0.6827  0.3921
  168MOL0     O23094   2.783   8.300   0.220 -0.3636 -0.5160 -0.3150
  168MOL0     C23095   2.847   8.289   0.555 -0.1118  0.3348  0.3701
  168MOL0     C23096   2.786   8.279   0.681  0.3863 -0.4461 -0.5654
  168MOL0     N23097   2.845   8.537   1.299 -0.5486 -0.1476  0.6847
  168MOL0     N23098   2.871   8.655   1.320  0.3387  0.5463  0.2618
  168MOL0     C23099   1.748   9.036   1.110 -0.0291  0.0593 -0.4696
  168MOL0     C23100   1.625   9.103   1.124 -0.0304  0.1133 -0.6377
  168MOL0     C23101   1.215   9.249   1.230 -0.3294  0.1515  0.3429
  168MOL0     C23102   1.208   9.259   1.373  0.3489  0.3429  1.1353
  168MOL0     C23103   1.102   9.316   1.440  1.0110  0.0338  0.3951
  168MOL0     C23104   0.986   9.367   1.373  0.1007  0.6315  0.5109
  168MOL0     O23105   0.867   9.405   1.439 -0.3784  0.1307  0.2115
  168MOL0     C23106   0.877   9.382   1.584 -0.3638  0.0497  0.4740
  168MOL0     C23107   0.738   9.408   1.653 -0.1343 -0.1628 -0.6519
  168MOL0     C23108   0.628   9.304   1.632  0.9796 -1.1375  0.0952
  168MOL0     C23109   0.490   9.371   1.669 -0.5829  0.4113  0.4885
  168MOL0     C23110   0.386   9.266   1.685 -0.0830 -0.4407  0.3007
  168MOL0     C23111   0.289   9.194   1.711 -0.5804 -0.6606  0.5346
  168MOL0     C23112   0.994   9.363   1.234 -0.2583  0.8535  0.0328
  168MOL0     C23113   1.100   9.311   1.166 -0.8657  0.6685 -0.0126
  168MOL0     C23114   1.093   9.315   1.018  0.7341  0.6568  0.2172
  168MOL0     H23115   1.510   8.931   1.397  2.0482  1.9188  1.1035
  168MOL0     H23116   1.707   8.804   1.358 -0.3576 -1.1651 -0.7468
  168MOL0     H23117   2.068   8.909   1.277 -2.0750  1.9522  0.6788
  168MOL0     H23118   2.019   9.043   1.162  1.2546  1.0869  0.0605
  168MOL0     H23119   2.128   8.771   1.094  0.6207  0.5882  1.4790
  168MOL0     H23120   2.063   8.892   0.976  2.0130 -2.0326 -1.5123
  168MOL0     H23121   2.298   8.898   0.970  0.7786 -2.7193  1.6546
  168MOL0     H23122   2.247   9.043   1.044  0.1367  0.0628 -2.1555
  168MOL0     H23123   2.288   8.929   1.279 -2.6361 -2.0101 -0.0123
  168MOL0     H23124   2.332   8.779   1.198  0.9329  0.1480  0.4453
  168MOL0     H23125   2.490   9.040   1.170  0.7065 -0.3809 -1.2369
  168MOL0     H23126   2.518   8.883   1.104 -3.0994  2.3152 -2.5517
  168MOL0     H23127   2.490   8.948   1.410 -1.9741  0.5193 -1.1355
  168MOL0     H23128   2.529   8.789   1.333 -0.6222  0.3934  2.7672
  168MOL0     H23129   2.711   8.926   1.442 -0.4620 -0.6732 -0.2457
  168MOL0     H23130   2.670   9.048   1.329 -2.9750  0.5084  1.1477
  168MOL0     H23131   2.728   8.891   1.138 -3.5007 -1.6052 -0.3555
  168MOL0     H23132   2.878   8.896   1.249 -0.4667 -0.3386 -0.3919
  168MOL0     H23133   2.588   8.662   1.136 -0.8965 -1.6145  1.3185
  168MOL0     H23134   2.551   8.424   1.199  1.0700  2.4878  4.5661
  168MOL0     H23135   2.666   8.334   1.289 -0.2823  1.2643  1.2716
  168MOL0     H23136   2.658   8.391   0.990  1.7876 -2.2435 -1.1809
  168MOL0     H23137   2.788   8.313   1.060  0.2308 -0.2367 -2.3467
  168MOL0     H23138   2.629   8.129   1.125  2.6271  1.8915  0.4867
  168MOL0     H23139   2.491   8.224   1.055 -1.1583 -0.9764 -1.9211
  168MOL0     H23140   2.731   8.107   0.893  0.0186 -0.2095 -0.1525
  168MOL0     H23141   2.566   8.044   0.896  1.6867 -1.4549  0.9452
  168MOL0     H23142   2.497   8.123   0.588  1.4098 -3.3347 -2.6969
  168MOL0     H23143   2.658   8.076   0.280 -0.3003  0.0811 -0.8865
  168MOL0     H23144   2.533   8.203   0.284  0.4863 -1.0846 -2.4256
  168MOL0     H23145   2.515   8.042   0.371  0.9515 -0.6508  0.3220
  168MOL0     H23146   2.996   8.495   0.165 -0.6880 -1.1051  2.0485
  168MOL0     H23147   3.138   8.513  -0.043  1.9424  1.0154  1.3731
  168MOL0     H23148   3.439   8.200  -0.099 -0.4025  1.1814  0.7747
  168MOL0     H23149   3.336   8.171  -0.225  2.1313 -1.2528  0.5734
  168MOL0     H23150   3.543   8.222  -0.315  0.0126 -1.3366  0.9825
  168MOL0     H23151   3.436   8.378  -0.334  1.2755  0.5874  0.9598
  168MOL0     H23152   3.545   8.467  -0.113  0.8186  1.8264 -1.2835
  168MOL0     H23153   3.636   8.473  -0.258 -0.2281 -1.0901 -0.0792
  168MOL0     H23154   3.728   8.237  -0.181 -0.9118 -0.3125 -1.5093
  168MOL0     H23155   3.681   8.285  -0.021  2.1857 -1.1821  0.0811
  168MOL0     H23156   3.825   8.483  -0.050 -0.0750 -1.1884  1.4857
  168MOL0     H23157   3.904   8.316  -0.056 -2.3220 -1.2899  1.0116
  168MOL0     H23158   3.851   8.491  -0.296 -1.4990 -1.3259  0.3177
  168MOL0     H23159   3.916   8.329  -0.308 -1.5981 -0.2266 -1.0151
  168MOL0     H23160   4.127   8.406  -0.200  0.1459  1.4623  1.2129
  168MOL0     H23161   4.044   8.559  -0.142  0.4902  0.9617 -0.6967
  168MOL0     H23162   4.197   8.605  -0.330  1.7709 -1.7223  0.9730
  168MOL0     H23163   4.031   8.606  -0.398  1.4877  0.8843 -0.0374
  168MOL0     H23164   3.293   8.124   0.029 -0.1901 -1.0877  1.9237
  168MOL0     H23165   3.151   8.091   0.224  3.4497  0.0010 -0.9959
  168MOL0     H23166   2.942   8.341   0.554 -0.7390  1.5275 -0.8364
  168MOL0     H23167   2.838   8.313   0.770 -0.4404  0.8678 -0.5448
  168MOL0     H23168   1.814   9.071   1.032 -0.4278 -1.2901 -1.4581
  168MOL0     H23169   1.605   9.182   1.052  2.0304  1.2316 -0.0433
  168MOL0     H23170   1.289   9.232   1.440  0.5224 -0.3795  0.6426
  168MOL0     H23171   1.105   9.325   1.548 -0.6987  0.2509  0.4587
  168MOL0     H23172   0.911   9.282   1.613 -0.9764 -0.6084 -0.9584
  168MOL0     H23173   0.939   9.457   1.633  0.7013 -1.5004  1.5962
  168MOL0     H23174   0.704   9.500   1.604 -0.7695  0.4528  0.8857
  168MOL0     H23175   0.747   9.441   1.757 -3.6070  5.2538 -1.6260
  168MOL0     H23176   0.619   9.266   1.530  0.0246  2.0756 -1.1391
  168MOL0     H23177   0.649   9.223   1.703  1.3418 -1.6537 -0.5850
  168MOL0     H23178   0.453   9.439   1.591 -0.2354 -1.7382 -1.6934
  168MOL0     H23179   0.504   9.438   1.754  3.6405  3.4106 -2.1697
  168MOL0     H23180   0.212   9.124   1.733 -0.6941 -0.6472  0.1886
  168MOL0     H23181   0.907   9.393   1.177  1.0822  0.1906 -2.5104
  168MOL0     H23182   1.047   9.222   0.986  0.0393  0.3169  2.0716
  168MOL0     H23183   1.034   9.403   0.988 -1.0614 -0.3680  0.6033
  168MOL0     H23184   1.187   9.323   0.962  1.2444 -0.0875  0.9480
  169MOL0     O23185   3.157   8.761  10.134  0.0612 -0.0981 -0.2324
  169MOL0     C23186   3.051   8.704  10.166 -0.0166 -0.5067 -0.5570
  169MOL0     O23187   3.011   8.689  10.302 -0.9413 -0.0554  0.4730
  169MOL0     C23188   3.094   8.722  10.405 -1.0407  0.1598  1.2172
  169MOL0     C23189   3.063   8.823  10.493 -0.2313  0.0929  1.3564
  169MOL0     C23190   3.148   8.849  10.598 -0.3548 -0.4821 -0.5207
  169MOL0     C23191   3.279   8.795  10.606 -0.8045  0.4576 -0.8790
  169MOL0     O23192   3.357   8.828  10.717 -0.4251 -0.2318 -1.2560
  169MOL0     C23193   3.440   8.739  10.790 -0.0302  0.3894  0.0190
  169MOL0     C23194   3.436   8.783  10.936  0.8162 -0.0471 -0.3109
  169MOL0     C23195   3.305   8.767  11.004  1.0590  0.5624  0.5101
  169MOL0     C23196   3.308   8.785  11.156 -0.7074  0.3548 -0.9196
  169MOL0     C23197   3.173   8.782  11.225  0.4977 -0.7469  0.1841
  169MOL0     C23198   3.083   8.907  11.201 -0.4366  0.0455 -0.8458
  169MOL0     C23199   2.939   8.866  11.256  0.3757 -0.0683  0.1812
  169MOL0     C23200   2.823   8.955  11.195 -0.8039 -1.0227  0.0646
  169MOL0     N23201   2.688   8.919  11.244  0.3671  0.8329  0.0283
  169MOL0     C23202   2.600   8.835  11.177 -0.8276 -0.2726 -0.2021
  169MOL0     C23203   2.510   8.794  11.269  0.6276  0.1347  0.3560
  169MOL0     C23204   2.400   8.697  11.243 -0.0868 -0.4800  0.2436
  169MOL0     C23205   2.460   8.571  11.192  1.1616 -0.0100 -0.4178
  169MOL0     C23206   2.570   8.512  11.283 -0.0953  0.4774  0.6966
  169MOL0     C23207   2.531   8.470  11.417  0.8624 -0.0620 -0.3026
  169MOL0     O23208   2.438   8.368  11.409  0.5774  0.6390  0.9610
  169MOL0     C23209   2.354   8.339  11.516 -1.2059 -0.6698 -0.2674
  169MOL0     C23210   2.248   8.254  11.500  0.1732  0.5679 -0.2549
  169MOL0     C23211   2.151   8.252  11.602 -0.1454  0.1040  0.0843
  169MOL0     C23212   2.026   8.175  11.571  0.0733  0.8245 -0.5727
  169MOL0     C23213   2.176   8.294  11.731  0.0769 -0.2818  0.2962
  169MOL0     C23214   2.064   8.290  11.826 -0.2911 -0.4517 -0.7068
  169MOL0     O23215   1.949   8.355  11.800  0.0152 -0.4179  0.0841
  169MOL0     C23216   1.837   8.330  11.870 -0.3219 -0.4226  0.4563
  169MOL0     C23217   1.790   8.449  11.934 -0.3538  0.1952 -0.2467
  169MOL0     C23218   1.699   8.450  12.039 -0.1151 -0.2300 -0.9396
  169MOL0     C23219   1.637   8.324  12.066  1.5362  0.6968 -0.9873
  169MOL0     O23220   1.538   8.301  12.161  0.4070 -0.4509 -0.1626
  169MOL0     C23221   1.432   8.401  12.177 -0.3409 -0.2005  0.5296
  169MOL0     C23222   1.333   8.365  12.287  0.3119  0.1109  0.6448
  169MOL0     C23223   1.223   8.478  12.281  0.5068  0.8473 -0.2343
  169MOL0     C23224   1.146   8.461  12.406  0.2230  0.2583 -0.6887
  169MOL0     C23225   1.039   8.567  12.450  0.0026 -0.3606  0.4979
  169MOL0     C23226   0.951   8.536  12.584  0.1547 -0.1482  0.1917
  169MOL0     C23227   0.837   8.644  12.601  0.0383  0.0114 -0.8443
  169MOL0     C23228   0.754   8.648  12.726  0.3883  0.6708 -0.7279
  169MOL0    Cl23229   0.652   8.508  12.713  0.2314  0.0411 -0.2043
  169MOL0     C23230   1.678   8.207  11.988 -0.0014  0.4453 -0.2548
  169MOL0     C23231   1.776   8.210  11.891 -0.7506 -0.2428 -0.6507
  169MOL0     O23232   2.082   8.218  11.926 -0.0200  0.0010 -0.1900
  169MOL0     C23233   2.299   8.351  11.755  0.0425 -0.2070 -0.1049
  169MOL0     C23234   2.383   8.381  11.644  0.2983  0.7496 -0.2893
  169MOL0     N23235   2.538   8.849  11.382  0.0417 -0.5738 -1.0312
  169MOL0     N23236   2.635   8.941  11.372  0.3190  0.4627  0.8411
  169MOL0     C23237   3.321   8.699  10.514 -0.3986  0.0520 -0.0105
  169MOL0     C23238   3.221   8.659  10.415 -0.4868 -0.9495  0.1110
  169MOL0     C23239   2.948   8.682  10.062  0.5797 -0.5385  1.0906
  169MOL0     C23240   2.823   8.636  10.103 -0.2608 -1.4610 -0.4041
  169MOL0     C23241   2.717   8.611  10.012 -0.3711 -0.0824  0.2875
  169MOL0     C23242   2.735   8.630   9.875  0.5746 -0.0174  0.1064
  169MOL0     O23243   2.641   8.616   9.778  0.0345  1.0038 -0.5870
  169MOL0     C23244   2.525   8.533   9.809  0.8456 -0.1227  0.3029
  169MOL0     C23245   2.431   8.506   9.699 -0.2432 -0.2144  0.5802
  169MOL0     C23246   2.315   8.420   9.746  0.8898 -0.1506  0.5512
  169MOL0     C23247   2.332   8.269   9.756  0.8020  0.6172  0.1302
  169MOL0     C23248   2.213   8.200   9.793 -0.3707  0.0811  0.6261
  169MOL0     C23249   2.104   8.148   9.809 -0.1713  0.1318 -0.1372
  169MOL0     C23250   2.859   8.670   9.835 -0.0678 -0.1178 -0.4664
  169MOL0     C23251   2.965   8.693   9.918  0.2806 -0.8889 -0.4772
  169MOL0     C23252   3.098   8.712   9.844  0.1067 -0.3630  0.1672
  169MOL0     H23253   2.971   8.879  10.502  0.0810  0.3044  4.8194
  169MOL0     H23254   3.120   8.913  10.681  3.1144 -1.3691  1.5216
  169MOL0     H23255   3.544   8.744  10.758  0.1077 -0.2173  0.3405
  169MOL0     H23256   3.408   8.634  10.795 -1.4993  0.8733  2.7225
  169MOL0     H23257   3.515   8.720  10.979  0.1715 -0.6393  0.0187
  169MOL0     H23258   3.469   8.887  10.947  0.6380  0.1619 -1.5844
  169MOL0     H23259   3.230   8.838  10.968 -0.7319 -1.6150 -0.2776
  169MOL0     H23260   3.267   8.666  10.984  1.2766  0.1731  1.9828
  169MOL0     H23261   3.360   8.703  11.208 -1.6131 -0.0099 -0.5667
  169MOL0     H23262   3.345   8.883  11.186 -2.7794  0.8654  0.1621
  169MOL0     H23263   3.190   8.780  11.333 -1.4097  2.4268  0.6589
  169MOL0     H23264   3.114   8.700  11.183 -2.2898  0.9564  0.5050
  169MOL0     H23265   3.123   8.990  11.260 -1.7075 -0.0328  0.1816
  169MOL0     H23266   3.097   8.940  11.098 -0.7440  0.3826 -0.7805
  169MOL0     H23267   2.944   8.870  11.365  0.2618  1.5695  0.1513
  169MOL0     H23268   2.913   8.761  11.240  3.0444 -1.2790  2.8778
  169MOL0     H23269   2.850   9.058  11.219 -4.0641 -0.1990  0.6741
  169MOL0     H23270   2.819   8.954  11.086  3.4100  0.3352 -0.2830
  169MOL0     H23271   2.588   8.818  11.070 -2.8113 -0.6112  0.0426
  169MOL0     H23272   2.329   8.738  11.171 -0.2046 -2.4462 -0.8406
  169MOL0     H23273   2.353   8.678  11.339  3.1488  0.9652  2.2800
  169MOL0     H23274   2.373   8.507  11.177  0.0486  0.6496  2.4955
  169MOL0     H23275   2.498   8.591  11.091 -1.9361  1.5641 -1.4146
  169MOL0     H23276   2.614   8.430  11.227 -1.2418  0.9658 -1.0241
  169MOL0     H23277   2.661   8.572  11.285 -0.3445  1.3416 -3.4515
  169MOL0     H23278   2.625   8.441  11.465  0.7886 -0.2690 -0.2814
  169MOL0     H23279   2.492   8.553  11.477  1.0762  0.3872 -0.7787
  169MOL0     H23280   2.229   8.201  11.407  0.1838 -0.6805  0.4216
  169MOL0     H23281   2.019   8.084  11.632 -1.0515  0.3442 -1.3814
  169MOL0     H23282   2.020   8.139  11.468 -2.7577 -1.5986  0.2997
  169MOL0     H23283   1.934   8.231  11.590  0.9915  2.1989 -0.0164
  169MOL0     H23284   1.844   8.542  11.919  1.4363 -1.0174 -1.7434
  169MOL0     H23285   1.659   8.539  12.086 -0.3068 -0.5076 -0.5678
  169MOL0     H23286   1.472   8.502  12.187  1.7087 -1.1173  2.6955
  169MOL0     H23287   1.375   8.388  12.084  1.2518 -1.7925 -0.2907
  169MOL0     H23288   1.280   8.272  12.265  0.5030 -0.2646  1.6934
  169MOL0     H23289   1.377   8.351  12.386 -2.6712 -0.6780  1.9472
  169MOL0     H23290   1.157   8.467  12.194  0.7122 -5.5916 -0.0713
  169MOL0     H23291   1.282   8.570  12.278  1.4191  0.5668  3.6469
  169MOL0     H23292   1.216   8.448  12.489  1.6788 -0.7178 -2.0138
  169MOL0     H23293   1.093   8.365  12.403 -0.0458  0.2611  1.6291
  169MOL0     H23294   1.103   8.655  12.454 -1.1329  0.4647  1.2595
  169MOL0     H23295   0.965   8.575  12.370  0.4308 -1.2103  0.0028
  169MOL0     H23296   1.007   8.535  12.677 -0.8249 -2.1176  0.8144
  169MOL0     H23297   0.897   8.441  12.581 -2.7743  1.2275  2.7554
  169MOL0     H23298   0.777   8.636  12.510  0.9128 -1.6953 -1.3293
  169MOL0     H23299   0.894   8.737  12.607  1.1800 -0.7537  1.3380
  169MOL0     H23300   0.697   8.742  12.736 -1.0926 -0.4156  2.3727
  169MOL0     H23301   0.813   8.625  12.815  0.4880  0.9854 -0.7091
  169MOL0     H23302   1.625   8.113  11.996 -1.7085  1.3639 -0.3241
  169MOL0     H23303   1.805   8.123  11.833  1.2047  0.8947 -1.4846
  169MOL0     H23304   2.334   8.376  11.855  0.6561 -2.2075  0.2305
  169MOL0     H23305   2.483   8.422  11.660  0.7087  0.3403 -1.6515
  169MOL0     H23306   3.419   8.653  10.523 -0.8427 -0.6410  1.8778
  169MOL0     H23307   3.255   8.591  10.338 -0.6140 -1.3059  0.3594
  169MOL0     H23308   2.806   8.615  10.208  1.2231 -2.7528 -0.3886
  169MOL0     H23309   2.620   8.587  10.054  0.2004  0.3629  1.9417
  169MOL0     H23310   2.554   8.435   9.848 -1.1114  0.3466  3.2265
  169MOL0     H23311   2.471   8.584   9.889  0.5466  1.5037 -0.8736
  169MOL0     H23312   2.493   8.467   9.618  1.1081  0.7295  1.1343
  169MOL0     H23313   2.383   8.600   9.668 -3.1891 -2.0759 -1.0428
  169MOL0     H23314   2.285   8.458   9.844  0.8613  2.0094 -0.2387
  169MOL0     H23315   2.240   8.433   9.667 -1.6438 -2.0991  2.4742
  169MOL0     H23316   2.412   8.244   9.827  0.7744  2.7322  0.9606
  169MOL0     H23317   2.364   8.229   9.659 -1.4669 -0.0726 -0.3815
  169MOL0     H23318   2.013   8.092   9.818  0.2175 -0.6304 -0.8147
  169MOL0     H23319   2.882   8.678   9.729  0.6135 -1.9815 -0.4897
  169MOL0     H23320   3.147   8.801   9.885 -0.7596 -0.1102  0.6684
  169MOL0     H23321   3.174   8.636   9.867  1.1888  1.0697  1.5339
  169MOL0     H23322   3.083   8.705   9.736 -1.2462 -1.8356  0.4119
  170MOL0     O23323  10.063   2.998   4.559 -0.1387  0.4930  0.1515
  170MOL0     C23324  10.133   3.085   4.509  0.1354  0.2534 -0.1959
  170MOL0     O23325  10.254   3.057   4.455  0.0290  0.3345  0.0561
  170MOL0     C23326  10.325   2.933   4.454  0.7596 -0.6036 -0.1896
  170MOL0     C23327  10.394   2.892   4.343  0.1154  0.2811  0.6172
  170MOL0     C23328  10.480   2.777   4.346 -0.8154 -0.3334 -0.4902
  170MOL0     C23329  10.486   2.693   4.456  0.1601 -0.6200  0.3225
  170MOL0     O23330  10.558   2.583   4.447 -0.1498  0.1152  0.0544
  170MOL0     C23331  10.527   2.459   4.516 -0.9329 -0.7313 -0.1370
  170MOL0     C23332  10.605   2.349   4.450 -0.9824 -1.0750 -1.1580
  170MOL0     C23333  10.557   2.304   4.309 -0.3439  0.0465  0.7889
  170MOL0     C23334  10.673   2.216   4.255  0.2616 -0.1519 -0.0422
  170MOL0     C23335  10.643   2.159   4.125  0.2542 -0.2662  0.3780
  170MOL0     C23336  10.627   2.257   4.004 -0.5228 -0.6642  0.0857
  170MOL0     C23337  10.768   2.298   3.961 -0.4074 -0.1728  0.2610
  170MOL0     C23338  10.756   2.399   3.852  0.3665 -0.5649 -0.9196
  170MOL0     N23339  10.882   2.460   3.821 -0.0418 -0.2494  0.3190
  170MOL0     C23340  10.962   2.528   3.910 -0.2185 -0.6718  0.0837
  170MOL0     C23341  11.058   2.585   3.831  0.1263 -0.5519 -0.1505
  170MOL0     C23342  11.147   2.699   3.876  0.2005  1.1504 -0.1924
  170MOL0     C23343  11.231   2.660   3.996 -0.8864 -0.1913  1.0251
  170MOL0     C23344  11.336   2.551   3.967 -0.9449  0.4324 -0.8801
  170MOL0     C23345  11.451   2.524   4.068 -0.0645 -0.5337 -0.2131
  170MOL0     O23346  11.520   2.651   4.079  0.1570 -0.0033  0.3096
  170MOL0     C23347  11.629   2.661   4.164  0.0467  0.2132  0.2665
  170MOL0     C23348  11.718   2.776   4.143 -0.2790  0.2111  1.0563
  170MOL0     C23349  11.832   2.801   4.230  0.1415  0.0539 -0.6470
  170MOL0     C23350  11.925   2.919   4.205  0.7811  0.1957  0.3141
  170MOL0     C23351  11.860   2.702   4.332  0.0765 -0.3517  0.6139
  170MOL0     C23352  11.983   2.708   4.419  0.4991  0.2714 -0.3229
  170MOL0     O23353  11.975   2.623   4.530 -0.8459 -0.0456  0.4030
  170MOL0     C23354  12.103   2.580   4.579  0.5440  0.6531  0.3138
  170MOL0     C23355  12.184   2.667   4.644 -0.0328  0.2978  0.1232
  170MOL0     C23356  12.314   2.629   4.677  0.4450 -0.3891  0.4479
  170MOL0     C23357  12.366   2.502   4.656 -0.3261 -0.1425 -0.0725
  170MOL0     O23358  12.495   2.475   4.683  0.2257 -0.2466 -0.4121
  170MOL0     C23359  12.521   2.345   4.740  0.3302  0.1430 -0.0512
  170MOL0     C23360  12.656   2.344   4.819 -0.2127 -0.1507 -0.5363
  170MOL0     C23361  12.773   2.401   4.746 -0.4666 -0.3718  1.1411
  170MOL0     C23362  12.797   2.350   4.599 -0.9042 -0.2039 -0.3240
  170MOL0     C23363  12.932   2.404   4.538  1.1961  0.1194  0.7920
  170MOL0     C23364  13.056   2.343   4.602  0.9161 -0.0067  0.9318
  170MOL0     C23365  13.177   2.366   4.526 -0.3747 -0.3651  0.0296
  170MOL0     C23366  13.285   2.285   4.575  0.0105  0.5622 -0.5465
  170MOL0    Cl23367  13.302   2.313   4.754  0.2140 -0.1026  0.3123
  170MOL0     C23368  12.278   2.410   4.600  0.2836 -0.5041  0.5283
  170MOL0     C23369  12.154   2.443   4.550  0.0859 -0.0612  0.3920
  170MOL0     O23370  12.083   2.761   4.375 -0.1738  0.4290  0.3019
  170MOL0     C23371  11.781   2.592   4.341 -0.1373  0.2498  0.4196
  170MOL0     C23372  11.661   2.574   4.272  0.5959 -0.1045 -0.4935
  170MOL0     N23373  11.049   2.529   3.709 -0.4551 -0.6034  0.6991
  170MOL0     N23374  10.944   2.454   3.698 -0.7671  1.7557  0.7347
  170MOL0     C23375  10.406   2.735   4.566 -0.4296 -0.3859  0.3219
  170MOL0     C23376  10.333   2.851   4.564 -0.2451  0.5217  1.2428
  170MOL0     C23377  10.087   3.224   4.505 -0.9550 -0.3459  0.5536
  170MOL0     C23378  10.128   3.303   4.395  0.1820 -0.2054 -0.2748
  170MOL0     C23379  10.088   3.439   4.389 -0.3734  0.2627  0.2669
  170MOL0     C23380  10.014   3.503   4.489  0.7743 -0.3184  0.6106
  170MOL0     O23381   9.985   3.642   4.494  0.0539  0.7953  0.8874
  170MOL0     C23382  10.046   3.727   4.396  0.8167  0.6053 -0.3750
  170MOL0     C23383   9.993   3.866   4.400  0.4981 -0.0421  0.5008
  170MOL0     C23384   9.842   3.885   4.403  0.7934  0.4108  0.3388
  170MOL0     C23385   9.773   3.858   4.265 -0.4107 -0.0988  0.2845
  170MOL0     C23386   9.805   3.974   4.183  0.1925 -0.0212  0.1931
  170MOL0     C23387   9.842   4.074   4.127  0.9371 -0.5047 -1.0136
  170MOL0     C23388   9.964   3.421   4.585  0.8075  0.4003  0.7187
  170MOL0     C23389  10.009   3.290   4.602 -0.9974 -0.5267  0.9627
  170MOL0     C23390   9.966   3.226   4.723 -0.7561  0.2191 -0.4741
  170MOL0     H23391  10.379   2.944   4.249 -1.0297 -0.4735  0.3734
  170MOL0     H23392  10.540   2.747   4.260  0.2575  0.7729 -0.1581
  170MOL0     H23393  10.421   2.442   4.495 -0.8885  0.1875 -1.2087
  170MOL0     H23394  10.536   2.459   4.625 -3.2999 -1.5542  0.1197
  170MOL0     H23395  10.709   2.384   4.449 -0.9596 -1.1202 -0.3216
  170MOL0     H23396  10.599   2.269   4.523  2.6846  1.3733  2.2388
  170MOL0     H23397  10.472   2.234   4.311 -0.2130 -0.1831 -0.5447
  170MOL0     H23398  10.525   2.393   4.253 -3.8039 -1.9576 -0.8094
  170MOL0     H23399  10.762   2.280   4.247 -0.4300  0.6942 -1.3013
  170MOL0     H23400  10.708   2.130   4.312 -2.6866 -0.6398  1.2020
  170MOL0     H23401  10.554   2.096   4.126 -0.2938  0.3128 -2.4132
  170MOL0     H23402  10.718   2.087   4.089  2.5847  1.5445  1.3548
  170MOL0     H23403  10.600   2.187   3.924 -0.8585 -1.0802  0.5576
  170MOL0     H23404  10.567   2.348   4.014  0.7044  0.0447  1.2392
  170MOL0     H23405  10.819   2.209   3.923  1.2481  0.8145  0.0318
  170MOL0     H23406  10.818   2.337   4.051 -2.1245 -1.4736  1.8378
  170MOL0     H23407  10.706   2.350   3.768 -0.8930  1.3207 -1.3187
  170MOL0     H23408  10.687   2.476   3.886 -0.1974 -2.1194  1.6564
  170MOL0     H23409  10.943   2.547   4.015  1.6315 -2.3313  0.7952
  170MOL0     H23410  11.078   2.780   3.901  0.1236  0.7711  0.8803
  170MOL0     H23411  11.202   2.728   3.786 -1.5802  1.0848 -1.3404
  170MOL0     H23412  11.272   2.758   4.024 -1.1713  0.8149 -1.7485
  170MOL0     H23413  11.167   2.638   4.082 -1.1569 -1.0107  0.6287
  170MOL0     H23414  11.283   2.455   3.963 -1.2493  0.2614  2.9344
  170MOL0     H23415  11.387   2.578   3.875  1.5248 -1.2532 -0.1223
  170MOL0     H23416  11.394   2.501   4.159 -0.8180  0.5623 -0.3957
  170MOL0     H23417  11.519   2.443   4.041  2.2551  1.6228 -1.2760
  170MOL0     H23418  11.696   2.850   4.068 -0.5919 -0.4270  0.5127
  170MOL0     H23419  11.948   2.970   4.298 -0.9034 -0.0184  0.8877
  170MOL0     H23420  11.867   2.980   4.135  0.1481  0.4197  1.0292
  170MOL0     H23421  12.022   2.890   4.163  1.3189  1.1871  0.8344
  170MOL0     H23422  12.144   2.767   4.659  0.3433  0.4343  0.2469
  170MOL0     H23423  12.384   2.700   4.718 -1.9429  3.2702 -1.2106
  170MOL0     H23424  12.443   2.326   4.813 -0.4079  1.9541 -0.3205
  170MOL0     H23425  12.508   2.263   4.669  0.1066  1.9411 -2.2428
  170MOL0     H23426  12.641   2.390   4.917  0.5908 -0.8845 -0.0478
  170MOL0     H23427  12.683   2.244   4.854 -0.1170  0.0581 -0.0097
  170MOL0     H23428  12.858   2.363   4.804 -0.2761  0.1441  1.2006
  170MOL0     H23429  12.767   2.510   4.736 -4.9973 -0.4601  1.1487
  170MOL0     H23430  12.708   2.386   4.547 -0.6160  0.2110 -0.5370
  170MOL0     H23431  12.801   2.241   4.591  0.8436 -0.0950 -1.6266
  170MOL0     H23432  12.924   2.385   4.431 -1.4739  0.7488  0.8008
  170MOL0     H23433  12.924   2.513   4.551 -0.6413  0.1028  0.1406
  170MOL0     H23434  13.040   2.234   4.602 -1.0586  0.1141 -2.5653
  170MOL0     H23435  13.066   2.390   4.700  3.6619  0.3909  0.5291
  170MOL0     H23436  13.195   2.473   4.534  0.0846 -0.3786 -0.7065
  170MOL0     H23437  13.169   2.333   4.422 -1.4207  2.0256 -0.7086
  170MOL0     H23438  13.378   2.322   4.530 -0.9488  1.4643 -1.9108
  170MOL0     H23439  13.261   2.180   4.558  1.2797  0.2742 -0.6047
  170MOL0     H23440  12.313   2.311   4.570 -0.1780 -0.8543  1.1166
  170MOL0     H23441  12.104   2.377   4.480 -2.2213  3.3484 -1.4941
  170MOL0     H23442  11.799   2.527   4.426  2.6613 -2.2821 -1.8958
  170MOL0     H23443  11.597   2.492   4.301  1.6060 -1.1056 -1.0105
  170MOL0     H23444  10.394   2.675   4.656  1.1769 -1.2301 -0.0014
  170MOL0     H23445  10.272   2.872   4.651  1.8497  0.2968  2.8171
  170MOL0     H23446  10.192   3.268   4.315  4.5741 -0.8611  3.1491
  170MOL0     H23447  10.128   3.488   4.301 -0.7487  0.5077  0.2297
  170MOL0     H23448  10.155   3.725   4.405  0.8838  1.7401 -0.7770
  170MOL0     H23449  10.015   3.690   4.297 -0.9592 -0.9896  0.7099
  170MOL0     H23450  10.041   3.925   4.322 -1.4806  1.1192  0.0760
  170MOL0     H23451  10.022   3.910   4.496  0.1063  0.8526  0.2208
  170MOL0     H23452   9.799   3.815   4.475 -1.6119 -0.2580 -1.5779
  170MOL0     H23453   9.824   3.983   4.448 -1.2949 -0.4487  1.5344
  170MOL0     H23454   9.664   3.861   4.276 -0.5573 -1.9091 -0.3294
  170MOL0     H23455   9.802   3.763   4.219 -0.9535  0.1504 -0.5922
  170MOL0     H23456   9.875   4.164   4.078  1.1288 -0.0182 -0.0215
  170MOL0     H23457   9.893   3.461   4.657 -1.0702 -1.4771  0.0143
  170MOL0     H23458   9.910   3.138   4.688 -1.0002  0.1116  0.1689
  170MOL0     H23459  10.058   3.203   4.777 -1.3969  0.6351  0.8489
  170MOL0     H23460   9.900   3.283   4.789  0.4479 -1.2938  2.1941
  171MOL0     O23461   2.474   0.470   2.057 -0.5597 -0.9248 -0.1411
  171MOL0     C23462   2.367   0.454   2.008 -0.1636  0.4039 -0.3971
  171MOL0     O23463   2.316   0.337   1.985  0.4733 -0.2223  0.2629
  171MOL0     C23464   2.396   0.229   1.992  0.1538  0.2322 -0.8458
  171MOL0     C23465   2.371   0.130   2.091 -0.4404  0.1495  0.1814
  171MOL0     C23466   2.450   0.019   2.096 -0.4838  0.1880 -0.6391
  171MOL0     C23467   2.549   0.004   1.993  0.5270  0.2244 -0.9462
  171MOL0     O23468   2.623  -0.111   1.975 -0.3270 -0.0644  0.2987
  171MOL0     C23469   2.649  -0.219   2.070  0.1724  0.5746  0.3511
  171MOL0     C23470   2.799  -0.235   2.068  0.1761  0.8219 -0.5664
  171MOL0     C23471   2.844  -0.343   2.173 -0.8572 -0.1878  0.7082
  171MOL0     C23472   3.008  -0.359   2.183  1.2628  0.0049 -0.2504
  171MOL0     C23473   3.088  -0.238   2.218 -0.6680 -0.0335  0.0290
  171MOL0     C23474   3.227  -0.272   2.263 -0.2734  0.5122  0.3304
  171MOL0     C23475   3.306  -0.392   2.196  0.6131  0.3950 -0.2263
  171MOL0     C23476   3.354  -0.368   2.054  0.0694  0.3102 -0.0518
  171MOL0     N23477   3.455  -0.483   2.026  0.2815 -0.5136 -0.7718
  171MOL0     C23478   3.570  -0.496   2.091  0.2070  0.2806  0.2054
  171MOL0     C23479   3.625  -0.613   2.048 -0.4368 -0.0675  0.2121
  171MOL0     C23480   3.752  -0.684   2.080  0.0149 -0.1344  0.5362
  171MOL0     C23481   3.878  -0.613   2.008  0.1193 -0.0162 -0.3513
  171MOL0     C23482   4.002  -0.701   2.007  0.7711  0.1592  0.2205
  171MOL0     C23483   4.134  -0.619   1.988 -0.1180  0.2198  0.0709
  171MOL0     O23484   4.222  -0.708   1.913  0.1001 -0.3398 -0.4913
  171MOL0     C23485   4.355  -0.692   1.919  0.4638 -0.1582  0.4200
  171MOL0     C23486   4.434  -0.605   1.993  0.2620 -0.9462 -1.1870
  171MOL0     C23487   4.570  -0.589   1.978  0.2715  0.0826  0.9262
  171MOL0     C23488   4.631  -0.475   2.050 -0.2226  0.2129  1.3204
  171MOL0     C23489   4.640  -0.688   1.896 -0.1197  0.3176  0.0913
  171MOL0     C23490   4.795  -0.695   1.889 -0.0512  0.0248 -0.6028
  171MOL0     O23491   4.829  -0.788   1.797 -0.1602  0.4419  1.2110
  171MOL0     C23492   4.964  -0.798   1.761  0.0843 -0.1507  0.4325
  171MOL0     C23493   4.992  -0.821   1.626 -0.4419  1.1590 -0.4368
  171MOL0     C23494   5.125  -0.836   1.585  0.0003 -0.6373 -0.8184
  171MOL0     C23495   5.228  -0.841   1.674  0.7798 -0.2671  0.1582
  171MOL0     O23496   5.358  -0.864   1.644  0.3116  1.1411 -0.2118
  171MOL0     C23497   5.395  -0.914   1.514 -0.1354  0.9169 -0.1283
  171MOL0     C23498   5.543  -0.912   1.513  0.3183  0.8736 -0.5756
  171MOL0     C23499   5.598  -1.028   1.429  0.2845 -0.3888  0.8597
  171MOL0     C23500   5.752  -1.023   1.426  0.4725  0.0284 -0.0737
  171MOL0     C23501   5.807  -1.163   1.406  0.4135  0.3581 -0.0866
  171MOL0     C23502   5.947  -1.143   1.351  0.2036 -0.1133  0.2646
  171MOL0     C23503   6.020  -1.275   1.349 -0.4850  0.9433  0.4367
  171MOL0     C23504   6.156  -1.257   1.294  0.2401 -0.2072  0.0077
  171MOL0    Cl23505   6.230  -1.412   1.312  0.1627  0.1393 -0.7726
  171MOL0     C23506   5.192  -0.836   1.813  0.3048  0.7340  0.6603
  171MOL0     C23507   5.063  -0.804   1.854 -0.0772  0.2953 -0.0951
  171MOL0     O23508   4.861  -0.602   1.933 -0.0867 -0.4802 -0.6215
  171MOL0     C23509   4.554  -0.789   1.830 -0.7389  0.8504 -0.9885
  171MOL0     C23510   4.413  -0.786   1.839 -0.0375 -0.1509 -0.1084
  171MOL0     N23511   3.539  -0.671   1.959  0.8365  0.1220  0.0593
  171MOL0     N23512   3.453  -0.581   1.934  0.1368  0.2975  0.0551
  171MOL0     C23513   2.571   0.103   1.896  0.6000 -0.6320 -0.4932
  171MOL0     C23514   2.502   0.222   1.896  0.1182  0.1013 -0.5383
  171MOL0     C23515   2.287   0.583   1.994  0.1326  0.2078  0.5254
  171MOL0     C23516   2.356   0.708   1.994 -0.2188  0.3495  1.0459
  171MOL0     C23517   2.292   0.828   1.976 -0.5035  0.9977  0.4842
  171MOL0     C23518   2.158   0.831   1.943 -0.5272 -1.0951 -0.5342
  171MOL0     O23519   2.113   0.958   1.910 -0.3002 -0.5488  0.6346
  171MOL0     C23520   1.982   0.971   1.863  1.0300 -0.0431  0.3186
  171MOL0     C23521   1.942   1.111   1.831  1.1546 -0.9958 -0.1626
  171MOL0     C23522   1.787   1.111   1.795  0.1653  0.3053 -1.1641
  171MOL0     C23523   1.730   1.243   1.751  0.3512 -0.1646 -0.0160
  171MOL0     C23524   1.799   1.322   1.644 -0.4445  0.5299  0.4622
  171MOL0     C23525   1.839   1.402   1.557 -0.7110  0.5630  0.2805
  171MOL0     C23526   2.087   0.712   1.931 -0.1790  0.0085  0.2158
  171MOL0     C23527   2.153   0.590   1.959 -0.3423  0.3724  0.6729
  171MOL0     C23528   2.069   0.464   1.963  0.4507  0.3340 -0.2183
  171MOL0     H23529   2.297   0.133   2.170  3.0682 -0.7345  3.8197
  171MOL0     H23530   2.427  -0.062   2.164  1.1404  0.9425  0.8996
  171MOL0     H23531   2.598  -0.309   2.034  2.0019 -0.2621 -0.2291
  171MOL0     H23532   2.613  -0.190   2.169  0.7736 -1.8503  1.3583
  171MOL0     H23533   2.824  -0.275   1.969 -1.0275  0.5778 -0.7963
  171MOL0     H23534   2.847  -0.140   2.092  0.0628  0.6283  0.4502
  171MOL0     H23535   2.798  -0.324   2.270 -3.2879 -2.2001  0.0648
  171MOL0     H23536   2.806  -0.443   2.150 -1.5937 -0.7765  4.0053
  171MOL0     H23537   3.026  -0.438   2.257  1.3333  0.5290  0.3001
  171MOL0     H23538   3.048  -0.405   2.092  1.0915  0.1068 -0.3784
  171MOL0     H23539   3.024  -0.187   2.291 -3.1621 -0.8601 -1.4346
  171MOL0     H23540   3.093  -0.171   2.131  2.5199 -0.1721  0.0222
  171MOL0     H23541   3.289  -0.183   2.249 -3.1663  2.5043 -0.7647
  171MOL0     H23542   3.209  -0.292   2.369 -0.3354  1.3254  0.4832
  171MOL0     H23543   3.244  -0.480   2.214 -0.4030  0.7395 -1.8481
  171MOL0     H23544   3.395  -0.402   2.260  0.2877 -0.1149  0.1550
  171MOL0     H23545   3.268  -0.368   1.987  0.7118  1.8561 -0.9252
  171MOL0     H23546   3.416  -0.278   2.064  1.9874 -1.2048  4.0241
  171MOL0     H23547   3.606  -0.424   2.164 -2.7659  1.0723  0.9964
  171MOL0     H23548   3.738  -0.785   2.041  1.6395  0.3657 -1.5811
  171MOL0     H23549   3.775  -0.676   2.187 -0.5294  1.5132  0.5676
  171MOL0     H23550   3.846  -0.582   1.909 -0.4839  0.2852 -0.0654
  171MOL0     H23551   3.913  -0.526   2.065  0.1280 -1.4691  1.9965
  171MOL0     H23552   4.016  -0.759   2.099 -2.3327  0.9763  1.3273
  171MOL0     H23553   3.976  -0.771   1.927 -0.1379 -0.1285  0.7521
  171MOL0     H23554   4.118  -0.525   1.933 -0.1126 -0.4264 -1.0796
  171MOL0     H23555   4.165  -0.587   2.088  1.0903  1.4623 -0.6623
  171MOL0     H23556   4.377  -0.535   2.054 -2.7514 -4.2696  0.2155
  171MOL0     H23557   4.552  -0.414   2.095 -1.3976  0.0895 -0.4704
  171MOL0     H23558   4.686  -0.421   1.972  0.0645 -0.2901  1.1709
  171MOL0     H23559   4.702  -0.514   2.124  0.0568  0.2519  1.0734
  171MOL0     H23560   4.906  -0.829   1.560 -2.0859 -2.9892  1.8082
  171MOL0     H23561   5.144  -0.862   1.481 -2.3581 -2.3771 -0.9019
  171MOL0     H23562   5.359  -1.016   1.496  1.5572  0.5761 -1.9434
  171MOL0     H23563   5.358  -0.859   1.428  1.8925 -0.8177 -2.2373
  171MOL0     H23564   5.567  -0.815   1.468  1.5369  0.9349  0.1739
  171MOL0     H23565   5.588  -0.917   1.612 -0.6772  1.1371 -0.0905
  171MOL0     H23566   5.563  -1.034   1.325  0.6884  1.3315  0.5939
  171MOL0     H23567   5.575  -1.120   1.484  3.7145  1.0808  5.2781
  171MOL0     H23568   5.803  -0.990   1.517  1.8339 -3.2798  0.4892
  171MOL0     H23569   5.781  -0.968   1.336  2.9183 -1.4139 -0.2575
  171MOL0     H23570   5.804  -1.221   1.499  2.6634 -2.0160 -1.3616
  171MOL0     H23571   5.744  -1.215   1.333  0.4238  0.0276  0.1325
  171MOL0     H23572   6.006  -1.080   1.418 -0.4672  0.3068  0.4708
  171MOL0     H23573   5.954  -1.084   1.259  1.3540  1.5376  1.3478
  171MOL0     H23574   5.970  -1.354   1.292  1.0719  0.8496 -0.8552
  171MOL0     H23575   6.031  -1.314   1.450 -0.4665 -2.3992 -0.7389
  171MOL0     H23576   6.210  -1.188   1.359  2.3324 -1.7650  0.0198
  171MOL0     H23577   6.150  -1.217   1.193 -2.6169  1.2498  0.6445
  171MOL0     H23578   5.275  -0.848   1.883  0.5824 -0.8668  0.0874
  171MOL0     H23579   5.044  -0.803   1.960 -1.0764 -0.1567 -0.2610
  171MOL0     H23580   4.592  -0.868   1.767  0.2644  0.6874 -0.2041
  171MOL0     H23581   4.347  -0.857   1.790 -2.0269  2.3255 -1.2422
  171MOL0     H23582   2.644   0.082   1.818  0.5071 -3.5140  0.0669
  171MOL0     H23583   2.511   0.298   1.820 -1.9549  1.9335  0.9203
  171MOL0     H23584   2.462   0.711   2.013 -0.5163 -1.4270  3.4147
  171MOL0     H23585   2.347   0.922   1.983  0.0454  0.9522 -2.3311
  171MOL0     H23586   1.964   0.914   1.772  0.2741  0.4144  0.1722
  171MOL0     H23587   1.914   0.935   1.941  1.6073 -1.8533  0.0200
  171MOL0     H23588   2.004   1.155   1.752 -0.4749  2.4320  0.2844
  171MOL0     H23589   1.963   1.176   1.916  0.4549  0.7305 -1.2607
  171MOL0     H23590   1.753   1.042   1.717 -3.7011  0.1575  0.4443
  171MOL0     H23591   1.735   1.073   1.883  1.3609  0.3007 -0.4323
  171MOL0     H23592   1.732   1.305   1.841 -1.3993 -1.4247  0.9492
  171MOL0     H23593   1.629   1.228   1.713  0.2407  1.8410 -0.6508
  171MOL0     H23594   1.882   1.464   1.481 -2.1347 -1.1098 -2.0286
  171MOL0     H23595   1.982   0.713   1.902 -1.0133  1.2122  2.9320
  171MOL0     H23596   2.079   0.417   2.061 -1.8180 -0.9435 -0.5552
  171MOL0     H23597   1.963   0.489   1.951 -0.0439 -1.5534  0.0255
  171MOL0     H23598   2.083   0.397   1.878 -1.7315 -0.8830  0.3059
  172MOL0     O23599   0.922   1.777   2.225  0.0917 -0.7761 -0.1344
  172MOL0     C23600   0.824   1.759   2.151  0.8213 -0.0918 -1.3584
  172MOL0     O23601   0.730   1.660   2.179  0.2908 -0.2430 -0.6421
  172MOL0     C23602   0.747   1.602   2.302  0.0017 -0.3691  0.4255
  172MOL0     C23603   0.834   1.493   2.308  0.0357  0.2806  0.2486
  172MOL0     C23604   0.847   1.418   2.422 -0.2324 -0.1579  0.3620
  172MOL0     C23605   0.778   1.456   2.539  0.1885  0.8482  0.6323
  172MOL0     O23606   0.802   1.358   2.634  1.0093 -0.0952  0.4218
  172MOL0     C23607   0.713   1.351   2.736  0.8638 -0.5623 -1.2467
  172MOL0     C23608   0.763   1.272   2.861 -1.0167 -0.6556 -0.2550
  172MOL0     C23609   0.881   1.341   2.919  0.3178 -1.0230 -0.4593
  172MOL0     C23610   0.859   1.474   3.006  0.5758 -0.1067  0.4972
  172MOL0     C23611   0.998   1.534   3.057  1.3846  0.6312  0.3803
  172MOL0     C23612   1.089   1.434   3.121  0.4192 -0.7535  0.0310
  172MOL0     C23613   1.215   1.505   3.170  0.2673 -0.5659 -0.5450
  172MOL0     C23614   1.292   1.413   3.260 -1.0468  0.7818 -0.6605
  172MOL0     N23615   1.334   1.301   3.179 -1.1901  0.0938  0.3361
  172MOL0     C23616   1.355   1.178   3.242  0.4003 -0.0006 -0.8262
  172MOL0     C23617   1.421   1.113   3.144  0.4759 -1.0439  0.3817
  172MOL0     C23618   1.454   0.971   3.153  0.3070 -0.7384 -0.2194
  172MOL0     C23619   1.592   0.943   3.229  1.1251  0.4363  1.2279
  172MOL0     C23620   1.686   1.065   3.238  0.3844 -0.5310 -0.1366
  172MOL0     C23621   1.819   1.043   3.301 -0.4661 -0.4089  1.4759
  172MOL0     O23622   1.826   0.968   3.417  0.1204  0.3371  0.4920
  172MOL0     C23623   1.764   1.016   3.536  0.8684  0.8610 -0.7237
  172MOL0     C23624   1.711   1.143   3.551  0.0592 -0.4232  0.0045
  172MOL0     C23625   1.674   1.188   3.680 -0.4125 -0.0690  0.1438
  172MOL0     C23626   1.627   1.327   3.693  0.3293 -0.3426  0.5279
  172MOL0     C23627   1.681   1.089   3.794  0.4628  0.3799  0.8471
  172MOL0     C23628   1.617   1.114   3.934 -0.0063 -0.0126 -0.1278
  172MOL0     O23629   1.552   1.011   3.984  0.6951  0.5979 -0.2725
  172MOL0     C23630   1.475   1.000   4.099  0.1045  0.1343 -0.4283
  172MOL0     C23631   1.429   0.874   4.133 -1.0859 -0.0326 -0.6296
  172MOL0     C23632   1.354   0.852   4.248 -0.0294  0.5403  0.6941
  172MOL0     C23633   1.335   0.955   4.341 -0.3219  0.2319 -0.3384
  172MOL0     O23634   1.271   0.945   4.458  0.4823  0.5433  0.9975
  172MOL0     C23635   1.204   0.822   4.503 -0.4326  0.0379  0.5567
  172MOL0     C23636   1.081   0.786   4.424  1.0056  0.7048 -0.0666
  172MOL0     C23637   0.968   0.889   4.405  0.1832  0.2913  0.2442
  172MOL0     C23638   0.914   0.951   4.538 -0.2430 -0.0918 -0.2693
  172MOL0     C23639   0.804   1.064   4.516 -0.0971 -0.2807 -0.6470
  172MOL0     C23640   0.788   1.139   4.653  0.4368 -0.4928 -0.9100
  172MOL0     C23641   0.705   1.061   4.753  1.0523  0.4102 -0.3093
  172MOL0     C23642   0.687   1.139   4.883  0.9322  0.8172 -0.1185
  172MOL0    Cl23643   0.656   1.016   5.015  0.2867 -0.0445 -0.0737
  172MOL0     C23644   1.366   1.083   4.302  0.2320  0.0382  0.5896
  172MOL0     C23645   1.441   1.106   4.188 -0.5622  0.9854 -0.2130
  172MOL0     O23646   1.622   1.225   3.980  0.8024  0.3254  0.2588
  172MOL0     C23647   1.733   0.964   3.779 -0.8817  1.3141 -0.1389
  172MOL0     C23648   1.777   0.928   3.651  0.4632  0.4099  0.0157
  172MOL0     N23649   1.448   1.190   3.038  0.1123 -0.1278 -1.0319
  172MOL0     N23650   1.385   1.310   3.054 -0.0034  0.2058 -0.2374
  172MOL0     C23651   0.689   1.557   2.528 -0.0311  0.0315 -0.7755
  172MOL0     C23652   0.675   1.641   2.415 -0.1706  0.0611  0.4142
  172MOL0     C23653   0.784   1.847   2.042  0.8152 -0.7335  0.3049
  172MOL0     C23654   0.646   1.842   1.996 -0.2780 -0.3640 -0.0246
  172MOL0     C23655   0.602   1.921   1.887 -0.4030  0.6497 -0.0538
  172MOL0     C23656   0.688   2.014   1.841  0.1527  0.2076 -0.1315
  172MOL0     O23657   0.661   2.103   1.731  0.1197  0.2208  0.1221
  172MOL0     C23658   0.542   2.183   1.746  0.2776 -0.0801  0.3306
  172MOL0     C23659   0.573   2.306   1.827 -0.2873 -0.0587  0.6443
  172MOL0     C23660   0.475   2.421   1.807 -0.6716 -0.2590 -0.4615
  172MOL0     C23661   0.501   2.528   1.916  0.6638 -0.0307 -0.0275
  172MOL0     C23662   0.422   2.654   1.893 -0.5165  0.6750 -0.2826
  172MOL0     C23663   0.367   2.756   1.870 -0.2283  0.0806  0.2001
  172MOL0     C23664   0.814   2.029   1.890  0.0753  0.6609 -0.0712
  172MOL0     C23665   0.868   1.940   1.983 -1.1743  0.7348  0.4634
  172MOL0     C23666   1.012   1.955   2.020 -0.4215  0.9197 -0.3411
  172MOL0     H23667   0.870   1.439   2.221 -1.1571 -0.9766  0.5104
  172MOL0     H23668   0.906   1.327   2.430 -1.3575 -0.7942  1.7459
  172MOL0     H23669   0.616   1.308   2.709 -0.7495  0.8055  1.8485
  172MOL0     H23670   0.686   1.446   2.784 -2.2406 -2.0010  0.1507
  172MOL0     H23671   0.684   1.252   2.933  1.9742 -0.4750  3.4008
  172MOL0     H23672   0.810   1.176   2.834  1.5308  0.1840  0.8564
  172MOL0     H23673   0.921   1.271   2.992 -0.5324  2.0084  3.2568
  172MOL0     H23674   0.952   1.364   2.839  0.1352 -0.4410 -0.4621
  172MOL0     H23675   0.795   1.540   2.948  1.9432 -0.5608 -1.6468
  172MOL0     H23676   0.814   1.445   3.102 -3.8192  3.4751 -0.1422
  172MOL0     H23677   0.960   1.615   3.120 -1.1441 -0.2540  0.1268
  172MOL0     H23678   1.045   1.582   2.971  0.0006  0.7325 -0.3645
  172MOL0     H23679   1.029   1.399   3.205  0.0781  2.0451  1.0495
  172MOL0     H23680   1.110   1.345   3.061 -1.1158 -2.0524  1.3271
  172MOL0     H23681   1.182   1.590   3.230 -1.2963 -0.5889 -1.3268
  172MOL0     H23682   1.287   1.548   3.100  2.6644  0.7215  2.4794
  172MOL0     H23683   1.384   1.459   3.298  0.1724 -2.2341  0.3713
  172MOL0     H23684   1.221   1.378   3.334  0.3805 -0.4514  0.1819
  172MOL0     H23685   1.322   1.154   3.342  0.7480 -1.6337 -1.0766
  172MOL0     H23686   1.450   0.920   3.057  1.1838 -1.6411  0.1912
  172MOL0     H23687   1.378   0.928   3.218  0.1035  1.0222  0.7651
  172MOL0     H23688   1.570   0.905   3.329  0.3773 -2.9350 -0.0956
  172MOL0     H23689   1.642   0.869   3.166 -1.5575  0.4737 -1.1675
  172MOL0     H23690   1.693   1.106   3.137  1.9697 -0.6216 -0.0854
  172MOL0     H23691   1.632   1.141   3.296 -0.2518 -0.0902 -1.2733
  172MOL0     H23692   1.882   0.994   3.227  0.0958  1.1917  0.8594
  172MOL0     H23693   1.862   1.139   3.332 -2.0369  0.6752  0.4290
  172MOL0     H23694   1.707   1.222   3.477  2.9358 -0.6265 -0.5089
  172MOL0     H23695   1.644   1.388   3.605  0.3538 -0.5161  0.4117
  172MOL0     H23696   1.676   1.372   3.780 -2.5118  0.0265  2.0821
  172MOL0     H23697   1.522   1.318   3.722 -0.0100  0.0394 -0.5674
  172MOL0     H23698   1.457   0.789   4.071 -2.5534 -0.3778 -0.8507
  172MOL0     H23699   1.320   0.753   4.275  0.1585  0.0473 -0.7669
  172MOL0     H23700   1.288   0.752   4.503  2.1077  2.8219 -1.3365
  172MOL0     H23701   1.181   0.841   4.608 -0.1989 -2.7355  1.1923
  172MOL0     H23702   1.125   0.758   4.328 -0.9140  0.2217 -0.8482
  172MOL0     H23703   1.039   0.695   4.469 -1.2624  2.2470  1.1409
  172MOL0     H23704   0.896   0.828   4.349  2.4095 -1.4691 -0.8768
  172MOL0     H23705   0.998   0.975   4.345  1.7178 -1.2036 -1.2445
  172MOL0     H23706   0.993   0.991   4.602 -2.1029 -0.8893  2.7396
  172MOL0     H23707   0.875   0.872   4.603 -0.9178  1.1102  0.8428
  172MOL0     H23708   0.844   1.128   4.437  0.7868 -1.9909 -1.6388
  172MOL0     H23709   0.709   1.020   4.484 -0.0976  0.5884 -1.9205
  172MOL0     H23710   0.729   1.229   4.634  0.6588 -0.0174  0.5223
  172MOL0     H23711   0.890   1.169   4.679  0.5447  1.2032 -2.9478
  172MOL0     H23712   0.752   0.963   4.766 -1.9884 -1.2216 -0.5370
  172MOL0     H23713   0.604   1.040   4.715  0.9196  0.3783  0.0518
  172MOL0     H23714   0.597   1.200   4.876 -0.0229 -0.3177  1.5652
  172MOL0     H23715   0.775   1.193   4.917  0.0900  2.3218 -0.2706
  172MOL0     H23716   1.327   1.167   4.359  1.2728  0.1041  1.2350
  172MOL0     H23717   1.476   1.207   4.172 -1.3468  1.1283 -1.1012
  172MOL0     H23718   1.733   0.905   3.870 -3.1548  1.3872 -0.0248
  172MOL0     H23719   1.827   0.834   3.628  0.0996 -0.1116  1.2557
  172MOL0     H23720   0.628   1.591   2.611  1.2866  1.4718 -0.3492
  172MOL0     H23721   0.602   1.720   2.427 -1.6324 -1.4147  1.6519
  172MOL0     H23722   0.572   1.775   2.038  1.9112 -2.6854  0.4146
  172MOL0     H23723   0.503   1.908   1.843 -0.6869  2.2489  0.0732
  172MOL0     H23724   0.516   2.209   1.643  0.1852 -1.9762 -0.1618
  172MOL0     H23725   0.457   2.137   1.797 -0.2914 -0.2173 -0.7215
  172MOL0     H23726   0.667   2.352   1.793  0.5661 -0.3369  2.5376
  172MOL0     H23727   0.580   2.275   1.931 -0.1960  0.5558  0.8255
  172MOL0     H23728   0.494   2.481   1.717 -1.7845  0.3926 -0.2796
  172MOL0     H23729   0.377   2.372   1.810 -0.0836 -1.7743 -2.8244
  172MOL0     H23730   0.607   2.554   1.930  0.4990  0.8428 -0.2901
  172MOL0     H23731   0.457   2.496   2.010 -2.6420 -0.1958 -1.4969
  172MOL0     H23732   0.321   2.849   1.843 -0.2939  0.0798  0.3095
  172MOL0     H23733   0.881   2.108   1.857  2.3285  0.4696  3.5125
  172MOL0     H23734   1.054   1.858   1.993  0.9010  1.4728 -0.3473
  172MOL0     H23735   1.062   2.030   1.959  1.9789  2.6392  3.3883
  172MOL0     H23736   1.036   1.977   2.124  0.6121 -1.6113  0.0281
  173MOL0     O23737   7.779   4.437   8.020 -0.2558 -0.4866  0.3279
  173MOL0     C23738   7.791   4.490   8.128  0.3063 -0.3301 -0.4505
  173MOL0     O23739   7.875   4.583   8.154 -0.1283 -0.3297 -0.1300
  173MOL0     C23740   7.924   4.659   8.051  0.8760  0.4238  0.2386
  173MOL0     C23741   7.854   4.772   8.003 -0.6984  0.6493  0.3498
  173MOL0     C23742   7.909   4.848   7.896  0.5512  0.5990  0.2611
  173MOL0     C23743   8.041   4.816   7.850  0.1081 -0.3515 -0.4803
  173MOL0     O23744   8.097   4.892   7.750  0.1916  0.3196 -0.4389
  173MOL0     C23745   8.235   4.883   7.719  0.5565 -0.4090 -0.0207
  173MOL0     C23746   8.286   5.019   7.649  0.0255  0.2450 -0.5121
  173MOL0     C23747   8.442   5.010   7.640 -0.5515  0.8726  0.5871
  173MOL0     C23748   8.480   5.105   7.521  0.4006 -0.9396 -0.4150
  173MOL0     C23749   8.626   5.091   7.524  1.0153  0.7113  0.3663
  173MOL0     C23750   8.687   5.195   7.431  0.7285  0.1994  0.1321
  173MOL0     C23751   8.836   5.188   7.420 -0.3052 -0.8413  0.0067
  173MOL0     C23752   8.885   5.064   7.358  0.1069  0.1177 -0.5271
  173MOL0     N23753   9.032   5.076   7.338  0.1448  0.2924 -0.0223
  173MOL0     C23754   9.108   5.165   7.257  0.3236 -0.7963 -0.4446
  173MOL0     C23755   9.238   5.141   7.300 -0.1855  0.5978 -0.0208
  173MOL0     C23756   9.361   5.212   7.239 -0.1771 -1.1057  0.3114
  173MOL0     C23757   9.338   5.364   7.230  0.1436  0.4035  0.8542
  173MOL0     C23758   9.479   5.430   7.242 -0.2151  0.7863  0.5849
  173MOL0     C23759   9.571   5.384   7.126  0.0180  0.1900 -0.1330
  173MOL0     O23760   9.697   5.456   7.117 -0.1145  0.1992  0.6721
  173MOL0     C23761   9.810   5.407   7.183  0.6811 -0.1830  0.1447
  173MOL0     C23762   9.808   5.286   7.268 -0.4467  0.0820 -0.3409
  173MOL0     C23763   9.915   5.232   7.338 -0.1553 -0.2495 -0.1975
  173MOL0     C23764   9.882   5.109   7.422  0.1221  0.4747 -0.1789
  173MOL0     C23765  10.038   5.303   7.335 -0.1760 -0.0090 -0.6919
  173MOL0     C23766  10.154   5.257   7.409  0.4756 -0.4044 -1.0570
  173MOL0     O23767  10.142   5.154   7.507 -0.2518 -0.4418  0.2425
  173MOL0     C23768  10.247   5.105   7.584 -0.1906 -1.0795 -0.8010
  173MOL0     C23769  10.209   5.061   7.712 -0.4921  0.9116  0.4817
  173MOL0     C23770  10.293   5.004   7.809 -0.2959  0.3579  0.3088
  173MOL0     C23771  10.426   4.988   7.766 -0.0855  0.6785  0.2975
  173MOL0     O23772  10.512   4.938   7.866  0.4405 -0.2646  0.0950
  173MOL0     C23773  10.644   4.962   7.867 -0.2672 -0.1066 -0.6994
  173MOL0     C23774  10.719   4.916   7.993  0.4327 -0.6468  0.8555
  173MOL0     C23775  10.864   4.961   8.008 -0.9502 -0.0192  0.2636
  173MOL0     C23776  10.933   4.889   8.128 -1.4964  0.1206 -0.3362
  173MOL0     C23777  11.080   4.933   8.150 -0.2979  1.1237 -0.2672
  173MOL0     C23778  11.126   4.853   8.257  0.3284 -0.7991  0.4450
  173MOL0     C23779  11.279   4.869   8.278 -0.1404 -0.7422  0.6426
  173MOL0     C23780  11.326   4.769   8.375  0.2148  0.3914 -0.0454
  173MOL0    Cl23781  11.506   4.768   8.383 -0.0573 -0.3298  0.3244
  173MOL0     C23782  10.462   5.021   7.631 -0.0680  0.5040 -0.4222
  173MOL0     C23783  10.373   5.072   7.546  0.2874 -0.6410 -0.0792
  173MOL0     O23784  10.263   5.305   7.369 -0.1725  0.7063 -0.0226
  173MOL0     C23785  10.049   5.410   7.241  0.4756  0.2010  0.1616
  173MOL0     C23786   9.937   5.455   7.167 -0.8800  0.0442 -0.4870
  173MOL0     N23787   9.238   5.050   7.406 -0.4164 -0.1931 -0.3822
  173MOL0     N23788   9.114   4.995   7.413 -0.5418 -0.7126 -1.1183
  173MOL0     C23789   8.103   4.706   7.895  0.3030  0.1896  0.5273
  173MOL0     C23790   8.049   4.625   8.000  0.3348 -0.4105 -0.4386
  173MOL0     C23791   7.688   4.459   8.242 -0.8090 -0.1800  1.0276
  173MOL0     C23792   7.675   4.547   8.344 -0.0488 -0.0734  0.3255
  173MOL0     C23793   7.578   4.526   8.447  0.0519  0.2421 -0.0597
  173MOL0     C23794   7.488   4.413   8.462 -0.1855  0.1790  0.1935
  173MOL0     O23795   7.401   4.384   8.562 -0.0651 -0.2542  0.3523
  173MOL0     C23796   7.383   4.483   8.671 -0.6103  0.1948 -0.0997
  173MOL0     C23797   7.260   4.468   8.749 -0.2839  0.7047 -0.2190
  173MOL0     C23798   7.127   4.466   8.683  0.6504 -0.1536  0.1914
  173MOL0     C23799   7.090   4.607   8.631 -0.1651 -0.0807 -0.9791
  173MOL0     C23800   7.080   4.712   8.741 -0.2313 -0.5051 -0.2269
  173MOL0     C23801   7.096   4.781   8.838  0.0556 -0.2258  0.3799
  173MOL0     C23802   7.510   4.315   8.360 -0.4289  0.6495  1.4717
  173MOL0     C23803   7.599   4.341   8.254  0.6003  0.6593 -0.2096
  173MOL0     C23804   7.597   4.229   8.152  0.7289  0.1668  0.7847
  173MOL0     H23805   7.758   4.805   8.042  0.5071  2.6364  1.7877
  173MOL0     H23806   7.852   4.933   7.857 -2.4958 -1.0903  0.7241
  173MOL0     H23807   8.244   4.793   7.657 -0.4563 -1.7188  1.6329
  173MOL0     H23808   8.291   4.874   7.812 -0.2812 -0.6263  0.4741
  173MOL0     H23809   8.239   5.024   7.551  1.2971 -0.4053 -1.1882
  173MOL0     H23810   8.260   5.103   7.714 -2.7647  0.0721 -1.2914
  173MOL0     H23811   8.497   5.042   7.728 -2.1198  2.7326  0.9513
  173MOL0     H23812   8.466   4.905   7.617 -3.2472  0.4225 -0.6830
  173MOL0     H23813   8.447   5.067   7.424  1.1686 -0.0525 -1.0357
  173MOL0     H23814   8.435   5.203   7.538 -1.4068 -1.1790 -3.2048
  173MOL0     H23815   8.661   4.991   7.496  1.0315  1.3018 -1.9507
  173MOL0     H23816   8.666   5.126   7.619 -0.2132  1.1609  0.7288
  173MOL0     H23817   8.639   5.167   7.336 -0.2012 -0.9981  0.9200
  173MOL0     H23818   8.647   5.291   7.464  0.0825  0.1101 -0.3641
  173MOL0     H23819   8.883   5.191   7.518  1.2406 -1.4695 -0.6880
  173MOL0     H23820   8.877   5.272   7.363 -0.9451  0.8826  1.9509
  173MOL0     H23821   8.861   4.980   7.425 -1.0638  0.4059 -0.5713
  173MOL0     H23822   8.830   5.049   7.265  0.0981 -1.1450 -0.3306
  173MOL0     H23823   9.065   5.238   7.189 -0.2406  0.0011  0.7436
  173MOL0     H23824   9.374   5.182   7.135 -1.2675 -3.5505  0.8067
  173MOL0     H23825   9.445   5.186   7.304 -0.2453 -2.3981 -0.0977
  173MOL0     H23826   9.280   5.381   7.139 -0.2900  2.9736  1.5220
  173MOL0     H23827   9.265   5.401   7.302 -0.7860  0.0999  0.0842
  173MOL0     H23828   9.476   5.540   7.245  0.1712  0.7816  3.2330
  173MOL0     H23829   9.521   5.400   7.338 -1.9774 -3.2713  0.2929
  173MOL0     H23830   9.579   5.275   7.118 -0.9845 -0.1435  2.4614
  173MOL0     H23831   9.522   5.402   7.030 -0.7805 -2.1208 -0.2217
  173MOL0     H23832   9.713   5.235   7.274 -0.5897 -0.0339 -2.6545
  173MOL0     H23833   9.873   5.140   7.527  1.3593 -1.0620  0.4177
  173MOL0     H23834   9.962   5.035   7.420  1.2101  1.5307  1.4167
  173MOL0     H23835   9.789   5.064   7.388 -0.0272  1.1953 -0.7530
  173MOL0     H23836  10.107   5.070   7.748  0.0611 -0.7606  2.7474
  173MOL0     H23837  10.256   4.972   7.906 -1.3694 -2.0662 -0.8151
  173MOL0     H23838  10.698   4.921   7.781  1.5050 -0.8259  0.6992
  173MOL0     H23839  10.666   5.069   7.868  1.9733 -0.5204 -0.2945
  173MOL0     H23840  10.665   4.966   8.074  0.0995  1.7891 -0.7626
  173MOL0     H23841  10.715   4.808   8.002  0.3354 -0.7569 -0.3102
  173MOL0     H23842  10.867   5.070   8.020 -0.4740  0.7779 -4.8346
  173MOL0     H23843  10.924   4.939   7.920 -1.2570 -0.7385  0.2341
  173MOL0     H23844  10.923   4.780   8.122  2.8850 -0.6918  2.3671
  173MOL0     H23845  10.879   4.920   8.218 -1.7691 -1.2703  0.0165
  173MOL0     H23846  11.137   4.904   8.061 -0.1808  1.9620 -0.4769
  173MOL0     H23847  11.094   5.037   8.180  2.2389  0.6699  0.3962
  173MOL0     H23848  11.101   4.748   8.244  2.2640 -1.4161  1.2412
  173MOL0     H23849  11.074   4.891   8.346 -1.1660  0.6491 -0.9870
  173MOL0     H23850  11.302   4.972   8.307  0.7222 -1.0739  1.1849
  173MOL0     H23851  11.324   4.842   8.182  0.5784 -0.1902  0.8107
  173MOL0     H23852  11.288   4.672   8.342  1.4622  0.7412 -2.8132
  173MOL0     H23853  11.282   4.782   8.474 -2.2449 -1.6143 -0.7728
  173MOL0     H23854  10.565   5.007   7.599  0.3848  1.5383  0.5261
  173MOL0     H23855  10.398   5.101   7.445 -2.4701  0.6252 -0.4835
  173MOL0     H23856  10.144   5.457   7.217  0.2729 -0.1568 -1.4410
  173MOL0     H23857   9.953   5.532   7.091  4.4763 -0.4735 -0.2651
  173MOL0     H23858   8.201   4.672   7.861 -1.1824 -0.9055 -3.0870
  173MOL0     H23859   8.106   4.541   8.037  1.5105 -0.4917 -2.2675
  173MOL0     H23860   7.736   4.637   8.345  0.8317 -0.6132  3.2340
  173MOL0     H23861   7.578   4.601   8.526 -0.4638  0.1603  0.0239
  173MOL0     H23862   7.458   4.457   8.747 -1.3721 -1.9172 -0.0107
  173MOL0     H23863   7.400   4.588   8.644 -1.4404  0.1247 -0.9222
  173MOL0     H23864   7.265   4.542   8.829  2.8379  0.2957  0.0658
  173MOL0     H23865   7.280   4.372   8.797 -0.3476  0.1499 -1.2680
  173MOL0     H23866   7.132   4.400   8.596 -0.6034  0.1210 -0.1021
  173MOL0     H23867   7.046   4.429   8.746 -0.7406  1.1598 -0.7609
  173MOL0     H23868   6.992   4.606   8.583 -1.9943 -1.3398  2.3975
  173MOL0     H23869   7.157   4.640   8.552  0.1763  0.4446 -0.4777
  173MOL0     H23870   7.107   4.856   8.914  3.1592  0.0437 -0.1872
  173MOL0     H23871   7.452   4.224   8.368 -0.5870  0.6094  0.1314
  173MOL0     H23872   7.543   4.269   8.066 -0.1999  3.0295  2.5330
  173MOL0     H23873   7.694   4.207   8.107 -0.5558 -0.3999 -1.8852
  173MOL0     H23874   7.553   4.132   8.179  2.1865 -1.0209 -0.9419
  174MOL0     O23875   7.574   1.251   4.349  0.1537  0.2757  0.2405
  174MOL0     C23876   7.483   1.259   4.424 -0.2722  0.8085 -0.9101
  174MOL0     O23877   7.498   1.285   4.560  0.1807  0.6265  0.8015
  174MOL0     C23878   7.629   1.280   4.608  0.3654  0.6436  0.1952
  174MOL0     C23879   7.700   1.156   4.605  0.1208 -1.1477 -0.3240
  174MOL0     C23880   7.833   1.148   4.645  0.2193 -0.0680 -0.1768
  174MOL0     C23881   7.911   1.258   4.690  1.0951 -0.4877  0.6104
  174MOL0     O23882   8.044   1.243   4.732 -0.9392 -0.1595 -0.2707
  174MOL0     C23883   8.129   1.342   4.683 -1.1428 -0.4594 -1.0258
  174MOL0     C23884   8.251   1.328   4.758 -0.0806 -0.4725  0.1886
  174MOL0     C23885   8.313   1.192   4.753 -0.4356 -0.0288 -0.3550
  174MOL0     C23886   8.458   1.187   4.779  0.0574  0.1048 -0.7366
  174MOL0     C23887   8.504   1.039   4.751  0.2777  0.6372 -0.5097
  174MOL0     C23888   8.651   1.008   4.757  0.2026  0.3555  0.0623
  174MOL0     C23889   8.740   1.096   4.668 -0.6396  0.7438  0.5762
  174MOL0     C23890   8.705   1.110   4.512 -0.1492  0.6236 -0.9371
  174MOL0     N23891   8.703   0.974   4.452 -0.0860 -0.2783  0.2212
  174MOL0     C23892   8.811   0.909   4.395 -0.9551  0.1519 -0.0606
  174MOL0     C23893   8.771   0.796   4.336 -0.3879 -0.0334 -0.1768
  174MOL0     C23894   8.849   0.675   4.288  0.2202 -0.4000 -0.4246
  174MOL0     C23895   8.942   0.619   4.399 -0.7416 -0.5484 -1.1561
  174MOL0     C23896   9.078   0.695   4.416 -0.6655 -0.0466  0.5154
  174MOL0     C23897   9.150   0.726   4.278  0.4131 -0.3926  0.0698
  174MOL0     O23898   9.279   0.787   4.292 -0.0379 -0.0853 -0.2911
  174MOL0     C23899   9.383   0.715   4.339 -0.2485  1.1650 -0.0233
  174MOL0     C23900   9.400   0.573   4.355  0.0903 -0.0956  0.4315
  174MOL0     C23901   9.531   0.504   4.379 -0.2528 -0.0850  0.6457
  174MOL0     C23902   9.541   0.362   4.428 -0.7443  0.7502 -0.4494
  174MOL0     C23903   9.642   0.598   4.384 -0.5477  0.9357 -0.0531
  174MOL0     C23904   9.785   0.547   4.407 -0.0989 -0.1848 -0.3791
  174MOL0     O23905   9.877   0.655   4.431 -0.3905 -0.0584  0.2210
  174MOL0     C23906  10.014   0.651   4.419 -0.0258  0.4216  0.6075
  174MOL0     C23907  10.093   0.766   4.438  0.1429  0.9267  0.7738
  174MOL0     C23908  10.231   0.761   4.409  0.0585 -0.0574 -0.0705
  174MOL0     C23909  10.294   0.646   4.381 -0.4484  0.4904  0.4305
  174MOL0     O23910  10.421   0.638   4.326 -0.8269 -0.0562  0.2408
  174MOL0     C23911  10.517   0.739   4.347 -0.5117 -0.0077  0.4718
  174MOL0     C23912  10.655   0.667   4.335 -0.3539  0.7602 -0.1147
  174MOL0     C23913  10.711   0.637   4.477 -0.1546  0.4894 -0.0245
  174MOL0     C23914  10.762   0.496   4.492  0.4092 -0.3454  0.3927
  174MOL0     C23915  10.868   0.453   4.378  0.7034  0.4521 -0.1503
  174MOL0     C23916  11.008   0.501   4.402 -0.3046  0.3304  0.5288
  174MOL0     C23917  11.077   0.468   4.536  0.5094 -0.3208  0.5073
  174MOL0     C23918  11.217   0.532   4.566  0.4173  0.0939 -0.1665
  174MOL0    Cl23919  11.302   0.470   4.708 -0.0897  0.0468  0.0687
  174MOL0     C23920  10.224   0.527   4.371 -0.2214  0.3027 -1.0645
  174MOL0     C23921  10.090   0.529   4.398 -0.1327  0.1838 -0.1733
  174MOL0     O23922   9.811   0.431   4.384 -0.3799 -0.1620 -0.5369
  174MOL0     C23923   9.616   0.737   4.379 -0.1770  0.1995  0.1695
  174MOL0     C23924   9.493   0.791   4.352  0.0339 -0.1881 -1.6331
  174MOL0     N23925   8.634   0.801   4.341  0.2359 -0.4139  1.3649
  174MOL0     N23926   8.593   0.901   4.416  0.1754  0.0116  0.1241
  174MOL0     C23927   7.843   1.382   4.693  0.1625 -0.2030 -0.0580
  174MOL0     C23928   7.707   1.396   4.655  0.0728 -1.1080 -0.5379
  174MOL0     C23929   7.338   1.249   4.381 -0.5705 -0.1768  1.0668
  174MOL0     C23930   7.241   1.284   4.475 -1.4704 -0.4033  0.2066
  174MOL0     C23931   7.099   1.293   4.435 -1.0346 -0.8925 -0.5072
  174MOL0     C23932   7.063   1.254   4.308 -0.0407 -0.0666 -0.1553
  174MOL0     O23933   6.926   1.248   4.287 -0.2790 -0.8459  0.7360
  174MOL0     C23934   6.868   1.143   4.209 -0.7674  0.2299  0.4743
  174MOL0     C23935   6.728   1.126   4.249  0.2749  0.2554 -0.3151
  174MOL0     C23936   6.734   1.032   4.368  0.7820 -0.0356 -0.2467
  174MOL0     C23937   6.600   0.973   4.413 -0.4542  0.5231 -1.0183
  174MOL0     C23938   6.623   0.886   4.533 -0.2744 -0.1865 -0.4502
  174MOL0     C23939   6.629   0.799   4.620 -0.9228 -0.3803 -0.2037
  174MOL0     C23940   7.158   1.211   4.212 -1.1149  0.0343 -0.3765
  174MOL0     C23941   7.294   1.221   4.247  0.2816  0.3525 -0.0210
  174MOL0     C23942   7.384   1.188   4.135 -0.6548  0.1189 -0.1772
  174MOL0     H23943   7.649   1.073   4.557 -3.6712  0.4300  0.5795
  174MOL0     H23944   7.887   1.055   4.630  1.2602  0.4001  0.5201
  174MOL0     H23945   8.076   1.437   4.693  0.0265  0.1691 -0.6882
  174MOL0     H23946   8.158   1.335   4.578  1.6539  0.0856 -0.3601
  174MOL0     H23947   8.314   1.398   4.703 -0.9283 -0.9272 -1.3947
  174MOL0     H23948   8.236   1.362   4.861 -1.8728  0.3275 -0.3018
  174MOL0     H23949   8.262   1.122   4.819  2.2627 -0.9824  0.8314
  174MOL0     H23950   8.304   1.149   4.653 -2.0459 -2.1877  0.6400
  174MOL0     H23951   8.501   1.258   4.708  1.3201  0.1972  0.0753
  174MOL0     H23952   8.479   1.213   4.883  0.7168 -1.6527 -0.3939
  174MOL0     H23953   8.462   1.018   4.652  1.3431 -1.2854 -0.5874
  174MOL0     H23954   8.456   0.965   4.816 -1.1230 -0.9753 -3.1616
  174MOL0     H23955   8.684   1.022   4.860  1.5342 -1.3210 -0.0835
  174MOL0     H23956   8.652   0.903   4.728 -2.2591 -0.0348  1.1233
  174MOL0     H23957   8.841   1.054   4.662 -0.8980  0.2718 -0.9775
  174MOL0     H23958   8.739   1.195   4.715  1.8090  1.6257 -1.0347
  174MOL0     H23959   8.612   1.166   4.510 -0.0648  0.9335  1.0571
  174MOL0     H23960   8.790   1.159   4.464  0.4833  0.9534  0.4451
  174MOL0     H23961   8.910   0.942   4.423 -1.3675  0.2375  1.3576
  174MOL0     H23962   8.897   0.711   4.197  1.8421  1.1432  0.9714
  174MOL0     H23963   8.778   0.598   4.256  0.6399 -0.0457 -2.3368
  174MOL0     H23964   8.890   0.601   4.494  1.3719 -0.7608  0.0253
  174MOL0     H23965   8.977   0.521   4.367 -3.2542 -1.5586 -1.0988
  174MOL0     H23966   9.052   0.784   4.473 -1.3319 -1.0152  1.7905
  174MOL0     H23967   9.139   0.635   4.485 -2.3777 -2.6250 -0.0527
  174MOL0     H23968   9.152   0.640   4.211 -0.5659 -0.0670 -0.4021
  174MOL0     H23969   9.095   0.805   4.226 -0.5285 -1.2709 -0.3148
  174MOL0     H23970   9.304   0.524   4.347 -0.3012  0.8403 -0.9440
  174MOL0     H23971   9.627   0.347   4.495 -1.0889 -1.1675 -0.3743
  174MOL0     H23972   9.535   0.289   4.346  0.0627  2.3634 -2.0221
  174MOL0     H23973   9.451   0.340   4.486  0.0492 -0.1497  0.4924
  174MOL0     H23974  10.043   0.860   4.462  0.9271  0.8863  2.8533
  174MOL0     H23975  10.296   0.848   4.410 -0.1606  0.1157  1.5870
  174MOL0     H23976  10.503   0.819   4.273 -1.0148  0.2049  0.7879
  174MOL0     H23977  10.523   0.786   4.446  0.5878 -0.3790  0.5919
  174MOL0     H23978  10.630   0.573   4.285 -1.6914 -0.4161  2.5207
  174MOL0     H23979  10.726   0.728   4.278  1.5292 -2.0930 -1.0282
  174MOL0     H23980  10.636   0.640   4.556  1.2731  0.4755  1.3780
  174MOL0     H23981  10.788   0.712   4.497 -0.5066  0.8831 -0.1332
  174MOL0     H23982  10.678   0.427   4.496  0.5110 -0.5853 -1.2226
  174MOL0     H23983  10.810   0.498   4.591  0.7060  3.6040  0.3022
  174MOL0     H23984  10.871   0.343   4.382 -0.4652  0.1708 -3.4998
  174MOL0     H23985  10.833   0.486   4.280  0.1298  1.6013  0.4236
  174MOL0     H23986  11.003   0.610   4.397 -0.4483  0.2765 -0.6986
  174MOL0     H23987  11.085   0.471   4.330  0.7126 -0.6767  1.9597
  174MOL0     H23988  11.096   0.361   4.523  1.8152 -0.0819  0.3527
  174MOL0     H23989  11.018   0.502   4.622 -0.7716 -1.4763  0.1302
  174MOL0     H23990  11.211   0.641   4.567  0.2478  0.1030 -1.1764
  174MOL0     H23991  11.288   0.515   4.484 -1.0859  0.4017 -1.5821
  174MOL0     H23992  10.272   0.434   4.342 -0.4493  1.1386 -4.6507
  174MOL0     H23993  10.042   0.432   4.389  2.8621 -1.3112 -1.4744
  174MOL0     H23994   9.701   0.804   4.382  2.2911 -2.7707  2.5558
  174MOL0     H23995   9.486   0.899   4.340 -1.3415 -0.3653 -2.6953
  174MOL0     H23996   7.879   1.476   4.733 -1.5498 -0.1122  1.3988
  174MOL0     H23997   7.669   1.497   4.654  1.6462 -0.4471  0.9130
  174MOL0     H23998   7.273   1.296   4.578  0.6440 -1.3479 -0.2918
  174MOL0     H23999   7.018   1.316   4.504  1.6141  1.0679  2.2511
  174MOL0     H24000   6.874   1.179   4.106 -2.9280 -1.2707 -0.2338
  174MOL0     H24001   6.922   1.048   4.220 -3.0736 -1.1176  0.7005
  174MOL0     H24002   6.675   1.092   4.160  1.3685  1.7975 -1.6121
  174MOL0     H24003   6.685   1.225   4.270 -1.2220  0.3365 -3.2595
  174MOL0     H24004   6.788   0.941   4.339 -0.1311 -0.1121 -1.8642
  174MOL0     H24005   6.769   1.081   4.459 -2.0397  0.4385  0.6862
  174MOL0     H24006   6.554   0.926   4.325 -0.3178  2.6931 -2.3569
  174MOL0     H24007   6.528   1.047   4.450  0.5151  1.3000 -0.6567
  174MOL0     H24008   6.622   0.725   4.698 -1.7560 -2.5641 -2.2275
  174MOL0     H24009   7.122   1.186   4.112 -1.4448 -2.3729  0.2887
  174MOL0     H24010   7.450   1.107   4.167 -1.5829 -0.5302  0.1412
  174MOL0     H24011   7.319   1.164   4.051  0.3963  0.6562 -1.1721
  174MOL0     H24012   7.456   1.267   4.113 -2.3972  1.8720  0.1563
  175MOL0     O24013   5.014   8.592   7.814 -0.2792  0.1840 -0.0127
  175MOL0     C24014   5.091   8.519   7.872  0.0803 -0.5135  0.6150
  175MOL0     O24015   5.114   8.389   7.842  0.6922 -0.3157  0.3732
  175MOL0     C24016   5.071   8.337   7.729 -0.0103  0.0260 -0.1272
  175MOL0     C24017   5.091   8.399   7.607 -0.4670 -0.5244  0.2437
  175MOL0     C24018   5.058   8.345   7.485  0.4446 -1.0822 -0.7033
  175MOL0     C24019   5.015   8.208   7.474 -0.1626 -0.7174 -0.3432
  175MOL0     O24020   4.997   8.138   7.360 -0.0063  0.3532  0.1578
  175MOL0     C24021   5.083   8.167   7.244 -0.7364  0.2094 -0.4005
  175MOL0     C24022   5.018   8.240   7.130  1.0817 -0.0738 -0.5178
  175MOL0     C24023   4.899   8.169   7.074 -0.1752  0.0672 -0.6295
  175MOL0     C24024   4.811   8.276   7.003 -0.8257  0.0048  0.5879
  175MOL0     C24025   4.706   8.204   6.913 -0.1249  0.2035 -0.7926
  175MOL0     C24026   4.663   8.294   6.795 -0.4617 -0.3488  0.2983
  175MOL0     C24027   4.590   8.213   6.694 -0.6590  0.9497 -0.2248
  175MOL0     C24028   4.509   8.284   6.586 -0.8448 -0.0631  0.5442
  175MOL0     N24029   4.592   8.373   6.500 -0.4508 -0.5668  0.2986
  175MOL0     C24030   4.673   8.477   6.532 -0.5011 -0.7845 -0.3993
  175MOL0     C24031   4.723   8.515   6.410 -0.3292 -0.8364 -0.5498
  175MOL0     C24032   4.864   8.566   6.406 -0.0496 -0.3156  0.1165
  175MOL0     C24033   4.871   8.714   6.458  0.0411 -0.2477  0.4700
  175MOL0     C24034   5.009   8.776   6.441  0.2158  0.0530 -0.0509
  175MOL0     C24035   5.027   8.910   6.506  0.3896 -0.8468 -0.1065
  175MOL0     O24036   5.058   8.879   6.642 -0.0344  0.1144 -0.5456
  175MOL0     C24037   5.125   8.968   6.731  1.1533  0.7279  0.9415
  175MOL0     C24038   5.137   8.941   6.866 -0.3131 -0.1250  0.5015
  175MOL0     C24039   5.181   9.036   6.958  0.0436 -0.8117 -0.1477
  175MOL0     C24040   5.182   9.004   7.108  0.1291  1.0308 -0.6360
  175MOL0     C24041   5.229   9.165   6.911 -0.3565 -0.0442 -0.5716
  175MOL0     C24042   5.309   9.258   6.989  0.7172 -0.3062 -0.0211
  175MOL0     O24043   5.336   9.377   6.924 -0.3613  0.4072 -0.5471
  175MOL0     C24044   5.396   9.471   6.995 -1.1047 -0.0555  0.7029
  175MOL0     C24045   5.321   9.564   7.066 -0.2574  0.1322 -0.3210
  175MOL0     C24046   5.387   9.659   7.145  0.4830  0.5836 -1.0623
  175MOL0     C24047   5.528   9.659   7.156  1.2686 -0.0295  0.9326
  175MOL0     O24048   5.589   9.747   7.242  0.0024  0.1512 -0.0936
  175MOL0     C24049   5.520   9.859   7.310  0.0569 -0.9240 -0.0908
  175MOL0     C24050   5.620   9.943   7.395  0.4961  0.1891 -0.2794
  175MOL0     C24051   5.691  10.051   7.310 -0.4238 -0.3681  0.5792
  175MOL0     C24052   5.769  10.158   7.389 -0.1165 -0.4721 -0.0539
  175MOL0     C24053   5.891  10.098   7.445  0.0163  0.1760 -0.3666
  175MOL0     C24054   5.983  10.197   7.510 -0.4886 -0.1956  0.0038
  175MOL0     C24055   6.106  10.140   7.581 -0.0664 -0.2352  0.4854
  175MOL0     C24056   6.214  10.250   7.599  0.2494 -0.3695 -0.6374
  175MOL0    Cl24057   6.270  10.343   7.466 -0.1122 -0.0439 -0.2659
  175MOL0     C24058   5.607   9.580   7.077 -0.5497  0.6773  0.5273
  175MOL0     C24059   5.542   9.492   6.993 -0.3183  0.3096  0.9459
  175MOL0     O24060   5.351   9.228   7.101 -0.0614  0.0257 -1.0154
  175MOL0     C24061   5.207   9.200   6.776 -0.5917  0.7593  0.2891
  175MOL0     C24062   5.152   9.101   6.690  0.7908 -0.4088  0.7888
  175MOL0     N24063   4.643   8.455   6.312 -0.6109  0.4172  0.4024
  175MOL0     N24064   4.557   8.383   6.372  0.4400  0.3499  0.4801
  175MOL0     C24065   4.991   8.141   7.597 -0.2544  0.4543  0.1133
  175MOL0     C24066   5.015   8.204   7.719  0.8291  0.3500  0.2266
  175MOL0     C24067   5.176   8.586   7.978  0.2005  0.1954 -0.2321
  175MOL0     C24068   5.303   8.527   7.997 -0.0690  0.3760 -0.5697
  175MOL0     C24069   5.403   8.580   8.072 -0.1444  0.7091  0.1057
  175MOL0     C24070   5.381   8.699   8.145  0.2135 -0.1778 -0.4157
  175MOL0     O24071   5.480   8.765   8.213  0.3279  0.4060  0.0187
  175MOL0     C24072   5.596   8.694   8.253 -0.1687  0.7827 -0.6612
  175MOL0     C24073   5.664   8.798   8.339 -0.0790  0.3972 -0.0909
  175MOL0     C24074   5.737   8.908   8.259 -0.0572  0.6140 -1.2849
  175MOL0     C24075   5.783   9.026   8.359 -0.0253  1.5753  0.6772
  175MOL0     C24076   5.682   9.131   8.350  0.5350  0.4065  0.4414
  175MOL0     C24077   5.587   9.210   8.355  0.5517  0.4196  0.8427
  175MOL0     C24078   5.250   8.756   8.141 -0.1137  0.3770  0.3542
  175MOL0     C24079   5.145   8.699   8.059 -0.4394  0.0378 -0.1831
  175MOL0     C24080   5.013   8.770   8.052 -0.2362 -0.5441 -0.4627
  175MOL0     H24081   5.151   8.489   7.599  2.4662 -2.3410  0.3065
  175MOL0     H24082   5.091   8.404   7.401  3.1236 -0.1057  0.9258
  175MOL0     H24083   5.125   8.076   7.199  1.5616  0.0037  1.9767
  175MOL0     H24084   5.177   8.211   7.276 -1.0397  1.4019 -1.1099
  175MOL0     H24085   4.985   8.339   7.162 -1.1693 -0.2895 -1.9416
  175MOL0     H24086   5.091   8.244   7.048  2.6455  0.6035  0.8435
  175MOL0     H24087   4.930   8.093   7.003 -1.0375 -0.2537 -0.6743
  175MOL0     H24088   4.836   8.115   7.145 -0.7992  0.6243 -0.7498
  175MOL0     H24089   4.769   8.348   7.074  1.7951  2.0955  0.1633
  175MOL0     H24090   4.877   8.328   6.933  0.6736 -1.2863  0.9801
  175MOL0     H24091   4.617   8.175   6.969  1.9313 -3.6331  0.8694
  175MOL0     H24092   4.743   8.106   6.881  2.6945 -0.1142  2.7531
  175MOL0     H24093   4.603   8.381   6.825  1.7832  2.3003 -2.3363
  175MOL0     H24094   4.753   8.320   6.738  0.7236 -0.7722  1.9134
  175MOL0     H24095   4.513   8.162   6.752 -0.2989 -2.1988 -2.2563
  175MOL0     H24096   4.649   8.132   6.650 -2.0166 -0.7938  1.0048
  175MOL0     H24097   4.458   8.206   6.528  0.9098  0.6309 -2.1563
  175MOL0     H24098   4.427   8.343   6.628 -1.5621 -0.3073 -0.4694
  175MOL0     H24099   4.712   8.500   6.631  0.5725 -3.0753 -0.2398
  175MOL0     H24100   4.892   8.565   6.301 -0.8046  2.7310 -0.2116
  175MOL0     H24101   4.924   8.498   6.467 -0.8546  0.8319  2.3213
  175MOL0     H24102   4.795   8.775   6.409 -0.8116  0.0551  2.1057
  175MOL0     H24103   4.847   8.713   6.565  0.3658 -3.4501  0.5902
  175MOL0     H24104   5.078   8.700   6.479 -1.7323 -0.5030  2.6329
  175MOL0     H24105   5.013   8.794   6.333  0.1051 -0.0613 -0.0743
  175MOL0     H24106   5.112   8.963   6.462  1.1762  1.0499  3.3855
  175MOL0     H24107   4.941   8.975   6.489  0.3268 -0.8532  0.1784
  175MOL0     H24108   5.112   8.840   6.899  2.8556 -0.8141  1.0697
  175MOL0     H24109   5.150   8.904   7.136 -0.1120  1.7704  1.9467
  175MOL0     H24110   5.109   9.072   7.152  1.0325  2.1103 -0.7297
  175MOL0     H24111   5.282   9.018   7.152  1.1906  1.1075 -2.9137
  175MOL0     H24112   5.213   9.570   7.057 -0.2885  4.1067  0.9789
  175MOL0     H24113   5.328   9.729   7.205 -0.0081  0.4376 -1.3723
  175MOL0     H24114   5.476   9.919   7.229 -1.6287  0.8013  1.9801
  175MOL0     H24115   5.438   9.829   7.376 -1.6912  1.2438 -1.1410
  175MOL0     H24116   5.564   9.996   7.472  3.3271 -1.0011  2.7998
  175MOL0     H24117   5.691   9.874   7.441 -0.8387 -0.8483  0.2858
  175MOL0     H24118   5.612  10.097   7.249  3.4129  0.0971 -4.8097
  175MOL0     H24119   5.757  10.017   7.229 -3.3232  0.0188 -2.1370
  175MOL0     H24120   5.713  10.208   7.469  0.2390 -2.4025  1.4833
  175MOL0     H24121   5.805  10.231   7.316 -1.1982  0.7536  0.6161
  175MOL0     H24122   5.862  10.028   7.524 -0.3610  0.8771  0.1241
  175MOL0     H24123   5.938  10.039   7.366  1.8851  1.2512 -0.1256
  175MOL0     H24124   5.923  10.248   7.586 -1.4874 -4.5729  2.5067
  175MOL0     H24125   6.014  10.265   7.430 -0.4271 -1.6861 -1.2862
  175MOL0     H24126   6.156  10.059   7.527  1.3343  0.0423  1.3123
  175MOL0     H24127   6.071  10.100   7.677 -1.2209  0.1288  0.2295
  175MOL0     H24128   6.296  10.203   7.654  0.4257  1.0281  0.3484
  175MOL0     H24129   6.166  10.320   7.668 -2.2946 -0.6770 -1.9767
  175MOL0     H24130   5.715   9.592   7.082 -0.4254  5.2888 -4.5460
  175MOL0     H24131   5.593   9.416   6.934 -0.2205 -1.9879  3.8082
  175MOL0     H24132   5.237   9.296   6.735  0.4822  0.2021 -0.2642
  175MOL0     H24133   5.139   9.140   6.589 -0.4224 -0.6264  0.8462
  175MOL0     H24134   4.963   8.036   7.603  2.5418 -0.3403  0.8731
  175MOL0     H24135   5.008   8.138   7.805  3.0450  0.6463  0.7023
  175MOL0     H24136   5.319   8.442   7.932 -0.0304  1.0141 -1.4037
  175MOL0     H24137   5.503   8.538   8.062  0.0687  1.6050 -1.9151
  175MOL0     H24138   5.574   8.606   8.315  1.2333 -0.0334 -1.2820
  175MOL0     H24139   5.650   8.663   8.163  2.7773  1.1330  0.8713
  175MOL0     H24140   5.737   8.755   8.408  0.8895  0.1245 -1.2428
  175MOL0     H24141   5.579   8.837   8.395 -1.4212 -0.9549 -1.1055
  175MOL0     H24142   5.825   8.857   8.218  0.0367 -2.0041  1.7995
  175MOL0     H24143   5.669   8.950   8.184 -2.8140  0.1401  0.8121
  175MOL0     H24144   5.881   9.063   8.330 -0.2387  0.9131 -0.9930
  175MOL0     H24145   5.798   8.991   8.461 -2.0348  1.1862  0.8889
  175MOL0     H24146   5.504   9.277   8.371 -1.3429 -1.5221 -0.3183
  175MOL0     H24147   5.243   8.851   8.193 -1.4430 -0.5293  1.9180
  175MOL0     H24148   5.014   8.856   8.120  3.1532  0.3860 -1.4690
  175MOL0     H24149   4.989   8.808   7.952 -2.0426 -1.5416 -0.4569
  175MOL0     H24150   4.929   8.706   8.078 -0.9264  0.0683 -1.1254
  176MOL0     O24151   8.113   5.892   0.016  0.2671  0.3624 -0.4091
  176MOL0     C24152   8.005   5.940   0.058  1.2180  0.4374  0.3599
  176MOL0     O24153   7.992   5.981   0.187 -0.5415  0.1682  0.0277
  176MOL0     C24154   8.082   5.986   0.288  0.6719  1.0018  1.1427
  176MOL0     C24155   8.213   5.932   0.282  0.9409 -0.4118 -0.3282
  176MOL0     C24156   8.299   5.956   0.390 -0.3292 -0.3623 -0.4763
  176MOL0     C24157   8.239   5.998   0.516  0.8856 -1.0885  0.1823
  176MOL0     O24158   8.309   6.015   0.638 -0.1869 -1.0122  0.3969
  176MOL0     C24159   8.451   5.967   0.646 -0.1653  0.5060  0.3378
  176MOL0     C24160   8.498   5.972   0.791  0.0830  0.3915  0.7524
  176MOL0     C24161   8.497   6.108   0.852  0.2454  0.1181  0.3950
  176MOL0     C24162   8.591   6.119   0.971 -0.2294 -0.4319 -0.3408
  176MOL0     C24163   8.596   6.267   1.020  0.0210 -0.1483  0.1939
  176MOL0     C24164   8.675   6.274   1.149 -1.3695 -0.4327  0.1629
  176MOL0     C24165   8.732   6.420   1.173  0.5103 -0.2155  0.6388
  176MOL0     C24166   8.782   6.421   1.319 -0.1142  0.1175 -0.1879
  176MOL0     N24167   8.816   6.564   1.347  0.2403 -0.3046 -0.5424
  176MOL0     C24168   8.927   6.617   1.301 -0.2661  0.0005  0.3351
  176MOL0     C24169   8.928   6.746   1.353 -0.3082  0.0483 -0.1134
  176MOL0     C24170   9.027   6.851   1.313 -0.5079  0.1521 -0.2505
  176MOL0     C24171   8.963   6.932   1.190  0.6047 -0.1605  0.0683
  176MOL0     C24172   9.067   7.038   1.144  0.3851  0.4358 -0.5825
  176MOL0     C24173   9.194   6.978   1.073  0.0015 -0.3345 -0.0906
  176MOL0     O24174   9.259   7.098   1.041  0.1063  0.7854  0.6049
  176MOL0     C24175   9.382   7.092   0.979 -0.1752  0.2734  0.3718
  176MOL0     C24176   9.442   7.224   0.961 -0.5618  0.1858  0.3702
  176MOL0     C24177   9.576   7.243   0.920 -0.4295  0.2184  0.2590
  176MOL0     C24178   9.615   7.388   0.903  0.3760  0.0727  0.4398
  176MOL0     C24179   9.644   7.125   0.876 -0.1999  0.3782  0.6786
  176MOL0     C24180   9.788   7.121   0.830  0.6145  0.0514  0.0361
  176MOL0     O24181   9.825   7.010   0.764  0.1505 -0.0418 -1.0404
  176MOL0     C24182   9.964   6.981   0.752  0.4530 -0.4777 -0.0497
  176MOL0     C24183  10.007   6.854   0.812  1.7462 -0.1941  0.1907
  176MOL0     C24184  10.133   6.811   0.805  0.1837  0.1292 -0.2007
  176MOL0     C24185  10.227   6.879   0.729  0.2758  0.3986  0.3963
  176MOL0     O24186  10.362   6.849   0.706 -0.2147 -0.0416  0.3292
  176MOL0     C24187  10.411   6.731   0.772  1.4633 -0.0650  0.2793
  176MOL0     C24188  10.553   6.688   0.759 -0.6877  0.1664  0.7049
  176MOL0     C24189  10.647   6.788   0.822  0.4815 -0.2602 -1.5579
  176MOL0     C24190  10.795   6.750   0.816  1.0545 -0.8769  0.1105
  176MOL0     C24191  10.880   6.883   0.819  0.5339 -0.7811 -0.8393
  176MOL0     C24192  10.886   6.960   0.691 -0.6102 -0.7446 -0.0747
  176MOL0     C24193  10.959   7.093   0.695 -0.7811  0.6401 -0.9480
  176MOL0     C24194  11.115   7.084   0.692  1.2449 -0.7748  1.1283
  176MOL0    Cl24195  11.180   7.243   0.675  0.0139 -0.1445  0.2544
  176MOL0     C24196  10.186   6.996   0.660  0.4775  0.6332 -0.7069
  176MOL0     C24197  10.059   7.052   0.683  0.8699 -0.1136 -0.1441
  176MOL0     O24198   9.863   7.217   0.843  0.6224 -0.1082  0.0997
  176MOL0     C24199   9.583   6.990   0.882  0.5659 -0.2777 -0.2358
  176MOL0     C24200   9.449   6.978   0.930  0.7375 -0.1510  0.0746
  176MOL0     N24201   8.811   6.763   1.433  0.0030  0.2524  0.8468
  176MOL0     N24202   8.747   6.652   1.427  0.3356  0.7449 -0.0281
  176MOL0     C24203   8.104   6.042   0.527  0.0146 -0.4419  0.4153
  176MOL0     C24204   8.028   6.031   0.410 -0.0997  0.0709 -0.3224
  176MOL0     C24205   7.900   5.954  -0.043  0.7349 -0.3064 -0.2742
  176MOL0     C24206   7.829   5.838  -0.076 -0.0913  1.0628 -0.3038
  176MOL0     C24207   7.711   5.838  -0.155  0.7296  0.3258  0.2139
  176MOL0     C24208   7.666   5.957  -0.205 -0.2671  0.4306 -0.3756
  176MOL0     O24209   7.554   5.956  -0.285  0.4392  0.1991 -0.6730
  176MOL0     C24210   7.543   6.070  -0.371 -0.7383  0.0477 -0.3022
  176MOL0     C24211   7.436   6.025  -0.460  1.1225  0.6509  0.0751
  176MOL0     C24212   7.318   5.954  -0.389 -0.1328 -0.9171 -0.2845
  176MOL0     C24213   7.198   5.953  -0.473  0.7523  0.3011 -0.1092
  176MOL0     C24214   7.211   5.870  -0.596  0.3506 -0.2066  0.6518
  176MOL0     C24215   7.206   5.803  -0.696  0.1645  0.0179  0.3955
  176MOL0     C24216   7.741   6.073  -0.175  1.1110  0.8462  0.3200
  176MOL0     C24217   7.860   6.077  -0.099  0.3616  0.3068 -0.4010
  176MOL0     C24218   7.926   6.205  -0.078 -0.5554 -0.3451 -1.4192
  176MOL0     H24219   8.258   5.885   0.196 -0.8884 -1.9905 -0.4561
  176MOL0     H24220   8.402   5.924   0.382 -0.4113 -0.3604 -1.8082
  176MOL0     H24221   8.519   6.024   0.581 -0.7347  1.3785  0.4894
  176MOL0     H24222   8.447   5.864   0.610 -0.9983  0.8196 -0.4894
  176MOL0     H24223   8.431   5.908   0.849  1.1715 -0.0561  1.5307
  176MOL0     H24224   8.594   5.922   0.780 -0.6562 -0.8144 -0.5927
  176MOL0     H24225   8.535   6.180   0.779  1.2545 -1.0739 -0.2744
  176MOL0     H24226   8.394   6.127   0.884 -1.1195 -1.0248 -2.9328
  176MOL0     H24227   8.562   6.053   1.054  1.2145  2.0200  2.2757
  176MOL0     H24228   8.691   6.088   0.938  0.9906  2.5319  0.2135
  176MOL0     H24229   8.497   6.312   1.033 -0.4475 -1.6040  2.2026
  176MOL0     H24230   8.647   6.326   0.944 -1.7754  0.5046 -0.5500
  176MOL0     H24231   8.617   6.242   1.237  0.2868 -3.2445  0.3593
  176MOL0     H24232   8.763   6.211   1.131  1.3208  2.8549  0.6535
  176MOL0     H24233   8.649   6.487   1.150  0.4987  0.2606  2.0078
  176MOL0     H24234   8.818   6.433   1.106  1.8385 -0.1483  2.2801
  176MOL0     H24235   8.704   6.388   1.389  0.6054 -0.0683  0.5338
  176MOL0     H24236   8.870   6.357   1.327 -0.7749 -1.0214 -1.6351
  176MOL0     H24237   8.986   6.575   1.220  0.9966  1.2073  0.5849
  176MOL0     H24238   9.127   6.808   1.301 -0.1761  0.5893  0.7963
  176MOL0     H24239   9.036   6.922   1.395  1.1040 -0.8487  0.4797
  176MOL0     H24240   8.929   6.863   1.113 -0.5758  0.8828 -0.3629
  176MOL0     H24241   8.878   6.982   1.236  1.8975  2.4220 -0.2006
  176MOL0     H24242   9.017   7.106   1.075 -0.5737  1.2972  0.9412
  176MOL0     H24243   9.107   7.090   1.231 -0.3160 -1.9876  1.3090
  176MOL0     H24244   9.255   6.917   1.140  0.6807  0.4561  0.0255
  176MOL0     H24245   9.166   6.925   0.982 -0.1125 -0.0979 -0.1945
  176MOL0     H24246   9.378   7.308   0.983 -0.3423  1.0206 -1.9279
  176MOL0     H24247   9.557   7.455   0.968  1.9925  0.2880  1.7176
  176MOL0     H24248   9.611   7.426   0.801  0.9392  1.4536  0.9013
  176MOL0     H24249   9.714   7.408   0.944  0.5443  3.6480 -1.2753
  176MOL0     H24250   9.938   6.790   0.867  3.9158 -2.3568  0.5998
  176MOL0     H24251  10.156   6.725   0.866  2.5598 -0.0469 -1.2056
  176MOL0     H24252  10.384   6.730   0.878 -0.4822  2.5193 -0.0755
  176MOL0     H24253  10.363   6.655   0.709  1.6918 -0.4245  0.5377
  176MOL0     H24254  10.571   6.588   0.799  4.2629  0.6464  0.3265
  176MOL0     H24255  10.568   6.685   0.650 -5.0315  2.4568 -0.1725
  176MOL0     H24256  10.623   6.793   0.929 -0.8124  0.1666 -1.8453
  176MOL0     H24257  10.622   6.890   0.792 -0.5047 -0.3634 -1.1150
  176MOL0     H24258  10.808   6.709   0.715  2.9689 -0.5658  0.2121
  176MOL0     H24259  10.819   6.683   0.899  0.5997 -1.3535 -0.1381
  176MOL0     H24260  10.846   6.943   0.903  2.0516 -3.8786  2.2563
  176MOL0     H24261  10.984   6.863   0.849  0.5208  1.1603  0.6684
  176MOL0     H24262  10.789   6.978   0.644  0.9084  1.4756 -2.6519
  176MOL0     H24263  10.935   6.903   0.611 -2.6873  1.8301 -3.4615
  176MOL0     H24264  10.919   7.135   0.787  0.7151 -0.6173  0.3469
  176MOL0     H24265  10.926   7.156   0.612  2.5123  2.6989 -0.8761
  176MOL0     H24266  11.140   7.029   0.601  0.3021  2.1354 -1.0615
  176MOL0     H24267  11.168   7.049   0.781  4.0593  0.6372  0.1512
  176MOL0     H24268  10.254   7.043   0.589  2.0368 -2.4940 -1.4490
  176MOL0     H24269  10.031   7.145   0.635  1.1377 -0.7509 -1.5784
  176MOL0     H24270   9.623   6.893   0.852  1.8054 -0.3540  1.5252
  176MOL0     H24271   9.394   6.887   0.950 -1.1373  0.7290 -0.8624
  176MOL0     H24272   8.061   6.078   0.620 -0.0880  1.4327 -0.3120
  176MOL0     H24273   7.929   6.074   0.423 -0.1544 -0.4721  1.1995
  176MOL0     H24274   7.868   5.738  -0.060  0.5767  1.5352  1.1923
  176MOL0     H24275   7.665   5.742  -0.172 -1.1843  0.8608  1.9949
  176MOL0     H24276   7.514   6.161  -0.318 -0.8068 -0.6398  0.8634
  176MOL0     H24277   7.638   6.089  -0.423 -1.2416  0.5932 -1.0530
  176MOL0     H24278   7.471   5.947  -0.529  1.2013  1.8490 -1.2821
  176MOL0     H24279   7.398   6.106  -0.523 -0.7335 -0.9541 -1.0040
  176MOL0     H24280   7.343   5.855  -0.352  0.1533  0.1093  2.5094
  176MOL0     H24281   7.295   6.010  -0.297  2.1193 -0.4402  0.0344
  176MOL0     H24282   7.157   6.053  -0.488  0.7966 -0.0501 -3.1804
  176MOL0     H24283   7.121   5.907  -0.410  0.0415 -0.1036 -1.2596
  176MOL0     H24284   7.210   5.738  -0.781 -1.4451  1.8944 -1.2304
  176MOL0     H24285   7.707   6.165  -0.223 -1.1343  0.5349  1.1811
  176MOL0     H24286   8.022   6.213  -0.130 -0.4630  0.5891 -1.1202
  176MOL0     H24287   7.876   6.292  -0.122 -2.1176 -1.2369 -1.4947
  176MOL0     H24288   7.932   6.225   0.029 -0.2053 -3.0162 -0.8692
  177MOL0     O24289  11.311   5.093   3.323  0.1684  0.2778 -1.3667
  177MOL0     C24290  11.230   5.147   3.247 -0.7285  0.2713 -0.5290
  177MOL0     O24291  11.192   5.273   3.248  1.5451  1.1719 -0.2883
  177MOL0     C24292  11.275   5.379   3.260 -1.4034  0.4348  0.5344
  177MOL0     C24293  11.241   5.506   3.194 -0.4682  0.2112 -0.4267
  177MOL0     C24294  11.324   5.621   3.203  0.2054  1.2983  0.5449
  177MOL0     C24295  11.445   5.616   3.267 -0.0731  0.2194 -0.8088
  177MOL0     O24296  11.509   5.734   3.258 -0.7319  0.1645 -0.3569
  177MOL0     C24297  11.611   5.765   3.356  0.5457  0.1832 -0.1521
  177MOL0     C24298  11.630   5.916   3.373  0.5043 -0.3218 -0.2296
  177MOL0     C24299  11.742   5.951   3.469 -0.5371 -0.8225  0.3978
  177MOL0     C24300  11.780   6.100   3.437  0.0706 -0.0048 -0.5193
  177MOL0     C24301  11.884   6.117   3.325 -0.8240 -0.0082  0.0386
  177MOL0     C24302  12.015   6.049   3.371 -0.4145 -0.9394  0.7310
  177MOL0     C24303  12.144   6.132   3.358  0.7133  1.0003 -0.2845
  177MOL0     C24304  12.228   6.092   3.481  0.3123  1.1055  0.4066
  177MOL0     N24305  12.369   6.130   3.445 -0.1006 -0.6126  0.4656
  177MOL0     C24306  12.433   6.222   3.527  0.0742 -0.1757  0.1470
  177MOL0     C24307  12.556   6.240   3.472 -1.4841 -0.4869  0.4340
  177MOL0     C24308  12.662   6.333   3.522  0.4210 -0.1096  0.9062
  177MOL0     C24309  12.732   6.271   3.642 -0.0568  0.0011  0.1106
  177MOL0     C24310  12.861   6.347   3.687  0.1521  0.5865 -1.0119
  177MOL0     C24311  12.944   6.262   3.777 -0.5517 -0.1747  0.2542
  177MOL0     O24312  13.056   6.346   3.814 -0.0773  0.1344  0.2937
  177MOL0     C24313  13.134   6.320   3.926  0.3996 -0.3972 -1.2532
  177MOL0     C24314  13.209   6.429   3.974  0.6402  0.3704 -0.8125
  177MOL0     C24315  13.304   6.415   4.077  0.0852  0.5482  0.7903
  177MOL0     C24316  13.372   6.551   4.120 -0.2084 -0.7186  0.5473
  177MOL0     C24317  13.332   6.288   4.127 -0.8289 -0.3520  0.6419
  177MOL0     C24318  13.434   6.260   4.238 -0.6547 -0.3656 -0.6845
  177MOL0     O24319  13.480   6.364   4.315 -0.5241 -0.5588 -1.1841
  177MOL0     C24320  13.599   6.352   4.393  0.6027 -0.7098 -0.3358
  177MOL0     C24321  13.701   6.257   4.386 -0.0052 -0.5840  0.2969
  177MOL0     C24322  13.803   6.251   4.480 -0.6943 -0.0190 -0.0525
  177MOL0     C24323  13.815   6.347   4.578  0.9148  0.1538  0.4211
  177MOL0     O24324  13.919   6.354   4.666 -0.0675 -0.4431 -0.0108
  177MOL0     C24325  13.897   6.408   4.797 -0.5753 -0.0352  1.4564
  177MOL0     C24326  14.011   6.362   4.879  0.3624 -0.2395  0.7405
  177MOL0     C24327  13.988   6.241   4.978 -0.0615  0.1131  1.6632
  177MOL0     C24328  13.988   6.094   4.914 -0.3768 -0.5915 -0.0679
  177MOL0     C24329  13.846   6.020   4.909  0.1486  0.1528  0.2116
  177MOL0     C24330  13.880   5.878   4.869  0.3096  0.2984 -0.3154
  177MOL0     C24331  13.754   5.806   4.810  0.0149 -0.5391 -0.3905
  177MOL0     C24332  13.789   5.727   4.685 -0.2614  0.1175 -0.4363
  177MOL0    Cl24333  13.826   5.839   4.546  0.0028  0.1833  0.3374
  177MOL0     C24334  13.718   6.446   4.584  0.5331  0.3895  0.2245
  177MOL0     C24335  13.602   6.439   4.502 -0.2584 -0.2933  1.2598
  177MOL0     O24336  13.451   6.141   4.263  0.2160 -0.4007  0.3821
  177MOL0     C24337  13.264   6.171   4.069  0.3771 -0.1919  0.2165
  177MOL0     C24338  13.166   6.190   3.966 -0.1880 -1.4353 -1.2674
  177MOL0     N24339  12.558   6.162   3.354  0.0547 -0.0132  0.9685
  177MOL0     N24340  12.444   6.106   3.340  0.4050  0.0164 -0.2732
  177MOL0     C24341  11.487   5.491   3.318 -0.7851  0.3669 -0.9446
  177MOL0     C24342  11.414   5.373   3.306 -0.2639 -0.7339 -0.3636
  177MOL0     C24343  11.172   5.074   3.130 -0.4961 -0.9269  1.0884
  177MOL0     C24344  11.060   5.126   3.057 -0.5154  0.5628 -0.0508
  177MOL0     C24345  10.999   5.056   2.958  0.5009  0.0056 -0.0511
  177MOL0     C24346  11.054   4.932   2.913 -0.4061  1.5312  0.7408
  177MOL0     O24347  10.990   4.844   2.818 -0.2292 -0.0269  0.1791
  177MOL0     C24348  10.868   4.896   2.770 -0.0590 -0.5309  0.0802
  177MOL0     C24349  10.803   4.798   2.673  0.7765 -1.1311 -0.0679
  177MOL0     C24350  10.716   4.691   2.733  0.2719 -0.1487 -0.0349
  177MOL0     C24351  10.787   4.596   2.829 -0.5591  0.0058  1.0475
  177MOL0     C24352  10.705   4.478   2.861  0.1214  0.2492 -0.0487
  177MOL0     C24353  10.633   4.375   2.878 -1.1006 -0.5709  0.1950
  177MOL0     C24354  11.166   4.888   2.965 -0.3430  0.2195 -0.6404
  177MOL0     C24355  11.227   4.952   3.073 -0.1036 -0.5859  0.1083
  177MOL0     C24356  11.358   4.889   3.107 -0.1833 -0.3371 -0.8533
  177MOL0     H24357  11.146   5.516   3.141 -0.8680  2.3497  0.5974
  177MOL0     H24358  11.293   5.708   3.146 -1.4570 -0.9278 -2.1649
  177MOL0     H24359  11.708   5.723   3.328  1.4845  2.6327 -0.8341
  177MOL0     H24360  11.583   5.725   3.454  2.0611 -1.2839 -0.2552
  177MOL0     H24361  11.659   5.945   3.272 -0.3834 -2.2806 -1.1155
  177MOL0     H24362  11.538   5.962   3.410 -0.7215 -3.3009  0.7749
  177MOL0     H24363  11.706   5.949   3.573 -2.5196  1.2148 -0.1803
  177MOL0     H24364  11.824   5.878   3.471 -0.6874 -0.9767  1.4467
  177MOL0     H24365  11.691   6.157   3.409  0.8100  0.9712 -0.9216
  177MOL0     H24366  11.810   6.148   3.531 -1.5393 -1.5804  0.8687
  177MOL0     H24367  11.912   6.222   3.310  1.2031 -0.1895  1.9301
  177MOL0     H24368  11.836   6.081   3.234 -0.1328 -0.5306 -0.1321
  177MOL0     H24369  12.008   6.000   3.468 -1.6787 -3.3251 -0.4827
  177MOL0     H24370  12.019   5.974   3.292 -3.4120 -0.1959 -0.2913
  177MOL0     H24371  12.115   6.237   3.361 -0.7433  0.6093  0.1877
  177MOL0     H24372  12.189   6.108   3.261 -0.2083  0.5594 -0.6210
  177MOL0     H24373  12.186   6.133   3.573  0.4158 -1.7823  1.8400
  177MOL0     H24374  12.225   5.984   3.496 -0.0680  0.9613 -0.6182
  177MOL0     H24375  12.411   6.263   3.625  0.5471  0.8089 -0.1505
  177MOL0     H24376  12.615   6.431   3.533 -1.3425 -0.6709 -1.1638
  177MOL0     H24377  12.742   6.335   3.447 -1.4103 -0.0928 -1.1074
  177MOL0     H24378  12.662   6.268   3.726  0.2515  2.5212  0.5541
  177MOL0     H24379  12.766   6.171   3.613  1.3742  0.6168 -0.4451
  177MOL0     H24380  12.921   6.362   3.596  0.3320 -1.4401 -1.2867
  177MOL0     H24381  12.838   6.445   3.730 -0.2217 -0.3582  1.0620
  177MOL0     H24382  12.888   6.240   3.869  0.5917 -0.8631  0.8124
  177MOL0     H24383  12.968   6.167   3.729 -1.2447 -1.0207  1.5104
  177MOL0     H24384  13.188   6.520   3.920  0.2889  0.5480 -0.3854
  177MOL0     H24385  13.361   6.552   4.229  2.7749 -2.1691  0.9655
  177MOL0     H24386  13.322   6.635   4.072 -2.2221 -2.1197  0.0611
  177MOL0     H24387  13.479   6.552   4.097 -0.3993 -2.6710 -0.6428
  177MOL0     H24388  13.689   6.177   4.314  0.4066 -0.4727  0.1014
  177MOL0     H24389  13.869   6.165   4.480  0.9776  1.2127 -0.6473
  177MOL0     H24390  13.897   6.517   4.797  0.2177 -0.0204  0.7401
  177MOL0     H24391  13.802   6.372   4.836 -2.3311  3.8692  1.1886
  177MOL0     H24392  14.097   6.328   4.821  0.4980 -0.5707  1.1383
  177MOL0     H24393  14.039   6.453   4.933 -1.7590 -0.2765  2.0245
  177MOL0     H24394  13.889   6.254   5.024 -1.2837 -0.4451 -0.6353
  177MOL0     H24395  14.051   6.244   5.067 -1.9214 -1.5894  3.1527
  177MOL0     H24396  14.054   6.031   4.975  1.1064  1.5039  0.5989
  177MOL0     H24397  14.031   6.092   4.814 -0.7550 -0.7017 -0.2313
  177MOL0     H24398  13.787   6.023   5.001 -2.9057  0.1805 -1.6059
  177MOL0     H24399  13.795   6.073   4.828  2.0195  0.9437 -0.5021
  177MOL0     H24400  13.911   5.827   4.961 -0.1831  1.9256  0.8031
  177MOL0     H24401  13.959   5.872   4.794 -0.4815 -0.6451 -1.1047
  177MOL0     H24402  13.675   5.879   4.789  1.6744  1.4701 -0.0075
  177MOL0     H24403  13.713   5.733   4.881  2.7376 -1.8030  0.0213
  177MOL0     H24404  13.708   5.665   4.648  1.6242 -2.6685 -0.1959
  177MOL0     H24405  13.878   5.666   4.701 -1.4610 -1.0500  2.4920
  177MOL0     H24406  13.709   6.518   4.666 -2.5119  0.7653 -0.3392
  177MOL0     H24407  13.530   6.520   4.508  1.9068  2.0141 -1.1480
  177MOL0     H24408  13.280   6.075   4.116  0.3203 -0.7988 -0.9577
  177MOL0     H24409  13.111   6.104   3.928  2.2355 -2.5802 -2.3867
  177MOL0     H24410  11.586   5.475   3.359 -1.2624  0.7736  0.4064
  177MOL0     H24411  11.464   5.280   3.329  0.4025 -0.7320 -1.6877
  177MOL0     H24412  11.016   5.219   3.093 -1.1334  0.3526 -0.2461
  177MOL0     H24413  10.905   5.091   2.917  0.5927  0.2985 -0.0190
  177MOL0     H24414  10.792   4.910   2.847  0.6673  1.7815  0.4505
  177MOL0     H24415  10.891   4.991   2.722  1.2286 -1.3007 -0.8811
  177MOL0     H24416  10.879   4.764   2.602 -1.1659 -1.1721 -2.2638
  177MOL0     H24417  10.733   4.854   2.610 -1.2722 -1.0571  2.1206
  177MOL0     H24418  10.629   4.716   2.794  0.3451  1.9144 -0.6940
  177MOL0     H24419  10.676   4.632   2.649  1.7488  0.1385 -0.9860
  177MOL0     H24420  10.798   4.648   2.925  1.6246 -0.1305  0.9161
  177MOL0     H24421  10.889   4.577   2.794 -0.6588  1.7035 -0.2813
  177MOL0     H24422  10.573   4.290   2.903  1.9559 -3.1220 -0.4687
  177MOL0     H24423  11.201   4.792   2.927  1.8947  0.5708  0.4085
  177MOL0     H24424  11.427   4.949   3.166 -0.3409 -1.2725  0.3318
  177MOL0     H24425  11.345   4.808   3.180  2.9578 -0.2934 -0.0910
  177MOL0     H24426  11.400   4.840   3.019  0.6671  1.2364 -1.3496
  178MOL0     O24427   9.308   1.417   2.102  0.0112  0.0272 -0.4030
  178MOL0     C24428   9.338   1.306   2.140  0.5870  0.6400 -1.2045
  178MOL0     O24429   9.255   1.231   2.219 -0.1192 -0.2706 -0.9242
  178MOL0     C24430   9.156   1.293   2.294 -0.1051 -0.4847  0.0880
  178MOL0     C24431   9.191   1.354   2.417  0.5394  0.5425 -0.1275
  178MOL0     C24432   9.085   1.411   2.494  0.5715  0.9690 -0.5790
  178MOL0     C24433   8.950   1.387   2.464  0.1763  0.4785  0.2279
  178MOL0     O24434   8.848   1.432   2.540 -0.8201 -0.3933 -0.3517
  178MOL0     C24435   8.856   1.555   2.612  0.2308  0.0347  1.1228
  178MOL0     C24436   8.708   1.588   2.636  0.3543 -0.3216 -0.0903
  178MOL0     C24437   8.613   1.603   2.521  0.8434 -0.1181  0.3888
  178MOL0     C24438   8.604   1.745   2.459 -0.0141  0.4353  0.6706
  178MOL0     C24439   8.508   1.744   2.338  0.6790 -0.3459  0.4750
  178MOL0     C24440   8.487   1.896   2.285  0.4209 -0.1859  0.2089
  178MOL0     C24441   8.425   1.894   2.151  0.7904 -0.1317  0.4428
  178MOL0     C24442   8.434   2.022   2.067 -0.3202 -0.5226 -0.2160
  178MOL0     N24443   8.449   1.995   1.923 -0.0846  0.1872  0.3642
  178MOL0     C24444   8.391   2.076   1.822  0.7697 -0.3954  0.9296
  178MOL0     C24445   8.428   2.018   1.707  0.2913 -0.2910  0.1071
  178MOL0     C24446   8.394   2.083   1.574  0.7593 -0.7204 -0.3467
  178MOL0     C24447   8.513   2.073   1.476 -0.2055 -0.2629  0.0492
  178MOL0     C24448   8.487   2.161   1.345 -0.5475 -0.4427  0.5764
  178MOL0     C24449   8.465   2.314   1.359 -0.3474  0.0856  0.7012
  178MOL0     O24450   8.433   2.376   1.230  0.3887 -0.1425  0.6679
  178MOL0     C24451   8.324   2.458   1.208  0.1201 -0.2572 -0.2886
  178MOL0     C24452   8.334   2.537   1.092  0.4120  0.0949 -0.5339
  178MOL0     C24453   8.233   2.626   1.057 -0.0010  0.3443  0.1438
  178MOL0     C24454   8.236   2.689   0.917  0.4585  0.4183  0.4723
  178MOL0     C24455   8.125   2.646   1.141 -0.4848  0.2557 -0.1262
  178MOL0     C24456   8.019   2.750   1.108 -0.3970  1.3061 -0.0655
  178MOL0     O24457   8.051   2.868   1.053 -0.0370  0.5318  0.0336
  178MOL0     C24458   7.948   2.944   1.008  0.0515 -0.4736 -0.1438
  178MOL0     C24459   7.886   3.039   1.089  0.7184  0.0133  0.3931
  178MOL0     C24460   7.772   3.104   1.051  0.6257 -0.8662  0.6255
  178MOL0     C24461   7.712   3.082   0.922  0.2926  0.3683 -0.4816
  178MOL0     O24462   7.584   3.123   0.906 -0.0695  0.0640 -0.1474
  178MOL0     C24463   7.538   3.091   0.775  0.2696 -1.1741 -0.4279
  178MOL0     C24464   7.401   3.155   0.751  0.1443  0.0549 -0.2368
  178MOL0     C24465   7.394   3.305   0.741 -0.0850 -0.7186 -0.1512
  178MOL0     C24466   7.250   3.353   0.705 -0.3802  0.3482  0.7237
  178MOL0     C24467   7.136   3.294   0.794  0.7264 -1.1461  0.2429
  178MOL0     C24468   7.122   3.351   0.938  0.2319  0.4979  0.1603
  178MOL0     C24469   6.990   3.292   1.007 -0.6852 -0.6879  0.2276
  178MOL0     C24470   6.995   3.321   1.154  0.0022 -0.1587  0.0200
  178MOL0    Cl24471   6.987   3.496   1.189  0.3837 -0.1142 -0.0090
  178MOL0     C24472   7.786   3.006   0.834  0.8118 -0.6046 -0.4257
  178MOL0     C24473   7.900   2.936   0.878 -0.2538 -0.3846  0.8487
  178MOL0     O24474   7.906   2.702   1.118 -0.8077 -0.2968  0.1134
  178MOL0     C24475   8.105   2.567   1.256  0.1476 -0.3325  0.2873
  178MOL0     C24476   8.212   2.482   1.295  0.2300  0.7464 -0.2113
  178MOL0     N24477   8.492   1.900   1.734  0.4662  0.2154 -0.0527
  178MOL0     N24478   8.505   1.890   1.863 -0.4132  0.5064 -0.1926
  178MOL0     C24479   8.921   1.327   2.335 -0.0926  0.6514  0.0060
  178MOL0     C24480   9.024   1.283   2.262 -0.6126 -0.2560 -0.3626
  178MOL0     C24481   9.465   1.236   2.103  1.2665  0.0493 -1.2927
  178MOL0     C24482   9.502   1.115   2.161 -0.2096  0.1326  0.3429
  178MOL0     C24483   9.616   1.042   2.134 -0.7836 -0.2016  0.3651
  178MOL0     C24484   9.708   1.106   2.049  0.0694  0.7815 -0.5036
  178MOL0     O24485   9.827   1.057   2.017 -0.4854 -0.3160 -0.4326
  178MOL0     C24486   9.893   0.943   2.068  0.1280 -0.3578  0.1935
  178MOL0     C24487  10.003   0.897   1.974 -0.4159 -0.8149  0.4393
  178MOL0     C24488  10.117   0.996   1.954  0.6664 -0.5241  0.1270
  178MOL0     C24489  10.235   0.932   1.868  0.2018  0.0515 -0.2531
  178MOL0     C24490  10.200   0.885   1.726 -0.0677 -0.3734 -0.0036
  178MOL0     C24491  10.185   0.848   1.613  0.5813  0.6885  1.0005
  178MOL0     C24492   9.682   1.232   1.992  0.2271 -0.4636 -0.2899
  178MOL0     C24493   9.559   1.295   2.013  0.2032  0.0469 -0.4725
  178MOL0     C24494   9.547   1.431   1.943 -0.0119 -0.7530  1.0000
  178MOL0     H24495   9.296   1.377   2.426  0.8624  0.3794 -2.5864
  178MOL0     H24496   9.104   1.470   2.583  1.1526  1.7940 -1.2341
  178MOL0     H24497   8.908   1.627   2.549 -1.9957  1.5662  0.9401
  178MOL0     H24498   8.898   1.551   2.713 -1.4289  0.8997  1.8930
  178MOL0     H24499   8.666   1.515   2.706 -1.6123  0.6124 -0.2212
  178MOL0     H24500   8.713   1.685   2.687 -0.8401 -0.0910 -0.3834
  178MOL0     H24501   8.639   1.534   2.440 -0.9195 -0.0628 -0.2697
  178MOL0     H24502   8.514   1.582   2.563 -0.2864  0.5156 -1.7942
  178MOL0     H24503   8.561   1.823   2.522  1.3479  0.7523  1.2592
  178MOL0     H24504   8.704   1.783   2.435 -1.4069  3.8045 -0.4508
  178MOL0     H24505   8.415   1.700   2.376  1.2024 -2.2796 -0.3365
  178MOL0     H24506   8.549   1.676   2.263  3.0102 -1.5404  2.6547
  178MOL0     H24507   8.413   1.953   2.342  1.0354  3.3149 -2.1785
  178MOL0     H24508   8.584   1.945   2.292 -0.4856  1.7308 -0.0594
  178MOL0     H24509   8.323   1.856   2.159  1.3465 -3.2701 -3.7203
  178MOL0     H24510   8.474   1.808   2.105  0.5471 -3.3650  5.4126
  178MOL0     H24511   8.350   2.092   2.066 -2.1437 -2.3837  3.4737
  178MOL0     H24512   8.524   2.079   2.092 -0.3652 -0.3362 -0.4703
  178MOL0     H24513   8.332   2.168   1.822  1.6740  0.1992  0.2018
  178MOL0     H24514   8.377   2.189   1.592 -0.8401 -1.1076  0.6585
  178MOL0     H24515   8.296   2.054   1.535 -0.8395  0.5125  2.3975
  178MOL0     H24516   8.604   2.118   1.515 -0.2098  2.6871 -2.9306
  178MOL0     H24517   8.533   1.967   1.456  0.9832 -0.3708  1.5837
  178MOL0     H24518   8.567   2.133   1.276 -0.7348 -0.0186  0.1849
  178MOL0     H24519   8.400   2.121   1.292 -0.8647 -0.2556  0.9526
  178MOL0     H24520   8.387   2.325   1.435 -1.1286  0.2044 -0.1001
  178MOL0     H24521   8.558   2.355   1.398 -0.4675  2.2188 -1.0890
  178MOL0     H24522   8.424   2.529   1.031  0.0847  3.5052 -1.6304
  178MOL0     H24523   8.133   2.699   0.881  0.1187 -0.1903  1.2236
  178MOL0     H24524   8.303   2.634   0.850 -0.3019  0.7075 -0.5390
  178MOL0     H24525   8.279   2.789   0.923 -1.2769  1.2756 -0.6395
  178MOL0     H24526   7.919   3.065   1.188  1.5981 -2.1319  0.7057
  178MOL0     H24527   7.709   3.170   1.111  1.8823  0.5988  0.3851
  178MOL0     H24528   7.622   3.116   0.710  3.1332 -1.7861  2.7311
  178MOL0     H24529   7.525   2.983   0.775 -1.3538 -1.0727  2.4483
  178MOL0     H24530   7.346   3.105   0.671  0.1705 -1.2851  0.5553
  178MOL0     H24531   7.343   3.122   0.838 -1.7467  1.3173 -0.9496
  178MOL0     H24532   7.453   3.344   0.658 -2.0800  1.8488 -0.4869
  178MOL0     H24533   7.427   3.352   0.834 -0.0802 -1.2202  0.1035
  178MOL0     H24534   7.221   3.318   0.605 -3.5178  1.0645  1.2643
  178MOL0     H24535   7.250   3.462   0.705 -1.1626  0.3544  1.2318
  178MOL0     H24536   7.045   3.319   0.740  1.6283  0.6216 -0.5397
  178MOL0     H24537   7.137   3.184   0.795 -0.0037 -1.1786 -0.8846
  178MOL0     H24538   7.102   3.458   0.938  0.6641  0.6728 -2.9072
  178MOL0     H24539   7.205   3.326   1.005 -0.5012 -1.3332  0.4520
  178MOL0     H24540   6.997   3.184   0.990  1.8240 -0.8175  1.5093
  178MOL0     H24541   6.904   3.346   0.967 -0.6136 -0.4690  0.3726
  178MOL0     H24542   7.087   3.295   1.206 -0.3533  0.3202  0.9044
  178MOL0     H24543   6.904   3.273   1.193 -0.4983 -0.2070 -1.1626
  178MOL0     H24544   7.750   2.973   0.737  1.0775  0.3239 -0.8514
  178MOL0     H24545   7.947   2.870   0.805  5.0491  2.6980  1.0199
  178MOL0     H24546   8.019   2.571   1.322  1.7555 -1.2317  2.5748
  178MOL0     H24547   8.211   2.425   1.387  1.6318 -0.0816 -0.6730
  178MOL0     H24548   8.820   1.304   2.304  0.5362 -0.7874 -1.1183
  178MOL0     H24549   9.006   1.231   2.169  0.0644 -1.3846  0.1184
  178MOL0     H24550   9.446   1.071   2.243  1.0615 -0.6625  0.8051
  178MOL0     H24551   9.645   0.948   2.179  3.6107  1.1831  0.9260
  178MOL0     H24552   9.925   0.966   2.170 -1.4423  1.9322  0.2357
  178MOL0     H24553   9.816   0.866   2.075  1.3412 -1.6006  0.4825
  178MOL0     H24554   9.968   0.863   1.876  1.2248 -1.9688  0.2270
  178MOL0     H24555  10.045   0.806   2.017 -0.3022 -1.1423 -0.3539
  178MOL0     H24556  10.078   1.083   1.901  0.0643 -1.1464 -0.4676
  178MOL0     H24557  10.155   1.014   2.055 -1.5427 -0.0901  0.9285
  178MOL0     H24558  10.278   0.852   1.928  0.3636  0.8837  0.7737
  178MOL0     H24559  10.313   1.007   1.851 -1.5681  2.7903  2.5245
  178MOL0     H24560  10.181   0.803   1.516  0.0535 -0.2688  1.4537
  178MOL0     H24561   9.761   1.270   1.927  1.0854 -2.3708 -0.4128
  178MOL0     H24562   9.569   1.515   2.010 -3.0070  1.6396 -0.8016
  178MOL0     H24563   9.610   1.450   1.855 -0.8626 -1.1279  0.3050
  178MOL0     H24564   9.447   1.452   1.904 -0.1552  0.6117  2.0027
  179MOL0     O24565  10.453   8.418   8.112 -0.3148  0.2788  0.7076
  179MOL0     C24566  10.368   8.433   8.204 -0.0570 -0.4711  0.6555
  179MOL0     O24567  10.395   8.430   8.332 -0.1447 -0.2847 -0.5683
  179MOL0     C24568  10.525   8.431   8.382  0.4959 -0.0434 -0.9393
  179MOL0     C24569  10.603   8.540   8.328 -0.5651  0.2731 -0.4320
  179MOL0     C24570  10.733   8.572   8.386 -0.4433  0.2895  0.6169
  179MOL0     C24571  10.784   8.491   8.493 -0.7903  0.5581 -0.3487
  179MOL0     O24572  10.906   8.503   8.558  0.1710 -0.4984  0.0868
  179MOL0     C24573  10.981   8.625   8.521 -0.6916  0.4612 -0.4514
  179MOL0     C24574  11.088   8.652   8.633  0.2262  0.1759  0.1493
  179MOL0     C24575  11.170   8.532   8.674 -0.3526 -0.3277  0.2441
  179MOL0     C24576  11.230   8.450   8.560 -0.3505 -0.6760  0.4358
  179MOL0     C24577  11.348   8.387   8.606  0.4726 -0.3679 -0.3283
  179MOL0     C24578  11.397   8.294   8.502  0.2422  0.3888  0.1374
  179MOL0     C24579  11.511   8.200   8.549 -0.3852  0.2603 -0.3463
  179MOL0     C24580  11.528   8.082   8.453  0.0422  0.4752 -0.1548
  179MOL0     N24581  11.411   7.998   8.435 -0.5348  0.0925 -0.0058
  179MOL0     C24582  11.345   7.938   8.537 -0.2783 -0.2485 -0.3538
  179MOL0     C24583  11.215   7.929   8.482 -0.6870 -0.6722 -0.2057
  179MOL0     C24584  11.109   7.884   8.570  0.0898 -0.5433 -0.6513
  179MOL0     C24585  11.060   8.000   8.653 -0.2762 -0.0689 -0.0091
  179MOL0     C24586  11.018   8.129   8.568  0.2889  0.3158 -0.8377
  179MOL0     C24587  10.906   8.097   8.475 -0.4674  0.0242  0.2680
  179MOL0     O24588  10.792   8.064   8.554 -0.0034 -0.3422 -0.4331
  179MOL0     C24589  10.682   8.018   8.482 -0.5048  0.6624 -0.1590
  179MOL0     C24590  10.663   8.024   8.341  0.2818  0.2812 -0.8292
  179MOL0     C24591  10.536   8.003   8.284 -0.2084  0.2145  0.2372
  179MOL0     C24592  10.519   8.047   8.139 -0.8841 -0.2282  0.3733
  179MOL0     C24593  10.424   7.944   8.358  0.4663 -0.3275  0.1820
  179MOL0     C24594  10.284   7.933   8.312  0.1526 -0.5579 -0.8072
  179MOL0     O24595  10.262   7.926   8.177 -0.0502  0.9796  0.2278
  179MOL0     C24596  10.137   7.900   8.132  0.2279  0.1498 -0.4076
  179MOL0     C24597  10.066   7.997   8.056 -0.8163  0.4982  0.5585
  179MOL0     C24598   9.948   7.948   7.990 -0.1764 -0.1826  0.0366
  179MOL0     C24599   9.903   7.818   8.006  0.0263  0.3233  0.2035
  179MOL0     O24600   9.787   7.777   7.939  0.2038  1.0141  0.5242
  179MOL0     C24601   9.790   7.628   7.911 -0.0970  0.2905  0.2025
  179MOL0     C24602   9.693   7.595   7.785  0.3487  0.2575  0.4352
  179MOL0     C24603   9.754   7.668   7.663  0.1543  0.7841  0.2010
  179MOL0     C24604   9.671   7.623   7.543  0.3627  0.5614 -1.1221
  179MOL0     C24605   9.739   7.662   7.414 -0.4914 -0.7729  0.0120
  179MOL0     C24606   9.689   7.586   7.294  0.2385  0.3721 -0.8549
  179MOL0     C24607   9.769   7.622   7.174 -0.1554  0.2900  0.2577
  179MOL0     C24608   9.761   7.526   7.064  0.4992  1.2731  0.1011
  179MOL0    Cl24609   9.820   7.563   6.904 -0.3730 -0.2552  0.2277
  179MOL0     C24610   9.974   7.727   8.097  0.0221  0.6993 -0.6464
  179MOL0     C24611  10.088   7.777   8.158  1.0396  0.0046 -0.4524
  179MOL0     O24612  10.196   7.928   8.404  0.4759 -0.4921  0.7732
  179MOL0     C24613  10.458   7.919   8.493 -0.3969 -0.0458 -0.0346
  179MOL0     C24614  10.575   7.955   8.562 -0.8449  0.2123  0.4937
  179MOL0     N24615  11.223   7.969   8.352  0.1047 -0.0411 -0.1157
  179MOL0     N24616  11.340   8.010   8.325 -0.7464 -0.1407  0.5464
  179MOL0     C24617  10.700   8.383   8.538 -0.5560  0.2707  0.5492
  179MOL0     C24618  10.575   8.351   8.485 -0.2991 -0.4543  0.2983
  179MOL0     C24619  10.225   8.431   8.170 -1.3959  0.7410  0.4640
  179MOL0     C24620  10.128   8.349   8.239 -0.2016 -0.5623  0.7773
  179MOL0     C24621   9.993   8.351   8.195 -0.5696  0.0890  0.4223
  179MOL0     C24622   9.949   8.441   8.092 -0.7303  0.1869 -0.1773
  179MOL0     O24623   9.817   8.448   8.072  0.2850  1.0318 -0.4218
  179MOL0     C24624   9.775   8.446   7.933 -0.3871  0.3242 -1.1561
  179MOL0     C24625   9.683   8.567   7.904 -0.6711  0.5116  0.1929
  179MOL0     C24626   9.553   8.551   7.974  0.0670 -0.0816 -0.0604
  179MOL0     C24627   9.465   8.687   7.948 -0.6042  0.7135 -0.7878
  179MOL0     C24628   9.508   8.801   8.035 -0.3687  0.4960 -0.2356
  179MOL0     C24629   9.531   8.895   8.115 -0.8429 -0.6657 -0.6039
  179MOL0     C24630  10.046   8.522   8.030 -0.4169  0.1450  0.7847
  179MOL0     C24631  10.180   8.514   8.066  0.2606 -1.0381  0.3927
  179MOL0     C24632  10.275   8.600   7.979  0.7936  0.0845 -0.6703
  179MOL0     H24633  10.563   8.605   8.251 -1.3117 -1.1802 -1.3138
  179MOL0     H24634  10.795   8.651   8.346 -0.3151 -0.2581 -0.2974
  179MOL0     H24635  10.920   8.715   8.516  0.9083  1.5424 -2.0691
  179MOL0     H24636  11.034   8.618   8.425 -0.0479  1.2211 -0.1656
  179MOL0     H24637  11.156   8.727   8.590 -2.5907  2.6126 -0.3682
  179MOL0     H24638  11.046   8.706   8.718  1.7752 -0.6519  1.5019
  179MOL0     H24639  11.252   8.578   8.731  1.3197 -2.1649 -0.5611
  179MOL0     H24640  11.108   8.473   8.742  0.5543 -0.3999  1.0373
  179MOL0     H24641  11.154   8.376   8.537  0.0395 -0.3816 -2.1196
  179MOL0     H24642  11.248   8.518   8.476 -3.1692  0.3656  0.5718
  179MOL0     H24643  11.315   8.334   8.697  2.1157  0.1472  0.6110
  179MOL0     H24644  11.427   8.460   8.621 -0.3488  0.5078 -0.1769
  179MOL0     H24645  11.309   8.231   8.485  0.4752 -0.1367  0.8276
  179MOL0     H24646  11.435   8.352   8.418  0.3735 -0.9871 -0.7853
  179MOL0     H24647  11.482   8.161   8.647  0.3801  0.7615  0.0923
  179MOL0     H24648  11.611   8.241   8.570  0.3413 -1.6300  0.1183
  179MOL0     H24649  11.551   8.128   8.356  0.2406  0.1876 -0.2481
  179MOL0     H24650  11.613   8.019   8.481 -0.6796  0.1526  1.3838
  179MOL0     H24651  11.368   7.934   8.643 -0.7121  3.0594 -0.0211
  179MOL0     H24652  11.143   7.806   8.638 -1.9165 -1.0224 -0.1128
  179MOL0     H24653  11.017   7.844   8.525 -2.7445 -0.9620  4.6728
  179MOL0     H24654  10.972   7.974   8.712 -0.0804  1.3532  0.9874
  179MOL0     H24655  11.142   8.024   8.722 -1.5858  0.6434  1.3507
  179MOL0     H24656  10.984   8.196   8.647  1.4137 -1.3126  1.1462
  179MOL0     H24657  11.105   8.169   8.516  0.7909  0.3542  0.0181
  179MOL0     H24658  10.891   8.190   8.419  0.8736  0.2752  0.2990
  179MOL0     H24659  10.930   8.018   8.403  0.9983 -0.5738  1.3735
  179MOL0     H24660  10.739   8.071   8.280  0.5441  3.8433  1.8934
  179MOL0     H24661  10.540   7.960   8.076 -1.1916  0.2116 -0.3424
  179MOL0     H24662  10.603   8.112   8.113 -0.0978 -1.2553  0.2752
  179MOL0     H24663  10.427   8.097   8.107 -0.0315  1.9327  1.1158
  179MOL0     H24664  10.085   8.103   8.042  1.7731 -0.0929 -1.0753
  179MOL0     H24665   9.885   8.011   7.928  0.6913  3.6148  2.6405
  179MOL0     H24666   9.888   7.590   7.880 -2.2601 -3.2334 -3.4623
  179MOL0     H24667   9.753   7.571   7.997 -0.7616 -0.8604 -0.7969
  179MOL0     H24668   9.691   7.486   7.786  2.6434  0.1731  1.3662
  179MOL0     H24669   9.592   7.634   7.800 -1.1765 -2.1735 -2.4751
  179MOL0     H24670   9.854   7.631   7.640  0.1430  1.1187 -0.4047
  179MOL0     H24671   9.758   7.777   7.663  0.5909  0.8191  2.1855
  179MOL0     H24672   9.576   7.675   7.554  0.3518  0.6203 -1.4875
  179MOL0     H24673   9.650   7.516   7.545  1.8265  0.2392 -1.7448
  179MOL0     H24674   9.717   7.768   7.396  0.0021 -0.5942  0.4231
  179MOL0     H24675   9.846   7.639   7.419 -0.1633  0.7787  1.5015
  179MOL0     H24676   9.581   7.595   7.280 -0.3452 -0.0104  2.4671
  179MOL0     H24677   9.716   7.483   7.321 -0.3289  0.5454  0.4710
  179MOL0     H24678   9.873   7.633   7.207  0.2436 -0.0662 -0.8304
  179MOL0     H24679   9.744   7.722   7.139  0.0258 -0.5427 -2.5339
  179MOL0     H24680   9.654   7.503   7.068  0.5908  1.0508  2.3353
  179MOL0     H24681   9.817   7.437   7.096  0.3536  0.7124 -1.1231
  179MOL0     H24682   9.957   7.622   8.116  1.4958  0.3307 -1.2832
  179MOL0     H24683  10.132   7.712   8.233  0.6372  0.1425 -0.0919
  179MOL0     H24684  10.378   7.876   8.552  0.7350  0.6035  2.0774
  179MOL0     H24685  10.595   7.948   8.669  0.9635  1.8173  0.3088
  179MOL0     H24686  10.739   8.315   8.613 -0.1319 -4.0721 -3.1460
  179MOL0     H24687  10.514   8.275   8.533 -1.6519  1.2205  1.3750
  179MOL0     H24688  10.162   8.287   8.322 -0.9245 -0.9060  0.8217
  179MOL0     H24689   9.929   8.285   8.253  0.7629  0.8093  2.8437
  179MOL0     H24690   9.862   8.448   7.866  1.5580  1.4269  1.2573
  179MOL0     H24691   9.716   8.355   7.924  1.5472 -1.0746 -0.2017
  179MOL0     H24692   9.649   8.570   7.800 -2.9754  0.7884  0.8877
  179MOL0     H24693   9.744   8.657   7.916  2.7895 -1.6667  0.2007
  179MOL0     H24694   9.506   8.460   7.936  0.7510 -0.1883 -0.6621
  179MOL0     H24695   9.580   8.532   8.078  3.1277  0.6248 -0.6400
  179MOL0     H24696   9.359   8.674   7.972  0.2691 -2.7421  2.0587
  179MOL0     H24697   9.463   8.721   7.844 -1.9148  0.1055 -0.9842
  179MOL0     H24698   9.519   8.979   8.181 -0.7662 -0.4577 -0.8489
  179MOL0     H24699  10.019   8.586   7.946 -0.4291  0.2053  0.8347
  179MOL0     H24700  10.209   8.670   7.926 -4.3969 -3.3072  0.5743
  179MOL0     H24701  10.360   8.644   8.033  0.5948  0.0107 -0.2994
  179MOL0     H24702  10.315   8.531   7.903 -1.1640 -0.9073 -0.8453
  180MOL0     O24703  10.881  11.130  10.168  0.1471  0.6705 -0.2798
  180MOL0     C24704  10.821  11.052  10.093 -1.0978  0.0444  0.0351
  180MOL0     O24705  10.871  10.987   9.981  0.0747 -0.2752 -0.1084
  180MOL0     C24706  11.001  11.016   9.951  0.0052  0.2364 -0.4663
  180MOL0     C24707  11.036  11.101   9.845 -0.7690  0.6951 -1.3500
  180MOL0     C24708  11.171  11.122   9.821  0.0955 -0.9127 -0.1911
  180MOL0     C24709  11.277  11.060   9.896  0.1577 -0.3280 -0.2180
  180MOL0     O24710  11.407  11.082   9.849 -0.1494  0.0688 -1.0438
  180MOL0     C24711  11.511  11.017   9.918  0.3514 -0.0706 -0.2592
  180MOL0     C24712  11.632  11.017   9.824 -0.2516 -0.1381 -0.1315
  180MOL0     C24713  11.757  10.970   9.903 -0.5999 -0.4735 -0.1019
  180MOL0     C24714  11.833  11.096   9.956  0.1262  0.0121 -0.1158
  180MOL0     C24715  11.970  11.063  10.018 -0.2222  0.1023 -0.0713
  180MOL0     C24716  12.099  11.093   9.938 -0.0611 -0.0948  0.0554
  180MOL0     C24717  12.233  11.042   9.997  0.1536 -1.1118 -0.5067
  180MOL0     C24718  12.347  11.074   9.903  0.7986  0.0087 -0.8178
  180MOL0     N24719  12.382  11.218   9.881  0.1000 -0.3609 -0.6996
  180MOL0     C24720  12.495  11.285   9.933 -0.5284  1.0703 -0.7769
  180MOL0     C24721  12.504  11.398   9.867 -1.2726 -0.8191 -0.0719
  180MOL0     C24722  12.626  11.490   9.883  0.3346  0.2246 -0.0606
  180MOL0     C24723  12.759  11.415   9.851  0.1459 -0.6556  0.4499
  180MOL0     C24724  12.820  11.324   9.967  0.3578  0.4429 -0.1914
  180MOL0     C24725  12.955  11.283   9.932  0.4199 -0.6863  0.3283
  180MOL0     O24726  12.965  11.184   9.823 -0.8436 -0.8339 -0.6616
  180MOL0     C24727  13.085  11.112   9.821  0.2847  0.2535 -0.4614
  180MOL0     C24728  13.077  10.992   9.756 -0.4234  0.8686  0.2991
  180MOL0     C24729  13.165  10.888   9.781 -0.7587  0.4906  0.0085
  180MOL0     C24730  13.141  10.761   9.703 -0.9271 -0.0421 -0.6955
  180MOL0     C24731  13.284  10.918   9.850 -0.3357  0.3818  0.4507
  180MOL0     C24732  13.402  10.828   9.856  0.5219 -0.3358  0.6348
  180MOL0     O24733  13.516  10.885   9.799  0.5504 -0.0874 -0.3303
  180MOL0     C24734  13.623  10.798   9.816  0.1782  1.1838 -0.4282
  180MOL0     C24735  13.657  10.716   9.710 -0.3169 -0.6324 -0.9538
  180MOL0     C24736  13.774  10.640   9.715 -0.1732 -1.0165  0.5894
  180MOL0     C24737  13.852  10.630   9.827  0.4301  0.1871 -0.0211
  180MOL0     O24738  13.967  10.553   9.828  0.3421 -0.3010  0.5127
  180MOL0     C24739  13.966  10.413   9.795  0.2816 -0.1051  0.5050
  180MOL0     C24740  14.067  10.348   9.885  0.4971 -0.1485  0.0620
  180MOL0     C24741  14.045  10.391  10.032  0.2577 -0.0201 -0.1194
  180MOL0     C24742  14.098  10.274  10.122 -0.0175  0.5029 -0.1241
  180MOL0     C24743  14.075  10.300  10.269  0.8649 -0.1213  0.7059
  180MOL0     C24744  14.157  10.215  10.372 -0.6224 -0.8517 -0.1508
  180MOL0     C24745  14.119  10.062  10.371  0.6387  0.0196 -0.2072
  180MOL0     C24746  13.967  10.043  10.402  0.8340 -0.5152 -0.6222
  180MOL0    Cl24747  13.924   9.868  10.422 -0.2049 -0.1550 -0.7562
  180MOL0     C24748  13.820  10.706   9.939  0.5134  0.1929  0.5745
  180MOL0     C24749  13.711  10.806   9.932  0.7297  1.0443  0.4035
  180MOL0     O24750  13.405  10.721   9.923  0.2767  0.1740  0.5653
  180MOL0     C24751  13.304  11.046   9.900 -0.0143  1.0515  0.1379
  180MOL0     C24752  13.205  11.139   9.883 -0.9728  0.6827  0.2965
  180MOL0     N24753  12.392  11.406   9.781  0.4769  1.0506 -0.4817
  180MOL0     N24754  12.323  11.308   9.794 -0.7438 -0.2296 -0.4678
  180MOL0     C24755  11.240  10.972  10.006 -0.0810 -0.7288 -0.5272
  180MOL0     C24756  11.107  10.953  10.028 -0.1126  0.1672 -0.1923
  180MOL0     C24757  10.685  11.027  10.125 -0.1778 -0.3097 -0.0560
  180MOL0     C24758  10.593  11.020  10.022 -0.1627  0.1236  0.1281
  180MOL0     C24759  10.461  10.998  10.048  0.8602 -0.0409  0.4353
  180MOL0     C24760  10.420  10.983  10.180 -0.1687 -0.0986 -0.7179
  180MOL0     O24761  10.289  10.956  10.204 -0.0439 -0.0991  0.6452
  180MOL0     C24762  10.232  10.837  10.141  0.1697 -0.5660 -0.7871
  180MOL0     C24763  10.110  10.777  10.209  0.5898  0.7282 -0.0262
  180MOL0     C24764  10.042  10.655  10.133 -0.7151  0.5741  0.6680
  180MOL0     C24765   9.934  10.594  10.220  0.3526  0.6471  0.7969
  180MOL0     C24766   9.884  10.464  10.164  0.3439  0.3460  0.0220
  180MOL0     C24767   9.838  10.368  10.110  0.4790 -0.8444  0.2627
  180MOL0     C24768  10.508  10.987  10.286  0.5302  0.7754 -0.4558
  180MOL0     C24769  10.638  11.013  10.260 -0.3926  0.1222  0.3426
  180MOL0     C24770  10.735  11.000  10.374 -0.9547 -0.1927  0.5689
  180MOL0     H24771  10.961  11.130   9.771 -0.4187  1.7154 -1.3183
  180MOL0     H24772  11.205  11.189   9.743  3.1510 -1.9356  0.1380
  180MOL0     H24773  11.479  10.915   9.939  1.5115 -0.3516  0.1942
  180MOL0     H24774  11.527  11.066  10.015 -1.3743 -1.6808  0.9116
  180MOL0     H24775  11.606  10.944   9.748  3.1537 -0.1553 -1.4659
  180MOL0     H24776  11.665  11.114   9.785  0.4499  0.7571  2.4673
  180MOL0     H24777  11.722  10.892   9.972 -0.4775 -0.1003  0.3946
  180MOL0     H24778  11.823  10.919   9.832  1.5758  1.9474  0.0484
  180MOL0     H24779  11.861  11.161   9.872 -0.1209 -0.6213 -0.7036
  180MOL0     H24780  11.771  11.146  10.030  0.3406 -0.6458  0.5183
  180MOL0     H24781  11.978  10.964  10.062  0.5414  0.0787 -0.2461
  180MOL0     H24782  11.981  11.132  10.102 -1.2015 -0.0250  0.1792
  180MOL0     H24783  12.097  11.066   9.832  2.2413  0.1558 -0.1117
  180MOL0     H24784  12.106  11.201   9.922  1.1345 -0.1349  0.2276
  180MOL0     H24785  12.217  10.934  10.006 -0.5081 -0.9384  0.7979
  180MOL0     H24786  12.250  11.074  10.101  1.1363 -0.6875 -0.7860
  180MOL0     H24787  12.432  11.010   9.929 -0.8380 -1.4602  1.3931
  180MOL0     H24788  12.303  11.039   9.809  1.0713  0.5594 -1.1514
  180MOL0     H24789  12.560  11.231  10.001  0.9171  0.3968 -2.5862
  180MOL0     H24790  12.635  11.531   9.984  2.2421 -1.2052  0.4086
  180MOL0     H24791  12.613  11.573   9.813  0.0321 -0.0693 -0.3591
  180MOL0     H24792  12.766  11.359   9.758  3.5180 -0.5821  0.5005
  180MOL0     H24793  12.829  11.498   9.835 -0.3467 -0.1251  0.9896
  180MOL0     H24794  12.816  11.385  10.057 -3.5206  0.9222 -0.4877
  180MOL0     H24795  12.761  11.233   9.984 -0.3777  0.5513 -1.9589
  180MOL0     H24796  13.010  11.367   9.889 -0.8216  0.1593  0.3415
  180MOL0     H24797  13.000  11.261  10.029  0.9598  1.0603  0.4984
  180MOL0     H24798  12.993  10.978   9.689 -1.4082 -0.8327  1.8174
  180MOL0     H24799  13.092  10.792   9.611  1.1228  0.1069 -1.7837
  180MOL0     H24800  13.086  10.688   9.764  0.0467 -0.7224 -0.6274
  180MOL0     H24801  13.235  10.717   9.670 -0.4188 -0.4967  1.2025
  180MOL0     H24802  13.582  10.716   9.632 -0.4451  1.5012 -0.9017
  180MOL0     H24803  13.794  10.584   9.624  0.7688  0.3713 -0.0930
  180MOL0     H24804  13.871  10.365   9.822 -0.9876  0.1955 -2.9427
  180MOL0     H24805  13.989  10.401   9.689 -1.0857 -1.1933  0.3025
  180MOL0     H24806  14.072  10.240   9.871  1.7388  0.0224 -1.0682
  180MOL0     H24807  14.158  10.388   9.839 -1.7504  2.6982 -2.3236
  180MOL0     H24808  13.939  10.405  10.053 -0.1919 -1.4194 -1.2842
  180MOL0     H24809  14.088  10.488  10.060  0.4421 -0.1862  0.1821
  180MOL0     H24810  14.206  10.271  10.108 -0.0037 -1.0421  0.1160
  180MOL0     H24811  14.043  10.183  10.096  0.3252  0.9037 -2.4959
  180MOL0     H24812  14.091  10.407  10.290 -1.1481  0.2897  0.4080
  180MOL0     H24813  13.968  10.285  10.285  0.7241  1.3124  1.2510
  180MOL0     H24814  14.135  10.267  10.466  2.5391  2.5751 -1.0694
  180MOL0     H24815  14.262  10.226  10.346 -1.4367  3.4885 -2.6003
  180MOL0     H24816  14.177  10.014  10.450 -0.1557  0.1518  0.4691
  180MOL0     H24817  14.143  10.017  10.274 -1.3674  2.4575 -1.9914
  180MOL0     H24818  13.908  10.083  10.319  2.4936  4.0867  0.1706
  180MOL0     H24819  13.951  10.102  10.492  0.8838 -0.7421 -0.4636
  180MOL0     H24820  13.882  10.693  10.027 -0.5528 -1.5606  1.0926
  180MOL0     H24821  13.676  10.873  10.009  0.7006  0.3141  1.0427
  180MOL0     H24822  13.405  11.071   9.933  0.5233  0.9326 -1.3228
  180MOL0     H24823  13.233  11.236   9.922 -0.4569  0.5076  0.3686
  180MOL0     H24824  11.303  10.905  10.064 -1.4461 -1.9934 -0.4207
  180MOL0     H24825  11.070  10.882  10.101 -1.3773  0.9285 -0.0670
  180MOL0     H24826  10.624  11.035   9.919 -0.6410 -2.0986 -0.3924
  180MOL0     H24827  10.396  10.988   9.961  0.0136  0.3689  1.0067
  180MOL0     H24828  10.203  10.878  10.044  1.2111  1.4350 -0.2956
  180MOL0     H24829  10.305  10.761  10.111  1.9265  0.8129 -0.1539
  180MOL0     H24830  10.038  10.859  10.200  2.3549  2.1023 -3.5014
  180MOL0     H24831  10.143  10.748  10.309 -2.2251  0.2100  0.8604
  180MOL0     H24832  10.006  10.685  10.034 -0.0599  2.1384  0.8641
  180MOL0     H24833  10.110  10.572  10.113 -0.4713  1.0251 -0.4867
  180MOL0     H24834   9.851  10.664  10.234  1.9155  3.0959 -1.3037
  180MOL0     H24835   9.973  10.574  10.320 -0.6387  0.4855  1.1614
  180MOL0     H24836   9.807  10.283  10.053 -1.9870  1.3548 -1.9016
  180MOL0     H24837  10.464  10.944  10.376 -1.0620  1.2292 -0.9875
  180MOL0     H24838  10.691  10.966  10.468  1.0292 -1.2326  1.1776
  180MOL0     H24839  10.818  10.931  10.353  0.5386  1.6293  0.2204
  180MOL0     H24840  10.774  11.099  10.396  0.3596  0.0947 -2.4925
  181MOL0     O24841   2.543   2.576   9.626 -0.2518 -0.2518 -0.3251
  181MOL0     C24842   2.576   2.633   9.732 -0.0992  0.3988 -0.4905
  181MOL0     O24843   2.704   2.698   9.749  1.0497 -0.3649 -0.2689
  181MOL0     C24844   2.781   2.704   9.632  0.2133 -1.0624  0.1559
  181MOL0     C24845   2.746   2.769   9.520  0.6292 -0.1408 -1.2561
  181MOL0     C24846   2.828   2.803   9.414  0.2657  0.0187 -0.9162
  181MOL0     C24847   2.959   2.766   9.416 -1.1240 -0.2366  0.2496
  181MOL0     O24848   3.030   2.802   9.304  0.4777 -0.1486  0.3853
  181MOL0     C24849   3.159   2.851   9.309 -0.4034  0.5260  0.9862
  181MOL0     C24850   3.165   2.989   9.241  0.5544  0.4053 -0.2219
  181MOL0     C24851   3.310   3.030   9.220 -0.8500 -0.8351  0.5654
  181MOL0     C24852   3.399   2.919   9.156 -0.1790 -0.2669  0.1170
  181MOL0     C24853   3.528   2.978   9.094 -1.0596 -0.4415  0.1908
  181MOL0     C24854   3.598   2.879   9.014 -0.6755 -0.5000  0.3561
  181MOL0     C24855   3.735   2.928   8.970  0.2838  0.1678 -0.0482
  181MOL0     C24856   3.787   2.829   8.864  0.1658 -1.0936  0.0654
  181MOL0     N24857   3.931   2.833   8.853 -0.3067 -1.2622 -0.5164
  181MOL0     C24858   4.017   2.719   8.857  1.0072 -0.6260 -0.3873
  181MOL0     C24859   4.143   2.755   8.841  0.3356 -0.6517 -0.3887
  181MOL0     C24860   4.275   2.682   8.855  0.1798  0.9944  0.5729
  181MOL0     C24861   4.367   2.744   8.752  0.2815 -0.8236 -0.3582
  181MOL0     C24862   4.479   2.649   8.711  0.1425 -0.9234 -0.2270
  181MOL0     C24863   4.602   2.723   8.644  0.3825 -0.2560 -0.0913
  181MOL0     O24864   4.691   2.778   8.749 -0.1367  0.3202  0.5883
  181MOL0     C24865   4.815   2.809   8.704 -0.0445 -0.2587  0.1488
  181MOL0     C24866   4.916   2.779   8.790  0.0156 -0.3867 -0.1408
  181MOL0     C24867   5.056   2.809   8.755  0.7820 -0.8354 -0.7202
  181MOL0     C24868   5.173   2.764   8.844 -0.6439  0.5464 -0.5782
  181MOL0     C24869   5.074   2.892   8.641 -0.0132  0.2198  0.5872
  181MOL0     C24870   5.215   2.934   8.594  0.3073 -0.7031 -0.1579
  181MOL0     O24871   5.316   2.845   8.605  0.2458  0.2088  0.1469
  181MOL0     C24872   5.441   2.879   8.567 -0.3289  0.2930  1.1453
  181MOL0     C24873   5.515   2.976   8.646 -0.1855  0.8873  0.1169
  181MOL0     C24874   5.650   3.005   8.604 -0.4029  1.3432  0.9552
  181MOL0     C24875   5.711   2.943   8.491  0.5545 -0.5399  0.6904
  181MOL0     O24876   5.838   2.982   8.446  0.4869  0.7586 -0.3224
  181MOL0     C24877   5.937   3.034   8.530 -1.2746  0.5292 -0.3892
  181MOL0     C24878   6.077   2.991   8.487 -0.4535  1.1876 -0.3664
  181MOL0     C24879   6.084   2.837   8.507  0.1849 -1.6944  0.1436
  181MOL0     C24880   6.208   2.791   8.417 -1.0046  0.0191 -0.6228
  181MOL0     C24881   6.222   2.640   8.431  0.5130  0.8679 -0.5288
  181MOL0     C24882   6.344   2.579   8.364  0.3585 -0.1444  0.2564
  181MOL0     C24883   6.465   2.571   8.465  0.2854 -1.1545  0.0167
  181MOL0     C24884   6.530   2.708   8.491 -0.9905  0.1676  0.0075
  181MOL0    Cl24885   6.700   2.693   8.566 -0.2862 -0.1828 -0.3453
  181MOL0     C24886   5.630   2.855   8.416 -0.1338 -0.2348  0.0327
  181MOL0     C24887   5.502   2.820   8.452  0.0397 -0.5119 -0.1933
  181MOL0     O24888   5.215   3.050   8.547  0.1236  0.2483 -0.2387
  181MOL0     C24889   4.972   2.931   8.553  0.4306 -0.4128  0.4272
  181MOL0     C24890   4.845   2.882   8.587 -0.3830 -0.0467 -0.0753
  181MOL0     N24891   4.135   2.894   8.825 -0.0324 -0.2891 -0.2123
  181MOL0     N24892   4.015   2.939   8.825 -0.7368  0.1952 -0.6750
  181MOL0     C24893   3.004   2.672   9.521 -0.3778  0.0143 -0.3493
  181MOL0     C24894   2.914   2.650   9.628 -0.2371 -0.1215  0.0391
  181MOL0     C24895   2.487   2.621   9.850  0.0796 -0.2368  0.2107
  181MOL0     C24896   2.541   2.665   9.975  0.1412  0.5648  0.5780
  181MOL0     C24897   2.466   2.657  10.098 -0.7249 -0.1588 -0.4649
  181MOL0     C24898   2.341   2.601  10.099  0.2866  0.0209  0.0933
  181MOL0     O24899   2.280   2.588  10.224 -0.1252  0.5738  0.2704
  181MOL0     C24900   2.176   2.500  10.258  0.4702 -0.8792 -0.2894
  181MOL0     C24901   2.046   2.573  10.269 -0.4968  0.9408  0.5092
  181MOL0     C24902   2.052   2.673  10.396 -0.0308  1.0092  0.5837
  181MOL0     C24903   1.913   2.649  10.469  0.0908 -1.0217  0.1220
  181MOL0     C24904   1.887   2.773  10.550  0.4996  0.3806  0.5396
  181MOL0     C24905   1.884   2.875  10.614  0.2959  0.5315 -0.4703
  181MOL0     C24906   2.282   2.557   9.977 -0.6451 -0.1750  0.4656
  181MOL0     C24907   2.354   2.563   9.851 -0.8156 -0.2753  0.0003
  181MOL0     C24908   2.288   2.496   9.732 -0.1547 -0.1724 -0.0834
  181MOL0     H24909   2.645   2.810   9.517  0.5928 -0.1889 -0.7815
  181MOL0     H24910   2.797   2.871   9.335  0.1235  0.2057 -0.7003
  181MOL0     H24911   3.213   2.774   9.253 -1.0394  0.2218  0.7819
  181MOL0     H24912   3.199   2.859   9.410 -1.9407 -1.7243  1.8501
  181MOL0     H24913   3.124   2.992   9.139  2.1339 -1.2338 -0.9654
  181MOL0     H24914   3.118   3.068   9.299 -1.5596 -0.8488 -0.1026
  181MOL0     H24915   3.296   3.109   9.146 -1.6852  0.2109  1.7967
  181MOL0     H24916   3.357   3.069   9.311 -1.7487 -2.0716  1.6041
  181MOL0     H24917   3.417   2.828   9.215  1.4539 -0.0827 -0.0383
  181MOL0     H24918   3.354   2.872   9.068  2.2876 -0.2767 -1.2432
  181MOL0     H24919   3.604   2.999   9.170  1.0497  1.9557 -2.3310
  181MOL0     H24920   3.511   3.073   9.043  0.9504  0.1386  0.4932
  181MOL0     H24921   3.617   2.789   9.073 -0.8053  0.1456  1.4067
  181MOL0     H24922   3.541   2.859   8.922 -0.8026  2.3529 -0.2702
  181MOL0     H24923   3.810   2.937   9.049 -2.0651 -1.1022  2.4795
  181MOL0     H24924   3.724   3.024   8.917 -0.5721 -0.1423 -0.4586
  181MOL0     H24925   3.762   2.728   8.899 -0.9406 -2.1403 -3.3816
  181MOL0     H24926   3.742   2.855   8.768 -0.4437  0.7078  0.8056
  181MOL0     H24927   3.991   2.619   8.890 -1.1014  0.7319  2.4420
  181MOL0     H24928   4.259   2.575   8.867 -2.8435  1.4062  1.0916
  181MOL0     H24929   4.316   2.710   8.953  2.1674  0.7979 -0.1557
  181MOL0     H24930   4.316   2.764   8.657  0.2284 -1.9777 -0.5867
  181MOL0     H24931   4.413   2.835   8.792  1.2273 -2.0957  1.6196
  181MOL0     H24932   4.511   2.599   8.803  2.6211  1.1609  0.1674
  181MOL0     H24933   4.444   2.577   8.637  0.1801 -1.3141  0.1298
  181MOL0     H24934   4.658   2.643   8.595 -2.6986 -3.2099  0.7656
  181MOL0     H24935   4.567   2.795   8.569 -2.2541 -1.5617 -0.2308
  181MOL0     H24936   4.888   2.732   8.883 -0.0255 -0.2890 -0.1041
  181MOL0     H24937   5.208   2.668   8.805  2.2208  0.7960  1.0312
  181MOL0     H24938   5.145   2.749   8.949 -0.3703  1.3657 -0.3757
  181MOL0     H24939   5.266   2.822   8.842 -1.8489  2.5314 -1.6163
  181MOL0     H24940   5.464   3.021   8.731 -0.5689 -2.3612  1.7955
  181MOL0     H24941   5.707   3.075   8.665 -0.8925  0.9935  1.8207
  181MOL0     H24942   5.937   3.143   8.543  0.8561  0.4181  1.0534
  181MOL0     H24943   5.922   3.013   8.636  0.0672  1.1246 -0.0614
  181MOL0     H24944   6.095   3.027   8.385 -0.7425  1.5704 -0.2888
  181MOL0     H24945   6.140   3.054   8.552 -1.0050  0.8048  0.5566
  181MOL0     H24946   5.992   2.788   8.473 -0.8250  0.9268 -1.1795
  181MOL0     H24947   6.103   2.819   8.613  1.4786  0.2026  0.2901
  181MOL0     H24948   6.293   2.850   8.453 -2.8232  1.2723  1.9676
  181MOL0     H24949   6.185   2.811   8.312  0.4841  0.8812 -0.8063
  181MOL0     H24950   6.244   2.604   8.533  1.1656  0.0824 -0.9282
  181MOL0     H24951   6.130   2.598   8.391  0.5175  1.5485 -1.2801
  181MOL0     H24952   6.359   2.641   8.275 -0.7981  1.8109  1.3571
  181MOL0     H24953   6.316   2.475   8.340  1.6607 -0.3283 -0.6152
  181MOL0     H24954   6.543   2.512   8.416  1.3678  1.2562 -1.3171
  181MOL0     H24955   6.428   2.521   8.555 -1.7889 -2.7792 -1.6262
  181MOL0     H24956   6.467   2.765   8.559 -1.0657 -1.0100  0.9720
  181MOL0     H24957   6.539   2.767   8.400  1.8230  5.2528  3.1314
  181MOL0     H24958   5.661   2.819   8.319  2.4338  1.7074  0.0175
  181MOL0     H24959   5.450   2.754   8.383 -1.3856  0.7590 -0.3811
  181MOL0     H24960   4.976   3.006   8.475 -1.3026 -0.4505  0.2705
  181MOL0     H24961   4.757   2.915   8.532 -0.5882  1.3031  1.0056
  181MOL0     H24962   3.102   2.624   9.522  1.0177  2.6638  1.1821
  181MOL0     H24963   2.954   2.597   9.713  0.2827  1.4238  0.7949
  181MOL0     H24964   2.638   2.712   9.964  0.5528 -0.5225 -0.6841
  181MOL0     H24965   2.508   2.683  10.195  2.3773 -1.6592 -1.2789
  181MOL0     H24966   2.160   2.426  10.179 -0.7706 -0.8757 -0.0624
  181MOL0     H24967   2.214   2.450  10.348  2.0594  0.7954  0.0320
  181MOL0     H24968   1.968   2.497  10.282 -0.0647  0.4234  0.1364
  181MOL0     H24969   2.007   2.634  10.187 -2.8603  2.3843  2.5613
  181MOL0     H24970   2.129   2.638  10.465  0.6099 -1.1489 -1.1087
  181MOL0     H24971   2.078   2.775  10.369  3.2624  0.5761  1.7009
  181MOL0     H24972   1.919   2.571  10.546  0.0442 -0.8747  0.2745
  181MOL0     H24973   1.825   2.628  10.408 -0.8338  0.2678  0.9639
  181MOL0     H24974   1.886   2.964  10.673 -0.0919  0.6262 -0.5994
  181MOL0     H24975   2.187   2.503   9.977  0.0704 -1.4851  0.2584
  181MOL0     H24976   2.323   2.394   9.714 -0.5697 -0.4006  0.3599
  181MOL0     H24977   2.178   2.492   9.735 -0.1787 -0.1723 -0.7525
  181MOL0     H24978   2.309   2.561   9.646 -1.1935  2.5028  1.5632
  182MOL0     O24979  11.135   0.730   7.475 -0.3031  0.1158 -0.3571
  182MOL0     C24980  11.101   0.698   7.592  0.7643  0.0390  0.8686
  182MOL0     O24981  11.193   0.661   7.692 -0.5111 -0.0201  0.0374
  182MOL0     C24982  11.297   0.584   7.655  0.3958 -1.1050 -0.4389
  182MOL0     C24983  11.430   0.640   7.658 -0.5469  0.3510 -0.4655
  182MOL0     C24984  11.545   0.561   7.623  0.9575 -0.3616 -0.5122
  182MOL0     C24985  11.527   0.425   7.590 -0.0097  0.6184  0.4520
  182MOL0     O24986  11.627   0.336   7.556 -0.0131 -0.7484  0.3969
  182MOL0     C24987  11.754   0.342   7.630  0.7653  0.2871  0.2604
  182MOL0     C24988  11.849   0.438   7.558  0.6384  0.2609 -0.2462
  182MOL0     C24989  11.967   0.477   7.635 -0.0540 -0.1211 -0.5412
  182MOL0     C24990  12.068   0.366   7.644 -0.2022 -0.5248 -0.1313
  182MOL0     C24991  12.191   0.425   7.716 -0.0986 -0.3041  0.4088
  182MOL0     C24992  12.306   0.324   7.708 -0.1456 -0.2042  0.5893
  182MOL0     C24993  12.435   0.379   7.772  0.3262  0.0225  0.2656
  182MOL0     C24994  12.421   0.430   7.915 -0.0115  0.6041 -0.1372
  182MOL0     N24995  12.545   0.409   7.977  0.3785 -0.8649 -0.0772
  182MOL0     C24996  12.585   0.304   8.048 -0.2458  0.3337 -0.0955
  182MOL0     C24997  12.722   0.308   8.049 -0.3571  0.1721 -0.1585
  182MOL0     C24998  12.817   0.195   8.091 -0.0348  0.6665 -0.4540
  182MOL0     C24999  12.892   0.126   7.969  0.4776  0.0052 -0.8087
  182MOL0     C25000  12.995   0.215   7.888 -0.2648  0.7430  0.4012
  182MOL0     C25001  13.117   0.292   7.961  0.4647  0.9790 -0.5635
  182MOL0     O25002  13.174   0.208   8.058  0.2397  0.4662 -0.5606
  182MOL0     C25003  13.279   0.133   8.018 -0.1303  0.7711 -0.0367
  182MOL0     C25004  13.400   0.167   8.071  0.0181  0.3959  0.1967
  182MOL0     C25005  13.513   0.078   8.068 -0.8236  0.4110 -0.2610
  182MOL0     C25006  13.632   0.124   8.144 -0.5348 -0.3794  0.3286
  182MOL0     C25007  13.500  -0.046   8.004 -0.2930 -0.3394  0.0575
  182MOL0     C25008  13.616  -0.144   7.976  0.1297 -0.8381  1.0948
  182MOL0     O25009  13.587  -0.234   7.875  0.1469 -0.5311  0.8159
  182MOL0     C25010  13.663  -0.345   7.857  0.3284  0.2135 -0.7451
  182MOL0     C25011  13.593  -0.450   7.785  0.1923 -0.1713 -0.8258
  182MOL0     C25012  13.661  -0.554   7.722 -0.4575  1.0121  0.5667
  182MOL0     C25013  13.802  -0.572   7.758  0.7455 -0.4961  0.3875
  182MOL0     O25014  13.870  -0.681   7.725  0.4913  0.6538 -0.0618
  182MOL0     C25015  13.818  -0.769   7.620 -0.7092 -0.2797  1.0894
  182MOL0     C25016  13.886  -0.899   7.590  0.0163  0.0359  0.2572
  182MOL0     C25017  13.825  -0.981   7.472 -0.3122 -0.3150 -0.7073
  182MOL0     C25018  13.686  -1.026   7.499  0.6955 -0.3869 -0.8060
  182MOL0     C25019  13.636  -1.091   7.375 -1.0230 -0.5902  0.4049
  182MOL0     C25020  13.489  -1.130   7.376 -0.6890  0.5168 -0.6700
  182MOL0     C25021  13.440  -1.241   7.477  0.1706  0.4568 -0.5898
  182MOL0     C25022  13.522  -1.376   7.479  0.2016 -0.9118 -0.0128
  182MOL0    Cl25023  13.447  -1.496   7.588 -0.0968 -0.1902 -0.0880
  182MOL0     C25024  13.867  -0.479   7.842  0.0388 -0.1411 -0.4639
  182MOL0     C25025  13.801  -0.360   7.883 -0.7098  0.4491  2.1581
  182MOL0     O25026  13.716  -0.142   8.037 -0.5057  0.6251 -0.5710
  182MOL0     C25027  13.370  -0.083   7.962 -1.2429 -0.8320 -0.0285
  182MOL0     C25028  13.266   0.003   7.962 -0.2683 -0.7645  0.4596
  182MOL0     N25029  12.750   0.435   8.003 -0.8004  0.8641 -0.0542
  182MOL0     N25030  12.652   0.490   7.960  0.1859  0.3637  0.2636
  182MOL0     C25031  11.396   0.374   7.582  0.2219 -0.3736  0.3851
  182MOL0     C25032  11.283   0.449   7.624 -0.3198 -0.0330  0.1028
  182MOL0     C25033  10.955   0.683   7.623 -0.3667 -0.1524 -0.3199
  182MOL0     C25034  10.912   0.607   7.734 -0.8360  0.1934 -0.4753
  182MOL0     C25035  10.787   0.608   7.783 -0.8214  1.1149 -0.2527
  182MOL0     C25036  10.692   0.658   7.694 -0.1065  0.3700 -0.2298
  182MOL0     O25037  10.558   0.661   7.717  0.5846 -0.4748 -0.5493
  182MOL0     C25038  10.502   0.590   7.833 -0.7198 -0.1854  0.5353
  182MOL0     C25039  10.355   0.616   7.866  0.0897  0.0148  0.0117
  182MOL0     C25040  10.348   0.774   7.893 -0.2835 -0.4792  0.7182
  182MOL0     C25041  10.216   0.834   7.928  1.0219  0.5669  0.5245
  182MOL0     C25042  10.110   0.790   7.836  0.8867  0.5378  0.4259
  182MOL0     C25043  10.009   0.750   7.770  0.3711 -0.3219 -0.6219
  182MOL0     C25044  10.729   0.733   7.587  0.6972 -1.1483  0.1792
  182MOL0     C25045  10.862   0.756   7.542 -0.3117 -0.2023 -0.7391
  182MOL0     C25046  10.881   0.847   7.431 -0.3847  0.1171 -0.1444
  182MOL0     H25047  11.455   0.742   7.684  1.7521 -0.4457  0.7312
  182MOL0     H25048  11.644   0.601   7.643  0.1614 -0.0807  4.0985
  182MOL0     H25049  11.789   0.238   7.630 -2.4680 -0.9471  1.1184
  182MOL0     H25050  11.734   0.370   7.733  0.8785 -0.0910  0.3881
  182MOL0     H25051  11.871   0.406   7.456 -1.3815  0.1472 -0.6898
  182MOL0     H25052  11.798   0.531   7.532  0.0156  0.3216  1.1044
  182MOL0     H25053  12.011   0.568   7.593 -0.9427  0.3382 -0.4965
  182MOL0     H25054  11.927   0.507   7.732 -2.0341 -0.9002 -1.0572
  182MOL0     H25055  12.025   0.277   7.690  0.5144  0.1242  1.9437
  182MOL0     H25056  12.095   0.345   7.541  0.6412  1.4895 -0.3859
  182MOL0     H25057  12.166   0.440   7.822  2.3060 -1.9649  1.3157
  182MOL0     H25058  12.222   0.514   7.662  1.9724 -1.4996 -0.4820
  182MOL0     H25059  12.275   0.240   7.771 -1.8558 -1.0526 -1.2593
  182MOL0     H25060  12.323   0.294   7.604  1.7557 -0.9459  1.0837
  182MOL0     H25061  12.486   0.463   7.727  1.8770 -1.0218  0.0039
  182MOL0     H25062  12.507   0.298   7.759 -0.5096 -0.6265 -0.4912
  182MOL0     H25063  12.396   0.536   7.902  0.4313  0.6623 -0.5314
  182MOL0     H25064  12.346   0.372   7.971 -1.3171 -0.2347 -2.5917
  182MOL0     H25065  12.515   0.231   8.087 -2.6711  3.3254  1.6116
  182MOL0     H25066  12.760   0.114   8.137 -1.1165  0.8184 -1.4672
  182MOL0     H25067  12.893   0.243   8.153 -0.1839 -0.9455  1.0349
  182MOL0     H25068  12.946   0.036   8.003  1.7247  1.4332  1.2264
  182MOL0     H25069  12.812   0.100   7.899 -0.8866  2.2276 -0.1783
  182MOL0     H25070  13.046   0.148   7.818 -1.0389 -0.0703  0.6011
  182MOL0     H25071  12.935   0.277   7.821 -0.6790  0.6770  0.7102
  182MOL0     H25072  13.194   0.334   7.895  0.7525  2.0066  0.3932
  182MOL0     H25073  13.079   0.368   8.029  1.6001 -0.6281  2.0024
  182MOL0     H25074  13.408   0.268   8.111 -0.3557  0.7790 -0.6472
  182MOL0     H25075  13.724   0.106   8.087  0.5506 -2.3895  2.5696
  182MOL0     H25076  13.649   0.086   8.245 -0.8273 -0.1328  0.4717
  182MOL0     H25077  13.620   0.232   8.150  0.6489 -0.0140 -2.2880
  182MOL0     H25078  13.488  -0.445   7.757  0.3938  2.2500 -1.3720
  182MOL0     H25079  13.613  -0.618   7.649 -0.6340  0.2666  1.3229
  182MOL0     H25080  13.720  -0.796   7.661 -0.5409  0.1679  1.8090
  182MOL0     H25081  13.805  -0.713   7.527  0.8154 -0.6881  0.6139
  182MOL0     H25082  13.987  -0.867   7.561  0.4321  1.7781  3.2098
  182MOL0     H25083  13.896  -0.961   7.679 -2.6794  2.4461  2.4566
  182MOL0     H25084  13.884  -1.071   7.451 -2.6966 -1.8815 -1.0803
  182MOL0     H25085  13.825  -0.913   7.386 -0.9162  0.6559  0.0426
  182MOL0     H25086  13.617  -0.942   7.510  1.0565  0.2959 -3.3110
  182MOL0     H25087  13.680  -1.098   7.582 -0.9343  2.0694  1.3801
  182MOL0     H25088  13.647  -1.019   7.294  3.1160 -0.5873  0.7446
  182MOL0     H25089  13.693  -1.184   7.361  1.8355  1.2108 -0.9859
  182MOL0     H25090  13.477  -1.165   7.273 -0.3269  1.2987 -0.9850
  182MOL0     H25091  13.440  -1.036   7.403  0.6749  0.6011  1.7897
  182MOL0     H25092  13.339  -1.273   7.450  0.9430 -0.9943 -1.8698
  182MOL0     H25093  13.435  -1.201   7.579 -1.7600 -0.1294 -0.4286
  182MOL0     H25094  13.623  -1.361   7.517  0.0097 -0.9441  0.5241
  182MOL0     H25095  13.534  -1.408   7.375  0.9269  0.8249 -0.4838
  182MOL0     H25096  13.969  -0.505   7.870 -0.1666  0.8409  1.3537
  182MOL0     H25097  13.864  -0.282   7.926  0.4855  0.0711  1.1640
  182MOL0     H25098  13.350  -0.184   7.927 -0.6309 -0.8562 -0.3304
  182MOL0     H25099  13.167  -0.037   7.942 -0.6105  0.0723  0.4423
  182MOL0     H25100  11.370   0.274   7.551  3.5598 -0.8165 -1.3762
  182MOL0     H25101  11.187   0.398   7.618 -0.3581  0.1764 -1.4135
  182MOL0     H25102  10.985   0.551   7.792 -1.4314 -2.0149 -1.7403
  182MOL0     H25103  10.758   0.556   7.874  2.2766 -0.2345  0.0790
  182MOL0     H25104  10.512   0.482   7.818 -0.0174  0.2574 -3.1343
  182MOL0     H25105  10.559   0.614   7.923 -1.1745  0.3749  0.6819
  182MOL0     H25106  10.334   0.565   7.960 -1.5942  2.3665  1.0019
  182MOL0     H25107  10.285   0.581   7.790  1.6962 -0.5130 -1.3027
  182MOL0     H25108  10.408   0.785   7.984  3.1056 -0.1949 -1.3422
  182MOL0     H25109  10.391   0.830   7.809 -2.7242  1.9512  0.9676
  182MOL0     H25110  10.225   0.943   7.918 -3.5104  1.2429  1.8470
  182MOL0     H25111  10.187   0.802   8.028 -0.2887 -0.0682 -0.0322
  182MOL0     H25112   9.922   0.716   7.717 -0.7628  0.3312  0.7377
  182MOL0     H25113  10.648   0.779   7.531 -1.5474 -4.9375 -0.0327
  182MOL0     H25114  10.892   0.798   7.334  1.2399 -2.9671  1.4506
  182MOL0     H25115  10.807   0.927   7.424 -0.8419 -0.2317  0.5680
  182MOL0     H25116  10.969   0.912   7.439 -0.9795  1.4060 -2.9014
  183MOL0     O25117   6.231   8.461  11.407  0.1317 -0.0387 -0.1442
  183MOL0     C25118   6.210   8.563  11.339 -0.2132  0.2960  0.7782
  183MOL0     O25119   6.299   8.675  11.325  0.0894 -0.2320 -0.1123
  183MOL0     C25120   6.411   8.669  11.406  0.1464  0.0725  0.5518
  183MOL0     C25121   6.536   8.672  11.348  0.5715 -1.0399  0.0361
  183MOL0     C25122   6.652   8.680  11.426  0.2111 -0.2458  0.2795
  183MOL0     C25123   6.652   8.683  11.567  0.1406 -0.5876 -0.2975
  183MOL0     O25124   6.757   8.670  11.651 -0.5482 -0.4887 -0.2117
  183MOL0     C25125   6.887   8.664  11.590  0.3249 -0.2115 -0.4583
  183MOL0     C25126   6.996   8.680  11.710 -0.0286  0.3550  0.9033
  183MOL0     C25127   6.959   8.787  11.811  0.5706  0.4695  0.1526
  183MOL0     C25128   7.028   8.764  11.950 -0.0430  0.1126  0.2973
  183MOL0     C25129   7.002   8.879  12.033  0.4289 -0.2991 -0.2900
  183MOL0     C25130   7.061   8.862  12.173 -1.1129 -0.1017 -0.5784
  183MOL0     C25131   7.216   8.812  12.176 -0.1998 -0.1439 -0.3387
  183MOL0     C25132   7.317   8.904  12.112  0.4828 -0.2713 -0.7557
  183MOL0     N25133   7.444   8.831  12.114  1.2065  0.1172  0.0412
  183MOL0     C25134   7.519   8.830  12.227 -0.5529  0.4095  0.3274
  183MOL0     C25135   7.620   8.731  12.204  0.0166 -0.2719  1.0548
  183MOL0     C25136   7.697   8.667  12.313  0.5526  0.5451  0.7695
  183MOL0     C25137   7.839   8.620  12.274  0.1901  0.0655 -0.4163
  183MOL0     C25138   7.934   8.745  12.286 -0.3019 -0.5384 -0.2475
  183MOL0     C25139   8.077   8.718  12.252 -0.7800  0.1355 -0.1609
  183MOL0     O25140   8.125   8.656  12.375  0.6281 -0.3842 -0.1775
  183MOL0     C25141   8.260   8.662  12.377  0.2463  0.0041  0.7064
  183MOL0     C25142   8.339   8.649  12.259  0.1001  0.6513 -0.1848
  183MOL0     C25143   8.478   8.645  12.260 -0.0477  0.0288  1.3499
  183MOL0     C25144   8.545   8.571  12.142 -0.2367 -0.5989  0.0463
  183MOL0     C25145   8.548   8.685  12.378 -0.5770  0.1039  0.2994
  183MOL0     C25146   8.694   8.701  12.381 -0.5558 -0.0486 -0.2495
  183MOL0     O25147   8.769   8.705  12.272 -0.4830 -0.0483 -0.0207
  183MOL0     C25148   8.908   8.678  12.289 -0.3227  0.2539  0.0041
  183MOL0     C25149   8.998   8.785  12.282 -0.2769  0.1172  0.3658
  183MOL0     C25150   9.140   8.760  12.303  0.4578  0.2357 -0.4914
  183MOL0     C25151   9.186   8.637  12.344 -0.3094  1.3149 -0.4026
  183MOL0     O25152   9.323   8.602  12.349 -0.2176  0.1278 -0.2148
  183MOL0     C25153   9.410   8.658  12.245 -0.4885  0.0190 -0.8384
  183MOL0     C25154   9.525   8.742  12.321  0.8634  0.5807 -0.5888
  183MOL0     C25155   9.629   8.799  12.220  0.3042  0.5008 -0.0526
  183MOL0     C25156   9.721   8.886  12.294 -0.0268  0.1812  0.4029
  183MOL0     C25157   9.783   8.995  12.200  0.1268 -0.1543 -0.4000
  183MOL0     C25158   9.880   9.080  12.289 -0.5389  0.9405 -0.0853
  183MOL0     C25159   9.971   9.163  12.200  0.3329  0.5631  0.5041
  183MOL0     C25160  10.068   9.082  12.115  0.3188 -0.1868 -0.7125
  183MOL0    Cl25161  10.175   9.180  12.013 -0.1655 -0.0079 -0.3589
  183MOL0     C25162   9.093   8.542  12.360  0.0698  0.6280  0.4603
  183MOL0     C25163   8.956   8.555  12.329 -0.7338  0.3000 -0.0246
  183MOL0     O25164   8.736   8.713  12.495 -0.5636 -0.6153  0.0185
  183MOL0     C25165   8.466   8.715  12.489  0.2246 -0.1237 -0.5289
  183MOL0     C25166   8.328   8.696  12.488 -0.7767  0.5446 -0.1317
  183MOL0     N25167   7.592   8.679  12.081  0.1803  0.5647  0.7605
  183MOL0     N25168   7.491   8.740  12.030  0.5853 -0.5207  1.0075
  183MOL0     C25169   6.525   8.677  11.619  0.2709  0.5110 -0.1828
  183MOL0     C25170   6.406   8.672  11.543  0.6018  0.3200 -0.1650
  183MOL0     C25171   6.087   8.569  11.256 -0.2327 -0.4658 -0.0586
  183MOL0     C25172   6.098   8.632  11.135 -0.1801  0.4855  0.4004
  183MOL0     C25173   5.983   8.629  11.048 -1.1001 -0.6865 -0.7292
  183MOL0     C25174   5.861   8.572  11.078 -0.9428 -0.0480 -0.0647
  183MOL0     O25175   5.769   8.569  10.974 -0.2760 -0.5371 -0.6394
  183MOL0     C25176   5.647   8.505  11.018 -0.3511  0.9872  0.1358
  183MOL0     C25177   5.542   8.537  10.917 -0.1593  0.1213  0.2974
  183MOL0     C25178   5.566   8.460  10.788 -0.1175 -0.6027  0.9365
  183MOL0     C25179   5.435   8.430  10.718  0.0596  1.0401 -0.3596
  183MOL0     C25180   5.450   8.328  10.612  0.1855  0.2100  0.3108
  183MOL0     C25181   5.445   8.255  10.517  0.1152 -0.2473 -0.5821
  183MOL0     C25182   5.855   8.509  11.201 -0.1139 -0.5176  0.1901
  183MOL0     C25183   5.961   8.514  11.292  0.1094 -0.5059 -1.0574
  183MOL0     C25184   5.939   8.445  11.430  0.1850 -0.2374 -0.1641
  183MOL0     H25185   6.564   8.674  11.243  1.0778 -0.8406  0.1727
  183MOL0     H25186   6.748   8.656  11.382 -0.1647 -0.0961 -0.6594
  183MOL0     H25187   6.909   8.736  11.510  0.5849  0.7010  0.4096
  183MOL0     H25188   6.911   8.569  11.542  3.2286 -0.6415  1.5703
  183MOL0     H25189   7.026   8.588  11.761 -0.3441  1.5619  3.4211
  183MOL0     H25190   7.083   8.710  11.650 -0.7267 -0.8440 -0.7758
  183MOL0     H25191   6.991   8.887  11.780 -1.0357  0.4008 -2.0196
  183MOL0     H25192   6.851   8.804  11.825  0.9267  3.1662  0.1115
  183MOL0     H25193   6.989   8.668  11.985 -0.8775  1.0580  2.0931
  183MOL0     H25194   7.135   8.750  11.928 -0.9051 -0.8165 -4.3771
  183MOL0     H25195   6.893   8.890  12.037  0.1876 -2.1257 -0.9428
  183MOL0     H25196   7.041   8.970  11.987  2.8722 -1.6122 -0.9808
  183MOL0     H25197   7.053   8.957  12.226  1.8612 -0.8025  1.4001
  183MOL0     H25198   7.005   8.782  12.222 -0.3582 -0.5146 -0.3617
  183MOL0     H25199   7.222   8.712  12.130 -0.6952 -0.5321  0.4167
  183MOL0     H25200   7.239   8.796  12.282  0.2852  0.2990 -0.3752
  183MOL0     H25201   7.287   8.927  12.009  0.0962 -1.6955 -0.9904
  183MOL0     H25202   7.322   8.997  12.169 -3.8254 -0.4353  0.2541
  183MOL0     H25203   7.513   8.891  12.317  2.2882  2.0998 -0.5135
  183MOL0     H25204   7.638   8.584  12.354  0.0036  0.3762 -0.3192
  183MOL0     H25205   7.694   8.737  12.398 -1.1694  0.1339  1.0934
  183MOL0     H25206   7.871   8.552  12.354  0.5961  0.7277 -0.0067
  183MOL0     H25207   7.838   8.572  12.176 -0.7678 -1.0326  0.1043
  183MOL0     H25208   7.901   8.825  12.219  0.4458 -1.1524 -1.3928
  183MOL0     H25209   7.930   8.788  12.386 -4.6812  1.0514 -0.8669
  183MOL0     H25210   8.086   8.667  12.156 -0.2838  0.3864 -0.2515
  183MOL0     H25211   8.125   8.814  12.232 -2.2527  1.0883  0.6570
  183MOL0     H25212   8.297   8.623  12.163 -0.0651 -1.4416  0.4095
  183MOL0     H25213   8.484   8.563  12.051  1.7887  2.4083 -1.7729
  183MOL0     H25214   8.553   8.466  12.171  2.8399 -0.2220  0.8951
  183MOL0     H25215   8.641   8.610  12.109 -0.4862 -1.1206 -1.3515
  183MOL0     H25216   8.956   8.881  12.255 -2.3351 -0.2632  1.9027
  183MOL0     H25217   9.202   8.848  12.289  0.9621  0.4578  2.5119
  183MOL0     H25218   9.472   8.579  12.203  0.4361  0.7261 -0.8380
  183MOL0     H25219   9.359   8.712  12.164 -0.8018  1.2817  0.1546
  183MOL0     H25220   9.480   8.818  12.386  1.1311  0.2810 -0.0418
  183MOL0     H25221   9.586   8.675  12.383  1.3549  1.3442 -0.2259
  183MOL0     H25222   9.564   8.853  12.150 -0.0511 -0.2195 -0.2944
  183MOL0     H25223   9.680   8.725  12.157 -1.1470  0.3009 -1.0546
  183MOL0     H25224   9.808   8.828  12.327  0.6310 -0.0639 -1.6167
  183MOL0     H25225   9.673   8.917  12.388 -0.1423 -1.8292  1.0544
  183MOL0     H25226   9.818   8.947  12.108 -1.9455 -0.1128 -1.2651
  183MOL0     H25227   9.714   9.073  12.164  0.8370  0.0497 -1.3713
  183MOL0     H25228   9.947   9.011  12.341 -1.4455 -0.3733 -0.6136
  183MOL0     H25229   9.830   9.140  12.365 -1.7291 -1.0294  0.7542
  183MOL0     H25230  10.021   9.224  12.275  0.1865  1.1323  0.1431
  183MOL0     H25231   9.910   9.223  12.132  2.1878  2.3766  0.3358
  183MOL0     H25232  10.017   9.011  12.049  1.0278 -1.9635  0.6070
  183MOL0     H25233  10.121   9.020  12.187 -2.4552 -0.1843  1.4722
  183MOL0     H25234   9.131   8.448  12.398 -0.2801  0.6889  0.9671
  183MOL0     H25235   8.904   8.463  12.353  1.2685 -0.8238  0.2408
  183MOL0     H25236   8.507   8.737  12.588 -0.2063 -1.4283 -0.0397
  183MOL0     H25237   8.281   8.705  12.586  0.5087  0.1605  0.5462
  183MOL0     H25238   6.514   8.679  11.727  2.9650  1.5949  0.1396
  183MOL0     H25239   6.306   8.687  11.583  0.6536 -0.6929  0.3734
  183MOL0     H25240   6.190   8.680  11.107 -0.6802  2.2512  1.6326
  183MOL0     H25241   5.988   8.665  10.946 -2.7492  0.9862 -0.2600
  183MOL0     H25242   5.652   8.396  11.021 -3.0583  0.8174  0.2504
  183MOL0     H25243   5.611   8.545  11.113  2.1683 -1.8967  2.5416
  183MOL0     H25244   5.556   8.642  10.891 -0.3342 -0.1164 -0.8050
  183MOL0     H25245   5.441   8.512  10.952  0.0988  1.2594  1.9596
  183MOL0     H25246   5.640   8.512  10.726  1.6329 -3.4640  0.4501
  183MOL0     H25247   5.616   8.367  10.816 -1.8290 -2.8341 -2.6680
  183MOL0     H25248   5.393   8.522  10.678 -1.2420  1.0177  0.8532
  183MOL0     H25249   5.366   8.393  10.795  3.4791  0.2728  2.5812
  183MOL0     H25250   5.440   8.184  10.437 -3.2327  2.3188 -2.9602
  183MOL0     H25251   5.761   8.473  11.243 -1.5563  0.0839 -2.3085
  183MOL0     H25252   5.957   8.522  11.506  1.1335  0.7226 -1.3164
  183MOL0     H25253   5.837   8.407  11.439 -0.2119  1.0747  1.2522
  183MOL0     H25254   6.011   8.363  11.438 -0.2356 -0.5582  0.4549
  184MOL0     O25255  10.306   2.345   8.301  0.5126  0.3202  0.3496
  184MOL0     C25256  10.293   2.307   8.419 -1.5633  0.1313 -0.6914
  184MOL0     O25257  10.203   2.357   8.510  0.0056  0.4656  0.5317
  184MOL0     C25258  10.098   2.420   8.457  0.5872  1.1178 -0.2452
  184MOL0     C25259  10.012   2.365   8.369  0.8545 -0.3343  0.5667
  184MOL0     C25260   9.909   2.442   8.323  0.8950 -0.9076  0.6075
  184MOL0     C25261   9.889   2.577   8.362 -0.7518  0.2241 -0.1139
  184MOL0     O25262   9.805   2.662   8.294  0.0294  0.3664 -0.3629
  184MOL0     C25263   9.704   2.726   8.382 -1.1630 -0.6313 -0.1697
  184MOL0     C25264   9.659   2.855   8.323  0.2825 -0.0742 -0.4310
  184MOL0     C25265   9.761   2.972   8.331  0.1224  0.3846  0.6772
  184MOL0     C25266   9.875   2.957   8.221 -0.6380 -0.2955  0.0076
  184MOL0     C25267   9.893   3.090   8.140 -0.3195  0.1473  0.4640
  184MOL0     C25268  10.004   3.061   8.032 -0.2125 -0.6957 -0.5818
  184MOL0     C25269  10.046   3.197   7.964  0.0069 -0.3168 -0.2856
  184MOL0     C25270  10.145   3.191   7.853  0.8750 -0.1205 -0.2349
  184MOL0     N25271  10.123   3.084   7.763 -0.0593  0.8825  0.0072
  184MOL0     C25272  10.020   3.072   7.676  0.0876  0.2530 -0.1901
  184MOL0     C25273  10.062   2.975   7.586  0.4220 -0.2423 -0.3937
  184MOL0     C25274   9.993   2.943   7.459  1.2696  0.1246  0.0940
  184MOL0     C25275  10.014   3.068   7.365  0.0637  0.8477  0.0573
  184MOL0     C25276   9.990   3.048   7.219  0.3840  1.1876 -0.4072
  184MOL0     C25277   9.982   3.179   7.146 -0.0391  0.0123 -0.0916
  184MOL0     O25278   9.989   3.174   7.000 -0.5611  0.1482 -0.1881
  184MOL0     C25279  10.116   3.153   6.951  0.0263 -0.0606  0.6773
  184MOL0     C25280  10.170   3.029   6.914 -0.1662 -0.4977  0.4181
  184MOL0     C25281  10.297   3.016   6.853 -0.2039 -0.2178  0.6068
  184MOL0     C25282  10.356   2.883   6.823  1.1013  1.2904 -0.2476
  184MOL0     C25283  10.365   3.132   6.824 -0.3334 -0.3171 -0.1194
  184MOL0     C25284  10.510   3.143   6.777  0.4220  0.0245 -0.1899
  184MOL0     O25285  10.544   3.264   6.715  0.9467 -0.0519  0.4161
  184MOL0     C25286  10.677   3.285   6.703 -0.1505  0.3784 -0.7558
  184MOL0     C25287  10.730   3.383   6.782  0.7329  0.3041 -0.9275
  184MOL0     C25288  10.866   3.418   6.774  0.3360 -0.9865 -0.2606
  184MOL0     C25289  10.954   3.350   6.696 -0.3460  0.5035 -0.5835
  184MOL0     O25290  11.089   3.372   6.695 -0.5700 -0.0513 -0.0540
  184MOL0     C25291  11.130   3.505   6.734 -0.5357 -0.4335 -0.5352
  184MOL0     C25292  11.258   3.546   6.653  0.4654 -0.3058 -0.0772
  184MOL0     C25293  11.357   3.431   6.658  1.2552  0.0452  0.4272
  184MOL0     C25294  11.499   3.474   6.620  0.3995  0.5843 -0.8582
  184MOL0     C25295  11.588   3.348   6.617  0.0379  0.3934  0.0655
  184MOL0     C25296  11.716   3.379   6.529 -0.3704  0.4033  0.0796
  184MOL0     C25297  11.827   3.461   6.591  0.2390 -0.5132  0.1427
  184MOL0     C25298  11.940   3.474   6.490  0.1650 -0.2710  0.2096
  184MOL0    Cl25299  12.068   3.605   6.516 -0.1524 -0.0691 -0.0474
  184MOL0     C25300  10.907   3.233   6.623  0.0321 -0.2605  0.2890
  184MOL0     C25301  10.766   3.210   6.625 -0.5753  0.8234  0.1378
  184MOL0     O25302  10.576   3.040   6.777  0.5989  0.2723 -0.1253
  184MOL0     C25303  10.301   3.257   6.854 -0.0475  0.5732  1.1086
  184MOL0     C25304  10.178   3.271   6.917 -0.1493  0.3954 -0.8627
  184MOL0     N25305  10.190   2.934   7.626 -0.8829 -0.0721  0.1193
  184MOL0     N25306  10.224   2.997   7.729 -0.2429 -1.4111 -0.6340
  184MOL0     C25307   9.983   2.628   8.448 -0.3120  0.0307  0.3550
  184MOL0     C25308  10.081   2.546   8.495  0.2505 -0.3969 -0.9403
  184MOL0     C25309  10.395   2.223   8.479 -0.1807  0.8891 -0.1343
  184MOL0     C25310  10.446   2.244   8.605 -0.1074 -0.1636 -0.3920
  184MOL0     C25311  10.530   2.150   8.674  0.5947  0.0232  1.1754
  184MOL0     C25312  10.581   2.041   8.605 -0.4560  0.2038 -0.4460
  184MOL0     O25313  10.673   1.946   8.659 -0.1279 -0.8388  0.2404
  184MOL0     C25314  10.651   1.908   8.792  0.2274 -0.1679  0.3178
  184MOL0     C25315  10.773   1.849   8.862 -0.5882  0.2789  0.1862
  184MOL0     C25316  10.876   1.961   8.887  0.3331  0.6560 -0.0366
  184MOL0     C25317  11.020   1.908   8.944  1.0947  0.3071  0.6349
  184MOL0     C25318  11.134   2.008   8.920  0.9784 -0.9250 -0.6374
  184MOL0     C25319  11.209   2.101   8.899 -0.5267 -0.3830  0.3668
  184MOL0     C25320  10.535   2.021   8.477 -0.0227 -0.1412  0.6143
  184MOL0     C25321  10.446   2.114   8.412  0.1164  0.8113 -0.5595
  184MOL0     C25322  10.400   2.083   8.275  0.1459  0.2374  0.1870
  184MOL0     H25323  10.025   2.264   8.330 -0.6061  1.0403 -4.1844
  184MOL0     H25324   9.844   2.399   8.247  1.6328 -0.4087 -0.3356
  184MOL0     H25325   9.742   2.747   8.483 -3.0037 -1.2460  0.7011
  184MOL0     H25326   9.627   2.651   8.402 -0.8218 -0.4450  2.2658
  184MOL0     H25327   9.637   2.830   8.219  1.2262  0.6526 -0.8261
  184MOL0     H25328   9.562   2.886   8.364  1.8488  0.6382  3.1909
  184MOL0     H25329   9.699   3.060   8.311 -0.1967 -0.0719 -0.4332
  184MOL0     H25330   9.804   2.985   8.431 -0.0809 -0.9817  0.9563
  184MOL0     H25331   9.966   2.924   8.272 -2.3656 -2.1189  2.1187
  184MOL0     H25332   9.848   2.881   8.148  1.3836 -1.6484  0.6111
  184MOL0     H25333   9.914   3.172   8.209  0.6291  1.4735 -1.2894
  184MOL0     H25334   9.794   3.101   8.095 -1.3306 -3.3476  1.5532
  184MOL0     H25335  10.088   3.018   8.087 -0.1827 -2.2683 -1.8132
  184MOL0     H25336   9.961   2.996   7.955 -0.6194  0.4882 -1.3851
  184MOL0     H25337  10.089   3.253   8.048  1.3773  0.9581 -1.7949
  184MOL0     H25338   9.954   3.251   7.940  0.6377  3.4524  4.2343
  184MOL0     H25339  10.150   3.291   7.808 -1.7468  0.0680 -0.2585
  184MOL0     H25340  10.248   3.183   7.887  0.8278 -1.3523 -0.3521
  184MOL0     H25341   9.924   3.124   7.673  0.2338  0.5387  0.0820
  184MOL0     H25342   9.884   2.934   7.463  0.7229 -1.5293 -6.4930
  184MOL0     H25343  10.035   2.851   7.418  0.4271  0.7771 -2.3870
  184MOL0     H25344   9.946   3.145   7.402  1.8131  2.0387  0.9261
  184MOL0     H25345  10.115   3.108   7.380 -0.4388  1.8275  0.9365
  184MOL0     H25346  10.061   2.979   7.172 -1.1055  0.7218 -2.0410
  184MOL0     H25347   9.892   3.003   7.201 -0.2177  1.9077  0.8998
  184MOL0     H25348   9.886   3.226   7.169 -0.3546  0.4686 -2.1705
  184MOL0     H25349  10.058   3.248   7.185 -0.6126  0.7709 -0.3033
  184MOL0     H25350  10.120   2.937   6.942 -0.2707 -1.1507 -1.7115
  184MOL0     H25351  10.450   2.879   6.879  1.6395  4.4074 -0.7756
  184MOL0     H25352  10.383   2.862   6.719 -0.4489 -0.5940 -0.3405
  184MOL0     H25353  10.296   2.804   6.870  2.7823 -0.8081 -1.4090
  184MOL0     H25354  10.670   3.450   6.843  2.3622  1.2061 -0.2604
  184MOL0     H25355  10.904   3.495   6.841  0.2573  1.0751 -2.4212
  184MOL0     H25356  11.055   3.580   6.710  0.8565  0.9615 -0.6759
  184MOL0     H25357  11.161   3.503   6.839  0.7644 -4.0674 -0.8433
  184MOL0     H25358  11.248   3.572   6.547 -0.6794  1.9869  0.5123
  184MOL0     H25359  11.294   3.636   6.705 -1.8265  0.5032  0.2537
  184MOL0     H25360  11.329   3.358   6.581  2.8076  2.4470 -2.5992
  184MOL0     H25361  11.362   3.380   6.755  1.4381 -1.8278 -0.5235
  184MOL0     H25362  11.536   3.551   6.688  1.4684 -0.0486 -0.7051
  184MOL0     H25363  11.513   3.524   6.524  1.4873  0.9645 -0.5067
  184MOL0     H25364  11.619   3.331   6.721  2.8278  2.0166 -0.3769
  184MOL0     H25365  11.535   3.265   6.570  2.5638 -0.6715 -1.0909
  184MOL0     H25366  11.678   3.421   6.436 -1.3370  0.2864  0.4046
  184MOL0     H25367  11.765   3.283   6.509 -0.5796 -0.2259  2.2825
  184MOL0     H25368  11.871   3.413   6.679  1.8263 -3.9259 -2.3141
  184MOL0     H25369  11.785   3.561   6.607 -0.6789 -0.2813 -3.0378
  184MOL0     H25370  11.893   3.493   6.393  0.4504  4.8142  0.7658
  184MOL0     H25371  12.005   3.386   6.490 -0.9753 -1.1391  0.5113
  184MOL0     H25372  10.977   3.185   6.555  0.4433  0.4383  0.2077
  184MOL0     H25373  10.735   3.122   6.571 -0.1665  1.1196 -0.5871
  184MOL0     H25374  10.351   3.347   6.820  0.3713  0.8173  2.3200
  184MOL0     H25375  10.141   3.370   6.940  3.3731  1.4010  1.1849
  184MOL0     H25376   9.988   2.734   8.473  0.8832  0.1957 -0.4829
  184MOL0     H25377  10.147   2.584   8.571 -0.7411 -1.9827  0.7977
  184MOL0     H25378  10.412   2.330   8.662  2.6334  0.3197  0.6905
  184MOL0     H25379  10.565   2.175   8.774  1.3373 -1.5775  1.3464
  184MOL0     H25380  10.616   1.996   8.847 -1.6158 -0.0049 -1.0191
  184MOL0     H25381  10.576   1.828   8.788 -0.6316  0.6032  0.6243
  184MOL0     H25382  10.820   1.764   8.813  1.2670  0.8661  0.8959
  184MOL0     H25383  10.734   1.811   8.957 -2.4184  2.4128  0.3835
  184MOL0     H25384  10.892   2.029   8.803 -2.1175  0.2792 -0.8999
  184MOL0     H25385  10.828   2.028   8.960  0.0328  1.2890 -0.7919
  184MOL0     H25386  11.047   1.819   8.887  2.1228  1.5451 -0.8887
  184MOL0     H25387  11.018   1.882   9.050  3.1643  1.8993  1.1411
  184MOL0     H25388  11.279   2.182   8.896  0.8375 -1.0824  5.3546
  184MOL0     H25389  10.564   1.934   8.418 -3.1139 -1.5421  0.9609
  184MOL0     H25390  10.433   1.981   8.253  1.4366  0.2485  1.8955
  184MOL0     H25391  10.291   2.079   8.280  0.0955  2.2564  2.3079
  184MOL0     H25392  10.435   2.150   8.196 -1.0133  1.5542  0.7502
  185MOL0     O25393   0.371  10.151   5.946 -0.2768  0.3278  0.7838
  185MOL0     C25394   0.430  10.220   5.860  0.9497 -0.2653  0.8137
  185MOL0     O25395   0.379  10.323   5.789 -0.6132 -0.1262 -0.2658
  185MOL0     C25396   0.253  10.364   5.814  0.4810  0.2997 -0.4635
  185MOL0     C25397   0.169  10.369   5.703  0.2576  0.3694 -0.5449
  185MOL0     C25398   0.037  10.418   5.712 -0.8875  0.4047 -0.5000
  185MOL0     C25399  -0.007  10.467   5.834  0.1227  0.0672  0.2565
  185MOL0     O25400  -0.116  10.548   5.837 -0.6341  0.0763  0.5488
  185MOL0     C25401  -0.218  10.507   5.924 -0.0127  0.0176 -0.3922
  185MOL0     C25402  -0.350  10.514   5.848  0.3702 -0.1169  0.0734
  185MOL0     C25403  -0.401  10.660   5.859 -0.2158  0.1585 -0.1989
  185MOL0     C25404  -0.535  10.678   5.775 -0.8932  0.1117 -0.0100
  185MOL0     C25405  -0.624  10.797   5.817  0.3065 -0.0342 -0.1441
  185MOL0     C25406  -0.713  10.841   5.702 -0.0869  0.1645 -0.1015
  185MOL0     C25407  -0.772  10.979   5.736  0.1668  0.2038  0.3707
  185MOL0     C25408  -0.687  11.086   5.659  0.0301 -0.1223  0.2473
  185MOL0     N25409  -0.738  11.229   5.673  0.6919  0.4357 -0.1919
  185MOL0     C25410  -0.860  11.275   5.628 -0.8131 -0.1025  0.2047
  185MOL0     C25411  -0.877  11.398   5.675 -0.1683 -0.1378  0.3934
  185MOL0     C25412  -0.999  11.484   5.668 -0.3835  0.3539  0.4048
  185MOL0     C25413  -0.970  11.629   5.719  0.2358  0.5266 -0.5088
  185MOL0     C25414  -0.950  11.620   5.870 -0.7212 -0.1993  0.8290
  185MOL0     C25415  -1.083  11.602   5.949 -0.1205 -0.2303 -0.3701
  185MOL0     O25416  -1.126  11.463   5.941  0.3916  0.5087 -0.0521
  185MOL0     C25417  -1.252  11.431   5.996 -0.7797  0.2405  0.0704
  185MOL0     C25418  -1.339  11.519   6.073 -0.7685  0.0384  0.1245
  185MOL0     C25419  -1.461  11.463   6.126  0.2892 -1.0206  0.8286
  185MOL0     C25420  -1.551  11.555   6.212 -0.7136  0.3897  0.1796
  185MOL0     C25421  -1.494  11.336   6.089 -0.5115 -0.1169  0.0762
  185MOL0     C25422  -1.618  11.271   6.131  0.1638  0.7582 -0.3761
  185MOL0     O25423  -1.732  11.345   6.119  0.4060 -0.0032  0.7907
  185MOL0     C25424  -1.849  11.273   6.118  0.1057  0.5714 -0.1312
  185MOL0     C25425  -1.962  11.333   6.186  0.2690 -0.2386 -0.8614
  185MOL0     C25426  -2.077  11.269   6.198  0.5874  0.6553 -0.6465
  185MOL0     C25427  -2.105  11.143   6.151 -1.0596 -0.1394  0.4936
  185MOL0     O25428  -2.224  11.082   6.174  0.5509  0.6311 -0.5909
  185MOL0     C25429  -2.303  11.065   6.054  0.4068 -0.0259  0.3929
  185MOL0     C25430  -2.452  11.019   6.074 -0.2701  0.7252 -0.0811
  185MOL0     C25431  -2.470  10.890   6.166 -0.5949  0.0294  0.0885
  185MOL0     C25432  -2.413  10.913   6.303 -0.3316 -0.1954  0.2217
  185MOL0     C25433  -2.480  10.831   6.413 -0.3751 -1.0114  0.7826
  185MOL0     C25434  -2.615  10.894   6.441 -0.3759 -0.2221  0.3669
  185MOL0     C25435  -2.685  10.810   6.544  0.8874  0.7064  0.3945
  185MOL0     C25436  -2.752  10.674   6.485  0.1281  0.0073 -0.1119
  185MOL0    Cl25437  -2.881  10.632   6.592  0.0075 -0.0397 -0.1694
  185MOL0     C25438  -2.006  11.083   6.070  0.4262 -0.1502  0.3614
  185MOL0     C25439  -1.876  11.145   6.057  0.3379 -0.7149 -0.5567
  185MOL0     O25440  -1.609  11.160   6.194 -0.1934 -0.5513 -0.2726
  185MOL0     C25441  -1.407  11.252   6.010  0.0345  0.1092  0.2198
  185MOL0     C25442  -1.289  11.301   5.962 -0.8063 -0.3785  0.4560
  185MOL0     N25443  -0.755  11.429   5.728  0.3642 -0.1206 -0.3241
  185MOL0     N25444  -0.680  11.330   5.730 -0.3504 -0.4080  0.4144
  185MOL0     C25445   0.075  10.466   5.944  1.0627  0.1992  0.5633
  185MOL0     C25446   0.212  10.417   5.936  0.6373  0.2549  0.3495
  185MOL0     C25447   0.571  10.199   5.817 -0.0441 -0.0448  0.4788
  185MOL0     C25448   0.605  10.232   5.685 -0.9244  0.6760  0.4103
  185MOL0     C25449   0.744  10.226   5.646 -0.3342 -0.3922  0.4194
  185MOL0     C25450   0.844  10.192   5.729 -0.2277  0.2410 -1.4138
  185MOL0     O25451   0.970  10.204   5.695  0.2122 -0.4873 -0.0680
  185MOL0     C25452   1.065  10.251   5.796 -0.1900  0.3066 -0.2210
  185MOL0     C25453   1.019  10.360   5.889  0.6273 -0.1939 -0.5971
  185MOL0     C25454   0.970  10.484   5.829  0.8799 -0.2783  0.3376
  185MOL0     C25455   0.889  10.587   5.914  0.5637  0.2698 -0.8907
  185MOL0     C25456   0.757  10.525   5.959  0.1130  0.7491 -0.3967
  185MOL0     C25457   0.654  10.477   5.999 -0.0004 -0.5125  0.0210
  185MOL0     C25458   0.806  10.156   5.858  0.1668 -0.5723  0.3659
  185MOL0     C25459   0.672  10.159   5.905 -0.3563 -0.0785 -0.5353
  185MOL0     C25460   0.650  10.127   6.053 -0.1549  0.6684 -0.0042
  185MOL0     H25461   0.203  10.341   5.603 -0.1367  0.8629 -0.8208
  185MOL0     H25462  -0.018  10.437   5.620  2.1226  1.4058 -2.2516
  185MOL0     H25463  -0.233  10.588   5.996  2.5462  2.5642 -2.5134
  185MOL0     H25464  -0.208  10.408   5.971  0.9685 -0.9968 -2.6016
  185MOL0     H25465  -0.349  10.481   5.744  1.4204  1.1260 -0.3380
  185MOL0     H25466  -0.428  10.458   5.901 -1.1534  0.7882 -1.1329
  185MOL0     H25467  -0.410  10.677   5.967  0.4183  1.1619 -0.2911
  185MOL0     H25468  -0.332  10.734   5.817 -0.0769 -1.6172 -3.4845
  185MOL0     H25469  -0.501  10.689   5.672  3.3456 -0.2959  1.1160
  185MOL0     H25470  -0.583  10.581   5.789  1.4464 -0.9199  1.5732
  185MOL0     H25471  -0.556  10.882   5.829  2.4793 -1.5715 -0.8635
  185MOL0     H25472  -0.669  10.772   5.913 -0.5771  1.8019 -0.0470
  185MOL0     H25473  -0.665  10.844   5.603 -1.7414 -1.2157 -1.0048
  185MOL0     H25474  -0.799  10.774   5.691 -1.3521  1.8637 -1.0296
  185MOL0     H25475  -0.769  10.998   5.844  0.4780 -1.2080  0.6358
  185MOL0     H25476  -0.875  10.983   5.702  0.5402 -0.5895 -0.9238
  185MOL0     H25477  -0.586  11.098   5.698  0.0359 -2.6412  1.1741
  185MOL0     H25478  -0.680  11.060   5.553 -1.9362  0.2731 -0.0221
  185MOL0     H25479  -0.934  11.210   5.583 -0.7229  0.9890 -1.6366
  185MOL0     H25480  -1.087  11.443   5.717  1.0302 -2.6935  0.6215
  185MOL0     H25481  -1.039  11.493   5.567 -2.0191  1.8508  1.1284
  185MOL0     H25482  -0.882  11.663   5.663  1.4643  0.4071  1.2526
  185MOL0     H25483  -1.051  11.692   5.681  0.2678 -0.3976 -2.1979
  185MOL0     H25484  -0.893  11.532   5.903 -1.4320 -0.8234  0.4411
  185MOL0     H25485  -0.905  11.713   5.906 -1.1647  0.2015  0.3564
  185MOL0     H25486  -1.054  11.615   6.053  3.2820 -2.5390 -0.8580
  185MOL0     H25487  -1.154  11.676   5.910  2.0674  1.0325 -2.1622
  185MOL0     H25488  -1.324  11.627   6.071 -2.2988  0.2865 -1.8570
  185MOL0     H25489  -1.643  11.511   6.251 -1.3219  0.7678 -0.7964
  185MOL0     H25490  -1.581  11.642   6.153  1.8047 -0.8872 -3.3116
  185MOL0     H25491  -1.491  11.593   6.295  0.6904  0.5365 -0.8580
  185MOL0     H25492  -1.949  11.437   6.214 -1.9674  0.1020 -0.8975
  185MOL0     H25493  -2.150  11.313   6.265 -0.6805 -1.7562 -0.3765
  185MOL0     H25494  -2.302  11.155   5.991 -0.1467  1.3077  2.1856
  185MOL0     H25495  -2.253  10.988   5.995  2.9711  1.6042  0.2802
  185MOL0     H25496  -2.500  11.105   6.121 -0.3836 -0.0651  1.3005
  185MOL0     H25497  -2.498  11.018   5.975  0.7666 -0.5080 -0.5806
  185MOL0     H25498  -2.436  10.799   6.116  0.7239  0.1217  0.7750
  185MOL0     H25499  -2.578  10.873   6.175 -0.5037 -1.0182 -0.5797
  185MOL0     H25500  -2.431  11.019   6.325  2.3131  0.0235  1.7514
  185MOL0     H25501  -2.306  10.890   6.312 -0.0216  0.1085 -2.0630
  185MOL0     H25502  -2.490  10.731   6.369 -0.8671 -1.2351  1.3836
  185MOL0     H25503  -2.425  10.829   6.507 -0.9657 -2.1791  1.1309
  185MOL0     H25504  -2.675  10.914   6.351  0.5213  1.6482  0.1411
  185MOL0     H25505  -2.597  10.986   6.497 -0.7055 -0.8675  1.5821
  185MOL0     H25506  -2.769  10.864   6.588  0.2927 -2.1809  3.1432
  185MOL0     H25507  -2.619  10.779   6.625  3.5762 -2.0218 -2.5463
  185MOL0     H25508  -2.681  10.592   6.475  1.5552  0.9858  1.3557
  185MOL0     H25509  -2.800  10.692   6.388  2.1312 -2.0326 -1.5616
  185MOL0     H25510  -2.023  10.988   6.020  0.6024 -0.9931  1.8437
  185MOL0     H25511  -1.791  11.102   6.006  0.7847 -2.3882  1.4621
  185MOL0     H25512  -1.434  11.151   5.981 -0.1901  0.1717  0.2114
  185MOL0     H25513  -1.219  11.240   5.905  2.0909  2.4177  0.7194
  185MOL0     H25514   0.037  10.500   6.040 -0.4895 -2.1652  0.8900
  185MOL0     H25515   0.279  10.414   6.022  2.8405 -0.5538 -1.3022
  185MOL0     H25516   0.525  10.248   5.614 -1.3425 -2.2138  0.0941
  185MOL0     H25517   0.773  10.263   5.548  2.2214 -2.9830  0.0410
  185MOL0     H25518   1.099  10.166   5.855 -0.9002 -1.0817 -1.7049
  185MOL0     H25519   1.157  10.289   5.750  0.4242  0.0710  0.7914
  185MOL0     H25520   1.111  10.393   5.939  1.0695  0.6923 -1.9279
  185MOL0     H25521   0.949  10.323   5.965 -1.9244  1.2808 -2.0979
  185MOL0     H25522   1.055  10.545   5.798  0.3732  2.3734  3.6226
  185MOL0     H25523   0.910  10.458   5.740  0.4856 -0.3654  0.6256
  185MOL0     H25524   0.869  10.675   5.852 -0.7388  0.0420 -0.8287
  185MOL0     H25525   0.956  10.614   5.996 -0.5591  0.4824 -0.0269
  185MOL0     H25526   0.566  10.421   6.027 -0.3193 -1.5238 -2.6785
  185MOL0     H25527   0.881  10.119   5.926  0.1421 -0.1415  0.6280
  185MOL0     H25528   0.587  10.038   6.054  1.6983 -0.7130 -0.6016
  185MOL0     H25529   0.743  10.098   6.103 -0.8751 -0.0240  0.9757
  185MOL0     H25530   0.606  10.214   6.102 -0.1608  0.3377  0.5861
  186MOL0     O25531  10.797   7.456   7.568  0.4106 -0.0401 -0.1305
  186MOL0     C25532  10.737   7.389   7.483 -0.7024 -0.2612 -0.8357
  186MOL0     O25533  10.795   7.286   7.416  0.4264  0.5399 -0.3516
  186MOL0     C25534  10.918   7.243   7.430  0.6463 -0.4432  0.2837
  186MOL0     C25535  10.944   7.109   7.391 -0.0348 -0.1431  0.2248
  186MOL0     C25536  11.072   7.056   7.387  0.6495  0.3245 -0.1663
  186MOL0     C25537  11.179   7.128   7.419 -0.8419  0.4503 -0.5872
  186MOL0     O25538  11.307   7.064   7.416 -0.7019  0.9604  0.4520
  186MOL0     C25539  11.425   7.113   7.488  0.3446  0.0873 -0.0792
  186MOL0     C25540  11.530   7.020   7.470 -0.0235 -0.5139 -0.0689
  186MOL0     C25541  11.645   7.037   7.575 -0.2232 -0.5583 -0.2143
  186MOL0     C25542  11.746   6.933   7.565 -0.3618 -0.1448 -0.5056
  186MOL0     C25543  11.855   6.981   7.663  0.0488 -0.3277 -0.7136
  186MOL0     C25544  11.989   6.896   7.668  0.5451  0.1321  0.2940
  186MOL0     C25545  12.079   6.906   7.542  0.1618  0.0124 -0.4084
  186MOL0     C25546  12.227   6.869   7.583 -0.0198  0.7856  0.6506
  186MOL0     N25547  12.319   6.871   7.467  0.4584  0.5758  0.5428
  186MOL0     C25548  12.456   6.847   7.468 -0.3632 -0.0029  0.4725
  186MOL0     C25549  12.489   6.842   7.336  0.1106 -0.6644  0.5459
  186MOL0     C25550  12.627   6.840   7.274  0.1861 -0.0278  0.0832
  186MOL0     C25551  12.739   6.796   7.366 -0.8611 -0.4567  0.1506
  186MOL0     C25552  12.874   6.817   7.295 -0.8019 -0.2896  0.3021
  186MOL0     C25553  12.881   6.704   7.186 -0.6370  0.6106  0.3553
  186MOL0     O25554  13.001   6.714   7.090 -0.0106 -0.6258 -0.9697
  186MOL0     C25555  13.123   6.660   7.127  0.0664 -0.7691 -0.0249
  186MOL0     C25556  13.219   6.636   7.033 -0.0569 -0.1644  0.3573
  186MOL0     C25557  13.340   6.572   7.058  0.0438  0.0691  0.7606
  186MOL0     C25558  13.439   6.564   6.942  0.4839  0.4686  0.3270
  186MOL0     C25559  13.378   6.535   7.190  0.2912 -0.9719  0.4948
  186MOL0     C25560  13.501   6.463   7.208  0.1941 -0.9762 -0.6251
  186MOL0     O25561  13.578   6.513   7.302 -0.2419 -0.3975 -0.1177
  186MOL0     C25562  13.703   6.460   7.314  0.4708 -0.2996 -0.0479
  186MOL0     C25563  13.808   6.500   7.230 -0.1287 -0.0583 -0.4122
  186MOL0     C25564  13.932   6.449   7.251 -0.6845  0.9618 -0.0672
  186MOL0     C25565  13.951   6.344   7.342  0.2098  0.8594 -0.3420
  186MOL0     O25566  14.078   6.302   7.382 -0.3747 -0.1137 -0.6344
  186MOL0     C25567  14.195   6.305   7.292 -0.3746  0.2053  0.5722
  186MOL0     C25568  14.321   6.236   7.354  0.4518 -0.2847 -0.4838
  186MOL0     C25569  14.336   6.077   7.350 -0.0023  0.5954 -0.3697
  186MOL0     C25570  14.225   6.001   7.272 -0.8156  0.6615 -0.0246
  186MOL0     C25571  14.217   5.856   7.292  0.2144 -0.0652 -0.6178
  186MOL0     C25572  14.326   5.767   7.231  0.5000 -0.9345  0.3407
  186MOL0     C25573  14.310   5.619   7.258 -0.3284  0.1432 -0.7552
  186MOL0     C25574  14.415   5.533   7.187 -1.0388  0.1155  0.9863
  186MOL0    Cl25575  14.583   5.584   7.230 -0.1504  0.2275  0.0123
  186MOL0     C25576  13.839   6.304   7.421 -0.5036 -0.0603  0.1400
  186MOL0     C25577  13.718   6.368   7.413 -0.2119 -0.1958  0.8373
  186MOL0     O25578  13.516   6.357   7.147  0.6636 -0.2298 -0.1381
  186MOL0     C25579  13.288   6.570   7.288 -0.7642 -0.3966 -0.1168
  186MOL0     C25580  13.163   6.629   7.261 -0.0447 -0.1101  0.1592
  186MOL0     N25581  12.373   6.858   7.265 -0.2445  0.9249 -0.1773
  186MOL0     N25582  12.269   6.879   7.341 -0.3877 -0.3370  0.7684
  186MOL0     C25583  11.165   7.265   7.451  0.4806  0.0305  0.6394
  186MOL0     C25584  11.035   7.313   7.443  0.1026 -0.4950 -0.4614
  186MOL0     C25585  10.596   7.404   7.470 -0.9980 -0.3989 -0.3676
  186MOL0     C25586  10.519   7.292   7.439 -0.1925  0.3456  0.1406
  186MOL0     C25587  10.386   7.294   7.408  1.1381  0.5597  0.5647
  186MOL0     C25588  10.318   7.424   7.413 -0.2057 -0.4736 -0.1123
  186MOL0     O25589  10.193   7.462   7.392  0.3602  0.0171  0.0679
  186MOL0     C25590  10.095   7.373   7.342  0.8090  0.9182 -0.4620
  186MOL0     C25591  10.016   7.313   7.457 -0.0057  0.3607  0.0169
  186MOL0     C25592   9.896   7.241   7.405 -0.5456 -0.2993 -0.3252
  186MOL0     C25593   9.907   7.094   7.364  0.4479 -0.5661  0.8378
  186MOL0     C25594   9.974   7.090   7.234 -0.0515 -0.5315 -0.5364
  186MOL0     C25595  10.035   7.084   7.131 -0.1802 -0.1295  0.5837
  186MOL0     C25596  10.398   7.531   7.448  0.7915 -0.7106 -0.8133
  186MOL0     C25597  10.538   7.531   7.476 -0.4245  1.0100 -0.4876
  186MOL0     C25598  10.612   7.658   7.518 -0.1887  0.1280 -0.0830
  186MOL0     H25599  10.864   7.039   7.373  1.4441 -1.5310 -1.3771
  186MOL0     H25600  11.071   6.954   7.350 -2.0939  1.4076 -3.6845
  186MOL0     H25601  11.399   7.133   7.592 -0.6257  2.3824 -0.6884
  186MOL0     H25602  11.454   7.209   7.445 -0.5595  1.2530  1.7872
  186MOL0     H25603  11.490   6.920   7.485 -0.0059 -0.4855  0.1816
  186MOL0     H25604  11.573   7.024   7.370  1.0303 -0.6934  0.3592
  186MOL0     H25605  11.689   7.134   7.550 -2.3673  0.4409 -0.3679
  186MOL0     H25606  11.608   7.030   7.678  1.4589 -2.2731  0.3242
  186MOL0     H25607  11.715   6.835   7.604  3.4320 -1.6741 -0.9204
  186MOL0     H25608  11.777   6.929   7.460 -0.3015 -1.2297 -0.4546
  186MOL0     H25609  11.807   6.998   7.759  0.0435 -0.6113 -0.6647
  186MOL0     H25610  11.882   7.078   7.621 -0.1857 -0.1878 -0.5435
  186MOL0     H25611  12.042   6.938   7.754  0.3138  2.0267 -0.4368
  186MOL0     H25612  11.962   6.791   7.679 -0.0836  0.3465  0.8331
  186MOL0     H25613  12.076   7.004   7.493  1.2037 -0.6346 -1.8399
  186MOL0     H25614  12.058   6.829   7.468  2.3478 -0.2617 -0.7952
  186MOL0     H25615  12.261   6.941   7.658 -1.2434  3.4964 -1.2197
  186MOL0     H25616  12.232   6.776   7.640  1.8801  1.4217  1.5810
  186MOL0     H25617  12.535   6.833   7.542  1.9963  0.4971 -1.8245
  186MOL0     H25618  12.643   6.942   7.237 -3.5568  0.1673 -1.4070
  186MOL0     H25619  12.627   6.772   7.189  2.1985  0.4001 -0.3208
  186MOL0     H25620  12.733   6.852   7.459 -2.6809 -1.8346  0.9305
  186MOL0     H25621  12.735   6.693   7.404  2.7073  0.6013  4.0105
  186MOL0     H25622  12.873   6.906   7.231 -2.2078 -1.3354 -1.1876
  186MOL0     H25623  12.955   6.814   7.368  0.0204 -0.0966 -0.5783
  186MOL0     H25624  12.896   6.606   7.231  0.6385  0.6139 -0.0266
  186MOL0     H25625  12.792   6.691   7.124 -0.1425  1.6819 -0.6181
  186MOL0     H25626  13.196   6.643   6.927 -0.0884 -2.8005  0.1210
  186MOL0     H25627  13.537   6.556   6.988 -0.8229  0.5990  3.3159
  186MOL0     H25628  13.436   6.647   6.870 -1.1592 -0.0664 -0.2636
  186MOL0     H25629  13.416   6.474   6.885  2.5928  1.0992 -1.6819
  186MOL0     H25630  13.783   6.574   7.155  0.1296 -2.2060 -2.7913
  186MOL0     H25631  14.018   6.496   7.204  1.4873 -0.2831  2.4062
  186MOL0     H25632  14.172   6.255   7.197 -0.7950  1.8421 -0.2232
  186MOL0     H25633  14.215   6.411   7.272 -0.1891 -0.2806 -2.3542
  186MOL0     H25634  14.408   6.282   7.305  0.5717  0.1257  0.1042
  186MOL0     H25635  14.331   6.271   7.457  0.4113  1.3991 -1.0316
  186MOL0     H25636  14.341   6.038   7.453 -0.6732  0.0681 -0.5291
  186MOL0     H25637  14.436   6.049   7.314 -0.5047 -0.4098 -1.0307
  186MOL0     H25638  14.243   6.022   7.166 -1.9645 -1.6548 -0.7498
  186MOL0     H25639  14.126   6.045   7.289 -2.3717 -1.6865 -2.3272
  186MOL0     H25640  14.217   5.835   7.400  0.5290  2.9984  0.0560
  186MOL0     H25641  14.119   5.821   7.258  0.3401 -2.6597  1.3810
  186MOL0     H25642  14.419   5.802   7.277 -0.6097 -0.3364  2.2660
  186MOL0     H25643  14.328   5.779   7.123 -2.0561 -0.3519  0.2928
  186MOL0     H25644  14.215   5.574   7.227 -0.9503  2.2109 -2.0613
  186MOL0     H25645  14.322   5.600   7.365 -1.3707 -0.4696 -0.7321
  186MOL0     H25646  14.405   5.539   7.078  0.5138 -2.6954  0.5932
  186MOL0     H25647  14.397   5.431   7.223  0.7043 -1.1356 -1.3509
  186MOL0     H25648  13.848   6.220   7.489 -2.3958  0.6982  1.3958
  186MOL0     H25649  13.634   6.332   7.470  0.6978 -1.4800  1.4301
  186MOL0     H25650  13.316   6.542   7.389  2.3443  0.0019 -0.7660
  186MOL0     H25651  13.107   6.645   7.353 -2.1345 -1.9005 -0.6925
  186MOL0     H25652  11.243   7.326   7.495  0.2249  0.7316  0.1337
  186MOL0     H25653  11.041   7.420   7.461 -0.8776 -0.5654  0.3324
  186MOL0     H25654  10.573   7.198   7.437  0.2656  0.6035 -2.1054
  186MOL0     H25655  10.341   7.199   7.382  0.6361  0.6981  0.9068
  186MOL0     H25656  10.024   7.426   7.278 -0.4496  1.0107  0.9570
  186MOL0     H25657  10.138   7.296   7.277  1.1101  1.4879 -0.9386
  186MOL0     H25658   9.978   7.388   7.527 -1.6087 -0.4223  0.0499
  186MOL0     H25659  10.077   7.246   7.518 -0.2703  0.5616  0.5063
  186MOL0     H25660   9.828   7.238   7.491 -0.4550 -0.5329 -0.2613
  186MOL0     H25661   9.844   7.298   7.328  0.6546  3.1322  1.1868
  186MOL0     H25662   9.805   7.059   7.345 -0.5922  2.8845 -0.7734
  186MOL0     H25663   9.958   7.024   7.430  0.4816 -0.8257  0.5417
  186MOL0     H25664  10.090   7.076   7.040 -0.2058 -0.3317  0.5865
  186MOL0     H25665  10.334   7.618   7.463 -1.1823 -2.2047 -0.1911
  186MOL0     H25666  10.564   7.750   7.486  0.3877 -0.3755 -2.6167
  186MOL0     H25667  10.615   7.651   7.627  2.3397 -0.9072 -0.1393
  186MOL0     H25668  10.711   7.655   7.472 -0.2896 -0.8031 -0.2569
  187MOL0     O25669   7.071   6.791  11.331 -0.1947  0.0371  0.5640
  187MOL0     C25670   6.972   6.821  11.264 -1.0306 -0.1697  0.0085
  187MOL0     O25671   6.976   6.916  11.160 -0.5165 -0.2772 -0.2971
  187MOL0     C25672   7.089   6.986  11.141 -0.3418 -0.5838  0.3796
  187MOL0     C25673   7.221   6.933  11.127 -0.0690  0.6365 -0.0251
  187MOL0     C25674   7.331   7.013  11.116 -0.4351  0.7346  0.2235
  187MOL0     C25675   7.316   7.153  11.107 -0.3262 -1.0018  0.1214
  187MOL0     O25676   7.434   7.218  11.102 -0.5225  0.8137 -0.2034
  187MOL0     C25677   7.435   7.344  11.154 -0.5486 -0.9496  0.2359
  187MOL0     C25678   7.579   7.388  11.174 -0.0816 -0.2913 -0.0284
  187MOL0     C25679   7.643   7.303  11.281  0.0634 -0.5356  0.6614
  187MOL0     C25680   7.701   7.172  11.240  0.1671  0.2213  0.8387
  187MOL0     C25681   7.789   7.111  11.349 -0.0032  0.6290  0.5473
  187MOL0     C25682   7.713   7.038  11.454 -0.0241  0.0043 -0.5758
  187MOL0     C25683   7.689   7.125  11.582 -0.1417  0.8151 -0.5465
  187MOL0     C25684   7.781   7.080  11.707  0.5861 -0.6764 -0.1452
  187MOL0     N25685   7.919   7.111  11.667  0.1130 -0.1545 -0.3152
  187MOL0     C25686   7.998   7.220  11.705  0.1917  0.1908 -0.1835
  187MOL0     C25687   8.121   7.192  11.652 -0.8538  0.5597 -0.1133
  187MOL0     C25688   8.243   7.284  11.654  0.3360 -0.5375 -0.2838
  187MOL0     C25689   8.286   7.311  11.801 -0.1176  0.2056 -0.3656
  187MOL0     C25690   8.401   7.408  11.810  0.2413  0.2459  0.5129
  187MOL0     C25691   8.478   7.406  11.939  0.0271 -0.3150  0.6549
  187MOL0     O25692   8.547   7.531  11.955 -0.0120  0.1427 -0.2276
  187MOL0     C25693   8.681   7.542  11.912  0.5890  0.0703  0.3356
  187MOL0     C25694   8.756   7.656  11.942 -0.2684 -1.3230 -0.4539
  187MOL0     C25695   8.887   7.672  11.893 -0.3098 -0.7206  0.1057
  187MOL0     C25696   8.963   7.778  11.969  0.1967  0.6062 -0.1546
  187MOL0     C25697   8.935   7.598  11.784 -0.8820  0.3431  0.8297
  187MOL0     C25698   9.075   7.611  11.736 -0.7869  0.9955  0.4224
  187MOL0     O25699   9.101   7.504  11.653 -0.3712 -0.4675 -0.3866
  187MOL0     C25700   9.229   7.498  11.614 -0.2475 -0.0713 -0.3586
  187MOL0     C25701   9.336   7.458  11.699 -0.2734  0.4881 -0.1526
  187MOL0     C25702   9.464   7.443  11.659  0.6744  0.8380 -0.1812
  187MOL0     C25703   9.494   7.465  11.526  0.7970 -0.1539  1.0943
  187MOL0     O25704   9.614   7.449  11.474 -0.4090  0.2846 -0.1088
  187MOL0     C25705   9.731   7.434  11.552 -0.1266  0.1207  0.1788
  187MOL0     C25706   9.849   7.418  11.460 -0.1078 -1.2263 -0.1043
  187MOL0     C25707   9.873   7.541  11.358  0.4104  0.2958 -0.8112
  187MOL0     C25708  10.006   7.511  11.293  0.0529  0.1827 -0.1070
  187MOL0     C25709  10.036   7.639  11.208  0.1132  0.1498  0.2446
  187MOL0     C25710  10.075   7.751  11.293 -0.5461  0.0355  0.7520
  187MOL0     C25711  10.131   7.866  11.203 -0.2122 -0.9264 -0.5484
  187MOL0     C25712  10.156   7.995  11.280  0.1793 -0.1464 -0.3672
  187MOL0    Cl25713  10.285   7.957  11.392 -0.3015  0.3477  0.2360
  187MOL0     C25714   9.388   7.487  11.431 -0.8112 -0.2270 -0.2287
  187MOL0     C25715   9.264   7.504  11.483  0.0040  0.3516  0.5909
  187MOL0     O25716   9.153   7.709  11.742  0.6458  0.9873  0.0341
  187MOL0     C25717   8.850   7.485  11.749 -0.5576  0.4713 -0.9391
  187MOL0     C25718   8.738   7.454  11.820 -0.0741 -0.1326  0.1205
  187MOL0     N25719   8.118   7.066  11.600  0.2265  0.7643  1.4196
  187MOL0     N25720   8.002   7.013  11.615  0.5040 -0.7108 -0.0252
  187MOL0     C25721   7.185   7.204  11.105  0.4409  0.7979  0.4967
  187MOL0     C25722   7.072   7.122  11.117 -0.0734 -1.0143 -0.4214
  187MOL0     C25723   6.842   6.757  11.301 -0.0430 -0.6090  0.3610
  187MOL0     C25724   6.742   6.764  11.203  0.5610  0.2201 -0.5277
  187MOL0     C25725   6.616   6.715  11.240  0.3284 -0.9157  1.0075
  187MOL0     C25726   6.592   6.647  11.361 -0.0236 -0.4578  0.6148
  187MOL0     O25727   6.475   6.581  11.377  0.4298  0.3856 -0.3541
  187MOL0     C25728   6.444   6.504  11.495 -0.5686  0.5445  0.0669
  187MOL0     C25729   6.314   6.419  11.467 -0.5808  0.3742 -1.0616
  187MOL0     C25730   6.195   6.508  11.431  0.3889  0.5795  0.3584
  187MOL0     C25731   6.063   6.436  11.475 -1.1353 -0.0807  0.5472
  187MOL0     C25732   6.003   6.350  11.368 -0.4572 -0.6006 -0.7511
  187MOL0     C25733   5.966   6.282  11.282  0.2051  0.3645 -0.1598
  187MOL0     C25734   6.699   6.635  11.453 -0.0152 -0.5061  0.5805
  187MOL0     C25735   6.824   6.698  11.427  0.8844  0.1958  0.7588
  187MOL0     C25736   6.919   6.684  11.540  0.0948  0.7224 -0.7045
  187MOL0     H25737   7.237   6.826  11.141 -1.6112  0.6549  2.6261
  187MOL0     H25738   7.430   6.977  11.143 -0.9890 -0.6871  0.4734
  187MOL0     H25739   7.378   7.363  11.245 -0.5296  0.6762 -0.0606
  187MOL0     H25740   7.392   7.420  11.088  0.4744 -0.5844 -0.0310
  187MOL0     H25741   7.632   7.371  11.079 -0.9890 -0.6116 -0.4919
  187MOL0     H25742   7.591   7.494  11.198  0.2868 -0.1523 -0.7998
  187MOL0     H25743   7.736   7.348  11.317  1.8876 -0.5091 -3.6106
  187MOL0     H25744   7.578   7.297  11.369 -0.1276  1.5972  0.7184
  187MOL0     H25745   7.618   7.106  11.216 -1.0389  2.3506 -1.2827
  187MOL0     H25746   7.764   7.185  11.152  1.4946 -1.2078  1.5287
  187MOL0     H25747   7.863   7.178  11.394  0.1235  0.2879  0.8559
  187MOL0     H25748   7.859   7.033  11.317  1.6775  1.8312  1.1363
  187MOL0     H25749   7.622   7.015  11.397 -0.3264  0.6385 -0.3550
  187MOL0     H25750   7.764   6.946  11.484  2.7502  0.2391 -3.8667
  187MOL0     H25751   7.586   7.111  11.617 -0.8302  2.2337 -1.8838
  187MOL0     H25752   7.691   7.232  11.559  0.3502  1.5425  2.3947
  187MOL0     H25753   7.749   7.133  11.797  0.6143 -1.1807  0.1662
  187MOL0     H25754   7.768   6.972  11.724  1.9075 -1.1045 -1.5335
  187MOL0     H25755   7.968   7.309  11.759 -0.4917  0.8098 -1.5320
  187MOL0     H25756   8.208   7.382  11.621 -0.9859 -0.4962  1.1170
  187MOL0     H25757   8.331   7.247  11.601  1.3658  0.0333  0.9744
  187MOL0     H25758   8.197   7.352  11.850 -0.7271 -0.9447 -0.4819
  187MOL0     H25759   8.309   7.219  11.855 -1.1576 -0.2702 -0.7008
  187MOL0     H25760   8.473   7.379  11.732 -1.2122 -1.6261 -0.1939
  187MOL0     H25761   8.379   7.512  11.783  0.0280 -0.1750 -1.0370
  187MOL0     H25762   8.396   7.406  12.012 -1.1356 -2.1605 -0.5657
  187MOL0     H25763   8.547   7.322  11.951  0.8440  0.4275  1.2015
  187MOL0     H25764   8.706   7.724  12.010  0.6299  1.1447 -2.1116
  187MOL0     H25765   8.995   7.867  11.914 -0.1689  0.0890 -1.2421
  187MOL0     H25766   9.050   7.732  12.016  0.6411  0.3277 -1.2216
  187MOL0     H25767   8.895   7.808  12.049  0.0759 -1.9374  0.7751
  187MOL0     H25768   9.315   7.455  11.805 -0.9483 -0.3250 -0.3032
  187MOL0     H25769   9.540   7.416  11.732  0.2284 -0.3314 -0.1296
  187MOL0     H25770   9.755   7.519  11.617  1.3202  0.5637 -0.8947
  187MOL0     H25771   9.715   7.347  11.616 -2.6302  0.1474 -0.2813
  187MOL0     H25772   9.936   7.411  11.525 -0.1919 -0.4386  0.0977
  187MOL0     H25773   9.847   7.318  11.415 -2.7250 -2.3922  2.2898
  187MOL0     H25774   9.875   7.639  11.406  0.9195  0.6284 -1.5003
  187MOL0     H25775   9.798   7.549  11.278  1.0646  0.8542 -1.3789
  187MOL0     H25776   9.997   7.419  11.234  0.1105 -0.5681  1.0109
  187MOL0     H25777  10.086   7.482  11.362  0.1478 -2.4251 -1.1592
  187MOL0     H25778  10.110   7.623  11.129  0.1593  2.0976 -0.1665
  187MOL0     H25779   9.945   7.668  11.155  1.8178  1.7306 -2.0455
  187MOL0     H25780  10.155   7.722  11.361 -1.6025  1.7404  2.8656
  187MOL0     H25781   9.991   7.782  11.356 -0.7579  0.8562  0.0848
  187MOL0     H25782  10.058   7.884  11.124  0.4880  0.6779 -0.8655
  187MOL0     H25783  10.229   7.841  11.160  2.7027 -0.4759  4.9479
  187MOL0     H25784  10.067   8.019  11.338 -2.2033  0.3492 -3.9104
  187MOL0     H25785  10.178   8.073  11.206  1.0372  1.1547  1.1841
  187MOL0     H25786   9.413   7.495  11.326  0.2007 -0.1416  0.0083
  187MOL0     H25787   9.188   7.527  11.408 -0.7776  1.4709  1.6698
  187MOL0     H25788   8.884   7.423  11.667  1.5888  2.2923 -1.5446
  187MOL0     H25789   8.679   7.368  11.791 -1.0249  0.6755 -0.4016
  187MOL0     H25790   7.177   7.312  11.090 -0.4418  0.8334  1.1095
  187MOL0     H25791   6.977   7.173  11.110  0.1798 -0.6694 -1.6330
  187MOL0     H25792   6.747   6.803  11.101 -1.4257  3.0911  0.3274
  187MOL0     H25793   6.546   6.730  11.159  0.0903 -0.9553  1.2053
  187MOL0     H25794   6.526   6.438  11.523 -0.5310  0.5734  0.0231
  187MOL0     H25795   6.422   6.569  11.580 -0.5910 -0.4889  0.8682
  187MOL0     H25796   6.295   6.367  11.561  0.4073  3.1438  0.8161
  187MOL0     H25797   6.335   6.341  11.394  1.9587 -0.4135  0.3655
  187MOL0     H25798   6.211   6.603  11.481  0.3549  1.0315 -0.4691
  187MOL0     H25799   6.192   6.532  11.324  4.1037  0.4761  0.1209
  187MOL0     H25800   5.991   6.513  11.503 -2.9630 -1.5124 -0.0345
  187MOL0     H25801   6.081   6.381  11.568  1.3490 -1.7224 -0.7808
  187MOL0     H25802   5.938   6.227  11.194  0.1291  3.2760 -2.0819
  187MOL0     H25803   6.684   6.589  11.551  3.6892 -1.8602  0.6642
  187MOL0     H25804   7.002   6.634  11.489 -0.9405  0.9115 -2.6868
  187MOL0     H25805   6.953   6.775  11.591 -1.9534  1.6912 -0.9778
  187MOL0     H25806   6.882   6.611  11.613 -0.3732  1.9001  0.2707
  188MOL0     O25807   3.206   4.682   4.391  0.2973  0.1447 -0.0675
  188MOL0     C25808   3.186   4.719   4.507  0.3241 -0.0732 -1.0347
  188MOL0     O25809   3.087   4.661   4.590 -0.2546  0.2802  0.7480
  188MOL0     C25810   2.996   4.575   4.539 -0.8944  0.1695  0.2414
  188MOL0     C25811   2.955   4.467   4.618 -0.4983 -0.4033  0.5033
  188MOL0     C25812   2.848   4.384   4.577  0.4429  0.3799 -0.5054
  188MOL0     C25813   2.781   4.411   4.465  0.0982  0.5031 -0.6625
  188MOL0     O25814   2.687   4.322   4.416  0.1495 -0.2803  0.3061
  188MOL0     C25815   2.643   4.321   4.279  0.4919  0.4328 -0.6063
  188MOL0     C25816   2.743   4.283   4.160  0.8171 -0.5408  0.3459
  188MOL0     C25817   2.673   4.230   4.033  0.3069 -0.2661 -0.2954
  188MOL0     C25818   2.773   4.237   3.921  0.6949  0.0624  0.2063
  188MOL0     C25819   2.713   4.178   3.796 -0.4363  0.2639  0.6315
  188MOL0     C25820   2.808   4.176   3.679 -0.6484  0.0560  0.5189
  188MOL0     C25821   2.737   4.128   3.553 -0.3200  0.0686 -0.9994
  188MOL0     C25822   2.831   4.121   3.428  0.1852 -0.5237  0.6380
  188MOL0     N25823   2.891   4.247   3.400  0.1831  0.1403 -0.1647
  188MOL0     C25824   3.009   4.298   3.459  0.7363  0.0632  0.0178
  188MOL0     C25825   3.067   4.360   3.351 -0.3895  0.0205  0.2900
  188MOL0     C25826   3.191   4.432   3.339 -0.8776  0.4820 -0.2091
  188MOL0     C25827   3.222   4.510   3.464 -0.2771 -0.3238  0.7252
  188MOL0     C25828   3.359   4.575   3.453 -0.4195  0.0476  0.8262
  188MOL0     C25829   3.403   4.649   3.576  0.1565 -0.3896 -0.4146
  188MOL0     O25830   3.537   4.692   3.564  0.3197  0.1187 -0.1654
  188MOL0     C25831   3.569   4.755   3.685 -0.7077  1.0132 -0.5184
  188MOL0     C25832   3.692   4.724   3.750  0.1316 -0.0073  0.0495
  188MOL0     C25833   3.741   4.797   3.863  0.4164  0.0809 -0.0778
  188MOL0     C25834   3.868   4.747   3.927 -0.2476  1.1489  0.1617
  188MOL0     C25835   3.657   4.896   3.920  0.2412 -0.1409 -0.3936
  188MOL0     C25836   3.697   4.980   4.036 -0.0628  0.1564 -0.0476
  188MOL0     O25837   3.762   4.911   4.134 -0.7223 -0.6948  0.2170
  188MOL0     C25838   3.820   4.975   4.236  0.4735 -0.0981 -0.3656
  188MOL0     C25839   3.957   4.989   4.223  0.0646 -0.3923 -0.7898
  188MOL0     C25840   4.027   5.040   4.331 -0.2296 -0.8210 -0.4255
  188MOL0     C25841   3.967   5.092   4.447  0.1495 -0.5919  0.1949
  188MOL0     O25842   4.024   5.151   4.553 -0.3422  0.3614  0.0932
  188MOL0     C25843   4.141   5.226   4.530 -0.0846  0.7108  0.3473
  188MOL0     C25844   4.272   5.161   4.568 -0.2550  0.1545 -0.1801
  188MOL0     C25845   4.389   5.228   4.503  0.0688 -0.5858 -0.2963
  188MOL0     C25846   4.517   5.224   4.587  0.2180  0.5830 -0.3258
  188MOL0     C25847   4.631   5.311   4.523 -0.2787  0.1878 -0.1802
  188MOL0     C25848   4.762   5.306   4.612  0.7859 -0.4174 -0.1641
  188MOL0     C25849   4.743   5.315   4.764  0.8841 -0.4690 -0.0226
  188MOL0     C25850   4.872   5.334   4.832  0.0076 -0.5457  0.5410
  188MOL0    Cl25851   4.944   5.173   4.840 -0.1590  0.3125 -0.1851
  188MOL0     C25852   3.826   5.072   4.459  0.7217 -0.0704  0.1361
  188MOL0     C25853   3.755   5.019   4.358  0.2191  0.4804  1.0054
  188MOL0     O25854   3.688   5.105   4.028  0.2663 -0.3377 -0.3821
  188MOL0     C25855   3.541   4.932   3.851  0.4169 -0.4508  0.3257
  188MOL0     C25856   3.497   4.857   3.740 -0.2763 -0.3392 -0.2829
  188MOL0     N25857   2.981   4.356   3.243 -0.0191 -0.6891 -0.6740
  188MOL0     N25858   2.879   4.295   3.271 -0.4128 -0.0727 -0.4281
  188MOL0     C25859   2.808   4.529   4.393  1.0411 -0.5401  0.1232
  188MOL0     C25860   2.921   4.606   4.423  0.1019 -0.2957  0.2640
  188MOL0     C25861   3.274   4.827   4.572  0.6084 -0.5168  0.3132
  188MOL0     C25862   3.267   4.825   4.720 -0.1625  0.4772  0.8390
  188MOL0     C25863   3.332   4.922   4.786  0.3742  0.3230 -0.0754
  188MOL0     C25864   3.419   5.011   4.719  0.5740 -0.5779 -0.4333
  188MOL0     O25865   3.499   5.106   4.779  0.1976 -0.1648 -0.7156
  188MOL0     C25866   3.617   5.047   4.846  0.9502  0.0182  0.4241
  188MOL0     C25867   3.595   4.962   4.976 -0.7716 -0.6324  0.5988
  188MOL0     C25868   3.710   4.941   5.058  0.2300  0.7182  0.4496
  188MOL0     C25869   3.811   4.844   5.002  0.1937  0.1260  0.5490
  188MOL0     C25870   3.904   4.911   4.918 -0.1538 -0.1678  0.2307
  188MOL0     C25871   3.980   4.967   4.844  0.1251 -0.9122 -0.7244
  188MOL0     C25872   3.429   5.003   4.581  0.1629 -0.3963 -0.1002
  188MOL0     C25873   3.354   4.921   4.500  0.2641 -0.3786  0.4976
  188MOL0     C25874   3.369   4.924   4.353 -0.7281  0.5510 -0.8422
  188MOL0     H25875   3.011   4.448   4.709 -1.2843  1.1260  1.3515
  188MOL0     H25876   2.829   4.302   4.646  1.7452 -0.1367 -0.7309
  188MOL0     H25877   2.610   4.421   4.247 -2.3178 -1.2741 -3.5811
  188MOL0     H25878   2.564   4.246   4.291  1.1263 -0.1077  0.3217
  188MOL0     H25879   2.801   4.372   4.134  0.3166  0.1632  1.5745
  188MOL0     H25880   2.808   4.204   4.199  0.5761 -0.6686  0.4889
  188MOL0     H25881   2.636   4.127   4.044 -0.4352  0.2202  2.3293
  188MOL0     H25882   2.586   4.288   4.002  1.7695  1.9277 -0.4805
  188MOL0     H25883   2.777   4.346   3.910 -1.3572  0.4108  2.0644
  188MOL0     H25884   2.870   4.195   3.947  0.3044 -0.6951  0.4721
  188MOL0     H25885   2.629   4.240   3.763 -0.4313  0.5051  1.0609
  188MOL0     H25886   2.670   4.079   3.813 -1.0333  0.6437  1.3923
  188MOL0     H25887   2.848   4.272   3.644  0.0539 -0.3349  0.2275
  188MOL0     H25888   2.876   4.098   3.713 -3.4576 -1.8321  2.2441
  188MOL0     H25889   2.651   4.192   3.533 -0.1867  0.3369 -0.7235
  188MOL0     H25890   2.698   4.028   3.571 -0.0895  0.3659  1.5343
  188MOL0     H25891   2.912   4.049   3.444 -0.6186 -2.2543 -2.2332
  188MOL0     H25892   2.776   4.089   3.339  1.5145 -2.6211  0.4993
  188MOL0     H25893   3.052   4.274   3.555 -0.3925  3.0326  1.3648
  188MOL0     H25894   3.197   4.488   3.245 -1.1226  1.7930  0.5300
  188MOL0     H25895   3.271   4.358   3.339 -1.4762 -0.2915  2.6668
  188MOL0     H25896   3.148   4.591   3.463  2.0944  2.0475 -2.5418
  188MOL0     H25897   3.216   4.458   3.560  1.0194 -0.0177  0.9869
  188MOL0     H25898   3.435   4.499   3.432 -0.3950  0.7788 -2.1656
  188MOL0     H25899   3.366   4.636   3.363  1.7789 -0.4699  0.5860
  188MOL0     H25900   3.340   4.738   3.586 -1.5324 -1.5435 -0.3996
  188MOL0     H25901   3.381   4.587   3.663 -4.3755  2.3024  0.7088
  188MOL0     H25902   3.764   4.660   3.701  1.9426  0.5796  1.7626
  188MOL0     H25903   3.920   4.673   3.866 -2.0182  2.6514 -3.4510
  188MOL0     H25904   3.850   4.695   4.022  0.0758 -5.6275 -2.8922
  188MOL0     H25905   3.930   4.834   3.951 -0.7156  1.5006  0.1175
  188MOL0     H25906   4.014   4.957   4.136  1.7573 -2.8605  1.1012
  188MOL0     H25907   4.133   5.039   4.312 -0.0975 -1.0974  0.2852
  188MOL0     H25908   4.148   5.259   4.426 -1.0836  0.8607  0.3177
  188MOL0     H25909   4.134   5.319   4.587  0.3630 -0.3861  2.3074
  188MOL0     H25910   4.286   5.135   4.674  3.1649  0.3296 -0.4824
  188MOL0     H25911   4.259   5.061   4.525 -1.3063  0.2529 -0.1033
  188MOL0     H25912   4.362   5.333   4.485 -2.7013 -1.0400  0.6536
  188MOL0     H25913   4.409   5.175   4.410  2.6278 -0.9944  0.4070
  188MOL0     H25914   4.547   5.119   4.587 -0.2924  0.4244  0.7635
  188MOL0     H25915   4.492   5.256   4.689 -3.5023 -2.6098  0.0381
  188MOL0     H25916   4.649   5.285   4.418 -2.6774 -0.3297 -0.5215
  188MOL0     H25917   4.605   5.417   4.529  1.5055  0.6868 -0.5297
  188MOL0     H25918   4.806   5.401   4.580  3.2659 -0.5418  2.4462
  188MOL0     H25919   4.828   5.219   4.598  0.9510 -0.5206  1.0959
  188MOL0     H25920   4.692   5.234   4.816 -0.3406 -0.2046 -0.7891
  188MOL0     H25921   4.697   5.410   4.795  3.2739  0.5982  0.5332
  188MOL0     H25922   4.868   5.371   4.935 -1.7334 -2.2749  1.1671
  188MOL0     H25923   4.943   5.395   4.777 -0.6059  0.6247  1.0067
  188MOL0     H25924   3.771   5.105   4.547 -2.0640  0.2361 -1.6055
  188MOL0     H25925   3.658   4.985   4.395  1.2086 -2.0114  1.4928
  188MOL0     H25926   3.484   5.015   3.891 -2.5775 -2.0847 -0.2431
  188MOL0     H25927   3.414   4.894   3.680  2.0377 -0.5383 -3.9639
  188MOL0     H25928   2.741   4.562   4.314  1.0458  1.4029  0.8963
  188MOL0     H25929   2.932   4.699   4.369 -0.3012  0.7753  1.9502
  188MOL0     H25930   3.204   4.749   4.765 -1.5036 -0.1261 -1.8346
  188MOL0     H25931   3.318   4.929   4.893  2.6815 -1.2016  0.3775
  188MOL0     H25932   3.666   4.977   4.778  0.8063  0.3202  0.0057
  188MOL0     H25933   3.690   5.128   4.850  2.0925 -0.9128 -0.6948
  188MOL0     H25934   3.549   4.864   4.960 -0.4821 -0.7198  0.2984
  188MOL0     H25935   3.524   5.022   5.033 -1.9296 -1.0559 -0.3627
  188MOL0     H25936   3.742   5.034   5.106  0.1306  0.9351  0.1055
  188MOL0     H25937   3.668   4.881   5.139  0.5650 -0.4125 -0.1945
  188MOL0     H25938   3.752   4.777   4.939  0.7445  2.3384 -2.5640
  188MOL0     H25939   3.868   4.800   5.083  0.1993  0.0845  0.5222
  188MOL0     H25940   4.049   5.025   4.786  0.2331 -0.8827 -0.5650
  188MOL0     H25941   3.494   5.075   4.533 -0.7105  1.3261  1.1771
  188MOL0     H25942   3.433   5.011   4.336  2.6461 -0.5181  4.0821
  188MOL0     H25943   3.427   4.835   4.325 -1.5566 -0.4825  0.5753
  188MOL0     H25944   3.269   4.926   4.311 -1.6252 -0.2132  1.1142
  189MOL0     O25945   9.397   1.932   9.635 -0.0956  0.2124  0.0376
  189MOL0     C25946   9.414   1.918   9.515 -0.6508  0.1869  0.2356
  189MOL0     O25947   9.386   1.803   9.440 -0.2996  0.5619  0.1942
  189MOL0     C25948   9.337   1.695   9.510  0.5219 -0.4366  0.6898
  189MOL0     C25949   9.205   1.692   9.550 -0.4320  0.0426  0.3559
  189MOL0     C25950   9.161   1.586   9.627 -0.9509  0.4470  0.3393
  189MOL0     C25951   9.243   1.473   9.652  0.3090 -0.7803 -0.1374
  189MOL0     O25952   9.213   1.366   9.722 -0.0708  0.4935  0.1043
  189MOL0     C25953   9.105   1.380   9.819 -0.6573  0.2852 -0.0136
  189MOL0     C25954   9.080   1.254   9.900  0.0605  0.5311  0.4390
  189MOL0     C25955   9.205   1.199   9.947  0.5992  0.1166 -0.2242
  189MOL0     C25956   9.175   1.089  10.053 -0.0069 -0.0160 -0.5512
  189MOL0     C25957   9.300   1.044  10.136 -0.9261  0.2859  0.6602
  189MOL0     C25958   9.238   0.942  10.234 -0.8518 -0.5760  0.4820
  189MOL0     C25959   9.353   0.875  10.313 -0.3705 -0.8836  0.5151
  189MOL0     C25960   9.298   0.791  10.420 -0.1908  0.2376  0.4778
  189MOL0     N25961   9.427   0.746  10.486  0.3707 -0.0365  0.3961
  189MOL0     C25962   9.489   0.816  10.583 -0.6916 -0.0490 -0.2082
  189MOL0     C25963   9.580   0.721  10.616 -0.2991  1.5256  0.2397
  189MOL0     C25964   9.693   0.740  10.709  0.3588  1.3935 -0.6805
  189MOL0     C25965   9.823   0.756  10.630  0.5259 -0.6759  0.4978
  189MOL0     C25966   9.940   0.826  10.695 -0.5817 -0.8048 -0.5786
  189MOL0     C25967  10.011   0.749  10.804  0.2202  0.8471  1.4970
  189MOL0     O25968   9.941   0.788  10.923  0.9067  0.7833 -0.1140
  189MOL0     C25969   9.982   0.724  11.039  0.8081  0.3567 -0.5901
  189MOL0     C25970  10.059   0.608  11.045 -0.3351 -0.0731 -0.5762
  189MOL0     C25971  10.065   0.519  11.159  0.1075  0.0810  0.1456
  189MOL0     C25972  10.124   0.381  11.149 -0.4185 -0.5072  0.1844
  189MOL0     C25973   9.994   0.563  11.275 -0.1225 -0.3858 -1.1887
  189MOL0     C25974   9.982   0.487  11.402 -0.6753  0.7583 -0.7107
  189MOL0     O25975   9.903   0.542  11.503 -0.4241  0.7728  0.3919
  189MOL0     C25976   9.883   0.496  11.631  0.4835  0.7334 -0.4711
  189MOL0     C25977   9.824   0.590  11.718  0.2481 -0.4459 -0.4631
  189MOL0     C25978   9.805   0.564  11.847 -0.7303 -0.1777 -0.7365
  189MOL0     C25979   9.855   0.448  11.902 -0.0640  0.3012 -0.0241
  189MOL0     O25980   9.825   0.408  12.031 -0.7146 -1.0514  0.5635
  189MOL0     C25981   9.882   0.494  12.135 -0.0083  0.3493  0.3811
  189MOL0     C25982   9.905   0.409  12.263 -0.3835  0.2374 -0.9899
  189MOL0     C25983   9.777   0.341  12.322 -1.1392 -0.0951  0.3063
  189MOL0     C25984   9.662   0.431  12.324  0.1820 -0.9762 -0.4450
  189MOL0     C25985   9.557   0.409  12.442  0.2617 -0.2862 -0.9153
  189MOL0     C25986   9.444   0.307  12.412  1.4822  0.3898  0.5324
  189MOL0     C25987   9.496   0.159  12.406 -0.0345 -0.3736 -0.4908
  189MOL0     C25988   9.390   0.057  12.455  0.1863  0.0410 -0.7571
  189MOL0    Cl25989   9.344   0.072  12.629 -0.0543  0.2780 -0.0276
  189MOL0     C25990   9.905   0.350  11.815  0.5328 -0.4742  0.9552
  189MOL0     C25991   9.922   0.370  11.676 -0.5902  0.1194 -0.0900
  189MOL0     O25992  10.056   0.388  11.425 -0.1689  0.1823  0.7589
  189MOL0     C25993   9.918   0.686  11.267  0.1871  0.0635  0.3074
  189MOL0     C25994   9.911   0.761  11.152 -0.2230  0.7313 -0.2568
  189MOL0     N25995   9.572   0.616  10.541 -0.5996 -0.0811  0.0669
  189MOL0     N25996   9.476   0.623  10.457  0.2108  0.2188  0.2733
  189MOL0     C25997   9.376   1.483   9.621 -0.9639  0.1491 -0.0823
  189MOL0     C25998   9.421   1.596   9.552 -0.4991  0.4748  0.5236
  189MOL0     C25999   9.463   2.046   9.458  0.8135 -0.0681  0.9417
  189MOL0     C26000   9.406   2.168   9.491  1.0528 -0.3125 -0.2113
  189MOL0     C26001   9.460   2.291   9.443 -0.1498  0.4766 -0.8524
  189MOL0     C26002   9.557   2.292   9.347 -0.1960  0.7710 -0.1951
  189MOL0     O26003   9.608   2.414   9.307  0.0613 -0.0391 -0.0495
  189MOL0     C26004   9.676   2.436   9.177  0.2066  1.0690 -0.0523
  189MOL0     C26005   9.707   2.580   9.139  0.5088  0.4140 -0.8029
  189MOL0     C26006   9.585   2.660   9.179  0.1007 -0.4775 -0.0805
  189MOL0     C26007   9.591   2.809   9.146  0.4102 -0.4428  0.0250
  189MOL0     C26008   9.467   2.874   9.188 -0.1385 -0.2274  0.1541
  189MOL0     C26009   9.377   2.932   9.232  0.0105  1.1922  0.9701
  189MOL0     C26010   9.606   2.164   9.305  0.1951  0.0058 -0.3713
  189MOL0     C26011   9.561   2.045   9.365  0.0156 -0.1523 -0.3159
  189MOL0     C26012   9.628   1.914   9.316 -0.1473 -0.9335 -0.2472
  189MOL0     H26013   9.137   1.774   9.527  2.8939  2.8920 -0.1871
  189MOL0     H26014   9.055   1.592   9.652 -1.3868  0.0281 -1.3096
  189MOL0     H26015   9.012   1.415   9.772  1.7208  4.7318 -2.0256
  189MOL0     H26016   9.126   1.461   9.891 -2.5011  0.9294 -0.1227
  189MOL0     H26017   9.015   1.279   9.985 -1.1389 -1.9805  0.3547
  189MOL0     H26018   9.021   1.188   9.835 -1.5128  1.4080  0.9271
  189MOL0     H26019   9.262   1.145   9.871  1.1672 -2.1164  1.6947
  189MOL0     H26020   9.262   1.282   9.990 -1.4283 -0.4497  3.9985
  189MOL0     H26021   9.097   1.126  10.120 -0.5275 -1.1512 -0.5056
  189MOL0     H26022   9.131   1.004  10.000 -0.2255 -0.7709  0.8111
  189MOL0     H26023   9.348   1.122  10.196 -2.6571  1.0763  1.0762
  189MOL0     H26024   9.366   0.998  10.062  1.4929  2.4338  1.3325
  189MOL0     H26025   9.176   1.007  10.296  1.7034  1.1012  1.4283
  189MOL0     H26026   9.170   0.876  10.178  0.2396  1.2744 -3.3521
  189MOL0     H26027   9.422   0.949  10.355 -0.5913  0.5637 -1.5291
  189MOL0     H26028   9.413   0.808  10.251  0.6524  1.8700 -1.6781
  189MOL0     H26029   9.239   0.843  10.496  0.1764  0.4285  0.6351
  189MOL0     H26030   9.228   0.717  10.383 -2.0990  0.6251  3.0823
  189MOL0     H26031   9.486   0.920  10.611 -0.3437  0.3597 -1.5987
  189MOL0     H26032   9.698   0.659  10.782  3.4035  3.1719  1.2996
  189MOL0     H26033   9.679   0.832  10.767 -1.6138 -0.1712  1.5088
  189MOL0     H26034   9.868   0.658  10.609 -1.4608 -1.1055 -2.2713
  189MOL0     H26035   9.796   0.803  10.536 -1.9755 -1.6522  0.6608
  189MOL0     H26036  10.021   0.836  10.623 -2.1044  0.1382 -2.2379
  189MOL0     H26037   9.904   0.924  10.729 -1.5768 -0.3634 -2.7336
  189MOL0     H26038  10.001   0.646  10.770  0.5201  1.0924  0.6421
  189MOL0     H26039  10.117   0.773  10.813  0.5723 -0.6351  1.5167
  189MOL0     H26040  10.107   0.573  10.954  0.1800  1.7697 -1.0560
  189MOL0     H26041  10.037   0.314  11.153 -0.6179 -0.1983  2.3814
  189MOL0     H26042  10.191   0.369  11.234 -1.9677 -1.1355  1.3722
  189MOL0     H26043  10.181   0.372  11.056 -0.9009  0.9816 -0.2870
  189MOL0     H26044   9.796   0.687  11.676 -0.9437 -0.2374  0.7462
  189MOL0     H26045   9.756   0.629  11.919 -1.3159 -3.5012  2.1082
  189MOL0     H26046   9.981   0.523  12.100 -0.8764 -0.6905 -3.4189
  189MOL0     H26047   9.818   0.579  12.161 -1.0100 -1.1620  3.3589
  189MOL0     H26048   9.987   0.337  12.262  0.4492  0.9125  2.7055
  189MOL0     H26049   9.935   0.494  12.325  0.3619  0.1023 -1.1593
  189MOL0     H26050   9.802   0.322  12.427 -0.6816  3.2835  0.8991
  189MOL0     H26051   9.761   0.242  12.276  0.7391  0.0465 -0.8000
  189MOL0     H26052   9.612   0.425  12.227 -0.4546  0.2624 -0.2174
  189MOL0     H26053   9.686   0.537  12.325 -2.0520 -0.3598 -2.6143
  189MOL0     H26054   9.607   0.381  12.535 -2.2134  1.7289  1.1675
  189MOL0     H26055   9.516   0.506  12.469  1.3914 -0.4594  1.7631
  189MOL0     H26056   9.397   0.337  12.318 -0.5379 -1.7619  0.7688
  189MOL0     H26057   9.371   0.310  12.494  0.9450 -1.8110  0.1983
  189MOL0     H26058   9.577   0.149  12.479  0.3281  0.2871 -0.7972
  189MOL0     H26059   9.541   0.120  12.314  3.4013 -3.5538  2.2060
  189MOL0     H26060   9.424  -0.046  12.459 -0.9997 -0.3176  0.6775
  189MOL0     H26061   9.303   0.071  12.389  0.8798  0.2132 -1.6655
  189MOL0     H26062   9.922   0.254  11.863 -0.4260 -1.5451 -0.7324
  189MOL0     H26063   9.967   0.291  11.617 -4.1223  0.1706 -3.1668
  189MOL0     H26064   9.848   0.702  11.349 -1.7554 -1.1863 -1.0265
  189MOL0     H26065   9.851   0.851  11.161  1.5887  1.8285  1.8928
  189MOL0     H26066   9.444   1.407   9.659 -1.1321 -1.1984 -2.3076
  189MOL0     H26067   9.530   1.592   9.545 -0.5755 -0.4667 -0.3626
  189MOL0     H26068   9.320   2.167   9.556 -0.0614  1.4102 -1.5516
  189MOL0     H26069   9.412   2.386   9.467 -1.8382 -0.7120  0.7299
  189MOL0     H26070   9.770   2.380   9.173 -1.6160 -2.2918  0.7551
  189MOL0     H26071   9.615   2.399   9.094  3.4205 -0.2496 -2.0587
  189MOL0     H26072   9.723   2.588   9.031 -0.0207 -0.5014 -0.9563
  189MOL0     H26073   9.793   2.611   9.199 -1.4228  0.8836  1.9245
  189MOL0     H26074   9.498   2.612   9.133  0.8970 -0.4590 -1.6438
  189MOL0     H26075   9.559   2.654   9.285  1.7095  1.6950  0.5129
  189MOL0     H26076   9.612   2.824   9.040 -0.7597  0.0745 -0.1413
  189MOL0     H26077   9.674   2.845   9.208 -0.1134 -0.7845  0.9341
  189MOL0     H26078   9.296   2.979   9.284 -0.2396  1.1533  0.6250
  189MOL0     H26079   9.694   2.162   9.241 -0.3816 -0.9634 -1.1633
  189MOL0     H26080   9.588   1.892   9.217 -0.8003  0.7555 -0.3927
  189MOL0     H26081   9.738   1.916   9.308 -0.1791 -0.1722 -0.6222
  189MOL0     H26082   9.613   1.826   9.378  1.2180 -1.6923 -0.9347
  190MOL0     O26083   8.137   6.056   4.429  0.3093 -0.2965  0.4807
  190MOL0     C26084   8.085   6.148   4.358 -0.0613 -0.2967  0.0487
  190MOL0     O26085   8.154   6.241   4.291  0.2222  0.0301  0.3680
  190MOL0     C26086   8.295   6.231   4.297 -0.6385  0.8736 -0.0388
  190MOL0     C26087   8.381   6.279   4.396 -0.1196  0.3718  0.4019
  190MOL0     C26088   8.516   6.256   4.395  0.2804  0.4476 -0.1331
  190MOL0     C26089   8.576   6.189   4.289  0.5198  1.3059  0.5493
  190MOL0     O26090   8.707   6.161   4.303  0.4496 -0.1208 -0.1108
  190MOL0     C26091   8.782   6.112   4.191  0.1560  0.5045  0.3024
  190MOL0     C26092   8.921   6.121   4.260  0.4862 -0.3733 -0.0246
  190MOL0     C26093   9.034   6.084   4.167  0.4491 -0.5255  0.3972
  190MOL0     C26094   9.092   6.207   4.096  0.1227  0.2589 -0.3689
  190MOL0     C26095   9.219   6.181   4.021 -0.4392  1.2283 -1.0405
  190MOL0     C26096   9.231   6.282   3.911 -0.2922 -0.4571 -0.8956
  190MOL0     C26097   9.366   6.263   3.842  0.1226 -0.3143 -0.8034
  190MOL0     C26098   9.395   6.113   3.798 -1.0533 -0.4423  0.8993
  190MOL0     N26099   9.499   6.107   3.701 -0.1294  0.5452  0.1211
  190MOL0     C26100   9.633   6.146   3.716 -0.3654 -0.7325  0.7538
  190MOL0     C26101   9.685   6.107   3.596  0.7065 -0.1832 -0.7589
  190MOL0     C26102   9.829   6.101   3.558 -0.4145  0.5819 -0.6128
  190MOL0     C26103   9.923   6.121   3.669  0.2060 -1.1465  0.1258
  190MOL0     C26104  10.065   6.096   3.624  0.3371 -0.7596 -0.2440
  190MOL0     C26105  10.166   6.118   3.736 -0.8186  0.2978  0.3104
  190MOL0     O26106  10.194   5.998   3.821 -0.5794 -0.5278 -0.0018
  190MOL0     C26107  10.308   5.994   3.897  0.5093  1.0702  0.0888
  190MOL0     C26108  10.409   6.092   3.903 -0.4870  0.4739 -0.3769
  190MOL0     C26109  10.518   6.073   3.994  0.2154 -1.0132  0.4347
  190MOL0     C26110  10.630   6.177   3.991 -0.2912  0.0420 -0.3068
  190MOL0     C26111  10.525   5.964   4.085  0.5131 -0.0940  0.6696
  190MOL0     C26112  10.628   5.949   4.179 -0.0293 -0.8190 -0.5488
  190MOL0     O26113  10.588   5.894   4.295 -0.5307 -0.3348 -0.7204
  190MOL0     C26114  10.668   5.903   4.407 -0.3125 -0.9232 -0.0112
  190MOL0     C26115  10.649   6.002   4.509 -0.2183 -0.5031  1.0056
  190MOL0     C26116  10.725   6.007   4.626 -0.1985 -0.0189 -0.0525
  190MOL0     C26117  10.814   5.905   4.644  0.6275 -0.1481  0.1490
  190MOL0     O26118  10.892   5.892   4.758 -0.3171  0.9093 -0.2398
  190MOL0     C26119  10.830   5.948   4.879 -0.1968 -0.5664  0.6909
  190MOL0     C26120  10.880   5.878   5.008 -0.2634  0.6413 -0.0829
  190MOL0     C26121  10.773   5.878   5.119  0.6280  0.5433  0.3637
  190MOL0     C26122  10.744   6.014   5.186 -1.4631 -0.7382  0.4185
  190MOL0     C26123  10.671   5.993   5.316 -0.0744 -0.4801 -0.1181
  190MOL0     C26124  10.771   5.971   5.437  0.0947  0.1136  0.2264
  190MOL0     C26125  10.696   5.959   5.567  0.4434 -0.2123 -0.1640
  190MOL0     C26126  10.777   5.930   5.696  0.9775 -0.6231  0.2703
  190MOL0    Cl26127  10.835   5.754   5.726 -0.2138  0.1221  0.4033
  190MOL0     C26128  10.840   5.808   4.547 -0.5195  0.0421  0.0638
  190MOL0     C26129  10.765   5.806   4.430 -0.3415  0.5501  0.6918
  190MOL0     O26130  10.751   5.977   4.159  0.2156  0.2984  0.0001
  190MOL0     C26131  10.425   5.870   4.066 -0.2254 -0.1592 -0.0576
  190MOL0     C26132  10.318   5.887   3.987  0.4481 -0.4265  0.6450
  190MOL0     N26133   9.586   6.056   3.515  0.5327 -0.4473  0.4455
  190MOL0     N26134   9.472   6.066   3.574  0.0937  0.0160  0.2719
  190MOL0     C26135   8.488   6.150   4.183 -1.0626 -0.3100  0.3256
  190MOL0     C26136   8.351   6.180   4.185  0.2997  0.4509 -0.2988
  190MOL0     C26137   7.941   6.155   4.331 -0.1536 -0.4134 -0.6678
  190MOL0     C26138   7.897   6.247   4.235 -0.4641  0.0085  0.5422
  190MOL0     C26139   7.770   6.246   4.186  0.5167  0.0868  0.8013
  190MOL0     C26140   7.669   6.159   4.234  0.2934 -0.2138 -0.4415
  190MOL0     O26141   7.548   6.159   4.167  0.0067 -0.4028 -0.0204
  190MOL0     C26142   7.438   6.078   4.206  0.4266  0.1562 -0.1248
  190MOL0     C26143   7.356   6.130   4.325  1.3682  0.1710 -0.5755
  190MOL0     C26144   7.409   6.135   4.477 -0.2749 -0.3047  0.7388
  190MOL0     C26145   7.305   6.196   4.581 -0.8601 -0.1296  0.5373
  190MOL0     C26146   7.378   6.253   4.693 -0.2456 -0.4060 -0.6030
  190MOL0     C26147   7.461   6.281   4.779 -0.7715 -0.9564 -0.5411
  190MOL0     C26148   7.706   6.076   4.342 -1.2728 -1.0368 -0.4294
  190MOL0     C26149   7.838   6.076   4.395  0.1787 -0.4119 -0.1253
  190MOL0     C26150   7.868   5.972   4.500  0.1026 -0.6932 -0.3689
  190MOL0     H26151   8.333   6.317   4.486 -3.4530  1.4009 -1.6296
  190MOL0     H26152   8.585   6.287   4.473 -2.0615  0.0100  2.2611
  190MOL0     H26153   8.770   6.168   4.099  1.5791  0.6276  0.1687
  190MOL0     H26154   8.753   6.010   4.165  0.0142 -0.0142  2.3310
  190MOL0     H26155   8.944   6.221   4.296 -1.0701  0.1959 -0.5261
  190MOL0     H26156   8.920   6.046   4.340 -3.3303  2.5964  3.1632
  190MOL0     H26157   9.116   6.029   4.214  0.0024 -2.0645 -0.5384
  190MOL0     H26158   8.983   6.025   4.091  0.7389  0.1014 -0.2907
  190MOL0     H26159   9.008   6.239   4.033 -1.9049  0.1405  2.1085
  190MOL0     H26160   9.109   6.286   4.170  0.2498 -0.1372  0.0248
  190MOL0     H26161   9.223   6.079   3.984 -1.9303 -0.3456  2.6550
  190MOL0     H26162   9.299   6.198   4.094 -2.3135  1.7764  0.9913
  190MOL0     H26163   9.148   6.263   3.843  0.8249 -2.1525 -1.8733
  190MOL0     H26164   9.222   6.386   3.944  1.4146 -0.1790 -1.1806
  190MOL0     H26165   9.442   6.287   3.917  1.6014 -0.6965 -2.1300
  190MOL0     H26166   9.369   6.338   3.762 -0.8496  0.7125  0.0777
  190MOL0     H26167   9.419   6.045   3.880  3.6282  0.1527  0.2773
  190MOL0     H26168   9.304   6.077   3.749 -0.1717 -0.0545 -1.1224
  190MOL0     H26169   9.685   6.175   3.807 -0.9707 -2.2764  1.6187
  190MOL0     H26170   9.852   6.151   3.463  1.0595  0.3443 -0.3941
  190MOL0     H26171   9.846   5.996   3.530  3.5461  1.0149 -0.4110
  190MOL0     H26172   9.927   6.223   3.708  1.2939 -1.5460  1.1658
  190MOL0     H26173   9.892   6.042   3.739 -1.3762 -2.2414 -1.7272
  190MOL0     H26174  10.074   5.991   3.592  0.9852 -0.3008 -1.6767
  190MOL0     H26175  10.090   6.170   3.547  0.6449 -0.6292 -0.0198
  190MOL0     H26176  10.257   6.147   3.683 -1.8906  0.7731 -1.3224
  190MOL0     H26177  10.147   6.200   3.807 -1.3308  0.1714  0.3264
  190MOL0     H26178  10.407   6.177   3.834 -2.0273  1.2782  0.5951
  190MOL0     H26179  10.605   6.258   3.922  0.1994 -0.1925 -0.7672
  190MOL0     H26180  10.724   6.133   3.957  0.1574  0.1199  0.8197
  190MOL0     H26181  10.653   6.206   4.093  1.4183  1.0923 -0.9538
  190MOL0     H26182  10.585   6.086   4.484  0.4850  0.3673  2.0486
  190MOL0     H26183  10.717   6.083   4.704 -2.1691  0.8844 -1.0548
  190MOL0     H26184  10.843   6.057   4.875  1.0655 -0.7197  0.0490
  190MOL0     H26185  10.727   5.916   4.861  0.9370 -3.3832 -1.5546
  190MOL0     H26186  10.892   5.772   4.983  2.7435  1.8200 -5.0080
  190MOL0     H26187  10.974   5.915   5.052 -0.4228  0.6632  0.2415
  190MOL0     H26188  10.795   5.805   5.197 -1.8979 -0.0604  0.6214
  190MOL0     H26189  10.681   5.840   5.072  2.0890  0.2188 -2.4533
  190MOL0     H26190  10.672   6.071   5.127 -1.2627 -2.7876 -1.9831
  190MOL0     H26191  10.838   6.070   5.197  0.4466 -3.9237  1.6445
  190MOL0     H26192  10.607   6.081   5.330  2.0971  0.7145  3.5990
  190MOL0     H26193  10.611   5.902   5.305  0.7478 -1.0149 -0.2635
  190MOL0     H26194  10.827   6.063   5.453 -1.5653  0.9844  1.2712
  190MOL0     H26195  10.814   5.871   5.423 -3.1735 -1.3960 -0.0351
  190MOL0     H26196  10.616   5.889   5.545 -0.9112  1.0513  0.5586
  190MOL0     H26197  10.657   6.061   5.566  0.0264 -0.3255  1.4856
  190MOL0     H26198  10.722   5.964   5.784 -0.6915 -2.2968 -0.0618
  190MOL0     H26199  10.864   5.995   5.687  1.9351 -1.5172  2.2828
  190MOL0     H26200  10.920   5.736   4.561 -0.9135 -0.3205  0.4965
  190MOL0     H26201  10.769   5.727   4.356 -2.6676  1.4893 -0.5170
  190MOL0     H26202  10.427   5.788   4.138 -0.0974  0.7554  1.0206
  190MOL0     H26203  10.232   5.821   3.994 -1.9049  2.4954  1.3089
  190MOL0     H26204   8.520   6.104   4.090 -0.5707  1.1599 -0.2714
  190MOL0     H26205   8.289   6.153   4.101  0.8598  2.5368 -1.4542
  190MOL0     H26206   7.957   6.328   4.197 -0.9510 -0.0816 -0.4401
  190MOL0     H26207   7.736   6.320   4.115 -5.2420  0.5151  3.3885
  190MOL0     H26208   7.371   6.056   4.123  0.9329 -2.1749  0.0271
  190MOL0     H26209   7.472   5.976   4.224 -0.2051 -0.1946 -0.8760
  190MOL0     H26210   7.275   6.057   4.321  0.7806  0.8341 -0.9297
  190MOL0     H26211   7.315   6.231   4.317 -1.4178 -0.5229  2.4436
  190MOL0     H26212   7.453   6.041   4.511 -1.6511 -0.7558  1.3265
  190MOL0     H26213   7.492   6.205   4.469  0.0211 -0.7914 -0.9199
  190MOL0     H26214   7.235   6.123   4.621 -1.6279 -0.4846 -1.3178
  190MOL0     H26215   7.246   6.265   4.520  1.0327  1.3725  0.3121
  190MOL0     H26216   7.530   6.310   4.856 -0.9946 -0.1843 -0.6254
  190MOL0     H26217   7.649   6.005   4.401  1.0393 -1.1612  1.8045
  190MOL0     H26218   7.915   6.026   4.584 -1.6797  0.8231 -0.2875
  190MOL0     H26219   7.777   5.928   4.541  1.4058 -2.4580  0.7722
  190MOL0     H26220   7.910   5.880   4.461 -3.4706 -2.5659 -0.1952
  191MOL0     O26221   8.154   0.590   2.531 -0.0542  0.1518  0.0366
  191MOL0     C26222   8.142   0.467   2.552 -0.1023 -1.1202  0.3109
  191MOL0     O26223   8.222   0.396   2.644 -0.3736 -0.7026 -0.8918
  191MOL0     C26224   8.278   0.487   2.730 -0.3927  0.0838 -0.9381
  191MOL0     C26225   8.419   0.523   2.710  0.5015 -0.6004  0.1304
  191MOL0     C26226   8.471   0.619   2.798 -0.5321  0.9160 -0.0848
  191MOL0     C26227   8.410   0.667   2.908 -0.5232  0.6960  0.5375
  191MOL0     O26228   8.470   0.759   2.992  0.0056 -0.1251  0.2428
  191MOL0     C26229   8.615   0.737   3.008  0.2170 -0.0087 -0.0023
  191MOL0     C26230   8.649   0.823   3.127  0.5134 -0.0331  0.1154
  191MOL0     C26231   8.793   0.849   3.126  0.8553 -0.5263 -0.4479
  191MOL0     C26232   8.835   0.949   3.231 -0.2401 -0.1781  0.4582
  191MOL0     C26233   8.990   0.976   3.221  0.7289  0.2080  0.3585
  191MOL0     C26234   9.015   1.094   3.308 -0.3569 -0.1773 -0.1259
  191MOL0     C26235   9.156   1.132   3.310  0.1707 -0.2824  1.2386
  191MOL0     C26236   9.198   1.259   3.384 -0.5878 -0.0332 -0.5440
  191MOL0     N26237   9.324   1.319   3.345 -0.2421 -0.6016  0.1861
  191MOL0     C26238   9.351   1.386   3.228 -0.3090 -0.9261  0.2562
  191MOL0     C26239   9.477   1.419   3.229  0.4662 -0.1839  1.0289
  191MOL0     C26240   9.540   1.512   3.139 -0.2751 -0.4433  0.3123
  191MOL0     C26241   9.675   1.449   3.094 -0.8351 -0.1212 -0.2819
  191MOL0     C26242   9.734   1.527   2.978  0.0737  0.2893  0.1699
  191MOL0     C26243   9.872   1.469   2.936  0.1346  0.8049 -0.0283
  191MOL0     O26244   9.944   1.550   2.856  0.4640  0.3671  0.6469
  191MOL0     C26245  10.051   1.491   2.793 -0.0989 -0.2108  0.0794
  191MOL0     C26246  10.100   1.551   2.680  0.5833 -0.7462 -0.3951
  191MOL0     C26247  10.219   1.519   2.614  0.1581  0.1376 -0.4062
  191MOL0     C26248  10.276   1.611   2.511 -0.1147  0.1841  1.3653
  191MOL0     C26249  10.284   1.405   2.657  0.1399  0.8174 -0.3950
  191MOL0     C26250  10.418   1.358   2.598  0.5039 -0.6891 -1.1429
  191MOL0     O26251  10.509   1.303   2.683  0.0406 -0.3565  0.0212
  191MOL0     C26252  10.636   1.286   2.636  0.7438  0.1770  0.4124
  191MOL0     C26253  10.680   1.157   2.617 -0.7367 -0.1815  0.2888
  191MOL0     C26254  10.797   1.136   2.546 -0.0944  0.2480 -0.5818
  191MOL0     C26255  10.879   1.240   2.507 -0.7113 -0.4886 -0.2489
  191MOL0     O26256  10.992   1.227   2.428 -0.1366 -0.3964 -0.2466
  191MOL0     C26257  10.953   1.191   2.295  0.2612  0.5049 -0.1497
  191MOL0     C26258  11.081   1.173   2.219  0.8183  0.5277  0.4185
  191MOL0     C26259  11.065   1.100   2.077 -0.3354 -0.5269  0.0834
  191MOL0     C26260  11.188   1.110   2.000 -0.5389 -0.1629 -1.2282
  191MOL0     C26261  11.183   1.040   1.861 -0.6709  0.3916  1.0245
  191MOL0     C26262  11.296   1.062   1.762 -0.3233  0.6541 -0.4906
  191MOL0     C26263  11.308   1.211   1.710  0.4514  0.7183  0.0511
  191MOL0     C26264  11.443   1.226   1.632 -0.1469  0.3772  0.3265
  191MOL0    Cl26265  11.584   1.219   1.737  0.4035 -0.2914  0.3078
  191MOL0     C26266  10.837   1.371   2.539  0.3309  0.5779 -0.4860
  191MOL0     C26267  10.718   1.397   2.605  0.3740  0.0967  0.4036
  191MOL0     O26268  10.428   1.371   2.478  0.3774  0.0966  0.5292
  191MOL0     C26269  10.237   1.340   2.770 -0.7666 -0.2757  0.3205
  191MOL0     C26270  10.122   1.381   2.836  0.3927  0.3388 -0.2009
  191MOL0     N26271   9.535   1.372   3.343  0.0383  0.4782 -0.0493
  191MOL0     N26272   9.446   1.315   3.413 -0.2749  0.6781 -0.2108
  191MOL0     C26273   8.275   0.628   2.924 -0.5889  0.0708 -0.0480
  191MOL0     C26274   8.212   0.539   2.836  0.1894  0.8588  0.0877
  191MOL0     C26275   8.030   0.388   2.489 -0.4412 -0.6251 -0.8996
  191MOL0     C26276   8.047   0.245   2.492  0.4020 -0.3653 -0.1664
  191MOL0     C26277   7.972   0.154   2.407  0.7992 -0.1412 -0.0525
  191MOL0     C26278   7.856   0.207   2.344 -0.2807 -1.0011  1.0565
  191MOL0     O26279   7.774   0.144   2.250  0.3707 -0.3895  0.6004
  191MOL0     C26280   7.786  -0.001   2.235 -0.5874 -0.4777 -0.5508
  191MOL0     C26281   7.681  -0.047   2.137  0.6276 -0.2316 -0.0231
  191MOL0     C26282   7.545  -0.043   2.217 -0.2658  0.0971  0.5336
  191MOL0     C26283   7.443  -0.110   2.127 -1.1359 -0.1488 -0.5821
  191MOL0     C26284   7.305  -0.105   2.180  0.0698 -0.4465  0.4269
  191MOL0     C26285   7.191  -0.112   2.230  0.0593 -0.1692 -0.5398
  191MOL0     C26286   7.826   0.342   2.358 -0.2880 -0.0853  0.3045
  191MOL0     C26287   7.913   0.428   2.423 -0.3208  0.2354 -0.1969
  191MOL0     C26288   7.873   0.570   2.397 -0.1501 -0.0011  0.0495
  191MOL0     H26289   8.465   0.490   2.618  0.2294 -4.5128  1.2275
  191MOL0     H26290   8.572   0.647   2.771 -0.3330 -0.8443 -1.3437
  191MOL0     H26291   8.670   0.763   2.917 -1.7855 -2.8469 -2.2135
  191MOL0     H26292   8.634   0.631   3.024  2.0416  0.3571  0.5179
  191MOL0     H26293   8.586   0.913   3.122  0.2330 -0.2779 -2.3327
  191MOL0     H26294   8.643   0.769   3.222  2.4713 -0.7406 -0.1221
  191MOL0     H26295   8.841   0.752   3.137  0.4581 -0.5622  1.2512
  191MOL0     H26296   8.803   0.892   3.026 -1.1841 -2.8252 -1.7283
  191MOL0     H26297   8.774   1.040   3.226 -1.2893 -0.7495  2.0235
  191MOL0     H26298   8.808   0.903   3.327  0.3819 -1.9047 -0.1666
  191MOL0     H26299   9.028   1.001   3.122  3.5048  0.8913  1.4913
  191MOL0     H26300   9.048   0.885   3.237  3.3692  1.1935 -2.5441
  191MOL0     H26301   8.945   1.176   3.289 -0.4681  0.5155  2.7968
  191MOL0     H26302   8.983   1.066   3.409  2.7624  1.4346  1.4378
  191MOL0     H26303   9.170   1.151   3.203 -0.3198  0.3993  1.2926
  191MOL0     H26304   9.208   1.038   3.330  0.7535  0.0693  1.4066
  191MOL0     H26305   9.119   1.332   3.372 -1.2635 -0.7213 -0.3613
  191MOL0     H26306   9.205   1.237   3.491  1.4378  3.0622  0.1051
  191MOL0     H26307   9.276   1.423   3.159 -0.8826  1.2079  1.9058
  191MOL0     H26308   9.553   1.608   3.190  1.4209 -0.7014  0.4335
  191MOL0     H26309   9.474   1.536   3.055 -0.9869  2.2485  1.5335
  191MOL0     H26310   9.746   1.448   3.177 -0.4344  0.4864 -0.6147
  191MOL0     H26311   9.655   1.345   3.066 -3.8521  0.2208  0.2107
  191MOL0     H26312   9.674   1.520   2.887  4.5179  0.3993 -3.1423
  191MOL0     H26313   9.743   1.627   3.022 -2.1420  0.0234  1.3631
  191MOL0     H26314   9.922   1.449   3.031 -1.3947 -0.2070  0.6148
  191MOL0     H26315   9.858   1.365   2.907 -2.9804  0.7094  1.4250
  191MOL0     H26316  10.047   1.642   2.653 -0.7958 -0.7010  2.1340
  191MOL0     H26317  10.269   1.560   2.414  1.4665 -2.1481  2.3768
  191MOL0     H26318  10.378   1.639   2.539 -0.2202 -0.1384  2.0988
  191MOL0     H26319  10.216   1.702   2.515  0.7335  0.7453  1.5171
  191MOL0     H26320  10.622   1.072   2.651  1.3197 -2.3270 -1.2438
  191MOL0     H26321  10.820   1.031   2.529  1.3382  0.4542 -0.0632
  191MOL0     H26322  10.904   1.093   2.294 -0.5477  0.8662 -2.8590
  191MOL0     H26323  10.901   1.268   2.238  1.2033 -0.1501 -2.0026
  191MOL0     H26324  11.106   1.278   2.207 -0.8888  0.8010 -1.3206
  191MOL0     H26325  11.162   1.123   2.272  1.3170 -1.5215 -2.0306
  191MOL0     H26326  10.983   1.144   2.019 -0.3553 -1.1271 -0.3484
  191MOL0     H26327  11.034   1.000   2.110 -0.6476  0.0397  1.6054
  191MOL0     H26328  11.270   1.077   2.064 -0.1201  1.2431 -1.0095
  191MOL0     H26329  11.195   1.216   1.974 -2.1038 -0.0767 -1.4118
  191MOL0     H26330  11.158   0.934   1.877  0.4820 -0.2291 -0.9132
  191MOL0     H26331  11.097   1.070   1.799 -2.2649 -0.7835  2.5618
  191MOL0     H26332  11.281   0.989   1.682 -0.5543  0.2408 -0.0757
  191MOL0     H26333  11.384   1.029   1.819 -0.8349  0.7680  0.3871
  191MOL0     H26334  11.311   1.288   1.788 -0.2618  2.4545 -1.5586
  191MOL0     H26335  11.221   1.225   1.646  2.0664  2.8559 -1.8046
  191MOL0     H26336  11.446   1.317   1.571  0.5973  0.3663  0.3364
  191MOL0     H26337  11.437   1.139   1.566 -1.6810 -2.9479  4.3408
  191MOL0     H26338  10.902   1.444   2.492  1.2081 -1.9372 -3.5182
  191MOL0     H26339  10.697   1.503   2.616  0.4547  0.0282  1.2432
  191MOL0     H26340  10.271   1.239   2.793 -3.5429 -2.0550 -2.4011
  191MOL0     H26341  10.094   1.323   2.923  0.7422  0.5230  0.0331
  191MOL0     H26342   8.203   0.661   2.998 -1.8752  1.8806 -1.9732
  191MOL0     H26343   8.106   0.521   2.847 -0.3411  3.0384 -0.8104
  191MOL0     H26344   8.128   0.195   2.544 -0.0021 -0.4966  0.3373
  191MOL0     H26345   8.010   0.053   2.393  1.1210  0.2584 -2.5366
  191MOL0     H26346   7.886  -0.029   2.201 -0.8636 -1.3470 -0.6852
  191MOL0     H26347   7.776  -0.049   2.332 -1.3035  0.9367  0.1057
  191MOL0     H26348   7.712  -0.147   2.104 -0.3387 -0.2103 -1.0730
  191MOL0     H26349   7.679   0.017   2.048 -1.7574  0.3779  0.3938
  191MOL0     H26350   7.565  -0.102   2.307  1.7991  0.3372  0.2919
  191MOL0     H26351   7.509   0.056   2.246 -1.0323  0.5269 -1.6889
  191MOL0     H26352   7.477  -0.213   2.113 -0.9292 -0.0750 -0.6383
  191MOL0     H26353   7.426  -0.063   2.029  0.4869 -1.2064 -1.4263
  191MOL0     H26354   7.088  -0.130   2.255  0.2071  2.1225  2.2190
  191MOL0     H26355   7.737   0.376   2.305 -0.4158 -0.6322  0.1582
  191MOL0     H26356   7.768   0.586   2.425 -0.1940  2.3766 -1.2736
  191MOL0     H26357   7.922   0.638   2.467  1.8865 -1.2571 -0.0977
  191MOL0     H26358   7.896   0.595   2.293 -1.1917 -1.9386 -0.7058
  192MOL0     O26359  10.421   4.730   1.321 -0.8298  0.7000 -1.0198
  192MOL0     C26360  10.453   4.659   1.224  0.0801 -0.3711 -0.8396
  192MOL0     O26361  10.590   4.631   1.191  0.1920  0.3749  0.0956
  192MOL0     C26362  10.690   4.698   1.249 -0.4343  0.6934 -0.7178
  192MOL0     C26363  10.714   4.838   1.235 -0.1582  0.0496  0.0695
  192MOL0     C26364  10.832   4.900   1.280 -0.5613 -0.3161 -0.2354
  192MOL0     C26365  10.927   4.826   1.352  0.6170 -0.7629 -0.6625
  192MOL0     O26366  11.029   4.885   1.419  0.9298  0.7299  0.6106
  192MOL0     C26367  11.076   5.016   1.385 -0.2996 -0.1483  0.3080
  192MOL0     C26368  11.009   5.125   1.459 -0.1028  0.0517 -1.2432
  192MOL0     C26369  11.077   5.260   1.466 -0.2143 -0.5335 -0.0437
  192MOL0     C26370  11.207   5.279   1.552  1.1438  0.2674 -0.4164
  192MOL0     C26371  11.253   5.422   1.522 -0.6130 -0.4510  0.3107
  192MOL0     C26372  11.370   5.451   1.616 -0.5691 -0.7703  0.3321
  192MOL0     C26373  11.429   5.585   1.598  0.1072 -0.5292  0.5296
  192MOL0     C26374  11.540   5.624   1.691 -0.6670  0.5637 -0.0394
  192MOL0     N26375  11.627   5.720   1.627 -0.5292  0.0396  0.2503
  192MOL0     C26376  11.607   5.864   1.618 -0.7441  0.9133  0.8334
  192MOL0     C26377  11.711   5.907   1.543  0.4074 -0.2361 -0.3877
  192MOL0     C26378  11.727   6.046   1.496 -0.4929  0.5524 -0.4652
  192MOL0     C26379  11.843   6.103   1.576  0.3448 -0.3425 -0.0264
  192MOL0     C26380  11.831   6.255   1.602 -0.4129  0.2376 -0.2306
  192MOL0     C26381  11.817   6.333   1.471 -1.1433 -0.3892 -0.9838
  192MOL0     O26382  11.870   6.460   1.477  0.2286 -0.1337  0.2103
  192MOL0     C26383  12.004   6.468   1.469 -0.0804  0.2199 -0.3680
  192MOL0     C26384  12.050   6.596   1.466 -0.3309 -0.1134  0.5297
  192MOL0     C26385  12.192   6.629   1.463  0.7039  0.4330 -1.0287
  192MOL0     C26386  12.242   6.771   1.434  1.2759  0.1518  0.6130
  192MOL0     C26387  12.283   6.523   1.464  0.0983  0.7343 -0.6163
  192MOL0     C26388  12.432   6.537   1.472 -0.4653  0.4210 -0.3882
  192MOL0     O26389  12.481   6.655   1.527 -0.2395 -0.2248  0.7758
  192MOL0     C26390  12.604   6.644   1.593  0.0827 -0.7105  0.0250
  192MOL0     C26391  12.677   6.524   1.632  1.0453 -1.0753 -0.9407
  192MOL0     C26392  12.792   6.543   1.698  0.0885 -0.2198 -0.4455
  192MOL0     C26393  12.845   6.667   1.728 -0.5703 -0.0654  0.0661
  192MOL0     O26394  12.971   6.665   1.781 -0.4871 -0.6399  0.5165
  192MOL0     C26395  12.973   6.746   1.905 -0.5211 -0.3602  0.6221
  192MOL0     C26396  13.104   6.718   1.976  0.0607 -0.1045  0.7210
  192MOL0     C26397  13.220   6.772   1.887  0.1223 -0.4898 -0.5250
  192MOL0     C26398  13.345   6.724   1.954 -0.1779  0.8415  0.1262
  192MOL0     C26399  13.406   6.812   2.073 -0.4731  0.1041  0.1587
  192MOL0     C26400  13.445   6.954   2.027 -0.3341 -0.2781  0.0487
  192MOL0     C26401  13.534   6.948   1.889  0.3285  0.3886 -0.3265
  192MOL0     C26402  13.607   7.083   1.866  0.5098 -0.3063  0.0976
  192MOL0    Cl26403  13.509   7.228   1.861 -0.3297  0.0195  0.2094
  192MOL0     C26404  12.788   6.786   1.685 -0.3262 -0.6717 -0.1806
  192MOL0     C26405  12.669   6.772   1.619  0.5657  0.8103  1.3200
  192MOL0     O26406  12.493   6.455   1.408 -1.0304  0.0288 -0.8301
  192MOL0     C26407  12.233   6.388   1.483 -0.2782 -0.5070  0.3004
  192MOL0     C26408  12.097   6.363   1.481  0.2615  0.1572 -0.0608
  192MOL0     N26409  11.793   5.801   1.521  0.4759 -0.5592 -0.2486
  192MOL0     N26410  11.743   5.691   1.558  0.1840 -0.0142 -0.6713
  192MOL0     C26411  10.916   4.688   1.356  0.4491 -0.2229 -0.2554
  192MOL0     C26412  10.796   4.624   1.303 -0.4086 -0.1270 -0.0195
  192MOL0     C26413  10.344   4.612   1.137 -0.3247 -0.0094 -0.4322
  192MOL0     C26414  10.369   4.499   1.060 -0.4094 -0.0419  0.2380
  192MOL0     C26415  10.286   4.453   0.963  0.9360 -0.3646  0.2377
  192MOL0     C26416  10.159   4.518   0.945 -1.1972 -0.2005  0.0298
  192MOL0     O26417  10.060   4.477   0.860  0.3560  0.0141 -0.0334
  192MOL0     C26418  10.094   4.407   0.740 -0.0360  0.3112 -0.5177
  192MOL0     C26419   9.958   4.383   0.690 -0.5552  0.1724  0.1323
  192MOL0     C26420   9.871   4.291   0.778 -0.0035  1.3213 -0.1190
  192MOL0     C26421   9.752   4.232   0.707  0.4996 -0.2467  0.1094
  192MOL0     C26422   9.663   4.344   0.660  0.5087  0.3814  0.0309
  192MOL0     C26423   9.581   4.428   0.632 -0.2729 -0.0199 -0.2112
  192MOL0     C26424  10.129   4.624   1.027 -0.0144  0.2600 -0.2400
  192MOL0     C26425  10.228   4.682   1.110  0.0443 -0.5738 -0.6334
  192MOL0     C26426  10.202   4.822   1.171  0.1425 -0.2757  0.7508
  192MOL0     H26427  10.640   4.891   1.176 -0.7684 -2.7700 -1.8977
  192MOL0     H26428  10.835   5.007   1.263 -0.9627 -0.2287  0.2095
  192MOL0     H26429  11.075   5.032   1.276 -0.4052  2.9035  0.6668
  192MOL0     H26430  11.182   5.026   1.407 -0.5597  0.4849  1.3282
  192MOL0     H26431  10.911   5.131   1.412 -2.5030  0.6975  3.2774
  192MOL0     H26432  10.996   5.079   1.557  1.3924  0.3021 -0.8939
  192MOL0     H26433  11.115   5.291   1.368  2.0351  1.4474  1.3284
  192MOL0     H26434  11.001   5.327   1.505 -1.8667 -1.7075 -1.0989
  192MOL0     H26435  11.179   5.260   1.657 -1.4069  0.7647 -0.9379
  192MOL0     H26436  11.281   5.201   1.533  0.7186 -0.9791  2.4194
  192MOL0     H26437  11.169   5.492   1.532 -0.5189  0.2913 -2.9480
  192MOL0     H26438  11.284   5.436   1.418  1.1398 -1.8897  0.5952
  192MOL0     H26439  11.348   5.428   1.721  0.9924 -1.4170  0.5530
  192MOL0     H26440  11.446   5.373   1.603 -1.3950 -1.4724 -0.3817
  192MOL0     H26441  11.354   5.663   1.611 -0.7838 -1.2645 -0.0823
  192MOL0     H26442  11.457   5.595   1.492 -0.4722  3.3249  0.6100
  192MOL0     H26443  11.505   5.657   1.789 -0.3573  2.2755 -0.4830
  192MOL0     H26444  11.602   5.535   1.706  1.7786  2.0684 -0.6578
  192MOL0     H26445  11.524   5.928   1.647 -3.1520 -1.1621 -1.0538
  192MOL0     H26446  11.639   6.105   1.524  0.9125  4.0686 -2.6673
  192MOL0     H26447  11.752   6.067   1.391  2.4074  2.9243  0.5235
  192MOL0     H26448  11.861   6.048   1.669  1.8083 -0.2151 -0.2054
  192MOL0     H26449  11.928   6.084   1.510 -0.4221 -1.0248 -0.8369
  192MOL0     H26450  11.746   6.276   1.667  2.6034  1.1766  3.7862
  192MOL0     H26451  11.914   6.299   1.659 -1.5152  2.3342 -0.1482
  192MOL0     H26452  11.867   6.276   1.392  0.7569  0.3702 -0.3947
  192MOL0     H26453  11.711   6.337   1.444 -1.3517 -3.3491 -0.8985
  192MOL0     H26454  11.971   6.671   1.457  1.4101  1.6445 -1.2300
  192MOL0     H26455  12.254   6.815   1.533  0.5830  1.3875  0.1621
  192MOL0     H26456  12.165   6.822   1.376  1.1529  0.7112  1.2513
  192MOL0     H26457  12.334   6.780   1.375  1.0640 -0.7078  0.1245
  192MOL0     H26458  12.636   6.424   1.624  3.5341 -2.0685 -2.5216
  192MOL0     H26459  12.844   6.448   1.711  0.5866  0.2134  0.9183
  192MOL0     H26460  12.986   6.851   1.880  0.2211 -0.5540  0.1733
  192MOL0     H26461  12.890   6.719   1.971 -0.1878 -1.3641  0.6610
  192MOL0     H26462  13.100   6.759   2.077 -0.2308 -2.1524  1.5771
  192MOL0     H26463  13.106   6.609   1.984  1.0587 -0.5578 -3.3331
  192MOL0     H26464  13.222   6.881   1.895  2.8350 -0.5825  2.9114
  192MOL0     H26465  13.224   6.738   1.783  3.2025 -2.8063  0.1868
  192MOL0     H26466  13.422   6.710   1.878  3.5335 -0.3149  3.7130
  192MOL0     H26467  13.334   6.624   1.995 -0.8890  1.6864  2.1187
  192MOL0     H26468  13.335   6.820   2.156 -1.3644  2.1298 -0.7396
  192MOL0     H26469  13.498   6.760   2.103 -0.5699 -0.0515  0.1873
  192MOL0     H26470  13.501   7.016   2.097 -1.9683  0.6279  0.5909
  192MOL0     H26471  13.355   7.010   2.002  0.8147  1.8602  0.4887
  192MOL0     H26472  13.481   6.906   1.803  1.9767 -1.1665 -0.6563
  192MOL0     H26473  13.612   6.873   1.905 -0.6515 -0.3222  1.3035
  192MOL0     H26474  13.650   7.086   1.765 -0.9657 -0.2519 -0.5617
  192MOL0     H26475  13.681   7.094   1.946  1.6514 -1.5750 -0.7288
  192MOL0     H26476  12.854   6.871   1.695 -0.0878 -0.9192  0.4026
  192MOL0     H26477  12.629   6.859   1.568  0.1690 -0.6924 -1.0757
  192MOL0     H26478  12.299   6.302   1.487  0.8895  0.2089 -1.8232
  192MOL0     H26479  12.080   6.259   1.507  4.0852 -0.2970  1.1923
  192MOL0     H26480  11.002   4.633   1.391 -0.4754 -0.7540  1.2981
  192MOL0     H26481  10.806   4.516   1.315  1.3934  0.0674  0.5195
  192MOL0     H26482  10.452   4.433   1.081 -1.1295 -1.5620 -1.4419
  192MOL0     H26483  10.322   4.364   0.912  0.4283 -0.1404 -0.5344
  192MOL0     H26484  10.149   4.467   0.667  0.6852  1.9395  1.2705
  192MOL0     H26485  10.151   4.317   0.765  0.4212  1.5820  3.7901
  192MOL0     H26486   9.971   4.341   0.590  3.6993  2.0556 -0.3196
  192MOL0     H26487   9.919   4.485   0.683  0.6460  0.5748 -1.0226
  192MOL0     H26488   9.933   4.211   0.819  2.2577  2.7159 -0.6244
  192MOL0     H26489   9.835   4.349   0.864 -0.5629  0.1849  0.4364
  192MOL0     H26490   9.697   4.157   0.764  1.3891 -0.7609  0.3182
  192MOL0     H26491   9.786   4.187   0.613  0.0402  3.3357 -1.9728
  192MOL0     H26492   9.495   4.491   0.623 -1.3659 -1.7244 -2.7759
  192MOL0     H26493  10.044   4.687   1.003 -0.1989 -0.6118 -2.0781
  192MOL0     H26494  10.115   4.867   1.122 -0.0670  0.2647  1.5943
  192MOL0     H26495  10.175   4.815   1.277  1.8011  1.8370  1.3798
  192MOL0     H26496  10.285   4.893   1.171 -1.2250  1.3978  2.0802
  193MOL0     O26497   8.652   3.753   8.314  0.4465 -0.0430 -0.0964
  193MOL0     C26498   8.683   3.845   8.238  0.0661  0.5685  0.7104
  193MOL0     O26499   8.804   3.848   8.161 -0.0566  0.3595 -0.2412
  193MOL0     C26500   8.883   3.731   8.158  0.8657  0.2897  0.2275
  193MOL0     C26501   8.936   3.669   8.270 -0.5936 -0.2924  0.3103
  193MOL0     C26502   9.014   3.552   8.257  0.2103 -0.0058  0.3119
  193MOL0     C26503   9.049   3.509   8.131  0.8561 -0.9759  0.3469
  193MOL0     O26504   9.121   3.393   8.111  0.8497  0.3854 -0.3698
  193MOL0     C26505   9.064   3.270   8.161  0.3380  0.5012  0.4057
  193MOL0     C26506   9.141   3.151   8.113 -0.3022  0.8416  0.3296
  193MOL0     C26507   9.070   3.022   8.156 -0.6398 -0.7206 -0.0070
  193MOL0     C26508   9.152   2.892   8.154 -0.1174  0.0174  0.2138
  193MOL0     C26509   9.145   2.791   8.045 -0.2385 -0.2241  0.2364
  193MOL0     C26510   9.242   2.677   8.065  0.8748  0.2621  0.1299
  193MOL0     C26511   9.377   2.727   8.021 -0.5706  0.2830  0.3338
  193MOL0     C26512   9.450   2.630   7.922 -1.0720 -0.1445 -0.5426
  193MOL0     N26513   9.585   2.674   7.872 -0.5905  0.7775  0.0221
  193MOL0     C26514   9.700   2.615   7.910  0.6043 -0.5843 -0.5187
  193MOL0     C26515   9.794   2.685   7.847 -1.0433 -0.3116  0.2951
  193MOL0     C26516   9.945   2.654   7.847  0.4341  0.3166  0.3726
  193MOL0     C26517  10.013   2.659   7.981 -0.0684 -0.6830  0.6833
  193MOL0     C26518  10.162   2.636   7.957 -0.6215  0.3289  0.6114
  193MOL0     C26519  10.232   2.624   8.091 -0.3587  0.2290  0.4466
  193MOL0     O26520  10.218   2.748   8.166 -0.1974  0.4338  1.0168
  193MOL0     C26521  10.281   2.751   8.286 -0.7368 -0.6520 -0.4495
  193MOL0     C26522  10.236   2.845   8.373 -0.3336  0.4309 -0.1198
  193MOL0     C26523  10.273   2.848   8.504  0.0299  0.7019 -0.7276
  193MOL0     C26524  10.191   2.932   8.598 -0.5978  0.1905 -0.2047
  193MOL0     C26525  10.367   2.751   8.543 -0.4336  0.1858 -0.3508
  193MOL0     C26526  10.406   2.724   8.681 -0.2621 -0.1673 -0.9007
  193MOL0     O26527  10.375   2.605   8.726 -0.6759  0.3242 -0.2745
  193MOL0     C26528  10.444   2.531   8.813 -0.5601 -0.5523  0.2085
  193MOL0     C26529  10.581   2.526   8.812 -0.7204 -0.6019  0.2498
  193MOL0     C26530  10.656   2.459   8.907 -0.0824 -0.8431 -0.7833
  193MOL0     C26531  10.593   2.394   9.015 -0.3855 -0.1430 -0.9317
  193MOL0     O26532  10.658   2.298   9.086  0.0968  0.0882 -0.3372
  193MOL0     C26533  10.799   2.328   9.128  0.0200  0.3052 -0.1146
  193MOL0     C26534  10.845   2.214   9.223  0.2394  0.3072  0.9795
  193MOL0     C26535  10.996   2.218   9.258 -0.5274  0.0167 -0.3181
  193MOL0     C26536  11.037   2.104   9.358 -0.1537 -0.2516  0.9998
  193MOL0     C26537  11.191   2.076   9.351  0.1712 -0.1995 -0.5004
  193MOL0     C26538  11.253   1.991   9.460 -0.0597  0.8333  0.2462
  193MOL0     C26539  11.394   1.959   9.432 -0.4815 -0.1483 -0.8216
  193MOL0     C26540  11.472   1.899   9.552 -0.2343 -0.5298 -0.5936
  193MOL0    Cl26541  11.426   1.731   9.599 -0.4865 -0.5197  0.3094
  193MOL0     C26542  10.452   2.399   9.022  0.2050  0.4765  0.4829
  193MOL0     C26543  10.376   2.459   8.913  0.3348 -0.3687  0.1401
  193MOL0     O26544  10.456   2.813   8.756  0.1544 -0.1152  0.2075
  193MOL0     C26545  10.426   2.664   8.451 -0.1293 -1.0581 -0.3501
  193MOL0     C26546  10.392   2.670   8.318  0.9169  0.0668 -0.3596
  193MOL0     N26547   9.735   2.770   7.761  0.3569  0.2554  0.5897
  193MOL0     N26548   9.606   2.776   7.792 -0.7499  1.1635 -0.1634
  193MOL0     C26549   9.011   3.586   8.014  0.0764 -0.3683 -0.1909
  193MOL0     C26550   8.928   3.696   8.033 -0.3513 -0.1426  0.1386
  193MOL0     C26551   8.610   3.970   8.229 -0.3508 -0.2431  1.0721
  193MOL0     C26552   8.576   4.025   8.104  0.4624 -0.2957 -1.3798
  193MOL0     C26553   8.498   4.145   8.092 -0.0626  0.0674  0.3650
  193MOL0     C26554   8.457   4.207   8.205 -0.4556 -0.7012 -0.7864
  193MOL0     O26555   8.387   4.321   8.179 -0.5012 -0.2846  0.1595
  193MOL0     C26556   8.333   4.399   8.294 -0.5218  0.0573  0.1864
  193MOL0     C26557   8.202   4.351   8.357 -0.3114 -0.6500 -0.5120
  193MOL0     C26558   8.188   4.418   8.493 -0.0618 -0.1684 -0.0187
  193MOL0     C26559   8.122   4.561   8.473  0.0911 -0.4379  0.4320
  193MOL0     C26560   8.121   4.631   8.604 -0.4712 -0.0942  0.5146
  193MOL0     C26561   8.122   4.697   8.711 -0.1609 -0.0424  0.2976
  193MOL0     C26562   8.480   4.154   8.330  0.3806  0.3918 -0.6671
  193MOL0     C26563   8.559   4.029   8.347 -0.2754 -0.9038 -0.6227
  193MOL0     C26564   8.592   3.981   8.486 -0.0989  0.1030 -0.4666
  193MOL0     H26565   8.913   3.706   8.369 -2.4833  2.4706 -1.0173
  193MOL0     H26566   9.047   3.494   8.342 -1.9469 -0.1117  1.1455
  193MOL0     H26567   8.958   3.264   8.134 -0.1918  2.4664  1.8192
  193MOL0     H26568   9.070   3.270   8.270  0.1638 -1.6219  0.4546
  193MOL0     H26569   9.154   3.158   8.004 -0.0958  1.5593  0.3966
  193MOL0     H26570   9.237   3.164   8.162 -0.3088 -1.5569  1.0979
  193MOL0     H26571   9.043   3.040   8.260 -1.2423 -0.4053 -0.2150
  193MOL0     H26572   8.981   3.005   8.095 -1.9759  2.0050  1.0502
  193MOL0     H26573   9.257   2.924   8.161 -0.9397  2.9564  0.5169
  193MOL0     H26574   9.116   2.836   8.240 -1.1899  2.2989  1.3265
  193MOL0     H26575   9.162   2.835   7.947 -0.3964  0.9244  0.7118
  193MOL0     H26576   9.042   2.755   8.048 -0.7815  1.3383  1.7558
  193MOL0     H26577   9.240   2.639   8.167 -1.3256  0.1299  0.1011
  193MOL0     H26578   9.214   2.592   8.002  2.1577  1.2011 -1.8237
  193MOL0     H26579   9.436   2.724   8.114  0.3502 -1.0853 -0.2596
  193MOL0     H26580   9.376   2.827   7.976  1.4413 -0.0225 -0.5285
  193MOL0     H26581   9.470   2.541   7.982  1.9412  0.4688 -0.5024
  193MOL0     H26582   9.393   2.595   7.835 -0.3796  0.6126 -1.3188
  193MOL0     H26583   9.722   2.527   7.969 -0.7867 -0.4235  0.2778
  193MOL0     H26584   9.990   2.721   7.773  1.5146 -0.3236  0.4206
  193MOL0     H26585   9.954   2.553   7.805  2.7877 -0.3738  2.3019
  193MOL0     H26586  10.004   2.761   8.022 -0.5890 -0.0871 -0.8566
  193MOL0     H26587   9.960   2.590   8.047  2.0461 -2.8004  0.3061
  193MOL0     H26588  10.175   2.539   7.908  0.4841  0.4083  0.7273
  193MOL0     H26589  10.203   2.717   7.896 -2.8551  0.6805 -0.5235
  193MOL0     H26590  10.202   2.535   8.146  1.8086 -0.7739  0.0977
  193MOL0     H26591  10.336   2.606   8.063 -0.3834  0.2279  0.3561
  193MOL0     H26592  10.159   2.912   8.338  0.6947  1.2645 -0.8534
  193MOL0     H26593  10.089   2.926   8.559 -0.4450  0.0108 -0.5854
  193MOL0     H26594  10.218   3.037   8.590  0.2651  0.1118  1.3395
  193MOL0     H26595  10.203   2.895   8.700 -0.5220  0.3456 -0.1570
  193MOL0     H26596  10.626   2.586   8.734  0.2810 -1.5941  0.0394
  193MOL0     H26597  10.764   2.458   8.897  0.4831  0.9954  3.0519
  193MOL0     H26598  10.869   2.345   9.046 -0.4440 -1.2227 -0.8563
  193MOL0     H26599  10.805   2.422   9.184  1.8109  0.0225  0.2071
  193MOL0     H26600  10.791   2.223   9.318 -2.0992 -1.5565 -0.0632
  193MOL0     H26601  10.814   2.120   9.176 -0.2371  1.2770 -0.7520
  193MOL0     H26602  11.018   2.315   9.305  0.0992 -0.2907  0.0378
  193MOL0     H26603  11.045   2.212   9.161 -4.0646 -2.6283 -2.1613
  193MOL0     H26604  10.989   2.014   9.319 -1.9922  1.7475 -1.6814
  193MOL0     H26605  11.002   2.128   9.459  1.3976  0.4378  1.4092
  193MOL0     H26606  11.210   2.029   9.255  1.3872 -0.7048 -0.0339
  193MOL0     H26607  11.236   2.175   9.355  0.2132 -0.2287 -0.2208
  193MOL0     H26608  11.198   1.897   9.458  0.9263  0.2270  0.6812
  193MOL0     H26609  11.242   2.043   9.555 -1.4336  1.6754 -0.3442
  193MOL0     H26610  11.439   2.055   9.403 -1.7369  0.7714  0.1401
  193MOL0     H26611  11.406   1.895   9.344  1.5838 -1.0388  0.0726
  193MOL0     H26612  11.437   1.974   9.625 -3.6197 -0.6808 -1.8928
  193MOL0     H26613  11.580   1.897   9.535  0.2362 -1.6046  1.9341
  193MOL0     H26614  10.396   2.339   9.093  0.2778 -0.6827 -0.4185
  193MOL0     H26615  10.268   2.458   8.908  0.2294  1.9905  0.9489
  193MOL0     H26616  10.485   2.576   8.473  1.5320 -0.1799 -1.1088
  193MOL0     H26617  10.433   2.595   8.251 -1.5315  0.5465 -2.5831
  193MOL0     H26618   9.047   3.562   7.915  0.1717  1.1671 -0.5568
  193MOL0     H26619   8.898   3.746   7.941  3.8671  1.9208 -0.3280
  193MOL0     H26620   8.619   3.981   8.015  0.4382  0.3356 -1.7077
  193MOL0     H26621   8.494   4.199   7.998 -2.9829 -1.2362 -0.3949
  193MOL0     H26622   8.407   4.395   8.373  0.0068 -0.4636 -0.3262
  193MOL0     H26623   8.326   4.505   8.269  1.8315  0.3816  0.7103
  193MOL0     H26624   8.195   4.244   8.379 -0.6633 -0.1665  2.0274
  193MOL0     H26625   8.115   4.385   8.300 -1.8871  0.9079  2.5714
  193MOL0     H26626   8.129   4.350   8.555  1.8240  0.2132  2.3735
  193MOL0     H26627   8.287   4.428   8.539  0.0253  0.9749 -0.4298
  193MOL0     H26628   8.020   4.549   8.435  0.8283  0.7565 -2.1716
  193MOL0     H26629   8.177   4.622   8.400 -2.1127 -1.0088 -1.8304
  193MOL0     H26630   8.127   4.757   8.799  1.4336 -0.5600  0.5847
  193MOL0     H26631   8.442   4.197   8.422  2.1110 -0.0385  0.2883
  193MOL0     H26632   8.553   4.041   8.569 -1.1653 -1.8069  0.4932
  193MOL0     H26633   8.548   3.881   8.492 -4.0277  1.4303 -3.1435
  193MOL0     H26634   8.701   3.989   8.492 -0.2271  2.9529 -0.9913
  194MOL0     O26635   3.246  11.012   2.574  0.2875  0.7068  0.2172
  194MOL0     C26636   3.284  11.076   2.672  0.0498 -1.0547  0.3497
  194MOL0     O26637   3.370  11.177   2.666 -0.7067  0.0578  0.2730
  194MOL0     C26638   3.479  11.159   2.581 -0.2896  0.1750  1.6634
  194MOL0     C26639   3.499  11.227   2.457 -0.3771  0.3711  0.2323
  194MOL0     C26640   3.606  11.196   2.371  0.5868 -0.0628 -0.9984
  194MOL0     C26641   3.692  11.089   2.403 -0.0594  0.0358 -0.4071
  194MOL0     O26642   3.806  11.057   2.326 -0.0447  0.5417 -0.1640
  194MOL0     C26643   3.918  11.132   2.367 -0.0903 -1.4070 -1.3967
  194MOL0     C26644   4.027  11.077   2.277 -0.5026 -0.7347  0.3958
  194MOL0     C26645   4.142  11.178   2.270  0.5020  0.3907 -0.8093
  194MOL0     C26646   4.249  11.124   2.173 -0.3472 -0.5233 -0.1367
  194MOL0     C26647   4.359  11.221   2.134  0.0349  0.1468  0.6582
  194MOL0     C26648   4.434  11.271   2.257 -0.1528 -0.4257 -0.6255
  194MOL0     C26649   4.568  11.331   2.223  0.4257 -0.1023  0.7319
  194MOL0     C26650   4.551  11.461   2.136  0.8310  0.7556  0.3188
  194MOL0     N26651   4.492  11.579   2.204  0.3126  0.1078 -0.3128
  194MOL0     C26652   4.563  11.621   2.310 -0.0111 -0.6955  0.4737
  194MOL0     C26653   4.530  11.754   2.324  0.4670  0.6043  1.2615
  194MOL0     C26654   4.576  11.853   2.427  0.7226  0.2407 -0.0958
  194MOL0     C26655   4.465  11.939   2.493  0.3098 -0.4061  0.2516
  194MOL0     C26656   4.390  11.859   2.601  0.1471 -0.1770  1.0700
  194MOL0     C26657   4.282  11.941   2.664  1.0573  0.5569  0.3805
  194MOL0     O26658   4.210  11.856   2.747 -0.1908  0.3274  0.2184
  194MOL0     C26659   4.116  11.903   2.841 -1.2691 -0.4510  0.4581
  194MOL0     C26660   4.101  11.841   2.968  0.5775  0.2422 -0.1874
  194MOL0     C26661   4.005  11.887   3.059 -0.4236  0.4528 -0.3142
  194MOL0     C26662   3.999  11.803   3.179  0.6581 -0.3105 -0.6918
  194MOL0     C26663   3.922  12.003   3.026  0.1464  0.3156 -0.0004
  194MOL0     C26664   3.819  12.064   3.120 -0.6469  1.0101  0.5186
  194MOL0     O26665   3.757  12.169   3.063 -0.0977 -0.0760  0.4152
  194MOL0     C26666   3.651  12.229   3.138  0.6487 -0.2725  0.3079
  194MOL0     C26667   3.523  12.174   3.131  0.2249  0.2866 -0.7274
  194MOL0     C26668   3.415  12.229   3.205 -0.3016 -0.9519  0.1952
  194MOL0     C26669   3.428  12.351   3.277  0.4105  0.4839  0.2255
  194MOL0     O26670   3.333  12.411   3.353 -0.3486  0.6602 -0.3306
  194MOL0     C26671   3.202  12.364   3.348  0.0144  0.6124 -0.5063
  194MOL0     C26672   3.101  12.458   3.411 -0.6845  0.0612 -0.2970
  194MOL0     C26673   2.962  12.403   3.425  0.3381  0.7538  0.2222
  194MOL0     C26674   2.850  12.506   3.435  0.1057 -0.1876  0.8358
  194MOL0     C26675   2.719  12.439   3.455 -0.0558  0.0711 -0.1056
  194MOL0     C26676   2.604  12.541   3.487  0.3037  0.0057 -0.2857
  194MOL0     C26677   2.474  12.481   3.545 -0.0715  0.7420 -0.1095
  194MOL0     C26678   2.483  12.403   3.678  0.7783 -0.0920 -0.1438
  194MOL0    Cl26679   2.348  12.285   3.686  0.0440 -0.0645  0.1414
  194MOL0     C26680   3.556  12.414   3.264 -0.0197 -0.8623 -0.6251
  194MOL0     C26681   3.659  12.348   3.196 -0.4442  0.4925  0.1409
  194MOL0     O26682   3.803  12.015   3.230  0.4697 -0.7400 -0.1708
  194MOL0     C26683   3.955  12.076   2.906 -0.4116  1.3908  0.1952
  194MOL0     C26684   4.048  12.025   2.822  0.4580  0.8110  0.9317
  194MOL0     N26685   4.432  11.778   2.230 -0.2210  0.1204 -0.0308
  194MOL0     N26686   4.410  11.674   2.156 -0.4405 -0.1057  0.2408
  194MOL0     C26687   3.662  11.003   2.503  0.0404 -0.8241 -0.2571
  194MOL0     C26688   3.565  11.047   2.597  0.1019  0.8429 -0.2194
  194MOL0     C26689   3.211  11.070   2.799  0.2372  1.2221  0.3886
  194MOL0     C26690   3.233  11.170   2.901  0.2938 -1.1864  0.4710
  194MOL0     C26691   3.147  11.178   3.015  0.2219  0.1601  0.8533
  194MOL0     C26692   3.051  11.079   3.047 -0.3188  0.8742  0.3055
  194MOL0     O26693   2.983  11.099   3.163  0.3279 -0.1171 -0.0993
  194MOL0     C26694   2.926  10.985   3.222  0.2569  0.5666 -0.3658
  194MOL0     C26695   2.860  11.000   3.362 -0.1754  0.0142 -0.0985
  194MOL0     C26696   2.954  11.047   3.473  0.3001  0.4289  0.4424
  194MOL0     C26697   3.070  10.958   3.488 -0.8122 -0.1884  0.2709
  194MOL0     C26698   3.042  10.820   3.505  0.3567 -0.2825 -0.7658
  194MOL0     C26699   2.997  10.711   3.527 -0.0430 -0.1964  0.0955
  194MOL0     C26700   3.039  10.968   2.956  0.2677 -0.1622  1.4754
  194MOL0     C26701   3.114  10.967   2.833 -0.1292 -0.1131 -0.1804
  194MOL0     C26702   3.099  10.838   2.761 -0.4609  0.9002  0.0798
  194MOL0     H26703   3.436  11.315   2.445 -2.0781 -0.7058  0.9524
  194MOL0     H26704   3.645  11.262   2.294  4.1364 -1.1082 -0.2916
  194MOL0     H26705   3.939  11.112   2.473 -1.0758  1.3223 -0.5912
  194MOL0     H26706   3.888  11.236   2.353  0.5777 -1.1047 -0.6512
  194MOL0     H26707   4.053  10.975   2.308 -0.3370 -1.0810 -0.8376
  194MOL0     H26708   3.978  11.083   2.179 -1.0582  0.9644  0.7408
  194MOL0     H26709   4.101  11.272   2.233  0.9346  1.4097  1.1271
  194MOL0     H26710   4.177  11.207   2.370 -0.3974 -0.5732 -0.1980
  194MOL0     H26711   4.308  11.046   2.224  0.7606 -0.0706 -0.6789
  194MOL0     H26712   4.203  11.072   2.088 -0.7149 -0.7231  0.1826
  194MOL0     H26713   4.315  11.300   2.071  0.0197  0.3633  0.9402
  194MOL0     H26714   4.418  11.168   2.058 -1.6340 -1.1898  0.2195
  194MOL0     H26715   4.380  11.358   2.294  0.7865  0.0460 -0.3269
  194MOL0     H26716   4.434  11.195   2.336 -1.2637 -1.1963 -1.3316
  194MOL0     H26717   4.607  11.256   2.154 -3.5018 -0.6508 -1.2159
  194MOL0     H26718   4.630  11.350   2.310 -0.6227  1.4694  1.1714
  194MOL0     H26719   4.656  11.480   2.111  1.0321 -2.4842 -1.7515
  194MOL0     H26720   4.497  11.441   2.044  2.1597  0.1810 -0.3556
  194MOL0     H26721   4.652  11.580   2.357  2.2235  3.5282  0.4644
  194MOL0     H26722   4.648  11.921   2.382  0.9921 -0.3242 -0.5365
  194MOL0     H26723   4.620  11.797   2.510 -1.2378  0.1700  0.9427
  194MOL0     H26724   4.514  12.026   2.537 -0.7648 -0.6023  1.8900
  194MOL0     H26725   4.392  11.971   2.418 -0.6483 -0.4364  1.1453
  194MOL0     H26726   4.351  11.764   2.563 -1.8310  0.0915  2.2695
  194MOL0     H26727   4.458  11.831   2.683  1.8776 -0.6689 -0.4723
  194MOL0     H26728   4.308  12.023   2.732  1.2841  0.1791  0.7557
  194MOL0     H26729   4.215  11.978   2.586 -0.3841  0.1353  1.3987
  194MOL0     H26730   4.154  11.753   3.004 -0.0283  0.6196  1.7269
  194MOL0     H26731   3.897  11.781   3.211  0.7674 -2.8878 -1.8696
  194MOL0     H26732   4.054  11.854   3.258  0.6477 -0.9301 -0.2803
  194MOL0     H26733   4.038  11.702   3.164 -1.2526 -1.2556  0.3594
  194MOL0     H26734   3.523  12.081   3.074  0.5016 -0.2323  0.0976
  194MOL0     H26735   3.324  12.170   3.199  0.2404 -2.1797  2.6108
  194MOL0     H26736   3.175  12.364   3.242 -0.2961 -0.9034 -0.4485
  194MOL0     H26737   3.201  12.266   3.395 -1.1813 -0.5043 -2.7328
  194MOL0     H26738   3.127  12.477   3.516 -0.0009  0.3878 -0.5249
  194MOL0     H26739   3.098  12.547   3.348 -0.6976 -1.5334 -2.6984
  194MOL0     H26740   2.955  12.332   3.508 -1.4543  0.8500  0.2005
  194MOL0     H26741   2.938  12.350   3.332  0.1932 -1.4955  1.4842
  194MOL0     H26742   2.858  12.579   3.354 -1.9371 -0.6521  0.1576
  194MOL0     H26743   2.860  12.561   3.529 -3.4186  1.4743  0.4098
  194MOL0     H26744   2.687  12.395   3.359  0.0578  1.5678 -0.8581
  194MOL0     H26745   2.726  12.361   3.531  2.4613  1.0530  0.7499
  194MOL0     H26746   2.581  12.602   3.398  3.6968  4.5506  1.5668
  194MOL0     H26747   2.643  12.615   3.557 -0.3760  0.0348  0.0713
  194MOL0     H26748   2.430  12.419   3.467  0.7286 -0.7578  0.5986
  194MOL0     H26749   2.408  12.567   3.563 -2.4868 -1.5011  2.6486
  194MOL0     H26750   2.468  12.475   3.759  0.6020  0.3078 -0.5253
  194MOL0     H26751   2.573  12.342   3.691  1.2834  0.6148 -0.2745
  194MOL0     H26752   3.574  12.512   3.306 -1.8848  0.4625 -2.7105
  194MOL0     H26753   3.751  12.402   3.173  0.0142 -0.4670 -0.3663
  194MOL0     H26754   3.912  12.171   2.875  0.4263  2.1216  1.1945
  194MOL0     H26755   4.074  12.085   2.735 -0.5185  0.3707  0.3204
  194MOL0     H26756   3.707  10.905   2.514  1.5238 -0.0397  1.0832
  194MOL0     H26757   3.537  10.982   2.679  0.2615 -2.0244 -2.3196
  194MOL0     H26758   3.300  11.253   2.879 -2.6523  2.1746  2.8444
  194MOL0     H26759   3.172  11.259   3.083  1.1427  0.3133  0.3481
  194MOL0     H26760   2.850  10.935   3.161 -1.2766  0.9574  1.1480
  194MOL0     H26761   3.008  10.914   3.237 -0.1833  0.1687  0.2356
  194MOL0     H26762   2.812  10.904   3.386 -2.5857  0.7499 -1.6776
  194MOL0     H26763   2.773  11.066   3.363  0.4644  0.9106  1.8690
  194MOL0     H26764   2.970  11.155   3.469  0.5270  0.3978  0.5189
  194MOL0     H26765   2.900  11.046   3.568 -0.3407 -1.1000  0.0966
  194MOL0     H26766   3.122  10.991   3.579 -1.0189 -0.9611  0.6824
  194MOL0     H26767   3.131  10.969   3.399 -2.4265 -0.4291 -0.9044
  194MOL0     H26768   2.955  10.613   3.540  1.0655 -0.4511  2.4079
  194MOL0     H26769   2.969  10.888   2.977  0.8332 -1.4043 -0.9587
  194MOL0     H26770   3.183  10.808   2.697  0.3807  0.2790  1.4464
  194MOL0     H26771   3.111  10.758   2.834 -2.3806  0.1097 -0.4220
  194MOL0     H26772   3.011  10.822   2.697  0.5900 -0.8954 -1.0103
  195MOL0     O26773   3.348   3.846   9.384  0.7302 -0.1131 -0.4107
  195MOL0     C26774   3.303   3.892   9.488 -0.7163  0.3454 -1.0947
  195MOL0     O26775   3.367   3.897   9.609  0.0191 -0.2098 -0.1320
  195MOL0     C26776   3.500   3.863   9.604 -0.7494  0.2911 -0.8907
  195MOL0     C26777   3.548   3.734   9.605 -0.1465  0.1719 -0.2047
  195MOL0     C26778   3.691   3.714   9.597 -0.2663 -0.3841 -0.7625
  195MOL0     C26779   3.777   3.820   9.584 -0.3778 -0.6345  0.1091
  195MOL0     O26780   3.916   3.796   9.576 -0.2623 -0.5220  0.1380
  195MOL0     C26781   3.990   3.900   9.503  0.7521 -0.1777 -0.6488
  195MOL0     C26782   4.111   3.839   9.434 -0.4999 -0.6585  0.6182
  195MOL0     C26783   4.074   3.740   9.333  0.7542 -0.3106  0.4050
  195MOL0     C26784   4.180   3.710   9.223 -0.0617 -0.4858 -0.1985
  195MOL0     C26785   4.170   3.574   9.163  0.0353  0.3339  0.2788
  195MOL0     C26786   4.071   3.562   9.032 -0.3087 -0.8032  0.0732
  195MOL0     C26787   4.105   3.670   8.934 -0.6501  0.6626  1.3427
  195MOL0     C26788   4.089   3.630   8.786 -0.9787  0.3461 -0.0616
  195MOL0     N26789   4.144   3.747   8.715 -0.3597  0.2767 -0.3741
  195MOL0     C26790   4.062   3.835   8.653 -0.1012  0.2938 -0.1153
  195MOL0     C26791   4.142   3.937   8.608  0.2461  1.6191 -0.5397
  195MOL0     C26792   4.099   4.059   8.537  1.1081  1.0036  0.4494
  195MOL0     C26793   4.141   4.048   8.388  0.0207  0.0389 -0.5326
  195MOL0     C26794   4.294   4.049   8.376  0.2474  0.3385  1.1345
  195MOL0     C26795   4.335   4.076   8.237 -0.8953  1.4105 -0.5033
  195MOL0     O26796   4.289   4.192   8.183  0.6562 -0.5621  0.3941
  195MOL0     C26797   4.324   4.219   8.053 -0.1147  0.0659  0.1359
  195MOL0     C26798   4.446   4.193   7.997  0.2287 -0.2396  0.0633
  195MOL0     C26799   4.472   4.207   7.858 -0.1885  0.5412 -0.2798
  195MOL0     C26800   4.612   4.159   7.811 -0.1197 -0.1022 -0.0839
  195MOL0     C26801   4.360   4.228   7.766 -1.1115 -0.4537 -0.3031
  195MOL0     C26802   4.364   4.218   7.618 -0.6129 -0.3133  0.1734
  195MOL0     O26803   4.246   4.226   7.551  0.5927 -0.1235 -0.0727
  195MOL0     C26804   4.239   4.206   7.414 -0.3766  0.3512 -0.4275
  195MOL0     C26805   4.156   4.294   7.342  0.1532  0.6125 -0.0390
  195MOL0     C26806   4.147   4.290   7.199 -1.1764 -0.1820 -0.1079
  195MOL0     C26807   4.228   4.196   7.126  0.2752 -0.4869 -1.0058
  195MOL0     O26808   4.229   4.219   6.987  0.2551  0.1251  0.6952
  195MOL0     C26809   4.356   4.202   6.929  0.1867  0.5343  0.0104
  195MOL0     C26810   4.353   4.238   6.788  0.1340  0.6459  0.3061
  195MOL0     C26811   4.498   4.273   6.733 -0.5582 -0.3761  1.2859
  195MOL0     C26812   4.511   4.250   6.580  0.0842  0.1241  0.4595
  195MOL0     C26813   4.649   4.279   6.532  0.3000  0.0090 -0.8611
  195MOL0     C26814   4.649   4.277   6.377  0.4700 -0.6840  0.2696
  195MOL0     C26815   4.773   4.341   6.320 -0.4200  0.2324 -0.1147
  195MOL0     C26816   4.736   4.465   6.244 -0.0777 -0.2893 -0.4089
  195MOL0    Cl26817   4.878   4.547   6.173  0.1259 -0.0084  0.2726
  195MOL0     C26818   4.310   4.112   7.197  0.5125 -0.3367  0.1565
  195MOL0     C26819   4.313   4.112   7.338  0.1425  0.2731 -0.2512
  195MOL0     O26820   4.470   4.202   7.561 -0.0588  0.5146 -0.4647
  195MOL0     C26821   4.235   4.260   7.837 -1.0848  0.3274  0.1040
  195MOL0     C26822   4.221   4.262   7.977  0.6582  0.3885  0.7664
  195MOL0     N26823   4.274   3.896   8.637  0.0263 -0.3349 -0.0350
  195MOL0     N26824   4.273   3.781   8.705  0.0325  0.5076 -0.0233
  195MOL0     C26825   3.721   3.950   9.590 -0.0819  0.1266 -0.0382
  195MOL0     C26826   3.586   3.968   9.613  0.0601 -0.0179 -0.6015
  195MOL0     C26827   3.161   3.938   9.486 -0.0182  0.6828  0.2356
  195MOL0     C26828   3.116   4.037   9.576  0.1119  0.7950 -0.2473
  195MOL0     C26829   2.995   4.109   9.564 -0.2820  0.5008 -0.4193
  195MOL0     C26830   2.904   4.066   9.471  0.8360  0.3087 -0.5475
  195MOL0     O26831   2.788   4.136   9.459  0.2807  0.1937 -0.1538
  195MOL0     C26832   2.699   4.130   9.345 -0.7027 -0.0304 -0.3402
  195MOL0     C26833   2.591   4.227   9.371 -0.3873 -0.1662  0.4356
  195MOL0     C26834   2.450   4.160   9.347 -0.6574  0.3140  0.3858
  195MOL0     C26835   2.420   4.052   9.445  0.0239  0.5208 -0.1016
  195MOL0     C26836   2.282   4.011   9.435  0.2224 -0.4675 -0.6435
  195MOL0     C26837   2.169   3.969   9.422  0.4298  0.6896  0.6246
  195MOL0     C26838   2.938   3.967   9.379  0.1635 -0.6425  0.0106
  195MOL0     C26839   3.061   3.898   9.387  0.8048 -0.0959  1.1217
  195MOL0     C26840   3.079   3.787   9.278 -0.3444 -1.2874  0.4725
  195MOL0     H26841   3.488   3.644   9.591  4.8086 -3.2529 -2.2555
  195MOL0     H26842   3.740   3.617   9.603  0.5511  0.0550 -0.0894
  195MOL0     H26843   4.015   3.975   9.578  0.6975 -1.6842  0.9294
  195MOL0     H26844   3.923   3.943   9.429 -0.6396 -0.6230  0.3049
  195MOL0     H26845   4.148   3.926   9.380 -2.6722  0.3393  0.6698
  195MOL0     H26846   4.191   3.808   9.502 -1.8666 -2.8541  1.3372
  195MOL0     H26847   4.050   3.647   9.385 -0.1371  0.9085  2.2923
  195MOL0     H26848   3.972   3.761   9.299  0.0331  0.9098  3.0702
  195MOL0     H26849   4.178   3.789   9.148  2.4831  0.3092  0.4555
  195MOL0     H26850   4.276   3.711   9.275 -0.2019  1.5198  0.0844
  195MOL0     H26851   4.140   3.500   9.238  2.9353 -2.1396 -0.8310
  195MOL0     H26852   4.264   3.537   9.123  0.7735  1.4443  0.9373
  195MOL0     H26853   4.091   3.470   8.978 -1.1512  0.4186 -2.4461
  195MOL0     H26854   3.964   3.577   9.052  0.1715 -0.7303  3.1424
  195MOL0     H26855   4.212   3.694   8.931 -0.8717  1.6246 -1.3768
  195MOL0     H26856   4.045   3.757   8.963 -1.4787 -0.2307  2.3727
  195MOL0     H26857   4.151   3.542   8.772 -2.2012 -0.8545  1.6579
  195MOL0     H26858   3.986   3.605   8.759  0.0620 -2.2264 -2.0666
  195MOL0     H26859   3.956   3.815   8.642 -0.5428  2.4945 -0.4613
  195MOL0     H26860   4.152   4.145   8.579  3.7908  0.1321 -0.8792
  195MOL0     H26861   3.991   4.071   8.529  0.8184 -0.7037  1.4646
  195MOL0     H26862   4.115   3.948   8.354  0.3164 -0.8639  1.7384
  195MOL0     H26863   4.093   4.127   8.329 -0.0730 -0.6608 -1.4136
  195MOL0     H26864   4.349   4.122   8.436  1.0298  0.8664 -0.1648
  195MOL0     H26865   4.326   3.946   8.396 -1.6082 -0.5912 -0.3869
  195MOL0     H26866   4.441   4.050   8.226 -0.8678  0.2935  1.8545
  195MOL0     H26867   4.295   3.999   8.172  1.7724  0.8367 -1.6186
  195MOL0     H26868   4.525   4.157   8.062  0.3093  0.6407  0.4764
  195MOL0     H26869   4.616   4.058   7.768 -0.1220  0.0696 -0.4862
  195MOL0     H26870   4.674   4.146   7.900  0.9832 -3.2064 -1.1528
  195MOL0     H26871   4.663   4.229   7.744 -0.1116 -0.6200 -0.6314
  195MOL0     H26872   4.107   4.375   7.396  3.1850  0.9330  2.5346
  195MOL0     H26873   4.100   4.370   7.142 -1.8981 -0.7980 -0.3961
  195MOL0     H26874   4.433   4.251   6.991 -0.3633  1.7161 -0.2027
  195MOL0     H26875   4.386   4.097   6.930 -0.4302  0.2122 -3.2560
  195MOL0     H26876   4.302   4.168   6.721 -3.2542  2.1890  1.0221
  195MOL0     H26877   4.283   4.322   6.785 -1.7180 -0.8586 -0.9052
  195MOL0     H26878   4.575   4.213   6.782  0.4708 -0.0746  0.0982
  195MOL0     H26879   4.515   4.380   6.747 -2.0154  0.1975 -0.8049
  195MOL0     H26880   4.439   4.312   6.526 -0.9285 -1.3825  0.0316
  195MOL0     H26881   4.477   4.152   6.546 -2.8888  2.2433 -3.4710
  195MOL0     H26882   4.687   4.378   6.558  0.4617  0.1417 -1.5697
  195MOL0     H26883   4.721   4.206   6.571 -0.0481 -0.6951 -1.5092
  195MOL0     H26884   4.558   4.327   6.344 -0.3644 -0.3507  2.8667
  195MOL0     H26885   4.647   4.179   6.328  2.0704  0.1910 -1.7530
  195MOL0     H26886   4.831   4.274   6.256 -0.5039 -0.9515  0.9986
  195MOL0     H26887   4.831   4.384   6.402  1.9398  2.0089 -2.5320
  195MOL0     H26888   4.684   4.532   6.313 -0.7499 -0.4606 -0.7351
  195MOL0     H26889   4.666   4.434   6.166  0.5503  1.2784 -1.6674
  195MOL0     H26890   4.379   4.044   7.149  3.3927  1.4716  1.4447
  195MOL0     H26891   4.375   4.036   7.384  1.2724  1.7000  0.6543
  195MOL0     H26892   4.146   4.276   7.777  0.4465 -1.9900 -3.0715
  195MOL0     H26893   4.129   4.300   8.020  0.3424  0.1260  0.3236
  195MOL0     H26894   3.783   4.039   9.598  0.2991 -0.2962  3.4191
  195MOL0     H26895   3.533   4.061   9.630 -0.4960 -0.7068  1.8608
  195MOL0     H26896   3.181   4.083   9.649 -0.0691  2.5144 -1.1029
  195MOL0     H26897   2.976   4.197   9.624  1.9113  0.2893  0.7002
  195MOL0     H26898   2.757   4.156   9.256 -0.1914  1.0268  0.2832
  195MOL0     H26899   2.678   4.023   9.339  3.9614 -1.2093  0.2573
  195MOL0     H26900   2.599   4.310   9.301 -2.2612  1.0012  1.5471
  195MOL0     H26901   2.586   4.262   9.474 -0.4134 -1.1259  0.7725
  195MOL0     H26902   2.372   4.235   9.359  0.1813  1.3053 -0.1539
  195MOL0     H26903   2.444   4.132   9.241  2.3043  1.2144 -0.1274
  195MOL0     H26904   2.449   4.080   9.546 -0.5671 -0.7990  0.4567
  195MOL0     H26905   2.480   3.966   9.415 -2.6261 -0.2457 -3.9468
  195MOL0     H26906   2.078   3.915   9.434 -1.9147  4.1954  0.3243
  195MOL0     H26907   2.865   3.937   9.304  1.6956 -3.0006 -0.6260
  195MOL0     H26908   2.983   3.741   9.256  0.0879 -1.1257 -2.0599
  195MOL0     H26909   3.119   3.825   9.183 -2.3758 -0.4786 -0.0954
  195MOL0     H26910   3.143   3.704   9.311  1.1195  0.0606  1.1810
  196MOL0     O26911   5.887   5.165   9.244  0.1642 -0.5725  0.2931
  196MOL0     C26912   5.998   5.107   9.222  0.0608 -0.0150  0.1305
  196MOL0     O26913   6.102   5.175   9.172  0.0859  0.0144  0.9640
  196MOL0     C26914   6.119   5.308   9.168  0.0968 -0.0070 -0.3529
  196MOL0     C26915   6.034   5.388   9.095  0.2165 -0.1962 -0.0023
  196MOL0     C26916   6.061   5.527   9.079  0.7965 -0.7794  0.2316
  196MOL0     C26917   6.175   5.597   9.129  0.0561  1.3525  0.1665
  196MOL0     O26918   6.192   5.727   9.099  0.2312  0.2789 -0.4647
  196MOL0     C26919   6.324   5.772   9.093 -0.0299 -0.7325 -0.5533
  196MOL0     C26920   6.330   5.893   9.009  0.0583 -0.0175  0.5467
  196MOL0     C26921   6.445   5.987   9.052  0.0820  1.0191 -0.0946
  196MOL0     C26922   6.428   6.132   9.006 -0.1964  0.0882  0.4549
  196MOL0     C26923   6.544   6.226   9.036  0.2867  0.2843 -0.1045
  196MOL0     C26924   6.515   6.369   8.978  0.1450 -0.4208  0.5929
  196MOL0     C26925   6.602   6.476   9.040  0.0397 -0.4766 -0.6722
  196MOL0     C26926   6.581   6.599   8.962 -0.3608 -0.0342 -0.2172
  196MOL0     N26927   6.618   6.582   8.821  0.4973  0.9036 -1.1023
  196MOL0     C26928   6.735   6.520   8.779 -0.6503 -1.3783 -0.0062
  196MOL0     C26929   6.730   6.546   8.642 -0.3586  0.1472  0.3867
  196MOL0     C26930   6.835   6.505   8.538  0.0396  0.4497  0.0132
  196MOL0     C26931   6.783   6.415   8.426 -0.0397 -0.2198 -0.0259
  196MOL0     C26932   6.893   6.387   8.326 -0.9261 -0.2896  0.5621
  196MOL0     C26933   6.876   6.248   8.258  0.6075 -1.1687 -0.5395
  196MOL0     O26934   6.987   6.205   8.184 -1.0068 -0.0079  0.4484
  196MOL0     C26935   7.096   6.161   8.252 -0.8335 -0.3699 -0.8490
  196MOL0     C26936   7.212   6.141   8.180 -0.0971 -0.7525 -0.4422
  196MOL0     C26937   7.325   6.078   8.238 -0.2392 -0.6237 -0.8497
  196MOL0     C26938   7.432   6.035   8.142 -0.5267 -0.5770 -0.1871
  196MOL0     C26939   7.331   6.057   8.379 -0.4265  0.8325  0.0996
  196MOL0     C26940   7.451   6.020   8.463  0.0649 -0.3753 -0.2614
  196MOL0     O26941   7.435   5.981   8.586 -0.0837 -0.3198 -0.2830
  196MOL0     C26942   7.551   5.935   8.660 -0.7895 -0.3153  0.2944
  196MOL0     C26943   7.656   6.017   8.701  0.1148 -0.1880  0.6244
  196MOL0     C26944   7.759   5.960   8.772  0.8201 -0.2417  0.5823
  196MOL0     C26945   7.767   5.823   8.804  0.5049  0.2589  0.1500
  196MOL0     O26946   7.875   5.783   8.865  0.3404 -0.4932 -0.9761
  196MOL0     C26947   7.979   5.720   8.790 -0.2175 -0.5327 -0.1433
  196MOL0     C26948   8.105   5.720   8.870 -0.2125 -0.6756 -1.0917
  196MOL0     C26949   8.095   5.651   9.011  1.0181 -1.2224  0.6101
  196MOL0     C26950   8.240   5.630   9.062  0.5218 -0.6956  0.6059
  196MOL0     C26951   8.255   5.636   9.221  0.1965  0.4948 -0.0129
  196MOL0     C26952   8.398   5.615   9.262  0.3778  0.7502  0.6767
  196MOL0     C26953   8.415   5.632   9.416 -0.1099  0.5024  0.8299
  196MOL0     C26954   8.539   5.571   9.461 -0.3200  0.9005 -0.5096
  196MOL0    Cl26955   8.526   5.552   9.633  0.4186 -0.0168  0.1780
  196MOL0     C26956   7.664   5.739   8.763  0.6859 -0.7260 -0.1197
  196MOL0     C26957   7.562   5.798   8.690  0.1107  0.7455  0.6607
  196MOL0     O26958   7.563   6.042   8.404  0.2662  0.0588 -0.8069
  196MOL0     C26959   7.215   6.075   8.450  0.5177  0.3467  0.1381
  196MOL0     C26960   7.099   6.128   8.388 -0.2841 -0.1800  0.2400
  196MOL0     N26961   6.616   6.601   8.606 -0.5719 -1.5308 -0.7224
  196MOL0     N26962   6.544   6.625   8.708 -0.0302  0.0881  0.4308
  196MOL0     C26963   6.246   5.517   9.219 -0.0358  0.6289  0.1704
  196MOL0     C26964   6.221   5.377   9.242 -0.0169 -0.2791 -0.7111
  196MOL0     C26965   6.028   4.966   9.260  0.2496 -0.3373  0.4982
  196MOL0     C26966   6.155   4.923   9.253  0.2532  0.7814  0.4927
  196MOL0     C26967   6.194   4.791   9.295  0.5201 -0.4685  0.2946
  196MOL0     C26968   6.094   4.706   9.339  1.1429 -0.0767 -0.2507
  196MOL0     O26969   6.103   4.583   9.389  0.1016  0.3463 -1.3824
  196MOL0     C26970   6.230   4.523   9.390  1.0317 -0.0566 -0.3060
  196MOL0     C26971   6.217   4.373   9.389  0.0649  0.0830 -0.1125
  196MOL0     C26972   6.103   4.326   9.486 -0.1798  0.8870 -0.0132
  196MOL0     C26973   6.106   4.178   9.510  0.0594  0.1997 -0.2407
  196MOL0     C26974   6.064   4.096   9.389 -0.4212 -0.4704  0.8727
  196MOL0     C26975   6.029   4.023   9.298  0.6923  0.3654 -0.5195
  196MOL0     C26976   5.963   4.753   9.346 -0.5613  0.3274 -0.4205
  196MOL0     C26977   5.927   4.882   9.311 -1.2081  0.3244 -0.2048
  196MOL0     C26978   5.782   4.926   9.334 -1.1212  0.0180  0.1141
  196MOL0     H26979   5.942   5.346   9.055 -0.8859  1.9659  0.0775
  196MOL0     H26980   5.993   5.585   9.018  2.4902  0.9712 -0.0857
  196MOL0     H26981   6.395   5.701   9.050 -2.1978 -2.5717 -1.2973
  196MOL0     H26982   6.364   5.786   9.194 -0.0713 -2.1330 -0.3242
  196MOL0     H26983   6.340   5.860   8.905 -0.5892 -3.4229  1.4420
  196MOL0     H26984   6.235   5.947   9.017  1.2853  2.1408  1.1628
  196MOL0     H26985   6.445   5.987   9.162 -1.2683 -1.6054 -0.0266
  196MOL0     H26986   6.541   5.947   9.018 -0.6884 -2.0357  1.0109
  196MOL0     H26987   6.426   6.131   8.897  0.1771  3.4746  0.3238
  196MOL0     H26988   6.328   6.170   9.027 -1.4581 -1.6728 -1.8692
  196MOL0     H26989   6.646   6.198   9.012  1.6422  2.0063  3.0707
  196MOL0     H26990   6.549   6.236   9.144 -0.8056 -0.5585  0.0526
  196MOL0     H26991   6.526   6.362   8.870 -0.5766  0.7517  0.4238
  196MOL0     H26992   6.412   6.400   8.998 -0.7116 -2.4690 -0.4063
  196MOL0     H26993   6.706   6.444   9.051 -0.0462  0.0983  3.4727
  196MOL0     H26994   6.582   6.493   9.146 -1.9567 -1.8314 -0.7633
  196MOL0     H26995   6.475   6.628   8.960 -0.1092  0.8773 -1.1298
  196MOL0     H26996   6.634   6.689   8.993  1.1916 -1.1399  0.4978
  196MOL0     H26997   6.815   6.478   8.840 -0.3543 -1.3701 -0.3880
  196MOL0     H26998   6.910   6.442   8.586  1.3135  0.9344 -1.2618
  196MOL0     H26999   6.886   6.588   8.489 -1.7361  1.0241 -0.9489
  196MOL0     H27000   6.747   6.325   8.476  0.7905 -0.2797  0.4725
  196MOL0     H27001   6.697   6.463   8.378 -0.2451 -1.1611 -0.6275
  196MOL0     H27002   6.891   6.459   8.243  0.7564 -1.2801 -0.3848
  196MOL0     H27003   6.991   6.402   8.370 -0.7019  0.4899 -0.1612
  196MOL0     H27004   6.846   6.178   8.337 -0.1303 -0.5723 -0.2759
  196MOL0     H27005   6.788   6.258   8.194  2.1354 -0.0392 -2.5429
  196MOL0     H27006   7.222   6.162   8.074 -1.3860 -1.0659 -0.6467
  196MOL0     H27007   7.462   5.933   8.169 -1.2400 -1.2081 -1.7069
  196MOL0     H27008   7.514   6.108   8.145  0.0219 -1.2090  1.0977
  196MOL0     H27009   7.395   6.029   8.040  0.4049  0.2075 -0.5882
  196MOL0     H27010   7.660   6.122   8.673 -2.7295  1.0720  4.1153
  196MOL0     H27011   7.849   6.017   8.791 -1.1234  3.2196  0.2840
  196MOL0     H27012   7.947   5.617   8.775  0.2976 -0.9322  1.3408
  196MOL0     H27013   8.005   5.766   8.695 -0.3014 -0.3739 -0.0913
  196MOL0     H27014   8.185   5.671   8.815  1.7096  1.9282 -0.8474
  196MOL0     H27015   8.122   5.827   8.885 -1.5234 -0.2512 -2.3851
  196MOL0     H27016   8.019   5.572   9.012 -2.2964  1.7268  0.1476
  196MOL0     H27017   8.058   5.730   9.076  0.4921 -1.9300  1.1937
  196MOL0     H27018   8.310   5.708   9.030  0.1155 -0.3302  0.5913
  196MOL0     H27019   8.276   5.537   9.016  2.3320  0.7538 -1.0951
  196MOL0     H27020   8.217   5.726   9.271 -1.1315 -1.2823  2.3923
  196MOL0     H27021   8.196   5.560   9.272 -0.4350 -0.4067 -1.9919
  196MOL0     H27022   8.462   5.684   9.207 -0.4654  0.7766 -0.3035
  196MOL0     H27023   8.418   5.510   9.237 -1.0647  0.0599  2.1911
  196MOL0     H27024   8.327   5.589   9.464 -1.2449  1.8659  0.0594
  196MOL0     H27025   8.407   5.736   9.449 -1.8369  0.9646 -0.8315
  196MOL0     H27026   8.623   5.636   9.437  0.2740 -0.0243 -1.0299
  196MOL0     H27027   8.562   5.472   9.419  0.5362  0.2009  1.4467
  196MOL0     H27028   7.666   5.632   8.780  2.7358 -0.7654 -0.3710
  196MOL0     H27029   7.481   5.738   8.652  3.2645 -3.1941 -0.5677
  196MOL0     H27030   7.198   6.045   8.552  0.7887  1.4617  0.5277
  196MOL0     H27031   7.015   6.153   8.453 -1.1929 -0.0676 -0.9516
  196MOL0     H27032   6.321   5.566   9.281  1.1297 -0.1986 -0.5385
  196MOL0     H27033   6.283   5.322   9.313 -1.5700 -0.2036  0.7671
  196MOL0     H27034   6.236   4.987   9.219  0.4486  1.7468  2.6295
  196MOL0     H27035   6.300   4.772   9.299  0.7156  0.5879  0.5736
  196MOL0     H27036   6.289   4.556   9.304 -0.3586  2.7063 -0.3377
  196MOL0     H27037   6.291   4.543   9.479 -0.6867  2.7896  0.3621
  196MOL0     H27038   6.312   4.321   9.403 -0.5856 -2.3636 -3.4652
  196MOL0     H27039   6.200   4.342   9.285  1.0548  4.2804 -1.7428
  196MOL0     H27040   6.123   4.361   9.588  0.4495 -0.4178  0.3239
  196MOL0     H27041   6.004   4.363   9.459 -0.4981  0.7681  0.9603
  196MOL0     H27042   6.056   4.132   9.596  2.1585 -0.8882  0.4907
  196MOL0     H27043   6.211   4.152   9.527  0.1908 -0.9352 -2.4355
  196MOL0     H27044   6.008   3.950   9.222 -0.4814 -1.0972  1.1485
  196MOL0     H27045   5.882   4.691   9.383  0.8208 -1.1499  0.2353
  196MOL0     H27046   5.714   4.844   9.357  0.7416 -1.7037 -0.1509
  196MOL0     H27047   5.776   4.993   9.420  0.6745 -1.6916  1.6757
  196MOL0     H27048   5.751   4.961   9.235  2.4410  1.6041 -0.6314
  197MOL0     O27049   0.848   2.939   1.421  0.1315  0.0450 -0.1929
  197MOL0     C27050   0.940   2.870   1.465 -0.1337  0.0604 -0.2932
  197MOL0     O27051   1.071   2.914   1.508  0.5748  0.6580  0.7420
  197MOL0     C27052   1.103   3.042   1.501  0.5764 -0.0427 -1.2024
  197MOL0     C27053   1.124   3.106   1.626  0.8978  0.9881 -0.4420
  197MOL0     C27054   1.170   3.235   1.630 -0.2248  1.0306  0.2939
  197MOL0     C27055   1.185   3.311   1.512  0.1840 -0.2708  0.2813
  197MOL0     O27056   1.239   3.435   1.538 -1.4747 -0.7562  0.0360
  197MOL0     C27057   1.313   3.504   1.433  0.6540  0.0100  0.8281
  197MOL0     C27058   1.221   3.603   1.345 -0.4764  0.3632  0.3466
  197MOL0     C27059   1.132   3.686   1.440  0.7330  0.3247  0.0136
  197MOL0     C27060   1.087   3.825   1.386  0.2111 -0.4317 -0.3328
  197MOL0     C27061   1.203   3.920   1.353 -0.4318 -1.0951 -0.7289
  197MOL0     C27062   1.157   4.058   1.307  0.0685  0.7108  0.0580
  197MOL0     C27063   1.259   4.157   1.264 -0.7044  0.5015 -0.2225
  197MOL0     C27064   1.374   4.193   1.358  0.6160  0.4277  0.3279
  197MOL0     N27065   1.331   4.218   1.494 -0.4597  0.0962  0.2161
  197MOL0     C27066   1.245   4.317   1.538 -0.0633 -0.7794  0.1503
  197MOL0     C27067   1.238   4.302   1.671 -1.0587 -0.3403 -0.2066
  197MOL0     C27068   1.162   4.388   1.768 -0.1715 -0.6606 -0.3343
  197MOL0     C27069   1.009   4.364   1.765  0.3627  0.1684  0.3071
  197MOL0     C27070   0.968   4.219   1.797 -0.3516  0.4625  0.5472
  197MOL0     C27071   0.967   4.127   1.670 -0.1466  0.1577 -0.2838
  197MOL0     O27072   0.924   3.993   1.682  0.0024 -0.1842  0.0171
  197MOL0     C27073   1.004   3.895   1.733  0.7480  0.5978 -0.1172
  197MOL0     C27074   0.929   3.783   1.755  0.8568 -0.8652 -0.0528
  197MOL0     C27075   0.982   3.662   1.810  0.0306  0.3470 -0.6390
  197MOL0     C27076   0.882   3.552   1.833  0.8568  0.0638 -0.9547
  197MOL0     C27077   1.118   3.653   1.824  0.0809  0.9900  0.4739
  197MOL0     C27078   1.185   3.531   1.875  1.1224 -0.3080 -0.7318
  197MOL0     O27079   1.321   3.552   1.901 -0.0475 -0.0792 -0.3450
  197MOL0     C27080   1.395   3.453   1.958 -0.3605 -0.7283  0.1805
  197MOL0     C27081   1.460   3.371   1.873 -1.1014  0.3855  0.8933
  197MOL0     C27082   1.560   3.282   1.914  0.7649  0.6069 -0.3821
  197MOL0     C27083   1.596   3.278   2.052  0.1830 -0.8038  0.3856
  197MOL0     O27084   1.691   3.198   2.105  0.1043 -0.8024 -0.2585
  197MOL0     C27085   1.774   3.108   2.024  0.5295 -0.1260  0.1318
  197MOL0     C27086   1.876   3.022   2.094 -1.2676  0.4478 -0.4025
  197MOL0     C27087   2.022   3.082   2.104 -0.6353  0.9172  0.0080
  197MOL0     C27088   2.126   3.028   2.013 -0.0483 -0.8533 -0.0986
  197MOL0     C27089   2.118   3.076   1.871  0.2413 -0.6113  0.2787
  197MOL0     C27090   2.195   2.979   1.772  0.3978  0.2240  0.0331
  197MOL0     C27091   2.164   3.020   1.627 -0.2248  0.5382 -0.2213
  197MOL0     C27092   2.231   2.933   1.504  0.0998 -0.3138 -1.2808
  197MOL0    Cl27093   2.195   2.770   1.523 -0.2375 -0.1565  0.0640
  197MOL0     C27094   1.529   3.367   2.142  0.0996  0.3967 -0.0349
  197MOL0     C27095   1.420   3.451   2.090 -0.3958  0.6899 -0.1433
  197MOL0     O27096   1.121   3.436   1.917 -0.6818  0.2092 -0.3534
  197MOL0     C27097   1.196   3.768   1.802  0.2969 -0.8369 -0.2032
  197MOL0     C27098   1.140   3.889   1.764  0.1477  0.6130  0.1676
  197MOL0     N27099   1.335   4.207   1.709  0.0942  0.2001 -0.1755
  197MOL0     N27100   1.391   4.162   1.602 -0.9900  0.1332  0.0193
  197MOL0     C27101   1.156   3.251   1.390 -0.6189  0.8057  0.0449
  197MOL0     C27102   1.120   3.116   1.383 -0.5875 -0.1772 -0.5811
  197MOL0     C27103   0.909   2.729   1.466 -0.3149  0.5608 -0.1872
  197MOL0     C27104   0.973   2.653   1.367 -0.1110  0.1228  0.2914
  197MOL0     C27105   0.956   2.509   1.369  0.3686 -0.2183  0.6145
  197MOL0     C27106   0.883   2.450   1.465 -0.2106  0.4932 -0.8965
  197MOL0     O27107   0.856   2.313   1.472 -0.4616  0.3891  0.0429
  197MOL0     C27108   0.868   2.228   1.353  0.2319 -0.1133 -0.6873
  197MOL0     C27109   0.893   2.084   1.398 -0.0528 -0.2133 -0.2577
  197MOL0     C27110   1.025   2.072   1.461 -0.1947  0.2891  0.1887
  197MOL0     C27111   1.019   1.934   1.528 -0.0515  0.4348  0.0839
  197MOL0     C27112   1.149   1.920   1.600 -0.0405 -0.3061  0.3122
  197MOL0     C27113   1.257   1.907   1.665  0.1088  0.0516  0.9679
  197MOL0     C27114   0.833   2.519   1.570 -0.2533 -0.4044 -0.3761
  197MOL0     C27115   0.845   2.658   1.574  0.1778 -0.0387 -0.4598
  197MOL0     C27116   0.762   2.744   1.668 -0.5746  0.0126 -0.0244
  197MOL0     H27117   1.120   3.049   1.718  3.3372  2.4857  0.6843
  197MOL0     H27118   1.189   3.290   1.722  0.0408  1.7116 -0.1588
  197MOL0     H27119   1.362   3.422   1.380  0.8618  0.5425  0.1695
  197MOL0     H27120   1.396   3.563   1.472  1.2848 -0.7982  0.7200
  197MOL0     H27121   1.295   3.658   1.285  3.5836 -1.3731  3.2495
  197MOL0     H27122   1.151   3.543   1.288  0.5929  1.0422 -1.7661
  197MOL0     H27123   1.047   3.626   1.473  0.8652 -1.4725 -2.6427
  197MOL0     H27124   1.194   3.696   1.530 -0.8987 -1.8103  1.4699
  197MOL0     H27125   1.035   3.808   1.291 -0.2073  1.9616 -0.6057
  197MOL0     H27126   1.020   3.877   1.455  0.9198  2.1165 -1.4324
  197MOL0     H27127   1.270   3.872   1.282  1.6647 -2.0072  1.7136
  197MOL0     H27128   1.257   3.938   1.446 -1.1056  0.6446 -0.6332
  197MOL0     H27129   1.103   4.040   1.214 -1.6960  0.2270  1.1066
  197MOL0     H27130   1.088   4.101   1.381  0.2984  1.6593 -0.2649
  197MOL0     H27131   1.200   4.245   1.236 -1.0663  0.6504  0.9412
  197MOL0     H27132   1.299   4.109   1.175  0.8633  1.0381  0.1653
  197MOL0     H27133   1.445   4.111   1.363 -0.0099 -0.6154 -4.0258
  197MOL0     H27134   1.427   4.282   1.324  1.9428 -0.5045 -0.1130
  197MOL0     H27135   1.180   4.378   1.476  0.2882  0.0154  0.5557
  197MOL0     H27136   1.174   4.495   1.748 -0.3737 -0.6958 -0.6418
  197MOL0     H27137   1.201   4.370   1.869  1.2952 -2.9215 -1.2430
  197MOL0     H27138   0.961   4.439   1.828  0.1764  1.1675 -0.9664
  197MOL0     H27139   0.976   4.382   1.662  0.8329 -1.0742 -0.0833
  197MOL0     H27140   1.032   4.177   1.875 -0.7900  1.0336  1.2269
  197MOL0     H27141   0.865   4.230   1.832 -0.6346  2.3227 -0.6974
  197MOL0     H27142   0.902   4.183   1.602  0.6904  1.2863 -0.1855
  197MOL0     H27143   1.068   4.120   1.626  0.3862  1.4726  0.6887
  197MOL0     H27144   0.822   3.793   1.744  1.0327 -1.5408 -3.1592
  197MOL0     H27145   0.920   3.459   1.792  3.2089 -0.9489  2.9894
  197MOL0     H27146   0.786   3.588   1.794  0.5309 -0.9016 -1.0531
  197MOL0     H27147   0.854   3.538   1.938  0.8283 -0.4848 -1.0331
  197MOL0     H27148   1.432   3.385   1.770  2.4294  0.5750 -0.1918
  197MOL0     H27149   1.598   3.214   1.839 -0.6741 -2.5560  1.5663
  197MOL0     H27150   1.697   3.044   1.979 -0.8324  0.2741  1.7915
  197MOL0     H27151   1.833   3.161   1.949  6.3951 -3.1397  1.9724
  197MOL0     H27152   1.848   2.993   2.196 -1.6159  3.1498  0.3528
  197MOL0     H27153   1.884   2.926   2.043  0.6904 -0.4777  1.4880
  197MOL0     H27154   2.065   3.064   2.203  0.9775  2.7116 -0.3031
  197MOL0     H27155   2.013   3.191   2.093 -1.1253  0.8914  0.1535
  197MOL0     H27156   2.113   2.919   2.005 -1.0808 -0.9548  2.1550
  197MOL0     H27157   2.228   3.045   2.047  0.7644 -1.3317 -2.1814
  197MOL0     H27158   2.011   3.074   1.846  0.5997 -0.9500 -1.3803
  197MOL0     H27159   2.140   3.182   1.850 -1.9260 -0.5265 -2.1116
  197MOL0     H27160   2.162   2.876   1.791 -2.4728  1.2094  1.0177
  197MOL0     H27161   2.303   2.981   1.789  0.1944 -2.6301  2.5189
  197MOL0     H27162   2.196   3.124   1.619 -1.4461  0.8098 -2.4642
  197MOL0     H27163   2.055   3.015   1.621 -0.3244 -3.0188  1.7244
  197MOL0     H27164   2.337   2.958   1.500 -0.3480  1.5715 -2.6167
  197MOL0     H27165   2.182   2.966   1.412 -0.0463 -1.7430 -1.7403
  197MOL0     H27166   1.558   3.369   2.247 -2.5512 -0.1185  0.7861
  197MOL0     H27167   1.357   3.522   2.143 -2.9260 -0.0417 -2.0041
  197MOL0     H27168   1.303   3.765   1.819 -0.1148  0.0248  3.3825
  197MOL0     H27169   1.202   3.978   1.756 -0.1755  1.1991  2.8737
  197MOL0     H27170   1.163   3.310   1.300 -2.3970  1.2683  0.1674
  197MOL0     H27171   1.096   3.072   1.286 -1.1750 -3.5427  0.9631
  197MOL0     H27172   1.049   2.703   1.308  0.1988 -1.8646 -1.0698
  197MOL0     H27173   1.022   2.451   1.305 -0.2632 -0.5038  0.2085
  197MOL0     H27174   0.771   2.235   1.304 -0.0775 -1.5742 -0.3200
  197MOL0     H27175   0.946   2.264   1.284  0.4925  0.2395 -0.2173
  197MOL0     H27176   0.865   2.015   1.318 -0.5708 -1.4784  0.9803
  197MOL0     H27177   0.817   2.070   1.476  0.2924 -2.6067 -0.2771
  197MOL0     H27178   1.094   2.080   1.376  1.0670  2.1445  1.2956
  197MOL0     H27179   1.047   2.151   1.534 -0.5744  2.0621 -1.5052
  197MOL0     H27180   0.997   1.860   1.450 -3.1587  2.7251 -1.3971
  197MOL0     H27181   0.934   1.941   1.596  1.0237  2.4958  1.2903
  197MOL0     H27182   1.344   1.878   1.720 -0.1982 -1.5857  0.6418
  197MOL0     H27183   0.781   2.465   1.648  1.8917 -0.1141  1.3523
  197MOL0     H27184   0.838   2.804   1.720  2.3196 -1.9920 -1.6672
  197MOL0     H27185   0.695   2.807   1.609  1.0809  0.2052 -1.8113
  197MOL0     H27186   0.706   2.692   1.746 -1.2097 -0.6396 -0.8992
  198MOL0     O27187   8.216  10.886   5.224  0.7634 -0.4763  0.1260
  198MOL0     C27188   8.270  10.907   5.115 -0.5338 -0.2195  0.4584
  198MOL0     O27189   8.406  10.907   5.089  0.2852  0.7643 -0.7149
  198MOL0     C27190   8.497  10.857   5.180 -0.6673 -0.4612  0.7290
  198MOL0     C27191   8.628  10.842   5.132 -0.6534  0.4721 -0.2620
  198MOL0     C27192   8.740  10.799   5.210 -0.1698  0.6206  0.4970
  198MOL0     C27193   8.711  10.740   5.329  0.2117 -0.5162 -0.3626
  198MOL0     O27194   8.812  10.677   5.390  0.9736  0.0906  0.3578
  198MOL0     C27195   8.782  10.554   5.446  0.4919 -0.0988 -0.4874
  198MOL0     C27196   8.883  10.453   5.405 -0.3130 -0.5110 -0.3569
  198MOL0     C27197   9.016  10.487   5.464  0.7004  0.8908 -1.1885
  198MOL0     C27198   9.122  10.456   5.362 -0.6809  0.0230  0.0114
  198MOL0     C27199   9.142  10.307   5.342 -0.1506 -0.4600  0.0992
  198MOL0     C27200   9.238  10.283   5.228 -0.4374  0.6084  0.8551
  198MOL0     C27201   9.388  10.254   5.265  0.4423 -0.3858 -0.5495
  198MOL0     C27202   9.470  10.386   5.310 -0.4968 -0.1044  0.2965
  198MOL0     N27203   9.617  10.370   5.295 -0.4235  0.9160 -0.4667
  198MOL0     C27204   9.684  10.262   5.344  0.2998  0.6839 -0.0486
  198MOL0     C27205   9.814  10.292   5.323  0.2897 -0.2936  0.6185
  198MOL0     C27206   9.916  10.202   5.381 -0.4441  0.5766  0.2044
  198MOL0     C27207  10.054  10.237   5.341  0.0546  0.6679 -1.2325
  198MOL0     C27208  10.138  10.105   5.356  0.3520  0.0714 -0.7166
  198MOL0     C27209  10.285  10.132   5.321 -0.3224 -0.3840  1.0096
  198MOL0     O27210  10.335  10.249   5.386 -0.0257  0.2851  0.5539
  198MOL0     C27211  10.472  10.287   5.363 -0.0631  0.0614 -0.1380
  198MOL0     C27212  10.554  10.203   5.274  0.2896 -0.4515 -1.2957
  198MOL0     C27213  10.682  10.240   5.246  0.5806  0.2716 -1.6957
  198MOL0     C27214  10.750  10.157   5.149 -0.5289  0.5092 -0.5141
  198MOL0     C27215  10.738  10.359   5.307 -0.7472  0.2903 -0.0684
  198MOL0     C27216  10.887  10.392   5.297 -0.3056  0.0628  0.8625
  198MOL0     O27217  10.924  10.489   5.380  0.1143 -0.6269 -0.6690
  198MOL0     C27218  11.053  10.536   5.362 -0.9104  0.1375  0.0713
  198MOL0     C27219  11.174  10.454   5.369  0.2307  0.3433 -0.2245
  198MOL0     C27220  11.301  10.519   5.365 -0.6002 -0.0147  0.0823
  198MOL0     C27221  11.318  10.659   5.346  0.0453  0.0132  1.3844
  198MOL0     O27222  11.434  10.725   5.329 -0.3377  0.1699 -0.8772
  198MOL0     C27223  11.551  10.664   5.392  0.0441  0.3997 -0.0577
  198MOL0     C27224  11.659  10.605   5.295 -0.0415 -1.2965 -0.5068
  198MOL0     C27225  11.782  10.561   5.364  0.0954  0.1937 -0.8238
  198MOL0     C27226  11.824  10.416   5.324  0.3964 -0.5977  0.3026
  198MOL0     C27227  11.978  10.397   5.285  0.3238 -0.3754  0.3701
  198MOL0     C27228  12.011  10.262   5.226  0.3442 -0.3173 -0.3961
  198MOL0     C27229  11.950  10.150   5.314 -0.1125 -0.4012  0.3102
  198MOL0     C27230  11.972  10.015   5.256 -0.8407 -0.1409  0.2037
  198MOL0    Cl27231  11.926   9.895   5.380  0.2436 -0.4256  0.4533
  198MOL0     C27232  11.196  10.735   5.342  0.1130 -0.6405 -0.3882
  198MOL0     C27233  11.069  10.674   5.346  0.0309 -0.0665  0.6452
  198MOL0     O27234  10.951  10.352   5.205  0.1466  0.5006 -0.2389
  198MOL0     C27235  10.657  10.438   5.384  0.0580  0.2969 -0.3304
  198MOL0     C27236  10.524  10.408   5.402  0.1047 -0.7041 -0.9817
  198MOL0     N27237   9.815  10.420   5.265 -0.9032  1.0573  0.4069
  198MOL0     N27238   9.699  10.473   5.254  0.5168 -0.6064 -0.5615
  198MOL0     C27239   8.582  10.756   5.376  0.0695 -0.0318  0.3440
  198MOL0     C27240   8.480  10.818   5.310  0.2149 -0.6167  0.8022
  198MOL0     C27241   8.187  10.969   5.006  0.3473  0.2058  0.4871
  198MOL0     C27242   8.250  11.067   4.928 -0.3891  0.0741 -0.8554
  198MOL0     C27243   8.166  11.144   4.837 -0.9049  0.1930  0.0367
  198MOL0     C27244   8.033  11.106   4.807 -0.2485  0.0194 -0.5189
  198MOL0     O27245   7.950  11.177   4.714  0.5771 -0.0948 -0.3368
  198MOL0     C27246   8.012  11.290   4.654  0.3538  0.7346 -0.4018
  198MOL0     C27247   7.922  11.379   4.570  0.4090  0.9534 -0.1663
  198MOL0     C27248   7.875  11.291   4.451 -0.6212  0.1474 -0.1379
  198MOL0     C27249   7.768  11.358   4.369 -0.6670 -0.6803 -0.5109
  198MOL0     C27250   7.745  11.294   4.239 -0.2430 -0.4348 -1.3557
  198MOL0     C27251   7.736  11.254   4.126 -0.6645 -0.0626  0.4226
  198MOL0     C27252   7.982  11.001   4.889 -0.6279  0.5943  0.4509
  198MOL0     C27253   8.048  10.936   4.986  0.0051  0.1007  0.7030
  198MOL0     C27254   7.980  10.833   5.068 -0.5080  0.5020 -0.7635
  198MOL0     H27255   8.647  10.883   5.033 -1.0267 -0.8423 -0.9036
  198MOL0     H27256   8.841  10.799   5.170 -0.9950 -2.3432 -1.9479
  198MOL0     H27257   8.690  10.508   5.407  0.1347 -1.7798  2.0794
  198MOL0     H27258   8.784  10.567   5.555 -1.5054 -0.5203 -0.3584
  198MOL0     H27259   8.845  10.356   5.438 -0.0442 -0.7414 -0.7185
  198MOL0     H27260   8.881  10.452   5.296  0.1572 -0.3705 -0.3659
  198MOL0     H27261   9.015  10.596   5.475  0.4338  0.6651  2.7405
  198MOL0     H27262   9.023  10.437   5.562 -2.0097 -1.3480 -1.9925
  198MOL0     H27263   9.096  10.513   5.272  1.2224 -2.6545 -2.4223
  198MOL0     H27264   9.218  10.499   5.393 -1.0369  0.1547  0.9646
  198MOL0     H27265   9.053  10.252   5.310  0.9789 -1.9187 -0.7187
  198MOL0     H27266   9.170  10.266   5.439  0.2761  0.3526  0.3260
  198MOL0     H27267   9.201  10.195   5.174  2.1352 -1.5290  2.3131
  198MOL0     H27268   9.235  10.370   5.162  0.5731  0.0513  0.0322
  198MOL0     H27269   9.426  10.207   5.174 -0.9611 -1.8644 -0.4223
  198MOL0     H27270   9.411  10.174   5.337  1.9560  1.5377  1.2387
  198MOL0     H27271   9.434  10.477   5.261  1.5207  2.0105  2.4666
  198MOL0     H27272   9.443  10.400   5.415  0.7298 -1.3626  0.8083
  198MOL0     H27273   9.660  10.164   5.385  0.9564  0.5283 -0.0283
  198MOL0     H27274   9.888  10.107   5.335  1.0162 -0.0394  0.5262
  198MOL0     H27275   9.904  10.204   5.490 -0.2347  0.6601  0.2256
  198MOL0     H27276  10.055  10.264   5.235  0.4200  3.5318 -0.5956
  198MOL0     H27277  10.099  10.317   5.400  2.3189 -1.7694  0.5633
  198MOL0     H27278  10.128  10.067   5.458  2.0000  0.5935 -0.3333
  198MOL0     H27279  10.095  10.024   5.297 -2.7398  1.3705 -0.4415
  198MOL0     H27280  10.344  10.047   5.356 -0.0712  0.8096  3.8216
  198MOL0     H27281  10.303  10.129   5.213 -1.2371  1.2267  0.7820
  198MOL0     H27282  10.516  10.106   5.245  0.7296 -0.9866 -0.1460
  198MOL0     H27283  10.760  10.217   5.058  0.1022  0.4056 -0.5201
  198MOL0     H27284  10.697  10.063   5.127 -1.2233 -1.1433  6.1926
  198MOL0     H27285  10.850  10.124   5.181 -0.8474 -0.8981 -0.9027
  198MOL0     H27286  11.167  10.347   5.385 -1.0095  0.8512  3.7406
  198MOL0     H27287  11.386  10.452   5.374 -1.9234 -1.8152 -0.2894
  198MOL0     H27288  11.612  10.740   5.443  1.2783  0.1911 -1.1819
  198MOL0     H27289  11.525  10.593   5.471  0.3955  0.9096  0.5206
  198MOL0     H27290  11.614  10.524   5.237 -3.0816 -0.7420  0.8919
  198MOL0     H27291  11.691  10.685   5.228  1.8717 -1.2975  0.3363
  198MOL0     H27292  11.767  10.560   5.473  1.3340 -0.3155 -0.6378
  198MOL0     H27293  11.867  10.629   5.353 -0.7868  1.5747  0.4394
  198MOL0     H27294  11.762  10.387   5.239  1.7458 -1.9104 -0.2736
  198MOL0     H27295  11.796  10.351   5.407  2.2790 -1.1696  0.5469
  198MOL0     H27296  12.009  10.473   5.214  1.3900  0.4555  1.6751
  198MOL0     H27297  12.037  10.410   5.376  2.9436  0.0896 -1.2958
  198MOL0     H27298  12.120  10.267   5.234  0.1395  1.4814  2.2270
  198MOL0     H27299  11.982  10.250   5.121  1.7376 -2.6833 -0.5924
  198MOL0     H27300  11.843  10.173   5.323 -0.0412 -0.3571  1.1339
  198MOL0     H27301  11.999  10.151   5.411  0.3164  0.7300  0.1004
  198MOL0     H27302  12.079  10.009   5.231 -0.2777  3.2155  1.2862
  198MOL0     H27303  11.910  10.004   5.166 -0.4715 -0.7115  0.0128
  198MOL0     H27304  11.218  10.841   5.340  0.3023 -0.5754  2.2847
  198MOL0     H27305  10.983  10.741   5.348 -0.4254 -0.6418  2.6109
  198MOL0     H27306  10.702  10.527   5.428  1.8077 -0.4165 -0.5935
  198MOL0     H27307  10.459  10.462   5.469  0.3710 -1.7421  0.1544
  198MOL0     H27308   8.571  10.711   5.474  2.4215 -3.5859 -0.8154
  198MOL0     H27309   8.387  10.831   5.365 -0.2983 -0.3554 -0.0871
  198MOL0     H27310   8.355  11.094   4.927 -0.5600  0.7257 -1.4829
  198MOL0     H27311   8.221  11.229   4.797 -0.1478  0.2755  1.2122
  198MOL0     H27312   8.044  11.347   4.742 -2.4730  0.8208  0.6845
  198MOL0     H27313   8.103  11.265   4.599  0.2913  0.7781 -0.5245
  198MOL0     H27314   7.983  11.459   4.527  1.2943 -0.8045 -2.3636
  198MOL0     H27315   7.838  11.415   4.630 -1.2267 -3.3941  0.4435
  198MOL0     H27316   7.959  11.256   4.391 -1.1158 -1.4497  0.0404
  198MOL0     H27317   7.826  11.196   4.477  0.3296 -1.2634 -3.1046
  198MOL0     H27318   7.799  11.460   4.343 -0.1232 -0.0118  2.3924
  198MOL0     H27319   7.673  11.361   4.422  1.0639  1.8954  2.8562
  198MOL0     H27320   7.723  11.210   4.030  0.9285 -0.7160  0.4829
  198MOL0     H27321   7.874  10.990   4.880 -0.7469  2.0551 -0.3174
  198MOL0     H27322   7.953  10.886   5.160 -1.3718 -0.7317 -0.2770
  198MOL0     H27323   7.890  10.798   5.016 -0.2731  1.9588 -2.2354
  198MOL0     H27324   8.052  10.756   5.095 -2.5763 -0.2828  3.1639
  199MOL0     O27325   6.801   7.512   0.856 -0.4481 -0.2840  0.4039
  199MOL0     C27326   6.727   7.478   0.950 -0.0156  0.6838 -0.6138
  199MOL0     O27327   6.759   7.392   1.045  0.1204 -0.1037 -0.1254
  199MOL0     C27328   6.886   7.341   1.046 -0.7410  0.3277  0.0052
  199MOL0     C27329   6.925   7.262   0.928 -0.4423  0.3311  0.9496
  199MOL0     C27330   7.055   7.212   0.913  0.0508 -0.9132  0.6068
  199MOL0     C27331   7.154   7.256   0.999 -0.3126 -0.2841  0.0606
  199MOL0     O27332   7.283   7.214   0.998 -0.3439  0.2319 -0.1569
  199MOL0     C27333   7.318   7.082   0.944 -0.3501 -0.8666 -0.3514
  199MOL0     C27334   7.465   7.063   0.960 -0.2103 -0.2696  0.1014
  199MOL0     C27335   7.517   6.942   0.885 -0.0899 -0.5370  0.0409
  199MOL0     C27336   7.493   6.923   0.732 -0.1348 -0.4483 -0.6043
  199MOL0     C27337   7.558   6.789   0.685  0.2222 -0.0535 -0.6166
  199MOL0     C27338   7.566   6.782   0.528  0.7326 -0.6790 -0.4098
  199MOL0     C27339   7.597   6.650   0.470  0.1166 -0.2565 -0.5552
  199MOL0     C27340   7.520   6.533   0.511 -0.3050  0.5059  0.3728
  199MOL0     N27341   7.373   6.546   0.495 -0.9972 -0.4701  0.0328
  199MOL0     C27342   7.277   6.634   0.545 -0.5639  0.3184 -0.2199
  199MOL0     C27343   7.164   6.601   0.490 -0.5032  0.6220 -0.1424
  199MOL0     C27344   7.029   6.668   0.510 -0.4455 -0.5630  0.6493
  199MOL0     C27345   7.009   6.797   0.433 -0.8157 -0.0954 -0.2149
  199MOL0     C27346   7.061   6.923   0.510 -0.2854 -0.6254  0.5907
  199MOL0     C27347   7.064   7.046   0.416  0.2377 -0.2839  1.0845
  199MOL0     O27348   7.095   7.166   0.492  0.5488  0.4335  1.5304
  199MOL0     C27349   7.227   7.202   0.516 -0.4055  0.4054  0.6319
  199MOL0     C27350   7.246   7.303   0.607 -0.3856  0.1560  0.1419
  199MOL0     C27351   7.378   7.355   0.648 -0.0090  0.0062 -0.2675
  199MOL0     C27352   7.391   7.479   0.729 -0.3111 -0.6944 -0.0305
  199MOL0     C27353   7.492   7.289   0.596 -0.4054  0.8778  0.9744
  199MOL0     C27354   7.636   7.307   0.641 -0.6524  0.9631 -0.5145
  199MOL0     O27355   7.742   7.251   0.571 -0.4816  0.4913 -0.1983
  199MOL0     C27356   7.870   7.255   0.617 -0.4351 -0.3820  0.0420
  199MOL0     C27357   7.937   7.373   0.665  0.2108  0.3755  1.3293
  199MOL0     C27358   8.074   7.377   0.691  0.0424 -0.6575 -0.7594
  199MOL0     C27359   8.142   7.266   0.706 -1.5599  0.3129  0.1451
  199MOL0     O27360   8.273   7.255   0.756 -0.1304 -0.2614  0.4558
  199MOL0     C27361   8.304   7.343   0.866  0.3480  0.0748  0.5882
  199MOL0     C27362   8.435   7.302   0.933  0.3640  0.7081  0.2676
  199MOL0     C27363   8.422   7.159   0.996  0.1640 -0.1685 -0.0829
  199MOL0     C27364   8.564   7.120   1.047 -0.2830  0.4462 -0.1165
  199MOL0     C27365   8.558   7.063   1.191 -0.0926  0.6509  0.4119
  199MOL0     C27366   8.580   7.164   1.303  0.0666 -0.2444 -0.4607
  199MOL0     C27367   8.621   7.089   1.427  0.6109  0.8378  0.1624
  199MOL0     C27368   8.704   7.174   1.517 -0.4162  0.5677 -0.3258
  199MOL0    Cl27369   8.598   7.265   1.635 -0.0294  0.2098  0.0431
  199MOL0     C27370   8.084   7.141   0.682 -0.0814 -0.7467  0.5641
  199MOL0     C27371   7.952   7.143   0.621 -0.3005  0.4217  0.7410
  199MOL0     O27372   7.648   7.376   0.739 -0.5757  0.5388 -0.7232
  199MOL0     C27373   7.469   7.182   0.503 -0.5231  0.3831 -0.0420
  199MOL0     C27374   7.345   7.137   0.467 -0.5615  0.4990  0.2515
  199MOL0     N27375   7.188   6.496   0.410 -0.1168 -0.1205 -0.3674
  199MOL0     N27376   7.306   6.452   0.420  1.1797  0.1682  0.4247
  199MOL0     C27377   7.118   7.327   1.121 -0.2222 -0.4457 -0.4596
  199MOL0     C27378   6.984   7.375   1.141 -0.1654 -1.1035  0.3636
  199MOL0     C27379   6.585   7.544   0.955 -0.2188 -0.1152  0.4950
  199MOL0     C27380   6.546   7.609   1.075  0.6104 -1.2636 -0.0260
  199MOL0     C27381   6.419   7.672   1.083 -1.0885 -1.1783  0.8061
  199MOL0     C27382   6.339   7.682   0.966 -0.0574  1.1433 -0.4900
  199MOL0     O27383   6.221   7.748   0.977 -0.5103  1.1279 -0.2687
  199MOL0     C27384   6.132   7.719   1.095 -0.6261 -0.1103 -0.1104
  199MOL0     C27385   5.991   7.744   1.059 -0.0758 -0.5012  0.0951
  199MOL0     C27386   5.970   7.883   1.008  0.0517  0.1612 -0.3660
  199MOL0     C27387   5.827   7.904   0.949 -0.6652  0.4043 -0.7627
  199MOL0     C27388   5.744   7.938   1.061 -0.3313  1.1534  0.9501
  199MOL0     C27389   5.661   7.970   1.138 -0.1479  0.6218  0.4447
  199MOL0     C27390   6.376   7.625   0.843 -0.1800  1.6094 -0.3286
  199MOL0     C27391   6.497   7.548   0.836 -0.2975  0.3477 -0.0757
  199MOL0     C27392   6.546   7.496   0.702  0.3607  0.5104  0.5890
  199MOL0     H27393   6.852   7.233   0.853  0.0013 -1.5130  1.1682
  199MOL0     H27394   7.084   7.147   0.831 -0.0305 -3.1671  2.2833
  199MOL0     H27395   7.296   7.082   0.837 -1.4377 -1.0644 -0.1408
  199MOL0     H27396   7.254   6.997   0.970 -1.2782 -0.3539 -0.9103
  199MOL0     H27397   7.519   7.151   0.924 -0.1363  0.2456  1.4290
  199MOL0     H27398   7.491   7.061   1.066  4.5533 -0.1003 -0.8686
  199MOL0     H27399   7.621   6.934   0.919 -0.7295 -1.3824  1.9104
  199MOL0     H27400   7.474   6.851   0.927  0.4730 -2.8033 -3.7787
  199MOL0     H27401   7.384   6.925   0.719 -0.0464  2.4574 -1.7930
  199MOL0     H27402   7.532   7.013   0.682 -0.4675  0.1804  0.2448
  199MOL0     H27403   7.484   6.718   0.724 -2.7017  2.0567 -1.9635
  199MOL0     H27404   7.655   6.785   0.735  0.7132 -1.1128 -1.6083
  199MOL0     H27405   7.466   6.804   0.491  0.1060 -1.5624  0.7050
  199MOL0     H27406   7.634   6.854   0.482 -1.7687  1.6519 -0.6734
  199MOL0     H27407   7.702   6.645   0.501 -0.9736  0.2048  3.9740
  199MOL0     H27408   7.602   6.663   0.362  2.5085  3.4711 -0.1848
  199MOL0     H27409   7.544   6.444   0.451 -1.5522 -0.2486  0.9391
  199MOL0     H27410   7.533   6.512   0.618 -3.2593  0.8165  0.8972
  199MOL0     H27411   7.290   6.706   0.625  1.6225 -0.4043  0.1379
  199MOL0     H27412   7.011   6.691   0.616 -0.0348  0.3666  0.5256
  199MOL0     H27413   6.950   6.599   0.480 -1.6231  1.5957 -1.5143
  199MOL0     H27414   7.073   6.793   0.344 -0.7562  2.1513 -0.3362
  199MOL0     H27415   6.905   6.819   0.404 -0.5772  0.5479 -0.6000
  199MOL0     H27416   6.991   6.953   0.589 -0.3834  3.1942 -0.7100
  199MOL0     H27417   7.157   6.902   0.556  0.0555 -2.1043 -0.7140
  199MOL0     H27418   7.130   7.045   0.328  1.5045 -0.1826  2.0104
  199MOL0     H27419   6.960   7.049   0.382  0.5368 -3.2435 -0.4259
  199MOL0     H27420   7.164   7.363   0.646 -1.1794 -1.8593  1.7601
  199MOL0     H27421   7.413   7.449   0.832  0.8824  1.1608  0.3021
  199MOL0     H27422   7.301   7.541   0.733 -0.1502 -0.3217 -1.5201
  199MOL0     H27423   7.469   7.545   0.691  1.8846 -1.9824  1.9759
  199MOL0     H27424   7.882   7.466   0.659  2.9416  2.0746  1.0198
  199MOL0     H27425   8.111   7.478   0.709  1.1567 -1.2018  0.1048
  199MOL0     H27426   8.313   7.444   0.825  2.8594 -0.1038  0.5399
  199MOL0     H27427   8.227   7.351   0.944 -0.3720 -0.0072 -0.0933
  199MOL0     H27428   8.508   7.315   0.852 -0.7231  4.8158 -0.2967
  199MOL0     H27429   8.468   7.386   0.995  0.9568  2.3901 -2.1739
  199MOL0     H27430   8.380   7.086   0.926  0.7614  0.6738 -1.3626
  199MOL0     H27431   8.345   7.158   1.073 -1.3113 -1.3628 -1.4854
  199MOL0     H27432   8.630   7.207   1.044  0.0695  0.1671 -3.2627
  199MOL0     H27433   8.600   7.037   0.986  1.1680 -0.0318  1.3370
  199MOL0     H27434   8.460   7.020   1.214  0.1821 -0.2323  0.0022
  199MOL0     H27435   8.629   6.980   1.199  0.2988  1.0308  0.9401
  199MOL0     H27436   8.489   7.220   1.326  1.0416  1.5972 -0.9180
  199MOL0     H27437   8.651   7.243   1.276 -2.1570  1.0839 -2.8379
  199MOL0     H27438   8.687   7.007   1.396  2.2594  1.0163  2.8988
  199MOL0     H27439   8.528   7.051   1.471  0.3909 -2.5216 -2.7318
  199MOL0     H27440   8.768   7.247   1.466 -2.4538  2.8234  0.1471
  199MOL0     H27441   8.765   7.106   1.576  1.8634  1.8412 -1.1012
  199MOL0     H27442   8.137   7.047   0.696  0.9647 -0.1566  0.7217
  199MOL0     H27443   7.910   7.047   0.594  3.0594 -0.9380 -0.0771
  199MOL0     H27444   7.557   7.134   0.461  1.1500  0.5115  3.0817
  199MOL0     H27445   7.345   7.054   0.397  1.2077 -1.8153  2.7453
  199MOL0     H27446   7.187   7.338   1.204 -1.3893 -0.8362  0.5862
  199MOL0     H27447   6.964   7.432   1.231 -0.9196  0.6055 -0.8377
  199MOL0     H27448   6.604   7.592   1.166  0.9647  0.2291  0.0463
  199MOL0     H27449   6.389   7.705   1.182  1.1729  3.6967  0.1567
  199MOL0     H27450   6.134   7.614   1.124 -1.8653  0.3824  1.9622
  199MOL0     H27451   6.156   7.785   1.179  0.0262  1.7171 -1.6654
  199MOL0     H27452   5.920   7.721   1.139 -0.0826  0.6775  0.4390
  199MOL0     H27453   5.976   7.672   0.978 -1.9184  1.8318 -1.7904
  199MOL0     H27454   5.995   7.950   1.091 -0.9174 -0.8385  0.7723
  199MOL0     H27455   6.039   7.899   0.925  1.5458 -2.8144  0.1906
  199MOL0     H27456   5.785   7.817   0.897 -0.3157  0.1007 -0.5403
  199MOL0     H27457   5.823   7.993   0.885 -2.1338 -0.2041 -1.5714
  199MOL0     H27458   5.581   8.013   1.194 -0.7065  1.1619 -0.7302
  199MOL0     H27459   6.313   7.641   0.756 -0.3346 -2.2523 -1.1266
  199MOL0     H27460   6.630   7.560   0.673 -0.5577  2.0351  1.1746
  199MOL0     H27461   6.591   7.397   0.714  0.5469  0.4361 -0.5873
  199MOL0     H27462   6.463   7.485   0.631 -2.1639 -0.7176  3.4993
  200MOL0     O27463   2.514   6.418   7.848  0.3241  0.6116 -0.3670
  200MOL0     C27464   2.509   6.492   7.755  0.3538  0.0279  0.5913
  200MOL0     O27465   2.611   6.525   7.670  0.5048  0.0924  0.4345
  200MOL0     C27466   2.743   6.478   7.687 -0.1374 -0.2909 -0.4644
  200MOL0     C27467   2.777   6.349   7.725 -0.1312  1.2700  0.7172
  200MOL0     C27468   2.915   6.325   7.751  0.5771 -0.0621  0.3986
  200MOL0     C27469   3.011   6.418   7.742 -0.2085  0.4632 -0.3759
  200MOL0     O27470   3.149   6.399   7.749 -0.3080  0.0043 -0.6417
  200MOL0     C27471   3.197   6.267   7.783 -0.2982 -0.1632  0.3831
  200MOL0     C27472   3.195   6.172   7.665  1.1288 -1.2476 -0.5575
  200MOL0     C27473   3.298   6.060   7.669  0.3866  0.3579  1.1087
  200MOL0     C27474   3.310   5.996   7.532  0.9679 -0.4798  0.8622
  200MOL0     C27475   3.416   5.896   7.489 -0.3904 -0.2957  0.6804
  200MOL0     C27476   3.388   5.837   7.350  0.3569 -0.5038  0.3415
  200MOL0     C27477   3.479   5.722   7.318 -0.2722 -0.2867 -0.1467
  200MOL0     C27478   3.471   5.668   7.172  0.2520 -0.2061 -0.4343
  200MOL0     N27479   3.586   5.576   7.146 -0.0263 -0.1351 -0.2473
  200MOL0     C27480   3.715   5.599   7.121  0.1453 -0.6652  0.1805
  200MOL0     C27481   3.779   5.481   7.135 -0.4101 -0.0173 -0.0791
  200MOL0     C27482   3.918   5.471   7.094 -0.3765 -0.0336 -0.5222
  200MOL0     C27483   3.993   5.460   7.222 -1.6295 -0.6870 -0.5298
  200MOL0     C27484   4.029   5.603   7.269  1.2926 -0.6097 -0.3876
  200MOL0     C27485   4.076   5.604   7.417 -0.4888  0.4556  0.5676
  200MOL0     O27486   4.170   5.489   7.432  0.4616  0.0202  0.5966
  200MOL0     C27487   4.240   5.503   7.548  0.3043 -0.8772  0.1063
  200MOL0     C27488   4.203   5.592   7.650 -0.1529 -0.7218  0.6711
  200MOL0     C27489   4.286   5.602   7.764 -0.4014 -0.6420 -0.0430
  200MOL0     C27490   4.225   5.670   7.883  0.2115 -0.8056  0.7654
  200MOL0     C27491   4.410   5.530   7.774 -0.5911  0.2433  0.7364
  200MOL0     C27492   4.488   5.524   7.889  0.4706  0.2702 -0.7752
  200MOL0     O27493   4.621   5.542   7.877  0.1866  0.3278 -0.0334
  200MOL0     C27494   4.694   5.528   7.985  0.8156  0.3940 -0.2361
  200MOL0     C27495   4.772   5.420   7.998  0.6209 -0.5733  0.4942
  200MOL0     C27496   4.849   5.406   8.119  0.9533 -0.1016 -0.7981
  200MOL0     C27497   4.852   5.508   8.213  0.8720 -0.0498  0.1066
  200MOL0     O27498   4.932   5.506   8.329 -0.7664 -0.1225  0.1272
  200MOL0     C27499   4.987   5.383   8.379  0.3198  0.2747 -0.5189
  200MOL0     C27500   4.898   5.300   8.464 -0.3867 -0.0332 -0.6498
  200MOL0     C27501   4.851   5.386   8.583 -0.3201  0.9954 -0.0130
  200MOL0     C27502   4.771   5.294   8.676 -0.4508 -0.3686 -0.1511
  200MOL0     C27503   4.706   5.363   8.806 -0.6654 -0.0367 -0.2686
  200MOL0     C27504   4.711   5.275   8.936 -0.0444  0.3399  0.5793
  200MOL0     C27505   4.682   5.121   8.919 -0.4787  0.0078 -0.9204
  200MOL0     C27506   4.666   5.056   9.062 -0.2412 -0.0917 -0.3764
  200MOL0    Cl27507   4.824   4.981   9.109  0.0735 -0.1993 -0.4777
  200MOL0     C27508   4.761   5.615   8.211  0.0448  0.3742  0.4739
  200MOL0     C27509   4.682   5.622   8.089  0.2515  0.7400 -0.3681
  200MOL0     O27510   4.437   5.484   7.998 -0.1171 -0.4538  0.8610
  200MOL0     C27511   4.453   5.454   7.667 -0.3651  0.4354 -0.3587
  200MOL0     C27512   4.360   5.435   7.558 -0.3279 -0.1038  0.8270
  200MOL0     N27513   3.688   5.380   7.154  0.1905 -0.0127 -0.0873
  200MOL0     N27514   3.570   5.440   7.170  0.1457  0.1268  0.3344
  200MOL0     C27515   2.974   6.538   7.692  0.5383 -0.7002 -0.2967
  200MOL0     C27516   2.837   6.565   7.667 -0.7782  0.2219 -0.0021
  200MOL0     C27517   2.376   6.551   7.727  0.5172  0.0534 -0.1524
  200MOL0     C27518   2.347   6.610   7.602  0.8323 -0.8116 -0.2606
  200MOL0     C27519   2.222   6.662   7.573  0.1816  0.0617  0.1774
  200MOL0     C27520   2.113   6.662   7.663  0.4553  0.5082  0.4069
  200MOL0     O27521   1.988   6.724   7.643 -0.3665  0.3232 -0.4315
  200MOL0     C27522   1.971   6.843   7.563 -0.8142 -0.1142 -0.1679
  200MOL0     C27523   1.896   6.938   7.654 -0.2738 -0.2577 -0.6271
  200MOL0     C27524   1.751   6.900   7.662  0.1897  0.6976  0.3887
  200MOL0     C27525   1.666   6.961   7.777  0.7610 -0.0456  1.0212
  200MOL0     C27526   1.523   6.936   7.774  1.2220 -0.0943 -0.2530
  200MOL0     C27527   1.405   6.929   7.762  0.3483  0.6056 -0.3529
  200MOL0     C27528   2.142   6.613   7.787 -0.3261  0.3907  0.9456
  200MOL0     C27529   2.261   6.550   7.818 -0.4547 -0.3988  0.1609
  200MOL0     C27530   2.278   6.507   7.962 -0.5098 -0.1091  0.5263
  200MOL0     H27531   2.696   6.279   7.741  0.3894  0.4108 -0.3244
  200MOL0     H27532   2.940   6.221   7.771  2.1106  0.6035  2.2434
  200MOL0     H27533   3.143   6.216   7.864 -2.5664 -2.0340 -2.1348
  200MOL0     H27534   3.301   6.271   7.817 -1.1932  0.6252  3.3648
  200MOL0     H27535   3.103   6.119   7.689  0.7878 -0.1125  0.7552
  200MOL0     H27536   3.190   6.232   7.574  0.2971 -0.3955  0.0387
  200MOL0     H27537   3.393   6.106   7.698  0.9268  1.0158 -1.4483
  200MOL0     H27538   3.278   5.983   7.743 -0.7426  1.0792  1.5721
  200MOL0     H27539   3.212   5.968   7.493  1.8646 -0.1173 -1.8513
  200MOL0     H27540   3.321   6.080   7.462  0.7704 -1.6256 -0.5933
  200MOL0     H27541   3.430   5.810   7.556  3.3159 -1.6770 -1.5517
  200MOL0     H27542   3.504   5.957   7.468 -2.8904  2.9561 -1.2255
  200MOL0     H27543   3.291   5.788   7.338  1.5754 -3.4838  1.6672
  200MOL0     H27544   3.388   5.922   7.281 -1.5929  2.1115  3.2761
  200MOL0     H27545   3.458   5.633   7.378  1.1703 -0.8911 -0.4952
  200MOL0     H27546   3.584   5.749   7.336  0.3023 -2.5397  0.1370
  200MOL0     H27547   3.378   5.614   7.154 -1.1193  2.2243 -1.2162
  200MOL0     H27548   3.473   5.751   7.100 -0.3517 -0.8729 -1.2458
  200MOL0     H27549   3.771   5.688   7.094 -0.1716 -0.2758  0.7809
  200MOL0     H27550   3.956   5.554   7.034  2.2032 -0.9995 -0.3279
  200MOL0     H27551   3.934   5.379   7.037 -1.3656 -0.2853 -0.4212
  200MOL0     H27552   3.935   5.413   7.303 -1.0863  1.2568  1.0577
  200MOL0     H27553   4.086   5.406   7.202 -1.1232 -0.1372  0.2675
  200MOL0     H27554   4.111   5.639   7.206  1.5500  0.1614  0.3704
  200MOL0     H27555   3.946   5.673   7.261  1.9505 -0.0269 -4.4154
  200MOL0     H27556   4.131   5.697   7.433  1.3944 -0.1544 -1.7377
  200MOL0     H27557   3.988   5.603   7.482 -2.3747  3.4381 -1.6376
  200MOL0     H27558   4.119   5.659   7.657  0.0552 -0.3569 -0.1703
  200MOL0     H27559   4.205   5.594   7.959  2.6836 -1.6533  0.6615
  200MOL0     H27560   4.132   5.717   7.851 -1.0330 -4.8073 -2.4693
  200MOL0     H27561   4.295   5.746   7.917  1.1671 -1.1933 -0.2467
  200MOL0     H27562   4.781   5.341   7.924  0.9137  0.1070 -0.2005
  200MOL0     H27563   4.910   5.317   8.123 -0.3306 -1.1445 -2.6446
  200MOL0     H27564   5.017   5.316   8.298  0.9645 -0.6945  0.4944
  200MOL0     H27565   5.077   5.404   8.437  1.6763 -2.3322 -1.5180
  200MOL0     H27566   4.813   5.258   8.410 -0.3895 -1.9603  0.7213
  200MOL0     H27567   4.956   5.213   8.499 -1.9834 -0.3691  1.3768
  200MOL0     H27568   4.792   5.476   8.563 -0.2777  1.2195  0.8148
  200MOL0     H27569   4.939   5.407   8.644  0.9240 -2.8865 -0.1840
  200MOL0     H27570   4.834   5.208   8.697  0.5963  0.3662 -0.1881
  200MOL0     H27571   4.685   5.257   8.619  0.4463 -3.7775  0.5011
  200MOL0     H27572   4.758   5.455   8.834  1.9383 -1.2154 -0.9218
  200MOL0     H27573   4.606   5.398   8.778 -0.2905 -0.3462 -2.1659
  200MOL0     H27574   4.631   5.307   9.004 -1.6037 -2.7062  0.3390
  200MOL0     H27575   4.809   5.299   8.979 -0.0981  0.6965  0.5018
  200MOL0     H27576   4.761   5.066   8.868  0.5159 -0.9736  1.5457
  200MOL0     H27577   4.587   5.113   8.864  1.0049 -0.8368 -3.5012
  200MOL0     H27578   4.583   4.984   9.070  0.6250 -0.9958  0.8026
  200MOL0     H27579   4.636   5.133   9.132  4.4620  0.5123  1.3463
  200MOL0     H27580   4.757   5.699   8.279 -2.6224 -0.9852  2.1922
  200MOL0     H27581   4.619   5.710   8.085 -3.1523 -1.5199 -2.8902
  200MOL0     H27582   4.549   5.403   7.668 -0.7901 -0.3762  0.1759
  200MOL0     H27583   4.388   5.364   7.482 -0.7949  0.4063  0.1595
  200MOL0     H27584   3.046   6.619   7.681  0.0939 -0.0606  1.2390
  200MOL0     H27585   2.812   6.654   7.611 -2.1835  0.5212  1.0259
  200MOL0     H27586   2.423   6.610   7.525 -0.5616 -0.9847 -1.6791
  200MOL0     H27587   2.205   6.691   7.470  1.9712 -0.3492 -0.2608
  200MOL0     H27588   2.066   6.892   7.542 -1.2216 -0.4844 -3.3835
  200MOL0     H27589   1.918   6.817   7.471  0.1539 -1.7227 -0.3230
  200MOL0     H27590   1.906   7.032   7.600  1.0555 -0.4646 -0.7779
  200MOL0     H27591   1.937   6.940   7.756  0.5163 -2.2944 -0.8596
  200MOL0     H27592   1.706   6.920   7.564  1.0216 -2.3132 -0.7440
  200MOL0     H27593   1.750   6.792   7.680  1.6489  0.7172  0.7133
  200MOL0     H27594   1.677   7.069   7.776 -2.2560  0.3850 -1.4082
  200MOL0     H27595   1.709   6.933   7.874  1.0174 -1.1919  0.6010
  200MOL0     H27596   1.304   6.905   7.734  0.6174 -0.1669 -0.6729
  200MOL0     H27597   2.059   6.610   7.857 -0.9215 -3.8401  0.3014
  200MOL0     H27598   2.298   6.400   7.954 -1.0509 -0.1073 -1.4693
  200MOL0     H27599   2.362   6.569   7.992  1.4807 -1.5281 -1.7305
  200MOL0     H27600   2.184   6.522   8.017 -1.3384 -1.2603 -0.5094
  201MOL0     O27601   2.247  10.272   8.490 -0.2202  0.0839 -0.3163
  201MOL0     C27602   2.229  10.383   8.543  0.4939  0.2529  0.0951
  201MOL0     O27603   2.331  10.463   8.582 -0.0570 -1.2822  0.7843
  201MOL0     C27604   2.457  10.427   8.537 -0.0910  0.3966 -0.7776
  201MOL0     C27605   2.539  10.369   8.634 -0.6321  0.2388 -0.5764
  201MOL0     C27606   2.676  10.349   8.601  0.4597 -1.1952 -0.0271
  201MOL0     C27607   2.740  10.415   8.490  0.7007  0.0730 -0.7139
  201MOL0     O27608   2.869  10.397   8.475  0.2314 -0.8288  0.4888
  201MOL0     C27609   2.922  10.328   8.359  0.4690  0.3433 -0.1136
  201MOL0     C27610   3.081  10.335   8.350 -0.5658  0.3546  0.2416
  201MOL0     C27611   3.127  10.486   8.364 -0.3164  0.7287  0.9349
  201MOL0     C27612   3.283  10.505   8.364  0.5746  0.2730  0.3498
  201MOL0     C27613   3.314  10.653   8.339 -0.4982  0.6993  0.7460
  201MOL0     C27614   3.276  10.731   8.461  1.0152 -1.0153  0.1949
  201MOL0     C27615   3.305  10.879   8.424  0.8174  0.8649  0.6145
  201MOL0     C27616   3.289  10.978   8.542  0.3925  0.0135 -0.1854
  201MOL0     N27617   3.154  10.977   8.586 -0.0642 -0.5387  0.3483
  201MOL0     C27618   3.042  11.009   8.517  0.2158  0.5102  0.3928
  201MOL0     C27619   2.932  10.989   8.602 -0.4630  1.5428  0.1011
  201MOL0     C27620   2.790  11.004   8.570  0.1143  0.5930 -0.0955
  201MOL0     C27621   2.726  10.930   8.451 -1.1212 -0.5728  0.1664
  201MOL0     C27622   2.640  10.813   8.486 -0.3517 -0.4513 -0.2613
  201MOL0     C27623   2.505  10.861   8.547 -0.2094  0.8013 -0.1386
  201MOL0     O27624   2.434  10.938   8.447  0.9843  0.0538 -1.1939
  201MOL0     C27625   2.333  11.028   8.491  0.8569 -0.1832  0.2250
  201MOL0     C27626   2.286  11.035   8.625  0.3547  0.3583 -1.4368
  201MOL0     C27627   2.176  11.119   8.653  0.5852 -0.7313 -0.0767
  201MOL0     C27628   2.123  11.123   8.792  0.4512  0.0432 -0.1617
  201MOL0     C27629   2.125  11.207   8.546  0.1097  0.6162 -0.2443
  201MOL0     C27630   2.024  11.307   8.560 -0.1325 -0.2164 -0.4037
  201MOL0     O27631   1.998  11.384   8.448 -0.5214 -0.3126  0.3732
  201MOL0     C27632   1.912  11.487   8.462 -0.4515  0.2126 -1.2634
  201MOL0     C27633   1.808  11.505   8.375  0.3437  0.3864  0.2664
  201MOL0     C27634   1.733  11.617   8.365  0.3682 -0.2788  1.1842
  201MOL0     C27635   1.751  11.716   8.463  0.3047  0.6090 -0.4694
  201MOL0     O27636   1.700  11.835   8.466  0.2518 -0.7607 -0.2563
  201MOL0     C27637   1.601  11.853   8.361 -0.0679 -0.2142 -0.4507
  201MOL0     C27638   1.523  11.980   8.391  0.5336 -0.3708 -0.5631
  201MOL0     C27639   1.432  12.022   8.276 -0.3619  0.2950 -0.0148
  201MOL0     C27640   1.375  12.166   8.293 -0.1371  0.0571  0.9907
  201MOL0     C27641   1.305  12.200   8.159 -0.2340  0.9034 -0.4757
  201MOL0     C27642   1.276  12.349   8.149 -0.4346  0.2599 -0.2499
  201MOL0     C27643   1.160  12.392   8.245 -0.1479 -0.8839 -0.3980
  201MOL0     C27644   1.108  12.535   8.210 -0.2957  0.0692  0.1205
  201MOL0    Cl27645   1.004  12.545   8.069  0.3631 -0.2543  0.2579
  201MOL0     C27646   1.847  11.701   8.563 -0.3358 -0.0385 -0.7529
  201MOL0     C27647   1.929  11.585   8.557 -0.0549  0.6648  0.4450
  201MOL0     O27648   1.966  11.317   8.668 -0.4545 -0.0650 -0.0609
  201MOL0     C27649   2.180  11.197   8.415 -0.2461  0.0638 -0.6416
  201MOL0     C27650   2.280  11.108   8.392  0.6364  0.5982 -1.1774
  201MOL0     N27651   2.984  10.946   8.719  0.5583  0.1991 -0.4052
  201MOL0     N27652   3.115  10.946   8.712  0.4273 -0.3436 -0.8305
  201MOL0     C27653   2.656  10.476   8.400 -0.0223 -0.6916 -0.5256
  201MOL0     C27654   2.518  10.480   8.422 -0.5310 -0.2329 -0.0696
  201MOL0     C27655   2.090  10.437   8.552 -0.5038 -0.1189 -0.0824
  201MOL0     C27656   2.062  10.556   8.625  0.2105 -0.3472 -0.5950
  201MOL0     C27657   1.945  10.626   8.628 -0.1693  0.8380 -0.4926
  201MOL0     C27658   1.838  10.558   8.570  1.5234 -0.4355  0.2813
  201MOL0     O27659   1.714  10.614   8.559 -0.2272 -0.3166  0.1217
  201MOL0     C27660   1.657  10.669   8.677 -0.1908  0.3041 -0.0011
  201MOL0     C27661   1.509  10.710   8.671  0.4877  1.7971 -0.3790
  201MOL0     C27662   1.465  10.751   8.538  0.2674  0.1966  0.0820
  201MOL0     C27663   1.338  10.841   8.543 -0.7871 -0.3183  0.8701
  201MOL0     C27664   1.215  10.778   8.589  0.1936 -0.1677  0.8892
  201MOL0     C27665   1.118  10.739   8.651  0.6262  1.0389  0.3254
  201MOL0     C27666   1.848  10.438   8.513  0.6590  0.3587  0.3902
  201MOL0     C27667   1.972  10.374   8.501  0.3790 -0.4644  1.1860
  201MOL0     C27668   1.970  10.232   8.446 -0.3812 -0.5446 -1.1463
  201MOL0     H27669   2.508  10.323   8.727  0.8943 -4.2049 -2.0016
  201MOL0     H27670   2.739  10.294   8.670 -0.9126 -2.1637  0.4719
  201MOL0     H27671   2.882  10.374   8.267  2.5836  0.4892 -1.0041
  201MOL0     H27672   2.875  10.230   8.369 -2.8746  1.8608  0.5926
  201MOL0     H27673   3.123  10.264   8.422 -0.2984 -0.4388 -0.6697
  201MOL0     H27674   3.097  10.300   8.248 -0.2071  2.7285 -0.5655
  201MOL0     H27675   3.091  10.542   8.278 -1.1017 -1.0262  0.0534
  201MOL0     H27676   3.087  10.537   8.452 -3.1208  0.1589  0.0807
  201MOL0     H27677   3.321  10.482   8.464 -0.9776  1.9388  1.3729
  201MOL0     H27678   3.331  10.434   8.296 -0.3078 -1.9402  1.9387
  201MOL0     H27679   3.251  10.689   8.257 -3.9012 -2.1418  1.8636
  201MOL0     H27680   3.420  10.663   8.314 -1.0503 -0.4362 -2.5638
  201MOL0     H27681   3.172  10.722   8.491  1.1615  0.6853  1.3668
  201MOL0     H27682   3.334  10.713   8.552  0.7527  0.5447  0.7094
  201MOL0     H27683   3.234  10.901   8.344  1.6924  2.4727  0.2483
  201MOL0     H27684   3.408  10.882   8.386  0.7804  1.7186  0.5750
  201MOL0     H27685   3.362  10.939   8.613  1.8919  1.5998 -0.7825
  201MOL0     H27686   3.333  11.073   8.511  2.3360 -0.0139  2.1657
  201MOL0     H27687   3.022  11.038   8.414 -0.4859  0.7663  0.5938
  201MOL0     H27688   2.770  11.111   8.568 -0.0649  0.5532 -0.8711
  201MOL0     H27689   2.739  10.961   8.656 -0.3472  1.1758 -0.0762
  201MOL0     H27690   2.678  11.007   8.391 -2.4184 -0.6589  1.0669
  201MOL0     H27691   2.803  10.883   8.388 -0.3934  0.5813  0.1533
  201MOL0     H27692   2.620  10.763   8.391 -1.6607 -0.3012 -0.0964
  201MOL0     H27693   2.696  10.750   8.555 -1.9316  0.0833  1.6118
  201MOL0     H27694   2.442  10.776   8.575  1.7418 -0.3072  1.2048
  201MOL0     H27695   2.523  10.918   8.639 -1.6704 -3.2589  2.9651
  201MOL0     H27696   2.330  10.971   8.702 -2.2761 -0.7839 -0.7434
  201MOL0     H27697   2.157  11.035   8.848 -1.2576 -1.5438 -1.4877
  201MOL0     H27698   2.016  11.116   8.774  0.8168 -0.8303 -2.4251
  201MOL0     H27699   2.150  11.213   8.847  1.9028  0.2814 -1.1948
  201MOL0     H27700   1.804  11.422   8.304  0.0104 -1.4712  2.3459
  201MOL0     H27701   1.661  11.612   8.284 -1.1691 -0.5145  2.5038
  201MOL0     H27702   1.663  11.860   8.271 -0.0967  1.5933 -0.3788
  201MOL0     H27703   1.529  11.774   8.342 -1.7299  0.7471  1.4076
  201MOL0     H27704   1.464  11.957   8.480  2.4883 -1.8399  0.4515
  201MOL0     H27705   1.591  12.061   8.420 -0.6214  0.5501 -0.3562
  201MOL0     H27706   1.348  11.955   8.257 -0.1718  0.2354 -0.6926
  201MOL0     H27707   1.493  12.011   8.185  1.3837 -2.8555  1.3796
  201MOL0     H27708   1.457  12.237   8.307 -0.2974  0.7003 -1.0186
  201MOL0     H27709   1.310  12.165   8.381  1.1326 -3.2991  2.0657
  201MOL0     H27710   1.370  12.170   8.076 -0.6192  0.9682 -0.8016
  201MOL0     H27711   1.213  12.144   8.138 -0.9871  1.8749  0.1980
  201MOL0     H27712   1.253  12.371   8.044 -0.8033  1.0529 -0.0062
  201MOL0     H27713   1.366  12.403   8.180 -0.0886 -2.1341  3.5641
  201MOL0     H27714   1.211  12.401   8.341 -0.6767  3.6178 -0.3143
  201MOL0     H27715   1.073  12.326   8.250 -0.0603 -0.9480  0.3450
  201MOL0     H27716   1.203  12.589   8.196  3.0570 -4.7145  1.7973
  201MOL0     H27717   1.055  12.578   8.295  1.4113  0.1099  1.2121
  201MOL0     H27718   1.863  11.776   8.640  1.5385 -0.6397 -0.5148
  201MOL0     H27719   2.020  11.583   8.616 -1.5939 -0.5276  2.9590
  201MOL0     H27720   2.139  11.260   8.337 -0.7444 -0.0775 -0.4960
  201MOL0     H27721   2.313  11.115   8.289 -1.2547  0.2818 -1.8527
  201MOL0     H27722   2.696  10.528   8.313  0.7276  1.8949  1.2750
  201MOL0     H27723   2.462  10.531   8.345  1.6997 -0.3843 -1.8644
  201MOL0     H27724   2.150  10.607   8.665  1.7976 -0.3133 -3.8469
  201MOL0     H27725   1.942  10.730   8.660  0.9385  2.4014 -4.8694
  201MOL0     H27726   1.666  10.595   8.757 -0.1471  0.6959  0.3559
  201MOL0     H27727   1.708  10.761   8.706  0.4773 -0.3707  0.9997
  201MOL0     H27728   1.509  10.795   8.740  2.9857 -1.9692  4.9450
  201MOL0     H27729   1.449  10.628   8.711  0.8687  1.9124  0.4531
  201MOL0     H27730   1.551  10.808   8.500  1.3733 -2.0575 -0.9883
  201MOL0     H27731   1.466  10.657   8.483  3.4544  0.9435 -1.3966
  201MOL0     H27732   1.318  10.876   8.441 -0.6218  0.0865  0.9747
  201MOL0     H27733   1.357  10.919   8.617 -2.9071 -1.1754  2.4133
  201MOL0     H27734   1.039  10.700   8.712  1.0207 -1.2313 -0.5253
  201MOL0     H27735   1.763  10.410   8.451  0.4441  1.2144  0.2781
  201MOL0     H27736   2.013  10.229   8.346  0.7861  1.6757 -0.7857
  201MOL0     H27737   2.027  10.168   8.513 -1.0002 -0.5231 -0.5844
  201MOL0     H27738   1.864  10.212   8.430 -0.6526 -1.3068  1.2659
  202MOL0     O27739   5.502   3.864   9.310 -0.1343  0.3380 -0.3627
  202MOL0     C27740   5.420   3.949   9.286  0.0920  0.0790  0.0315
  202MOL0     O27741   5.420   4.076   9.339 -0.0677 -0.3054  0.5689
  202MOL0     C27742   5.501   4.098   9.444 -0.2296 -0.0418  0.2452
  202MOL0     C27743   5.436   4.096   9.564 -0.2970  0.5069 -1.1991
  202MOL0     C27744   5.514   4.127   9.677  0.5615 -0.2077 -0.7796
  202MOL0     C27745   5.647   4.174   9.659  0.2336  1.0115 -0.3422
  202MOL0     O27746   5.700   4.218   9.777  0.0133  0.2073  0.2779
  202MOL0     C27747   5.843   4.245   9.793 -0.5398  0.2863 -0.0783
  202MOL0     C27748   5.885   4.270   9.941  1.1775  0.1903  1.9717
  202MOL0     C27749   5.964   4.162  10.000  0.4731 -0.4901 -0.5636
  202MOL0     C27750   5.887   4.028  10.039  0.6720 -0.6081  0.5764
  202MOL0     C27751   5.990   3.927  10.083  0.0045  0.0922  0.6721
  202MOL0     C27752   5.917   3.817  10.162 -0.3769  0.0713 -0.1659
  202MOL0     C27753   6.001   3.701  10.181 -0.1337  0.5689  1.3524
  202MOL0     C27754   5.945   3.594  10.263 -1.0531 -0.2032 -0.7141
  202MOL0     N27755   6.049   3.533  10.347 -1.1294 -0.0552 -0.2118
  202MOL0     C27756   6.130   3.439  10.300 -0.8089  0.2193  0.5764
  202MOL0     C27757   6.237   3.425  10.380  0.6491  0.0321  0.6159
  202MOL0     C27758   6.359   3.337  10.349  0.1349  0.1269 -0.5377
  202MOL0     C27759   6.491   3.418  10.340 -0.2116  0.6388 -0.0565
  202MOL0     C27760   6.621   3.333  10.366  0.6520 -0.0921 -0.0779
  202MOL0     C27761   6.653   3.231  10.260  0.4621 -0.3191  0.4171
  202MOL0     O27762   6.739   3.132  10.318 -0.0313 -0.0485  0.6772
  202MOL0     C27763   6.867   3.160  10.359 -0.7080 -0.0873  0.8619
  202MOL0     C27764   6.967   3.183  10.264 -1.3586 -0.2301  0.0092
  202MOL0     C27765   7.100   3.213  10.304  0.8985  0.7201  0.1201
  202MOL0     C27766   7.198   3.242  10.196 -0.4665 -0.2469  0.1361
  202MOL0     C27767   7.134   3.210  10.445 -0.7144 -0.2987  0.5081
  202MOL0     C27768   7.263   3.226  10.497  0.0493 -0.6298  0.0145
  202MOL0     O27769   7.303   3.145  10.604 -0.1326  0.3650 -0.2398
  202MOL0     C27770   7.423   3.159  10.667  0.0877  0.6346 -0.2099
  202MOL0     C27771   7.545   3.194  10.612 -0.3319  0.3960 -0.0285
  202MOL0     C27772   7.662   3.194  10.677 -1.0739 -0.4662 -1.0986
  202MOL0     C27773   7.661   3.186  10.820  0.4582  0.6074  0.4086
  202MOL0     O27774   7.764   3.198  10.906  0.0843 -0.3180  0.4829
  202MOL0     C27775   7.880   3.290  10.870  0.8804  0.9240 -0.9016
  202MOL0     C27776   7.998   3.284  10.970 -0.8177 -0.8280  0.2032
  202MOL0     C27777   8.127   3.324  10.904 -0.4843  1.4105 -0.0654
  202MOL0     C27778   8.225   3.339  11.022  0.2636  0.0324  0.8589
  202MOL0     C27779   8.366   3.373  10.975  0.4188  0.7322 -0.1709
  202MOL0     C27780   8.437   3.472  11.064 -0.5757 -0.2940  0.0229
  202MOL0     C27781   8.496   3.409  11.194  0.6699  1.1096 -0.0499
  202MOL0     C27782   8.568   3.509  11.269  0.1324  0.4490  0.0453
  202MOL0    Cl27783   8.581   3.441  11.430 -0.2346 -0.5596 -0.4766
  202MOL0     C27784   7.541   3.146  10.879 -0.2114 -0.0047 -0.5401
  202MOL0     C27785   7.431   3.125  10.803 -0.0069  0.3114 -0.6549
  202MOL0     O27786   7.333   3.319  10.446 -0.0212 -0.6592 -0.6577
  202MOL0     C27787   7.026   3.187  10.534  0.3941  1.0403 -0.3778
  202MOL0     C27788   6.895   3.162  10.495 -1.1212 -0.7159  0.1864
  202MOL0     N27789   6.223   3.513  10.480 -0.2144  0.3229  0.4405
  202MOL0     N27790   6.115   3.576  10.466 -0.0235 -0.0443  0.1892
  202MOL0     C27791   5.716   4.168   9.538  0.5111  0.5121  0.9142
  202MOL0     C27792   5.639   4.118   9.419  0.4059  0.0583 -0.4042
  202MOL0     C27793   5.300   3.912   9.205  0.1304  0.3447 -0.0701
  202MOL0     C27794   5.212   4.017   9.158 -0.0626  0.0954  0.1717
  202MOL0     C27795   5.115   3.979   9.066  0.7350 -0.0846  0.4481
  202MOL0     C27796   5.076   3.842   9.039  1.1904 -0.2401 -0.0090
  202MOL0     O27797   4.968   3.804   8.963 -0.3786 -0.6177 -0.0355
  202MOL0     C27798   4.866   3.891   8.913 -0.2724 -0.4110  0.2149
  202MOL0     C27799   4.722   3.869   8.956 -0.1894  0.0782  0.3611
  202MOL0     C27800   4.674   3.721   8.914  0.2808 -0.1679 -0.6311
  202MOL0     C27801   4.539   3.676   8.947  0.5622 -0.1714  0.5280
  202MOL0     C27802   4.531   3.534   8.926 -0.2323 -0.9456 -0.2937
  202MOL0     C27803   4.536   3.417   8.900 -0.1422  0.6875 -0.0472
  202MOL0     C27804   5.155   3.752   9.101  0.3993  0.0382  0.4646
  202MOL0     C27805   5.267   3.779   9.178  0.4823 -0.0995  0.0217
  202MOL0     C27806   5.338   3.659   9.230 -0.9811  0.5179 -0.5127
  202MOL0     H27807   5.330   4.073   9.568 -0.0557 -1.3326 -3.4645
  202MOL0     H27808   5.474   4.112   9.777  1.5256  1.7837 -0.0549
  202MOL0     H27809   5.869   4.335   9.735  1.9570 -0.0700  0.3653
  202MOL0     H27810   5.898   4.167   9.740 -3.7913 -0.8185 -2.1718
  202MOL0     H27811   5.937   4.366   9.931  1.3988 -0.0276  0.9154
  202MOL0     H27812   5.805   4.289  10.014  0.2423 -0.6786  1.1930
  202MOL0     H27813   6.037   4.131   9.925  0.8446 -0.6942 -0.1227
  202MOL0     H27814   6.023   4.194  10.086  0.9442 -0.4997 -0.8830
  202MOL0     H27815   5.816   4.046  10.121  0.4330  2.7620 -0.1932
  202MOL0     H27816   5.827   3.987   9.958  1.6971  1.0034 -1.0736
  202MOL0     H27817   6.063   3.982  10.143 -2.1722  0.3800  3.2368
  202MOL0     H27818   6.046   3.882  10.001 -0.9262 -1.9006  1.0585
  202MOL0     H27819   5.882   3.864  10.254 -2.5691 -0.1435 -0.8249
  202MOL0     H27820   5.832   3.783  10.102 -0.6511  0.5538 -0.0612
  202MOL0     H27821   6.095   3.740  10.221  1.3734 -1.2309 -0.2438
  202MOL0     H27822   6.030   3.660  10.084  1.2907  2.7719  0.7890
  202MOL0     H27823   5.883   3.653  10.331  1.0552 -1.4257  2.4847
  202MOL0     H27824   5.890   3.520  10.203 -1.7269 -0.4020  0.1254
  202MOL0     H27825   6.126   3.389  10.203 -1.7391  2.1570 -0.4423
  202MOL0     H27826   6.347   3.287  10.252  0.0736  1.2188 -1.1076
  202MOL0     H27827   6.367   3.256  10.422 -0.0455  1.3886  0.9194
  202MOL0     H27828   6.497   3.464  10.242  0.4519  0.4047 -0.1318
  202MOL0     H27829   6.491   3.489  10.423 -4.1782  0.6512  0.0819
  202MOL0     H27830   6.707   3.399  10.377  0.3649 -0.0673  2.7415
  202MOL0     H27831   6.618   3.294  10.468 -0.7680 -0.1671 -0.1216
  202MOL0     H27832   6.564   3.183  10.217  2.0907 -6.0748  2.5660
  202MOL0     H27833   6.699   3.277  10.172  1.5823 -0.0048  1.1422
  202MOL0     H27834   6.958   3.160  10.158  0.2398 -0.3639 -0.1270
  202MOL0     H27835   7.220   3.348  10.213  1.6225 -0.8730  1.8041
  202MOL0     H27836   7.162   3.211  10.098  0.1673 -1.7924  0.3655
  202MOL0     H27837   7.286   3.182  10.222 -1.2584 -0.7039  1.9351
  202MOL0     H27838   7.534   3.211  10.505 -2.7513 -1.1102 -0.0878
  202MOL0     H27839   7.753   3.215  10.622  0.4729 -1.2319  0.9981
  202MOL0     H27840   7.910   3.252  10.772 -1.9785 -0.2405 -1.4375
  202MOL0     H27841   7.845   3.393  10.860 -0.6114  0.3431 -2.2607
  202MOL0     H27842   7.979   3.334  11.066  2.6539 -0.2414  0.7198
  202MOL0     H27843   8.019   3.179  10.993  1.6560 -0.1086  1.6001
  202MOL0     H27844   8.119   3.420  10.852 -2.0113 -0.3095 -3.2419
  202MOL0     H27845   8.171   3.249  10.838  4.2826  1.9120  2.1034
  202MOL0     H27846   8.226   3.251  11.088  2.7151 -3.3626 -3.2174
  202MOL0     H27847   8.185   3.412  11.093 -3.1063 -2.6300  2.0007
  202MOL0     H27848   8.425   3.281  10.966 -1.4357 -0.2997 -3.4161
  202MOL0     H27849   8.361   3.430  10.882 -2.2772  1.3708  0.2798
  202MOL0     H27850   8.378   3.563  11.081  3.8948  3.0051 -0.3168
  202MOL0     H27851   8.532   3.501  11.018  0.7510 -2.9194  0.9255
  202MOL0     H27852   8.564   3.325  11.174  1.1867  1.6621 -0.6851
  202MOL0     H27853   8.413   3.362  11.247  0.0562  0.2281 -1.7309
  202MOL0     H27854   8.517   3.604  11.286 -1.3233 -0.4064  0.6010
  202MOL0     H27855   8.666   3.525  11.222  0.7866  0.4259  1.3434
  202MOL0     H27856   7.539   3.130  10.987  2.2696 -0.0538 -0.4301
  202MOL0     H27857   7.340   3.097  10.857  0.4989  0.1585  0.1366
  202MOL0     H27858   7.039   3.184  10.642 -0.3644  0.1919 -0.3027
  202MOL0     H27859   6.818   3.148  10.571 -1.4695 -1.0962 -0.2325
  202MOL0     H27860   5.820   4.198   9.533  0.9202 -0.5844  2.1899
  202MOL0     H27861   5.681   4.110   9.319  0.3715  0.0167 -0.4156
  202MOL0     H27862   5.233   4.122   9.177 -2.3488  0.2873  2.1500
  202MOL0     H27863   5.054   4.065   9.040 -1.9581 -1.4184  2.0316
  202MOL0     H27864   4.897   3.994   8.934  1.9035 -0.5026 -2.1343
  202MOL0     H27865   4.877   3.878   8.805  3.9393 -1.7280  0.6314
  202MOL0     H27866   4.653   3.935   8.903 -0.0980  2.4595  2.9764
  202MOL0     H27867   4.709   3.888   9.063  0.8350  0.0899  0.4910
  202MOL0     H27868   4.672   3.719   8.805 -0.2034  0.8336 -0.6530
  202MOL0     H27869   4.742   3.645   8.954 -0.7188 -0.7881 -0.0662
  202MOL0     H27870   4.465   3.725   8.883 -0.1563 -2.1188 -0.2285
  202MOL0     H27871   4.510   3.683   9.052  0.5727 -1.7266  0.6608
  202MOL0     H27872   4.533   3.321   8.851  1.7384  1.2255 -1.3411
  202MOL0     H27873   5.130   3.652   9.069  1.5639  0.3651 -1.6712
  202MOL0     H27874   5.377   3.665   9.332  1.3224 -1.1951 -1.2034
  202MOL0     H27875   5.274   3.571   9.239 -1.0947  0.7487  1.5055
  202MOL0     H27876   5.423   3.639   9.164  0.1892 -0.3115  1.1619
  203MOL0     O27877  10.114   5.088   1.499 -0.3219  0.5321 -0.1529
  203MOL0     C27878  10.092   5.006   1.588  0.5085 -1.0214  0.2675
  203MOL0     O27879  10.170   4.971   1.688  0.4287  0.8204  0.1012
  203MOL0     C27880  10.283   5.037   1.700 -0.0806 -0.1141  0.7020
  203MOL0     C27881  10.305   5.100   1.823 -0.3171  0.8148  0.0662
  203MOL0     C27882  10.419   5.175   1.843 -0.5888  0.1281  0.5381
  203MOL0     C27883  10.518   5.191   1.742  0.5516 -0.2636  0.0947
  203MOL0     O27884  10.630   5.260   1.776 -0.5606 -1.0074 -0.5729
  203MOL0     C27885  10.723   5.308   1.674 -0.3819  0.5397  1.0269
  203MOL0     C27886  10.787   5.429   1.737  0.9833  0.2923  0.2753
  203MOL0     C27887  10.887   5.391   1.845 -0.1004  0.3736 -0.6531
  203MOL0     C27888  10.976   5.519   1.859 -0.2823  0.2672 -0.1744
  203MOL0     C27889  11.056   5.513   1.985  0.3116  0.0405 -0.0466
  203MOL0     C27890  11.192   5.568   1.955 -0.0932 -0.3763  0.4815
  203MOL0     C27891  11.280   5.576   2.085  0.7146 -0.7460 -0.1435
  203MOL0     C27892  11.244   5.690   2.179 -0.1228 -0.0310  0.7455
  203MOL0     N27893  11.343   5.707   2.284 -0.1360 -0.2978 -0.4066
  203MOL0     C27894  11.407   5.818   2.322  1.0225  0.1623  0.1790
  203MOL0     C27895  11.479   5.793   2.434  0.5899  0.5925 -0.0015
  203MOL0     C27896  11.594   5.863   2.504  0.5023 -0.8319 -0.0569
  203MOL0     C27897  11.733   5.858   2.439  0.4926 -0.1525  0.3803
  203MOL0     C27898  11.819   5.950   2.509 -0.5574  0.1116 -0.1422
  203MOL0     C27899  11.972   5.932   2.466  1.0726 -0.9581  0.9585
  203MOL0     O27900  12.039   6.055   2.500 -0.4019  0.0478 -0.1594
  203MOL0     C27901  12.175   6.070   2.476 -0.1998 -1.1544  0.6558
  203MOL0     C27902  12.238   6.040   2.356  0.1037  0.2739  0.2315
  203MOL0     C27903  12.369   6.063   2.333 -0.2932 -0.0614  0.2100
  203MOL0     C27904  12.417   6.034   2.190  0.1082 -0.3030 -0.0941
  203MOL0     C27905  12.452   6.109   2.439 -0.8111 -0.3256 -0.6294
  203MOL0     C27906  12.598   6.121   2.407  0.3873  0.2735 -0.1088
  203MOL0     O27907  12.659   6.218   2.477  0.4045  0.0280 -0.1044
  203MOL0     C27908  12.793   6.205   2.500  0.7682  0.3246  0.2624
  203MOL0     C27909  12.879   6.318   2.487  0.2190 -0.1651  0.0093
  203MOL0     C27910  13.011   6.313   2.515  0.1556 -0.6362  0.0266
  203MOL0     C27911  13.067   6.203   2.571  0.0030 -0.0031  0.4386
  203MOL0     O27912  13.202   6.192   2.596 -0.5866  0.1159  0.5172
  203MOL0     C27913  13.292   6.283   2.515 -0.8030  0.0746  0.4430
  203MOL0     C27914  13.435   6.234   2.529  0.4134 -0.1690  0.3018
  203MOL0     C27915  13.487   6.258   2.670 -0.2755 -0.1042  0.6178
  203MOL0     C27916  13.625   6.193   2.701  0.3055  0.5487 -0.3963
  203MOL0     C27917  13.696   6.270   2.809  0.1836  0.3188  0.9909
  203MOL0     C27918  13.839   6.225   2.825 -0.0372 -0.1347 -0.6695
  203MOL0     C27919  13.914   6.256   2.694 -0.2513  0.4062  0.6832
  203MOL0     C27920  14.068   6.253   2.722 -0.4339  0.8173  0.4183
  203MOL0    Cl27921  14.152   6.317   2.567 -0.5261  0.4021 -0.8487
  203MOL0     C27922  12.982   6.098   2.596 -0.3533  0.1681  0.2865
  203MOL0     C27923  12.849   6.099   2.568 -0.3613 -0.7354 -0.4035
  203MOL0     O27924  12.655   6.038   2.339 -0.1155  0.3419  0.2025
  203MOL0     C27925  12.400   6.154   2.565  0.3878 -0.3338  0.7985
  203MOL0     C27926  12.257   6.133   2.576  0.2376 -0.2530 -0.0783
  203MOL0     N27927  11.457   5.659   2.462 -0.0246  0.1743  0.8551
  203MOL0     N27928  11.375   5.621   2.379 -0.4649  0.4918 -0.0823
  203MOL0     C27929  10.507   5.115   1.623 -0.7412 -0.5131  0.3161
  203MOL0     C27930  10.392   5.039   1.601 -0.6217 -0.5529 -0.4686
  203MOL0     C27931   9.954   4.958   1.586  1.0190 -0.3368 -0.5605
  203MOL0     C27932   9.899   4.911   1.707  0.5435 -0.0300  0.1265
  203MOL0     C27933   9.761   4.875   1.725  0.5890 -0.4926 -0.0003
  203MOL0     C27934   9.682   4.872   1.607  0.5012  0.0309 -0.4604
  203MOL0     O27935   9.551   4.835   1.608  0.9614 -0.2263 -0.3642
  203MOL0     C27936   9.478   4.775   1.721  0.3582 -0.0476 -0.3515
  203MOL0     C27937   9.332   4.732   1.696 -0.3743  0.7146  0.1164
  203MOL0     C27938   9.311   4.581   1.694  0.1073  1.0859 -0.0514
  203MOL0     C27939   9.392   4.514   1.583  0.8959  0.3357 -0.2837
  203MOL0     C27940   9.335   4.383   1.561  0.6344 -0.2851  0.8055
  203MOL0     C27941   9.289   4.270   1.537  0.8105 -0.0163 -1.0474
  203MOL0     C27942   9.736   4.908   1.488 -0.5685 -0.6445  1.0754
  203MOL0     C27943   9.864   4.960   1.476  0.4168  0.1211 -0.2251
  203MOL0     C27944   9.903   5.003   1.336  0.0597  0.2176  0.1378
  203MOL0     H27945  10.226   5.089   1.897 -0.7826 -0.2651 -0.5650
  203MOL0     H27946  10.435   5.234   1.934  0.6284 -2.0364  1.8175
  203MOL0     H27947  10.672   5.333   1.580  0.8844  1.8815  0.6596
  203MOL0     H27948  10.793   5.231   1.640 -3.4536 -1.6823 -0.8353
  203MOL0     H27949  10.833   5.471   1.647 -0.3021 -2.4416 -1.8102
  203MOL0     H27950  10.709   5.495   1.777  0.4979 -0.3453  0.3819
  203MOL0     H27951  10.830   5.363   1.934 -0.3332 -0.7886 -1.1552
  203MOL0     H27952  10.944   5.300   1.821 -0.9837 -0.7249  1.1612
  203MOL0     H27953  11.037   5.515   1.769  1.2855  0.7543  0.8375
  203MOL0     H27954  10.918   5.611   1.849  0.7109  0.6654 -3.3733
  203MOL0     H27955  11.078   5.409   2.008 -1.9140 -0.4088  0.2978
  203MOL0     H27956  10.994   5.562   2.060 -0.1658  0.5943 -0.7870
  203MOL0     H27957  11.237   5.507   1.875 -1.3464  1.5194 -1.8038
  203MOL0     H27958  11.190   5.671   1.918  0.3708  0.1572  1.9059
  203MOL0     H27959  11.380   5.616   2.063  0.3434 -0.1200 -0.7322
  203MOL0     H27960  11.291   5.478   2.133 -0.2553  0.3573  2.5324
  203MOL0     H27961  11.245   5.779   2.116  0.1333 -1.7151 -1.7855
  203MOL0     H27962  11.141   5.675   2.214 -0.7470  2.7030  0.3273
  203MOL0     H27963  11.400   5.902   2.253  0.4712  0.5826  0.7402
  203MOL0     H27964  11.611   5.829   2.607 -0.6533  2.2668  1.2736
  203MOL0     H27965  11.565   5.969   2.501 -1.0339 -1.2165  0.0339
  203MOL0     H27966  11.768   5.754   2.430 -1.1606 -0.6127 -1.4787
  203MOL0     H27967  11.722   5.884   2.334 -0.6911 -3.9035 -0.6044
  203MOL0     H27968  11.788   6.055   2.503 -2.3781 -0.4946 -2.3204
  203MOL0     H27969  11.819   5.915   2.613  2.2430 -2.5741 -0.9017
  203MOL0     H27970  12.020   5.849   2.519  0.0245 -1.6961  0.7837
  203MOL0     H27971  11.975   5.914   2.358 -1.9546 -1.9772  0.9334
  203MOL0     H27972  12.166   6.004   2.283  1.5424 -2.7512  0.1339
  203MOL0     H27973  12.492   6.107   2.157  0.9319 -0.3727  1.4847
  203MOL0     H27974  12.328   6.029   2.128 -0.9000 -1.6007  1.3926
  203MOL0     H27975  12.480   5.944   2.191  0.7555  0.1314  1.4404
  203MOL0     H27976  12.854   6.418   2.455  1.4100  0.5088  1.0776
  203MOL0     H27977  13.073   6.398   2.486 -1.3562 -0.6806 -3.9804
  203MOL0     H27978  13.260   6.275   2.411 -2.5107 -0.6211  0.9911
  203MOL0     H27979  13.289   6.387   2.548  4.2544  0.3281  0.8325
  203MOL0     H27980  13.459   6.132   2.496 -0.1441 -0.1292 -0.2325
  203MOL0     H27981  13.494   6.282   2.451  0.4348  1.2487  1.1506
  203MOL0     H27982  13.408   6.232   2.742  1.6487 -2.6020  2.0104
  203MOL0     H27983  13.495   6.366   2.688 -2.5970  0.2251 -0.0254
  203MOL0     H27984  13.682   6.182   2.608 -1.6152 -0.9200 -1.4714
  203MOL0     H27985  13.598   6.091   2.727  0.0505 -0.1106 -2.9727
  203MOL0     H27986  13.692   6.376   2.781  0.1371 -0.0731 -0.5597
  203MOL0     H27987  13.628   6.277   2.894 -4.2878  3.1531 -2.4110
  203MOL0     H27988  13.843   6.122   2.863 -2.5521  0.9831  3.2142
  203MOL0     H27989  13.893   6.284   2.900  0.3954  0.2111 -1.2420
  203MOL0     H27990  13.886   6.356   2.661  0.6567  0.0522 -1.3378
  203MOL0     H27991  13.892   6.183   2.615 -3.1953  0.9555  0.9056
  203MOL0     H27992  14.098   6.150   2.743 -1.2023 -0.2841 -3.2092
  203MOL0     H27993  14.092   6.306   2.814 -0.7807  0.3833  0.7666
  203MOL0     H27994  13.028   6.015   2.649 -0.4547  2.4901  4.4445
  203MOL0     H27995  12.793   6.014   2.606 -0.1097 -0.7622 -0.0773
  203MOL0     H27996  12.462   6.192   2.646  0.1915 -2.9239  2.2693
  203MOL0     H27997  12.205   6.156   2.669 -1.2523 -1.8921 -0.4562
  203MOL0     H27998  10.593   5.101   1.558 -1.5121 -5.1077 -0.0111
  203MOL0     H27999  10.367   4.970   1.521 -0.1898 -1.6381  0.3221
  203MOL0     H28000   9.964   4.914   1.795  0.8592  0.1833 -0.1124
  203MOL0     H28001   9.712   4.860   1.821  0.9693 -2.6225 -0.0796
  203MOL0     H28002   9.535   4.687   1.753 -1.7578 -1.1747  0.5447
  203MOL0     H28003   9.480   4.836   1.812 -5.3278  2.0535 -1.2399
  203MOL0     H28004   9.303   4.774   1.599  2.2918  2.3156 -0.0884
  203MOL0     H28005   9.264   4.772   1.772  0.4316  0.4657  0.9809
  203MOL0     H28006   9.357   4.540   1.785  0.0830  2.6010  0.6760
  203MOL0     H28007   9.203   4.561   1.696 -0.8217  5.1287 -1.2678
  203MOL0     H28008   9.500   4.514   1.599  0.5803 -0.2450  2.2259
  203MOL0     H28009   9.377   4.574   1.493 -0.3737  0.9386  0.3039
  203MOL0     H28010   9.253   4.170   1.518  2.5228 -1.0879  0.9031
  203MOL0     H28011   9.664   4.905   1.406 -1.0829  0.4506  1.4778
  203MOL0     H28012   9.903   5.112   1.324 -2.6551  0.1778 -0.8500
  203MOL0     H28013  10.001   4.960   1.312 -0.7105 -0.2386 -2.5104
  203MOL0     H28014   9.833   4.971   1.259 -0.8854  3.4669 -0.5156
  204MOL0     O28015   3.032   6.895   5.840 -0.1899 -0.1079  0.0639
  204MOL0     C28016   3.133   6.850   5.784  0.2842  0.0480 -0.4322
  204MOL0     O28017   3.251   6.912   5.774 -0.0900 -0.0518 -0.2218
  204MOL0     C28018   3.246   7.047   5.804 -0.5280 -0.0340  0.6423
  204MOL0     C28019   3.197   7.134   5.709  0.8853 -1.1780 -0.4231
  204MOL0     C28020   3.180   7.267   5.737 -0.3667  0.2568  0.1089
  204MOL0     C28021   3.237   7.332   5.853 -0.8206  0.4676 -0.5312
  204MOL0     O28022   3.213   7.469   5.880  0.4345  0.5804 -0.2584
  204MOL0     C28023   3.268   7.561   5.782  0.6961 -0.2298 -0.2518
  204MOL0     C28024   3.409   7.514   5.734  1.0752 -0.1030  0.0586
  204MOL0     C28025   3.479   7.634   5.689  0.1301  0.1476  0.6939
  204MOL0     C28026   3.631   7.604   5.651 -0.0084 -1.1487 -0.6507
  204MOL0     C28027   3.735   7.726   5.623  1.2837  0.3171 -0.2636
  204MOL0     C28028   3.863   7.662   5.567  0.0795  0.4795 -0.1964
  204MOL0     C28029   3.969   7.767   5.584  0.1340 -0.9257 -0.6419
  204MOL0     C28030   4.111   7.720   5.554  0.4415 -0.1340 -0.3701
  204MOL0     N28031   4.147   7.601   5.634  0.4874  0.9091 -0.3492
  204MOL0     C28032   4.191   7.491   5.557  0.4463  0.3430  0.7757
  204MOL0     C28033   4.266   7.409   5.641  0.7117 -0.0665  0.1945
  204MOL0     C28034   4.350   7.291   5.601 -0.3771  0.2988 -0.6871
  204MOL0     C28035   4.273   7.171   5.550  0.0955  0.5523  0.1540
  204MOL0     C28036   4.181   7.098   5.654 -0.2079  0.7501 -0.0899
  204MOL0     C28037   4.266   7.040   5.772 -0.1020  0.6143  0.0831
  204MOL0     O28038   4.343   6.925   5.737  0.2748  0.4376  0.0884
  204MOL0     C28039   4.413   6.886   5.841 -0.4539  0.6483  0.1549
  204MOL0     C28040   4.540   6.935   5.846 -0.1541  0.1757 -0.2491
  204MOL0     C28041   4.631   6.894   5.940  0.0034 -0.0652  0.1503
  204MOL0     C28042   4.779   6.943   5.909  0.9335  0.1721 -0.1356
  204MOL0     C28043   4.587   6.810   6.048  0.6993  0.1288  0.0517
  204MOL0     C28044   4.678   6.766   6.153  0.0989 -0.0606 -0.8317
  204MOL0     O28045   4.641   6.648   6.218 -0.1349  0.1992  0.2757
  204MOL0     C28046   4.740   6.560   6.251  0.7747  0.2246 -0.2866
  204MOL0     C28047   4.705   6.462   6.344 -0.0139  0.2999 -0.4914
  204MOL0     C28048   4.795   6.377   6.412  0.0881  0.0767  1.0736
  204MOL0     C28049   4.923   6.372   6.362 -0.0673  0.0349  0.1666
  204MOL0     O28050   5.000   6.266   6.397  0.0036  0.5778 -0.0009
  204MOL0     C28051   5.144   6.294   6.433  0.0205  0.6480  0.4125
  204MOL0     C28052   5.233   6.236   6.315 -0.2585  0.9058  0.4266
  204MOL0     C28053   5.217   6.088   6.315  0.5040  0.3750 -0.8903
  204MOL0     C28054   5.307   6.010   6.210  0.2438 -0.3449  1.3276
  204MOL0     C28055   5.280   5.864   6.202 -0.5878 -0.4695 -0.5409
  204MOL0     C28056   5.381   5.800   6.104 -0.0052  0.2170 -0.1374
  204MOL0     C28057   5.361   5.644   6.102 -1.1812 -0.5051  0.6602
  204MOL0     C28058   5.459   5.574   5.999  0.2811 -0.2281  0.0690
  204MOL0    Cl28059   5.409   5.641   5.846 -0.1671 -0.1696 -0.6574
  204MOL0     C28060   4.960   6.459   6.255  0.4439 -0.8082 -0.7193
  204MOL0     C28061   4.872   6.551   6.197 -0.0058 -1.1517  0.3937
  204MOL0     O28062   4.778   6.843   6.178 -0.5788  0.2816  0.2897
  204MOL0     C28063   4.447   6.766   6.044  0.1111 -0.4896  0.5837
  204MOL0     C28064   4.366   6.801   5.939  1.1097 -0.4309 -0.1899
  204MOL0     N28065   4.253   7.465   5.767  0.6378 -0.7220 -0.6566
  204MOL0     N28066   4.189   7.581   5.764  0.4714  0.3084 -0.1485
  204MOL0     C28067   3.297   7.241   5.949 -0.9518  0.1619  0.2305
  204MOL0     C28068   3.309   7.100   5.919  0.6205 -0.5405 -0.5131
  204MOL0     C28069   3.139   6.711   5.738 -0.1419 -0.1658  0.6218
  204MOL0     C28070   3.264   6.645   5.723 -0.5152 -0.2510  0.3696
  204MOL0     C28071   3.272   6.517   5.667 -0.5074  0.0786 -0.1463
  204MOL0     C28072   3.155   6.454   5.619 -0.5319  0.6915 -0.2499
  204MOL0     O28073   3.166   6.313   5.592  0.4263 -0.0159 -0.5840
  204MOL0     C28074   3.066   6.266   5.505  0.4562  0.0592 -0.2976
  204MOL0     C28075   3.085   6.126   5.469 -0.3688  0.0674 -0.7251
  204MOL0     C28076   2.972   6.061   5.390  0.3363 -1.7239 -0.4230
  204MOL0     C28077   2.990   5.907   5.382  0.1563  0.3519  0.3423
  204MOL0     C28078   2.905   5.846   5.277  0.3218 -1.1436  0.0782
  204MOL0     C28079   2.843   5.821   5.176 -0.0442 -0.1931 -0.0053
  204MOL0     C28080   3.032   6.516   5.634 -0.5489 -0.5933  0.0167
  204MOL0     C28081   3.023   6.646   5.685 -0.9374  0.2956  0.5733
  204MOL0     C28082   2.890   6.709   5.666 -0.7982 -0.2045 -0.5586
  204MOL0     H28083   3.149   7.106   5.616 -1.0280  1.3003 -0.2938
  204MOL0     H28084   3.117   7.326   5.672 -1.5541 -1.2358 -0.1701
  204MOL0     H28085   3.287   7.656   5.832  2.2171  0.2977 -1.7243
  204MOL0     H28086   3.193   7.577   5.704  0.5818 -1.3871 -0.4094
  204MOL0     H28087   3.466   7.462   5.812  1.9490  0.6172 -0.0853
  204MOL0     H28088   3.403   7.442   5.652  0.3561  0.3437 -0.2918
  204MOL0     H28089   3.420   7.685   5.612  0.4087  1.2688  1.2000
  204MOL0     H28090   3.482   7.708   5.769 -0.2900  0.6482  0.2539
  204MOL0     H28091   3.671   7.530   5.722  0.9399 -1.5742 -1.6043
  204MOL0     H28092   3.605   7.552   5.558 -0.4091 -2.2856  0.0683
  204MOL0     H28093   3.754   7.772   5.720 -2.2073  1.5466 -0.0118
  204MOL0     H28094   3.693   7.800   5.554  1.9603 -0.5050 -1.5950
  204MOL0     H28095   3.886   7.569   5.619  0.2322  1.0506  0.7707
  204MOL0     H28096   3.854   7.641   5.460 -3.1272  1.6009 -0.2479
  204MOL0     H28097   3.969   7.804   5.687 -0.2104  1.7352 -1.5180
  204MOL0     H28098   3.954   7.851   5.516 -1.0734 -0.3898  0.2644
  204MOL0     H28099   4.118   7.703   5.447  1.4368  1.6257 -0.6143
  204MOL0     H28100   4.179   7.804   5.567 -0.8680  1.1109 -1.2681
  204MOL0     H28101   4.164   7.458   5.457 -2.6639 -0.1185  1.6524
  204MOL0     H28102   4.399   7.257   5.693  1.2074  3.2005 -0.3505
  204MOL0     H28103   4.427   7.319   5.529  0.8112 -1.5672 -0.2113
  204MOL0     H28104   4.212   7.202   5.465  0.0391 -1.8770 -0.7721
  204MOL0     H28105   4.349   7.100   5.516 -0.7191 -0.2906  0.0386
  204MOL0     H28106   4.106   7.168   5.693 -1.0355 -0.8538  1.3025
  204MOL0     H28107   4.132   7.014   5.604 -1.1138 -0.3814  2.5609
  204MOL0     H28108   4.329   7.118   5.816  0.1689  1.9545 -2.4716
  204MOL0     H28109   4.186   7.012   5.841 -0.6522  0.7793 -0.4773
  204MOL0     H28110   4.575   7.009   5.776  0.2939 -0.2708 -0.5026
  204MOL0     H28111   4.788   6.969   5.803  0.1208  1.0580 -0.0027
  204MOL0     H28112   4.845   6.858   5.926  0.9434  0.4984  1.6403
  204MOL0     H28113   4.807   7.028   5.973  0.0171 -0.0517  0.5851
  204MOL0     H28114   4.604   6.454   6.383 -0.9058  1.3625 -2.4142
  204MOL0     H28115   4.774   6.294   6.479  2.5381 -1.3878  0.1506
  204MOL0     H28116   5.153   6.403   6.426 -0.5256  0.6049 -1.9004
  204MOL0     H28117   5.169   6.246   6.527 -1.4643 -1.0716 -0.0076
  204MOL0     H28118   5.205   6.281   6.219  1.7951  0.3469 -0.4735
  204MOL0     H28119   5.339   6.262   6.316 -0.1328  0.6374 -1.4861
  204MOL0     H28120   5.118   6.053   6.284  0.4571  0.9396 -1.4088
  204MOL0     H28121   5.228   6.041   6.413 -0.5061 -2.5242 -2.0616
  204MOL0     H28122   5.405   6.022   6.256  0.5439 -1.9822  1.1644
  204MOL0     H28123   5.301   6.057   6.112 -1.0929  0.2312  1.6554
  204MOL0     H28124   5.302   5.825   6.302  0.9753  0.1890 -0.5901
  204MOL0     H28125   5.179   5.829   6.181 -1.2600  1.1382 -0.0829
  204MOL0     H28126   5.482   5.831   6.131 -0.0702 -1.2057  1.9690
  204MOL0     H28127   5.360   5.834   6.002  2.4677  1.6867 -0.2461
  204MOL0     H28128   5.258   5.631   6.065  0.0483 -0.8914 -3.0576
  204MOL0     H28129   5.367   5.600   6.202  1.0467 -0.4802  0.5761
  204MOL0     H28130   5.432   5.468   5.991 -1.6573  0.3397 -2.2032
  204MOL0     H28131   5.564   5.586   6.025  0.4134 -0.2935 -0.4288
  204MOL0     H28132   5.062   6.458   6.219  1.0013 -3.4611  0.6752
  204MOL0     H28133   4.901   6.619   6.117 -0.1457 -1.1289  0.3609
  204MOL0     H28134   4.411   6.702   6.123  0.4696 -0.2042  0.9811
  204MOL0     H28135   4.265   6.766   5.925  0.2789  2.0357 -0.8738
  204MOL0     H28136   3.327   7.284   6.044  1.2884  1.2509 -0.8809
  204MOL0     H28137   3.361   7.028   5.983  1.9331  2.1533  1.6595
  204MOL0     H28138   3.349   6.702   5.758 -0.9085 -0.1537  1.1932
  204MOL0     H28139   3.368   6.468   5.674 -0.9501 -0.5768  3.5521
  204MOL0     H28140   2.965   6.276   5.544  0.4269  1.4008 -0.6909
  204MOL0     H28141   3.063   6.320   5.410 -1.6159 -2.8608 -2.0801
  204MOL0     H28142   3.105   6.058   5.552 -0.4157 -0.4336 -1.1205
  204MOL0     H28143   3.179   6.117   5.414  0.1389 -2.3521  0.4145
  204MOL0     H28144   2.880   6.081   5.446  0.8129 -0.8255  0.0452
  204MOL0     H28145   2.959   6.111   5.293 -3.9494  0.1337  0.8515
  204MOL0     H28146   2.962   5.868   5.480 -1.0739 -1.6383 -0.7518
  204MOL0     H28147   3.092   5.885   5.348 -0.9214 -1.4943 -1.9588
  204MOL0     H28148   2.775   5.811   5.094 -1.3146 -0.9837  1.1043
  204MOL0     H28149   2.939   6.465   5.614  1.8742 -4.9989 -1.5134
  204MOL0     H28150   2.838   6.656   5.585 -1.8748 -0.0200 -0.0092
  204MOL0     H28151   2.824   6.699   5.753  0.9358 -1.0102  0.7219
  204MOL0     H28152   2.892   6.816   5.644  2.9933  0.0813  0.5956
  205MOL0     O28153   4.041   8.643   6.902 -0.8414  0.0568  0.5597
  205MOL0     C28154   4.096   8.752   6.906  0.3238 -0.2772  0.0276
  205MOL0     O28155   4.037   8.861   6.947 -0.4457  0.6247 -0.6754
  205MOL0     C28156   3.909   8.836   7.006  0.4075  0.2152 -0.7970
  205MOL0     C28157   3.887   8.856   7.144 -0.6156 -0.2315 -0.1195
  205MOL0     C28158   3.752   8.857   7.191  0.4808 -0.0570 -0.5638
  205MOL0     C28159   3.639   8.822   7.106 -0.4678  0.3863 -1.2654
  205MOL0     O28160   3.508   8.828   7.157  0.2507 -0.6211 -0.0711
  205MOL0     C28161   3.490   8.889   7.292  0.2641 -0.8474  0.1797
  205MOL0     C28162   3.337   8.897   7.311  0.1216  0.4104  0.3258
  205MOL0     C28163   3.304   8.753   7.353 -0.5302 -0.6042 -0.4491
  205MOL0     C28164   3.152   8.725   7.334 -0.0724 -0.7707  0.4800
  205MOL0     C28165   3.106   8.693   7.188  0.5701  0.6119  0.6063
  205MOL0     C28166   2.959   8.715   7.186  0.4917 -0.9888  0.2242
  205MOL0     C28167   2.887   8.666   7.062  0.4377 -0.2038  0.3267
  205MOL0     C28168   2.742   8.703   7.046  0.4772  1.0021 -0.0914
  205MOL0     N28169   2.699   8.698   6.908 -0.8796  0.3162 -0.4309
  205MOL0     C28170   2.737   8.779   6.802  0.5107 -0.2403 -0.0962
  205MOL0     C28171   2.650   8.748   6.701  0.0099 -1.2247 -0.5861
  205MOL0     C28172   2.663   8.814   6.569 -0.2510 -0.1458  0.2244
  205MOL0     C28173   2.749   8.739   6.471  0.7422 -0.4308 -0.5784
  205MOL0     C28174   2.767   8.819   6.336  0.7863 -0.9265 -0.7497
  205MOL0     C28175   2.833   8.958   6.355 -0.6935 -0.7108 -0.0669
  205MOL0     O28176   2.962   8.957   6.430 -0.7888  0.9521 -0.6255
  205MOL0     C28177   3.046   9.060   6.405  0.7642 -0.0271  0.3692
  205MOL0     C28178   3.181   9.054   6.437 -0.4203 -0.4174 -0.2161
  205MOL0     C28179   3.257   9.166   6.406  0.0570  0.0052 -0.0060
  205MOL0     C28180   3.402   9.146   6.412 -0.2942  0.3789 -0.0022
  205MOL0     C28181   3.209   9.296   6.376  0.5522 -0.0199  0.3638
  205MOL0     C28182   3.282   9.425   6.356 -0.1470  0.3470 -0.2001
  205MOL0     O28183   3.233   9.507   6.265 -0.1287 -1.0247  0.0276
  205MOL0     C28184   3.323   9.609   6.229  0.5166  0.5279 -0.0268
  205MOL0     C28185   3.373   9.602   6.100 -0.7054  0.5068  0.2175
  205MOL0     C28186   3.456   9.701   6.049  0.5899 -0.5089 -0.0156
  205MOL0     C28187   3.503   9.810   6.136 -0.6200  0.5555 -0.2128
  205MOL0     O28188   3.587   9.907   6.090  0.1813  0.1564  0.5069
  205MOL0     C28189   3.631   9.897   5.953  0.4693  1.0281 -0.4000
  205MOL0     C28190   3.735  10.008   5.924  0.1731 -0.4158  0.0351
  205MOL0     C28191   3.835   9.973   5.815 -0.7326  0.3906  0.3172
  205MOL0     C28192   3.846  10.089   5.714  0.0633  0.2096  0.3829
  205MOL0     C28193   3.922  10.040   5.582 -0.5611 -0.0085  0.0821
  205MOL0     C28194   3.963  10.154   5.487 -0.0297 -0.2710 -0.9127
  205MOL0     C28195   4.063  10.124   5.375  0.1185  0.1499 -0.5995
  205MOL0     C28196   4.018  10.006   5.287 -0.1945  0.0780 -0.1538
  205MOL0    Cl28197   3.867  10.023   5.198  0.3431 -0.1502 -0.0828
  205MOL0     C28198   3.463   9.807   6.267  1.0780 -0.5904 -0.3684
  205MOL0     C28199   3.366   9.714   6.324 -0.0874  0.3888  0.2017
  205MOL0     O28200   3.377   9.447   6.430  1.0408 -0.3547  0.1574
  205MOL0     C28201   3.070   9.305   6.373 -0.3706  0.0954 -0.2276
  205MOL0     C28202   2.992   9.192   6.392 -0.1733  0.4318  0.1496
  205MOL0     N28203   2.572   8.644   6.738 -0.3584 -0.5973  0.5333
  205MOL0     N28204   2.598   8.616   6.862 -0.4698 -0.4285 -0.1252
  205MOL0     C28205   3.671   8.781   6.977  0.6036  1.0760 -0.2291
  205MOL0     C28206   3.801   8.795   6.925  0.2245 -0.6982 -0.6048
  205MOL0     C28207   4.238   8.751   6.862  1.1388  1.5441 -1.2204
  205MOL0     C28208   4.298   8.878   6.826 -0.7344 -0.0149 -0.0445
  205MOL0     C28209   4.430   8.883   6.794 -0.3039  0.2156  0.2269
  205MOL0     C28210   4.511   8.767   6.789  0.4574  0.2631  0.1126
  205MOL0     O28211   4.638   8.768   6.755  0.2833  0.0378 -0.6686
  205MOL0     C28212   4.716   8.893   6.755  0.6075 -0.3384 -0.6008
  205MOL0     C28213   4.727   8.946   6.905  0.4346  0.9406  0.3364
  205MOL0     C28214   4.785   9.087   6.916 -0.1160  0.1000 -0.0797
  205MOL0     C28215   4.823   9.114   7.058 -0.1183  0.0037 -0.5759
  205MOL0     C28216   4.903   9.230   7.076  0.5141 -0.3924 -0.0118
  205MOL0     C28217   4.979   9.321   7.099 -0.9759 -0.3229 -0.8703
  205MOL0     C28218   4.446   8.650   6.791 -0.7476  0.0045  0.7112
  205MOL0     C28219   4.316   8.628   6.836 -0.7523  0.1637 -0.5325
  205MOL0     C28220   4.285   8.480   6.847 -0.0917 -0.3925 -0.8358
  205MOL0     H28221   3.968   8.884   7.211 -1.2073 -1.2870  1.0809
  205MOL0     H28222   3.741   8.878   7.297  0.5657 -1.3678 -0.2710
  205MOL0     H28223   3.530   8.990   7.307 -2.0186 -0.1995  2.3861
  205MOL0     H28224   3.549   8.837   7.368 -0.0318  1.9941  2.5395
  205MOL0     H28225   3.318   8.962   7.397  0.8186  0.0439  0.7658
  205MOL0     H28226   3.284   8.921   7.219 -0.9925 -0.7332  0.6421
  205MOL0     H28227   3.361   8.676   7.300  0.3485 -0.1812 -0.1291
  205MOL0     H28228   3.317   8.743   7.461  0.8689  0.1026 -0.5324
  205MOL0     H28229   3.113   8.649   7.402 -1.5458 -1.5787 -1.1789
  205MOL0     H28230   3.108   8.820   7.366 -0.9423 -0.3191 -1.8315
  205MOL0     H28231   3.121   8.589   7.158  2.6353  0.7205  1.1071
  205MOL0     H28232   3.157   8.750   7.110 -0.0337 -1.9013 -1.7783
  205MOL0     H28233   2.909   8.654   7.262 -1.0716 -0.8692 -0.6433
  205MOL0     H28234   2.925   8.818   7.198  3.7445  0.2194 -0.1240
  205MOL0     H28235   2.898   8.557   7.051  0.7306 -0.9843  5.7346
  205MOL0     H28236   2.936   8.723   6.982 -1.4930 -0.5944 -1.2323
  205MOL0     H28237   2.671   8.635   7.095 -1.7688  1.6878 -2.1782
  205MOL0     H28238   2.723   8.801   7.091 -1.6876  0.8131 -0.4679
  205MOL0     H28239   2.800   8.867   6.792  3.1257 -1.9836  0.2960
  205MOL0     H28240   2.693   8.919   6.578 -1.2686  0.2955 -1.1726
  205MOL0     H28241   2.563   8.816   6.524 -0.8142 -3.1186  1.1327
  205MOL0     H28242   2.847   8.731   6.518  1.6551 -0.1215 -2.3614
  205MOL0     H28243   2.713   8.637   6.454 -3.1111  0.5562  0.6399
  205MOL0     H28244   2.829   8.766   6.263 -0.0193 -2.7933 -0.1460
  205MOL0     H28245   2.669   8.832   6.289 -0.9873 -0.1066  2.7961
  205MOL0     H28246   2.852   9.008   6.260 -2.1217  1.2973  0.6202
  205MOL0     H28247   2.751   9.015   6.401 -1.7822 -1.9962 -0.3632
  205MOL0     H28248   3.223   8.956   6.460  0.9242  0.7246  2.6408
  205MOL0     H28249   3.449   9.216   6.342 -1.3919  0.5426 -0.6041
  205MOL0     H28250   3.428   9.045   6.379 -2.9314  0.1104 -1.5280
  205MOL0     H28251   3.439   9.167   6.513  0.2355  2.1934 -0.5299
  205MOL0     H28252   3.342   9.533   6.023  0.1172  0.4667 -0.0873
  205MOL0     H28253   3.476   9.688   5.943 -4.1678 -0.2527 -1.1892
  205MOL0     H28254   3.675   9.798   5.937 -2.1264 -0.3891  0.5211
  205MOL0     H28255   3.551   9.911   5.879 -0.7164 -0.9693  0.3988
  205MOL0     H28256   3.679  10.101   5.907  1.8671  0.1078 -3.6492
  205MOL0     H28257   3.798  10.025   6.012  2.1763  1.6962 -1.6958
  205MOL0     H28258   3.796   9.887   5.760 -0.6005  1.6482 -1.9025
  205MOL0     H28259   3.927   9.948   5.868 -1.6363  0.3778  1.9210
  205MOL0     H28260   3.909  10.168   5.755  1.0416 -0.7920  0.8612
  205MOL0     H28261   3.744  10.127   5.701  0.0932  1.3298  2.8962
  205MOL0     H28262   4.022  10.011   5.615 -0.8305  0.8320  1.8007
  205MOL0     H28263   3.879   9.959   5.522  3.2319 -0.3660 -2.4792
  205MOL0     H28264   4.020  10.225   5.549  1.8026 -1.5812 -1.0056
  205MOL0     H28265   3.871  10.199   5.449  0.2851  0.2162 -1.1105
  205MOL0     H28266   4.159  10.101   5.424 -0.6529 -1.1232  0.3742
  205MOL0     H28267   4.077  10.210   5.309  2.1776 -0.6925 -1.3478
  205MOL0     H28268   4.007   9.912   5.342 -0.5335 -1.3392 -2.4802
  205MOL0     H28269   4.098   9.986   5.215  0.6136  0.7485  0.5529
  205MOL0     H28270   3.504   9.876   6.341 -1.2094  2.1640 -1.4946
  205MOL0     H28271   3.319   9.722   6.421 -0.9466 -1.3429 -0.0285
  205MOL0     H28272   3.015   9.395   6.348  0.1816  1.2191  2.3177
  205MOL0     H28273   2.887   9.209   6.373 -0.4953  0.7328  1.9627
  205MOL0     H28274   3.597   8.752   6.903  2.4267  0.1002 -1.7464
  205MOL0     H28275   3.817   8.791   6.818 -1.6557 -2.0486 -0.8922
  205MOL0     H28276   4.241   8.970   6.834  2.3276  1.8870  1.9858
  205MOL0     H28277   4.461   8.978   6.753 -4.9986  1.3436 -1.3696
  205MOL0     H28278   4.822   8.876   6.731  1.0856  2.7034 -1.1208
  205MOL0     H28279   4.678   8.961   6.678 -2.0177 -1.3958 -0.3277
  205MOL0     H28280   4.798   8.881   6.957 -0.7104 -0.2528  0.4654
  205MOL0     H28281   4.636   8.928   6.963  0.4495 -0.4854 -0.0394
  205MOL0     H28282   4.866   9.098   6.842  2.6401 -1.2004  2.5172
  205MOL0     H28283   4.704   9.157   6.895  0.8483  1.3419  0.2448
  205MOL0     H28284   4.885   9.030   7.091  1.1955  1.6601  1.4570
  205MOL0     H28285   4.738   9.126   7.126  0.7743  1.9549  0.2638
  205MOL0     H28286   5.025   9.407   7.143 -1.2914  0.1158 -1.3910
  205MOL0     H28287   4.514   8.567   6.777 -0.5887  0.2609 -0.0511
  205MOL0     H28288   4.188   8.464   6.895 -0.1483  1.7628 -0.1240
  205MOL0     H28289   4.280   8.436   6.747 -0.3097  2.0530 -1.9796
  205MOL0     H28290   4.367   8.442   6.909 -0.0264 -3.8654 -2.7787
  206MOL0     O28291   6.829   5.620   4.731  0.3401 -0.5758  0.5358
  206MOL0     C28292   6.839   5.506   4.763  0.3921 -0.0180 -0.3643
  206MOL0     O28293   6.913   5.466   4.869 -0.3573 -0.3165 -0.2126
  206MOL0     C28294   6.998   5.549   4.937 -1.3910 -0.4988 -0.3571
  206MOL0     C28295   7.132   5.537   4.896 -0.4014  0.1547  0.2589
  206MOL0     C28296   7.225   5.621   4.963  0.0732 -0.8426 -0.1675
  206MOL0     C28297   7.185   5.707   5.061 -0.0442 -0.2735 -0.0113
  206MOL0     O28298   7.280   5.782   5.130 -0.2905  0.0834  0.2847
  206MOL0     C28299   7.271   5.788   5.272  0.1106  0.3331 -0.2893
  206MOL0     C28300   7.406   5.823   5.330  0.3178  1.2510 -0.2108
  206MOL0     C28301   7.403   5.859   5.481  0.3808 -0.4129 -0.5964
  206MOL0     C28302   7.338   5.996   5.513 -0.4716 -0.4141  0.2417
  206MOL0     C28303   7.321   5.996   5.665  0.3862 -0.3369 -0.7730
  206MOL0     C28304   7.295   6.135   5.715 -0.9624 -0.0095 -1.0352
  206MOL0     C28305   7.307   6.142   5.867 -0.2466 -0.2880 -0.4779
  206MOL0     C28306   7.274   6.288   5.902 -0.4106  0.2110 -0.3992
  206MOL0     N28307   7.285   6.334   6.040 -0.0511 -0.4343 -0.4453
  206MOL0     C28308   7.284   6.467   6.062 -0.2812  0.2329 -1.1421
  206MOL0     C28309   7.337   6.479   6.183 -0.0224  0.3403 -0.4180
  206MOL0     C28310   7.339   6.603   6.269 -0.4206  0.3194 -0.5404
  206MOL0     C28311   7.440   6.631   6.375  0.1359  0.0231 -0.0246
  206MOL0     C28312   7.439   6.776   6.416 -0.1606 -0.5788 -0.3720
  206MOL0     C28313   7.568   6.807   6.492  0.4203  0.5024 -0.5566
  206MOL0     O28314   7.669   6.781   6.402 -0.3421  0.0265 -0.0924
  206MOL0     C28315   7.800   6.816   6.427  0.3638  0.4911 -0.3831
  206MOL0     C28316   7.900   6.814   6.328  0.7957  0.4070 -0.6557
  206MOL0     C28317   8.033   6.844   6.345  0.2348 -0.5929  0.0238
  206MOL0     C28318   8.125   6.853   6.227  0.1662 -0.1732  0.4555
  206MOL0     C28319   8.079   6.872   6.486 -0.3584 -0.5201  0.6055
  206MOL0     C28320   8.219   6.884   6.530 -0.5283  0.0681  0.2373
  206MOL0     O28321   8.228   6.974   6.642  0.0753 -0.1228  0.8206
  206MOL0     C28322   8.336   6.962   6.726  0.5528  0.8296  0.8585
  206MOL0     C28323   8.464   6.994   6.688 -0.5954  0.1087  0.1550
  206MOL0     C28324   8.569   6.963   6.778 -0.4645  0.8502 -0.4750
  206MOL0     C28325   8.551   6.917   6.908  0.0603 -0.0606  0.1776
  206MOL0     O28326   8.661   6.897   6.985 -0.7703 -0.2894 -0.0022
  206MOL0     C28327   8.683   6.787   7.074  0.0756  0.6361 -1.2034
  206MOL0     C28328   8.707   6.649   7.003  0.3965  0.2534  0.1389
  206MOL0     C28329   8.842   6.653   6.945 -0.0096  0.7276 -0.0247
  206MOL0     C28330   8.857   6.517   6.870 -0.1132  0.1977  0.4716
  206MOL0     C28331   8.993   6.482   6.804  0.7188  0.0966 -0.5771
  206MOL0     C28332   9.086   6.416   6.906 -0.1233 -0.1243 -0.7285
  206MOL0     C28333   9.194   6.317   6.852 -0.2418  0.1353 -0.1857
  206MOL0     C28334   9.278   6.238   6.969 -0.2731  0.7082  0.4671
  206MOL0    Cl28335   9.170   6.163   7.097 -0.5628  0.3247 -0.0258
  206MOL0     C28336   8.420   6.891   6.955 -0.1326 -0.1036 -0.1904
  206MOL0     C28337   8.311   6.917   6.859 -0.3093 -0.6978  0.9157
  206MOL0     O28338   8.315   6.824   6.476 -0.2218  0.1081 -0.9001
  206MOL0     C28339   7.980   6.871   6.588 -0.1070 -0.8458  0.4329
  206MOL0     C28340   7.844   6.848   6.551 -0.1799 -0.3863 -0.3051
  206MOL0     N28341   7.355   6.351   6.232 -0.7942  0.7447  0.3248
  206MOL0     N28342   7.324   6.263   6.145  0.1751  0.3814 -0.0599
  206MOL0     C28343   7.057   5.713   5.097  1.0381  0.0222  0.3935
  206MOL0     C28344   6.962   5.637   5.037 -0.6699  0.5101  0.3604
  206MOL0     C28345   6.746   5.401   4.700 -0.2675 -0.4498 -0.5883
  206MOL0     C28346   6.641   5.352   4.769 -0.5684 -0.5060 -0.1165
  206MOL0     C28347   6.545   5.271   4.705  0.7390 -0.0477 -0.9411
  206MOL0     C28348   6.572   5.223   4.580 -0.0414 -0.0731  0.9361
  206MOL0     O28349   6.490   5.139   4.503  0.5543  0.0059  0.0474
  206MOL0     C28350   6.368   5.080   4.550 -0.4154  0.3770  0.5250
  206MOL0     C28351   6.247   5.168   4.541  0.1027  0.2935  0.2408
  206MOL0     C28352   6.113   5.103   4.549 -0.6970  0.6771 -0.4018
  206MOL0     C28353   6.112   4.956   4.584  0.6219 -0.1151 -0.1261
  206MOL0     C28354   5.971   4.909   4.569  0.3534 -0.2609 -0.2058
  206MOL0     C28355   5.858   4.863   4.558  1.0575 -0.6922  0.5923
  206MOL0     C28356   6.696   5.261   4.514  0.6598  0.2285  0.9896
  206MOL0     C28357   6.777   5.358   4.568  0.0320 -0.6403 -0.5875
  206MOL0     C28358   6.887   5.424   4.486  0.4820 -0.0186  0.2444
  206MOL0     H28359   7.170   5.467   4.823 -3.0414 -1.6961  0.5250
  206MOL0     H28360   7.330   5.619   4.936  0.1857 -0.0192  0.1633
  206MOL0     H28361   7.227   5.694   5.306 -0.3135  0.5575 -0.2029
  206MOL0     H28362   7.193   5.855   5.311 -1.3298 -0.4602 -1.7092
  206MOL0     H28363   7.473   5.737   5.319 -0.5044  0.6969 -0.9413
  206MOL0     H28364   7.457   5.900   5.271 -0.2613  3.2158  1.6862
  206MOL0     H28365   7.351   5.782   5.538  0.7250 -2.3091 -2.6801
  206MOL0     H28366   7.504   5.849   5.521 -0.0681 -1.9880  0.2235
  206MOL0     H28367   7.404   6.072   5.470 -0.4349 -1.4023 -1.5930
  206MOL0     H28368   7.240   6.014   5.469  0.1663  2.1060 -0.3144
  206MOL0     H28369   7.403   5.946   5.716 -1.2413 -2.2588  0.0820
  206MOL0     H28370   7.239   5.925   5.682  1.3690 -1.9912 -2.5142
  206MOL0     H28371   7.372   6.198   5.670  1.0183 -0.9292  0.8929
  206MOL0     H28372   7.191   6.165   5.697 -2.1943 -3.0579  0.3667
  206MOL0     H28373   7.408   6.118   5.902 -0.1372  0.4490 -0.2695
  206MOL0     H28374   7.235   6.077   5.918 -1.1815 -0.7266 -2.2795
  206MOL0     H28375   7.334   6.356   5.841  0.4080  1.6156  1.8425
  206MOL0     H28376   7.179   6.323   5.860 -0.5938 -1.2277 -1.2286
  206MOL0     H28377   7.256   6.537   5.983 -0.5090  1.9559  0.3984
  206MOL0     H28378   7.243   6.624   6.318  0.7842  1.1638  1.6014
  206MOL0     H28379   7.362   6.684   6.199  2.5470  1.1012  1.1680
  206MOL0     H28380   7.423   6.562   6.459 -3.3195 -1.4372 -1.7257
  206MOL0     H28381   7.535   6.602   6.331  2.8792  2.6607  3.4946
  206MOL0     H28382   7.431   6.844   6.331 -2.5357  0.4056  0.5596
  206MOL0     H28383   7.357   6.798   6.485  1.4430 -0.9485  1.7576
  206MOL0     H28384   7.558   6.914   6.512 -2.9147  1.1194 -4.1920
  206MOL0     H28385   7.581   6.761   6.590 -0.2220  1.7565  0.1386
  206MOL0     H28386   7.865   6.794   6.227 -0.0375 -2.3439  0.0895
  206MOL0     H28387   8.152   6.959   6.219  2.6528 -0.8093 -0.5952
  206MOL0     H28388   8.074   6.825   6.135 -1.0815  0.3954  0.9473
  206MOL0     H28389   8.210   6.789   6.253  0.3548  0.2205  0.8235
  206MOL0     H28390   8.494   7.038   6.594 -1.1186  0.0544 -0.0431
  206MOL0     H28391   8.672   6.970   6.746  0.3007 -3.7522  0.1856
  206MOL0     H28392   8.754   6.806   7.155 -1.5127 -1.5603  0.8651
  206MOL0     H28393   8.598   6.769   7.141  3.8306 -1.7475  3.5195
  206MOL0     H28394   8.679   6.565   7.067  3.2150 -2.9317 -2.4033
  206MOL0     H28395   8.640   6.638   6.917 -1.2979  3.0047  0.9637
  206MOL0     H28396   8.914   6.649   7.027 -0.1348  2.2178  0.1773
  206MOL0     H28397   8.865   6.739   6.883 -0.8868  0.2925 -0.9823
  206MOL0     H28398   8.796   6.528   6.780  0.1365 -0.0295  0.2717
  206MOL0     H28399   8.829   6.425   6.923  2.8266 -0.4175  1.1074
  206MOL0     H28400   8.981   6.411   6.722 -2.9871  0.9157 -0.8944
  206MOL0     H28401   9.045   6.570   6.764  2.1598  0.0189  0.9933
  206MOL0     H28402   9.031   6.360   6.983  0.7799 -0.6383 -0.4451
  206MOL0     H28403   9.140   6.496   6.957 -0.3411  0.5825 -1.5774
  206MOL0     H28404   9.269   6.374   6.795  2.0523 -0.9865  1.5483
  206MOL0     H28405   9.150   6.242   6.786 -1.2195 -1.4127  2.1383
  206MOL0     H28406   9.354   6.305   7.011  2.6777 -1.5526 -0.8995
  206MOL0     H28407   9.329   6.155   6.919 -0.4189  0.1523  1.2079
  206MOL0     H28408   8.411   6.859   7.059  1.6036 -1.8317 -0.5138
  206MOL0     H28409   8.210   6.894   6.890 -1.1380  0.9268 -0.4069
  206MOL0     H28410   8.007   6.879   6.693  2.2575  1.4716 -0.2166
  206MOL0     H28411   7.783   6.825   6.638  1.6530 -0.4049  1.0322
  206MOL0     H28412   7.023   5.794   5.161  2.9412 -0.0369  1.5622
  206MOL0     H28413   6.857   5.652   5.058 -0.7612  2.4705 -1.1968
  206MOL0     H28414   6.609   5.388   4.867 -2.5225 -0.0400 -0.8882
  206MOL0     H28415   6.461   5.239   4.766  1.7350  0.2684  0.6535
  206MOL0     H28416   6.361   4.995   4.481  2.0764  1.3659 -1.0921
  206MOL0     H28417   6.388   5.032   4.647  1.6224 -1.0490 -0.5122
  206MOL0     H28418   6.251   5.222   4.446 -1.7177  0.7683  0.4122
  206MOL0     H28419   6.255   5.240   4.622  0.9364 -1.4393  1.7885
  206MOL0     H28420   6.057   5.155   4.627  0.8821  1.3852  0.3079
  206MOL0     H28421   6.070   5.123   4.451  1.0841  3.9990 -0.6546
  206MOL0     H28422   6.138   4.929   4.687 -0.1532  0.2754  0.1772
  206MOL0     H28423   6.177   4.892   4.524  0.5063  0.0731 -0.4556
  206MOL0     H28424   5.756   4.838   4.536  0.2792  2.3849  0.1196
  206MOL0     H28425   6.715   5.224   4.414  0.3412  1.9505  0.2593
  206MOL0     H28426   6.911   5.345   4.414  3.8898 -0.3381  1.5287
  206MOL0     H28427   6.850   5.517   4.444 -0.8106  0.1384  1.6330
  206MOL0     H28428   6.980   5.432   4.544 -1.2995  0.8725  3.1796
  207MOL0     O28429   7.098  10.823   6.167  0.1342 -0.2121  0.3780
  207MOL0     C28430   6.984  10.799   6.124 -0.8554  0.4319  1.1809
  207MOL0     O28431   6.951  10.766   5.997 -0.4921 -1.2625  0.9753
  207MOL0     C28432   7.054  10.759   5.903  1.1455  0.2120  0.1958
  207MOL0     C28433   7.086  10.640   5.841 -0.8291  0.1351 -0.5638
  207MOL0     C28434   7.197  10.629   5.751 -0.6920 -0.6181 -0.4389
  207MOL0     C28435   7.270  10.745   5.714 -0.8795  0.3381  0.1818
  207MOL0     O28436   7.371  10.736   5.622 -0.3085  0.0767  0.2873
  207MOL0     C28437   7.390  10.621   5.534  0.3854 -0.0008 -0.7076
  207MOL0     C28438   7.519  10.643   5.460 -0.7502 -0.2488  0.1762
  207MOL0     C28439   7.641  10.619   5.549 -0.0551  0.6367 -0.0872
  207MOL0     C28440   7.759  10.680   5.476 -0.4228 -0.5672  0.1146
  207MOL0     C28441   7.896  10.651   5.544 -0.4914  0.1463 -0.3105
  207MOL0     C28442   8.008  10.705   5.453 -0.2255  0.5334 -0.2399
  207MOL0     C28443   8.150  10.650   5.487  0.2726 -0.6211 -0.3232
  207MOL0     C28444   8.180  10.679   5.640  0.6849  0.7514  0.1165
  207MOL0     N28445   8.322  10.677   5.665  0.4162  0.0505  0.5975
  207MOL0     C28446   8.387  10.789   5.715 -0.8349  0.2812 -0.0022
  207MOL0     C28447   8.507  10.734   5.761  0.5456 -0.0611  0.4861
  207MOL0     C28448   8.615  10.794   5.845 -0.4881 -0.2116 -0.4851
  207MOL0     C28449   8.654  10.936   5.804 -1.0317  0.4207  0.5970
  207MOL0     C28450   8.708  10.923   5.657 -0.0153 -0.3679  0.5575
  207MOL0     C28451   8.788  11.052   5.617  0.7270 -0.2116 -0.6057
  207MOL0     O28452   8.899  11.065   5.701  0.4477  0.1521 -0.1570
  207MOL0     C28453   9.018  11.020   5.635  0.1829  0.3577  0.0059
  207MOL0     C28454   9.136  11.063   5.678 -0.1694 -0.4016  0.2772
  207MOL0     C28455   9.264  11.027   5.621 -0.2153 -0.8261 -0.1188
  207MOL0     C28456   9.386  11.073   5.698 -0.4641  0.5850 -0.6526
  207MOL0     C28457   9.268  10.940   5.518 -0.7166 -0.2552  0.3468
  207MOL0     C28458   9.404  10.909   5.444 -0.2517 -0.8609  1.1207
  207MOL0     O28459   9.521  10.975   5.476 -0.1125  0.1685  0.1848
  207MOL0     C28460   9.646  10.948   5.411  0.0005  0.1310  0.6980
  207MOL0     C28461   9.694  10.821   5.383 -0.3045  0.0962  0.1272
  207MOL0     C28462   9.813  10.812   5.307  0.3399  0.3356  0.5942
  207MOL0     C28463   9.887  10.923   5.272  0.0837  0.0340 -0.2072
  207MOL0     O28464   9.997  10.895   5.198 -0.4319 -0.8156 -0.1670
  207MOL0     C28465  10.049  10.995   5.105 -1.4597  0.6216 -0.2592
  207MOL0     C28466   9.956  11.022   4.986  0.5744  0.9232 -0.0706
  207MOL0     C28467  10.021  11.106   4.870  0.1370 -0.1025 -0.5055
  207MOL0     C28468  10.017  11.255   4.892 -0.1282  0.0368 -0.4726
  207MOL0     C28469  10.085  11.313   4.776  0.2158  0.2870 -0.0568
  207MOL0     C28470  10.069  11.463   4.784  0.8331 -0.6913  0.0827
  207MOL0     C28471  10.088  11.539   4.643  0.5889 -0.2217 -0.8166
  207MOL0     C28472   9.952  11.593   4.602  0.0714 -0.2347  0.0056
  207MOL0    Cl28473   9.846  11.460   4.545 -0.0334 -0.4648 -0.1966
  207MOL0     C28474   9.840  11.050   5.313 -0.0827  0.0733  0.1879
  207MOL0     C28475   9.719  11.060   5.379 -0.3147  0.0966 -0.0103
  207MOL0     O28476   9.398  10.806   5.378  0.3796  0.3916  0.2743
  207MOL0     C28477   9.149  10.898   5.457  0.0561  0.0105 -0.3878
  207MOL0     C28478   9.026  10.937   5.517 -0.5743 -0.1158  0.0210
  207MOL0     N28479   8.507  10.600   5.727 -0.6193  0.2711 -0.0848
  207MOL0     N28480   8.391  10.570   5.683 -0.7529  0.6049  0.3032
  207MOL0     C28481   7.231  10.870   5.769 -0.1159  0.7409  0.1664
  207MOL0     C28482   7.118  10.877   5.855 -0.7133  0.0225 -0.7434
  207MOL0     C28483   6.878  10.804   6.219  0.3472 -0.0309  0.2895
  207MOL0     C28484   6.754  10.857   6.179 -0.0149 -0.1096 -0.0094
  207MOL0     C28485   6.644  10.886   6.258  0.7645  0.2371  0.6348
  207MOL0     C28486   6.647  10.845   6.394  0.0031  0.2132 -0.2918
  207MOL0     O28487   6.544  10.860   6.493 -0.5953 -0.0359 -0.5795
  207MOL0     C28488   6.430  10.939   6.454 -0.8150 -0.2355  0.2894
  207MOL0     C28489   6.320  10.920   6.565  0.8224 -0.6961 -0.1188
  207MOL0     C28490   6.346  10.997   6.689  0.2728 -0.2818 -0.0359
  207MOL0     C28491   6.330  10.907   6.811 -0.2831 -0.0230  0.5431
  207MOL0     C28492   6.322  10.988   6.930 -1.1121  0.1921  0.0673
  207MOL0     C28493   6.311  11.062   7.025 -0.1151  0.3229 -0.0421
  207MOL0     C28494   6.767  10.776   6.431 -0.4974 -0.3384 -0.6176
  207MOL0     C28495   6.884  10.771   6.354  0.8911 -0.6650 -0.6548
  207MOL0     C28496   7.011  10.704   6.405  0.2821  0.6207 -0.5567
  207MOL0     H28497   7.026  10.552   5.864  0.2439 -0.1578  1.3778
  207MOL0     H28498   7.212  10.533   5.702 -2.4164 -0.4698 -1.3200
  207MOL0     H28499   7.306  10.613   5.466 -2.1235  1.6301  1.9526
  207MOL0     H28500   7.387  10.529   5.593  2.2736  1.2016  1.4461
  207MOL0     H28501   7.518  10.576   5.373  0.3778  1.1106 -0.9291
  207MOL0     H28502   7.518  10.744   5.419  0.1954 -0.8524 -1.4343
  207MOL0     H28503   7.639  10.670   5.645  4.9333 -0.4030  0.8314
  207MOL0     H28504   7.661  10.516   5.579  2.8802  1.7131  2.0138
  207MOL0     H28505   7.751  10.649   5.372 -0.7445  0.8189 -0.3022
  207MOL0     H28506   7.751  10.790   5.473 -2.4972 -0.6687 -3.3456
  207MOL0     H28507   7.908  10.547   5.578 -0.6102  0.5594  1.0632
  207MOL0     H28508   7.902  10.714   5.633  1.8108  0.4227 -0.6028
  207MOL0     H28509   7.975  10.671   5.354 -0.3509 -1.3781  0.4284
  207MOL0     H28510   8.010  10.814   5.465  1.6517  0.6065 -0.9272
  207MOL0     H28511   8.226  10.692   5.421 -0.9185 -0.0314 -1.3763
  207MOL0     H28512   8.155  10.543   5.466  0.9324 -0.6751  0.0925
  207MOL0     H28513   8.135  10.772   5.674  0.3799  1.4776 -2.1435
  207MOL0     H28514   8.141  10.595   5.698 -2.6197  0.2303 -2.5685
  207MOL0     H28515   8.342  10.885   5.741 -0.1724  0.4832  0.4087
  207MOL0     H28516   8.710  10.743   5.829 -0.2098  0.6802 -1.9629
  207MOL0     H28517   8.585  10.797   5.950  0.0977 -2.8593 -0.1863
  207MOL0     H28518   8.573  11.008   5.816  0.6091  2.9390 -2.0599
  207MOL0     H28519   8.740  10.958   5.869  0.1020 -3.0783  0.5160
  207MOL0     H28520   8.753  10.831   5.618  0.4559 -0.8207  2.1042
  207MOL0     H28521   8.613  10.930   5.604 -1.1079  3.8370  2.6435
  207MOL0     H28522   8.803  11.053   5.509  0.3142 -2.0192 -0.7103
  207MOL0     H28523   8.713  11.129   5.637 -0.9131 -0.9740 -3.3028
  207MOL0     H28524   9.127  11.127   5.765 -0.9191  0.5623 -0.4831
  207MOL0     H28525   9.459  10.992   5.712  0.0004  0.8497 -1.4542
  207MOL0     H28526   9.353  11.095   5.800 -0.5100 -1.5123 -0.1591
  207MOL0     H28527   9.431  11.159   5.648  0.9241  0.1980 -0.1099
  207MOL0     H28528   9.635  10.735   5.412 -1.3484  1.9741  4.2838
  207MOL0     H28529   9.838  10.714   5.267  1.7353  1.2142 -0.7840
  207MOL0     H28530  10.067  11.090   5.156 -3.2482  0.7133  0.2632
  207MOL0     H28531  10.141  10.960   5.058 -0.3966  0.9529  1.4596
  207MOL0     H28532   9.928  10.921   4.953  3.0727 -0.1659  0.9288
  207MOL0     H28533   9.864  11.072   5.018 -1.9021 -1.9576 -2.0968
  207MOL0     H28534   9.971  11.070   4.780  0.4508  2.3421 -1.7060
  207MOL0     H28535  10.126  11.078   4.877  0.1973 -0.0443 -1.1457
  207MOL0     H28536  10.078  11.283   4.979  0.9743 -1.4320 -0.7338
  207MOL0     H28537   9.913  11.289   4.893  0.4760  2.0258  0.3404
  207MOL0     H28538  10.188  11.279   4.762 -0.1109 -1.2966  1.1284
  207MOL0     H28539  10.033  11.285   4.683 -0.6567  0.1251  0.4739
  207MOL0     H28540  10.144  11.500   4.853 -1.3627 -1.1039  2.8677
  207MOL0     H28541   9.971  11.488   4.825 -0.1926 -1.5332 -1.6894
  207MOL0     H28542  10.134  11.491   4.556 -0.3772 -0.1530 -1.3685
  207MOL0     H28543  10.152  11.626   4.660  0.2865 -0.3098  0.9011
  207MOL0     H28544   9.968  11.673   4.529 -1.6853  1.0380  0.9503
  207MOL0     H28545   9.898  11.634   4.688  1.9705  0.6766  0.8185
  207MOL0     H28546   9.881  11.147   5.287  2.4154 -1.2262 -0.9849
  207MOL0     H28547   9.685  11.158   5.412 -1.8063 -0.7408  1.0392
  207MOL0     H28548   9.146  10.821   5.381 -0.4769  1.1207 -1.5272
  207MOL0     H28549   8.936  10.891   5.476 -1.7770  1.2860  0.9661
  207MOL0     H28550   7.298  10.949   5.737 -0.8539  0.9364 -0.9425
  207MOL0     H28551   7.101  10.978   5.890  3.0419  1.3246 -2.2575
  207MOL0     H28552   6.747  10.893   6.077 -1.8460 -0.3086  0.0154
  207MOL0     H28553   6.568  10.948   6.211  3.5457  3.7400  0.3686
  207MOL0     H28554   6.461  11.042   6.437 -0.8083 -0.1851  0.5976
  207MOL0     H28555   6.386  10.900   6.361 -1.4715  0.9000  0.1029
  207MOL0     H28556   6.322  10.814   6.592 -4.3545 -0.9867  0.0087
  207MOL0     H28557   6.223  10.952   6.528 -0.0065 -0.0203  2.4202
  207MOL0     H28558   6.446  11.039   6.687  0.2301 -0.0889  1.1897
  207MOL0     H28559   6.273  11.078   6.682  0.1436 -0.4658 -0.9664
  207MOL0     H28560   6.420  10.845   6.812  0.5424  1.1390  2.0058
  207MOL0     H28561   6.240  10.846   6.802 -1.2728  1.5204 -0.5862
  207MOL0     H28562   6.298  11.119   7.115 -2.2938  0.0544 -0.1359
  207MOL0     H28563   6.768  10.767   6.539 -3.7169 -0.4448 -0.5253
  207MOL0     H28564   7.002  10.695   6.514 -1.7653  0.0270 -0.7190
  207MOL0     H28565   7.029  10.606   6.361 -0.9521  1.7319 -3.8406
  207MOL0     H28566   7.100  10.767   6.396  0.2753  0.9695  1.4031
  208MOL0     O28567   6.311   8.272   8.942  0.1429  0.5852 -0.0878
  208MOL0     C28568   6.226   8.340   8.994  0.9502 -0.6731 -0.6380
  208MOL0     O28569   6.245   8.443   9.080  0.2321 -0.4138  0.0960
  208MOL0     C28570   6.361   8.519   9.079  0.3083 -0.0996  0.5479
  208MOL0     C28571   6.433   8.531   9.202  0.0025 -0.5911 -0.2161
  208MOL0     C28572   6.560   8.590   9.202  0.0410  0.3399  0.0818
  208MOL0     C28573   6.610   8.655   9.089 -0.4229 -0.1024  0.0531
  208MOL0     O28574   6.730   8.714   9.092 -0.0513 -0.3639 -0.2453
  208MOL0     C28575   6.742   8.831   9.182  0.4065  0.3967  0.5118
  208MOL0     C28576   6.871   8.823   9.263  0.1292  0.1031  0.2635
  208MOL0     C28577   6.891   8.709   9.361  0.4562  0.6043  0.5907
  208MOL0     C28578   6.904   8.751   9.498  0.1854 -0.1481 -0.5813
  208MOL0     C28579   6.928   8.621   9.579  1.2520  0.8155  0.8637
  208MOL0     C28580   7.058   8.627   9.660  0.2660  0.3049 -0.1101
  208MOL0     C28581   7.186   8.631   9.578 -0.0575  0.9876 -1.1145
  208MOL0     C28582   7.309   8.619   9.670  1.0503  0.1216 -0.0399
  208MOL0     N28583   7.425   8.606   9.585 -0.1721  0.9697 -0.0369
  208MOL0     C28584   7.464   8.508   9.501  0.5663 -0.2135 -0.6895
  208MOL0     C28585   7.591   8.512   9.479 -0.7001 -0.3055 -0.1225
  208MOL0     C28586   7.681   8.426   9.394 -0.3819  0.4602 -0.0811
  208MOL0     C28587   7.779   8.338   9.482  0.4694 -0.7364  0.5716
  208MOL0     C28588   7.882   8.419   9.562  0.3618  0.5842  0.3061
  208MOL0     C28589   7.971   8.318   9.635 -0.3114 -0.3081 -0.5300
  208MOL0     O28590   8.080   8.390   9.686  0.2026  0.3990 -0.0042
  208MOL0     C28591   8.182   8.314   9.738 -0.5588 -0.1435  0.7055
  208MOL0     C28592   8.182   8.172   9.752 -0.0011 -0.4372 -1.2989
  208MOL0     C28593   8.299   8.104   9.795 -0.5476  0.0113  0.7632
  208MOL0     C28594   8.295   7.952   9.785  0.3909 -0.3651 -0.1096
  208MOL0     C28595   8.418   8.180   9.829  1.0897  0.0984 -0.0011
  208MOL0     C28596   8.541   8.118   9.868  0.6678 -0.0061 -0.0215
  208MOL0     O28597   8.535   8.021   9.966 -0.0203  0.5874 -0.6701
  208MOL0     C28598   8.652   7.943   9.977 -0.7199 -0.4238 -0.1862
  208MOL0     C28599   8.660   7.810   9.932 -0.8357  0.3436 -0.4441
  208MOL0     C28600   8.783   7.733   9.937 -0.7638  0.7562 -0.0060
  208MOL0     C28601   8.901   7.790   9.995  0.3244  0.4784  0.6155
  208MOL0     O28602   9.025   7.742  10.011 -0.3820  1.1131  0.2479
  208MOL0     C28603   9.068   7.644   9.924  0.1370 -0.2648 -0.5330
  208MOL0     C28604   9.159   7.539   9.988  0.5193 -0.4091 -0.7524
  208MOL0     C28605   9.298   7.601  10.012 -0.4673  0.4260 -0.1522
  208MOL0     C28606   9.378   7.481  10.090 -0.2898 -0.0777  0.0631
  208MOL0     C28607   9.536   7.510  10.124 -0.0526  0.4673  0.6890
  208MOL0     C28608   9.546   7.613  10.240 -0.3350 -0.1590  0.8345
  208MOL0     C28609   9.694   7.665  10.261 -0.6710  0.2764  0.4035
  208MOL0     C28610   9.724   7.673  10.405  0.0414 -0.3736 -0.2946
  208MOL0    Cl28611   9.859   7.791  10.413 -0.0767  0.6273  0.1622
  208MOL0     C28612   8.884   7.921  10.048  0.5283 -0.7355  0.6530
  208MOL0     C28613   8.765   7.995  10.047 -0.3421 -0.0571  0.0652
  208MOL0     O28614   8.645   8.168   9.823  0.0075  1.2744  0.1639
  208MOL0     C28615   8.409   8.319   9.822  0.1126 -0.7558  0.0766
  208MOL0     C28616   8.294   8.387   9.776  0.4460  0.2032 -0.8476
  208MOL0     N28617   7.636   8.626   9.551  0.5720  0.5352 -1.1730
  208MOL0     N28618   7.532   8.681   9.606 -0.5116 -0.0506 -0.2077
  208MOL0     C28619   6.531   8.650   8.971  0.1627 -0.4711  0.1434
  208MOL0     C28620   6.408   8.580   8.962 -0.0672 -0.4133 -0.5370
  208MOL0     C28621   6.083   8.289   8.991  0.6629  0.5188  0.6275
  208MOL0     C28622   6.074   8.164   8.930 -0.6725 -0.3402  1.1352
  208MOL0     C28623   5.943   8.103   8.921 -0.5914 -0.6203  0.0478
  208MOL0     C28624   5.834   8.162   8.959  0.4297 -0.1517 -0.4063
  208MOL0     O28625   5.718   8.093   8.952  0.3232  0.4301 -0.8200
  208MOL0     C28626   5.601   8.139   9.025 -0.2453 -0.1754 -0.7600
  208MOL0     C28627   5.488   8.038   9.017  0.6286 -0.1171  0.1380
  208MOL0     C28628   5.511   7.889   9.061 -0.1708 -0.1142 -0.0973
  208MOL0     C28629   5.386   7.792   9.061  0.0905  0.1555  0.5179
  208MOL0     C28630   5.312   7.787   8.939  0.0211  0.9713  0.1165
  208MOL0     C28631   5.262   7.778   8.822 -0.2554 -0.7898 -0.1939
  208MOL0     C28632   5.851   8.287   9.027  0.1632  0.0321 -0.2801
  208MOL0     C28633   5.972   8.355   9.043  0.5121 -0.3775  0.4387
  208MOL0     C28634   5.969   8.502   9.093  0.3410  0.1191  0.0318
  208MOL0     H28635   6.393   8.478   9.287  0.5496  1.6237  1.5223
  208MOL0     H28636   6.614   8.588   9.296 -1.4850  0.7064  1.0137
  208MOL0     H28637   6.659   8.839   9.253 -1.1740 -2.3176 -0.8701
  208MOL0     H28638   6.767   8.921   9.126  1.4285  0.2667  0.7326
  208MOL0     H28639   6.954   8.813   9.192  0.9826  1.1352  1.0750
  208MOL0     H28640   6.895   8.917   9.313  1.7880  0.3616 -0.9233
  208MOL0     H28641   6.807   8.639   9.363 -0.5149  1.2603 -4.6716
  208MOL0     H28642   6.972   8.649   9.319 -3.1383 -2.4068 -2.7237
  208MOL0     H28643   6.992   8.815   9.508  0.2790 -0.2295 -0.8665
  208MOL0     H28644   6.819   8.809   9.535  1.9042  1.6605  0.7500
  208MOL0     H28645   6.924   8.530   9.518  1.2582  3.5428 -3.6652
  208MOL0     H28646   6.845   8.616   9.650  0.3604  0.6239 -0.1563
  208MOL0     H28647   7.055   8.724   9.711  0.5380 -1.4587  3.5804
  208MOL0     H28648   7.066   8.548   9.735 -1.2881  0.2446  0.0413
  208MOL0     H28649   7.203   8.728   9.531 -0.4900  1.5497 -0.1309
  208MOL0     H28650   7.200   8.545   9.512  0.7438 -0.9494  1.3944
  208MOL0     H28651   7.322   8.712   9.727  0.7636  1.0602 -1.4653
  208MOL0     H28652   7.312   8.532   9.736 -2.9126 -1.1917 -1.2917
  208MOL0     H28653   7.406   8.420   9.474  0.8151 -0.8378  0.6891
  208MOL0     H28654   7.733   8.485   9.319 -2.2135  1.0145 -0.9756
  208MOL0     H28655   7.625   8.347   9.343  1.2192  0.6203 -2.2251
  208MOL0     H28656   7.735   8.265   9.551 -0.0917 -1.2564 -0.3241
  208MOL0     H28657   7.829   8.269   9.414 -1.7873 -2.6063  0.7098
  208MOL0     H28658   7.936   8.472   9.483 -0.8472  2.2123  0.5059
  208MOL0     H28659   7.844   8.489   9.637  1.6196  0.9833  0.6020
  208MOL0     H28660   7.912   8.269   9.713 -0.0929 -0.0923 -0.2282
  208MOL0     H28661   8.018   8.241   9.573  1.3584  0.8573 -0.7636
  208MOL0     H28662   8.088   8.118   9.740 -0.9823  0.5962  1.0751
  208MOL0     H28663   8.209   7.933   9.720 -1.6471  4.3966  0.7667
  208MOL0     H28664   8.277   7.918   9.887  1.6026  1.5254  0.7914
  208MOL0     H28665   8.389   7.909   9.748 -0.2082 -0.2744 -1.8595
  208MOL0     H28666   8.574   7.766   9.883 -1.6871 -0.0314  1.3069
  208MOL0     H28667   8.773   7.629   9.907 -0.5813  0.5116  0.7818
  208MOL0     H28668   8.985   7.583   9.887 -1.8185  1.7955  0.2437
  208MOL0     H28669   9.116   7.695   9.841  2.0805  0.2539  0.8485
  208MOL0     H28670   9.114   7.516  10.085 -0.2335 -1.8463 -1.4008
  208MOL0     H28671   9.167   7.448   9.927  0.7141  0.3531 -1.9077
  208MOL0     H28672   9.291   7.693  10.070  0.0806 -0.7164  1.7969
  208MOL0     H28673   9.344   7.619   9.914 -0.2435  0.8140  0.0242
  208MOL0     H28674   9.374   7.389  10.031 -0.6619 -0.7445  1.0946
  208MOL0     H28675   9.323   7.463  10.183 -0.9444  0.0363 -0.2949
  208MOL0     H28676   9.583   7.418  10.160  1.6870  0.1431 -2.1244
  208MOL0     H28677   9.600   7.543  10.042  1.2282  0.0073  1.4750
  208MOL0     H28678   9.516   7.568  10.335  1.1961 -1.4993  0.7268
  208MOL0     H28679   9.482   7.699  10.218  2.7071  2.2830  0.8489
  208MOL0     H28680   9.698   7.764  10.215 -2.5348 -1.1149 -3.0955
  208MOL0     H28681   9.778   7.604  10.226  0.0651  0.3070  1.9940
  208MOL0     H28682   9.737   7.571  10.442 -2.0206 -0.4831  0.2536
  208MOL0     H28683   9.651   7.724  10.468 -0.2254  0.9353 -1.6095
  208MOL0     H28684   8.973   7.955  10.100  0.0864 -1.7837  2.1556
  208MOL0     H28685   8.764   8.094  10.091 -0.0828 -0.2147  0.4313
  208MOL0     H28686   8.490   8.377   9.867  0.0040 -2.6844  3.0673
  208MOL0     H28687   8.291   8.495   9.765  0.6633  0.1321 -1.6752
  208MOL0     H28688   6.559   8.676   8.869 -1.7545  1.6783  0.0834
  208MOL0     H28689   6.365   8.566   8.863 -2.9029  0.4505  0.4762
  208MOL0     H28690   6.157   8.112   8.882 -0.7640 -0.4099  1.0518
  208MOL0     H28691   5.928   8.005   8.878 -2.0490 -0.9826  1.2882
  208MOL0     H28692   5.617   8.153   9.133 -2.9155 -1.0759 -0.1809
  208MOL0     H28693   5.563   8.236   8.991 -3.1312 -0.4230  1.3335
  208MOL0     H28694   5.461   8.024   8.912 -0.7576 -0.2727  0.4933
  208MOL0     H28695   5.400   8.074   9.072 -1.5615 -3.0183 -1.1801
  208MOL0     H28696   5.582   7.850   8.987 -0.0493 -2.3171  1.0962
  208MOL0     H28697   5.563   7.893   9.157  1.1471  1.6941 -0.8352
  208MOL0     H28698   5.322   7.830   9.141  2.6624 -1.6716  3.6557
  208MOL0     H28699   5.426   7.695   9.089  1.7421  0.4982 -0.5087
  208MOL0     H28700   5.206   7.758   8.733 -3.9295  0.0493  1.7069
  208MOL0     H28701   5.759   8.344   9.034  0.9441  1.3729 -0.5632
  208MOL0     H28702   5.990   8.512   9.200  1.0715  0.0554 -0.0962
  208MOL0     H28703   6.043   8.564   9.041 -0.5684 -0.9907 -2.7652
  208MOL0     H28704   5.876   8.551   9.064  1.0283  0.8205 -1.0848
  209MOL0     O28705   7.217   4.356   3.449  0.3116 -0.1084 -0.2490
  209MOL0     C28706   7.327   4.373   3.491 -0.0507 -0.5443 -0.7730
  209MOL0     O28707   7.431   4.444   3.427  0.1347  0.3743  0.5216
  209MOL0     C28708   7.402   4.459   3.295 -0.1047 -0.7992  0.6267
  209MOL0     C28709   7.394   4.593   3.249 -0.1796 -0.8859  0.5004
  209MOL0     C28710   7.369   4.616   3.113 -0.5754  0.9669 -0.0621
  209MOL0     C28711   7.349   4.516   3.020  0.4517 -0.1778 -0.5131
  209MOL0     O28712   7.342   4.554   2.888  0.4932 -0.2435 -0.1771
  209MOL0     C28713   7.271   4.458   2.813  0.8414  0.2515  0.5613
  209MOL0     C28714   7.239   4.510   2.679  1.4942 -0.4918  1.4421
  209MOL0     C28715   7.126   4.611   2.674  0.1936 -0.1361  0.8609
  209MOL0     C28716   7.142   4.706   2.552 -0.2272  0.2331 -0.1475
  209MOL0     C28717   7.032   4.813   2.554 -0.1799  0.0500 -0.7976
  209MOL0     C28718   6.893   4.758   2.535  0.7696 -0.1030 -0.2594
  209MOL0     C28719   6.780   4.854   2.557  0.5675 -0.3749  0.1272
  209MOL0     C28720   6.756   4.903   2.703  0.0118 -0.4187  0.2790
  209MOL0     N28721   6.719   4.790   2.795  0.0434 -0.0094  0.6096
  209MOL0     C28722   6.601   4.738   2.823  1.4185  0.1841 -0.7259
  209MOL0     C28723   6.633   4.636   2.912 -0.1164 -0.3230  0.5675
  209MOL0     C28724   6.537   4.549   2.976  0.4190 -0.5356  0.1701
  209MOL0     C28725   6.496   4.426   2.894  0.0701  0.2627 -0.4355
  209MOL0     C28726   6.585   4.299   2.920  0.4117 -0.3761  1.0388
  209MOL0     C28727   6.508   4.192   2.847 -0.2849  0.3142  0.7109
  209MOL0     O28728   6.580   4.073   2.869 -0.0722  0.0047 -0.3096
  209MOL0     C28729   6.659   4.018   2.776  0.0344  0.2229  0.1648
  209MOL0     C28730   6.795   3.980   2.809  0.1272  0.6130  0.3509
  209MOL0     C28731   6.873   3.913   2.715  0.8801  1.0267  0.1870
  209MOL0     C28732   7.021   3.873   2.749 -0.0962  0.3432 -0.3928
  209MOL0     C28733   6.827   3.889   2.580 -0.4536 -0.9307 -0.1342
  209MOL0     C28734   6.886   3.813   2.473 -0.4671 -0.2966 -1.0764
  209MOL0     O28735   6.888   3.879   2.352  0.2317 -0.1189 -0.2328
  209MOL0     C28736   6.969   3.829   2.256 -0.4822 -0.9305  0.7624
  209MOL0     C28737   6.917   3.782   2.140  0.3873  0.8556  0.1021
  209MOL0     C28738   6.994   3.739   2.035 -1.0641 -0.4690 -1.7238
  209MOL0     C28739   7.130   3.755   2.033  0.0546  0.1499  0.2378
  209MOL0     O28740   7.184   3.707   1.917 -0.4189  0.2017  0.2570
  209MOL0     C28741   7.289   3.609   1.930 -0.6308  0.2414 -0.6096
  209MOL0     C28742   7.434   3.665   1.885  0.5152  1.0885  0.5325
  209MOL0     C28743   7.534   3.564   1.829  0.3105  0.0524  0.0861
  209MOL0     C28744   7.674   3.621   1.842 -0.4652  0.8925 -0.3633
  209MOL0     C28745   7.774   3.565   1.750  0.6431  1.0370 -0.5940
  209MOL0     C28746   7.915   3.611   1.781 -0.2067 -0.5878 -0.4279
  209MOL0     C28747   8.012   3.548   1.687  0.6948 -0.2745 -0.7153
  209MOL0     C28748   8.129   3.626   1.701 -1.4190 -0.1545  1.1748
  209MOL0    Cl28749   8.247   3.576   1.571 -0.3166 -0.2251  0.5009
  209MOL0     C28750   7.189   3.829   2.140 -0.5430  0.1528 -0.0080
  209MOL0     C28751   7.113   3.860   2.250 -0.0606  0.1283 -0.4363
  209MOL0     O28752   6.939   3.708   2.499  0.2483 -0.1710 -0.0556
  209MOL0     C28753   6.691   3.932   2.555 -0.1392 -0.0072  0.5882
  209MOL0     C28754   6.608   3.999   2.651 -0.3523 -0.1744  0.5833
  209MOL0     N28755   6.767   4.628   2.931  1.2773 -0.3138 -0.2589
  209MOL0     N28756   6.817   4.714   2.861 -0.3459 -0.8132 -0.5213
  209MOL0     C28757   7.350   4.374   3.066  0.3918 -0.2050 -0.7426
  209MOL0     C28758   7.386   4.354   3.199 -0.1180  1.1666  0.0052
  209MOL0     C28759   7.355   4.333   3.631  0.4888  0.1814 -0.6247
  209MOL0     C28760   7.489   4.350   3.687 -1.2338 -0.0841 -0.3842
  209MOL0     C28761   7.519   4.316   3.820 -0.4420 -0.8722 -0.2640
  209MOL0     C28762   7.425   4.260   3.906  1.0356 -0.3509 -0.9081
  209MOL0     O28763   7.454   4.210   4.036 -0.2924  0.1414  0.1376
  209MOL0     C28764   7.589   4.220   4.085  0.1315  0.6351 -0.8951
  209MOL0     C28765   7.577   4.170   4.232 -0.3734 -0.1438 -0.2474
  209MOL0     C28766   7.586   4.013   4.239  0.4160 -0.6079  0.5498
  209MOL0     C28767   7.452   3.956   4.189 -0.1003  0.6487 -0.8172
  209MOL0     C28768   7.458   3.821   4.257  0.0698 -0.1743 -0.0719
  209MOL0     C28769   7.473   3.719   4.327  0.1626  0.3983  0.3326
  209MOL0     C28770   7.290   4.259   3.856  0.3685 -1.3789 -0.3687
  209MOL0     C28771   7.258   4.283   3.722  0.4498  0.3831  0.0017
  209MOL0     C28772   7.107   4.267   3.691 -0.3054 -0.5686  0.2628
  209MOL0     H28773   7.409   4.673   3.322 -0.3969 -1.2886  0.9927
  209MOL0     H28774   7.357   4.717   3.076  0.7863  1.3841  0.5936
  209MOL0     H28775   7.181   4.424   2.865  0.8551  1.4559  1.4247
  209MOL0     H28776   7.338   4.372   2.807  1.0147  0.4354 -0.1695
  209MOL0     H28777   7.324   4.559   2.633 -1.2281  1.6782 -1.7279
  209MOL0     H28778   7.204   4.425   2.619 -1.2553  1.6838 -0.3136
  209MOL0     H28779   7.026   4.568   2.676 -0.1408  0.3951 -1.4565
  209MOL0     H28780   7.133   4.663   2.770 -2.0309 -0.7319  1.3961
  209MOL0     H28781   7.236   4.760   2.563 -0.0702 -0.5157  3.7068
  209MOL0     H28782   7.144   4.649   2.458  1.1684 -0.5328  0.3102
  209MOL0     H28783   7.049   4.892   2.480 -1.4560  0.3170 -0.8356
  209MOL0     H28784   7.043   4.851   2.655  2.7171  0.7689 -1.3006
  209MOL0     H28785   6.883   4.707   2.439  1.1411 -1.7703  0.5521
  209MOL0     H28786   6.880   4.688   2.618 -0.8215  0.5251  0.0510
  209MOL0     H28787   6.684   4.828   2.511  0.9329 -0.5781 -0.5221
  209MOL0     H28788   6.810   4.944   2.504 -2.1643  1.6663  1.7313
  209MOL0     H28789   6.841   4.959   2.743 -0.3553  1.9535 -2.0735
  209MOL0     H28790   6.669   4.969   2.708  0.4842  0.1308  1.8409
  209MOL0     H28791   6.504   4.774   2.789  0.9101 -0.2378  0.2432
  209MOL0     H28792   6.447   4.605   3.003 -0.3387 -1.9346  0.6205
  209MOL0     H28793   6.589   4.517   3.067  1.9040  0.2712 -0.3451
  209MOL0     H28794   6.394   4.401   2.925  0.2035  0.1745 -0.0623
  209MOL0     H28795   6.484   4.445   2.787 -0.5297 -4.3402 -1.3879
  209MOL0     H28796   6.687   4.302   2.880  0.9993 -3.4139  2.0570
  209MOL0     H28797   6.599   4.273   3.025 -1.3311  0.3561  1.4952
  209MOL0     H28798   6.417   4.180   2.906 -0.2446 -0.6444  0.5932
  209MOL0     H28799   6.482   4.202   2.742  0.1547 -0.2662  0.5360
  209MOL0     H28800   6.842   3.988   2.907  0.4259 -3.4578  0.7048
  209MOL0     H28801   7.089   3.893   2.666 -0.2459 -0.5426 -0.7430
  209MOL0     H28802   7.018   3.765   2.766  0.1547  0.0961 -1.7962
  209MOL0     H28803   7.056   3.930   2.835  0.9581  2.0622 -1.8852
  209MOL0     H28804   6.811   3.772   2.121  0.2370  3.7640 -1.1859
  209MOL0     H28805   6.939   3.682   1.961 -1.7629 -0.0497 -1.5338
  209MOL0     H28806   7.285   3.569   2.031 -1.8150  0.7901 -0.4252
  209MOL0     H28807   7.261   3.529   1.861  3.6621 -1.7232 -0.4067
  209MOL0     H28808   7.430   3.729   1.797 -0.2344  1.0527  0.5360
  209MOL0     H28809   7.477   3.732   1.960  1.1406  1.1334  0.1376
  209MOL0     H28810   7.517   3.543   1.723  1.0315 -3.4202  0.5410
  209MOL0     H28811   7.522   3.467   1.879 -0.1070 -1.9492 -3.5001
  209MOL0     H28812   7.709   3.607   1.945 -0.1335 -0.5135 -0.6537
  209MOL0     H28813   7.666   3.729   1.821 -2.1717  0.7836 -0.4535
  209MOL0     H28814   7.775   3.456   1.764  4.0175  1.0549  0.1365
  209MOL0     H28815   7.738   3.584   1.648  0.3338  2.4511 -0.2407
  209MOL0     H28816   7.938   3.585   1.885 -1.5722  0.3968  0.1378
  209MOL0     H28817   7.923   3.720   1.779  2.3346 -0.7080 -2.7134
  209MOL0     H28818   7.964   3.559   1.589 -0.8738 -0.5812 -0.0194
  209MOL0     H28819   8.027   3.440   1.702 -0.1867 -0.6648 -2.3110
  209MOL0     H28820   8.165   3.611   1.803 -2.5034  1.1400  1.7915
  209MOL0     H28821   8.113   3.733   1.683 -2.6743 -0.8542 -3.1241
  209MOL0     H28822   7.291   3.866   2.143 -0.5278  0.4902  5.1622
  209MOL0     H28823   7.157   3.907   2.338  2.7144 -0.0712 -1.6095
  209MOL0     H28824   6.638   3.906   2.464 -2.4136 -0.5341  1.9843
  209MOL0     H28825   6.511   4.031   2.614  0.6006  0.7333 -1.2884
  209MOL0     H28826   7.338   4.300   2.988 -0.9051  1.6462 -2.4210
  209MOL0     H28827   7.397   4.248   3.220  2.2635  1.7752  2.3204
  209MOL0     H28828   7.562   4.397   3.621  0.7981  0.0411  1.8374
  209MOL0     H28829   7.616   4.348   3.855 -0.8198  3.6094 -2.5654
  209MOL0     H28830   7.659   4.155   4.032 -0.6210 -0.2719 -0.8096
  209MOL0     H28831   7.621   4.324   4.081  2.1651  0.1907  1.4918
  209MOL0     H28832   7.485   4.207   4.279  0.6127  0.1929  1.5192
  209MOL0     H28833   7.661   4.209   4.290 -0.1211 -1.9030  0.6470
  209MOL0     H28834   7.669   3.969   4.183 -0.0213 -0.2563 -0.3853
  209MOL0     H28835   7.617   3.983   4.340 -1.0249 -1.0711  0.8808
  209MOL0     H28836   7.444   3.952   4.080  1.6506  0.8740 -0.9820
  209MOL0     H28837   7.364   4.011   4.225 -0.2243  0.0545 -0.1681
  209MOL0     H28838   7.479   3.631   4.387 -1.4681  3.8122  6.3173
  209MOL0     H28839   7.206   4.230   3.917  0.8041 -1.9145 -0.0130
  209MOL0     H28840   7.073   4.352   3.630  0.8878  0.6460  1.2433
  209MOL0     H28841   7.091   4.184   3.621  0.6223  0.3040 -1.0187
  209MOL0     H28842   7.033   4.251   3.770 -0.8228 -2.1910 -0.4945
  210MOL0     O28843   8.694   8.534   6.911  0.1365  0.1064 -0.3394
  210MOL0     C28844   8.661   8.457   7.008 -0.0135 -0.5360  0.1136
  210MOL0     O28845   8.750   8.379   7.075  0.3333 -1.3104 -0.1504
  210MOL0     C28846   8.876   8.360   7.020  0.1926 -0.2210  0.6332
  210MOL0     C28847   8.923   8.224   7.007  0.7790 -0.2003  0.7414
  210MOL0     C28848   9.057   8.203   6.967 -0.0682  0.4808  0.1054
  210MOL0     C28849   9.146   8.307   6.943  0.2694  0.0403 -0.0918
  210MOL0     O28850   9.278   8.297   6.919 -0.8744 -0.2749  0.8392
  210MOL0     C28851   9.330   8.162   6.910  0.7814 -1.2778 -1.3255
  210MOL0     C28852   9.473   8.164   6.857 -0.3222  0.1061 -0.4014
  210MOL0     C28853   9.549   8.030   6.878  0.0352 -0.4202 -1.0993
  210MOL0     C28854   9.703   8.053   6.843  0.6774 -0.2520  1.0782
  210MOL0     C28855   9.787   7.967   6.936  0.0050  0.3147  0.4391
  210MOL0     C28856   9.932   7.992   6.895  0.0934  0.3475 -0.5445
  210MOL0     C28857  10.027   7.923   6.995 -0.1569 -0.7455  0.3744
  210MOL0     C28858  10.179   7.942   6.979 -0.5196 -0.4305  0.2778
  210MOL0     N28859  10.269   7.917   7.092 -0.8498  0.2078  0.2636
  210MOL0     C28860  10.336   8.025   7.141 -0.0498  0.6031  0.0710
  210MOL0     C28861  10.401   7.976   7.251 -0.0347  0.4115 -0.3257
  210MOL0     C28862  10.485   8.049   7.353  0.2395 -0.8857 -0.1454
  210MOL0     C28863  10.629   8.043   7.309 -0.1057  0.9870  0.1899
  210MOL0     C28864  10.729   8.067   7.426 -0.4177  0.6439  0.0249
  210MOL0     C28865  10.867   8.062   7.370  0.8219 -0.0801 -0.5928
  210MOL0     O28866  10.863   8.160   7.277 -0.3520 -0.6070  0.2351
  210MOL0     C28867  10.988   8.193   7.229  0.6551  0.8212 -0.5777
  210MOL0     C28868  11.001   8.204   7.089 -0.9029  0.4781 -0.9227
  210MOL0     C28869  11.128   8.230   7.029 -0.4953  0.1489  0.8036
  210MOL0     C28870  11.130   8.249   6.878  0.1446  0.6679 -0.5738
  210MOL0     C28871  11.245   8.249   7.110 -0.1063  0.7208  0.0838
  210MOL0     C28872  11.382   8.288   7.055 -0.0567  0.3378 -0.5957
  210MOL0     O28873  11.484   8.216   7.112 -0.0698 -0.1524  0.0974
  210MOL0     C28874  11.615   8.238   7.076 -0.2679  0.1378  0.0104
  210MOL0     C28875  11.670   8.227   6.941 -0.5241  0.1656  0.2957
  210MOL0     C28876  11.809   8.228   6.907 -0.0159 -0.6598  0.1688
  210MOL0     C28877  11.898   8.241   7.019  0.0570 -0.6393  0.7868
  210MOL0     O28878  12.036   8.238   7.004  0.4932  0.4391 -0.2574
  210MOL0     C28879  12.094   8.192   6.881  0.0319 -0.2374  0.0099
  210MOL0     C28880  12.240   8.235   6.871 -0.6793 -0.1362  0.6882
  210MOL0     C28881  12.325   8.187   6.986 -0.2659  0.8238  0.2861
  210MOL0     C28882  12.473   8.216   6.976 -0.1669 -0.0126 -0.0170
  210MOL0     C28883  12.527   8.216   7.117 -0.2577  0.6092  0.1214
  210MOL0     C28884  12.682   8.184   7.110  0.0638  0.8094 -0.1662
  210MOL0     C28885  12.735   8.137   7.252  0.7729  0.6858 -0.9827
  210MOL0     C28886  12.884   8.156   7.273  0.1786  0.1117  0.4060
  210MOL0    Cl28887  12.930   8.321   7.241 -0.0360 -0.2855  0.2385
  210MOL0     C28888  11.847   8.250   7.152  0.1170  0.8837 -0.6367
  210MOL0     C28889  11.706   8.247   7.179 -0.0499  0.0106 -0.1962
  210MOL0     O28890  11.398   8.383   6.984 -0.0007 -0.4773 -0.5056
  210MOL0     C28891  11.223   8.238   7.246  0.8866 -0.5411 -0.9412
  210MOL0     C28892  11.104   8.209   7.307  1.1599 -0.0556  0.4476
  210MOL0     N28893  10.377   7.839   7.262  0.1559  0.6165 -0.1413
  210MOL0     N28894  10.306   7.804   7.156 -0.2373 -0.4510  0.1629
  210MOL0     C28895   9.096   8.436   6.957  0.1218 -0.6520  0.1243
  210MOL0     C28896   8.965   8.466   7.005 -0.1448  0.5467  0.5758
  210MOL0     C28897   8.524   8.468   7.051 -1.1736  0.1901 -0.6446
  210MOL0     C28898   8.445   8.576   7.007 -0.3163 -0.3949 -0.2539
  210MOL0     C28899   8.310   8.582   7.038 -0.1148 -1.8020  0.3494
  210MOL0     C28900   8.249   8.497   7.133 -0.8326 -0.4427 -0.0063
  210MOL0     O28901   8.129   8.544   7.163  0.0143  0.3285 -1.5001
  210MOL0     C28902   8.061   8.495   7.283 -0.2675  0.1368  0.2485
  210MOL0     C28903   7.920   8.533   7.271 -0.5755 -0.4716 -0.4743
  210MOL0     C28904   7.909   8.671   7.327  0.3407 -0.0716 -1.0125
  210MOL0     C28905   7.764   8.713   7.320 -0.0736  0.1151 -0.4556
  210MOL0     C28906   7.750   8.858   7.291  0.0876 -0.0901  0.2644
  210MOL0     C28907   7.752   8.977   7.287 -0.1879 -0.1614 -0.0955
  210MOL0     C28908   8.326   8.399   7.185  0.3540  0.9893 -0.3109
  210MOL0     C28909   8.461   8.373   7.143  0.6736 -0.0034 -0.9232
  210MOL0     C28910   8.528   8.262   7.193  0.3439 -0.1797  0.0467
  210MOL0     H28911   8.865   8.133   7.022  3.4655 -2.9585 -3.3144
  210MOL0     H28912   9.089   8.102   6.947  0.4944  0.8475 -0.9342
  210MOL0     H28913   9.271   8.096   6.846 -0.0869 -1.4754 -0.3362
  210MOL0     H28914   9.327   8.104   7.003  0.9328 -1.1546 -1.2437
  210MOL0     H28915   9.472   8.199   6.753  1.9162  1.5418 -0.0177
  210MOL0     H28916   9.534   8.238   6.910 -0.1501  0.3063 -0.8655
  210MOL0     H28917   9.541   7.999   6.983 -3.3008  0.1414 -1.0756
  210MOL0     H28918   9.509   7.946   6.820  0.3103 -1.9625  0.8036
  210MOL0     H28919   9.732   8.037   6.739 -1.8021  2.2452 -0.1545
  210MOL0     H28920   9.737   8.156   6.858  3.9490 -1.0179 -0.3254
  210MOL0     H28921   9.777   7.859   6.933  1.5119  0.1666  0.0205
  210MOL0     H28922   9.770   8.008   7.036 -2.7363  0.6777 -0.0920
  210MOL0     H28923   9.960   7.971   6.791 -1.6688  0.7437 -1.1290
  210MOL0     H28924   9.945   8.101   6.899 -0.5362  0.3899  0.4353
  210MOL0     H28925  10.004   7.816   6.996 -1.5980 -0.4554  0.4671
  210MOL0     H28926   9.995   7.965   7.091  1.5619  0.4269  0.4888
  210MOL0     H28927  10.194   7.876   6.893 -1.6433 -1.2246  0.6625
  210MOL0     H28928  10.188   8.045   6.945 -1.0296 -0.5997 -0.3757
  210MOL0     H28929  10.327   8.129   7.111 -2.0241 -0.1431 -2.2832
  210MOL0     H28930  10.466   7.988   7.441  0.9441  0.1554  0.7593
  210MOL0     H28931  10.447   8.151   7.369 -1.6842 -1.3379 -1.3944
  210MOL0     H28932  10.652   7.946   7.264 -1.2004  1.3992 -1.3277
  210MOL0     H28933  10.652   8.106   7.223  0.2923  1.2924  0.5152
  210MOL0     H28934  10.704   8.159   7.480 -1.2054  1.7559 -2.1140
  210MOL0     H28935  10.716   7.979   7.490 -0.0009  0.2999 -0.3606
  210MOL0     H28936  10.923   8.075   7.463  1.2194 -3.8474 -0.1418
  210MOL0     H28937  10.902   7.967   7.330 -1.9231 -1.1839 -0.5788
  210MOL0     H28938  10.912   8.199   7.027  0.0569  3.7508 -2.8135
  210MOL0     H28939  11.202   8.190   6.821 -0.6986  1.7430 -2.8712
  210MOL0     H28940  11.148   8.356   6.863 -0.8913  1.1917  1.5095
  210MOL0     H28941  11.034   8.226   6.831 -0.6686 -1.4941  1.9024
  210MOL0     H28942  11.603   8.224   6.856 -2.6213  3.6648  1.6310
  210MOL0     H28943  11.830   8.217   6.801 -1.1474 -0.6557 -0.0737
  210MOL0     H28944  12.080   8.084   6.873  0.3478 -0.3610  0.9151
  210MOL0     H28945  12.036   8.236   6.800 -1.6248 -0.7699  0.8560
  210MOL0     H28946  12.276   8.197   6.776  2.3946 -0.1179  1.7241
  210MOL0     H28947  12.250   8.344   6.867  2.4265 -0.3914 -1.3893
  210MOL0     H28948  12.306   8.080   6.998  0.0659  0.8192  0.8148
  210MOL0     H28949  12.293   8.247   7.072  3.9755  2.6512  0.8367
  210MOL0     H28950  12.488   8.310   6.921 -2.1472  1.6035  2.0229
  210MOL0     H28951  12.519   8.131   6.925  2.2266  0.4335  1.2063
  210MOL0     H28952  12.519   8.312   7.168 -2.4370  1.1359 -1.1035
  210MOL0     H28953  12.471   8.140   7.173 -1.0841  0.5253 -0.7838
  210MOL0     H28954  12.729   8.275   7.072  0.5854  1.7933  2.5643
  210MOL0     H28955  12.697   8.099   7.042 -0.4247  2.6088 -2.6489
  210MOL0     H28956  12.709   8.033   7.276  1.2637  0.5660 -0.9484
  210MOL0     H28957  12.680   8.187   7.332  1.1859  0.5226 -0.5884
  210MOL0     H28958  12.937   8.087   7.205 -0.1399  0.7263 -0.4868
  210MOL0     H28959  12.902   8.124   7.376 -0.1810  0.6230  0.6295
  210MOL0     H28960  11.922   8.268   7.229 -0.0689 -3.5410  0.8869
  210MOL0     H28961  11.661   8.252   7.278 -1.7121  1.4507 -0.9778
  210MOL0     H28962  11.312   8.240   7.308 -1.0669 -2.3767  2.2058
  210MOL0     H28963  11.101   8.211   7.415  1.1804  3.0234  0.4627
  210MOL0     H28964   9.165   8.512   6.922 -0.1577 -0.9372 -1.0940
  210MOL0     H28965   8.924   8.566   7.011 -1.3715  0.1010 -0.1082
  210MOL0     H28966   8.488   8.654   6.945 -1.1891  1.4833  1.3585
  210MOL0     H28967   8.247   8.661   6.999 -1.0443 -0.5199  4.0504
  210MOL0     H28968   8.067   8.387   7.267 -1.9278  0.2913 -1.7508
  210MOL0     H28969   8.097   8.529   7.381 -2.7117  0.6590  1.0348
  210MOL0     H28970   7.879   8.452   7.331  0.0960 -1.6678 -1.5784
  210MOL0     H28971   7.873   8.530   7.172  0.2470 -2.5900 -0.8623
  210MOL0     H28972   7.938   8.670   7.432  2.1563 -0.7102 -1.4791
  210MOL0     H28973   7.975   8.740   7.273 -0.6960  0.9383 -1.0172
  210MOL0     H28974   7.711   8.695   7.414 -0.9676  1.7715 -0.6129
  210MOL0     H28975   7.708   8.671   7.236 -0.6946 -2.9002  1.3189
  210MOL0     H28976   7.739   9.083   7.286  1.7693  0.1133 -1.0677
  210MOL0     H28977   8.281   8.330   7.256 -0.2382 -0.0527 -1.6471
  210MOL0     H28978   8.620   8.296   7.241  0.3703  0.0618 -0.1691
  210MOL0     H28979   8.477   8.205   7.270  2.6609 -1.7111  0.5622
  210MOL0     H28980   8.576   8.199   7.118 -1.0564 -1.8055  0.4753
  211MOL0     O28981   9.300  10.980   7.477  0.3133 -0.1497  0.4979
  211MOL0     C28982   9.253  11.085   7.513 -0.2779 -0.7659 -0.5333
  211MOL0     O28983   9.312  11.210   7.502  0.4862 -0.0779  0.0550
  211MOL0     C28984   9.429  11.225   7.432 -0.0300 -0.2115 -0.1979
  211MOL0     C28985   9.548  11.179   7.468  0.0830  0.1277  0.7110
  211MOL0     C28986   9.663  11.207   7.397  0.5151  0.2259 -0.1993
  211MOL0     C28987   9.659  11.284   7.284  0.4647 -0.2119  0.2535
  211MOL0     O28988   9.784  11.300   7.227  0.2762  0.1541 -0.1153
  211MOL0     C28989   9.796  11.292   7.086  0.1765 -0.7111 -0.4950
  211MOL0     C28990   9.927  11.326   7.024 -0.0293  0.3014  0.1698
  211MOL0     C28991   9.976  11.463   7.023 -0.4555 -1.0376 -0.5470
  211MOL0     C28992  10.039  11.519   7.155  0.2938  0.3344  0.0859
  211MOL0     C28993  10.101  11.657   7.141 -0.3372  0.0606  0.0796
  211MOL0     C28994  10.017  11.764   7.069 -0.8380  0.3896 -0.0387
  211MOL0     C28995   9.888  11.796   7.148 -0.3568  0.8263 -0.5022
  211MOL0     C28996   9.764  11.718   7.105  0.8313  0.0917  0.9935
  211MOL0     N28997   9.639  11.780   7.148  0.7325 -0.7084  0.0293
  211MOL0     C28998   9.614  11.851   7.267 -0.1137  0.1730  1.1264
  211MOL0     C28999   9.485  11.911   7.250  0.6777  0.4437  0.8537
  211MOL0     C29000   9.410  12.003   7.339  0.3300 -0.5180  0.7812
  211MOL0     C29001   9.445  11.967   7.484  0.2465  0.2576  0.1374
  211MOL0     C29002   9.361  12.042   7.590  1.3752 -0.6671 -0.3724
  211MOL0     C29003   9.218  11.992   7.606 -0.5933  0.3146  0.0461
  211MOL0     O29004   9.137  12.073   7.694  0.5486  0.0641  0.4313
  211MOL0     C29005   9.006  12.034   7.706 -0.5235 -0.1198  0.1493
  211MOL0     C29006   8.925  12.142   7.748  0.3432 -0.8693  0.4037
  211MOL0     C29007   8.783  12.126   7.764 -0.6843 -0.3802  0.7758
  211MOL0     C29008   8.710  12.252   7.782  0.2563  0.2212 -0.1040
  211MOL0     C29009   8.724  11.998   7.757  0.6009 -0.2250 -0.0221
  211MOL0     C29010   8.585  11.966   7.797 -0.0941 -0.1893  0.4437
  211MOL0     O29011   8.573  11.831   7.835 -0.4335  0.4191  0.1899
  211MOL0     C29012   8.458  11.773   7.873  0.1154  0.7349  0.3838
  211MOL0     C29013   8.344  11.790   7.785 -0.3503  0.1622  0.1493
  211MOL0     C29014   8.222  11.732   7.808 -0.4158  0.5223 -0.3219
  211MOL0     C29015   8.207  11.640   7.918 -0.4594 -0.7626 -0.0265
  211MOL0     O29016   8.086  11.574   7.956 -0.1637 -0.3533  0.1308
  211MOL0     C29017   7.961  11.613   7.890  0.1307  0.1359  0.3432
  211MOL0     C29018   7.931  11.527   7.768 -0.4649 -0.5674 -0.8628
  211MOL0     C29019   7.911  11.372   7.792  0.7738  0.1643 -0.0502
  211MOL0     C29020   7.774  11.352   7.869 -0.2508  0.6903 -0.2056
  211MOL0     C29021   7.710  11.222   7.814 -1.0899  0.8424 -0.7488
  211MOL0     C29022   7.638  11.259   7.696 -0.0142  0.0073 -0.1356
  211MOL0     C29023   7.557  11.146   7.634  0.1655  0.0627 -0.2617
  211MOL0     C29024   7.501  11.180   7.491  0.8096  0.4208 -0.8729
  211MOL0    Cl29025   7.401  11.053   7.428 -0.2371  0.4134 -0.2850
  211MOL0     C29026   8.320  11.624   8.001 -0.6273 -0.5399  0.1045
  211MOL0     C29027   8.443  11.708   7.986  0.3188  0.5907 -0.0071
  211MOL0     O29028   8.489  12.047   7.794 -0.3612  0.4816 -0.5284
  211MOL0     C29029   8.806  11.891   7.714 -0.8927 -0.1590  1.0157
  211MOL0     C29030   8.943  11.911   7.687 -0.3516 -0.0053 -0.6105
  211MOL0     N29031   9.443  11.861   7.134  0.9515 -0.1852  0.1371
  211MOL0     N29032   9.523  11.792   7.071  0.7693  0.5616  0.0058
  211MOL0     C29033   9.534  11.336   7.241  0.9897 -0.4051  0.0806
  211MOL0     C29034   9.415  11.303   7.316 -0.6305 -0.4520 -0.0548
  211MOL0     C29035   9.127  11.093   7.582  0.5196 -0.3539  0.2306
  211MOL0     C29036   9.031  11.188   7.532 -0.3324  0.1562 -0.2213
  211MOL0     C29037   8.904  11.195   7.588  0.8574 -0.5926 -0.0717
  211MOL0     C29038   8.868  11.108   7.693 -0.0536 -0.1605  0.1009
  211MOL0     O29039   8.739  11.106   7.735 -0.1200  0.4655  0.0197
  211MOL0     C29040   8.666  11.231   7.738  0.9532 -0.5917 -0.1436
  211MOL0     C29041   8.543  11.211   7.836  0.5147  0.0777 -0.1312
  211MOL0     C29042   8.433  11.129   7.765  0.0151  0.2594  0.4293
  211MOL0     C29043   8.316  11.084   7.852  1.1924 -0.0007 -0.7564
  211MOL0     C29044   8.209  11.017   7.776  0.4385  0.3645 -1.0733
  211MOL0     C29045   8.144  10.950   7.704  0.5883 -0.2716  0.0904
  211MOL0     C29046   8.957  11.008   7.737 -0.1836 -0.0417 -0.1103
  211MOL0     C29047   9.080  10.999   7.682 -0.0491  0.4684  0.0402
  211MOL0     C29048   9.170  10.884   7.734  0.1184  0.5070  0.8492
  211MOL0     H29049   9.544  11.111   7.552  1.1507 -0.9863 -0.1032
  211MOL0     H29050   9.754  11.168   7.442 -0.1155  0.4918  1.3623
  211MOL0     H29051   9.718  11.359   7.047 -0.3437 -1.7411 -1.2711
  211MOL0     H29052   9.763  11.199   7.040 -0.3776 -1.0031  0.4598
  211MOL0     H29053  10.000  11.273   7.086 -1.2950 -1.1035  0.5246
  211MOL0     H29054   9.921  11.294   6.919 -0.6850 -0.2774  0.3770
  211MOL0     H29055  10.048  11.470   6.941 -0.1886 -0.2887 -0.2646
  211MOL0     H29056   9.899  11.528   6.979  0.7472  1.6939  1.0865
  211MOL0     H29057   9.961  11.520   7.232 -0.3839 -1.5046 -0.5171
  211MOL0     H29058  10.113  11.443   7.180  2.0680  1.7498 -0.6193
  211MOL0     H29059  10.200  11.643   7.096  0.6227 -1.6473  2.5008
  211MOL0     H29060  10.132  11.693   7.240  2.1330 -0.4522 -0.4382
  211MOL0     H29061  10.078  11.855   7.074 -1.0929  0.5146  2.8834
  211MOL0     H29062   9.990  11.733   6.968 -1.5778  2.2978 -0.4762
  211MOL0     H29063   9.863  11.900   7.126 -0.9266  0.8251  0.1218
  211MOL0     H29064   9.899  11.789   7.257 -3.0548  3.6067  0.0846
  211MOL0     H29065   9.759  11.692   6.999  1.0762  1.6606  0.5738
  211MOL0     H29066   9.762  11.617   7.146 -0.3756  0.6296  2.4052
  211MOL0     H29067   9.691  11.881   7.337  3.3191  0.1672 -2.3104
  211MOL0     H29068   9.307  11.976   7.315 -1.1324  1.6261  3.9550
  211MOL0     H29069   9.434  12.107   7.313 -2.1646 -0.2309 -0.6861
  211MOL0     H29070   9.454  11.860   7.505  0.5340  0.1179 -0.6636
  211MOL0     H29071   9.549  11.993   7.502 -0.0001  1.6033 -0.2938
  211MOL0     H29072   9.414  12.056   7.685 -2.0217  1.6830  1.3518
  211MOL0     H29073   9.341  12.143   7.555  0.3319  0.0138  2.0228
  211MOL0     H29074   9.167  11.987   7.510 -1.0566 -2.8771  0.3486
  211MOL0     H29075   9.228  11.887   7.636 -0.6130 -0.1380 -1.4492
  211MOL0     H29076   8.972  12.239   7.758  1.1312 -1.0572 -1.2279
  211MOL0     H29077   8.615  12.252   7.727  1.2074  1.0506 -1.8213
  211MOL0     H29078   8.768  12.338   7.747 -1.4286  2.5095  2.3693
  211MOL0     H29079   8.678  12.259   7.886 -3.5289 -1.1013 -1.0365
  211MOL0     H29080   8.359  11.846   7.693 -0.7602 -0.5636 -0.3681
  211MOL0     H29081   8.148  11.742   7.731  2.7849  4.0224 -3.3297
  211MOL0     H29082   7.873  11.609   7.955  0.7018  3.0068  1.4309
  211MOL0     H29083   7.966  11.718   7.861 -0.4020 -0.1598 -0.9111
  211MOL0     H29084   7.837  11.564   7.724 -0.2104 -0.7977 -1.6063
  211MOL0     H29085   8.007  11.540   7.691 -0.4717  0.8888 -0.6649
  211MOL0     H29086   8.007  11.349   7.839  1.3174  1.2321 -0.5988
  211MOL0     H29087   7.905  11.327   7.692  0.6865  1.1142 -0.4799
  211MOL0     H29088   7.706  11.435   7.851  2.0875  1.9595 -4.7462
  211MOL0     H29089   7.790  11.335   7.976  1.1167  2.1240 -0.1405
  211MOL0     H29090   7.780  11.143   7.785 -1.2150 -0.6281  2.4750
  211MOL0     H29091   7.641  11.186   7.891 -1.4191  1.3340 -0.8051
  211MOL0     H29092   7.703  11.302   7.619 -0.2798 -1.4250 -1.2110
  211MOL0     H29093   7.563  11.335   7.716  0.8045  0.2276  2.5635
  211MOL0     H29094   7.476  11.125   7.705 -1.8306  1.0079 -2.1393
  211MOL0     H29095   7.634  11.069   7.626 -0.2972 -0.3098 -1.2093
  211MOL0     H29096   7.578  11.194   7.414 -1.0509 -1.4516 -3.2543
  211MOL0     H29097   7.435  11.266   7.502 -0.0798 -0.4092  0.7268
  211MOL0     H29098   8.313  11.554   8.084 -3.1866 -0.6090 -0.1069
  211MOL0     H29099   8.528  11.700   8.052 -0.3625 -0.1556  0.8168
  211MOL0     H29100   8.765  11.791   7.705 -1.4611 -0.0063  1.7720
  211MOL0     H29101   9.006  11.826   7.661 -1.4546 -1.6831  1.8482
  211MOL0     H29102   9.521  11.404   7.157  1.4270 -1.4508 -0.8492
  211MOL0     H29103   9.320  11.349   7.291  0.5030  3.3542  1.9259
  211MOL0     H29104   9.063  11.256   7.454 -0.4815 -1.0158 -1.3254
  211MOL0     H29105   8.826  11.260   7.552  0.8219 -0.7139 -0.2186
  211MOL0     H29106   8.726  11.316   7.772 -2.3984  1.9725 -0.1216
  211MOL0     H29107   8.616  11.253   7.643 -0.6527 -0.9292  0.5833
  211MOL0     H29108   8.507  11.311   7.862 -0.0221 -0.5552  1.7040
  211MOL0     H29109   8.580  11.172   7.932  1.2645  1.0010 -0.0288
  211MOL0     H29110   8.390  11.186   7.682  0.0444  1.7787  1.4233
  211MOL0     H29111   8.475  11.040   7.717 -0.8479 -0.2920  0.6724
  211MOL0     H29112   8.270  11.168   7.905  2.0420  1.4315 -2.1669
  211MOL0     H29113   8.355  11.018   7.929  0.8470 -0.2115 -0.7600
  211MOL0     H29114   8.074  10.904   7.638 -1.5213  0.4274  1.7148
  211MOL0     H29115   8.917  10.945   7.816 -1.2221  1.5180  0.6574
  211MOL0     H29116   9.153  10.793   7.674  1.6423  1.4384 -1.1035
  211MOL0     H29117   9.278  10.896   7.739  1.0216 -3.1348 -3.2728
  211MOL0     H29118   9.130  10.860   7.833 -0.2528 -0.3769  0.4965
  212MOL0     O29119   1.991   4.093   5.517 -0.9224 -0.3161  0.0381
  212MOL0     C29120   1.910   4.101   5.604  0.7715 -0.4920  0.1183
  212MOL0     O29121   1.931   4.138   5.727 -0.2182  0.0766  0.7932
  212MOL0     C29122   2.041   4.199   5.770 -1.0510 -0.9996  1.1505
  212MOL0     C29123   2.019   4.331   5.814  0.6475  1.0185 -0.2520
  212MOL0     C29124   2.119   4.405   5.872 -0.8612 -0.7681  0.2041
  212MOL0     C29125   2.243   4.354   5.877 -0.5046 -0.7096  0.6345
  212MOL0     O29126   2.350   4.424   5.931  0.9357 -0.0484 -0.0204
  212MOL0     C29127   2.390   4.373   6.057  0.4289 -0.4855 -0.1402
  212MOL0     C29128   2.424   4.509   6.132 -0.1933 -0.1397 -0.6482
  212MOL0     C29129   2.481   4.464   6.274  0.0750 -1.0796  1.0748
  212MOL0     C29130   2.641   4.456   6.261 -0.2264 -0.6278 -0.5287
  212MOL0     C29131   2.710   4.433   6.404 -0.6249 -0.1766  0.1236
  212MOL0     C29132   2.698   4.285   6.428 -0.1844  0.4099 -0.7165
  212MOL0     C29133   2.798   4.221   6.524  0.3470  0.6592 -0.7846
  212MOL0     C29134   2.944   4.254   6.490  0.5767 -0.0634  0.2094
  212MOL0     N29135   3.033   4.186   6.586  0.0744 -0.0853  0.1543
  212MOL0     C29136   3.054   4.213   6.723  0.2265 -0.6130 -0.4196
  212MOL0     C29137   3.171   4.153   6.761  0.5307  0.4721  0.2587
  212MOL0     C29138   3.231   4.162   6.897 -0.2575  0.2052 -1.1231
  212MOL0     C29139   3.194   4.040   6.985  0.3614  0.2263 -0.2701
  212MOL0     C29140   3.236   3.899   6.939  0.6124 -0.4639 -0.0175
  212MOL0     C29141   3.378   3.870   6.963 -0.7013  0.1191  0.5287
  212MOL0     O29142   3.412   3.738   6.921 -0.0432 -0.5129 -0.5979
  212MOL0     C29143   3.471   3.724   6.798  1.0438 -0.8850  1.2142
  212MOL0     C29144   3.522   3.600   6.773  0.4689 -0.1116  0.1736
  212MOL0     C29145   3.598   3.576   6.655 -0.2480  0.3801  0.2736
  212MOL0     C29146   3.666   3.438   6.634  0.1014  1.0792  0.9275
  212MOL0     C29147   3.610   3.681   6.560  0.6514 -0.3410  0.0666
  212MOL0     C29148   3.687   3.664   6.432 -0.0952 -0.0970 -0.1421
  212MOL0     O29149   3.815   3.607   6.428 -0.1015 -0.4714  0.0271
  212MOL0     C29150   3.887   3.629   6.315  0.6403 -0.0372 -0.2362
  212MOL0     C29151   3.875   3.541   6.211  0.8548 -0.4076  0.2627
  212MOL0     C29152   3.971   3.535   6.109  0.2465 -0.1438 -0.1886
  212MOL0     C29153   4.076   3.629   6.096 -0.4120  0.0640 -0.9327
  212MOL0     O29154   4.155   3.614   5.988  0.3145  0.9680 -0.7308
  212MOL0     C29155   4.291   3.669   6.000  0.2926  0.2847  0.3337
  212MOL0     C29156   4.360   3.607   5.878 -0.5526 -1.0218  0.3167
  212MOL0     C29157   4.506   3.651   5.859 -0.7402  0.1960  0.5232
  212MOL0     C29158   4.530   3.803   5.847 -0.2817 -0.0188 -0.2912
  212MOL0     C29159   4.674   3.836   5.788 -1.0233  0.1129 -0.4786
  212MOL0     C29160   4.787   3.746   5.828 -0.3086  0.2257 -0.9248
  212MOL0     C29161   4.927   3.810   5.826  0.7762  0.1070  0.3581
  212MOL0     C29162   4.961   3.908   5.705  0.6485  0.3511 -0.6833
  212MOL0    Cl29163   4.919   3.809   5.546 -0.1426  0.2033 -0.2764
  212MOL0     C29164   4.085   3.717   6.202  0.4606 -0.6045  0.8597
  212MOL0     C29165   3.990   3.720   6.316 -0.5368  0.6537  0.1957
  212MOL0     O29166   3.633   3.691   6.330 -0.1624  0.1616 -0.2418
  212MOL0     C29167   3.549   3.803   6.578 -0.3471 -0.2743 -0.1986
  212MOL0     C29168   3.475   3.826   6.696 -0.7685 -0.5006 -0.3755
  212MOL0     N29169   3.220   4.090   6.656 -0.1537 -0.0345  1.0687
  212MOL0     N29170   3.143   4.117   6.551  1.2712 -0.1374  0.3786
  212MOL0     C29171   2.266   4.231   5.820 -0.5533 -0.3834 -0.1232
  212MOL0     C29172   2.170   4.148   5.767 -1.1147 -0.2205  0.1497
  212MOL0     C29173   1.764   4.084   5.575 -0.4723 -0.0275  0.2585
  212MOL0     C29174   1.694   4.008   5.673  0.8761 -0.5887  0.4354
  212MOL0     C29175   1.563   3.964   5.646 -0.0590 -0.4915 -0.2462
  212MOL0     C29176   1.498   4.011   5.535  0.5357  0.6522  0.4028
  212MOL0     O29177   1.375   3.965   5.491 -0.1862  0.0822  0.2681
  212MOL0     C29178   1.283   3.869   5.564 -0.0610 -0.3271 -0.3662
  212MOL0     C29179   1.138   3.883   5.522  0.4503  0.0003  0.2514
  212MOL0     C29180   1.059   4.006   5.547 -1.0514 -0.0336 -0.2766
  212MOL0     C29181   1.092   4.065   5.680  0.3379  0.2825 -0.3184
  212MOL0     C29182   1.051   3.979   5.797  0.1489  0.3051  0.4880
  212MOL0     C29183   1.013   3.904   5.885  0.2189  0.0454  0.2147
  212MOL0     C29184   1.561   4.097   5.443  0.0858 -0.7267 -0.6046
  212MOL0     C29185   1.695   4.132   5.462 -1.0525  0.2901 -0.7683
  212MOL0     C29186   1.762   4.232   5.374 -0.4385  0.1832  0.3964
  212MOL0     H29187   1.929   4.391   5.805  0.8041  2.1020  3.6544
  212MOL0     H29188   2.105   4.507   5.907  0.9219 -1.0559  1.9145
  212MOL0     H29189   2.467   4.295   6.051  0.2729 -0.6565  0.0945
  212MOL0     H29190   2.308   4.330   6.114  0.1719  3.4995  2.9106
  212MOL0     H29191   2.498   4.553   6.065 -0.6969 -1.4639 -2.1287
  212MOL0     H29192   2.339   4.574   6.149 -0.0775 -0.4046  1.1878
  212MOL0     H29193   2.454   4.536   6.352 -0.0183 -1.9669  1.8867
  212MOL0     H29194   2.445   4.368   6.312 -2.0009 -0.2985  1.2073
  212MOL0     H29195   2.678   4.381   6.191  1.0905 -0.8635  0.3969
  212MOL0     H29196   2.663   4.559   6.229 -1.8556  0.2628  0.9915
  212MOL0     H29197   2.673   4.495   6.486  0.3568  1.0251 -0.3260
  212MOL0     H29198   2.815   4.457   6.388 -0.6406 -1.2967 -2.0046
  212MOL0     H29199   2.597   4.268   6.466  0.6744 -1.3492  1.0184
  212MOL0     H29200   2.723   4.239   6.332  5.5801 -2.1678  1.5187
  212MOL0     H29201   2.795   4.112   6.536 -0.0096  0.5192 -2.0609
  212MOL0     H29202   2.783   4.270   6.621  1.3550 -0.0051 -0.2781
  212MOL0     H29203   2.981   4.233   6.389  2.8280 -0.5111  1.0802
  212MOL0     H29204   2.963   4.361   6.499 -1.5555  0.2584  1.6263
  212MOL0     H29205   2.987   4.273   6.783  0.4341 -0.4566 -0.3408
  212MOL0     H29206   3.187   4.253   6.938  1.5424  0.6342 -0.0667
  212MOL0     H29207   3.339   4.175   6.895 -0.1660 -0.5811 -1.7636
  212MOL0     H29208   3.234   4.073   7.081 -2.4333 -1.1557  1.5002
  212MOL0     H29209   3.086   4.030   6.999  0.3989  0.7585  0.4333
  212MOL0     H29210   3.178   3.827   6.998  0.2337 -0.5131 -0.4419
  212MOL0     H29211   3.212   3.894   6.832  1.7580  1.6312 -0.4200
  212MOL0     H29212   3.444   3.943   6.914 -0.1722  0.8060  2.2021
  212MOL0     H29213   3.410   3.875   7.067 -0.2613 -1.4211  0.4919
  212MOL0     H29214   3.517   3.515   6.840  1.5943  0.3468  0.8738
  212MOL0     H29215   3.640   3.390   6.539  0.4111  0.3700  1.1892
  212MOL0     H29216   3.650   3.370   6.718  2.4480 -0.1982  0.4313
  212MOL0     H29217   3.774   3.445   6.618 -0.0652 -0.6929 -1.4486
  212MOL0     H29218   3.780   3.489   6.215 -0.1032  1.2688  0.0004
  212MOL0     H29219   3.961   3.472   6.021 -0.9889  1.0018 -0.8938
  212MOL0     H29220   4.302   3.777   6.010  2.1642  0.3892 -1.9023
  212MOL0     H29221   4.347   3.636   6.088 -0.5490  0.0898  0.8017
  212MOL0     H29222   4.356   3.498   5.873 -0.9559 -0.9393 -2.2266
  212MOL0     H29223   4.308   3.656   5.795  2.0926 -0.2696 -1.0041
  212MOL0     H29224   4.523   3.597   5.766 -2.8157 -2.2393  1.4315
  212MOL0     H29225   4.575   3.607   5.932  1.5500  1.0016 -1.0438
  212MOL0     H29226   4.519   3.847   5.947 -1.2082 -1.7101  0.4014
  212MOL0     H29227   4.448   3.845   5.788 -0.2588  3.2963  1.7369
  212MOL0     H29228   4.669   3.826   5.679 -2.2768 -1.0133 -0.3459
  212MOL0     H29229   4.689   3.937   5.827 -2.0240 -0.6180  2.0212
  212MOL0     H29230   4.770   3.664   5.757  0.9793 -0.0201 -0.9651
  212MOL0     H29231   4.777   3.712   5.931  2.5118 -0.8782 -0.9301
  212MOL0     H29232   5.004   3.731   5.823  2.4928  1.7331 -0.2939
  212MOL0     H29233   4.941   3.867   5.918 -1.4907  1.3041  0.0363
  212MOL0     H29234   5.068   3.932   5.710  0.8805 -0.7629  3.0609
  212MOL0     H29235   4.903   4.000   5.707 -0.5644 -0.3669 -1.3791
  212MOL0     H29236   4.167   3.788   6.202  1.4080 -1.6675  1.3520
  212MOL0     H29237   3.988   3.784   6.403  1.7943 -0.0773  0.8803
  212MOL0     H29238   3.567   3.872   6.497 -1.3399 -1.7065 -1.7139
  212MOL0     H29239   3.434   3.925   6.714 -1.7789 -0.6230 -1.7989
  212MOL0     H29240   2.371   4.206   5.829 -0.6675 -1.4533 -1.4055
  212MOL0     H29241   2.197   4.057   5.715  1.0967  0.9016 -0.7782
  212MOL0     H29242   1.758   3.980   5.757  1.4946 -3.0872 -0.7570
  212MOL0     H29243   1.518   3.888   5.710 -0.7406  2.3811  2.9413
  212MOL0     H29244   1.305   3.766   5.536 -1.6503 -1.1312  1.1393
  212MOL0     H29245   1.295   3.877   5.672 -0.4531 -0.9454 -0.2699
  212MOL0     H29246   1.088   3.802   5.576 -0.0219 -0.5184 -0.9274
  212MOL0     H29247   1.118   3.866   5.416 -1.3777  0.3341  0.5119
  212MOL0     H29248   1.068   4.084   5.471  1.0153 -0.5504 -0.6189
  212MOL0     H29249   0.956   3.969   5.546 -0.5251 -1.6415 -2.3655
  212MOL0     H29250   1.025   4.152   5.672  0.6246  0.6435  1.0635
  212MOL0     H29251   1.195   4.101   5.688 -0.7310  3.6304  0.0212
  212MOL0     H29252   0.979   3.848   5.969 -0.0336  0.1879  0.2100
  212MOL0     H29253   1.516   4.131   5.350  0.2416  2.6097  0.4166
  212MOL0     H29254   1.679   4.272   5.315 -0.7569 -1.5585 -0.3868
  212MOL0     H29255   1.815   4.312   5.428  2.1956 -1.9922  1.2719
  212MOL0     H29256   1.840   4.197   5.305 -1.5958 -3.7620  0.8384
  213MOL0     O29257   9.158   8.810   7.874  0.4257 -0.2938  0.3334
  213MOL0     C29258   9.095   8.870   7.784  0.1785  0.2882  0.2416
  213MOL0     O29259   9.155   8.927   7.676 -0.2346 -0.8936 -0.2361
  213MOL0     C29260   9.288   8.912   7.652  0.4334 -0.4580 -0.9295
  213MOL0     C29261   9.375   9.004   7.699 -0.0424  0.0844 -1.2821
  213MOL0     C29262   9.510   8.988   7.677 -1.2958  0.1461 -0.3083
  213MOL0     C29263   9.562   8.878   7.607  1.0135 -0.3932  0.2813
  213MOL0     O29264   9.697   8.889   7.589 -1.2974 -0.2041  0.8642
  213MOL0     C29265   9.760   8.793   7.502  0.7141  0.1010  0.6196
  213MOL0     C29266   9.913   8.801   7.516  1.2549  0.6750 -0.1343
  213MOL0     C29267   9.958   8.944   7.491 -0.7179  0.4382  0.6387
  213MOL0     C29268  10.110   8.956   7.492 -0.9823  0.1972 -0.0170
  213MOL0     C29269  10.155   8.964   7.337 -0.4942  0.6624  0.1332
  213MOL0     C29270  10.298   8.955   7.300  0.2178 -0.5371 -0.1327
  213MOL0     C29271  10.375   9.066   7.372 -0.2773 -0.7740  0.6029
  213MOL0     C29272  10.526   9.092   7.326  0.8253 -0.5762 -0.4567
  213MOL0     N29273  10.606   8.969   7.342  1.1854 -0.1935  1.2226
  213MOL0     C29274  10.621   8.913   7.466  0.0601  0.0992  0.2880
  213MOL0     C29275  10.675   8.793   7.450  0.4483  0.6774  0.6209
  213MOL0     C29276  10.731   8.706   7.558 -0.8297  0.2747 -0.1424
  213MOL0     C29277  10.842   8.607   7.504 -0.4472  0.0549 -0.0175
  213MOL0     C29278  10.800   8.500   7.398 -0.2710 -0.2164 -0.3583
  213MOL0     C29279  10.661   8.449   7.401 -0.4149  0.2242 -0.4577
  213MOL0     O29280  10.623   8.389   7.530 -0.2771 -0.6520 -0.6458
  213MOL0     C29281  10.488   8.381   7.560 -1.0852  0.7538 -1.2827
  213MOL0     C29282  10.466   8.303   7.669 -0.8019  0.4561 -1.0590
  213MOL0     C29283  10.336   8.267   7.710 -0.9121  0.5166 -0.3961
  213MOL0     C29284  10.326   8.175   7.828 -0.1708 -0.3352  0.5447
  213MOL0     C29285  10.221   8.322   7.636  0.5252  0.7566 -0.7498
  213MOL0     C29286  10.083   8.295   7.676  0.1178 -0.2482  0.9211
  213MOL0     O29287   9.983   8.339   7.584  0.3866  0.1815  0.2184
  213MOL0     C29288   9.850   8.315   7.597 -0.3134  0.4735  0.0313
  213MOL0     C29289   9.758   8.411   7.561  0.4188  0.1321 -0.1118
  213MOL0     C29290   9.625   8.400   7.593 -0.8239 -0.3935  1.1368
  213MOL0     C29291   9.569   8.286   7.646  0.2194 -0.3712  1.0748
  213MOL0     O29292   9.434   8.267   7.658 -0.0362 -0.5260 -0.0264
  213MOL0     C29293   9.385   8.127   7.644  0.2049 -0.3685 -0.6780
  213MOL0     C29294   9.399   8.087   7.492 -0.2528 -0.3697 -1.0282
  213MOL0     C29295   9.351   8.195   7.391  0.7650 -0.2668 -1.2687
  213MOL0     C29296   9.203   8.196   7.383  1.1643  0.0975  0.4132
  213MOL0     C29297   9.133   8.312   7.307  0.1587 -0.3925 -0.6195
  213MOL0     C29298   9.118   8.435   7.399 -0.5408  0.2808  0.3381
  213MOL0     C29299   9.024   8.538   7.352  0.4294 -0.1578  0.9264
  213MOL0     C29300   8.879   8.504   7.356 -0.0941  0.1953  0.3419
  213MOL0    Cl29301   8.778   8.663   7.330 -0.1913  0.2829  0.6308
  213MOL0     C29302   9.660   8.188   7.684  0.2820 -0.1628  0.1792
  213MOL0     C29303   9.793   8.197   7.650 -0.8855  0.2506  0.5691
  213MOL0     O29304  10.064   8.240   7.780 -0.0651  0.2647 -0.0431
  213MOL0     C29305  10.249   8.406   7.530  0.2110 -0.7590 -0.0134
  213MOL0     C29306  10.377   8.440   7.498 -0.8777 -0.0065  0.3129
  213MOL0     N29307  10.683   8.782   7.316  0.5178  0.1994  1.2151
  213MOL0     N29308  10.648   8.885   7.242  0.2128 -0.7034 -0.3130
  213MOL0     C29309   9.469   8.791   7.559  0.1562 -0.2494 -0.4140
  213MOL0     C29310   9.325   8.806   7.571 -0.6705  0.5457 -0.4397
  213MOL0     C29311   8.944   8.877   7.799 -0.6351  0.2968 -0.2204
  213MOL0     C29312   8.879   8.798   7.892 -0.4555  0.2283  0.0423
  213MOL0     C29313   8.752   8.809   7.928  0.9355  0.0698 -0.3586
  213MOL0     C29314   8.665   8.888   7.854 -0.3217  0.1555  0.0934
  213MOL0     O29315   8.527   8.898   7.865  0.1759  0.1805  0.5993
  213MOL0     C29316   8.466   8.832   7.978 -0.5821 -0.3742  0.2012
  213MOL0     C29317   8.314   8.848   7.975  1.0997  0.0689 -0.7528
  213MOL0     C29318   8.249   8.792   8.109  0.3179  1.2487 -0.9395
  213MOL0     C29319   8.096   8.807   8.102 -0.4324 -0.7645  0.5104
  213MOL0     C29320   8.027   8.719   8.010 -0.2917 -0.1803  0.5869
  213MOL0     C29321   7.972   8.644   7.935 -0.7181 -0.0941 -0.6172
  213MOL0     C29322   8.718   8.966   7.751 -0.1180  0.5112 -0.1481
  213MOL0     C29323   8.853   8.950   7.715 -1.0428  0.3441 -0.1102
  213MOL0     C29324   8.893   9.026   7.589  1.1202 -0.2383 -0.0540
  213MOL0     H29325   9.350   9.090   7.759 -0.5472  0.3454 -1.8595
  213MOL0     H29326   9.581   9.061   7.716 -1.3756 -0.6557  1.4399
  213MOL0     H29327   9.720   8.824   7.405 -3.2308  1.8160  2.5255
  213MOL0     H29328   9.729   8.689   7.520 -1.4661  0.3101 -1.4350
  213MOL0     H29329   9.941   8.761   7.614  0.0166 -0.8682 -0.3804
  213MOL0     H29330   9.963   8.731   7.448  0.1996  0.8276 -1.0893
  213MOL0     H29331   9.924   8.983   7.395 -1.6815  0.3101  0.9177
  213MOL0     H29332   9.922   9.014   7.567 -0.1550 -0.5108  1.8111
  213MOL0     H29333  10.146   9.048   7.538  0.6152 -0.5428  0.2742
  213MOL0     H29334  10.161   8.876   7.546  0.3492  1.1276  0.1450
  213MOL0     H29335  10.120   9.061   7.300 -3.1232 -0.1369  0.2971
  213MOL0     H29336  10.101   8.890   7.277 -1.5714 -0.2608  2.1314
  213MOL0     H29337  10.345   8.860   7.325  2.1044  0.2684 -0.4218
  213MOL0     H29338  10.304   8.971   7.192  1.6236  1.9026  0.2259
  213MOL0     H29339  10.366   9.054   7.480 -3.0779  0.7852  0.6155
  213MOL0     H29340  10.329   9.164   7.360  2.4374  0.5603  0.2522
  213MOL0     H29341  10.533   9.145   7.231  1.1584  0.0139 -0.1087
  213MOL0     H29342  10.568   9.164   7.397 -2.3481  1.5982 -0.5985
  213MOL0     H29343  10.608   8.965   7.560  2.2451  1.3033 -0.0038
  213MOL0     H29344  10.648   8.657   7.609  2.0673 -1.9514  2.8309
  213MOL0     H29345  10.787   8.760   7.636 -2.1126  1.6506 -0.1305
  213MOL0     H29346  10.927   8.665   7.469 -0.2115 -0.7358 -0.8025
  213MOL0     H29347  10.890   8.552   7.586  0.5833 -2.0152 -1.8850
  213MOL0     H29348  10.803   8.544   7.298 -1.1905  0.5637 -0.0528
  213MOL0     H29349  10.868   8.414   7.399 -1.2624 -1.0029  0.2798
  213MOL0     H29350  10.586   8.524   7.373 -2.6393 -2.4681 -2.3113
  213MOL0     H29351  10.649   8.367   7.330 -2.5417 -1.3882  1.5924
  213MOL0     H29352  10.557   8.264   7.714 -0.1608  1.6887 -1.2333
  213MOL0     H29353  10.429   8.150   7.853  1.6805  2.6794 -3.0879
  213MOL0     H29354  10.263   8.089   7.803 -2.0779  0.5026  2.0965
  213MOL0     H29355  10.271   8.219   7.912  0.4771 -1.6113  1.6691
  213MOL0     H29356   9.789   8.505   7.517 -0.6312 -1.1166 -3.8123
  213MOL0     H29357   9.559   8.486   7.582  1.0690  1.0897  0.9165
  213MOL0     H29358   9.441   8.053   7.703 -1.1198 -0.7785  0.1002
  213MOL0     H29359   9.284   8.121   7.685  0.0543  1.6614 -0.6569
  213MOL0     H29360   9.506   8.070   7.477 -0.3141 -2.0948  0.1935
  213MOL0     H29361   9.350   7.991   7.474 -1.7050  0.1082  0.1655
  213MOL0     H29362   9.382   8.176   7.288 -0.8717  0.1233 -1.8762
  213MOL0     H29363   9.377   8.295   7.426 -2.9377  0.3127  0.4186
  213MOL0     H29364   9.160   8.194   7.483  3.3890  1.7033  1.4784
  213MOL0     H29365   9.187   8.104   7.325  3.6204 -1.3889  1.9186
  213MOL0     H29366   9.189   8.338   7.217  0.3349  0.2907 -0.3182
  213MOL0     H29367   9.036   8.273   7.276  0.2566 -0.5696 -0.7027
  213MOL0     H29368   9.213   8.486   7.416  0.4860 -1.5666  0.3500
  213MOL0     H29369   9.078   8.413   7.498  1.3487  0.2060  1.1134
  213MOL0     H29370   9.048   8.560   7.247 -0.9010  0.1149  0.6570
  213MOL0     H29371   9.042   8.631   7.406  0.3019 -1.0897  2.6156
  213MOL0     H29372   8.853   8.472   7.458  0.5425 -1.9649 -0.1216
  213MOL0     H29373   8.854   8.431   7.280  0.3116 -0.4680  0.8348
  213MOL0     H29374   9.639   8.093   7.732 -0.7394  1.9953  4.4528
  213MOL0     H29375   9.861   8.113   7.665 -2.5393 -1.5548 -1.3046
  213MOL0     H29376  10.171   8.449   7.469  0.8004  0.9763  0.4065
  213MOL0     H29377  10.385   8.519   7.424  1.1192  0.7723  1.3198
  213MOL0     H29378   9.504   8.708   7.499  0.5054 -2.2312  2.3502
  213MOL0     H29379   9.260   8.731   7.527  1.1218 -1.2806 -0.1094
  213MOL0     H29380   8.940   8.744   7.963 -1.0420 -0.5023  0.0019
  213MOL0     H29381   8.710   8.744   8.004 -0.1692 -0.7948 -1.6511
  213MOL0     H29382   8.479   8.723   7.967 -1.0758 -0.3182 -1.2528
  213MOL0     H29383   8.491   8.875   8.075  2.5595  1.4157 -1.2472
  213MOL0     H29384   8.259   8.794   7.897  0.3397 -1.6987  0.9020
  213MOL0     H29385   8.290   8.954   7.962  2.6459  0.4339 -0.7917
  213MOL0     H29386   8.260   8.686   8.132 -2.3531  1.2484  0.7312
  213MOL0     H29387   8.280   8.849   8.197 -1.0252  2.2252 -1.0715
  213MOL0     H29388   8.069   8.911   8.079  0.6224 -0.4526  0.6697
  213MOL0     H29389   8.050   8.790   8.200 -0.6064  1.3713  0.8500
  213MOL0     H29390   7.920   8.583   7.864 -2.8372  1.7517 -0.7573
  213MOL0     H29391   8.638   9.013   7.694 -0.8993 -0.2788  0.2693
  213MOL0     H29392   8.906   8.949   7.512 -1.2142 -1.3997  0.6245
  213MOL0     H29393   8.810   9.087   7.553 -1.0387 -2.9373  0.0444
  213MOL0     H29394   8.983   9.089   7.600  1.0534 -0.1285 -0.1249
  214MOL0     O29395   5.705   5.789   8.629 -0.3979 -0.3101  0.5773
  214MOL0     C29396   5.770   5.859   8.558  0.4241 -0.3118  0.1929
  214MOL0     O29397   5.900   5.840   8.526  0.2256 -0.3764 -0.1284
  214MOL0     C29398   5.996   5.752   8.572 -0.0962 -0.2227 -0.0479
  214MOL0     C29399   6.127   5.780   8.527 -0.3869 -0.6628 -0.5220
  214MOL0     C29400   6.233   5.701   8.571  0.3001  0.2043  0.8874
  214MOL0     C29401   6.209   5.593   8.656 -0.3830 -0.3793  0.3183
  214MOL0     O29402   6.325   5.524   8.684 -0.0115 -0.7149  0.1442
  214MOL0     C29403   6.337   5.413   8.778 -0.3604  0.0471  0.3737
  214MOL0     C29404   6.478   5.357   8.762  0.5368  0.1383  0.0762
  214MOL0     C29405   6.512   5.265   8.882  0.3820  0.8005  0.4063
  214MOL0     C29406   6.635   5.174   8.851  0.4260 -0.1536 -0.6009
  214MOL0     C29407   6.755   5.261   8.823  0.6947 -0.1529  0.7014
  214MOL0     C29408   6.889   5.177   8.836 -0.0677 -0.2083 -1.1149
  214MOL0     C29409   7.013   5.246   8.783  0.7919  0.2187  0.1711
  214MOL0     C29410   7.122   5.141   8.758  0.3129 -0.8759  0.5574
  214MOL0     N29411   7.233   5.207   8.689 -0.0907 -0.9460  0.2938
  214MOL0     C29412   7.340   5.279   8.738 -1.1112  0.8437  0.5216
  214MOL0     C29413   7.416   5.317   8.631 -0.5766  0.8767  0.5624
  214MOL0     C29414   7.541   5.413   8.635  1.7375  0.3191 -1.3169
  214MOL0     C29415   7.653   5.377   8.532 -0.0104  0.1948  0.4180
  214MOL0     C29416   7.768   5.480   8.539  0.2509  0.6853  0.0642
  214MOL0     C29417   7.890   5.430   8.469 -0.6251 -0.8390 -0.2531
  214MOL0     O29418   7.985   5.541   8.491 -0.8712  0.8655 -0.6640
  214MOL0     C29419   8.101   5.537   8.415 -0.6419 -0.6325  0.6509
  214MOL0     C29420   8.185   5.649   8.420 -0.7198 -0.0008 -0.2747
  214MOL0     C29421   8.302   5.659   8.343 -1.0795  1.2574  0.5872
  214MOL0     C29422   8.370   5.795   8.350  0.1519 -0.1735 -0.4928
  214MOL0     C29423   8.348   5.551   8.257 -0.6401 -0.4387 -0.0998
  214MOL0     C29424   8.480   5.552   8.190 -0.4639 -0.7588 -0.1701
  214MOL0     O29425   8.499   5.440   8.113  0.1820  0.0720 -0.1939
  214MOL0     C29426   8.614   5.426   8.039 -0.4575 -0.3308 -0.0192
  214MOL0     C29427   8.622   5.412   7.897  0.6551  0.2561  0.4694
  214MOL0     C29428   8.741   5.388   7.819  0.3392 -0.0905 -0.2553
  214MOL0     C29429   8.861   5.389   7.889  0.0439  0.0753  0.0350
  214MOL0     O29430   8.979   5.367   7.825 -0.3574 -0.4222  0.1652
  214MOL0     C29431   9.007   5.234   7.805 -1.8418  0.0091  0.5141
  214MOL0     C29432   9.130   5.233   7.708  1.1318  0.0036  0.0877
  214MOL0     C29433   9.260   5.269   7.784 -0.5628 -1.4642  0.4035
  214MOL0     C29434   9.396   5.271   7.716 -0.6466 -0.9128 -0.5497
  214MOL0     C29435   9.510   5.273   7.812  0.3332 -0.2457  0.5803
  214MOL0     C29436   9.646   5.278   7.739 -0.2469 -0.7466  1.1288
  214MOL0     C29437   9.760   5.263   7.843 -0.1660  0.1830 -0.4401
  214MOL0     C29438   9.893   5.262   7.785 -0.2184 -0.5960 -0.7817
  214MOL0    Cl29439   9.998   5.253   7.929  0.1875  0.3748  0.3157
  214MOL0     C29440   8.867   5.414   8.029 -0.0266  0.7810 -0.4544
  214MOL0     C29441   8.741   5.426   8.098 -0.5479  0.6452  0.4912
  214MOL0     O29442   8.562   5.637   8.226 -0.5341 -0.6836 -0.9027
  214MOL0     C29443   8.263   5.444   8.253 -0.6632 -0.0402 -0.2887
  214MOL0     C29444   8.146   5.437   8.331 -0.0309  0.1461  0.3732
  214MOL0     N29445   7.349   5.275   8.523  0.4374 -1.0680  0.6308
  214MOL0     N29446   7.248   5.199   8.554 -0.2477 -0.3508 -0.5382
  214MOL0     C29447   6.083   5.560   8.698 -0.1089 -0.0832  0.3254
  214MOL0     C29448   5.975   5.644   8.664  0.3615 -0.8780  0.8147
  214MOL0     C29449   5.705   5.981   8.486 -0.4914 -0.1525  0.1240
  214MOL0     C29450   5.766   6.022   8.368 -0.4431 -0.1743  0.9193
  214MOL0     C29451   5.708   6.127   8.300  0.1102 -0.3875  0.2742
  214MOL0     C29452   5.591   6.193   8.341  0.0846 -0.4755  0.7374
  214MOL0     O29453   5.555   6.302   8.263  0.0993 -0.0725  0.3397
  214MOL0     C29454   5.436   6.386   8.295  0.1044 -0.0518  0.4074
  214MOL0     C29455   5.405   6.456   8.168  0.0320 -1.2368  0.5386
  214MOL0     C29456   5.341   6.603   8.206 -0.8662 -0.2133 -0.2089
  214MOL0     C29457   5.264   6.673   8.099 -1.1298 -0.1814  0.3551
  214MOL0     C29458   5.132   6.613   8.108  0.5478 -0.4669 -0.7161
  214MOL0     C29459   5.018   6.573   8.120  0.0717 -0.1317 -0.5559
  214MOL0     C29460   5.540   6.158   8.466 -0.5913 -0.0885 -0.1276
  214MOL0     C29461   5.597   6.050   8.536  0.0067 -0.4048  0.2023
  214MOL0     C29462   5.539   6.032   8.673  0.3618  0.1478 -0.3336
  214MOL0     H29463   6.146   5.874   8.475  0.0964  2.0790  4.0319
  214MOL0     H29464   6.336   5.732   8.555 -1.2837  4.3968 -3.6367
  214MOL0     H29465   6.277   5.335   8.731 -1.2945  2.1228 -2.0855
  214MOL0     H29466   6.301   5.438   8.879 -0.7376 -3.3041  1.1989
  214MOL0     H29467   6.492   5.296   8.673 -4.1071 -0.9111 -0.1936
  214MOL0     H29468   6.544   5.444   8.758  0.1215  0.4572  0.0001
  214MOL0     H29469   6.538   5.324   8.970  2.2764  2.3393 -1.0828
  214MOL0     H29470   6.425   5.201   8.902 -0.2995  2.3107  2.7154
  214MOL0     H29471   6.647   5.110   8.939 -2.4218  0.7407  0.5426
  214MOL0     H29472   6.612   5.104   8.770 -1.0205 -1.0637  0.5372
  214MOL0     H29473   6.773   5.349   8.884  0.5580 -0.7587  1.6424
  214MOL0     H29474   6.750   5.303   8.722  1.4211  1.6811  1.3905
  214MOL0     H29475   6.918   5.156   8.939  3.7829 -2.5017 -2.4982
  214MOL0     H29476   6.868   5.088   8.776  4.2050 -2.7979  0.8517
  214MOL0     H29477   7.043   5.315   8.863 -1.3455 -0.6361  1.7963
  214MOL0     H29478   6.992   5.298   8.689  2.8013  2.3695  0.7967
  214MOL0     H29479   7.161   5.103   8.853 -1.0622 -1.2654  0.9838
  214MOL0     H29480   7.077   5.055   8.709 -0.0619 -0.0380 -0.6119
  214MOL0     H29481   7.355   5.293   8.844 -1.9818 -2.4728  1.1833
  214MOL0     H29482   7.578   5.410   8.738 -0.4611 -0.9572 -0.4892
  214MOL0     H29483   7.497   5.513   8.625  1.4986  0.3685 -0.0454
  214MOL0     H29484   7.691   5.275   8.550 -0.2794 -0.3918 -1.9727
  214MOL0     H29485   7.613   5.376   8.430 -1.2410 -2.2975  0.8559
  214MOL0     H29486   7.738   5.581   8.509 -0.6077  0.3357 -0.2801
  214MOL0     H29487   7.806   5.484   8.642 -2.0175 -3.0517  1.2449
  214MOL0     H29488   7.915   5.333   8.512  0.1324 -0.3263  0.5032
  214MOL0     H29489   7.861   5.417   8.364 -1.5685 -0.5297 -0.0428
  214MOL0     H29490   8.166   5.726   8.494  0.5709  0.4664 -0.4036
  214MOL0     H29491   8.320   5.875   8.404  1.1361  1.3353 -1.7203
  214MOL0     H29492   8.395   5.832   8.250  1.7325  0.8652  0.2388
  214MOL0     H29493   8.469   5.780   8.394 -0.3647 -1.3458  0.3420
  214MOL0     H29494   8.530   5.418   7.840  2.4169  1.9059 -2.4535
  214MOL0     H29495   8.722   5.388   7.712  0.1006  0.4105 -0.2182
  214MOL0     H29496   9.035   5.175   7.892  3.5721 -1.6787 -1.9632
  214MOL0     H29497   8.919   5.187   7.760 -2.3598  2.5909 -1.4291
  214MOL0     H29498   9.124   5.135   7.659 -1.2516  0.0237  0.2101
  214MOL0     H29499   9.104   5.307   7.631 -0.0150 -0.4469  0.0187
  214MOL0     H29500   9.269   5.194   7.863  1.2968 -0.7997  0.8670
  214MOL0     H29501   9.244   5.367   7.831 -0.5860 -1.3569  0.1727
  214MOL0     H29502   9.412   5.354   7.646  0.3501 -0.0596  0.6375
  214MOL0     H29503   9.421   5.181   7.660 -0.9492 -0.6597 -1.0943
  214MOL0     H29504   9.496   5.365   7.870  1.2125  1.3509 -1.6054
  214MOL0     H29505   9.501   5.183   7.875 -0.9012 -0.7464 -0.2782
  214MOL0     H29506   9.656   5.373   7.686  0.5189 -1.3343  0.2109
  214MOL0     H29507   9.656   5.198   7.665 -2.4781  0.5149 -0.6833
  214MOL0     H29508   9.738   5.180   7.910 -0.8825 -0.7904 -1.8403
  214MOL0     H29509   9.748   5.350   7.908  0.5634 -0.0987  0.0845
  214MOL0     H29510   9.913   5.356   7.732 -1.2812  0.9444  1.3709
  214MOL0     H29511   9.918   5.176   7.723  0.7109 -1.8882  1.2848
  214MOL0     H29512   8.958   5.428   8.087 -0.4420  1.5272  0.0368
  214MOL0     H29513   8.736   5.446   8.205 -1.8905  0.1879  0.5211
  214MOL0     H29514   8.278   5.365   8.181  1.3025  0.3703 -0.4025
  214MOL0     H29515   8.107   5.336   8.342 -2.3278  0.8102 -1.0099
  214MOL0     H29516   6.059   5.469   8.752 -1.4123  0.3595  0.5144
  214MOL0     H29517   5.873   5.634   8.698 -0.7600  1.2910 -1.5445
  214MOL0     H29518   5.850   5.977   8.316 -0.3436  2.6371 -1.5901
  214MOL0     H29519   5.749   6.152   8.203 -0.5353  2.2752  0.6166
  214MOL0     H29520   5.350   6.333   8.336 -1.3064 -0.9117 -3.3084
  214MOL0     H29521   5.459   6.448   8.382 -4.6520 -0.7719  2.4641
  214MOL0     H29522   5.347   6.392   8.102  2.5235 -4.6435  1.3664
  214MOL0     H29523   5.493   6.477   8.107  0.1832 -0.6020  0.9619
  214MOL0     H29524   5.279   6.581   8.293 -2.0153 -1.1182 -1.2247
  214MOL0     H29525   5.410   6.676   8.250 -0.4880 -0.3425 -0.5807
  214MOL0     H29526   5.304   6.659   7.999 -1.0530  1.3580  0.1470
  214MOL0     H29527   5.263   6.781   8.116  2.4775  0.2830 -1.4134
  214MOL0     H29528   4.917   6.539   8.134 -1.4256  3.7293 -0.7093
  214MOL0     H29529   5.465   6.225   8.507 -0.9219 -0.4120 -0.1880
  214MOL0     H29530   5.602   5.973   8.740  1.7952  2.4367  0.4753
  214MOL0     H29531   5.525   6.126   8.728 -0.5189  0.8294 -1.6342
  214MOL0     H29532   5.455   5.964   8.659  2.1916 -2.5053  0.8114
  215MOL0     O29533   2.953   3.559   0.896 -0.9899  0.2204 -0.0219
  215MOL0     C29534   2.844   3.504   0.907  0.6149  0.5034  0.1485
  215MOL0     O29535   2.805   3.398   0.830 -0.2303 -0.1585  0.1846
  215MOL0     C29536   2.858   3.357   0.709  0.3577  0.3192 -0.6520
  215MOL0     C29537   2.884   3.445   0.610 -0.6052 -0.8068 -0.6025
  215MOL0     C29538   2.932   3.408   0.486  0.0935  0.1722  0.5200
  215MOL0     C29539   2.954   3.272   0.454  0.2199  0.3338 -0.8686
  215MOL0     O29540   3.012   3.238   0.333  0.0048 -0.1312  0.7635
  215MOL0     C29541   3.138   3.158   0.334 -0.3920 -0.5009  0.0752
  215MOL0     C29542   3.265   3.229   0.389 -0.0529  0.9415  1.0320
  215MOL0     C29543   3.405   3.163   0.368 -0.1330  0.0735  0.2306
  215MOL0     C29544   3.451   3.090   0.489  0.3403  0.5518  0.2345
  215MOL0     C29545   3.600   3.056   0.473 -0.1338 -0.2838  0.1073
  215MOL0     C29546   3.653   2.935   0.564  0.1953 -0.9939 -0.0330
  215MOL0     C29547   3.808   2.929   0.550 -0.4190  0.3611  0.5971
  215MOL0     C29548   3.861   2.802   0.625  0.0341  1.0665  0.2696
  215MOL0     N29549   3.996   2.813   0.663  0.0589  0.1159 -0.5215
  215MOL0     C29550   4.089   2.891   0.599  0.2576  0.7111  0.8583
  215MOL0     C29551   4.201   2.890   0.677 -0.6915  0.1816 -0.5340
  215MOL0     C29552   4.330   2.975   0.662 -0.3092  0.1608  0.4154
  215MOL0     C29553   4.402   2.925   0.533 -0.3224  0.3724 -0.7993
  215MOL0     C29554   4.553   2.968   0.531  0.6101 -1.1888 -0.1533
  215MOL0     C29555   4.651   2.898   0.629 -0.1076 -0.1647  0.0855
  215MOL0     O29556   4.642   2.757   0.629  0.3035 -0.6314 -0.1122
  215MOL0     C29557   4.759   2.687   0.609  0.1359 -0.3349 -0.5805
  215MOL0     C29558   4.847   2.716   0.501  0.0395  0.0653  1.7738
  215MOL0     C29559   4.967   2.648   0.478 -0.4244 -0.3152 -0.3688
  215MOL0     C29560   5.056   2.710   0.371  0.2502 -0.0436  0.4287
  215MOL0     C29561   5.008   2.547   0.567  0.2148 -0.1865  0.0234
  215MOL0     C29562   5.137   2.480   0.564 -0.5737  0.4447  0.8663
  215MOL0     O29563   5.225   2.484   0.451 -0.4912 -0.4990  0.4458
  215MOL0     C29564   5.352   2.430   0.475 -0.9054 -0.5107  0.3045
  215MOL0     C29565   5.392   2.306   0.435  0.1752  0.2089  0.9054
  215MOL0     C29566   5.522   2.255   0.454  0.3064  0.6241  0.7928
  215MOL0     C29567   5.618   2.331   0.517 -0.5882 -0.2963  0.1906
  215MOL0     O29568   5.737   2.267   0.539  0.2476  0.8152  0.3422
  215MOL0     C29569   5.847   2.355   0.562  0.6140  0.1717 -0.1288
  215MOL0     C29570   5.969   2.280   0.537 -0.8890  0.2515 -0.8182
  215MOL0     C29571   6.094   2.347   0.570 -1.7774 -0.1362  0.3674
  215MOL0     C29572   6.217   2.264   0.518  0.6474  1.4810 -0.2344
  215MOL0     C29573   6.246   2.275   0.371 -0.5773  0.2466 -0.4238
  215MOL0     C29574   6.404   2.269   0.340 -0.5566  0.8219 -0.3028
  215MOL0     C29575   6.453   2.137   0.393  0.0727  0.1284 -0.3318
  215MOL0     C29576   6.591   2.091   0.335 -0.2423 -0.4958  0.5742
  215MOL0    Cl29577   6.729   2.203   0.369  0.1427 -0.3662 -0.4526
  215MOL0     C29578   5.580   2.465   0.557 -0.7813 -0.3045  0.3429
  215MOL0     C29579   5.449   2.508   0.540  0.1233 -0.1347 -0.1984
  215MOL0     O29580   5.167   2.417   0.663 -0.0314  0.2764  0.3010
  215MOL0     C29581   4.913   2.509   0.665 -0.1508  0.7194  0.4076
  215MOL0     C29582   4.792   2.575   0.685  0.4500 -0.8906 -0.5063
  215MOL0     N29583   4.174   2.807   0.787 -0.3728 -0.1303 -0.3950
  215MOL0     N29584   4.049   2.760   0.780  0.3953  0.2030  0.6265
  215MOL0     C29585   2.921   3.170   0.550 -0.1476  1.1282 -0.6500
  215MOL0     C29586   2.864   3.219   0.674 -0.1128  0.5357  1.2173
  215MOL0     C29587   2.751   3.531   1.021 -0.2009 -0.0699 -0.3847
  215MOL0     C29588   2.633   3.466   1.032 -0.3378  0.4309  0.2105
  215MOL0     C29589   2.540   3.490   1.127  0.0028  0.5850 -0.9486
  215MOL0     C29590   2.558   3.585   1.224  0.3381 -0.3893 -0.9105
  215MOL0     O29591   2.469   3.598   1.323  0.2614 -0.3287  0.0680
  215MOL0     C29592   2.494   3.668   1.445  0.9179 -0.1311 -1.4139
  215MOL0     C29593   2.464   3.811   1.440 -0.2487 -0.9204 -0.4535
  215MOL0     C29594   2.510   3.894   1.563 -0.7132 -0.6110 -0.0879
  215MOL0     C29595   2.396   3.969   1.626  0.1972 -0.3457 -0.1578
  215MOL0     C29596   2.298   3.875   1.688  0.9250  0.4068  1.1160
  215MOL0     C29597   2.223   3.814   1.753  0.2585 -0.1330  0.8851
  215MOL0     C29598   2.667   3.651   1.218 -0.4266 -0.0571 -0.0196
  215MOL0     C29599   2.766   3.638   1.118 -0.9806 -0.0279 -0.0977
  215MOL0     C29600   2.876   3.745   1.109 -0.2525  0.0893  0.4985
  215MOL0     H29601   2.879   3.550   0.639 -0.7766 -1.0106  0.1226
  215MOL0     H29602   2.955   3.482   0.410 -1.2145  1.1602  1.0402
  215MOL0     H29603   3.169   3.146   0.229  0.8069 -0.7407  0.4427
  215MOL0     H29604   3.134   3.062   0.385  0.3189 -2.3353 -3.0548
  215MOL0     H29605   3.262   3.325   0.335 -0.3537  1.9286  2.7294
  215MOL0     H29606   3.257   3.258   0.494  1.2035  0.7957  1.1856
  215MOL0     H29607   3.392   3.086   0.292  1.8579 -0.3765  0.3015
  215MOL0     H29608   3.474   3.234   0.322  0.3381 -1.3442 -1.3173
  215MOL0     H29609   3.435   3.163   0.568 -2.8142 -0.6092  0.8297
  215MOL0     H29610   3.396   2.996   0.503  1.3814 -0.2467 -0.8570
  215MOL0     H29611   3.644   3.154   0.494  0.5087 -0.6915  0.6863
  215MOL0     H29612   3.635   3.034   0.372  0.6674 -0.1429  0.3491
  215MOL0     H29613   3.624   2.945   0.669  2.2915  1.2841  0.4151
  215MOL0     H29614   3.607   2.843   0.528  1.2914 -2.3903  1.8906
  215MOL0     H29615   3.850   3.022   0.590 -1.4463  1.1706 -0.1456
  215MOL0     H29616   3.828   2.914   0.444 -1.9234  0.9480  0.2039
  215MOL0     H29617   3.805   2.793   0.718  0.0719 -2.9122  0.0949
  215MOL0     H29618   3.849   2.710   0.566  0.9352  1.0191  0.1472
  215MOL0     H29619   4.084   2.953   0.510  0.3185  0.6266  0.7963
  215MOL0     H29620   4.400   2.966   0.745  1.1740 -0.4727 -0.8574
  215MOL0     H29621   4.307   3.080   0.644  2.9119  1.0830  1.0819
  215MOL0     H29622   4.393   2.817   0.522 -1.4132  0.2204  1.2391
  215MOL0     H29623   4.359   2.963   0.440 -0.8517  2.6486  0.2990
  215MOL0     H29624   4.592   2.952   0.430  1.1555 -1.9775  0.1757
  215MOL0     H29625   4.550   3.078   0.539  0.1653 -0.8297 -3.8153
  215MOL0     H29626   4.751   2.939   0.614  0.3600 -1.3175 -0.1084
  215MOL0     H29627   4.628   2.941   0.727 -0.2677  4.5979 -1.7917
  215MOL0     H29628   4.814   2.793   0.431 -1.8257 -0.6934  1.7404
  215MOL0     H29629   5.132   2.764   0.428 -0.2158 -0.3279  1.3356
  215MOL0     H29630   5.005   2.783   0.308 -1.6041 -0.2406  1.6206
  215MOL0     H29631   5.107   2.636   0.309  3.6921  0.3276  2.5365
  215MOL0     H29632   5.332   2.239   0.375  1.5855 -0.8216  0.5772
  215MOL0     H29633   5.546   2.157   0.416  0.9588  0.2330  2.1679
  215MOL0     H29634   5.847   2.437   0.489  0.4518  0.6808  0.4302
  215MOL0     H29635   5.830   2.394   0.663 -0.6518 -0.1694 -0.2002
  215MOL0     H29636   5.966   2.190   0.601 -0.8787  0.1551 -0.9533
  215MOL0     H29637   5.965   2.255   0.431 -0.2505  1.7919 -1.2331
  215MOL0     H29638   6.099   2.365   0.678  5.0921 -0.3795  0.5345
  215MOL0     H29639   6.095   2.440   0.513  0.4501 -1.2208 -1.5534
  215MOL0     H29640   6.220   2.159   0.547 -0.4749  1.8136  1.2233
  215MOL0     H29641   6.305   2.311   0.561  1.5755  1.0508 -1.5998
  215MOL0     H29642   6.210   2.179   0.333  1.2035 -1.1255  1.1070
  215MOL0     H29643   6.199   2.364   0.329 -0.5080 -0.3924 -1.9091
  215MOL0     H29644   6.451   2.356   0.387  0.6579  0.7673 -1.3596
  215MOL0     H29645   6.419   2.281   0.232  3.3636  0.4775  0.0432
  215MOL0     H29646   6.380   2.059   0.370 -0.8563  0.6142  0.8685
  215MOL0     H29647   6.446   2.128   0.502 -0.8842 -4.0419 -0.5670
  215MOL0     H29648   6.577   2.090   0.226 -1.5727 -1.3211  0.7267
  215MOL0     H29649   6.601   1.989   0.370 -0.7636  0.0910  2.5273
  215MOL0     H29650   5.649   2.542   0.588 -1.8966  1.4888 -1.4039
  215MOL0     H29651   5.427   2.609   0.572 -2.1985  0.0236 -2.0127
  215MOL0     H29652   4.943   2.430   0.733  2.8388  3.1612  2.1494
  215MOL0     H29653   4.717   2.540   0.756 -0.0397 -1.2610 -1.2025
  215MOL0     H29654   2.938   3.065   0.527  1.4324  1.7250 -2.4506
  215MOL0     H29655   2.828   3.148   0.748 -3.3141  1.0314  0.2553
  215MOL0     H29656   2.612   3.401   0.948  0.2346 -0.3912  0.6959
  215MOL0     H29657   2.441   3.445   1.128 -0.1273  0.8349 -1.7639
  215MOL0     H29658   2.429   3.629   1.524  0.9692  3.3567  0.5566
  215MOL0     H29659   2.600   3.666   1.471  0.8918 -3.5220 -1.1758
  215MOL0     H29660   2.355   3.822   1.434 -0.2739 -0.8050  0.1423
  215MOL0     H29661   2.509   3.862   1.354 -1.2966 -0.7234 -0.9077
  215MOL0     H29662   2.569   3.837   1.635 -1.2079 -1.4707 -0.3505
  215MOL0     H29663   2.580   3.964   1.517 -0.1076  0.9821  2.9441
  215MOL0     H29664   2.342   4.025   1.550  0.4152 -0.9455 -0.7606
  215MOL0     H29665   2.438   4.036   1.702 -1.5376 -0.7160  1.1937
  215MOL0     H29666   2.144   3.758   1.798  1.5132 -2.4661  0.3393
  215MOL0     H29667   2.684   3.728   1.292  1.4847  0.1839 -0.6496
  215MOL0     H29668   2.876   3.781   1.006  4.0298 -0.2018  0.2243
  215MOL0     H29669   2.875   3.838   1.167  2.7124 -0.9432  2.4176
  215MOL0     H29670   2.972   3.706   1.143 -0.3176 -0.9695 -0.4952
  216MOL0     O29671   0.990  10.507   3.250 -0.5194  0.5097  0.9607
  216MOL0     C29672   1.033  10.395   3.242 -0.4404  0.3736 -0.1772
  216MOL0     O29673   0.960  10.281   3.219  0.9048 -0.5899  0.0958
  216MOL0     C29674   0.830  10.283   3.170  0.6079 -0.4136 -0.3501
  216MOL0     C29675   0.773  10.388   3.090 -0.0032  0.1185 -0.8283
  216MOL0     C29676   0.635  10.394   3.066 -0.5803  0.7633  0.6247
  216MOL0     C29677   0.546  10.290   3.093  0.7637  0.3003 -0.0601
  216MOL0     O29678   0.406  10.297   3.069 -0.4238  0.1277 -0.0675
  216MOL0     C29679   0.345  10.336   2.944 -0.1746 -0.4151  0.2729
  216MOL0     C29680   0.355  10.225   2.845  0.0316  0.1129  0.0005
  216MOL0     C29681   0.270  10.254   2.723 -0.6004 -0.4219 -0.5838
  216MOL0     C29682   0.233  10.128   2.642  0.2738 -0.3774  0.0958
  216MOL0     C29683   0.186  10.158   2.504  0.3727 -0.4312  0.6377
  216MOL0     C29684   0.040  10.215   2.496  0.4891  0.8597 -0.1156
  216MOL0     C29685  -0.026  10.210   2.364  0.0301  0.6570 -0.4380
  216MOL0     C29686  -0.098  10.083   2.323 -0.5644  0.1868  0.5799
  216MOL0     N29687  -0.196  10.103   2.214  0.2717  0.1352  0.3531
  216MOL0     C29688  -0.156  10.107   2.081  0.5069  0.2867 -0.2189
  216MOL0     C29689  -0.270  10.094   2.009 -0.1631 -0.2693  0.1740
  216MOL0     C29690  -0.291  10.106   1.862 -0.5901  0.3028 -0.0749
  216MOL0     C29691  -0.233   9.995   1.780 -0.5410 -0.8391 -0.5620
  216MOL0     C29692  -0.072   9.998   1.764  0.1710  0.7241 -0.6851
  216MOL0     C29693  -0.020  10.127   1.690  0.3532  0.3940 -0.1556
  216MOL0     O29694   0.123  10.142   1.705 -0.2068  0.2927 -0.6126
  216MOL0     C29695   0.154  10.204   1.827 -0.5962 -0.1534  0.1783
  216MOL0     C29696   0.218  10.137   1.931  0.1985 -0.4618  0.1511
  216MOL0     C29697   0.275  10.211   2.033 -0.0759 -0.2258  0.0650
  216MOL0     C29698   0.360  10.134   2.130  0.1040 -0.3062 -0.0731
  216MOL0     C29699   0.237  10.347   2.055 -0.2588 -0.4653  0.5738
  216MOL0     C29700   0.277  10.436   2.166 -0.2819  0.0718 -1.0609
  216MOL0     O29701   0.367  10.389   2.251 -0.0152 -0.3260  0.5345
  216MOL0     C29702   0.401  10.458   2.366  0.2209  0.0368 -0.4501
  216MOL0     C29703   0.530  10.442   2.396 -0.2550  0.2539  0.0571
  216MOL0     C29704   0.584  10.500   2.511 -0.3082  0.0340 -1.1613
  216MOL0     C29705   0.502  10.553   2.611  0.5676  0.4765 -0.0569
  216MOL0     O29706   0.549  10.608   2.730  0.8154 -0.1587  0.5668
  216MOL0     C29707   0.690  10.596   2.773  0.2960  0.0158  0.6946
  216MOL0     C29708   0.780  10.691   2.709  0.0019 -0.1245 -0.3481
  216MOL0     C29709   0.762  10.840   2.730 -1.0013 -0.1285  1.4316
  216MOL0     C29710   0.630  10.900   2.680  0.3421 -0.2524  0.2057
  216MOL0     C29711   0.620  10.885   2.526 -0.4693  0.7128 -0.9174
  216MOL0     C29712   0.477  10.902   2.492 -1.5267 -0.2859  0.3960
  216MOL0     C29713   0.443  10.829   2.354  0.2142  0.3998  0.8408
  216MOL0     C29714   0.302  10.843   2.318  1.0369  0.3413 -0.7961
  216MOL0    Cl29715   0.259  11.017   2.294 -0.2216  0.6523  0.1339
  216MOL0     C29716   0.364  10.561   2.583  1.2712 -0.1449 -0.5671
  216MOL0     C29717   0.314  10.514   2.459  0.4506 -0.0891 -0.3505
  216MOL0     O29718   0.216  10.542   2.185 -0.0941  0.2451  0.3019
  216MOL0     C29719   0.162  10.408   1.951  0.2951  0.1497 -0.8422
  216MOL0     C29720   0.130  10.340   1.829 -0.4027  0.4397 -0.2290
  216MOL0     N29721  -0.370  10.072   2.100  0.1063 -0.6934 -0.3128
  216MOL0     N29722  -0.328  10.073   2.226  0.1878 -0.0391  0.0031
  216MOL0     C29723   0.602  10.173   3.153 -0.2010 -1.1149  0.7472
  216MOL0     C29724   0.747  10.174   3.185  0.5642 -0.1778  0.6773
  216MOL0     C29725   1.187  10.381   3.268 -0.4324 -0.9971  0.4536
  216MOL0     C29726   1.262  10.506   3.287  0.7291  0.1481 -0.0907
  216MOL0     C29727   1.394  10.500   3.313 -0.2112  0.1061 -0.4199
  216MOL0     C29728   1.469  10.382   3.318  0.4889 -0.7833  0.2952
  216MOL0     O29729   1.599  10.379   3.363 -0.4962  0.1580  0.2416
  216MOL0     C29730   1.667  10.495   3.393 -0.0914  0.3825 -0.6042
  216MOL0     C29731   1.720  10.569   3.267  0.4697  0.3007 -0.4691
  216MOL0     C29732   1.840  10.510   3.198  0.1294 -0.0625  0.1487
  216MOL0     C29733   1.868  10.573   3.063 -0.0524 -0.5255  0.1727
  216MOL0     C29734   1.889  10.717   3.077 -0.3205 -0.6675 -0.1517
  216MOL0     C29735   1.924  10.836   3.078  0.2038  0.1548 -0.4058
  216MOL0     C29736   1.396  10.267   3.297 -0.4263  0.3727  1.4030
  216MOL0     C29737   1.255  10.260   3.280 -0.4752  0.3353 -0.2420
  216MOL0     C29738   1.187  10.122   3.266  1.5120 -0.1857  0.0029
  216MOL0     H29739   0.831  10.476   3.061  0.1901  0.5436  0.7442
  216MOL0     H29740   0.577  10.479   3.033  0.4447  1.0215 -0.5971
  216MOL0     H29741   0.394  10.426   2.906  0.9996 -0.1963  2.1418
  216MOL0     H29742   0.242  10.366   2.967  0.6938  3.1367  0.2169
  216MOL0     H29743   0.459  10.228   2.813  0.0285  0.3416  0.0117
  216MOL0     H29744   0.332  10.125   2.881  0.2539 -0.7096 -2.0187
  216MOL0     H29745   0.181  10.311   2.751  1.1002  2.0256  0.1672
  216MOL0     H29746   0.335  10.321   2.665 -0.1961  1.1149  1.5592
  216MOL0     H29747   0.316  10.057   2.639 -0.8477 -1.7538  0.7830
  216MOL0     H29748   0.152  10.079   2.696  0.7751  0.5974  1.8121
  216MOL0     H29749   0.203  10.071   2.440  2.2276 -1.0319  1.8550
  216MOL0     H29750   0.257  10.237   2.477 -1.5520  1.4683  0.8734
  216MOL0     H29751  -0.020  10.157   2.568 -0.4235  0.0015 -1.5131
  216MOL0     H29752   0.046  10.311   2.548  1.5270  0.0100  1.3957
  216MOL0     H29753   0.049  10.223   2.285 -0.0134  0.0966 -0.5831
  216MOL0     H29754  -0.096  10.294   2.358  0.8023  1.2866 -0.7769
  216MOL0     H29755  -0.026  10.003   2.300  0.8349  1.7217 -0.5906
  216MOL0     H29756  -0.161  10.054   2.408 -3.0910  1.3155 -0.8005
  216MOL0     H29757  -0.059  10.141   2.044  0.0985  2.0504  0.2283
  216MOL0     H29758  -0.266  10.205   1.821  1.6981 -0.4974 -0.7461
  216MOL0     H29759  -0.397  10.096   1.835 -1.0255  1.7660  0.9254
  216MOL0     H29760  -0.262   9.901   1.827 -1.4257  2.2586  6.1304
  216MOL0     H29761  -0.266   9.997   1.675 -0.7113  2.7939 -0.5793
  216MOL0     H29762  -0.019  10.002   1.859  2.2385  0.8907 -1.7885
  216MOL0     H29763  -0.032   9.916   1.704  0.7618  0.2305  0.3558
  216MOL0     H29764  -0.034  10.119   1.582 -1.0721  2.5171 -0.1856
  216MOL0     H29765  -0.080  10.217   1.709  1.0388  0.9456 -0.5811
  216MOL0     H29766   0.237  10.031   1.914  0.2926 -0.5555  0.8035
  216MOL0     H29767   0.302  10.133   2.224 -1.3433 -0.2464 -0.9345
  216MOL0     H29768   0.459  10.179   2.140 -0.3780  0.5454  1.1641
  216MOL0     H29769   0.373  10.028   2.109  0.9388 -0.1796 -0.2012
  216MOL0     H29770   0.575  10.401   2.306 -2.2821  1.2777 -1.4888
  216MOL0     H29771   0.691  10.485   2.527 -0.7631 -4.3523 -1.1720
  216MOL0     H29772   0.703  10.612   2.881  0.2569  0.6740  0.6042
  216MOL0     H29773   0.735  10.498   2.760  1.3820  0.8339 -2.5610
  216MOL0     H29774   0.878  10.655   2.741 -0.0834 -4.2167 -3.7428
  216MOL0     H29775   0.788  10.679   2.600  0.7076  2.3517 -0.6335
  216MOL0     H29776   0.842  10.889   2.673 -0.9154 -1.4817  0.3275
  216MOL0     H29777   0.787  10.872   2.831 -0.5556 -2.7735  2.2526
  216MOL0     H29778   0.630  11.009   2.694  1.5181 -0.0411 -1.2265
  216MOL0     H29779   0.549  10.849   2.733  0.9982 -0.6764  0.8173
  216MOL0     H29780   0.680  10.963   2.479  1.5682  3.1846  4.8586
  216MOL0     H29781   0.650  10.783   2.503  0.3309  0.0962  2.3065
  216MOL0     H29782   0.451  11.008   2.485 -0.2301 -0.0326 -1.1734
  216MOL0     H29783   0.414  10.856   2.568  0.5263 -2.2390  1.0158
  216MOL0     H29784   0.458  10.723   2.377 -0.1036  0.0786 -0.3521
  216MOL0     H29785   0.510  10.861   2.274  0.2398 -1.2793  0.1511
  216MOL0     H29786   0.237  10.807   2.398  1.7228 -1.5010 -1.0173
  216MOL0     H29787   0.288  10.779   2.230 -1.4878 -0.0123 -0.1970
  216MOL0     H29788   0.301  10.600   2.663  0.8524  4.0999 -2.6859
  216MOL0     H29789   0.208  10.525   2.438  0.8421  0.6524 -2.0777
  216MOL0     H29790   0.147  10.516   1.943  0.9047  0.2921 -0.1088
  216MOL0     H29791   0.086  10.384   1.740 -2.0239 -0.6534 -0.0179
  216MOL0     H29792   0.535  10.090   3.175 -1.2884 -0.2320  0.8428
  216MOL0     H29793   0.798  10.087   3.226  3.9099  1.1616 -0.2811
  216MOL0     H29794   1.208  10.599   3.300 -0.7835 -0.6909 -0.1968
  216MOL0     H29795   1.423  10.601   3.341  0.4433  0.0418 -0.8340
  216MOL0     H29796   1.609  10.572   3.444  0.5501  0.6723 -0.3052
  216MOL0     H29797   1.753  10.475   3.457  1.0324 -0.3291 -2.2799
  216MOL0     H29798   1.754  10.668   3.296  1.0360 -0.3558  1.1995
  216MOL0     H29799   1.636  10.562   3.197  1.4193  0.2663 -1.6401
  216MOL0     H29800   1.917  10.530   3.273  1.1839 -2.3391 -0.2372
  216MOL0     H29801   1.829  10.402   3.193  1.3030 -0.1681 -0.4802
  216MOL0     H29802   1.780  10.558   3.000  0.2427 -1.6904  0.0137
  216MOL0     H29803   1.951  10.522   3.012 -0.3150 -0.2544 -0.5341
  216MOL0     H29804   1.958  10.937   3.084 -2.3261  1.0025  0.9622
  216MOL0     H29805   1.450  10.175   3.315  1.9031  1.8757  2.5059
  216MOL0     H29806   1.098  10.133   3.329  1.6050  0.9658 -0.0623
  216MOL0     H29807   1.162  10.087   3.166  3.8218 -2.8124  0.2133
  216MOL0     H29808   1.242  10.041   3.315 -2.1427 -2.5750  0.5743
  217MOL0     O29809  10.452   1.588  10.371  0.0228 -1.0226  0.2389
  217MOL0     C29810  10.343   1.611  10.427  0.7604  0.1781  0.0990
  217MOL0     O29811  10.327   1.695  10.531 -0.1847 -0.7497 -0.1586
  217MOL0     C29812  10.439   1.760  10.575 -0.9069 -0.5146  0.0488
  217MOL0     C29813  10.482   1.717  10.704  0.5101  0.0535  0.8420
  217MOL0     C29814  10.595   1.765  10.764  0.0173 -0.5139 -0.0365
  217MOL0     C29815  10.663   1.870  10.702 -0.4860  0.1449  0.7069
  217MOL0     O29816  10.770   1.929  10.762 -0.1046  1.1563  0.4403
  217MOL0     C29817  10.857   1.845  10.837 -0.1071 -0.3386  0.1240
  217MOL0     C29818  10.930   1.757  10.739  0.5640 -1.1094 -0.8881
  217MOL0     C29819  11.069   1.693  10.792  0.5978 -0.4199  0.0429
  217MOL0     C29820  11.192   1.782  10.749 -0.6024  0.9308 -0.9114
  217MOL0     C29821  11.329   1.719  10.801 -0.2922  0.0143 -0.0852
  217MOL0     C29822  11.456   1.805  10.774  0.4782  0.0099 -0.3951
  217MOL0     C29823  11.578   1.769  10.859  0.2446 -0.9777 -0.4297
  217MOL0     C29824  11.620   1.617  10.847 -0.2159 -0.0474 -0.5815
  217MOL0     N29825  11.754   1.596  10.897 -1.1471  0.1565 -0.2749
  217MOL0     C29826  11.783   1.584  11.032  0.4644  0.5202  0.5158
  217MOL0     C29827  11.923   1.564  11.045  1.1453 -0.9047  0.1734
  217MOL0     C29828  12.000   1.541  11.174 -0.0874  0.5118  1.1117
  217MOL0     C29829  12.125   1.469  11.145  0.3642  0.0718 -1.0569
  217MOL0     C29830  12.091   1.325  11.111 -0.0264 -1.0255  0.0107
  217MOL0     C29831  12.215   1.248  11.078  0.0346  0.4772  0.3701
  217MOL0     O29832  12.279   1.200  11.200 -0.3533  0.0021 -0.5721
  217MOL0     C29833  12.396   1.138  11.190 -0.1728  1.0337 -0.7890
  217MOL0     C29834  12.466   1.116  11.314  0.2564 -0.0937 -0.3997
  217MOL0     C29835  12.588   1.044  11.319 -0.4315  0.1795  0.2548
  217MOL0     C29836  12.654   1.022  11.457  0.6833 -0.0991  1.2045
  217MOL0     C29837  12.647   0.998  11.198  0.0591 -0.0103  0.8485
  217MOL0     C29838  12.790   0.943  11.191 -0.2233  0.4534 -1.3851
  217MOL0     O29839  12.834   0.886  11.312 -0.1064  0.4727  0.3926
  217MOL0     C29840  12.947   0.807  11.321  0.5635  0.7153 -0.0661
  217MOL0     C29841  13.027   0.740  11.223  0.6217  0.1982  0.5083
  217MOL0     C29842  13.147   0.676  11.258 -0.0639  0.4535  0.3909
  217MOL0     C29843  13.183   0.670  11.387 -0.2111  0.0012 -0.2219
  217MOL0     O29844  13.299   0.598  11.427 -0.1530  0.6088 -0.4054
  217MOL0     C29845  13.422   0.629  11.353 -0.1342 -0.0959  0.5449
  217MOL0     C29846  13.533   0.549  11.416  0.4352  1.0524 -0.6961
  217MOL0     C29847  13.668   0.560  11.345  0.1150 -0.1296 -1.1528
  217MOL0     C29848  13.780   0.520  11.443  0.5275 -1.3533  0.7788
  217MOL0     C29849  13.912   0.545  11.363  0.9458  0.6988 -0.5948
  217MOL0     C29850  14.032   0.526  11.455 -0.4405  0.3374  0.1008
  217MOL0     C29851  14.165   0.506  11.374 -1.1083 -0.1957 -0.4701
  217MOL0     C29852  14.281   0.520  11.479  0.0931  0.1578  0.5849
  217MOL0    Cl29853  14.264   0.393  11.603  0.0674  0.1140  0.0035
  217MOL0     C29854  13.097   0.721  11.486  0.0765 -0.4255 -0.3868
  217MOL0     C29855  12.991   0.795  11.450  0.1160 -0.3016  0.0529
  217MOL0     O29856  12.861   0.942  11.086 -0.0885 -0.7521 -0.2864
  217MOL0     C29857  12.580   1.031  11.082  0.1440 -0.5381  0.8723
  217MOL0     C29858  12.460   1.098  11.078 -0.5342  0.5796 -0.2046
  217MOL0     N29859  11.974   1.585  10.917  0.2478 -0.8091  0.4459
  217MOL0     N29860  11.875   1.602  10.836  0.3631  0.0108 -0.6504
  217MOL0     C29861  10.617   1.924  10.578 -0.2130  0.6479 -0.1332
  217MOL0     C29862  10.507   1.867  10.521  0.0138  0.0247 -0.9425
  217MOL0     C29863  10.227   1.540  10.376  0.0688 -0.0914 -0.9264
  217MOL0     C29864  10.249   1.416  10.312 -0.1642  0.7618  0.2560
  217MOL0     C29865  10.140   1.348  10.252 -0.8437  0.2777  1.0714
  217MOL0     C29866  10.009   1.387  10.262  0.5423 -0.5503 -0.8873
  217MOL0     O29867   9.898   1.321  10.207 -0.6937  0.7970 -0.3191
  217MOL0     C29868   9.923   1.276  10.078 -0.1126 -0.3190  0.5471
  217MOL0     C29869   9.872   1.380   9.988  0.2881  0.7910 -0.0050
  217MOL0     C29870   9.722   1.388   9.980  0.2049  0.4247  0.5961
  217MOL0     C29871   9.663   1.510   9.905  0.0732 -0.0953  0.1945
  217MOL0     C29872   9.663   1.621   9.992 -0.5121 -0.0576  0.4934
  217MOL0     C29873   9.683   1.713  10.072  0.5893  0.5406  0.1418
  217MOL0     C29874   9.985   1.508  10.327 -0.4556  0.0624 -0.3819
  217MOL0     C29875  10.094   1.584  10.386 -0.5133 -0.4640 -0.2103
  217MOL0     C29876  10.060   1.711  10.460  0.1154 -0.5869  0.4800
  217MOL0     H29877  10.405   1.661  10.756  0.1351 -1.6810 -1.4289
  217MOL0     H29878  10.610   1.732  10.866  1.6117  0.1600 -0.0247
  217MOL0     H29879  10.795   1.796  10.913 -1.5668  1.7327  0.3536
  217MOL0     H29880  10.928   1.906  10.893  0.3891 -1.5232  0.8216
  217MOL0     H29881  10.860   1.676  10.718  1.3852 -2.1409  0.2252
  217MOL0     H29882  10.939   1.803  10.640  0.5701 -1.3103 -0.9816
  217MOL0     H29883  11.071   1.693  10.901 -3.7340 -1.5620  0.3007
  217MOL0     H29884  11.075   1.589  10.758 -1.8930 -0.1330 -1.5799
  217MOL0     H29885  11.201   1.795  10.641  1.1132 -0.5496 -0.9938
  217MOL0     H29886  11.178   1.878  10.798 -0.0834  0.2811  0.5819
  217MOL0     H29887  11.338   1.621  10.752 -0.1505 -1.3708  2.5658
  217MOL0     H29888  11.322   1.688  10.905 -1.6716  1.2356  0.2242
  217MOL0     H29889  11.483   1.807  10.668  3.6014 -0.8856  0.3039
  217MOL0     H29890  11.435   1.910  10.796  3.7681  0.3854  1.5008
  217MOL0     H29891  11.558   1.793  10.964  1.1141  0.5613 -0.5841
  217MOL0     H29892  11.657   1.840  10.834 -2.4523  2.7992  0.8610
  217MOL0     H29893  11.553   1.546  10.897 -2.3226  3.4802  2.0559
  217MOL0     H29894  11.607   1.588  10.742 -1.3345  1.4760 -0.8933
  217MOL0     H29895  11.713   1.599  11.114  0.3494  2.2549  0.1188
  217MOL0     H29896  11.935   1.487  11.243 -1.0811  0.1256 -0.0774
  217MOL0     H29897  12.030   1.635  11.221  1.4533  0.2044  0.7994
  217MOL0     H29898  12.177   1.519  11.063 -0.1999  2.2068 -0.1910
  217MOL0     H29899  12.188   1.470  11.235 -0.2044 -0.0695 -0.6463
  217MOL0     H29900  12.047   1.265  11.191  3.4246 -2.8440  0.7453
  217MOL0     H29901  12.028   1.316  11.023  0.2955 -0.4326 -0.2915
  217MOL0     H29902  12.189   1.168  11.008  1.6186 -1.3723  1.7866
  217MOL0     H29903  12.283   1.323  11.034  0.2449 -0.2839 -0.6243
  217MOL0     H29904  12.413   1.144  11.404  1.7474  0.3298  0.3850
  217MOL0     H29905  12.604   1.071  11.541  0.6896  0.4390  0.8994
  217MOL0     H29906  12.753   1.068  11.461 -0.0142  1.5506  0.4847
  217MOL0     H29907  12.658   0.914  11.474  1.9333 -0.0507  1.3301
  217MOL0     H29908  12.992   0.738  11.120  0.4988 -1.0688  0.5613
  217MOL0     H29909  13.194   0.634  11.169  0.2269 -0.9913  1.2117
  217MOL0     H29910  13.433   0.595  11.249  2.3509 -2.9425  1.5537
  217MOL0     H29911  13.444   0.736  11.358 -0.5663 -0.0160  0.7461
  217MOL0     H29912  13.541   0.583  11.520 -0.6100  1.6350 -0.7902
  217MOL0     H29913  13.506   0.443  11.408 -0.7895  1.4683 -5.6583
  217MOL0     H29914  13.689   0.666  11.330  3.1384  0.0766  3.0694
  217MOL0     H29915  13.655   0.510  11.248 -0.4931 -0.8673 -0.7027
  217MOL0     H29916  13.760   0.414  11.456 -0.3294 -1.6418 -2.1938
  217MOL0     H29917  13.788   0.584  11.531  3.5456  0.2996 -0.5180
  217MOL0     H29918  13.919   0.467  11.287 -0.9317  0.6897 -0.8217
  217MOL0     H29919  13.905   0.643  11.315 -0.7874  0.7884 -0.2395
  217MOL0     H29920  14.021   0.433  11.512  2.0737 -0.8834 -1.2160
  217MOL0     H29921  14.050   0.614  11.518 -0.8171  0.2626  0.3192
  217MOL0     H29922  14.190   0.592  11.311  1.1401 -0.5480 -0.1557
  217MOL0     H29923  14.171   0.408  11.326 -2.8676 -1.0974  1.0228
  217MOL0     H29924  14.285   0.624  11.512 -0.6508 -0.2873  2.2139
  217MOL0     H29925  14.375   0.497  11.429 -0.5302 -1.4846  0.1100
  217MOL0     H29926  13.114   0.713  11.593 -0.2716 -1.0564 -0.3749
  217MOL0     H29927  12.942   0.839  11.536  0.3490 -1.1839  0.6460
  217MOL0     H29928  12.628   1.013  10.986 -1.4915  0.7019 -0.2382
  217MOL0     H29929  12.415   1.130  10.985  3.1667  1.8731 -1.7410
  217MOL0     H29930  10.659   2.019  10.548  1.5895  0.5532  1.8193
  217MOL0     H29931  10.465   1.895  10.424  0.3948  2.7013 -0.4078
  217MOL0     H29932  10.346   1.367  10.305 -0.3032  0.2662  1.5854
  217MOL0     H29933  10.171   1.273  10.180  0.6365  2.5119 -0.7405
  217MOL0     H29934  10.030   1.263  10.060  0.9157  2.0303  3.9641
  217MOL0     H29935   9.875   1.180  10.057  1.3090 -0.5610 -2.0644
  217MOL0     H29936   9.909   1.362   9.886  0.4186  0.8671  0.0282
  217MOL0     H29937   9.912   1.476  10.024  0.1743  1.6163 -1.9155
  217MOL0     H29938   9.685   1.301   9.926  0.6483  2.1435 -2.7181
  217MOL0     H29939   9.683   1.377  10.081 -2.4948  1.5020 -0.2558
  217MOL0     H29940   9.568   1.481   9.859 -0.1713 -0.0044  0.6367
  217MOL0     H29941   9.724   1.546   9.822 -1.8356  2.1427 -0.3328
  217MOL0     H29942   9.700   1.799  10.134  1.0197  2.9636 -3.0632
  217MOL0     H29943   9.883   1.544  10.337 -0.3899  0.3220 -0.6276
  217MOL0     H29944  10.104   1.725  10.559  0.7841 -1.5194  0.3236
  217MOL0     H29945  10.096   1.791  10.395 -1.1170 -1.1179 -0.9218
  217MOL0     H29946   9.950   1.705  10.465  0.1429 -2.7969 -0.3933
  218MOL0     O29947   1.344   1.914  11.006  0.2154 -0.0525  0.0580
  218MOL0     C29948   1.284   1.959  10.909  0.3844 -0.0583  0.2840
  218MOL0     O29949   1.265   1.896  10.788  0.3368 -0.2132  0.1206
  218MOL0     C29950   1.365   1.829  10.733  0.5442 -0.2441  0.9239
  218MOL0     C29951   1.490   1.895  10.725  0.1189 -0.4926 -0.1774
  218MOL0     C29952   1.599   1.833  10.658 -0.3288  0.7080 -0.5559
  218MOL0     C29953   1.583   1.700  10.618  0.0958 -0.3710  0.4700
  218MOL0     O29954   1.696   1.624  10.567 -0.4499  0.5338  0.1297
  218MOL0     C29955   1.701   1.485  10.617  0.0816 -0.6474 -0.1300
  218MOL0     C29956   1.793   1.394  10.544  0.2758  0.3391  0.9457
  218MOL0     C29957   1.942   1.436  10.546  0.8157  0.4686 -0.0607
  218MOL0     C29958   2.035   1.342  10.476  0.0142  0.2731  0.3007
  218MOL0     C29959   2.159   1.421  10.440  0.2490  0.6122 -0.1473
  218MOL0     C29960   2.246   1.316  10.379  0.1486  1.0533  1.1688
  218MOL0     C29961   2.383   1.384  10.356 -0.2617  0.6569  0.0797
  218MOL0     C29962   2.504   1.284  10.378  0.5805  0.1079  0.3177
  218MOL0     N29963   2.546   1.266  10.516  0.1388  0.1190  0.2693
  218MOL0     C29964   2.675   1.294  10.556 -0.6426 -0.1833 -0.1901
  218MOL0     C29965   2.688   1.228  10.671 -1.6476 -0.4285 -0.3440
  218MOL0     C29966   2.814   1.197  10.739 -0.3231  0.0501 -0.9447
  218MOL0     C29967   2.914   1.299  10.786 -0.3132  0.1927  0.6001
  218MOL0     C29968   2.996   1.367  10.674  0.4986 -0.0780 -0.3900
  218MOL0     C29969   3.087   1.481  10.728  0.2749 -0.1703 -0.2015
  218MOL0     O29970   3.207   1.419  10.779 -0.0163 -0.1812  0.9634
  218MOL0     C29971   3.327   1.492  10.783 -0.3148  1.2726  0.3138
  218MOL0     C29972   3.440   1.417  10.840  0.0925 -0.1526  0.3887
  218MOL0     C29973   3.566   1.477  10.859  0.1567  0.7847 -0.7808
  218MOL0     C29974   3.672   1.387  10.919  0.8533 -0.6242  0.6860
  218MOL0     C29975   3.589   1.608  10.808  0.2321 -0.3305  0.0396
  218MOL0     C29976   3.725   1.673  10.813  0.3555 -1.0123 -0.6443
  218MOL0     O29977   3.731   1.802  10.757 -0.1975  0.1721  0.1888
  218MOL0     C29978   3.850   1.865  10.776 -0.2180  0.3779 -0.0169
  218MOL0     C29979   3.970   1.826  10.704 -0.5313 -0.2330 -0.0285
  218MOL0     C29980   4.093   1.902  10.701  0.2026 -0.1042 -0.3995
  218MOL0     C29981   4.107   2.017  10.779 -0.3692  1.0554  0.6498
  218MOL0     O29982   4.217   2.101  10.776 -1.3575  0.1208  0.3044
  218MOL0     C29983   4.335   2.052  10.701 -0.5332 -0.0590 -0.2547
  218MOL0     C29984   4.450   2.155  10.710 -0.0242  0.3461  0.6964
  218MOL0     C29985   4.518   2.164  10.849  0.3118 -0.8984 -0.5702
  218MOL0     C29986   4.655   2.231  10.837 -0.7948  0.0727 -0.2821
  218MOL0     C29987   4.703   2.270  10.977  0.0820 -0.3203 -0.2860
  218MOL0     C29988   4.841   2.321  10.991  0.4135  0.6648  0.3609
  218MOL0     C29989   4.875   2.435  10.893  0.8506  0.0325 -0.8928
  218MOL0     C29990   4.987   2.532  10.950  0.0555 -0.1515  0.2376
  218MOL0    Cl29991   5.131   2.439  10.996 -0.0725  0.5590  0.0843
  218MOL0     C29992   3.994   2.063  10.849  0.6585  0.0455  0.1599
  218MOL0     C29993   3.870   1.984  10.845 -0.0322  0.7201 -0.6596
  218MOL0     O29994   3.819   1.617  10.868 -0.1123  0.1354  0.1621
  218MOL0     C29995   3.476   1.673  10.750 -0.3278 -0.3727  0.8425
  218MOL0     C29996   3.349   1.617  10.736 -0.0704 -0.2687 -0.2106
  218MOL0     N29997   2.574   1.156  10.680  0.6771 -0.1450 -0.5119
  218MOL0     N29998   2.486   1.174  10.591  1.0351 -0.5931  0.1267
  218MOL0     C29999   1.453   1.643  10.604 -0.4923  0.1859 -0.3557
  218MOL0     C30000   1.343   1.708  10.662  0.2001  0.3049 -1.0059
  218MOL0     C30001   1.244   2.104  10.907 -0.4385  1.1360  0.4097
  218MOL0     C30002   1.338   2.196  10.950  0.3383 -0.3267  0.6455
  218MOL0     C30003   1.310   2.325  10.953 -0.0945 -0.6805  0.4559
  218MOL0     C30004   1.183   2.374  10.913  0.3349  0.8330 -0.0907
  218MOL0     O30005   1.169   2.510  10.916 -0.8910 -0.4963  0.5678
  218MOL0     C30006   1.129   2.566  10.786 -0.0883 -0.3940  0.2503
  218MOL0     C30007   1.158   2.717  10.795  0.0591 -0.1416  0.0644
  218MOL0     C30008   1.071   2.795  10.902 -0.6253 -0.2933  0.5716
  218MOL0     C30009   1.117   2.932  10.924 -0.0973  0.1830  0.9815
  218MOL0     C30010   1.126   3.011  10.804  0.3279  0.2676 -0.6696
  218MOL0     C30011   1.134   3.061  10.694 -0.2612 -0.4591 -0.3542
  218MOL0     C30012   1.081   2.281  10.875 -0.3041  0.5447 -0.0856
  218MOL0     C30013   1.114   2.146  10.870  0.1968  0.0683 -0.4028
  218MOL0     C30014   0.999   2.049  10.838  0.3572 -0.2520  0.9195
  218MOL0     H30015   1.504   1.992  10.773  1.4159 -1.6023  1.8106
  218MOL0     H30016   1.698   1.875  10.644  1.1770 -3.0042 -2.3337
  218MOL0     H30017   1.604   1.437  10.608 -0.6395  0.3268  1.8260
  218MOL0     H30018   1.719   1.489  10.725 -1.3029  2.4513  0.0962
  218MOL0     H30019   1.787   1.298  10.596  1.0963 -0.0684  0.3124
  218MOL0     H30020   1.739   1.394  10.449  2.5780 -1.9827 -0.4909
  218MOL0     H30021   1.941   1.531  10.491  1.6890  2.1572  2.6521
  218MOL0     H30022   1.970   1.449  10.650  1.5845 -0.3437 -0.1576
  218MOL0     H30023   2.055   1.255  10.539  3.4405  0.2506 -0.6015
  218MOL0     H30024   1.986   1.316  10.382  1.3189 -1.4415  0.0506
  218MOL0     H30025   2.201   1.452  10.536  0.9446 -1.6524  0.3360
  218MOL0     H30026   2.134   1.503  10.371  1.9923  0.7950 -0.6257
  218MOL0     H30027   2.251   1.233  10.451  1.7753  1.3315  1.4185
  218MOL0     H30028   2.206   1.270  10.288 -0.2159  2.1939  0.7412
  218MOL0     H30029   2.398   1.466  10.427  0.1418  0.3072  0.4038
  218MOL0     H30030   2.385   1.425  10.254 -1.1453 -1.0196 -0.6436
  218MOL0     H30031   2.481   1.192  10.322 -0.6231 -1.1276  2.6898
  218MOL0     H30032   2.591   1.329  10.328  2.0828 -1.1242  1.6879
  218MOL0     H30033   2.751   1.355  10.509 -2.7778  1.5720 -1.5611
  218MOL0     H30034   2.876   1.125  10.684  0.6494  1.4725 -1.7772
  218MOL0     H30035   2.778   1.155  10.833 -1.8849  0.4239 -1.3484
  218MOL0     H30036   2.853   1.368  10.845 -0.9903  0.5268 -0.4701
  218MOL0     H30037   2.985   1.252  10.855  1.5105  2.7731  0.6152
  218MOL0     H30038   3.063   1.295  10.627  1.0091 -1.6854  2.5453
  218MOL0     H30039   2.938   1.402  10.588  0.1269 -0.2455 -0.2096
  218MOL0     H30040   3.101   1.558  10.651 -1.2536 -1.4032 -1.7819
  218MOL0     H30041   3.042   1.526  10.817  1.3533  0.7418 -0.0905
  218MOL0     H30042   3.411   1.317  10.872 -2.4302  1.0857  2.3421
  218MOL0     H30043   3.759   1.387  10.852  0.9707 -1.1950  0.8379
  218MOL0     H30044   3.643   1.282  10.913 -1.9861  0.1553 -1.8065
  218MOL0     H30045   3.717   1.424  11.011  3.4743  1.3649 -1.2129
  218MOL0     H30046   3.977   1.740  10.638 -0.5918  0.3256 -0.7765
  218MOL0     H30047   4.180   1.860  10.650 -0.8205 -0.9032 -1.5361
  218MOL0     H30048   4.368   1.952  10.728 -0.3269 -0.2866 -1.3241
  218MOL0     H30049   4.307   2.037  10.597  0.8401 -1.6275 -0.4312
  218MOL0     H30050   4.518   2.130  10.628  0.5342  0.5758  1.0784
  218MOL0     H30051   4.411   2.251  10.673  0.6844 -0.0904 -1.3417
  218MOL0     H30052   4.531   2.068  10.899  0.0967 -0.1466  0.9815
  218MOL0     H30053   4.446   2.220  10.909 -1.1268 -1.8990 -1.2973
  218MOL0     H30054   4.649   2.320  10.773 -0.0080  2.6024  2.8566
  218MOL0     H30055   4.727   2.163  10.790  1.3811  2.7652 -1.1931
  218MOL0     H30056   4.632   2.349  11.002  0.7854  1.0323 -2.2820
  218MOL0     H30057   4.677   2.190  11.047 -1.4868 -0.1046 -0.5952
  218MOL0     H30058   4.908   2.237  10.972 -1.0966 -0.4492 -0.1572
  218MOL0     H30059   4.860   2.363  11.091 -0.9819  0.4446  0.7391
  218MOL0     H30060   4.782   2.484  10.864 -2.7215 -3.1639  3.7301
  218MOL0     H30061   4.909   2.392  10.798  2.0857  1.2366 -1.0242
  218MOL0     H30062   4.945   2.578  11.041  0.2811 -1.2582  0.9121
  218MOL0     H30063   5.015   2.609  10.877 -1.4734 -2.1245 -2.5809
  218MOL0     H30064   4.002   2.155  10.906 -0.8721  0.5061 -0.3110
  218MOL0     H30065   3.785   2.018  10.903 -1.4493  0.4888 -2.5128
  218MOL0     H30066   3.487   1.771  10.705 -1.9335  0.4805  2.2061
  218MOL0     H30067   3.273   1.665  10.674 -0.0987 -0.6415 -0.4707
  218MOL0     H30068   1.451   1.547  10.554  2.8886 -0.2150  0.0533
  218MOL0     H30069   1.249   1.654  10.666 -0.4973  1.5786  1.4925
  218MOL0     H30070   1.440   2.170  10.975  0.0089 -1.0225  1.2972
  218MOL0     H30071   1.391   2.397  10.945 -0.1676 -0.7602 -1.8306
  218MOL0     H30072   1.189   2.528  10.703 -0.3640 -0.2950  0.0020
  218MOL0     H30073   1.026   2.540  10.759  0.2070 -0.5298 -0.7592
  218MOL0     H30074   1.143   2.766  10.698 -1.8170 -2.1677 -0.7828
  218MOL0     H30075   1.261   2.713  10.832 -0.8703 -1.8582  2.7601
  218MOL0     H30076   0.964   2.796  10.878 -0.1046 -1.3781 -2.0582
  218MOL0     H30077   1.078   2.731  10.990 -3.0717 -3.0313 -1.0380
  218MOL0     H30078   1.215   2.933  10.973  0.3851  0.8381  0.0600
  218MOL0     H30079   1.041   2.987  10.980  0.7933  4.3847 -1.4248
  218MOL0     H30080   1.120   3.112  10.600 -0.7981  0.5643  0.2684
  218MOL0     H30081   0.979   2.303  10.846  0.1684  2.1099 -0.6213
  218MOL0     H30082   1.003   1.970  10.914  1.9050  0.7514  1.9405
  218MOL0     H30083   0.901   2.093  10.860  0.9476  1.2730  0.5740
  218MOL0     H30084   0.997   2.006  10.737 -1.9439  0.3255  0.6605
  219MOL0     O30085  11.146   0.095   1.270  0.8606  0.6626 -0.1407
  219MOL0     C30086  11.251   0.106   1.214 -0.5603 -0.0050  0.0064
  219MOL0     O30087  11.286   0.036   1.101 -0.9683  0.3624 -0.2371
  219MOL0     C30088  11.195  -0.026   1.030 -1.0748  0.1833 -0.1307
  219MOL0     C30089  11.158  -0.155   1.059 -0.3932  0.6651  0.5505
  219MOL0     C30090  11.055  -0.212   0.985 -0.3470  0.4484 -0.4766
  219MOL0     C30091  10.996  -0.146   0.876  0.7428  0.9392 -0.6661
  219MOL0     O30092  10.898  -0.220   0.811  0.2695 -0.6449  0.2418
  219MOL0     C30093  10.823  -0.168   0.706 -0.6053 -1.1216 -0.0461
  219MOL0     C30094  10.692  -0.088   0.760 -0.1091 -0.0878 -0.4454
  219MOL0     C30095  10.612  -0.182   0.856 -0.2242  0.2434  0.2437
  219MOL0     C30096  10.525  -0.104   0.955  0.2474  0.2997 -0.4363
  219MOL0     C30097  10.453  -0.199   1.067 -0.4564  0.5768  1.0857
  219MOL0     C30098  10.341  -0.264   0.989  0.0894  0.1965  0.0148
  219MOL0     C30099  10.273  -0.371   1.073  0.3120  0.0645  0.4115
  219MOL0     C30100  10.178  -0.329   1.181 -0.4959 -0.1012 -0.3195
  219MOL0     N30101  10.074  -0.430   1.208  0.4810 -0.3692  0.4003
  219MOL0     C30102   9.975  -0.459   1.119  0.8231  0.9755 -1.1916
  219MOL0     C30103   9.907  -0.557   1.185 -0.2851  0.3942 -0.0796
  219MOL0     C30104   9.806  -0.651   1.123 -0.0504  0.0074  0.8439
  219MOL0     C30105   9.674  -0.567   1.105  0.2434  1.1984  0.5355
  219MOL0     C30106   9.555  -0.659   1.099  0.4662  0.4414 -0.0130
  219MOL0     C30107   9.518  -0.709   1.241  0.0371  0.0823  0.0383
  219MOL0     O30108   9.383  -0.735   1.260  0.0141 -0.0334  0.3072
  219MOL0     C30109   9.285  -0.638   1.244 -0.0036  0.3001 -0.2034
  219MOL0     C30110   9.175  -0.647   1.151 -0.2169 -0.6419  0.1240
  219MOL0     C30111   9.077  -0.545   1.154  0.0894 -0.4908  0.0830
  219MOL0     C30112   8.965  -0.555   1.059  0.4812  0.8090  0.0232
  219MOL0     C30113   9.105  -0.424   1.230 -0.1074  0.3006 -0.1708
  219MOL0     C30114   9.026  -0.297   1.215 -0.4466 -0.8157  0.3804
  219MOL0     O30115   9.040  -0.211   1.312 -0.0017 -0.2606  0.1015
  219MOL0     C30116   8.960  -0.098   1.320  0.0817 -0.0245 -0.4945
  219MOL0     C30117   9.027   0.021   1.355 -0.2996  1.0382 -0.5991
  219MOL0     C30118   8.945   0.137   1.381 -0.7640  0.4871 -0.6332
  219MOL0     C30119   8.803   0.133   1.375  1.6592 -0.2441 -0.1819
  219MOL0     O30120   8.724   0.242   1.401  0.0341  0.3190  0.4631
  219MOL0     C30121   8.735   0.292   1.533 -0.3424 -1.1529 -0.2257
  219MOL0     C30122   8.635   0.402   1.562  0.8663  0.1620 -0.1320
  219MOL0     C30123   8.502   0.387   1.498  0.1991  0.5000 -0.0388
  219MOL0     C30124   8.420   0.265   1.555 -0.1413  0.8702  0.0098
  219MOL0     C30125   8.273   0.255   1.500 -0.2494 -0.3292  0.0388
  219MOL0     C30126   8.197   0.386   1.469  0.7909  0.0851  0.0795
  219MOL0     C30127   8.160   0.458   1.603 -0.0108 -1.0515 -1.2686
  219MOL0     C30128   8.066   0.584   1.576 -1.8953  0.9159  0.9399
  219MOL0    Cl30129   7.986   0.637   1.722 -0.0642  0.2582  0.0648
  219MOL0     C30130   8.744   0.013   1.325 -0.6769  0.0439  0.6001
  219MOL0     C30131   8.821  -0.102   1.308 -1.2034 -0.2245 -0.2158
  219MOL0     O30132   8.950  -0.282   1.122  0.5417 -0.0721  0.2930
  219MOL0     C30133   9.216  -0.418   1.309 -0.9072 -0.7618 -0.4403
  219MOL0     C30134   9.296  -0.527   1.327 -1.0355 -0.1213 -0.0740
  219MOL0     N30135   9.954  -0.576   1.314 -0.2352 -0.7246  0.1274
  219MOL0     N30136  10.044  -0.496   1.323 -0.5752  0.1135  0.2427
  219MOL0     C30137  11.033  -0.007   0.858  0.0015  0.3339  0.2066
  219MOL0     C30138  11.126   0.044   0.939 -0.4550 -0.8443 -1.1598
  219MOL0     C30139  11.348   0.203   1.278  0.0562 -1.1135  0.6582
  219MOL0     C30140  11.427   0.293   1.195 -0.0005 -0.7633  0.8709
  219MOL0     C30141  11.500   0.398   1.260 -0.5485 -0.1457 -0.0366
  219MOL0     C30142  11.490   0.429   1.397 -0.3146  0.0643  0.3187
  219MOL0     O30143  11.558   0.540   1.444 -0.1124  0.7044 -0.4665
  219MOL0     C30144  11.519   0.590   1.578  0.1643 -0.7904  0.3689
  219MOL0     C30145  11.589   0.716   1.612 -0.6845 -0.4269 -0.7758
  219MOL0     C30146  11.732   0.704   1.670  0.4892  0.1409  0.9829
  219MOL0     C30147  11.815   0.835   1.682  0.5352 -0.2996  0.8769
  219MOL0     C30148  11.906   0.858   1.566 -0.1995  0.3698 -0.5174
  219MOL0     C30149  11.962   0.862   1.462  0.4842 -0.2288  0.7470
  219MOL0     C30150  11.414   0.343   1.472  0.2415 -0.3350 -0.4270
  219MOL0     C30151  11.342   0.229   1.422  0.3921 -0.1439 -0.4526
  219MOL0     C30152  11.252   0.158   1.522 -0.2108  0.5615  0.7396
  219MOL0     H30153  11.221  -0.198   1.136 -0.0127 -0.2141 -0.2408
  219MOL0     H30154  11.040  -0.318   1.004 -1.6900  1.1818  3.7831
  219MOL0     H30155  10.790  -0.255   0.648  0.3576 -0.4872 -1.6173
  219MOL0     H30156  10.887  -0.104   0.645  0.0592 -0.0559  1.6936
  219MOL0     H30157  10.719  -0.005   0.825 -3.2112  0.7499 -0.0256
  219MOL0     H30158  10.633  -0.056   0.673  0.5326 -0.7824 -1.1428
  219MOL0     H30159  10.554  -0.248   0.791 -1.5575  1.6221 -0.0128
  219MOL0     H30160  10.687  -0.236   0.915 -1.9700 -3.5438 -0.6913
  219MOL0     H30161  10.586  -0.029   1.007  3.2659 -0.2305 -2.9343
  219MOL0     H30162  10.445  -0.049   0.905 -2.8090  1.0693  4.5630
  219MOL0     H30163  10.414  -0.140   1.151 -0.3820 -0.6062  1.9654
  219MOL0     H30164  10.525  -0.269   1.109 -0.1534  0.2932  0.1098
  219MOL0     H30165  10.273  -0.182   0.965 -1.2418 -0.5537  1.0624
  219MOL0     H30166  10.375  -0.315   0.898  0.4509  3.0252 -1.5642
  219MOL0     H30167  10.348  -0.444   1.104  2.2542  1.2123 -1.3106
  219MOL0     H30168  10.207  -0.417   0.999  1.1744 -0.1141 -0.2583
  219MOL0     H30169  10.232  -0.300   1.272  0.1927  0.2054 -0.8136
  219MOL0     H30170  10.127  -0.238   1.148  1.9762  1.9695  1.0867
  219MOL0     H30171   9.985  -0.415   1.020  1.3768  2.1045 -0.6584
  219MOL0     H30172   9.778  -0.738   1.182  2.9312 -0.4889  1.7194
  219MOL0     H30173   9.845  -0.693   1.030  3.9293  0.6025  2.0525
  219MOL0     H30174   9.657  -0.505   1.193 -3.7810  0.0782  0.7620
  219MOL0     H30175   9.683  -0.509   1.013 -1.0342 -1.7968 -1.6625
  219MOL0     H30176   9.473  -0.601   1.056 -0.1389 -1.0676 -0.9644
  219MOL0     H30177   9.570  -0.745   1.033  1.7947  0.3560  0.3692
  219MOL0     H30178   9.578  -0.795   1.270  1.6460  1.5977  1.4738
  219MOL0     H30179   9.550  -0.629   1.308 -4.0322  1.5599  0.5185
  219MOL0     H30180   9.164  -0.741   1.099  1.1895 -0.3948 -0.6594
  219MOL0     H30181   8.972  -0.489   0.972  0.4016 -0.1550 -0.7343
  219MOL0     H30182   8.871  -0.535   1.110  0.0342  1.3127 -0.9587
  219MOL0     H30183   8.976  -0.658   1.025 -0.3060 -0.1392  2.4507
  219MOL0     H30184   9.135   0.030   1.363 -0.3612  0.8434  0.6952
  219MOL0     H30185   8.983   0.237   1.399  0.1494 -0.2323  1.9146
  219MOL0     H30186   8.735   0.212   1.607  0.0399 -0.2338  0.7876
  219MOL0     H30187   8.826   0.351   1.546 -1.9484  1.9778 -1.9422
  219MOL0     H30188   8.609   0.416   1.667 -3.1174  0.9466 -1.0369
  219MOL0     H30189   8.677   0.491   1.514  0.7939 -0.5920 -1.6746
  219MOL0     H30190   8.507   0.367   1.390 -0.5402 -5.0585  0.6421
  219MOL0     H30191   8.443   0.477   1.516  2.0820  2.0564 -1.2170
  219MOL0     H30192   8.428   0.267   1.665  2.3300 -3.0415  0.0991
  219MOL0     H30193   8.452   0.163   1.531 -0.6777  0.5150  0.7586
  219MOL0     H30194   8.273   0.199   1.406 -0.8602  1.4916 -1.1042
  219MOL0     H30195   8.212   0.187   1.561  0.8552 -3.2161 -1.8554
  219MOL0     H30196   8.106   0.360   1.414  1.7800 -1.0997 -1.0785
  219MOL0     H30197   8.255   0.445   1.398 -1.7904  1.4298 -1.0471
  219MOL0     H30198   8.243   0.488   1.667 -1.9107  3.1142 -0.4563
  219MOL0     H30199   8.097   0.392   1.664  0.0864 -1.6310 -1.7868
  219MOL0     H30200   7.989   0.554   1.504 -2.0689  1.1708  1.0204
  219MOL0     H30201   8.130   0.661   1.532 -1.3908  0.4670  0.8698
  219MOL0     H30202   8.638   0.000   1.310 -0.8096  0.0479  1.4890
  219MOL0     H30203   8.780  -0.200   1.285 -0.7517 -1.3525  3.1949
  219MOL0     H30204   9.239  -0.329   1.368 -0.5860 -0.9752 -0.2438
  219MOL0     H30205   9.378  -0.522   1.399  0.7015  1.4303 -2.0144
  219MOL0     H30206  10.985   0.053   0.781 -1.3491 -1.3733 -0.3701
  219MOL0     H30207  11.160   0.144   0.915  0.4742 -0.7952  0.2594
  219MOL0     H30208  11.441   0.285   1.087  0.2536  1.9180  0.6388
  219MOL0     H30209  11.559   0.474   1.210 -0.3271 -0.1601  0.2024
  219MOL0     H30210  11.411   0.611   1.573  0.1464 -1.0742 -1.3778
  219MOL0     H30211  11.539   0.519   1.659  3.8896 -1.2514 -0.7745
  219MOL0     H30212  11.535   0.769   1.690  2.4137 -1.1122  2.0173
  219MOL0     H30213  11.599   0.778   1.522 -1.2541 -1.5596 -1.6591
  219MOL0     H30214  11.716   0.671   1.773  2.2357 -1.7275  0.7132
  219MOL0     H30215  11.783   0.628   1.610 -0.6307  0.7169 -0.7581
  219MOL0     H30216  11.863   0.829   1.780  2.9585  0.4436 -0.1892
  219MOL0     H30217  11.752   0.925   1.691  0.6005 -0.3503  2.0062
  219MOL0     H30218  12.019   0.865   1.371  2.6341  0.7945  2.0594
  219MOL0     H30219  11.396   0.376   1.574  1.4380 -2.3062  0.4825
  219MOL0     H30220  11.288   0.168   1.625 -1.7477 -4.2322  2.0421
  219MOL0     H30221  11.155   0.207   1.513 -0.7490 -0.1128  2.4347
  219MOL0     H30222  11.257   0.050   1.501 -2.2683  0.6109 -0.1811
  220MOL0     O30223   3.244   5.490   0.033  0.1633 -0.1928  0.4495
  220MOL0     C30224   3.253   5.370   0.040 -1.0278  0.2963  0.3275
  220MOL0     O30225   3.338   5.296   0.129  0.8194 -0.3106 -0.1923
  220MOL0     C30226   3.441   5.357   0.195 -0.3646  0.8450 -0.9799
  220MOL0     C30227   3.550   5.414   0.127  0.3341 -0.1253  0.3103
  220MOL0     C30228   3.660   5.462   0.201  0.4220 -0.5275 -0.2031
  220MOL0     C30229   3.664   5.453   0.340 -0.3377 -0.3391 -1.5152
  220MOL0     O30230   3.774   5.473   0.423 -0.4155 -0.6986 -0.2138
  220MOL0     C30231   3.885   5.393   0.387  0.2431  0.2923 -0.3281
  220MOL0     C30232   4.004   5.437   0.477  0.2868  0.2339  0.3210
  220MOL0     C30233   4.044   5.573   0.436  0.4038 -0.7444  0.3294
  220MOL0     C30234   4.136   5.625   0.543 -0.0674  0.6903  0.5945
  220MOL0     C30235   4.191   5.761   0.523 -0.3822 -0.4527  0.1069
  220MOL0     C30236   4.290   5.779   0.403 -0.2475 -0.0567  0.1334
  220MOL0     C30237   4.343   5.923   0.391 -0.1239  0.1275  0.3472
  220MOL0     C30238   4.454   5.949   0.291 -0.5422 -0.1123 -1.1047
  220MOL0     N30239   4.481   6.091   0.269 -0.0911 -0.9217 -0.4446
  220MOL0     C30240   4.577   6.168   0.343 -0.3912 -0.0485  0.1963
  220MOL0     C30241   4.550   6.294   0.298 -0.5641 -0.1493 -0.2103
  220MOL0     C30242   4.603   6.428   0.344 -0.3631 -1.1121  0.1601
  220MOL0     C30243   4.537   6.478   0.473  0.1925 -0.4538 -0.0375
  220MOL0     C30244   4.571   6.632   0.501 -1.1885  0.0752  0.5246
  220MOL0     C30245   4.723   6.666   0.494 -0.3910 -0.0889  0.5553
  220MOL0     O30246   4.790   6.569   0.568  0.0629 -0.2052  0.0827
  220MOL0     C30247   4.924   6.576   0.562  0.4910 -0.4194  0.3874
  220MOL0     C30248   4.988   6.639   0.666  0.3044 -0.3348  0.4341
  220MOL0     C30249   5.132   6.637   0.665  0.3635 -0.5726 -0.9795
  220MOL0     C30250   5.204   6.724   0.774 -0.0634  0.7794 -0.1178
  220MOL0     C30251   5.209   6.558   0.576 -0.0523  0.3507 -0.1722
  220MOL0     C30252   5.355   6.528   0.580  0.1192  0.5635  0.7919
  220MOL0     O30253   5.414   6.549   0.696  0.0731 -0.0707 -0.6084
  220MOL0     C30254   5.544   6.532   0.730 -0.8166  0.2469  0.3086
  220MOL0     C30255   5.624   6.431   0.672 -0.5127 -0.3410 -0.3268
  220MOL0     C30256   5.766   6.432   0.705 -0.4613 -0.1051 -0.7096
  220MOL0     C30257   5.821   6.517   0.803  0.2337  0.7139  0.1655
  220MOL0     O30258   5.951   6.509   0.822 -0.9627  0.1813  0.1024
  220MOL0     C30259   6.006   6.572   0.944 -0.3732  0.3183  0.7519
  220MOL0     C30260   6.141   6.507   0.988  0.1977 -1.2447  0.3309
  220MOL0     C30261   6.237   6.445   0.885  0.9678 -0.2820 -0.3750
  220MOL0     C30262   6.256   6.561   0.777  0.0162  1.1152 -0.0020
  220MOL0     C30263   6.391   6.547   0.709 -0.5763  0.3432  0.2163
  220MOL0     C30264   6.393   6.418   0.622 -0.4007 -1.6236 -0.2110
  220MOL0     C30265   6.448   6.440   0.479 -0.3651  0.4768 -0.1042
  220MOL0     C30266   6.605   6.419   0.471 -0.1171 -0.3791  0.2556
  220MOL0    Cl30267   6.677   6.537   0.363 -0.0303 -0.1732  0.1789
  220MOL0     C30268   5.733   6.613   0.868 -0.0390 -0.1655  0.1778
  220MOL0     C30269   5.604   6.630   0.818  0.9553  0.6124 -0.0662
  220MOL0     O30270   5.398   6.471   0.482 -0.5373  0.8062  0.5755
  220MOL0     C30271   5.131   6.488   0.478 -0.4255  0.4303 -0.1303
  220MOL0     C30272   4.994   6.502   0.472  0.6344 -0.7915 -0.0423
  220MOL0     N30273   4.450   6.292   0.204 -0.0090  0.0378  0.8285
  220MOL0     N30274   4.420   6.174   0.182  0.8938 -0.4212  0.1418
  220MOL0     C30275   3.550   5.398   0.404 -0.7373  0.0415  0.2316
  220MOL0     C30276   3.440   5.344   0.334 -0.1063  0.0358  0.3639
  220MOL0     C30277   3.188   5.286  -0.061  0.4780  0.9307  0.6241
  220MOL0     C30278   3.260   5.172  -0.101 -0.3451  1.2558  0.0379
  220MOL0     C30279   3.216   5.097  -0.217  0.2077 -0.5608 -0.7284
  220MOL0     C30280   3.099   5.130  -0.291  0.7960  0.0230  0.4177
  220MOL0     O30281   3.068   5.045  -0.401  0.5754  0.6062  0.6310
  220MOL0     C30282   2.935   5.061  -0.472 -0.2480  0.8385  0.4813
  220MOL0     C30283   2.825   5.015  -0.380 -0.0721 -0.2109 -0.1479
  220MOL0     C30284   2.850   4.872  -0.309 -0.1380 -0.3689  0.1314
  220MOL0     C30285   2.746   4.854  -0.207  0.1564 -0.1465  0.0408
  220MOL0     C30286   2.604   4.872  -0.252 -0.0324 -0.1096 -0.2022
  220MOL0     C30287   2.491   4.903  -0.287 -0.7288 -0.2154  0.0112
  220MOL0     C30288   3.031   5.243  -0.250  0.1658 -0.4727 -0.0951
  220MOL0     C30289   3.076   5.311  -0.133 -0.1046  0.6786  0.9285
  220MOL0     C30290   2.987   5.423  -0.095 -0.8860  0.1787 -0.8718
  220MOL0     H30291   3.560   5.410   0.019 -0.0392 -0.5177  0.2879
  220MOL0     H30292   3.740   5.493   0.134  0.3627  2.4919  0.9647
  220MOL0     H30293   3.910   5.411   0.282 -2.3368  1.2745 -0.8460
  220MOL0     H30294   3.869   5.285   0.393 -0.6146  0.0611 -4.2355
  220MOL0     H30295   3.968   5.449   0.580 -1.2788  2.1699 -0.3762
  220MOL0     H30296   4.091   5.371   0.476  0.2718  0.2184 -0.5299
  220MOL0     H30297   4.098   5.582   0.341  2.8193  0.0237  1.6902
  220MOL0     H30298   3.955   5.636   0.427 -1.5203 -3.4722 -1.9274
  220MOL0     H30299   4.079   5.619   0.637 -4.4677  0.1967 -1.8009
  220MOL0     H30300   4.223   5.559   0.548  0.6510  1.6848  4.1307
  220MOL0     H30301   4.244   5.777   0.617 -2.3672  1.7817  0.9461
  220MOL0     H30302   4.119   5.843   0.521 -0.1211 -0.2119  0.3329
  220MOL0     H30303   4.380   5.717   0.409 -1.1076 -1.4209 -0.4785
  220MOL0     H30304   4.249   5.737   0.311  2.3273 -0.7226 -0.7950
  220MOL0     H30305   4.376   5.969   0.484 -1.1094  2.7556 -0.5212
  220MOL0     H30306   4.255   5.984   0.367  2.3493  3.0731 -1.9725
  220MOL0     H30307   4.546   5.899   0.324  0.0194  1.7844  0.3797
  220MOL0     H30308   4.424   5.911   0.193 -0.8348  1.1690 -1.5266
  220MOL0     H30309   4.645   6.144   0.424  0.8544  3.5753  0.4310
  220MOL0     H30310   4.581   6.503   0.267 -0.9817 -1.5780 -0.1186
  220MOL0     H30311   4.712   6.426   0.352 -0.1553 -2.2296 -2.2969
  220MOL0     H30312   4.431   6.458   0.489  0.5574 -4.4786 -1.6406
  220MOL0     H30313   4.588   6.421   0.551  0.7971  0.4113  0.2193
  220MOL0     H30314   4.517   6.699   0.434 -1.2695  0.3316  0.8460
  220MOL0     H30315   4.545   6.671   0.599  0.5780 -0.7774  1.3870
  220MOL0     H30316   4.745   6.655   0.387 -3.6995  2.4153 -0.5367
  220MOL0     H30317   4.747   6.765   0.531 -2.3379  1.0837 -1.0984
  220MOL0     H30318   4.935   6.694   0.743  2.1189  2.8533 -0.3966
  220MOL0     H30319   5.137   6.785   0.836 -1.0479 -1.2801  0.9339
  220MOL0     H30320   5.273   6.801   0.738 -1.7475  2.1973 -0.4597
  220MOL0     H30321   5.255   6.657   0.842  1.0071  1.7750  0.0909
  220MOL0     H30322   5.600   6.362   0.592 -0.2834  0.9140 -1.5204
  220MOL0     H30323   5.846   6.376   0.657  0.5163  2.2857 -2.0314
  220MOL0     H30324   6.017   6.679   0.921 -1.9770  0.9320  2.5094
  220MOL0     H30325   5.934   6.563   1.026 -0.8016 -1.0980  0.2440
  220MOL0     H30326   6.188   6.588   1.043 -1.9927  1.1960 -1.1284
  220MOL0     H30327   6.115   6.438   1.069 -3.4382  1.9857  2.2580
  220MOL0     H30328   6.185   6.360   0.840  0.8462 -1.6051  2.0832
  220MOL0     H30329   6.326   6.405   0.934  2.2121  0.3562 -2.0052
  220MOL0     H30330   6.250   6.659   0.825  2.7990  2.2699 -1.7291
  220MOL0     H30331   6.173   6.550   0.707 -1.3047  3.8705  0.9940
  220MOL0     H30332   6.409   6.631   0.641  2.4481 -0.7012 -0.4056
  220MOL0     H30333   6.476   6.547   0.777 -2.1754  0.9308  2.3007
  220MOL0     H30334   6.293   6.374   0.614 -1.0436 -0.3745  0.6703
  220MOL0     H30335   6.457   6.349   0.678  0.0225 -3.0343 -2.3097
  220MOL0     H30336   6.418   6.540   0.448 -3.1765 -0.3739 -0.4239
  220MOL0     H30337   6.399   6.370   0.411  1.1900 -2.2012  1.3729
  220MOL0     H30338   6.628   6.314   0.449  1.5863  0.2590 -1.2060
  220MOL0     H30339   6.646   6.441   0.570 -1.3466 -0.3952  0.7925
  220MOL0     H30340   5.757   6.700   0.928 -0.4611 -0.4509  0.7698
  220MOL0     H30341   5.553   6.715   0.860 -0.4214  1.2768 -2.8543
  220MOL0     H30342   5.180   6.414   0.415  1.6818  0.2178  1.6370
  220MOL0     H30343   4.940   6.450   0.394  0.7044  0.4827 -0.9652
  220MOL0     H30344   3.551   5.398   0.513  3.8601  1.9306  0.4266
  220MOL0     H30345   3.355   5.300   0.384 -0.2889  2.2358  2.1662
  220MOL0     H30346   3.356   5.140  -0.062 -0.9711  3.3628  3.7137
  220MOL0     H30347   3.273   5.006  -0.235  1.4898 -0.3961  2.0648
  220MOL0     H30348   2.913   5.160  -0.513  0.0131  0.5306 -0.4059
  220MOL0     H30349   2.941   5.002  -0.564  0.8230  1.1404  0.3478
  220MOL0     H30350   2.728   5.021  -0.431 -0.8897 -2.7687  0.9393
  220MOL0     H30351   2.805   5.090  -0.302 -1.3962 -0.9675  0.2832
  220MOL0     H30352   2.857   4.793  -0.384  0.5838  0.6407 -0.8874
  220MOL0     H30353   2.943   4.874  -0.252  1.2403  0.6103 -2.0371
  220MOL0     H30354   2.761   4.923  -0.124 -1.1261 -0.3524  0.4640
  220MOL0     H30355   2.757   4.753  -0.167 -1.5430 -1.6069 -2.7906
  220MOL0     H30356   2.390   4.937  -0.298 -1.4616 -2.2182  0.1019
  220MOL0     H30357   2.953   5.288  -0.311 -0.1652  0.6680  1.1208
  220MOL0     H30358   3.023   5.517  -0.137 -0.9566  0.7393  0.2765
  220MOL0     H30359   2.888   5.402  -0.138 -0.8432 -1.5230 -0.2479
  220MOL0     H30360   2.988   5.436   0.014  1.3908  2.4971 -1.0804
  221MOL0     O30361   2.087   4.849   1.421 -0.2314  0.2380  0.3444
  221MOL0     C30362   2.090   4.969   1.416 -0.2889 -0.0030  0.2333
  221MOL0     O30363   2.185   5.051   1.464  0.1126  0.0521  0.0648
  221MOL0     C30364   2.298   5.001   1.522  0.2614 -0.4834 -0.2944
  221MOL0     C30365   2.404   4.968   1.436  0.0150 -0.1837 -0.9226
  221MOL0     C30366   2.528   4.947   1.491  0.2347 -0.2206 -0.2352
  221MOL0     C30367   2.546   4.948   1.630  0.0824  0.6303  0.1259
  221MOL0     O30368   2.672   4.910   1.666  0.1496 -0.0195  0.9524
  221MOL0     C30369   2.757   5.030   1.698  0.1855  0.6210  0.6665
  221MOL0     C30370   2.897   4.976   1.744  0.8181 -0.6879 -0.4666
  221MOL0     C30371   2.981   4.906   1.632 -0.4832  0.1379 -0.0985
  221MOL0     C30372   3.110   4.846   1.691 -0.8671 -0.3098 -0.7459
  221MOL0     C30373   3.199   4.772   1.588 -0.6712 -0.3965  0.1908
  221MOL0     C30374   3.295   4.865   1.507 -0.2543 -0.0998  0.9587
  221MOL0     C30375   3.433   4.895   1.580  0.7918 -0.5963 -0.9854
  221MOL0     C30376   3.534   4.787   1.595  0.8047 -0.7401 -0.2224
  221MOL0     N30377   3.646   4.825   1.678 -0.6617 -0.5639  0.2118
  221MOL0     C30378   3.652   4.851   1.807  0.1238  0.2764  0.0245
  221MOL0     C30379   3.783   4.895   1.831  1.0326 -0.2077  0.6355
  221MOL0     C30380   3.851   4.946   1.952  1.0469 -0.2988 -0.5780
  221MOL0     C30381   3.990   4.894   1.970 -0.0625  0.1610  0.6648
  221MOL0     C30382   4.071   4.977   2.068  0.3396 -0.2960 -0.1593
  221MOL0     C30383   4.225   4.948   2.041 -0.3153 -0.2047 -0.4751
  221MOL0     O30384   4.288   5.005   2.157  0.0948 -0.6654 -0.1074
  221MOL0     C30385   4.415   4.972   2.164 -0.4538 -0.0345  0.2540
  221MOL0     C30386   4.475   4.844   2.129 -0.3315 -0.1967 -0.7489
  221MOL0     C30387   4.610   4.819   2.158 -0.1256  0.1356 -0.5640
  221MOL0     C30388   4.662   4.677   2.116  0.5490 -0.7575 -0.4808
  221MOL0     C30389   4.687   4.917   2.212  0.0523 -0.0812 -0.4457
  221MOL0     C30390   4.836   4.904   2.223 -0.1938 -0.0650 -1.4115
  221MOL0     O30391   4.914   5.016   2.218  0.4010 -0.1918  0.8955
  221MOL0     C30392   5.046   5.006   2.259  0.4879 -0.4552  0.8017
  221MOL0     C30393   5.141   4.954   2.169  0.0100 -1.1157  0.3855
  221MOL0     C30394   5.273   4.943   2.205  0.2552 -0.0026  0.5510
  221MOL0     C30395   5.322   4.989   2.325  0.1437 -0.3616 -0.3359
  221MOL0     O30396   5.458   4.999   2.358  0.1602  0.3556  0.1432
  221MOL0     C30397   5.532   4.874   2.349  0.3665 -0.0814 -0.4227
  221MOL0     C30398   5.677   4.916   2.347  0.4676 -0.4102 -0.4793
  221MOL0     C30399   5.711   5.008   2.228  0.5627 -0.6134 -1.3001
  221MOL0     C30400   5.863   5.015   2.212 -0.0466 -0.5397  0.4728
  221MOL0     C30401   5.928   5.080   2.333 -0.7945 -0.1443 -0.2038
  221MOL0     C30402   6.088   5.069   2.323  0.0522 -1.3153  0.0437
  221MOL0     C30403   6.158   5.044   2.450 -0.4603  0.5293  0.2489
  221MOL0     C30404   6.262   4.935   2.436  0.0339  0.9894  0.8219
  221MOL0    Cl30405   6.358   4.909   2.588  0.0722  0.2469 -0.4554
  221MOL0     C30406   5.232   5.060   2.412  0.3202  0.2032  0.3841
  221MOL0     C30407   5.090   5.064   2.384 -0.3965 -0.2170 -0.0759
  221MOL0     O30408   4.871   4.793   2.268 -0.9735 -0.1108  0.2560
  221MOL0     C30409   4.631   5.042   2.247 -0.2052  0.1808  0.1116
  221MOL0     C30410   4.495   5.062   2.231  0.5599 -0.1975  0.7328
  221MOL0     N30411   3.850   4.878   1.712 -0.7798 -0.6063 -0.0254
  221MOL0     N30412   3.769   4.850   1.621  0.4623  0.3932 -0.1645
  221MOL0     C30413   2.438   4.977   1.713 -1.0003 -0.9396  0.0386
  221MOL0     C30414   2.311   5.009   1.660 -0.3640  0.2346  0.0116
  221MOL0     C30415   1.982   5.037   1.346  0.1861  0.7624  0.3297
  221MOL0     C30416   1.960   5.172   1.378  0.0998  1.1048  0.4350
  221MOL0     C30417   1.854   5.241   1.317  0.4341  0.4851 -0.2428
  221MOL0     C30418   1.767   5.179   1.221 -0.6809 -0.2366 -0.1775
  221MOL0     O30419   1.663   5.253   1.155  0.1832  0.1137 -0.3011
  221MOL0     C30420   1.686   5.295   1.024 -0.2594 -0.1793 -0.3966
  221MOL0     C30421   1.621   5.437   1.009  0.2547 -0.4988 -0.5681
  221MOL0     C30422   1.615   5.483   0.865  0.0390  0.4619 -0.4964
  221MOL0     C30423   1.577   5.637   0.855  0.6637  0.2234 -0.5078
  221MOL0     C30424   1.695   5.716   0.895  0.2013 -0.1146 -0.2945
  221MOL0     C30425   1.794   5.794   0.928  1.0229  0.1790 -0.1366
  221MOL0     C30426   1.786   5.048   1.193 -0.0142  0.7661 -0.6182
  221MOL0     C30427   1.891   4.975   1.261 -0.5044  0.3970  0.0830
  221MOL0     C30428   1.901   4.827   1.212  0.7822 -0.4616 -0.5428
  221MOL0     H30429   2.391   4.975   1.328 -0.1491  1.6753 -0.8105
  221MOL0     H30430   2.607   4.914   1.424  1.2003  0.5566  0.5191
  221MOL0     H30431   2.716   5.083   1.785 -0.5954 -2.5275  2.3632
  221MOL0     H30432   2.772   5.083   1.603  4.8296  0.0331  0.8444
  221MOL0     H30433   2.949   5.071   1.764 -0.7320 -0.1074  1.0552
  221MOL0     H30434   2.897   4.915   1.835  2.5330  0.7128  0.5666
  221MOL0     H30435   2.928   4.820   1.591  0.5211 -0.4965 -0.0941
  221MOL0     H30436   2.999   4.980   1.553  3.4685  0.6695  1.0584
  221MOL0     H30437   3.171   4.922   1.741 -0.8071 -0.5979 -0.3763
  221MOL0     H30438   3.084   4.785   1.778 -0.8891  3.1627  1.9048
  221MOL0     H30439   3.129   4.735   1.513  0.1085  1.2659 -1.4541
  221MOL0     H30440   3.254   4.690   1.633 -1.0923 -0.8476 -0.1077
  221MOL0     H30441   3.327   4.816   1.415 -2.1522  1.1862 -0.4703
  221MOL0     H30442   3.245   4.957   1.474  0.9504  0.7618  1.4936
  221MOL0     H30443   3.423   4.949   1.675  0.0038  0.0156 -1.4063
  221MOL0     H30444   3.477   4.971   1.515  1.1077  0.6991  0.6579
  221MOL0     H30445   3.497   4.691   1.633 -0.7429 -1.6528 -3.6237
  221MOL0     H30446   3.575   4.760   1.497  3.4537  1.3344  0.1801
  221MOL0     H30447   3.566   4.846   1.874 -0.8836  1.9438 -1.0824
  221MOL0     H30448   3.801   4.934   2.048 -0.9376  0.3240 -1.4904
  221MOL0     H30449   3.854   5.054   1.937 -1.2604 -0.3706 -2.0008
  221MOL0     H30450   3.993   4.790   2.002 -0.2116  0.0282  0.2407
  221MOL0     H30451   4.036   4.905   1.872 -0.1341 -0.6436  0.5354
  221MOL0     H30452   4.043   5.082   2.064 -0.5489 -0.5170  0.0698
  221MOL0     H30453   4.035   4.945   2.167  3.1001 -1.4692  0.5661
  221MOL0     H30454   4.241   4.840   2.035 -0.4838 -0.3371  1.2387
  221MOL0     H30455   4.264   4.999   1.952  0.0459  1.7517  0.7572
  221MOL0     H30456   4.418   4.763   2.086 -2.4558  1.3060 -0.9251
  221MOL0     H30457   4.649   4.614   2.204 -1.5111 -0.9602 -0.8669
  221MOL0     H30458   4.760   4.665   2.068 -0.3354 -1.3260 -2.2357
  221MOL0     H30459   4.597   4.627   2.043  2.5962 -3.0949 -0.8090
  221MOL0     H30460   5.110   4.917   2.071 -1.0928  0.7670 -0.0334
  221MOL0     H30461   5.337   4.896   2.131 -0.7579  1.8815 -1.6500
  221MOL0     H30462   5.517   4.823   2.444 -0.0254  0.7979 -0.0084
  221MOL0     H30463   5.511   4.813   2.261 -3.1000 -0.4566  0.5487
  221MOL0     H30464   5.692   4.963   2.445 -2.5416  0.4437 -0.3096
  221MOL0     H30465   5.744   4.829   2.343  2.6281  1.2012 -0.9402
  221MOL0     H30466   5.666   5.104   2.255 -0.4527 -1.2578 -0.6265
  221MOL0     H30467   5.650   4.967   2.147 -2.1998 -2.0739  1.3183
  221MOL0     H30468   5.880   5.076   2.123  3.5957  0.2809  1.5498
  221MOL0     H30469   5.907   4.920   2.179  0.4953 -0.2916  0.4574
  221MOL0     H30470   5.890   5.179   2.359 -0.5631  0.1520 -0.9781
  221MOL0     H30471   5.895   5.022   2.420 -3.0355  0.7406 -0.3891
  221MOL0     H30472   6.113   5.170   2.290 -1.0222 -1.0106  0.1193
  221MOL0     H30473   6.114   4.993   2.249  0.2972 -0.2606 -0.9721
  221MOL0     H30474   6.092   5.009   2.530 -0.4277 -2.2358 -0.8393
  221MOL0     H30475   6.205   5.135   2.490  0.5720  0.1600 -0.0953
  221MOL0     H30476   6.336   4.958   2.359  0.0245 -0.8726  0.2067
  221MOL0     H30477   6.210   4.841   2.417  2.7264  0.0734 -3.3950
  221MOL0     H30478   5.269   5.107   2.502 -1.8486 -2.2636  2.7549
  221MOL0     H30479   5.032   5.121   2.455  1.2800  1.4371  0.0573
  221MOL0     H30480   4.687   5.121   2.295 -3.7048  1.9207  1.6647
  221MOL0     H30481   4.452   5.152   2.273 -0.5854 -0.1157 -0.5460
  221MOL0     H30482   2.448   4.986   1.820 -0.0605 -1.0052 -0.0366
  221MOL0     H30483   2.224   5.040   1.718 -0.3442  1.1286 -0.4277
  221MOL0     H30484   2.027   5.221   1.449 -0.9481  2.1203  0.7511
  221MOL0     H30485   1.838   5.344   1.349 -1.1308  0.3941 -0.6706
  221MOL0     H30486   1.794   5.299   1.007 -0.2831 -1.2986 -0.9522
  221MOL0     H30487   1.646   5.219   0.956 -0.2095 -0.9255  0.3817
  221MOL0     H30488   1.684   5.497   1.075 -1.3037 -1.2636  1.7274
  221MOL0     H30489   1.522   5.442   1.054  1.5640  0.8557  2.3967
  221MOL0     H30490   1.715   5.474   0.820  0.2679  0.1164  0.0760
  221MOL0     H30491   1.550   5.414   0.811 -0.2866 -0.2698  0.7892
  221MOL0     H30492   1.495   5.670   0.919  1.6986  4.9028 -1.2289
  221MOL0     H30493   1.548   5.656   0.751 -2.1691 -0.8819 -0.0152
  221MOL0     H30494   1.875   5.857   0.956 -0.8473  1.7002  2.1986
  221MOL0     H30495   1.725   5.006   1.113  0.6963 -1.6882  0.0445
  221MOL0     H30496   1.881   4.753   1.290 -1.0077 -0.4570 -0.9491
  221MOL0     H30497   1.830   4.808   1.131 -0.5433  1.0660  0.1798
  221MOL0     H30498   2.003   4.808   1.177  1.7389  1.0473  1.2290
  222MOL0     O30499  11.180   1.498  11.048 -0.0342  0.2797  0.3632
  222MOL0     C30500  11.172   1.391  10.986 -0.1642 -0.2251  0.1015
  222MOL0     O30501  11.265   1.290  10.991  0.1047  0.1538 -0.2233
  222MOL0     C30502  11.378   1.302  11.070  0.9977  0.3219 -1.4809
  222MOL0     C30503  11.486   1.219  11.036  0.7826  0.0253  0.4914
  222MOL0     C30504  11.609   1.242  11.095  0.0066  0.1191  1.3220
  222MOL0     C30505  11.622   1.314  11.210  0.2703 -0.1793  0.2725
  222MOL0     O30506  11.736   1.308  11.274 -0.6014  0.0138 -0.1541
  222MOL0     C30507  11.765   1.179  11.346  0.4279 -0.3686 -0.7164
  222MOL0     C30508  11.881   1.206  11.439 -0.6479 -0.5043 -0.4149
  222MOL0     C30509  11.939   1.089  11.522  0.3838 -0.4522  0.3217
  222MOL0     C30510  12.033   1.131  11.636 -0.0539  0.6949  0.8151
  222MOL0     C30511  12.177   1.140  11.601 -0.0312  0.0555 -0.0837
  222MOL0     C30512  12.243   1.000  11.577 -0.3889  0.3071 -0.1119
  222MOL0     C30513  12.191   0.892  11.677  0.8440  0.3648 -0.2292
  222MOL0     C30514  12.275   0.766  11.699 -0.0244 -0.4976  0.1712
  222MOL0     N30515  12.281   0.694  11.572 -0.5100  0.1709  0.2805
  222MOL0     C30516  12.378   0.715  11.478  0.5816 -0.2306  0.2968
  222MOL0     C30517  12.348   0.641  11.371  0.3650  0.7618  0.5333
  222MOL0     C30518  12.426   0.631  11.244 -0.4939 -0.0908  0.7796
  222MOL0     C30519  12.544   0.545  11.269 -1.0682  0.2894 -0.4808
  222MOL0     C30520  12.631   0.543  11.140 -0.0364  0.4162  0.3124
  222MOL0     C30521  12.756   0.476  11.172  0.1668 -0.5120  0.0460
  222MOL0     O30522  12.829   0.439  11.051 -0.1299  0.4092 -0.1406
  222MOL0     C30523  12.955   0.394  11.062 -0.0053 -1.2509 -0.4905
  222MOL0     C30524  13.009   0.346  11.182  0.2479  0.0681  0.2952
  222MOL0     C30525  13.141   0.293  11.196 -0.0737  1.1756  0.3078
  222MOL0     C30526  13.174   0.255  11.341  0.8317 -0.0339  0.6402
  222MOL0     C30527  13.225   0.296  11.076  0.7591  0.5363 -0.7029
  222MOL0     C30528  13.362   0.256  11.081 -0.0241  0.5713 -0.2594
  222MOL0     O30529  13.427   0.265  11.200 -0.5279  0.3023 -0.2308
  222MOL0     C30530  13.567   0.242  11.212  0.3641 -0.2729  0.7782
  222MOL0     C30531  13.650   0.255  11.101  0.0754 -0.1412  0.0016
  222MOL0     C30532  13.784   0.228  11.116 -0.2600 -0.0486  0.5255
  222MOL0     C30533  13.834   0.183  11.248  0.2849 -0.3051  0.5527
  222MOL0     O30534  13.967   0.187  11.272 -0.3742 -0.0186 -0.2496
  222MOL0     C30535  14.026   0.055  11.251 -0.5027  1.0779 -0.4177
  222MOL0     C30536  14.101   0.017  11.379 -0.3867  1.6405  0.6328
  222MOL0     C30537  14.130  -0.133  11.402 -0.0042 -1.3151 -0.5980
  222MOL0     C30538  14.203  -0.186  11.284 -0.0523 -0.1817  1.0822
  222MOL0     C30539  14.355  -0.174  11.301  0.5036  0.5358 -0.1434
  222MOL0     C30540  14.421  -0.277  11.209 -0.1887 -0.7717 -0.2346
  222MOL0     C30541  14.571  -0.254  11.215  0.1715 -0.0001  0.1505
  222MOL0     C30542  14.658  -0.349  11.119  0.1820 -0.5852  0.8629
  222MOL0    Cl30543  14.810  -0.268  11.113 -0.1866 -0.1934 -0.1392
  222MOL0     C30544  13.746   0.164  11.351  0.1112 -0.4825  0.0503
  222MOL0     C30545  13.612   0.187  11.326  0.7170 -0.4081  0.8496
  222MOL0     O30546  13.397   0.206  10.982  0.3227 -0.2494 -0.7010
  222MOL0     C30547  13.174   0.362  10.961  0.1499  0.0595 -0.0746
  222MOL0     C30548  13.038   0.399  10.947  0.2912 -0.0121  0.0021
  222MOL0     N30549  12.230   0.579  11.402  0.0880  0.6365  0.2833
  222MOL0     N30550  12.187   0.610  11.522  0.2218 -0.2402 -0.4125
  222MOL0     C30551  11.513   1.387  11.261  0.1850  0.3217  0.4506
  222MOL0     C30552  11.394   1.385  11.189  0.6032 -0.5357 -0.0675
  222MOL0     C30553  11.031   1.367  10.933 -0.2399 -0.7485  0.1075
  222MOL0     C30554  10.927   1.446  10.987  0.2246  0.3654  0.4625
  222MOL0     C30555  10.790   1.431  10.956 -0.6291  0.4725  0.0793
  222MOL0     C30556  10.758   1.324  10.884 -0.8262 -0.2522  0.2799
  222MOL0     O30557  10.641   1.301  10.826  0.3378 -0.9243 -0.7898
  222MOL0     C30558  10.525   1.386  10.853 -0.4217  0.7760  0.1193
  222MOL0     C30559  10.390   1.299  10.835 -1.0925  0.1916 -0.2404
  222MOL0     C30560  10.385   1.230  10.706  0.8278 -0.0009  0.7004
  222MOL0     C30561  10.265   1.134  10.684  0.5493 -0.4123 -0.8957
  222MOL0     C30562  10.259   1.075  10.549  0.4300 -1.4611 -0.3160
  222MOL0     C30563  10.259   1.030  10.442 -0.4793 -0.6737 -0.7385
  222MOL0     C30564  10.864   1.248  10.828 -0.0190  0.8278 -0.3913
  222MOL0     C30565  11.000   1.265  10.843 -0.0642 -1.0212 -0.2959
  222MOL0     C30566  11.097   1.176  10.768  0.9676  0.6174 -0.4026
  222MOL0     H30567  11.482   1.154  10.949  1.2686 -0.3434  0.7383
  222MOL0     H30568  11.696   1.186  11.062  0.7310  1.6071  0.6236
  222MOL0     H30569  11.784   1.097  11.276 -0.2393 -0.3901 -0.8811
  222MOL0     H30570  11.677   1.151  11.406 -0.8658  0.2042 -2.2943
  222MOL0     H30571  11.959   1.255  11.380 -0.4130 -1.5622 -0.9971
  222MOL0     H30572  11.849   1.275  11.518 -2.5240 -1.1860 -0.5296
  222MOL0     H30573  11.850   1.047  11.569  0.7439  1.9718  3.6212
  222MOL0     H30574  11.979   1.012  11.456  1.1510  0.9386 -0.9080
  222MOL0     H30575  12.008   1.231  11.672 -2.2327  0.9533 -1.1728
  222MOL0     H30576  12.014   1.070  11.725 -1.1054 -3.3544 -1.8944
  222MOL0     H30577  12.226   1.189  11.686  2.0801 -3.1908  0.7735
  222MOL0     H30578  12.190   1.192  11.506 -0.6691 -0.3581 -0.4000
  222MOL0     H30579  12.224   0.957  11.478  1.2007 -1.3315  0.2458
  222MOL0     H30580  12.351   1.019  11.579 -0.4635  0.8364 -0.6177
  222MOL0     H30581  12.090   0.867  11.643  1.0024 -0.5004 -0.0759
  222MOL0     H30582  12.169   0.925  11.779 -0.1381 -0.9866  0.0254
  222MOL0     H30583  12.380   0.788  11.718  0.0029 -1.3804  1.1343
  222MOL0     H30584  12.236   0.699  11.777 -0.0701 -1.4256 -0.6375
  222MOL0     H30585  12.474   0.764  11.490  0.6834 -0.9721  3.5516
  222MOL0     H30586  12.455   0.733  11.216 -1.3726 -0.6236 -2.4444
  222MOL0     H30587  12.365   0.591  11.163  1.2541  2.3598 -1.9743
  222MOL0     H30588  12.610   0.584  11.348  1.7362  1.0929 -3.0147
  222MOL0     H30589  12.521   0.439  11.285  2.1022 -0.6722 -1.5079
  222MOL0     H30590  12.579   0.482  11.065  1.5830 -0.9287  0.2123
  222MOL0     H30591  12.648   0.644  11.102 -0.7195  0.8587  1.1607
  222MOL0     H30592  12.815   0.548  11.229  0.4740  0.6097 -1.6410
  222MOL0     H30593  12.741   0.384  11.229  1.8524 -0.5469  0.4823
  222MOL0     H30594  12.940   0.336  11.266 -3.0820  2.4903 -1.9020
  222MOL0     H30595  13.243   0.171  11.332 -0.3989 -1.0789  0.6581
  222MOL0     H30596  13.084   0.222  11.394 -0.6117  1.9372 -0.4347
  222MOL0     H30597  13.222   0.340  11.390  1.6254  0.4193 -0.8582
  222MOL0     H30598  13.613   0.301  11.010  3.9507  0.6176 -1.3900
  222MOL0     H30599  13.860   0.239  11.040  1.2921 -0.9752  1.8683
  222MOL0     H30600  13.958  -0.028  11.231  0.0843  0.5393 -0.2043
  222MOL0     H30601  14.096   0.061  11.167  1.9130  0.3653  1.4349
  222MOL0     H30602  14.197   0.069  11.377  0.6505 -0.1662 -1.5898
  222MOL0     H30603  14.041   0.048  11.465 -2.7166 -1.3573  0.2685
  222MOL0     H30604  14.036  -0.180  11.430 -0.7161  1.5282  2.4599
  222MOL0     H30605  14.181  -0.127  11.499 -0.9682  4.8699 -0.0261
  222MOL0     H30606  14.177  -0.148  11.185  1.7898  2.5210  1.5253
  222MOL0     H30607  14.181  -0.293  11.277  0.4651 -0.3535  1.8620
  222MOL0     H30608  14.373  -0.070  11.271 -0.9253  1.5337  2.2385
  222MOL0     H30609  14.391  -0.190  11.402  2.9046  1.0656 -0.8548
  222MOL0     H30610  14.379  -0.250  11.111 -1.8931  0.6824  0.8386
  222MOL0     H30611  14.402  -0.379  11.244  2.4780 -0.6638  1.8347
  222MOL0     H30612  14.607  -0.257  11.319  0.8902  0.7646 -0.0635
  222MOL0     H30613  14.593  -0.153  11.179 -0.8903  0.0953 -0.2640
  222MOL0     H30614  14.610  -0.370  11.024  0.0472  0.0249  0.7875
  222MOL0     H30615  14.664  -0.445  11.170 -3.1355 -1.2422  0.2012
  222MOL0     H30616  13.782   0.129  11.447 -1.8531  0.9476  1.3837
  222MOL0     H30617  13.543   0.162  11.406  0.4314 -1.0020  0.4253
  222MOL0     H30618  13.224   0.377  10.866  1.5006  0.4043  0.6684
  222MOL0     H30619  12.998   0.444  10.856  1.9121  0.5170 -0.4793
  222MOL0     H30620  11.515   1.439  11.356  0.1818  0.3172  0.4534
  222MOL0     H30621  11.302   1.431  11.225 -0.9655 -1.7068 -2.3496
  222MOL0     H30622  10.941   1.537  11.045 -2.0530  1.4111 -0.4954
  222MOL0     H30623  10.723   1.507  10.996  0.4629  1.5614 -0.1057
  222MOL0     H30624  10.532   1.431  10.952  1.2679 -1.3972  1.0620
  222MOL0     H30625  10.518   1.473  10.787 -2.7007  1.0506  0.6328
  222MOL0     H30626  10.305   1.363  10.860 -1.6501 -1.5052  2.7483
  222MOL0     H30627  10.392   1.214  10.905  0.8404 -1.1144 -1.7791
  222MOL0     H30628  10.378   1.306  10.628  0.3233 -1.9871 -1.2665
  222MOL0     H30629  10.475   1.170  10.688 -0.6477 -1.9134 -0.7620
  222MOL0     H30630  10.169   1.181  10.706  1.1491  0.1137  0.7708
  222MOL0     H30631  10.289   1.051  10.751  1.1201 -1.1261 -1.9570
  222MOL0     H30632  10.265   0.994  10.342  0.0755  0.6823 -1.2265
  222MOL0     H30633  10.844   1.168  10.758 -1.4570  0.9049 -0.1025
  222MOL0     H30634  11.129   1.238  10.685 -0.4719  0.7162 -0.9120
  222MOL0     H30635  11.168   1.125  10.834 -0.9390 -3.1614 -0.9724
  222MOL0     H30636  11.044   1.088  10.730 -1.2583  1.1126  1.3425
  223MOL0     O30637   2.826   0.631  10.574 -0.0541 -0.5809 -0.1746
  223MOL0     C30638   2.782   0.738  10.537 -1.0035 -0.7270  0.0898
  223MOL0     O30639   2.850   0.855  10.535 -0.7415 -1.0542 -1.3319
  223MOL0     C30640   2.974   0.870  10.590 -0.1603  0.7087 -0.0933
  223MOL0     C30641   3.061   0.969  10.538 -0.3418 -0.8293 -0.0563
  223MOL0     C30642   3.201   0.962  10.564  0.1785  0.2470 -0.0595
  223MOL0     C30643   3.247   0.876  10.662 -0.1593 -1.4849 -0.0479
  223MOL0     O30644   3.384   0.880  10.686  0.4914 -0.3928 -0.5105
  223MOL0     C30645   3.459   0.782  10.616  0.3110  1.1573  1.8954
  223MOL0     C30646   3.611   0.817  10.632  0.2197  0.5335 -0.5763
  223MOL0     C30647   3.652   0.910  10.517 -0.4349  0.2902 -0.3227
  223MOL0     C30648   3.801   0.947  10.534 -0.3123  0.2787  0.4048
  223MOL0     C30649   3.865   1.015  10.410  0.3132 -0.8102  0.3802
  223MOL0     C30650   4.012   1.048  10.416  0.7231 -0.1314  0.1019
  223MOL0     C30651   4.071   1.122  10.295 -0.2657  0.2352  1.0154
  223MOL0     C30652   4.206   1.185  10.320  0.1350  0.2473 -0.2224
  223MOL0     N30653   4.291   1.066  10.333  0.0404 -0.2341  0.1550
  223MOL0     C30654   4.369   1.015  10.436  0.3885 -0.4097 -0.4716
  223MOL0     C30655   4.429   0.896  10.400  0.7930  0.2090 -0.2271
  223MOL0     C30656   4.537   0.831  10.467  0.5776 -0.7599 -0.2520
  223MOL0     C30657   4.662   0.912  10.460 -0.9533 -0.0030  0.1368
  223MOL0     C30658   4.741   0.918  10.331 -0.4674  0.6309 -0.8777
  223MOL0     C30659   4.893   0.961  10.342  0.3272  0.3915  0.6162
  223MOL0     O30660   4.972   0.854  10.402 -0.0370 -0.6824 -0.3286
  223MOL0     C30661   5.100   0.830  10.357  0.5500 -1.1010  0.3642
  223MOL0     C30662   5.175   0.918  10.275  0.6559  0.2386 -1.7786
  223MOL0     C30663   5.305   0.879  10.240 -0.3158 -0.8641 -0.4751
  223MOL0     C30664   5.374   0.983  10.152  0.0987  0.8109 -0.0619
  223MOL0     C30665   5.365   0.763  10.289 -0.5940  0.7000 -0.0655
  223MOL0     C30666   5.515   0.728  10.273  0.2281 -0.0083 -0.7839
  223MOL0     O30667   5.602   0.828  10.246  0.0198  0.0784 -0.5351
  223MOL0     C30668   5.733   0.818  10.266 -0.2733 -0.0844 -0.0471
  223MOL0     C30669   5.800   0.700  10.238 -0.3000  0.5290  0.4374
  223MOL0     C30670   5.943   0.693  10.249  0.4951  0.1660 -0.4179
  223MOL0     C30671   6.019   0.804  10.288  0.2366 -0.3005 -0.4380
  223MOL0     O30672   6.151   0.788  10.304 -0.4226 -0.1054  0.5575
  223MOL0     C30673   6.235   0.912  10.295  0.0083  0.1673 -0.0078
  223MOL0     C30674   6.379   0.875  10.328 -0.2612  1.5509  0.3840
  223MOL0     C30675   6.483   0.978  10.316  0.2711 -0.7251  0.6150
  223MOL0     C30676   6.624   0.913  10.314  0.5225 -0.0950 -0.6680
  223MOL0     C30677   6.726   1.012  10.367 -1.1643  1.1177  0.5058
  223MOL0     C30678   6.864   0.952  10.325  1.1147  0.4615 -0.5670
  223MOL0     C30679   6.969   1.017  10.409  0.5558  0.1177 -1.3494
  223MOL0     C30680   7.108   0.978  10.360  0.0674 -0.2795 -0.4035
  223MOL0    Cl30681   7.230   1.059  10.464 -0.1911  0.4335  0.3469
  223MOL0     C30682   5.945   0.923  10.315  0.1490 -0.0249  0.3464
  223MOL0     C30683   5.806   0.929  10.298 -0.5268  0.1650 -0.7242
  223MOL0     O30684   5.540   0.606  10.274  0.8342 -0.4094 -0.5385
  223MOL0     C30685   5.291   0.679  10.367  0.1257 -0.4091 -0.9176
  223MOL0     C30686   5.159   0.714  10.397  0.6603  1.6962 -0.1743
  223MOL0     N30687   4.393   0.884  10.266  0.1488  0.3349  0.1490
  223MOL0     N30688   4.314   0.985  10.225 -0.0048  0.5588 -0.0390
  223MOL0     C30689   3.157   0.801  10.725 -0.4505  0.5725  0.2159
  223MOL0     C30690   3.025   0.790  10.693  0.3400 -0.0001 -0.6243
  223MOL0     C30691   2.649   0.751  10.478  0.8034  0.1258  0.0043
  223MOL0     C30692   2.581   0.870  10.502 -0.0060  0.1738 -0.9139
  223MOL0     C30693   2.450   0.884  10.454 -0.5176 -0.4831 -0.3506
  223MOL0     C30694   2.393   0.782  10.375 -0.1505 -0.3682 -0.7339
  223MOL0     O30695   2.270   0.806  10.319  0.0462 -0.1249  0.6404
  223MOL0     C30696   2.166   0.863  10.402  0.0980  0.9165 -0.8003
  223MOL0     C30697   2.021   0.829  10.356 -0.0100  0.6405  0.2408
  223MOL0     C30698   1.975   0.914  10.240  0.0657  0.2089 -0.3476
  223MOL0     C30699   1.917   1.054  10.283 -0.4703 -0.4650 -0.6366
  223MOL0     C30700   1.797   1.031  10.359  0.0748  0.6027 -0.2757
  223MOL0     C30701   1.696   1.005  10.422  0.0190 -0.3122 -1.4079
  223MOL0     C30702   2.463   0.665  10.357 -0.7783 -0.2986  0.7691
  223MOL0     C30703   2.591   0.649  10.398 -1.4031  0.7564  0.8075
  223MOL0     C30704   2.659   0.520  10.373 -1.1518  0.4042 -0.3689
  223MOL0     H30705   3.028   1.041  10.463 -1.6578 -1.2951  0.0519
  223MOL0     H30706   3.264   1.031  10.510 -1.1464  1.2081 -0.4289
  223MOL0     H30707   3.431   0.798  10.512  0.4392  0.2556  1.7180
  223MOL0     H30708   3.437   0.681  10.652  1.3594  1.1819  2.6610
  223MOL0     H30709   3.638   0.857  10.730  1.9639 -2.4861  0.3010
  223MOL0     H30710   3.667   0.723  10.625  1.0062  0.8305  1.3320
  223MOL0     H30711   3.648   0.861  10.420  0.2276  1.4237 -0.9589
  223MOL0     H30712   3.582   0.994  10.506 -1.5917 -0.1912  2.4554
  223MOL0     H30713   3.809   1.015  10.620 -0.8852 -0.2244  0.8657
  223MOL0     H30714   3.858   0.858  10.562  0.3081 -0.0790 -1.8241
  223MOL0     H30715   3.806   1.106  10.396 -0.9169 -1.8473 -1.6924
  223MOL0     H30716   3.850   0.956  10.319 -1.3313  2.4266 -1.6475
  223MOL0     H30717   4.020   1.114  10.503 -2.1394 -0.3710  0.6408
  223MOL0     H30718   4.068   0.956  10.435  2.5180  0.2558 -2.6249
  223MOL0     H30719   4.007   1.208  10.274  0.0674  0.3123  0.2981
  223MOL0     H30720   4.075   1.058  10.207 -2.2734  1.3278  0.0892
  223MOL0     H30721   4.240   1.243  10.234 -0.3876 -2.5757 -2.4959
  223MOL0     H30722   4.194   1.235  10.416 -0.0911  0.1594 -0.2069
  223MOL0     H30723   4.377   1.067  10.532 -1.9327  2.8913 -1.8547
  223MOL0     H30724   4.542   0.727  10.433 -2.8043 -2.4189  3.4570
  223MOL0     H30725   4.498   0.825  10.570 -3.0274 -1.6027 -1.5071
  223MOL0     H30726   4.657   1.012  10.505  0.5970 -0.1045  0.6328
  223MOL0     H30727   4.733   0.860  10.525  1.4664 -0.0745 -2.3663
  223MOL0     H30728   4.725   0.815  10.300  0.5194  0.6484 -1.5046
  223MOL0     H30729   4.687   0.984  10.262 -2.8607 -0.6463 -0.3410
  223MOL0     H30730   4.927   0.978  10.239  0.3819 -0.7919  0.4263
  223MOL0     H30731   4.908   1.051  10.402 -0.6993  0.8534  0.2073
  223MOL0     H30732   5.126   1.012  10.253  0.3305  0.0169 -1.9978
  223MOL0     H30733   5.459   1.023  10.208  0.6369 -2.5531  1.8115
  223MOL0     H30734   5.302   1.057  10.116 -0.7581  0.3236  0.6234
  223MOL0     H30735   5.413   0.944  10.058 -1.0287  2.0291 -1.0834
  223MOL0     H30736   5.753   0.611  10.198  1.0202 -0.6196  1.3252
  223MOL0     H30737   5.996   0.603  10.220  0.5569  0.5545 -1.5768
  223MOL0     H30738   6.229   0.957  10.195 -3.2456  4.5028  1.7701
  223MOL0     H30739   6.200   0.984  10.370  2.3546  0.4616  0.8965
  223MOL0     H30740   6.374   0.826  10.426 -0.6606 -2.9106 -1.6265
  223MOL0     H30741   6.391   0.794  10.255 -1.4060  0.0704  1.7507
  223MOL0     H30742   6.476   1.052  10.396  2.2978  1.3346 -0.9781
  223MOL0     H30743   6.467   1.028  10.220 -2.8541  0.7448  1.7883
  223MOL0     H30744   6.642   0.889  10.209 -0.5639  2.5174 -1.5317
  223MOL0     H30745   6.624   0.819  10.370 -0.7229  0.2889  0.0022
  223MOL0     H30746   6.713   1.109  10.318  0.1946  0.6744 -0.8102
  223MOL0     H30747   6.705   1.030  10.473  1.0534 -0.3193  1.2712
  223MOL0     H30748   6.867   0.971  10.217 -4.5033  1.2453 -0.8958
  223MOL0     H30749   6.860   0.846  10.352  3.0762  0.0591 -1.7006
  223MOL0     H30750   6.947   0.991  10.514 -1.3259 -1.1166 -1.9980
  223MOL0     H30751   6.956   1.125  10.410 -2.9683 -0.1875 -0.5832
  223MOL0     H30752   7.125   1.009  10.256  2.5981 -1.4669 -0.4145
  223MOL0     H30753   7.127   0.870  10.364 -2.3436 -0.7761 -0.5278
  223MOL0     H30754   6.000   1.011  10.348  1.9689 -0.9072 -0.2515
  223MOL0     H30755   5.757   1.026  10.297  0.7792  0.8874  1.0052
  223MOL0     H30756   5.339   0.595  10.415 -0.0740  0.0437  0.1019
  223MOL0     H30757   5.104   0.650  10.465 -0.8218  0.1496 -2.6959
  223MOL0     H30758   3.191   0.736  10.806  0.1927 -1.4648 -1.5797
  223MOL0     H30759   2.966   0.712  10.740  3.0340 -3.2560 -2.2351
  223MOL0     H30760   2.630   0.952  10.553  0.7697  0.9445 -2.7972
  223MOL0     H30761   2.413   0.986  10.447  2.5126  0.5939 -3.2635
  223MOL0     H30762   2.174   0.809  10.497  0.5742  0.0195 -1.3399
  223MOL0     H30763   2.180   0.969  10.428 -1.9391  1.0138  0.0979
  223MOL0     H30764   1.960   0.847  10.445 -0.1472  1.1650  0.0471
  223MOL0     H30765   2.024   0.725  10.322 -1.1917  1.3686 -2.2946
  223MOL0     H30766   2.056   0.911  10.167 -0.0300 -1.8052 -0.4514
  223MOL0     H30767   1.901   0.850  10.189  1.3805 -1.9833  0.3354
  223MOL0     H30768   1.891   1.116  10.197 -0.2602 -1.5166 -1.4901
  223MOL0     H30769   1.984   1.114  10.344 -0.2668  0.8002 -2.0506
  223MOL0     H30770   1.609   0.977  10.477  0.3304 -2.3571 -1.8615
  223MOL0     H30771   2.405   0.591  10.303 -1.0449 -0.1340  0.8257
  223MOL0     H30772   2.763   0.532  10.340 -0.1520  0.2034  2.4696
  223MOL0     H30773   2.662   0.467  10.468  1.8361  1.7335  0.3965
  223MOL0     H30774   2.603   0.464  10.297 -1.6194 -0.1691  0.3767
  224MOL0     O30775   6.516   1.408   8.287  0.2257  0.1893 -1.1722
  224MOL0     C30776   6.464   1.486   8.211 -0.2591  0.6348 -0.1169
  224MOL0     O30777   6.533   1.561   8.117 -0.5371  0.2804  0.4786
  224MOL0     C30778   6.662   1.523   8.092 -0.1571 -1.4553 -0.2130
  224MOL0     C30779   6.685   1.422   8.002  0.6637 -0.2485  0.6991
  224MOL0     C30780   6.817   1.390   7.969 -0.6203 -0.3889 -0.0300
  224MOL0     C30781   6.924   1.457   8.020 -0.6095  0.1723 -0.4401
  224MOL0     O30782   7.058   1.441   7.979  0.0047  0.6878 -0.2257
  224MOL0     C30783   7.077   1.456   7.836  0.3816 -0.1875 -0.9348
  224MOL0     C30784   7.221   1.455   7.801 -0.2667 -0.9774  0.7048
  224MOL0     C30785   7.295   1.567   7.872  0.7092  0.3153  0.4290
  224MOL0     C30786   7.431   1.579   7.789 -0.6756 -0.2301 -0.7565
  224MOL0     C30787   7.548   1.638   7.869  0.5388 -0.1152  0.0751
  224MOL0     C30788   7.680   1.630   7.799 -0.6297 -0.2495 -0.1654
  224MOL0     C30789   7.790   1.689   7.893  0.1810 -0.8055  0.3679
  224MOL0     C30790   7.920   1.710   7.818  0.2548 -0.2006  0.9990
  224MOL0     N30791   8.024   1.803   7.881 -0.1804 -0.6020 -0.0397
  224MOL0     C30792   8.021   1.867   7.996  1.3510 -0.4360  0.6052
  224MOL0     C30793   8.138   1.934   8.007  0.2529 -0.0662 -0.1386
  224MOL0     C30794   8.207   1.976   8.128 -0.1331 -0.3392 -1.3690
  224MOL0     C30795   8.356   2.004   8.090 -0.3556 -0.0138  0.2064
  224MOL0     C30796   8.410   2.110   8.190 -0.0274 -0.0667 -0.2761
  224MOL0     C30797   8.561   2.109   8.175 -0.3622 -0.3819  0.0241
  224MOL0     O30798   8.617   1.989   8.232 -0.5160 -0.4495  0.5969
  224MOL0     C30799   8.756   1.979   8.221 -0.3233  0.4625 -0.1464
  224MOL0     C30800   8.839   2.063   8.149  0.3696 -0.1841 -0.8052
  224MOL0     C30801   8.977   2.053   8.143 -0.1318  0.0730 -0.2551
  224MOL0     C30802   9.046   2.163   8.065  0.1119 -0.4336 -0.1819
  224MOL0     C30803   9.037   1.939   8.212 -0.6517 -0.2463  0.3940
  224MOL0     C30804   9.183   1.926   8.225  0.5525 -1.1424 -0.1938
  224MOL0     O30805   9.219   1.804   8.262 -0.3500  0.0571 -1.3054
  224MOL0     C30806   9.348   1.787   8.294 -0.0830  0.4243 -0.2675
  224MOL0     C30807   9.447   1.751   8.198  0.4586  0.1250 -1.0646
  224MOL0     C30808   9.580   1.735   8.242 -0.0589 -0.0391 -0.0072
  224MOL0     C30809   9.619   1.726   8.378  0.5189  0.4658  0.7398
  224MOL0     O30810   9.746   1.687   8.407  0.8857 -0.5313  0.1360
  224MOL0     C30811   9.793   1.759   8.513 -0.3281 -0.1834 -0.3800
  224MOL0     C30812   9.949   1.735   8.506 -0.2668 -0.9514 -0.1034
  224MOL0     C30813  10.034   1.860   8.548 -0.2636  0.0875  0.2881
  224MOL0     C30814  10.010   1.900   8.688 -0.9222  0.0880  0.0044
  224MOL0     C30815  10.124   1.995   8.726 -0.7233 -0.7707  0.0582
  224MOL0     C30816  10.112   2.071   8.861 -0.7405  0.3787  0.4410
  224MOL0     C30817   9.997   2.167   8.838 -0.1701 -0.1409  0.1202
  224MOL0     C30818   9.991   2.242   8.965 -0.6668  0.1390 -0.3251
  224MOL0    Cl30819   9.983   2.166   9.122  0.3398  0.0520 -0.0336
  224MOL0     C30820   9.518   1.759   8.469 -0.1925  0.5365 -0.1790
  224MOL0     C30821   9.383   1.787   8.427 -0.1119 -0.7520 -1.7603
  224MOL0     O30822   9.257   2.026   8.191 -0.0853  0.2962  0.2151
  224MOL0     C30823   8.955   1.833   8.270 -0.1891 -1.0561  0.2116
  224MOL0     C30824   8.817   1.864   8.282  0.2379  0.8054 -0.8425
  224MOL0     N30825   8.198   1.925   7.878  0.0887 -0.5781 -1.9160
  224MOL0     N30826   8.128   1.850   7.807  0.5257 -0.3673 -0.5961
  224MOL0     C30827   6.901   1.541   8.130 -0.3273 -0.4534 -0.1303
  224MOL0     C30828   6.766   1.579   8.163  0.2142  0.3453 -0.2946
  224MOL0     C30829   6.323   1.514   8.214  0.2623  0.3174  0.0668
  224MOL0     C30830   6.267   1.614   8.130  0.0937 -0.3452  0.1861
  224MOL0     C30831   6.133   1.638   8.112 -0.9669  0.8259 -0.7741
  224MOL0     C30832   6.045   1.559   8.185  0.6495 -0.5323 -0.0452
  224MOL0     O30833   5.910   1.564   8.169 -0.3986 -0.0654 -0.2153
  224MOL0     C30834   5.848   1.631   8.066 -0.4521  0.5109  0.9295
  224MOL0     C30835   5.716   1.568   8.045  0.6539  0.1981 -0.1798
  224MOL0     C30836   5.624   1.631   7.936 -0.5676  0.2264  0.2319
  224MOL0     C30837   5.492   1.551   7.921 -0.5863  0.9145 -0.0786
  224MOL0     C30838   5.392   1.571   8.027  0.1338  0.1059 -0.3383
  224MOL0     C30839   5.326   1.575   8.128  0.0640  0.6369 -0.9120
  224MOL0     C30840   6.088   1.468   8.281  0.0239  0.2210  0.8512
  224MOL0     C30841   6.225   1.436   8.288  0.0666 -0.3006  0.2818
  224MOL0     C30842   6.262   1.329   8.391 -0.0225 -0.0768 -0.0119
  224MOL0     H30843   6.604   1.373   7.949  1.2981 -1.1585  0.5410
  224MOL0     H30844   6.812   1.313   7.892 -0.2687 -4.5983  3.7095
  224MOL0     H30845   7.015   1.532   7.786 -1.4697 -0.4738  0.7949
  224MOL0     H30846   7.042   1.364   7.789 -0.7997  0.7734 -2.0374
  224MOL0     H30847   7.260   1.360   7.837 -0.8369 -2.4681 -2.3222
  224MOL0     H30848   7.236   1.463   7.693 -3.1951 -1.0732  0.1969
  224MOL0     H30849   7.226   1.651   7.872 -1.2882 -1.1821  2.5965
  224MOL0     H30850   7.313   1.546   7.978 -1.1003  1.0376  0.9116
  224MOL0     H30851   7.450   1.482   7.743 -2.4977 -0.9639 -0.0876
  224MOL0     H30852   7.399   1.648   7.710 -1.3630 -0.2745 -0.5276
  224MOL0     H30853   7.545   1.577   7.960 -1.9939 -2.4354 -1.3930
  224MOL0     H30854   7.538   1.745   7.889  2.4811  0.6853 -2.7335
  224MOL0     H30855   7.696   1.524   7.778 -3.4142 -0.2249 -3.3538
  224MOL0     H30856   7.675   1.680   7.702  0.5914 -0.9075 -0.5832
  224MOL0     H30857   7.814   1.625   7.978  1.2619 -0.6702  0.1849
  224MOL0     H30858   7.750   1.784   7.929 -0.7705 -1.1403  0.2181
  224MOL0     H30859   7.967   1.615   7.793  1.4684  0.4198  0.8507
  224MOL0     H30860   7.897   1.762   7.725  2.0771  1.9124  1.6547
  224MOL0     H30861   7.949   1.839   8.073  0.3632 -1.7874 -0.7295
  224MOL0     H30862   8.216   1.897   8.203  1.3722  0.7591 -0.3414
  224MOL0     H30863   8.155   2.066   8.162  0.0098  0.7600 -3.7934
  224MOL0     H30864   8.412   1.910   8.086  1.4180  0.9958  0.2515
  224MOL0     H30865   8.364   2.051   7.992 -0.0232  1.3483  0.8669
  224MOL0     H30866   8.383   2.215   8.175  3.9644  1.4705  1.7561
  224MOL0     H30867   8.393   2.079   8.294  0.7169 -3.0701 -0.9641
  224MOL0     H30868   8.596   2.120   8.072  0.0026 -1.6439 -0.0108
  224MOL0     H30869   8.598   2.197   8.228  0.5554 -1.1875  0.7603
  224MOL0     H30870   8.801   2.149   8.094  1.5210 -0.5096 -2.1781
  224MOL0     H30871   9.129   2.123   8.006  0.9396 -1.6147  1.6728
  224MOL0     H30872   9.101   2.232   8.130 -1.7307 -0.9129  2.0169
  224MOL0     H30873   8.969   2.219   8.012 -0.8612 -2.2264 -0.7679
  224MOL0     H30874   9.401   1.739   8.100  1.2183 -0.0956 -1.4011
  224MOL0     H30875   9.657   1.709   8.170 -0.7019 -1.1479 -0.3165
  224MOL0     H30876   9.771   1.867   8.513  0.8709  0.1774  2.6244
  224MOL0     H30877   9.758   1.718   8.608 -1.2666  1.0101 -0.1875
  224MOL0     H30878   9.981   1.640   8.550 -2.0279 -0.1021  3.3993
  224MOL0     H30879   9.972   1.722   8.400  4.3105 -1.0824  0.7163
  224MOL0     H30880  10.008   1.941   8.479 -2.4946 -1.5301 -0.9157
  224MOL0     H30881  10.138   1.835   8.527  0.3556  2.0581  0.8239
  224MOL0     H30882  10.000   1.820   8.763  1.3487  0.2865  0.5769
  224MOL0     H30883   9.915   1.954   8.692  0.2212  2.1794  0.2147
  224MOL0     H30884  10.209   1.927   8.719 -0.4282 -0.5820  1.4962
  224MOL0     H30885  10.130   2.071   8.647 -0.7495  1.7859  2.3643
  224MOL0     H30886  10.197   2.131   8.895  0.1387  0.6782 -2.0418
  224MOL0     H30887  10.089   1.998   8.939 -2.0439 -0.5231 -0.7401
  224MOL0     H30888   9.902   2.120   8.810  0.6397 -1.5861 -0.3193
  224MOL0     H30889  10.020   2.232   8.752  1.0550  0.0055  0.5439
  224MOL0     H30890   9.911   2.316   8.959  0.9481  2.0108  0.1036
  224MOL0     H30891  10.084   2.300   8.970 -1.0569  0.6600  2.0393
  224MOL0     H30892   9.531   1.758   8.577  1.7087  0.4138 -0.3774
  224MOL0     H30893   9.301   1.816   8.491  0.6797 -1.1221 -0.5339
  224MOL0     H30894   8.990   1.743   8.320  0.1041 -1.3154 -0.4515
  224MOL0     H30895   8.750   1.792   8.328  1.7739 -0.8268 -1.0590
  224MOL0     H30896   6.987   1.585   8.181  1.4497  0.0093 -3.2469
  224MOL0     H30897   6.745   1.656   8.237 -2.1994 -0.7858  0.2921
  224MOL0     H30898   6.324   1.689   8.075 -0.0047 -0.4814 -0.1032
  224MOL0     H30899   6.095   1.708   8.038  1.1546  2.2112 -0.6380
  224MOL0     H30900   5.827   1.736   8.092 -1.3890  1.3558 -2.6578
  224MOL0     H30901   5.899   1.613   7.972 -1.7920 -1.2411  0.4760
  224MOL0     H30902   5.662   1.573   8.140  1.7411 -2.2643  0.6547
  224MOL0     H30903   5.734   1.463   8.018 -0.5120 -0.2739  0.7600
  224MOL0     H30904   5.593   1.735   7.949  0.0922  0.3071  1.3478
  224MOL0     H30905   5.687   1.637   7.848  1.5289  3.9137  1.7682
  224MOL0     H30906   5.511   1.443   7.921  2.1628  1.2383  3.1183
  224MOL0     H30907   5.458   1.565   7.818  0.2703 -1.9606 -0.8646
  224MOL0     H30908   5.266   1.587   8.216  1.8373  0.2333  0.4134
  224MOL0     H30909   6.019   1.407   8.339 -0.1800  0.4623  0.8610
  224MOL0     H30910   6.278   1.228   8.352 -0.3340  0.1401 -0.7106
  224MOL0     H30911   6.350   1.350   8.452 -0.4227 -2.5182  1.5534
  224MOL0     H30912   6.169   1.313   8.447 -0.9835  1.6695 -1.0249
  225MOL0     O30913   2.392   1.214  10.043 -0.0486  0.2270 -0.3178
  225MOL0     C30914   2.429   1.167   9.936 -0.0278  0.8195 -0.1148
  225MOL0     O30915   2.513   1.233   9.844 -0.3891  0.3900  0.7602
  225MOL0     C30916   2.531   1.367   9.855  0.2244 -0.3214  0.6347
  225MOL0     C30917   2.433   1.461   9.906  0.3527  0.0594  0.5921
  225MOL0     C30918   2.458   1.599   9.923 -0.3283  0.1850 -0.1460
  225MOL0     C30919   2.573   1.648   9.871 -0.2628  0.5282 -0.3104
  225MOL0     O30920   2.586   1.784   9.864 -0.0807 -0.1424  0.6225
  225MOL0     C30921   2.560   1.851   9.734 -1.3048 -0.1214 -0.5722
  225MOL0     C30922   2.544   1.994   9.776 -0.2930  0.0915  0.0769
  225MOL0     C30923   2.500   2.083   9.654 -0.1343 -0.2572  0.4554
  225MOL0     C30924   2.566   2.219   9.628 -0.0833 -0.4802 -0.0952
  225MOL0     C30925   2.714   2.192   9.589 -0.9593 -0.4574 -0.1541
  225MOL0     C30926   2.807   2.307   9.625 -0.9830  0.2094 -0.2101
  225MOL0     C30927   2.942   2.272   9.548 -0.1163  0.4232 -0.3957
  225MOL0     C30928   2.951   2.312   9.404  1.1540 -0.1210 -0.2237
  225MOL0     N30929   3.091   2.298   9.360 -1.0220  0.1640  0.2403
  225MOL0     C30930   3.198   2.372   9.405  0.6868  0.2752  0.1249
  225MOL0     C30931   3.302   2.347   9.321 -0.6266  0.2248 -1.2903
  225MOL0     C30932   3.437   2.408   9.366  0.1940  0.3804 -0.4470
  225MOL0     C30933   3.564   2.334   9.317 -0.2236  0.2451  0.8125
  225MOL0     C30934   3.589   2.213   9.404 -0.4439  0.1183  0.4463
  225MOL0     C30935   3.735   2.179   9.406  0.0573 -0.0085 -0.5006
  225MOL0     O30936   3.796   2.264   9.511 -0.1483  0.4861  0.2952
  225MOL0     C30937   3.933   2.276   9.509 -0.0919  0.2989 -0.3700
  225MOL0     C30938   3.993   2.390   9.565  0.4650 -0.3412 -1.6073
  225MOL0     C30939   4.128   2.412   9.587 -0.3644  1.2671  0.9269
  225MOL0     C30940   4.175   2.544   9.651  0.5010  0.5071 -0.0918
  225MOL0     C30941   4.212   2.308   9.542 -0.8991 -0.6873  0.5857
  225MOL0     C30942   4.364   2.307   9.554 -0.1986 -0.6111 -1.5377
  225MOL0     O30943   4.430   2.239   9.462  0.2057  0.6607 -1.0155
  225MOL0     C30944   4.557   2.192   9.486  0.0084  0.0565 -0.0372
  225MOL0     C30945   4.663   2.284   9.489  0.1849  0.5851 -0.4405
  225MOL0     C30946   4.797   2.241   9.509 -0.5445 -0.9697  0.0447
  225MOL0     C30947   4.825   2.105   9.534  0.2714  0.3418 -0.2140
  225MOL0     O30948   4.946   2.057   9.551 -0.2619 -0.1826  0.3482
  225MOL0     C30949   5.021   2.129   9.651 -0.9468 -0.3199  0.4387
  225MOL0     C30950   5.117   2.036   9.713  0.6824  0.0964 -0.6195
  225MOL0     C30951   5.201   2.090   9.829 -0.6153  0.2129 -0.8541
  225MOL0     C30952   5.328   2.008   9.840 -0.1384 -0.0546 -0.6114
  225MOL0     C30953   5.367   2.009   9.983 -1.0112 -0.0949  0.2783
  225MOL0     C30954   5.396   2.162  10.044  1.2147 -0.0147  0.1492
  225MOL0     C30955   5.496   2.236   9.956 -0.0804  0.2978  0.1037
  225MOL0     C30956   5.537   2.366  10.022  0.1099  0.7444  0.8187
  225MOL0    Cl30957   5.658   2.411   9.895 -0.2711  0.2469  0.4008
  225MOL0     C30958   4.716   2.013   9.532 -0.4135  0.1990  0.5306
  225MOL0     C30959   4.585   2.054   9.512  0.3665 -0.4429  0.1428
  225MOL0     O30960   4.413   2.354   9.661  0.5002 -0.1812 -0.0507
  225MOL0     C30961   4.160   2.190   9.479 -0.3482  0.1697 -0.4087
  225MOL0     C30962   4.022   2.180   9.454  0.2862  0.0204 -0.6072
  225MOL0     N30963   3.265   2.259   9.217  0.3598  0.2725 -0.0760
  225MOL0     N30964   3.133   2.234   9.240 -0.3390  0.0889 -0.6654
  225MOL0     C30965   2.670   1.565   9.821 -0.5105  0.1934  0.8836
  225MOL0     C30966   2.647   1.426   9.803  0.0154 -0.4781  0.0531
  225MOL0     C30967   2.381   1.030   9.914 -0.0140 -0.1537  0.0501
  225MOL0     C30968   2.387   0.927  10.009 -0.2034  0.3245 -0.0989
  225MOL0     C30969   2.353   0.794   9.975  0.7847 -0.5833 -1.4667
  225MOL0     C30970   2.301   0.766   9.850 -0.2469  0.2818 -0.8132
  225MOL0     O30971   2.277   0.643   9.815  0.9430  0.6306  0.2075
  225MOL0     C30972   2.195   0.609   9.704 -0.5204  0.2865 -0.7371
  225MOL0     C30973   2.285   0.556   9.585  0.5697 -0.8372 -0.1935
  225MOL0     C30974   2.203   0.476   9.477  0.1213 -0.5920  0.0778
  225MOL0     C30975   2.289   0.451   9.351 -0.7310  0.1285  0.7244
  225MOL0     C30976   2.402   0.361   9.384  0.6476 -0.2399 -0.5822
  225MOL0     C30977   2.506   0.308   9.417  0.1488  0.2062  0.5105
  225MOL0     C30978   2.282   0.868   9.754  0.3400  0.5415 -0.6805
  225MOL0     C30979   2.327   0.995   9.788 -0.2818  0.4725 -0.3388
  225MOL0     C30980   2.328   1.088   9.672  0.1941 -0.4760  0.0473
  225MOL0     H30981   2.337   1.429   9.944  0.6002 -2.0109 -0.3970
  225MOL0     H30982   2.381   1.661   9.967  1.7314  0.4541  3.4874
  225MOL0     H30983   2.467   1.826   9.682  0.1936 -0.8021 -3.1389
  225MOL0     H30984   2.645   1.826   9.669  0.6602 -2.8504  2.7001
  225MOL0     H30985   2.470   2.002   9.857 -0.1123  1.2470  0.1463
  225MOL0     H30986   2.643   2.027   9.811  0.9153 -1.9492 -1.2399
  225MOL0     H30987   2.513   2.019   9.566  1.6717 -0.3690  0.7729
  225MOL0     H30988   2.395   2.108   9.669 -0.0455  0.7371 -0.4842
  225MOL0     H30989   2.511   2.268   9.547 -2.1613  0.4970  1.7874
  225MOL0     H30990   2.555   2.288   9.712  1.8063  2.1580 -1.8815
  225MOL0     H30991   2.720   2.171   9.482  0.7366  0.5334 -0.2881
  225MOL0     H30992   2.741   2.104   9.648 -0.2593  1.5205  2.7022
  225MOL0     H30993   2.758   2.402   9.599 -1.5057 -0.0397 -0.1522
  225MOL0     H30994   2.816   2.319   9.733 -0.6224 -4.0586  0.3885
  225MOL0     H30995   2.977   2.169   9.558  1.4644  0.8186 -1.4663
  225MOL0     H30996   3.022   2.327   9.599  1.8843 -2.3791 -0.2723
  225MOL0     H30997   2.888   2.252   9.337  0.0307  1.8150 -0.9791
  225MOL0     H30998   2.919   2.417   9.398  0.7695 -0.0921  1.7991
  225MOL0     H30999   3.202   2.437   9.492  2.7802  0.7221 -0.2515
  225MOL0     H31000   3.432   2.406   9.475 -1.0341 -2.6076 -0.4925
  225MOL0     H31001   3.452   2.513   9.338  1.2228 -0.1535 -2.0294
  225MOL0     H31002   3.551   2.316   9.210  1.7357 -1.6273  0.8208
  225MOL0     H31003   3.651   2.399   9.311  1.7652 -2.0580  2.7695
  225MOL0     H31004   3.539   2.215   9.501 -2.8502 -2.0592 -0.6215
  225MOL0     H31005   3.538   2.131   9.352  0.1248  2.0599 -3.4722
  225MOL0     H31006   3.755   2.078   9.442  3.3284  0.5802 -0.3901
  225MOL0     H31007   3.785   2.194   9.310 -2.2165  1.3871 -1.5814
  225MOL0     H31008   3.931   2.472   9.598  1.1870 -0.6174  0.5765
  225MOL0     H31009   4.195   2.545   9.759  0.4071  1.8705 -0.0774
  225MOL0     H31010   4.106   2.623   9.620  0.0767  0.3292  0.3807
  225MOL0     H31011   4.272   2.573   9.610  0.0897  5.0699  1.5940
  225MOL0     H31012   4.631   2.385   9.466 -0.7346  0.6683  1.0748
  225MOL0     H31013   4.876   2.315   9.506 -2.1586  0.8225 -1.6480
  225MOL0     H31014   5.077   2.200   9.590  0.1694 -2.4025 -1.0946
  225MOL0     H31015   4.956   2.187   9.717 -0.8373  1.4750 -0.9418
  225MOL0     H31016   5.063   1.949   9.751  0.1604  1.9251  3.3683
  225MOL0     H31017   5.183   2.009   9.631  0.3497  0.4990 -1.0271
  225MOL0     H31018   5.141   2.076   9.920  0.1091 -2.3812 -0.6801
  225MOL0     H31019   5.217   2.196   9.812 -2.0433  0.2605 -2.0349
  225MOL0     H31020   5.409   2.042   9.775 -1.0818 -1.4833 -2.6693
  225MOL0     H31021   5.301   1.910   9.800 -0.6247  0.5398 -1.8052
  225MOL0     H31022   5.279   1.967  10.032 -0.9399 -1.1845 -0.4894
  225MOL0     H31023   5.450   1.942  10.005 -0.7076  1.2360  3.8487
  225MOL0     H31024   5.431   2.164  10.148  3.7471  0.0541 -0.6523
  225MOL0     H31025   5.299   2.212  10.055  1.3534  0.3632 -0.3114
  225MOL0     H31026   5.453   2.257   9.857  0.5629 -0.6082 -0.3829
  225MOL0     H31027   5.582   2.170   9.944 -0.5443  0.0969 -3.1202
  225MOL0     H31028   5.580   2.357  10.122  0.6309  1.0788  0.6295
  225MOL0     H31029   5.462   2.445  10.022  0.5156  1.1425  0.1219
  225MOL0     H31030   4.725   1.906   9.552 -3.4077 -0.3183 -0.3743
  225MOL0     H31031   4.494   1.995   9.509 -0.9195  1.5153 -1.4970
  225MOL0     H31032   4.233   2.112   9.460  2.4485  2.5987 -0.3375
  225MOL0     H31033   3.982   2.087   9.415 -0.4930 -0.0979  0.4244
  225MOL0     H31034   2.768   1.602   9.791 -1.5763  3.8042  1.3106
  225MOL0     H31035   2.709   1.352   9.754 -0.9493 -2.2794  1.4413
  225MOL0     H31036   2.433   0.934  10.107 -2.5444 -0.5905  1.1284
  225MOL0     H31037   2.359   0.716  10.051 -1.7026  1.3389  0.8780
  225MOL0     H31038   2.133   0.522   9.730 -2.1776  0.2241 -4.2792
  225MOL0     H31039   2.133   0.684   9.654  0.1557  0.1053 -1.9009
  225MOL0     H31040   2.360   0.487   9.623 -2.3047 -2.9446  2.1682
  225MOL0     H31041   2.325   0.643   9.532  0.5205 -1.8416 -1.9624
  225MOL0     H31042   2.166   0.379   9.510  0.2791 -2.0178 -3.4515
  225MOL0     H31043   2.121   0.538   9.441 -0.7894 -2.1363 -0.5887
  225MOL0     H31044   2.330   0.547   9.318 -0.5721  0.3981  1.6764
  225MOL0     H31045   2.227   0.407   9.272 -0.0387  1.2772 -0.4996
  225MOL0     H31046   2.602   0.276   9.451  0.0718  1.2269  1.7894
  225MOL0     H31047   2.250   0.849   9.652 -0.9853 -0.0497 -0.1789
  225MOL0     H31048   2.267   1.176   9.694 -3.1200 -2.2497 -1.3827
  225MOL0     H31049   2.430   1.118   9.645  0.2528  0.6204  1.4003
  225MOL0     H31050   2.284   1.048   9.581 -0.2547 -0.3038  0.1862
  226MOL0     O31051   7.680   7.114  10.159  0.1121 -0.0107  0.5045
  226MOL0     C31052   7.741   7.040  10.078  0.2746  0.4220 -0.3266
  226MOL0     O31053   7.850   7.079  10.004  0.1753  0.3061  0.2203
  226MOL0     C31054   7.879   7.216   9.993  0.2474  0.4562  0.1363
  226MOL0     C31055   7.805   7.303   9.917 -0.8691  0.6679  0.1414
  226MOL0     C31056   7.850   7.434   9.898  0.3220 -0.1890  0.3238
  226MOL0     C31057   7.965   7.483   9.966 -0.4205  0.0728  0.0585
  226MOL0     O31058   8.008   7.611   9.948  0.5305  0.5710 -0.0226
  226MOL0     C31059   8.035   7.647   9.809  0.7693 -0.5878 -0.4037
  226MOL0     C31060   8.153   7.572   9.737 -0.0292 -0.0508 -0.4332
  226MOL0     C31061   8.274   7.579   9.836  0.8632  0.6089 -0.0413
  226MOL0     C31062   8.411   7.531   9.784 -0.0385 -0.9259  0.3531
  226MOL0     C31063   8.458   7.599   9.658 -0.1651  0.2197 -0.2368
  226MOL0     C31064   8.590   7.530   9.606 -0.1792 -0.3411 -0.2372
  226MOL0     C31065   8.670   7.637   9.545  0.7709 -0.1892  0.9306
  226MOL0     C31066   8.784   7.570   9.471 -0.1122 -0.2585 -0.4712
  226MOL0     N31067   8.868   7.483   9.553  0.8308  0.7817  0.0191
  226MOL0     C31068   8.852   7.344   9.567 -0.0711 -0.0151 -0.0655
  226MOL0     C31069   8.937   7.304   9.665 -0.3950  0.5023 -0.2904
  226MOL0     C31070   8.949   7.160   9.699 -0.0851 -0.1557 -0.0552
  226MOL0     C31071   9.049   7.123   9.803 -1.2083 -0.6149 -0.4652
  226MOL0     C31072   9.113   6.987   9.785  0.4868 -0.0160  0.2174
  226MOL0     C31073   9.179   6.935   9.909  0.0483  0.5478 -0.4196
  226MOL0     O31074   9.293   6.855   9.872  0.0308 -0.4139  0.2655
  226MOL0     C31075   9.404   6.846   9.951 -0.3984 -0.9440 -0.3045
  226MOL0     C31076   9.411   6.830  10.096  1.1475 -0.3407 -0.6268
  226MOL0     C31077   9.542   6.818  10.153  0.9794  0.2993  0.2625
  226MOL0     C31078   9.537   6.827  10.302  0.2952  0.4244  0.2171
  226MOL0     C31079   9.658   6.822  10.075  0.1766 -0.2061  0.0169
  226MOL0     C31080   9.801   6.807  10.125  0.2176  0.1289 -0.1297
  226MOL0     O31081   9.898   6.784  10.031  0.0494 -0.2734 -0.7532
  226MOL0     C31082  10.007   6.712  10.071 -0.6282  0.1069 -0.8711
  226MOL0     C31083  10.122   6.772  10.125 -1.0543 -0.6795 -0.0244
  226MOL0     C31084  10.237   6.706  10.159 -0.1387 -1.0403 -0.6628
  226MOL0     C31085  10.238   6.563  10.148  1.4634 -1.2314  0.5383
  226MOL0     O31086  10.342   6.489  10.201  1.6171 -0.4443  0.3978
  226MOL0     C31087  10.437   6.556  10.284  0.2030  0.4787  0.6340
  226MOL0     C31088  10.521   6.451  10.349 -0.0440 -0.3760  0.5866
  226MOL0     C31089  10.445   6.343  10.434 -0.6902  0.1919 -0.0176
  226MOL0     C31090  10.539   6.263  10.529 -0.7778 -0.1322 -0.6704
  226MOL0     C31091  10.468   6.167  10.624 -0.1168 -0.0030  0.4966
  226MOL0     C31092  10.563   6.097  10.714  0.0330  0.3875  0.2302
  226MOL0     C31093  10.498   6.085  10.856 -0.3691 -0.8727 -0.7285
  226MOL0     C31094  10.515   6.203  10.957  0.9979  0.4267  0.1239
  226MOL0    Cl31095  10.366   6.300  10.977  0.1754  0.2338 -0.1886
  226MOL0     C31096  10.115   6.502  10.107  0.3704 -0.7671 -0.1850
  226MOL0     C31097  10.000   6.579  10.073  0.4481  0.9696  0.5773
  226MOL0     O31098   9.819   6.798  10.247 -0.4240 -0.2364 -0.1998
  226MOL0     C31099   9.650   6.848   9.939  0.0778 -0.0212  0.4054
  226MOL0     C31100   9.527   6.849   9.872 -0.0440  0.0864 -0.4948
  226MOL0     N31101   9.006   7.416   9.713 -0.4163 -0.4562  0.9826
  226MOL0     N31102   8.968   7.517   9.644  0.3223 -0.5132  0.0723
  226MOL0     C31103   8.042   7.385  10.047 -0.1276 -0.0249  0.4128
  226MOL0     C31104   7.996   7.258  10.065 -0.0801  0.2867  0.1283
  226MOL0     C31105   7.692   6.907  10.035  0.0160 -0.8095  0.5649
  226MOL0     C31106   7.793   6.815  10.000 -0.4811 -0.5997 -0.2863
  226MOL0     C31107   7.761   6.691   9.942 -0.3551 -0.7147 -0.9560
  226MOL0     C31108   7.630   6.640   9.946  1.0404 -0.5911 -0.4792
  226MOL0     O31109   7.609   6.510   9.895 -0.0434 -0.5765  0.2403
  226MOL0     C31110   7.467   6.456   9.884 -0.3754 -0.6221 -0.1607
  226MOL0     C31111   7.433   6.398  10.017  0.2534 -0.0301  0.2605
  226MOL0     C31112   7.285   6.381  10.054 -0.8882  1.2933 -0.9442
  226MOL0     C31113   7.264   6.376  10.210  0.1687  0.2376 -0.7487
  226MOL0     C31114   7.269   6.512  10.273 -0.3364  1.1126  0.0341
  226MOL0     C31115   7.281   6.626  10.313 -0.2375 -0.5684  0.5995
  226MOL0     C31116   7.528   6.732   9.987  0.7348 -0.2217 -0.8111
  226MOL0     C31117   7.556   6.859  10.038  0.4652  0.1362 -0.3029
  226MOL0     C31118   7.439   6.940  10.081  0.5869 -0.2026 -0.1187
  226MOL0     H31119   7.706   7.264   9.893 -0.6023  0.9072 -1.5063
  226MOL0     H31120   7.792   7.497   9.831  0.8584  0.8947  0.8639
  226MOL0     H31121   8.064   7.752   9.810 -1.2967  0.0475 -1.5178
  226MOL0     H31122   7.941   7.640   9.752  0.8238  0.6940 -0.6869
  226MOL0     H31123   8.128   7.471   9.704  1.3227 -0.1977 -1.0819
  226MOL0     H31124   8.161   7.633   9.646 -1.5849 -1.2212 -1.4111
  226MOL0     H31125   8.301   7.674   9.884  3.7230 -1.1426  2.1649
  226MOL0     H31126   8.244   7.522   9.924  1.2522  1.5795  0.7433
  226MOL0     H31127   8.488   7.550   9.860 -1.1296  0.2529  1.2053
  226MOL0     H31128   8.409   7.422   9.779 -0.7718 -1.0259  2.0730
  226MOL0     H31129   8.476   7.704   9.683  1.3493 -0.3506  1.2561
  226MOL0     H31130   8.385   7.591   9.577 -2.2724  0.9708  1.4922
  226MOL0     H31131   8.644   7.471   9.680  0.1149 -4.8504 -3.6138
  226MOL0     H31132   8.574   7.456   9.527 -1.6517 -2.2714  1.7517
  226MOL0     H31133   8.715   7.696   9.625  0.0283  3.4534 -1.1171
  226MOL0     H31134   8.609   7.699   9.478  1.1156  1.2818  1.9320
  226MOL0     H31135   8.756   7.516   9.380  0.6525  1.6252 -1.9081
  226MOL0     H31136   8.849   7.654   9.441  0.4377  0.8643  3.3343
  226MOL0     H31137   8.792   7.291   9.493  1.6380 -3.6271  0.8938
  226MOL0     H31138   8.984   7.104   9.611  2.0179 -0.1428  0.7271
  226MOL0     H31139   8.849   7.133   9.736 -0.0082  2.2947  2.1752
  226MOL0     H31140   9.132   7.193   9.811  0.4621 -2.6009  0.4866
  226MOL0     H31141   9.012   7.126   9.906  1.6882  1.2558  0.6401
  226MOL0     H31142   9.032   6.919   9.758 -1.0505  1.8858 -0.1449
  226MOL0     H31143   9.179   6.988   9.697 -0.9434  2.2429 -0.9204
  226MOL0     H31144   9.217   7.012   9.977  1.5011 -0.7554  0.3122
  226MOL0     H31145   9.109   6.884   9.975  0.2118 -0.5057 -1.0356
  226MOL0     H31146   9.323   6.820  10.159  1.7418  0.5517  0.3841
  226MOL0     H31147   9.565   6.931  10.325 -0.9066  1.0870 -1.1647
  226MOL0     H31148   9.605   6.755  10.348 -1.5054 -1.2277  0.4361
  226MOL0     H31149   9.443   6.804  10.352  0.4797  1.1326  0.9074
  226MOL0     H31150  10.131   6.880  10.124  5.7001 -0.8242  0.4394
  226MOL0     H31151  10.333   6.753  10.176 -0.2670 -0.3273 -1.8755
  226MOL0     H31152  10.501   6.629  10.234  1.1898  0.0062  1.1819
  226MOL0     H31153  10.381   6.611  10.361  0.1014  1.2631  0.0107
  226MOL0     H31154  10.574   6.395  10.272 -0.9057  3.1384 -2.8876
  226MOL0     H31155  10.592   6.499  10.418 -1.2842  0.8264  1.0783
  226MOL0     H31156  10.402   6.268  10.366 -0.6603 -1.3108  1.5314
  226MOL0     H31157  10.365   6.402  10.480 -1.7936  0.1339 -1.7579
  226MOL0     H31158  10.603   6.337  10.579 -0.0456  0.8932 -3.0252
  226MOL0     H31159  10.612   6.208  10.470  0.0468  0.3683 -0.1386
  226MOL0     H31160  10.399   6.224  10.687 -1.5828 -0.9970 -0.1348
  226MOL0     H31161  10.408   6.093  10.570  0.4681  1.0193 -1.6351
  226MOL0     H31162  10.661   6.146  10.718  0.5427 -0.5257 -0.4707
  226MOL0     H31163  10.572   5.996  10.673  0.5143  0.6434 -0.3049
  226MOL0     H31164  10.533   5.995  10.907  1.8018  0.0753 -0.4223
  226MOL0     H31165  10.392   6.059  10.848 -1.9775  4.3027 -0.0248
  226MOL0     H31166  10.603   6.265  10.934 -0.9809  2.5664 -2.4759
  226MOL0     H31167  10.524   6.158  11.056 -1.2620 -1.0637 -0.2638
  226MOL0     H31168  10.102   6.395  10.119 -1.3954 -0.5092  0.4575
  226MOL0     H31169   9.913   6.518  10.051  1.5594 -2.1272  3.7868
  226MOL0     H31170   9.733   6.849   9.869  0.5931 -3.3996  0.8050
  226MOL0     H31171   9.506   6.870   9.767 -0.7221 -0.0684 -0.3925
  226MOL0     H31172   8.135   7.424  10.086  0.0790  1.0183 -1.0307
  226MOL0     H31173   8.044   7.182  10.126 -0.7213  0.6569  1.1275
  226MOL0     H31174   7.895   6.849   9.995 -0.3599 -0.8612  0.3965
  226MOL0     H31175   7.840   6.636   9.892  1.2480  2.1063 -1.7137
  226MOL0     H31176   7.393   6.529   9.850 -0.1460 -1.2538 -2.1166
  226MOL0     H31177   7.458   6.367   9.823 -1.5441 -2.9179  3.0815
  226MOL0     H31178   7.472   6.467  10.093 -3.1503  2.6367 -0.1668
  226MOL0     H31179   7.495   6.309  10.032 -0.3709 -0.4130  0.6518
  226MOL0     H31180   7.230   6.465  10.009  2.3999  2.6594 -2.7580
  226MOL0     H31181   7.247   6.285  10.017 -0.4416  0.7310  0.0410
  226MOL0     H31182   7.331   6.303  10.256  0.1215  0.8223  0.2644
  226MOL0     H31183   7.160   6.346  10.223 -0.1179  1.6253  0.3419
  226MOL0     H31184   7.308   6.719  10.358  1.6888 -0.2022 -1.1720
  226MOL0     H31185   7.428   6.689   9.983  1.1857 -1.3883  0.0225
  226MOL0     H31186   7.339   6.920  10.043  0.7175 -0.7960 -0.1559
  226MOL0     H31187   7.433   6.939  10.191 -1.1531  0.7477 -0.1709
  226MOL0     H31188   7.475   7.036  10.043  1.9268 -1.2639 -1.6699
  227MOL0     O31189   3.744   9.352  10.883 -0.5096 -1.0898 -0.0996
  227MOL0     C31190   3.676   9.315  10.979 -0.3346 -0.6220  0.6621
  227MOL0     O31191   3.722   9.316  11.113 -0.3364  0.0942  0.5356
  227MOL0     C31192   3.842   9.371  11.158  0.6512 -0.8758  1.0951
  227MOL0     C31193   3.960   9.397  11.092  0.7067 -0.0916 -0.4574
  227MOL0     C31194   4.063   9.461  11.162 -0.6217 -0.1947  0.2697
  227MOL0     C31195   4.061   9.502  11.292  1.1750  0.4367  0.1041
  227MOL0     O31196   4.160   9.576  11.352 -0.3225  0.6904 -0.9156
  227MOL0     C31197   4.202   9.695  11.287  0.1783  0.2796 -0.0339
  227MOL0     C31198   4.332   9.743  11.357 -0.3703 -0.6769 -0.1299
  227MOL0     C31199   4.453   9.651  11.333  0.1333  0.3068  0.1519
  227MOL0     C31200   4.541   9.679  11.455 -0.6158 -0.1506  0.7522
  227MOL0     C31201   4.685   9.631  11.423  0.4699 -0.0146  0.4589
  227MOL0     C31202   4.777   9.667  11.541  0.4579 -0.0311 -0.1104
  227MOL0     C31203   4.929   9.625  11.529  1.1367  0.2232 -0.3015
  227MOL0     C31204   5.007   9.717  11.626  0.0867  0.3445  0.0734
  227MOL0     N31205   5.148   9.725  11.599 -0.3327 -0.8529 -0.7527
  227MOL0     C31206   5.218   9.800  11.507  0.1602  0.9011 -0.5742
  227MOL0     C31207   5.344   9.748  11.508  1.2050 -0.1285 -0.9700
  227MOL0     C31208   5.451   9.779  11.412  1.3364  0.2550 -0.9746
  227MOL0     C31209   5.582   9.822  11.479  0.2531  0.4049 -0.1117
  227MOL0     C31210   5.674   9.703  11.488 -0.2014  0.4609  0.0550
  227MOL0     C31211   5.815   9.731  11.529  0.2104 -0.6091 -0.2098
  227MOL0     O31212   5.826   9.801  11.656  0.0958  0.2407 -0.1476
  227MOL0     C31213   5.958   9.837  11.692  0.5532  0.5162 -0.0340
  227MOL0     C31214   5.982   9.970  11.710 -0.0156 -0.5956 -0.5061
  227MOL0     C31215   6.106  10.025  11.725 -0.7736 -0.5346  0.4098
  227MOL0     C31216   6.129  10.176  11.732 -0.7580 -0.5328  0.1237
  227MOL0     C31217   6.219   9.940  11.737 -0.1683 -0.2762  0.4878
  227MOL0     C31218   6.359   9.992  11.752  0.1555  0.1879 -0.2239
  227MOL0     O31219   6.435   9.937  11.847 -0.9231 -0.2334  0.0321
  227MOL0     C31220   6.568   9.975  11.854  0.1507  0.2542 -0.3412
  227MOL0     C31221   6.606  10.106  11.893 -0.4887  0.5089  0.2078
  227MOL0     C31222   6.732  10.150  11.881  0.1876  0.0820  0.3002
  227MOL0     C31223   6.834  10.057  11.843  0.4023 -0.0182  0.8271
  227MOL0     O31224   6.974  10.073  11.839  0.7068 -0.1858 -0.9457
  227MOL0     C31225   7.033  10.195  11.876 -0.4918 -1.1419 -0.5366
  227MOL0     C31226   7.179  10.182  11.868 -1.3393  0.4246  0.7532
  227MOL0     C31227   7.220  10.180  11.721 -0.6010 -0.3103 -0.4472
  227MOL0     C31228   7.345  10.099  11.687  0.0476 -0.2729  0.6786
  227MOL0     C31229   7.469  10.170  11.745 -0.6351  0.7805 -0.9011
  227MOL0     C31230   7.601  10.177  11.656 -0.6156  0.4899  0.1263
  227MOL0     C31231   7.582  10.239  11.520 -0.3996 -0.3570  0.1622
  227MOL0     C31232   7.697  10.228  11.426  0.2952 -0.4292  1.3361
  227MOL0    Cl31233   7.844  10.277  11.503  0.2536 -0.2548 -0.1659
  227MOL0     C31234   6.797   9.927  11.814 -0.6290 -0.7393  0.2242
  227MOL0     C31235   6.665   9.889  11.821  0.5936  0.9474 -0.4574
  227MOL0     O31236   6.395  10.059  11.659  0.0377 -0.2958 -0.6052
  227MOL0     C31237   6.202   9.798  11.722  0.3044 -0.2607 -0.1618
  227MOL0     C31238   6.073   9.749  11.694  0.2209 -0.1150  0.5796
  227MOL0     N31239   5.350   9.646  11.599 -0.7394  0.6629  0.1041
  227MOL0     N31240   5.233   9.632  11.646 -0.0793  0.2388 -1.0908
  227MOL0     C31241   3.942   9.458  11.357 -0.0144 -0.5484 -0.2780
  227MOL0     C31242   3.842   9.401  11.292  0.3074 -0.0422  0.5185
  227MOL0     C31243   3.544   9.248  10.949 -0.2748  0.1348 -0.2211
  227MOL0     C31244   3.459   9.220  11.058 -0.3659  0.0674  0.3172
  227MOL0     C31245   3.336   9.169  11.038 -0.3604  0.7756  0.1215
  227MOL0     C31246   3.291   9.136  10.918 -0.0298 -0.9701  0.2003
  227MOL0     O31247   3.172   9.083  10.882 -0.0002 -0.6033  0.9784
  227MOL0     C31248   3.059   9.150  10.920 -0.5110 -0.7639  1.1942
  227MOL0     C31249   3.045   9.284  10.847  0.3778  0.4451 -0.3279
  227MOL0     C31250   3.041   9.270  10.691 -0.2909 -0.6931  0.4199
  227MOL0     C31251   2.938   9.168  10.637 -0.4533 -0.0691 -0.9744
  227MOL0     C31252   2.797   9.212  10.630  0.3318  0.0552  0.7178
  227MOL0     C31253   2.682   9.246  10.608  0.7391 -1.0459  0.1674
  227MOL0     C31254   3.374   9.148  10.811 -0.3492 -0.5058  0.3353
  227MOL0     C31255   3.495   9.208  10.821 -0.9871  0.8093 -0.2933
  227MOL0     C31256   3.567   9.236  10.692 -0.1118 -0.5724  0.1004
  227MOL0     H31257   3.984   9.362  10.992 -1.6474  1.8721 -1.8095
  227MOL0     H31258   4.157   9.480  11.111 -2.4589  2.5937 -2.3673
  227MOL0     H31259   4.125   9.773  11.285 -0.0717  0.0581 -2.5218
  227MOL0     H31260   4.230   9.676  11.183  1.9618  1.6121  0.1596
  227MOL0     H31261   4.351   9.845  11.321 -1.2144 -1.3780 -2.8209
  227MOL0     H31262   4.316   9.748  11.465 -0.7310  2.5821 -0.2212
  227MOL0     H31263   4.429   9.545  11.329  1.7090 -0.0754  0.3561
  227MOL0     H31264   4.489   9.692  11.238 -0.0778 -1.6208 -0.7973
  227MOL0     H31265   4.546   9.788  11.463  1.0359 -0.2621  1.9930
  227MOL0     H31266   4.511   9.643  11.554  2.5466 -1.3543  1.4130
  227MOL0     H31267   4.724   9.679  11.333  0.9264 -2.1131 -0.5250
  227MOL0     H31268   4.678   9.523  11.403  1.1171 -0.2312  1.3347
  227MOL0     H31269   4.762   9.775  11.548 -0.0820 -0.0547 -0.7294
  227MOL0     H31270   4.739   9.626  11.635  0.6890  0.2520  0.1055
  227MOL0     H31271   4.966   9.656  11.431 -1.0067  2.0334 -0.6116
  227MOL0     H31272   4.941   9.516  11.535 -0.8060 -0.0552 -0.6290
  227MOL0     H31273   4.972   9.819  11.605  0.4126  0.5660  0.5964
  227MOL0     H31274   4.966   9.691  11.724  0.0549 -0.5443 -0.1720
  227MOL0     H31275   5.173   9.874  11.443 -0.7526  0.5650 -0.3354
  227MOL0     H31276   5.418   9.863  11.350  2.4320 -0.0848 -2.0487
  227MOL0     H31277   5.460   9.688  11.352  1.6641  0.9476 -2.0029
  227MOL0     H31278   5.630   9.902  11.422 -1.5974  1.4101 -0.3630
  227MOL0     H31279   5.563   9.852  11.582  0.3985  2.4348 -0.6390
  227MOL0     H31280   5.627   9.632  11.557  0.7459 -0.9435 -0.7028
  227MOL0     H31281   5.681   9.658  11.389 -1.0763 -1.0004  0.6194
  227MOL0     H31282   5.869   9.637  11.516  2.6328  0.8486 -1.4310
  227MOL0     H31283   5.844   9.790  11.441  3.6006 -0.7608  0.6591
  227MOL0     H31284   5.904  10.044  11.693 -0.2814 -0.3156  1.6405
  227MOL0     H31285   6.033  10.226  11.715 -0.7683  0.1120  1.8281
  227MOL0     H31286   6.203  10.217  11.663 -0.0801  3.8081  2.9826
  227MOL0     H31287   6.166  10.214  11.828  0.2779 -0.6625 -0.2130
  227MOL0     H31288   6.528  10.169  11.934 -1.5058 -2.2380  2.8813
  227MOL0     H31289   6.761  10.252  11.908 -2.0833  0.9249 -0.2194
  227MOL0     H31290   6.986  10.286  11.839 -1.1525 -2.2100 -2.4711
  227MOL0     H31291   7.013  10.192  11.984  2.3808 -2.1655  0.0615
  227MOL0     H31292   7.239  10.259  11.915  1.4675  0.6360 -2.7499
  227MOL0     H31293   7.213  10.090  11.916  1.2232  0.4636 -0.8202
  227MOL0     H31294   7.235  10.281  11.682 -1.2050 -1.1362 -2.9851
  227MOL0     H31295   7.142  10.128  11.665 -0.0536 -2.0193  0.3119
  227MOL0     H31296   7.346  10.095  11.577  1.2515 -2.6740  0.7010
  227MOL0     H31297   7.350   9.996  11.724 -1.0402 -0.0689  1.4215
  227MOL0     H31298   7.440  10.272  11.770  1.6962  1.1225  0.7519
  227MOL0     H31299   7.496  10.129  11.843  2.1968  1.3545 -1.3490
  227MOL0     H31300   7.640  10.075  11.645  0.4999  0.8179  0.8915
  227MOL0     H31301   7.683  10.231  11.704  2.7151 -2.6007 -1.5828
  227MOL0     H31302   7.545  10.339  11.543 -1.4250 -0.7663  0.3619
  227MOL0     H31303   7.499  10.194  11.465 -1.0788 -1.3218  1.9061
  227MOL0     H31304   7.681  10.279  11.331 -1.2994 -1.6080  0.9502
  227MOL0     H31305   7.712  10.123  11.399  0.5017 -0.4189  1.4052
  227MOL0     H31306   6.878   9.856  11.806  1.9393  2.0441 -0.2850
  227MOL0     H31307   6.637   9.786  11.801 -1.8053  1.2622  0.9415
  227MOL0     H31308   6.281   9.723  11.724 -1.1868 -1.8971  1.2889
  227MOL0     H31309   6.058   9.645  11.670 -3.0300  0.0479  1.4365
  227MOL0     H31310   3.930   9.471  11.464  0.0426  1.5274 -0.4779
  227MOL0     H31311   3.757   9.359  11.344 -1.2301 -0.6380 -2.3011
  227MOL0     H31312   3.484   9.263  11.154 -2.6703  2.0407  0.1616
  227MOL0     H31313   3.280   9.147  11.128  1.3523  0.7244  1.2201
  227MOL0     H31314   2.966   9.093  10.908 -0.9584 -0.1693  1.7528
  227MOL0     H31315   3.063   9.162  11.029  2.2726 -2.9574  1.4166
  227MOL0     H31316   3.123   9.356  10.873  2.2673 -0.5293 -2.9016
  227MOL0     H31317   2.951   9.332  10.877  0.1117 -0.5544  0.4926
  227MOL0     H31318   3.041   9.371  10.649  2.1675 -0.4675  0.8449
  227MOL0     H31319   3.141   9.229  10.674  0.0788  1.1744 -2.7425
  227MOL0     H31320   2.951   9.076  10.693 -1.2429  0.0834 -0.5348
  227MOL0     H31321   2.972   9.140  10.537 -0.7414 -2.9521 -0.3335
  227MOL0     H31322   2.582   9.275  10.582  1.0225  0.3489  0.5235
  227MOL0     H31323   3.325   9.122  10.718 -1.7192 -1.0015  1.1577
  227MOL0     H31324   3.658   9.178  10.677 -1.3350 -1.8990 -3.2560
  227MOL0     H31325   3.513   9.206  10.601  1.7582 -2.6882 -0.3946
  227MOL0     H31326   3.602   9.338  10.674  4.7641 -1.8574  0.7981
  228MOL0     O31327   8.063   3.687   4.639  0.1558 -0.5742  0.9288
  228MOL0     C31328   8.163   3.661   4.564 -0.1687  0.3354 -0.2887
  228MOL0     O31329   8.156   3.616   4.433  0.2137 -0.5031  1.3899
  228MOL0     C31330   8.054   3.614   4.360  0.9171 -0.1854  1.0730
  228MOL0     C31331   7.936   3.683   4.367  0.1913 -0.2835 -0.3815
  228MOL0     C31332   7.834   3.653   4.275  0.1039 -0.4449  0.4436
  228MOL0     C31333   7.848   3.554   4.179  0.9071  1.0688  0.2500
  228MOL0     O31334   7.747   3.540   4.085  0.6472 -0.3076 -0.6554
  228MOL0     C31335   7.756   3.629   3.977 -0.1995  0.4762 -1.4811
  228MOL0     C31336   7.683   3.555   3.869  0.3310 -0.2168  0.0376
  228MOL0     C31337   7.539   3.542   3.890  0.9507 -0.4155  0.3721
  228MOL0     C31338   7.475   3.486   3.767  0.1436 -0.7229  0.7959
  228MOL0     C31339   7.331   3.433   3.774 -0.1180  0.0060  0.0445
  228MOL0     C31340   7.297   3.365   3.640 -0.1179  0.4463 -0.4113
  228MOL0     C31341   7.144   3.336   3.651  0.3814 -0.3138  0.7160
  228MOL0     C31342   7.095   3.235   3.552 -0.3899 -0.6350 -0.6161
  228MOL0     N31343   7.063   3.299   3.424 -0.3552 -0.5679  0.3461
  228MOL0     C31344   6.936   3.343   3.387  0.4329  0.5490 -0.0627
  228MOL0     C31345   6.951   3.389   3.267  0.0713  0.2866  0.6340
  228MOL0     C31346   6.857   3.459   3.172  0.6446 -0.1204 -0.1030
  228MOL0     C31347   6.888   3.614   3.138  0.1045  0.0427  0.3300
  228MOL0     C31348   6.826   3.667   3.008 -0.6001  0.0680  0.0150
  228MOL0     C31349   6.676   3.660   2.996  0.4886 -0.1172 -0.2079
  228MOL0     O31350   6.626   3.543   2.925 -0.4417 -0.5720  0.1023
  228MOL0     C31351   6.496   3.512   2.916  0.8693 -0.2902  0.2893
  228MOL0     C31352   6.477   3.389   2.863  0.0014  0.3419  0.3088
  228MOL0     C31353   6.356   3.323   2.857  0.5156  0.9016  0.4461
  228MOL0     C31354   6.365   3.176   2.807 -0.3593  0.3331 -0.4555
  228MOL0     C31355   6.241   3.394   2.891  0.2525  0.1355  0.8292
  228MOL0     C31356   6.108   3.326   2.881 -0.8762 -0.4061 -0.0025
  228MOL0     O31357   6.007   3.386   2.824  0.6022 -0.0196  0.0173
  228MOL0     C31358   5.878   3.343   2.847  0.0896 -0.4769  1.1069
  228MOL0     C31359   5.802   3.284   2.731 -0.5193 -1.1187 -0.8611
  228MOL0     C31360   5.674   3.241   2.754  0.9411  0.0685  0.6567
  228MOL0     C31361   5.616   3.240   2.882 -0.7057 -0.9227 -0.6407
  228MOL0     O31362   5.507   3.163   2.891  0.7755  0.4004 -0.0888
  228MOL0     C31363   5.441   3.151   3.017  0.3311 -0.1957 -0.1035
  228MOL0     C31364   5.302   3.084   2.991 -0.5568 -0.4472 -0.3127
  228MOL0     C31365   5.209   3.114   3.106  0.3204 -0.2323 -0.4455
  228MOL0     C31366   5.095   3.017   3.129  0.7656  0.2372  0.1265
  228MOL0     C31367   4.994   3.062   3.241 -1.1007  0.0493 -0.3774
  228MOL0     C31368   4.859   2.998   3.223 -0.5201 -0.5105 -0.2860
  228MOL0     C31369   4.768   3.064   3.326 -0.0449  0.8673  0.2414
  228MOL0     C31370   4.632   3.001   3.312  0.6087 -0.5977  0.5246
  228MOL0    Cl31371   4.532   3.050   3.451 -0.3114 -0.2819 -0.4667
  228MOL0     C31372   5.695   3.299   2.990 -0.1601  1.0454 -0.7784
  228MOL0     C31373   5.825   3.345   2.969 -0.2816 -0.2411  0.4119
  228MOL0     O31374   6.095   3.226   2.949 -0.0056 -0.3355 -0.0273
  228MOL0     C31375   6.255   3.531   2.928 -1.3387 -0.0320  0.0530
  228MOL0     C31376   6.380   3.591   2.946 -1.4412  0.1175 -0.2968
  228MOL0     N31377   7.082   3.353   3.213 -0.1482  0.0945 -0.4908
  228MOL0     N31378   7.141   3.286   3.304 -0.1741  0.6992 -0.7298
  228MOL0     C31379   7.969   3.486   4.171 -0.6232 -0.3587  0.0329
  228MOL0     C31380   8.074   3.521   4.260 -0.2317  0.0390 -0.7062
  228MOL0     C31381   8.292   3.659   4.638 -1.0270  0.5689  0.3352
  228MOL0     C31382   8.392   3.578   4.583 -0.2984 -0.4489  0.0577
  228MOL0     C31383   8.520   3.566   4.632 -0.0155  0.1458  0.7681
  228MOL0     C31384   8.550   3.626   4.749  0.1286 -0.4280  0.5820
  228MOL0     O31385   8.677   3.608   4.809  0.5089  0.2258  0.7521
  228MOL0     C31386   8.755   3.491   4.783 -0.1012 -0.0773 -0.0166
  228MOL0     C31387   8.818   3.453   4.910 -0.1299  0.2643 -0.4631
  228MOL0     C31388   8.919   3.336   4.885 -0.3577  0.2440 -0.1098
  228MOL0     C31389   8.991   3.320   5.024  0.2857  1.0090  0.8401
  228MOL0     C31390   8.913   3.234   5.105 -0.1051  0.8339  0.1021
  228MOL0     C31391   8.838   3.154   5.166 -0.2553  0.5475  0.2199
  228MOL0     C31392   8.459   3.702   4.815 -0.2253 -0.1246  0.2367
  228MOL0     C31393   8.329   3.724   4.758 -0.6360  0.7834 -0.2608
  228MOL0     C31394   8.243   3.828   4.825 -0.1102  0.4110 -0.2661
  228MOL0     H31395   7.923   3.750   4.451 -2.0564  2.3233 -2.5766
  228MOL0     H31396   7.745   3.714   4.285  1.0732  0.6255  3.9794
  228MOL0     H31397   7.861   3.634   3.946  0.6324 -1.8318  0.5502
  228MOL0     H31398   7.710   3.725   3.998  0.3790  0.6501 -0.9655
  228MOL0     H31399   7.699   3.614   3.778 -1.2795 -3.0036 -2.2196
  228MOL0     H31400   7.727   3.458   3.847  0.7953  0.2082 -1.0088
  228MOL0     H31401   7.521   3.469   3.970 -1.3403 -0.8562 -0.4567
  228MOL0     H31402   7.504   3.641   3.919  0.2142  0.0089 -1.7893
  228MOL0     H31403   7.483   3.571   3.698  0.8540 -0.9223  0.6201
  228MOL0     H31404   7.542   3.413   3.721  2.1730  1.0519  0.7629
  228MOL0     H31405   7.261   3.515   3.788 -1.9222 -1.4062 -0.3266
  228MOL0     H31406   7.325   3.352   3.847 -0.3869 -1.6613 -1.7361
  228MOL0     H31407   7.318   3.425   3.550  1.8258  0.3743 -0.0461
  228MOL0     H31408   7.348   3.270   3.617 -1.5469  0.0947 -2.3793
  228MOL0     H31409   7.106   3.438   3.649  0.7056 -0.1959  0.4558
  228MOL0     H31410   7.117   3.296   3.750  0.0096 -4.8154 -0.9715
  228MOL0     H31411   7.167   3.156   3.532 -1.6775 -1.8033 -0.8121
  228MOL0     H31412   7.005   3.194   3.600  0.5939  0.2119  2.1335
  228MOL0     H31413   6.851   3.356   3.453 -0.2700 -0.2975 -0.7755
  228MOL0     H31414   6.758   3.436   3.213  0.3382  4.3287  2.2472
  228MOL0     H31415   6.860   3.421   3.069 -1.7806  4.4454 -2.1468
  228MOL0     H31416   6.847   3.677   3.217 -3.5361 -0.5055 -0.9326
  228MOL0     H31417   6.996   3.632   3.131  0.2549 -0.9427  0.0194
  228MOL0     H31418   6.865   3.769   2.998 -2.0275  0.5216 -1.5623
  228MOL0     H31419   6.871   3.613   2.924 -0.5702 -0.6241  0.4710
  228MOL0     H31420   6.636   3.669   3.097  1.2890  1.2960  0.0089
  228MOL0     H31421   6.649   3.747   2.935  4.5699  0.2831 -1.7842
  228MOL0     H31422   6.564   3.331   2.836 -0.5426 -0.5816  0.4944
  228MOL0     H31423   6.439   3.123   2.867 -0.2088 -0.3178 -1.2061
  228MOL0     H31424   6.408   3.163   2.707  2.0652 -1.3714  0.7241
  228MOL0     H31425   6.273   3.117   2.816  0.1269 -0.2000  1.4566
  228MOL0     H31426   5.854   3.291   2.636 -0.5377  3.7231 -0.7359
  228MOL0     H31427   5.624   3.208   2.664  1.3063  1.1790  0.0251
  228MOL0     H31428   5.504   3.087   3.080  0.9115 -0.4237 -0.9098
  228MOL0     H31429   5.420   3.250   3.060  1.1345  0.4770 -1.2168
  228MOL0     H31430   5.241   3.117   2.906 -0.8032  0.5068  0.2193
  228MOL0     H31431   5.312   2.975   2.981  0.0549 -0.6149  1.7027
  228MOL0     H31432   5.168   3.215   3.098  0.0350 -0.2478  0.7118
  228MOL0     H31433   5.268   3.121   3.198  1.6289  0.0286 -1.2735
  228MOL0     H31434   5.138   2.920   3.157  1.6848  0.3411 -0.8621
  228MOL0     H31435   5.038   3.002   3.037  1.6897 -1.0620 -0.2565
  228MOL0     H31436   5.031   3.030   3.339 -0.7453 -2.4780 -1.2632
  228MOL0     H31437   4.981   3.170   3.233  0.5301  0.2307 -0.9021
  228MOL0     H31438   4.870   2.890   3.240  3.0979  0.0778  2.3356
  228MOL0     H31439   4.818   3.017   3.123 -0.6430 -1.0942 -0.3511
  228MOL0     H31440   4.760   3.173   3.318 -1.3702  0.7261 -0.6870
  228MOL0     H31441   4.810   3.043   3.425  0.1936  1.6975  0.3248
  228MOL0     H31442   4.649   2.893   3.312  2.3160 -0.4233  3.4729
  228MOL0     H31443   4.571   3.036   3.228 -1.3648  0.1091  2.1683
  228MOL0     H31444   5.649   3.286   3.088 -0.6379 -1.1339 -1.2501
  228MOL0     H31445   5.885   3.370   3.057 -1.5331  1.6644  0.7805
  228MOL0     H31446   6.160   3.579   2.948 -1.1088 -0.4539  2.4375
  228MOL0     H31447   6.389   3.695   2.975 -1.1913  0.7081 -2.3500
  228MOL0     H31448   7.999   3.416   4.093 -1.5892  0.1903 -0.8547
  228MOL0     H31449   8.175   3.482   4.253 -1.7670 -4.5465 -0.4780
  228MOL0     H31450   8.371   3.524   4.491  2.4515  3.3527 -3.1604
  228MOL0     H31451   8.594   3.507   4.579 -1.1436 -1.6424  1.1281
  228MOL0     H31452   8.694   3.405   4.753  0.3944 -0.8055  1.0087
  228MOL0     H31453   8.828   3.513   4.705 -0.2177  0.2732 -0.0283
  228MOL0     H31454   8.744   3.411   4.978 -1.5450  0.6718 -1.7018
  228MOL0     H31455   8.870   3.538   4.955  2.0895 -0.3513 -1.7142
  228MOL0     H31456   8.876   3.247   4.839 -1.6268  1.5471 -1.5696
  228MOL0     H31457   9.005   3.363   4.822 -1.1109  0.3817 -1.1119
  228MOL0     H31458   9.020   3.414   5.073 -1.2926  1.6392  0.6040
  228MOL0     H31459   9.074   3.256   4.990 -1.4933 -0.7871 -0.3300
  228MOL0     H31460   8.776   3.081   5.214 -0.8546  0.6795 -0.3339
  228MOL0     H31461   8.489   3.737   4.913 -0.0223  0.1741  0.0674
  228MOL0     H31462   8.292   3.851   4.920 -1.3998 -0.9243  0.7565
  228MOL0     H31463   8.229   3.917   4.762 -0.4805  1.7642  1.6219
  228MOL0     H31464   8.141   3.794   4.845 -1.3109  3.4284 -0.6521
  229MOL0     O31465   5.341   1.406  10.122  0.2519 -0.4115 -0.3690
  229MOL0     C31466   5.267   1.351  10.199 -0.8681  0.0649  1.0217
  229MOL0     O31467   5.304   1.265  10.297 -0.5257  0.1293  0.6729
  229MOL0     C31468   5.424   1.255  10.362  0.3684 -0.1429 -0.2762
  229MOL0     C31469   5.524   1.358  10.367  0.5658  0.0517 -0.4823
  229MOL0     C31470   5.637   1.353  10.459  0.5244  0.2667 -0.9496
  229MOL0     C31471   5.656   1.232  10.533 -0.6833  0.1814  0.6307
  229MOL0     O31472   5.770   1.207  10.613  0.0139  0.1487 -0.1379
  229MOL0     C31473   5.881   1.297  10.600  0.6006 -0.2663 -0.7294
  229MOL0     C31474   5.983   1.265  10.709  0.8984 -0.7537 -0.2554
  229MOL0     C31475   6.048   1.133  10.703 -0.5778  0.5413  0.0168
  229MOL0     C31476   6.141   1.100  10.823 -0.7444 -0.6335  0.6477
  229MOL0     C31477   6.280   1.163  10.800 -0.8167 -0.3446  0.3236
  229MOL0     C31478   6.383   1.139  10.913 -0.0296 -0.0050  0.5912
  229MOL0     C31479   6.521   1.182  10.861  0.7048 -0.0939 -0.4982
  229MOL0     C31480   6.641   1.143  10.951 -0.0229  0.3653 -0.1952
  229MOL0     N31481   6.773   1.186  10.896 -0.1911 -0.4460  0.5441
  229MOL0     C31482   6.878   1.234  10.971  0.1465 -0.1064  0.0419
  229MOL0     C31483   6.986   1.220  10.895 -0.2475 -1.0064 -0.8579
  229MOL0     C31484   7.121   1.260  10.952  0.2270  0.0083 -0.0334
  229MOL0     C31485   7.238   1.250  10.858  0.7595 -0.4560 -0.3923
  229MOL0     C31486   7.292   1.105  10.835  0.8744  0.3707 -0.4116
  229MOL0     C31487   7.432   1.111  10.782  0.1268  0.2667  0.6750
  229MOL0     O31488   7.511   1.138  10.900  0.0747  0.3446 -0.2459
  229MOL0     C31489   7.635   1.185  10.867  0.1222  0.7097  0.4630
  229MOL0     C31490   7.683   1.296  10.935  0.8376  1.3310 -0.0860
  229MOL0     C31491   7.808   1.345  10.909  0.3876  0.0389  0.4364
  229MOL0     C31492   7.849   1.449  11.011 -0.4384  1.0175 -1.0426
  229MOL0     C31493   7.885   1.297  10.798 -0.0586  0.1081 -0.0448
  229MOL0     C31494   8.015   1.354  10.755  0.7656  0.0356  0.8005
  229MOL0     O31495   8.082   1.284  10.668  0.1924  0.4635  0.4650
  229MOL0     C31496   8.193   1.342  10.618 -0.3223  0.9298 -0.1320
  229MOL0     C31497   8.309   1.356  10.701 -0.3969  0.1197 -0.6748
  229MOL0     C31498   8.431   1.407  10.649 -0.1807  0.2323 -0.1669
  229MOL0     C31499   8.441   1.426  10.509  0.1026  0.2856 -0.1684
  229MOL0     O31500   8.552   1.464  10.434 -0.2314 -0.2458 -0.4442
  229MOL0     C31501   8.679   1.438  10.495  0.5155 -0.5074  0.7158
  229MOL0     C31502   8.778   1.427  10.375  0.3015 -0.2728 -0.1765
  229MOL0     C31503   8.914   1.387  10.401 -1.1745 -0.5031  0.1251
  229MOL0     C31504   9.010   1.396  10.281  0.3605  0.6944  1.1319
  229MOL0     C31505   9.160   1.355  10.316 -0.5579 -0.6123  0.1397
  229MOL0     C31506   9.231   1.468  10.411  0.4603  0.3491 -0.3773
  229MOL0     C31507   9.367   1.429  10.465 -0.4164 -0.3004 -0.3662
  229MOL0     C31508   9.460   1.399  10.351  0.6713 -0.0450 -0.3246
  229MOL0    Cl31509   9.622   1.409  10.418  0.3201 -0.1139 -0.2369
  229MOL0     C31510   8.326   1.397  10.432 -0.2109 -0.2705  1.5001
  229MOL0     C31511   8.206   1.347  10.484 -0.1565 -0.3611 -0.2505
  229MOL0     O31512   8.039   1.470  10.786  0.0535 -0.1839 -0.0480
  229MOL0     C31513   7.849   1.175  10.742  0.3547  0.0875 -0.2317
  229MOL0     C31514   7.728   1.121  10.776 -0.0286  0.9218 -0.4646
  229MOL0     N31515   6.944   1.173  10.773  0.2715  0.2031 -0.7263
  229MOL0     N31516   6.820   1.157  10.777 -0.2434 -0.4971 -0.3331
  229MOL0     C31517   5.561   1.127  10.520 -0.1422 -0.1208 -0.7107
  229MOL0     C31518   5.445   1.141  10.446 -0.2504 -0.6979  0.5403
  229MOL0     C31519   5.127   1.394  10.196  0.0268  0.0068 -0.3660
  229MOL0     C31520   5.027   1.330  10.274  0.1815  0.5783 -0.3099
  229MOL0     C31521   4.896   1.364  10.274  0.0777 -0.5101  0.6226
  229MOL0     C31522   4.854   1.463  10.182 -0.4847 -0.4824  0.6146
  229MOL0     O31523   4.720   1.509  10.163 -0.7763  0.2793  0.1013
  229MOL0     C31524   4.606   1.440  10.236  0.5109  1.2777 -0.6062
  229MOL0     C31525   4.466   1.489  10.203  0.1157 -0.6851 -0.5481
  229MOL0     C31526   4.432   1.493  10.059  0.3516 -0.2148 -0.9866
  229MOL0     C31527   4.451   1.363   9.981 -0.8477 -0.5888 -0.3492
  229MOL0     C31528   4.408   1.376   9.842  0.3324 -0.0204 -0.3626
  229MOL0     C31529   4.379   1.364   9.725 -0.6963 -0.0782 -0.0888
  229MOL0     C31530   4.958   1.532  10.103  0.2236  0.5010  0.7361
  229MOL0     C31531   5.089   1.492  10.097 -0.1625 -0.5125  0.2570
  229MOL0     C31532   5.174   1.577  10.006 -0.6639 -0.5935  0.5000
  229MOL0     H31533   5.514   1.435  10.291 -0.5631 -0.7137 -1.1432
  229MOL0     H31534   5.716   1.428  10.452 -1.4914  2.5451 -0.6281
  229MOL0     H31535   5.856   1.400  10.625  0.7486 -0.4970  0.4532
  229MOL0     H31536   5.923   1.285  10.500  1.0710 -1.7936 -0.3842
  229MOL0     H31537   6.060   1.343  10.707  1.2018 -1.0185  0.6001
  229MOL0     H31538   5.930   1.280  10.803  0.5712  0.3898 -0.6060
  229MOL0     H31539   5.966   1.061  10.700 -3.8721  3.9488 -4.5435
  229MOL0     H31540   6.103   1.124  10.609 -2.1686  0.7177 -0.9668
  229MOL0     H31541   6.100   1.142  10.915  0.7383  0.8048  0.7122
  229MOL0     H31542   6.148   0.992  10.838  0.9387 -0.7786 -0.8026
  229MOL0     H31543   6.249   1.268  10.799 -0.4578 -0.1499  3.1457
  229MOL0     H31544   6.319   1.116  10.709  0.3251  0.2157  0.5024
  229MOL0     H31545   6.362   1.208  10.995 -2.1758  3.1585 -2.3377
  229MOL0     H31546   6.379   1.035  10.945 -0.3855 -0.6443 -1.3809
  229MOL0     H31547   6.532   1.290  10.850 -0.8105  0.2966  1.3250
  229MOL0     H31548   6.538   1.133  10.765 -0.3602 -0.5491 -0.4726
  229MOL0     H31549   6.627   1.181  11.052  0.0305  1.1029 -0.4502
  229MOL0     H31550   6.635   1.034  10.950 -4.1569  0.4016 -2.4210
  229MOL0     H31551   6.870   1.273  11.072  1.2700 -1.9973  0.9089
  229MOL0     H31552   7.141   1.198  11.040 -3.7283 -1.5797 -0.0315
  229MOL0     H31553   7.115   1.362  10.991 -2.1878 -0.8759  2.2465
  229MOL0     H31554   7.201   1.303  10.769  1.2336  2.2436  0.9094
  229MOL0     H31555   7.326   1.309  10.884  1.2922  0.8576 -4.4777
  229MOL0     H31556   7.275   1.049  10.927  1.3908  0.7337 -0.0859
  229MOL0     H31557   7.238   1.048  10.759 -0.4279 -0.8794  1.3679
  229MOL0     H31558   7.471   1.015  10.749 -1.5115  0.0786 -0.8984
  229MOL0     H31559   7.440   1.187  10.703  0.0285  0.4989  0.8849
  229MOL0     H31560   7.625   1.326  11.021  1.8913  0.3974  0.9793
  229MOL0     H31561   7.955   1.447  11.038 -0.6813 -0.5568 -0.0443
  229MOL0     H31562   7.802   1.432  11.108  2.1255  2.6252  0.6117
  229MOL0     H31563   7.814   1.551  10.996 -1.5086  1.2416  2.1568
  229MOL0     H31564   8.298   1.324  10.804 -2.0422 -0.7103 -1.0665
  229MOL0     H31565   8.515   1.417  10.716  0.1925 -1.2804 -0.3645
  229MOL0     H31566   8.707   1.517  10.565  0.7369 -0.6966  0.8424
  229MOL0     H31567   8.670   1.345  10.550 -1.5649 -1.1488 -0.5890
  229MOL0     H31568   8.748   1.357  10.296  2.3029  0.7511 -1.9253
  229MOL0     H31569   8.779   1.526  10.329 -1.7635 -0.5570 -0.9408
  229MOL0     H31570   8.908   1.283  10.436 -0.2804 -1.3074 -1.9468
  229MOL0     H31571   8.954   1.448  10.482 -0.9170 -0.8003  0.2266
  229MOL0     H31572   8.996   1.490  10.227 -2.7440  0.3794  1.2081
  229MOL0     H31573   8.961   1.335  10.204  0.4312  1.6955  0.2691
  229MOL0     H31574   9.163   1.266  10.380 -0.6121 -1.4598 -1.0219
  229MOL0     H31575   9.200   1.342  10.215 -3.1072 -1.3837 -0.8343
  229MOL0     H31576   9.160   1.490  10.491 -0.3407 -1.7223 -0.4259
  229MOL0     H31577   9.236   1.561  10.355 -1.0615  0.7783  0.1450
  229MOL0     H31578   9.354   1.338  10.525  0.1885  0.1812  0.5098
  229MOL0     H31579   9.395   1.518  10.522 -4.6738  0.4351  0.9542
  229MOL0     H31580   9.464   1.473  10.271  2.3755  1.0259  0.6857
  229MOL0     H31581   9.430   1.301  10.313 -3.4534  1.1746 -0.7218
  229MOL0     H31582   8.333   1.395  10.324 -0.4894 -1.7238  1.4868
  229MOL0     H31583   8.132   1.308  10.415 -2.9865  3.1450  0.4727
  229MOL0     H31584   7.903   1.117  10.668 -1.6809 -0.2549 -1.5124
  229MOL0     H31585   7.696   1.029  10.729  1.9710 -0.8692  1.4061
  229MOL0     H31586   5.590   1.038  10.577 -1.7549 -0.2437 -0.0378
  229MOL0     H31587   5.369   1.064  10.450  0.5955 -1.5367  0.9196
  229MOL0     H31588   5.055   1.257  10.349  1.8067  3.1413  1.7196
  229MOL0     H31589   4.829   1.324  10.349 -1.0985  0.2628  0.0173
  229MOL0     H31590   4.599   1.334  10.213 -0.7415  1.3695 -0.7077
  229MOL0     H31591   4.610   1.451  10.345 -2.1539 -2.4602  0.0753
  229MOL0     H31592   4.450   1.591  10.239  0.7348 -0.8552  0.2516
  229MOL0     H31593   4.388   1.434  10.257 -1.1827  1.4324 -0.1820
  229MOL0     H31594   4.332   1.532  10.038  0.6857  0.3580 -1.5653
  229MOL0     H31595   4.493   1.579  10.028 -3.1808  3.0768  0.3352
  229MOL0     H31596   4.399   1.287  10.040  3.3178 -2.6850  0.9936
  229MOL0     H31597   4.558   1.342   9.980 -0.8787 -0.9492  1.2301
  229MOL0     H31598   4.355   1.364   9.620  1.6811  3.9580 -0.8293
  229MOL0     H31599   4.938   1.599  10.019  3.3573 -2.4378 -2.6739
  229MOL0     H31600   5.118   1.656   9.956  0.1938  0.7839  1.6334
  229MOL0     H31601   5.258   1.628  10.055  0.0193 -0.8244 -0.4065
  229MOL0     H31602   5.215   1.513   9.928  0.7261  3.1410 -2.1240
  230MOL0     O31603   6.510   0.907   2.219  1.3394 -0.9969  0.4101
  230MOL0     C31604   6.537   0.823   2.132  0.3906  0.7290 -0.5861
  230MOL0     O31605   6.666   0.789   2.102 -0.7134  0.1142 -0.0632
  230MOL0     C31606   6.768   0.867   2.160 -0.1766  0.6065  0.7281
  230MOL0     C31607   6.871   0.806   2.237  0.3613  0.6475  0.1391
  230MOL0     C31608   6.981   0.870   2.285  0.0574  0.4291 -0.5547
  230MOL0     C31609   6.997   1.008   2.245 -0.7889  1.1799 -0.1298
  230MOL0     O31610   7.105   1.083   2.273 -0.3382  0.3415  0.3027
  230MOL0     C31611   7.205   1.032   2.362 -0.1139 -0.0025 -0.6863
  230MOL0     C31612   7.322   1.130   2.376  0.2308  0.0920 -0.4243
  230MOL0     C31613   7.404   1.174   2.251  1.1652  1.3107  0.3292
  230MOL0     C31614   7.520   1.274   2.296 -0.1161  0.3096  0.0243
  230MOL0     C31615   7.625   1.272   2.179  0.4772  0.8999 -0.3002
  230MOL0     C31616   7.675   1.416   2.154  0.2269 -0.1652 -0.5404
  230MOL0     C31617   7.800   1.434   2.053  0.6569  0.3339 -0.3307
  230MOL0     C31618   7.761   1.472   1.908  0.7394  0.6904 -0.7773
  230MOL0     N31619   7.875   1.443   1.818 -0.6817  0.6001  0.5006
  230MOL0     C31620   7.859   1.382   1.694 -0.0729  0.1483  0.0788
  230MOL0     C31621   7.977   1.424   1.633 -1.1647 -1.0860 -0.2384
  230MOL0     C31622   8.032   1.406   1.495  0.5369  0.5742  0.4786
  230MOL0     C31623   8.178   1.333   1.492 -0.0022 -0.6191 -0.4768
  230MOL0     C31624   8.170   1.192   1.554  0.3866 -1.0751 -0.2319
  230MOL0     C31625   8.316   1.149   1.591 -0.5310  0.3493 -0.0794
  230MOL0     O31626   8.301   1.030   1.666 -0.7884  0.9331  0.2239
  230MOL0     C31627   8.411   0.952   1.704 -0.5252  0.0360 -0.3388
  230MOL0     C31628   8.374   0.826   1.754 -1.0681 -0.4690  0.9365
  230MOL0     C31629   8.478   0.734   1.788 -0.3912 -0.2910 -0.2080
  230MOL0     C31630   8.431   0.608   1.846  0.3826  0.4106 -0.6742
  230MOL0     C31631   8.610   0.763   1.768 -0.3288  0.8633 -0.1842
  230MOL0     C31632   8.724   0.659   1.772  0.0185  0.0768  0.3932
  230MOL0     O31633   8.836   0.690   1.704  0.3656  0.0921 -0.3495
  230MOL0     C31634   8.941   0.595   1.674 -0.2612 -0.4984  0.1085
  230MOL0     C31635   9.020   0.615   1.562  0.3138 -0.7032 -0.0561
  230MOL0     C31636   9.107   0.514   1.514  0.1646 -0.4058 -0.4023
  230MOL0     C31637   9.144   0.406   1.596 -0.0557 -0.6644 -0.6029
  230MOL0     O31638   9.249   0.319   1.559  0.6909 -0.6583  0.4567
  230MOL0     C31639   9.357   0.374   1.484 -0.4629  0.5775 -0.1673
  230MOL0     C31640   9.485   0.282   1.490  0.1005  0.0193  0.0164
  230MOL0     C31641   9.591   0.357   1.404  0.3650 -0.0286 -0.0063
  230MOL0     C31642   9.732   0.289   1.401 -0.3827 -0.2740 -0.3099
  230MOL0     C31643   9.825   0.365   1.302  0.0154  0.0210  0.4916
  230MOL0     C31644   9.969   0.312   1.327 -0.4702  0.5217 -0.5223
  230MOL0     C31645  10.068   0.388   1.237 -0.0448 -0.1918 -0.3197
  230MOL0     C31646  10.168   0.458   1.327  0.0117  0.6768  0.5128
  230MOL0    Cl31647  10.107   0.573   1.448  0.7384  0.0616 -0.0539
  230MOL0     C31648   9.093   0.401   1.723 -0.2367 -0.0346  0.6809
  230MOL0     C31649   8.977   0.485   1.750 -0.0845  0.2983  0.1160
  230MOL0     O31650   8.711   0.562   1.844 -0.2867 -0.1617  0.6022
  230MOL0     C31651   8.647   0.894   1.722 -0.0473 -0.0212  0.9329
  230MOL0     C31652   8.548   0.988   1.705  0.9407  0.0138  0.0607
  230MOL0     N31653   8.067   1.489   1.717  0.1196 -0.3946  1.1366
  230MOL0     N31654   7.998   1.502   1.828 -0.0213 -0.3483 -0.8115
  230MOL0     C31655   6.900   1.061   2.166 -0.5448  0.5488  0.0503
  230MOL0     C31656   6.790   0.994   2.116 -0.6635 -0.2279  1.5645
  230MOL0     C31657   6.427   0.749   2.060 -0.6625  0.9209  0.0010
  230MOL0     C31658   6.462   0.645   1.972 -0.2259  0.2675  0.8948
  230MOL0     C31659   6.377   0.545   1.918 -0.1461  0.0539  0.2832
  230MOL0     C31660   6.244   0.545   1.966 -0.0723  0.5485 -0.1146
  230MOL0     O31661   6.167   0.440   1.933 -0.2134 -0.1852 -0.2433
  230MOL0     C31662   6.036   0.432   1.988 -0.0148  0.3029 -0.1053
  230MOL0     C31663   5.970   0.310   1.917  0.4323  0.3849 -0.2725
  230MOL0     C31664   5.961   0.324   1.766  0.9712  0.1954 -0.3711
  230MOL0     C31665   5.843   0.401   1.719 -0.2506  0.4632 -0.3778
  230MOL0     C31666   5.828   0.394   1.565  0.3851  0.1505  0.6839
  230MOL0     C31667   5.819   0.378   1.442 -0.2312 -1.0465  0.5891
  230MOL0     C31668   6.205   0.661   2.039 -0.5919 -0.3347  0.5816
  230MOL0     C31669   6.292   0.754   2.092  0.3578 -0.6055 -0.1849
  230MOL0     C31670   6.229   0.856   2.179  0.3444  0.5160  0.7986
  230MOL0     H31671   6.860   0.699   2.253 -2.8364  1.1149  1.9632
  230MOL0     H31672   7.055   0.827   2.352 -0.3320 -0.2864 -0.5771
  230MOL0     H31673   7.232   0.933   2.325 -0.5182 -0.5807  0.5172
  230MOL0     H31674   7.155   1.016   2.458 -0.2812 -2.9229 -1.1773
  230MOL0     H31675   7.281   1.226   2.410  0.4958  0.3750 -0.8888
  230MOL0     H31676   7.390   1.087   2.450 -1.1725  0.1279  0.9282
  230MOL0     H31677   7.431   1.082   2.199 -0.7916  1.5832 -1.2942
  230MOL0     H31678   7.344   1.233   2.180  1.0666  0.3084 -0.4350
  230MOL0     H31679   7.479   1.375   2.305 -1.5008 -0.3085  0.9339
  230MOL0     H31680   7.550   1.248   2.398 -2.3185 -2.2369  0.1426
  230MOL0     H31681   7.583   1.233   2.086 -0.4140 -1.2545  0.9487
  230MOL0     H31682   7.707   1.207   2.209  0.9306  2.5616  2.3417
  230MOL0     H31683   7.593   1.464   2.100  0.9175 -1.2096 -2.6328
  230MOL0     H31684   7.697   1.471   2.246 -1.0787 -0.1114 -0.2427
  230MOL0     H31685   7.858   1.341   2.052  2.5808  1.4898 -0.4888
  230MOL0     H31686   7.863   1.509   2.102 -2.0504  0.7119  2.9742
  230MOL0     H31687   7.676   1.410   1.879 -0.1643  1.5203  0.0368
  230MOL0     H31688   7.734   1.578   1.903 -0.7498  0.3140 -1.1710
  230MOL0     H31689   7.777   1.329   1.648 -1.9660  1.9539  1.2131
  230MOL0     H31690   8.046   1.510   1.461 -1.0675  0.8385  0.5655
  230MOL0     H31691   7.957   1.350   1.439 -0.8053  2.2306  0.5557
  230MOL0     H31692   8.219   1.323   1.391 -0.2034  1.9055 -0.8814
  230MOL0     H31693   8.248   1.402   1.541  0.8899 -2.0474  0.2985
  230MOL0     H31694   8.113   1.181   1.647  1.1367 -2.3402  0.0986
  230MOL0     H31695   8.125   1.119   1.486  1.2042 -1.9894  0.1767
  230MOL0     H31696   8.368   1.134   1.496 -0.4923  0.3105 -0.0520
  230MOL0     H31697   8.365   1.226   1.651  1.7832 -1.8417  1.0299
  230MOL0     H31698   8.268   0.805   1.750 -1.4110  1.2005 -2.7440
  230MOL0     H31699   8.471   0.516   1.801 -0.0041  0.0594 -0.3195
  230MOL0     H31700   8.322   0.607   1.853  0.3879  2.3039  0.1423
  230MOL0     H31701   8.453   0.608   1.954 -4.0245 -0.2291  0.4035
  230MOL0     H31702   9.005   0.708   1.508  2.6327 -0.7845 -0.9360
  230MOL0     H31703   9.152   0.531   1.417 -0.1422 -0.2753 -0.5232
  230MOL0     H31704   9.328   0.398   1.381 -1.3940  3.3929  0.6640
  230MOL0     H31705   9.391   0.460   1.543  3.2639 -2.0005  1.8172
  230MOL0     H31706   9.508   0.272   1.596  0.5967 -0.7974 -0.1575
  230MOL0     H31707   9.469   0.181   1.451 -0.9540  0.7287 -1.5208
  230MOL0     H31708   9.592   0.462   1.437  2.0104 -0.2962  0.9262
  230MOL0     H31709   9.554   0.352   1.301 -3.3038 -2.6592  1.2344
  230MOL0     H31710   9.721   0.184   1.372 -3.2000  0.0788 -0.7874
  230MOL0     H31711   9.764   0.293   1.505 -0.5045  1.9170 -0.3117
  230MOL0     H31712   9.798   0.361   1.196  0.4222 -1.0678  0.4197
  230MOL0     H31713   9.814   0.469   1.333 -1.8166  0.2307 -0.7112
  230MOL0     H31714   9.988   0.208   1.300  1.2467  0.0063  2.3617
  230MOL0     H31715  10.005   0.325   1.429  1.5728  1.0511 -1.2711
  230MOL0     H31716  10.027   0.461   1.167  2.7315  2.7239  0.8740
  230MOL0     H31717  10.128   0.322   1.174  0.0831 -0.5094  0.1240
  230MOL0     H31718  10.228   0.523   1.264 -0.7243  1.4263  0.5642
  230MOL0     H31719  10.227   0.378   1.372  0.0345 -0.3914 -1.3152
  230MOL0     H31720   9.139   0.324   1.784 -0.6017 -0.7460  0.0554
  230MOL0     H31721   8.937   0.469   1.849 -0.7571  2.6976  0.2983
  230MOL0     H31722   8.753   0.919   1.717 -0.0578 -0.1037  0.2189
  230MOL0     H31723   8.575   1.090   1.680 -3.2671  1.2212 -0.3195
  230MOL0     H31724   6.919   1.161   2.130 -1.2858  1.2481  1.5233
  230MOL0     H31725   6.737   1.046   2.037  1.5222 -0.4612 -0.1430
  230MOL0     H31726   6.560   0.639   1.927  1.4402 -0.3447  4.2947
  230MOL0     H31727   6.405   0.475   1.840  0.7619  0.0119  0.6363
  230MOL0     H31728   6.035   0.434   2.097 -2.6535  1.4763 -0.0597
  230MOL0     H31729   5.993   0.525   1.951  0.2539  1.2559  1.8388
  230MOL0     H31730   5.864   0.299   1.944  0.9606 -0.1999  1.7544
  230MOL0     H31731   6.030   0.221   1.939  2.8556  1.9110 -0.2854
  230MOL0     H31732   6.051   0.357   1.714  2.3302 -0.5881  1.3975
  230MOL0     H31733   5.948   0.225   1.722 -1.8741 -0.5606  1.8304
  230MOL0     H31734   5.855   0.500   1.762  4.1319  0.6638 -1.5501
  230MOL0     H31735   5.753   0.354   1.759 -1.2306  1.7892 -0.9678
  230MOL0     H31736   5.818   0.372   1.335 -0.3233  1.4700  0.3878
  230MOL0     H31737   6.100   0.675   2.064  0.2011  1.4743  3.4069
  230MOL0     H31738   6.126   0.838   2.209  0.6190 -0.1521  1.3729
  230MOL0     H31739   6.275   0.879   2.275 -0.6907 -0.3868  1.5380
  230MOL0     H31740   6.231   0.949   2.122  0.8083 -0.4513 -0.8550
  231MOL0     O31741   3.703   4.704   6.616  0.1633  0.1994 -0.0202
  231MOL0     C31742   3.653   4.663   6.509  0.7514 -0.9824 -0.7356
  231MOL0     O31743   3.629   4.542   6.473  0.0017 -0.2246  0.1802
  231MOL0     C31744   3.677   4.443   6.549  0.8949  0.2317 -0.5583
  231MOL0     C31745   3.592   4.349   6.606  0.4195 -0.0392  0.8750
  231MOL0     C31746   3.634   4.266   6.704  0.7225  0.1523  0.7764
  231MOL0     C31747   3.766   4.261   6.747  0.6748 -0.0231 -0.3097
  231MOL0     O31748   3.796   4.171   6.850 -0.2465  0.3935  0.1420
  231MOL0     C31749   3.882   4.230   6.947 -0.3395  0.2879 -0.0031
  231MOL0     C31750   3.875   4.126   7.067 -0.4904 -0.2181  1.3500
  231MOL0     C31751   3.960   3.995   7.030  0.1497  0.3517 -0.4139
  231MOL0     C31752   3.968   3.896   7.150  0.2401  0.2013  0.3972
  231MOL0     C31753   4.040   3.762   7.124 -0.2318 -0.6004  0.0174
  231MOL0     C31754   4.173   3.769   7.059 -0.1503  1.0968 -0.4225
  231MOL0     C31755   4.257   3.640   7.078  0.2228 -0.1753 -0.6415
  231MOL0     C31756   4.394   3.635   7.001 -0.2391  0.0228  0.0803
  231MOL0     N31757   4.493   3.752   7.020  0.0776 -0.1640 -0.3783
  231MOL0     C31758   4.588   3.769   7.127  0.0293 -0.0427  0.4029
  231MOL0     C31759   4.648   3.886   7.091  0.1914 -0.1032 -0.2226
  231MOL0     C31760   4.727   3.982   7.178 -0.3321 -0.3461 -0.3105
  231MOL0     C31761   4.873   3.941   7.214  0.4126  0.4179  0.2023
  231MOL0     C31762   4.960   3.893   7.100  0.7059 -0.0397  0.4550
  231MOL0     C31763   5.099   3.850   7.145 -0.1508 -0.1033  0.2817
  231MOL0     O31764   5.183   3.815   7.030  0.4077 -0.2188 -0.1284
  231MOL0     C31765   5.309   3.772   7.061  0.0835 -0.6697  0.0530
  231MOL0     C31766   5.380   3.788   7.183  0.0088  0.0107  0.9494
  231MOL0     C31767   5.516   3.747   7.188 -0.5070  0.1795  0.3554
  231MOL0     C31768   5.574   3.762   7.329 -0.2284  0.4709  0.1198
  231MOL0     C31769   5.584   3.709   7.068  0.0109  0.5560 -0.4168
  231MOL0     C31770   5.730   3.678   7.054  0.0605 -0.1332 -0.0852
  231MOL0     O31771   5.787   3.676   6.931  0.0001  0.0339  0.6720
  231MOL0     C31772   5.925   3.661   6.922 -1.0823  1.0841 -0.1031
  231MOL0     C31773   5.993   3.752   6.838  0.2492  0.4564  0.5663
  231MOL0     C31774   6.133   3.746   6.827  0.5992 -0.2951 -0.3534
  231MOL0     C31775   6.209   3.644   6.881 -0.1988  0.7991 -0.1653
  231MOL0     O31776   6.339   3.633   6.866  0.1571  0.1329  0.0196
  231MOL0     C31777   6.402   3.667   6.742 -0.0420 -0.6070  0.3626
  231MOL0     C31778   6.551   3.646   6.770 -0.4394 -0.3870 -0.0592
  231MOL0     C31779   6.611   3.742   6.879 -0.6199 -0.2539 -0.1650
  231MOL0     C31780   6.759   3.711   6.890  0.0035  0.4649 -0.4197
  231MOL0     C31781   6.822   3.779   7.014 -0.4036  0.7418 -0.7622
  231MOL0     C31782   6.864   3.926   6.978  0.6311  0.6007 -0.2767
  231MOL0     C31783   6.984   3.924   6.885 -0.0741 -0.1231 -0.3198
  231MOL0     C31784   7.053   4.067   6.847 -0.1911  0.7829 -0.2574
  231MOL0    Cl31785   6.943   4.187   6.800  0.0822 -0.0676 -0.1445
  231MOL0     C31786   6.142   3.548   6.958 -0.1314  0.3109 -0.1113
  231MOL0     C31787   5.999   3.552   6.981  0.0596 -0.7761 -0.2116
  231MOL0     O31788   5.791   3.667   7.161 -0.1192  0.1372 -0.4194
  231MOL0     C31789   5.506   3.684   6.958 -0.7893 -0.6528 -0.1648
  231MOL0     C31790   5.369   3.714   6.952 -0.1649 -0.2322  0.0664
  231MOL0     N31791   4.614   3.929   6.966  0.4390  0.8830 -0.0938
  231MOL0     N31792   4.510   3.857   6.931 -0.0053  0.2335 -0.5036
  231MOL0     C31793   3.857   4.347   6.681 -0.3092 -0.0741 -0.0114
  231MOL0     C31794   3.815   4.430   6.577 -0.7465  0.8391  0.1144
  231MOL0     C31795   3.587   4.770   6.430 -1.2038 -0.9375 -0.0163
  231MOL0     C31796   3.540   4.724   6.302 -0.4186 -0.4261 -0.8249
  231MOL0     C31797   3.483   4.814   6.216  0.1047  0.4504 -0.0193
  231MOL0     C31798   3.476   4.946   6.249  0.6301  0.2419 -0.4088
  231MOL0     O31799   3.423   5.038   6.164  0.4564  0.6510  0.6734
  231MOL0     C31800   3.414   5.013   6.023 -0.2373 -0.7104 -0.6023
  231MOL0     C31801   3.283   4.940   5.971  0.6593  0.4157 -0.0642
  231MOL0     C31802   3.152   5.018   5.975  0.0992  0.7877  0.0739
  231MOL0     C31803   3.114   5.053   6.117  0.2190  0.2631  0.0720
  231MOL0     C31804   2.984   5.117   6.111  0.1019 -1.0354  0.1128
  231MOL0     C31805   2.872   5.165   6.097  0.6465  0.2544  0.2461
  231MOL0     C31806   3.514   4.994   6.380 -0.4899 -0.2778 -0.1009
  231MOL0     C31807   3.569   4.907   6.466 -0.4208  0.1492 -0.2537
  231MOL0     C31808   3.615   4.975   6.592 -0.2142  0.0174  0.1792
  231MOL0     H31809   3.484   4.355   6.590  0.1674 -2.6084  1.2594
  231MOL0     H31810   3.557   4.201   6.744  0.3769  0.7816  1.1422
  231MOL0     H31811   3.836   4.323   6.982 -3.4044 -1.7958  1.9328
  231MOL0     H31812   3.985   4.250   6.916  0.3232 -0.7314  1.4126
  231MOL0     H31813   3.913   4.178   7.156  1.4900  0.2779  0.2830
  231MOL0     H31814   3.771   4.096   7.084 -0.7505 -0.6503 -0.7625
  231MOL0     H31815   3.911   3.952   6.942  1.1677  1.6841 -1.6966
  231MOL0     H31816   4.062   4.016   6.994 -0.1962 -0.4355 -1.9545
  231MOL0     H31817   4.009   3.956   7.231  0.1608 -0.0321  0.6130
  231MOL0     H31818   3.865   3.874   7.179  0.6827 -0.6582  1.4038
  231MOL0     H31819   3.977   3.697   7.063  2.4826  0.0564 -3.8739
  231MOL0     H31820   4.063   3.726   7.224 -0.1003  1.0318  0.6139
  231MOL0     H31821   4.179   3.803   6.955 -0.7793  1.3564 -0.3754
  231MOL0     H31822   4.225   3.852   7.108 -0.9864  0.9950  0.6524
  231MOL0     H31823   4.189   3.557   7.058 -0.9978  0.6033  0.1432
  231MOL0     H31824   4.286   3.636   7.184  0.1218  0.2233 -0.5976
  231MOL0     H31825   4.445   3.542   7.027 -4.2502 -2.1326  1.0857
  231MOL0     H31826   4.382   3.629   6.892  0.4016  0.1625 -0.0045
  231MOL0     H31827   4.606   3.721   7.223  0.0476 -1.1549 -0.1394
  231MOL0     H31828   4.674   4.000   7.272  0.3785 -0.7492  0.1792
  231MOL0     H31829   4.731   4.080   7.131  3.0631  1.6453  3.4245
  231MOL0     H31830   4.931   4.027   7.249 -2.7374  1.7377  2.6447
  231MOL0     H31831   4.868   3.863   7.291 -1.5434  0.1883 -0.1246
  231MOL0     H31832   4.914   3.812   7.042 -5.4262  2.9951  0.2531
  231MOL0     H31833   4.960   3.979   7.033 -0.9887 -2.0243 -2.3349
  231MOL0     H31834   5.140   3.923   7.215 -3.5432  1.1532  1.1771
  231MOL0     H31835   5.085   3.755   7.196  0.1663 -2.5846 -3.7796
  231MOL0     H31836   5.332   3.814   7.276 -0.2355 -3.5787  1.9755
  231MOL0     H31837   5.496   3.744   7.403 -0.7194 -3.3685 -1.0971
  231MOL0     H31838   5.617   3.862   7.341  3.2277 -0.8343 -0.1110
  231MOL0     H31839   5.659   3.694   7.343  0.1124  0.8279 -0.1855
  231MOL0     H31840   5.956   3.849   6.805  2.6652  1.1331 -0.3828
  231MOL0     H31841   6.186   3.815   6.762 -1.8121  0.3843 -1.7299
  231MOL0     H31842   6.368   3.610   6.656 -3.0973  1.5267 -0.0145
  231MOL0     H31843   6.376   3.771   6.718 -1.6548 -0.9584  0.4832
  231MOL0     H31844   6.581   3.545   6.796  0.7990 -0.4252 -1.4771
  231MOL0     H31845   6.604   3.671   6.677 -0.7831 -0.5565 -0.3058
  231MOL0     H31846   6.568   3.723   6.978  1.5489 -0.0514  0.8971
  231MOL0     H31847   6.597   3.848   6.853 -1.7935 -0.2486  0.4194
  231MOL0     H31848   6.805   3.733   6.794 -1.4993  1.9431 -0.8515
  231MOL0     H31849   6.764   3.604   6.912 -4.1628  0.2788  0.3864
  231MOL0     H31850   6.752   3.769   7.098  0.6845 -2.3534 -0.1152
  231MOL0     H31851   6.907   3.724   7.056 -0.0362  2.3446  0.7093
  231MOL0     H31852   6.891   3.990   7.063  1.3706  3.8955 -2.7829
  231MOL0     H31853   6.781   3.967   6.920  0.2753  0.4510  0.1221
  231MOL0     H31854   6.973   3.870   6.791  2.3952  0.7858 -1.2032
  231MOL0     H31855   7.061   3.876   6.945 -0.9602 -2.8602 -1.2522
  231MOL0     H31856   7.124   4.038   6.769 -2.6315  0.1562 -2.4063
  231MOL0     H31857   7.097   4.111   6.937 -1.0745  1.4601 -0.1404
  231MOL0     H31858   6.210   3.477   7.003  1.8783  2.5549  0.5588
  231MOL0     H31859   5.939   3.471   7.021 -0.5843 -0.1907  0.0248
  231MOL0     H31860   5.554   3.646   6.868  1.3964 -0.1013  0.6941
  231MOL0     H31861   5.309   3.708   6.862 -2.6851  0.0659  1.6126
  231MOL0     H31862   3.963   4.358   6.704  0.1978  1.0719 -2.5586
  231MOL0     H31863   3.896   4.490   6.537  0.2406 -2.2295 -3.0647
  231MOL0     H31864   3.552   4.621   6.270  2.0597 -0.5962  0.3666
  231MOL0     H31865   3.452   4.778   6.118  2.2444 -0.9782 -0.2521
  231MOL0     H31866   3.415   5.111   5.973 -1.6002 -0.3885 -0.0525
  231MOL0     H31867   3.502   4.950   6.011  0.3594 -0.1418  0.6683
  231MOL0     H31868   3.278   4.851   6.033  1.7044 -1.6627 -2.7317
  231MOL0     H31869   3.296   4.904   5.868  2.0343  1.2842 -0.2309
  231MOL0     H31870   3.145   5.097   5.899 -3.6819 -0.8431 -1.5405
  231MOL0     H31871   3.078   4.945   5.941 -1.6204  2.2017  0.6268
  231MOL0     H31872   3.187   5.113   6.173 -1.5327  0.8746  1.8014
  231MOL0     H31873   3.106   4.963   6.178  1.7382  1.1626  1.7284
  231MOL0     H31874   2.777   5.210   6.079  0.5947  0.3404  0.7325
  231MOL0     H31875   3.488   5.097   6.405  1.8540  0.0164  1.4928
  231MOL0     H31876   3.574   4.935   6.685  1.1367  0.9734  1.2259
  231MOL0     H31877   3.724   4.978   6.605 -0.0833  2.1828 -1.0160
  231MOL0     H31878   3.588   5.081   6.590 -0.1815  0.0191 -0.2252
  232MOL0     O31879   5.713   7.294   3.151 -0.8920 -0.1610 -0.0527
  232MOL0     C31880   5.593   7.304   3.162  0.5633  0.3568 -0.1813
  232MOL0     O31881   5.529   7.393   3.240 -0.1782 -0.1229 -0.1877
  232MOL0     C31882   5.606   7.469   3.333  0.3332  0.0232  0.7241
  232MOL0     C31883   5.588   7.609   3.324  0.0071  0.3419 -0.2431
  232MOL0     C31884   5.643   7.692   3.431  0.8178 -0.6864  0.3188
  232MOL0     C31885   5.708   7.642   3.546  0.7651 -0.8782  0.1400
  232MOL0     O31886   5.748   7.714   3.656 -0.7094  0.0245 -0.8934
  232MOL0     C31887   5.787   7.854   3.656 -0.2753 -0.7386 -0.5401
  232MOL0     C31888   5.926   7.865   3.598  0.9513  0.1940 -0.0414
  232MOL0     C31889   6.026   7.767   3.661 -0.4280  0.3307  0.4492
  232MOL0     C31890   6.163   7.810   3.616 -0.6352 -0.0323  0.0896
  232MOL0     C31891   6.268   7.725   3.682  0.7168 -0.7116  0.1248
  232MOL0     C31892   6.405   7.775   3.652  0.3763  0.1268  0.0662
  232MOL0     C31893   6.502   7.700   3.745 -0.8792  0.5193 -0.3081
  232MOL0     C31894   6.532   7.550   3.707  0.1029  0.9266  0.3504
  232MOL0     N31895   6.586   7.527   3.568  0.1965  0.8534  0.1042
  232MOL0     C31896   6.704   7.580   3.518  0.1062 -0.2313 -0.1909
  232MOL0     C31897   6.731   7.520   3.397  0.0772  1.0372 -0.0412
  232MOL0     C31898   6.851   7.535   3.304 -0.3487 -0.6916 -0.2133
  232MOL0     C31899   6.956   7.426   3.333 -0.1274 -0.1484  0.1166
  232MOL0     C31900   7.057   7.411   3.218 -1.0575 -0.0552 -0.5537
  232MOL0     C31901   7.098   7.538   3.142 -0.4332 -0.2947  0.6702
  232MOL0     O31902   7.144   7.637   3.240 -0.1131 -0.4810 -0.0279
  232MOL0     C31903   7.276   7.642   3.280  0.0416 -0.9403 -0.5306
  232MOL0     C31904   7.300   7.750   3.366 -0.7692  1.1008  0.5636
  232MOL0     C31905   7.438   7.773   3.406 -0.5897  0.8099  0.0582
  232MOL0     C31906   7.458   7.890   3.501 -0.0378 -0.1208  0.4449
  232MOL0     C31907   7.546   7.689   3.361  0.5247  0.0677 -0.1899
  232MOL0     C31908   7.694   7.709   3.381 -0.4774  1.5777  0.1312
  232MOL0     O31909   7.779   7.611   3.335  0.0477 -0.6189  0.7185
  232MOL0     C31910   7.910   7.620   3.369  0.4092 -1.0337 -1.5878
  232MOL0     C31911   7.957   7.559   3.488  0.0855  1.1274  0.2584
  232MOL0     C31912   8.086   7.579   3.524 -0.3243 -0.4966 -0.3597
  232MOL0     C31913   8.180   7.636   3.441 -0.0871  0.3805 -0.2359
  232MOL0     O31914   8.313   7.636   3.456 -0.1910  0.4308  0.3133
  232MOL0     C31915   8.364   7.539   3.543  0.7293  0.1062 -0.6743
  232MOL0     C31916   8.513   7.511   3.513 -0.1008  0.5792  0.1718
  232MOL0     C31917   8.570   7.411   3.605 -0.8674 -0.3789  0.0685
  232MOL0     C31918   8.726   7.414   3.609 -0.2216  0.3760 -0.2322
  232MOL0     C31919   8.784   7.307   3.715  0.0553 -1.0962 -0.7479
  232MOL0     C31920   8.940   7.297   3.697  1.2861 -0.4568 -0.1846
  232MOL0     C31921   8.999   7.204   3.800 -0.0356  0.0075  0.2578
  232MOL0     C31922   9.147   7.181   3.756  0.7639  0.6946  0.3524
  232MOL0    Cl31923   9.203   7.027   3.828  0.0541 -0.1281  0.0508
  232MOL0     C31924   8.133   7.690   3.320 -0.4603 -0.1955 -0.2825
  232MOL0     C31925   7.992   7.687   3.286 -0.0639 -1.4914 -0.3576
  232MOL0     O31926   7.723   7.803   3.450  0.2089  0.0597 -0.4360
  232MOL0     C31927   7.507   7.582   3.273 -0.1622 -0.0832  0.1107
  232MOL0     C31928   7.375   7.558   3.237 -0.3146  0.3583 -0.1947
  232MOL0     N31929   6.623   7.425   3.380 -1.0872  0.4520  0.4007
  232MOL0     N31930   6.534   7.440   3.471 -0.5524 -0.0577 -0.5102
  232MOL0     C31931   5.723   7.505   3.550 -0.2116  0.0079  0.4437
  232MOL0     C31932   5.673   7.419   3.447 -0.7807 -0.5380  0.1303
  232MOL0     C31933   5.516   7.208   3.072  0.1300 -0.0965  0.0993
  232MOL0     C31934   5.573   7.148   2.957  0.5617 -0.2563 -0.3389
  232MOL0     C31935   5.502   7.096   2.856 -0.1329  0.2879  0.5467
  232MOL0     C31936   5.367   7.080   2.865  0.5725  1.4840 -0.3818
  232MOL0     O31937   5.305   7.018   2.764  0.3664 -0.1331 -0.6150
  232MOL0     C31938   5.162   7.027   2.743 -0.6547 -0.0851 -0.0464
  232MOL0     C31939   5.150   7.161   2.670  0.3415 -0.5984  0.5124
  232MOL0     C31940   5.159   7.152   2.518  0.4818  0.5199 -0.4451
  232MOL0     C31941   5.295   7.103   2.474 -0.0949 -1.1659 -0.4921
  232MOL0     C31942   5.296   7.127   2.328  0.0079  0.5610  0.1418
  232MOL0     C31943   5.287   7.136   2.206  0.3453  0.5665  0.4320
  232MOL0     C31944   5.305   7.105   2.990 -0.4876 -0.3672  0.6243
  232MOL0     C31945   5.378   7.169   3.086  0.1520 -0.7320 -1.5676
  232MOL0     C31946   5.302   7.217   3.206 -0.9072 -0.2930  0.1843
  232MOL0     H31947   5.534   7.652   3.240 -0.4334 -3.0042 -1.8514
  232MOL0     H31948   5.623   7.798   3.423 -1.1971 -1.1794 -4.5574
  232MOL0     H31949   5.784   7.908   3.750 -0.7440 -1.2441 -0.2558
  232MOL0     H31950   5.713   7.901   3.591  1.5069  3.1555 -0.0481
  232MOL0     H31951   5.914   7.853   3.490 -1.8633  1.3023  0.0694
  232MOL0     H31952   5.953   7.970   3.615 -0.4271  0.2791  1.9085
  232MOL0     H31953   6.021   7.768   3.771  3.3009 -1.8570  0.7943
  232MOL0     H31954   6.002   7.666   3.628 -2.2531 -0.0017  2.4951
  232MOL0     H31955   6.162   7.805   3.507  0.7858  2.0971 -0.0818
  232MOL0     H31956   6.183   7.915   3.638 -0.8392  0.6276 -2.5526
  232MOL0     H31957   6.257   7.617   3.664 -2.5962 -0.3282 -0.8816
  232MOL0     H31958   6.252   7.732   3.790 -0.3676 -3.8039  0.2579
  232MOL0     H31959   6.423   7.752   3.546 -2.2613  2.4340 -1.0192
  232MOL0     H31960   6.411   7.882   3.673  0.8606  0.0398  0.3797
  232MOL0     H31961   6.468   7.723   3.846  0.3918  0.7477  0.0871
  232MOL0     H31962   6.604   7.739   3.747 -0.3585 -0.7155  2.2649
  232MOL0     H31963   6.598   7.508   3.782 -1.7877  0.3247  1.7518
  232MOL0     H31964   6.442   7.489   3.717  0.6015  0.4506  2.2816
  232MOL0     H31965   6.770   7.661   3.545  0.7120 -0.2626 -1.5374
  232MOL0     H31966   6.897   7.633   3.319 -2.8578 -0.0128  6.1323
  232MOL0     H31967   6.822   7.528   3.199  1.9954 -1.8294 -0.8341
  232MOL0     H31968   7.003   7.464   3.424 -0.8167  0.5962  0.1757
  232MOL0     H31969   6.922   7.326   3.362 -0.6921  0.1931  0.6394
  232MOL0     H31970   7.150   7.372   3.262  0.3851  0.9382 -2.5537
  232MOL0     H31971   7.016   7.338   3.148  0.2126 -0.1028 -1.2712
  232MOL0     H31972   7.176   7.523   3.067  2.3980  0.0924  3.3452
  232MOL0     H31973   7.014   7.580   3.087  2.1234  2.4716 -1.4841
  232MOL0     H31974   7.207   7.792   3.402 -0.1666  1.2989  1.9445
  232MOL0     H31975   7.369   7.942   3.537  1.2121  3.6264 -1.3287
  232MOL0     H31976   7.525   7.962   3.454  2.9060 -1.8147  1.7233
  232MOL0     H31977   7.517   7.858   3.588  2.1564 -0.3423 -1.0284
  232MOL0     H31978   7.890   7.498   3.548 -0.1016  1.1618  0.0875
  232MOL0     H31979   8.108   7.533   3.619 -0.5514  0.9362  0.4192
  232MOL0     H31980   8.341   7.556   3.648  0.9952 -1.4716 -0.3454
  232MOL0     H31981   8.310   7.446   3.523  0.6282  0.0614 -0.1952
  232MOL0     H31982   8.523   7.483   3.408  0.4876 -3.2938  1.1282
  232MOL0     H31983   8.570   7.603   3.530  2.9387 -1.4261  1.8325
  232MOL0     H31984   8.553   7.310   3.567  0.9013 -1.2975  1.5597
  232MOL0     H31985   8.525   7.424   3.703  0.3185  1.1164  0.4524
  232MOL0     H31986   8.764   7.516   3.624  0.6237  0.2523 -1.3629
  232MOL0     H31987   8.751   7.381   3.508 -3.8672 -1.6729 -0.6428
  232MOL0     H31988   8.760   7.358   3.809 -0.3269 -1.9889 -0.3558
  232MOL0     H31989   8.732   7.212   3.701  2.5775 -2.3441 -2.2790
  232MOL0     H31990   8.969   7.402   3.700  0.4304 -0.2244  0.2787
  232MOL0     H31991   8.964   7.261   3.596 -2.9346 -3.5151 -0.3485
  232MOL0     H31992   8.943   7.110   3.796  0.4495 -0.3111  0.6981
  232MOL0     H31993   9.005   7.246   3.901  0.8425 -0.6510  0.4916
  232MOL0     H31994   9.209   7.265   3.791  1.0225  1.0946 -1.0232
  232MOL0     H31995   9.156   7.178   3.647 -3.3327  2.2555 -0.1762
  232MOL0     H31996   8.206   7.748   3.265  2.0626 -2.1018  0.8496
  232MOL0     H31997   7.945   7.739   3.202  1.9006 -2.0594 -1.8740
  232MOL0     H31998   7.581   7.508   3.245 -1.4105 -1.0926 -0.6428
  232MOL0     H31999   7.356   7.477   3.167 -1.7850  0.0360  0.5201
  232MOL0     H32000   5.777   7.461   3.633 -3.1355  0.0079  2.5104
  232MOL0     H32001   5.693   7.313   3.458 -0.2081 -0.6093 -1.3108
  232MOL0     H32002   5.681   7.159   2.957  0.4636  0.8670 -0.7997
  232MOL0     H32003   5.557   7.075   2.765 -0.2271 -0.7522  0.7170
  232MOL0     H32004   5.150   6.952   2.664  3.6164 -2.1175  0.9619
  232MOL0     H32005   5.107   7.006   2.835 -2.5110  0.4206 -0.9792
  232MOL0     H32006   5.232   7.228   2.697 -1.9586  2.7905 -0.2339
  232MOL0     H32007   5.057   7.208   2.703  0.6695  0.5688 -0.1357
  232MOL0     H32008   5.075   7.098   2.473 -1.9085  2.8410  0.8713
  232MOL0     H32009   5.151   7.250   2.470 -0.0998 -0.4080 -2.3271
  232MOL0     H32010   5.315   6.999   2.503 -0.3790 -1.2640 -0.6476
  232MOL0     H32011   5.374   7.163   2.519 -0.4148 -2.7498  2.4550
  232MOL0     H32012   5.286   7.160   2.101  1.2235 -0.9129  0.0465
  232MOL0     H32013   5.206   7.068   3.018  0.5327 -2.5819  1.5130
  232MOL0     H32014   5.283   7.324   3.192 -0.3975 -0.3218 -0.8386
  232MOL0     H32015   5.213   7.156   3.225 -1.5824  0.1947 -1.2958
  232MOL0     H32016   5.365   7.211   3.295 -0.1817 -1.3256 -0.3801
  233MOL0     O32017  10.335   9.845   6.714  0.4023 -0.0299  0.7098
  233MOL0     C32018  10.235   9.793   6.668 -0.5377 -0.1426 -0.6201
  233MOL0     O32019  10.211   9.775   6.535  0.1367  0.2391 -0.1236
  233MOL0     C32020  10.317   9.816   6.450  0.3646  0.1315 -0.0315
  233MOL0     C32021  10.410   9.719   6.413 -0.3028  0.2291 -1.2073
  233MOL0     C32022  10.497   9.753   6.312  1.1902  0.0368  0.2207
  233MOL0     C32023  10.515   9.885   6.259  0.4095  0.0752  0.1034
  233MOL0     O32024  10.613   9.914   6.165  0.6207  0.4985 -0.1525
  233MOL0     C32025  10.728   9.831   6.170 -0.6410 -0.1383 -0.1026
  233MOL0     C32026  10.815   9.894   6.061  0.5556  0.7920  0.3167
  233MOL0     C32027  10.766   9.874   5.919  0.9474  0.1337 -0.1605
  233MOL0     C32028  10.784   9.726   5.881  0.5489 -0.3124 -1.1581
  233MOL0     C32029  10.786   9.704   5.732 -0.5491  0.0102  0.2375
  233MOL0     C32030  10.820   9.559   5.692 -0.3216 -0.1941  0.5733
  233MOL0     C32031  10.874   9.554   5.550 -0.8415  0.7132  0.5719
  233MOL0     C32032  10.888   9.415   5.494 -0.8954 -0.1670 -0.0696
  233MOL0     N32033  10.768   9.341   5.474  0.6767  0.3374  0.1178
  233MOL0     C32034  10.664   9.390   5.401  0.3733  0.6504 -0.4291
  233MOL0     C32035  10.565   9.298   5.416  0.7047 -0.2226  0.1639
  233MOL0     C32036  10.434   9.291   5.351 -1.1042 -0.1023 -0.0536
  233MOL0     C32037  10.315   9.291   5.445 -0.3269  0.2539 -0.2881
  233MOL0     C32038  10.310   9.418   5.529 -0.1323 -0.6084  0.0722
  233MOL0     C32039  10.174   9.436   5.596  0.0083  0.7735 -0.3533
  233MOL0     O32040  10.127   9.318   5.667 -1.2037 -0.4638 -0.0659
  233MOL0     C32041  10.027   9.329   5.759  0.8797  1.0354  0.7864
  233MOL0     C32042  10.010   9.229   5.854  0.3269  0.0251  0.1511
  233MOL0     C32043   9.898   9.226   5.940 -0.6513 -0.2395 -0.0754
  233MOL0     C32044   9.900   9.127   6.053 -0.5946  0.4853  0.7263
  233MOL0     C32045   9.795   9.325   5.922  0.6590  0.4436  0.2027
  233MOL0     C32046   9.685   9.336   6.014  0.0556 -0.2489  0.0211
  233MOL0     O32047   9.595   9.432   5.980  0.0962 -0.9916 -0.3509
  233MOL0     C32048   9.508   9.464   6.082  0.3166  0.2321  0.2037
  233MOL0     C32049   9.524   9.587   6.162 -0.4169 -0.0417 -0.3725
  233MOL0     C32050   9.430   9.624   6.258  0.4392  0.2768  0.0525
  233MOL0     C32051   9.320   9.546   6.284 -0.1051  0.3078  0.1663
  233MOL0     O32052   9.233   9.585   6.380  0.4433  0.2440 -0.0663
  233MOL0     C32053   9.144   9.485   6.442 -0.2226  0.2875 -0.5629
  233MOL0     C32054   9.017   9.454   6.370  0.1725  0.2106  0.4378
  233MOL0     C32055   8.941   9.342   6.442 -0.1967 -0.5283 -0.0136
  233MOL0     C32056   8.870   9.410   6.561 -0.1544 -0.8037  0.2435
  233MOL0     C32057   8.774   9.307   6.614  0.0187 -0.2150  0.6632
  233MOL0     C32058   8.689   9.367   6.722  0.1164 -0.5719 -0.2375
  233MOL0     C32059   8.586   9.275   6.764 -0.3272 -0.6889  0.3600
  233MOL0     C32060   8.519   9.316   6.888 -0.1515 -0.7549  0.1795
  233MOL0    Cl32061   8.627   9.314   7.027  0.1016  0.3606 -0.3834
  233MOL0     C32062   9.316   9.424   6.221 -0.5446  0.1748  0.5959
  233MOL0     C32063   9.402   9.382   6.123  0.0870  0.0539  1.3226
  233MOL0     O32064   9.663   9.258   6.103 -0.1182 -0.1720 -0.8834
  233MOL0     C32065   9.817   9.433   5.824 -1.1981  0.5991 -1.4480
  233MOL0     C32066   9.936   9.428   5.745 -0.7405 -0.3148 -0.5573
  233MOL0     N32067  10.597   9.208   5.514 -0.1151 -0.2496 -0.0319
  233MOL0     N32068  10.720   9.238   5.544  0.8940 -0.1512 -0.8196
  233MOL0     C32069  10.427   9.980   6.313 -0.1417 -0.1682  0.4230
  233MOL0     C32070  10.319   9.940   6.391  0.9758 -0.0372 -0.0926
  233MOL0     C32071  10.120   9.741   6.748  0.1661 -0.4909 -0.7690
  233MOL0     C32072   9.991   9.733   6.693  0.7395  1.1735 -0.7347
  233MOL0     C32073   9.876   9.690   6.772 -0.1512 -0.8567 -0.1498
  233MOL0     C32074   9.895   9.656   6.913 -0.6803 -0.7986  0.6552
  233MOL0     O32075   9.809   9.587   6.992  0.5325  0.2650 -0.2316
  233MOL0     C32076   9.687   9.541   6.938  1.2427 -0.2347 -0.1985
  233MOL0     C32077   9.718   9.416   6.849  0.3111 -1.0235  0.0561
  233MOL0     C32078   9.593   9.338   6.829 -0.6835 -0.8931  0.4109
  233MOL0     C32079   9.613   9.218   6.736  0.0651 -0.3343  0.1723
  233MOL0     C32080   9.593   9.264   6.594 -0.6542 -0.4645 -0.2634
  233MOL0     C32081   9.581   9.281   6.477 -0.5873 -0.4262 -0.1581
  233MOL0     C32082  10.025   9.652   6.954  0.5032  0.6409  0.1252
  233MOL0     C32083  10.139   9.686   6.877 -0.2984 -0.0115 -0.2955
  233MOL0     C32084  10.275   9.699   6.959 -0.4526  0.1659 -0.1996
  233MOL0     H32085  10.395   9.614   6.438  2.1688 -0.4698 -2.3430
  233MOL0     H32086  10.545   9.663   6.276  0.0538 -1.6867  2.7499
  233MOL0     H32087  10.702   9.726   6.154  0.3976 -0.9709  2.9801
  233MOL0     H32088  10.776   9.851   6.267  0.0214  0.3400 -0.5187
  233MOL0     H32089  10.809  10.000   6.085 -4.6652  0.8965 -0.3237
  233MOL0     H32090  10.920   9.864   6.064  0.2647 -0.3892 -0.5609
  233MOL0     H32091  10.665   9.915   5.907  2.0852  5.6856  4.5244
  233MOL0     H32092  10.832   9.936   5.858  0.7639  0.2297 -0.2610
  233MOL0     H32093  10.870   9.676   5.926 -0.9659 -0.7214  1.4629
  233MOL0     H32094  10.700   9.672   5.925 -1.6729  2.6476 -1.4355
  233MOL0     H32095  10.862   9.764   5.682 -0.9700  0.5694  0.2657
  233MOL0     H32096  10.686   9.728   5.694 -0.4069  1.6614  0.8145
  233MOL0     H32097  10.905   9.525   5.754  0.1482  0.2903  0.2001
  233MOL0     H32098  10.732   9.495   5.707  0.0578 -0.7060  0.6567
  233MOL0     H32099  10.973   9.598   5.566 -0.7643 -0.1450  2.9220
  233MOL0     H32100  10.826   9.623   5.481 -0.6866  1.9727  1.6931
  233MOL0     H32101  10.947   9.422   5.402  2.5966  0.1574  1.9895
  233MOL0     H32102  10.950   9.357   5.563 -0.8520  2.4100  2.2531
  233MOL0     H32103  10.673   9.471   5.329 -1.6924  1.6033  0.2915
  233MOL0     H32104  10.419   9.203   5.288  0.0895 -1.4515  1.4391
  233MOL0     H32105  10.421   9.379   5.287  0.6062 -0.7593 -1.3826
  233MOL0     H32106  10.237   9.284   5.369 -0.8318  0.2544  0.2273
  233MOL0     H32107  10.314   9.201   5.507 -0.5246  0.6657  0.3120
  233MOL0     H32108  10.388   9.418   5.605 -0.1048  0.3249  0.0508
  233MOL0     H32109  10.328   9.509   5.471  0.1706  0.7108  2.1475
  233MOL0     H32110  10.180   9.512   5.675  0.0925  1.6503 -1.1880
  233MOL0     H32111  10.090   9.448   5.527  0.0981 -2.2936 -1.1447
  233MOL0     H32112  10.086   9.153   5.870  1.8107  1.2456 -0.7259
  233MOL0     H32113   9.809   9.070   6.032 -1.0001  1.5625 -0.5793
  233MOL0     H32114   9.906   9.164   6.156  1.2717 -0.0723  0.8645
  233MOL0     H32115   9.983   9.057   6.041 -2.6353 -1.8428 -1.0629
  233MOL0     H32116   9.605   9.648   6.124  0.7509 -1.0131  0.4577
  233MOL0     H32117   9.448   9.710   6.321  0.2914  2.1956 -2.3681
  233MOL0     H32118   9.205   9.395   6.455  1.0515  1.1858 -0.1566
  233MOL0     H32119   9.128   9.523   6.544 -1.5694  2.5505 -1.5356
  233MOL0     H32120   8.964   9.550   6.366  1.4099  0.8898 -0.3235
  233MOL0     H32121   9.024   9.429   6.263 -0.8374 -1.3023  0.6886
  233MOL0     H32122   9.014   9.267   6.475 -0.2349 -1.2893 -1.5758
  233MOL0     H32123   8.872   9.286   6.378 -0.4052 -1.3854  0.9369
  233MOL0     H32124   8.817   9.505   6.547  2.2613  0.4490 -0.9405
  233MOL0     H32125   8.943   9.436   6.638 -0.9402 -2.7336  1.7288
  233MOL0     H32126   8.712   9.268   6.533  2.8004 -0.1033 -1.7002
  233MOL0     H32127   8.837   9.226   6.653 -0.2584 -0.8152 -0.1091
  233MOL0     H32128   8.634   9.456   6.687  1.3041  0.6536  0.9222
  233MOL0     H32129   8.768   9.387   6.794 -0.0788  0.5339 -0.3025
  233MOL0     H32130   8.628   9.177   6.790  0.0612  0.0530  2.7687
  233MOL0     H32131   8.519   9.259   6.678 -1.6038  1.7990  0.7895
  233MOL0     H32132   8.428   9.257   6.905 -0.9543 -0.4120 -2.4046
  233MOL0     H32133   8.482   9.419   6.882  2.7888  0.2912 -2.3532
  233MOL0     H32134   9.232   9.357   6.230  0.0987 -1.0345 -1.5724
  233MOL0     H32135   9.389   9.284   6.077  4.2107  0.2519 -0.8084
  233MOL0     H32136   9.765   9.527   5.811  0.4978  1.5176 -1.9566
  233MOL0     H32137   9.933   9.505   5.669 -0.1047  0.3746  0.0936
  233MOL0     H32138  10.424  10.074   6.260  1.9065 -1.6030 -2.5129
  233MOL0     H32139  10.238  10.007   6.419 -0.9759 -2.6861  1.0404
  233MOL0     H32140   9.968   9.760   6.591  1.8418 -2.4147 -2.0886
  233MOL0     H32141   9.786   9.714   6.717  0.7735  2.6767 -0.4212
  233MOL0     H32142   9.623   9.519   7.025  2.8124  1.7477  1.5471
  233MOL0     H32143   9.633   9.620   6.886  1.6443  0.9592  1.1556
  233MOL0     H32144   9.791   9.361   6.908  1.9212 -0.5429 -1.4024
  233MOL0     H32145   9.763   9.440   6.752  0.7539 -0.8108  0.3101
  233MOL0     H32146   9.562   9.303   6.928  1.3232 -1.5198  0.8687
  233MOL0     H32147   9.522   9.413   6.792  1.2397  1.8555  1.9420
  233MOL0     H32148   9.536   9.145   6.761 -0.7942  0.0739 -1.1724
  233MOL0     H32149   9.713   9.176   6.756 -0.1856 -0.4860  1.1188
  233MOL0     H32150   9.542   9.278   6.378 -1.4643  1.0142  0.1250
  233MOL0     H32151  10.043   9.615   7.055 -0.4755 -1.3180 -0.3783
  233MOL0     H32152  10.281   9.661   7.061  2.9848  2.1164  0.4785
  233MOL0     H32153  10.354   9.653   6.899 -0.1304  1.8436 -1.1040
  233MOL0     H32154  10.302   9.805   6.961  1.4903 -0.3026  1.9008
  234MOL0     O32155   0.777   4.660   2.212  0.2253  0.3089 -0.3329
  234MOL0     C32156   0.845   4.663   2.113 -0.3897 -0.2297 -0.6256
  234MOL0     O32157   0.971   4.623   2.111  0.5119 -0.3624  0.1484
  234MOL0     C32158   1.025   4.568   2.224 -0.2366 -0.1351  0.3738
  234MOL0     C32159   1.143   4.619   2.283 -0.6491 -0.2048 -0.0231
  234MOL0     C32160   1.217   4.551   2.379 -0.0146 -0.0708  0.7211
  234MOL0     C32161   1.159   4.436   2.437 -0.6407 -0.6788 -0.3338
  234MOL0     O32162   1.230   4.375   2.536  0.4100  0.1172  0.4556
  234MOL0     C32163   1.158   4.315   2.649  0.1769 -0.4172 -0.1172
  234MOL0     C32164   1.248   4.212   2.711 -0.4307  0.2421 -0.0994
  234MOL0     C32165   1.275   4.096   2.613  0.2796  0.2407  0.7370
  234MOL0     C32166   1.278   3.969   2.694 -0.5326  0.7242  0.4656
  234MOL0     C32167   1.418   3.950   2.771 -0.5927  0.5704 -0.5728
  234MOL0     C32168   1.450   3.805   2.799  0.1060  0.1526 -0.3407
  234MOL0     C32169   1.568   3.794   2.899  0.5806  0.5586  0.3397
  234MOL0     C32170   1.700   3.822   2.829 -0.0185 -0.2009 -0.0733
  234MOL0     N32171   1.814   3.766   2.900 -0.4114 -0.0254 -0.1360
  234MOL0     C32172   1.852   3.632   2.895  0.7534  0.3510  0.0913
  234MOL0     C32173   1.953   3.623   2.982 -0.4472  0.6749 -0.3895
  234MOL0     C32174   2.014   3.492   3.006 -1.0702  0.2259 -0.0319
  234MOL0     C32175   2.164   3.511   3.057 -0.1371  0.2764 -0.3641
  234MOL0     C32176   2.218   3.378   3.102 -0.2495  0.4888 -0.5274
  234MOL0     C32177   2.369   3.367   3.130 -0.6842  0.0275 -0.5008
  234MOL0     O32178   2.442   3.371   3.013 -0.5703  0.2310  0.3752
  234MOL0     C32179   2.572   3.412   3.014 -0.1549  0.1060 -0.2242
  234MOL0     C32180   2.662   3.368   3.116 -0.3358 -0.7923  0.1930
  234MOL0     C32181   2.798   3.399   3.105  0.5490 -0.0678 -0.8487
  234MOL0     C32182   2.886   3.350   3.222 -0.1746 -0.4366  0.8700
  234MOL0     C32183   2.850   3.475   3.003 -0.8531  0.4789 -0.2584
  234MOL0     C32184   2.994   3.503   2.980 -0.0809 -0.0033 -0.3805
  234MOL0     O32185   3.022   3.613   2.907 -0.2553 -0.6323 -0.0528
  234MOL0     C32186   3.137   3.647   2.843  0.4186 -0.5803 -0.6010
  234MOL0     C32187   3.131   3.766   2.775  0.4254  0.1310  0.9573
  234MOL0     C32188   3.235   3.809   2.694  0.2840  0.7287 -0.1154
  234MOL0     C32189   3.355   3.730   2.685  0.3500  0.4302 -0.2999
  234MOL0     O32190   3.448   3.778   2.590  0.2138  0.2534 -0.5292
  234MOL0     C32191   3.572   3.707   2.580  0.2094  0.5994 -0.5775
  234MOL0     C32192   3.662   3.796   2.504  0.0433  0.0739 -0.6531
  234MOL0     C32193   3.798   3.726   2.463 -0.0061 -0.0698  0.7585
  234MOL0     C32194   3.851   3.800   2.343 -1.4562 -1.3798 -0.1192
  234MOL0     C32195   3.979   3.732   2.271 -0.6840  0.5376 -0.4427
  234MOL0     C32196   4.026   3.818   2.154 -0.8703 -0.1687 -0.1610
  234MOL0     C32197   4.166   3.763   2.108 -0.1915 -0.6197  0.8774
  234MOL0     C32198   4.210   3.823   1.974 -0.4732 -0.3224  0.1962
  234MOL0    Cl32199   4.351   3.751   1.913 -0.3222 -0.2423 -0.4858
  234MOL0     C32200   3.356   3.615   2.763 -0.1355  0.4600  0.7627
  234MOL0     C32201   3.253   3.575   2.836  0.0327  0.4799  0.1961
  234MOL0     O32202   3.080   3.439   3.031 -0.0582  0.1836  0.6438
  234MOL0     C32203   2.755   3.525   2.909 -0.2396 -0.5932  0.0613
  234MOL0     C32204   2.619   3.494   2.909  0.6835  0.1631  0.0620
  234MOL0     N32205   1.986   3.746   3.035 -0.4222 -0.2500 -0.1324
  234MOL0     N32206   1.900   3.829   2.985  0.4450 -0.6494 -0.7690
  234MOL0     C32207   1.032   4.398   2.402  0.3486 -0.4805  1.1265
  234MOL0     C32208   0.971   4.457   2.287 -0.1528  0.9279  0.6254
  234MOL0     C32209   0.796   4.714   1.985  0.7982 -0.0092  0.1239
  234MOL0     C32210   0.888   4.798   1.918 -0.4499 -0.7430  0.1797
  234MOL0     C32211   0.852   4.867   1.798 -0.6891  0.6706 -0.0943
  234MOL0     C32212   0.734   4.838   1.740  0.1114  0.1139  0.1035
  234MOL0     O32213   0.701   4.897   1.622  0.7723 -0.2329 -0.2539
  234MOL0     C32214   0.667   5.041   1.625 -0.0529  0.6572  1.0476
  234MOL0     C32215   0.527   5.065   1.679 -0.0732 -0.0227  0.0244
  234MOL0     C32216   0.405   5.077   1.578 -0.4762 -1.2294  0.5866
  234MOL0     C32217   0.281   5.110   1.654  0.9499  0.2471 -0.0129
  234MOL0     C32218   0.158   5.088   1.572  0.4404  0.5923  0.3241
  234MOL0     C32219   0.051   5.069   1.518 -0.0986  0.3298  0.1401
  234MOL0     C32220   0.652   4.743   1.801  1.0194  0.1686 -0.2909
  234MOL0     C32221   0.671   4.681   1.927 -0.6669 -0.7685 -0.4711
  234MOL0     C32222   0.562   4.620   2.001  1.0582 -0.8592  0.5209
  234MOL0     H32223   1.193   4.699   2.228 -1.3495  0.8816  0.8773
  234MOL0     H32224   1.312   4.598   2.404  0.7700 -0.1973 -1.7881
  234MOL0     H32225   1.063   4.262   2.632  0.2725 -1.0443  1.1995
  234MOL0     H32226   1.133   4.396   2.718  0.9926  0.7226 -1.1014
  234MOL0     H32227   1.337   4.262   2.752  0.5888 -1.7836  0.2881
  234MOL0     H32228   1.194   4.175   2.798 -0.5263 -0.5697 -0.4951
  234MOL0     H32229   1.188   4.090   2.547 -0.5155  2.7330  1.4895
  234MOL0     H32230   1.367   4.107   2.554  0.1040 -1.1446  0.1563
  234MOL0     H32231   1.184   3.960   2.749 -0.5540 -1.1565  0.1984
  234MOL0     H32232   1.262   3.888   2.622  0.4693  0.4769  0.5007
  234MOL0     H32233   1.414   3.996   2.871  2.5576  0.7368 -0.4091
  234MOL0     H32234   1.490   3.999   2.704  0.0049  0.1301 -0.2693
  234MOL0     H32235   1.364   3.761   2.851  2.5966 -1.5390  2.6691
  234MOL0     H32236   1.474   3.747   2.709  3.6964 -2.4451  2.0032
  234MOL0     H32237   1.580   3.690   2.933 -0.2661  0.5683  0.6876
  234MOL0     H32238   1.560   3.859   2.986 -0.6792  1.2740 -0.2855
  234MOL0     H32239   1.699   3.780   2.728 -0.3988 -0.5899  0.0858
  234MOL0     H32240   1.706   3.931   2.823 -0.8256  0.0041  1.9210
  234MOL0     H32241   1.800   3.553   2.843 -1.6590  2.0899 -0.2827
  234MOL0     H32242   2.010   3.426   2.918  0.8847  1.5176 -1.1746
  234MOL0     H32243   1.955   3.447   3.086 -0.8198  0.9114  0.5483
  234MOL0     H32244   2.224   3.545   2.972  0.0173  1.8897  0.3504
  234MOL0     H32245   2.156   3.582   3.139  0.0157 -0.0387 -0.0747
  234MOL0     H32246   2.164   3.342   3.190 -0.7567  1.8213 -0.2720
  234MOL0     H32247   2.199   3.301   3.027  1.2742 -1.8675  1.3556
  234MOL0     H32248   2.398   3.441   3.205  0.2826 -1.2546  0.4305
  234MOL0     H32249   2.383   3.272   3.182  3.5913  0.9909  0.4284
  234MOL0     H32250   2.640   3.298   3.196  0.1632 -2.3392 -0.9737
  234MOL0     H32251   2.955   3.429   3.252  1.6809 -1.8947  0.5662
  234MOL0     H32252   2.938   3.261   3.185  0.8259 -0.1766  1.6309
  234MOL0     H32253   2.826   3.315   3.307  0.3373  1.7283  2.2079
  234MOL0     H32254   3.042   3.826   2.788  0.3975  0.4186 -0.4035
  234MOL0     H32255   3.230   3.912   2.660 -4.2580  1.5352  2.2747
  234MOL0     H32256   3.616   3.690   2.679  1.5295 -0.2131 -1.2712
  234MOL0     H32257   3.574   3.604   2.543  3.8490 -0.4150  1.8132
  234MOL0     H32258   3.606   3.823   2.414 -0.0237  0.7691 -0.4127
  234MOL0     H32259   3.699   3.877   2.568 -0.0159 -0.2003 -0.2720
  234MOL0     H32260   3.781   3.621   2.438 -0.7477 -0.0914  1.3088
  234MOL0     H32261   3.880   3.725   2.536  1.7595  0.0921 -1.1103
  234MOL0     H32262   3.880   3.900   2.377  1.1890 -1.5886 -1.5782
  234MOL0     H32263   3.776   3.805   2.263 -0.6872 -0.0352 -0.7799
  234MOL0     H32264   4.048   3.734   2.355 -1.9771 -0.4742  0.6997
  234MOL0     H32265   3.957   3.628   2.248 -0.0796 -0.3878  2.7579
  234MOL0     H32266   4.031   3.923   2.183 -5.2641  1.2220 -3.3412
  234MOL0     H32267   3.956   3.820   2.070  1.3369  0.3535 -2.0821
  234MOL0     H32268   4.152   3.655   2.105  1.9354 -1.0117  2.5108
  234MOL0     H32269   4.246   3.779   2.182 -0.2663 -1.3616  1.1171
  234MOL0     H32270   4.234   3.930   1.980  1.3467 -0.6887  0.0220
  234MOL0     H32271   4.129   3.816   1.901  0.2536 -2.8787 -0.4579
  234MOL0     H32272   3.443   3.550   2.762  0.1771  0.8156  2.2464
  234MOL0     H32273   3.257   3.479   2.886 -1.2836 -0.0543 -0.6479
  234MOL0     H32274   2.783   3.597   2.832 -4.9367  0.3413 -1.1194
  234MOL0     H32275   2.561   3.537   2.828 -1.2888 -1.6908  0.4040
  234MOL0     H32276   0.967   4.328   2.455 -4.6023  3.2907  0.8250
  234MOL0     H32277   0.876   4.421   2.250  0.2007  1.0110 -0.3765
  234MOL0     H32278   0.981   4.816   1.970 -0.0776  1.9662 -1.2269
  234MOL0     H32279   0.911   4.944   1.749 -3.0474  1.2003 -2.3041
  234MOL0     H32280   0.749   5.089   1.679  1.8257 -0.0808 -0.9835
  234MOL0     H32281   0.661   5.077   1.522 -1.3051  0.9976  1.2269
  234MOL0     H32282   0.532   5.167   1.718 -0.4193  1.6149 -3.7115
  234MOL0     H32283   0.501   4.985   1.748 -0.3375  0.4989  0.5399
  234MOL0     H32284   0.423   5.155   1.504 -0.4019 -0.6678  1.1937
  234MOL0     H32285   0.380   4.985   1.525 -3.5595  0.0924 -0.4520
  234MOL0     H32286   0.280   5.218   1.674 -2.4178  0.1951  0.6737
  234MOL0     H32287   0.277   5.058   1.750 -1.3091 -2.4540 -1.4314
  234MOL0     H32288  -0.042   5.041   1.473 -1.9061  1.7144  2.7137
  234MOL0     H32289   0.564   4.724   1.741  0.9222  1.4771 -0.6001
  234MOL0     H32290   0.598   4.532   2.057 -1.6445 -0.4587  3.0994
  234MOL0     H32291   0.524   4.687   2.079 -2.2609 -1.1576 -0.6922
  234MOL0     H32292   0.483   4.602   1.928 -0.7981  0.1534  2.1715
  235MOL0     O32293   3.078   0.243   6.776  0.0631 -0.6796 -0.0967
  235MOL0     C32294   3.102   0.229   6.897 -0.6920  0.3083  0.2264
  235MOL0     O32295   3.030   0.274   7.001 -0.2017 -0.0758 -0.0378
  235MOL0     C32296   2.928   0.352   6.965  0.5460  0.3619 -0.1536
  235MOL0     C32297   2.940   0.489   6.948  0.2593 -0.0403  0.0592
  235MOL0     C32298   2.827   0.559   6.911 -0.2142  0.3972  0.6996
  235MOL0     C32299   2.700   0.497   6.903 -0.2548 -0.0245 -0.5540
  235MOL0     O32300   2.583   0.571   6.898 -0.1832  0.4954  0.0995
  235MOL0     C32301   2.585   0.695   6.970 -0.3700 -0.6639 -0.5838
  235MOL0     C32302   2.438   0.757   6.975  0.1660 -0.0592  1.3207
  235MOL0     C32303   2.439   0.906   7.030 -0.0348 -0.2947 -0.2958
  235MOL0     C32304   2.452   1.010   6.918 -0.6004 -0.1694 -1.1711
  235MOL0     C32305   2.432   1.147   6.974 -0.9245  0.6273  0.3032
  235MOL0     C32306   2.487   1.257   6.870  0.6200 -0.4573  0.4347
  235MOL0     C32307   2.632   1.267   6.850 -0.6427  0.0980 -0.3489
  235MOL0     C32308   2.673   1.381   6.766  0.8564 -0.7206  0.1406
  235MOL0     N32309   2.817   1.373   6.730  0.6226  0.0113 -0.5469
  235MOL0     C32310   2.917   1.316   6.806  0.3536 -0.0535 -0.5189
  235MOL0     C32311   3.031   1.378   6.756 -0.1565 -0.3957  0.4286
  235MOL0     C32312   3.177   1.364   6.802  0.7146  0.7578 -0.9178
  235MOL0     C32313   3.247   1.220   6.770  0.4777 -0.0500  0.7054
  235MOL0     C32314   3.402   1.219   6.799  0.8731  0.0246 -0.8722
  235MOL0     C32315   3.439   1.270   6.944  0.0824 -0.0280  0.7522
  235MOL0     O32316   3.381   1.176   7.039 -0.3264 -0.1400 -0.0260
  235MOL0     C32317   3.469   1.088   7.106  0.0859  0.0863  0.4093
  235MOL0     C32318   3.423   0.992   7.198  0.6075  0.3782  0.1949
  235MOL0     C32319   3.488   0.887   7.249  0.7422 -0.5233  0.1173
  235MOL0     C32320   3.399   0.802   7.342  0.2128  0.7970  0.5527
  235MOL0     C32321   3.618   0.869   7.208 -1.3810 -0.3906  0.2600
  235MOL0     C32322   3.712   0.773   7.274  0.1350 -0.0777 -0.4336
  235MOL0     O32323   3.843   0.768   7.231  0.4526 -0.0391 -0.2221
  235MOL0     C32324   3.920   0.662   7.274 -0.2407 -0.2120 -0.5606
  235MOL0     C32325   3.914   0.532   7.218  0.1327 -0.0138  0.3398
  235MOL0     C32326   4.002   0.435   7.259 -0.2621  0.3537 -0.3990
  235MOL0     C32327   4.085   0.455   7.371  0.1844 -1.1829 -0.3023
  235MOL0     O32328   4.176   0.356   7.416 -1.0271  0.1726 -0.3853
  235MOL0     C32329   4.191   0.233   7.347  0.7277 -0.1149 -0.9695
  235MOL0     C32330   4.267   0.138   7.435 -0.3476  0.8055 -0.0656
  235MOL0     C32331   4.423   0.159   7.421  1.2335 -0.0516 -0.4036
  235MOL0     C32332   4.485   0.071   7.523 -0.8778  0.4241 -0.4073
  235MOL0     C32333   4.640   0.075   7.513  0.2838 -0.9375 -0.0290
  235MOL0     C32334   4.708   0.182   7.602 -0.6281  0.2327  0.4130
  235MOL0     C32335   4.863   0.175   7.612  0.7740  0.3760  0.4008
  235MOL0     C32336   4.921   0.230   7.744  0.1570 -0.3234 -0.6199
  235MOL0    Cl32337   5.096   0.264   7.730 -0.3422  0.0007 -0.3894
  235MOL0     C32338   4.089   0.583   7.434  1.1454  0.3063 -1.0059
  235MOL0     C32339   4.017   0.686   7.374  1.5371 -0.4251 -0.3180
  235MOL0     O32340   3.660   0.684   7.343  1.1130 -0.6834  0.5147
  235MOL0     C32341   3.671   0.955   7.108  0.1334 -0.3030  0.0551
  235MOL0     C32342   3.595   1.065   7.066 -0.1262  0.3616  0.6991
  235MOL0     N32343   2.999   1.458   6.641  0.7934 -0.2551  0.0136
  235MOL0     N32344   2.870   1.455   6.634 -0.3676  0.0578 -0.1560
  235MOL0     C32345   2.687   0.360   6.921 -0.0290  0.0363  0.2116
  235MOL0     C32346   2.795   0.290   6.948  0.0951 -0.4623  0.2437
  235MOL0     C32347   3.224   0.152   6.940 -0.3973 -0.3181  0.3929
  235MOL0     C32348   3.261   0.158   7.078 -1.2255 -0.0340 -1.0570
  235MOL0     C32349   3.368   0.085   7.130 -0.0245  1.0407 -0.0474
  235MOL0     C32350   3.442   0.003   7.044 -0.6094  1.1437 -0.3418
  235MOL0     O32351   3.533  -0.084   7.105  0.2762 -0.5334 -0.0891
  235MOL0     C32352   3.654  -0.113   7.030  0.0210  0.1634 -0.2069
  235MOL0     C32353   3.741  -0.206   7.113 -0.4750 -0.3200  0.3749
  235MOL0     C32354   3.822  -0.133   7.223  0.3933  0.8500 -0.0341
  235MOL0     C32355   3.920  -0.224   7.300 -0.8699  0.2396  0.9780
  235MOL0     C32356   4.014  -0.276   7.211 -0.5101  1.0609 -0.1260
  235MOL0     C32357   4.104  -0.326   7.152  0.1681 -0.6505  0.8091
  235MOL0     C32358   3.417   0.006   6.909  0.3726  0.4730 -0.4288
  235MOL0     C32359   3.305   0.067   6.857  0.0074  0.4183  0.0516
  235MOL0     C32360   3.274   0.033   6.706  0.2788 -0.0563  0.1333
  235MOL0     H32361   3.027   0.549   6.971 -1.5997  2.1852  1.8732
  235MOL0     H32362   2.848   0.663   6.888  1.4140 -0.5789 -3.0208
  235MOL0     H32363   2.647   0.764   6.912 -1.5264 -1.6531 -3.1487
  235MOL0     H32364   2.610   0.679   7.075  0.3523  3.6318  0.0631
  235MOL0     H32365   2.405   0.752   6.871 -3.4962 -2.3019  2.4041
  235MOL0     H32366   2.364   0.695   7.026  0.8265 -0.6451  1.5886
  235MOL0     H32367   2.343   0.925   7.078 -0.1042  2.1233 -1.2605
  235MOL0     H32368   2.514   0.915   7.110  1.0291  1.0598 -1.3982
  235MOL0     H32369   2.554   1.002   6.881 -1.4013 -0.9819 -3.4090
  235MOL0     H32370   2.384   0.984   6.836  0.3291 -0.1714 -1.9495
  235MOL0     H32371   2.487   1.163   7.067 -3.2036 -0.2362  1.8905
  235MOL0     H32372   2.328   1.164   7.002 -2.0632  1.3290 -3.6763
  235MOL0     H32373   2.439   1.252   6.772  1.1083  0.2428  0.1562
  235MOL0     H32374   2.454   1.358   6.898 -0.4247 -0.8258  0.5950
  235MOL0     H32375   2.676   1.177   6.807 -1.9034 -0.8916  0.3317
  235MOL0     H32376   2.678   1.291   6.946 -1.3358  0.9905 -0.2190
  235MOL0     H32377   2.622   1.378   6.670 -0.8567 -0.4452  1.0078
  235MOL0     H32378   2.650   1.474   6.819  0.0458 -1.2007  0.6551
  235MOL0     H32379   2.905   1.256   6.896 -1.4933  0.5445 -0.3243
  235MOL0     H32380   3.182   1.371   6.911  1.2110 -2.8703 -0.5635
  235MOL0     H32381   3.246   1.441   6.767  3.9782 -1.9963 -1.0512
  235MOL0     H32382   3.200   1.144   6.834  1.4500 -2.4657 -1.2989
  235MOL0     H32383   3.215   1.197   6.669 -0.5994 -0.0738  1.0367
  235MOL0     H32384   3.441   1.117   6.791  0.1790 -0.7426  3.1836
  235MOL0     H32385   3.456   1.282   6.728  1.7260  1.4575  0.9553
  235MOL0     H32386   3.546   1.284   6.965  0.6246 -3.1532  0.5369
  235MOL0     H32387   3.386   1.358   6.982 -1.9972 -1.3383  1.0744
  235MOL0     H32388   3.318   1.002   7.221 -0.4032 -2.0110 -2.7643
  235MOL0     H32389   3.302   0.849   7.363  0.4768  0.6485  2.2599
  235MOL0     H32390   3.445   0.770   7.436  1.6927 -4.7008 -1.6266
  235MOL0     H32391   3.382   0.710   7.286  0.9752  2.6578 -2.9818
  235MOL0     H32392   3.838   0.527   7.141  0.7830  0.3380 -0.3266
  235MOL0     H32393   4.002   0.335   7.217 -0.2722 -0.7264  2.0504
  235MOL0     H32394   4.096   0.179   7.344  0.5390  0.1172  0.2056
  235MOL0     H32395   4.244   0.251   7.253  1.5662  1.1476 -0.2821
  235MOL0     H32396   4.235   0.149   7.539  2.6807 -0.2836  1.1001
  235MOL0     H32397   4.251   0.035   7.402  1.0616 -0.1624  2.0100
  235MOL0     H32398   4.439   0.265   7.440  0.0272  0.5298 -2.3081
  235MOL0     H32399   4.459   0.128   7.323  2.0431 -1.4001  0.2974
  235MOL0     H32400   4.438  -0.028   7.518 -2.8347  0.9794  3.3719
  235MOL0     H32401   4.463   0.114   7.621 -2.2797  1.2072 -1.0406
  235MOL0     H32402   4.673  -0.025   7.544  1.0457 -0.0928  2.1297
  235MOL0     H32403   4.671   0.093   7.410  0.2314 -2.6854 -0.3708
  235MOL0     H32404   4.676   0.175   7.707 -3.1886 -4.5915 -0.3459
  235MOL0     H32405   4.688   0.281   7.561  0.2060  1.5644  3.0018
  235MOL0     H32406   4.908   0.234   7.531  0.6162  1.8877  1.3854
  235MOL0     H32407   4.904   0.074   7.604  2.6948  1.0465  1.1734
  235MOL0     H32408   4.902   0.162   7.827  2.1598 -2.0143 -1.4627
  235MOL0     H32409   4.867   0.325   7.753 -1.6651 -1.5142  2.7493
  235MOL0     H32410   4.164   0.603   7.510  0.6615  2.5704 -1.0659
  235MOL0     H32411   4.018   0.785   7.416 -4.4372  0.3509 -1.1113
  235MOL0     H32412   3.774   0.948   7.074  0.0278  0.3912 -0.4284
  235MOL0     H32413   3.640   1.123   6.986  0.9222 -1.3064  0.0244
  235MOL0     H32414   2.592   0.307   6.924  0.9380 -1.7143  1.7895
  235MOL0     H32415   2.787   0.184   6.968  0.4054 -0.5451 -0.0484
  235MOL0     H32416   3.207   0.206   7.159 -0.1446 -1.0593  0.3261
  235MOL0     H32417   3.382   0.082   7.238  2.2651  4.5109 -0.0994
  235MOL0     H32418   3.632  -0.153   6.931  1.8653 -0.7327 -0.2938
  235MOL0     H32419   3.716  -0.026   7.008  1.2057 -0.8682 -1.0551
  235MOL0     H32420   3.810  -0.260   7.047  1.2109  0.2034  1.6625
  235MOL0     H32421   3.676  -0.279   7.161 -1.3810 -1.1369 -1.9280
  235MOL0     H32422   3.881  -0.048   7.186  0.2126  0.0707 -2.2944
  235MOL0     H32423   3.749  -0.089   7.292 -2.3405 -0.9833 -1.5452
  235MOL0     H32424   3.884  -0.310   7.356  0.8891 -0.3719  1.2239
  235MOL0     H32425   3.973  -0.166   7.377  0.0431 -1.4488  1.6881
  235MOL0     H32426   4.194  -0.353   7.101  0.1210  1.5535 -0.6026
  235MOL0     H32427   3.481  -0.044   6.837  4.3954 -0.4612  3.3587
  235MOL0     H32428   3.197  -0.045   6.699 -0.2738  0.5482 -0.7221
  235MOL0     H32429   3.235   0.123   6.656 -3.3618 -1.1214  0.7440
  235MOL0     H32430   3.365   0.003   6.652 -0.3291  0.0897 -1.0026
  236MOL0     O32431   2.593   4.274   0.556 -0.2434 -0.1496  0.1673
  236MOL0     C32432   2.542   4.366   0.489 -0.6090 -0.2060  0.0030
  236MOL0     O32433   2.533   4.377   0.357 -0.0574  0.5087  0.6608
  236MOL0     C32434   2.601   4.286   0.277  0.4523  0.2586 -0.3351
  236MOL0     C32435   2.721   4.332   0.226  0.6201 -0.2994 -0.0215
  236MOL0     C32436   2.804   4.245   0.155 -0.2624  1.0175 -1.1594
  236MOL0     C32437   2.763   4.111   0.134 -0.7700 -0.3810 -0.3836
  236MOL0     O32438   2.851   4.033   0.064 -0.2079  0.0990  0.0364
  236MOL0     C32439   2.806   3.912  -0.007  0.9054 -0.0566  0.0236
  236MOL0     C32440   2.928   3.845  -0.057 -0.5043 -1.2031 -0.4308
  236MOL0     C32441   2.915   3.729  -0.157 -0.3839 -0.6278 -0.1370
  236MOL0     C32442   3.030   3.748  -0.256 -1.2540 -0.3216  0.5929
  236MOL0     C32443   3.038   3.654  -0.379  0.0845 -0.7465  0.8107
  236MOL0     C32444   3.160   3.680  -0.469 -0.3707 -0.1682  0.1326
  236MOL0     C32445   3.203   3.557  -0.556  0.1057 -0.1929 -1.5162
  236MOL0     C32446   3.352   3.560  -0.613  0.0413  0.0338  0.9567
  236MOL0     N32447   3.372   3.656  -0.724 -0.1451 -0.1738  0.1540
  236MOL0     C32448   3.466   3.635  -0.830  0.2638  0.3508  0.8892
  236MOL0     C32449   3.436   3.733  -0.925 -0.9724  0.0513  0.4731
  236MOL0     C32450   3.500   3.731  -1.059 -0.7296 -0.2782  0.8686
  236MOL0     C32451   3.601   3.846  -1.093 -0.2581 -0.5726  0.5132
  236MOL0     C32452   3.671   3.837  -1.228 -1.1359 -0.4853  0.9307
  236MOL0     C32453   3.767   3.708  -1.239  0.1725 -1.3989 -0.4109
  236MOL0     O32454   3.840   3.716  -1.117 -0.2053  0.4998 -0.0546
  236MOL0     C32455   3.940   3.631  -1.098  0.2970 -0.9820  0.3835
  236MOL0     C32456   4.000   3.546  -1.197  0.2187  1.3431 -0.2124
  236MOL0     C32457   4.114   3.464  -1.178 -0.2381 -0.2246 -0.9674
  236MOL0     C32458   4.150   3.348  -1.273  0.4859  0.8162  0.1265
  236MOL0     C32459   4.182   3.488  -1.053  0.6308 -0.0722 -0.0976
  236MOL0     C32460   4.322   3.430  -1.020  0.7722  0.2410 -0.3472
  236MOL0     O32461   4.338   3.402  -0.890 -0.1955  0.0027 -0.1731
  236MOL0     C32462   4.467   3.384  -0.832  0.3569 -0.8409  0.1043
  236MOL0     C32463   4.594   3.406  -0.897 -0.4624  0.7405  0.5858
  236MOL0     C32464   4.718   3.387  -0.827 -0.4966  0.1486  0.7384
  236MOL0     C32465   4.711   3.339  -0.700 -0.0144 -0.4732 -0.1995
  236MOL0     O32466   4.815   3.299  -0.626 -0.3276 -0.5271 -0.0324
  236MOL0     C32467   4.918   3.207  -0.684  0.4199  0.0329  0.4977
  236MOL0     C32468   5.031   3.278  -0.744 -0.0208 -0.1557  0.7364
  236MOL0     C32469   5.085   3.401  -0.660 -0.0715 -0.7987 -0.9278
  236MOL0     C32470   5.240   3.419  -0.673  0.0899 -0.1121 -0.4333
  236MOL0     C32471   5.289   3.547  -0.599 -0.5315  0.2286  0.1704
  236MOL0     C32472   5.434   3.530  -0.543 -0.1768  0.9161  0.7276
  236MOL0     C32473   5.444   3.629  -0.435 -0.4472 -0.5954  0.2764
  236MOL0     C32474   5.590   3.607  -0.388  0.0613 -0.3145  0.2026
  236MOL0    Cl32475   5.596   3.494  -0.246 -0.3743 -0.3368 -0.4031
  236MOL0     C32476   4.594   3.309  -0.632 -0.0080 -0.1589  0.5802
  236MOL0     C32477   4.471   3.335  -0.700 -0.9481 -0.0610 -1.7408
  236MOL0     O32478   4.407   3.409  -1.107 -0.4499 -0.1894  0.4179
  236MOL0     C32479   4.123   3.573  -0.958 -0.3245 -0.1197  0.4289
  236MOL0     C32480   4.005   3.644  -0.976 -0.0956 -0.6154  0.2848
  236MOL0     N32481   3.323   3.802  -0.886  0.6538  0.3665 -0.5653
  236MOL0     N32482   3.278   3.755  -0.768 -0.1458  0.5309 -0.2269
  236MOL0     C32483   2.632   4.071   0.189 -0.5839  0.3181  0.7131
  236MOL0     C32484   2.560   4.160   0.261  0.3445  0.3173  0.9269
  236MOL0     C32485   2.468   4.462   0.580  0.4748 -0.9725  0.7275
  236MOL0     C32486   2.372   4.541   0.515 -0.4669  0.7511  0.1460
  236MOL0     C32487   2.315   4.661   0.574 -0.7920 -0.1333 -0.0557
  236MOL0     C32488   2.351   4.694   0.701  0.0718  0.0116 -0.4542
  236MOL0     O32489   2.298   4.803   0.764  0.4299  0.2239  0.8799
  236MOL0     C32490   2.337   4.835   0.897 -0.7654  0.2402  0.1347
  236MOL0     C32491   2.256   4.949   0.932  0.4045  0.2253 -0.1590
  236MOL0     C32492   2.102   4.929   0.916 -0.3614 -0.2046  0.2111
  236MOL0     C32493   2.047   4.951   0.777  0.5467  0.5459  0.6713
  236MOL0     C32494   1.905   4.911   0.774  0.4016 -0.1073  0.3376
  236MOL0     C32495   1.790   4.876   0.761 -0.7133 -0.7267 -0.2876
  236MOL0     C32496   2.442   4.610   0.770  0.2099 -0.2052  0.3119
  236MOL0     C32497   2.492   4.493   0.715 -0.9146  1.5362 -0.3750
  236MOL0     C32498   2.580   4.410   0.803  0.5725 -0.8069 -0.1341
  236MOL0     H32499   2.749   4.436   0.241  2.0938 -0.9475  2.3792
  236MOL0     H32500   2.900   4.284   0.121 -1.1552  2.9954 -1.5290
  236MOL0     H32501   2.745   3.953  -0.088  0.5438 -0.4479  0.0999
  236MOL0     H32502   2.752   3.839   0.053  0.6596  1.4293  1.6739
  236MOL0     H32503   2.985   3.926  -0.104 -1.8842  0.7935  1.1216
  236MOL0     H32504   2.984   3.818   0.033  0.4643  0.6003 -0.4418
  236MOL0     H32505   2.928   3.631  -0.111 -1.4565 -0.8529 -0.2880
  236MOL0     H32506   2.823   3.726  -0.217 -0.9283 -0.2084  0.6490
  236MOL0     H32507   3.025   3.845  -0.306  1.8717 -0.8629 -1.0114
  236MOL0     H32508   3.124   3.744  -0.200 -0.5639  2.1043 -0.2811
  236MOL0     H32509   2.942   3.659  -0.430 -1.4073  0.4004  3.5183
  236MOL0     H32510   3.041   3.549  -0.348  0.9187 -1.3083 -1.0589
  236MOL0     H32511   3.151   3.773  -0.526 -2.7050 -1.4633 -1.7625
  236MOL0     H32512   3.239   3.704  -0.397 -0.5671 -0.8952  0.5928
  236MOL0     H32513   3.138   3.552  -0.644  1.0565  1.1069 -2.3357
  236MOL0     H32514   3.194   3.469  -0.492 -2.6440  2.0167  1.4818
  236MOL0     H32515   3.427   3.583  -0.536  0.7889 -2.1462  0.9594
  236MOL0     H32516   3.373   3.459  -0.651 -0.2230  0.1296  0.5479
  236MOL0     H32517   3.540   3.555  -0.832  1.3655  1.3394  1.0352
  236MOL0     H32518   3.417   3.719  -1.128  0.8527 -0.8999 -1.0048
  236MOL0     H32519   3.543   3.632  -1.074 -0.6994 -0.2466  0.7450
  236MOL0     H32520   3.552   3.944  -1.091  2.9569  1.1748  0.8398
  236MOL0     H32521   3.678   3.841  -1.015 -0.7781  0.6452  1.1375
  236MOL0     H32522   3.598   3.851  -1.308  1.1166  2.0619 -0.8394
  236MOL0     H32523   3.735   3.926  -1.226  0.1235 -1.2833 -1.1592
  236MOL0     H32524   3.688   3.632  -1.239 -1.0162 -0.2535 -2.3809
  236MOL0     H32525   3.823   3.699  -1.332 -1.2787 -3.1704 -1.1815
  236MOL0     H32526   3.929   3.526  -1.277  0.5362 -1.8011  0.1625
  236MOL0     H32527   4.199   3.388  -1.362 -2.6828  1.6931 -1.3546
  236MOL0     H32528   4.059   3.294  -1.302  1.3436 -1.0152  0.7272
  236MOL0     H32529   4.220   3.279  -1.225  1.5913  2.3960  0.8637
  236MOL0     H32530   4.606   3.468  -0.984 -0.8775  1.7792  1.2528
  236MOL0     H32531   4.815   3.402  -0.872  0.5423 -0.7018  2.5992
  236MOL0     H32532   4.962   3.131  -0.619  0.9554 -1.3455 -1.3774
  236MOL0     H32533   4.880   3.142  -0.763  3.6845 -1.8493  0.2834
  236MOL0     H32534   5.114   3.207  -0.751  2.0203  2.0928  0.8849
  236MOL0     H32535   5.011   3.310  -0.846  1.7395 -2.2930 -0.3518
  236MOL0     H32536   5.060   3.395  -0.554 -3.1385 -3.9602 -1.6608
  236MOL0     H32537   5.037   3.494  -0.693  2.4143  0.6566 -0.7016
  236MOL0     H32538   5.263   3.422  -0.779  3.2474 -1.5996  0.0887
  236MOL0     H32539   5.294   3.332  -0.634 -0.0951 -0.1817 -0.3304
  236MOL0     H32540   5.284   3.632  -0.668 -0.7977 -1.4952 -2.0639
  236MOL0     H32541   5.231   3.571  -0.509  0.0519  0.9946  0.3521
  236MOL0     H32542   5.497   3.569  -0.623 -0.5866  0.9931  0.4376
  236MOL0     H32543   5.451   3.424  -0.523 -0.0449  0.8864  0.4506
  236MOL0     H32544   5.372   3.626  -0.353  1.5348  0.6553  2.1672
  236MOL0     H32545   5.443   3.731  -0.474  0.6274 -0.2478  1.1080
  236MOL0     H32546   5.620   3.703  -0.345 -2.1009 -0.2531  1.7478
  236MOL0     H32547   5.663   3.576  -0.463  0.6907 -0.3435  0.8081
  236MOL0     H32548   4.598   3.257  -0.537 -5.1967 -2.1734  0.0284
  236MOL0     H32549   4.383   3.311  -0.642  0.2872 -1.9566 -0.5293
  236MOL0     H32550   4.172   3.606  -0.867 -0.2830  2.3098 -0.4012
  236MOL0     H32551   3.970   3.725  -0.915  0.6774 -0.5650  0.6742
  236MOL0     H32552   2.583   3.980   0.159  0.8191 -1.1720  2.6689
  236MOL0     H32553   2.460   4.132   0.293  0.3440  0.6371  1.2147
  236MOL0     H32554   2.341   4.509   0.416 -0.8778 -0.3254  0.5969
  236MOL0     H32555   2.250   4.726   0.517 -1.1781  1.2469  1.8566
  236MOL0     H32556   2.306   4.759   0.970  0.2069  1.5750  2.0004
  236MOL0     H32557   2.442   4.864   0.898 -0.4767 -0.7848  0.8956
  236MOL0     H32558   2.286   5.031   0.866  0.8846  0.7825  0.7377
  236MOL0     H32559   2.290   4.986   1.029  0.3452 -1.3507  0.4913
  236MOL0     H32560   2.073   4.829   0.952 -2.4181 -0.4688 -1.9290
  236MOL0     H32561   2.056   4.999   0.986 -1.0077 -0.1941 -0.2182
  236MOL0     H32562   2.098   4.901   0.694  0.6944 -1.7467  2.0485
  236MOL0     H32563   2.053   5.059   0.761  1.9477  0.3141 -0.5541
  236MOL0     H32564   1.688   4.847   0.746 -0.7891 -0.5336 -0.1467
  236MOL0     H32565   2.468   4.633   0.873 -1.7347  1.7381  0.4557
  236MOL0     H32566   2.674   4.380   0.755  2.8482 -0.5945  3.7217
  236MOL0     H32567   2.608   4.453   0.900  1.9217  1.3898 -1.4259
  236MOL0     H32568   2.526   4.324   0.843  1.3661 -0.5873  1.4832
  237MOL0     O32569   3.857   1.272   3.925 -0.0630  0.0089 -0.6834
  237MOL0     C32570   3.973   1.225   3.919  0.7107  0.3710  1.6479
  237MOL0     O32571   4.086   1.299   3.915  0.5901  0.6091  0.1058
  237MOL0     C32572   4.093   1.428   3.949  0.0136  0.6531 -0.7104
  237MOL0     C32573   4.017   1.508   4.025 -0.2137 -0.2240  0.0201
  237MOL0     C32574   4.062   1.635   4.044  0.6286  0.0075  0.1346
  237MOL0     C32575   4.184   1.679   4.004  0.1004 -0.6865  0.0443
  237MOL0     O32576   4.218   1.806   4.034 -0.0211 -0.1629  0.2072
  237MOL0     C32577   4.343   1.807   4.111 -0.1073  0.3626  0.4270
  237MOL0     C32578   4.358   1.939   4.169  0.1426 -0.8882  0.1245
  237MOL0     C32579   4.499   1.946   4.238  0.4792  0.0566 -0.0075
  237MOL0     C32580   4.531   2.087   4.276  0.9035 -0.5158 -0.4888
  237MOL0     C32581   4.642   2.105   4.374  0.3174 -0.5225 -0.7591
  237MOL0     C32582   4.669   2.254   4.394  0.1917 -0.1059  0.2300
  237MOL0     C32583   4.782   2.284   4.494  0.2587  0.0116  0.6240
  237MOL0     C32584   4.828   2.425   4.496 -0.5739 -0.6858  0.4665
  237MOL0     N32585   4.931   2.448   4.394 -0.3573 -0.1320 -0.3794
  237MOL0     C32586   5.053   2.386   4.396 -0.7089 -0.5031  0.8874
  237MOL0     C32587   5.109   2.415   4.266  0.8850  0.3908  0.0161
  237MOL0     C32588   5.224   2.358   4.201 -0.8245 -1.0570  0.0800
  237MOL0     C32589   5.348   2.448   4.228 -0.2364  0.5491 -0.2465
  237MOL0     C32590   5.469   2.367   4.183  0.1724 -0.6960  0.6659
  237MOL0     C32591   5.591   2.450   4.205 -0.3325  0.0841  0.1016
  237MOL0     O32592   5.706   2.383   4.154  0.1433  0.2392 -0.6951
  237MOL0     C32593   5.831   2.446   4.146  0.0747  0.0184  0.6362
  237MOL0     C32594   5.935   2.362   4.098  0.3139  0.1073 -0.7747
  237MOL0     C32595   6.064   2.401   4.065  0.0793 -0.7535 -1.0092
  237MOL0     C32596   6.155   2.300   3.998  0.1589  0.2937  0.4166
  237MOL0     C32597   6.099   2.534   4.092  0.8187  0.0276  0.3676
  237MOL0     C32598   6.238   2.588   4.085 -1.0281  0.9100 -0.8262
  237MOL0     O32599   6.258   2.713   4.048  0.1925 -0.0138 -0.4130
  237MOL0     C32600   6.372   2.783   4.094  0.3428 -0.0101 -0.3121
  237MOL0     C32601   6.417   2.767   4.227  0.6727  0.2648  0.7548
  237MOL0     C32602   6.509   2.856   4.269 -0.5745 -0.1054  0.2340
  237MOL0     C32603   6.569   2.949   4.186 -0.4503  0.3205  0.1060
  237MOL0     O32604   6.673   3.032   4.226  0.3482 -0.2969  0.1569
  237MOL0     C32605   6.780   2.958   4.292 -0.2755  0.5830 -0.1869
  237MOL0     C32606   6.883   3.056   4.363  0.1223 -0.7502 -0.2193
  237MOL0     C32607   6.839   3.085   4.503  0.3554 -0.9128 -0.4948
  237MOL0     C32608   6.904   3.204   4.567  0.2634  0.4895 -0.2079
  237MOL0     C32609   7.029   3.177   4.649  1.0569  0.2921  0.0116
  237MOL0     C32610   7.163   3.202   4.577 -0.3990  0.5592  0.5505
  237MOL0     C32611   7.286   3.203   4.671 -0.5113  0.1211  0.7019
  237MOL0     C32612   7.410   3.251   4.607 -0.0486  0.7247 -0.5596
  237MOL0    Cl32613   7.422   3.417   4.559 -0.2140  0.1575  0.0916
  237MOL0     C32614   6.528   2.968   4.051 -0.7716 -0.8402 -0.8266
  237MOL0     C32615   6.427   2.884   4.014  0.4809 -0.2311  0.2135
  237MOL0     O32616   6.327   2.504   4.124 -0.1386 -0.1515  0.0255
  237MOL0     C32617   5.996   2.622   4.150 -0.1998  0.0446  0.6725
  237MOL0     C32618   5.866   2.577   4.182  0.5510  0.0978 -0.8559
  237MOL0     N32619   5.021   2.492   4.197 -0.6872 -0.1357 -0.6670
  237MOL0     N32620   4.916   2.517   4.270  0.0715  0.0767  0.1385
  237MOL0     C32621   4.261   1.603   3.918  0.7740 -0.4641 -0.3878
  237MOL0     C32622   4.213   1.474   3.887 -0.0824  0.6124 -0.2367
  237MOL0     C32623   3.985   1.086   3.883 -0.5105 -0.6989  0.0612
  237MOL0     C32624   4.059   1.055   3.765 -0.9072 -0.0704 -0.2115
  237MOL0     C32625   4.077   0.923   3.720  0.1557 -0.4298  1.5528
  237MOL0     C32626   4.030   0.814   3.789  0.6139 -0.0836 -0.7898
  237MOL0     O32627   4.040   0.682   3.756 -0.3659 -0.0292  0.5883
  237MOL0     C32628   4.142   0.642   3.672 -0.2203  0.0808 -0.4963
  237MOL0     C32629   4.138   0.493   3.657 -0.1460 -0.1791  0.0785
  237MOL0     C32630   4.263   0.430   3.588 -0.9598 -0.2124 -0.5936
  237MOL0     C32631   4.244   0.287   3.545 -0.0711 -0.2190 -0.0758
  237MOL0     C32632   4.114   0.246   3.495 -0.0631  0.2405  0.2819
  237MOL0     C32633   4.035   0.175   3.440  0.0567 -0.3128 -0.5052
  237MOL0     C32634   3.966   0.842   3.919  0.3282  0.0187 -0.3112
  237MOL0     C32635   3.937   0.972   3.955  0.1127 -0.1297  0.1829
  237MOL0     C32636   3.855   0.986   4.085 -0.1036 -0.7335  0.3606
  237MOL0     H32637   3.922   1.471   4.061  0.1631  0.3972  1.7141
  237MOL0     H32638   4.008   1.707   4.105  1.3842  1.6795 -1.0745
  237MOL0     H32639   4.430   1.776   4.054  1.1530 -1.6608  3.2196
  237MOL0     H32640   4.342   1.742   4.199  1.5542  0.5671  0.6158
  237MOL0     H32641   4.360   2.010   4.086  0.8270 -0.9557  0.0778
  237MOL0     H32642   4.274   1.959   4.236 -0.2161  0.9918 -0.8116
  237MOL0     H32643   4.504   1.882   4.327  1.4431  2.1363  1.5369
  237MOL0     H32644   4.576   1.918   4.166  1.2523 -1.9421  1.5093
  237MOL0     H32645   4.548   2.144   4.185  0.4600  1.7778  0.7875
  237MOL0     H32646   4.442   2.141   4.310  0.2875 -1.7660 -0.0546
  237MOL0     H32647   4.728   2.060   4.323 -1.0658 -0.9762 -2.7696
  237MOL0     H32648   4.615   2.052   4.466 -1.2810  1.3941 -0.0311
  237MOL0     H32649   4.690   2.295   4.294 -1.7060 -1.3724 -0.7507
  237MOL0     H32650   4.580   2.311   4.422  0.3793  0.7348 -0.7943
  237MOL0     H32651   4.862   2.212   4.475 -0.2585 -0.6465  0.8937
  237MOL0     H32652   4.751   2.257   4.595  0.1423 -0.5108  0.4529
  237MOL0     H32653   4.749   2.497   4.472  2.9778  3.3530 -0.4045
  237MOL0     H32654   4.866   2.454   4.594  0.3218  0.7624 -0.2649
  237MOL0     H32655   5.091   2.313   4.466  1.3145  0.8545  1.2907
  237MOL0     H32656   5.207   2.346   4.093 -2.3268 -1.9878  0.3844
  237MOL0     H32657   5.235   2.255   4.237 -0.7145 -0.2170  2.5897
  237MOL0     H32658   5.332   2.545   4.181 -2.3504  0.6957  0.6902
  237MOL0     H32659   5.356   2.456   4.337  2.1774  0.9843 -0.3964
  237MOL0     H32660   5.465   2.274   4.241  0.9414 -0.2178  1.4922
  237MOL0     H32661   5.472   2.345   4.076 -1.6351 -1.1843  0.6788
  237MOL0     H32662   5.590   2.549   4.158  2.2642  0.8371  1.3964
  237MOL0     H32663   5.607   2.463   4.313 -0.9119 -2.8554  0.6222
  237MOL0     H32664   5.927   2.254   4.085  0.7720 -0.3869  2.2651
  237MOL0     H32665   6.093   2.238   3.933  0.8084 -2.2206  2.0682
  237MOL0     H32666   6.211   2.238   4.068  1.8515  0.7295 -0.5062
  237MOL0     H32667   6.235   2.341   3.936  2.9021 -4.7266  0.1306
  237MOL0     H32668   6.362   2.697   4.291  2.2009  0.2179  2.0798
  237MOL0     H32669   6.545   2.849   4.372  2.1552 -1.1920 -0.6930
  237MOL0     H32670   6.746   2.874   4.353 -1.8059 -1.0358 -3.1006
  237MOL0     H32671   6.838   2.904   4.217 -1.2143 -4.3653  2.2819
  237MOL0     H32672   6.983   3.013   4.366  0.6423  0.4144 -0.0606
  237MOL0     H32673   6.880   3.152   4.309  1.4732 -0.9192 -0.6391
  237MOL0     H32674   6.845   2.994   4.563  0.5610 -1.0776 -0.7601
  237MOL0     H32675   6.735   3.118   4.502  0.3924 -0.7994 -0.8112
  237MOL0     H32676   6.832   3.256   4.631  2.0114  2.0732  0.5670
  237MOL0     H32677   6.942   3.263   4.483  1.2707 -0.9138 -0.7871
  237MOL0     H32678   7.027   3.240   4.739  1.3788  0.8163 -0.3399
  237MOL0     H32679   7.014   3.081   4.699 -0.1533  1.3220  1.7572
  237MOL0     H32680   7.147   3.301   4.534 -2.9875  1.1956  2.7540
  237MOL0     H32681   7.185   3.127   4.500  2.7166 -0.4950  2.2908
  237MOL0     H32682   7.295   3.098   4.700  2.1287 -0.3085 -1.2889
  237MOL0     H32683   7.250   3.274   4.746 -2.6236  0.8062 -0.8529
  237MOL0     H32684   7.420   3.189   4.518 -0.5887 -3.1835  1.8472
  237MOL0     H32685   7.500   3.215   4.657 -0.6136 -1.3212 -0.8950
  237MOL0     H32686   6.573   3.037   3.981 -0.9766  2.6678  2.2123
  237MOL0     H32687   6.377   2.906   3.920 -0.9220  3.0907  1.5776
  237MOL0     H32688   6.020   2.726   4.172  0.6514 -0.2187  1.0356
  237MOL0     H32689   5.806   2.657   4.225 -2.7970 -3.0566  0.9057
  237MOL0     H32690   4.339   1.661   3.870 -0.4562  1.9499  0.3734
  237MOL0     H32691   4.278   1.421   3.817  2.6995  1.3231  1.6435
  237MOL0     H32692   4.103   1.136   3.708  0.6777  0.3553  1.4947
  237MOL0     H32693   4.135   0.914   3.629 -1.4557  0.2520  0.3980
  237MOL0     H32694   4.144   0.688   3.573 -1.3456  0.9347 -0.1447
  237MOL0     H32695   4.230   0.682   3.724 -1.3004  4.5940 -1.6803
  237MOL0     H32696   4.042   0.481   3.605  0.9998  1.8133 -2.7767
  237MOL0     H32697   4.126   0.447   3.755 -2.1096 -0.8112 -0.3977
  237MOL0     H32698   4.294   0.479   3.494 -2.7386 -0.6006 -1.4266
  237MOL0     H32699   4.350   0.434   3.655 -0.0862  2.5888 -1.7101
  237MOL0     H32700   4.279   0.214   3.619 -3.7056 -2.8326 -0.6587
  237MOL0     H32701   4.333   0.281   3.483  1.0743 -0.3646  1.5147
  237MOL0     H32702   3.976   0.090   3.411  0.4931 -0.7108 -0.2413
  237MOL0     H32703   3.934   0.759   3.981  1.2631 -1.3949 -1.6502
  237MOL0     H32704   3.766   0.924   4.068 -1.7485  1.1503  1.6437
  237MOL0     H32705   3.910   0.937   4.166  0.2394 -3.1970 -1.2465
  237MOL0     H32706   3.831   1.090   4.109 -0.8080 -0.5604 -0.9969
  238MOL0     O32707   7.977   9.563   5.881  0.1613  0.0723  0.7711
  238MOL0     C32708   7.924   9.539   5.771 -0.0457 -0.2142 -1.0632
  238MOL0     O32709   8.004   9.522   5.659  0.2297 -0.1382  0.3343
  238MOL0     C32710   8.139   9.545   5.672 -0.5095  0.4477  0.0787
  238MOL0     C32711   8.226   9.437   5.689 -0.2251  0.3039  0.6803
  238MOL0     C32712   8.369   9.450   5.698 -0.8863 -0.0679 -0.1440
  238MOL0     C32713   8.422   9.574   5.688 -0.8316 -0.4709 -0.6948
  238MOL0     O32714   8.557   9.594   5.700 -0.2114  0.4345 -0.3866
  238MOL0     C32715   8.630   9.538   5.597  0.0644 -0.1203 -0.8185
  238MOL0     C32716   8.764   9.495   5.646  0.8097 -0.1729  0.1046
  238MOL0     C32717   8.840   9.451   5.518 -0.2139  0.8364  0.4766
  238MOL0     C32718   8.943   9.347   5.557 -0.5620 -0.6756  0.4942
  238MOL0     C32719   9.017   9.311   5.425 -0.1702  0.7667 -0.5475
  238MOL0     C32720   9.098   9.176   5.444 -0.1659  0.1300 -0.4466
  238MOL0     C32721   9.179   9.154   5.319 -0.2081 -0.4347  0.2965
  238MOL0     C32722   9.246   9.016   5.303  0.0903 -0.5009 -0.6406
  238MOL0     N32723   9.342   8.991   5.412 -0.6342  0.2251 -0.0537
  238MOL0     C32724   9.437   9.074   5.455 -0.3855 -0.2584 -0.7073
  238MOL0     C32725   9.483   9.016   5.573  0.3025  0.7237  0.1169
  238MOL0     C32726   9.586   9.071   5.675  0.8176  0.2179 -0.4575
  238MOL0     C32727   9.725   9.007   5.649  1.1603 -1.0682 -0.1702
  238MOL0     C32728   9.778   9.059   5.512 -0.2762 -0.2324  0.1324
  238MOL0     C32729   9.911   8.982   5.474 -0.3221 -0.6566 -0.0992
  238MOL0     O32730   9.944   9.017   5.341 -0.0015  0.0440 -0.0472
  238MOL0     C32731  10.064   8.964   5.285  0.1040  0.0731  0.1476
  238MOL0     C32732  10.144   8.861   5.340 -1.2296 -0.1480 -0.6982
  238MOL0     C32733  10.258   8.807   5.274 -0.4137  0.4803 -0.2259
  238MOL0     C32734  10.347   8.718   5.355 -0.2792 -0.2733  0.2060
  238MOL0     C32735  10.287   8.849   5.146 -0.3272 -0.2207  0.9992
  238MOL0     C32736  10.405   8.823   5.056  0.9233 -0.1525  0.6781
  238MOL0     O32737  10.442   8.918   4.975  0.0037 -0.2505  0.0781
  238MOL0     C32738  10.536   8.910   4.876 -0.6300  0.1336 -0.7266
  238MOL0     C32739  10.507   8.961   4.747 -0.2845 -0.2939 -1.1819
  238MOL0     C32740  10.596   8.940   4.647 -0.1091  0.3062  0.4386
  238MOL0     C32741  10.722   8.877   4.669  0.8776 -0.7237 -0.4004
  238MOL0     O32742  10.802   8.863   4.553  0.7161  0.1407 -0.1318
  238MOL0     C32743  10.885   8.980   4.528  0.5230  0.0504 -0.7035
  238MOL0     C32744  11.001   8.954   4.429 -0.0698  0.0261 -0.3093
  238MOL0     C32745  11.095   9.083   4.426  0.4461  0.2300  0.4636
  238MOL0     C32746  11.174   9.103   4.299  0.5369 -0.3268 -0.1183
  238MOL0     C32747  11.294   9.010   4.302  0.8234 -0.6009  0.3577
  238MOL0     C32748  11.392   9.050   4.190  0.4412 -0.7956 -0.5353
  238MOL0     C32749  11.510   8.952   4.193 -0.2712 -0.2418  0.2518
  238MOL0     C32750  11.634   8.991   4.106  0.7088  0.8374 -0.2001
  238MOL0    Cl32751  11.727   8.844   4.067  0.0863  0.2410  0.2264
  238MOL0     C32752  10.755   8.845   4.796  0.0320  0.3558  0.6455
  238MOL0     C32753  10.663   8.858   4.901 -0.3614  0.3778  0.3366
  238MOL0     O32754  10.455   8.715   5.074 -0.3163 -0.0784  0.2261
  238MOL0     C32755  10.194   8.931   5.081 -0.0725 -0.1284 -0.2054
  238MOL0     C32756  10.088   8.992   5.150 -0.4700 -0.0902 -0.2220
  238MOL0     N32757   9.442   8.883   5.574 -0.3272  0.5203 -0.8075
  238MOL0     N32758   9.354   8.875   5.486  0.2153 -0.6266 -0.3874
  238MOL0     C32759   8.337   9.680   5.657 -0.1033  0.6890 -0.3831
  238MOL0     C32760   8.201   9.670   5.642 -0.6203  0.5222  0.5296
  238MOL0     C32761   7.788   9.482   5.778 -0.2195 -0.0047 -0.3368
  238MOL0     C32762   7.757   9.386   5.675  0.4622 -0.5013 -0.3327
  238MOL0     C32763   7.645   9.316   5.676  0.0268  0.0493 -0.5890
  238MOL0     C32764   7.546   9.329   5.777  0.3554 -0.2226 -0.1604
  238MOL0     O32765   7.433   9.249   5.766 -0.0558 -0.2976  0.5775
  238MOL0     C32766   7.314   9.286   5.836  0.1571  0.4945 -0.5452
  238MOL0     C32767   7.312   9.221   5.980  0.0014 -0.9767  0.3355
  238MOL0     C32768   7.195   9.278   6.069  0.3999  0.3589 -0.2752
  238MOL0     C32769   7.058   9.223   6.032 -0.0565  0.6026  1.0878
  238MOL0     C32770   6.998   9.278   5.913 -0.5716 -0.5668  0.5543
  238MOL0     C32771   6.955   9.328   5.811 -0.0557 -0.0380  0.2375
  238MOL0     C32772   7.573   9.428   5.873  0.0298 -0.8364  0.2235
  238MOL0     C32773   7.686   9.508   5.884 -0.2347 -0.8875  0.4704
  238MOL0     C32774   7.707   9.618   5.989 -0.0420  0.5599  0.2984
  238MOL0     H32775   8.187   9.339   5.713 -0.1365  0.2467  0.5905
  238MOL0     H32776   8.424   9.358   5.718 -1.1945 -0.5141 -1.2405
  238MOL0     H32777   8.630   9.603   5.508 -0.4408 -4.3147 -4.2181
  238MOL0     H32778   8.592   9.440   5.566 -0.6969  0.0323 -0.3884
  238MOL0     H32779   8.813   9.585   5.683 -0.7107  1.1632 -0.9805
  238MOL0     H32780   8.753   9.411   5.715 -3.0803 -0.3941 -0.5539
  238MOL0     H32781   8.770   9.407   5.446 -0.1371  0.2308  0.7631
  238MOL0     H32782   8.892   9.538   5.477 -0.9584  1.9562  1.8218
  238MOL0     H32783   9.018   9.391   5.625  0.3205  1.4911 -1.7361
  238MOL0     H32784   8.901   9.256   5.600  1.9076 -1.2640  1.9096
  238MOL0     H32785   9.085   9.392   5.398 -1.2250  1.7538 -0.3391
  238MOL0     H32786   8.948   9.291   5.343 -2.0530 -1.9924  1.4937
  238MOL0     H32787   9.163   9.184   5.531  2.2786 -0.2853 -2.1486
  238MOL0     H32788   9.028   9.093   5.458  0.7251 -0.2092  3.0747
  238MOL0     H32789   9.254   9.233   5.313  1.0401 -1.5417  0.8728
  238MOL0     H32790   9.106   9.173   5.239 -1.7076 -0.0890  1.6962
  238MOL0     H32791   9.174   8.935   5.297  1.6187 -2.1838  1.9496
  238MOL0     H32792   9.305   9.028   5.212  1.8681  0.4651  0.5669
  238MOL0     H32793   9.457   9.174   5.420 -1.2736 -0.5180 -2.0373
  238MOL0     H32794   9.552   9.052   5.777  1.4531 -1.2076 -0.4935
  238MOL0     H32795   9.592   9.179   5.656  0.2707  0.1609 -0.9936
  238MOL0     H32796   9.793   9.034   5.732  1.4175 -0.5458 -0.5441
  238MOL0     H32797   9.718   8.898   5.643  2.3441 -1.1156 -1.0458
  238MOL0     H32798   9.704   9.053   5.432 -0.7320 -1.8863  0.6301
  238MOL0     H32799   9.820   9.159   5.524  3.1374 -1.6495  1.1749
  238MOL0     H32800   9.988   9.011   5.546 -2.8084  0.9038  2.1512
  238MOL0     H32801   9.889   8.875   5.484 -0.4925 -0.6551 -0.4397
  238MOL0     H32802  10.116   8.838   5.442  2.1516 -0.3925  0.3099
  238MOL0     H32803  10.358   8.616   5.317  2.1916  0.8343 -2.4564
  238MOL0     H32804  10.302   8.709   5.454 -0.7742  2.8206  0.3428
  238MOL0     H32805  10.453   8.745   5.354 -0.5144  0.7066 -1.1557
  238MOL0     H32806  10.408   8.998   4.722  1.1234  1.5742 -4.7190
  238MOL0     H32807  10.578   8.989   4.552 -0.3996  2.9365  1.7679
  238MOL0     H32808  10.814   9.052   4.486 -0.0809 -0.0686  0.0925
  238MOL0     H32809  10.928   9.019   4.621  0.8609 -1.2206 -0.3136
  238MOL0     H32810  11.063   8.868   4.454  0.1887 -0.4251 -2.3644
  238MOL0     H32811  10.967   8.932   4.328  2.9452 -0.0555 -1.4255
  238MOL0     H32812  11.160   9.074   4.514  0.4864 -0.7967  0.3450
  238MOL0     H32813  11.028   9.168   4.442 -2.5857 -1.6773 -1.2375
  238MOL0     H32814  11.202   9.207   4.286 -2.9769  0.9565  1.3072
  238MOL0     H32815  11.110   9.088   4.211 -2.3679  1.8925  1.4324
  238MOL0     H32816  11.343   9.018   4.399 -0.5618 -0.6701  1.0939
  238MOL0     H32817  11.269   8.904   4.286  0.7051 -0.6759  0.9945
  238MOL0     H32818  11.440   9.145   4.215  1.8873 -1.4355 -0.7979
  238MOL0     H32819  11.332   9.055   4.099 -0.7171 -0.6822  0.2182
  238MOL0     H32820  11.472   8.853   4.165 -0.7941  0.4891 -1.8238
  238MOL0     H32821  11.533   8.941   4.299 -2.8595  1.0568  1.0349
  238MOL0     H32822  11.703   9.065   4.147  0.0612  0.6564  1.3055
  238MOL0     H32823  11.585   9.025   4.014 -1.5436 -3.8568 -1.0747
  238MOL0     H32824  10.855   8.804   4.805  0.7549  1.9774  0.3642
  238MOL0     H32825  10.688   8.814   4.997 -1.3828 -3.2152 -0.9015
  238MOL0     H32826  10.199   8.971   4.981  0.8011  0.8334  0.2017
  238MOL0     H32827  10.030   9.070   5.101 -0.6233 -0.7263 -1.0675
  238MOL0     H32828   8.392   9.770   5.630 -0.4278  1.0261  0.0662
  238MOL0     H32829   8.162   9.758   5.591  1.0990  1.5618  0.8955
  238MOL0     H32830   7.834   9.347   5.610  1.3842 -2.7076  1.9161
  238MOL0     H32831   7.638   9.235   5.604  1.6651 -1.9216  1.3581
  238MOL0     H32832   7.303   9.394   5.851 -2.5877  0.2358 -0.2181
  238MOL0     H32833   7.231   9.251   5.773  0.5900  1.3057 -1.6162
  238MOL0     H32834   7.407   9.257   6.021  0.7321 -0.4789 -1.6723
  238MOL0     H32835   7.324   9.112   5.979  3.2157 -0.7435 -1.5348
  238MOL0     H32836   7.210   9.257   6.175  0.0491  1.1054 -0.0703
  238MOL0     H32837   7.184   9.386   6.056 -2.5891  0.3275  1.1428
  238MOL0     H32838   6.989   9.227   6.117 -0.4363  0.7112  0.7765
  238MOL0     H32839   7.067   9.117   6.005  0.9681  0.7277  0.8780
  238MOL0     H32840   6.912   9.380   5.728 -1.5440  0.0659  1.0304
  238MOL0     H32841   7.493   9.446   5.944 -2.2376 -0.3359 -2.3153
  238MOL0     H32842   7.745   9.708   5.939 -1.0499  1.4248  1.0415
  238MOL0     H32843   7.611   9.647   6.033  0.2026 -0.5597  1.6291
  238MOL0     H32844   7.775   9.590   6.070  2.0035 -1.5858 -1.9897
  239MOL0     O32845   1.282   8.136   3.487 -1.0859 -0.3841 -0.3081
  239MOL0     C32846   1.274   8.171   3.604  0.1346  0.3851 -0.8906
  239MOL0     O32847   1.379   8.191   3.691 -0.5626 -0.1813  0.0765
  239MOL0     C32848   1.499   8.228   3.642  0.4738  0.6361  0.6627
  239MOL0     C32849   1.573   8.317   3.725 -1.2132  0.0036  0.7200
  239MOL0     C32850   1.697   8.356   3.677  0.4213 -1.2907 -0.6982
  239MOL0     C32851   1.757   8.308   3.563 -0.9909  1.2331  0.4060
  239MOL0     O32852   1.884   8.344   3.541  0.0067  0.3035 -0.2085
  239MOL0     C32853   1.907   8.418   3.420  0.3352 -0.2524  0.2238
  239MOL0     C32854   1.992   8.338   3.324 -0.6677 -0.9231  0.1277
  239MOL0     C32855   2.130   8.309   3.384  0.7059  0.4812  0.0521
  239MOL0     C32856   2.200   8.213   3.280  0.1538  0.1486 -0.6217
  239MOL0     C32857   2.333   8.166   3.350  0.7137  0.3260 -0.0695
  239MOL0     C32858   2.390   8.056   3.257 -0.0659 -0.2882  0.4420
  239MOL0     C32859   2.483   8.119   3.143  0.9068  0.2070  0.1566
  239MOL0     C32860   2.616   8.183   3.178 -0.1879 -0.4214 -0.8243
  239MOL0     N32861   2.714   8.110   3.261 -0.1561 -0.9780  0.1668
  239MOL0     C32862   2.810   8.016   3.220  1.0630  1.2677  0.3982
  239MOL0     C32863   2.877   7.978   3.326 -0.0787 -0.0070 -0.3064
  239MOL0     C32864   2.993   7.888   3.327 -0.3954 -0.2753  0.0770
  239MOL0     C32865   3.109   7.974   3.376  0.0910 -0.0421 -0.1297
  239MOL0     C32866   3.239   7.888   3.381 -0.6629 -0.1110  0.3172
  239MOL0     C32867   3.365   7.963   3.427 -0.7449 -0.6631 -0.1377
  239MOL0     O32868   3.353   7.999   3.572  0.2177  0.1544  0.0444
  239MOL0     C32869   3.453   8.063   3.634  0.3570 -0.3986  0.8342
  239MOL0     C32870   3.444   8.053   3.769  0.6034 -0.9162  0.4514
  239MOL0     C32871   3.540   8.108   3.849 -0.2923  0.4151  0.1914
  239MOL0     C32872   3.518   8.103   3.998 -0.7712  0.0266  0.0708
  239MOL0     C32873   3.661   8.167   3.789 -0.1798  0.4643  0.1398
  239MOL0     C32874   3.773   8.206   3.879  1.1900 -0.0669  0.1971
  239MOL0     O32875   3.795   8.141   3.996 -0.2022 -0.6463 -0.1313
  239MOL0     C32876   3.893   8.187   4.083 -0.4323  0.4683  0.7623
  239MOL0     C32877   4.028   8.173   4.054 -0.6645 -1.0497  0.1012
  239MOL0     C32878   4.130   8.227   4.139  0.7234 -0.1579  0.0829
  239MOL0     C32879   4.086   8.297   4.256 -0.4589  0.5506  0.8615
  239MOL0     O32880   4.187   8.337   4.340 -0.6902 -0.4161 -0.4382
  239MOL0     C32881   4.166   8.466   4.396  0.6404 -0.1794  0.4557
  239MOL0     C32882   4.276   8.504   4.485 -0.5542 -0.1679  0.6553
  239MOL0     C32883   4.344   8.633   4.426  0.5419  0.9508  0.0064
  239MOL0     C32884   4.487   8.649   4.491 -0.0830 -0.0075 -0.7655
  239MOL0     C32885   4.570   8.755   4.411  0.4752 -0.1013 -0.2370
  239MOL0     C32886   4.710   8.764   4.456  0.4147 -0.0600  0.0399
  239MOL0     C32887   4.772   8.900   4.416  0.4500 -0.2306  0.1661
  239MOL0     C32888   4.843   8.965   4.536 -1.0969  0.5772  0.3772
  239MOL0    Cl32889   5.008   8.883   4.566 -0.3311  0.3783 -0.5775
  239MOL0     C32890   3.950   8.294   4.298 -0.4126  1.2870  1.1655
  239MOL0     C32891   3.856   8.240   4.204  0.0237  0.4774 -0.7305
  239MOL0     O32892   3.847   8.293   3.829  0.5583  0.2194  0.1399
  239MOL0     C32893   3.660   8.184   3.652 -0.3041 -0.5038  0.7988
  239MOL0     C32894   3.560   8.135   3.575 -0.1071  0.3848 -0.1056
  239MOL0     N32895   2.814   8.045   3.432  0.1788 -0.1675 -0.2051
  239MOL0     N32896   2.727   8.124   3.392  0.0215 -0.6537 -0.3303
  239MOL0     C32897   1.685   8.217   3.481 -0.4875 -0.7269 -0.9144
  239MOL0     C32898   1.560   8.180   3.522 -0.2942  0.2828 -0.1288
  239MOL0     C32899   1.137   8.171   3.660 -0.4948  0.7714  1.4009
  239MOL0     C32900   1.036   8.155   3.558  0.5492  0.5010 -0.0299
  239MOL0     C32901   0.907   8.133   3.612 -1.2132  0.2326  1.5725
  239MOL0     C32902   0.870   8.142   3.741  0.3603  0.5791 -0.1019
  239MOL0     O32903   0.747   8.123   3.792  0.1334 -0.1381  0.4929
  239MOL0     C32904   0.679   8.015   3.727 -0.7145 -0.0450  0.5080
  239MOL0     C32905   0.600   7.932   3.834 -0.2346  0.3761  0.2338
  239MOL0     C32906   0.528   8.019   3.937  0.1560  0.5828  0.4332
  239MOL0     C32907   0.612   8.078   4.054 -0.5320 -0.1732  0.0076
  239MOL0     C32908   0.518   8.124   4.158  0.1232  0.1451 -0.3086
  239MOL0     C32909   0.438   8.176   4.233 -0.0923 -0.6654 -0.8721
  239MOL0     C32910   0.964   8.195   3.826 -0.1018 -0.1407  0.5646
  239MOL0     C32911   1.096   8.203   3.793 -0.1703 -0.1634 -0.5108
  239MOL0     C32912   1.195   8.244   3.901 -0.3324 -1.1077 -0.5417
  239MOL0     H32913   1.520   8.351   3.813  0.1083 -0.6390  1.7866
  239MOL0     H32914   1.764   8.417   3.738  0.4397 -2.6488  0.7188
  239MOL0     H32915   1.963   8.507   3.449  1.6122 -0.2460 -2.0196
  239MOL0     H32916   1.823   8.456   3.361  0.4859 -0.6342 -0.2446
  239MOL0     H32917   1.940   8.244   3.300 -1.5016 -0.5208  0.3408
  239MOL0     H32918   2.007   8.397   3.233 -3.0744  1.3779  1.0975
  239MOL0     H32919   2.194   8.394   3.408  0.8952 -0.0320  1.4201
  239MOL0     H32920   2.119   8.256   3.479 -1.4501  1.2714  0.3083
  239MOL0     H32921   2.141   8.124   3.257  2.6773 -2.4321  2.0990
  239MOL0     H32922   2.233   8.272   3.194  1.8474  3.5798  2.1297
  239MOL0     H32923   2.306   8.120   3.445  0.2997 -3.2706 -1.7676
  239MOL0     H32924   2.395   8.256   3.363 -0.1509  1.0075 -0.5148
  239MOL0     H32925   2.452   7.992   3.320  0.4228  1.2347  1.5585
  239MOL0     H32926   2.308   8.005   3.204  0.2751 -0.9942  0.5811
  239MOL0     H32927   2.436   8.198   3.083  2.9117  2.3667  1.2600
  239MOL0     H32928   2.511   8.038   3.076 -2.3841  1.2552 -2.8400
  239MOL0     H32929   2.665   8.207   3.082  1.4335 -0.4787 -0.0452
  239MOL0     H32930   2.604   8.283   3.221  0.2878 -0.5951 -0.2850
  239MOL0     H32931   2.829   7.980   3.120  1.6725 -0.1602  1.0024
  239MOL0     H32932   3.003   7.846   3.226 -2.0997  0.3377 -0.3870
  239MOL0     H32933   2.964   7.808   3.395 -0.0575 -1.5394 -1.2070
  239MOL0     H32934   3.125   8.060   3.310 -0.7458  0.9639  0.9231
  239MOL0     H32935   3.084   8.015   3.475 -0.7033  2.0307 -1.1176
  239MOL0     H32936   3.214   7.805   3.447 -1.7909 -1.5960 -1.8651
  239MOL0     H32937   3.267   7.868   3.278  1.4293  3.1042  0.1092
  239MOL0     H32938   3.454   7.901   3.419 -1.4757 -1.9011  0.8555
  239MOL0     H32939   3.373   8.054   3.367  0.2904  0.6739  1.8906
  239MOL0     H32940   3.357   8.001   3.808  1.7162 -1.1834  2.7296
  239MOL0     H32941   3.552   8.195   4.047 -2.1354  0.1552  0.8442
  239MOL0     H32942   3.582   8.020   4.030 -0.2104  1.1033  1.9266
  239MOL0     H32943   3.415   8.094   4.033 -0.4640  0.9181  1.3129
  239MOL0     H32944   4.050   8.126   3.959  1.7254  1.3053 -0.6359
  239MOL0     H32945   4.235   8.207   4.120  0.8451 -0.0537  0.6440
  239MOL0     H32946   4.150   8.537   4.314 -0.0548 -1.1697 -0.2831
  239MOL0     H32947   4.073   8.473   4.454 -1.4907  1.4152 -2.8056
  239MOL0     H32948   4.225   8.516   4.581 -2.2819  3.4574 -0.5303
  239MOL0     H32949   4.354   8.428   4.481  2.1360  2.3538  1.9235
  239MOL0     H32950   4.283   8.720   4.452  0.4341  0.1902  2.6063
  239MOL0     H32951   4.354   8.643   4.317 -4.1616 -0.8530 -0.8523
  239MOL0     H32952   4.548   8.559   4.486  4.0071  2.4762 -0.1764
  239MOL0     H32953   4.481   8.684   4.594  0.0486  1.9294 -1.3729
  239MOL0     H32954   4.579   8.735   4.303 -0.6915  2.0519 -0.7764
  239MOL0     H32955   4.515   8.848   4.425  0.9281  0.4751 -2.0064
  239MOL0     H32956   4.777   8.684   4.424 -0.6353 -2.2427  2.7898
  239MOL0     H32957   4.713   8.756   4.566 -1.1608  1.6180  0.2488
  239MOL0     H32958   4.697   8.967   4.373  0.4740  0.1362  0.6861
  239MOL0     H32959   4.848   8.879   4.340  0.9193 -1.4275  0.9371
  239MOL0     H32960   4.779   8.954   4.624 -1.3151 -2.3469 -0.0576
  239MOL0     H32961   4.853   9.069   4.502 -0.4732 -0.1366 -1.7645
  239MOL0     H32962   3.933   8.343   4.393  1.9199  1.7123  1.4232
  239MOL0     H32963   3.753   8.240   4.237 -0.2498 -3.2297 -1.1507
  239MOL0     H32964   3.737   8.246   3.606 -1.6885  3.6443  3.5289
  239MOL0     H32965   3.553   8.140   3.467  1.4642 -1.2940 -0.3544
  239MOL0     H32966   1.733   8.183   3.390  0.8364  1.1451 -0.9777
  239MOL0     H32967   1.519   8.100   3.461 -0.0842 -0.2069  0.3650
  239MOL0     H32968   1.058   8.137   3.453  1.0897 -3.3632  0.5902
  239MOL0     H32969   0.826   8.106   3.545 -0.8863  1.5420  0.5942
  239MOL0     H32970   0.611   8.048   3.648 -0.9815 -1.2214  0.2358
  239MOL0     H32971   0.748   7.936   3.695 -1.9599 -1.5244  1.3407
  239MOL0     H32972   0.678   7.870   3.877 -0.5212  0.2418  0.5614
  239MOL0     H32973   0.526   7.869   3.783 -1.6903  1.3838  1.0301
  239MOL0     H32974   0.495   8.112   3.890 -1.2914  0.5588  1.3425
  239MOL0     H32975   0.438   7.977   3.983  1.5782 -1.5681  1.3993
  239MOL0     H32976   0.677   8.163   4.032 -0.3070  0.2301  1.9960
  239MOL0     H32977   0.679   8.008   4.106 -2.8230 -0.9095  2.2054
  239MOL0     H32978   0.373   8.223   4.303 -0.3362 -0.1577 -1.4322
  239MOL0     H32979   0.927   8.219   3.926  0.9461  2.1246  0.4632
  239MOL0     H32980   1.161   8.267   4.002  2.6841  0.3729  0.2645
  239MOL0     H32981   1.270   8.165   3.915  0.8691  0.1407  0.2234
  239MOL0     H32982   1.253   8.333   3.875  0.3289 -0.0816  3.7813
  240MOL0     O32983  11.009   8.252   9.104  0.1459  0.5665 -0.4827
  240MOL0     C32984  10.935   8.178   9.037  0.2700  0.2906 -0.0008
  240MOL0     O32985  10.970   8.064   8.961 -0.9782 -0.2556 -0.1044
  240MOL0     C32986  11.084   7.990   8.999 -0.0328 -1.6928 -0.5314
  240MOL0     C32987  11.217   8.060   8.982  0.3071  0.2852 -0.6286
  240MOL0     C32988  11.340   8.003   9.024 -0.0779 -0.2519  0.6895
  240MOL0     C32989  11.327   7.873   9.072  0.3413  0.8402 -0.6254
  240MOL0     O32990  11.433   7.810   9.126  0.1702  0.1046 -0.5924
  240MOL0     C32991  11.461   7.847   9.261 -0.0933 -0.5071 -0.1858
  240MOL0     C32992  11.606   7.803   9.309  0.6796  0.4529  0.9358
  240MOL0     C32993  11.654   7.676   9.250  0.0207  0.8528  0.2624
  240MOL0     C32994  11.797   7.652   9.309 -0.2694 -0.1214 -0.4015
  240MOL0     C32995  11.860   7.521   9.253 -0.0152  0.9971 -0.2980
  240MOL0     C32996  11.784   7.394   9.278  0.0295  0.3299 -0.9451
  240MOL0     C32997  11.852   7.260   9.253 -0.4225 -0.5829  0.9790
  240MOL0     C32998  11.779   7.150   9.334  0.1201  0.1502  0.7018
  240MOL0     N32999  11.837   7.020   9.308 -0.2161  0.1956 -0.8727
  240MOL0     C33000  11.936   6.957   9.367 -0.5192  0.7257 -0.3772
  240MOL0     C33001  11.956   6.845   9.292 -0.2211 -0.5074 -0.3253
  240MOL0     C33002  12.070   6.750   9.314  0.0587 -0.2999  0.2516
  240MOL0     C33003  12.130   6.687   9.184 -0.8091 -0.8717 -0.1408
  240MOL0     C33004  12.050   6.568   9.141  0.1062  0.6656 -0.0923
  240MOL0     C33005  12.049   6.452   9.239  0.6015  0.9379  1.2433
  240MOL0     O33006  12.013   6.323   9.184  1.1285  0.3751 -0.9322
  240MOL0     C33007  12.104   6.252   9.103  0.1389 -0.2889 -0.3473
  240MOL0     C33008  12.235   6.286   9.080 -0.5938 -0.3178 -0.8432
  240MOL0     C33009  12.309   6.213   8.988 -0.4279 -0.3557 -0.5400
  240MOL0     C33010  12.454   6.248   8.981  0.6895  1.0289 -0.4196
  240MOL0     C33011  12.248   6.099   8.925 -0.2381  0.5350 -0.3893
  240MOL0     C33012  12.325   6.007   8.840 -0.2698  0.0519 -0.2236
  240MOL0     O33013  12.397   6.050   8.736  0.1912 -0.1081  0.5342
  240MOL0     C33014  12.478   5.956   8.681 -0.0947 -0.0496 -0.6539
  240MOL0     C33015  12.440   5.890   8.564  0.4132  0.4408  0.5163
  240MOL0     C33016  12.528   5.792   8.510 -0.1140  0.7828  0.1631
  240MOL0     C33017  12.647   5.762   8.565 -0.6974  0.0489 -0.4601
  240MOL0     O33018  12.733   5.673   8.504  0.1762  0.0498  0.1604
  240MOL0     C33019  12.750   5.551   8.578  0.2465 -0.3602 -0.0519
  240MOL0     C33020  12.850   5.470   8.507  0.0536 -0.1367  0.2792
  240MOL0     C33021  12.998   5.493   8.549 -0.3981  0.1567 -0.8406
  240MOL0     C33022  13.041   5.404   8.672  0.5288 -0.2967 -0.3857
  240MOL0     C33023  13.165   5.451   8.740  0.3868 -0.3739  0.4023
  240MOL0     C33024  13.291   5.444   8.642 -0.0743 -0.2463 -0.0708
  240MOL0     C33025  13.409   5.501   8.726  0.3932 -0.6719  0.0023
  240MOL0     C33026  13.536   5.496   8.641 -0.2199  0.0344 -0.5401
  240MOL0    Cl33027  13.681   5.524   8.731 -0.0113 -0.1145  0.1294
  240MOL0     C33028  12.688   5.834   8.681 -0.2722  0.0879 -0.7910
  240MOL0     C33029  12.605   5.932   8.732  0.0153  0.0533  0.7087
  240MOL0     O33030  12.300   5.889   8.856 -0.1786 -0.2625 -0.1551
  240MOL0     C33031  12.116   6.065   8.953 -0.1954  0.6677 -1.1888
  240MOL0     C33032  12.048   6.140   9.050 -0.4900 -0.1287  0.5499
  240MOL0     N33033  11.877   6.848   9.186 -0.0058  0.7035 -0.0607
  240MOL0     N33034  11.799   6.949   9.196  0.1342 -0.4817  0.3399
  240MOL0     C33035  11.203   7.802   9.099 -0.6738  0.7769  0.8275
  240MOL0     C33036  11.084   7.870   9.060  0.9081 -0.0467  0.0513
  240MOL0     C33037  10.798   8.230   9.028  0.3566 -1.0855  0.0466
  240MOL0     C33038  10.707   8.173   8.933  0.2457  0.7525  0.5019
  240MOL0     C33039  10.580   8.222   8.911  0.1497 -0.3500  0.2024
  240MOL0     C33040  10.521   8.323   8.988  0.1838  0.2416  0.4430
  240MOL0     O33041  10.394   8.369   8.967 -0.6472  0.0472  0.1665
  240MOL0     C33042  10.381   8.513   8.956  0.2250  0.1171 -0.6655
  240MOL0     C33043  10.459   8.571   8.844 -0.5326  0.3868  0.3592
  240MOL0     C33044  10.441   8.718   8.813 -0.4503 -0.5328  0.4099
  240MOL0     C33045  10.540   8.779   8.706 -0.3398  0.0997 -0.2851
  240MOL0     C33046  10.672   8.805   8.767  0.1683 -0.4810  0.6030
  240MOL0     C33047  10.771   8.835   8.822 -0.5684 -0.7305 -0.6578
  240MOL0     C33048  10.606   8.380   9.085 -0.1492  0.1627  0.0196
  240MOL0     C33049  10.736   8.335   9.105  0.1110  0.2081  0.0916
  240MOL0     C33050  10.822   8.409   9.213  0.1681  0.2290  0.4437
  240MOL0     H33051  11.226   8.163   8.948 -1.6116  0.8393  0.3677
  240MOL0     H33052  11.430   8.063   9.013 -1.4326  1.5247 -1.8052
  240MOL0     H33053  11.391   7.781   9.313 -0.7182  0.7085  0.5741
  240MOL0     H33054  11.449   7.953   9.285  0.6754 -0.9386  2.5841
  240MOL0     H33055  11.675   7.884   9.283  2.6333 -0.4178  3.0221
  240MOL0     H33056  11.605   7.793   9.418 -0.1567 -0.7918  0.8339
  240MOL0     H33057  11.585   7.594   9.271  1.6887 -0.2029  1.9246
  240MOL0     H33058  11.656   7.689   9.141  1.4645 -0.0170  0.1529
  240MOL0     H33059  11.863   7.737   9.291 -2.5403  1.6738 -0.6767
  240MOL0     H33060  11.785   7.635   9.417  2.6435 -1.6208 -0.2111
  240MOL0     H33061  11.958   7.505   9.297 -0.4399 -3.2520 -0.4375
  240MOL0     H33062  11.865   7.534   9.144  0.5177  0.8109 -0.2946
  240MOL0     H33063  11.767   7.401   9.386  3.9227  0.0628 -0.1644
  240MOL0     H33064  11.687   7.401   9.228 -0.9341 -1.7601  0.4776
  240MOL0     H33065  11.956   7.266   9.285 -0.1480  1.6263 -0.1863
  240MOL0     H33066  11.836   7.234   9.148 -2.7708  0.5349  0.9944
  240MOL0     H33067  11.793   7.173   9.440  0.5634 -2.1284  1.1863
  240MOL0     H33068  11.671   7.145   9.318  0.4512 -0.0565 -2.0333
  240MOL0     H33069  11.990   6.988   9.456 -0.2273  0.5203 -0.4806
  240MOL0     H33070  12.046   6.669   9.383  0.6980  0.8288  1.8695
  240MOL0     H33071  12.153   6.814   9.346 -1.4845  0.6829  2.5860
  240MOL0     H33072  12.146   6.764   9.107  4.1731 -1.8596 -0.4688
  240MOL0     H33073  12.233   6.652   9.198  0.3019  2.0942 -0.2015
  240MOL0     H33074  11.949   6.601   9.114  0.8511  0.5979 -3.3071
  240MOL0     H33075  12.095   6.531   9.049 -0.9361 -3.0745  0.6986
  240MOL0     H33076  12.146   6.442   9.288  1.0116 -3.9950 -0.0554
  240MOL0     H33077  11.976   6.476   9.317  0.0815  3.2238  0.1435
  240MOL0     H33078  12.291   6.368   9.122  0.1765 -1.2073 -0.1108
  240MOL0     H33079  12.490   6.297   8.890  4.1860  3.1379  1.8571
  240MOL0     H33080  12.525   6.165   8.987  0.5094  0.8570 -0.6187
  240MOL0     H33081  12.473   6.313   9.067 -2.0779  0.0945  1.0403
  240MOL0     H33082  12.346   5.913   8.515  0.9066  0.3374 -0.4962
  240MOL0     H33083  12.498   5.740   8.419  0.3754 -2.0150  1.4978
  240MOL0     H33084  12.780   5.568   8.682 -2.2993  1.2205  0.5272
  240MOL0     H33085  12.648   5.512   8.582 -0.2227  0.8389  0.2905
  240MOL0     H33086  12.824   5.364   8.510 -1.2575  0.1821  0.7080
  240MOL0     H33087  12.856   5.499   8.402  0.5017 -0.0427  0.3257
  240MOL0     H33088  13.019   5.598   8.572 -2.1159  0.2892  0.3576
  240MOL0     H33089  13.060   5.465   8.464  0.8796 -1.1973  0.4715
  240MOL0     H33090  13.040   5.298   8.642 -3.1524 -0.9934  1.5028
  240MOL0     H33091  12.951   5.404   8.734 -0.0810  3.2054 -1.0668
  240MOL0     H33092  13.164   5.554   8.778  2.4048 -0.6703  1.3774
  240MOL0     H33093  13.174   5.384   8.825  3.4024 -3.3779 -2.0135
  240MOL0     H33094  13.276   5.499   8.550  0.2482 -1.0620 -0.6240
  240MOL0     H33095  13.297   5.342   8.602 -1.9116 -0.1319 -0.7336
  240MOL0     H33096  13.423   5.446   8.820  3.2066  0.0880  0.1208
  240MOL0     H33097  13.393   5.605   8.756  1.2917  0.9761 -4.5340
  240MOL0     H33098  13.533   5.570   8.560  1.6669 -0.1374 -0.7943
  240MOL0     H33099  13.549   5.401   8.590  2.8526  0.5101 -0.8279
  240MOL0     H33100  12.788   5.823   8.722 -0.9218 -1.6488  0.4610
  240MOL0     H33101  12.645   5.990   8.814  1.7932  2.0600 -1.4276
  240MOL0     H33102  12.064   5.986   8.900 -1.7964  1.1844 -0.4545
  240MOL0     H33103  11.950   6.110   9.086  0.9123 -2.7601  2.5647
  240MOL0     H33104  11.202   7.701   9.137  0.8124 -1.3781 -4.0383
  240MOL0     H33105  10.982   7.843   9.086  0.9206 -1.2469 -1.0830
  240MOL0     H33106  10.733   8.093   8.865  1.4306  0.6550  1.0557
  240MOL0     H33107  10.512   8.183   8.836 -1.3509  2.1526  0.1254
  240MOL0     H33108  10.274   8.536   8.951  0.2880  0.2845 -1.5090
  240MOL0     H33109  10.415   8.556   9.050  1.5997 -2.9758  0.3608
  240MOL0     H33110  10.434   8.518   8.752  1.7018 -1.3329  0.6615
  240MOL0     H33111  10.564   8.561   8.873 -0.4950 -2.7324 -0.4746
  240MOL0     H33112  10.341   8.744   8.777 -0.6385 -3.1512 -1.2506
  240MOL0     H33113  10.461   8.766   8.909  0.4379 -0.5184  0.2271
  240MOL0     H33114  10.499   8.871   8.664  1.7080  0.3052 -2.0125
  240MOL0     H33115  10.545   8.704   8.627  2.8385  0.4328 -0.5544
  240MOL0     H33116  10.862   8.864   8.870 -0.0770 -1.4460 -1.1287
  240MOL0     H33117  10.587   8.470   9.143 -1.2671 -1.2745  2.0080
  240MOL0     H33118  10.865   8.353   9.297 -2.5459  0.3837  2.0598
  240MOL0     H33119  10.902   8.461   9.160  1.3079  1.4961  3.1636
  240MOL0     H33120  10.762   8.480   9.271 -1.2688  1.1837 -2.0833
  241MOL0     O33121   9.426   5.484   8.194 -0.4446 -0.3421  0.0582
  241MOL0     C33122   9.374   5.402   8.262 -1.0326  0.1334 -0.2958
  241MOL0     O33123   9.439   5.281   8.295  1.1442  0.1984 -0.1581
  241MOL0     C33124   9.565   5.281   8.342  0.5857 -0.5499 -0.3350
  241MOL0     C33125   9.588   5.295   8.475  0.3088 -0.7669  0.2694
  241MOL0     C33126   9.718   5.282   8.531  0.0708 -0.1163 -0.2690
  241MOL0     C33127   9.825   5.263   8.444 -0.5749 -0.4111  0.1673
  241MOL0     O33128   9.954   5.270   8.489 -0.8152 -0.4368  0.1504
  241MOL0     C33129  10.001   5.341   8.603  0.1821  0.3767  0.1217
  241MOL0     C33130  10.151   5.352   8.619  0.4980  0.8349  0.3674
  241MOL0     C33131  10.201   5.212   8.652 -0.0665 -0.5869  0.0840
  241MOL0     C33132  10.347   5.232   8.673  0.4645 -0.6986  0.0768
  241MOL0     C33133  10.409   5.091   8.667 -0.3478 -0.0611  0.4316
  241MOL0     C33134  10.398   5.022   8.800 -0.3948 -0.8082 -0.0114
  241MOL0     C33135  10.459   4.877   8.796 -0.2500  0.0882  0.1457
  241MOL0     C33136  10.409   4.795   8.917 -0.4003 -0.3478  0.5083
  241MOL0     N33137  10.475   4.834   9.037 -0.1894 -0.4044 -0.1594
  241MOL0     C33138  10.449   4.945   9.108  0.7481 -0.4467  0.0465
  241MOL0     C33139  10.542   4.956   9.199  0.5174 -0.5934  0.6667
  241MOL0     C33140  10.548   5.060   9.307 -0.0932  0.0396  0.3762
  241MOL0     C33141  10.648   5.173   9.268  0.8378 -0.6088  0.9325
  241MOL0     C33142  10.665   5.302   9.357  0.0841  0.8549  0.0986
  241MOL0     C33143  10.535   5.380   9.369 -0.0563  0.5408  0.0142
  241MOL0     O33144  10.553   5.518   9.411 -0.5163  0.1632 -0.0536
  241MOL0     C33145  10.449   5.608   9.389 -0.2839  0.4590  0.1393
  241MOL0     C33146  10.315   5.573   9.380  0.2218  0.3435 -0.1737
  241MOL0     C33147  10.211   5.673   9.351  0.0092  0.5252  0.2033
  241MOL0     C33148  10.066   5.631   9.310  0.0150  0.4183 -0.6903
  241MOL0     C33149  10.245   5.808   9.362 -0.2049 -0.4489 -0.6312
  241MOL0     C33150  10.150   5.914   9.345  0.7553 -0.0628  0.6499
  241MOL0     O33151  10.023   5.899   9.392  0.1712 -0.8192  0.6890
  241MOL0     C33152   9.921   5.977   9.342 -0.0455 -0.0801  0.4765
  241MOL0     C33153   9.803   5.965   9.418 -0.8285 -0.7454  0.4940
  241MOL0     C33154   9.680   6.029   9.381 -0.3406  0.3081 -0.3946
  241MOL0     C33155   9.680   6.112   9.269  0.5418 -0.5297 -0.8619
  241MOL0     O33156   9.552   6.158   9.234 -0.3076  0.3788 -0.1128
  241MOL0     C33157   9.535   6.253   9.129 -0.0862 -0.5770  0.5042
  241MOL0     C33158   9.387   6.255   9.085 -0.0787 -0.5856 -0.5086
  241MOL0     C33159   9.290   6.279   9.196 -0.3597 -0.2816  0.8178
  241MOL0     C33160   9.160   6.296   9.133  0.4045  0.3995  0.6866
  241MOL0     C33161   9.067   6.336   9.248 -0.4021  0.1985 -0.6319
  241MOL0     C33162   8.923   6.294   9.237  0.6298  1.2127  0.8100
  241MOL0     C33163   8.839   6.362   9.121  0.6421  0.8251 -0.6941
  241MOL0     C33164   8.725   6.263   9.090  0.2636 -0.0786  0.1881
  241MOL0    Cl33165   8.763   6.130   8.980 -0.0405  0.2695 -0.2007
  241MOL0     C33166   9.798   6.130   9.199 -0.8587 -0.4542  0.1507
  241MOL0     C33167   9.915   6.059   9.234 -0.5585 -0.6380  0.9546
  241MOL0     O33168  10.197   6.014   9.288  0.7918 -0.5323  0.2573
  241MOL0     C33169  10.374   5.841   9.402  0.3302 -0.5154 -0.3420
  241MOL0     C33170  10.474   5.747   9.404  0.7285 -0.4063 -0.6186
  241MOL0     N33171  10.641   4.868   9.171 -0.4169 -0.2173  0.3655
  241MOL0     N33172  10.597   4.798   9.064 -0.4622  0.0789  0.3696
  241MOL0     C33173   9.800   5.237   8.310 -0.3734 -0.2756  0.0603
  241MOL0     C33174   9.675   5.241   8.258  0.5153 -0.7861  0.2491
  241MOL0     C33175   9.240   5.411   8.316  0.8898 -0.8904 -0.7099
  241MOL0     C33176   9.188   5.310   8.401 -1.1056 -0.1761 -0.2343
  241MOL0     C33177   9.057   5.326   8.454  0.0294 -0.0229  0.3722
  241MOL0     C33178   8.973   5.433   8.424 -0.1019 -0.5465  0.2441
  241MOL0     O33179   8.847   5.448   8.468 -0.1266  0.6573 -0.2087
  241MOL0     C33180   8.802   5.347   8.561 -0.1349 -0.7793  0.2691
  241MOL0     C33181   8.677   5.403   8.626 -0.2041  0.7139 -0.7809
  241MOL0     C33182   8.713   5.529   8.712  0.1464 -0.0472 -0.1474
  241MOL0     C33183   8.584   5.576   8.783 -1.0041 -0.0478 -0.1510
  241MOL0     C33184   8.628   5.662   8.896  0.5390  0.5486  0.1646
  241MOL0     C33185   8.653   5.731   8.988  0.6586 -0.1404 -0.7655
  241MOL0     C33186   9.023   5.532   8.348  0.3806  0.4295  0.1418
  241MOL0     C33187   9.155   5.528   8.297 -0.3935 -0.8481  0.2203
  241MOL0     C33188   9.185   5.658   8.219  1.2395 -0.2591  1.3800
  241MOL0     H33189   9.506   5.314   8.543 -0.6983 -3.0347 -0.2489
  241MOL0     H33190   9.726   5.276   8.639  0.2961 -0.3348 -0.2952
  241MOL0     H33191   9.955   5.289   8.688 -0.5175  1.0211  0.1509
  241MOL0     H33192   9.950   5.437   8.593 -3.2386 -1.3789 -1.1304
  241MOL0     H33193  10.190   5.381   8.522 -0.0246 -0.6719 -0.3213
  241MOL0     H33194  10.175   5.424   8.698 -1.1398 -0.2272  1.9164
  241MOL0     H33195  10.158   5.190   8.750 -2.4713  4.6675  0.5537
  241MOL0     H33196  10.180   5.143   8.570 -0.6736  0.7315 -0.9177
  241MOL0     H33197  10.396   5.299   8.602  2.4953  0.9222  2.7720
  241MOL0     H33198  10.378   5.270   8.771  0.4917  0.0383 -0.2139
  241MOL0     H33199  10.514   5.083   8.639 -0.6957  1.2232 -1.4721
  241MOL0     H33200  10.357   5.029   8.593 -1.4693  1.2485  0.0712
  241MOL0     H33201  10.457   5.081   8.872 -0.4447 -1.1948  0.3496
  241MOL0     H33202  10.296   5.021   8.840 -1.2222  1.9100 -1.7882
  241MOL0     H33203  10.566   4.873   8.775 -0.5151 -0.5411 -1.2363
  241MOL0     H33204  10.405   4.827   8.715 -3.6542  1.3129  1.4688
  241MOL0     H33205  10.300   4.801   8.922 -0.3389  3.9446  0.6586
  241MOL0     H33206  10.426   4.687   8.912  0.6685 -0.2990  2.2041
  241MOL0     H33207  10.356   5.000   9.096  0.0368 -2.0303 -2.2987
  241MOL0     H33208  10.572   5.010   9.402  0.5986 -2.4327 -1.0274
  241MOL0     H33209  10.445   5.094   9.324 -2.4030 -4.8579 -1.9328
  241MOL0     H33210  10.747   5.134   9.241  0.6023  0.3325 -1.5872
  241MOL0     H33211  10.614   5.206   9.169  0.8315 -0.4505  0.9876
  241MOL0     H33212  10.718   5.271   9.448 -0.6640  0.2504  0.3391
  241MOL0     H33213  10.741   5.356   9.300  1.4768 -1.7503 -0.6681
  241MOL0     H33214  10.481   5.392   9.275 -0.7855  2.6066  0.6311
  241MOL0     H33215  10.477   5.333   9.449  1.1172 -1.7617 -0.4237
  241MOL0     H33216  10.288   5.468   9.390 -5.4512  1.2841 -1.8137
  241MOL0     H33217  10.013   5.611   9.403  1.6632 -0.3529  0.1354
  241MOL0     H33218  10.085   5.536   9.258  0.8283  0.9602 -1.4093
  241MOL0     H33219  10.028   5.705   9.240  0.1589  0.5991 -0.5771
  241MOL0     H33220   9.814   5.910   9.511 -1.3317  0.8586  1.5565
  241MOL0     H33221   9.593   6.030   9.445  1.3086 -0.6068  1.9839
  241MOL0     H33222   9.569   6.349   9.169 -1.5651  0.2377 -0.1581
  241MOL0     H33223   9.591   6.232   9.037 -1.1426  2.1766 -0.8494
  241MOL0     H33224   9.383   6.335   9.011  2.2361 -2.8303 -3.3266
  241MOL0     H33225   9.352   6.170   9.026 -0.5184  1.6107 -3.6393
  241MOL0     H33226   9.320   6.363   9.259  2.7148 -1.5863  1.3102
  241MOL0     H33227   9.300   6.193   9.264  1.7893  0.6523  1.7872
  241MOL0     H33228   9.126   6.211   9.073 -3.1521  0.7250  1.9864
  241MOL0     H33229   9.157   6.379   9.062 -1.8514  0.2994  0.5696
  241MOL0     H33230   9.104   6.288   9.339  2.4261 -1.7655 -2.6775
  241MOL0     H33231   9.077   6.441   9.280  0.4841 -0.1758  0.3953
  241MOL0     H33232   8.873   6.314   9.332 -2.0368 -1.4227  0.1131
  241MOL0     H33233   8.928   6.189   9.209 -0.0762  1.3275  0.2011
  241MOL0     H33234   8.901   6.376   9.032  2.0239  2.1631  0.4155
  241MOL0     H33235   8.804   6.462   9.150 -2.0644 -0.6130  1.4026
  241MOL0     H33236   8.649   6.325   9.042  5.4157  3.6497 -4.4759
  241MOL0     H33237   8.674   6.224   9.179  2.4915  0.5303  1.8409
  241MOL0     H33238   9.783   6.180   9.104 -0.6094  0.1019  0.3982
  241MOL0     H33239  10.002   6.086   9.175 -0.7377  0.0615  0.9966
  241MOL0     H33240  10.406   5.940   9.431 -0.2751 -0.4321  0.0693
  241MOL0     H33241  10.578   5.773   9.420  0.8289 -0.9873 -0.2870
  241MOL0     H33242   9.879   5.208   8.243 -1.6678  1.6122 -2.4396
  241MOL0     H33243   9.658   5.223   8.153  0.3876 -1.8315  0.4361
  241MOL0     H33244   9.242   5.219   8.425 -0.8938  0.5741  2.4737
  241MOL0     H33245   9.041   5.236   8.512  3.6513 -0.5805  0.7669
  241MOL0     H33246   8.789   5.252   8.509 -2.3810 -0.0804 -0.5615
  241MOL0     H33247   8.877   5.339   8.640 -0.2576  0.6628  0.5655
  241MOL0     H33248   8.630   5.329   8.692  1.8952  1.4792  1.7734
  241MOL0     H33249   8.610   5.432   8.545  0.3953  0.1372 -1.4974
  241MOL0     H33250   8.789   5.510   8.788  0.6465 -1.9026 -1.0649
  241MOL0     H33251   8.744   5.613   8.649 -0.8855  1.2201  0.9553
  241MOL0     H33252   8.532   5.494   8.833 -2.0032  2.7480  3.9266
  241MOL0     H33253   8.514   5.623   8.714  1.1993  2.9944 -0.5178
  241MOL0     H33254   8.660   5.785   9.081  0.2790 -2.6696  0.8207
  241MOL0     H33255   8.952   5.611   8.325 -1.2246 -1.7772 -3.1373
  241MOL0     H33256   9.102   5.729   8.217  0.2235 -1.3021  3.6076
  241MOL0     H33257   9.270   5.716   8.257  1.0442  1.3730 -0.4984
  241MOL0     H33258   9.203   5.627   8.116  1.2186  3.1788  0.2079
  242MOL0     O33259   7.332   8.462  10.611 -0.0868 -0.3669 -0.3756
  242MOL0     C33260   7.255   8.539  10.670  0.5992 -0.5925  1.4675
  242MOL0     O33261   7.136   8.503  10.734  0.2662  0.1639 -0.7799
  242MOL0     C33262   7.103   8.371  10.736 -0.2294 -0.4106 -0.3093
  242MOL0     C33263   7.139   8.289  10.845  0.5349  0.5356  0.1223
  242MOL0     C33264   7.105   8.149  10.849 -0.9248 -0.0836  0.3512
  242MOL0     C33265   7.026   8.097  10.744  0.1667  0.4981 -1.1185
  242MOL0     O33266   6.974   7.963  10.757 -0.2358 -0.3108  0.5860
  242MOL0     C33267   6.891   7.924  10.637  0.0586  0.2650  0.1730
  242MOL0     C33268   6.837   7.785  10.655  0.4168  0.7488 -0.3422
  242MOL0     C33269   6.758   7.734  10.532 -0.6076 -0.2122  0.0724
  242MOL0     C33270   6.649   7.644  10.586  0.7255  1.1212 -0.2573
  242MOL0     C33271   6.581   7.571  10.472 -0.1529  0.1683 -1.2405
  242MOL0     C33272   6.437   7.517  10.506  0.1088 -0.4123 -0.5859
  242MOL0     C33273   6.444   7.389  10.591 -1.1550 -0.4680  0.2698
  242MOL0     C33274   6.312   7.361  10.660 -0.2916  0.6926  0.1533
  242MOL0     N33275   6.193   7.392  10.587  0.1988  0.3276  0.3316
  242MOL0     C33276   6.103   7.300  10.530  0.9007 -0.3067 -0.2663
  242MOL0     C33277   6.003   7.372  10.472 -0.5701  0.0858  1.0275
  242MOL0     C33278   5.880   7.343  10.383  0.7909 -0.0846 -0.0971
  242MOL0     C33279   5.752   7.416  10.436  0.5975 -0.4665 -0.1241
  242MOL0     C33280   5.679   7.354  10.564  0.3804  0.1497  0.5209
  242MOL0     C33281   5.626   7.215  10.540  0.1516  0.4067  0.9748
  242MOL0     O33282   5.513   7.221  10.453 -0.1272  1.1538 -0.4962
  242MOL0     C33283   5.442   7.104  10.418 -0.2878 -1.0311  0.1665
  242MOL0     C33284   5.340   7.122  10.321 -0.0860  0.6473 -0.5286
  242MOL0     C33285   5.263   7.012  10.282  0.6829  0.0184 -0.3949
  242MOL0     C33286   5.137   7.041  10.205  0.7173 -0.6511  0.0088
  242MOL0     C33287   5.292   6.880  10.338 -0.1579 -0.1779 -0.1736
  242MOL0     C33288   5.205   6.771  10.311 -0.7074 -0.7260  0.0500
  242MOL0     O33289   5.182   6.743  10.179  0.6143  1.1488 -0.2067
  242MOL0     C33290   5.100   6.638  10.137 -0.4188 -0.9985 -0.4364
  242MOL0     C33291   4.963   6.678  10.112 -0.1290  0.7017 -0.5431
  242MOL0     C33292   4.872   6.577  10.064 -0.0110 -0.4361  0.3723
  242MOL0     C33293   4.916   6.445  10.042 -0.1852 -0.3655  0.4858
  242MOL0     O33294   4.831   6.353   9.983 -0.6133  0.7411 -0.4257
  242MOL0     C33295   4.688   6.389   9.980 -0.0165  0.6654 -0.8001
  242MOL0     C33296   4.615   6.259   9.964  0.3286  0.2954  0.4906
  242MOL0     C33297   4.471   6.275   9.944 -0.5229  0.0528  0.0597
  242MOL0     C33298   4.399   6.159   9.871 -0.0475 -0.7255  0.2203
  242MOL0     C33299   4.442   6.021   9.912  0.5329 -0.4031  0.3556
  242MOL0     C33300   4.406   5.988  10.058 -0.0586  0.2958  0.2999
  242MOL0     C33301   4.417   5.837  10.090 -0.1047 -0.3063  0.2654
  242MOL0     C33302   4.279   5.787  10.128 -0.6382  0.2731  1.1180
  242MOL0    Cl33303   4.172   5.798   9.976 -0.5562  0.3434  0.2824
  242MOL0     C33304   5.058   6.414  10.059  0.6046 -1.1838 -0.1162
  242MOL0     C33305   5.141   6.512  10.113 -0.9395 -0.3271  0.3996
  242MOL0     O33306   5.175   6.689  10.405  0.8319 -0.7293 -0.8412
  242MOL0     C33307   5.395   6.862  10.433 -0.0034 -0.1732  0.5362
  242MOL0     C33308   5.463   6.981  10.473  0.4527  0.0739 -1.1988
  242MOL0     N33309   6.047   7.497  10.488 -0.4840 -0.2134 -0.2380
  242MOL0     N33310   6.153   7.517  10.552  0.1979  0.3374 -0.4469
  242MOL0     C33311   6.992   8.185  10.633  0.4442  0.8227  0.0657
  242MOL0     C33312   7.031   8.321  10.632 -0.4789  0.6339  0.0831
  242MOL0     C33313   7.281   8.684  10.674 -0.2559  0.1058 -0.4632
  242MOL0     C33314   7.277   8.746  10.799 -0.0622 -0.1534  0.8249
  242MOL0     C33315   7.300   8.883  10.807 -0.0826  0.4061 -0.4238
  242MOL0     C33316   7.342   8.964  10.700  0.1347  0.2773  0.2213
  242MOL0     O33317   7.377   9.092  10.733  0.2956 -0.2243 -0.4427
  242MOL0     C33318   7.517   9.143  10.704 -0.0931 -0.0796  0.2642
  242MOL0     C33319   7.618   9.107  10.811 -0.4148  0.2248 -0.0905
  242MOL0     C33320   7.678   8.962  10.796 -0.0011  0.5626 -0.3016
  242MOL0     C33321   7.802   8.955  10.697 -0.1038 -0.0757  0.4618
  242MOL0     C33322   7.757   8.948  10.562 -0.6177  0.8285  0.6886
  242MOL0     C33323   7.707   8.937  10.448  0.7212 -0.5220  0.2086
  242MOL0     C33324   7.359   8.900  10.574 -0.2724 -0.0885  0.2854
  242MOL0     C33325   7.325   8.759  10.559  1.0002 -0.3955  0.5161
  242MOL0     C33326   7.325   8.695  10.419 -0.5313  0.6064  0.2561
  242MOL0     H33327   7.190   8.333  10.931 -0.1471  1.2769  0.1654
  242MOL0     H33328   7.126   8.091  10.937  1.1560  2.4403  1.6599
  242MOL0     H33329   6.949   7.927  10.544  1.2902  3.2710  0.9125
  242MOL0     H33330   6.806   7.993  10.630  0.9486  1.5554  1.4137
  242MOL0     H33331   6.922   7.719  10.677  0.9042  1.2888 -0.6039
  242MOL0     H33332   6.775   7.789  10.746  0.0255  1.9517 -0.6554
  242MOL0     H33333   6.723   7.816  10.469 -0.6054 -0.8384 -0.7727
  242MOL0     H33334   6.823   7.683  10.461 -2.6625 -0.7724 -1.5210
  242MOL0     H33335   6.674   7.566  10.658 -2.3967 -0.6328 -0.9043
  242MOL0     H33336   6.580   7.708  10.641  1.3372  0.3088  1.5353
  242MOL0     H33337   6.647   7.489  10.442  0.3478  0.7389 -1.7144
  242MOL0     H33338   6.576   7.641  10.389  2.1389  2.2045  0.1819
  242MOL0     H33339   6.382   7.593  10.562 -2.5448 -0.4304 -2.9393
  242MOL0     H33340   6.391   7.501  10.408 -1.2460 -1.6073  0.2097
  242MOL0     H33341   6.521   7.394  10.669  1.2163 -3.1546 -1.6903
  242MOL0     H33342   6.469   7.311  10.519  0.5982  1.1780 -1.0054
  242MOL0     H33343   6.303   7.261  10.703  0.5808  0.2064 -0.7606
  242MOL0     H33344   6.309   7.428  10.747 -0.4007  1.5530 -0.5013
  242MOL0     H33345   6.112   7.192  10.529 -0.4112 -0.4360  0.1351
  242MOL0     H33346   5.875   7.235  10.366  2.6536 -0.5441  1.7652
  242MOL0     H33347   5.894   7.380  10.281  0.1917 -0.4356 -0.3094
  242MOL0     H33348   5.771   7.521  10.461 -0.1005 -0.9377  2.6341
  242MOL0     H33349   5.675   7.424  10.358 -1.9064  4.0486  2.4125
  242MOL0     H33350   5.728   7.356  10.661 -0.1018  0.4351  0.7656
  242MOL0     H33351   5.591   7.411  10.595  1.0768  1.1297  0.7650
  242MOL0     H33352   5.708   7.160  10.493 -0.5430 -0.6909  1.0239
  242MOL0     H33353   5.600   7.163  10.633 -3.1974 -1.0864 -0.6328
  242MOL0     H33354   5.323   7.224  10.288  0.5378  0.7723 -0.4715
  242MOL0     H33355   5.051   6.978  10.228  1.0629 -1.2397 -0.2802
  242MOL0     H33356   5.173   7.034  10.102 -0.0970 -1.3407 -0.2445
  242MOL0     H33357   5.100   7.144  10.206  0.2358 -0.7946 -1.0871
  242MOL0     H33358   4.920   6.775  10.132 -2.3099 -0.0049 -1.4739
  242MOL0     H33359   4.768   6.608  10.052  0.3283 -0.0669 -2.2523
  242MOL0     H33360   4.661   6.437  10.074 -0.4970 -0.1446 -0.5111
  242MOL0     H33361   4.669   6.457   9.897  2.2701  0.6174 -1.4214
  242MOL0     H33362   4.668   6.204   9.886  2.8676 -0.3807  2.5319
  242MOL0     H33363   4.638   6.183  10.040 -1.1559 -2.3760 -1.5675
  242MOL0     H33364   4.450   6.368   9.889  1.1503 -1.9623 -4.5086
  242MOL0     H33365   4.424   6.289  10.042 -2.3989  2.2039 -1.0407
  242MOL0     H33366   4.420   6.172   9.765 -1.0015  0.7458  0.1823
  242MOL0     H33367   4.293   6.177   9.891 -0.5781 -3.9828  0.8812
  242MOL0     H33368   4.378   5.955   9.852  0.2340 -0.6849  0.9777
  242MOL0     H33369   4.545   5.992   9.887  1.2945  1.4176  1.1884
  242MOL0     H33370   4.306   6.024  10.084  0.3306 -0.2616  2.8407
  242MOL0     H33371   4.484   6.036  10.118  0.4159 -0.3224  0.1891
  242MOL0     H33372   4.494   5.832  10.167 -0.5286  1.2360  0.8173
  242MOL0     H33373   4.458   5.783  10.004 -2.9363 -1.3396 -0.5598
  242MOL0     H33374   4.236   5.844  10.211 -2.6553 -0.1953  0.4651
  242MOL0     H33375   4.288   5.685  10.164  2.7285  0.4565  1.0817
  242MOL0     H33376   5.103   6.318  10.035  2.0774  0.2045 -3.7064
  242MOL0     H33377   5.243   6.493  10.146 -1.3053  0.6348  2.2069
  242MOL0     H33378   5.419   6.764  10.474  1.2641 -0.6165 -1.1612
  242MOL0     H33379   5.545   6.967  10.543 -0.1540 -0.9675 -0.6714
  242MOL0     H33380   6.943   8.152  10.543 -2.4092  2.1239  1.0239
  242MOL0     H33381   7.016   8.391  10.551  0.1195 -0.9280 -1.4369
  242MOL0     H33382   7.260   8.696  10.894 -0.3163  3.9785  3.1628
  242MOL0     H33383   7.301   8.921  10.909 -1.0376 -0.7029  0.0298
  242MOL0     H33384   7.558   9.116  10.606  1.9455  3.0630  0.0889
  242MOL0     H33385   7.512   9.253  10.707  1.8905  0.0694 -0.5007
  242MOL0     H33386   7.564   9.115  10.905 -0.1434 -0.1479  0.1001
  242MOL0     H33387   7.694   9.185  10.815 -0.8705  0.6392  0.6955
  242MOL0     H33388   7.704   8.919  10.893  0.9035  0.1145 -0.7297
  242MOL0     H33389   7.599   8.895  10.761  2.2602 -3.2858  1.3024
  242MOL0     H33390   7.859   8.864  10.717  0.0833  0.0649  0.5769
  242MOL0     H33391   7.855   9.051  10.697 -1.0387  0.4874 -1.2860
  242MOL0     H33392   7.663   8.915  10.353  1.7697 -2.5296  0.1150
  242MOL0     H33393   7.377   8.970  10.493 -0.5300  0.1265  0.4139
  242MOL0     H33394   7.413   8.632  10.406 -0.0925  0.6768  2.5256
  242MOL0     H33395   7.234   8.645  10.387 -0.3922  2.0221 -2.7680
  242MOL0     H33396   7.325   8.779  10.348  2.9641 -0.8889 -1.7735
  243MOL0     O33397   7.950   2.821   4.524  0.0336  0.5350  0.1951
  243MOL0     C33398   8.068   2.833   4.498  0.6066  0.9443 -1.1111
  243MOL0     O33399   8.163   2.870   4.595 -0.2398  0.1676  0.4374
  243MOL0     C33400   8.121   2.890   4.730 -0.6713  0.2687  0.9153
  243MOL0     C33401   8.091   2.783   4.822  0.2874 -0.1350 -0.4624
  243MOL0     C33402   8.034   2.804   4.944  0.2289  0.0168  0.1202
  243MOL0     C33403   8.016   2.935   4.999  1.1163  0.6961 -0.2229
  243MOL0     O33404   7.982   2.951   5.135 -0.7281  0.0958  0.1717
  243MOL0     C33405   7.997   3.084   5.193 -0.2540 -0.2056 -0.2227
  243MOL0     C33406   7.908   3.083   5.327 -0.1312  0.1414 -0.3670
  243MOL0     C33407   7.760   3.052   5.293  0.5524  0.7042  0.8714
  243MOL0     C33408   7.688   3.010   5.423 -0.8661 -0.1361 -0.3615
  243MOL0     C33409   7.547   2.948   5.419 -0.5689 -1.0752  0.2342
  243MOL0     C33410   7.535   2.829   5.314  0.1213 -0.1987 -0.4327
  243MOL0     C33411   7.619   2.701   5.350 -0.2167 -0.3631  0.0697
  243MOL0     C33412   7.563   2.617   5.468  0.0229  0.4102  0.0599
  243MOL0     N33413   7.677   2.532   5.516  0.2942  0.2717 -0.0970
  243MOL0     C33414   7.761   2.548   5.629  0.6271 -0.4149  0.5609
  243MOL0     C33415   7.859   2.462   5.607 -0.3925  0.4895  0.1042
  243MOL0     C33416   7.979   2.434   5.687 -0.1292  0.6503 -0.9933
  243MOL0     C33417   8.066   2.555   5.680 -0.4118  0.0596  0.7989
  243MOL0     C33418   8.043   2.655   5.797  0.3301 -0.0185  0.5971
  243MOL0     C33419   8.155   2.755   5.802 -0.6062  0.2056  0.8631
  243MOL0     O33420   8.161   2.817   5.667 -0.0210  0.7539 -0.2734
  243MOL0     C33421   8.261   2.905   5.641  0.5019 -0.3930  0.4242
  243MOL0     C33422   8.340   2.952   5.744 -0.8692 -0.1521  0.3050
  243MOL0     C33423   8.439   3.049   5.709  0.9228  0.5291  0.5678
  243MOL0     C33424   8.509   3.113   5.823  0.1006 -0.4175 -0.3949
  243MOL0     C33425   8.459   3.093   5.575  0.1464 -0.3568  1.0267
  243MOL0     C33426   8.557   3.190   5.530  0.1290  0.8228 -0.5229
  243MOL0     O33427   8.521   3.282   5.433  0.1991 -0.1861 -0.3445
  243MOL0     C33428   8.615   3.368   5.376  0.8260 -0.4233 -0.2379
  243MOL0     C33429   8.754   3.377   5.383  0.0930  0.3971  0.1948
  243MOL0     C33430   8.828   3.477   5.318  0.1588 -0.7433 -0.1244
  243MOL0     C33431   8.763   3.570   5.233  0.0635  0.1506 -0.3498
  243MOL0     O33432   8.827   3.672   5.168 -0.4695 -0.2623 -0.0289
  243MOL0     C33433   8.830   3.812   5.212 -0.1346  0.6717  0.5408
  243MOL0     C33434   8.909   3.838   5.329  0.3386  0.3270  0.9602
  243MOL0     C33435   9.061   3.818   5.299 -0.0651  0.8178 -0.6010
  243MOL0     C33436   9.121   3.953   5.246  0.2528  0.1691  0.5244
  243MOL0     C33437   9.280   3.964   5.236 -0.4056 -0.1843 -0.2137
  243MOL0     C33438   9.356   3.948   5.366 -0.4853 -0.4137  0.3096
  243MOL0     C33439   9.502   3.960   5.344  0.8229 -0.1243  1.1100
  243MOL0     C33440   9.596   4.002   5.457 -0.0174 -0.3320 -0.1132
  243MOL0    Cl33441   9.543   4.157   5.543 -0.0817  0.2562  0.3484
  243MOL0     C33442   8.624   3.563   5.228 -0.3920 -0.9639  0.3343
  243MOL0     C33443   8.556   3.467   5.298  0.2775 -0.0987 -0.0754
  243MOL0     O33444   8.666   3.187   5.587  0.3363  0.0454 -0.6247
  243MOL0     C33445   8.376   3.038   5.478  1.2744  0.3696  0.2588
  243MOL0     C33446   8.278   2.945   5.509 -0.0659  0.0629  0.1972
  243MOL0     N33447   7.841   2.398   5.483  0.5265  0.1821  0.3673
  243MOL0     N33448   7.732   2.443   5.428  0.1513  0.6571  0.2970
  243MOL0     C33449   8.057   3.040   4.914  0.5003 -0.3987  0.2440
  243MOL0     C33450   8.105   3.022   4.786  0.1108 -1.1473  0.7103
  243MOL0     C33451   8.115   2.787   4.364 -0.2843  0.2936  0.1370
  243MOL0     C33452   8.253   2.811   4.331  0.5022 -0.5524 -1.3595
  243MOL0     C33453   8.304   2.768   4.212  0.0626  0.0538  0.3864
  243MOL0     C33454   8.218   2.708   4.120  0.4649 -0.3300  0.1474
  243MOL0     O33455   8.274   2.680   3.998  0.0345 -0.2218 -0.9062
  243MOL0     C33456   8.197   2.612   3.901 -0.6398  0.5127  1.0447
  243MOL0     C33457   8.273   2.618   3.771  0.1451 -0.3728 -0.6875
  243MOL0     C33458   8.288   2.761   3.716  0.0626  0.5399  1.4234
  243MOL0     C33459   8.423   2.782   3.647  0.0449  0.0361 -0.3092
  243MOL0     C33460   8.425   2.678   3.543 -1.0348 -0.0062  0.1427
  243MOL0     C33461   8.435   2.599   3.457 -0.6780  0.8587  0.5326
  243MOL0     C33462   8.083   2.692   4.152  0.4445 -0.5238 -0.0057
  243MOL0     C33463   8.026   2.734   4.269 -0.5245  0.0853 -0.7633
  243MOL0     C33464   7.873   2.721   4.270  0.4095 -0.2724  0.5169
  243MOL0     H33465   8.101   2.681   4.787  2.3609 -0.9653  2.2146
  243MOL0     H33466   8.016   2.728   5.019 -0.4464  1.1213  1.1211
  243MOL0     H33467   7.951   3.156   5.125  0.5662 -0.9795 -1.6445
  243MOL0     H33468   8.100   3.118   5.206 -0.1410  1.1017 -3.7104
  243MOL0     H33469   7.939   3.017   5.408 -0.8602  0.4885  0.2123
  243MOL0     H33470   7.902   3.183   5.371 -0.2542 -0.4611  1.0246
  243MOL0     H33471   7.713   3.144   5.257 -0.0769  0.0143 -0.1069
  243MOL0     H33472   7.746   2.977   5.215 -0.4959  1.9731 -0.2048
  243MOL0     H33473   7.752   2.934   5.469 -1.8899  0.4349  2.1633
  243MOL0     H33474   7.693   3.091   5.496  2.1313 -1.2283  0.7959
  243MOL0     H33475   7.478   3.026   5.384  1.4910  0.8051  0.1767
  243MOL0     H33476   7.519   2.913   5.519  0.5974  0.4644  1.1404
  243MOL0     H33477   7.428   2.804   5.309 -0.3765  1.8946 -1.2245
  243MOL0     H33478   7.554   2.853   5.209 -3.1456 -0.8767 -1.2964
  243MOL0     H33479   7.722   2.734   5.366 -0.1021 -0.7177  0.0574
  243MOL0     H33480   7.625   2.630   5.267 -1.1094 -1.3475  0.8218
  243MOL0     H33481   7.525   2.669   5.557  2.0097  0.1761  1.1050
  243MOL0     H33482   7.473   2.562   5.443  1.4032 -2.6192  1.3071
  243MOL0     H33483   7.751   2.607   5.720 -1.4582 -1.5838  1.1590
  243MOL0     H33484   8.033   2.343   5.659 -0.9097 -1.1302  2.6503
  243MOL0     H33485   7.949   2.417   5.791  0.4271 -0.7332 -1.0365
  243MOL0     H33486   8.166   2.511   5.686 -0.0596  0.9141  1.4981
  243MOL0     H33487   8.055   2.603   5.582 -0.7232 -0.4124  0.5970
  243MOL0     H33488   7.952   2.714   5.785  1.2743  2.6873  4.7630
  243MOL0     H33489   8.025   2.606   5.893 -4.1207  0.2409  0.0685
  243MOL0     H33490   8.142   2.830   5.881  2.6662  3.0785 -1.0147
  243MOL0     H33491   8.250   2.706   5.826  2.5189  4.0818 -2.0522
  243MOL0     H33492   8.324   2.916   5.845  0.8768 -2.1230 -0.0430
  243MOL0     H33493   8.531   3.219   5.805  1.1273 -1.1367 -4.0734
  243MOL0     H33494   8.605   3.064   5.843  0.5030 -0.4667 -2.2484
  243MOL0     H33495   8.440   3.106   5.908  0.3788  2.0983  0.1167
  243MOL0     H33496   8.808   3.303   5.442  0.7815  1.4178  0.8677
  243MOL0     H33497   8.936   3.470   5.324  0.1276 -2.3447 -0.9796
  243MOL0     H33498   8.883   3.873   5.139 -1.3299 -0.7573 -1.6366
  243MOL0     H33499   8.729   3.849   5.233 -0.1055 -0.1133  2.2963
  243MOL0     H33500   8.898   3.941   5.364 -3.2957  1.1431 -1.9147
  243MOL0     H33501   8.869   3.764   5.399 -2.0897  0.9222  0.3210
  243MOL0     H33502   9.078   3.736   5.229  2.1492  1.5892 -1.0436
  243MOL0     H33503   9.108   3.794   5.395 -2.2902 -0.1497  0.3114
  243MOL0     H33504   9.081   4.035   5.306  0.6304  1.8766 -1.4424
  243MOL0     H33505   9.082   3.962   5.144  0.2471 -1.7522  0.3256
  243MOL0     H33506   9.319   3.890   5.165  0.2981  2.1240 -2.3940
  243MOL0     H33507   9.306   4.061   5.194  2.0931 -0.9297 -0.5580
  243MOL0     H33508   9.348   3.858   5.426  0.4672  0.5545  1.9604
  243MOL0     H33509   9.322   4.028   5.433  0.8328  1.9204 -1.6428
  243MOL0     H33510   9.515   4.031   5.261 -0.9998 -2.1935 -1.0739
  243MOL0     H33511   9.544   3.864   5.311  1.4834 -0.3148  2.4419
  243MOL0     H33512   9.702   3.999   5.428  0.0449 -1.2657  0.1913
  243MOL0     H33513   9.587   3.925   5.534  2.8334 -0.7657 -0.1045
  243MOL0     H33514   8.571   3.636   5.169 -1.1187 -0.3895  1.6383
  243MOL0     H33515   8.448   3.457   5.291  0.3492 -0.4466 -0.8800
  243MOL0     H33516   8.393   3.065   5.375 -0.8803  0.6150 -0.0759
  243MOL0     H33517   8.224   2.902   5.426  0.0654  1.2898 -0.5623
  243MOL0     H33518   8.053   3.145   4.941  1.2099  0.2877 -2.1442
  243MOL0     H33519   8.143   3.105   4.728 -1.2635  1.0679  2.7694
  243MOL0     H33520   8.314   2.862   4.404 -3.5127 -0.2810  2.2056
  243MOL0     H33521   8.409   2.792   4.203 -0.5238  2.5404 -0.6530
  243MOL0     H33522   8.181   2.509   3.935  0.1014  0.5910  1.6647
  243MOL0     H33523   8.101   2.655   3.874  0.2333  2.5858  1.0495
  243MOL0     H33524   8.205   2.560   3.708 -2.1251  0.1758  1.1206
  243MOL0     H33525   8.369   2.569   3.791  1.2915  1.9987  0.0751
  243MOL0     H33526   8.213   2.771   3.637  1.6390 -1.2673 -0.3948
  243MOL0     H33527   8.278   2.837   3.795 -0.8160 -1.3890  3.2768
  243MOL0     H33528   8.507   2.777   3.716  0.8347  0.9943 -1.1603
  243MOL0     H33529   8.418   2.881   3.599  0.7298 -0.4239 -1.3524
  243MOL0     H33530   8.428   2.539   3.368 -0.2162  2.2845 -0.5174
  243MOL0     H33531   8.010   2.657   4.079  0.8975 -0.0861 -0.6803
  243MOL0     H33532   7.827   2.647   4.205  2.0154 -2.2250  1.4769
  243MOL0     H33533   7.839   2.689   4.369 -2.5466  1.4333  0.1494
  243MOL0     H33534   7.828   2.816   4.242  2.6941  1.3894  2.1078
  244MOL0     O33535   5.698   4.322   1.670 -0.2332 -0.0971 -0.0961
  244MOL0     C33536   5.693   4.437   1.704 -0.2868  0.2609 -0.4221
  244MOL0     O33537   5.751   4.537   1.639 -0.3989  0.6561  0.1658
  244MOL0     C33538   5.838   4.512   1.533  0.0935  1.7594 -0.5038
  244MOL0     C33539   5.971   4.555   1.536  0.1207 -0.1996  0.1246
  244MOL0     C33540   6.065   4.535   1.433 -1.0622 -0.1942  0.1670
  244MOL0     C33541   6.027   4.468   1.319  0.3538  0.3825 -0.2058
  244MOL0     O33542   6.114   4.448   1.223  0.0148 -0.1360 -0.7801
  244MOL0     C33543   6.073   4.456   1.089 -0.2119 -0.2278  0.8566
  244MOL0     C33544   6.163   4.359   1.002 -0.1749  0.0790 -0.0747
  244MOL0     C33545   6.154   4.400   0.852  0.1344  0.0469 -1.1825
  244MOL0     C33546   6.212   4.301   0.757  0.5453  0.1038  0.5091
  244MOL0     C33547   6.360   4.272   0.789 -0.6159  0.6245 -0.3255
  244MOL0     C33548   6.451   4.223   0.672  1.0849 -0.7699  0.0967
  244MOL0     C33549   6.592   4.197   0.723  0.1767  0.2310  0.0824
  244MOL0     C33550   6.681   4.150   0.603  0.0573 -0.4629  0.8134
  244MOL0     N33551   6.710   4.241   0.487  0.5896 -0.2297  0.5220
  244MOL0     C33552   6.744   4.375   0.499 -0.0129  0.5666 -0.3192
  244MOL0     C33553   6.715   4.430   0.380  0.5140  0.5105  0.3174
  244MOL0     C33554   6.760   4.569   0.333  0.2281  0.8579  0.0983
  244MOL0     C33555   6.904   4.568   0.302  0.7926  0.1246 -0.1146
  244MOL0     C33556   6.928   4.528   0.158  0.0013 -0.0567 -0.4778
  244MOL0     C33557   7.076   4.542   0.129 -0.7439 -0.4894  0.3445
  244MOL0     O33558   7.154   4.452   0.211  0.1700 -0.1447 -0.2145
  244MOL0     C33559   7.291   4.478   0.222 -0.2681 -0.5180  0.5600
  244MOL0     C33560   7.353   4.422   0.331  0.0752  0.1045  0.3045
  244MOL0     C33561   7.495   4.434   0.341 -0.6080  0.9115  1.0286
  244MOL0     C33562   7.551   4.392   0.475 -0.4465 -0.1959 -0.5566
  244MOL0     C33563   7.570   4.488   0.236 -0.8983  0.0945 -0.9454
  244MOL0     C33564   7.719   4.492   0.243 -0.3975  0.7788  0.2717
  244MOL0     O33565   7.770   4.603   0.173  0.0427  0.0283  0.1438
  244MOL0     C33566   7.903   4.632   0.184 -0.2566  0.3491 -0.0853
  244MOL0     C33567   7.970   4.642   0.064  1.0746  0.0958 -0.3655
  244MOL0     C33568   8.114   4.658   0.058  0.1296  0.2886 -0.1674
  244MOL0     C33569   8.181   4.656   0.179  0.3177 -0.6020  0.1980
  244MOL0     O33570   8.314   4.677   0.184  0.0015 -0.4446 -0.1654
  244MOL0     C33571   8.354   4.791   0.115  0.5316 -0.5485 -0.7290
  244MOL0     C33572   8.479   4.864   0.187 -0.4312 -0.0068 -0.2732
  244MOL0     C33573   8.556   4.953   0.094 -0.0310  1.0109  0.3647
  244MOL0     C33574   8.693   5.007   0.146  0.1707  0.8102  1.0563
  244MOL0     C33575   8.688   5.056   0.293  0.3140 -0.5130 -0.1479
  244MOL0     C33576   8.796   5.170   0.296  0.6974 -0.4333 -0.3452
  244MOL0     C33577   8.840   5.201   0.440  0.8909  0.0243 -0.9299
  244MOL0     C33578   8.971   5.266   0.460  0.5553  0.0318 -0.8505
  244MOL0    Cl33579   8.962   5.435   0.387 -0.2258 -0.0140  0.0225
  244MOL0     C33580   8.109   4.642   0.300 -0.1994 -0.4284  0.4667
  244MOL0     C33581   7.973   4.628   0.309  0.7496 -0.3966 -0.0336
  244MOL0     O33582   7.781   4.404   0.308  0.7291 -0.2361 -0.0956
  244MOL0     C33583   7.499   4.549   0.123  0.8877  0.7769  0.4671
  244MOL0     C33584   7.363   4.548   0.120 -1.0318 -1.1131 -1.1270
  244MOL0     N33585   6.685   4.320   0.294  0.2395  0.2768  0.4648
  244MOL0     N33586   6.674   4.207   0.359 -0.2756 -0.1544 -0.0975
  244MOL0     C33587   5.900   4.412   1.322  0.4190 -0.0051  0.0125
  244MOL0     C33588   5.801   4.431   1.420 -0.8540  0.0440 -1.0557
  244MOL0     C33589   5.607   4.474   1.813 -0.6376 -0.3329 -0.2239
  244MOL0     C33590   5.476   4.412   1.838  0.1967  0.0854  0.6247
  244MOL0     C33591   5.395   4.443   1.942  0.0868 -0.0679  0.6154
  244MOL0     C33592   5.432   4.540   2.033 -0.4466  0.2299  0.3230
  244MOL0     O33593   5.339   4.551   2.132 -0.1937 -0.6458 -0.2040
  244MOL0     C33594   5.380   4.499   2.263  0.3402 -0.4878  0.0371
  244MOL0     C33595   5.261   4.428   2.333 -0.1419 -0.7525 -0.0148
  244MOL0     C33596   5.150   4.537   2.375  0.9714  0.1452 -1.0379
  244MOL0     C33597   5.017   4.500   2.439 -0.5102 -0.8756 -0.1145
  244MOL0     C33598   5.029   4.404   2.546  0.4021  0.2769  0.1672
  244MOL0     C33599   5.036   4.329   2.638  0.0436 -0.2439 -0.3007
  244MOL0     C33600   5.551   4.608   2.011  0.0915 -0.0190  0.2123
  244MOL0     C33601   5.647   4.575   1.911  0.1140  0.0716  0.1421
  244MOL0     C33602   5.780   4.636   1.908  0.7304 -0.3200  0.4736
  244MOL0     H33603   6.010   4.609   1.621  2.8683  1.7393 -2.1742
  244MOL0     H33604   6.161   4.587   1.437 -0.9844 -0.2696 -0.6627
  244MOL0     H33605   6.089   4.559   1.056 -0.1208 -0.6544 -0.4632
  244MOL0     H33606   5.969   4.425   1.077  0.2893 -2.4791  1.8848
  244MOL0     H33607   6.267   4.372   1.034  0.0319  0.2626 -0.7892
  244MOL0     H33608   6.157   4.254   1.033  3.7170  0.4171  2.4764
  244MOL0     H33609   6.052   4.419   0.817 -0.0786 -0.7815 -1.0483
  244MOL0     H33610   6.211   4.492   0.836 -0.2257  0.2954 -1.0228
  244MOL0     H33611   6.150   4.211   0.762 -0.5657  0.7795 -0.6073
  244MOL0     H33612   6.207   4.341   0.656  3.1866  0.3505  0.4000
  244MOL0     H33613   6.365   4.190   0.862 -0.8031  0.4815 -0.4740
  244MOL0     H33614   6.408   4.356   0.839 -2.2444 -1.1302  4.8508
  244MOL0     H33615   6.415   4.130   0.626 -1.1564  1.5340 -3.3140
  244MOL0     H33616   6.446   4.303   0.597 -1.6826  0.3399  1.3155
  244MOL0     H33617   6.577   4.126   0.805 -2.1038  3.9070  3.1827
  244MOL0     H33618   6.646   4.284   0.763  1.2273  1.3322 -3.3542
  244MOL0     H33619   6.781   4.133   0.645  0.2130 -1.8302 -0.0491
  244MOL0     H33620   6.636   4.056   0.568 -2.5364  1.2128 -0.6250
  244MOL0     H33621   6.781   4.436   0.581  1.4021  1.6853 -1.7328
  244MOL0     H33622   6.742   4.651   0.403 -1.9041  2.5423 -2.2685
  244MOL0     H33623   6.704   4.583   0.240 -1.6598 -1.6317  0.7441
  244MOL0     H33624   6.957   4.659   0.330 -1.2350  1.8040 -1.4471
  244MOL0     H33625   6.957   4.493   0.362 -0.7476 -0.1854  0.9180
  244MOL0     H33626   6.894   4.427   0.132  0.8273 -0.1792 -1.1430
  244MOL0     H33627   6.877   4.604   0.097 -1.3192  0.3912  1.1170
  244MOL0     H33628   7.097   4.521   0.023 -0.3130  1.7358 -0.0658
  244MOL0     H33629   7.090   4.650   0.137 -1.0060 -0.5060  1.1275
  244MOL0     H33630   7.291   4.369   0.403  3.2931 -2.1935  1.6162
  244MOL0     H33631   7.607   4.300   0.458 -2.3466 -1.1865 -1.7295
  244MOL0     H33632   7.466   4.389   0.543 -0.1446  0.5129 -0.1299
  244MOL0     H33633   7.616   4.463   0.528 -0.8792 -1.2502  1.4687
  244MOL0     H33634   7.910   4.638  -0.027 -0.7161  0.7961  0.7269
  244MOL0     H33635   8.169   4.651  -0.035 -2.0585  0.5210 -1.5570
  244MOL0     H33636   8.381   4.757   0.015  0.1761 -0.6903 -0.7770
  244MOL0     H33637   8.268   4.859   0.109  0.0167 -0.9747  1.1126
  244MOL0     H33638   8.452   4.928   0.271 -0.3187  0.4215 -0.5583
  244MOL0     H33639   8.538   4.792   0.243 -1.1107  1.1153  2.0104
  244MOL0     H33640   8.489   5.034   0.062 -0.8185 -0.0042 -0.6478
  244MOL0     H33641   8.571   4.891   0.005  0.3834 -0.8420  1.6701
  244MOL0     H33642   8.719   5.087   0.075 -0.8003 -1.3340 -1.8962
  244MOL0     H33643   8.771   4.932   0.138 -0.2290  0.4043  0.9496
  244MOL0     H33644   8.586   5.086   0.320 -0.9466 -3.8574 -0.6755
  244MOL0     H33645   8.719   4.980   0.365  0.4667 -1.4023 -1.1218
  244MOL0     H33646   8.742   5.255   0.254  0.3235 -0.2729  0.4422
  244MOL0     H33647   8.878   5.152   0.226 -0.8476  0.6864 -2.5904
  244MOL0     H33648   8.850   5.106   0.492  2.2099  1.7181  2.2246
  244MOL0     H33649   8.759   5.252   0.494  3.2309  1.2879  1.5864
  244MOL0     H33650   9.048   5.205   0.411  4.5758  1.3893  3.1191
  244MOL0     H33651   9.007   5.267   0.563 -0.9789  2.3206 -0.2779
  244MOL0     H33652   8.169   4.637   0.391 -4.5788 -0.5405  3.6762
  244MOL0     H33653   7.922   4.608   0.402  0.0190 -1.0526 -0.5579
  244MOL0     H33654   7.557   4.602   0.048  0.0098  1.7981  0.4921
  244MOL0     H33655   7.315   4.599   0.036 -1.0076  3.2564  1.2268
  244MOL0     H33656   5.867   4.353   1.238 -1.1090  1.7120 -0.6539
  244MOL0     H33657   5.702   4.386   1.424 -0.6506 -0.3457 -0.3234
  244MOL0     H33658   5.429   4.339   1.773 -0.9424 -0.4132  1.9372
  244MOL0     H33659   5.302   4.391   1.959 -0.0406  0.0437  0.2645
  244MOL0     H33660   5.455   4.422   2.245  1.6729  0.4678  1.3318
  244MOL0     H33661   5.426   4.582   2.317  0.1841  0.2131 -0.8854
  244MOL0     H33662   5.302   4.381   2.423 -0.5232  0.3514  0.7734
  244MOL0     H33663   5.221   4.355   2.262 -1.2966 -2.5520  2.3171
  244MOL0     H33664   5.192   4.604   2.451 -2.2563  1.8244 -0.5476
  244MOL0     H33665   5.121   4.603   2.292 -0.1004  0.7699 -0.1912
  244MOL0     H33666   4.947   4.467   2.362 -0.2628  0.7212 -1.0683
  244MOL0     H33667   4.978   4.595   2.475  1.7233  0.7015 -1.6069
  244MOL0     H33668   5.047   4.260   2.720 -0.3510 -1.3037 -1.1191
  244MOL0     H33669   5.574   4.693   2.075 -1.3564  1.4426 -1.1130
  244MOL0     H33670   5.857   4.592   1.843 -0.9033 -0.5495 -1.3916
  244MOL0     H33671   5.774   4.736   1.862  2.6069 -1.0627 -1.6032
  244MOL0     H33672   5.816   4.657   2.009 -2.2231  1.3751  1.2843
  245MOL0     O33673  10.878   9.446   0.472  0.2749  0.0358  0.0739
  245MOL0     C33674  10.883   9.328   0.453  0.1013  0.8836  0.3561
  245MOL0     O33675  10.996   9.255   0.463  0.1525  0.2119 -0.2840
  245MOL0     C33676  11.115   9.311   0.498  0.4008 -2.2003 -0.4880
  245MOL0     C33677  11.126   9.376   0.622  0.4496  0.4200 -0.8560
  245MOL0     C33678  11.246   9.432   0.668  0.8709  0.7717 -0.2649
  245MOL0     C33679  11.350   9.443   0.582 -0.6239  0.3147  0.5993
  245MOL0     O33680  11.462   9.510   0.622 -0.7661 -0.4687 -0.0255
  245MOL0     C33681  11.558   9.561   0.529  0.1163 -0.4908  0.0963
  245MOL0     C33682  11.683   9.592   0.615 -1.0835  0.2548 -0.1784
  245MOL0     C33683  11.788   9.669   0.525 -0.4619  0.4945  0.7011
  245MOL0     C33684  11.807   9.804   0.587  0.1659 -0.3415 -0.1184
  245MOL0     C33685  11.881   9.915   0.514  0.6185 -0.8591  0.9686
  245MOL0     C33686  11.852  10.051   0.575 -0.0793 -0.0615 -0.2143
  245MOL0     C33687  11.947  10.171   0.535 -0.4341  0.0744 -0.1253
  245MOL0     C33688  11.902  10.313   0.555 -0.1177  0.6516 -0.0686
  245MOL0     N33689  12.003  10.419   0.514 -0.2551  0.5320 -0.3907
  245MOL0     C33690  12.005  10.494   0.398 -0.2079  0.2582  0.2230
  245MOL0     C33691  12.121  10.567   0.414 -0.2887  0.2695  1.2268
  245MOL0     C33692  12.165  10.658   0.305 -0.4121 -1.1665 -0.6705
  245MOL0     C33693  12.058  10.758   0.250  0.3243 -0.2461  0.6903
  245MOL0     C33694  12.085  10.826   0.110 -0.5557 -0.3698  0.0467
  245MOL0     C33695  12.157  10.953   0.138  0.7894  0.2955  0.2496
  245MOL0     O33696  12.273  10.950   0.224  0.6139  1.0326 -0.4534
  245MOL0     C33697  12.392  10.911   0.165  0.8438 -0.9390 -0.0848
  245MOL0     C33698  12.491  10.915   0.258 -0.3733 -0.1257  0.6545
  245MOL0     C33699  12.624  10.905   0.206  0.2232 -0.2248 -1.0287
  245MOL0     C33700  12.726  10.919   0.320  0.2765  0.0990 -0.3907
  245MOL0     C33701  12.650  10.894   0.065  0.0077  0.7189  0.1151
  245MOL0     C33702  12.790  10.898   0.017 -0.1004  0.3199 -0.3981
  245MOL0     O33703  12.802  10.871  -0.120 -0.0235  0.2568  0.7121
  245MOL0     C33704  12.921  10.850  -0.181 -0.9695  0.1077 -0.3199
  245MOL0     C33705  12.937  10.875  -0.314  0.9289 -0.6409  1.3875
  245MOL0     C33706  13.057  10.859  -0.382  0.0551  1.0459  0.2114
  245MOL0     C33707  13.165  10.794  -0.324  0.7830  0.1238 -0.3898
  245MOL0     O33708  13.284  10.771  -0.392  0.0753 -0.2988  0.1509
  245MOL0     C33709  13.410  10.786  -0.330 -0.0932 -0.6093 -0.6011
  245MOL0     C33710  13.512  10.747  -0.438  0.4614 -1.1792  0.4282
  245MOL0     C33711  13.659  10.737  -0.390 -0.1644  0.0440 -0.0137
  245MOL0     C33712  13.701  10.863  -0.319 -0.3886  0.1146 -0.0124
  245MOL0     C33713  13.849  10.856  -0.265  0.0063 -0.3101 -0.4376
  245MOL0     C33714  13.868  10.758  -0.141  0.7455  0.5311 -0.2120
  245MOL0     C33715  14.025  10.751  -0.097  0.3057  0.1645 -0.5915
  245MOL0     C33716  14.039  10.667   0.040 -0.1511  0.5808 -0.1033
  245MOL0    Cl33717  13.968  10.506   0.006  0.0599 -0.0102 -0.2107
  245MOL0     C33718  13.144  10.756  -0.187  1.1227  0.3726  0.2110
  245MOL0     C33719  13.030  10.784  -0.116 -0.7163 -0.1107 -0.0085
  245MOL0     O33720  12.881  10.946   0.083  0.2485  0.7884 -1.1221
  245MOL0     C33721  12.543  10.894  -0.031  0.5565  0.3153  0.1610
  245MOL0     C33722  12.415  10.897   0.023  0.8745 -0.2195 -0.5094
  245MOL0     N33723  12.190  10.514   0.524 -0.2855  0.3290  0.2227
  245MOL0     N33724  12.124  10.432   0.580  0.1355  0.1305  0.3977
  245MOL0     C33725  11.344   9.386   0.449  0.0108  0.0476 -0.8750
  245MOL0     C33726  11.226   9.314   0.412  0.4340 -0.1522  0.0241
  245MOL0     C33727  10.755   9.253   0.410  1.0153  0.3055 -0.1473
  245MOL0     C33728  10.645   9.285   0.487  0.7013 -0.0217 -0.0476
  245MOL0     C33729  10.521   9.218   0.462 -0.2531 -0.2973  0.6932
  245MOL0     C33730  10.497   9.150   0.347 -0.1541  0.3638 -0.4576
  245MOL0     O33731  10.368   9.130   0.313 -0.3885 -0.2787  0.6434
  245MOL0     C33732  10.324   9.029   0.224 -0.6216  0.2936  0.2038
  245MOL0     C33733  10.328   8.891   0.291 -0.4354 -0.0987 -0.2321
  245MOL0     C33734  10.223   8.868   0.396  0.2617  0.1154  0.3867
  245MOL0     C33735  10.210   8.716   0.463  0.5832 -0.1614  0.4967
  245MOL0     C33736  10.106   8.721   0.570 -0.8604  0.1536  0.5407
  245MOL0     C33737  10.030   8.715   0.660 -0.2770  0.0296 -0.2067
  245MOL0     C33738  10.609   9.107   0.274  0.9105  0.4450 -0.3781
  245MOL0     C33739  10.731   9.166   0.305  0.5333  0.0695 -0.1542
  245MOL0     C33740  10.839   9.151   0.205 -0.2849 -0.6133 -0.4261
  245MOL0     H33741  11.037   9.384   0.684  2.0056  1.0596  1.4361
  245MOL0     H33742  11.257   9.478   0.765 -1.7684  0.8389  0.0951
  245MOL0     H33743  11.517   9.651   0.483  0.2390 -0.2875  0.3833
  245MOL0     H33744  11.589   9.491   0.451  1.0901  0.7944 -0.6851
  245MOL0     H33745  11.649   9.658   0.695  0.3490  0.8830 -0.0551
  245MOL0     H33746  11.725   9.505   0.666 -2.7482 -0.1442  0.5671
  245MOL0     H33747  11.887   9.622   0.524 -1.9908 -3.0439  1.3596
  245MOL0     H33748  11.750   9.665   0.423 -0.6186 -1.2213  0.8019
  245MOL0     H33749  11.705   9.831   0.615 -0.0770 -2.4063  1.2289
  245MOL0     H33750  11.869   9.790   0.676  0.4882 -0.7586 -0.4004
  245MOL0     H33751  11.842   9.914   0.412  1.3546 -0.5135  0.6783
  245MOL0     H33752  11.990   9.903   0.517  0.8750  0.1726 -1.8116
  245MOL0     H33753  11.756  10.087   0.537  2.0338  3.2800 -3.1174
  245MOL0     H33754  11.854  10.041   0.684 -1.0707 -1.4151 -0.3044
  245MOL0     H33755  11.975  10.157   0.430 -1.9010 -2.6638 -0.2566
  245MOL0     H33756  12.035  10.154   0.598 -0.8122 -0.0559  0.3775
  245MOL0     H33757  11.810  10.326   0.496 -0.1295 -1.2686 -0.5459
  245MOL0     H33758  11.884  10.326   0.662 -1.3548 -1.3651  0.0106
  245MOL0     H33759  11.938  10.495   0.312  0.0933 -2.1624 -0.1059
  245MOL0     H33760  12.205  10.598   0.223 -0.4881 -2.4475  0.1881
  245MOL0     H33761  12.254  10.716   0.331 -2.9499  2.0796  1.6488
  245MOL0     H33762  11.969  10.698   0.230  1.2055 -2.1440  2.1287
  245MOL0     H33763  12.037  10.835   0.325  0.7071  1.2907 -0.7246
  245MOL0     H33764  12.148  10.766   0.044  0.3680  2.6513 -2.0203
  245MOL0     H33765  11.995  10.841   0.051  1.9160  0.1615 -3.9330
  245MOL0     H33766  12.175  11.014   0.050 -0.7105  1.6277  0.8164
  245MOL0     H33767  12.079  11.007   0.193 -1.0666 -4.4471  2.9445
  245MOL0     H33768  12.466  10.933   0.361 -1.1174 -0.3087  0.5094
  245MOL0     H33769  12.812  10.852   0.310 -0.4064 -0.9015  0.2666
  245MOL0     H33770  12.681  10.894   0.416 -0.7866 -1.0918 -1.1650
  245MOL0     H33771  12.760  11.023   0.325 -0.9661  0.5797 -1.3780
  245MOL0     H33772  12.862  10.927  -0.373  1.3002 -0.9426  0.6276
  245MOL0     H33773  13.077  10.902  -0.480  1.3126 -1.2450 -0.6049
  245MOL0     H33774  13.417  10.891  -0.300  0.2418 -1.4258  2.5615
  245MOL0     H33775  13.430  10.718  -0.247  2.9084 -3.7099 -3.5182
  245MOL0     H33776  13.483  10.647  -0.471 -0.1479 -1.3364  1.4056
  245MOL0     H33777  13.508  10.815  -0.523 -0.1305 -2.6593 -0.7799
  245MOL0     H33778  13.730  10.703  -0.466 -0.1584  2.0197 -0.9471
  245MOL0     H33779  13.651  10.652  -0.321  2.5538  1.5707  2.3459
  245MOL0     H33780  13.647  10.873  -0.224  1.7761 -2.1584  1.5913
  245MOL0     H33781  13.686  10.951  -0.382  0.6774 -0.9470 -1.8310
  245MOL0     H33782  13.921  10.837  -0.345  2.1590  0.8332  1.1236
  245MOL0     H33783  13.886  10.951  -0.227 -0.9128  0.7753 -2.1754
  245MOL0     H33784  13.827  10.661  -0.172  0.9931  1.6723 -4.6786
  245MOL0     H33785  13.811  10.799  -0.057  1.0744 -0.9362  0.7934
  245MOL0     H33786  14.073  10.848  -0.088  0.2057  0.4852 -2.8579
  245MOL0     H33787  14.072  10.694  -0.178 -1.5305  1.4113 -2.6647
  245MOL0     H33788  13.998  10.714   0.130  0.5685  3.1550 -1.0170
  245MOL0     H33789  14.145  10.647   0.057 -0.6190 -1.6669  0.4488
  245MOL0     H33790  13.226  10.704  -0.138 -0.2963 -0.4707  1.7947
  245MOL0     H33791  13.010  10.757  -0.013  0.3394 -1.9745 -0.2529
  245MOL0     H33792  12.551  10.873  -0.137  0.5929 -0.9516  0.4019
  245MOL0     H33793  12.333  10.880  -0.046 -0.2000 -0.4700  0.7753
  245MOL0     H33794  11.426   9.381   0.378  0.9014 -0.5560  0.1695
  245MOL0     H33795  11.235   9.264   0.316 -1.2405  0.7933 -0.6638
  245MOL0     H33796  10.654   9.350   0.574 -1.9725 -2.1377  2.0056
  245MOL0     H33797  10.436   9.244   0.523 -0.8263 -0.2929 -0.0930
  245MOL0     H33798  10.221   9.049   0.194 -0.7440 -0.8691 -0.1980
  245MOL0     H33799  10.381   9.036   0.132  1.5756 -2.7066  1.1560
  245MOL0     H33800  10.422   8.884   0.346 -1.6247 -3.8929  1.6559
  245MOL0     H33801  10.329   8.811   0.216 -0.0458  0.1432 -0.4891
  245MOL0     H33802  10.231   8.955   0.462  1.0048  0.2227  0.1636
  245MOL0     H33803  10.131   8.887   0.340  0.7535 -0.5094 -0.6721
  245MOL0     H33804  10.309   8.699   0.506  1.0809 -0.2758 -0.6431
  245MOL0     H33805  10.186   8.638   0.390  0.9442  1.3366 -1.2899
  245MOL0     H33806   9.959   8.724   0.740 -0.7956  1.4183 -0.7946
  245MOL0     H33807  10.591   9.042   0.189 -1.2876  0.3748  0.0845
  245MOL0     H33808  10.928   9.102   0.247  0.1601 -0.3933 -1.1093
  245MOL0     H33809  10.810   9.095   0.117 -2.8557 -0.3900  0.2158
  245MOL0     H33810  10.868   9.250   0.170 -2.1549  0.6011  1.2315
  246MOL0     O33811   5.479   3.550   1.208 -0.0632  0.9516 -0.5640
  246MOL0     C33812   5.399   3.553   1.113 -0.0514 -0.5184  0.7371
  246MOL0     O33813   5.422   3.614   0.994 -0.5494  0.0582  0.3926
  246MOL0     C33814   5.550   3.617   0.934  0.6865 -0.0132  0.0845
  246MOL0     C33815   5.654   3.525   0.957 -0.2067  0.2856  0.3650
  246MOL0     C33816   5.772   3.513   0.883  0.5756  0.3817 -0.2984
  246MOL0     C33817   5.792   3.614   0.781  0.0577  0.5596 -0.1347
  246MOL0     O33818   5.897   3.613   0.696  0.2628 -0.2491 -0.5299
  246MOL0     C33819   5.921   3.483   0.641  0.0359 -0.2662  0.0087
  246MOL0     C33820   5.983   3.522   0.508 -0.1000 -0.0014  0.2546
  246MOL0     C33821   6.127   3.575   0.531 -0.0212 -0.5627  0.1348
  246MOL0     C33822   6.216   3.482   0.604 -0.4628 -0.5577  0.8310
  246MOL0     C33823   6.368   3.528   0.602 -0.2659  1.0187 -0.2177
  246MOL0     C33824   6.426   3.500   0.467 -0.4357  1.1029 -0.2854
  246MOL0     C33825   6.565   3.553   0.455 -0.5830 -1.1912 -0.0877
  246MOL0     C33826   6.583   3.707   0.462 -0.3630  0.2909  0.2184
  246MOL0     N33827   6.717   3.743   0.440  0.1803 -0.0934 -0.0792
  246MOL0     C33828   6.764   3.839   0.355 -0.6309 -1.1206  0.2492
  246MOL0     C33829   6.902   3.824   0.359 -0.9698 -0.1881  0.2449
  246MOL0     C33830   6.997   3.894   0.273  0.1542 -0.1208 -0.1341
  246MOL0     C33831   6.975   4.049   0.242 -0.6853  0.9977 -0.6905
  246MOL0     C33832   7.099   4.128   0.202  0.0924 -0.5476  0.3171
  246MOL0     C33833   7.175   4.102   0.077  0.8968 -0.1808 -0.3827
  246MOL0     O33834   7.090   4.086  -0.034  0.3736 -1.0783 -0.7186
  246MOL0     C33835   7.074   4.200  -0.105  0.5140  0.3209 -1.1142
  246MOL0     C33836   6.944   4.254  -0.094  0.3301 -0.4741 -0.4176
  246MOL0     C33837   6.916   4.372  -0.165  0.1266  0.3052 -0.1242
  246MOL0     C33838   6.783   4.441  -0.139 -1.0847  0.4676 -0.2346
  246MOL0     C33839   7.016   4.430  -0.249 -0.2602  0.0140 -0.9194
  246MOL0     C33840   6.992   4.543  -0.348 -0.2662 -0.1962 -0.4260
  246MOL0     O33841   6.896   4.632  -0.313 -0.3754 -0.2510  0.0072
  246MOL0     C33842   6.837   4.696  -0.422 -0.2869  0.2617 -0.3924
  246MOL0     C33843   6.703   4.665  -0.442 -0.2267  0.9940  0.0737
  246MOL0     C33844   6.631   4.733  -0.542 -0.2935 -0.2253 -0.0719
  246MOL0     C33845   6.694   4.828  -0.630  0.1066 -0.2742 -0.8485
  246MOL0     O33846   6.634   4.901  -0.728 -0.4108  0.4205 -0.3111
  246MOL0     C33847   6.561   4.818  -0.830 -1.4544  0.6834 -1.0510
  246MOL0     C33848   6.512   4.895  -0.947 -0.3438  0.7743 -0.9018
  246MOL0     C33849   6.499   5.042  -0.901 -0.1891 -0.6925  0.0016
  246MOL0     C33850   6.411   5.107  -1.001  0.2449  0.2774  0.4141
  246MOL0     C33851   6.383   5.259  -0.989  0.3988  0.2081  0.3471
  246MOL0     C33852   6.287   5.297  -1.094  0.0480 -0.2600  0.1578
  246MOL0     C33853   6.239   5.447  -1.080 -0.2019  0.2246 -0.3981
  246MOL0     C33854   6.196   5.499  -1.210  0.9831 -0.1100  0.1566
  246MOL0    Cl33855   6.127   5.665  -1.170  0.3302  0.1124 -0.2030
  246MOL0     C33856   6.823   4.863  -0.594  0.0736  1.3942  0.2316
  246MOL0     C33857   6.896   4.795  -0.491 -0.1751 -0.6093 -0.2087
  246MOL0     O33858   7.069   4.554  -0.445  0.1696 -0.3930 -0.5689
  246MOL0     C33859   7.142   4.375  -0.251 -0.0230 -0.4522  0.0296
  246MOL0     C33860   7.179   4.265  -0.175  0.4293 -0.1170  0.5053
  246MOL0     N33861   6.933   3.732   0.446 -0.0517  0.0290 -0.3641
  246MOL0     N33862   6.825   3.681   0.495  0.3738  0.1624  0.0540
  246MOL0     C33863   5.683   3.699   0.753 -0.3112  1.0606 -0.0236
  246MOL0     C33864   5.564   3.702   0.822  0.0891  0.2125 -0.3215
  246MOL0     C33865   5.256   3.514   1.143  0.3484  0.4152  0.5324
  246MOL0     C33866   5.212   3.510   1.279  0.3917 -0.0166 -0.6671
  246MOL0     C33867   5.077   3.489   1.314  0.8743 -0.1035 -0.4301
  246MOL0     C33868   4.978   3.465   1.221 -0.3397 -0.6039 -1.0656
  246MOL0     O33869   4.846   3.456   1.256  1.2288 -0.5276  0.7075
  246MOL0     C33870   4.768   3.566   1.242 -0.4494 -0.2496 -0.1287
  246MOL0     C33871   4.634   3.569   1.313 -0.5722  0.4415 -0.2606
  246MOL0     C33872   4.547   3.431   1.298 -0.3097  0.1057 -1.2081
  246MOL0     C33873   4.451   3.418   1.422  0.3255 -0.2664 -0.7335
  246MOL0     C33874   4.402   3.280   1.425 -0.2070  0.0838 -0.1537
  246MOL0     C33875   4.363   3.169   1.416 -0.4049  0.9617 -0.6525
  246MOL0     C33876   5.017   3.461   1.089 -0.7758 -0.4334  0.8377
  246MOL0     C33877   5.154   3.482   1.046 -0.4403  0.5498 -0.2868
  246MOL0     C33878   5.174   3.480   0.896  0.2890 -0.4083 -0.7267
  246MOL0     H33879   5.625   3.447   1.026 -0.3996  2.0252  2.3421
  246MOL0     H33880   5.858   3.449   0.902  0.9699  0.4448 -1.7423
  246MOL0     H33881   5.835   3.421   0.613  0.5759 -0.1106 -2.1408
  246MOL0     H33882   5.979   3.426   0.714 -2.1402 -0.1143  1.9729
  246MOL0     H33883   6.006   3.430   0.454  1.1824 -1.7447  3.4779
  246MOL0     H33884   5.924   3.587   0.443  2.2461  0.8584 -1.1688
  246MOL0     H33885   6.173   3.593   0.434  0.8613  2.4699  0.9932
  246MOL0     H33886   6.108   3.668   0.587 -1.9824  0.7392 -2.4876
  246MOL0     H33887   6.179   3.478   0.707  1.5259 -1.0436  1.5649
  246MOL0     H33888   6.204   3.390   0.546 -2.1312 -0.1674  0.4890
  246MOL0     H33889   6.416   3.460   0.673  0.3392 -0.4926 -2.0257
  246MOL0     H33890   6.368   3.631   0.642  1.4049  0.8318  0.3360
  246MOL0     H33891   6.430   3.393   0.445  0.0883  1.6747 -3.3297
  246MOL0     H33892   6.358   3.540   0.392  0.8819 -0.2770 -2.2995
  246MOL0     H33893   6.607   3.519   0.359 -0.0400  0.7028 -0.5642
  246MOL0     H33894   6.620   3.520   0.544  0.3641  0.0712 -0.1742
  246MOL0     H33895   6.523   3.754   0.383  1.6871  2.5015 -0.1379
  246MOL0     H33896   6.543   3.752   0.554 -1.0807  1.3310 -0.5692
  246MOL0     H33897   6.710   3.908   0.290 -1.5687 -0.5058  1.6392
  246MOL0     H33898   7.005   3.826   0.188  1.9582 -1.3964  0.9825
  246MOL0     H33899   7.098   3.885   0.315 -0.3966 -0.1793  1.2446
  246MOL0     H33900   6.901   4.063   0.163 -1.4006  4.1155  0.3830
  246MOL0     H33901   6.940   4.098   0.333 -2.3344  0.7277 -1.1446
  246MOL0     H33902   7.072   4.233   0.193 -2.2879 -1.2641 -2.0019
  246MOL0     H33903   7.166   4.121   0.288 -2.0143  0.0745  2.0641
  246MOL0     H33904   7.243   4.186   0.058 -0.6905  1.6321  1.4023
  246MOL0     H33905   7.229   4.008   0.090  0.3247 -0.6428 -1.2631
  246MOL0     H33906   6.867   4.207  -0.034 -1.9299 -4.0591 -5.4399
  246MOL0     H33907   6.812   4.541  -0.104 -0.1524 -0.5009  1.9394
  246MOL0     H33908   6.724   4.397  -0.058  0.3346  0.3103  0.7423
  246MOL0     H33909   6.718   4.448  -0.227 -0.6701 -0.5245 -0.6395
  246MOL0     H33910   6.663   4.594  -0.371  0.5607  0.0603 -0.3933
  246MOL0     H33911   6.525   4.715  -0.559 -0.3419  1.2769 -1.6045
  246MOL0     H33912   6.624   4.739  -0.873 -1.6727  0.8145 -1.6167
  246MOL0     H33913   6.478   4.767  -0.781 -0.6815 -2.3860 -2.6863
  246MOL0     H33914   6.572   4.878  -1.036 -1.7432 -0.7866 -1.6158
  246MOL0     H33915   6.414   4.854  -0.974 -0.4320  0.0275  0.4371
  246MOL0     H33916   6.603   5.077  -0.897 -1.2506  2.6331  1.4516
  246MOL0     H33917   6.464   5.041  -0.798 -2.2439 -1.7294 -0.6526
  246MOL0     H33918   6.313   5.059  -1.005 -0.6752  2.0919 -2.2598
  246MOL0     H33919   6.447   5.082  -1.101 -1.0416 -0.9266  0.2275
  246MOL0     H33920   6.345   5.285  -0.890  1.6456  0.2360  0.8352
  246MOL0     H33921   6.481   5.307  -0.990  0.4620  0.1057  1.1242
  246MOL0     H33922   6.199   5.232  -1.092 -1.2054  1.2630 -1.5346
  246MOL0     H33923   6.349   5.278  -1.182 -1.0061 -2.2597 -0.2099
  246MOL0     H33924   6.318   5.511  -1.039 -0.9104 -0.6119  2.5098
  246MOL0     H33925   6.156   5.458  -1.009 -0.4645 -0.4997 -0.5856
  246MOL0     H33926   6.112   5.447  -1.256  0.2872  1.3826 -0.3229
  246MOL0     H33927   6.285   5.504  -1.273  1.3064  1.6635  0.6844
  246MOL0     H33928   6.872   4.944  -0.647  1.0481  0.4635 -0.3285
  246MOL0     H33929   6.995   4.827  -0.460 -0.8025 -0.5755  1.9297
  246MOL0     H33930   7.219   4.425  -0.311 -1.9442  1.2110 -1.1996
  246MOL0     H33931   7.285   4.244  -0.170  0.4652 -0.3793 -0.9975
  246MOL0     H33932   5.679   3.763   0.665 -2.1321 -1.7881 -2.1871
  246MOL0     H33933   5.479   3.765   0.797 -1.9490 -1.9483  0.7246
  246MOL0     H33934   5.275   3.522   1.366 -0.8222  1.2545  0.0949
  246MOL0     H33935   5.046   3.489   1.417  3.1971  1.5734  0.3571
  246MOL0     H33936   4.812   3.657   1.284 -1.2972  0.3379 -0.4837
  246MOL0     H33937   4.746   3.586   1.137 -0.3700  0.4955 -0.0147
  246MOL0     H33938   4.574   3.658   1.293 -1.5732 -0.1968 -0.1630
  246MOL0     H33939   4.666   3.570   1.417  0.5892  1.6696 -0.5930
  246MOL0     H33940   4.497   3.433   1.201  0.4633  0.4281 -1.6131
  246MOL0     H33941   4.617   3.347   1.292  1.4813  1.6100 -2.7281
  246MOL0     H33942   4.363   3.483   1.416 -0.3909 -1.2733 -1.6748
  246MOL0     H33943   4.508   3.429   1.515 -2.2602 -1.8204  1.1880
  246MOL0     H33944   4.329   3.068   1.408 -2.3188  1.4159  0.8732
  246MOL0     H33945   4.954   3.445   1.002  2.3080  1.8527 -2.0722
  246MOL0     H33946   5.084   3.458   0.838  1.6344 -0.9067 -2.6949
  246MOL0     H33947   5.204   3.580   0.863  0.1812  0.5293  1.7947
  246MOL0     H33948   5.249   3.403   0.877 -0.7846 -1.8604  0.6264
  247MOL0     O33949   0.923   9.810   1.047 -0.0430  0.2727 -0.5189
  247MOL0     C33950   0.838   9.769   0.975  0.8185  0.3893 -0.4008
  247MOL0     O33951   0.829   9.792   0.852 -0.8048  0.0903  0.1660
  247MOL0     C33952   0.894   9.899   0.796  0.0874 -0.0052  0.1556
  247MOL0     C33953   1.027   9.924   0.814 -0.5067  1.0848 -0.2936
  247MOL0     C33954   1.092  10.038   0.762 -0.5517  0.0262 -0.1136
  247MOL0     C33955   1.022  10.132   0.686  0.2378 -0.2113 -0.1520
  247MOL0     O33956   1.074  10.248   0.639 -0.5807  0.5496  0.5180
  247MOL0     C33957   1.013  10.380   0.666  0.3568  1.6442 -0.2072
  247MOL0     C33958   1.058  10.441   0.798  0.0875 -0.2536 -0.2037
  247MOL0     C33959   1.212  10.456   0.808  0.3979 -0.1637 -0.6241
  247MOL0     C33960   1.237  10.537   0.939  0.1160  0.1900 -1.0918
  247MOL0     C33961   1.385  10.559   0.958 -0.2153 -0.4824 -0.1315
  247MOL0     C33962   1.478  10.435   0.967 -0.4448  0.4287  0.0017
  247MOL0     C33963   1.424  10.337   1.066 -0.3678  0.0547  1.4779
  247MOL0     C33964   1.394  10.385   1.208 -0.1735 -0.2966 -0.4663
  247MOL0     N33965   1.519  10.445   1.263 -0.1099  0.9292  0.1299
  247MOL0     C33966   1.630  10.370   1.280 -0.0057 -0.9766  0.4716
  247MOL0     C33967   1.707  10.459   1.352 -0.5623 -0.2307  0.1733
  247MOL0     C33968   1.843  10.433   1.401 -0.8138 -0.6241 -0.5630
  247MOL0     C33969   1.940  10.473   1.302 -0.2774 -0.1509 -0.7175
  247MOL0     C33970   2.087  10.454   1.350  0.3541  0.7138 -0.2460
  247MOL0     C33971   2.173  10.535   1.255 -0.1026  0.2203  0.8654
  247MOL0     O33972   2.306  10.485   1.264 -0.3537 -0.0893  0.0980
  247MOL0     C33973   2.397  10.573   1.222 -0.3653 -0.4126 -0.0245
  247MOL0     C33974   2.426  10.593   1.094 -0.1233  0.2051  1.4492
  247MOL0     C33975   2.511  10.696   1.047 -0.4492  0.7496 -0.1284
  247MOL0     C33976   2.542  10.695   0.898  0.0765 -0.0735  0.2507
  247MOL0     C33977   2.579  10.779   1.136 -1.7122 -0.7258 -0.1946
  247MOL0     C33978   2.689  10.882   1.104 -0.2118  0.1387 -0.1010
  247MOL0     O33979   2.751  10.922   1.220  0.4072 -0.5236 -0.2938
  247MOL0     C33980   2.876  10.965   1.229 -0.7045 -0.2463 -1.3909
  247MOL0     C33981   2.919  11.067   1.151  0.2030  0.7466  0.7074
  247MOL0     C33982   3.054  11.117   1.147  0.3362  0.3080 -0.4865
  247MOL0     C33983   3.144  11.054   1.222  0.0081 -0.0685  0.0451
  247MOL0     O33984   3.270  11.110   1.206  0.1873  0.6212  0.2637
  247MOL0     C33985   3.381  11.043   1.269  0.5840 -0.6258 -0.9276
  247MOL0     C33986   3.433  11.131   1.391  1.1603  0.3863 -0.5273
  247MOL0     C33987   3.461  11.276   1.350 -0.5511 -0.7114 -0.3606
  247MOL0     C33988   3.550  11.340   1.454  0.1542 -0.7029 -0.4613
  247MOL0     C33989   3.594  11.491   1.422 -0.6980 -0.7830  0.8329
  247MOL0     C33990   3.710  11.530   1.521 -0.8131 -0.5588  0.7035
  247MOL0     C33991   3.837  11.472   1.471  0.2167 -0.5074  0.1478
  247MOL0     C33992   3.960  11.552   1.517  0.1084 -0.3700 -0.3852
  247MOL0    Cl33993   3.978  11.532   1.690 -0.2967  0.0337 -0.2343
  247MOL0     C33994   3.106  10.949   1.313  0.3145  0.4377 -0.3787
  247MOL0     C33995   2.964  10.905   1.321 -1.1910  0.6795 -0.1906
  247MOL0     O33996   2.731  10.901   0.995  0.1138  0.3235 -0.1717
  247MOL0     C33997   2.534  10.767   1.267 -0.1669  0.9954  0.0608
  247MOL0     C33998   2.452  10.666   1.311 -0.3012  0.6115 -0.4167
  247MOL0     N33999   1.647  10.588   1.352  0.1578 -0.3173  0.4445
  247MOL0     N34000   1.527  10.571   1.305  0.0147  0.5628 -0.9562
  247MOL0     C34001   0.883  10.104   0.667  0.4259 -0.4563 -0.3355
  247MOL0     C34002   0.825   9.986   0.721  0.2756 -0.3218  0.1108
  247MOL0     C34003   0.746   9.661   1.030 -0.6619 -1.2330 -0.8398
  247MOL0     C34004   0.643   9.613   0.951  0.5886  0.0209 -0.0930
  247MOL0     C34005   0.544   9.533   1.011 -0.0257 -0.5640  0.0037
  247MOL0     C34006   0.534   9.508   1.142 -1.0645 -0.5420  0.3613
  247MOL0     O34007   0.426   9.441   1.191 -0.1405 -0.3867  0.4523
  247MOL0     C34008   0.350   9.506   1.295 -1.2190  0.1978  0.2069
  247MOL0     C34009   0.235   9.411   1.333  0.4177  0.1375  0.7034
  247MOL0     C34010   0.120   9.401   1.235 -0.4672 -0.6354  0.3137
  247MOL0     C34011  -0.010   9.326   1.289  0.1033 -0.8774 -0.1294
  247MOL0     C34012   0.012   9.198   1.353  0.8899 -0.0080  0.3015
  247MOL0     C34013   0.037   9.099   1.414 -0.1824 -0.0279 -1.2997
  247MOL0     C34014   0.642   9.557   1.227  0.5372  0.4163 -0.3712
  247MOL0     C34015   0.748   9.630   1.176  0.0526  0.7563  0.1358
  247MOL0     C34016   0.856   9.678   1.271 -0.2959 -1.1705  0.4740
  247MOL0     H34017   1.084   9.864   0.883  2.2244  4.0510  0.2634
  247MOL0     H34018   1.199  10.044   0.780 -0.5084 -3.4433  1.7555
  247MOL0     H34019   0.904  10.376   0.664  0.3804 -1.3681 -1.8252
  247MOL0     H34020   1.039  10.454   0.590 -2.0109  2.3018 -0.4662
  247MOL0     H34021   1.012  10.540   0.811  2.7017  0.8924  1.1972
  247MOL0     H34022   1.021  10.376   0.877 -2.0428 -0.0419 -0.9709
  247MOL0     H34023   1.254  10.356   0.798 -1.7222 -0.9927 -1.9284
  247MOL0     H34024   1.240  10.525   0.727  1.5678  1.5642  1.1353
  247MOL0     H34025   1.192  10.636   0.928  0.9848  0.7894  0.4505
  247MOL0     H34026   1.192  10.497   1.031 -1.7548  1.3753 -1.4423
  247MOL0     H34027   1.395  10.619   1.050 -2.4511 -0.9440  0.4881
  247MOL0     H34028   1.426  10.613   0.873  0.5581  0.6057  0.8989
  247MOL0     H34029   1.478  10.385   0.870 -0.5938 -0.3279  0.3896
  247MOL0     H34030   1.576  10.476   0.993 -0.2753  0.5780 -0.8296
  247MOL0     H34031   1.488  10.250   1.079 -2.0788 -1.6414 -0.8043
  247MOL0     H34032   1.332  10.302   1.019 -0.1719  2.6425 -1.1699
  247MOL0     H34033   1.311  10.457   1.212 -2.8947 -3.1486  4.1114
  247MOL0     H34034   1.367  10.306   1.279  2.4151  1.6328  2.9808
  247MOL0     H34035   1.652  10.268   1.249 -1.9122 -1.5758  0.9301
  247MOL0     H34036   1.847  10.327   1.428 -1.6415 -0.1922  1.5393
  247MOL0     H34037   1.863  10.489   1.493 -3.7667  1.9380 -1.2996
  247MOL0     H34038   1.941  10.414   1.210  3.2405  0.6158 -1.3290
  247MOL0     H34039   1.915  10.575   1.269  0.6975  0.1124 -0.6909
  247MOL0     H34040   2.111  10.489   1.450 -0.6280 -0.0790  0.2807
  247MOL0     H34041   2.110  10.348   1.339  3.2344  1.2826 -0.5181
  247MOL0     H34042   2.136  10.531   1.152  3.0383 -1.7169 -0.3500
  247MOL0     H34043   2.172  10.638   1.291 -6.1820  0.2748  1.5269
  247MOL0     H34044   2.378  10.528   1.021 -1.1005  1.2133  1.1773
  247MOL0     H34045   2.549  10.801   0.872  3.9037  0.2040  1.8273
  247MOL0     H34046   2.453  10.657   0.846  0.2424  2.1352 -1.8283
  247MOL0     H34047   2.619  10.623   0.870 -2.4312 -2.6349 -0.5640
  247MOL0     H34048   2.844  11.112   1.086 -1.5507 -0.8316  1.5722
  247MOL0     H34049   3.078  11.195   1.075  1.9651  1.9146  1.6438
  247MOL0     H34050   3.364  10.941   1.304  0.3430  0.9599  4.4518
  247MOL0     H34051   3.464  11.044   1.198  1.7691 -0.4472  0.4185
  247MOL0     H34052   3.354  11.134   1.467  1.4979  1.0307 -0.1960
  247MOL0     H34053   3.525  11.093   1.437  0.6641  2.1269  2.1448
  247MOL0     H34054   3.369  11.337   1.350 -1.2981 -1.7824 -1.8254
  247MOL0     H34055   3.511  11.289   1.254 -1.1915 -0.4852 -0.6761
  247MOL0     H34056   3.638  11.280   1.476 -0.4920 -0.6133  3.0141
  247MOL0     H34057   3.490  11.343   1.547 -0.4290 -1.4974 -0.8008
  247MOL0     H34058   3.620  11.504   1.317 -2.5543  0.0875  0.4353
  247MOL0     H34059   3.502  11.547   1.441 -0.3047 -0.3244  1.4066
  247MOL0     H34060   3.684  11.491   1.620 -2.2816 -1.7106 -0.1117
  247MOL0     H34061   3.707  11.639   1.509 -0.8162 -0.8628 -3.4109
  247MOL0     H34062   3.836  11.477   1.361 -0.4966 -2.8007 -0.0176
  247MOL0     H34063   3.840  11.368   1.503  1.0188  0.3700  3.1572
  247MOL0     H34064   3.942  11.659   1.500  3.0275  0.1839 -0.4806
  247MOL0     H34065   4.053  11.526   1.465  0.5592  1.4773 -0.5727
  247MOL0     H34066   3.181  10.901   1.374  1.4873 -1.1170 -2.8832
  247MOL0     H34067   2.942  10.837   1.402 -0.8858  1.2564  0.3860
  247MOL0     H34068   2.579  10.838   1.335  1.7087 -0.4935  0.4730
  247MOL0     H34069   2.429  10.671   1.416  0.6594 -0.7895 -0.1116
  247MOL0     H34070   0.831  10.179   0.608  0.2899  1.8485  2.4942
  247MOL0     H34071   0.717   9.979   0.706  0.2132  0.6139  0.0317
  247MOL0     H34072   0.630   9.642   0.847 -1.7156 -2.4621 -0.6201
  247MOL0     H34073   0.471   9.493   0.942 -1.6539  2.5227 -0.2475
  247MOL0     H34074   0.413   9.522   1.383 -0.9442  0.7495 -0.0870
  247MOL0     H34075   0.309   9.600   1.257 -0.7973  0.5339  0.5824
  247MOL0     H34076   0.199   9.446   1.431  0.6082 -3.1216  2.0548
  247MOL0     H34077   0.279   9.312   1.348  4.4134  0.9071 -3.7437
  247MOL0     H34078   0.085   9.499   1.200 -0.4707 -0.5592  0.5301
  247MOL0     H34079   0.154   9.351   1.144  1.2396  3.1200 -1.3559
  247MOL0     H34080  -0.077   9.311   1.204 -0.1649  0.1607 -0.1169
  247MOL0     H34081  -0.068   9.390   1.355 -0.7046 -1.3931 -0.3289
  247MOL0     H34082   0.062   9.016   1.477 -0.5338  2.3419  2.2665
  247MOL0     H34083   0.633   9.524   1.330 -2.3179 -2.4925 -1.3656
  247MOL0     H34084   0.839   9.786   1.274 -1.6502 -1.3625  0.6468
  247MOL0     H34085   0.842   9.632   1.369  0.8780  0.3431  1.4039
  247MOL0     H34086   0.956   9.657   1.233 -0.2424 -1.9204  1.0081
  248MOL0     O34087   2.739   7.159   3.906  0.3169 -0.5625  0.3358
  248MOL0     C34088   2.846   7.203   3.850 -0.0597  1.5446 -0.1626
  248MOL0     O34089   2.851   7.282   3.740  0.6668 -0.4275  0.6610
  248MOL0     C34090   2.733   7.302   3.680  0.7560  0.2043  0.6214
  248MOL0     C34091   2.657   7.417   3.711 -0.0284 -0.4493 -0.3922
  248MOL0     C34092   2.536   7.453   3.642 -0.2477 -0.2392 -0.2204
  248MOL0     C34093   2.495   7.365   3.541 -0.1919 -0.2637 -0.1645
  248MOL0     O34094   2.375   7.398   3.484 -0.3963 -0.2958 -0.3503
  248MOL0     C34095   2.297   7.305   3.405 -0.1448 -0.4968 -0.0087
  248MOL0     C34096   2.180   7.358   3.346  0.4894 -0.0688  0.6335
  248MOL0     C34097   2.214   7.454   3.232 -0.1122  0.0171  0.1261
  248MOL0     C34098   2.094   7.537   3.169  0.1418 -0.1154 -0.7571
  248MOL0     C34099   2.142   7.680   3.120  0.0170  0.5613 -0.3024
  248MOL0     C34100   2.030   7.761   3.040 -0.2086  0.4180  0.8332
  248MOL0     C34101   2.122   7.864   2.960  0.3152  0.7989  0.4186
  248MOL0     C34102   2.030   7.952   2.877  0.1994  0.4713 -0.3473
  248MOL0     N34103   2.121   8.036   2.802  0.0952  0.9676  0.0041
  248MOL0     C34104   2.198   8.135   2.858 -0.4139 -0.4868  0.0783
  248MOL0     C34105   2.292   8.159   2.755 -0.3320  0.3284 -0.3716
  248MOL0     C34106   2.409   8.246   2.789 -0.0516  0.2444  0.5779
  248MOL0     C34107   2.447   8.336   2.670  0.1948  0.4548  0.6481
  248MOL0     C34108   2.551   8.439   2.707 -0.1859 -0.3837  0.1186
  248MOL0     C34109   2.685   8.372   2.753 -0.2880  0.4418 -0.0252
  248MOL0     O34110   2.786   8.469   2.776  0.1933 -0.3600  0.3787
  248MOL0     C34111   2.915   8.423   2.769 -0.2196 -0.1693 -0.8731
  248MOL0     C34112   2.973   8.334   2.867  0.5674  0.2603 -0.6082
  248MOL0     C34113   3.101   8.292   2.871 -0.2255 -0.2790  0.5378
  248MOL0     C34114   3.130   8.187   2.979  0.0185 -0.2525 -0.0703
  248MOL0     C34115   3.193   8.341   2.772  0.2967  0.7029 -0.0594
  248MOL0     C34116   3.342   8.332   2.774 -0.7281 -0.3892 -0.6096
  248MOL0     O34117   3.412   8.396   2.671  0.1155 -0.4504 -0.5678
  248MOL0     C34118   3.538   8.426   2.689  0.2498  0.5561  1.0734
  248MOL0     C34119   3.617   8.393   2.569  0.2140 -0.3205 -0.7275
  248MOL0     C34120   3.753   8.402   2.568 -0.6057 -0.4523  0.7434
  248MOL0     C34121   3.824   8.436   2.685  0.2335 -0.2498 -0.1346
  248MOL0     O34122   3.957   8.445   2.677  0.2131  0.5397 -0.3264
  248MOL0     C34123   4.010   8.575   2.672  0.2446 -0.2646 -0.1740
  248MOL0     C34124   4.149   8.592   2.723 -0.6661  0.0647  0.2727
  248MOL0     C34125   4.169   8.523   2.857  0.9721  0.3251 -0.0761
  248MOL0     C34126   4.314   8.529   2.888 -0.6029  0.5827 -0.9006
  248MOL0     C34127   4.380   8.393   2.842  0.1275  0.2385  0.3662
  248MOL0     C34128   4.539   8.390   2.853  0.8746  0.1278  0.2584
  248MOL0     C34129   4.581   8.389   2.992  0.8092  0.2584 -0.8320
  248MOL0     C34130   4.734   8.383   3.008 -0.2939 -0.0790  0.9549
  248MOL0    Cl34131   4.799   8.238   2.926 -0.3167 -0.5469 -0.0048
  248MOL0     C34132   3.754   8.451   2.809 -0.3859 -0.3382  0.2291
  248MOL0     C34133   3.607   8.454   2.809  0.0113 -0.0230  0.1675
  248MOL0     O34134   3.393   8.266   2.864  0.5484 -0.7607 -0.3767
  248MOL0     C34135   3.137   8.435   2.675 -0.0925  0.2903 -0.3549
  248MOL0     C34136   3.002   8.479   2.674 -0.3606  0.0276  0.6079
  248MOL0     N34137   2.267   8.085   2.643 -0.4823 -0.0664  0.0414
  248MOL0     N34138   2.162   8.012   2.674  1.0939 -0.0203 -0.5920
  248MOL0     C34139   2.578   7.258   3.502  0.1356  0.7090  0.4475
  248MOL0     C34140   2.693   7.224   3.569  0.0765  0.1555 -1.1515
  248MOL0     C34141   2.982   7.183   3.912 -0.1873 -0.0503 -0.0723
  248MOL0     C34142   3.085   7.272   3.875  0.2108 -0.2689 -0.9262
  248MOL0     C34143   3.222   7.241   3.893 -0.6546 -0.2906 -0.3873
  248MOL0     C34144   3.250   7.140   3.989 -0.0957  0.7253  0.1668
  248MOL0     O34145   3.372   7.125   4.033 -0.5222  0.1497 -0.2232
  248MOL0     C34146   3.436   6.999   4.000 -0.4474 -0.1922 -0.2997
  248MOL0     C34147   3.548   6.971   4.104  0.5077  0.8639 -0.9926
  248MOL0     C34148   3.645   7.092   4.121  0.2448  0.1931 -0.0915
  248MOL0     C34149   3.788   7.037   4.170  0.3887  0.0291 -0.4038
  248MOL0     C34150   3.795   7.005   4.307 -0.6417  0.2344 -0.9342
  248MOL0     C34151   3.800   6.960   4.421  0.6732 -0.4718  0.1247
  248MOL0     C34152   3.151   7.063   4.042  0.0799  0.4946  0.2117
  248MOL0     C34153   3.017   7.073   4.000 -0.3740 -0.9463  0.3250
  248MOL0     C34154   2.924   6.971   4.056  0.3975  0.1974 -1.2125
  248MOL0     H34155   2.687   7.480   3.794  2.7599 -1.3976 -0.5760
  248MOL0     H34156   2.493   7.550   3.664  1.0542 -0.1510  2.3508
  248MOL0     H34157   2.270   7.220   3.468 -0.0169 -0.5924 -0.0819
  248MOL0     H34158   2.352   7.257   3.323 -2.0617 -0.8114 -1.1584
  248MOL0     H34159   2.124   7.274   3.304  0.1917 -1.8483  4.1790
  248MOL0     H34160   2.121   7.402   3.426  1.0885  1.6010  0.1918
  248MOL0     H34161   2.290   7.526   3.263  2.0755 -1.4902 -1.4831
  248MOL0     H34162   2.264   7.406   3.148 -0.3413 -0.7712  0.4340
  248MOL0     H34163   2.055   7.487   3.079 -1.9562  0.9275 -0.4979
  248MOL0     H34164   2.010   7.552   3.238 -1.5244 -4.0799 -1.6193
  248MOL0     H34165   2.231   7.652   3.062 -1.7368 -1.4439 -2.2375
  248MOL0     H34166   2.173   7.730   3.212 -0.1741 -2.3273  1.4746
  248MOL0     H34167   1.976   7.689   2.978  1.1178 -2.3484  2.6631
  248MOL0     H34168   1.952   7.801   3.104 -2.5108  0.6697 -1.9447
  248MOL0     H34169   2.171   7.795   2.892 -0.0031  0.2860  0.7090
  248MOL0     H34170   2.205   7.911   3.015  2.2351 -0.3387 -1.3705
  248MOL0     H34171   1.968   7.895   2.808  0.6169  1.3284 -1.4568
  248MOL0     H34172   1.978   8.015   2.950  0.6518 -0.6183  0.9665
  248MOL0     H34173   2.195   8.185   2.954  1.0500  1.4278 -0.7985
  248MOL0     H34174   2.488   8.180   2.826  1.4941  2.4271  1.3864
  248MOL0     H34175   2.383   8.317   2.868 -0.3518  1.3195 -0.4557
  248MOL0     H34176   2.492   8.285   2.585 -0.4005 -1.1526  1.2653
  248MOL0     H34177   2.357   8.387   2.633  0.2781  0.8340  0.9553
  248MOL0     H34178   2.577   8.505   2.623  0.4937 -0.1135  0.5265
  248MOL0     H34179   2.524   8.500   2.794  2.7086 -1.7032  2.1218
  248MOL0     H34180   2.675   8.317   2.846  3.5797  0.0563  0.3453
  248MOL0     H34181   2.713   8.289   2.688 -2.1615  0.8261 -1.4115
  248MOL0     H34182   2.901   8.300   2.940  0.2077 -3.9625 -2.6051
  248MOL0     H34183   3.046   8.190   3.049 -0.9287  3.5689 -1.1439
  248MOL0     H34184   3.219   8.220   3.033  2.0444  0.5325 -3.5811
  248MOL0     H34185   3.135   8.088   2.934  0.1979 -0.0415 -0.5182
  248MOL0     H34186   3.570   8.369   2.474 -2.4920  1.4195  0.0910
  248MOL0     H34187   3.815   8.386   2.480 -1.4754  0.3707 -0.0484
  248MOL0     H34188   3.989   8.627   2.578  0.3754 -1.6367 -0.9942
  248MOL0     H34189   3.948   8.634   2.740 -1.9470 -2.4863 -0.1162
  248MOL0     H34190   4.220   8.563   2.645 -0.3999 -1.0248  0.8888
  248MOL0     H34191   4.177   8.697   2.728  1.1483 -0.3050 -0.9282
  248MOL0     H34192   4.138   8.418   2.865  3.2122 -0.4331 -0.6344
  248MOL0     H34193   4.118   8.584   2.933  0.5866  2.5402 -2.0042
  248MOL0     H34194   4.333   8.541   2.995 -2.1419 -0.2749 -0.5060
  248MOL0     H34195   4.358   8.616   2.838 -3.0318  1.1973 -2.1010
  248MOL0     H34196   4.330   8.311   2.894 -0.5892  0.6195  0.2856
  248MOL0     H34197   4.355   8.379   2.737  3.6223  2.5659 -0.9660
  248MOL0     H34198   4.571   8.478   2.797 -1.1470  1.6347  1.3233
  248MOL0     H34199   4.566   8.292   2.815 -3.0792 -2.3668  3.0709
  248MOL0     H34200   4.548   8.302   3.051 -0.6115  1.3757  0.0935
  248MOL0     H34201   4.542   8.474   3.049  0.2915 -1.3209  1.3147
  248MOL0     H34202   4.771   8.386   3.111 -0.9953  1.4935  1.1968
  248MOL0     H34203   4.767   8.479   2.967  0.8579 -0.9008 -0.1239
  248MOL0     H34204   3.806   8.471   2.903 -1.4186 -0.7702  0.9193
  248MOL0     H34205   3.552   8.471   2.900 -1.7537 -2.4737 -0.3446
  248MOL0     H34206   3.211   8.476   2.607  1.4885  1.9138  2.1707
  248MOL0     H34207   2.979   8.547   2.593  3.5926  0.0145 -0.7202
  248MOL0     H34208   2.548   7.200   3.416  0.1590  1.9506 -0.4177
  248MOL0     H34209   2.759   7.142   3.543  0.6144  0.0605  0.3581
  248MOL0     H34210   3.063   7.361   3.818  1.7775  1.3696  0.8724
  248MOL0     H34211   3.297   7.315   3.869  0.8698 -1.1289  1.5445
  248MOL0     H34212   3.362   6.918   4.001 -3.3823  2.2837 -1.2408
  248MOL0     H34213   3.482   7.023   3.904 -1.3060 -0.0883 -0.6960
  248MOL0     H34214   3.604   6.882   4.073  1.0305  1.6253 -2.2879
  248MOL0     H34215   3.496   6.936   4.194 -2.1771  1.2998 -2.2507
  248MOL0     H34216   3.661   7.138   4.023 -0.6914 -2.4580 -1.5800
  248MOL0     H34217   3.591   7.156   4.190 -0.4883  1.4474 -1.7636
  248MOL0     H34218   3.855   7.121   4.149  0.3154  0.4281  0.8212
  248MOL0     H34219   3.814   6.944   4.120  0.6750  0.0034 -0.2067
  248MOL0     H34220   3.815   6.921   4.520 -0.4886 -0.6836  0.2269
  248MOL0     H34221   3.187   6.989   4.113  0.3757  1.2927  0.9007
  248MOL0     H34222   2.975   6.876   4.073  3.7650  2.3478  2.5785
  248MOL0     H34223   2.886   7.002   4.154 -0.3434 -4.3945  0.1898
  248MOL0     H34224   2.832   6.951   4.000 -2.0119 -0.1243  2.4806
  249MOL0     O34225   9.159   2.809   7.310  0.0883 -0.6049 -0.5092
  249MOL0     C34226   9.174   2.889   7.405  0.8131 -0.1500  0.2160
  249MOL0     O34227   9.296   2.945   7.448  0.2482 -0.0280 -0.1974
  249MOL0     C34228   9.410   2.915   7.386 -0.7496 -0.3387 -0.3049
  249MOL0     C34229   9.512   2.845   7.458  0.1548 -0.2073 -0.7327
  249MOL0     C34230   9.632   2.794   7.398 -0.1246 -0.3496 -0.0173
  249MOL0     C34231   9.659   2.824   7.269 -1.4381 -0.1699 -0.1548
  249MOL0     O34232   9.770   2.769   7.208 -0.3071  0.2558  0.5535
  249MOL0     C34233   9.760   2.628   7.184 -0.3374  0.2724  0.1408
  249MOL0     C34234   9.895   2.569   7.155 -0.3708  0.1324 -0.6022
  249MOL0     C34235   9.952   2.615   7.024 -0.0446  0.4925  0.4174
  249MOL0     C34236  10.023   2.514   6.935  0.1954  0.3932  0.6894
  249MOL0     C34237  10.170   2.515   6.959 -0.7795  0.1151 -0.2305
  249MOL0     C34238  10.267   2.457   6.850 -0.1294 -0.0285  0.3863
  249MOL0     C34239  10.404   2.501   6.871 -0.5756  0.5298  0.0771
  249MOL0     C34240  10.489   2.447   6.757  0.3565  0.2317 -0.1028
  249MOL0     N34241  10.631   2.476   6.768  0.8104 -0.2154  0.3808
  249MOL0     C34242  10.705   2.582   6.706 -0.0900 -1.1526  0.2119
  249MOL0     C34243  10.831   2.572   6.753  0.0759 -1.6240 -1.1125
  249MOL0     C34244  10.947   2.653   6.698  0.5480  0.2064 -0.7082
  249MOL0     C34245  10.960   2.802   6.726 -0.0140  0.0761  0.8582
  249MOL0     C34246  11.075   2.867   6.649 -0.1095 -0.1799  0.6255
  249MOL0     C34247  11.214   2.820   6.694 -0.8425  0.0549 -0.1005
  249MOL0     O34248  11.324   2.853   6.609  0.7567  0.0515 -0.0029
  249MOL0     C34249  11.453   2.841   6.644  0.0012  0.8884 -0.3482
  249MOL0     C34250  11.553   2.922   6.589  0.6083  0.7398  0.4907
  249MOL0     C34251  11.690   2.901   6.597  0.0650  1.2892  0.4049
  249MOL0     C34252  11.785   2.996   6.531  0.3428 -0.1076  0.0199
  249MOL0     C34253  11.730   2.792   6.683 -0.7098  0.2400  0.2926
  249MOL0     C34254  11.867   2.730   6.702 -0.1925 -0.6361 -0.2288
  249MOL0     O34255  11.885   2.631   6.790 -0.0484  0.8584 -0.2365
  249MOL0     C34256  12.009   2.574   6.804  0.7469 -0.3088  0.4513
  249MOL0     C34257  12.106   2.652   6.870  0.5050 -0.0526  0.0731
  249MOL0     C34258  12.236   2.594   6.886  0.3638  0.4215 -0.5397
  249MOL0     C34259  12.268   2.470   6.834 -0.3083 -0.0632  0.2265
  249MOL0     O34260  12.401   2.419   6.844  0.1089 -0.3478 -0.7062
  249MOL0     C34261  12.421   2.282   6.813 -1.0193  0.7899 -0.5577
  249MOL0     C34262  12.563   2.225   6.816  0.0226  0.2319 -0.6782
  249MOL0     C34263  12.614   2.230   6.958  0.2022 -0.8012 -0.3932
  249MOL0     C34264  12.748   2.158   6.967  0.5167  0.8536  0.4736
  249MOL0     C34265  12.805   2.159   7.114 -0.8701  0.5781  0.3769
  249MOL0     C34266  12.937   2.087   7.125 -0.6225 -0.0935  0.1876
  249MOL0     C34267  12.973   2.069   7.275 -0.3778 -0.3569 -0.2394
  249MOL0     C34268  13.076   1.947   7.277  0.7006 -0.5257  0.0373
  249MOL0    Cl34269  13.104   1.901   7.448  0.1738  0.0033  0.5444
  249MOL0     C34270  12.168   2.403   6.760  0.0013  0.5329  0.2984
  249MOL0     C34271  12.036   2.454   6.743 -0.0823  0.3046 -0.1148
  249MOL0     O34272  11.958   2.774   6.639 -0.5261 -0.3696  0.4377
  249MOL0     C34273  11.632   2.713   6.750 -0.0962 -1.3342 -1.0386
  249MOL0     C34274  11.495   2.740   6.729 -0.1645  0.4116  0.9237
  249MOL0     N34275  10.833   2.456   6.828 -1.3964 -0.3158  0.4344
  249MOL0     N34276  10.720   2.408   6.841 -0.4105  1.0583  0.1174
  249MOL0     C34277   9.575   2.910   7.199  0.6194 -0.4351 -0.0970
  249MOL0     C34278   9.453   2.955   7.258 -0.1097  0.0251 -0.1030
  249MOL0     C34279   9.053   2.914   7.497 -1.0167 -0.9051  0.3392
  249MOL0     C34280   9.082   2.957   7.627 -0.4132  0.1627 -0.1816
  249MOL0     C34281   8.984   2.972   7.728 -0.3641  0.3000 -0.3657
  249MOL0     C34282   8.848   2.959   7.695 -0.0039 -0.8968  0.0895
  249MOL0     O34283   8.757   2.984   7.791 -0.0932 -0.3122  0.0356
  249MOL0     C34284   8.643   3.066   7.769  0.0715  0.9098 -0.5129
  249MOL0     C34285   8.522   2.978   7.787  0.5599  0.7097 -0.1814
  249MOL0     C34286   8.492   2.944   7.928  0.4686 -0.5172 -0.3269
  249MOL0     C34287   8.348   2.872   7.943 -0.1354 -0.7322 -0.3504
  249MOL0     C34288   8.227   2.964   7.936 -0.1203 -0.4844  0.7311
  249MOL0     C34289   8.129   3.034   7.909 -0.5918  0.5641 -0.0783
  249MOL0     C34290   8.814   2.913   7.567 -0.0581  0.4489 -0.4960
  249MOL0     C34291   8.915   2.900   7.469 -0.6258 -0.4535 -0.8839
  249MOL0     C34292   8.869   2.846   7.339  0.2821 -0.0065  0.6137
  249MOL0     H34293   9.477   2.824   7.559 -1.3468  1.0810 -0.9480
  249MOL0     H34294   9.697   2.733   7.460  0.4963  2.3505  2.2207
  249MOL0     H34295   9.695   2.621   7.096 -0.8472  3.3078  0.1656
  249MOL0     H34296   9.709   2.582   7.269 -0.6420  0.2373 -0.0593
  249MOL0     H34297   9.950   2.604   7.242 -0.5670  1.3250 -0.9406
  249MOL0     H34298   9.903   2.460   7.161  0.6854  0.1625 -1.2122
  249MOL0     H34299   9.874   2.655   6.959  1.0698  0.2623 -1.1167
  249MOL0     H34300  10.015   2.705   7.029 -1.1408  1.2551  1.0791
  249MOL0     H34301   9.986   2.414   6.955  2.1092 -0.5529 -0.2513
  249MOL0     H34302  10.010   2.546   6.831  4.1021  0.6474  0.1326
  249MOL0     H34303  10.178   2.461   7.054 -3.0944 -1.5352 -0.8618
  249MOL0     H34304  10.194   2.622   6.966 -3.9024  0.8331  1.8886
  249MOL0     H34305  10.252   2.349   6.846 -3.2115  0.3346 -0.3097
  249MOL0     H34306  10.232   2.492   6.753 -1.3391  0.5817  1.0112
  249MOL0     H34307  10.443   2.458   6.963 -0.7744 -2.5659 -1.1804
  249MOL0     H34308  10.418   2.610   6.869  0.6583  0.3864  0.2208
  249MOL0     H34309  10.477   2.339   6.766  4.5516 -0.2544  2.4747
  249MOL0     H34310  10.455   2.475   6.657 -1.3632  0.0903  0.4096
  249MOL0     H34311  10.663   2.666   6.652  1.0913  0.3044  1.4465
  249MOL0     H34312  10.933   2.644   6.589  1.5653 -1.1343 -0.7671
  249MOL0     H34313  11.037   2.597   6.725  1.2501  0.9452 -1.4564
  249MOL0     H34314  10.865   2.846   6.694 -0.6333 -0.8408  1.4136
  249MOL0     H34315  10.969   2.830   6.832  1.5059  3.3445  0.0059
  249MOL0     H34316  11.074   2.847   6.541 -0.3811 -0.6362  0.7125
  249MOL0     H34317  11.062   2.973   6.673  0.1126  0.1534 -0.6094
  249MOL0     H34318  11.225   2.856   6.797  0.9894  3.3526 -1.2980
  249MOL0     H34319  11.208   2.711   6.698  0.4991 -0.0079  1.0510
  249MOL0     H34320  11.522   3.001   6.522 -1.8820 -3.2394 -3.6542
  249MOL0     H34321  11.833   2.955   6.442  0.1023 -0.0206 -0.1501
  249MOL0     H34322  11.872   3.016   6.595  0.4055 -1.2147  0.3177
  249MOL0     H34323  11.729   3.085   6.502 -0.8448  0.0216  2.4267
  249MOL0     H34324  12.089   2.753   6.903 -2.6237 -0.8324  1.1480
  249MOL0     H34325  12.319   2.633   6.945 -0.3984  0.3294  0.6138
  249MOL0     H34326  12.360   2.225   6.883 -0.9776 -0.6329 -1.6435
  249MOL0     H34327  12.384   2.273   6.710  0.2868  1.3772 -1.1006
  249MOL0     H34328  12.559   2.123   6.776 -4.3100  0.0582 -0.2934
  249MOL0     H34329  12.625   2.284   6.747 -0.6807  1.8923  0.0611
  249MOL0     H34330  12.545   2.174   7.022 -1.2113 -0.4846 -1.5630
  249MOL0     H34331  12.624   2.331   6.998  1.6154 -0.3622 -1.7565
  249MOL0     H34332  12.819   2.205   6.898  1.1130 -3.0677 -1.9341
  249MOL0     H34333  12.740   2.055   6.931 -0.3309  0.8678  0.6042
  249MOL0     H34334  12.831   2.265   7.123  1.2817  0.2983 -1.4663
  249MOL0     H34335  12.731   2.120   7.183 -0.6798  1.7469  1.2764
  249MOL0     H34336  13.015   2.150   7.080  0.0198 -1.3743 -0.5447
  249MOL0     H34337  12.942   1.992   7.072  1.4003  2.0379 -3.8684
  249MOL0     H34338  12.886   2.045   7.337  0.1548  0.1084  0.7256
  249MOL0     H34339  13.020   2.159   7.316 -0.3043 -1.2018  1.6727
  249MOL0     H34340  13.172   1.984   7.240 -0.8595  2.5959 -1.2535
  249MOL0     H34341  13.047   1.863   7.214 -3.2454 -0.5049  1.5494
  249MOL0     H34342  12.190   2.308   6.712  2.8570  1.4534 -0.3781
  249MOL0     H34343  11.958   2.408   6.684  0.0670 -2.6347  1.7888
  249MOL0     H34344  11.658   2.624   6.807  3.2304  0.3458  0.3587
  249MOL0     H34345  11.414   2.687   6.778 -2.1322  1.0869 -1.3896
  249MOL0     H34346   9.609   2.957   7.108 -1.1310 -2.1818 -1.7287
  249MOL0     H34347   9.390   3.025   7.204 -0.0621  1.6135  1.7359
  249MOL0     H34348   9.185   2.960   7.661 -0.5931 -3.5645  1.2027
  249MOL0     H34349   9.023   3.010   7.822  0.5898 -0.8627 -0.2651
  249MOL0     H34350   8.642   3.136   7.853 -3.1389  0.7622 -0.2842
  249MOL0     H34351   8.653   3.121   7.675  0.1126  1.1004 -0.3968
  249MOL0     H34352   8.525   2.878   7.743 -1.2459  0.5647 -0.0641
  249MOL0     H34353   8.433   3.020   7.740  0.3584 -0.6310 -1.0543
  249MOL0     H34354   8.571   2.875   7.958 -1.0007 -2.0573  0.1710
  249MOL0     H34355   8.488   3.036   7.986 -0.5960  0.5269 -1.9789
  249MOL0     H34356   8.338   2.829   8.042  1.4099  0.7488  0.5149
  249MOL0     H34357   8.340   2.790   7.871  1.7678 -0.9696 -0.3661
  249MOL0     H34358   8.049   3.105   7.905 -0.2006  1.3494  3.1004
  249MOL0     H34359   8.710   2.886   7.547 -0.6896  1.6053  1.0089
  249MOL0     H34360   8.878   2.738   7.320  0.7211  0.6509 -3.7373
  249MOL0     H34361   8.769   2.878   7.311 -0.1670 -2.6054 -1.1599
  249MOL0     H34362   8.934   2.887   7.262 -1.9047 -1.5057 -2.1994
  250MOL0     O34363   8.519   4.019   5.287  0.8504 -0.3256  0.3037
  250MOL0     C34364   8.582   4.030   5.392 -0.3870  0.3321 -0.8579
  250MOL0     O34365   8.660   4.142   5.427 -0.3247  0.6551  0.7302
  250MOL0     C34366   8.683   4.238   5.331  0.3162 -0.0824 -1.5505
  250MOL0     C34367   8.742   4.221   5.211  0.5390 -0.1525  0.4577
  250MOL0     C34368   8.790   4.332   5.139  0.3752 -0.4538 -0.7064
  250MOL0     C34369   8.765   4.463   5.177  0.1251  0.2071  0.3834
  250MOL0     O34370   8.819   4.561   5.098 -0.8938 -0.1384  0.6512
  250MOL0     C34371   8.849   4.687   5.157 -0.8451 -0.0770 -0.1007
  250MOL0     C34372   8.932   4.760   5.049 -0.0722 -1.0859 -0.3776
  250MOL0     C34373   9.043   4.679   4.974  0.0554 -1.0087  0.0550
  250MOL0     C34374   9.133   4.794   4.902 -0.7250  0.5545 -0.0643
  250MOL0     C34375   9.248   4.739   4.816  0.0902 -0.4538 -0.9191
  250MOL0     C34376   9.204   4.726   4.667  0.5500 -0.1417  0.5410
  250MOL0     C34377   9.317   4.678   4.591  0.3067  0.1066  0.2525
  250MOL0     C34378   9.374   4.542   4.606  0.6295 -0.2245  0.3161
  250MOL0     N34379   9.487   4.509   4.515 -0.1887 -0.7603 -0.3078
  250MOL0     C34380   9.610   4.563   4.518 -0.9509  0.5919  0.4835
  250MOL0     C34381   9.690   4.476   4.450 -0.0525  0.7510  0.5547
  250MOL0     C34382   9.845   4.475   4.445  0.4157 -1.0783  0.0417
  250MOL0     C34383   9.891   4.331   4.493  0.0655  0.0471 -0.1556
  250MOL0     C34384  10.036   4.330   4.534 -0.0361  0.0026 -0.0718
  250MOL0     C34385  10.129   4.387   4.431 -0.4019  0.3346  0.6534
  250MOL0     O34386  10.104   4.314   4.309 -0.5195 -0.0181  0.1495
  250MOL0     C34387  10.170   4.191   4.281 -0.3427  0.4780 -0.3650
  250MOL0     C34388  10.138   4.118   4.159 -0.2406 -0.4950 -0.1087
  250MOL0     C34389  10.201   3.992   4.126 -0.2052 -0.3559 -0.1158
  250MOL0     C34390  10.163   3.930   3.995 -0.1157 -0.1020  0.3724
  250MOL0     C34391  10.294   3.939   4.217 -0.5925  0.6428  0.7281
  250MOL0     C34392  10.355   3.805   4.189 -0.5065 -1.1768  0.2737
  250MOL0     O34393  10.370   3.733   4.305 -0.0057  0.1882 -0.1925
  250MOL0     C34394  10.467   3.641   4.329  0.5384  0.4387 -0.5376
  250MOL0     C34395  10.579   3.688   4.412  0.5399 -0.0629 -0.1079
  250MOL0     C34396  10.674   3.591   4.438  0.1531 -0.2360 -1.4008
  250MOL0     C34397  10.677   3.469   4.373  0.7014 -1.5583  0.2278
  250MOL0     O34398  10.767   3.373   4.397  0.4724  0.3833 -0.0605
  250MOL0     C34399  10.838   3.370   4.524 -0.2006  0.0679  0.9302
  250MOL0     C34400  10.873   3.222   4.554 -0.4319  0.4601  0.8497
  250MOL0     C34401  10.961   3.187   4.677  0.4527  0.1636 -0.1148
  250MOL0     C34402  11.040   3.061   4.659 -0.3899  0.4254  0.0267
  250MOL0     C34403  11.179   3.099   4.612 -0.5891 -0.8458 -0.6067
  250MOL0     C34404  11.244   2.987   4.545  0.0386  0.4954 -0.0317
  250MOL0     C34405  11.375   3.029   4.458  0.4930  0.5106  0.6246
  250MOL0     C34406  11.430   2.894   4.399 -0.9985 -0.3186  0.2043
  250MOL0    Cl34407  11.505   2.813   4.545  0.2808 -0.0352  0.0990
  250MOL0     C34408  10.568   3.430   4.294  0.1036 -0.3277  0.1515
  250MOL0     C34409  10.464   3.514   4.274  0.2793 -0.6516 -0.2482
  250MOL0     O34410  10.398   3.764   4.075 -0.0519 -0.2389  0.3787
  250MOL0     C34411  10.333   4.015   4.334 -0.0526 -0.5062 -0.2983
  250MOL0     C34412  10.278   4.142   4.359 -0.5268  0.7932 -1.0339
  250MOL0     N34413   9.616   4.364   4.419 -0.2244 -0.6593 -0.5357
  250MOL0     N34414   9.492   4.389   4.454  0.1019  0.4171  0.0217
  250MOL0     C34415   8.690   4.476   5.296  0.5967  0.4320  0.4704
  250MOL0     C34416   8.658   4.372   5.378 -0.6610 -0.5494 -0.5406
  250MOL0     C34417   8.588   3.924   5.494  0.2370  0.6820 -0.2724
  250MOL0     C34418   8.690   3.919   5.586 -0.4970  0.2277  0.5055
  250MOL0     C34419   8.715   3.816   5.669 -0.7591  0.3171 -0.4981
  250MOL0     C34420   8.622   3.714   5.687 -0.7141 -0.6449  0.3072
  250MOL0     O34421   8.630   3.620   5.778 -0.6921  0.2140 -0.4313
  250MOL0     C34422   8.658   3.484   5.728 -0.1946  0.4494 -0.3011
  250MOL0     C34423   8.794   3.431   5.789 -0.6563  0.1774  0.3815
  250MOL0     C34424   8.908   3.519   5.800 -0.6851  0.6228 -0.4691
  250MOL0     C34425   8.957   3.559   5.664 -0.1482 -0.0268 -0.2038
  250MOL0     C34426   9.061   3.667   5.675 -0.3810 -0.3656 -0.0803
  250MOL0     C34427   9.148   3.753   5.686 -0.2245 -0.4162  0.2600
  250MOL0     C34428   8.510   3.719   5.607 -0.3788 -0.6942 -1.0134
  250MOL0     C34429   8.494   3.818   5.507  0.3954  0.2684 -0.1497
  250MOL0     C34430   8.366   3.807   5.428 -0.1331  0.3228  0.1925
  250MOL0     H34431   8.757   4.116   5.186 -0.8410 -0.2072 -0.2220
  250MOL0     H34432   8.835   4.324   5.041 -2.6295  0.6422 -2.2851
  250MOL0     H34433   8.915   4.667   5.243  0.9917 -0.5341 -1.5405
  250MOL0     H34434   8.768   4.752   5.190  0.5337  0.9579  1.4542
  250MOL0     H34435   8.858   4.796   4.977 -0.8793 -1.2377  0.3628
  250MOL0     H34436   8.979   4.849   5.090  2.0688 -0.1454 -4.2981
  250MOL0     H34437   9.106   4.614   5.035 -0.5363 -2.0013 -0.3734
  250MOL0     H34438   8.997   4.623   4.892 -3.8402  0.4686  0.9851
  250MOL0     H34439   9.080   4.867   4.840  1.0052  0.3830 -1.8598
  250MOL0     H34440   9.178   4.850   4.984  4.6129 -0.6590 -1.7419
  250MOL0     H34441   9.300   4.652   4.857  1.5306  1.2540  1.0805
  250MOL0     H34442   9.324   4.817   4.823 -1.0092  0.5101  1.2770
  250MOL0     H34443   9.114   4.665   4.651 -0.6300  1.4694  0.6834
  250MOL0     H34444   9.167   4.823   4.631 -2.8673 -2.5192 -3.1889
  250MOL0     H34445   9.404   4.742   4.604 -0.2370  0.4950  2.2717
  250MOL0     H34446   9.290   4.686   4.485 -0.3910 -3.0392  0.0921
  250MOL0     H34447   9.418   4.524   4.704  3.4386 -0.5251 -0.9114
  250MOL0     H34448   9.284   4.483   4.586 -1.5976  3.1747 -0.5952
  250MOL0     H34449   9.644   4.659   4.554 -1.2292  1.6034 -1.7784
  250MOL0     H34450   9.889   4.548   4.514 -0.0443  1.0469 -1.8205
  250MOL0     H34451   9.877   4.520   4.351  0.1289  1.8355  1.2277
  250MOL0     H34452   9.831   4.292   4.575  0.8298  0.8750  0.8157
  250MOL0     H34453   9.880   4.263   4.408 -1.6339  0.6835 -0.4900
  250MOL0     H34454  10.048   4.378   4.632 -0.6623 -1.1507  0.5901
  250MOL0     H34455  10.068   4.228   4.558 -0.3777 -0.4291 -1.4081
  250MOL0     H34456  10.114   4.494   4.418 -3.7564 -0.1861 -0.9861
  250MOL0     H34457  10.226   4.367   4.476 -1.3044 -3.0242  1.3833
  250MOL0     H34458  10.076   4.167   4.085  0.7112 -1.5710 -1.6666
  250MOL0     H34459  10.231   3.959   3.915 -1.6373  2.1718 -0.2099
  250MOL0     H34460  10.069   3.976   3.962  0.1013  0.4972  0.5844
  250MOL0     H34461  10.159   3.821   3.997 -0.1807 -0.1434 -0.9140
  250MOL0     H34462  10.570   3.791   4.444  1.5539 -0.3414  1.1413
  250MOL0     H34463  10.756   3.624   4.501 -1.9199 -1.0256  1.9721
  250MOL0     H34464  10.926   3.435   4.527  0.9407 -1.1162 -2.2421
  250MOL0     H34465  10.778   3.412   4.604 -0.7546  0.9582  0.0637
  250MOL0     H34466  10.780   3.165   4.543 -0.8424  1.1988  0.4349
  250MOL0     H34467  10.936   3.187   4.472  0.9970 -0.3991  2.2481
  250MOL0     H34468  10.882   3.185   4.753 -1.3560  1.3102 -1.8356
  250MOL0     H34469  11.017   3.267   4.726  0.0702 -2.1327  4.6269
  250MOL0     H34470  10.987   2.988   4.598 -3.2036  2.0136  0.3805
  250MOL0     H34471  11.046   3.017   4.759 -1.1736 -0.5953 -0.3653
  250MOL0     H34472  11.167   3.175   4.535 -2.1218 -0.2813  0.1442
  250MOL0     H34473  11.238   3.131   4.698  1.6937 -1.1254 -1.9877
  250MOL0     H34474  11.169   2.953   4.473  0.5513  0.2058 -0.4316
  250MOL0     H34475  11.257   2.903   4.613  0.8637  1.3358  0.8874
  250MOL0     H34476  11.453   3.078   4.516  0.8180 -0.7640  1.2750
  250MOL0     H34477  11.342   3.089   4.372 -1.1954 -0.7466  0.3496
  250MOL0     H34478  11.505   2.922   4.325 -5.4848  4.3761 -3.2604
  250MOL0     H34479  11.366   2.832   4.336  0.6077  0.4051 -2.2676
  250MOL0     H34480  10.573   3.331   4.248 -0.4791 -1.2364  1.9386
  250MOL0     H34481  10.383   3.480   4.211  1.6822 -4.6181 -0.1676
  250MOL0     H34482  10.406   3.974   4.403  1.0141  1.6038 -0.0852
  250MOL0     H34483  10.308   4.186   4.453 -1.2181 -0.4493 -0.1991
  250MOL0     H34484   8.673   4.579   5.324  1.0318  2.4014 -5.2699
  250MOL0     H34485   8.637   4.396   5.482  0.6565  1.3824 -0.6565
  250MOL0     H34486   8.768   3.994   5.571  0.3432 -0.7598 -0.1538
  250MOL0     H34487   8.811   3.818   5.720 -1.0797  0.6385  0.0941
  250MOL0     H34488   8.578   3.420   5.766 -0.5001  0.8370 -0.2744
  250MOL0     H34489   8.658   3.474   5.619  0.5242 -1.5746 -0.1550
  250MOL0     H34490   8.825   3.340   5.737  0.9019  1.1230 -0.3926
  250MOL0     H34491   8.769   3.391   5.888  0.7870  0.8435  1.0370
  250MOL0     H34492   8.896   3.610   5.860 -0.9188  0.2505  0.0555
  250MOL0     H34493   8.989   3.466   5.851 -1.2111 -0.4507 -0.7183
  250MOL0     H34494   8.874   3.602   5.607 -0.3494 -1.5696 -1.1197
  250MOL0     H34495   8.993   3.467   5.618 -4.4482 -0.2864 -3.7488
  250MOL0     H34496   9.227   3.823   5.702 -0.1363  0.5167 -3.4416
  250MOL0     H34497   8.430   3.645   5.612  1.3270 -2.6686 -1.4930
  250MOL0     H34498   8.395   3.773   5.328  1.7545 -1.3119  1.2144
  250MOL0     H34499   8.294   3.732   5.464 -1.2774  2.1065  1.8502
  250MOL0     H34500   8.322   3.907   5.420  1.9486  1.4629  1.7068
  251MOL0     O34501   1.402   9.884   2.267  0.2052  0.0899 -0.6447
  251MOL0     C34502   1.446   9.964   2.188 -0.4427 -0.1274  0.1150
  251MOL0     O34503   1.515   9.951   2.072  0.2780  0.6343 -0.8844
  251MOL0     C34504   1.571   9.828   2.040  1.5563  0.1581 -1.1850
  251MOL0     C34505   1.503   9.702   2.057 -0.1076  0.1697  0.5407
  251MOL0     C34506   1.573   9.588   2.016  0.0037 -0.1297  0.6485
  251MOL0     C34507   1.697   9.587   1.949  0.8948 -0.0533  0.3519
  251MOL0     O34508   1.757   9.465   1.927 -0.7159  0.1315 -0.3457
  251MOL0     C34509   1.879   9.458   1.851  0.7150  0.2897 -0.4148
  251MOL0     C34510   2.004   9.468   1.931  0.1505  0.0543 -0.3663
  251MOL0     C34511   2.116   9.504   1.829  0.2559  0.8455  0.6572
  251MOL0     C34512   2.250   9.495   1.909  0.1255  0.5951 -0.1463
  251MOL0     C34513   2.366   9.543   1.823  0.3092  0.5121 -0.7246
  251MOL0     C34514   2.506   9.527   1.886  0.0317  0.3435 -0.0830
  251MOL0     C34515   2.593   9.623   1.796 -0.6189  0.8535 -0.2742
  251MOL0     C34516   2.748   9.601   1.819  0.0011 -0.1574 -0.1641
  251MOL0     N34517   2.819   9.682   1.724 -0.4923 -0.2808 -0.2177
  251MOL0     C34518   2.857   9.802   1.757 -0.2874 -0.2606 -0.2782
  251MOL0     C34519   2.937   9.834   1.650  0.3546  0.5838  1.3407
  251MOL0     C34520   2.991   9.984   1.636  0.4277  0.6701  0.1599
  251MOL0     C34521   3.140   9.981   1.589 -1.2919  0.0483  0.1688
  251MOL0     C34522   3.197  10.122   1.565 -0.2135  0.1728  1.1685
  251MOL0     C34523   3.350  10.103   1.529 -0.0628  0.0116  0.3253
  251MOL0     O34524   3.402  10.243   1.499 -0.3926  0.2823  0.2096
  251MOL0     C34525   3.535  10.226   1.467 -0.1438 -0.3099 -0.4518
  251MOL0     C34526   3.563  10.172   1.344 -0.4000  0.7855 -0.4301
  251MOL0     C34527   3.700  10.166   1.297 -0.5827  0.2337  0.7647
  251MOL0     C34528   3.725  10.130   1.152  0.1118  0.1089  0.7623
  251MOL0     C34529   3.804  10.208   1.384  1.4142 -0.5985  0.4397
  251MOL0     C34530   3.950  10.182   1.355  0.8540  0.2732 -0.2161
  251MOL0     O34531   3.995  10.110   1.249  0.1057 -0.3524  0.2120
  251MOL0     C34532   4.128  10.120   1.213  1.0332  0.1917  0.4857
  251MOL0     C34533   4.185  10.003   1.148  0.0656 -0.4271  0.0615
  251MOL0     C34534   4.317  10.011   1.094  0.3217  0.2061  0.1810
  251MOL0     C34535   4.397  10.121   1.112  0.0457 -0.7242  0.4303
  251MOL0     O34536   4.536  10.109   1.095  0.1275 -0.4944  0.9091
  251MOL0     C34537   4.603  10.030   1.196  0.4594  0.5543 -0.0995
  251MOL0     C34538   4.738   9.996   1.154  1.1132  0.1111 -0.4469
  251MOL0     C34539   4.832   9.944   1.275 -0.9397 -0.2444 -0.1103
  251MOL0     C34540   4.975   9.929   1.238 -0.1987  0.3522  0.4394
  251MOL0     C34541   5.046   9.794   1.270 -0.5383 -0.2957  0.0437
  251MOL0     C34542   5.077   9.773   1.416  0.1009  0.8086  0.1797
  251MOL0     C34543   5.157   9.640   1.418  0.7091  0.1318  0.6845
  251MOL0     C34544   5.220   9.613   1.550 -0.2686  0.4283 -0.4492
  251MOL0    Cl34545   5.370   9.709   1.566  0.4273 -0.1786  0.1733
  251MOL0     C34546   4.339  10.231   1.192 -0.4824 -0.1489  0.8936
  251MOL0     C34547   4.204  10.233   1.229  0.2447  0.2557  0.4522
  251MOL0     O34548   4.022  10.239   1.440 -0.2301  0.4958  0.1194
  251MOL0     C34549   3.767  10.272   1.499 -1.1491 -1.3505 -0.7340
  251MOL0     C34550   3.632  10.275   1.543 -0.3033 -0.3077 -0.1573
  251MOL0     N34551   2.943   9.737   1.554  0.7871 -0.5960  0.4335
  251MOL0     N34552   2.883   9.637   1.612 -0.1187 -0.6981  0.5830
  251MOL0     C34553   1.753   9.708   1.915 -0.1905 -0.2750 -0.3464
  251MOL0     C34554   1.685   9.831   1.964 -0.3510 -0.0752 -0.4597
  251MOL0     C34555   1.408  10.109   2.221 -0.0379  0.4771 -0.1317
  251MOL0     C34556   1.430  10.200   2.116 -0.3209  0.5100  0.0595
  251MOL0     C34557   1.397  10.334   2.128  0.0769 -0.2291 -0.9662
  251MOL0     C34558   1.345  10.388   2.247 -0.4519  0.3715  0.1719
  251MOL0     O34559   1.308  10.517   2.243  0.6922 -0.6238 -0.2023
  251MOL0     C34560   1.246  10.567   2.371  0.3939  0.1610 -0.0613
  251MOL0     C34561   1.243  10.721   2.361  0.1717  0.1417  0.4346
  251MOL0     C34562   1.206  10.803   2.491  0.7467  0.5052  0.3822
  251MOL0     C34563   1.166  10.950   2.478 -0.0590 -0.5610 -0.2820
  251MOL0     C34564   1.046  10.961   2.399  0.1429 -0.5508  0.1819
  251MOL0     C34565   0.937  10.977   2.348 -0.7614  0.3452  0.8243
  251MOL0     C34566   1.321  10.303   2.356  1.2878  0.0016 -0.3184
  251MOL0     C34567   1.359  10.166   2.343  0.2884  0.1063  0.4463
  251MOL0     C34568   1.327  10.077   2.458  0.3119  0.1741  0.0237
  251MOL0     H34569   1.414   9.685   2.117 -1.7927 -0.4780 -1.9631
  251MOL0     H34570   1.523   9.493   2.035  0.3179 -0.4069  0.1175
  251MOL0     H34571   1.874   9.524   1.764  2.6461  0.6203 -0.3009
  251MOL0     H34572   1.880   9.362   1.797 -0.8511  1.4518 -2.6943
  251MOL0     H34573   1.991   9.560   1.989 -0.9629 -0.3573  0.0657
  251MOL0     H34574   2.025   9.379   1.992  2.2223 -0.8515 -2.2616
  251MOL0     H34575   2.122   9.443   1.738  0.5945  3.2251 -1.0138
  251MOL0     H34576   2.104   9.609   1.799  1.2647  0.6296 -0.6532
  251MOL0     H34577   2.234   9.550   2.002  1.1434 -0.6470  0.7838
  251MOL0     H34578   2.264   9.394   1.949  0.3098  0.5362 -0.3543
  251MOL0     H34579   2.341   9.649   1.816 -2.7533  0.2016  2.6681
  251MOL0     H34580   2.378   9.495   1.725 -0.9105 -3.9755  1.0439
  251MOL0     H34581   2.497   9.546   1.994 -1.0404  0.7507 -0.2310
  251MOL0     H34582   2.545   9.426   1.871 -0.0301  0.7419 -3.7217
  251MOL0     H34583   2.571   9.727   1.824 -0.0735  0.5890  1.1684
  251MOL0     H34584   2.574   9.602   1.690 -2.1313  2.8870 -0.4830
  251MOL0     H34585   2.779   9.628   1.920 -1.3573 -0.6573  0.4019
  251MOL0     H34586   2.777   9.496   1.804  0.9389  0.0314  0.2228
  251MOL0     H34587   2.818   9.860   1.840 -0.4350 -0.5470 -0.1458
  251MOL0     H34588   2.984  10.026   1.737 -0.6515 -0.4253  0.5630
  251MOL0     H34589   2.929  10.037   1.564  2.5015  3.0075 -0.0497
  251MOL0     H34590   3.207   9.926   1.656 -0.5515 -2.3333 -2.3839
  251MOL0     H34591   3.136   9.935   1.490 -0.6009  3.5932 -1.6928
  251MOL0     H34592   3.151  10.168   1.477  3.8173  1.7208 -0.3543
  251MOL0     H34593   3.179  10.181   1.656 -2.5556 -1.8172  2.1361
  251MOL0     H34594   3.410  10.062   1.611  0.5849  1.3487  0.5492
  251MOL0     H34595   3.364  10.030   1.449  1.1861 -1.9008  2.1812
  251MOL0     H34596   3.483  10.144   1.276  0.0738  2.2685 -1.6680
  251MOL0     H34597   3.629  10.142   1.103  0.0428  1.3905  1.1835
  251MOL0     H34598   3.764  10.031   1.128  1.2178  0.6901  0.0543
  251MOL0     H34599   3.793  10.201   1.104 -3.0950  3.2872  0.5210
  251MOL0     H34600   4.123   9.914   1.139  1.2032 -1.2437  0.0686
  251MOL0     H34601   4.361   9.925   1.045  2.7651  1.9822 -0.9730
  251MOL0     H34602   4.602  10.087   1.289  1.1833 -0.4534  0.5499
  251MOL0     H34603   4.556   9.938   1.232 -1.1381  2.2738  2.4785
  251MOL0     H34604   4.744   9.917   1.079 -0.9017  1.4055 -2.0594
  251MOL0     H34605   4.779  10.087   1.109 -0.6494 -0.2930 -3.0112
  251MOL0     H34606   4.796   9.842   1.294  1.1337 -0.8338  1.0379
  251MOL0     H34607   4.817  10.013   1.358 -2.1182  0.7462 -1.1064
  251MOL0     H34608   5.026  10.011   1.290 -2.0428  1.4621  0.6236
  251MOL0     H34609   4.994   9.946   1.131  3.3467  0.9909  1.0513
  251MOL0     H34610   4.998   9.706   1.229 -0.4291 -1.8587  3.0198
  251MOL0     H34611   5.145   9.803   1.224 -0.2868 -3.3506 -0.1777
  251MOL0     H34612   4.992   9.776   1.484  0.6937  1.6107  0.8999
  251MOL0     H34613   5.150   9.848   1.447  0.2031  0.3417  1.1103
  251MOL0     H34614   5.240   9.631   1.347 -0.3543  0.4966 -0.6340
  251MOL0     H34615   5.076   9.569   1.403 -0.3737  1.3749  0.4236
  251MOL0     H34616   5.255   9.510   1.559  1.1319  0.9024 -0.2382
  251MOL0     H34617   5.146   9.631   1.628  0.4077  0.4128  0.1985
  251MOL0     H34618   4.390  10.327   1.195  1.2989 -0.9838 -0.5435
  251MOL0     H34619   4.161  10.325   1.268 -1.6247  0.9049 -2.7676
  251MOL0     H34620   3.835  10.317   1.570 -1.5977  0.5739 -1.4605
  251MOL0     H34621   3.606  10.329   1.633 -0.2247 -1.5125  0.6020
  251MOL0     H34622   1.846   9.723   1.861  0.1463 -1.0750  0.0036
  251MOL0     H34623   1.725   9.929   1.939  0.7205 -1.1676 -3.4831
  251MOL0     H34624   1.481  10.182   2.022  1.0672  0.2880  0.8399
  251MOL0     H34625   1.428  10.403   2.049  2.6281  1.3266  1.2232
  251MOL0     H34626   1.142  10.540   2.391  0.5481  0.8214  1.8478
  251MOL0     H34627   1.310  10.539   2.455 -0.9997  0.2973  1.0862
  251MOL0     H34628   1.164  10.747   2.290  1.3894  3.6432  0.1800
  251MOL0     H34629   1.334  10.752   2.309 -0.0596  0.9306  0.4868
  251MOL0     H34630   1.123  10.751   2.541  0.8989 -1.2537 -1.0564
  251MOL0     H34631   1.298  10.793   2.548  0.9643  3.0393  0.5886
  251MOL0     H34632   1.247  11.013   2.438 -0.7926 -0.2359 -1.2994
  251MOL0     H34633   1.138  10.993   2.575 -1.5765 -1.4525 -0.3006
  251MOL0     H34634   0.840  10.975   2.303 -0.7561 -0.1377  0.8309
  251MOL0     H34635   1.270  10.335   2.446  0.6624  1.0360 -1.0149
  251MOL0     H34636   1.265  10.123   2.536  2.5618  2.8398  0.3881
  251MOL0     H34637   1.267   9.992   2.424  2.5500 -1.2831 -0.4633
  251MOL0     H34638   1.420  10.052   2.511 -0.0125 -1.6620 -0.1994
  252MOL0     O34639  10.899   3.394   2.789  0.1364  0.8761  0.1871
  252MOL0     C34640  10.804   3.468   2.805 -0.3561 -0.5902  0.0905
  252MOL0     O34641  10.811   3.608   2.810  0.2994 -0.3438  0.2845
  252MOL0     C34642  10.935   3.671   2.797  0.2153  0.8093 -0.0457
  252MOL0     C34643  10.941   3.776   2.711  0.5415  0.0372  0.3243
  252MOL0     C34644  11.059   3.856   2.716  0.9205 -0.1537  0.8484
  252MOL0     C34645  11.167   3.809   2.790 -0.8386 -0.0274 -0.8597
  252MOL0     O34646  11.289   3.874   2.793  0.3343 -0.3587 -0.0611
  252MOL0     C34647  11.307   4.015   2.754 -0.0002 -0.0552  0.0706
  252MOL0     C34648  11.438   4.063   2.814  0.2435  0.0354  0.8418
  252MOL0     C34649  11.557   3.982   2.766  0.4488 -0.0692  0.5393
  252MOL0     C34650  11.693   4.050   2.780  0.3341  0.6212  0.3019
  252MOL0     C34651  11.751   4.020   2.919  0.1883 -0.1003 -0.3364
  252MOL0     C34652  11.896   4.063   2.936 -0.4734 -0.1735  0.2240
  252MOL0     C34653  11.971   4.014   3.060 -0.8234  0.1314  0.1410
  252MOL0     C34654  12.018   3.867   3.037 -0.0177  0.1842 -0.1557
  252MOL0     N34655  12.060   3.832   3.176 -0.3922  0.1232 -0.0416
  252MOL0     C34656  12.189   3.858   3.232 -0.0433 -0.6822  0.6699
  252MOL0     C34657  12.213   3.766   3.327  0.3723 -0.2416  0.4979
  252MOL0     C34658  12.325   3.755   3.422  0.3636 -0.9428  0.5838
  252MOL0     C34659  12.401   3.614   3.412  0.5673  0.0147 -0.4613
  252MOL0     C34660  12.517   3.605   3.508 -0.4415 -0.0622  0.1384
  252MOL0     C34661  12.598   3.472   3.473 -0.9102 -0.8950 -1.0237
  252MOL0     O34662  12.714   3.472   3.563  0.4701  0.5974  0.3546
  252MOL0     C34663  12.835   3.517   3.519  0.1726 -0.7732  0.0734
  252MOL0     C34664  12.874   3.553   3.394 -0.0844  0.6587 -1.0264
  252MOL0     C34665  13.009   3.580   3.368 -0.7199 -0.3582 -0.1722
  252MOL0     C34666  13.034   3.606   3.213  0.2750 -0.5577 -0.2959
  252MOL0     C34667  13.107   3.569   3.466 -0.8135 -0.4069 -0.4768
  252MOL0     C34668  13.263   3.586   3.436  0.6077  0.3656  0.0323
  252MOL0     O34669  13.344   3.625   3.541  0.2080 -0.0476 -0.5307
  252MOL0     C34670  13.478   3.658   3.505 -0.1609  0.3669  0.0788
  252MOL0     C34671  13.507   3.778   3.454  0.4857 -0.5252  0.3926
  252MOL0     C34672  13.629   3.806   3.394 -0.1913 -0.8780 -0.1954
  252MOL0     C34673  13.730   3.704   3.390  0.7718  0.1534  0.0684
  252MOL0     O34674  13.851   3.721   3.328  0.0816  0.6293  0.0238
  252MOL0     C34675  13.855   3.801   3.212 -0.0403 -0.5717 -1.0895
  252MOL0     C34676  13.962   3.770   3.113  0.2918  0.4518  0.6202
  252MOL0     C34677  14.103   3.805   3.147 -0.0018  0.7422 -0.2812
  252MOL0     C34678  14.181   3.887   3.038  0.9925  0.1033 -0.7979
  252MOL0     C34679  14.337   3.902   3.077 -0.0148  0.0687 -0.9694
  252MOL0     C34680  14.403   4.017   3.006 -0.2581  0.4713  0.3534
  252MOL0     C34681  14.553   4.012   3.026  0.6140 -0.1957  1.0046
  252MOL0     C34682  14.616   4.145   2.973 -0.5139 -0.2138 -0.8607
  252MOL0    Cl34683  14.642   4.128   2.796 -0.1617  0.0631 -0.2437
  252MOL0     C34684  13.699   3.580   3.443  0.4090 -0.7363  0.4110
  252MOL0     C34685  13.579   3.564   3.511 -0.5257 -0.6930 -0.0173
  252MOL0     O34686  13.310   3.558   3.326  0.3671  0.3275 -0.0205
  252MOL0     C34687  13.072   3.547   3.599  0.5728  1.0995 -0.1025
  252MOL0     C34688  12.935   3.527   3.630 -0.1494 -0.1305  1.2807
  252MOL0     N34689  12.087   3.693   3.349  0.1951 -0.6661  0.1773
  252MOL0     N34690  12.009   3.733   3.252 -0.9302 -0.2466  0.3099
  252MOL0     C34691  11.170   3.693   2.852  0.3838 -1.3859 -0.2412
  252MOL0     C34692  11.048   3.630   2.867  0.3641  0.4461 -0.0286
  252MOL0     C34693  10.675   3.403   2.843  0.2996  0.4035  0.1171
  252MOL0     C34694  10.582   3.496   2.908 -0.7387 -0.5075 -0.1553
  252MOL0     C34695  10.468   3.441   2.966 -0.5420 -0.3393 -0.4622
  252MOL0     C34696  10.437   3.306   2.952 -1.1716  0.3032  0.8170
  252MOL0     O34697  10.323   3.264   3.017 -0.4133  0.6420 -0.6715
  252MOL0     C34698  10.285   3.124   3.038 -0.5392  0.4809  0.6257
  252MOL0     C34699  10.193   3.065   2.919 -0.3689 -0.4589 -0.3994
  252MOL0     C34700  10.053   3.132   2.922  0.3394 -0.7643 -0.3884
  252MOL0     C34701   9.963   3.062   3.018  0.6346  0.0719  0.3677
  252MOL0     C34702   9.825   3.106   3.009  0.1050 -0.8075  0.1122
  252MOL0     C34703   9.708   3.149   3.020 -0.2637 -0.1811  0.3263
  252MOL0     C34704  10.514   3.218   2.876  0.5502  0.9433  1.2051
  252MOL0     C34705  10.631   3.271   2.823 -0.1085  0.3391  1.5767
  252MOL0     C34706  10.706   3.167   2.748 -0.4852  0.1265  0.5489
  252MOL0     H34707  10.861   3.796   2.640 -0.3045  2.4796  1.8441
  252MOL0     H34708  11.063   3.949   2.660 -2.4701 -1.0100 -1.1058
  252MOL0     H34709  11.227   4.075   2.799  0.8612  1.3881 -0.2472
  252MOL0     H34710  11.310   4.029   2.645 -2.8879 -0.7268 -0.1785
  252MOL0     H34711  11.437   4.168   2.784 -2.7206 -0.0700  0.2460
  252MOL0     H34712  11.441   4.059   2.923  0.8058  1.9904  0.9461
  252MOL0     H34713  11.560   3.885   2.815  1.0100 -0.6960 -0.6952
  252MOL0     H34714  11.541   3.967   2.659 -1.7402  0.7553  0.6997
  252MOL0     H34715  11.765   4.008   2.709  0.9614  0.2789  1.1362
  252MOL0     H34716  11.694   4.159   2.774  0.0781  0.6071 -0.0872
  252MOL0     H34717  11.745   3.913   2.943 -0.8437 -0.0328 -0.2526
  252MOL0     H34718  11.688   4.071   2.992 -2.1391 -0.1829 -2.1508
  252MOL0     H34719  11.938   3.999   2.857 -1.9443 -1.1333  0.1838
  252MOL0     H34720  11.913   4.166   2.903  0.5503 -0.6887 -0.9591
  252MOL0     H34721  11.909   4.016   3.150  1.5000  1.0767  1.8477
  252MOL0     H34722  12.058   4.075   3.086 -1.3721  1.6206 -1.3545
  252MOL0     H34723  11.942   3.798   2.998 -0.6677  0.4432  0.6184
  252MOL0     H34724  12.096   3.869   2.960 -1.8207  0.6364 -2.0478
  252MOL0     H34725  12.253   3.934   3.187 -0.0185 -1.2961 -0.3692
  252MOL0     H34726  12.281   3.749   3.522  2.0800 -0.2207  1.4169
  252MOL0     H34727  12.397   3.836   3.412 -0.0621 -0.7139 -0.7384
  252MOL0     H34728  12.325   3.538   3.435  1.0012 -0.0793  0.7298
  252MOL0     H34729  12.444   3.596   3.313  3.0231  0.7845  0.3911
  252MOL0     H34730  12.572   3.698   3.493 -1.5411  0.5907  0.0371
  252MOL0     H34731  12.484   3.606   3.612 -1.4964  2.0217 -0.1775
  252MOL0     H34732  12.524   3.391   3.478 -2.2983  0.3006 -1.6305
  252MOL0     H34733  12.636   3.471   3.371  2.4314 -1.1342  0.0960
  252MOL0     H34734  12.803   3.550   3.312  0.1079 -1.5182 -1.1674
  252MOL0     H34735  13.037   3.517   3.149  4.3651 -0.0396 -1.1102
  252MOL0     H34736  13.123   3.666   3.190 -0.4878  0.0423 -1.7780
  252MOL0     H34737  12.953   3.671   3.180  0.2294 -1.1021 -1.2971
  252MOL0     H34738  13.421   3.844   3.464  1.8923  2.0530 -2.6026
  252MOL0     H34739  13.662   3.896   3.343 -0.7349 -0.6411 -0.1411
  252MOL0     H34740  13.765   3.775   3.154  0.3606 -0.5646 -1.7180
  252MOL0     H34741  13.868   3.904   3.248  0.8158 -1.3048  0.8053
  252MOL0     H34742  13.954   3.663   3.092 -3.0327  0.4158  1.4253
  252MOL0     H34743  13.939   3.819   3.018 -1.9626  2.4253  2.0536
  252MOL0     H34744  14.150   3.707   3.156 -1.1735  0.1108 -0.8667
  252MOL0     H34745  14.109   3.866   3.238 -1.0853  1.6483 -0.7966
  252MOL0     H34746  14.136   3.986   3.026 -0.3167 -0.0259  2.1905
  252MOL0     H34747  14.168   3.836   2.942  1.3415  1.8164 -1.7897
  252MOL0     H34748  14.340   3.926   3.184  1.1891  0.8423 -1.1635
  252MOL0     H34749  14.391   3.808   3.063  0.7661  0.5947 -1.5289
  252MOL0     H34750  14.367   4.107   3.056 -0.6168 -0.0543  1.0631
  252MOL0     H34751  14.386   4.014   2.898  2.4036 -1.1861 -0.1094
  252MOL0     H34752  14.602   3.924   2.984 -1.2009 -0.8271  0.0910
  252MOL0     H34753  14.574   4.012   3.133 -0.3055 -0.7241  1.1938
  252MOL0     H34754  14.710   4.162   3.025 -2.1504  3.3839  1.2681
  252MOL0     H34755  14.549   4.231   2.985 -0.0872  0.1128 -0.8072
  252MOL0     H34756  13.768   3.497   3.454 -0.3967 -1.4113  0.4816
  252MOL0     H34757  13.552   3.474   3.566  0.3773  0.8524  3.1730
  252MOL0     H34758  13.147   3.542   3.677 -0.8528  1.8257  1.3733
  252MOL0     H34759  12.907   3.501   3.732 -0.4174  0.9047  1.4797
  252MOL0     H34760  11.271   3.666   2.882  0.2406 -0.9345  0.6934
  252MOL0     H34761  11.044   3.540   2.927  0.8710 -0.3352 -1.1250
  252MOL0     H34762  10.598   3.603   2.913 -1.6519 -0.4024  0.7339
  252MOL0     H34763  10.398   3.504   3.020 -1.5942 -0.2111 -1.9199
  252MOL0     H34764  10.373   3.059   3.044  0.4875  1.9494  2.0639
  252MOL0     H34765  10.239   3.119   3.137 -0.4000  0.6197  0.6982
  252MOL0     H34766  10.177   2.957   2.919 -2.8670 -0.2055 -2.8387
  252MOL0     H34767  10.245   3.093   2.826  2.0309  1.5723  1.3901
  252MOL0     H34768  10.064   3.235   2.956  0.4737 -1.3812  1.5803
  252MOL0     H34769  10.021   3.142   2.818 -0.2677  1.7774 -0.0215
  252MOL0     H34770   9.995   3.085   3.120  3.8215  1.9792 -0.9299
  252MOL0     H34771   9.959   2.956   2.990  3.8259 -0.4713  1.5342
  252MOL0     H34772   9.603   3.160   3.039 -0.2342 -0.5301  0.7025
  252MOL0     H34773  10.484   3.116   2.857  1.1353  0.6548  1.7745
  252MOL0     H34774  10.634   3.113   2.686 -0.4488  0.5732  0.1052
  252MOL0     H34775  10.781   3.205   2.678 -2.2429  1.5698 -0.6717
  252MOL0     H34776  10.742   3.102   2.828  0.7385  2.2564  1.8433
  253MOL0     O34777   5.226   3.104   7.223 -0.0353 -0.3098 -0.4626
  253MOL0     C34778   5.144   3.118   7.310 -0.7327 -0.8962  0.5634
  253MOL0     O34779   5.172   3.125   7.440 -1.1099 -0.1878 -0.3620
  253MOL0     C34780   5.300   3.105   7.487  0.0517  0.1529 -0.1243
  253MOL0     C34781   5.296   3.094   7.625  0.3563  0.1028  0.0882
  253MOL0     C34782   5.404   3.061   7.705 -0.2813 -0.5430 -0.2666
  253MOL0     C34783   5.524   3.037   7.642  0.3618 -0.1450  0.2141
  253MOL0     O34784   5.626   3.009   7.732  0.6631 -0.5326  0.6928
  253MOL0     C34785   5.751   2.975   7.682 -0.4582 -0.3874  0.2595
  253MOL0     C34786   5.821   2.867   7.769  0.8123 -0.2543 -0.6156
  253MOL0     C34787   5.956   2.826   7.720  0.7923  0.5865  0.2327
  253MOL0     C34788   5.965   2.760   7.582  0.0184 -0.2069 -0.4808
  253MOL0     C34789   6.116   2.735   7.542  0.5866 -0.6000  0.5982
  253MOL0     C34790   6.134   2.635   7.423  1.1931  0.9221  1.2516
  253MOL0     C34791   6.284   2.621   7.396 -0.2508  0.4769 -0.0297
  253MOL0     C34792   6.317   2.529   7.277 -0.2552 -0.2375  0.6704
  253MOL0     N34793   6.461   2.523   7.246  0.2266  0.0539  0.0827
  253MOL0     C34794   6.558   2.452   7.306 -0.1817 -0.1092  0.8110
  253MOL0     C34795   6.678   2.484   7.238  0.3284 -0.1714  0.4290
  253MOL0     C34796   6.814   2.445   7.280 -0.8639  0.3052  0.5793
  253MOL0     C34797   6.859   2.512   7.415  0.0079 -0.2545  1.0358
  253MOL0     C34798   6.840   2.666   7.420 -0.3477 -0.4405 -0.2593
  253MOL0     C34799   6.910   2.722   7.559 -0.3956  0.0267  0.2189
  253MOL0     O34800   6.847   2.664   7.676  0.1954 -0.2545 -0.4578
  253MOL0     C34801   6.729   2.717   7.719 -0.3237  0.0440  0.3861
  253MOL0     C34802   6.697   2.664   7.842 -0.4199  0.4330  0.0635
  253MOL0     C34803   6.583   2.700   7.912 -0.3321 -0.1261  0.1095
  253MOL0     C34804   6.565   2.623   8.041  1.0894  0.2695 -0.9768
  253MOL0     C34805   6.499   2.798   7.860  0.5914  0.3738 -0.8134
  253MOL0     C34806   6.376   2.835   7.924  1.0237 -0.6936  0.7603
  253MOL0     O34807   6.328   2.956   7.882  0.1904  0.0794 -0.8006
  253MOL0     C34808   6.214   3.009   7.937 -0.3270 -0.2164  0.0671
  253MOL0     C34809   6.132   2.973   8.046  0.3782 -0.2364 -0.3816
  253MOL0     C34810   6.024   3.052   8.089  0.2400 -0.2034  0.7988
  253MOL0     C34811   5.985   3.164   8.016 -0.1791  0.4885  0.1314
  253MOL0     O34812   5.879   3.238   8.051 -0.0563  0.3221  0.0803
  253MOL0     C34813   5.757   3.161   8.084 -0.1601 -0.1637 -0.1922
  253MOL0     C34814   5.644   3.263   8.094  0.4052  0.8038 -0.7588
  253MOL0     C34815   5.515   3.172   8.097 -0.2506 -0.6360 -0.5036
  253MOL0     C34816   5.400   3.246   8.143  0.4561  0.6213  0.8846
  253MOL0     C34817   5.361   3.353   8.045 -0.6378  0.0978  0.6109
  253MOL0     C34818   5.235   3.319   7.961  0.2418 -0.5879 -0.2641
  253MOL0     C34819   5.189   3.443   7.882  0.3816  0.5511  0.1470
  253MOL0     C34820   5.085   3.416   7.767  0.0665  0.0543 -0.1075
  253MOL0    Cl34821   4.923   3.369   7.845  0.2950  0.5468 -0.0249
  253MOL0     C34822   6.068   3.206   7.913 -0.4116  0.8289  0.7886
  253MOL0     C34823   6.181   3.131   7.877  0.7586 -0.2891 -0.0404
  253MOL0     O34824   6.329   2.767   8.013  0.3249 -0.3925 -0.2777
  253MOL0     C34825   6.532   2.863   7.729  0.9638  0.2127 -0.7595
  253MOL0     C34826   6.648   2.816   7.662  0.4911 -0.6771  0.1017
  253MOL0     N34827   6.644   2.579   7.143 -0.2462  0.3785  0.1065
  253MOL0     N34828   6.515   2.603   7.151 -0.1307  1.4099  0.6653
  253MOL0     C34829   5.533   3.047   7.500 -0.6389 -0.0432 -0.1691
  253MOL0     C34830   5.425   3.079   7.423  0.9399  1.0351 -0.7626
  253MOL0     C34831   4.999   3.114   7.260 -0.3771  1.2135 -0.9505
  253MOL0     C34832   4.984   3.084   7.123 -0.4944  0.2642 -0.2043
  253MOL0     C34833   4.851   3.074   7.077  1.2084 -0.4694  0.2869
  253MOL0     C34834   4.734   3.069   7.162 -0.6964 -0.6828 -0.6675
  253MOL0     O34835   4.607   3.061   7.102 -0.9037 -0.6893  0.0250
  253MOL0     C34836   4.560   3.180   7.038 -0.4404  0.5790  0.0891
  253MOL0     C34837   4.436   3.230   7.129  0.3034  0.3550  0.4452
  253MOL0     C34838   4.316   3.144   7.107  0.2051  0.3844  0.2189
  253MOL0     C34839   4.207   3.143   7.216  0.0287 -0.0406 -0.3220
  253MOL0     C34840   4.138   3.272   7.223  0.0573 -0.8477 -0.3070
  253MOL0     C34841   4.078   3.376   7.231 -0.3423 -0.0027 -0.2789
  253MOL0     C34842   4.761   3.095   7.300 -0.1462  0.5049  0.5215
  253MOL0     C34843   4.887   3.107   7.350  1.2796 -0.1005  0.4103
  253MOL0     C34844   4.898   3.112   7.501 -0.2744  0.3314  0.0548
  253MOL0     H34845   5.206   3.099   7.685 -0.3197 -4.4306 -0.2136
  253MOL0     H34846   5.400   3.075   7.812 -1.1590 -0.0368 -0.3569
  253MOL0     H34847   5.809   3.067   7.686  0.1516 -0.7868  2.8899
  253MOL0     H34848   5.745   2.929   7.583 -0.0569  0.1044  0.0063
  253MOL0     H34849   5.819   2.917   7.867 -4.9880 -0.7748 -0.1028
  253MOL0     H34850   5.753   2.783   7.785  0.4948  0.2389  0.8685
  253MOL0     H34851   6.024   2.912   7.711  1.7119 -0.2203 -0.7872
  253MOL0     H34852   6.003   2.761   7.794 -1.0351 -0.5174  0.4682
  253MOL0     H34853   5.936   2.655   7.582  0.0991 -0.2324 -0.1285
  253MOL0     H34854   5.902   2.809   7.507 -1.4335 -2.1151 -0.5744
  253MOL0     H34855   6.156   2.694   7.635 -0.0236  0.8739  1.5531
  253MOL0     H34856   6.167   2.828   7.515 -0.6760  0.2319  0.9931
  253MOL0     H34857   6.085   2.541   7.446  0.6651  0.5785 -1.0148
  253MOL0     H34858   6.082   2.667   7.332  0.3295 -2.0682  0.5902
  253MOL0     H34859   6.330   2.569   7.481 -1.2543 -0.8985 -0.2919
  253MOL0     H34860   6.331   2.719   7.384  1.1453 -0.2586 -0.9482
  253MOL0     H34861   6.278   2.430   7.303 -4.3322  1.6975  2.8551
  253MOL0     H34862   6.271   2.558   7.182 -2.0891  1.7803  2.0848
  253MOL0     H34863   6.548   2.376   7.383  0.0143 -0.4960  0.4616
  253MOL0     H34864   6.875   2.469   7.192 -3.4013  2.1409 -0.8030
  253MOL0     H34865   6.828   2.339   7.303  1.7301  0.0411 -1.6533
  253MOL0     H34866   6.790   2.472   7.491  1.5369  0.2929  2.8079
  253MOL0     H34867   6.964   2.489   7.434 -0.2023 -0.3214  2.2025
  253MOL0     H34868   6.896   2.717   7.342  0.1261  1.0677  1.0092
  253MOL0     H34869   6.732   2.682   7.410 -0.7823 -3.4184 -1.4006
  253MOL0     H34870   7.014   2.688   7.556 -0.6436 -0.7017 -1.7073
  253MOL0     H34871   6.922   2.831   7.560 -0.9931  0.1610 -2.0591
  253MOL0     H34872   6.754   2.578   7.873 -0.3580 -1.0977 -3.7861
  253MOL0     H34873   6.644   2.547   8.048  1.8858  1.2369  1.3727
  253MOL0     H34874   6.480   2.556   8.028  2.0439 -1.3651  0.6159
  253MOL0     H34875   6.566   2.687   8.130  0.6090 -2.2929  1.0066
  253MOL0     H34876   6.143   2.875   8.090 -0.1755 -1.3559 -2.5758
  253MOL0     H34877   5.965   3.016   8.173  0.0251 -0.8791  0.3718
  253MOL0     H34878   5.733   3.078   8.016  4.1813 -0.6059 -1.4597
  253MOL0     H34879   5.770   3.117   8.183  0.8638  0.5737  0.0136
  253MOL0     H34880   5.661   3.336   8.174 -1.6035 -0.2234  0.6692
  253MOL0     H34881   5.647   3.323   8.002  1.3174 -0.2478 -1.4388
  253MOL0     H34882   5.527   3.077   8.150 -0.5304  0.5778  1.8412
  253MOL0     H34883   5.507   3.146   7.991  1.8958  1.1455 -1.1782
  253MOL0     H34884   5.432   3.296   8.235  1.1561  0.6652  0.6194
  253MOL0     H34885   5.314   3.185   8.171  2.1148 -1.1902  2.2712
  253MOL0     H34886   5.334   3.436   8.110  0.7216 -0.9238  2.5851
  253MOL0     H34887   5.438   3.387   7.976 -1.1754 -0.6955 -0.4198
  253MOL0     H34888   5.159   3.270   8.023  0.7576 -2.5298 -1.0844
  253MOL0     H34889   5.269   3.238   7.895  2.0615 -1.6240  1.8277
  253MOL0     H34890   5.282   3.485   7.844  0.1364  0.2696 -0.8063
  253MOL0     H34891   5.140   3.513   7.950 -2.4513 -1.1516  0.0616
  253MOL0     H34892   5.112   3.327   7.709 -3.4983 -1.0378 -0.2840
  253MOL0     H34893   5.080   3.510   7.712 -0.9835 -0.3176 -0.6647
  253MOL0     H34894   6.048   3.292   7.849 -0.1829 -0.8668 -1.6922
  253MOL0     H34895   6.257   3.163   7.806  0.8981 -1.5264 -0.4698
  253MOL0     H34896   6.476   2.948   7.691  0.5707 -1.1977 -3.5624
  253MOL0     H34897   6.689   2.871   7.578  0.3119 -0.9998 -0.1966
  253MOL0     H34898   5.627   3.021   7.453  1.3645 -1.5293  4.2166
  253MOL0     H34899   5.444   3.067   7.317  0.7951  2.2104 -0.9366
  253MOL0     H34900   5.063   3.084   7.048 -1.1142 -3.5312 -1.0627
  253MOL0     H34901   4.834   3.053   6.972  1.3781 -0.7032  0.3060
  253MOL0     H34902   4.643   3.251   7.042 -0.4854  0.5801  2.1076
  253MOL0     H34903   4.533   3.168   6.933 -3.0701  1.4388  0.5937
  253MOL0     H34904   4.402   3.333   7.112  3.5035  1.3725 -0.4463
  253MOL0     H34905   4.469   3.220   7.233  1.0138 -1.1372  0.0934
  253MOL0     H34906   4.276   3.161   7.006  0.6285 -1.2547 -0.2663
  253MOL0     H34907   4.364   3.046   7.097  2.3289  1.5534 -2.5066
  253MOL0     H34908   4.251   3.115   7.312  0.6155 -1.8317 -1.0726
  253MOL0     H34909   4.128   3.067   7.209 -0.3048  0.2836 -0.0702
  253MOL0     H34910   4.008   3.456   7.245 -2.4264 -1.7301 -0.1835
  253MOL0     H34911   4.671   3.095   7.362 -0.4897  3.2655  0.1693
  253MOL0     H34912   4.974   3.044   7.542 -1.8329  0.6220  3.8200
  253MOL0     H34913   4.924   3.213   7.534  0.8006 -0.0784  0.5291
  253MOL0     H34914   4.802   3.078   7.541 -0.2080 -0.0849 -0.1348
  254MOL0     O34915   7.971   6.575  11.027 -0.7092 -0.2899  0.3340
  254MOL0     C34916   7.884   6.561  11.117 -0.7367 -0.2827  0.4569
  254MOL0     O34917   7.911   6.595  11.244  0.3803  0.1898 -0.8496
  254MOL0     C34918   8.030   6.646  11.279  0.4922  0.3576 -0.0596
  254MOL0     C34919   8.142   6.561  11.281 -0.2739 -0.1091  0.4494
  254MOL0     C34920   8.273   6.611  11.308  0.8447  0.4614 -1.4877
  254MOL0     C34921   8.287   6.748  11.337 -0.0366 -0.8304 -0.5408
  254MOL0     O34922   8.407   6.795  11.358 -0.0945 -0.1460 -0.1108
  254MOL0     C34923   8.432   6.923  11.420  0.2765 -0.0833 -0.0602
  254MOL0     C34924   8.585   6.940  11.462 -0.4932  0.5362  0.2626
  254MOL0     C34925   8.607   7.073  11.529  0.0224 -0.4055  0.5129
  254MOL0     C34926   8.738   7.074  11.614  0.1263  0.7443 -0.1344
  254MOL0     C34927   8.867   7.085  11.534  0.2549 -0.3327  0.3170
  254MOL0     C34928   8.984   7.108  11.628  0.3539  0.1382 -0.3364
  254MOL0     C34929   9.118   7.076  11.563  0.0195 -0.7063  0.3052
  254MOL0     C34930   9.229   7.073  11.660 -1.3005 -0.0351  0.4246
  254MOL0     N34931   9.360   7.053  11.584  0.5308  0.4566  0.1058
  254MOL0     C34932   9.399   7.116  11.473  0.1655 -0.3125  0.7620
  254MOL0     C34933   9.525   7.081  11.454 -0.1698  0.5624  0.2506
  254MOL0     C34934   9.623   7.101  11.342 -0.1531  1.0215  0.4922
  254MOL0     C34935   9.593   7.192  11.223 -0.1729 -0.7214  0.3081
  254MOL0     C34936   9.532   7.116  11.110 -1.0756  0.7276 -0.1289
  254MOL0     C34937   9.407   7.052  11.137  0.8080 -0.1544  0.2183
  254MOL0     O34938   9.318   7.160  11.180 -0.9281 -0.9244  0.6172
  254MOL0     C34939   9.185   7.143  11.167 -0.2234 -0.0010 -0.5000
  254MOL0     C34940   9.124   7.252  11.224  0.0009 -1.1606  0.4054
  254MOL0     C34941   8.979   7.260  11.229 -0.0159 -0.0341 -0.1113
  254MOL0     C34942   8.916   7.381  11.271  0.3819 -0.0120  0.5596
  254MOL0     C34943   8.901   7.149  11.179 -0.5692 -0.2408 -0.7071
  254MOL0     C34944   8.754   7.138  11.170  0.4540 -0.3112 -0.2921
  254MOL0     O34945   8.707   7.025  11.100 -0.6739 -0.4997  0.2139
  254MOL0     C34946   8.594   7.032  11.029  1.1185  0.5937 -0.6792
  254MOL0     C34947   8.558   7.135  10.943  0.8275 -0.3382  0.4099
  254MOL0     C34948   8.425   7.147  10.900 -0.3033  0.7933 -0.1034
  254MOL0     C34949   8.327   7.059  10.947 -0.2064 -0.2502  0.0757
  254MOL0     O34950   8.203   7.090  10.907 -0.3973 -0.7268 -0.3180
  254MOL0     C34951   8.093   7.008  10.961 -0.7937  0.1743  0.6027
  254MOL0     C34952   7.963   7.067  10.900  0.6531  0.5113 -0.1518
  254MOL0     C34953   7.841   6.990  10.944 -1.4471 -0.1514  0.6315
  254MOL0     C34954   7.818   6.858  10.870 -0.2367  0.0412  0.4692
  254MOL0     C34955   7.693   6.782  10.918 -0.9610 -0.6369  0.3635
  254MOL0     C34956   7.564   6.856  10.898 -0.0766  0.1565  0.1122
  254MOL0     C34957   7.435   6.771  10.921 -0.6973  0.4993 -0.0665
  254MOL0     C34958   7.402   6.657  10.819 -1.1401 -0.3893  0.1974
  254MOL0    Cl34959   7.402   6.723  10.651 -0.1099  0.4653 -0.1274
  254MOL0     C34960   8.371   6.948  11.021  0.0830 -0.3906  0.1216
  254MOL0     C34961   8.504   6.929  11.064 -0.2916  0.2299  1.1765
  254MOL0     O34962   8.683   7.222  11.218 -0.1790 -0.1519 -0.2104
  254MOL0     C34963   8.975   7.039  11.134 -0.6165 -0.0711  0.2743
  254MOL0     C34964   9.110   7.038  11.119  0.4665  1.2422  0.1737
  254MOL0     N34965   9.563   6.993  11.559 -0.5821  0.2505  0.6988
  254MOL0     N34966   9.461   6.980  11.635  0.0513  0.6450 -0.0790
  254MOL0     C34967   8.170   6.838  11.334  0.5883 -0.2091  0.5494
  254MOL0     C34968   8.042   6.784  11.301 -0.3215  0.3947  0.5442
  254MOL0     C34969   7.745   6.509  11.099 -0.4732 -0.5685  0.7560
  254MOL0     C34970   7.642   6.542  11.198 -0.6677 -0.2804  0.4392
  254MOL0     C34971   7.516   6.500  11.183  0.2695  0.5074 -0.3861
  254MOL0     C34972   7.475   6.421  11.079 -0.7020  0.8562 -0.0886
  254MOL0     O34973   7.344   6.376  11.060 -0.1004 -0.6353 -0.3748
  254MOL0     C34974   7.244   6.442  11.132 -0.0586 -0.6599 -0.5990
  254MOL0     C34975   7.099   6.412  11.085 -0.1086 -0.4534 -0.4471
  254MOL0     C34976   7.007   6.504  11.175  0.1708 -0.0537 -0.0484
  254MOL0     C34977   6.863   6.450  11.176 -0.5644 -0.0598  0.1533
  254MOL0     C34978   6.819   6.461  11.036  1.3138 -0.2052  0.3831
  254MOL0     C34979   6.764   6.465  10.922  0.2009  0.1492  0.2418
  254MOL0     C34980   7.574   6.387  10.981  0.3128 -0.1042 -0.7574
  254MOL0     C34981   7.708   6.419  10.995  0.5312  0.1588  0.1730
  254MOL0     C34982   7.797   6.370  10.889  0.1484  0.4787 -0.0375
  254MOL0     H34983   8.127   6.459  11.246 -3.6716 -0.0082  1.1934
  254MOL0     H34984   8.352   6.538  11.310  0.3964 -0.0512  0.5110
  254MOL0     H34985   8.371   6.919  11.511 -1.1846 -0.3368 -1.0229
  254MOL0     H34986   8.392   7.000  11.354  0.7560  1.1187  0.9836
  254MOL0     H34987   8.605   6.855  11.527  1.1810  0.2344 -0.5695
  254MOL0     H34988   8.664   6.938  11.386  0.5864 -0.5107  1.3753
  254MOL0     H34989   8.600   7.160  11.463 -0.7231 -1.3768 -0.7252
  254MOL0     H34990   8.525   7.086  11.601  0.1147  0.0175  0.5437
  254MOL0     H34991   8.734   7.172  11.664  0.1814  0.1372  1.0921
  254MOL0     H34992   8.740   6.994  11.689 -0.4129  1.0885  0.2554
  254MOL0     H34993   8.846   7.172  11.472 -0.4264  2.0645  3.6504
  254MOL0     H34994   8.882   7.002  11.465  2.1555 -0.5673  0.9670
  254MOL0     H34995   8.987   7.214  11.652 -0.9712  0.8734 -2.9977
  254MOL0     H34996   8.971   7.042  11.714  1.6538 -1.5323 -1.3346
  254MOL0     H34997   9.121   7.160  11.493  0.3349  0.0344  1.1971
  254MOL0     H34998   9.110   6.988  11.499  1.1302 -1.3314  1.0061
  254MOL0     H34999   9.230   7.172  11.706 -1.4908  0.1365  0.0644
  254MOL0     H35000   9.217   6.990  11.730  1.0975 -3.3094 -2.6825
  254MOL0     H35001   9.353   7.200  11.422  2.0023 -0.1168 -0.6658
  254MOL0     H35002   9.629   6.997  11.306 -1.8518  0.7550  0.8982
  254MOL0     H35003   9.713   7.144  11.387  0.8717  1.1968 -1.6171
  254MOL0     H35004   9.522   7.268  11.255  1.4629  0.6667  0.8330
  254MOL0     H35005   9.673   7.255  11.181 -0.7334 -1.4409 -2.0130
  254MOL0     H35006   9.521   7.188  11.028  1.0846 -1.8576 -2.9430
  254MOL0     H35007   9.606   7.040  11.081 -2.0721 -1.3860  2.4062
  254MOL0     H35008   9.372   7.004  11.045  1.4373  0.7126 -0.4878
  254MOL0     H35009   9.411   6.983  11.222 -2.4886  0.9580  1.4521
  254MOL0     H35010   9.186   7.334  11.259 -2.0987  0.7412 -0.1157
  254MOL0     H35011   8.981   7.469  11.266  0.3763  0.0976  1.9772
  254MOL0     H35012   8.882   7.360  11.373  1.0504 -1.0975  0.5671
  254MOL0     H35013   8.835   7.417  11.207  0.5430  1.2384  1.0260
  254MOL0     H35014   8.631   7.210  10.916  0.5018 -0.3860 -0.6476
  254MOL0     H35015   8.392   7.235  10.844 -3.3186 -0.0271  0.2057
  254MOL0     H35016   8.104   6.902  10.939 -1.8642 -0.0663  1.1302
  254MOL0     H35017   8.095   7.016  11.071  1.4104 -1.1804  0.7270
  254MOL0     H35018   7.956   7.173  10.928  2.6242  0.4177  0.8292
  254MOL0     H35019   7.963   7.063  10.791 -2.6248 -1.8923 -0.2262
  254MOL0     H35020   7.755   7.058  10.933  1.1213  3.3073  0.2391
  254MOL0     H35021   7.861   6.964  11.049  0.7080  1.5253  0.7040
  254MOL0     H35022   7.906   6.794  10.873 -0.0397  0.3262  1.0065
  254MOL0     H35023   7.804   6.885  10.765  2.7952  2.2409  0.4831
  254MOL0     H35024   7.690   6.684  10.870 -0.1115  0.4204 -2.0441
  254MOL0     H35025   7.707   6.760  11.024  1.8018 -2.0149 -0.1815
  254MOL0     H35026   7.565   6.903  10.799  0.4234 -1.0510 -0.4799
  254MOL0     H35027   7.563   6.936  10.972 -3.8016 -0.0900  0.5376
  254MOL0     H35028   7.349   6.836  10.902 -1.6208 -0.5150  0.4651
  254MOL0     H35029   7.432   6.735  11.025  2.3064  1.2657  0.3568
  254MOL0     H35030   7.304   6.612  10.838 -0.8195 -0.3165  2.2650
  254MOL0     H35031   7.471   6.573  10.824  0.1765  0.7484  2.6005
  254MOL0     H35032   8.289   6.878  11.037  0.2742 -0.6391  0.0092
  254MOL0     H35033   8.541   6.839  11.112 -0.7163 -0.8205 -0.3989
  254MOL0     H35034   8.925   6.948  11.105  0.6951 -1.0603  1.0081
  254MOL0     H35035   9.160   6.954  11.072  3.0442  0.9613  3.1126
  254MOL0     H35036   8.180   6.942  11.363  3.5961 -0.2632  0.0095
  254MOL0     H35037   7.950   6.842  11.288 -1.9630 -2.4800 -1.9849
  254MOL0     H35038   7.654   6.610  11.282 -0.2980  2.5296 -1.7414
  254MOL0     H35039   7.439   6.520  11.256 -1.8492 -2.1363 -1.7067
  254MOL0     H35040   7.252   6.423  11.239 -1.1695  0.3262 -0.3229
  254MOL0     H35041   7.253   6.548  11.109  1.6132 -0.6892 -0.1815
  254MOL0     H35042   7.070   6.308  11.104  0.9008 -0.7423 -0.4294
  254MOL0     H35043   7.084   6.437  10.979 -0.6478  1.2159 -0.0098
  254MOL0     H35044   7.048   6.508  11.277  0.1423  0.0341 -0.0401
  254MOL0     H35045   7.006   6.606  11.135 -0.3837 -0.0374 -0.0061
  254MOL0     H35046   6.807   6.508  11.249  2.5526  4.5179 -0.6087
  254MOL0     H35047   6.858   6.346  11.207 -1.2192  0.8926  3.6425
  254MOL0     H35048   6.707   6.476  10.833 -0.5933 -3.1258  0.1879
  254MOL0     H35049   7.525   6.334  10.900 -2.4065 -0.3857  0.9366
  254MOL0     H35050   7.898   6.336  10.916  0.1630  0.7002  0.1856
  254MOL0     H35051   7.740   6.292  10.836  0.4997  3.3623 -5.3353
  254MOL0     H35052   7.813   6.450  10.816 -0.6186 -1.3830 -2.3918
  255MOL0     O35053   6.175   1.913   5.137  0.2858  0.4659  0.1027
  255MOL0     C35054   6.131   1.885   5.248  0.1486  0.0272 -0.0447
  255MOL0     O35055   6.215   1.864   5.359 -0.0846 -0.4456  0.0399
  255MOL0     C35056   6.350   1.828   5.349  1.0789 -0.1314  0.1106
  255MOL0     C35057   6.417   1.835   5.467 -0.0467 -0.1702 -0.7500
  255MOL0     C35058   6.558   1.820   5.467  0.6992  0.1022  0.0211
  255MOL0     C35059   6.630   1.782   5.358  0.7514  0.3462 -0.8587
  255MOL0     O35060   6.760   1.759   5.374  0.4464 -0.0161  0.1375
  255MOL0     C35061   6.853   1.832   5.290  1.0290  0.2858 -0.5847
  255MOL0     C35062   6.994   1.765   5.286  0.1664  0.7240  0.0764
  255MOL0     C35063   7.098   1.869   5.238  0.6499  0.2220  0.9519
  255MOL0     C35064   7.231   1.816   5.273  0.0713  1.1672 -0.9011
  255MOL0     C35065   7.335   1.921   5.287 -0.6873 -0.2621  0.1483
  255MOL0     C35066   7.461   1.850   5.331  0.4152  0.7462 -0.4183
  255MOL0     C35067   7.564   1.959   5.363  0.3129 -0.2570  0.1213
  255MOL0     C35068   7.650   1.999   5.250  1.0111 -0.1205  0.4675
  255MOL0     N35069   7.775   1.937   5.287  0.4711  0.0626  0.0425
  255MOL0     C35070   7.879   1.993   5.357 -0.0998  0.1817  0.1168
  255MOL0     C35071   7.962   1.893   5.381  0.4412  0.1136  0.3449
  255MOL0     C35072   8.100   1.899   5.451 -0.4725  0.8310 -0.4853
  255MOL0     C35073   8.224   1.840   5.368 -0.1910 -0.1598 -0.1341
  255MOL0     C35074   8.357   1.842   5.457 -0.9094  0.1460  0.9671
  255MOL0     C35075   8.464   1.782   5.372 -0.3360 -0.2860  0.7345
  255MOL0     O35076   8.590   1.802   5.435  0.2473 -0.1641  0.3255
  255MOL0     C35077   8.707   1.756   5.374 -0.0463 -0.8550  0.0678
  255MOL0     C35078   8.833   1.764   5.441  0.0599  1.1759  0.0882
  255MOL0     C35079   8.952   1.732   5.377 -0.0033  0.4758  0.3772
  255MOL0     C35080   9.080   1.745   5.469  0.4927 -0.0813  0.1472
  255MOL0     C35081   8.950   1.698   5.244  0.8548  0.0441  0.0947
  255MOL0     C35082   9.071   1.655   5.163 -0.1871 -0.6782 -0.3548
  255MOL0     O35083   9.191   1.683   5.226  0.0974  0.0646  0.0084
  255MOL0     C35084   9.311   1.641   5.183  0.3630 -0.2997 -0.2217
  255MOL0     C35085   9.400   1.603   5.283  0.2540  0.2136  0.3568
  255MOL0     C35086   9.530   1.587   5.251 -1.0701 -0.2240 -0.3805
  255MOL0     C35087   9.588   1.615   5.122 -0.1767  0.5085 -0.3315
  255MOL0     O35088   9.723   1.601   5.101 -1.0857 -0.2786  0.4307
  255MOL0     C35089   9.813   1.624   5.216 -0.0171 -0.4259 -0.2196
  255MOL0     C35090   9.957   1.623   5.174  0.3608  0.2993  0.6001
  255MOL0     C35091  10.011   1.477   5.145  0.5578  1.3615  0.5131
  255MOL0     C35092  10.157   1.486   5.107 -0.2390  0.4944 -0.3334
  255MOL0     C35093  10.234   1.358   5.118  0.8671  0.3028 -1.0428
  255MOL0     C35094  10.375   1.373   5.079  0.6488 -0.6211 -0.2808
  255MOL0     C35095  10.438   1.235   5.067 -0.2336  0.4422  0.3385
  255MOL0     C35096  10.582   1.214   5.098 -0.7254  0.5733  0.0937
  255MOL0    Cl35097  10.621   1.235   5.273  0.4397  0.2121 -0.3566
  255MOL0     C35098   9.497   1.648   5.017  0.1592 -0.8123  0.2544
  255MOL0     C35099   9.359   1.663   5.051  0.7037 -0.0260  0.1203
  255MOL0     O35100   9.056   1.586   5.063  0.5756  0.2642 -0.2243
  255MOL0     C35101   8.829   1.688   5.175  0.2961  0.1729 -0.1900
  255MOL0     C35102   8.706   1.721   5.240  0.5908  0.8706 -0.6096
  255MOL0     N35103   7.910   1.777   5.329 -0.3840 -0.0304 -0.2327
  255MOL0     N35104   7.794   1.802   5.276 -0.6500 -0.3115 -0.0550
  255MOL0     C35105   6.559   1.780   5.236  0.8971  0.0053 -0.3377
  255MOL0     C35106   6.422   1.794   5.234  0.2293 -0.1432  0.3075
  255MOL0     C35107   5.982   1.878   5.265 -0.8122 -0.2869  0.4761
  255MOL0     C35108   5.900   1.847   5.157 -0.2343  0.7364 -0.1568
  255MOL0     C35109   5.761   1.841   5.167 -0.2390 -0.4114 -0.0710
  255MOL0     C35110   5.703   1.855   5.287  0.2707 -0.0270 -0.0208
  255MOL0     O35111   5.565   1.833   5.293 -0.2286 -0.4320  0.0129
  255MOL0     C35112   5.508   1.884   5.418  0.3974 -0.3042 -0.1976
  255MOL0     C35113   5.364   1.913   5.409 -0.6404  0.3734  0.7291
  255MOL0     C35114   5.272   1.813   5.343  0.5128  0.8620  0.0381
  255MOL0     C35115   5.124   1.833   5.384  0.2122  0.0570  0.1140
  255MOL0     C35116   5.085   1.972   5.379  0.4495  0.0730 -0.7396
  255MOL0     C35117   5.050   2.083   5.388  0.4043 -0.4126  0.0435
  255MOL0     C35118   5.781   1.882   5.397 -0.0318 -0.5150 -0.6844
  255MOL0     C35119   5.919   1.884   5.390 -0.3208  0.1714 -0.3468
  255MOL0     C35120   5.999   1.912   5.522 -0.4190 -0.9834  0.4299
  255MOL0     H35121   6.360   1.864   5.555  1.7324  0.1389  0.3649
  255MOL0     H35122   6.604   1.818   5.565  1.3691 -2.9981 -0.2525
  255MOL0     H35123   6.850   1.933   5.332  0.6528  0.3268 -0.7065
  255MOL0     H35124   6.814   1.838   5.188  2.5064  1.0611 -1.1319
  255MOL0     H35125   7.002   1.720   5.386 -2.1559  0.1552  0.0702
  255MOL0     H35126   6.979   1.683   5.215 -4.1014  0.4389  1.0475
  255MOL0     H35127   7.082   1.883   5.131  0.6892  0.1023  0.9302
  255MOL0     H35128   7.077   1.966   5.282 -3.5614  0.7602 -1.7390
  255MOL0     H35129   7.222   1.772   5.372  0.2074 -1.6564 -2.0372
  255MOL0     H35130   7.278   1.734   5.218  1.0914  0.6603  0.6848
  255MOL0     H35131   7.299   1.998   5.356 -0.9589 -0.7267  0.5330
  255MOL0     H35132   7.345   1.984   5.198 -0.1225  1.1707  1.1831
  255MOL0     H35133   7.432   1.803   5.425 -0.3686  2.2661  0.1279
  255MOL0     H35134   7.498   1.771   5.265  1.1564  1.8589 -1.3662
  255MOL0     H35135   7.621   1.914   5.444 -2.0570 -2.2477  0.8096
  255MOL0     H35136   7.525   2.053   5.405  2.3032  0.6738 -0.0059
  255MOL0     H35137   7.609   1.972   5.153 -3.8937  1.9719  1.6821
  255MOL0     H35138   7.662   2.108   5.258 -2.2789  0.2989  0.7228
  255MOL0     H35139   7.898   2.100   5.368  2.0314 -0.0637 -0.7193
  255MOL0     H35140   8.099   1.840   5.544  1.2552  1.2890 -0.1454
  255MOL0     H35141   8.113   2.003   5.482 -0.0786  0.2855  1.2737
  255MOL0     H35142   8.200   1.744   5.321 -0.9640 -0.2530  0.4262
  255MOL0     H35143   8.234   1.911   5.285 -1.5441  0.5668  0.2875
  255MOL0     H35144   8.387   1.944   5.481 -2.3365  1.2671 -1.5564
  255MOL0     H35145   8.341   1.783   5.548 -3.9925  0.8579  1.0062
  255MOL0     H35146   8.440   1.677   5.358 -2.6653  0.3463 -0.6290
  255MOL0     H35147   8.471   1.840   5.279  0.8049 -0.3367  0.7745
  255MOL0     H35148   8.828   1.803   5.542 -1.1745 -0.4210  0.6850
  255MOL0     H35149   9.113   1.642   5.483  0.6586  0.2526  2.5534
  255MOL0     H35150   9.055   1.802   5.559  0.8730 -0.1774  0.3125
  255MOL0     H35151   9.167   1.794   5.425  0.0412  0.6573  0.0488
  255MOL0     H35152   9.358   1.589   5.382 -0.2123 -0.2069  0.1022
  255MOL0     H35153   9.599   1.567   5.332 -1.5868  2.8251  0.9486
  255MOL0     H35154   9.796   1.719   5.268  1.8983 -0.2832  0.2244
  255MOL0     H35155   9.800   1.537   5.281  2.4141 -2.0867 -1.7857
  255MOL0     H35156   9.968   1.671   5.077 -2.7137  1.9841  0.9546
  255MOL0     H35157  10.025   1.682   5.235 -1.2988  1.7810  1.1087
  255MOL0     H35158   9.943   1.423   5.079 -0.6791 -0.0002  2.7799
  255MOL0     H35159  10.002   1.410   5.231  2.1787  1.6110  0.9144
  255MOL0     H35160  10.194   1.549   5.189 -0.8842 -2.4170  2.4346
  255MOL0     H35161  10.179   1.528   5.009  0.1682  0.8048 -0.1168
  255MOL0     H35162  10.230   1.325   5.222 -1.5579  2.0189 -0.4919
  255MOL0     H35163  10.190   1.281   5.055 -0.8301 -1.3106  1.8714
  255MOL0     H35164  10.427   1.428   5.157  0.6169 -0.5006 -0.3438
  255MOL0     H35165  10.390   1.430   4.986 -0.1231 -0.4554 -0.3126
  255MOL0     H35166  10.428   1.196   4.965  3.5608  0.8846 -0.3623
  255MOL0     H35167  10.392   1.160   5.133  0.5002 -0.8167 -0.5367
  255MOL0     H35168  10.648   1.280   5.041  2.9647 -1.0811  2.0887
  255MOL0     H35169  10.619   1.115   5.069 -3.0520 -0.2341 -0.3450
  255MOL0     H35170   9.539   1.662   4.918 -0.2673 -0.3076  0.1437
  255MOL0     H35171   9.296   1.715   4.979  1.1743  0.8328  0.3183
  255MOL0     H35172   8.818   1.675   5.067  2.3246 -3.8215 -0.0956
  255MOL0     H35173   8.621   1.733   5.173 -0.1229 -2.3385 -0.4468
  255MOL0     H35174   6.623   1.751   5.153 -0.4245  1.8936 -2.1300
  255MOL0     H35175   6.376   1.783   5.137  1.9755 -0.1201 -0.5661
  255MOL0     H35176   5.937   1.831   5.057  1.9690  1.9801  0.3779
  255MOL0     H35177   5.708   1.824   5.074 -3.4258 -2.2408  1.8606
  255MOL0     H35178   5.526   1.812   5.498 -0.0001  2.0046  2.0951
  255MOL0     H35179   5.553   1.976   5.456 -1.3276 -0.0890  1.4663
  255MOL0     H35180   5.378   2.014   5.370  0.9666  1.9379  4.8628
  255MOL0     H35181   5.324   1.921   5.510 -0.4292 -1.4205  0.9871
  255MOL0     H35182   5.272   1.821   5.234  0.5921 -0.1261 -0.0381
  255MOL0     H35183   5.303   1.710   5.361  0.3178  1.1123  2.0875
  255MOL0     H35184   5.111   1.801   5.488  2.6604  0.5592  0.6309
  255MOL0     H35185   5.059   1.768   5.324  0.1001 -0.4674  0.7924
  255MOL0     H35186   5.019   2.186   5.388 -1.1366 -0.8462 -0.4141
  255MOL0     H35187   5.738   1.871   5.496 -0.4326 -1.6056 -0.9626
  255MOL0     H35188   6.042   1.819   5.561 -3.2938 -3.1538 -1.1043
  255MOL0     H35189   6.079   1.985   5.507 -0.4022 -0.6706  1.8945
  255MOL0     H35190   5.936   1.955   5.601  1.7947  0.6288  1.4137
  256MOL0     O35191   2.562   1.951   2.259 -0.4541 -1.2390 -0.4862
  256MOL0     C35192   2.603   1.845   2.302 -0.0708  0.0308 -0.6736
  256MOL0     O35193   2.573   1.794   2.417 -0.6667 -0.0027 -0.0153
  256MOL0     C35194   2.452   1.832   2.478  0.2657  0.6431  0.8177
  256MOL0     C35195   2.448   1.942   2.556 -0.1986  0.1327 -0.1662
  256MOL0     C35196   2.330   1.974   2.630  0.5033 -0.0527 -0.1411
  256MOL0     C35197   2.216   1.892   2.623 -0.2054 -0.0220 -0.9611
  256MOL0     O35198   2.102   1.920   2.692 -0.4559  0.1194  0.2146
  256MOL0     C35199   2.024   1.813   2.753 -0.0081 -0.0374 -0.0390
  256MOL0     C35200   1.936   1.898   2.847  0.0977  0.0785  0.2146
  256MOL0     C35201   1.816   1.969   2.772  0.0792 -0.0830  0.0389
  256MOL0     C35202   1.715   2.028   2.866  0.1728 -0.7200  0.1138
  256MOL0     C35203   1.582   2.052   2.786 -0.2053 -0.0683 -0.3575
  256MOL0     C35204   1.473   2.108   2.878  0.6036 -0.8694 -0.3525
  256MOL0     C35205   1.344   2.152   2.809  0.9467 -0.4865  0.3961
  256MOL0     C35206   1.358   2.279   2.730 -0.4839  0.0969 -0.1598
  256MOL0     N35207   1.238   2.316   2.655  0.0623 -0.0825  1.0274
  256MOL0     C35208   1.185   2.246   2.545 -0.0271 -0.4347 -0.3493
  256MOL0     C35209   1.067   2.303   2.518 -0.3529  0.3431 -0.0541
  256MOL0     C35210   0.969   2.279   2.409  0.0449  0.0436 -0.1996
  256MOL0     C35211   1.006   2.340   2.270 -0.1998 -0.1615  0.3102
  256MOL0     C35212   0.883   2.330   2.175  1.3231 -0.3201 -0.0655
  256MOL0     C35213   0.913   2.408   2.049 -0.5175  0.5026  0.3160
  256MOL0     O35214   1.019   2.344   1.985 -0.7401 -0.1066  0.4699
  256MOL0     C35215   1.087   2.403   1.879 -0.0588  0.2875 -0.1029
  256MOL0     C35216   1.175   2.324   1.805 -0.5286  0.6933  0.0865
  256MOL0     C35217   1.265   2.378   1.711  0.2763 -0.1555  0.0686
  256MOL0     C35218   1.369   2.282   1.659 -0.6092 -0.0263  0.7746
  256MOL0     C35219   1.251   2.518   1.674  0.3361  1.0164 -0.2965
  256MOL0     C35220   1.336   2.570   1.560 -1.0447  0.7013  0.4999
  256MOL0     O35221   1.407   2.687   1.584 -0.1739  0.2012  0.0935
  256MOL0     C35222   1.432   2.735   1.715  0.6635  0.3949 -0.4429
  256MOL0     C35223   1.499   2.656   1.812  0.4611 -0.3514 -0.3145
  256MOL0     C35224   1.514   2.713   1.940 -0.1220 -0.1170 -0.4162
  256MOL0     C35225   1.460   2.842   1.975  0.0149  0.2042 -0.0601
  256MOL0     O35226   1.467   2.873   2.109 -0.5962  0.2256 -0.2937
  256MOL0     C35227   1.391   2.983   2.147 -0.3799 -0.2678 -0.3049
  256MOL0     C35228   1.412   2.992   2.302  0.9330 -1.0648  0.1206
  256MOL0     C35229   1.356   3.134   2.344 -0.1106 -0.6082  0.5698
  256MOL0     C35230   1.204   3.155   2.332 -0.1486  0.2848 -0.1132
  256MOL0     C35231   1.161   3.278   2.410  0.1139  0.6252 -0.0092
  256MOL0     C35232   1.009   3.303   2.410 -0.7028  0.1286  0.5205
  256MOL0     C35233   0.965   3.368   2.277  0.7658 -0.0433 -0.4182
  256MOL0     C35234   0.818   3.377   2.249  0.1934 -0.5051  0.0058
  256MOL0    Cl35235   0.745   3.496   2.364 -0.6990  0.6507 -0.1379
  256MOL0     C35236   1.377   2.903   1.873 -0.5569  0.7383  0.6361
  256MOL0     C35237   1.376   2.855   1.748  0.8416 -0.4382  0.0495
  256MOL0     O35238   1.328   2.510   1.447  0.2236 -0.4778 -0.3408
  256MOL0     C35239   1.148   2.594   1.724 -0.0613 -0.3240  0.2075
  256MOL0     C35240   1.066   2.540   1.831 -0.3989  0.5862  0.2523
  256MOL0     N35241   1.038   2.386   2.626  0.0337  1.0879 -0.6471
  256MOL0     N35242   1.147   2.404   2.703  0.5193 -0.2937  0.0893
  256MOL0     C35243   2.225   1.773   2.544  0.4110  0.6868  1.2351
  256MOL0     C35244   2.339   1.749   2.470 -0.1448  0.6144  0.1941
  256MOL0     C35245   2.684   1.753   2.225 -0.3742  0.1394  0.8598
  256MOL0     C35246   2.652   1.617   2.222 -0.5220 -1.0775  0.2992
  256MOL0     C35247   2.713   1.521   2.148 -1.6438  0.1205 -0.0381
  256MOL0     C35248   2.816   1.557   2.057 -0.2424 -0.5269  0.8425
  256MOL0     O35249   2.893   1.475   1.973 -0.4693 -0.3784 -0.6659
  256MOL0     C35250   2.844   1.338   1.972  1.1530 -0.1796  0.1581
  256MOL0     C35251   2.936   1.240   1.898  0.2538 -0.1100 -0.1914
  256MOL0     C35252   2.961   1.271   1.757  1.0507 -0.4389 -0.1881
  256MOL0     C35253   3.064   1.176   1.699 -0.3742 -0.3543 -0.0856
  256MOL0     C35254   3.027   1.123   1.566 -0.0808  0.4857  0.3940
  256MOL0     C35255   3.000   1.085   1.450 -0.7733 -0.6288  0.4940
  256MOL0     C35256   2.841   1.694   2.050  0.0220 -0.6332  0.7251
  256MOL0     C35257   2.781   1.787   2.127 -1.0798 -0.2389 -0.6678
  256MOL0     C35258   2.865   1.923   2.129  0.2797  0.3340  0.7613
  256MOL0     H35259   2.537   2.004   2.556  0.3920 -0.6979 -0.0027
  256MOL0     H35260   2.329   2.067   2.686 -0.3640 -1.5145  2.4640
  256MOL0     H35261   2.090   1.748   2.810  1.0918 -0.2616 -1.5275
  256MOL0     H35262   1.960   1.757   2.684 -1.4051  0.4234  0.8237
  256MOL0     H35263   1.881   1.830   2.913 -4.1556 -0.2478 -3.2152
  256MOL0     H35264   1.987   1.982   2.896  0.7420 -1.6261  2.6874
  256MOL0     H35265   1.848   2.047   2.703  1.3503 -0.7711 -0.1799
  256MOL0     H35266   1.774   1.886   2.714 -2.3064  0.9631  0.1489
  256MOL0     H35267   1.702   1.956   2.947  1.8033 -2.5738 -1.1859
  256MOL0     H35268   1.748   2.121   2.912  0.5640  0.2550 -2.0205
  256MOL0     H35269   1.561   1.961   2.729 -0.3930  0.5563 -1.3086
  256MOL0     H35270   1.602   2.141   2.725 -1.4683  1.2404  1.0504
  256MOL0     H35271   1.456   2.040   2.962  0.6524  0.0859  0.4547
  256MOL0     H35272   1.507   2.197   2.932 -0.7414 -0.4965 -0.0971
  256MOL0     H35273   1.258   2.173   2.875 -1.8493 -3.1054 -2.0887
  256MOL0     H35274   1.303   2.076   2.742  0.2090  1.0517 -0.9598
  256MOL0     H35275   1.391   2.360   2.796  3.6130  0.5050 -2.3233
  256MOL0     H35276   1.438   2.282   2.655  0.1122  0.4397  0.4778
  256MOL0     H35277   1.234   2.165   2.492  0.4408  1.0521 -2.3172
  256MOL0     H35278   0.877   2.322   2.452  0.3308  2.0473 -1.4917
  256MOL0     H35279   0.963   2.172   2.388 -0.2940  0.4233 -2.2054
  256MOL0     H35280   1.020   2.448   2.280  2.0462 -0.3778  0.0252
  256MOL0     H35281   1.095   2.294   2.228 -1.1545 -1.6865 -0.1242
  256MOL0     H35282   0.864   2.226   2.147  0.9978  0.1293 -1.6107
  256MOL0     H35283   0.789   2.367   2.218  0.3102 -0.8630 -1.7049
  256MOL0     H35284   0.825   2.412   1.984 -0.5254  2.3069  0.3825
  256MOL0     H35285   0.940   2.512   2.071 -3.4075  1.9458 -2.0985
  256MOL0     H35286   1.187   2.219   1.830  0.7207  1.0781  1.2166
  256MOL0     H35287   1.445   2.322   1.591 -0.5299  2.2540  2.1177
  256MOL0     H35288   1.318   2.193   1.620  2.9594 -2.9837  2.2678
  256MOL0     H35289   1.428   2.225   1.732 -1.2700 -5.9772 -2.6851
  256MOL0     H35290   1.547   2.562   1.785  0.6085  0.0942 -1.7090
  256MOL0     H35291   1.572   2.663   2.017 -0.3178  1.4258  0.7767
  256MOL0     H35292   1.434   3.065   2.088  1.1306 -2.1616 -1.9815
  256MOL0     H35293   1.291   2.960   2.110 -1.1502  2.0503  0.1929
  256MOL0     H35294   1.363   2.914   2.361 -0.3123  1.6815  3.0084
  256MOL0     H35295   1.519   2.986   2.319  0.5152 -1.7375  2.9995
  256MOL0     H35296   1.399   3.215   2.284 -0.1034  0.0528  1.4503
  256MOL0     H35297   1.393   3.139   2.446  0.2042  1.7756  0.3924
  256MOL0     H35298   1.163   3.063   2.377  4.6010 -0.6206  3.2005
  256MOL0     H35299   1.179   3.159   2.226 -1.8018 -1.9015  0.1222
  256MOL0     H35300   1.187   3.272   2.516 -4.3175 -0.1534  1.2233
  256MOL0     H35301   1.211   3.364   2.364  0.2403  0.7555  0.3763
  256MOL0     H35302   0.981   3.374   2.488  1.4873 -1.4629  2.9492
  256MOL0     H35303   0.957   3.207   2.423  1.7191 -1.7627 -2.4324
  256MOL0     H35304   1.004   3.297   2.203  1.2924 -1.4787  1.1646
  256MOL0     H35305   1.015   3.463   2.256 -2.2785  1.8618  0.4239
  256MOL0     H35306   0.772   3.280   2.266  1.2084 -0.8556  0.8899
  256MOL0     H35307   0.807   3.406   2.144  4.3241 -1.5775 -0.9230
  256MOL0     H35308   1.317   2.993   1.880 -1.4192  0.1999  0.3589
  256MOL0     H35309   1.324   2.912   1.672  0.7935  1.5196  1.4812
  256MOL0     H35310   1.137   2.698   1.696  0.0476 -0.1171  0.8984
  256MOL0     H35311   0.984   2.603   1.864 -0.5850 -0.1833  1.3248
  256MOL0     H35312   2.128   1.725   2.530 -0.8618  3.8729 -4.6005
  256MOL0     H35313   2.335   1.663   2.404  0.9624  2.1253 -1.9588
  256MOL0     H35314   2.574   1.585   2.291 -0.8279  2.3312  1.7578
  256MOL0     H35315   2.669   1.423   2.164  0.1825 -0.4134  2.3605
  256MOL0     H35316   2.841   1.302   2.075 -1.9537 -1.8108 -0.3977
  256MOL0     H35317   2.744   1.354   1.932  1.0819  1.5353  0.9216
  256MOL0     H35318   2.895   1.139   1.910  0.3510 -0.4948 -2.6113
  256MOL0     H35319   3.026   1.243   1.961  0.9582 -0.2533 -1.1687
  256MOL0     H35320   2.866   1.240   1.713  0.2490 -0.3377  1.4095
  256MOL0     H35321   2.962   1.380   1.748 -1.5020 -0.1936  1.5141
  256MOL0     H35322   3.094   1.096   1.767  2.6027 -1.4846 -2.5158
  256MOL0     H35323   3.160   1.224   1.680 -0.8938  0.0412 -1.8953
  256MOL0     H35324   2.984   1.060   1.347  0.2583  1.6667 -0.2947
  256MOL0     H35325   2.910   1.708   1.967  0.9428 -1.7328  1.2742
  256MOL0     H35326   2.880   1.967   2.030 -0.3785 -1.0533  0.0110
  256MOL0     H35327   2.812   1.993   2.194 -2.5211 -0.1505 -0.8442
  256MOL0     H35328   2.966   1.899   2.162  1.4147  2.1758 -1.1491
  257MOL0     O35329   0.112   7.599   2.642 -0.3802  0.0379 -0.0517
  257MOL0     C35330   0.113   7.573   2.518 -0.0731 -0.3958 -0.6186
  257MOL0     O35331   0.208   7.508   2.448  0.2971 -0.6130  0.1625
  257MOL0     C35332   0.319   7.457   2.508 -0.7057 -0.1218 -0.0196
  257MOL0     C35333   0.361   7.331   2.464  0.0764  0.0777 -0.7671
  257MOL0     C35334   0.477   7.273   2.513  0.1116  0.0447  0.1100
  257MOL0     C35335   0.547   7.329   2.615 -0.0140 -0.7894 -0.1281
  257MOL0     O35336   0.663   7.264   2.660 -0.7467 -0.2699 -0.5261
  257MOL0     C35337   0.772   7.344   2.710  0.1967  0.1545 -0.4981
  257MOL0     C35338   0.899   7.252   2.688  0.5178 -0.2565 -0.2056
  257MOL0     C35339   0.926   7.211   2.536 -0.6136  0.4032 -1.1272
  257MOL0     C35340   0.988   7.324   2.463  0.3864 -0.2128 -1.4653
  257MOL0     C35341   1.142   7.327   2.470  0.0150  0.4917  0.0423
  257MOL0     C35342   1.194   7.335   2.319  0.4896  0.3167 -0.8110
  257MOL0     C35343   1.334   7.398   2.308 -0.0070  0.6373 -0.0935
  257MOL0     C35344   1.448   7.320   2.370  0.2661 -0.0628 -0.0678
  257MOL0     N35345   1.577   7.364   2.328 -0.3746 -0.0856  0.2000
  257MOL0     C35346   1.687   7.286   2.350 -0.0508 -0.0481 -0.8430
  257MOL0     C35347   1.775   7.324   2.253 -0.3981  0.6329  0.3531
  257MOL0     C35348   1.895   7.254   2.199 -0.6375  0.0876 -0.4394
  257MOL0     C35349   2.023   7.304   2.270 -0.4461  0.7081 -0.4754
  257MOL0     C35350   2.032   7.317   2.424 -0.1182  0.1342 -0.3547
  257MOL0     C35351   2.023   7.181   2.491  0.0446 -0.0225  0.0345
  257MOL0     O35352   2.102   7.088   2.422 -0.4461  0.0668  0.0876
  257MOL0     C35353   2.227   7.053   2.467 -0.0081 -0.0200 -1.1456
  257MOL0     C35354   2.293   6.961   2.387 -0.9706  0.3790  0.1665
  257MOL0     C35355   2.424   6.913   2.410  0.5281  1.0028 -0.3570
  257MOL0     C35356   2.494   6.845   2.300  0.2385  0.7830 -0.8469
  257MOL0     C35357   2.494   6.968   2.519  0.0452 -0.1549 -0.1400
  257MOL0     C35358   2.633   6.920   2.562  0.0266 -0.0697 -0.4694
  257MOL0     O35359   2.677   6.806   2.509  0.9181 -0.5924  0.0467
  257MOL0     C35360   2.807   6.767   2.507 -1.2784  0.3998 -0.3669
  257MOL0     C35361   2.833   6.629   2.514 -1.3070  0.2636  0.2251
  257MOL0     C35362   2.963   6.582   2.489 -0.7168 -0.4436 -0.5463
  257MOL0     C35363   3.073   6.669   2.502  0.2860 -0.4997  0.1501
  257MOL0     O35364   3.191   6.608   2.476 -1.4515  0.1977  0.6209
  257MOL0     C35365   3.313   6.681   2.451  0.5727  0.3091 -0.5677
  257MOL0     C35366   3.436   6.602   2.488 -0.7940  0.5264 -0.0142
  257MOL0     C35367   3.565   6.675   2.453  0.8223 -0.2530 -1.0604
  257MOL0     C35368   3.693   6.598   2.499  0.2466 -2.0250 -0.5546
  257MOL0     C35369   3.810   6.682   2.527 -0.0757  0.2475 -0.7617
  257MOL0     C35370   3.923   6.614   2.602 -0.0897  0.0270  0.5290
  257MOL0     C35371   4.035   6.716   2.635 -0.0537 -0.2706  0.2540
  257MOL0     C35372   4.144   6.647   2.691 -0.4577  0.2065 -1.0550
  257MOL0    Cl35373   4.115   6.631   2.873  0.2548 -0.1024 -0.1067
  257MOL0     C35374   3.051   6.807   2.514 -0.6415 -0.3827 -0.3103
  257MOL0     C35375   2.917   6.859   2.518  0.8444  0.2356  0.1770
  257MOL0     O35376   2.690   6.978   2.655  0.2244 -0.1699  0.2094
  257MOL0     C35377   2.423   7.055   2.607 -1.4921  0.4832 -0.1264
  257MOL0     C35378   2.301   7.103   2.579 -0.4456  0.5902  0.8847
  257MOL0     N35379   1.724   7.454   2.209  0.4962 -0.0096  0.1860
  257MOL0     N35380   1.604   7.467   2.247  0.8868 -0.1992  0.7121
  257MOL0     C35381   0.510   7.453   2.665 -0.5733 -0.3375  0.4360
  257MOL0     C35382   0.392   7.520   2.614 -0.4043  0.4566 -0.5056
  257MOL0     C35383  -0.011   7.605   2.444 -0.0824 -0.5283 -0.7640
  257MOL0     C35384  -0.100   7.709   2.507  0.6763  0.6475  0.5965
  257MOL0     C35385  -0.222   7.731   2.451  0.3634 -0.3679 -0.4116
  257MOL0     C35386  -0.265   7.667   2.345  0.5522 -0.1021 -0.2531
  257MOL0     O35387  -0.399   7.687   2.328  0.1849  0.4862 -0.2375
  257MOL0     C35388  -0.484   7.624   2.226 -0.3122  0.6377 -0.5971
  257MOL0     C35389  -0.611   7.581   2.283  0.3353  0.5406 -0.7410
  257MOL0     C35390  -0.598   7.484   2.408  0.1593 -0.1424 -0.0550
  257MOL0     C35391  -0.738   7.430   2.447  0.3319 -0.3377  0.4607
  257MOL0     C35392  -0.727   7.299   2.507  0.1065 -0.1088  0.4436
  257MOL0     C35393  -0.713   7.194   2.567  0.0130 -0.0397  0.1667
  257MOL0     C35394  -0.181   7.581   2.274  0.0414 -0.4538  0.3120
  257MOL0     C35395  -0.061   7.545   2.322 -0.4999  0.3542 -0.0738
  257MOL0     C35396   0.014   7.436   2.242 -0.0001  0.5295 -0.2308
  257MOL0     H35397   0.309   7.279   2.384  0.7755  0.3695 -1.4224
  257MOL0     H35398   0.516   7.182   2.469  0.5229 -0.0998  0.7616
  257MOL0     H35399   0.751   7.359   2.816  1.7274  0.0939 -0.1621
  257MOL0     H35400   0.776   7.447   2.672 -0.6256  0.9566  1.4519
  257MOL0     H35401   0.991   7.297   2.726  0.5058  0.0618 -0.5488
  257MOL0     H35402   0.886   7.159   2.745 -0.0838 -0.5034 -0.7300
  257MOL0     H35403   1.004   7.135   2.528  0.9647  1.9660 -1.1700
  257MOL0     H35404   0.834   7.174   2.489 -0.3912  0.3667 -1.5409
  257MOL0     H35405   0.950   7.316   2.361 -1.1020 -1.5510 -0.8523
  257MOL0     H35406   0.956   7.421   2.504 -2.1050 -1.9001  1.0044
  257MOL0     H35407   1.191   7.240   2.514  1.8428  2.4898  2.1956
  257MOL0     H35408   1.178   7.411   2.530  2.0757  0.0558 -0.4975
  257MOL0     H35409   1.196   7.238   2.268 -0.2041 -0.3139  0.3145
  257MOL0     H35410   1.125   7.398   2.261  1.2771  3.7124  1.6473
  257MOL0     H35411   1.334   7.493   2.363  0.0680 -0.3445  1.7072
  257MOL0     H35412   1.347   7.422   2.203  0.7587  2.3013  0.3427
  257MOL0     H35413   1.415   7.345   2.472  0.8601 -0.0527  0.1271
  257MOL0     H35414   1.428   7.215   2.349  0.3396 -0.6720  2.5073
  257MOL0     H35415   1.687   7.192   2.404  1.5767  2.1571  3.5068
  257MOL0     H35416   1.893   7.280   2.093 -2.3637  2.4435  0.0557
  257MOL0     H35417   1.894   7.147   2.218  1.4130 -0.0211 -0.8217
  257MOL0     H35418   2.106   7.242   2.234 -2.1493 -2.2017  0.3007
  257MOL0     H35419   2.031   7.405   2.227  0.3389  0.1888 -1.5917
  257MOL0     H35420   2.126   7.366   2.452  0.5691 -0.3535 -1.7047
  257MOL0     H35421   1.952   7.379   2.466  0.4113  0.4615  0.1871
  257MOL0     H35422   2.046   7.198   2.597  2.3750 -1.9884 -0.0670
  257MOL0     H35423   1.921   7.144   2.479  0.3902 -0.5165 -1.6597
  257MOL0     H35424   2.252   6.936   2.290 -3.5001 -0.5365  1.3858
  257MOL0     H35425   2.455   6.862   2.199  1.2335  0.1927 -1.3456
  257MOL0     H35426   2.517   6.742   2.327  2.1320  1.8045  1.8880
  257MOL0     H35427   2.589   6.900   2.294  0.6750  0.1995  0.3698
  257MOL0     H35428   2.755   6.554   2.507  0.4662 -1.5122 -2.6505
  257MOL0     H35429   2.995   6.478   2.481 -2.0091 -0.7545 -2.3338
  257MOL0     H35430   3.318   6.714   2.347 -3.1134  3.2940 -0.0254
  257MOL0     H35431   3.306   6.772   2.511 -0.3855 -0.9605  1.3408
  257MOL0     H35432   3.430   6.590   2.597  2.0810 -2.0679  0.0108
  257MOL0     H35433   3.419   6.501   2.450 -1.6697  0.3501  0.7881
  257MOL0     H35434   3.557   6.774   2.500  1.1384  0.7536 -3.0077
  257MOL0     H35435   3.565   6.686   2.344 -1.4926 -1.8980 -1.3044
  257MOL0     H35436   3.729   6.534   2.418  1.0078 -1.5825 -0.5745
  257MOL0     H35437   3.668   6.536   2.585 -1.0885 -1.3025 -0.3926
  257MOL0     H35438   3.858   6.714   2.434 -0.4342  3.6414  0.0931
  257MOL0     H35439   3.782   6.778   2.572  1.2132 -0.0067  0.6749
  257MOL0     H35440   3.973   6.552   2.527 -0.1473 -0.9871  1.3035
  257MOL0     H35441   3.900   6.559   2.694 -0.9362 -0.0842  0.2628
  257MOL0     H35442   4.000   6.793   2.705 -1.4427 -0.4140 -0.2407
  257MOL0     H35443   4.069   6.763   2.542  0.4249 -1.2143 -0.0638
  257MOL0     H35444   4.236   6.702   2.667 -0.0269 -0.6043 -1.3065
  257MOL0     H35445   4.146   6.545   2.652  1.5630 -0.4176  0.4810
  257MOL0     H35446   3.133   6.878   2.506 -0.4303 -0.5352  0.3980
  257MOL0     H35447   2.904   6.967   2.511 -2.0567 -0.1323 -2.5042
  257MOL0     H35448   2.476   7.095   2.693 -4.2560 -0.9137  2.4178
  257MOL0     H35449   2.256   7.181   2.640 -2.8092 -1.2158  1.6188
  257MOL0     H35450   0.554   7.507   2.748 -0.7479  0.3370  0.0996
  257MOL0     H35451   0.352   7.610   2.659  0.0829  0.9607 -1.0652
  257MOL0     H35452  -0.074   7.772   2.592 -0.1387  2.0649 -0.1568
  257MOL0     H35453  -0.287   7.804   2.498  0.2003 -0.7279 -0.0721
  257MOL0     H35454  -0.487   7.700   2.146  1.5767  1.9254  0.4708
  257MOL0     H35455  -0.438   7.534   2.184 -0.2989  1.1355 -1.6981
  257MOL0     H35456  -0.669   7.535   2.202 -0.1051  1.3771 -0.9097
  257MOL0     H35457  -0.665   7.668   2.323  0.8995  0.6569 -0.2157
  257MOL0     H35458  -0.521   7.407   2.397  0.1495 -0.2667  0.6471
  257MOL0     H35459  -0.561   7.543   2.492 -1.9047  0.7816  0.2843
  257MOL0     H35460  -0.800   7.446   2.359 -0.2105  0.7850  1.0271
  257MOL0     H35461  -0.789   7.499   2.515  1.2501  0.2846  0.5507
  257MOL0     H35462  -0.704   7.094   2.607 -1.3572 -0.7304 -1.1700
  257MOL0     H35463  -0.219   7.526   2.188 -2.7135  2.5988 -0.6179
  257MOL0     H35464  -0.046   7.407   2.156  0.7575  1.0193 -0.9357
  257MOL0     H35465   0.106   7.480   2.203  0.4542  0.8482  1.1399
  257MOL0     H35466   0.039   7.352   2.308  1.3938  2.6714  2.1313
  258MOL0     O35467   4.752   2.893  10.770  0.2525  0.5485 -0.5792
  258MOL0     C35468   4.718   2.812  10.681  0.4232 -0.4689 -0.0828
  258MOL0     O35469   4.800   2.747  10.597 -0.5938 -0.2768  0.1145
  258MOL0     C35470   4.936   2.767  10.584 -0.2198  0.2251  0.0458
  258MOL0     C35471   4.996   2.681  10.502 -0.4760 -0.5904  0.0312
  258MOL0     C35472   5.132   2.666  10.485  0.4953 -1.1252  0.7622
  258MOL0     C35473   5.218   2.771  10.535  0.2041  0.4037  0.2758
  258MOL0     O35474   5.352   2.778  10.524  0.0612 -0.1431  0.1926
  258MOL0     C35475   5.388   2.735  10.389  0.9891 -0.9472 -0.1808
  258MOL0     C35476   5.516   2.799  10.372 -0.7324  0.7836  0.2504
  258MOL0     C35477   5.589   2.751  10.244  0.0843 -0.5030 -0.1775
  258MOL0     C35478   5.741   2.762  10.267  0.6679 -0.0380  0.0436
  258MOL0     C35479   5.826   2.757  10.144 -0.6239 -0.7203  0.3979
  258MOL0     C35480   5.962   2.705  10.181  0.6152  0.4453 -0.6881
  258MOL0     C35481   6.053   2.717  10.056  0.5902  0.4570  0.1299
  258MOL0     C35482   6.173   2.627  10.076 -0.2077 -0.3835 -0.0681
  258MOL0     N35483   6.257   2.654  10.199 -0.5858 -0.2649  0.0742
  258MOL0     C35484   6.285   2.778  10.256  1.4033  0.1323 -0.3631
  258MOL0     C35485   6.362   2.755  10.365 -0.3998 -0.6292 -0.5291
  258MOL0     C35486   6.417   2.842  10.470 -0.1844 -0.1040  1.1540
  258MOL0     C35487   6.580   2.869  10.443  0.8649 -0.0311 -0.3045
  258MOL0     C35488   6.680   2.750  10.468  0.0902  0.3891  0.2309
  258MOL0     C35489   6.820   2.790  10.409  0.2144 -0.5699 -0.2052
  258MOL0     O35490   6.913   2.693  10.464 -0.7467  0.1805 -0.2518
  258MOL0     C35491   7.047   2.701  10.438 -0.1392  0.0150 -0.0402
  258MOL0     C35492   7.110   2.787  10.347  0.2364 -0.6352  0.7187
  258MOL0     C35493   7.241   2.769  10.307 -0.4867 -0.3509 -0.2159
  258MOL0     C35494   7.288   2.859  10.197 -0.0215 -0.0343  1.0509
  258MOL0     C35495   7.321   2.672  10.368 -0.2964  0.2239  0.3438
  258MOL0     C35496   7.470   2.670  10.354  0.4399  0.6378  0.7292
  258MOL0     O35497   7.538   2.558  10.396  0.1365 -0.2101  0.0757
  258MOL0     C35498   7.672   2.558  10.371 -0.5944 -0.2474 -0.7434
  258MOL0     C35499   7.724   2.564  10.238  0.2936 -0.1822  0.0427
  258MOL0     C35500   7.854   2.526  10.214  0.0452  0.2143 -0.3543
  258MOL0     C35501   7.943   2.506  10.325 -0.0512  0.8819  0.7581
  258MOL0     O35502   8.080   2.483  10.296  0.0540  0.3335  0.0575
  258MOL0     C35503   8.157   2.413  10.395  0.4250 -0.0930 -0.1062
  258MOL0     C35504   8.237   2.299  10.324  0.4409 -0.0541 -0.6777
  258MOL0     C35505   8.148   2.232  10.223 -0.2703  0.7354  0.1107
  258MOL0     C35506   8.217   2.100  10.175  0.5917 -0.4670 -0.3301
  258MOL0     C35507   8.354   2.129  10.099  1.0848  0.3151 -0.0787
  258MOL0     C35508   8.382   2.006  10.019 -0.1633 -0.2341  0.6687
  258MOL0     C35509   8.504   2.034   9.937  0.7310  0.1698 -0.2342
  258MOL0     C35510   8.627   2.023  10.022 -0.5698  0.8616 -0.0793
  258MOL0    Cl35511   8.771   2.050   9.935 -0.0849  0.1456  0.2288
  258MOL0     C35512   7.886   2.512  10.456  0.7170 -0.3752 -0.1367
  258MOL0     C35513   7.757   2.530  10.477  0.3881  0.2634  0.1118
  258MOL0     O35514   7.529   2.771  10.320 -0.2055  0.2895  0.6962
  258MOL0     C35515   7.256   2.585  10.458  0.6212  0.6150  0.0344
  258MOL0     C35516   7.122   2.594  10.492  0.3713 -0.2306 -0.0125
  258MOL0     N35517   6.397   2.622  10.362 -0.0593  0.8758 -0.0342
  258MOL0     N35518   6.334   2.562  10.267 -0.4970 -0.3244  0.7393
  258MOL0     C35519   5.162   2.853  10.634  0.2792  0.1634 -0.7748
  258MOL0     C35520   5.026   2.846  10.664 -0.3398  0.2113  0.2954
  258MOL0     C35521   4.575   2.761  10.675  0.2022  0.8859 -0.4754
  258MOL0     C35522   4.544   2.624  10.661  0.3562 -0.9110 -0.6936
  258MOL0     C35523   4.415   2.566  10.665  0.1664 -0.6513 -0.3633
  258MOL0     C35524   4.309   2.654  10.677 -1.1167  0.7978 -0.3254
  258MOL0     O35525   4.177   2.620  10.672  0.0628 -0.2675  1.1519
  258MOL0     C35526   4.163   2.477  10.669  0.1726 -0.2526  0.1466
  258MOL0     C35527   4.018   2.434  10.680 -0.4316 -0.1966  0.1613
  258MOL0     C35528   3.956   2.489  10.812 -0.2586  0.2587 -0.2263
  258MOL0     C35529   3.817   2.438  10.826  0.3222 -0.0952 -0.6121
  258MOL0     C35530   3.757   2.479  10.954  0.6345 -0.0618 -0.5946
  258MOL0     C35531   3.711   2.488  11.067  0.0243 -0.0329 -0.4554
  258MOL0     C35532   4.333   2.786  10.695  0.3340  0.7516 -0.8310
  258MOL0     C35533   4.466   2.841  10.692  0.2249  0.4773 -0.5377
  258MOL0     C35534   4.478   2.985  10.726  0.0120  0.9930 -0.6418
  258MOL0     H35535   4.931   2.609  10.453  2.0707 -2.5128 -0.7058
  258MOL0     H35536   5.168   2.597  10.409 -1.7728  0.4629 -1.9508
  258MOL0     H35537   5.318   2.763  10.310  0.7051 -2.0317 -0.3325
  258MOL0     H35538   5.399   2.626  10.389  1.8139 -0.8790  0.4443
  258MOL0     H35539   5.514   2.909  10.375 -0.1877  0.7859  2.1681
  258MOL0     H35540   5.584   2.776  10.455 -0.0325 -3.1073 -1.2206
  258MOL0     H35541   5.564   2.648  10.220 -1.4359  0.1277 -1.4537
  258MOL0     H35542   5.556   2.814  10.160  0.2729  1.1628  0.9598
  258MOL0     H35543   5.771   2.848  10.327 -2.4551  1.3358 -0.1702
  258MOL0     H35544   5.761   2.670  10.321 -0.6899 -0.2562  0.2130
  258MOL0     H35545   5.827   2.854  10.094  2.7849  1.0005  3.3357
  258MOL0     H35546   5.783   2.685  10.073  0.6408 -0.0111 -1.1324
  258MOL0     H35547   6.011   2.758  10.264 -0.3846  1.9927 -1.0348
  258MOL0     H35548   5.946   2.604  10.219 -1.7395  0.2137 -2.0842
  258MOL0     H35549   6.082   2.820  10.031  4.4847 -1.2940 -3.9964
  258MOL0     H35550   6.001   2.681   9.967  0.6007 -1.7867  0.9764
  258MOL0     H35551   6.144   2.521  10.069 -0.8886 -0.5324  3.4390
  258MOL0     H35552   6.247   2.645   9.997  0.3780 -0.0596  0.5541
  258MOL0     H35553   6.241   2.865  10.208 -0.4260 -2.0480 -3.0481
  258MOL0     H35554   6.396   2.799  10.568 -1.7060 -1.3461  0.3269
  258MOL0     H35555   6.379   2.945  10.460 -0.9724 -0.4548  0.4442
  258MOL0     H35556   6.593   2.912  10.343  0.6436 -0.0509 -0.3429
  258MOL0     H35557   6.610   2.949  10.511 -0.7949  0.6399 -0.3287
  258MOL0     H35558   6.684   2.730  10.575  0.0518 -0.4115  0.0893
  258MOL0     H35559   6.661   2.658  10.413  1.5366 -0.0470  0.4036
  258MOL0     H35560   6.818   2.802  10.300  0.3459  0.4840 -0.0934
  258MOL0     H35561   6.847   2.890  10.442  0.6175 -0.4252 -0.9522
  258MOL0     H35562   7.067   2.876  10.302  2.5808  0.8282  1.1536
  258MOL0     H35563   7.334   2.950  10.236 -1.1632  1.6815 -1.3409
  258MOL0     H35564   7.206   2.898  10.136  0.7239 -0.5418 -0.3199
  258MOL0     H35565   7.351   2.810  10.122  1.9261  2.0971  1.2066
  258MOL0     H35566   7.662   2.593  10.153  1.0291  1.1006 -0.0839
  258MOL0     H35567   7.885   2.493  10.116  0.8423 -0.8978  0.2498
  258MOL0     H35568   8.230   2.471  10.453  3.1688 -1.1016 -2.3256
  258MOL0     H35569   8.095   2.354  10.463  1.1967 -1.2619 -0.4071
  258MOL0     H35570   8.327   2.343  10.282 -0.2972  1.1869 -1.0077
  258MOL0     H35571   8.266   2.219  10.392 -0.1751  0.2061 -0.0904
  258MOL0     H35572   8.150   2.301  10.138  1.0275 -1.2850 -1.5759
  258MOL0     H35573   8.048   2.211  10.263  0.0141  0.6527  0.7932
  258MOL0     H35574   8.149   2.049  10.106  0.4294  0.8384 -1.1790
  258MOL0     H35575   8.234   2.041  10.265 -1.1361  0.0912  0.4021
  258MOL0     H35576   8.343   2.206  10.022  1.8684 -1.6351 -2.2428
  258MOL0     H35577   8.429   2.153  10.175  3.3505  0.9878 -2.3878
  258MOL0     H35578   8.299   1.986   9.951  0.3760 -0.0808 -0.0424
  258MOL0     H35579   8.389   1.916  10.080 -0.0505 -0.2028  0.7025
  258MOL0     H35580   8.500   2.138   9.905  3.6715  0.0805 -1.1649
  258MOL0     H35581   8.513   1.970   9.849  1.2228 -0.5010  0.2834
  258MOL0     H35582   8.632   1.926  10.070 -1.1041  1.4413  1.1843
  258MOL0     H35583   8.627   2.095  10.104  0.2288  2.2226 -1.2211
  258MOL0     H35584   7.959   2.507  10.536 -1.1668  2.1023  1.9488
  258MOL0     H35585   7.728   2.507  10.580  0.1920 -2.1795 -0.4260
  258MOL0     H35586   7.316   2.511  10.511 -0.1242 -0.2731 -0.3481
  258MOL0     H35587   7.074   2.526  10.561 -0.8162 -0.6142 -1.1706
  258MOL0     H35588   5.223   2.927  10.687 -1.3547 -0.2164  1.8363
  258MOL0     H35589   4.980   2.901  10.745 -0.5497 -0.7260  0.8245
  258MOL0     H35590   4.629   2.557  10.655  1.7429  0.8235 -1.3728
  258MOL0     H35591   4.398   2.464  10.632  0.6391 -0.0531 -2.6263
  258MOL0     H35592   4.189   2.445  10.568  1.0323  0.9925 -0.0563
  258MOL0     H35593   4.223   2.427  10.746  0.8678 -1.5203 -1.1772
  258MOL0     H35594   4.016   2.325  10.688  1.6219 -0.4018 -1.3373
  258MOL0     H35595   3.974   2.471  10.588  0.5148 -0.9229 -0.6014
  258MOL0     H35596   4.017   2.457  10.898 -0.0870 -1.4142 -0.9323
  258MOL0     H35597   3.963   2.598  10.805  1.1242  0.1400 -6.5890
  258MOL0     H35598   3.819   2.328  10.828  1.3844 -0.1612  3.1613
  258MOL0     H35599   3.756   2.458  10.738 -0.7836 -0.8057 -0.0307
  258MOL0     H35600   3.663   2.493  11.162  1.0736 -0.2910  0.1085
  258MOL0     H35601   4.240   2.841  10.704 -0.7379 -1.0280 -0.7215
  258MOL0     H35602   4.540   2.998  10.816  0.5120 -2.2624 -0.4100
  258MOL0     H35603   4.523   3.034  10.639 -0.5622  1.2267 -0.8119
  258MOL0     H35604   4.383   3.038  10.737  1.3167  3.2154  0.7785
  259MOL0     O35605   5.963   7.547   1.341 -0.8164 -0.2702 -0.3666
  259MOL0     C35606   5.937   7.453   1.266  0.9248 -0.2848  0.5176
  259MOL0     O35607   6.031   7.364   1.211  0.3368 -0.4374  0.1367
  259MOL0     C35608   6.167   7.365   1.249  0.0616 -0.0564  0.7738
  259MOL0     C35609   6.255   7.332   1.146 -0.1390  0.2420  0.0691
  259MOL0     C35610   6.389   7.336   1.185 -0.7698  0.7660  0.2874
  259MOL0     C35611   6.439   7.369   1.317  0.4262  0.6021  0.2754
  259MOL0     O35612   6.569   7.368   1.339  0.6962  0.2273  0.5969
  259MOL0     C35613   6.625   7.385   1.464 -0.8832 -0.2402 -0.0149
  259MOL0     C35614   6.771   7.339   1.463  0.1018 -0.0683 -0.3609
  259MOL0     C35615   6.790   7.187   1.425  0.3279 -0.5658 -0.4574
  259MOL0     C35616   6.931   7.133   1.418  0.4909  0.1914 -0.4563
  259MOL0     C35617   6.937   6.989   1.352  0.0687 -0.0835  0.1016
  259MOL0     C35618   6.861   6.965   1.219  0.7203  0.3174  0.0126
  259MOL0     C35619   6.907   6.837   1.138 -0.2848 -0.3219  0.4234
  259MOL0     C35620   7.024   6.873   1.052  0.3919 -0.3714  0.6973
  259MOL0     N35621   7.102   6.759   0.994  0.4116 -1.1004 -0.3038
  259MOL0     C35622   7.149   6.647   1.053  0.3403  0.4251 -0.0548
  259MOL0     C35623   7.222   6.589   0.947 -0.3894 -0.9508  0.5032
  259MOL0     C35624   7.302   6.466   0.945 -0.0189  0.4156  0.6948
  259MOL0     C35625   7.211   6.347   0.950  0.3214 -0.1095 -0.4230
  259MOL0     C35626   7.110   6.325   0.831 -0.2842  0.2508 -0.4839
  259MOL0     C35627   7.062   6.179   0.834 -1.0569 -0.6276  0.7973
  259MOL0     O35628   7.038   6.127   0.962 -0.6217 -0.1655 -0.8398
  259MOL0     C35629   6.914   6.148   1.015  0.4239  0.1810  0.8296
  259MOL0     C35630   6.794   6.216   0.960 -0.3472 -0.9353  0.5647
  259MOL0     C35631   6.684   6.244   1.039 -0.7891 -0.8610 -0.6007
  259MOL0     C35632   6.578   6.324   0.990 -0.5641 -0.9193 -0.3638
  259MOL0     C35633   6.675   6.191   1.170 -0.1846  0.1923  0.5942
  259MOL0     C35634   6.556   6.212   1.263 -0.9196  0.4102 -1.4434
  259MOL0     O35635   6.573   6.221   1.402 -0.8833 -1.2094  0.2333
  259MOL0     C35636   6.453   6.243   1.471  0.3568 -0.6162 -0.0097
  259MOL0     C35637   6.440   6.172   1.594  0.5406 -0.3609 -0.0966
  259MOL0     C35638   6.333   6.198   1.675 -0.9669  0.5369 -0.1193
  259MOL0     C35639   6.237   6.295   1.643  0.4587  0.9340 -0.7877
  259MOL0     O35640   6.134   6.326   1.734 -0.2129  0.3998  0.9715
  259MOL0     C35641   6.180   6.350   1.869  0.3030  0.2070 -0.2334
  259MOL0     C35642   6.299   6.445   1.884  0.6766 -0.4131  0.3416
  259MOL0     C35643   6.268   6.589   1.832 -0.3533 -0.5773  0.1230
  259MOL0     C35644   6.377   6.681   1.866 -0.7971 -0.0155  0.0081
  259MOL0     C35645   6.333   6.829   1.873 -0.1891 -0.4514 -0.4856
  259MOL0     C35646   6.290   6.885   1.737 -0.0746 -0.0477 -0.2368
  259MOL0     C35647   6.281   7.035   1.725  0.2641 -0.2172 -0.8198
  259MOL0     C35648   6.286   7.095   1.586 -0.3276  0.0982 -0.3866
  259MOL0    Cl35649   6.449   7.075   1.512  0.1908 -0.1975  0.1551
  259MOL0     C35650   6.248   6.364   1.526 -1.0674 -0.5901  0.4441
  259MOL0     C35651   6.357   6.344   1.438 -0.2875  1.0094 -0.7500
  259MOL0     O35652   6.451   6.198   1.206  0.0770 -0.1732  0.2755
  259MOL0     C35653   6.775   6.119   1.220  0.5412 -0.5193  0.1284
  259MOL0     C35654   6.891   6.102   1.151 -0.6880 -0.4372 -0.2520
  259MOL0     N35655   7.204   6.661   0.834 -0.9316 -0.8216 -0.1329
  259MOL0     N35656   7.140   6.763   0.866 -0.0810 -0.7286  0.1249
  259MOL0     C35657   6.344   7.401   1.414  0.0048  0.1489 -0.1447
  259MOL0     C35658   6.213   7.390   1.379 -0.2995  0.1768 -0.6503
  259MOL0     C35659   5.800   7.436   1.217 -0.5390  0.5041  1.1738
  259MOL0     C35660   5.775   7.404   1.081 -0.3423  0.6666  0.0876
  259MOL0     C35661   5.648   7.358   1.033  0.1962 -0.0040  0.5350
  259MOL0     C35662   5.535   7.385   1.113  0.0860 -0.0212  0.1062
  259MOL0     O35663   5.417   7.364   1.051 -0.0248  0.0432 -0.0473
  259MOL0     C35664   5.303   7.376   1.119 -0.0114 -0.3125  0.2988
  259MOL0     C35665   5.179   7.328   1.036 -0.4512  0.6280 -1.5334
  259MOL0     C35666   5.178   7.395   0.900  0.2891  0.4439  0.7655
  259MOL0     C35667   5.142   7.534   0.904  0.4857 -0.9478  0.1010
  259MOL0     C35668   5.254   7.622   0.896 -0.7129  0.6090 -0.2255
  259MOL0     C35669   5.348   7.688   0.884  0.0793 -1.6450  0.8615
  259MOL0     C35670   5.561   7.430   1.243  0.5825 -0.2191  0.0707
  259MOL0     C35671   5.694   7.448   1.300 -0.4728  0.4250  1.3805
  259MOL0     C35672   5.697   7.498   1.442 -0.0388  0.6106  0.2447
  259MOL0     H35673   6.221   7.302   1.047 -2.0255  1.8864  0.1409
  259MOL0     H35674   6.459   7.311   1.106 -1.4251 -1.1927  0.2721
  259MOL0     H35675   6.568   7.330   1.540  0.6094 -1.0198  0.5747
  259MOL0     H35676   6.614   7.487   1.502 -1.8952  0.0429 -1.0131
  259MOL0     H35677   6.825   7.405   1.394 -1.0610  3.5941  1.9252
  259MOL0     H35678   6.820   7.359   1.559  0.8101 -0.9868 -0.5169
  259MOL0     H35679   6.730   7.131   1.497  0.6261  0.8764  0.9612
  259MOL0     H35680   6.756   7.178   1.322  0.5961  2.1768 -0.8365
  259MOL0     H35681   6.996   7.205   1.367  0.4709  1.5114  1.2890
  259MOL0     H35682   6.973   7.142   1.518  0.5637  2.9695 -0.6335
  259MOL0     H35683   6.898   6.920   1.427  0.2158 -1.7729 -1.3110
  259MOL0     H35684   7.042   6.959   1.347 -0.7720 -3.2073 -0.9369
  259MOL0     H35685   6.756   6.954   1.245  0.1102 -1.7671 -2.8066
  259MOL0     H35686   6.872   7.053   1.154 -2.1139  1.6516  1.1703
  259MOL0     H35687   6.829   6.810   1.066  2.4611 -0.1191 -2.8765
  259MOL0     H35688   6.925   6.751   1.202 -0.1030  0.5577  1.5802
  259MOL0     H35689   6.981   6.934   0.972  0.6028 -0.6127  0.3983
  259MOL0     H35690   7.082   6.944   1.112 -0.8974 -0.7027  2.4122
  259MOL0     H35691   7.122   6.601   1.148 -1.5840 -1.2783 -1.3487
  259MOL0     H35692   7.380   6.467   1.022 -0.3476 -0.7072  1.0507
  259MOL0     H35693   7.351   6.461   0.847 -2.8813  0.2141 -0.8257
  259MOL0     H35694   7.276   6.259   0.952 -0.4150 -0.6522 -0.0900
  259MOL0     H35695   7.159   6.345   1.046  0.5329 -0.7209 -0.3181
  259MOL0     H35696   7.027   6.395   0.830 -2.6602 -2.3684  0.2787
  259MOL0     H35697   7.162   6.342   0.736  1.9041  0.9343  0.7501
  259MOL0     H35698   6.978   6.187   0.764 -0.0501  1.9481 -0.2699
  259MOL0     H35699   7.135   6.111   0.789 -0.3199  0.5415  0.1767
  259MOL0     H35700   6.796   6.251   0.857 -3.4253 -2.5177 -0.1416
  259MOL0     H35701   6.507   6.264   0.932 -0.3685  0.5521 -2.2341
  259MOL0     H35702   6.626   6.399   0.927 -0.1783 -0.1385  0.8333
  259MOL0     H35703   6.527   6.382   1.067 -1.7084 -2.6956  0.2835
  259MOL0     H35704   6.514   6.101   1.629  2.0183  0.7441 -0.8740
  259MOL0     H35705   6.318   6.139   1.765  0.7201  0.2918  0.0351
  259MOL0     H35706   6.102   6.404   1.923 -0.6180  0.9631 -2.2277
  259MOL0     H35707   6.200   6.249   1.905  1.2358  0.2636 -0.5508
  259MOL0     H35708   6.310   6.462   1.991 -3.0369  0.6183  0.6919
  259MOL0     H35709   6.379   6.399   1.824 -0.6455  0.0810 -1.9193
  259MOL0     H35710   6.171   6.631   1.861  0.7398  1.2851  1.3303
  259MOL0     H35711   6.266   6.584   1.723 -1.7051  0.6311  0.0518
  259MOL0     H35712   6.462   6.663   1.800 -2.1167 -0.3908 -1.6409
  259MOL0     H35713   6.429   6.671   1.962 -1.1185  3.5515  0.6956
  259MOL0     H35714   6.243   6.829   1.936  1.1570 -0.1355  1.5387
  259MOL0     H35715   6.414   6.885   1.921  0.1823 -1.5790  0.2425
  259MOL0     H35716   6.200   6.834   1.702  1.4773 -4.8557  1.9050
  259MOL0     H35717   6.372   6.861   1.669  0.6866  0.7984  0.3562
  259MOL0     H35718   6.361   7.086   1.780 -0.7665  3.1559 -2.1595
  259MOL0     H35719   6.187   7.077   1.764  2.3377  1.6706  2.6884
  259MOL0     H35720   6.249   7.198   1.589 -0.5985  0.0650 -1.8627
  259MOL0     H35721   6.213   7.053   1.516 -1.3957 -2.9550  2.3311
  259MOL0     H35722   6.169   6.435   1.502  0.8756  1.0785 -1.3345
  259MOL0     H35723   6.369   6.391   1.341 -1.5220 -1.4078 -2.1656
  259MOL0     H35724   6.774   6.059   1.311  2.7719 -0.8711 -0.0266
  259MOL0     H35725   6.978   6.056   1.198 -1.7126  0.2341  2.4659
  259MOL0     H35726   6.375   7.443   1.510  0.0566  0.2878 -0.2219
  259MOL0     H35727   6.131   7.407   1.448  1.2007  1.1008  1.0026
  259MOL0     H35728   5.845   7.395   0.999 -0.7398 -0.6871 -0.1379
  259MOL0     H35729   5.643   7.332   0.928  3.9295 -0.9013  0.4428
  259MOL0     H35730   5.300   7.337   1.221 -0.3466  1.3940  0.9869
  259MOL0     H35731   5.301   7.485   1.124  0.7388 -0.1757 -1.6643
  259MOL0     H35732   5.096   7.352   1.102 -0.5219 -0.6695 -1.1312
  259MOL0     H35733   5.193   7.223   1.009  2.1834  0.2381  0.8674
  259MOL0     H35734   5.272   7.392   0.843 -1.6058  1.2379 -2.6841
  259MOL0     H35735   5.106   7.343   0.836  0.9185 -2.5262  2.2732
  259MOL0     H35736   5.081   7.559   0.991  1.3495  2.8527 -0.1992
  259MOL0     H35737   5.076   7.551   0.818  0.0407 -0.7157  0.4836
  259MOL0     H35738   5.431   7.750   0.858 -0.9764 -0.8781 -0.8941
  259MOL0     H35739   5.469   7.455   1.295 -0.7400 -2.8823 -0.7824
  259MOL0     H35740   5.753   7.428   1.506 -0.9994  0.8456  1.3705
  259MOL0     H35741   5.749   7.594   1.443 -0.2195  0.7479 -1.5283
  259MOL0     H35742   5.597   7.501   1.484  1.0531  0.7702  3.0688
  260MOL0     O35743   6.765   0.534   8.547 -0.4118  1.1416 -0.0652
  260MOL0     C35744   6.802   0.503   8.435  0.1001 -0.6588  1.0457
  260MOL0     O35745   6.865   0.587   8.345  0.2773  0.2536  0.4242
  260MOL0     C35746   6.893   0.709   8.400 -0.3385 -0.4022  0.0612
  260MOL0     C35747   6.811   0.815   8.352  0.3319 -0.0795  0.4208
  260MOL0     C35748   6.846   0.947   8.382 -0.2104  0.3412 -0.5747
  260MOL0     C35749   6.955   0.970   8.468  0.3696 -0.0312 -0.0328
  260MOL0     O35750   6.966   1.100   8.517 -0.9689  0.0311 -0.1852
  260MOL0     C35751   6.992   1.202   8.415  0.2286 -0.2617  0.6807
  260MOL0     C35752   7.061   1.328   8.471  0.5285 -0.3858  0.5074
  260MOL0     C35753   7.198   1.310   8.536 -0.0092 -0.3064  0.3877
  260MOL0     C35754   7.305   1.244   8.447  0.4558 -0.1393  0.3355
  260MOL0     C35755   7.441   1.246   8.517 -0.3785  1.1515 -0.7934
  260MOL0     C35756   7.502   1.385   8.514 -0.6553 -0.6357 -0.9528
  260MOL0     C35757   7.648   1.379   8.476  0.5840 -0.3628 -0.5216
  260MOL0     C35758   7.675   1.339   8.327 -0.6698 -0.0880 -0.5072
  260MOL0     N35759   7.819   1.354   8.295 -0.2596  0.4894 -0.4466
  260MOL0     C35760   7.878   1.469   8.251  0.2842 -0.3983 -0.5193
  260MOL0     C35761   8.006   1.440   8.226 -0.1850  0.0300  0.5641
  260MOL0     C35762   8.095   1.544   8.163 -0.5474  0.1756 -0.2496
  260MOL0     C35763   8.237   1.479   8.136  0.4488  0.4616 -0.8142
  260MOL0     C35764   8.352   1.564   8.070  0.2165  0.5264  0.6560
  260MOL0     C35765   8.492   1.508   8.079  0.3801  0.1997  0.1933
  260MOL0     O35766   8.590   1.597   8.025 -0.7205  0.8690 -0.9632
  260MOL0     C35767   8.724   1.566   8.037 -0.5455  0.5322  1.0332
  260MOL0     C35768   8.817   1.663   7.993  1.2149 -0.0189  0.5602
  260MOL0     C35769   8.951   1.639   7.984 -0.1126  0.0361 -0.6023
  260MOL0     C35770   9.023   1.756   7.919 -0.5191  0.0905 -0.3821
  260MOL0     C35771   8.998   1.513   8.030 -1.2863 -1.3737 -0.4188
  260MOL0     C35772   9.144   1.473   8.020 -0.5951 -0.6315  0.2245
  260MOL0     O35773   9.187   1.353   8.068 -0.5066 -0.1329 -0.8593
  260MOL0     C35774   9.314   1.322   8.060 -0.5283 -0.6991 -0.7736
  260MOL0     C35775   9.342   1.198   7.996 -0.0360 -0.5146 -0.0895
  260MOL0     C35776   9.473   1.168   7.983  0.0007 -0.0539 -0.2155
  260MOL0     C35777   9.583   1.245   8.024 -0.4887  0.0570  0.4382
  260MOL0     O35778   9.710   1.203   7.992  0.5012  0.0158  0.2272
  260MOL0     C35779   9.821   1.300   7.994  0.5594  0.4050  0.4740
  260MOL0     C35780   9.933   1.257   7.900  0.3453  0.0527  0.0047
  260MOL0     C35781   9.888   1.235   7.756  0.1074 -0.2750 -0.5617
  260MOL0     C35782   9.992   1.149   7.682 -0.3211  0.3468  0.3095
  260MOL0     C35783   9.959   1.123   7.532 -0.4735  0.5096 -0.4954
  260MOL0     C35784   9.814   1.058   7.505  0.0436  0.1033  0.1301
  260MOL0     C35785   9.789   0.936   7.587  0.0938 -0.0678 -0.4520
  260MOL0     C35786   9.664   0.857   7.532 -1.0826 -0.3135  0.6392
  260MOL0    Cl35787   9.504   0.955   7.537  0.0026 -0.3474 -0.5100
  260MOL0     C35788   9.554   1.355   8.102  0.0966  1.2986  0.5306
  260MOL0     C35789   9.423   1.400   8.108  0.6500  0.2494 -0.9922
  260MOL0     O35790   9.214   1.551   7.956  0.3212 -0.1348  0.6360
  260MOL0     C35791   8.917   1.429   8.102  0.9833  0.0249  0.8519
  260MOL0     C35792   8.775   1.450   8.095 -0.2736  0.1149 -0.3076
  260MOL0     N35793   8.014   1.301   8.238  0.5067 -0.0075  0.0733
  260MOL0     N35794   7.901   1.249   8.285  0.6212  0.6614  0.0986
  260MOL0     C35795   7.033   0.863   8.526  0.4135  0.7117  0.4900
  260MOL0     C35796   7.003   0.733   8.488 -0.3437  0.1824  0.2646
  260MOL0     C35797   6.775   0.360   8.395 -0.5802 -0.5381 -0.0912
  260MOL0     C35798   6.772   0.257   8.492 -0.4975  0.4850 -0.0301
  260MOL0     C35799   6.740   0.127   8.455  1.0654  0.1036 -0.9660
  260MOL0     C35800   6.702   0.096   8.328  0.5406  0.1648  0.4084
  260MOL0     O35801   6.635  -0.019   8.293 -0.7483 -0.0833  0.2057
  260MOL0     C35802   6.618  -0.126   8.390 -0.4673 -0.0184  0.1970
  260MOL0     C35803   6.579  -0.242   8.313 -0.3114  1.5923  0.3501
  260MOL0     C35804   6.522  -0.352   8.400 -0.4977 -0.8036  0.4046
  260MOL0     C35805   6.371  -0.338   8.416  0.5462 -0.2646 -0.3093
  260MOL0     C35806   6.310  -0.376   8.287 -1.3472  0.1274  1.2593
  260MOL0     C35807   6.253  -0.410   8.184  0.1073 -0.1521 -0.1757
  260MOL0     C35808   6.701   0.188   8.229  0.1500 -0.8525 -0.2713
  260MOL0     C35809   6.732   0.326   8.259 -0.0857 -0.4962 -0.1355
  260MOL0     C35810   6.731   0.422   8.139  0.2135 -0.4305  0.1650
  260MOL0     H35811   6.725   0.796   8.289  0.9134  0.5111 -0.5838
  260MOL0     H35812   6.778   1.026   8.353  1.7562  1.7963 -1.4161
  260MOL0     H35813   6.906   1.246   8.364  1.2425 -1.4831 -2.2806
  260MOL0     H35814   7.050   1.144   8.343 -0.5608  1.9572 -1.8975
  260MOL0     H35815   7.075   1.391   8.383  0.3399 -1.3218 -0.2082
  260MOL0     H35816   6.997   1.381   8.542  0.0594  0.1756 -0.3135
  260MOL0     H35817   7.231   1.411   8.560  0.4457  0.0843 -1.6764
  260MOL0     H35818   7.188   1.251   8.627 -0.6125 -1.5556 -0.4409
  260MOL0     H35819   7.282   1.142   8.416  2.7076 -0.2531 -1.2081
  260MOL0     H35820   7.306   1.288   8.347 -1.5962 -2.9919 -1.0535
  260MOL0     H35821   7.507   1.177   8.463 -2.1476 -0.9798 -0.4047
  260MOL0     H35822   7.437   1.202   8.617 -0.4065  0.3129 -1.1499
  260MOL0     H35823   7.456   1.463   8.453 -0.6745 -0.3631 -0.5921
  260MOL0     H35824   7.493   1.418   8.617  1.3004 -0.0993 -0.9131
  260MOL0     H35825   7.698   1.313   8.547 -3.3124 -1.4264  1.4615
  260MOL0     H35826   7.684   1.483   8.480  1.3492 -0.6316 -0.2964
  260MOL0     H35827   7.665   1.233   8.302  2.9362 -0.0785 -2.8186
  260MOL0     H35828   7.615   1.392   8.252 -0.6197 -1.2628 -1.4178
  260MOL0     H35829   7.838   1.568   8.230  1.2303  0.3536  1.1190
  260MOL0     H35830   8.106   1.637   8.220  1.6685 -0.9258  1.2648
  260MOL0     H35831   8.054   1.565   8.064  0.1453 -0.4148 -0.6767
  260MOL0     H35832   8.283   1.448   8.230  0.6647  1.8773 -0.4352
  260MOL0     H35833   8.222   1.396   8.066  2.0802 -0.0310 -0.6124
  260MOL0     H35834   8.329   1.571   7.963 -3.5867  0.1592  1.2877
  260MOL0     H35835   8.358   1.661   8.119  0.9408  0.8346 -0.0181
  260MOL0     H35836   8.516   1.490   8.184 -4.1803  0.9136  1.5845
  260MOL0     H35837   8.494   1.414   8.024 -1.4925 -1.5554  2.9173
  260MOL0     H35838   8.776   1.757   7.958 -1.3395 -0.4704  2.1415
  260MOL0     H35839   8.956   1.815   7.857 -0.8843  0.3659  0.2691
  260MOL0     H35840   9.101   1.724   7.849  0.5839  1.2477  0.2808
  260MOL0     H35841   9.068   1.812   8.002 -1.3021 -2.8608  2.2428
  260MOL0     H35842   9.263   1.133   7.961  0.6320 -1.2601 -0.2196
  260MOL0     H35843   9.506   1.076   7.935  0.7034 -0.3733  0.8403
  260MOL0     H35844   9.788   1.403   7.980  0.4576  0.4227  0.8235
  260MOL0     H35845   9.871   1.302   8.092 -1.5367 -0.2736  1.6195
  260MOL0     H35846  10.011   1.330   7.920 -0.6456  1.6384 -1.5776
  260MOL0     H35847   9.984   1.172   7.947  1.0067  2.3990  3.9487
  260MOL0     H35848   9.886   1.326   7.696 -0.4469  0.5751  0.6840
  260MOL0     H35849   9.784   1.201   7.746 -0.6920  1.9994 -0.7077
  260MOL0     H35850   9.999   1.054   7.736  0.9403 -0.1106 -0.6136
  260MOL0     H35851  10.086   1.202   7.702  0.7643 -1.0584 -0.8712
  260MOL0     H35852   9.958   1.221   7.483  1.5676  1.5624  1.4440
  260MOL0     H35853  10.039   1.055   7.503 -0.8632 -1.1746  2.0536
  260MOL0     H35854   9.802   1.019   7.403 -0.8569  0.0484  0.2497
  260MOL0     H35855   9.736   1.134   7.519 -0.1129  0.2022 -1.1225
  260MOL0     H35856   9.770   0.964   7.691  0.3200  4.2551 -1.3829
  260MOL0     H35857   9.875   0.869   7.575 -0.5132 -1.1252  0.9267
  260MOL0     H35858   9.658   0.765   7.590  2.1624  0.0112  1.6347
  260MOL0     H35859   9.674   0.815   7.431  0.2021 -0.4197  0.8007
  260MOL0     H35860   9.637   1.404   8.152  0.8723  2.7155 -1.9415
  260MOL0     H35861   9.404   1.492   8.162  2.4020 -1.4648  2.9136
  260MOL0     H35862   8.959   1.339   8.145  2.9161  0.7648  0.6120
  260MOL0     H35863   8.710   1.377   8.143 -2.3782  1.7413 -0.5450
  260MOL0     H35864   7.115   0.882   8.595 -1.4434  0.1781  2.9573
  260MOL0     H35865   7.065   0.658   8.537  0.1201  1.2805  1.4027
  260MOL0     H35866   6.788   0.274   8.598 -4.1568 -0.5420  0.8328
  260MOL0     H35867   6.742   0.057   8.538 -3.4864  2.6752  1.7762
  260MOL0     H35868   6.710  -0.155   8.443  0.0949 -1.2025 -1.3491
  260MOL0     H35869   6.550  -0.105   8.473 -1.2009 -0.7013 -0.2207
  260MOL0     H35870   6.672  -0.269   8.262 -1.3590  1.0198 -1.3509
  260MOL0     H35871   6.507  -0.201   8.242 -0.6079  2.4463  1.1230
  260MOL0     H35872   6.555  -0.451   8.366  2.8757 -0.2060  1.6034
  260MOL0     H35873   6.575  -0.348   8.495  0.6892 -3.3469 -0.0550
  260MOL0     H35874   6.347  -0.235   8.442 -0.7904 -0.3678 -1.0586
  260MOL0     H35875   6.330  -0.405   8.492 -2.2788  0.8620 -0.7413
  260MOL0     H35876   6.212  -0.462   8.100  2.3184 -3.9497  0.8224
  260MOL0     H35877   6.659   0.157   8.134 -1.0170  0.6583 -0.2859
  260MOL0     H35878   6.720   0.358   8.051  1.9978  0.6760 -0.9121
  260MOL0     H35879   6.647   0.492   8.142  1.9756  1.7957 -0.2534
  260MOL0     H35880   6.826   0.474   8.125 -0.5382  0.7630 -0.6531
  261MOL0     O35881   7.130   8.265   0.906 -0.1715  0.4015 -0.2049
  261MOL0     C35882   7.122   8.304   0.793  0.3543 -0.1863  0.3395
  261MOL0     O35883   7.232   8.339   0.711 -0.2700  0.0609  0.3573
  261MOL0     C35884   7.367   8.331   0.732 -0.5907  0.7039 -1.8634
  261MOL0     C35885   7.455   8.384   0.635  0.6826  0.5012 -0.3554
  261MOL0     C35886   7.600   8.377   0.643  0.1295  0.3467 -0.1926
  261MOL0     C35887   7.654   8.310   0.755  0.0353 -0.6382 -0.5826
  261MOL0     O35888   7.787   8.306   0.774  0.0830  0.1668 -0.8110
  261MOL0     C35889   7.858   8.249   0.666  0.4190  0.6643  0.7341
  261MOL0     C35890   7.986   8.182   0.705  0.5738  0.7269  0.1633
  261MOL0     C35891   8.098   8.278   0.751  0.2158 -0.5631  0.8929
  261MOL0     C35892   8.219   8.196   0.808  0.1833 -0.3981  0.4533
  261MOL0     C35893   8.316   8.290   0.883 -0.1871  0.4875  0.2749
  261MOL0     C35894   8.436   8.212   0.954  0.0287  0.0587 -0.2359
  261MOL0     C35895   8.530   8.305   1.038  0.1063 -0.6653  0.7342
  261MOL0     C35896   8.647   8.237   1.085  0.5974 -0.4107 -0.2015
  261MOL0     N35897   8.703   8.311   1.202  0.0611 -0.1652 -0.2896
  261MOL0     C35898   8.775   8.423   1.187  0.4428 -0.4274  0.1942
  261MOL0     C35899   8.795   8.461   1.311  0.4708 -1.0626 -0.7725
  261MOL0     C35900   8.876   8.589   1.345  0.4049  0.1782  0.7891
  261MOL0     C35901   9.027   8.566   1.310  0.4759 -0.8353 -0.0648
  261MOL0     C35902   9.119   8.682   1.352 -1.3385  0.0046 -0.2568
  261MOL0     C35903   9.124   8.723   1.498  0.3632  0.2349 -0.3975
  261MOL0     O35904   9.220   8.647   1.578  0.1644  0.4462 -0.1838
  261MOL0     C35905   9.354   8.652   1.556 -0.9501 -0.0732 -0.3868
  261MOL0     C35906   9.416   8.732   1.461  0.3585  0.8472  0.2390
  261MOL0     C35907   9.556   8.720   1.448 -0.2321 -0.7886 -0.0254
  261MOL0     C35908   9.606   8.805   1.331 -0.2466 -0.2147  0.4110
  261MOL0     C35909   9.636   8.651   1.543  0.3253  0.5350 -0.4667
  261MOL0     C35910   9.784   8.662   1.536  0.6837 -0.1300  0.6194
  261MOL0     O35911   9.834   8.767   1.471  1.2851  0.0349  0.2412
  261MOL0     C35912   9.970   8.778   1.470  0.3920  0.5892 -0.1459
  261MOL0     C35913  10.038   8.814   1.582  1.0262 -0.7146 -0.2257
  261MOL0     C35914  10.179   8.818   1.585  0.0208  0.7147 -0.6521
  261MOL0     C35915  10.248   8.798   1.466 -0.5079 -0.5277 -0.1867
  261MOL0     O35916  10.385   8.812   1.464 -0.3054  0.4793  0.8043
  261MOL0     C35917  10.453   8.863   1.341 -0.0566  0.4104 -0.7322
  261MOL0     C35918  10.575   8.942   1.398 -0.7006  0.2200 -0.0373
  261MOL0     C35919  10.642   9.051   1.315 -0.0232 -0.4272  0.1141
  261MOL0     C35920  10.713   9.002   1.187 -0.6351  0.4116 -0.1575
  261MOL0     C35921  10.852   8.947   1.201 -0.4955 -0.1147  0.8865
  261MOL0     C35922  10.951   9.042   1.279  0.1269  1.1307 -0.6538
  261MOL0     C35923  11.102   9.005   1.278  0.0799  0.6846  0.8494
  261MOL0     C35924  11.133   8.872   1.352  0.0022 -0.3750  0.9553
  261MOL0    Cl35925  11.312   8.847   1.313 -0.2646 -0.1123  0.4396
  261MOL0     C35926  10.171   8.763   1.348 -0.2676  0.5886 -0.5415
  261MOL0     C35927  10.035   8.753   1.356 -0.9056 -0.4378  0.1571
  261MOL0     O35928   9.855   8.585   1.596  1.3983  0.5327 -1.0858
  261MOL0     C35929   9.567   8.592   1.650 -0.3614  0.5897  0.2795
  261MOL0     C35930   9.432   8.596   1.663 -0.2521  0.9272 -0.2134
  261MOL0     N35931   8.731   8.376   1.403  0.6253 -0.0433 -1.3151
  261MOL0     N35932   8.677   8.285   1.332  0.3343 -0.2454 -0.0488
  261MOL0     C35933   7.573   8.270   0.862 -0.4290  0.1518  0.0330
  261MOL0     C35934   7.428   8.271   0.846  0.1617  0.1147 -0.8850
  261MOL0     C35935   6.991   8.322   0.732 -0.1333  0.5584 -0.0683
  261MOL0     C35936   6.987   8.352   0.590  0.0156 -0.1977  0.5416
  261MOL0     C35937   6.860   8.373   0.540 -0.3489 -0.0511  0.8178
  261MOL0     C35938   6.739   8.359   0.609 -0.4526  0.9678  0.0998
  261MOL0     O35939   6.616   8.368   0.549 -0.4263 -0.0532  0.4860
  261MOL0     C35940   6.594   8.430   0.420 -1.2233  0.2178  0.0642
  261MOL0     C35941   6.447   8.425   0.402  0.1966  0.3448 -0.3843
  261MOL0     C35942   6.383   8.517   0.511  0.1439  1.0174  0.7139
  261MOL0     C35943   6.260   8.581   0.451 -0.6418 -0.0515  0.7275
  261MOL0     C35944   6.170   8.498   0.367 -0.5908  0.1106 -0.0163
  261MOL0     C35945   6.080   8.439   0.314 -0.1755  0.0161  0.2163
  261MOL0     C35946   6.750   8.328   0.746  0.9534 -0.2254  0.3276
  261MOL0     C35947   6.871   8.309   0.815  0.5708  0.3418  0.6679
  261MOL0     C35948   6.859   8.267   0.962  0.6377  0.0714 -0.3616
  261MOL0     H35949   7.404   8.424   0.548  1.9425  2.4148 -0.2768
  261MOL0     H35950   7.658   8.426   0.566  0.7209  3.1344  1.8561
  261MOL0     H35951   7.880   8.318   0.584  0.8688 -0.8966 -0.5219
  261MOL0     H35952   7.792   8.174   0.622  0.9091  0.4964  0.2779
  261MOL0     H35953   7.966   8.107   0.781  0.0014  1.3918  0.6764
  261MOL0     H35954   8.020   8.127   0.617 -0.4282 -1.3838  1.0362
  261MOL0     H35955   8.125   8.338   0.663  0.5061  0.0200  1.3664
  261MOL0     H35956   8.066   8.349   0.828  0.0518 -1.0079  1.2365
  261MOL0     H35957   8.178   8.118   0.872 -0.7413 -0.2347  0.0814
  261MOL0     H35958   8.261   8.135   0.727 -2.2980  0.0250 -1.2841
  261MOL0     H35959   8.268   8.359   0.952  0.6239 -0.5382  1.9160
  261MOL0     H35960   8.354   8.365   0.813 -0.2021  1.4644  1.2886
  261MOL0     H35961   8.387   8.147   1.026 -0.6071 -0.1892 -0.8749
  261MOL0     H35962   8.486   8.146   0.882  2.4570  2.0682 -0.5221
  261MOL0     H35963   8.476   8.330   1.129  2.3305 -2.0361  2.5525
  261MOL0     H35964   8.546   8.398   0.983  0.1144 -2.1161 -1.8827
  261MOL0     H35965   8.605   8.141   1.117 -2.1324  1.1983  1.4312
  261MOL0     H35966   8.718   8.225   1.003 -1.2636 -0.5473 -1.8835
  261MOL0     H35967   8.815   8.476   1.100 -0.2244 -1.2319 -0.6223
  261MOL0     H35968   8.858   8.608   1.451  0.7898 -1.0864  1.1004
  261MOL0     H35969   8.833   8.677   1.297  0.6140  1.4008  2.7553
  261MOL0     H35970   9.055   8.477   1.367  1.0116  0.5169  1.8670
  261MOL0     H35971   9.038   8.554   1.202  1.1873  0.3320 -0.1343
  261MOL0     H35972   9.220   8.645   1.329 -0.3844 -0.0899  3.4015
  261MOL0     H35973   9.107   8.769   1.287 -0.8660 -0.0663 -0.4464
  261MOL0     H35974   9.144   8.831   1.499  1.4446  0.0472 -0.2678
  261MOL0     H35975   9.018   8.719   1.524  1.2059 -0.1910  3.7451
  261MOL0     H35976   9.363   8.790   1.387 -0.4024 -1.9350 -1.5367
  261MOL0     H35977   9.671   8.745   1.268 -0.3603 -1.2435  1.2405
  261MOL0     H35978   9.652   8.896   1.371 -1.6128  0.9043 -0.4550
  261MOL0     H35979   9.531   8.852   1.267 -0.6598  2.4833  2.6458
  261MOL0     H35980   9.981   8.833   1.672  1.6794 -1.6983  0.4220
  261MOL0     H35981  10.239   8.840   1.673 -0.2929  3.0186 -0.9384
  261MOL0     H35982  10.492   8.791   1.269  0.0550  0.1032 -0.3735
  261MOL0     H35983  10.397   8.936   1.283  1.5839  2.2934 -0.0923
  261MOL0     H35984  10.550   8.983   1.496  0.2939 -0.6940  0.6279
  261MOL0     H35985  10.640   8.856   1.421 -0.9980  0.0976  0.3535
  261MOL0     H35986  10.702   9.122   1.373 -0.8731  1.5574 -1.3247
  261MOL0     H35987  10.565   9.117   1.274  1.6222  0.1963 -2.1199
  261MOL0     H35988  10.708   9.084   1.114  0.6584 -2.3624 -3.6965
  261MOL0     H35989  10.654   8.917   1.151 -1.8395  1.3420 -0.4316
  261MOL0     H35990  10.851   8.851   1.253  2.6100 -1.1051 -0.6599
  261MOL0     H35991  10.886   8.930   1.098  0.6201 -1.1758  1.4110
  261MOL0     H35992  10.922   9.064   1.382 -2.0759  2.5352 -1.4903
  261MOL0     H35993  10.926   9.138   1.231  2.3886  1.1125 -2.0095
  261MOL0     H35994  11.169   9.081   1.318  1.9934 -0.5671  0.1520
  261MOL0     H35995  11.130   8.990   1.174  0.4582  1.1699  0.8805
  261MOL0     H35996  11.076   8.782   1.325 -1.6655  0.6455  0.9400
  261MOL0     H35997  11.106   8.886   1.457 -0.3536 -1.7167  1.0699
  261MOL0     H35998  10.221   8.728   1.258 -0.3913  1.1480 -0.8342
  261MOL0     H35999   9.977   8.715   1.273  0.5531 -2.6994  0.0743
  261MOL0     H36000   9.611   8.550   1.739 -2.6247  2.4172  2.3813
  261MOL0     H36001   9.377   8.537   1.736 -1.6769  0.9006 -1.2697
  261MOL0     H36002   7.613   8.216   0.948 -1.7858 -1.6493 -0.4132
  261MOL0     H36003   7.359   8.238   0.922  0.1876  2.9177  0.5000
  261MOL0     H36004   7.082   8.367   0.539 -1.0272  0.4481 -1.3438
  261MOL0     H36005   6.861   8.403   0.435 -0.6732 -2.6309  0.0069
  261MOL0     H36006   6.646   8.526   0.417  2.6587 -1.7256 -2.4783
  261MOL0     H36007   6.648   8.365   0.351 -0.7585  1.2470 -0.5661
  261MOL0     H36008   6.422   8.318   0.401 -1.0933  0.4264  3.5449
  261MOL0     H36009   6.425   8.463   0.302 -0.8713 -1.1441 -0.7518
  261MOL0     H36010   6.342   8.466   0.599 -0.8148 -1.5596 -1.0904
  261MOL0     H36011   6.457   8.587   0.552  2.8589 -1.0192 -0.3685
  261MOL0     H36012   6.292   8.667   0.390  0.2493 -0.7428  0.2000
  261MOL0     H36013   6.203   8.622   0.535 -0.0493 -0.2522  1.2327
  261MOL0     H36014   6.001   8.384   0.268 -1.0074  0.0281  1.5736
  261MOL0     H36015   6.658   8.326   0.803  1.8598  1.9260  2.0090
  261MOL0     H36016   6.893   8.163   0.974 -1.4640 -0.5757  0.6640
  261MOL0     H36017   6.923   8.332   1.022  0.1011  0.2283  0.0498
  261MOL0     H36018   6.765   8.288   1.013 -0.1037 -0.8481 -1.2956
  262MOL0     O36019   6.813  10.098   6.513 -0.7239 -0.7781 -0.9234
  262MOL0     C36020   6.863  10.202   6.561 -0.0408 -0.0384  0.1857
  262MOL0     O36021   6.800  10.323   6.594  0.2402 -0.5392  0.0674
  262MOL0     C36022   6.666  10.355   6.571 -0.0510 -0.3663 -0.8454
  262MOL0     C36023   6.574  10.269   6.506  1.0226  0.0850  0.2281
  262MOL0     C36024   6.443  10.315   6.500 -0.6277  0.0819  0.5235
  262MOL0     C36025   6.397  10.434   6.560  0.3235 -0.4738 -0.3950
  262MOL0     O36026   6.265  10.475   6.560  0.4138  0.3523  0.1353
  262MOL0     C36027   6.172  10.383   6.500 -0.2994  0.2751  0.4376
  262MOL0     C36028   6.033  10.440   6.527  0.2088 -0.5199 -0.6955
  262MOL0     C36029   5.932  10.356   6.443  0.1365 -0.4017  0.1106
  262MOL0     C36030   5.793  10.370   6.495  0.3735 -0.0847  0.8704
  262MOL0     C36031   5.698  10.301   6.397 -0.1095  0.2958  0.3065
  262MOL0     C36032   5.724  10.151   6.362  0.1413 -0.0379  0.1053
  262MOL0     C36033   5.645  10.116   6.234  0.1577 -0.1551  0.0327
  262MOL0     C36034   5.617   9.967   6.214 -0.5526  0.5760 -0.5946
  262MOL0     N36035   5.529   9.950   6.097 -0.0634  0.1511 -0.5512
  262MOL0     C36036   5.400   9.985   6.089  0.7982  0.6654 -0.6171
  262MOL0     C36037   5.375  10.002   5.959  0.0487 -0.0612 -0.5298
  262MOL0     C36038   5.249  10.058   5.900  0.0337 -1.0821  0.5368
  262MOL0     C36039   5.247  10.036   5.745  0.4513  0.1368  0.5195
  262MOL0     C36040   5.113  10.066   5.675 -0.5646  0.6679 -0.1594
  262MOL0     C36041   5.061  10.209   5.688 -0.6164  0.0452  0.1748
  262MOL0     O36042   5.158  10.319   5.683 -0.5738  0.0048  0.3495
  262MOL0     C36043   5.196  10.343   5.552 -1.1281  0.2098  0.9833
  262MOL0     C36044   5.344  10.329   5.527  0.3550  0.0749  0.2820
  262MOL0     C36045   5.392  10.332   5.398  0.7773 -0.0856  0.5557
  262MOL0     C36046   5.541  10.304   5.385  0.1177 -0.3007  1.5627
  262MOL0     C36047   5.305  10.345   5.290 -0.9484  0.0138 -0.3234
  262MOL0     C36048   5.340  10.312   5.149 -0.2097 -0.8546  0.0388
  262MOL0     O36049   5.442  10.225   5.124  0.9752  0.0749 -0.7441
  262MOL0     C36050   5.485  10.166   5.004 -0.0850 -0.0140 -0.7669
  262MOL0     C36051   5.596  10.087   5.024 -0.6554 -0.2345  0.3514
  262MOL0     C36052   5.644  10.005   4.920  0.6081  0.1148  0.1092
  262MOL0     C36053   5.574  10.011   4.795 -0.2894  0.4006  0.3415
  262MOL0     O36054   5.638   9.952   4.688 -0.0601  0.5541  0.0269
  262MOL0     C36055   5.618  10.001   4.552 -1.0586  0.6855  0.6373
  262MOL0     C36056   5.732   9.930   4.464 -0.4754 -1.3533  0.5491
  262MOL0     C36057   5.732   9.953   4.315  0.4526  0.0851  0.0330
  262MOL0     C36058   5.866   9.974   4.242 -0.9348  0.4749  0.1755
  262MOL0     C36059   5.862   9.968   4.091 -1.0267 -0.2271  0.5885
  262MOL0     C36060   5.916   9.838   4.033  0.7002 -0.2134 -1.1201
  262MOL0     C36061   5.912   9.853   3.881 -0.1764  0.1102 -1.1002
  262MOL0     C36062   5.978   9.741   3.803 -0.2817  0.0853  0.5475
  262MOL0    Cl36063   5.872   9.594   3.778 -0.0568  0.1836 -0.2530
  262MOL0     C36064   5.455  10.078   4.778 -0.1896  0.9089 -0.4741
  262MOL0     C36065   5.410  10.154   4.887 -0.2632 -0.6000  0.0481
  262MOL0     O36066   5.261  10.347   5.060  0.3796  0.3508  0.1435
  262MOL0     C36067   5.175  10.372   5.316  0.4655  0.1764 -0.1080
  262MOL0     C36068   5.120  10.373   5.442  0.6376 -1.0964  0.2095
  262MOL0     N36069   5.484   9.957   5.888 -0.2470  2.0715  0.0166
  262MOL0     N36070   5.570   9.919   5.970  0.3913  0.3795 -0.1417
  262MOL0     C36071   6.488  10.523   6.618 -0.2453  0.1128  1.4134
  262MOL0     C36072   6.624  10.493   6.613  0.1665 -0.0014 -0.7555
  262MOL0     C36073   7.010  10.201   6.581 -0.3612 -0.3711  0.4700
  262MOL0     C36074   7.081  10.320   6.564  0.2157 -0.0382  0.4232
  262MOL0     C36075   7.218  10.330   6.577  0.0728 -1.1384 -0.6601
  262MOL0     C36076   7.288  10.215   6.621 -0.7835 -0.1350  0.4042
  262MOL0     O36077   7.422  10.238   6.639  0.2739 -0.2486 -0.0777
  262MOL0     C36078   7.525  10.137   6.654  0.2506  0.6637  0.0249
  262MOL0     C36079   7.523  10.081   6.795 -0.6453 -0.2082 -0.6375
  262MOL0     C36080   7.506  10.207   6.887  0.6175  0.2401 -0.1745
  262MOL0     C36081   7.490  10.163   7.036 -0.1501 -0.2029 -0.9331
  262MOL0     C36082   7.508  10.282   7.121  0.9146 -0.2089  0.1272
  262MOL0     C36083   7.504  10.371   7.201 -0.8633  0.5202  0.2415
  262MOL0     C36084   7.229  10.094   6.630 -0.2089  0.4053 -0.0124
  262MOL0     C36085   7.087  10.086   6.615  0.3048  0.4649  0.2440
  262MOL0     C36086   7.023   9.952   6.644  0.2788  0.6087 -0.5457
  262MOL0     H36087   6.602  10.178   6.453  0.4649 -0.0638  0.1804
  262MOL0     H36088   6.386  10.233   6.457  2.7234 -2.2887  0.1714
  262MOL0     H36089   6.179  10.289   6.555  0.9705  0.5920  0.8448
  262MOL0     H36090   6.193  10.375   6.393  0.4290  2.4004  0.3729
  262MOL0     H36091   6.017  10.436   6.635  1.1784  3.2271 -0.2913
  262MOL0     H36092   6.013  10.544   6.500 -0.3482 -0.2856  0.5627
  262MOL0     H36093   5.937  10.401   6.343 -2.1333  0.9149  0.5244
  262MOL0     H36094   5.949  10.248   6.441 -2.2719 -0.9962  3.4490
  262MOL0     H36095   5.781  10.324   6.593 -1.7627 -1.1282  0.1658
  262MOL0     H36096   5.766  10.476   6.502 -0.2115 -0.2804  1.7365
  262MOL0     H36097   5.693  10.355   6.302 -2.9238  1.4088  0.9733
  262MOL0     H36098   5.597  10.309   6.438 -0.7009  1.8951 -1.3308
  262MOL0     H36099   5.828  10.137   6.331 -0.2944 -0.7251 -1.0968
  262MOL0     H36100   5.691  10.089   6.446  0.3318  1.8145  1.6029
  262MOL0     H36101   5.683  10.148   6.137 -3.0470 -1.8786 -1.9769
  262MOL0     H36102   5.543  10.154   6.243  0.0751 -0.3149 -0.2133
  262MOL0     H36103   5.709   9.909   6.211 -1.2450 -0.5217 -1.6020
  262MOL0     H36104   5.565   9.926   6.302  0.5236 -1.9205 -1.0361
  262MOL0     H36105   5.325  10.015   6.161  1.6020 -1.6338  1.3157
  262MOL0     H36106   5.244  10.164   5.923  0.7774 -0.0513 -3.3256
  262MOL0     H36107   5.175   9.994   5.948  0.5632 -2.0871  0.0522
  262MOL0     H36108   5.319  10.097   5.690  2.0547 -1.8581  0.3277
  262MOL0     H36109   5.268   9.931   5.722 -2.8927 -0.5885  0.2284
  262MOL0     H36110   5.121  10.053   5.566 -3.3591 -1.9085 -0.1982
  262MOL0     H36111   5.039   9.997   5.716 -0.1510  1.0884  1.3564
  262MOL0     H36112   4.990  10.219   5.606  1.8246  1.2304 -1.9404
  262MOL0     H36113   5.004  10.221   5.781  2.4377  0.9595  2.1001
  262MOL0     H36114   5.408  10.311   5.614 -2.8240  2.2411  3.3343
  262MOL0     H36115   5.570  10.367   5.300 -4.2643  3.2482  2.2969
  262MOL0     H36116   5.558  10.197   5.375 -1.0445 -0.3346 -0.5331
  262MOL0     H36117   5.591  10.344   5.474  0.8699  2.8628 -0.1292
  262MOL0     H36118   5.661  10.090   5.111  2.0406 -4.4545 -1.1952
  262MOL0     H36119   5.734   9.946   4.931  1.3547  0.9545 -1.1066
  262MOL0     H36120   5.521   9.965   4.515 -1.1069  2.0418 -0.6515
  262MOL0     H36121   5.630  10.109   4.562  1.8813  0.4157  0.9454
  262MOL0     H36122   5.831   9.957   4.501 -0.5911 -1.0558  0.6420
  262MOL0     H36123   5.717   9.823   4.482 -0.7055 -1.5299 -0.6290
  262MOL0     H36124   5.677  10.048   4.312 -2.3420 -1.3583  1.2673
  262MOL0     H36125   5.679   9.871   4.266  2.9503 -0.0023 -2.7832
  262MOL0     H36126   5.931   9.897   4.287 -2.0176 -0.2807  0.5047
  262MOL0     H36127   5.895  10.075   4.270  0.0814  0.6370 -1.3307
  262MOL0     H36128   5.763   9.998   4.055 -0.7620  1.0598  0.8916
  262MOL0     H36129   5.927  10.052   4.064 -1.8935  0.9695  2.0594
  262MOL0     H36130   5.850   9.760   4.071  1.6908 -0.2497  0.6206
  262MOL0     H36131   6.013   9.809   4.074 -1.0260 -3.6917  0.9305
  262MOL0     H36132   5.965   9.946   3.854 -1.9181  1.0503 -1.3871
  262MOL0     H36133   5.819   9.885   3.834 -1.8484 -0.2272  1.7409
  262MOL0     H36134   6.076   9.711   3.841  0.1418 -1.8499 -1.7808
  262MOL0     H36135   5.994   9.784   3.703  1.1652 -0.4497  0.5262
  262MOL0     H36136   5.400  10.067   4.685  0.0761 -2.1805 -0.3448
  262MOL0     H36137   5.308  10.190   4.881 -0.1103 -0.2806 -0.8037
  262MOL0     H36138   5.104  10.378   5.234  0.3302 -0.7602 -0.0662
  262MOL0     H36139   5.012  10.381   5.446  0.7540  1.1958  0.3036
  262MOL0     H36140   6.457  10.617   6.661 -2.1523  0.9594 -1.5588
  262MOL0     H36141   6.705  10.557   6.649 -2.3521  1.2058  3.3365
  262MOL0     H36142   7.029  10.412   6.539  1.5441  1.1900  1.9288
  262MOL0     H36143   7.259  10.430   6.571 -1.5021 -0.3449  0.9488
  262MOL0     H36144   7.533  10.057   6.580 -0.4189 -0.9381  1.5922
  262MOL0     H36145   7.618  10.193   6.641 -0.0850  1.2153 -0.0497
  262MOL0     H36146   7.619  10.033   6.820 -1.4395 -0.6288  1.9188
  262MOL0     H36147   7.442  10.011   6.815 -1.3061  0.7143  0.0134
  262MOL0     H36148   7.591  10.276   6.884  0.8815  0.0018  1.1686
  262MOL0     H36149   7.414  10.260   6.862 -0.6434 -3.1484 -3.7660
  262MOL0     H36150   7.559  10.086   7.072  1.1009  1.4468  0.3151
  262MOL0     H36151   7.384  10.138   7.029 -0.0829 -0.2853 -1.7575
  262MOL0     H36152   7.497  10.434   7.287  0.8489 -0.1241  0.9121
  262MOL0     H36153   7.289  10.008   6.659  0.8572  1.5572  1.3731
  262MOL0     H36154   7.005   9.904   6.547  2.6077  1.9694 -1.7606
  262MOL0     H36155   7.093   9.887   6.697  0.6028 -1.6221 -3.4776
  262MOL0     H36156   6.925   9.953   6.693 -0.6141 -3.1420 -1.8664
  263MOL0     O36157   6.291  10.113   1.874 -0.5073 -0.6229 -0.3128
  263MOL0     C36158   6.288  10.013   1.817 -0.1387  0.6549  0.7828
  263MOL0     O36159   6.397   9.948   1.771  0.0749  0.3160  0.4718
  263MOL0     C36160   6.515   9.992   1.824 -0.8786 -0.7506 -0.1132
  263MOL0     C36161   6.593  10.082   1.753  0.5059  1.0218 -0.4757
  263MOL0     C36162   6.711  10.129   1.807  0.5822  0.7805  0.5015
  263MOL0     C36163   6.767  10.071   1.922 -0.9753  1.3482  0.1588
  263MOL0     O36164   6.894  10.104   1.968  0.0317 -0.2959  0.1889
  263MOL0     C36165   6.993  10.149   1.875 -0.4106 -0.0758 -0.3789
  263MOL0     C36166   7.072  10.030   1.824 -0.4297  0.6469 -0.4212
  263MOL0     C36167   7.117   9.923   1.933 -0.2268 -0.6619 -0.2195
  263MOL0     C36168   7.025   9.804   1.931 -0.7003 -0.7492 -0.3068
  263MOL0     C36169   7.065   9.690   2.032  0.3230  0.0675 -0.4374
  263MOL0     C36170   6.966   9.579   2.032  0.3766  0.0490  0.3225
  263MOL0     C36171   6.826   9.619   2.068 -0.7278 -0.4041  0.2880
  263MOL0     C36172   6.731   9.503   2.104 -0.4583  0.0930  0.2370
  263MOL0     N36173   6.590   9.546   2.093 -0.5189  0.4801  0.1857
  263MOL0     C36174   6.506   9.506   2.003  0.5003 -1.3120 -0.4618
  263MOL0     C36175   6.397   9.587   2.029 -0.7645  0.4327 -0.2189
  263MOL0     C36176   6.275   9.605   1.958 -0.2633  0.1430  0.6228
  263MOL0     C36177   6.205   9.474   1.910 -1.0001 -0.6946 -0.2960
  263MOL0     C36178   6.113   9.491   1.789 -0.0064 -0.2777 -0.0076
  263MOL0     C36179   5.987   9.552   1.835  0.1413 -0.0083  0.3800
  263MOL0     O36180   5.919   9.450   1.916  0.4193  0.7237  0.1904
  263MOL0     C36181   5.786   9.429   1.889 -0.4839 -0.2714  0.0457
  263MOL0     C36182   5.750   9.294   1.894 -0.0406  0.2168  0.0055
  263MOL0     C36183   5.623   9.251   1.868  0.0624  0.3109 -0.6469
  263MOL0     C36184   5.606   9.095   1.863  0.3919 -0.3856 -0.0486
  263MOL0     C36185   5.525   9.356   1.849  0.2386  0.3698 -0.4808
  263MOL0     C36186   5.380   9.314   1.838  0.2312  0.1057 -0.0819
  263MOL0     O36187   5.338   9.206   1.910  0.1555  0.4065 -0.6733
  263MOL0     C36188   5.206   9.192   1.950  0.7086  0.3653  0.5578
  263MOL0     C36189   5.122   9.299   1.976 -0.4893  0.6009 -0.5412
  263MOL0     C36190   4.988   9.291   2.042  0.2840 -0.2631 -0.2263
  263MOL0     C36191   4.942   9.162   2.061  0.9624  0.2934  0.1531
  263MOL0     O36192   4.819   9.138   2.109  0.1302 -1.1484 -0.0669
  263MOL0     C36193   4.725   9.094   2.005  0.0945 -0.8338 -0.6234
  263MOL0     C36194   4.595   9.074   2.080 -0.4478  0.0999  0.4461
  263MOL0     C36195   4.482   9.027   1.982 -0.7917  0.7112  0.3346
  263MOL0     C36196   4.355   8.964   2.051 -0.3376 -0.1834  0.4491
  263MOL0     C36197   4.233   9.062   2.077 -0.5187 -0.0591 -1.3659
  263MOL0     C36198   4.267   9.168   2.178 -0.0450  0.4801 -0.5252
  263MOL0     C36199   4.150   9.188   2.276  0.3507 -0.3657  0.4091
  263MOL0     C36200   4.212   9.271   2.391  0.3459  0.0384 -0.3614
  263MOL0    Cl36201   4.079   9.357   2.461  0.1768  0.1017  0.1068
  263MOL0     C36202   5.020   9.049   2.029 -0.1444 -0.2141 -0.2725
  263MOL0     C36203   5.150   9.067   1.984 -0.1057  0.6131 -0.1868
  263MOL0     O36204   5.311   9.383   1.763 -0.6045 -0.1024  0.0490
  263MOL0     C36205   5.563   9.487   1.836  0.3150 -0.5697 -0.2226
  263MOL0     C36206   5.695   9.520   1.849 -0.0462 -0.6112 -0.2395
  263MOL0     N36207   6.424   9.671   2.131 -0.6237 -0.5586  0.7755
  263MOL0     N36208   6.539   9.639   2.172  0.5978  0.6218  0.2462
  263MOL0     C36209   6.690   9.977   1.996  0.9339 -0.1001 -0.9196
  263MOL0     C36210   6.557   9.946   1.952 -0.7384  0.3103 -0.2588
  263MOL0     C36211   6.163   9.963   1.775  0.0724  0.1438  1.0473
  263MOL0     C36212   6.146   9.938   1.636  0.0973 -0.2127 -0.7680
  263MOL0     C36213   6.026   9.878   1.588 -0.0335  0.2017 -0.1728
  263MOL0     C36214   5.924   9.854   1.680 -0.1403  0.0773  0.9673
  263MOL0     O36215   5.799   9.803   1.633 -0.8717  0.3167 -0.0506
  263MOL0     C36216   5.714   9.912   1.594  0.1818  0.1644  0.3803
  263MOL0     C36217   5.692   9.908   1.443  0.8349 -0.7764  0.4845
  263MOL0     C36218   5.566   9.989   1.399  0.3823  0.5194  0.0372
  263MOL0     C36219   5.533   9.966   1.252 -0.3478 -0.1415 -0.7222
  263MOL0     C36220   5.578  10.075   1.173  0.3110 -0.7597  0.0452
  263MOL0     C36221   5.614  10.169   1.108 -0.1689  0.0759  0.9475
  263MOL0     C36222   5.944   9.883   1.815  0.4632 -0.2867  0.6328
  263MOL0     C36223   6.063   9.927   1.867 -0.9974  0.1613  0.2085
  263MOL0     C36224   6.068   9.946   2.017  0.0400 -0.0446 -0.5540
  263MOL0     H36225   6.555  10.130   1.664 -0.8109  1.8951  0.5040
  263MOL0     H36226   6.752  10.203   1.739  1.7570  0.9907  1.4142
  263MOL0     H36227   7.068  10.218   1.915 -0.9447  2.7986 -3.8446
  263MOL0     H36228   6.955  10.199   1.786  2.2629 -0.8630 -2.0845
  263MOL0     H36229   7.032   9.971   1.741  1.3282  1.1912 -1.7141
  263MOL0     H36230   7.167  10.070   1.788  0.0369  0.8159  0.9661
  263MOL0     H36231   7.217   9.883   1.913  0.0999 -0.5538  1.1337
  263MOL0     H36232   7.124   9.959   2.036  0.6357 -1.1987 -0.0790
  263MOL0     H36233   6.927   9.838   1.966  0.6579  0.9934  2.0951
  263MOL0     H36234   7.002   9.769   1.830 -0.6372 -0.4381 -0.4286
  263MOL0     H36235   7.081   9.734   2.131 -2.1442 -2.4385  1.1966
  263MOL0     H36236   7.159   9.648   1.993 -1.1106 -1.9630 -1.8747
  263MOL0     H36237   6.957   9.526   1.937 -5.1206  3.5595 -1.6406
  263MOL0     H36238   6.987   9.514   2.117  1.6002  1.1938  0.9391
  263MOL0     H36239   6.778   9.667   1.982 -1.1486  2.0336  1.7901
  263MOL0     H36240   6.831   9.699   2.143 -1.7461  2.1868 -2.2396
  263MOL0     H36241   6.742   9.427   2.026  4.4401  1.0096 -0.3114
  263MOL0     H36242   6.765   9.463   2.200  1.7935 -0.0167 -0.5368
  263MOL0     H36243   6.515   9.431   1.925  0.6135 -1.1526 -0.6060
  263MOL0     H36244   6.288   9.673   1.873  3.9429  0.9806  1.7041
  263MOL0     H36245   6.196   9.652   2.018 -1.7979 -2.9194  1.2056
  263MOL0     H36246   6.280   9.398   1.884 -0.7688 -0.1323 -1.3189
  263MOL0     H36247   6.149   9.428   1.992 -1.0443 -1.0944 -0.5452
  263MOL0     H36248   6.169   9.546   1.713  3.4322 -2.1251  0.9717
  263MOL0     H36249   6.100   9.387   1.760  1.8217 -1.6523  3.4619
  263MOL0     H36250   6.014   9.635   1.900 -0.5972 -0.6163  1.4829
  263MOL0     H36251   5.941   9.590   1.743 -1.1084 -1.3040  0.4313
  263MOL0     H36252   5.819   9.214   1.918 -0.3486 -0.1097 -0.1721
  263MOL0     H36253   5.553   9.059   1.952  0.7612  1.8024  1.1158
  263MOL0     H36254   5.704   9.046   1.857  1.0420  0.9862 -1.4321
  263MOL0     H36255   5.559   9.068   1.768  3.9347 -4.1251 -1.0141
  263MOL0     H36256   5.155   9.402   1.974  2.2701 -0.2290 -0.7980
  263MOL0     H36257   4.943   9.380   2.086 -0.3604 -1.2525  1.1979
  263MOL0     H36258   4.707   9.164   1.923  0.2194 -1.3279 -1.0793
  263MOL0     H36259   4.760   9.004   1.952 -0.0152  0.4615 -3.0440
  263MOL0     H36260   4.597   9.020   2.175 -2.0674 -1.9740 -0.6006
  263MOL0     H36261   4.571   9.177   2.107  0.9150  0.5549  0.0058
  263MOL0     H36262   4.516   8.948   1.915 -2.4053 -0.5093  0.8815
  263MOL0     H36263   4.452   9.112   1.921 -2.2868  3.0256  3.9412
  263MOL0     H36264   4.380   8.894   2.131  3.3485 -2.5841 -2.4509
  263MOL0     H36265   4.315   8.896   1.975  1.5818 -0.4578 -0.3862
  263MOL0     H36266   4.197   9.103   1.982 -1.3455 -0.4996 -1.2509
  263MOL0     H36267   4.148   8.998   2.101  0.0702 -1.2182 -2.2746
  263MOL0     H36268   4.279   9.259   2.119  0.2981  3.3454  3.5916
  263MOL0     H36269   4.362   9.143   2.228  0.2941  1.8773 -0.4475
  263MOL0     H36270   4.106   9.095   2.313 -3.1687  1.0849  0.2644
  263MOL0     H36271   4.073   9.246   2.224  2.8331 -0.2370 -3.6097
  263MOL0     H36272   4.291   9.336   2.353  1.3103 -1.5187 -1.1157
  263MOL0     H36273   4.255   9.203   2.465 -0.6272  0.1105  0.2850
  263MOL0     H36274   4.984   8.948   2.048 -1.7962  0.5541  0.9054
  263MOL0     H36275   5.216   8.982   1.971  0.2751  0.3584  2.6981
  263MOL0     H36276   5.496   9.564   1.801  0.4153 -1.1205 -1.6978
  263MOL0     H36277   5.728   9.622   1.830 -1.6422 -0.0242 -0.0715
  263MOL0     H36278   6.722   9.929   2.088 -1.0989 -0.3974 -0.3141
  263MOL0     H36279   6.496   9.870   1.999  0.0048 -0.6507 -0.8057
  263MOL0     H36280   6.232   9.953   1.571  0.8270 -0.4869  0.0972
  263MOL0     H36281   6.016   9.849   1.484  1.4253  3.3990 -1.3588
  263MOL0     H36282   5.620   9.911   1.650  1.2749 -2.9852  2.4311
  263MOL0     H36283   5.761  10.008   1.616  0.5288 -0.1232  0.9277
  263MOL0     H36284   5.674   9.806   1.408  0.4260  0.5074 -3.5462
  263MOL0     H36285   5.784   9.951   1.403  0.2903  2.6385  2.4457
  263MOL0     H36286   5.479   9.953   1.455 -0.2141  1.3942 -0.3017
  263MOL0     H36287   5.577  10.096   1.421 -2.0705  1.1484 -1.4019
  263MOL0     H36288   5.424   9.961   1.244 -0.4529 -1.1407  0.9736
  263MOL0     H36289   5.586   9.878   1.213 -0.1771 -0.2950 -0.1590
  263MOL0     H36290   5.646  10.241   1.035  0.5724 -2.2154 -1.1189
  263MOL0     H36291   5.864   9.856   1.883 -1.5972  0.7716 -1.2191
  263MOL0     H36292   5.985   9.999   2.065 -0.7419 -2.9049  1.5702
  263MOL0     H36293   6.075   9.846   2.061  0.7365 -0.2593 -1.1355
  263MOL0     H36294   6.163   9.991   2.045 -1.3944  2.3477  0.8630
  264MOL0     O36295   5.438   4.242   5.062  1.1062 -0.1407  0.2429
  264MOL0     C36296   5.413   4.149   5.137  0.5272 -0.1625 -0.3432
  264MOL0     O36297   5.501   4.044   5.168  0.0714  0.3053 -0.3989
  264MOL0     C36298   5.625   4.044   5.105 -0.0890 -0.6404 -0.2251
  264MOL0     C36299   5.725   4.118   5.170  0.6117 -0.3436  0.9779
  264MOL0     C36300   5.857   4.119   5.116  0.3150 -0.5624  1.1191
  264MOL0     C36301   5.893   4.037   5.016 -0.1506 -0.4258  1.1184
  264MOL0     O36302   6.031   4.040   4.977 -0.0199  0.6649 -0.2603
  264MOL0     C36303   6.089   3.912   4.959 -0.3513 -0.0010 -0.4894
  264MOL0     C36304   6.172   3.925   4.839  0.1038 -0.0235  1.1510
  264MOL0     C36305   6.302   4.004   4.850 -0.1049  0.3744 -0.0285
  264MOL0     C36306   6.411   3.992   4.742  0.6963  0.3110 -0.0272
  264MOL0     C36307   6.520   4.092   4.770 -0.1636  0.0478  0.2493
  264MOL0     C36308   6.607   4.089   4.644 -0.2939  0.3914  0.0251
  264MOL0     C36309   6.735   4.169   4.660 -0.5465 -0.6568 -0.1152
  264MOL0     C36310   6.722   4.316   4.622  0.6655  0.0277  1.7797
  264MOL0     N36311   6.852   4.380   4.601 -0.2027 -0.4448 -0.3340
  264MOL0     C36312   6.870   4.502   4.560  0.3644 -1.1961 -0.1477
  264MOL0     C36313   7.008   4.522   4.552  0.2205 -0.0787  0.4933
  264MOL0     C36314   7.072   4.652   4.500  0.1438 -0.5545  0.1605
  264MOL0     C36315   7.002   4.780   4.557  0.3419  0.9948 -0.1850
  264MOL0     C36316   6.996   4.890   4.447  0.2075  0.5802 -0.2949
  264MOL0     C36317   7.147   4.936   4.428  0.2896 -0.0359 -0.4845
  264MOL0     O36318   7.127   5.059   4.347  0.1412 -0.7465 -0.0655
  264MOL0     C36319   7.241   5.146   4.329 -0.2819  0.4736  0.5151
  264MOL0     C36320   7.217   5.261   4.261 -0.2500 -0.3828 -0.2418
  264MOL0     C36321   7.326   5.356   4.243  0.0831  0.4960 -0.5610
  264MOL0     C36322   7.288   5.476   4.165  0.3059 -0.6557  0.3318
  264MOL0     C36323   7.457   5.324   4.296  0.3749 -0.7659 -0.0303
  264MOL0     C36324   7.577   5.411   4.270 -0.0528 -0.1647 -0.0653
  264MOL0     O36325   7.698   5.381   4.319  0.0023 -0.6899  0.0109
  264MOL0     C36326   7.807   5.461   4.300 -0.6336  0.2722  0.2011
  264MOL0     C36327   7.927   5.394   4.301  0.6615  0.9290 -0.0413
  264MOL0     C36328   8.050   5.451   4.283 -0.5015  1.0855  0.1960
  264MOL0     C36329   8.058   5.590   4.253  0.0337  0.4924  0.5036
  264MOL0     O36330   8.166   5.651   4.202 -0.7699 -0.7390 -0.5840
  264MOL0     C36331   8.287   5.628   4.284  0.3138  0.0553 -0.1895
  264MOL0     C36332   8.388   5.733   4.250 -0.4691 -0.0896  0.2132
  264MOL0     C36333   8.510   5.704   4.321 -0.4259  0.2808  0.6285
  264MOL0     C36334   8.616   5.808   4.318 -0.0367 -0.8244 -0.2248
  264MOL0     C36335   8.732   5.790   4.409  0.1566 -1.0261  0.2514
  264MOL0     C36336   8.836   5.691   4.350 -0.2840 -0.0506 -0.2647
  264MOL0     C36337   8.944   5.667   4.459 -0.0384 -0.0986  0.4600
  264MOL0     C36338   9.015   5.524   4.435  0.3724 -0.0944  0.5374
  264MOL0    Cl36339   9.094   5.543   4.271  0.4413  0.1518 -0.0942
  264MOL0     C36340   7.940   5.653   4.237  0.6103  1.2338  0.1374
  264MOL0     C36341   7.813   5.601   4.267  0.5997 -0.1076  0.0868
  264MOL0     O36342   7.549   5.517   4.224  0.0463 -0.3185 -0.9731
  264MOL0     C36343   7.475   5.204   4.358  0.4905  0.6273 -0.0841
  264MOL0     C36344   7.364   5.118   4.374  0.6453  0.1456 -0.4953
  264MOL0     N36345   7.070   4.408   4.588  0.3614 -0.5399 -0.0103
  264MOL0     N36346   6.972   4.325   4.612  1.5550 -0.9819  0.1461
  264MOL0     C36347   5.791   3.973   4.941 -1.0012  1.1434 -0.2741
  264MOL0     C36348   5.660   3.965   4.988 -0.0234 -1.1225 -0.0228
  264MOL0     C36349   5.288   4.154   5.211  0.0218  0.4355  0.8612
  264MOL0     C36350   5.232   4.033   5.251  0.2820  0.4020 -0.1547
  264MOL0     C36351   5.103   4.034   5.287 -0.5456  0.3658 -0.4037
  264MOL0     C36352   5.025   4.146   5.315  0.8055  0.3350  0.1854
  264MOL0     O36353   4.894   4.124   5.362  0.1058  0.6752 -0.2716
  264MOL0     C36354   4.805   4.234   5.369  0.6996  0.0656 -0.9940
  264MOL0     C36355   4.716   4.213   5.500  0.2665  0.5090 -1.4200
  264MOL0     C36356   4.625   4.095   5.483 -0.5538  0.5164 -1.0761
  264MOL0     C36357   4.513   4.095   5.593  0.3166 -0.5570 -0.2270
  264MOL0     C36358   4.414   4.195   5.573  0.1423 -0.9947  0.9671
  264MOL0     C36359   4.320   4.275   5.587  0.1480  0.0751  0.7215
  264MOL0     C36360   5.088   4.264   5.288  0.7506  0.2850 -0.1396
  264MOL0     C36361   5.216   4.277   5.240 -0.5359 -0.5424  0.7211
  264MOL0     C36362   5.270   4.418   5.211  0.7181 -0.8832  0.8713
  264MOL0     H36363   5.710   4.190   5.249  1.4707  0.6822  0.2428
  264MOL0     H36364   5.941   4.176   5.155  0.8615  0.1727 -1.0280
  264MOL0     H36365   6.015   3.836   4.932  0.1649  0.4948 -3.6440
  264MOL0     H36366   6.146   3.883   5.048 -3.3364 -1.9072  0.9440
  264MOL0     H36367   6.188   3.830   4.787  1.3277 -0.2304  1.8703
  264MOL0     H36368   6.104   3.978   4.772  0.3405 -2.1813 -0.9135
  264MOL0     H36369   6.272   4.108   4.860  0.1653  0.2772  2.4031
  264MOL0     H36370   6.335   3.974   4.949 -1.7065 -0.5136  0.2662
  264MOL0     H36371   6.454   3.891   4.746  1.2437  0.4571 -1.4997
  264MOL0     H36372   6.359   4.004   4.647 -0.0298 -0.3765  0.2762
  264MOL0     H36373   6.572   4.047   4.855 -2.6630 -0.4991  1.5760
  264MOL0     H36374   6.473   4.190   4.784  0.4949  0.4718 -0.3858
  264MOL0     H36375   6.635   3.985   4.627  0.1644  0.6725 -1.0070
  264MOL0     H36376   6.551   4.118   4.555 -2.0878 -0.2501  0.8786
  264MOL0     H36377   6.805   4.123   4.590  0.3792  0.7076 -0.1189
  264MOL0     H36378   6.781   4.165   4.759  0.9143  0.1908 -0.7371
  264MOL0     H36379   6.674   4.327   4.525  0.9134 -1.4914  1.4595
  264MOL0     H36380   6.655   4.377   4.684 -1.1602  0.0614 -0.1250
  264MOL0     H36381   6.798   4.570   4.516 -0.3316 -2.2262 -0.6196
  264MOL0     H36382   7.072   4.653   4.391  0.4574  1.3370  0.1499
  264MOL0     H36383   7.175   4.644   4.535  0.9152  1.9107 -1.3057
  264MOL0     H36384   6.899   4.760   4.588 -0.1230 -3.1118 -3.4874
  264MOL0     H36385   7.064   4.798   4.645  0.0574 -2.5609  0.9172
  264MOL0     H36386   6.952   4.867   4.350  0.3216  1.5672 -0.5871
  264MOL0     H36387   6.944   4.978   4.487 -0.9662 -0.1242 -0.2425
  264MOL0     H36388   7.189   4.964   4.524  0.2223  0.4864 -0.6038
  264MOL0     H36389   7.209   4.864   4.373  1.1572  0.4115 -0.1050
  264MOL0     H36390   7.119   5.282   4.219  0.5243  0.2794 -1.8030
  264MOL0     H36391   7.179   5.473   4.150  0.5597 -1.9066 -1.6687
  264MOL0     H36392   7.343   5.470   4.071 -0.3713  1.2099 -0.2318
  264MOL0     H36393   7.313   5.575   4.204  0.9862  1.0545 -3.8957
  264MOL0     H36394   7.926   5.288   4.323  0.2065  1.1320  0.9592
  264MOL0     H36395   8.136   5.386   4.273 -0.1112  1.7132 -0.7070
  264MOL0     H36396   8.261   5.628   4.390 -0.4616 -0.6529 -0.3626
  264MOL0     H36397   8.326   5.527   4.274 -0.7667 -0.1972 -2.7489
  264MOL0     H36398   8.421   5.738   4.146  3.0206  2.7423  1.2335
  264MOL0     H36399   8.351   5.834   4.274 -0.6961  0.7136 -3.0574
  264MOL0     H36400   8.553   5.609   4.289  1.1809  1.1938 -0.0457
  264MOL0     H36401   8.498   5.696   4.430  4.8163 -4.0931  1.3331
  264MOL0     H36402   8.576   5.906   4.344  1.8147 -0.4458  1.4729
  264MOL0     H36403   8.668   5.821   4.223  1.2213  2.2360  0.7390
  264MOL0     H36404   8.773   5.891   4.422  1.4818 -1.7158  1.8040
  264MOL0     H36405   8.707   5.760   4.511  2.1909 -0.1987  1.0565
  264MOL0     H36406   8.882   5.722   4.256 -0.8300 -1.7071 -1.1166
  264MOL0     H36407   8.788   5.593   4.342  0.7088 -1.0058  3.4973
  264MOL0     H36408   8.893   5.654   4.554 -2.6742  1.5582 -0.6234
  264MOL0     H36409   9.014   5.751   4.463 -2.8564  2.5284 -1.1079
  264MOL0     H36410   8.937   5.447   4.428 -1.4644  1.4541  2.4416
  264MOL0     H36411   9.078   5.487   4.517  1.0717 -2.2070 -0.8761
  264MOL0     H36412   7.950   5.758   4.209  0.8824  1.7141  1.9029
  264MOL0     H36413   7.723   5.661   4.278 -0.7203 -2.0326  0.4133
  264MOL0     H36414   7.571   5.159   4.380  0.6764  0.6890 -0.7385
  264MOL0     H36415   7.393   5.019   4.407  0.3716  1.3565  4.1066
  264MOL0     H36416   5.808   3.910   4.855 -0.8504  2.0298 -0.9097
  264MOL0     H36417   5.591   3.898   4.937  2.2284 -2.2720 -1.7172
  264MOL0     H36418   5.282   3.939   5.230  0.8730  0.3072  1.5709
  264MOL0     H36419   5.062   3.934   5.288 -0.3361  0.2348 -1.8257
  264MOL0     H36420   4.864   4.326   5.380  2.9324 -0.8856 -3.6429
  264MOL0     H36421   4.737   4.247   5.285 -2.5077  0.3694  1.4871
  264MOL0     H36422   4.650   4.299   5.516  0.4614  0.3824  0.2527
  264MOL0     H36423   4.773   4.203   5.592 -1.5115  0.3170 -0.2915
  264MOL0     H36424   4.583   4.093   5.382  0.1196 -2.1271 -1.3692
  264MOL0     H36425   4.681   4.002   5.498  1.0458  1.6905  0.7107
  264MOL0     H36426   4.553   4.123   5.691  0.2300  1.4877 -0.7392
  264MOL0     H36427   4.466   3.996   5.596 -0.8053 -0.0547 -0.8694
  264MOL0     H36428   4.244   4.351   5.590  2.6243  2.7021  1.4404
  264MOL0     H36429   5.034   4.357   5.300  2.4812  1.4757 -1.2283
  264MOL0     H36430   5.209   4.503   5.244  1.7289 -0.3480  1.4141
  264MOL0     H36431   5.364   4.420   5.266  0.9000  1.1460  0.5602
  264MOL0     H36432   5.294   4.425   5.104  4.5790 -0.0356  1.6523
  265MOL0     O36433   3.377   6.309   1.801 -0.4574 -0.2184 -0.2184
  265MOL0     C36434   3.404   6.335   1.686  0.6502  0.4180  0.2661
  265MOL0     O36435   3.517   6.302   1.614  0.5119  0.1871 -0.1277
  265MOL0     C36436   3.621   6.233   1.658 -1.2389  0.1926  0.0374
  265MOL0     C36437   3.636   6.172   1.783 -0.0481  0.6336  0.6723
  265MOL0     C36438   3.756   6.104   1.818  0.0601 -0.2243 -0.2089
  265MOL0     C36439   3.863   6.092   1.729  0.8352 -0.6027  0.0027
  265MOL0     O36440   3.973   6.016   1.755 -0.1640  0.0267  0.9225
  265MOL0     C36441   3.947   5.902   1.827 -0.5361  0.7507  0.6467
  265MOL0     C36442   4.061   5.798   1.807  0.1028 -0.7846  0.3901
  265MOL0     C36443   4.196   5.841   1.863  0.3649  0.8521  0.5587
  265MOL0     C36444   4.302   5.739   1.835 -0.2181  0.4442 -0.4721
  265MOL0     C36445   4.382   5.730   1.968 -0.2004 -0.0410  0.0955
  265MOL0     C36446   4.495   5.634   1.944  0.3485 -0.9190 -0.3790
  265MOL0     C36447   4.606   5.638   2.046 -0.0703  0.3124 -0.9287
  265MOL0     C36448   4.571   5.553   2.168 -0.6804 -0.1957  0.3664
  265MOL0     N36449   4.685   5.493   2.232 -0.1258 -0.3904  0.0273
  265MOL0     C36450   4.818   5.541   2.242 -0.1222  0.1229  0.2618
  265MOL0     C36451   4.884   5.448   2.325 -0.2906 -0.3805  0.3796
  265MOL0     C36452   5.037   5.457   2.369 -0.1306 -0.3288  0.2368
  265MOL0     C36453   5.145   5.413   2.266 -0.2009 -0.1501 -0.7155
  265MOL0     C36454   5.281   5.427   2.323  0.3947 -0.0998  0.1579
  265MOL0     C36455   5.377   5.371   2.215 -0.1427  0.1404  0.5210
  265MOL0     O36456   5.509   5.370   2.265 -0.6397  0.7557  0.2311
  265MOL0     C36457   5.619   5.388   2.188 -0.4116 -0.6482  0.8959
  265MOL0     C36458   5.615   5.411   2.053 -0.4426  0.4918 -0.1533
  265MOL0     C36459   5.732   5.424   1.970  0.5015 -0.1689  0.2737
  265MOL0     C36460   5.706   5.456   1.827  0.4582 -0.1574  0.6484
  265MOL0     C36461   5.861   5.412   2.032  0.0985  0.4302 -0.9841
  265MOL0     C36462   5.994   5.430   1.959  0.9813  0.1681 -0.2152
  265MOL0     O36463   6.102   5.416   2.040 -0.7542  0.4284  0.0965
  265MOL0     C36464   6.229   5.449   1.996  0.7780 -0.1355 -0.8581
  265MOL0     C36465   6.269   5.526   1.888 -0.0377  0.1679  0.1446
  265MOL0     C36466   6.402   5.556   1.869  0.0184 -0.0143  0.1652
  265MOL0     C36467   6.502   5.501   1.949  0.2626  0.5251  0.9532
  265MOL0     O36468   6.627   5.526   1.906 -0.2255  0.7524 -0.3332
  265MOL0     C36469   6.743   5.434   1.925  0.3899  0.4779 -0.5880
  265MOL0     C36470   6.868   5.498   1.884 -1.1190  0.0186  0.0347
  265MOL0     C36471   6.899   5.623   1.969  0.1835  0.2209  0.2974
  265MOL0     C36472   7.026   5.685   1.915 -0.0945  0.0146  0.3597
  265MOL0     C36473   7.090   5.788   2.008 -0.3786 -0.3631  0.5826
  265MOL0     C36474   7.231   5.830   1.955  0.7600 -0.1525  0.4115
  265MOL0     C36475   7.331   5.874   2.066 -0.7734  0.4773 -0.1076
  265MOL0     C36476   7.460   5.925   1.991 -0.1132 -0.3519 -0.7816
  265MOL0    Cl36477   7.598   5.938   2.121 -0.2613  0.3290  0.1510
  265MOL0     C36478   6.466   5.424   2.056 -0.2288 -1.9049 -0.4657
  265MOL0     C36479   6.333   5.397   2.085 -0.1154  0.2544  0.3505
  265MOL0     O36480   5.996   5.453   1.842 -0.3882  0.0532 -0.0412
  265MOL0     C36481   5.861   5.383   2.172 -0.3066 -0.9054 -0.1592
  265MOL0     C36482   5.739   5.384   2.247 -0.7826 -0.2391 -0.8847
  265MOL0     N36483   4.791   5.345   2.361 -0.3775  0.1289 -0.6094
  265MOL0     N36484   4.685   5.378   2.301  1.1248  0.4844  0.1095
  265MOL0     C36485   3.853   6.159   1.604 -0.0356  0.0534  0.2646
  265MOL0     C36486   3.736   6.230   1.574 -0.1276  0.7662  0.3211
  265MOL0     C36487   3.291   6.425   1.630  0.2290  0.2868  0.2091
  265MOL0     C36488   3.171   6.443   1.699  0.0632  0.1455  0.9291
  265MOL0     C36489   3.060   6.512   1.640 -0.9954 -0.4462 -0.4338
  265MOL0     C36490   3.076   6.580   1.522 -0.4001  0.3721  0.0670
  265MOL0     O36491   2.979   6.640   1.443  0.3321 -0.2109 -0.3942
  265MOL0     C36492   2.838   6.617   1.475 -0.1351  1.0652  1.2013
  265MOL0     C36493   2.777   6.722   1.570  0.0750 -0.4317 -0.3409
  265MOL0     C36494   2.637   6.661   1.612  0.2300  0.2522  0.3208
  265MOL0     C36495   2.591   6.756   1.732 -0.0405  0.0886 -0.2696
  265MOL0     C36496   2.467   6.714   1.794  0.5493 -0.0052  0.1462
  265MOL0     C36497   2.362   6.661   1.831  0.1454 -0.4226 -0.3599
  265MOL0     C36498   3.202   6.594   1.468 -0.1707  0.0932  0.5751
  265MOL0     C36499   3.302   6.511   1.512 -0.8843  0.3251  0.4144
  265MOL0     C36500   3.431   6.512   1.428 -0.4028 -0.3920 -0.5913
  265MOL0     H36501   3.548   6.164   1.846 -1.6606 -2.0500 -1.7230
  265MOL0     H36502   3.756   6.051   1.912  1.3050 -0.0451 -0.0851
  265MOL0     H36503   3.848   5.864   1.800 -0.8043  1.7800  0.1459
  265MOL0     H36504   3.946   5.925   1.934 -2.5830  2.8015  0.2614
  265MOL0     H36505   4.032   5.699   1.844  1.2624 -0.0931  3.4965
  265MOL0     H36506   4.075   5.789   1.699  1.2960 -0.0964  0.4641
  265MOL0     H36507   4.217   5.922   1.793  0.0802 -2.0910 -3.3042
  265MOL0     H36508   4.182   5.890   1.960  3.1478 -0.0212  1.5098
  265MOL0     H36509   4.261   5.641   1.809  0.6909 -0.4844  1.3800
  265MOL0     H36510   4.366   5.781   1.756 -0.3043  0.3403 -0.5956
  265MOL0     H36511   4.318   5.691   2.048  1.1357 -0.6155  0.9221
  265MOL0     H36512   4.430   5.819   2.008  0.5081 -0.7746  0.9175
  265MOL0     H36513   4.449   5.534   1.943  0.1855 -1.0227 -4.7474
  265MOL0     H36514   4.539   5.649   1.845 -2.0404  2.2846 -1.1256
  265MOL0     H36515   4.609   5.746   2.064  0.6999  0.4446 -1.7682
  265MOL0     H36516   4.701   5.609   2.000  0.2993 -0.4445  0.2600
  265MOL0     H36517   4.518   5.609   2.245  0.6558  0.3528  0.9118
  265MOL0     H36518   4.514   5.463   2.143  0.5988 -0.4542 -1.8539
  265MOL0     H36519   4.867   5.623   2.191  0.1219 -0.1519  0.0519
  265MOL0     H36520   5.054   5.390   2.454  0.9561 -1.5023 -0.8651
  265MOL0     H36521   5.058   5.562   2.392 -1.3084  0.2706 -1.2343
  265MOL0     H36522   5.124   5.306   2.253  2.7072 -0.9707  0.6347
  265MOL0     H36523   5.144   5.475   2.176  1.1322  3.6775  1.6771
  265MOL0     H36524   5.304   5.529   2.353  0.4781 -0.5054  1.5094
  265MOL0     H36525   5.287   5.376   2.420  2.5141  1.9157  1.1817
  265MOL0     H36526   5.350   5.269   2.189 -2.1966  0.9609 -0.8525
  265MOL0     H36527   5.365   5.433   2.125 -0.6398 -0.7523 -0.0442
  265MOL0     H36528   5.516   5.416   2.008 -0.1049 -1.7992 -1.3122
  265MOL0     H36529   5.602   5.474   1.798  1.0042  0.4558 -1.0701
  265MOL0     H36530   5.744   5.376   1.762 -0.8173 -2.0298  2.1138
  265MOL0     H36531   5.749   5.556   1.808 -1.3943  0.7604  1.1153
  265MOL0     H36532   6.203   5.560   1.809  0.5093  0.0682 -0.3616
  265MOL0     H36533   6.435   5.615   1.784  2.4568 -0.5460  0.6814
  265MOL0     H36534   6.743   5.420   2.034  0.8791  1.9544 -0.3726
  265MOL0     H36535   6.723   5.336   1.883 -2.9261  0.7697 -0.0140
  265MOL0     H36536   6.956   5.434   1.893  1.5548  3.2304 -1.6066
  265MOL0     H36537   6.847   5.530   1.782  0.0395  1.6717  0.2949
  265MOL0     H36538   6.902   5.591   2.073 -2.1053 -0.2969  0.2743
  265MOL0     H36539   6.823   5.699   1.947  2.5858  2.1701 -1.9399
  265MOL0     H36540   7.019   5.731   1.816  1.2478  1.4981  0.9114
  265MOL0     H36541   7.100   5.604   1.910  0.4870  0.5651 -0.2032
  265MOL0     H36542   7.035   5.881   2.024  0.2511 -0.2523  2.2806
  265MOL0     H36543   7.099   5.752   2.111  1.2387  5.3164  2.8028
  265MOL0     H36544   7.217   5.914   1.887  2.0835  0.9970  1.4949
  265MOL0     H36545   7.268   5.744   1.898  0.1721  1.0615 -1.9219
  265MOL0     H36546   7.345   5.788   2.132 -0.1498  0.3819 -0.3639
  265MOL0     H36547   7.283   5.953   2.125 -0.6194 -0.1297  0.8507
  265MOL0     H36548   7.429   6.022   1.952 -0.4025 -0.3250 -0.4964
  265MOL0     H36549   7.497   5.855   1.915  2.1103 -1.6082  1.3140
  265MOL0     H36550   6.536   5.379   2.126  0.0946 -2.1230 -0.9207
  265MOL0     H36551   6.300   5.349   2.176  0.3573 -0.3407  0.2174
  265MOL0     H36552   5.958   5.375   2.218  0.4489 -1.9897 -1.8318
  265MOL0     H36553   5.755   5.384   2.354  0.0282 -2.8952 -0.9199
  265MOL0     H36554   3.926   6.166   1.524 -0.0420 -0.0688  0.2490
  265MOL0     H36555   3.747   6.288   1.483  3.0320  1.5193  1.0317
  265MOL0     H36556   3.135   6.375   1.776 -1.5670 -1.7655 -1.3795
  265MOL0     H36557   2.960   6.491   1.677 -0.3869 -0.7690  1.0699
  265MOL0     H36558   2.787   6.634   1.380  2.2785 -0.6070 -0.5040
  265MOL0     H36559   2.824   6.511   1.498 -1.3980  0.4171 -2.1245
  265MOL0     H36560   2.760   6.817   1.518  2.1821 -0.5754 -1.3822
  265MOL0     H36561   2.826   6.741   1.666 -1.2232  0.9912  0.0870
  265MOL0     H36562   2.565   6.652   1.530 -0.4991  0.5620  0.9202
  265MOL0     H36563   2.654   6.560   1.652 -0.4882 -0.5361 -1.2645
  265MOL0     H36564   2.578   6.849   1.678  1.2073  0.2976 -0.2277
  265MOL0     H36565   2.674   6.769   1.802  1.4305  0.3454 -1.9992
  265MOL0     H36566   2.273   6.617   1.871 -0.4386  0.3684 -0.7493
  265MOL0     H36567   3.222   6.639   1.371  0.8842  0.2504  0.8627
  265MOL0     H36568   3.516   6.550   1.487 -0.6881  2.5932 -1.9304
  265MOL0     H36569   3.443   6.415   1.379  1.4894 -0.3369 -0.3237
  265MOL0     H36570   3.429   6.595   1.357  0.2128  0.9023  0.8243
  266MOL0     O36571   1.473   2.520   5.059  0.3264  0.0828  1.0586
  266MOL0     C36572   1.444   2.632   5.012 -0.3248 -0.9727  0.1151
  266MOL0     O36573   1.524   2.706   4.926 -0.2314 -0.2865  0.3396
  266MOL0     C36574   1.659   2.677   4.920 -0.0454 -0.1212  0.8794
  266MOL0     C36575   1.733   2.707   5.033 -0.1541  0.1443  0.5211
  266MOL0     C36576   1.873   2.720   5.018 -0.1143 -0.3367  0.8823
  266MOL0     C36577   1.940   2.691   4.900  0.9589  0.1163 -0.1960
  266MOL0     O36578   2.070   2.708   4.869 -0.6211  0.5933 -0.3661
  266MOL0     C36579   2.153   2.630   4.958 -0.5877 -0.3962  0.3728
  266MOL0     C36580   2.284   2.588   4.888  0.6814  0.3897  0.7884
  266MOL0     C36581   2.354   2.708   4.815  1.2263  0.4427 -0.2438
  266MOL0     C36582   2.486   2.671   4.747  0.3242  0.1138  0.4260
  266MOL0     C36583   2.523   2.781   4.641 -0.5151  0.2645  0.1183
  266MOL0     C36584   2.572   2.907   4.700 -0.3939  0.8528 -0.0280
  266MOL0     C36585   2.621   3.020   4.619  0.4731 -0.9073  0.3875
  266MOL0     C36586   2.507   3.099   4.554  0.4449 -0.0280 -0.2903
  266MOL0     N36587   2.552   3.226   4.512  0.3486  0.5849 -0.0402
  266MOL0     C36588   2.517   3.337   4.574  0.2948  0.4800 -0.6597
  266MOL0     C36589   2.565   3.443   4.506 -0.1808  0.5020 -0.2274
  266MOL0     C36590   2.515   3.584   4.508  0.4208 -0.4776 -0.7053
  266MOL0     C36591   2.506   3.638   4.644  0.1188  0.1413 -0.3937
  266MOL0     C36592   2.461   3.790   4.649  1.5519  0.0547 -0.0270
  266MOL0     C36593   2.441   3.847   4.794 -0.3540  0.2065  0.0548
  266MOL0     O36594   2.370   3.758   4.879 -0.2635  0.7479 -0.4290
  266MOL0     C36595   2.232   3.760   4.883 -0.9103  0.0823 -0.4988
  266MOL0     C36596   2.145   3.847   4.817  0.1221 -0.2364 -0.0827
  266MOL0     C36597   2.009   3.869   4.850  0.9105  0.0370  0.0216
  266MOL0     C36598   1.932   3.973   4.774 -0.3370 -0.1551  0.4768
  266MOL0     C36599   1.949   3.777   4.938  0.4133  0.8657  0.2586
  266MOL0     C36600   1.807   3.780   4.984 -0.5684  0.7851  0.8679
  266MOL0     O36601   1.783   3.683   5.072  0.6008 -0.1617  0.1177
  266MOL0     C36602   1.659   3.674   5.117  0.2823  0.5757 -1.1567
  266MOL0     C36603   1.599   3.779   5.172 -0.0977  0.9277 -0.0831
  266MOL0     C36604   1.465   3.775   5.214 -0.2517 -0.8377 -0.5909
  266MOL0     C36605   1.391   3.656   5.199  0.0725  0.0279 -0.9583
  266MOL0     O36606   1.255   3.664   5.225 -0.3875  0.2048  0.3353
  266MOL0     C36607   1.176   3.546   5.225  0.2501  0.0634  0.4025
  266MOL0     C36608   1.039   3.572   5.292 -0.1710  0.6658  0.5617
  266MOL0     C36609   0.952   3.652   5.194 -0.7783  0.3476 -0.7845
  266MOL0     C36610   0.839   3.710   5.274 -0.1087 -0.1294 -0.6192
  266MOL0     C36611   0.753   3.796   5.183 -0.2344 -0.0228  0.4291
  266MOL0     C36612   0.615   3.821   5.244 -0.1744 -0.3346 -0.5650
  266MOL0     C36613   0.537   3.920   5.159 -0.7021  0.0028 -0.3503
  266MOL0     C36614   0.390   3.944   5.206  0.1981  0.3360  0.1985
  266MOL0    Cl36615   0.374   4.042   5.343  0.1804 -0.3322 -0.0684
  266MOL0     C36616   1.459   3.542   5.146 -0.2673 -0.2964 -0.1413
  266MOL0     C36617   1.593   3.556   5.104  0.4955  0.5641 -0.7471
  266MOL0     O36618   1.726   3.866   4.940 -0.1588  0.4498  0.1128
  266MOL0     C36619   2.031   3.678   4.994 -0.3690  1.6816  0.6430
  266MOL0     C36620   2.168   3.674   4.970 -0.3058  0.2119 -0.0534
  266MOL0     N36621   2.645   3.392   4.408 -0.7188  0.1904  0.2190
  266MOL0     N36622   2.642   3.261   4.411 -0.3258 -0.4079 -0.8807
  266MOL0     C36623   1.864   2.645   4.794  0.1479  0.5270 -0.1741
  266MOL0     C36624   1.724   2.642   4.800 -0.0228  0.9028 -1.0430
  266MOL0     C36625   1.304   2.681   5.028 -0.5758 -0.9912 -0.2111
  266MOL0     C36626   1.250   2.756   4.923 -0.5282 -0.3544  0.4253
  266MOL0     C36627   1.123   2.813   4.926  0.2519 -0.0873  0.5326
  266MOL0     C36628   1.042   2.788   5.040 -0.0740  0.0625 -0.3183
  266MOL0     O36629   0.902   2.817   5.023  0.2067  0.2152 -0.8520
  266MOL0     C36630   0.809   2.795   5.136  0.0654 -0.5524 -0.5242
  266MOL0     C36631   0.671   2.856   5.100  0.2788 -0.1543 -0.6048
  266MOL0     C36632   0.615   2.807   4.960 -0.1138 -0.5818  0.8051
  266MOL0     C36633   0.465   2.836   4.959  0.1768  0.2508 -0.3613
  266MOL0     C36634   0.417   2.851   4.817  0.3416 -0.1231  0.2450
  266MOL0     C36635   0.375   2.882   4.708 -0.6896 -0.3911 -0.3047
  266MOL0     C36636   1.102   2.720   5.149 -0.5074  0.2838 -0.1906
  266MOL0     C36637   1.229   2.665   5.146 -0.7633 -0.1192 -0.3594
  266MOL0     C36638   1.284   2.598   5.274  0.0071  0.8856  0.0828
  266MOL0     H36639   1.684   2.746   5.122  0.5397  2.0301  0.1190
  266MOL0     H36640   1.925   2.761   5.103 -1.1380  0.0458  1.3299
  266MOL0     H36641   2.116   2.533   4.991 -2.3051 -0.3874 -1.3367
  266MOL0     H36642   2.179   2.697   5.041  3.5661  1.3013 -1.9667
  266MOL0     H36643   2.346   2.550   4.969  0.9781  0.3330  0.5324
  266MOL0     H36644   2.265   2.504   4.820 -0.7726  0.7024  0.7630
  266MOL0     H36645   2.291   2.763   4.745  3.0806  0.8085 -1.6874
  266MOL0     H36646   2.374   2.776   4.899  1.2520 -0.6148  0.6282
  266MOL0     H36647   2.555   2.651   4.829 -1.5257  0.2914  2.0899
  266MOL0     H36648   2.469   2.581   4.687 -3.5405  1.9487 -1.6563
  266MOL0     H36649   2.436   2.804   4.579 -0.1743 -0.7410 -0.7630
  266MOL0     H36650   2.597   2.742   4.570  0.8823 -1.4878  2.4180
  266MOL0     H36651   2.500   2.948   4.772 -0.3131  0.1948  0.4310
  266MOL0     H36652   2.653   2.875   4.766  1.2917  0.1017 -2.3330
  266MOL0     H36653   2.689   2.986   4.540  1.8809  2.3030  0.0566
  266MOL0     H36654   2.683   3.080   4.685  1.5866 -1.6407  0.0321
  266MOL0     H36655   2.467   3.041   4.470  0.1255  0.7813 -0.7074
  266MOL0     H36656   2.430   3.118   4.630 -0.1505 -1.3470 -0.5346
  266MOL0     H36657   2.443   3.346   4.653 -0.0136 -0.9928 -0.7469
  266MOL0     H36658   2.417   3.597   4.462  1.1805  0.0805 -2.2215
  266MOL0     H36659   2.584   3.653   4.459 -1.6395  0.8660 -1.8416
  266MOL0     H36660   2.422   3.594   4.698  0.1560  0.6544  0.0834
  266MOL0     H36661   2.592   3.615   4.706  1.1260  1.5209 -1.2188
  266MOL0     H36662   2.533   3.852   4.595  3.0499 -0.3908  1.3819
  266MOL0     H36663   2.366   3.797   4.596  0.8704  0.8429  1.2537
  266MOL0     H36664   2.535   3.871   4.845 -0.6008  2.4183 -0.4243
  266MOL0     H36665   2.388   3.941   4.775 -0.0409 -0.1368 -3.0321
  266MOL0     H36666   2.190   3.907   4.738 -1.9176  0.0471 -1.1104
  266MOL0     H36667   1.859   3.937   4.701  0.3502 -1.1275  0.2519
  266MOL0     H36668   1.998   4.037   4.715  2.2754 -2.7891  0.3104
  266MOL0     H36669   1.884   4.031   4.853  1.7599  1.7698  0.4275
  266MOL0     H36670   1.647   3.871   5.205 -1.7984  0.4991  4.2671
  266MOL0     H36671   1.416   3.865   5.252  1.6885  0.0339 -0.0423
  266MOL0     H36672   1.149   3.508   5.126  0.6617 -4.1979  1.6988
  266MOL0     H36673   1.226   3.457   5.264  0.6943 -0.6726 -1.6725
  266MOL0     H36674   0.993   3.475   5.311  3.9156 -1.3767  1.3781
  266MOL0     H36675   1.065   3.631   5.381 -0.3552 -0.1231  1.1476
  266MOL0     H36676   0.923   3.595   5.106  2.2774 -0.1754 -1.5580
  266MOL0     H36677   1.010   3.732   5.147  3.2643 -1.6316  0.4249
  266MOL0     H36678   0.872   3.776   5.355 -2.1886 -0.2638  0.3901
  266MOL0     H36679   0.785   3.623   5.312 -1.2296  0.5199 -0.6689
  266MOL0     H36680   0.799   3.892   5.158  0.6044 -0.8405 -1.3630
  266MOL0     H36681   0.750   3.745   5.087  2.3568 -0.5569  0.5573
  266MOL0     H36682   0.614   3.854   5.349 -6.2551  1.7510 -0.9258
  266MOL0     H36683   0.564   3.725   5.239  1.1961 -1.1001 -0.3056
  266MOL0     H36684   0.531   3.867   5.064  1.1398 -3.2578  1.1545
  266MOL0     H36685   0.591   4.015   5.164 -1.2752  0.3031  0.4990
  266MOL0     H36686   0.337   3.849   5.215 -1.5706  0.9812 -2.3057
  266MOL0     H36687   0.331   4.002   5.134  2.7137 -0.3505 -2.6313
  266MOL0     H36688   1.414   3.445   5.126  0.1098 -0.2097 -1.5822
  266MOL0     H36689   1.642   3.470   5.060  0.6602 -0.3559  1.1116
  266MOL0     H36690   1.995   3.615   5.075 -0.1586  1.3892  0.5128
  266MOL0     H36691   2.237   3.607   5.021 -0.5546  0.7167  0.9753
  266MOL0     H36692   1.913   2.619   4.701 -0.1121  0.4132 -0.2801
  266MOL0     H36693   1.667   2.607   4.714 -0.5095  3.5763 -1.9070
  266MOL0     H36694   1.299   2.788   4.832 -1.3131  2.8700  0.9834
  266MOL0     H36695   1.077   2.869   4.845 -0.9588 -3.1868 -1.1037
  266MOL0     H36696   0.802   2.689   5.160 -0.5920 -0.5354 -0.6105
  266MOL0     H36697   0.843   2.857   5.219 -0.8460  0.4117 -0.8471
  266MOL0     H36698   0.667   2.965   5.105  1.9499 -0.0045 -1.7426
  266MOL0     H36699   0.600   2.824   5.177  0.2867 -0.0895 -0.5702
  266MOL0     H36700   0.663   2.862   4.879 -0.2292  0.8198  1.6578
  266MOL0     H36701   0.625   2.700   4.937 -0.7367 -0.0964 -1.9684
  266MOL0     H36702   0.433   2.925   5.013 -0.5488  0.6553 -1.4219
  266MOL0     H36703   0.425   2.745   5.004  3.2309  0.8595  4.2432
  266MOL0     H36704   0.340   2.904   4.609 -2.3291 -1.2527  0.0470
  266MOL0     H36705   1.034   2.717   5.233  0.1754  2.3805  0.5030
  266MOL0     H36706   1.242   2.626   5.371  2.3253  0.4731  1.2555
  266MOL0     H36707   1.261   2.491   5.267 -1.6709  1.0849  1.6719
  266MOL0     H36708   1.390   2.619   5.291  0.4994 -0.4355 -1.1474
  267MOL0     O36709   1.771   7.184  10.772 -0.8311 -0.3830 -0.1442
  267MOL0     C36710   1.754   7.216  10.658  0.0377  0.2090 -0.4701
  267MOL0     O36711   1.631   7.213  10.596 -0.8066  0.1880  0.1401
  267MOL0     C36712   1.516   7.207  10.666  0.6778  0.3363  0.5110
  267MOL0     C36713   1.417   7.126  10.607 -0.0909  1.0998  0.0727
  267MOL0     C36714   1.294   7.110  10.665 -0.7731  1.0101 -0.1325
  267MOL0     C36715   1.272   7.169  10.793  0.1636  0.1725 -0.5278
  267MOL0     O36716   1.161   7.138  10.864  0.4245  0.3706  0.6134
  267MOL0     C36717   1.078   7.225  10.935  0.1995 -0.1120  0.6445
  267MOL0     C36718   0.931   7.185  10.920 -0.7623  0.2578 -0.0939
  267MOL0     C36719   0.890   7.168  10.776 -0.0737  0.0495 -0.4994
  267MOL0     C36720   0.880   7.305  10.700 -0.2886  0.2608 -0.8044
  267MOL0     C36721   0.828   7.278  10.559 -0.0039  0.2589  0.0612
  267MOL0     C36722   0.931   7.217  10.457  0.8339 -0.7269  0.1874
  267MOL0     C36723   0.888   7.247  10.309 -0.3260 -1.1598  0.8249
  267MOL0     C36724   0.794   7.139  10.258 -0.1078  0.0561  0.0161
  267MOL0     N36725   0.776   7.171  10.112  0.1836 -0.5281 -0.1825
  267MOL0     C36726   0.661   7.222  10.069  0.2175  0.4027 -0.0476
  267MOL0     C36727   0.676   7.207   9.937  0.8034  0.0109 -0.0139
  267MOL0     C36728   0.582   7.246   9.815  0.3041 -0.0093 -0.0670
  267MOL0     C36729   0.430   7.252   9.850 -0.2304 -1.1503 -0.8567
  267MOL0     C36730   0.351   7.245   9.725  0.1072  0.7218  0.6436
  267MOL0     C36731   0.203   7.253   9.728 -0.6036  0.1172 -0.2222
  267MOL0     O36732   0.161   7.378   9.800 -0.9876  0.1682  0.1738
  267MOL0     C36733   0.069   7.462   9.749 -0.2262 -0.3071  0.6290
  267MOL0     C36734  -0.063   7.418   9.745  0.6893 -0.1962  0.0418
  267MOL0     C36735  -0.162   7.507   9.702  1.8813  0.4382  1.1911
  267MOL0     C36736  -0.299   7.446   9.701  0.0853 -0.1276  0.3693
  267MOL0     C36737  -0.137   7.639   9.668 -1.0331  0.6322 -0.9816
  267MOL0     C36738  -0.234   7.738   9.640  0.7753  0.1539  0.5186
  267MOL0     O36739  -0.331   7.706   9.546 -0.1089 -0.0181 -0.9754
  267MOL0     C36740  -0.428   7.807   9.532  0.8753 -0.1481  0.0712
  267MOL0     C36741  -0.393   7.930   9.463  0.3563 -0.3852  0.1617
  267MOL0     C36742  -0.499   8.016   9.404 -0.2910 -1.0826 -0.1416
  267MOL0     C36743  -0.629   7.982   9.424  0.2598 -0.3214  0.7802
  267MOL0     O36744  -0.726   8.051   9.356 -0.0377 -0.2265 -0.0391
  267MOL0     C36745  -0.808   8.123   9.448  0.2245  0.4154  0.0496
  267MOL0     C36746  -0.933   8.179   9.383  0.5789 -0.1247  0.3718
  267MOL0     C36747  -1.020   8.271   9.478 -0.2020  0.0501  0.6492
  267MOL0     C36748  -0.991   8.417   9.442 -0.7657  0.7032  0.6472
  267MOL0     C36749  -1.014   8.522   9.552 -0.0191  0.6389  0.2690
  267MOL0     C36750  -0.913   8.640   9.532 -0.2212  0.4328 -0.4576
  267MOL0     C36751  -0.914   8.698   9.395  0.4399  0.2782  0.5407
  267MOL0     C36752  -1.046   8.768   9.359 -0.9251 -0.4836 -0.3684
  267MOL0    Cl36753  -1.028   8.877   9.213 -1.0219 -0.3705 -0.1718
  267MOL0     C36754  -0.661   7.860   9.493 -0.0545 -0.0397 -0.1983
  267MOL0     C36755  -0.555   7.771   9.532  0.9860 -0.3756 -0.2213
  267MOL0     O36756  -0.223   7.850   9.691 -0.5917 -0.3934 -0.3068
  267MOL0     C36757  -0.000   7.679   9.670 -0.4603 -0.0338 -0.3491
  267MOL0     C36758   0.101   7.592   9.710  0.2785  0.5799  0.2302
  267MOL0     N36759   0.792   7.140   9.903  0.4009  0.0397 -0.7628
  267MOL0     N36760   0.852   7.119  10.014  0.4358  0.4686 -0.0179
  267MOL0     C36761   1.372   7.241  10.861  0.2047 -0.0195  0.4054
  267MOL0     C36762   1.490   7.267  10.792  0.1230 -0.2025  0.3126
  267MOL0     C36763   1.865   7.263  10.571  0.9276 -0.5469  0.2714
  267MOL0     C36764   1.842   7.340  10.460 -0.5035 -0.4350 -0.2114
  267MOL0     C36765   1.947   7.384  10.378 -0.7574  1.1995  0.6736
  267MOL0     C36766   2.079   7.363  10.401 -0.1180  0.2981 -0.6228
  267MOL0     O36767   2.191   7.397  10.325 -0.0169  0.9657  0.1082
  267MOL0     C36768   2.191   7.457  10.196 -0.2185 -0.4693  0.0922
  267MOL0     C36769   2.290   7.375  10.106 -0.4066 -0.2410  0.1062
  267MOL0     C36770   2.440   7.350  10.160  1.3929  0.6241  0.6971
  267MOL0     C36771   2.508   7.474  10.214 -0.6693 -0.0331 -0.3457
  267MOL0     C36772   2.625   7.508  10.127 -0.1352  0.0893 -0.7346
  267MOL0     C36773   2.731   7.525  10.070 -0.6318  0.8272  0.3818
  267MOL0     C36774   2.099   7.296  10.525  0.5558 -1.1993 -0.1068
  267MOL0     C36775   2.004   7.232  10.600 -0.2117  0.6214  0.3286
  267MOL0     C36776   2.051   7.141  10.719 -0.6731 -0.2105  0.4719
  267MOL0     H36777   1.440   7.073  10.515 -1.6382  0.1737  0.1850
  267MOL0     H36778   1.221   7.038  10.629 -0.8914  1.3238 -0.5269
  267MOL0     H36779   1.081   7.331  10.906  1.5706 -0.3012 -0.0001
  267MOL0     H36780   1.109   7.216  11.040  2.9331 -1.1997 -0.1751
  267MOL0     H36781   0.899   7.097  10.977  0.9694  0.6296  1.5156
  267MOL0     H36782   0.872   7.265  10.965 -1.3338  0.6704 -1.5209
  267MOL0     H36783   0.965   7.103  10.729  0.5529  0.8240 -0.5989
  267MOL0     H36784   0.794   7.117  10.777  0.7406 -1.5610  0.7007
  267MOL0     H36785   0.818   7.374  10.758  0.1779 -0.4639  0.6215
  267MOL0     H36786   0.978   7.355  10.699  0.9549 -1.8840  1.7761
  267MOL0     H36787   0.787   7.374  10.529 -2.0048 -0.7295 -0.5411
  267MOL0     H36788   0.750   7.202  10.572  0.4256 -0.0775  0.7960
  267MOL0     H36789   1.032   7.250  10.484  0.1944  1.6751 -0.0896
  267MOL0     H36790   0.935   7.109  10.475 -0.7450 -0.9162 -0.4591
  267MOL0     H36791   0.971   7.251  10.238 -2.6319  0.4134 -2.0107
  267MOL0     H36792   0.846   7.347  10.298  1.7303 -0.0566  2.3705
  267MOL0     H36793   0.823   7.034  10.268 -0.5942  0.1654  3.9844
  267MOL0     H36794   0.704   7.153  10.318 -1.5764  0.1809 -2.0827
  267MOL0     H36795   0.583   7.280  10.116 -0.2637  1.8262 -2.4060
  267MOL0     H36796   0.589   7.177   9.730 -0.3569  0.5954 -0.6287
  267MOL0     H36797   0.621   7.343   9.780  1.9050 -0.4556  0.4264
  267MOL0     H36798   0.417   7.170   9.920  3.1828 -0.1929  1.1506
  267MOL0     H36799   0.400   7.345   9.900  3.1222  0.3965 -1.4170
  267MOL0     H36800   0.397   7.326   9.667  0.8456 -0.1299 -0.0005
  267MOL0     H36801   0.371   7.157   9.663 -0.1715  1.3300 -0.3461
  267MOL0     H36802   0.174   7.246   9.623  1.7154 -0.9598 -0.8599
  267MOL0     H36803   0.162   7.168   9.783  0.3587 -0.4272 -0.3309
  267MOL0     H36804  -0.083   7.315   9.773  2.3011 -0.3339  0.8521
  267MOL0     H36805  -0.309   7.366   9.775  0.5620 -0.4786  0.0572
  267MOL0     H36806  -0.311   7.395   9.605  2.3602  0.8132 -0.4696
  267MOL0     H36807  -0.381   7.519   9.707 -1.0424 -1.3102 -0.1650
  267MOL0     H36808  -0.289   7.954   9.444 -0.0787  0.3635 -1.4055
  267MOL0     H36809  -0.461   8.097   9.342  2.0415 -1.5493  0.5940
  267MOL0     H36810  -0.837   8.063   9.535  0.3604  1.0004  0.5014
  267MOL0     H36811  -0.745   8.207   9.479  0.3301  1.7718 -3.3953
  267MOL0     H36812  -0.906   8.238   9.295  0.7580  1.1173  1.2338
  267MOL0     H36813  -0.996   8.093   9.355 -0.6427  1.6890 -3.0745
  267MOL0     H36814  -0.977   8.254   9.578  4.2140  0.9620 -0.8700
  267MOL0     H36815  -1.129   8.271   9.485 -0.2817  0.2160 -0.5124
  267MOL0     H36816  -1.044   8.455   9.354  2.1552 -0.0924 -1.6411
  267MOL0     H36817  -0.885   8.409   9.415 -1.4918 -2.4547 -1.9535
  267MOL0     H36818  -1.118   8.555   9.557 -0.1208  0.6709 -1.5108
  267MOL0     H36819  -0.993   8.476   9.649 -1.0141  1.8148  1.0623
  267MOL0     H36820  -0.809   8.613   9.554  0.1193  3.7954  3.1001
  267MOL0     H36821  -0.939   8.716   9.606  1.5529 -0.7221  1.4705
  267MOL0     H36822  -0.884   8.620   9.325  3.6586 -1.6539  3.7361
  267MOL0     H36823  -0.826   8.763   9.385  0.4722 -0.1536 -3.8142
  267MOL0     H36824  -1.086   8.818   9.448 -2.2445 -1.1651 -0.5539
  267MOL0     H36825  -1.117   8.691   9.330 -1.2319 -0.4046  0.1560
  267MOL0     H36826  -0.760   7.819   9.509 -1.2106  2.0925 -1.4236
  267MOL0     H36827  -0.587   7.681   9.585  1.0470  0.4891  1.3387
  267MOL0     H36828   0.030   7.774   9.627 -1.3346  0.7101  0.6117
  267MOL0     H36829   0.205   7.622   9.698 -0.5595  2.8833 -2.1631
  267MOL0     H36830   1.353   7.278  10.961  0.2093 -0.7498  0.6880
  267MOL0     H36831   1.569   7.326  10.837 -1.5814  2.8929 -0.4648
  267MOL0     H36832   1.739   7.333  10.427 -0.9119 -0.1808  0.9671
  267MOL0     H36833   1.928   7.431  10.282  3.2092  0.5591 -0.6090
  267MOL0     H36834   2.092   7.463  10.151 -1.7772 -0.4682  3.2294
  267MOL0     H36835   2.221   7.562  10.203  2.8595 -1.0642 -2.2370
  267MOL0     H36836   2.301   7.425  10.009  0.5675  0.4488  0.5562
  267MOL0     H36837   2.253   7.274  10.084 -0.4117 -0.3110  0.4264
  267MOL0     H36838   2.433   7.274  10.238  0.6333 -1.4584 -1.2947
  267MOL0     H36839   2.492   7.301  10.077 -3.1908 -0.0285 -2.1288
  267MOL0     H36840   2.545   7.443  10.312  5.0110 -0.1842 -2.1826
  267MOL0     H36841   2.440   7.557  10.232 -0.7923 -0.1926 -0.0727
  267MOL0     H36842   2.828   7.533  10.025  0.0868 -2.1363  1.1982
  267MOL0     H36843   2.204   7.293  10.552  0.0010  0.0499  2.5457
  267MOL0     H36844   2.153   7.106  10.701 -0.4836  0.5686 -0.0601
  267MOL0     H36845   2.040   7.202  10.810  0.9600 -0.7091  1.0211
  267MOL0     H36846   1.980   7.058  10.716 -2.6077  1.3669 -0.1498
  268MOL0     O36847   6.614   7.685   2.845  0.0434 -0.5597 -0.3762
  268MOL0     C36848   6.604   7.785   2.772  1.4780  0.7147  0.8750
  268MOL0     O36849   6.708   7.827   2.692  0.3087 -0.1572  0.2369
  268MOL0     C36850   6.834   7.780   2.696 -0.5919 -0.4089 -0.1782
  268MOL0     C36851   6.931   7.872   2.667 -0.7426  1.0282 -0.0814
  268MOL0     C36852   7.067   7.840   2.671  0.0927  0.4260  0.6858
  268MOL0     C36853   7.122   7.714   2.703  0.8548 -0.1210  0.0991
  268MOL0     O36854   7.249   7.669   2.674 -0.3068  0.4578 -0.4865
  268MOL0     C36855   7.320   7.606   2.786  0.4274  0.6246  0.3074
  268MOL0     C36856   7.438   7.690   2.832  0.5156  0.2114  0.8663
  268MOL0     C36857   7.510   7.741   2.702 -0.0518 -0.4361 -0.6191
  268MOL0     C36858   7.613   7.854   2.724 -0.6625  0.0351 -0.8805
  268MOL0     C36859   7.709   7.806   2.836  0.2245  0.4697  0.2113
  268MOL0     C36860   7.786   7.673   2.794  0.1513 -0.5252 -2.2542
  268MOL0     C36861   7.897   7.638   2.890 -0.2159  0.0485 -0.4852
  268MOL0     C36862   8.001   7.746   2.906  0.1765 -0.3338  0.4966
  268MOL0     N36863   8.082   7.755   2.789 -0.0713  0.2061  0.4843
  268MOL0     C36864   8.164   7.658   2.735 -0.8186 -0.5934  0.0674
  268MOL0     C36865   8.226   7.710   2.623  0.2343  0.1627 -0.6091
  268MOL0     C36866   8.324   7.635   2.532  0.3891 -0.1331  0.1994
  268MOL0     C36867   8.474   7.682   2.511  0.2941 -0.8152  0.4179
  268MOL0     C36868   8.552   7.681   2.645 -0.6234  0.5687  0.1614
  268MOL0     C36869   8.696   7.689   2.609 -0.5822  0.5513  0.0148
  268MOL0     O36870   8.781   7.702   2.727 -0.3936  0.5427 -0.0523
  268MOL0     C36871   8.916   7.667   2.701  0.5385 -0.0230 -0.6398
  268MOL0     C36872   8.996   7.631   2.810 -0.1444 -0.2680  0.6529
  268MOL0     C36873   9.135   7.586   2.799  0.0122  0.0890 -0.7052
  268MOL0     C36874   9.205   7.537   2.923  0.2232 -0.0933 -0.0030
  268MOL0     C36875   9.202   7.601   2.670  0.0816 -0.0276 -0.1859
  268MOL0     C36876   9.345   7.560   2.638 -0.2747  0.4377  0.0088
  268MOL0     O36877   9.433   7.539   2.736  0.6057 -0.4161  0.1516
  268MOL0     C36878   9.569   7.505   2.713  0.7074  1.0318 -0.2051
  268MOL0     C36879   9.624   7.405   2.789 -0.6109 -0.3455  0.1778
  268MOL0     C36880   9.764   7.383   2.773  0.1415 -0.4671 -0.3171
  268MOL0     C36881   9.851   7.462   2.690  0.6927 -0.2662 -0.8132
  268MOL0     O36882   9.980   7.415   2.673 -0.4638  0.0319  0.0944
  268MOL0     C36883  10.077   7.504   2.615 -0.2309  0.3548  0.4257
  268MOL0     C36884  10.217   7.437   2.599  0.7973 -0.4128  0.4612
  268MOL0     C36885  10.273   7.420   2.751  0.5175  0.2997  0.3436
  268MOL0     C36886  10.416   7.385   2.732 -1.2337  0.5130 -0.5735
  268MOL0     C36887  10.467   7.346   2.880  0.1890 -0.8133 -0.6701
  268MOL0     C36888  10.611   7.380   2.894 -0.5163  0.0551  0.6645
  268MOL0     C36889  10.670   7.344   3.027  0.2096  0.1405 -0.2389
  268MOL0     C36890  10.818   7.384   3.039 -0.4864  0.2617  0.0304
  268MOL0    Cl36891  10.814   7.555   3.101  0.2309 -0.0018 -0.5073
  268MOL0     C36892   9.789   7.564   2.621 -0.1446 -0.4938  0.2736
  268MOL0     C36893   9.649   7.581   2.626  0.7034 -0.6537  0.0256
  268MOL0     O36894   9.371   7.550   2.511 -0.4127 -0.5093  0.3263
  268MOL0     C36895   9.113   7.650   2.565 -0.2434  0.2130  0.5463
  268MOL0     C36896   8.979   7.677   2.578 -0.0080  0.6092 -1.0200
  268MOL0     N36897   8.170   7.839   2.602 -0.5467 -0.3806 -0.3882
  268MOL0     N36898   8.102   7.862   2.705 -0.3810  0.8697  0.5040
  268MOL0     C36899   7.019   7.625   2.738 -0.3493 -0.1243  0.3799
  268MOL0     C36900   6.885   7.657   2.737  0.2626 -0.4858 -0.2225
  268MOL0     C36901   6.464   7.834   2.758 -0.1235 -0.3111  0.5611
  268MOL0     C36902   6.367   7.771   2.836  0.9411 -0.7141 -0.1294
  268MOL0     C36903   6.235   7.835   2.844  0.4767 -0.0869  0.1601
  268MOL0     C36904   6.200   7.950   2.761 -0.9549 -0.5288 -0.1046
  268MOL0     O36905   6.088   8.027   2.757 -0.8139 -0.4747  0.3745
  268MOL0     C36906   5.963   7.957   2.769  0.9183 -0.4942  0.1406
  268MOL0     C36907   5.847   8.053   2.725  0.4430 -0.2347 -0.6267
  268MOL0     C36908   5.719   7.977   2.690 -0.5601 -0.4202 -0.7122
  268MOL0     C36909   5.719   7.946   2.543  0.2709  0.0635 -0.2132
  268MOL0     C36910   5.611   7.849   2.519 -1.5141 -0.0730  0.5361
  268MOL0     C36911   5.537   7.766   2.475  0.3548  0.0663  0.1940
  268MOL0     C36912   6.302   7.989   2.675  0.5236 -0.2683  0.1096
  268MOL0     C36913   6.432   7.935   2.668 -0.3709 -0.1244  0.1706
  268MOL0     C36914   6.520   8.018   2.576 -0.2308 -0.5284  0.2343
  268MOL0     H36915   6.902   7.975   2.646  0.6939  0.9820 -2.7159
  268MOL0     H36916   7.135   7.916   2.636 -0.8460  0.9069 -0.1491
  268MOL0     H36917   7.348   7.503   2.762  0.7103  1.3035 -2.5665
  268MOL0     H36918   7.252   7.591   2.871 -1.3423 -1.8565 -1.3951
  268MOL0     H36919   7.401   7.775   2.890 -1.6543  0.2337 -0.4406
  268MOL0     H36920   7.507   7.633   2.895  0.6196 -1.5636 -0.7521
  268MOL0     H36921   7.553   7.656   2.649 -0.2925 -1.0780  0.1814
  268MOL0     H36922   7.434   7.780   2.634  1.3954 -3.1679 -4.1343
  268MOL0     H36923   7.669   7.889   2.637 -0.6097 -1.6114 -1.5331
  268MOL0     H36924   7.555   7.936   2.769  1.0699  1.2530 -0.7748
  268MOL0     H36925   7.643   7.783   2.921  0.9970 -1.5240  0.3298
  268MOL0     H36926   7.778   7.885   2.866  0.3340  0.8547 -1.0234
  268MOL0     H36927   7.709   7.596   2.797 -0.0336 -0.5261  3.1535
  268MOL0     H36928   7.831   7.681   2.695 -1.2808  2.0411 -2.7910
  268MOL0     H36929   7.936   7.541   2.858 -1.4514 -1.0998  1.3350
  268MOL0     H36930   7.848   7.616   2.985  1.0073 -0.4265  0.0538
  268MOL0     H36931   7.960   7.842   2.940 -3.6156 -2.4139  2.4436
  268MOL0     H36932   8.074   7.716   2.981  1.0526 -0.3625 -0.3410
  268MOL0     H36933   8.192   7.561   2.776  1.2418  0.6315  1.7871
  268MOL0     H36934   8.277   7.625   2.434  3.6162 -0.8334 -1.3938
  268MOL0     H36935   8.334   7.531   2.564  2.4249  0.0651  0.3246
  268MOL0     H36936   8.519   7.608   2.444  0.9027  0.4423 -0.5984
  268MOL0     H36937   8.483   7.784   2.472  1.8580 -0.3927  1.7787
  268MOL0     H36938   8.517   7.755   2.718 -2.3127 -2.4030  2.6041
  268MOL0     H36939   8.533   7.584   2.693  2.5154 -0.6327 -0.7408
  268MOL0     H36940   8.725   7.598   2.554 -1.1597  2.9251 -4.6849
  268MOL0     H36941   8.715   7.773   2.542  5.2360  2.0103  2.7958
  268MOL0     H36942   8.950   7.632   2.908 -2.8238  0.4138 -0.5350
  268MOL0     H36943   9.118   7.506   2.984 -0.3011  1.5150  0.1014
  268MOL0     H36944   9.264   7.618   2.966 -2.1717 -0.0426  3.7281
  268MOL0     H36945   9.271   7.451   2.914  2.2963  1.4706 -0.2683
  268MOL0     H36946   9.555   7.335   2.834 -2.4089 -0.2491 -2.2167
  268MOL0     H36947   9.817   7.296   2.812  0.3931 -1.5603 -2.8958
  268MOL0     H36948  10.035   7.534   2.519 -2.6896  0.0402  1.3392
  268MOL0     H36949  10.094   7.599   2.667  1.7542  1.4505 -2.0100
  268MOL0     H36950  10.208   7.344   2.541  2.7340 -0.0161 -0.5766
  268MOL0     H36951  10.284   7.501   2.542  1.1557 -0.2010  1.1097
  268MOL0     H36952  10.222   7.336   2.801 -0.4908  0.2041 -0.7799
  268MOL0     H36953  10.261   7.510   2.811 -2.2406  1.3874 -1.6223
  268MOL0     H36954  10.475   7.466   2.689  0.8297 -0.5606  0.1093
  268MOL0     H36955  10.437   7.295   2.673 -3.3023 -1.7012  1.8432
  268MOL0     H36956  10.406   7.403   2.951  0.4796 -0.6620 -0.5415
  268MOL0     H36957  10.459   7.240   2.908 -1.4241  0.2025  3.4689
  268MOL0     H36958  10.626   7.486   2.869  0.1428 -0.5939 -1.9993
  268MOL0     H36959  10.656   7.322   2.813 -1.9816  0.4160 -0.4503
  268MOL0     H36960  10.669   7.235   3.029  0.3634  0.1387  1.8197
  268MOL0     H36961  10.619   7.385   3.114 -0.2361  0.2019 -0.5239
  268MOL0     H36962  10.860   7.362   2.940  0.2818  0.1795  0.3657
  268MOL0     H36963  10.863   7.318   3.114 -1.8912 -0.3091  0.3972
  268MOL0     H36964   9.847   7.616   2.544 -0.8825 -1.7590 -1.1881
  268MOL0     H36965   9.591   7.641   2.557  1.7266  0.6903  0.2827
  268MOL0     H36966   9.151   7.658   2.464  1.1582 -0.1247  1.0312
  268MOL0     H36967   8.930   7.699   2.484  1.9493 -0.6902 -2.4268
  268MOL0     H36968   7.053   7.528   2.773  0.7818  0.3997  0.7780
  268MOL0     H36969   6.816   7.580   2.769 -2.2071  0.2863 -3.2315
  268MOL0     H36970   6.386   7.675   2.883 -3.4721 -0.9906  1.5218
  268MOL0     H36971   6.151   7.795   2.900  0.7084 -1.1183 -0.2171
  268MOL0     H36972   5.967   7.861   2.715 -1.9974 -1.1863  0.9672
  268MOL0     H36973   5.940   7.931   2.872  2.1449  1.4940  0.9630
  268MOL0     H36974   5.882   8.108   2.638 -0.8741  0.2232 -0.8827
  268MOL0     H36975   5.824   8.126   2.803  0.0467 -0.3109 -0.6699
  268MOL0     H36976   5.711   7.885   2.750  1.0826  0.3210  0.7172
  268MOL0     H36977   5.630   8.042   2.693 -2.5308 -2.8341 -2.4579
  268MOL0     H36978   5.814   7.904   2.509 -1.1830 -2.2707 -1.7819
  268MOL0     H36979   5.695   8.027   2.474  0.4156 -1.0862 -1.6736
  268MOL0     H36980   5.478   7.687   2.432 -1.2059  1.0908  0.3723
  268MOL0     H36981   6.277   8.067   2.604  0.2342 -0.1858  0.2989
  268MOL0     H36982   6.467   8.096   2.522  1.7152  1.0884  0.5287
  268MOL0     H36983   6.597   8.080   2.623  2.6384 -1.5372 -2.7382
  268MOL0     H36984   6.565   7.949   2.504 -0.0925 -0.8037  0.5793
  269MOL0     O36985   4.592   2.663   3.128  0.3525 -0.7023  0.6202
  269MOL0     C36986   4.614   2.578   3.037 -0.8806 -0.2699 -0.0058
  269MOL0     O36987   4.525   2.507   2.955 -0.3325  0.5010 -0.2627
  269MOL0     C36988   4.397   2.552   2.951 -0.7121 -1.1065  0.2305
  269MOL0     C36989   4.373   2.674   2.899 -0.7244  0.7409  0.8528
  269MOL0     C36990   4.241   2.732   2.891  0.5842 -0.1295 -0.7832
  269MOL0     C36991   4.134   2.666   2.954 -0.1278  0.6832  0.6572
  269MOL0     O36992   4.001   2.710   2.960  0.4675 -0.6550 -0.3272
  269MOL0     C36993   3.980   2.844   2.929  0.9593  0.7975 -0.8448
  269MOL0     C36994   3.828   2.868   2.944  0.3502  0.7205  0.1214
  269MOL0     C36995   3.731   2.795   2.835 -0.5867 -0.7458 -0.3354
  269MOL0     C36996   3.585   2.817   2.871 -0.1921  0.3551 -0.1858
  269MOL0     C36997   3.531   2.971   2.852  0.2168  0.0982  0.1197
  269MOL0     C36998   3.403   2.980   2.931 -0.0575  0.0770 -0.1184
  269MOL0     C36999   3.326   3.115   2.942  0.0185  1.1667  0.4338
  269MOL0     C37000   3.416   3.230   2.989  0.1096 -0.0462 -0.3145
  269MOL0     N37001   3.436   3.215   3.138  0.2122 -0.3503 -0.1087
  269MOL0     C37002   3.338   3.248   3.235 -0.2792 -0.0322  0.5886
  269MOL0     C37003   3.387   3.203   3.355 -0.0472 -0.8769  0.0829
  269MOL0     C37004   3.317   3.223   3.485  0.1144  0.1146  0.0939
  269MOL0     C37005   3.174   3.152   3.491 -0.0271 -0.1041  0.3962
  269MOL0     C37006   3.113   3.199   3.621  0.0632  0.7227  0.8862
  269MOL0     C37007   2.982   3.136   3.656 -0.2973  0.5276 -0.2719
  269MOL0     O37008   2.922   3.211   3.759  0.3666 -0.4990 -0.5768
  269MOL0     C37009   2.842   3.315   3.735  0.0961 -0.8552 -1.0354
  269MOL0     C37010   2.789   3.357   3.616  0.2232  0.3974  0.4216
  269MOL0     C37011   2.708   3.474   3.598  0.4301  0.2281 -0.1580
  269MOL0     C37012   2.664   3.522   3.463 -0.2816  0.8713  1.1319
  269MOL0     C37013   2.690   3.553   3.705  0.0389  0.1325 -0.5219
  269MOL0     C37014   2.648   3.694   3.695  0.4817 -0.2532  0.4528
  269MOL0     O37015   2.524   3.722   3.753  0.2099  0.1996 -0.3578
  269MOL0     C37016   2.469   3.845   3.734  0.5098  0.1395  0.0273
  269MOL0     C37017   2.409   3.917   3.842  0.6432  0.0089  0.4211
  269MOL0     C37018   2.348   4.038   3.822 -0.2883 -0.2299  0.1600
  269MOL0     C37019   2.346   4.098   3.697  0.3240  0.1926  0.0484
  269MOL0     O37020   2.292   4.220   3.666 -0.5096 -0.0630  0.3401
  269MOL0     C37021   2.278   4.315   3.774 -1.3630  0.4784  0.9506
  269MOL0     C37022   2.284   4.462   3.733 -0.3045 -0.0161  0.1636
  269MOL0     C37023   2.230   4.489   3.587 -0.3768  0.3405 -0.7318
  269MOL0     C37024   2.225   4.640   3.576 -1.0137 -0.3710  0.6520
  269MOL0     C37025   2.201   4.693   3.434 -0.2600  0.5754  0.2484
  269MOL0     C37026   2.200   4.846   3.445 -0.4736  0.3783 -0.2502
  269MOL0     C37027   2.174   4.914   3.314  0.4520 -0.1867 -0.8862
  269MOL0     C37028   2.166   5.063   3.339  0.3561  0.2606 -0.2628
  269MOL0    Cl37029   2.331   5.120   3.367  0.4342  0.1770  0.3612
  269MOL0     C37030   2.396   4.033   3.594  0.0158  0.7422  1.2673
  269MOL0     C37031   2.456   3.905   3.611 -0.3279  0.0917  0.9967
  269MOL0     O37032   2.722   3.777   3.643 -0.0152  0.8190 -1.2617
  269MOL0     C37033   2.730   3.503   3.830 -0.2831 -0.9484 -0.3023
  269MOL0     C37034   2.803   3.387   3.850  0.2424  0.5434  1.0838
  269MOL0     N37035   3.513   3.150   3.333 -0.2016  0.4493 -0.0324
  269MOL0     N37036   3.541   3.151   3.203  0.6658 -0.7379  0.4514
  269MOL0     C37037   4.161   2.536   3.010 -0.2897 -0.1280 -0.4094
  269MOL0     C37038   4.294   2.479   3.006  0.2849 -0.1690  0.5163
  269MOL0     C37039   4.760   2.557   3.019  0.0751 -0.1805 -0.3665
  269MOL0     C37040   4.842   2.668   3.005  0.1719 -0.5071 -1.2304
  269MOL0     C37041   4.977   2.645   2.971 -0.1307 -0.9085  0.0249
  269MOL0     C37042   5.034   2.518   2.955  0.3305 -0.4527  1.6152
  269MOL0     O37043   5.169   2.494   2.945  0.3050 -0.1765  0.2057
  269MOL0     C37044   5.256   2.597   2.979 -0.6331 -0.1858  0.5913
  269MOL0     C37045   5.403   2.558   2.973 -0.2386  0.8232 -0.3728
  269MOL0     C37046   5.499   2.677   3.013  0.3999 -0.3346 -0.1579
  269MOL0     C37047   5.645   2.638   3.025 -0.9671  0.0064  0.2460
  269MOL0     C37048   5.659   2.518   3.105 -1.2164  0.6223  0.6443
  269MOL0     C37049   5.682   2.420   3.169 -0.2295 -0.8964  0.0801
  269MOL0     C37050   4.949   2.406   2.957  0.2597  0.8840 -0.5948
  269MOL0     C37051   4.811   2.422   2.997 -0.5216  0.6019  0.5738
  269MOL0     C37052   4.738   2.294   2.997 -0.2151 -0.6380  0.4676
  269MOL0     H37053   4.461   2.728   2.863  0.6841 -1.6357  0.5374
  269MOL0     H37054   4.232   2.831   2.846 -2.1074  0.5748  1.0658
  269MOL0     H37055   4.008   2.872   2.827  0.7061  1.2614 -0.7888
  269MOL0     H37056   4.031   2.904   3.004  1.6433 -1.6393  0.7556
  269MOL0     H37057   3.786   2.849   3.043 -1.4721  2.9290 -0.1333
  269MOL0     H37058   3.835   2.977   2.935 -0.6693  0.8275  0.4460
  269MOL0     H37059   3.756   2.848   2.743  2.5934 -2.4851 -0.6127
  269MOL0     H37060   3.760   2.690   2.823  2.6772  0.0654 -0.3852
  269MOL0     H37061   3.525   2.753   2.806 -1.5210 -0.4893  1.8064
  269MOL0     H37062   3.573   2.782   2.974 -0.8591 -3.2317 -1.3536
  269MOL0     H37063   3.522   2.975   2.743  0.9930 -2.7451 -0.1374
  269MOL0     H37064   3.607   3.039   2.891 -0.1842  0.8272 -0.3593
  269MOL0     H37065   3.335   2.904   2.891  0.2132 -1.3828  2.0425
  269MOL0     H37066   3.438   2.957   3.032 -0.7668 -1.5090 -0.1946
  269MOL0     H37067   3.242   3.099   3.010 -0.4101 -1.6497 -0.6295
  269MOL0     H37068   3.285   3.141   2.844  1.8274 -1.4251 -1.1091
  269MOL0     H37069   3.512   3.241   2.939 -0.1263  3.0452 -0.3089
  269MOL0     H37070   3.364   3.325   2.973  1.2609  0.7718  0.6541
  269MOL0     H37071   3.242   3.296   3.221 -1.7010 -2.9304 -0.1812
  269MOL0     H37072   3.307   3.331   3.494 -0.7009  0.2187 -1.6672
  269MOL0     H37073   3.382   3.187   3.565  1.4439 -1.8480 -1.7481
  269MOL0     H37074   3.114   3.174   3.402  0.0442 -1.5986 -0.0411
  269MOL0     H37075   3.197   3.045   3.495  1.9646  0.1343 -2.0350
  269MOL0     H37076   3.178   3.180   3.707 -0.5121 -0.6263  1.0497
  269MOL0     H37077   3.081   3.301   3.598 -1.4450 -0.1499 -1.1956
  269MOL0     H37078   2.924   3.131   3.563  1.3150 -4.0226 -1.3132
  269MOL0     H37079   2.990   3.029   3.679  1.0287  0.4432 -1.0370
  269MOL0     H37080   2.798   3.293   3.529 -0.0893  0.5262  0.2959
  269MOL0     H37081   2.636   3.431   3.409  1.4014  0.0863  1.5105
  269MOL0     H37082   2.754   3.563   3.418  0.4014 -0.9293  0.7525
  269MOL0     H37083   2.583   3.596   3.462 -0.8965  0.2292 -0.5652
  269MOL0     H37084   2.406   3.878   3.943  0.9935  1.6232  1.0723
  269MOL0     H37085   2.297   4.071   3.912 -1.6280 -1.2958 -0.1886
  269MOL0     H37086   2.177   4.294   3.811 -1.5089  2.4119  1.7894
  269MOL0     H37087   2.349   4.289   3.853 -1.7753 -2.3205  0.4950
  269MOL0     H37088   2.211   4.518   3.793 -2.3422  0.1688 -2.2962
  269MOL0     H37089   2.389   4.488   3.747  0.3635 -2.9942  1.7500
  269MOL0     H37090   2.134   4.439   3.572  0.7367 -2.7859  1.4970
  269MOL0     H37091   2.314   4.453   3.527 -2.0122 -0.0048 -2.9203
  269MOL0     H37092   2.326   4.672   3.602  0.1797 -0.7974 -2.9433
  269MOL0     H37093   2.162   4.679   3.657 -3.4213  2.0502 -2.1616
  269MOL0     H37094   2.268   4.657   3.355 -3.0575 -0.0432 -2.0340
  269MOL0     H37095   2.101   4.669   3.396  0.3047  0.9613 -1.5943
  269MOL0     H37096   2.302   4.864   3.481  1.0450 -4.2640 -1.5210
  269MOL0     H37097   2.130   4.866   3.526 -1.5732  1.9377 -1.5154
  269MOL0     H37098   2.079   4.869   3.282  0.8261 -0.5315 -1.5335
  269MOL0     H37099   2.261   4.897   3.249  0.9390  0.1443 -0.3233
  269MOL0     H37100   2.099   5.091   3.421  0.7778  2.0185 -0.4739
  269MOL0     H37101   2.118   5.118   3.258 -1.3777 -1.1676 -0.2583
  269MOL0     H37102   2.396   4.075   3.494 -0.3021  0.1956  1.0322
  269MOL0     H37103   2.487   3.851   3.522 -1.3381 -0.2552  0.8372
  269MOL0     H37104   2.697   3.563   3.915 -2.3585 -0.4348 -1.4204
  269MOL0     H37105   2.842   3.361   3.948 -0.0181  1.3349  1.4075
  269MOL0     H37106   4.069   2.488   3.043 -0.5031 -0.3934 -1.3628
  269MOL0     H37107   4.314   2.377   3.038  3.8063  0.1561 -0.2115
  269MOL0     H37108   4.805   2.767   3.028  0.5985 -0.6865  0.2982
  269MOL0     H37109   5.050   2.724   2.983 -0.1333 -0.7861 -0.7045
  269MOL0     H37110   5.254   2.673   2.901  2.6259  0.6879  1.1823
  269MOL0     H37111   5.236   2.650   3.072 -2.1857 -0.7734  0.6237
  269MOL0     H37112   5.426   2.525   2.871 -0.1449 -0.5218  0.0659
  269MOL0     H37113   5.414   2.470   3.037 -2.5940  0.2002 -0.6934
  269MOL0     H37114   5.495   2.766   2.949  1.6512 -1.1028 -1.3457
  269MOL0     H37115   5.471   2.713   3.113 -0.8417  1.0469 -0.9535
  269MOL0     H37116   5.707   2.722   3.058 -1.6649  0.5492  0.2067
  269MOL0     H37117   5.679   2.607   2.926  2.4246 -0.0141  1.2853
  269MOL0     H37118   5.706   2.355   3.250  2.6872 -1.6736 -1.2736
  269MOL0     H37119   4.985   2.306   2.938 -0.6543 -0.5494  3.9088
  269MOL0     H37120   4.803   2.210   2.969  2.1808  0.6735  1.7252
  269MOL0     H37121   4.713   2.288   3.104  2.8377 -0.1188  1.3218
  269MOL0     H37122   4.658   2.299   2.923 -0.2806  3.4549  0.5874
  270MOL0     O37123   8.394  10.350   4.066  0.4815 -0.3274 -0.0134
  270MOL0     C37124   8.357  10.416   3.971  0.1388  0.1584  0.6881
  270MOL0     O37125   8.238  10.406   3.899  0.1500 -0.4450  0.0283
  270MOL0     C37126   8.141  10.312   3.917 -0.6980  1.4312  0.0063
  270MOL0     C37127   8.032  10.322   3.834 -0.3668  1.2023  0.2453
  270MOL0     C37128   7.914  10.246   3.856 -0.2426  0.3668  0.6547
  270MOL0     C37129   7.904  10.151   3.954  0.3222  0.2888  0.4723
  270MOL0     O37130   7.792  10.074   3.944  0.1675 -1.1069 -0.5969
  270MOL0     C37131   7.747  10.004   4.053  0.0583 -0.2122  0.4234
  270MOL0     C37132   7.613   9.939   4.027 -0.2271 -0.0920 -0.7813
  270MOL0     C37133   7.482  10.025   4.046 -0.6492  0.2693  0.2918
  270MOL0     C37134   7.368   9.928   4.027 -0.5809  0.3915  0.1513
  270MOL0     C37135   7.232   9.997   4.031  0.1496 -0.7587 -0.5405
  270MOL0     C37136   7.118   9.898   4.027  0.1348  0.9381 -0.0452
  270MOL0     C37137   6.982   9.959   4.016 -0.0822 -0.5181 -0.3213
  270MOL0     C37138   6.987  10.080   3.926  0.9446  0.9480 -1.2933
  270MOL0     N37139   6.847  10.120   3.891 -0.2416  0.3695 -0.3498
  270MOL0     C37140   6.778  10.110   3.772 -0.3886  0.5639  0.8534
  270MOL0     C37141   6.665  10.177   3.783 -0.3825 -0.4387 -0.4712
  270MOL0     C37142   6.560  10.208   3.680 -0.2512 -0.8764  0.5142
  270MOL0     C37143   6.629  10.264   3.555  0.4604 -1.0500  0.3849
  270MOL0     C37144   6.541  10.303   3.443  0.0179 -0.6163  0.4941
  270MOL0     C37145   6.606  10.324   3.310  0.7158 -1.0968 -0.0879
  270MOL0     O37146   6.718  10.412   3.323  0.7885  0.2277 -0.0121
  270MOL0     C37147   6.779  10.463   3.210 -0.4392  0.6534  0.2794
  270MOL0     C37148   6.882  10.554   3.232  0.9795  0.5866 -0.7986
  270MOL0     C37149   6.954  10.605   3.126 -0.2617  0.1993  0.2685
  270MOL0     C37150   7.070  10.696   3.156 -0.4381 -0.0432 -0.6266
  270MOL0     C37151   6.933  10.562   2.997 -0.6368  0.2259 -0.0595
  270MOL0     C37152   6.991  10.614   2.866  0.3451 -0.5486 -0.1475
  270MOL0     O37153   6.945  10.565   2.744  0.6068  0.4451 -0.4165
  270MOL0     C37154   6.970  10.618   2.624 -0.2480  0.4289  0.1183
  270MOL0     C37155   7.094  10.638   2.575 -1.2754  0.0454  0.3827
  270MOL0     C37156   7.105  10.718   2.456  0.9788  1.0735 -0.4957
  270MOL0     C37157   6.988  10.745   2.379  0.1694  0.2908 -0.0540
  270MOL0     O37158   6.994  10.800   2.255  0.3239  0.1865  0.2095
  270MOL0     C37159   7.078  10.908   2.226 -0.5631 -0.1801  0.6056
  270MOL0     C37160   7.094  10.918   2.073  0.4806  0.4233  0.4270
  270MOL0     C37161   7.183  10.798   2.024 -0.9723 -0.8952  1.0876
  270MOL0     C37162   7.172  10.759   1.879 -0.6738 -0.5889  0.3650
  270MOL0     C37163   7.187  10.875   1.777 -0.5678  0.0625  0.6081
  270MOL0     C37164   7.324  10.941   1.794 -0.1355  0.5598  0.6679
  270MOL0     C37165   7.320  11.090   1.753  0.3255  0.1389 -0.6162
  270MOL0     C37166   7.434  11.139   1.664  0.2227  0.5076  0.1615
  270MOL0    Cl37167   7.594  11.081   1.729  0.2290  0.2267 -0.4232
  270MOL0     C37168   6.871  10.708   2.432  0.7601  0.3386  0.0354
  270MOL0     C37169   6.856  10.649   2.556  0.2096 -0.6268 -0.5751
  270MOL0     O37170   7.083  10.694   2.875  0.5034  0.0084  0.2873
  270MOL0     C37171   6.824  10.469   2.973  0.2031  0.5279  0.6044
  270MOL0     C37172   6.746  10.422   3.082 -0.5795  0.0058 -0.0410
  270MOL0     N37173   6.662  10.229   3.911  0.4772  0.7088 -0.0310
  270MOL0     N37174   6.773  10.200   3.972 -0.2008  0.6926 -0.0413
  270MOL0     C37175   8.013  10.128   4.035 -0.3137 -0.2948  0.0302
  270MOL0     C37176   8.130  10.214   4.019  0.5168 -0.1973 -0.4555
  270MOL0     C37177   8.446  10.522   3.917 -0.0290  0.2697 -0.5428
  270MOL0     C37178   8.397  10.646   3.885 -1.0324  0.5310  0.0151
  270MOL0     C37179   8.490  10.741   3.840 -0.1791  0.2684  0.3191
  270MOL0     C37180   8.625  10.716   3.833 -1.2910  0.1626 -0.9348
  270MOL0     O37181   8.705  10.819   3.808 -0.1586 -0.5988  0.2587
  270MOL0     C37182   8.788  10.857   3.923  0.4665  0.3890 -0.0596
  270MOL0     C37183   8.722  10.968   4.008  1.0393  0.3848 -0.1568
  270MOL0     C37184   8.703  11.101   3.922  0.5304  0.5178 -0.9156
  270MOL0     C37185   8.567  11.166   3.946  0.0849 -1.4966  0.5022
  270MOL0     C37186   8.543  11.286   3.872 -0.2485  0.2850  0.0847
  270MOL0     C37187   8.526  11.381   3.793  0.3278 -0.2102 -0.0801
  270MOL0     C37188   8.678  10.593   3.864  0.3668  0.5346  0.2311
  270MOL0     C37189   8.584  10.494   3.906  0.5002 -0.3660 -0.6728
  270MOL0     C37190   8.645  10.369   3.932 -0.1991  0.7424  0.7053
  270MOL0     H37191   8.042  10.400   3.759  2.4785  1.8542  1.1503
  270MOL0     H37192   7.823  10.269   3.801 -0.7253  0.3867  1.4548
  270MOL0     H37193   7.755  10.067   4.142  5.3500 -2.7814  2.2301
  270MOL0     H37194   7.816   9.920   4.066 -1.6004 -1.8407 -0.7914
  270MOL0     H37195   7.628   9.910   3.922 -0.6066 -2.4402 -0.2507
  270MOL0     H37196   7.605   9.856   4.098 -3.4693  0.6556 -0.0933
  270MOL0     H37197   7.485  10.056   4.151  4.5550  2.2377 -0.1311
  270MOL0     H37198   7.469  10.102   3.969  1.9916  0.3379 -0.1802
  270MOL0     H37199   7.377   9.887   3.926 -0.6090  0.2915  0.1885
  270MOL0     H37200   7.371   9.854   4.109  0.8712  0.5820  0.3104
  270MOL0     H37201   7.234  10.054   3.937 -2.1164 -2.3354 -1.6297
  270MOL0     H37202   7.211  10.066   4.113 -1.0092  1.9555 -2.9296
  270MOL0     H37203   7.136   9.815   3.959 -0.8727  0.0343  0.7749
  270MOL0     H37204   7.121   9.843   4.122 -1.2417  0.9982  0.0451
  270MOL0     H37205   6.928   9.997   4.103 -0.7021  0.7435 -1.2240
  270MOL0     H37206   6.919   9.881   3.971  1.2770 -2.5424  1.0742
  270MOL0     H37207   7.031  10.163   3.982 -0.0953 -0.4994  1.9520
  270MOL0     H37208   7.030  10.051   3.830 -0.7574 -1.7083 -1.3517
  270MOL0     H37209   6.801  10.052   3.683 -1.2457 -0.9591  1.5844
  270MOL0     H37210   6.500  10.291   3.718  3.3906  3.3069 -2.0178
  270MOL0     H37211   6.500  10.120   3.653 -2.5324  1.2162 -1.7858
  270MOL0     H37212   6.686  10.352   3.586 -0.2809 -0.6577  0.6755
  270MOL0     H37213   6.695  10.193   3.506  0.0276 -2.2208  1.4542
  270MOL0     H37214   6.471  10.221   3.427  0.5682 -0.9171 -0.4628
  270MOL0     H37215   6.478  10.392   3.457 -1.9430 -1.3014 -2.8103
  270MOL0     H37216   6.649  10.232   3.270 -0.4392 -1.2682 -0.9675
  270MOL0     H37217   6.530  10.359   3.239  1.5857  0.5332 -0.2817
  270MOL0     H37218   6.904  10.593   3.331 -1.5535  2.9968 -1.0683
  270MOL0     H37219   7.050  10.802   3.137  1.7033 -0.1221 -4.1460
  270MOL0     H37220   7.162  10.668   3.105 -0.0755 -3.2940  1.5272
  270MOL0     H37221   7.098  10.700   3.261 -2.5262  2.2046 -0.0632
  270MOL0     H37222   7.190  10.616   2.620 -0.3550  1.9325 -0.5431
  270MOL0     H37223   7.201  10.751   2.419  0.2302  0.9746 -2.6579
  270MOL0     H37224   7.016  10.992   2.259  0.4973  0.1969  1.7099
  270MOL0     H37225   7.174  10.913   2.278 -0.4868  0.2197  0.4302
  270MOL0     H37226   6.995  10.898   2.032 -0.3619 -4.1180  3.8463
  270MOL0     H37227   7.135  11.014   2.041  1.9399 -0.4490 -0.4556
  270MOL0     H37228   7.151  10.710   2.080  0.2671 -1.0570  1.5735
  270MOL0     H37229   7.290  10.814   2.043 -0.2345 -2.3816 -1.2711
  270MOL0     H37230   7.070  10.724   1.863 -0.4607 -0.4473 -1.5682
  270MOL0     H37231   7.244  10.681   1.854 -0.0813  0.2975 -0.8403
  270MOL0     H37232   7.174  10.837   1.675 -2.2355 -1.1689  1.2495
  270MOL0     H37233   7.101  10.940   1.792  2.7109  5.0772  0.3629
  270MOL0     H37234   7.400  10.890   1.734  0.2103 -0.4590  1.9098
  270MOL0     H37235   7.371  10.932   1.892  3.0218 -1.9484 -0.8605
  270MOL0     H37236   7.311  11.145   1.846 -2.1553  0.5661 -1.0463
  270MOL0     H37237   7.230  11.120   1.698  1.9347  1.8460 -2.5140
  270MOL0     H37238   7.430  11.247   1.651 -0.4049  0.3345 -1.2145
  270MOL0     H37239   7.417  11.092   1.567 -0.2292  1.5076 -0.2579
  270MOL0     H37240   6.787  10.719   2.364  1.6139 -2.1008 -1.5534
  270MOL0     H37241   6.754  10.623   2.582 -0.4127  1.4409 -0.7571
  270MOL0     H37242   6.805  10.450   2.868  2.0333  3.2413 -0.3334
  270MOL0     H37243   6.660  10.361   3.055  0.2932 -0.1498 -2.6645
  270MOL0     H37244   8.003  10.048   4.107  0.8888  2.7177  3.9309
  270MOL0     H37245   8.219  10.203   4.080 -0.1562 -0.5476  0.4972
  270MOL0     H37246   8.293  10.678   3.891 -0.0807  3.6908  1.7897
  270MOL0     H37247   8.452  10.837   3.808 -2.5850 -0.0823  1.8555
  270MOL0     H37248   8.794  10.770   3.989 -0.6053  0.8933  0.7325
  270MOL0     H37249   8.887  10.879   3.884  0.8669 -0.2958  0.5365
  270MOL0     H37250   8.779  10.993   4.098  2.2658 -1.5078 -0.3536
  270MOL0     H37251   8.624  10.923   4.027  1.8303 -1.8360 -1.0529
  270MOL0     H37252   8.786  11.171   3.934  0.7195  0.2212 -0.4592
  270MOL0     H37253   8.694  11.064   3.819 -1.8408 -2.8956  0.3467
  270MOL0     H37254   8.568  11.190   4.052  2.6060 -0.8389  0.3889
  270MOL0     H37255   8.475  11.109   3.927  0.6586 -2.0064 -0.9189
  270MOL0     H37256   8.526  11.474   3.739 -0.1403  0.5611  1.2004
  270MOL0     H37257   8.784  10.570   3.855 -0.0335 -1.8258  0.8255
  270MOL0     H37258   8.754  10.368   3.929 -0.0274  4.4817 -0.0253
  270MOL0     H37259   8.629  10.330   4.033  1.1674 -0.1689  0.5984
  270MOL0     H37260   8.605  10.296   3.861  2.6661  0.8984 -1.2389
  271MOL0     O37261  10.534   2.896   0.280 -0.3198  1.0238  0.4725
  271MOL0     C37262  10.584   2.787   0.290  0.7649 -0.5151  0.3174
  271MOL0     O37263  10.521   2.671   0.316  0.8175 -0.3518  0.1258
  271MOL0     C37264  10.379   2.654   0.318 -0.5378 -0.2495  0.9219
  271MOL0     C37265  10.311   2.574   0.233  0.2758  0.2328 -0.3355
  271MOL0     C37266  10.177   2.545   0.248 -0.2802 -0.3308 -0.0893
  271MOL0     C37267  10.106   2.615   0.351 -0.3692  1.5072  0.6151
  271MOL0     O37268   9.969   2.603   0.351  0.2779 -0.2606 -0.5206
  271MOL0     C37269   9.914   2.719   0.297 -0.5735 -0.2552  0.3639
  271MOL0     C37270   9.769   2.692   0.273  0.1714 -0.5754 -0.2525
  271MOL0     C37271   9.696   2.701   0.416 -0.0058  0.2609  0.3137
  271MOL0     C37272   9.546   2.674   0.404 -0.7154 -0.0124  0.3132
  271MOL0     C37273   9.465   2.689   0.530  0.7457 -0.3602 -0.1142
  271MOL0     C37274   9.307   2.671   0.510 -0.8311 -0.7697  0.0066
  271MOL0     C37275   9.254   2.538   0.463  0.0011  1.1016 -0.2435
  271MOL0     C37276   9.247   2.430   0.572 -0.2287 -0.1346 -0.8807
  271MOL0     N37277   9.382   2.380   0.615  0.2008 -0.4588 -0.3713
  271MOL0     C37278   9.460   2.315   0.523  0.3558 -0.1436 -0.2095
  271MOL0     C37279   9.552   2.240   0.590  0.3964 -1.3950  0.3939
  271MOL0     C37280   9.647   2.149   0.524 -0.3788  0.1960 -0.4207
  271MOL0     C37281   9.721   2.201   0.399 -0.2753 -1.0086  0.1570
  271MOL0     C37282   9.813   2.324   0.434  0.0725 -0.0340 -0.2814
  271MOL0     C37283   9.951   2.275   0.483  0.6265  0.1813  0.5824
  271MOL0     O37284  10.031   2.210   0.374  0.8956 -0.1531  0.8403
  271MOL0     C37285  10.162   2.207   0.399  0.5116 -0.1871  0.2625
  271MOL0     C37286  10.226   2.210   0.529  0.5066 -0.1348 -0.4887
  271MOL0     C37287  10.364   2.214   0.540 -0.0401 -0.1195  0.0002
  271MOL0     C37288  10.422   2.195   0.683  0.8354 -0.3130 -0.3355
  271MOL0     C37289  10.446   2.204   0.432 -0.4451 -0.1171 -0.5774
  271MOL0     C37290  10.602   2.180   0.438  0.1373  0.8392  0.4731
  271MOL0     O37291  10.652   2.112   0.546 -0.3688 -0.0525  0.2193
  271MOL0     C37292  10.786   2.090   0.559  0.3569  0.9393  0.1822
  271MOL0     C37293  10.813   2.010   0.667 -0.1557  0.0662 -0.6583
  271MOL0     C37294  10.932   1.948   0.700 -0.6410  0.1205  0.9703
  271MOL0     C37295  11.044   1.975   0.618 -0.4559 -0.5525 -0.3900
  271MOL0     O37296  11.173   1.927   0.618  0.0523  0.4022  1.1476
  271MOL0     C37297  11.208   1.826   0.715  0.2718  0.0537 -0.4128
  271MOL0     C37298  11.349   1.847   0.773 -0.3343 -0.3122 -0.1805
  271MOL0     C37299  11.456   1.887   0.672  0.0404 -0.5625  0.0954
  271MOL0     C37300  11.599   1.853   0.730  0.2386  0.5753  0.0102
  271MOL0     C37301  11.714   1.888   0.637  0.1495 -0.1097 -0.4446
  271MOL0     C37302  11.852   1.840   0.700  0.9392  0.5565  0.2406
  271MOL0     C37303  11.959   1.834   0.582  0.1484  1.1100 -0.4532
  271MOL0     C37304  12.088   1.808   0.647 -0.4911 -0.7315  0.9404
  271MOL0    Cl37305  12.112   1.656   0.739 -0.0374  0.0911  0.2319
  271MOL0     C37306  11.022   2.062   0.511  0.0941 -0.5182 -0.4451
  271MOL0     C37307  10.896   2.121   0.481 -0.8879  0.4434  0.4985
  271MOL0     O37308  10.662   2.223   0.345 -0.5747  0.1968  0.3541
  271MOL0     C37309  10.390   2.212   0.301 -0.1533 -0.9340  0.4110
  271MOL0     C37310  10.255   2.209   0.285  0.9954  0.3041  0.1668
  271MOL0     N37311   9.514   2.254   0.725 -0.2734  0.5553 -0.0988
  271MOL0     N37312   9.422   2.347   0.739 -0.6275  1.5281 -0.1487
  271MOL0     C37313  10.167   2.691   0.451  0.1900  0.2102  0.3188
  271MOL0     C37314  10.307   2.709   0.432  0.0234  0.5011  0.6189
  271MOL0     C37315  10.725   2.791   0.237 -0.7460  0.2676 -0.0386
  271MOL0     C37316  10.765   2.697   0.137 -1.1269 -1.3808  0.3665
  271MOL0     C37317  10.894   2.701   0.084 -0.0820  0.4093  0.5079
  271MOL0     C37318  10.989   2.791   0.136  0.3958  0.5680  0.2039
  271MOL0     O37319  11.106   2.807   0.068 -0.0024 -0.9092 -0.3772
  271MOL0     C37320  11.188   2.688   0.043 -1.0813  0.7123  0.8579
  271MOL0     C37321  11.332   2.729  -0.008 -0.1391  0.4289 -0.5181
  271MOL0     C37322  11.436   2.612  -0.008 -0.0097  0.1270 -0.2728
  271MOL0     C37323  11.557   2.634  -0.107  1.4404 -0.4797 -0.1200
  271MOL0     C37324  11.643   2.520  -0.090 -0.1305  0.3962  0.0065
  271MOL0     C37325  11.730   2.437  -0.071 -0.3088  0.7477 -0.2601
  271MOL0     C37326  10.951   2.885   0.217 -0.1302 -0.4506 -0.7166
  271MOL0     C37327  10.824   2.893   0.283 -0.0182 -0.7687  0.9588
  271MOL0     C37328  10.789   2.999   0.378  0.7278 -0.6303 -0.1645
  271MOL0     H37329  10.367   2.536   0.147 -1.0139 -1.9349 -0.2729
  271MOL0     H37330  10.133   2.472   0.181 -4.6084  0.0892  1.9559
  271MOL0     H37331   9.951   2.747   0.198  0.0897  0.1678  0.7224
  271MOL0     H37332   9.925   2.813   0.353 -2.5720 -0.2354  0.8031
  271MOL0     H37333   9.734   2.769   0.204  1.4750 -0.2001 -0.5216
  271MOL0     H37334   9.753   2.595   0.225  0.9222 -1.8021  1.8486
  271MOL0     H37335   9.722   2.632   0.497 -3.1806  0.5718  1.7504
  271MOL0     H37336   9.711   2.803   0.454  1.0658 -0.6522  2.5186
  271MOL0     H37337   9.504   2.748   0.335  1.5434  1.8001  0.7542
  271MOL0     H37338   9.531   2.572   0.366 -1.8453  0.8435 -1.6930
  271MOL0     H37339   9.475   2.791   0.569 -1.2814  0.3026 -1.1961
  271MOL0     H37340   9.493   2.610   0.601  1.5109  0.7000  0.8050
  271MOL0     H37341   9.247   2.703   0.596 -0.8805  1.1525 -0.6892
  271MOL0     H37342   9.281   2.735   0.425 -2.1919 -0.6829  0.4715
  271MOL0     H37343   9.309   2.501   0.376 -0.6324 -1.0016  0.1891
  271MOL0     H37344   9.149   2.553   0.437 -0.1541 -1.8338 -1.7287
  271MOL0     H37345   9.199   2.481   0.656  1.2002  1.3746 -0.9161
  271MOL0     H37346   9.185   2.353   0.526  0.9217 -1.5238 -0.1614
  271MOL0     H37347   9.449   2.327   0.416 -1.0060  2.5088  0.1420
  271MOL0     H37348   9.603   2.050   0.508 -2.7009  1.0140  0.5503
  271MOL0     H37349   9.717   2.118   0.602 -0.6232  2.6268  0.8858
  271MOL0     H37350   9.785   2.125   0.354  3.1135  1.0094  1.1673
  271MOL0     H37351   9.650   2.227   0.319 -2.1673 -0.2321  2.0002
  271MOL0     H37352   9.835   2.381   0.344 -2.3779  0.2914 -0.7541
  271MOL0     H37353   9.767   2.396   0.502  3.6570  1.4782  0.7546
  271MOL0     H37354   9.993   2.363   0.532 -1.6536  1.3153  0.6234
  271MOL0     H37355   9.946   2.191   0.552 -0.4478 -0.9243 -0.7683
  271MOL0     H37356  10.170   2.203   0.622  0.0470  0.7231 -0.6893
  271MOL0     H37357  10.423   2.093   0.723  2.6989 -0.0627  0.3777
  271MOL0     H37358  10.358   2.256   0.748  0.3351  0.4487 -1.5038
  271MOL0     H37359  10.516   2.251   0.686  0.3576  0.4785  0.9401
  271MOL0     H37360  10.728   1.994   0.733 -0.5098 -1.6309 -1.4677
  271MOL0     H37361  10.928   1.873   0.778 -1.2254 -4.6246 -3.0940
  271MOL0     H37362  11.139   1.836   0.799  0.7492  1.5566 -0.1705
  271MOL0     H37363  11.199   1.723   0.678  0.4935 -0.6516  1.3986
  271MOL0     H37364  11.345   1.916   0.858 -3.3013  0.5244 -0.8525
  271MOL0     H37365  11.374   1.745   0.804  0.6963  1.1018  4.3612
  271MOL0     H37366  11.457   1.993   0.647  0.6977 -1.2268 -3.2028
  271MOL0     H37367  11.444   1.828   0.581 -1.2782  0.8874 -0.7210
  271MOL0     H37368  11.594   1.744   0.738 -1.6112  0.6290  0.0667
  271MOL0     H37369  11.619   1.896   0.829  0.0830 -0.3225  0.4389
  271MOL0     H37370  11.711   1.827   0.546  2.1913 -0.1177 -0.5497
  271MOL0     H37371  11.705   1.993   0.607  0.4003 -0.3400 -1.3662
  271MOL0     H37372  11.841   1.738   0.738 -0.7545  0.6922  0.2059
  271MOL0     H37373  11.885   1.916   0.772 -1.4560  1.5904  0.3504
  271MOL0     H37374  11.969   1.930   0.532 -2.2871  2.0318  0.6784
  271MOL0     H37375  11.941   1.749   0.516 -1.7512  3.2386 -2.8756
  271MOL0     H37376  12.102   1.888   0.721  1.3974 -0.5663  0.4517
  271MOL0     H37377  12.165   1.814   0.570  0.6395 -0.0565  2.0741
  271MOL0     H37378  11.101   2.081   0.440  2.0881 -1.3982  1.4303
  271MOL0     H37379  10.883   2.192   0.400 -0.3325 -1.6550 -1.5491
  271MOL0     H37380  10.450   2.223   0.211 -0.7085  2.0513  0.3239
  271MOL0     H37381  10.208   2.218   0.188  1.7314 -2.2835 -0.4924
  271MOL0     H37382  10.114   2.742   0.531 -1.0632 -3.3750  2.0084
  271MOL0     H37383  10.370   2.772   0.494 -2.7681  3.5244  0.6715
  271MOL0     H37384  10.703   2.616   0.099  1.8534 -2.7934 -1.8400
  271MOL0     H37385  10.910   2.611   0.026  0.6819 -0.6536  2.2910
  271MOL0     H37386  11.205   2.631   0.135  1.8811  2.4768  1.5464
  271MOL0     H37387  11.138   2.638  -0.041 -0.3446  5.7539 -3.0699
  271MOL0     H37388  11.367   2.811   0.056  3.1551  0.0487 -1.6000
  271MOL0     H37389  11.328   2.765  -0.111  2.7786  0.3882 -0.7426
  271MOL0     H37390  11.472   2.595   0.094  0.8984 -0.8501 -0.7506
  271MOL0     H37391  11.382   2.525  -0.045  1.2613 -1.2945  1.1181
  271MOL0     H37392  11.609   2.724  -0.071 -1.5310  1.3713 -0.1831
  271MOL0     H37393  11.533   2.657  -0.211 -0.5164  2.4052  0.8576
  271MOL0     H37394  11.814   2.373  -0.054 -0.0308  1.2224  0.1803
  271MOL0     H37395  11.034   2.953   0.237  0.8022 -1.4984 -0.9222
  271MOL0     H37396  10.876   3.047   0.423  0.0749 -0.4786  0.9855
  271MOL0     H37397  10.734   3.080   0.328  1.5415 -1.0434 -1.7765
  271MOL0     H37398  10.729   2.963   0.462  0.0090  0.3754 -0.2180
  272MOL0     O37399   3.818   2.451   8.763 -0.2089  0.5931 -0.5059
  272MOL0     C37400   3.755   2.372   8.838  0.3752  0.4806  0.6918
  272MOL0     O37401   3.799   2.322   8.958  0.0925 -0.5327  0.1950
  272MOL0     C37402   3.917   2.364   9.010 -0.0908 -0.3447 -0.0334
  272MOL0     C37403   3.936   2.432   9.132  0.0982  0.0547  0.2120
  272MOL0     C37404   4.067   2.465   9.186 -0.0810  0.3239 -0.1420
  272MOL0     C37405   4.174   2.437   9.110 -0.0520 -0.5721  0.6125
  272MOL0     O37406   4.303   2.460   9.144  0.2459 -0.5856  0.1876
  272MOL0     C37407   4.332   2.559   9.241  0.8487 -0.0555  0.3749
  272MOL0     C37408   4.472   2.615   9.225 -0.8300  0.9591  0.2820
  272MOL0     C37409   4.527   2.711   9.333  0.6206  0.0861 -0.3081
  272MOL0     C37410   4.656   2.783   9.290 -0.1062  0.4136 -0.7720
  272MOL0     C37411   4.772   2.690   9.253 -0.6599  0.3839  0.6741
  272MOL0     C37412   4.891   2.757   9.194 -0.3068 -0.7582 -0.1640
  272MOL0     C37413   4.944   2.880   9.282  0.2702  0.1462  0.0585
  272MOL0     C37414   5.099   2.899   9.274  0.5919  0.4283  0.1336
  272MOL0     N37415   5.164   2.789   9.348 -0.0630  0.4729  0.1732
  272MOL0     C37416   5.269   2.724   9.293  0.1880  0.4791 -0.2153
  272MOL0     C37417   5.342   2.681   9.399  0.5687 -0.2318 -0.0172
  272MOL0     C37418   5.472   2.610   9.381  0.6793  0.1030  0.3247
  272MOL0     C37419   5.589   2.692   9.363  0.3332 -0.7816 -0.4038
  272MOL0     C37420   5.729   2.634   9.333 -0.2141  0.2534 -0.5376
  272MOL0     C37421   5.786   2.578   9.462  0.4957 -0.0783  0.6032
  272MOL0     O37422   5.817   2.686   9.552  0.1619 -0.7245 -0.0150
  272MOL0     C37423   5.943   2.682   9.599  0.0337  0.0792  0.1669
  272MOL0     C37424   6.039   2.761   9.540  0.3202  0.1165 -0.4034
  272MOL0     C37425   6.176   2.752   9.564 -0.0132 -0.8303 -0.4799
  272MOL0     C37426   6.274   2.845   9.494 -0.0180  0.6871  0.6614
  272MOL0     C37427   6.217   2.653   9.664  0.2122 -0.5136  0.9249
  272MOL0     C37428   6.354   2.622   9.695  0.2038 -0.5228  0.0489
  272MOL0     O37429   6.367   2.552   9.812 -0.2237  1.0173  1.1456
  272MOL0     C37430   6.499   2.536   9.852  0.8370 -0.3919 -0.4146
  272MOL0     C37431   6.542   2.603   9.970  0.4888 -0.0303 -1.1818
  272MOL0     C37432   6.670   2.571  10.023 -0.1572 -0.3070  0.3477
  272MOL0     C37433   6.747   2.481   9.957 -0.0054 -0.1298 -0.0699
  272MOL0     O37434   6.874   2.464  10.006 -0.4755  0.4690  0.2227
  272MOL0     C37435   6.966   2.569   9.986 -0.2709 -0.2853  0.2402
  272MOL0     C37436   7.096   2.541  10.074 -0.8690  0.3563  0.1393
  272MOL0     C37437   7.176   2.420  10.030 -0.1651 -0.3993 -0.7808
  272MOL0     C37438   7.313   2.425  10.100  0.2942  0.3256  0.4048
  272MOL0     C37439   7.394   2.316  10.038  0.6428 -0.0420  0.7697
  272MOL0     C37440   7.536   2.312  10.099 -0.1288  0.0295  0.1411
  272MOL0     C37441   7.625   2.186  10.064 -0.0840  0.0003 -0.1638
  272MOL0     C37442   7.771   2.204  10.090  0.4974  0.0440  0.9245
  272MOL0    Cl37443   7.875   2.057  10.055  0.1118  0.6881  0.2087
  272MOL0     C37444   6.711   2.425   9.838 -0.5036 -0.2573 -0.4005
  272MOL0     C37445   6.583   2.452   9.787 -0.3964  0.0183  0.3847
  272MOL0     O37446   6.446   2.655   9.619 -0.5006  0.1134  0.4690
  272MOL0     C37447   6.115   2.570   9.736 -0.5015 -1.0366  0.0869
  272MOL0     C37448   5.984   2.590   9.696  0.6620 -0.0073  0.1386
  272MOL0     N37449   5.276   2.712   9.514  0.4715  0.5156 -0.8054
  272MOL0     N37450   5.167   2.768   9.482 -0.7106 -0.6160  0.0289
  272MOL0     C37451   4.163   2.362   8.999 -0.3423  0.1196 -0.0875
  272MOL0     C37452   4.034   2.322   8.945  0.2602  0.2696  0.7514
  272MOL0     C37453   3.638   2.290   8.799 -0.8495 -1.4141 -0.0142
  272MOL0     C37454   3.548   2.239   8.898  0.1831 -0.9264  0.3135
  272MOL0     C37455   3.430   2.163   8.861 -0.3251 -1.0399  0.1780
  272MOL0     C37456   3.403   2.140   8.731 -0.4516  0.4741  0.2417
  272MOL0     O37457   3.292   2.071   8.691 -0.0023  0.2509 -0.3537
  272MOL0     C37458   3.178   2.067   8.778 -0.0270 -0.0883 -0.6573
  272MOL0     C37459   3.082   1.973   8.716  0.4053  0.1171 -0.1945
  272MOL0     C37460   2.945   1.979   8.788 -0.4290 -0.1021  0.5159
  272MOL0     C37461   2.845   1.875   8.741 -0.3502  0.2572  0.3278
  272MOL0     C37462   2.803   1.931   8.611  0.9502 -0.5645  0.0072
  272MOL0     C37463   2.776   1.978   8.499  0.1620 -0.1128 -0.6451
  272MOL0     C37464   3.488   2.190   8.631 -0.3104 -0.5954 -0.1605
  272MOL0     C37465   3.610   2.266   8.657  0.7459  0.0794 -0.7661
  272MOL0     C37466   3.703   2.299   8.537 -0.1496  0.0670  0.0086
  272MOL0     H37467   3.845   2.460   9.184  0.6293  2.4896 -0.0387
  272MOL0     H37468   4.080   2.509   9.284  0.7679  0.9933 -0.5380
  272MOL0     H37469   4.330   2.511   9.339  1.6703 -0.3105  0.2719
  272MOL0     H37470   4.266   2.645   9.225  2.4333  1.1400  0.0465
  272MOL0     H37471   4.544   2.534   9.206 -2.3659 -0.3118 -0.3938
  272MOL0     H37472   4.467   2.656   9.124  0.8327  2.0084  0.5900
  272MOL0     H37473   4.449   2.786   9.351 -2.5594 -2.3814 -2.6963
  272MOL0     H37474   4.549   2.656   9.425  1.3471 -0.1221 -0.6049
  272MOL0     H37475   4.628   2.852   9.210 -2.6473 -0.4375 -0.7203
  272MOL0     H37476   4.683   2.847   9.375 -0.0228  1.0835 -1.2988
  272MOL0     H37477   4.741   2.622   9.173  0.1994 -0.4627  1.0380
  272MOL0     H37478   4.803   2.637   9.343 -0.1160  0.1271  0.3407
  272MOL0     H37479   4.973   2.684   9.185  0.3748 -0.0285  0.0922
  272MOL0     H37480   4.864   2.798   9.096 -4.0007 -1.4548  0.4238
  272MOL0     H37481   4.920   2.871   9.388  3.1152 -0.5618  0.7465
  272MOL0     H37482   4.894   2.970   9.245 -1.3263 -0.5958  0.3344
  272MOL0     H37483   5.122   2.903   9.168  0.4314 -1.4303 -0.0025
  272MOL0     H37484   5.132   2.994   9.317  0.4463  1.4563 -1.9171
  272MOL0     H37485   5.283   2.699   9.188 -0.8540 -0.1031 -0.2367
  272MOL0     H37486   5.458   2.532   9.306 -0.5258 -0.7688  1.4032
  272MOL0     H37487   5.490   2.536   9.460  1.9462 -1.5393 -1.4052
  272MOL0     H37488   5.567   2.766   9.286  0.4022 -1.0540 -0.6847
  272MOL0     H37489   5.596   2.744   9.459  1.3348 -0.5885 -0.5664
  272MOL0     H37490   5.713   2.560   9.254 -0.6756 -0.4916  0.2400
  272MOL0     H37491   5.798   2.711   9.296 -0.0316  0.9874  1.2448
  272MOL0     H37492   5.713   2.509   9.504  0.8030 -1.9590 -1.6902
  272MOL0     H37493   5.873   2.519   9.430 -0.5566 -0.2163 -2.3156
  272MOL0     H37494   6.004   2.830   9.464  0.9214 -0.8506 -1.5955
  272MOL0     H37495   6.238   2.903   9.409  1.8366 -2.5645 -2.6777
  272MOL0     H37496   6.360   2.796   9.447 -1.7156 -0.4615 -1.4932
  272MOL0     H37497   6.313   2.910   9.572 -1.0975 -0.4834  2.2291
  272MOL0     H37498   6.479   2.674  10.023 -0.4002 -0.9231 -1.0143
  272MOL0     H37499   6.715   2.625  10.106  1.4399 -0.6747 -0.2510
  272MOL0     H37500   6.989   2.571   9.879  0.0084 -2.1328  0.2274
  272MOL0     H37501   6.915   2.658  10.024  0.2763 -0.9566  2.7824
  272MOL0     H37502   7.164   2.627  10.073  2.0845 -1.7049  2.6240
  272MOL0     H37503   7.063   2.534  10.178  0.3527 -1.0486  0.4664
  272MOL0     H37504   7.189   2.419   9.922 -1.8238  1.1908 -1.0418
  272MOL0     H37505   7.128   2.332  10.075  0.6244  0.1418  1.2394
  272MOL0     H37506   7.306   2.442  10.208 -0.4006 -0.8869  0.5745
  272MOL0     H37507   7.363   2.516  10.065 -1.7855  0.9611 -1.0672
  272MOL0     H37508   7.352   2.214  10.041  0.6920 -0.3121 -2.9772
  272MOL0     H37509   7.404   2.340   9.932  1.2584 -0.9378  0.6079
  272MOL0     H37510   7.522   2.312  10.208  0.5186  0.0352  0.2291
  272MOL0     H37511   7.573   2.410  10.067  0.0391  0.5704  1.9018
  272MOL0     H37512   7.615   2.144   9.963 -0.8325 -2.9093  1.0258
  272MOL0     H37513   7.593   2.106  10.131  0.5631  0.1628  0.3409
  272MOL0     H37514   7.777   2.229  10.196 -2.2657  3.3067  0.4877
  272MOL0     H37515   7.805   2.288  10.028 -0.2955 -0.8119 -0.7398
  272MOL0     H37516   6.782   2.357   9.793  0.0391 -0.2427  0.4239
  272MOL0     H37517   6.558   2.399   9.696  1.0755  1.1407 -0.7430
  272MOL0     H37518   6.142   2.497   9.812 -4.0447 -2.0367  0.5793
  272MOL0     H37519   5.908   2.524   9.737  0.9422 -1.3908 -1.4503
  272MOL0     H37520   4.257   2.318   8.966  0.1407  1.1850 -0.1725
  272MOL0     H37521   4.034   2.258   8.857  0.6839  1.9619 -0.5277
  272MOL0     H37522   3.565   2.257   9.003 -0.2084  0.2195  0.1892
  272MOL0     H37523   3.363   2.131   8.941  2.2337 -1.2547  2.3944
  272MOL0     H37524   3.185   2.056   8.887 -2.8358  2.0602 -0.1604
  272MOL0     H37525   3.139   2.168   8.765 -1.6541 -0.5564  0.2765
  272MOL0     H37526   3.128   1.875   8.729  0.0466 -0.2894 -1.7521
  272MOL0     H37527   3.073   1.987   8.607  3.0629 -3.0231 -0.9813
  272MOL0     H37528   2.980   1.957   8.890 -0.6285  1.2890  0.9045
  272MOL0     H37529   2.911   2.083   8.794  2.6331  0.9406  3.2854
  272MOL0     H37530   2.752   1.859   8.797 -2.3772 -0.4208 -2.8989
  272MOL0     H37531   2.877   1.771   8.733 -4.4517 -1.1953  0.4671
  272MOL0     H37532   2.746   2.001   8.399  0.3141  2.9375 -0.0797
  272MOL0     H37533   3.478   2.153   8.530 -0.9089  1.5580 -0.9521
  272MOL0     H37534   3.801   2.253   8.549 -0.7851 -1.9885 -2.0494
  272MOL0     H37535   3.653   2.241   8.460  0.4579 -2.3024  1.2944
  272MOL0     H37536   3.711   2.405   8.509 -1.5796 -0.0593 -0.9535
  273MOL0     O37537   2.002   6.292   9.069 -0.1800  0.6037 -0.6911
  273MOL0     C37538   1.974   6.328   9.178  0.0887 -1.0936  0.0665
  273MOL0     O37539   2.040   6.286   9.289 -0.1741 -0.5608  0.4075
  273MOL0     C37540   2.145   6.197   9.279  0.3880 -0.0226 -0.1114
  273MOL0     C37541   2.136   6.076   9.210  0.8949  0.5965  0.4334
  273MOL0     C37542   2.243   5.985   9.198 -0.1262 -0.4562 -0.4652
  273MOL0     C37543   2.370   6.023   9.245  0.0049  0.6718 -0.2445
  273MOL0     O37544   2.470   5.936   9.229 -0.8059 -0.3824 -0.6748
  273MOL0     C37545   2.603   5.972   9.246 -0.8540 -0.1885  0.4970
  273MOL0     C37546   2.645   5.945   9.383 -0.8554  0.2727 -0.1734
  273MOL0     C37547   2.797   5.986   9.408 -0.4448  0.6796  0.0185
  273MOL0     C37548   2.864   5.868   9.483 -0.4021  0.7850 -0.0198
  273MOL0     C37549   3.006   5.898   9.527 -0.4442  0.4929 -0.2364
  273MOL0     C37550   3.027   6.001   9.646  0.1705 -0.0009  0.5816
  273MOL0     C37551   3.159   5.956   9.716 -0.3636  0.3857 -0.6308
  273MOL0     C37552   3.284   5.997   9.634 -0.3797  0.5458  0.9229
  273MOL0     N37553   3.411   5.943   9.691  0.3434  0.1703  0.0448
  273MOL0     C37554   3.516   5.888   9.627  0.7618  1.2826 -0.9977
  273MOL0     C37555   3.602   5.864   9.724  0.6633 -0.1150 -0.2103
  273MOL0     C37556   3.739   5.806   9.705 -0.1341  0.8016 -0.3409
  273MOL0     C37557   3.821   5.902   9.622 -1.3722 -0.5472  0.6564
  273MOL0     C37558   3.961   5.851   9.626 -0.2165 -0.2140 -0.5241
  273MOL0     C37559   4.061   5.945   9.553 -0.2746 -0.1426 -0.9529
  273MOL0     O37560   4.060   5.927   9.408  0.5926 -0.1227  0.1121
  273MOL0     C37561   4.130   5.831   9.341 -0.1631  0.7271  0.0323
  273MOL0     C37562   4.218   5.734   9.396  0.2164  0.0982 -0.2926
  273MOL0     C37563   4.284   5.630   9.328  0.0761 -1.3077 -0.4782
  273MOL0     C37564   4.377   5.540   9.409 -0.3526 -0.0302  0.3869
  273MOL0     C37565   4.242   5.609   9.198  0.1279  0.3931  0.8215
  273MOL0     C37566   4.314   5.515   9.103 -0.4780  0.9764  0.4058
  273MOL0     O37567   4.255   5.495   8.981  0.0309  0.4570 -0.7168
  273MOL0     C37568   4.294   5.391   8.898  0.4069 -0.0148  1.0291
  273MOL0     C37569   4.321   5.266   8.947  0.1072  0.3787  0.2920
  273MOL0     C37570   4.319   5.145   8.871  0.1747 -0.4408 -1.1165
  273MOL0     C37571   4.282   5.160   8.736 -0.6742 -0.3418  0.3210
  273MOL0     O37572   4.275   5.045   8.662  0.1371 -0.1979  0.1857
  273MOL0     C37573   4.244   5.053   8.520 -0.3492 -0.2608 -0.1062
  273MOL0     C37574   4.207   4.921   8.456 -0.0970 -0.5634 -1.5146
  273MOL0     C37575   4.222   4.910   8.307 -0.0201  0.6495  0.8118
  273MOL0     C37576   4.174   5.027   8.216  0.9396  0.5216 -0.6862
  273MOL0     C37577   4.023   5.049   8.226  0.0906 -0.2337  0.1384
  273MOL0     C37578   3.935   4.930   8.177  0.2746  0.6615  0.3445
  273MOL0     C37579   3.786   4.960   8.193 -0.3721  0.0835 -0.7421
  273MOL0     C37580   3.746   4.968   8.340  0.2051 -0.6287  0.0791
  273MOL0    Cl37581   3.810   4.835   8.445  0.0178 -0.3129 -0.4576
  273MOL0     C37582   4.263   5.286   8.685 -0.2018  0.3217  0.3513
  273MOL0     C37583   4.265   5.396   8.759 -0.3251  0.1102 -0.4395
  273MOL0     O37584   4.428   5.474   9.130  0.8645  0.2635 -0.2708
  273MOL0     C37585   4.138   5.687   9.146  0.1223  0.2542 -0.6016
  273MOL0     C37586   4.077   5.794   9.215 -1.2636 -1.0359 -0.3023
  273MOL0     N37587   3.556   5.920   9.840 -0.2051 -0.1612 -0.2374
  273MOL0     N37588   3.445   5.971   9.817 -0.2826  0.1164  0.1382
  273MOL0     C37589   2.378   6.145   9.320 -0.5199 -0.2357 -0.3763
  273MOL0     C37590   2.267   6.230   9.343 -0.9322  0.4062  0.3802
  273MOL0     C37591   1.856   6.420   9.192  0.4969 -0.4222 -0.2783
  273MOL0     C37592   1.841   6.518   9.095  0.0637 -0.0482  1.5637
  273MOL0     C37593   1.746   6.627   9.110 -0.1056  0.4163 -1.3951
  273MOL0     C37594   1.654   6.625   9.216 -0.7394 -0.0068  0.2119
  273MOL0     O37595   1.580   6.735   9.221  0.2511  0.0650  0.4708
  273MOL0     C37596   1.554   6.794   9.351  1.4495 -0.5806 -0.0959
  273MOL0     C37597   1.551   6.953   9.331 -0.1095  0.0577  0.5185
  273MOL0     C37598   1.526   7.050   9.457  0.1190  0.2670 -0.7066
  273MOL0     C37599   1.654   7.065   9.542 -0.1462 -0.6016 -0.5536
  273MOL0     C37600   1.624   7.150   9.660 -0.1615 -0.3629 -0.4343
  273MOL0     C37601   1.587   7.228   9.747 -0.3627  1.0203 -0.7091
  273MOL0     C37602   1.659   6.517   9.304 -0.0940 -0.1672 -0.7475
  273MOL0     C37603   1.762   6.411   9.298  0.5526 -0.7942  0.8693
  273MOL0     C37604   1.781   6.312   9.415  0.6090 -0.5485  0.5111
  273MOL0     H37605   2.045   6.056   9.155  1.8820 -2.0918 -0.3877
  273MOL0     H37606   2.229   5.890   9.149  0.4953 -0.1527 -1.2497
  273MOL0     H37607   2.626   6.074   9.213  0.7389 -1.0858 -1.3910
  273MOL0     H37608   2.661   5.926   9.166 -0.3861  3.0967 -1.2420
  273MOL0     H37609   2.580   6.006   9.446 -1.9101 -1.0534  0.0597
  273MOL0     H37610   2.637   5.840   9.411  1.8218  0.3822  1.3564
  273MOL0     H37611   2.865   5.990   9.322 -1.1051 -1.4449 -0.6712
  273MOL0     H37612   2.803   6.068   9.479  1.0537  1.3647 -0.8398
  273MOL0     H37613   2.808   5.830   9.568  0.1398 -0.0927 -0.0493
  273MOL0     H37614   2.883   5.786   9.414 -1.5567 -0.4574  1.0951
  273MOL0     H37615   3.066   5.934   9.443 -1.2407  2.9311  0.1601
  273MOL0     H37616   3.046   5.802   9.560  1.0350  1.2984  0.3924
  273MOL0     H37617   3.026   6.100   9.601  1.1496 -0.7138 -1.0867
  273MOL0     H37618   2.941   5.989   9.714 -1.8000  3.3019 -1.0774
  273MOL0     H37619   3.160   5.851   9.747  0.7408  1.1421  2.2846
  273MOL0     H37620   3.159   6.017   9.807  2.5364  0.6343 -0.7073
  273MOL0     H37621   3.265   5.941   9.542  0.1780 -0.9535  1.6779
  273MOL0     H37622   3.286   6.104   9.614  4.3035  0.8087  1.5786
  273MOL0     H37623   3.536   5.854   9.525  2.2023 -2.9532  0.4592
  273MOL0     H37624   3.727   5.710   9.654  2.0995 -2.1453  3.9631
  273MOL0     H37625   3.786   5.790   9.803 -3.4579  2.5757  1.7642
  273MOL0     H37626   3.780   5.891   9.521 -3.0802 -2.3732  1.4584
  273MOL0     H37627   3.812   6.004   9.659  3.3044 -0.7170  2.9135
  273MOL0     H37628   3.997   5.849   9.729 -2.8532 -0.3545  0.4707
  273MOL0     H37629   3.963   5.757   9.570 -1.0064  0.8796 -2.5092
  273MOL0     H37630   4.027   6.046   9.575 -1.9988 -0.1459 -3.2408
  273MOL0     H37631   4.162   5.924   9.589 -0.9440  1.2212  2.0435
  273MOL0     H37632   4.234   5.743   9.503 -0.1991 -0.5500 -0.1661
  273MOL0     H37633   4.330   5.522   9.506 -0.0475  0.0683  0.5525
  273MOL0     H37634   4.471   5.594   9.423 -0.7587  1.7099 -2.6056
  273MOL0     H37635   4.406   5.444   9.366  3.0987  0.1119  2.0473
  273MOL0     H37636   4.334   5.255   9.054  0.4094 -2.7802  0.0313
  273MOL0     H37637   4.353   5.051   8.914  0.2696  0.3857  0.6846
  273MOL0     H37638   4.167   5.127   8.495 -0.2349 -0.3665 -0.7846
  273MOL0     H37639   4.333   5.091   8.469  0.8737 -1.6329  0.9259
  273MOL0     H37640   4.273   4.845   8.499  0.1020  0.3977 -0.0533
  273MOL0     H37641   4.102   4.892   8.468  0.5016 -3.2112 -1.9111
  273MOL0     H37642   4.168   4.823   8.267 -0.2092  0.6015  1.1598
  273MOL0     H37643   4.329   4.898   8.293 -0.4321 -1.8726 -0.8488
  273MOL0     H37644   4.192   5.003   8.111 -2.5911  0.1460 -1.3240
  273MOL0     H37645   4.222   5.124   8.237  1.1741  0.2386  0.1146
  273MOL0     H37646   3.998   5.080   8.328 -1.7052 -0.1597 -0.2878
  273MOL0     H37647   4.009   5.137   8.163  0.1059 -2.1553 -2.7208
  273MOL0     H37648   3.950   4.840   8.237  1.6798  0.6665  0.0509
  273MOL0     H37649   3.963   4.906   8.073 -0.5631 -1.1043  0.4829
  273MOL0     H37650   3.734   4.881   8.137  2.2619 -1.7540 -0.7594
  273MOL0     H37651   3.752   5.056   8.153 -1.8997  0.4207  1.2307
  273MOL0     H37652   3.637   4.953   8.343 -0.1110  0.6640 -2.1904
  273MOL0     H37653   3.759   5.071   8.373  3.4418  0.1128 -2.9330
  273MOL0     H37654   4.244   5.312   8.581 -0.6704  0.9291  0.5845
  273MOL0     H37655   4.226   5.489   8.720  2.8556  1.7272 -0.1279
  273MOL0     H37656   4.097   5.666   9.048  0.5033  0.7287 -0.8681
  273MOL0     H37657   4.001   5.861   9.178  1.1212  0.9622 -1.9386
  273MOL0     H37658   2.468   6.178   9.370  0.5948  0.7519 -2.8657
  273MOL0     H37659   2.268   6.314   9.411 -1.2609  0.1154  0.7505
  273MOL0     H37660   1.916   6.510   9.018  4.0115  2.1395  4.8053
  273MOL0     H37661   1.748   6.704   9.033 -0.6135  0.2036 -1.6262
  273MOL0     H37662   1.459   6.746   9.375  0.8504 -0.8034 -2.6021
  273MOL0     H37663   1.641   6.773   9.415  0.7707 -1.0021  0.7059
  273MOL0     H37664   1.482   6.986   9.254 -0.4636  1.1947  1.2885
  273MOL0     H37665   1.651   6.975   9.293 -1.0116 -0.7741 -2.6097
  273MOL0     H37666   1.500   7.147   9.414 -1.6369 -0.0330 -0.3873
  273MOL0     H37667   1.440   7.009   9.511  0.5023  1.5696  0.9725
  273MOL0     H37668   1.735   7.104   9.480 -1.3245 -0.4291 -2.0463
  273MOL0     H37669   1.693   6.970   9.579 -0.9487 -0.7408 -0.0383
  273MOL0     H37670   1.567   7.310   9.812  0.5345  0.1779  0.6917
  273MOL0     H37671   1.584   6.512   9.382 -1.5322 -0.1510 -2.0991
  273MOL0     H37672   1.827   6.217   9.386  2.6654  0.5391  0.0521
  273MOL0     H37673   1.851   6.348   9.491  0.9142  1.7153 -0.7506
  273MOL0     H37674   1.681   6.281   9.447  0.9171  0.2736  2.4268
  274MOL0     O37675   0.851   5.357   3.767 -0.2084  0.3029 -0.4188
  274MOL0     C37676   0.797   5.404   3.868 -0.2035 -0.5329  0.3060
  274MOL0     O37677   0.864   5.472   3.964 -0.1447 -0.6281  0.3697
  274MOL0     C37678   1.001   5.472   3.953  0.5506  0.4159  0.4868
  274MOL0     C37679   1.074   5.358   3.991  0.6014 -0.6777  0.4851
  274MOL0     C37680   1.209   5.357   3.999 -0.3017  0.9966  0.5859
  274MOL0     C37681   1.286   5.465   3.950  0.2221  0.6778  0.4174
  274MOL0     O37682   1.419   5.453   3.968  0.1419  0.4528  0.5733
  274MOL0     C37683   1.459   5.525   4.081 -0.0650 -0.4446 -1.0427
  274MOL0     C37684   1.608   5.497   4.117  0.1818 -0.0402  0.0077
  274MOL0     C37685   1.635   5.559   4.252  0.6260  0.3077  0.5271
  274MOL0     C37686   1.641   5.705   4.229 -0.8125 -0.5046 -0.3767
  274MOL0     C37687   1.683   5.763   4.367  0.0609  0.2327 -0.0223
  274MOL0     C37688   1.661   5.919   4.373 -0.0233  0.2649 -0.4942
  274MOL0     C37689   1.713   5.991   4.506  0.0072  0.6867  0.9438
  274MOL0     C37690   1.698   6.141   4.508 -0.5347 -0.0384  0.2062
  274MOL0     N37691   1.747   6.193   4.634  0.6904 -0.4089  0.5577
  274MOL0     C37692   1.867   6.245   4.657  0.0694 -0.2462  0.2175
  274MOL0     C37693   1.869   6.297   4.782  0.7569  0.3169 -0.5615
  274MOL0     C37694   1.977   6.359   4.858 -0.4419  0.4896  0.2097
  274MOL0     C37695   2.084   6.255   4.902 -0.6410  0.0685 -1.3225
  274MOL0     C37696   2.036   6.128   4.970 -0.6784  0.0433  0.4136
  274MOL0     C37697   1.976   6.145   5.109  0.7158 -0.5292  0.2146
  274MOL0     O37698   1.943   6.027   5.177 -0.2132  0.6265  0.7592
  274MOL0     C37699   1.815   5.982   5.170  0.8038  0.3071  0.0313
  274MOL0     C37700   1.730   6.004   5.059 -0.6986  1.1258 -0.1003
  274MOL0     C37701   1.606   5.939   5.052 -0.0254 -0.1540  0.0763
  274MOL0     C37702   1.528   5.962   4.926 -0.0987  0.8091  0.0577
  274MOL0     C37703   1.560   5.854   5.158  0.2014  0.5246  0.4122
  274MOL0     C37704   1.426   5.783   5.172  0.7166  0.0117  1.0767
  274MOL0     O37705   1.421   5.667   5.238  0.2035 -0.7303 -0.1911
  274MOL0     C37706   1.316   5.581   5.208  0.1236 -0.5191  0.5225
  274MOL0     C37707   1.249   5.529   5.318  0.2405 -0.5070 -0.6877
  274MOL0     C37708   1.140   5.451   5.304  1.1474 -0.2784 -0.2067
  274MOL0     C37709   1.104   5.402   5.180  0.2029 -0.4255  0.1812
  274MOL0     O37710   1.000   5.312   5.187  0.3812 -0.2101 -0.5065
  274MOL0     C37711   0.955   5.231   5.075 -0.8797 -0.3261 -0.1787
  274MOL0     C37712   0.861   5.124   5.120 -0.1355 -0.3184  0.6441
  274MOL0     C37713   0.832   5.020   5.008 -0.0026 -0.5342 -0.0961
  274MOL0     C37714   0.711   4.942   5.046  0.0447 -0.5210  0.2574
  274MOL0     C37715   0.574   5.011   5.046 -0.3723 -0.2177  0.4220
  274MOL0     C37716   0.464   4.908   5.068 -0.5796 -0.0337 -0.3662
  274MOL0     C37717   0.329   4.991   5.063 -0.0806  0.3399  0.5168
  274MOL0     C37718   0.205   4.889   5.069 -1.5054 -0.8567 -0.5824
  274MOL0    Cl37719   0.176   4.796   4.914  0.2418  0.4081  0.3147
  274MOL0     C37720   1.179   5.441   5.064 -0.5313 -0.2645 -0.1381
  274MOL0     C37721   1.284   5.539   5.079 -0.1223  0.7903 -0.1564
  274MOL0     O37722   1.324   5.839   5.127  0.6327 -0.5571  0.3517
  274MOL0     C37723   1.643   5.836   5.261 -0.3900 -0.0704  0.0322
  274MOL0     C37724   1.773   5.897   5.272 -0.1510 -0.0228 -0.2124
  274MOL0     N37725   1.737   6.276   4.825 -0.4250  0.3816  0.0891
  274MOL0     N37726   1.668   6.209   4.739  0.2292 -0.6712  0.6811
  274MOL0     C37727   1.220   5.574   3.913 -0.5581 -0.2707  0.7706
  274MOL0     C37728   1.076   5.584   3.905  0.0950  0.3844  0.4958
  274MOL0     C37729   0.648   5.393   3.898 -0.0623  0.0530  0.2161
  274MOL0     C37730   0.588   5.507   3.962 -0.8403  0.0408 -0.1966
  274MOL0     C37731   0.450   5.515   3.988 -0.2481  0.4521  0.5128
  274MOL0     C37732   0.370   5.410   3.951  0.8989 -0.3829  0.2445
  274MOL0     O37733   0.235   5.427   3.959  0.3972  0.4974 -0.9778
  274MOL0     C37734   0.149   5.306   3.986 -0.4271  0.1127  0.6066
  274MOL0     C37735   0.145   5.274   4.131 -0.4503  0.6879  0.3431
  274MOL0     C37736   0.051   5.163   4.169 -0.4584  0.4222 -0.4806
  274MOL0     C37737   0.074   5.024   4.103  0.8663 -0.2946 -0.5723
  274MOL0     C37738   0.212   4.993   4.068  0.3058  0.3664 -0.0141
  274MOL0     C37739   0.325   4.962   4.043  0.8117 -0.6840 -0.4386
  274MOL0     C37740   0.425   5.305   3.886  0.4216  0.7169 -0.2577
  274MOL0     C37741   0.556   5.292   3.850  0.4113  0.0447 -0.3682
  274MOL0     C37742   0.588   5.169   3.784  0.4904 -0.0052  0.1375
  274MOL0     H37743   1.016   5.274   4.027  0.0294 -0.7753 -0.6182
  274MOL0     H37744   1.265   5.268   4.027  1.4086  1.4676 -1.1777
  274MOL0     H37745   1.395   5.495   4.164 -0.9438  1.0861 -1.1386
  274MOL0     H37746   1.444   5.633   4.070 -2.4034 -0.2394  2.5454
  274MOL0     H37747   1.622   5.389   4.105  1.6455  0.2093 -0.6937
  274MOL0     H37748   1.671   5.545   4.042  3.3338 -1.6565  1.4481
  274MOL0     H37749   1.550   5.529   4.314  0.2179  0.0933 -0.1304
  274MOL0     H37750   1.724   5.529   4.308  0.9445  1.7132  0.8148
  274MOL0     H37751   1.716   5.730   4.153  1.6765 -1.8161  1.4679
  274MOL0     H37752   1.544   5.747   4.202  0.4427  1.1849 -2.6878
  274MOL0     H37753   1.787   5.740   4.388  0.3384 -1.5795 -2.8683
  274MOL0     H37754   1.628   5.709   4.445 -1.3887 -0.0551 -1.1788
  274MOL0     H37755   1.713   5.973   4.293  1.3075  1.9621  1.4343
  274MOL0     H37756   1.552   5.935   4.373  0.3262  3.1047 -0.2532
  274MOL0     H37757   1.820   5.977   4.520  0.4898  3.7932  1.0291
  274MOL0     H37758   1.662   5.948   4.592  0.0779  0.3851  0.8339
  274MOL0     H37759   1.744   6.191   4.422  1.9716 -1.1797  0.7757
  274MOL0     H37760   1.592   6.160   4.491 -1.1023 -3.6537 -1.2563
  274MOL0     H37761   1.946   6.232   4.584 -0.0271 -0.4286  0.1442
  274MOL0     H37762   1.954   6.407   4.954  0.6319  0.0467  0.7075
  274MOL0     H37763   2.014   6.430   4.784 -1.8906  0.1346 -0.9082
  274MOL0     H37764   2.134   6.221   4.811  1.1148 -1.7311  0.2180
  274MOL0     H37765   2.158   6.298   4.969 -2.8978  0.2381  1.2239
  274MOL0     H37766   1.972   6.074   4.900 -1.1945 -2.6752  2.8092
  274MOL0     H37767   2.127   6.068   4.985  2.1924  4.0590  0.7870
  274MOL0     H37768   2.041   6.206   5.173  1.4114  0.1725 -1.1084
  274MOL0     H37769   1.889   6.210   5.098  0.0090 -1.8581 -3.2901
  274MOL0     H37770   1.769   6.055   4.971  1.5295  1.5018  1.0509
  274MOL0     H37771   1.598   6.013   4.859 -0.9391  1.4630 -0.3512
  274MOL0     H37772   1.444   6.031   4.938  0.2429  1.5351 -1.4134
  274MOL0     H37773   1.487   5.869   4.885 -0.5301  0.6477  0.8494
  274MOL0     H37774   1.272   5.560   5.420  2.2905  1.0503 -1.5498
  274MOL0     H37775   1.087   5.420   5.394  0.3102  0.6351 -0.3630
  274MOL0     H37776   0.912   5.301   5.003 -2.7069 -1.3474 -0.1324
  274MOL0     H37777   1.050   5.190   5.038 -0.4701  0.5169 -0.0695
  274MOL0     H37778   0.912   5.057   5.190  1.2625 -0.0220 -0.0520
  274MOL0     H37779   0.774   5.170   5.168  0.3605  2.3994 -0.8803
  274MOL0     H37780   0.914   4.948   5.005  0.8607  0.3145  1.8247
  274MOL0     H37781   0.822   5.078   4.916  2.6870 -0.8744 -0.6786
  274MOL0     H37782   0.728   4.901   5.146  0.0921  0.0990  0.5073
  274MOL0     H37783   0.703   4.867   4.967 -2.9736  1.8812 -1.9803
  274MOL0     H37784   0.560   5.085   5.126 -1.1451 -1.0747  1.0922
  274MOL0     H37785   0.564   5.053   4.946  0.3175  0.5062  0.6453
  274MOL0     H37786   0.475   4.859   5.166  2.8318  2.2968  0.6039
  274MOL0     H37787   0.462   4.841   4.982  1.5142 -0.6259 -0.0300
  274MOL0     H37788   0.330   5.049   4.970  0.1019 -3.2886 -1.9944
  274MOL0     H37789   0.325   5.054   5.152 -0.7378 -0.0733  0.7938
  274MOL0     H37790   0.115   4.946   5.094  0.7402  2.0120  1.6982
  274MOL0     H37791   0.219   4.813   5.147  0.3210 -0.1720 -0.1801
  274MOL0     H37792   1.175   5.412   4.959  0.3524 -4.4729  0.8088
  274MOL0     H37793   1.342   5.578   4.996  0.5257  0.7471  0.2649
  274MOL0     H37794   1.619   5.761   5.335  4.5184  0.3242  2.4643
  274MOL0     H37795   1.843   5.861   5.347  1.4727 -3.1657 -2.9604
  274MOL0     H37796   1.285   5.656   3.883 -3.3953  2.4856  1.5546
  274MOL0     H37797   1.023   5.673   3.875 -0.2550 -0.4695 -1.5603
  274MOL0     H37798   0.648   5.584   4.010  2.5163 -2.7321  0.4744
  274MOL0     H37799   0.414   5.604   4.039  0.2512  2.1252 -1.8784
  274MOL0     H37800   0.044   5.327   3.961 -1.3953 -3.2190  1.3387
  274MOL0     H37801   0.178   5.217   3.931  2.7022  0.6190  1.2515
  274MOL0     H37802   0.118   5.364   4.188  0.1475  0.0406  1.7022
  274MOL0     H37803   0.242   5.236   4.166 -0.3337 -0.4493 -1.1357
  274MOL0     H37804   0.052   5.149   4.277 -0.0296 -0.4515 -0.5888
  274MOL0     H37805  -0.050   5.193   4.139 -0.1849  0.2521 -1.6161
  274MOL0     H37806   0.016   5.015   4.010 -0.9562 -1.3681  0.6107
  274MOL0     H37807   0.040   4.946   4.171  3.6815 -0.4386  0.7977
  274MOL0     H37808   0.423   4.952   4.001  0.8345  0.7127 -0.7644
  274MOL0     H37809   0.358   5.234   3.838  0.5429  0.4291 -0.0018
  274MOL0     H37810   0.692   5.137   3.788  0.7467  0.5243 -1.4780
  274MOL0     H37811   0.533   5.087   3.832  0.2349 -0.2529 -0.5671
  274MOL0     H37812   0.557   5.178   3.679  2.1198 -0.8012 -0.4428
  275MOL0     O37813   8.193   7.629   1.062  0.3832 -0.3455 -0.5587
  275MOL0     C37814   8.139   7.703   1.151  0.5730 -0.0507  0.6338
  275MOL0     O37815   8.193   7.739   1.274  0.2453  0.4707  0.1117
  275MOL0     C37816   8.321   7.701   1.294  0.9024 -0.3691  2.2242
  275MOL0     C37817   8.348   7.576   1.354 -0.6530  0.1570  0.0499
  275MOL0     C37818   8.476   7.544   1.407 -0.1521  0.3603 -0.4293
  275MOL0     C37819   8.578   7.635   1.385 -0.2270 -0.4436  0.6525
  275MOL0     O37820   8.698   7.591   1.433 -0.3372 -0.1111  0.2499
  275MOL0     C37821   8.814   7.658   1.381 -1.4394 -0.6860  0.4290
  275MOL0     C37822   8.938   7.572   1.430  0.1831  0.2963 -0.1936
  275MOL0     C37823   9.054   7.561   1.331  0.4149  0.2513 -0.0178
  275MOL0     C37824   9.185   7.543   1.410  0.1663 -0.2557  0.6937
  275MOL0     C37825   9.301   7.586   1.316  0.3416 -1.0692 -0.2619
  275MOL0     C37826   9.331   7.739   1.334  0.7956 -0.0210 -0.2411
  275MOL0     C37827   9.474   7.755   1.291 -0.2700  0.2721 -0.1138
  275MOL0     C37828   9.522   7.714   1.158 -0.1467 -0.6974 -0.4678
  275MOL0     N37829   9.668   7.704   1.132 -0.2085 -1.0718 -1.2297
  275MOL0     C37830   9.751   7.600   1.158  0.6688  0.1321 -0.9549
  275MOL0     C37831   9.864   7.623   1.090  0.3443  0.4943 -0.3305
  275MOL0     C37832   9.988   7.535   1.082 -0.0854  0.9729 -0.7719
  275MOL0     C37833  10.086   7.552   1.194 -0.0275  0.3037 -0.0020
  275MOL0     C37834  10.224   7.494   1.156  0.1735 -0.5500 -0.2551
  275MOL0     C37835  10.332   7.481   1.271 -0.1165  0.4513  0.2920
  275MOL0     O37836  10.358   7.610   1.318 -0.0743 -0.8119 -0.3325
  275MOL0     C37837  10.481   7.628   1.378  0.2907  0.1680 -0.8039
  275MOL0     C37838  10.545   7.540   1.475  0.0466  0.8153  0.2888
  275MOL0     C37839  10.676   7.565   1.531  0.7664  0.5776 -0.7285
  275MOL0     C37840  10.732   7.466   1.637 -0.5725  0.8485  0.6505
  275MOL0     C37841  10.742   7.687   1.491 -1.0705 -0.4220 -0.0932
  275MOL0     C37842  10.880   7.731   1.534  0.1580  0.2336  0.0411
  275MOL0     O37843  10.926   7.841   1.479 -0.0399 -0.5746  0.0507
  275MOL0     C37844  11.060   7.869   1.471  0.3299 -0.6360 -0.3726
  275MOL0     C37845  11.114   7.959   1.559  1.1336  0.8310  0.7787
  275MOL0     C37846  11.254   7.983   1.562 -0.3208 -0.1793 -0.2539
  275MOL0     C37847  11.337   7.901   1.491 -0.5655  0.0826 -0.2546
  275MOL0     O37848  11.473   7.922   1.498 -0.5536 -0.6444 -0.4549
  275MOL0     C37849  11.557   7.812   1.462  0.0316  0.2684 -0.2922
  275MOL0     C37850  11.700   7.847   1.494  0.1168 -0.4047  0.8025
  275MOL0     C37851  11.795   7.729   1.487  0.6857  0.3536  0.1122
  275MOL0     C37852  11.801   7.653   1.625 -0.1833 -0.5393  0.2841
  275MOL0     C37853  11.907   7.550   1.630 -0.5107  0.1514 -0.0257
  275MOL0     C37854  12.042   7.574   1.557  0.3240 -0.2399 -1.0377
  275MOL0     C37855  12.137   7.454   1.585  0.3790  0.1504 -0.0949
  275MOL0     C37856  12.252   7.455   1.483 -0.4304 -0.3522  0.6236
  275MOL0    Cl37857  12.200   7.432   1.315  0.6135  0.2490 -0.3738
  275MOL0     C37858  11.283   7.812   1.404  1.0050  0.4689 -0.2267
  275MOL0     C37859  11.145   7.794   1.398  0.0927  0.0076 -0.2873
  275MOL0     O37860  10.960   7.654   1.583 -0.1199 -0.0557 -0.6029
  275MOL0     C37861  10.675   7.773   1.407 -0.0428 -0.0689  0.0467
  275MOL0     C37862  10.552   7.741   1.353  0.6504 -0.6773 -0.5791
  275MOL0     N37863   9.855   7.749   1.031 -0.6641 -0.0246 -0.4047
  275MOL0     N37864   9.740   7.797   1.065 -1.0649 -0.3160  0.0510
  275MOL0     C37865   8.557   7.755   1.313  1.1784 -0.1306  0.4405
  275MOL0     C37866   8.429   7.792   1.272 -0.1953  0.1785  0.3414
  275MOL0     C37867   7.995   7.755   1.126 -0.1134  0.0498 -0.2719
  275MOL0     C37868   7.962   7.871   1.201 -1.3171 -0.0770 -0.2309
  275MOL0     C37869   7.844   7.940   1.183  0.1803 -0.3115  0.2531
  275MOL0     C37870   7.742   7.885   1.104 -0.0625 -0.3910 -0.4238
  275MOL0     O37871   7.616   7.931   1.092  0.0383 -0.4509  0.2182
  275MOL0     C37872   7.569   8.027   1.192 -0.2200  0.2903 -0.1080
  275MOL0     C37873   7.420   8.042   1.185 -1.1136  0.7232 -0.4478
  275MOL0     C37874   7.377   8.146   1.287 -1.0037  0.6652  1.1903
  275MOL0     C37875   7.239   8.198   1.254  0.7797 -0.0243 -0.0777
  275MOL0     C37876   7.188   8.302   1.352  0.8305 -0.2632  0.0194
  275MOL0     C37877   7.160   8.380   1.430  0.3939 -0.4378 -0.2700
  275MOL0     C37878   7.771   7.772   1.028  0.8436  0.8343  0.6972
  275MOL0     C37879   7.899   7.709   1.037 -0.5431 -0.4321  0.2241
  275MOL0     C37880   7.923   7.595   0.939  0.2396 -0.2130  0.1065
  275MOL0     H37881   8.274   7.499   1.373  0.9729 -0.7873  3.2933
  275MOL0     H37882   8.492   7.451   1.460  1.1357  0.6162 -0.3492
  275MOL0     H37883   8.825   7.760   1.418 -0.7387  0.0904 -1.8080
  275MOL0     H37884   8.818   7.666   1.272  0.2295 -0.1714  0.4925
  275MOL0     H37885   8.979   7.612   1.524  2.0312  1.3496 -1.3976
  275MOL0     H37886   8.911   7.467   1.441 -3.7057  0.7946 -3.0230
  275MOL0     H37887   9.026   7.470   1.277 -1.6226 -0.6879  2.4055
  275MOL0     H37888   9.050   7.644   1.260  1.4732 -0.3588 -0.8205
  275MOL0     H37889   9.192   7.584   1.511 -3.1055  0.2281  0.8508
  275MOL0     H37890   9.186   7.435   1.428  1.6325 -0.1720  1.2571
  275MOL0     H37891   9.274   7.575   1.211  1.4768 -2.3599 -0.4496
  275MOL0     H37892   9.393   7.530   1.335 -0.5168 -2.9841 -1.5183
  275MOL0     H37893   9.260   7.799   1.275 -0.1043 -0.4363  0.4141
  275MOL0     H37894   9.304   7.764   1.437 -0.9366 -0.4598 -0.5555
  275MOL0     H37895   9.538   7.706   1.365 -1.1786 -0.5933  0.1112
  275MOL0     H37896   9.495   7.862   1.290 -3.8694  1.0993  0.5009
  275MOL0     H37897   9.476   7.619   1.130  0.8674 -1.7329  1.2070
  275MOL0     H37898   9.481   7.792   1.094 -0.8556 -0.0958  0.6859
  275MOL0     H37899   9.711   7.514   1.211 -0.4006  2.1545  1.7894
  275MOL0     H37900  10.044   7.559   0.991  1.9080  0.9915  0.3796
  275MOL0     H37901   9.962   7.429   1.073  0.8213  0.4263  2.0871
  275MOL0     H37902  10.105   7.657   1.217 -1.5025  0.2520  1.7021
  275MOL0     H37903  10.053   7.508   1.289  2.0277 -0.7356  0.2761
  275MOL0     H37904  10.217   7.393   1.115 -1.3960 -0.7409  0.4140
  275MOL0     H37905  10.279   7.552   1.081  1.4032 -0.7948  0.4188
  275MOL0     H37906  10.290   7.413   1.345 -1.4578 -0.5660 -1.3578
  275MOL0     H37907  10.430   7.446   1.235 -0.0140  1.4468 -0.4380
  275MOL0     H37908  10.481   7.453   1.492 -2.8634  2.1150 -2.8861
  275MOL0     H37909  10.772   7.523   1.721  1.8069  1.0301 -0.5294
  275MOL0     H37910  10.813   7.410   1.591 -0.1621  2.0824 -0.1766
  275MOL0     H37911  10.649   7.408   1.678  0.0470  0.2224  1.0462
  275MOL0     H37912  11.047   8.006   1.630  2.2119  1.3422  1.4859
  275MOL0     H37913  11.293   8.064   1.623 -2.0438  0.5771 -0.1088
  275MOL0     H37914  11.528   7.730   1.527  1.9403  0.1384  0.4523
  275MOL0     H37915  11.535   7.803   1.355 -1.7054 -0.0404  0.0610
  275MOL0     H37916  11.733   7.928   1.428 -1.6364 -0.7750 -0.6044
  275MOL0     H37917  11.707   7.897   1.591 -0.4412 -3.1806  2.3827
  275MOL0     H37918  11.894   7.768   1.462  0.0274  1.0267 -1.6413
  275MOL0     H37919  11.758   7.662   1.409  2.4134  0.4896 -0.8634
  275MOL0     H37920  11.705   7.612   1.659 -1.0359  0.4986 -0.7706
  275MOL0     H37921  11.822   7.717   1.712 -3.2658 -0.2996  0.9714
  275MOL0     H37922  11.935   7.530   1.734  0.1860 -1.0228 -0.4230
  275MOL0     H37923  11.871   7.451   1.600 -1.1721  0.3161  0.2043
  275MOL0     H37924  12.090   7.670   1.578  2.6456 -1.4794 -0.4260
  275MOL0     H37925  12.025   7.574   1.449  1.8051  1.2276 -1.3022
  275MOL0     H37926  12.079   7.361   1.581  0.9374 -0.6897  4.8541
  275MOL0     H37927  12.187   7.454   1.682 -0.1252  1.6594  0.1894
  275MOL0     H37928  12.333   7.387   1.510  0.0434  0.8191  2.2690
  275MOL0     H37929  12.293   7.556   1.493 -0.4172 -0.3257  0.3093
  275MOL0     H37930  11.349   7.746   1.350  1.3472 -0.7603  1.5844
  275MOL0     H37931  11.090   7.719   1.343  0.0002 -0.1909  0.0681
  275MOL0     H37932  10.710   7.873   1.383  1.2015 -0.3313  0.6767
  275MOL0     H37933  10.497   7.796   1.278 -3.1413 -0.4879  2.0465
  275MOL0     H37934   8.636   7.829   1.297 -0.6835  1.5629 -1.6693
  275MOL0     H37935   8.408   7.883   1.216 -0.7891 -0.4123 -0.4187
  275MOL0     H37936   8.036   7.907   1.271  0.0186 -2.1303 -0.5186
  275MOL0     H37937   7.826   8.020   1.254 -2.0511 -1.0942  0.6675
  275MOL0     H37938   7.606   7.993   1.290  2.5359  2.9411 -0.0947
  275MOL0     H37939   7.615   8.122   1.165 -0.6386  0.1889 -1.2260
  275MOL0     H37940   7.376   7.945   1.208  0.4755  0.1458  0.2588
  275MOL0     H37941   7.397   8.083   1.086  1.2933  1.2345 -0.8446
  275MOL0     H37942   7.378   8.093   1.383 -1.0615 -1.6120  0.0122
  275MOL0     H37943   7.448   8.228   1.284 -0.4670  0.2413 -2.4258
  275MOL0     H37944   7.168   8.115   1.250  0.9966 -0.2282  0.4157
  275MOL0     H37945   7.248   8.243   1.154 -1.7847  3.2311  0.9860
  275MOL0     H37946   7.146   8.446   1.514 -1.6349 -0.3035 -0.6636
  275MOL0     H37947   7.695   7.748   0.955  0.1107 -0.4169  1.8333
  275MOL0     H37948   7.958   7.508   0.995  0.8499  0.5209  0.8904
  275MOL0     H37949   7.837   7.558   0.882 -0.5663 -1.3332  1.9654
  275MOL0     H37950   8.008   7.626   0.877 -0.5791  0.7630 -0.5492
  276MOL0     O37951   0.174   7.192   6.938  0.4791 -0.5922 -0.6457
  276MOL0     C37952   0.091   7.205   7.026  0.0458  0.0554 -0.5839
  276MOL0     O37953   0.118   7.243   7.150 -0.3796 -0.4362  0.2151
  276MOL0     C37954   0.251   7.274   7.170 -0.2310 -0.0337 -0.0367
  276MOL0     C37955   0.301   7.403   7.151 -0.1894  0.0097 -0.3900
  276MOL0     C37956   0.434   7.427   7.176 -0.3878 -0.3104  0.0243
  276MOL0     C37957   0.527   7.329   7.208  0.0750 -0.4978  0.4110
  276MOL0     O37958   0.662   7.366   7.215 -0.0548  0.4546 -0.0139
  276MOL0     C37959   0.763   7.259   7.199 -1.2133  0.3596 -0.1800
  276MOL0     C37960   0.914   7.312   7.184 -0.7564  0.0142  0.0444
  276MOL0     C37961   1.010   7.198   7.129  0.1934 -0.6544  0.3199
  276MOL0     C37962   1.132   7.264   7.059 -0.6033  1.0839 -0.4049
  276MOL0     C37963   1.086   7.321   6.928  0.6581 -0.1194  0.3482
  276MOL0     C37964   1.200   7.378   6.846 -0.4143 -0.4083 -0.7533
  276MOL0     C37965   1.170   7.388   6.697 -0.3684 -0.2265 -0.2680
  276MOL0     C37966   1.266   7.483   6.628 -0.3720  0.1248 -0.2395
  276MOL0     N37967   1.403   7.430   6.632  0.3087  0.4021 -0.5200
  276MOL0     C37968   1.448   7.304   6.598  0.0948  0.0168  0.2715
  276MOL0     C37969   1.579   7.328   6.599 -0.3828  1.1209 -0.9059
  276MOL0     C37970   1.690   7.227   6.557  0.6447 -0.2259 -0.6075
  276MOL0     C37971   1.782   7.257   6.436  0.5623  0.1258  0.4222
  276MOL0     C37972   1.821   7.405   6.412  0.5397  0.4733  0.3026
  276MOL0     C37973   1.899   7.467   6.532  0.5408  0.3888  0.3072
  276MOL0     O37974   2.039   7.430   6.529  0.8314 -0.3385 -0.2690
  276MOL0     C37975   2.121   7.452   6.642 -0.2695 -0.9106 -0.2476
  276MOL0     C37976   2.257   7.420   6.616  0.0202 -0.0758  0.1534
  276MOL0     C37977   2.353   7.424   6.723 -0.5740  0.0421  0.3746
  276MOL0     C37978   2.506   7.403   6.689  0.5926 -1.1409 -0.7519
  276MOL0     C37979   2.313   7.468   6.845 -0.1864 -0.0480  0.8060
  276MOL0     C37980   2.393   7.487   6.966 -0.6784  0.1510 -0.7770
  276MOL0     O37981   2.492   7.593   6.971  0.1235  0.1954 -0.4767
  276MOL0     C37982   2.526   7.629   7.095  0.3530  0.0951  0.2844
  276MOL0     C37983   2.435   7.685   7.188  0.1972 -0.8277  0.1455
  276MOL0     C37984   2.486   7.714   7.321  1.1848  0.2107  0.4180
  276MOL0     C37985   2.622   7.692   7.351  0.1531 -0.4114 -0.0501
  276MOL0     O37986   2.661   7.719   7.476 -0.6030 -0.1531 -0.5479
  276MOL0     C37987   2.793   7.661   7.517 -0.4201  0.0736 -0.0159
  276MOL0     C37988   2.825   7.708   7.661 -0.0764 -0.0027 -0.1161
  276MOL0     C37989   2.938   7.617   7.709 -0.4036 -0.1340 -0.0996
  276MOL0     C37990   3.008   7.662   7.840  0.4710  0.7393  0.3842
  276MOL0     C37991   3.123   7.572   7.894 -0.3628  0.4233 -0.7694
  276MOL0     C37992   3.085   7.416   7.907 -0.6760 -0.1071  0.2847
  276MOL0     C37993   3.170   7.352   8.022  0.0444 -0.1743  0.0950
  276MOL0     C37994   3.158   7.195   8.018 -0.0601 -0.0047  0.4770
  276MOL0    Cl37995   3.291   7.108   7.936 -0.2163 -0.5345 -0.8061
  276MOL0     C37996   2.703   7.654   7.253 -0.1867  0.3106  1.1933
  276MOL0     C37997   2.655   7.614   7.128 -0.3655  0.7427  0.4418
  276MOL0     O37998   2.358   7.422   7.064  0.5606 -0.6386  0.1172
  276MOL0     C37999   2.183   7.517   6.862  0.6772 -0.0936 -0.7477
  276MOL0     C38000   2.088   7.514   6.758  0.9690 -0.1326 -0.3022
  276MOL0     N38001   1.612   7.450   6.653 -0.2858  0.0390 -0.3688
  276MOL0     N38002   1.505   7.518   6.656  0.1374 -0.3997 -0.4060
  276MOL0     C38003   0.476   7.203   7.234 -0.3414  0.4613  0.2951
  276MOL0     C38004   0.341   7.175   7.212  0.1748  0.8283 -0.3211
  276MOL0     C38005  -0.057   7.183   6.996  0.4922  0.1358  0.2123
  276MOL0     C38006  -0.155   7.234   7.076 -0.4796 -0.2381  0.6423
  276MOL0     C38007  -0.293   7.222   7.055 -0.3044  0.1810 -0.3988
  276MOL0     C38008  -0.340   7.151   6.949  1.2086 -0.1817  0.1155
  276MOL0     O38009  -0.477   7.123   6.920  0.3459  0.0394 -0.3165
  276MOL0     C38010  -0.575   7.177   7.017 -0.6017 -0.1158  0.5311
  276MOL0     C38011  -0.726   7.137   6.991 -0.3912 -0.0884  0.3256
  276MOL0     C38012  -0.747   6.996   6.942 -0.1147 -0.1654  0.7897
  276MOL0     C38013  -0.736   6.898   7.063 -1.3791  0.3918 -0.3871
  276MOL0     C38014  -0.850   6.898   7.152  0.1391  0.6512 -0.5616
  276MOL0     C38015  -0.951   6.921   7.217  0.2000  0.4153  0.1743
  276MOL0     C38016  -0.255   7.086   6.863 -0.2297  1.1894  0.6041
  276MOL0     C38017  -0.114   7.108   6.884  0.7025  0.7307 -0.2488
  276MOL0     C38018  -0.022   7.032   6.789 -0.0793 -0.1837 -0.7414
  276MOL0     H38019   0.237   7.489   7.133  1.1192  2.0895  3.6362
  276MOL0     H38020   0.457   7.533   7.180 -2.6291  0.1996  2.9243
  276MOL0     H38021   0.753   7.193   7.112 -0.6834  2.5355 -2.0007
  276MOL0     H38022   0.752   7.196   7.287 -3.3487 -0.5318 -1.0089
  276MOL0     H38023   0.934   7.397   7.118  0.4101 -1.6419 -1.8687
  276MOL0     H38024   0.955   7.342   7.281  2.4235 -2.1640 -0.4628
  276MOL0     H38025   1.040   7.155   7.225 -0.6698 -0.8357  0.5157
  276MOL0     H38026   0.960   7.121   7.070 -0.5087  1.2544 -1.6967
  276MOL0     H38027   1.183   7.338   7.120 -1.1346  0.0560  1.3758
  276MOL0     H38028   1.203   7.183   7.042  0.8758  1.9049  1.5944
  276MOL0     H38029   1.017   7.405   6.928 -0.5008 -0.9541 -2.5872
  276MOL0     H38030   1.042   7.241   6.868 -1.2307  1.3342 -0.2999
  276MOL0     H38031   1.208   7.481   6.883  0.4678 -0.3730 -1.0227
  276MOL0     H38032   1.294   7.334   6.880 -1.1502 -0.0996  1.8750
  276MOL0     H38033   1.067   7.425   6.693 -0.2269  0.1442 -0.4987
  276MOL0     H38034   1.178   7.284   6.663  0.3597  0.1416 -1.2658
  276MOL0     H38035   1.218   7.489   6.529 -3.4674  2.1102  1.2131
  276MOL0     H38036   1.253   7.582   6.672 -1.1186 -0.2028  0.2891
  276MOL0     H38037   1.391   7.213   6.583  0.6710 -0.7736  2.4979
  276MOL0     H38038   1.654   7.124   6.548  1.3316 -1.3554  5.2549
  276MOL0     H38039   1.756   7.219   6.645  1.6555 -0.5103 -1.3741
  276MOL0     H38040   1.869   7.191   6.433 -0.0558 -0.7251  0.8643
  276MOL0     H38041   1.731   7.215   6.349 -0.2511  2.6828 -0.4425
  276MOL0     H38042   1.883   7.413   6.323 -1.6573  0.2462 -1.3277
  276MOL0     H38043   1.731   7.467   6.405  1.6496  2.1244  0.1926
  276MOL0     H38044   1.895   7.576   6.540  2.2206  0.4319  0.8424
  276MOL0     H38045   1.856   7.431   6.626 -0.2942 -0.6888 -0.4643
  276MOL0     H38046   2.284   7.388   6.516 -0.4207  0.9065 -0.2946
  276MOL0     H38047   2.570   7.429   6.774 -0.3720 -3.0765  0.6478
  276MOL0     H38048   2.542   7.467   6.608 -0.4148 -0.3124 -0.5680
  276MOL0     H38049   2.526   7.300   6.659 -1.7054 -1.7543 -0.3875
  276MOL0     H38050   2.329   7.681   7.166  0.3227 -0.4596 -0.5451
  276MOL0     H38051   2.409   7.742   7.391  1.7921 -2.0684  2.1111
  276MOL0     H38052   2.792   7.552   7.517 -2.6840  0.0416 -0.6098
  276MOL0     H38053   2.875   7.704   7.459  0.0412  0.3812  0.8373
  276MOL0     H38054   2.842   7.816   7.658  0.3379 -0.0234  1.1573
  276MOL0     H38055   2.732   7.688   7.715 -1.7310 -2.0536 -3.3413
  276MOL0     H38056   3.012   7.609   7.628 -1.5393  2.0497 -1.4763
  276MOL0     H38057   2.897   7.516   7.720  2.9144 -1.5090  0.9618
  276MOL0     H38058   2.928   7.680   7.912 -1.1549 -0.3744 -1.0673
  276MOL0     H38059   3.042   7.762   7.815  2.1027  0.0666 -0.2312
  276MOL0     H38060   3.212   7.576   7.830  1.4500 -0.2815  1.5627
  276MOL0     H38061   3.163   7.605   7.990  1.2024  3.8834 -2.4022
  276MOL0     H38062   3.111   7.366   7.813 -2.2752  0.7870 -0.6887
  276MOL0     H38063   2.977   7.411   7.925 -0.6842  2.3364  1.3245
  276MOL0     H38064   3.119   7.383   8.113 -4.7408 -3.2166 -1.1983
  276MOL0     H38065   3.276   7.376   8.009  0.5288 -2.6633 -1.3231
  276MOL0     H38066   3.081   7.163   7.947  1.4333 -2.1888 -0.2788
  276MOL0     H38067   3.135   7.147   8.115 -0.3775  0.4961  0.6533
  276MOL0     H38068   2.811   7.645   7.260 -0.3650 -1.3294  2.5157
  276MOL0     H38069   2.720   7.565   7.056  0.2036 -1.8885  2.6039
  276MOL0     H38070   2.138   7.535   6.959  1.8455 -0.3418 -0.1391
  276MOL0     H38071   1.989   7.556   6.775 -0.7875 -2.7172 -3.1480
  276MOL0     H38072   0.544   7.123   7.262  0.4494  1.2229  0.6118
  276MOL0     H38073   0.311   7.071   7.219  1.0588  0.5327 -0.7315
  276MOL0     H38074  -0.123   7.287   7.165  1.1193  0.8651 -0.5248
  276MOL0     H38075  -0.358   7.273   7.126  0.9863  1.5368 -0.1372
  276MOL0     H38076  -0.553   7.140   7.118 -0.0856  1.7141  1.1154
  276MOL0     H38077  -0.568   7.286   7.012 -0.8884 -0.1382 -0.5485
  276MOL0     H38078  -0.776   7.206   6.923  0.2993 -0.7185 -0.8503
  276MOL0     H38079  -0.782   7.149   7.084 -1.8698  0.0445 -0.5595
  276MOL0     H38080  -0.842   6.992   6.887  0.3304  0.1960 -0.0135
  276MOL0     H38081  -0.675   6.976   6.862 -1.4231 -0.8042 -0.2665
  276MOL0     H38082  -0.639   6.914   7.111 -0.5820 -1.3005 -1.3031
  276MOL0     H38083  -0.726   6.800   7.016  3.1342 -0.0632  1.0641
  276MOL0     H38084  -1.034   6.960   7.273 -1.2437  1.1273 -2.3059
  276MOL0     H38085  -0.298   7.028   6.782  3.0755 -0.2436 -0.2582
  276MOL0     H38086  -0.087   6.974   6.724 -1.3724 -0.3573  0.6581
  276MOL0     H38087   0.034   7.107   6.732 -1.6453  2.6100  1.1180
  276MOL0     H38088   0.039   6.972   6.856  0.3568 -0.4652 -1.3863
  277MOL0     O38089   8.935   2.555   9.474 -0.7491 -0.3742 -0.3120
  277MOL0     C38090   9.054   2.569   9.504  0.3322 -0.3623 -0.2491
  277MOL0     O38091   9.151   2.468   9.515  0.9291 -0.6360 -0.5562
  277MOL0     C38092   9.093   2.346   9.537  0.0343  0.0404  0.4185
  277MOL0     C38093   9.049   2.310   9.663 -0.4292  0.7024 -0.2211
  277MOL0     C38094   9.004   2.178   9.677 -0.1122  1.4841 -0.3667
  277MOL0     C38095   9.002   2.090   9.565 -0.7586  0.7623  1.0476
  277MOL0     O38096   8.975   1.958   9.573 -0.6460 -0.2633 -0.2984
  277MOL0     C38097   8.844   1.925   9.540  0.1084 -0.5324  0.8158
  277MOL0     C38098   8.801   1.776   9.564  0.3949 -0.3960  0.7164
  277MOL0     C38099   8.797   1.733   9.714 -0.2472  0.6207  0.9217
  277MOL0     C38100   8.738   1.593   9.739 -0.0597 -1.2175  0.5398
  277MOL0     C38101   8.710   1.557   9.889  0.6291 -0.4277  0.1222
  277MOL0     C38102   8.646   1.420   9.896  0.3652 -0.4216  0.3225
  277MOL0     C38103   8.501   1.422   9.833 -1.0271 -0.2660 -0.4403
  277MOL0     C38104   8.397   1.514   9.899 -0.6292  0.5705 -0.3251
  277MOL0     N38105   8.279   1.440   9.925  0.0938  0.6027 -0.0047
  277MOL0     C38106   8.215   1.355   9.837  0.1801 -0.0565 -0.0522
  277MOL0     C38107   8.126   1.290   9.917 -0.2406 -0.2195  0.7323
  277MOL0     C38108   8.028   1.195   9.856  0.8168  0.5784  0.3406
  277MOL0     C38109   7.904   1.174   9.940  0.3407 -0.4925  0.3426
  277MOL0     C38110   7.915   1.061  10.045 -0.1837 -0.4231  0.1893
  277MOL0     C38111   7.783   1.009  10.086 -0.3474 -0.3706 -0.8695
  277MOL0     O38112   7.712   0.957   9.979  0.3023  0.1114  0.8930
  277MOL0     C38113   7.595   0.890   9.995 -0.3680  0.6794 -0.8886
  277MOL0     C38114   7.538   0.825   9.882 -0.4213 -0.0553  0.1562
  277MOL0     C38115   7.419   0.755   9.890 -0.8128 -0.1028  0.6864
  277MOL0     C38116   7.373   0.704   9.752  0.1904  1.0624  0.5135
  277MOL0     C38117   7.351   0.746  10.007  0.7297  0.3229 -0.1017
  277MOL0     C38118   7.218   0.677  10.030  0.9563  0.0169  0.8109
  277MOL0     O38119   7.142   0.726  10.123  0.7011 -0.2391 -0.2522
  277MOL0     C38120   7.009   0.680  10.132  0.5058 -0.2779 -0.4850
  277MOL0     C38121   6.970   0.611  10.245  0.0676  0.6216 -0.4828
  277MOL0     C38122   6.836   0.561  10.269 -0.0028 -0.1944  0.9959
  277MOL0     C38123   6.743   0.569  10.159  0.0031  0.2676  0.5577
  277MOL0     O38124   6.608   0.540  10.157 -0.3086 -0.0109 -0.1441
  277MOL0     C38125   6.535   0.515  10.274 -0.1827  0.6912 -1.2702
  277MOL0     C38126   6.390   0.476  10.246 -0.2912 -0.6259 -0.0906
  277MOL0     C38127   6.330   0.423  10.374  0.0974 -0.2659 -0.7973
  277MOL0     C38128   6.179   0.411  10.360  0.2769  0.5160  0.3363
  277MOL0     C38129   6.106   0.337  10.473 -0.6384  0.7782  0.1454
  277MOL0     C38130   5.954   0.310  10.441  0.1530 -0.3038  0.0115
  277MOL0     C38131   5.873   0.260  10.554  0.0080  0.3930 -0.5051
  277MOL0     C38132   5.732   0.205  10.505 -0.2368  0.1306 -0.0127
  277MOL0    Cl38133   5.666   0.090  10.624  0.1392 -0.1440  0.1305
  277MOL0     C38134   6.793   0.629  10.044 -0.4192 -0.0801 -0.0732
  277MOL0     C38135   6.920   0.680  10.030 -0.1745  0.6025  0.1291
  277MOL0     O38136   7.186   0.584   9.954 -0.0825 -1.0000 -0.5576
  277MOL0     C38137   7.399   0.823  10.114 -0.7475  0.1146 -0.4911
  277MOL0     C38138   7.522   0.893  10.110  0.4928  0.0935 -0.5376
  277MOL0     N38139   8.129   1.343  10.042 -0.4000  0.0152 -0.0295
  277MOL0     N38140   8.218   1.435  10.044  0.4194  0.0428  0.6923
  277MOL0     C38141   9.031   2.139   9.436 -0.1375 -0.2836 -0.0061
  277MOL0     C38142   9.076   2.269   9.419 -0.5014 -0.4588  0.3088
  277MOL0     C38143   9.116   2.704   9.523  0.5651 -0.8373  0.3941
  277MOL0     C38144   9.053   2.808   9.448  0.6830  0.7823 -0.5636
  277MOL0     C38145   9.109   2.938   9.470 -0.3534 -0.0002  0.0994
  277MOL0     C38146   9.221   2.963   9.543 -0.2083 -0.1864 -0.0318
  277MOL0     O38147   9.264   3.098   9.543 -0.4533  0.0827  0.0053
  277MOL0     C38148   9.371   3.144   9.624 -0.0159  0.0524  0.5654
  277MOL0     C38149   9.500   3.091   9.572  0.8881  0.1418  0.4674
  277MOL0     C38150   9.550   3.177   9.457 -0.5290 -0.1079 -0.0030
  277MOL0     C38151   9.623   3.304   9.503 -0.1714  0.1062  0.5022
  277MOL0     C38152   9.663   3.382   9.385  0.1361 -0.4989 -0.1627
  277MOL0     C38153   9.715   3.448   9.296  0.0974 -0.2300  0.2902
  277MOL0     C38154   9.275   2.859   9.612 -1.1506 -0.2845 -0.3298
  277MOL0     C38155   9.222   2.728   9.615  0.2723  0.3183  0.4083
  277MOL0     C38156   9.282   2.622   9.695 -0.7924  0.3901 -0.5253
  277MOL0     H38157   9.063   2.373   9.750 -1.3062 -0.7673  1.0390
  277MOL0     H38158   8.957   2.130   9.762 -1.8887  0.8269 -1.6426
  277MOL0     H38159   8.819   1.953   9.437  2.4480  2.1348  0.8407
  277MOL0     H38160   8.794   1.992   9.611  0.6758 -0.2249  0.9287
  277MOL0     H38161   8.697   1.768   9.532 -0.1794  1.7476  1.8483
  277MOL0     H38162   8.868   1.716   9.502 -0.9563 -0.5810 -0.6017
  277MOL0     H38163   8.894   1.731   9.764  1.0259 -0.8448 -1.4228
  277MOL0     H38164   8.733   1.809   9.760 -2.9798  1.2784 -3.4465
  277MOL0     H38165   8.650   1.590   9.675  0.8000  0.6658 -0.8458
  277MOL0     H38166   8.797   1.512   9.695 -1.4637 -2.1170  0.2469
  277MOL0     H38167   8.633   1.627   9.924  0.9657 -0.6673  1.4214
  277MOL0     H38168   8.802   1.560   9.949  0.8928  0.2693 -0.3081
  277MOL0     H38169   8.712   1.347   9.849  1.2506  1.6371 -1.8729
  277MOL0     H38170   8.644   1.399  10.003 -0.2076  0.0760  0.4157
  277MOL0     H38171   8.466   1.319   9.845  2.0792 -1.5123 -1.1002
  277MOL0     H38172   8.491   1.435   9.725 -3.1063  0.2901 -0.2271
  277MOL0     H38173   8.438   1.559   9.991 -2.1961  2.6726 -0.5723
  277MOL0     H38174   8.385   1.601   9.834  0.1622 -0.8848 -2.5071
  277MOL0     H38175   8.232   1.346   9.730  1.0118 -2.2083  0.2083
  277MOL0     H38176   8.081   1.103   9.832 -0.7083  0.2796 -2.1532
  277MOL0     H38177   7.998   1.256   9.771  1.4620  2.7730  1.6026
  277MOL0     H38178   7.884   1.270   9.989 -0.7127  0.5795 -2.0555
  277MOL0     H38179   7.819   1.158   9.874  1.9746 -1.3381 -1.6788
  277MOL0     H38180   7.974   0.978  10.005 -2.6756 -2.1645 -0.1097
  277MOL0     H38181   7.974   1.103  10.126  3.4588 -1.0094 -1.9417
  277MOL0     H38182   7.800   0.939  10.168  2.3163  2.0060  0.7734
  277MOL0     H38183   7.735   1.100  10.121  2.8949  1.5739 -1.1529
  277MOL0     H38184   7.585   0.837   9.785 -0.7714  0.2962  0.0252
  277MOL0     H38185   7.368   0.595   9.758  0.0194  1.1321  2.0150
  277MOL0     H38186   7.433   0.722   9.663  0.1150 -0.7819  0.0347
  277MOL0     H38187   7.277   0.749   9.728 -0.5674  0.5858  2.4247
  277MOL0     H38188   7.039   0.601  10.328 -0.0925  2.6180 -0.0417
  277MOL0     H38189   6.807   0.515  10.363  1.7943  2.9585  3.2689
  277MOL0     H38190   6.589   0.439  10.332 -0.0178  0.8065 -1.2720
  277MOL0     H38191   6.533   0.606  10.335  1.0675 -0.0937  0.0062
  277MOL0     H38192   6.332   0.563  10.213 -2.7422 -1.1812  2.4188
  277MOL0     H38193   6.388   0.397  10.170  0.0483 -0.3375 -0.4050
  277MOL0     H38194   6.352   0.479  10.466 -0.4620 -0.5415 -0.4895
  277MOL0     H38195   6.370   0.322  10.382  2.6091  0.7692  1.2926
  277MOL0     H38196   6.156   0.366  10.263  0.7477  0.3138  0.3161
  277MOL0     H38197   6.138   0.513  10.360 -1.6873 -0.2311 -0.6232
  277MOL0     H38198   6.156   0.241  10.491 -1.5641  0.2750  0.1065
  277MOL0     H38199   6.106   0.388  10.569 -1.3766  1.9335 -0.4383
  277MOL0     H38200   5.963   0.227  10.371  2.0458  0.2356 -0.4235
  277MOL0     H38201   5.906   0.394  10.390  1.2692 -1.2464 -2.7694
  277MOL0     H38202   5.857   0.345  10.621  1.3854 -0.3774  0.8726
  277MOL0     H38203   5.933   0.185  10.606  1.0430  0.7169 -1.1981
  277MOL0     H38204   5.738   0.156  10.407 -2.0245 -0.3024  0.0622
  277MOL0     H38205   5.664   0.290  10.498 -1.3539 -0.7239  0.1250
  277MOL0     H38206   6.721   0.637   9.963 -3.9680 -0.2987  2.7673
  277MOL0     H38207   6.960   0.712   9.934  0.7863 -2.2485 -0.5241
  277MOL0     H38208   7.348   0.835  10.209 -0.7916 -4.2918  0.2434
  277MOL0     H38209   7.544   0.952  10.198 -2.1326 -1.0794  1.0395
  277MOL0     H38210   9.035   2.071   9.352  2.3096 -1.8294  1.2320
  277MOL0     H38211   9.121   2.302   9.325  1.0356 -0.7155  0.9339
  277MOL0     H38212   8.966   2.790   9.385  0.0030 -1.1133  0.8235
  277MOL0     H38213   9.063   3.028   9.430  0.9169  0.4167 -0.4861
  277MOL0     H38214   9.374   3.253   9.620 -3.0494  0.2122  0.1788
  277MOL0     H38215   9.359   3.120   9.730 -0.7650  2.5251  1.1037
  277MOL0     H38216   9.485   2.988   9.540 -2.0422 -0.0607  2.1177
  277MOL0     H38217   9.576   3.087   9.650 -1.6546 -0.5725  3.0632
  277MOL0     H38218   9.617   3.130   9.384  1.2924  2.0302  0.1575
  277MOL0     H38219   9.462   3.215   9.404  1.8372  5.1001 -0.8972
  277MOL0     H38220   9.708   3.265   9.560  0.8075 -1.7746 -2.0854
  277MOL0     H38221   9.562   3.366   9.570  0.5945  3.2376 -1.5028
  277MOL0     H38222   9.750   3.513   9.218  1.5473 -0.5290  0.6691
  277MOL0     H38223   9.357   2.877   9.681 -2.4158  3.3015  0.4286
  277MOL0     H38224   9.364   2.582   9.634  0.4636  1.7483  0.2050
  277MOL0     H38225   9.319   2.684   9.777 -3.4530 -0.2407  1.2793
  277MOL0     H38226   9.216   2.544   9.735  0.4482 -0.2815  0.2980
  278MOL0     O38227   1.877   6.152   0.893 -0.0567 -0.1320 -0.0802
  278MOL0     C38228   1.849   6.174   1.010 -0.0813 -0.4160 -1.2313
  278MOL0     O38229   1.926   6.244   1.098  0.0402  0.1082 -0.2309
  278MOL0     C38230   2.055   6.277   1.067 -0.0158 -1.2430 -0.0446
  278MOL0     C38231   2.142   6.180   1.023  0.5023  0.2600  0.6849
  278MOL0     C38232   2.280   6.214   1.007 -0.0407 -0.3014  0.0785
  278MOL0     C38233   2.328   6.346   1.023  0.5747  0.0529 -0.2408
  278MOL0     O38234   2.465   6.359   1.019 -0.3436 -0.0227  0.4991
  278MOL0     C38235   2.527   6.465   0.942  0.9664 -0.1766 -0.1189
  278MOL0     C38236   2.606   6.555   1.038 -0.2975  1.2311  0.1911
  278MOL0     C38237   2.738   6.497   1.094  0.4089 -0.4353 -0.6157
  278MOL0     C38238   2.861   6.535   1.019  0.4765 -0.3149 -0.2480
  278MOL0     C38239   2.988   6.517   1.084  0.4334 -0.5039 -0.8458
  278MOL0     C38240   3.109   6.553   0.992 -0.6604 -0.1364 -0.8892
  278MOL0     C38241   3.237   6.560   1.074  0.2327 -0.2521  0.4747
  278MOL0     C38242   3.359   6.585   0.979 -0.3305 -0.1655  0.1597
  278MOL0     N38243   3.482   6.570   1.052 -0.8241  0.5424  0.4713
  278MOL0     C38244   3.559   6.462   1.039  0.2898  0.1576 -0.1583
  278MOL0     C38245   3.669   6.500   1.104 -0.0707 -0.1292 -0.3400
  278MOL0     C38246   3.771   6.400   1.143  0.5733  0.2897  0.0306
  278MOL0     C38247   3.914   6.462   1.155 -0.2479  0.1204  0.9293
  278MOL0     C38248   4.016   6.353   1.184 -0.1429 -0.3730  0.0854
  278MOL0     C38249   4.159   6.413   1.210  0.0401 -0.8058 -0.0096
  278MOL0     O38250   4.213   6.360   1.333  0.0235 -0.8746  0.4204
  278MOL0     C38251   4.338   6.392   1.363  0.0472 -0.5554 -0.3945
  278MOL0     C38252   4.404   6.496   1.305 -1.5298 -0.3564 -0.4529
  278MOL0     C38253   4.540   6.510   1.323 -0.9733 -0.0271  0.4782
  278MOL0     C38254   4.591   6.621   1.234 -0.2116 -0.3435 -0.5039
  278MOL0     C38255   4.619   6.419   1.400  0.8673  0.0435  0.3232
  278MOL0     C38256   4.760   6.431   1.423  0.6815 -0.6738  0.5660
  278MOL0     O38257   4.836   6.318   1.436 -0.0152  0.5678  0.1301
  278MOL0     C38258   4.963   6.339   1.483 -0.7294 -0.1296 -0.0060
  278MOL0     C38259   4.986   6.351   1.620  0.3386  0.5817  0.2403
  278MOL0     C38260   5.112   6.368   1.676  0.2600 -0.2281  0.0371
  278MOL0     C38261   5.221   6.374   1.588 -0.1628  0.0881 -0.0080
  278MOL0     O38262   5.347   6.398   1.634  0.7500  0.2334 -0.0935
  278MOL0     C38263   5.358   6.531   1.684 -0.0208 -0.2829 -0.0792
  278MOL0     C38264   5.310   6.651   1.602  0.5561  0.0852 -0.1758
  278MOL0     C38265   5.419   6.687   1.496 -0.3195 -0.7680  0.3951
  278MOL0     C38266   5.357   6.793   1.399 -0.3431  0.2491  0.2195
  278MOL0     C38267   5.331   6.934   1.449 -0.6776  1.0266 -0.4508
  278MOL0     C38268   5.459   7.024   1.465  0.2485 -0.8841 -0.4885
  278MOL0     C38269   5.441   7.139   1.554  0.2176 -0.0559  0.0622
  278MOL0     C38270   5.567   7.212   1.598  0.6975  0.0543 -0.4454
  278MOL0    Cl38271   5.521   7.336   1.723  0.1238  0.0674 -0.2171
  278MOL0     C38272   5.209   6.357   1.450 -0.8119  0.4439 -0.4368
  278MOL0     C38273   5.078   6.329   1.400  0.7821 -0.9276 -0.2578
  278MOL0     O38274   4.800   6.538   1.454  0.1878 -0.4575  0.1314
  278MOL0     C38275   4.545   6.317   1.473 -0.0854 -0.9633 -0.3455
  278MOL0     C38276   4.405   6.305   1.451  0.5394  0.9369 -0.1650
  278MOL0     N38277   3.663   6.628   1.153  0.0707  0.6223 -0.0336
  278MOL0     N38278   3.549   6.667   1.122 -0.3803  0.6193 -0.1323
  278MOL0     C38279   2.236   6.452   1.058 -0.2751 -0.2161 -0.4393
  278MOL0     C38280   2.104   6.413   1.081 -0.0531 -1.0787  0.2550
  278MOL0     C38281   1.722   6.133   1.066  0.3675 -0.8195 -0.3942
  278MOL0     C38282   1.709   6.120   1.209 -0.8328  0.4178  0.3536
  278MOL0     C38283   1.586   6.081   1.275  0.0588 -0.2815  0.9863
  278MOL0     C38284   1.469   6.075   1.202  0.2085 -0.2165  0.0290
  278MOL0     O38285   1.342   6.058   1.246  0.0239 -0.3444  0.0937
  278MOL0     C38286   1.318   6.023   1.380 -0.0012  0.6086 -0.5195
  278MOL0     C38287   1.295   6.142   1.462  0.7264  0.0609 -0.8911
  278MOL0     C38288   1.249   6.122   1.608 -0.0953 -0.1936  0.9338
  278MOL0     C38289   1.345   6.166   1.715  1.4045  1.1218  0.9035
  278MOL0     C38290   1.434   6.064   1.751 -0.9439  0.5080  0.7719
  278MOL0     C38291   1.518   5.974   1.768  0.7501  0.1991  0.4486
  278MOL0     C38292   1.486   6.078   1.059 -0.4359 -0.9913  0.6633
  278MOL0     C38293   1.602   6.109   0.987 -0.0360 -0.0169  0.5247
  278MOL0     C38294   1.581   6.103   0.841 -0.6823  0.9391 -0.5406
  278MOL0     H38295   2.109   6.079   1.002 -2.5897  1.1904  0.4656
  278MOL0     H38296   2.348   6.134   0.983 -0.2610 -0.7004  0.7695
  278MOL0     H38297   2.450   6.529   0.898  1.0934  2.2408  2.8104
  278MOL0     H38298   2.591   6.433   0.860  0.4357  0.5851 -0.8456
  278MOL0     H38299   2.620   6.655   0.996 -0.6080  0.5536 -1.6550
  278MOL0     H38300   2.536   6.561   1.122 -1.4140 -0.4025 -0.5533
  278MOL0     H38301   2.740   6.529   1.199 -1.0269  1.5004 -1.1281
  278MOL0     H38302   2.719   6.390   1.107  1.1967 -0.2410  3.3969
  278MOL0     H38303   2.869   6.474   0.928 -2.1488 -0.3608 -0.5307
  278MOL0     H38304   2.849   6.641   0.993 -0.4022  0.1359  1.8007
  278MOL0     H38305   2.995   6.412   1.112 -0.8091 -0.5812 -0.7881
  278MOL0     H38306   2.989   6.574   1.177 -0.3221 -3.3456  1.0048
  278MOL0     H38307   3.121   6.488   0.905 -0.5553  1.0343 -1.7731
  278MOL0     H38308   3.100   6.654   0.951  0.7313  0.1388 -0.5937
  278MOL0     H38309   3.247   6.468   1.132  0.3177 -0.1343  0.6487
  278MOL0     H38310   3.233   6.652   1.132  1.2011  0.9404 -1.2578
  278MOL0     H38311   3.365   6.525   0.888 -1.5292 -3.1529  1.9264
  278MOL0     H38312   3.346   6.693   0.961  0.4381 -0.2272 -0.8750
  278MOL0     H38313   3.537   6.363   1.001  0.3233 -0.2585  0.8654
  278MOL0     H38314   3.773   6.328   1.061 -2.7029  0.0610  0.0046
  278MOL0     H38315   3.739   6.348   1.234  1.1163  1.4955  0.9466
  278MOL0     H38316   3.919   6.511   1.057 -1.3095  0.3090  0.9613
  278MOL0     H38317   3.913   6.538   1.234  0.8644  1.3542 -0.1780
  278MOL0     H38318   3.985   6.284   1.264 -0.8426  1.5164  1.5228
  278MOL0     H38319   4.020   6.287   1.097 -1.0089 -1.5032  0.8746
  278MOL0     H38320   4.221   6.390   1.122  0.0585 -3.8395  0.6859
  278MOL0     H38321   4.146   6.520   1.230  2.9996 -0.1045 -1.2929
  278MOL0     H38322   4.355   6.571   1.242  0.8518  0.6059 -1.2928
  278MOL0     H38323   4.578   6.608   1.126  0.1806 -0.2252 -0.5660
  278MOL0     H38324   4.699   6.629   1.246  0.4369 -4.3942 -2.0303
  278MOL0     H38325   4.549   6.718   1.263  2.2225 -0.1590  2.8829
  278MOL0     H38326   4.901   6.359   1.688  3.3285 -0.8630  4.5526
  278MOL0     H38327   5.140   6.377   1.780  1.3038 -1.4317 -0.1194
  278MOL0     H38328   5.306   6.542   1.780 -1.2142 -1.4094 -0.5791
  278MOL0     H38329   5.460   6.545   1.722 -0.0455  1.1112 -0.4701
  278MOL0     H38330   5.215   6.634   1.550  0.2234  0.7804  0.1880
  278MOL0     H38331   5.298   6.740   1.664 -0.9413 -0.1898 -0.0359
  278MOL0     H38332   5.458   6.605   1.436  3.4713 -0.3511  2.0062
  278MOL0     H38333   5.508   6.736   1.537  0.4201 -0.1235 -1.8459
  278MOL0     H38334   5.270   6.736   1.363  0.6123 -4.4821  4.2744
  278MOL0     H38335   5.420   6.800   1.310 -0.8802  1.1659 -0.1043
  278MOL0     H38336   5.272   6.983   1.371 -0.5437  0.6607 -0.7851
  278MOL0     H38337   5.278   6.927   1.544  0.2727  1.4481  0.1264
  278MOL0     H38338   5.492   7.064   1.369 -1.4615  1.0766 -0.3220
  278MOL0     H38339   5.536   6.962   1.512  0.5261  0.3325  0.7119
  278MOL0     H38340   5.393   7.108   1.647  2.3764 -1.7771  0.6696
  278MOL0     H38341   5.376   7.213   1.504  0.8887  0.5427  0.0610
  278MOL0     H38342   5.617   7.264   1.516 -2.2588  2.8886 -0.6599
  278MOL0     H38343   5.636   7.140   1.643 -0.4643  0.3786  2.0428
  278MOL0     H38344   5.290   6.377   1.381  0.6183  0.9255  1.3124
  278MOL0     H38345   5.057   6.307   1.296 -2.1477 -0.0295  0.0613
  278MOL0     H38346   4.608   6.250   1.530  0.0059 -2.5091 -2.1551
  278MOL0     H38347   4.353   6.220   1.495  2.3831 -0.5841 -0.7989
  278MOL0     H38348   2.255   6.559   1.065  1.1735 -0.5639  1.6363
  278MOL0     H38349   2.034   6.492   1.106  0.9529  1.7900 -4.5783
  278MOL0     H38350   1.799   6.113   1.269 -1.2751 -1.6686  0.8528
  278MOL0     H38351   1.588   6.076   1.384 -0.9916  3.3494  1.3324
  278MOL0     H38352   1.235   5.953   1.376  0.3381  0.2389 -4.3316
  278MOL0     H38353   1.405   5.966   1.415 -1.6012 -1.2132  0.6406
  278MOL0     H38354   1.216   6.203   1.417  0.7487 -0.3561 -1.5089
  278MOL0     H38355   1.373   6.218   1.464 -1.4971  2.5637  2.1636
  278MOL0     H38356   1.162   6.186   1.626  0.0954 -0.0152  1.2439
  278MOL0     H38357   1.228   6.017   1.627 -0.1465 -0.5449 -0.8942
  278MOL0     H38358   1.284   6.196   1.800  1.3416 -0.9163  1.6258
  278MOL0     H38359   1.406   6.254   1.693  0.7616  1.9881  2.4626
  278MOL0     H38360   1.604   5.913   1.783  2.4443  2.2413 -0.5783
  278MOL0     H38361   1.393   6.090   1.005 -1.3357  1.2222  2.4926
  278MOL0     H38362   1.680   6.119   0.796 -0.9948 -0.3358 -1.7502
  278MOL0     H38363   1.562   5.997   0.820  0.3300  0.3673  1.2036
  278MOL0     H38364   1.501   6.168   0.807  0.1858  2.0177 -0.5771
  279MOL0     O38365   5.204   0.587   1.092  0.8048 -0.3711  0.2808
  279MOL0     C38366   5.180   0.480   1.041 -0.1179  0.0521 -0.2789
  279MOL0     O38367   5.221   0.437   0.921 -0.3220 -0.6372 -0.2176
  279MOL0     C38368   5.268   0.533   0.833  0.5050  0.2522  0.1944
  279MOL0     C38369   5.388   0.509   0.769 -0.6943 -0.4045 -0.5027
  279MOL0     C38370   5.447   0.605   0.687  0.6267 -0.3370 -0.1622
  279MOL0     C38371   5.386   0.725   0.658 -0.1060  0.3334  0.6749
  279MOL0     O38372   5.447   0.803   0.563  1.3317  0.6640 -0.3094
  279MOL0     C38373   5.407   0.939   0.550  0.0195 -0.4196  0.3538
  279MOL0     C38374   5.491   1.020   0.445  0.5661  0.5236 -0.2360
  279MOL0     C38375   5.644   0.986   0.445  0.5112 -0.1867  1.1029
  279MOL0     C38376   5.724   1.047   0.332  0.2828 -1.1900  0.1462
  279MOL0     C38377   5.868   1.008   0.324 -0.1768 -0.1918 -0.1360
  279MOL0     C38378   5.895   0.858   0.322 -0.0833 -0.6455 -0.4108
  279MOL0     C38379   6.039   0.822   0.262 -1.0647  0.9969 -0.5754
  279MOL0     C38380   6.154   0.862   0.360  0.2616 -0.6360  0.8466
  279MOL0     N38381   6.291   0.835   0.326 -0.5958  0.2779 -0.4876
  279MOL0     C38382   6.390   0.808   0.415 -0.4807 -0.3793 -0.6913
  279MOL0     C38383   6.502   0.779   0.342 -0.8244  0.6700 -0.2924
  279MOL0     C38384   6.640   0.750   0.387 -1.2675  0.0025  0.2604
  279MOL0     C38385   6.722   0.875   0.388  0.0672 -0.0233 -1.0727
  279MOL0     C38386   6.864   0.844   0.426  0.1511  0.6581 -0.1188
  279MOL0     C38387   6.961   0.965   0.413  0.2046 -0.4604 -0.2896
  279MOL0     O38388   7.089   0.911   0.401 -0.1094  0.0243  0.1254
  279MOL0     C38389   7.191   1.002   0.375 -0.1737  0.1030 -0.4433
  279MOL0     C38390   7.173   1.142   0.352  0.4923  0.5961  0.8455
  279MOL0     C38391   7.281   1.225   0.325  0.4345  0.1771  0.5385
  279MOL0     C38392   7.260   1.378   0.291  0.1996  0.1083 -0.6288
  279MOL0     C38393   7.414   1.176   0.326 -0.5380  0.9475 -0.7482
  279MOL0     C38394   7.529   1.245   0.275  0.2650 -0.4168  1.1350
  279MOL0     O38395   7.641   1.249   0.348  0.1081 -0.7883 -0.7498
  279MOL0     C38396   7.752   1.281   0.282 -0.3211 -0.9906 -0.5804
  279MOL0     C38397   7.843   1.186   0.242  0.8290  0.7418  0.0644
  279MOL0     C38398   7.948   1.208   0.158  0.0171 -1.1315  0.1951
  279MOL0     C38399   7.961   1.341   0.122 -0.4009 -0.4111 -0.3321
  279MOL0     O38400   8.054   1.364   0.025  0.0484  0.4229 -0.4212
  279MOL0     C38401   8.036   1.479  -0.066  0.2365 -0.9331 -0.6681
  279MOL0     C38402   8.135   1.589  -0.038 -0.1769 -0.4850  0.8706
  279MOL0     C38403   8.277   1.557  -0.067  0.0052 -0.2968  1.1192
  279MOL0     C38404   8.329   1.621  -0.204  0.5155 -0.0433  0.0159
  279MOL0     C38405   8.469   1.580  -0.241 -0.3257  0.4238 -1.0667
  279MOL0     C38406   8.509   1.659  -0.370 -0.5842  0.2533 -0.3227
  279MOL0     C38407   8.656   1.635  -0.397  0.6362  0.0593  0.1090
  279MOL0     C38408   8.703   1.716  -0.511 -0.0105  0.9442  0.3844
  279MOL0    Cl38409   8.618   1.663  -0.652 -0.0553 -0.4473  0.0950
  279MOL0     C38410   7.881   1.446   0.174 -0.4800  0.4125 -0.3864
  279MOL0     C38411   7.771   1.418   0.255  0.6472 -0.1875  0.3169
  279MOL0     O38412   7.526   1.278   0.152  0.2113 -0.6504  0.0491
  279MOL0     C38413   7.428   1.040   0.370  0.1464 -0.0701 -0.1887
  279MOL0     C38414   7.319   0.957   0.382 -0.7460 -0.1871  0.9085
  279MOL0     N38415   6.464   0.788   0.214 -0.4379  0.1443 -0.4379
  279MOL0     N38416   6.337   0.822   0.196 -0.6943 -0.9204 -0.6630
  279MOL0     C38417   5.256   0.748   0.713  0.3074 -0.0691 -1.0481
  279MOL0     C38418   5.194   0.650   0.788 -0.6461  0.1363 -0.1957
  279MOL0     C38419   5.099   0.381   1.118 -0.5052  0.5307  0.3605
  279MOL0     C38420   5.092   0.247   1.067 -0.9214  0.2330 -0.3522
  279MOL0     C38421   5.013   0.152   1.138  0.0680  0.2444  0.6453
  279MOL0     C38422   4.942   0.184   1.254 -0.1321 -0.6272 -0.1377
  279MOL0     O38423   4.863   0.098   1.323 -0.0213 -0.2302 -0.2392
  279MOL0     C38424   4.829  -0.036   1.275 -1.1737 -0.7375  0.5314
  279MOL0     C38425   4.729  -0.106   1.368 -0.7193  0.0473 -0.4675
  279MOL0     C38426   4.589  -0.057   1.375  0.4455  0.2540 -0.9098
  279MOL0     C38427   4.521  -0.038   1.241  0.7869  0.6115  0.4388
  279MOL0     C38428   4.378  -0.068   1.243  0.2898 -0.6616 -0.0070
  279MOL0     C38429   4.262  -0.084   1.246  0.6123 -0.0603 -0.4142
  279MOL0     C38430   4.952   0.312   1.303  0.0868  0.2847  0.7808
  279MOL0     C38431   5.025   0.411   1.237 -0.1755 -0.3079 -0.2942
  279MOL0     C38432   5.018   0.546   1.306 -0.0351  0.1741 -0.3368
  279MOL0     H38433   5.441   0.419   0.797 -1.2999 -0.3138  1.0172
  279MOL0     H38434   5.543   0.582   0.642  1.3336 -2.6540  2.3071
  279MOL0     H38435   5.410   0.977   0.653 -2.3216 -3.5906  1.7358
  279MOL0     H38436   5.304   0.941   0.512 -0.1907  1.0965  0.9338
  279MOL0     H38437   5.445   0.985   0.351  0.4401 -2.4008  0.8103
  279MOL0     H38438   5.477   1.128   0.452  1.9076  0.7020 -0.1322
  279MOL0     H38439   5.693   1.006   0.541  2.8505 -5.3947  1.3271
  279MOL0     H38440   5.653   0.877   0.438  1.4683 -0.2604  2.9044
  279MOL0     H38441   5.685   1.034   0.231  3.0163 -0.6451 -1.0877
  279MOL0     H38442   5.733   1.153   0.358  0.9302 -1.6041  1.7558
  279MOL0     H38443   5.931   1.042   0.407 -1.3415  0.6505  0.4243
  279MOL0     H38444   5.908   1.067   0.241 -2.9368 -0.4904 -1.7650
  279MOL0     H38445   5.884   0.818   0.424  1.8007 -1.9638 -0.6656
  279MOL0     H38446   5.816   0.800   0.274 -1.0605  1.1097 -1.0092
  279MOL0     H38447   6.059   0.871   0.167  1.9377 -0.2981 -0.7328
  279MOL0     H38448   6.042   0.713   0.246 -0.3304  1.0306 -0.6813
  279MOL0     H38449   6.152   0.969   0.383  0.4965 -0.6674  1.0281
  279MOL0     H38450   6.125   0.818   0.456  1.2833 -4.7527 -0.5293
  279MOL0     H38451   6.383   0.826   0.522 -3.8234  2.3276 -1.1872
  279MOL0     H38452   6.683   0.676   0.318 -0.8343  0.9003 -0.4464
  279MOL0     H38453   6.638   0.702   0.485 -0.7427  0.4969  0.5139
  279MOL0     H38454   6.710   0.919   0.289 -4.0241  2.4172  0.2528
  279MOL0     H38455   6.676   0.951   0.453  3.2188  1.2580 -0.1319
  279MOL0     H38456   6.865   0.820   0.533  1.7541  2.4351  0.3191
  279MOL0     H38457   6.892   0.767   0.354 -0.4266 -0.5927  0.9497
  279MOL0     H38458   6.925   1.032   0.335  0.3293 -0.2978 -0.2096
  279MOL0     H38459   6.960   1.040   0.493 -1.4727  1.1406 -1.7245
  279MOL0     H38460   7.081   1.199   0.342  1.5375  2.2172  0.0035
  279MOL0     H38461   7.160   1.411   0.322  0.3708  0.2222 -0.1845
  279MOL0     H38462   7.269   1.387   0.183  0.4835 -0.2713 -0.6372
  279MOL0     H38463   7.338   1.439   0.339  0.6985 -0.5692 -0.5628
  279MOL0     H38464   7.831   1.080   0.258 -0.3715  0.6607 -1.1898
  279MOL0     H38465   8.007   1.126   0.120 -0.8469 -1.9212  0.5050
  279MOL0     H38466   8.040   1.442  -0.169 -0.9380 -0.1175 -1.0419
  279MOL0     H38467   7.934   1.518  -0.054  1.8846  3.1691  2.1919
  279MOL0     H38468   8.110   1.682  -0.089  1.2243  0.2637  1.4964
  279MOL0     H38469   8.125   1.615   0.068 -2.4547  0.7982  0.4115
  279MOL0     H38470   8.314   1.454  -0.059  3.7648  0.9237  1.1023
  279MOL0     H38471   8.336   1.612   0.006  1.4026 -1.2604  0.7595
  279MOL0     H38472   8.324   1.727  -0.178 -1.6398 -0.3852  1.2595
  279MOL0     H38473   8.265   1.604  -0.292  2.5826 -1.3333 -1.3220
  279MOL0     H38474   8.534   1.610  -0.159 -1.0586  2.2335 -1.0933
  279MOL0     H38475   8.485   1.474  -0.260  2.9330  0.8240 -1.1972
  279MOL0     H38476   8.516   1.766  -0.347 -0.9344  0.1008  0.5372
  279MOL0     H38477   8.442   1.630  -0.452 -0.2170  0.7966 -0.8213
  279MOL0     H38478   8.670   1.532  -0.429 -2.8262 -0.3243 -0.6176
  279MOL0     H38479   8.713   1.658  -0.306 -1.6706 -1.0616  1.9626
  279MOL0     H38480   8.807   1.691  -0.534 -0.2381 -0.3030  0.6535
  279MOL0     H38481   8.682   1.820  -0.484 -1.2077  0.5568  1.0294
  279MOL0     H38482   7.878   1.546   0.131 -3.3116  0.4105 -0.3862
  279MOL0     H38483   7.706   1.495   0.296  2.5343  0.2531  2.7915
  279MOL0     H38484   7.530   1.004   0.382  0.1958 -0.1476 -0.7894
  279MOL0     H38485   7.326   0.857   0.422  1.0757 -0.1862  0.6827
  279MOL0     H38486   5.211   0.843   0.688  1.0229  1.0601  1.6076
  279MOL0     H38487   5.092   0.658   0.825 -1.7459 -1.6060 -2.6068
  279MOL0     H38488   5.145   0.219   0.976  0.2267  1.2998 -0.0568
  279MOL0     H38489   5.015   0.056   1.087 -1.8198  0.9582 -0.9067
  279MOL0     H38490   4.775  -0.029   1.181 -1.7425 -1.1582  0.8218
  279MOL0     H38491   4.924  -0.090   1.275 -3.0005 -4.2607 -1.1991
  279MOL0     H38492   4.763  -0.099   1.472 -0.3062 -1.6849 -0.4577
  279MOL0     H38493   4.720  -0.211   1.340 -2.6191  0.2853 -0.8323
  279MOL0     H38494   4.537  -0.128   1.440  1.6716  0.9110  0.8688
  279MOL0     H38495   4.583   0.042   1.422 -4.4771  1.5955 -3.5902
  279MOL0     H38496   4.567  -0.097   1.162 -3.2782 -2.9964  0.3921
  279MOL0     H38497   4.540   0.066   1.212  2.0062 -0.0266 -1.1405
  279MOL0     H38498   4.155  -0.088   1.239  0.5878  0.1995 -0.2411
  279MOL0     H38499   4.903   0.336   1.397  0.0395  0.7536  0.6374
  279MOL0     H38500   4.926   0.554   1.365 -0.2986 -2.3633 -0.2880
  279MOL0     H38501   5.106   0.568   1.368  0.9250 -0.6755 -1.3529
  279MOL0     H38502   5.015   0.618   1.224  0.4969 -0.8323 -1.2666
  280MOL0     O38503   2.179   5.064   9.716  0.3054  0.3685 -0.2518
  280MOL0     C38504   2.098   5.068   9.803  0.4437  0.0167  0.3099
  280MOL0     O38505   2.129   5.061   9.938 -0.0825 -0.2852  0.3591
  280MOL0     C38506   2.263   5.027   9.962  0.2292 -0.2968  0.7811
  280MOL0     C38507   2.364   5.122   9.975  0.8911 -0.6075  0.8352
  280MOL0     C38508   2.492   5.080  10.006  0.5164  0.6985 -0.0557
  280MOL0     C38509   2.524   4.947  10.016 -0.0925 -0.3520  0.0848
  280MOL0     O38510   2.652   4.908  10.050  0.5521  0.0524 -0.0890
  280MOL0     C38511   2.695   4.788   9.992 -0.4344  0.0951 -0.0087
  280MOL0     C38512   2.853   4.797   9.967 -0.0940 -0.3084  0.9989
  280MOL0     C38513   2.923   4.807  10.106 -0.0752 -0.2567 -0.8355
  280MOL0     C38514   3.075   4.769  10.099 -0.1455 -0.3850 -0.0724
  280MOL0     C38515   3.145   4.803  10.235  0.4997  0.1927  0.2630
  280MOL0     C38516   3.289   4.759  10.232  0.0537 -0.7062 -0.1351
  280MOL0     C38517   3.340   4.752  10.380 -0.4273  0.6008  1.0411
  280MOL0     C38518   3.486   4.805  10.373  0.1590  0.7671 -0.1959
  280MOL0     N38519   3.578   4.717  10.296 -0.5826  0.0955 -0.5239
  280MOL0     C38520   3.595   4.702  10.162  0.0478  0.0068 -0.1380
  280MOL0     C38521   3.701   4.623  10.144 -0.0100  0.0896 -0.3025
  280MOL0     C38522   3.765   4.599  10.011  0.0030 -0.5699  0.5661
  280MOL0     C38523   3.891   4.684   9.997  0.1154  1.1358 -0.8378
  280MOL0     C38524   3.995   4.629   9.910 -0.4266 -0.2151  0.3915
  280MOL0     C38525   4.115   4.727   9.906  1.2919 -0.0776 -0.3682
  280MOL0     O38526   4.210   4.661   9.812  0.3284  0.3806  0.0761
  280MOL0     C38527   4.332   4.726   9.798  0.0447 -0.3483 -0.3727
  280MOL0     C38528   4.387   4.828   9.868  0.1938 -0.5345  0.0487
  280MOL0     C38529   4.507   4.889   9.832  0.4078  0.1365  0.0328
  280MOL0     C38530   4.541   4.993   9.931 -0.1056  0.4782 -1.0095
  280MOL0     C38531   4.579   4.843   9.722 -0.0399  0.4460 -0.1874
  280MOL0     C38532   4.713   4.888   9.680 -0.8392  0.1615 -0.1878
  280MOL0     O38533   4.773   4.826   9.576 -0.1913  0.9603 -0.0913
  280MOL0     C38534   4.902   4.857   9.547 -0.4892  0.0155  0.2135
  280MOL0     C38535   4.925   4.922   9.425  0.0295  1.1754  0.9954
  280MOL0     C38536   5.051   4.962   9.397 -0.2464  0.2547  0.6427
  280MOL0     C38537   5.164   4.930   9.476  0.4617  0.0474  0.1396
  280MOL0     O38538   5.288   4.979   9.456  0.3808 -0.3095  0.6907
  280MOL0     C38539   5.298   5.080   9.351 -0.2594 -0.0159  0.4147
  280MOL0     C38540   5.446   5.106   9.331 -0.3165 -0.8709  0.1720
  280MOL0     C38541   5.495   5.209   9.436 -0.6120 -0.1387  0.5390
  280MOL0     C38542   5.501   5.358   9.393  0.6148 -0.4592 -0.2605
  280MOL0     C38543   5.613   5.388   9.294 -0.4354 -0.8743 -0.1664
  280MOL0     C38544   5.599   5.522   9.228  0.3578 -0.2257 -0.0812
  280MOL0     C38545   5.685   5.530   9.098 -0.4209 -1.0262  0.4638
  280MOL0     C38546   5.717   5.667   9.046  0.1092 -0.6639  0.2130
  280MOL0    Cl38547   5.566   5.745   8.969  0.4791  0.0909 -0.0492
  280MOL0     C38548   5.133   4.861   9.592 -0.4995  0.2119 -0.1640
  280MOL0     C38549   5.007   4.816   9.627  0.7074 -0.4497  0.6070
  280MOL0     O38550   4.752   4.999   9.724  0.1147  0.1758  0.3597
  280MOL0     C38551   4.525   4.738   9.652  1.0923 -0.1967  0.3886
  280MOL0     C38552   4.404   4.687   9.687  0.0378  0.4442 -0.2337
  280MOL0     N38553   3.726   4.562  10.267 -0.3307  0.2191 -0.6698
  280MOL0     N38554   3.662   4.627  10.361 -0.4305  0.2767 -0.1484
  280MOL0     C38555   2.421   4.855  10.009  1.3731  0.3397  0.5568
  280MOL0     C38556   2.290   4.895   9.975  0.5220 -0.3863 -0.6463
  280MOL0     C38557   1.948   5.083   9.773 -0.5257 -0.0547 -0.4666
  280MOL0     C38558   1.856   5.092   9.879  1.4617  0.6848 -0.4302
  280MOL0     C38559   1.710   5.091   9.856 -0.5753 -0.7934 -0.8984
  280MOL0     C38560   1.661   5.081   9.723  0.7998  0.7574  0.1187
  280MOL0     O38561   1.532   5.075   9.681  0.2243  0.4981  0.9395
  280MOL0     C38562   1.438   5.059   9.787  0.6557 -0.2877 -0.4680
  280MOL0     C38563   1.298   5.024   9.734 -0.3107  0.5629  0.1228
  280MOL0     C38564   1.239   5.126   9.642  0.4788  0.2390  0.3581
  280MOL0     C38565   1.119   5.075   9.553  0.5190 -0.5035 -0.6211
  280MOL0     C38566   1.007   5.061   9.650  0.2813  0.2836 -0.2327
  280MOL0     C38567   0.920   5.053   9.729 -0.0840  0.0115  0.1865
  280MOL0     C38568   1.756   5.090   9.616  0.5578  1.4538  0.2964
  280MOL0     C38569   1.893   5.091   9.640  1.1998  1.1999 -0.0226
  280MOL0     C38570   1.977   5.137   9.523 -0.3034  0.2154 -0.0849
  280MOL0     H38571   2.362   5.228   9.956  0.4577 -0.2707  2.5574
  280MOL0     H38572   2.576   5.148  10.015  2.5797 -1.9309  3.0309
  280MOL0     H38573   2.655   4.787   9.891 -1.1732  1.0790  0.2647
  280MOL0     H38574   2.669   4.692  10.038 -0.2571 -0.7074 -1.5347
  280MOL0     H38575   2.888   4.705   9.919 -1.1093 -0.9231  1.3817
  280MOL0     H38576   2.873   4.882   9.902  0.4519  0.2573  1.8915
  280MOL0     H38577   2.909   4.904  10.153  1.6266 -0.4005  0.0306
  280MOL0     H38578   2.854   4.752  10.171 -2.3850  1.1635 -1.9666
  280MOL0     H38579   3.090   4.664  10.075  0.4191 -0.5380  0.8932
  280MOL0     H38580   3.126   4.826  10.020  1.1415  1.6031  2.0630
  280MOL0     H38581   3.091   4.745  10.311  0.9121  0.6884  0.9516
  280MOL0     H38582   3.140   4.906  10.272  0.1415 -0.0305  0.8465
  280MOL0     H38583   3.284   4.655  10.198 -1.5061 -1.1381  1.2500
  280MOL0     H38584   3.341   4.828  10.165 -1.3799  0.0330 -0.5246
  280MOL0     H38585   3.337   4.651  10.420  3.2626 -0.8392 -1.6801
  280MOL0     H38586   3.280   4.809  10.451 -0.8241  0.5141  0.7820
  280MOL0     H38587   3.492   4.902  10.324 -0.2698  0.3548 -1.0938
  280MOL0     H38588   3.528   4.812  10.474 -3.9546 -1.6404  1.9515
  280MOL0     H38589   3.550   4.759  10.081  1.5332  2.9681  0.9579
  280MOL0     H38590   3.693   4.611   9.931  0.6353 -1.2973 -0.1311
  280MOL0     H38591   3.796   4.494  10.003  0.2670 -0.7752  3.2141
  280MOL0     H38592   3.851   4.776   9.955 -0.6308  0.2593 -2.1208
  280MOL0     H38593   3.937   4.695  10.096  1.6036 -0.4159 -1.3091
  280MOL0     H38594   4.039   4.531   9.934  2.3099  0.7889 -0.2046
  280MOL0     H38595   3.958   4.615   9.808 -1.3805 -2.1497  0.9577
  280MOL0     H38596   4.080   4.824   9.870  1.9272  0.3198  0.0567
  280MOL0     H38597   4.166   4.745  10.002  0.4986  0.5402 -0.0481
  280MOL0     H38598   4.340   4.860   9.960 -2.4244 -2.1667 -0.6220
  280MOL0     H38599   4.604   5.077   9.903  1.9624  0.3160  2.5100
  280MOL0     H38600   4.614   4.943   9.995 -3.4284 -1.5121  1.5766
  280MOL0     H38601   4.459   5.041   9.985  1.9520  4.1820 -0.8853
  280MOL0     H38602   4.836   4.948   9.368 -0.8089  0.4795  1.9266
  280MOL0     H38603   5.048   5.029   9.312 -1.1022  0.2758  0.6795
  280MOL0     H38604   5.266   5.047   9.252  1.0343  2.2751 -0.8595
  280MOL0     H38605   5.239   5.168   9.379 -0.9040 -0.8243  1.6411
  280MOL0     H38606   5.491   5.007   9.341  1.0621 -0.0516  3.0614
  280MOL0     H38607   5.476   5.131   9.229  2.0826  2.6295  1.5145
  280MOL0     H38608   5.596   5.174   9.457 -0.0092  1.3898  0.3256
  280MOL0     H38609   5.431   5.200   9.524 -1.1772 -2.1811 -0.0191
  280MOL0     H38610   5.514   5.418   9.484 -4.3885  0.6431  0.0346
  280MOL0     H38611   5.403   5.380   9.350  1.5884 -0.2226 -2.5189
  280MOL0     H38612   5.707   5.368   9.347 -0.4589  2.8053  1.5309
  280MOL0     H38613   5.610   5.324   9.205 -1.7073 -1.7234  0.4672
  280MOL0     H38614   5.632   5.592   9.305  1.6880 -1.5962  0.6594
  280MOL0     H38615   5.495   5.546   9.202 -0.1106 -0.6814  1.2803
  280MOL0     H38616   5.632   5.474   9.021  0.6089 -0.0881 -0.9829
  280MOL0     H38617   5.783   5.481   9.099  0.8896  1.1734 -2.5296
  280MOL0     H38618   5.798   5.671   8.973 -0.2648  1.7468 -0.1500
  280MOL0     H38619   5.753   5.715   9.138  0.8140 -2.7747  1.1071
  280MOL0     H38620   5.214   4.850   9.663  0.4273  1.5619 -0.9623
  280MOL0     H38621   4.975   4.772   9.721  0.6305  0.3929  0.9883
  280MOL0     H38622   4.568   4.689   9.566  0.6165 -0.5940  0.3776
  280MOL0     H38623   4.356   4.612   9.625  0.5521  2.3121 -3.0493
  280MOL0     H38624   2.450   4.752  10.023  3.5703  0.8974  0.5053
  280MOL0     H38625   2.210   4.821   9.969  1.1398 -1.0029 -1.5357
  280MOL0     H38626   1.889   5.084   9.983  0.0265  3.6121  0.3697
  280MOL0     H38627   1.640   5.106   9.937  0.4671 -0.5687 -0.0217
  280MOL0     H38628   1.482   4.990   9.859 -0.2384  1.1486  1.5278
  280MOL0     H38629   1.412   5.152   9.839 -2.2220 -1.3292  0.1409
  280MOL0     H38630   1.238   5.011   9.824 -0.8401  2.0991  0.0235
  280MOL0     H38631   1.306   4.932   9.675 -3.2729 -0.1117  0.5885
  280MOL0     H38632   1.203   5.211   9.699 -0.8411 -0.2763  0.3162
  280MOL0     H38633   1.320   5.166   9.579 -1.3421  2.4289 -0.6963
  280MOL0     H38634   1.139   4.978   9.508 -2.0299 -1.0098 -0.7655
  280MOL0     H38635   1.085   5.151   9.482  0.7944  1.6468  1.3960
  280MOL0     H38636   0.837   5.035   9.794  0.2502 -1.4334  0.2285
  280MOL0     H38637   1.733   5.097   9.511  1.1266  1.1425  0.1437
  280MOL0     H38638   2.026   5.056   9.469  0.4025 -0.5579  1.6603
  280MOL0     H38639   1.920   5.196   9.450 -1.8997 -0.7912  0.2949
  280MOL0     H38640   2.061   5.195   9.563 -0.2376 -0.8849  1.4377
  281MOL0     O38641   2.029   8.085   5.270  0.1990  0.8326 -0.2314
  281MOL0     C38642   1.935   8.128   5.343  0.3907 -0.6055  0.1105
  281MOL0     O38643   1.944   8.215   5.449  0.4337 -0.5932  0.4583
  281MOL0     C38644   2.072   8.257   5.482 -0.5175 -0.1504  0.2940
  281MOL0     C38645   2.122   8.213   5.605 -0.8035 -0.1901 -0.0242
  281MOL0     C38646   2.254   8.257   5.649  0.1556 -0.2391  0.5587
  281MOL0     C38647   2.325   8.352   5.578 -0.0390  0.3713  0.0993
  281MOL0     O38648   2.444   8.405   5.621 -0.3716 -0.0504 -0.4604
  281MOL0     C38649   2.536   8.454   5.529  0.2289 -0.4507 -0.3384
  281MOL0     C38650   2.646   8.525   5.590  0.1846 -0.2472 -0.1231
  281MOL0     C38651   2.751   8.581   5.499  0.6663  0.2361  0.9331
  281MOL0     C38652   2.865   8.657   5.564  0.3445  0.6719  0.4538
  281MOL0     C38653   2.960   8.736   5.464  0.1323  0.6840 -0.0583
  281MOL0     C38654   3.058   8.640   5.399  0.4743 -0.5839 -0.5361
  281MOL0     C38655   3.176   8.715   5.327  0.0377  0.1305 -0.2039
  281MOL0     C38656   3.279   8.615   5.280 -0.0696  0.2067  0.1546
  281MOL0     N38657   3.233   8.496   5.210 -0.5264 -0.2033 -0.2933
  281MOL0     C38658   3.174   8.512   5.088  0.1481 -0.5022  0.0076
  281MOL0     C38659   3.110   8.393   5.066  0.1070  0.8581  1.0429
  281MOL0     C38660   3.022   8.358   4.956  0.3956 -0.0102  0.5901
  281MOL0     C38661   2.864   8.389   4.977 -0.0475 -0.2308  0.0248
  281MOL0     C38662   2.788   8.392   4.843 -0.6351 -0.3740  0.4230
  281MOL0     C38663   2.799   8.265   4.761  0.1176  0.7081  0.1863
  281MOL0     O38664   2.734   8.265   4.634  0.2812 -0.5022  0.1768
  281MOL0     C38665   2.603   8.232   4.605 -0.2936 -0.1346  0.0316
  281MOL0     C38666   2.543   8.110   4.647  0.1976  0.6333  0.2841
  281MOL0     C38667   2.404   8.087   4.630 -0.1804  0.0927  0.2199
  281MOL0     C38668   2.350   7.951   4.673 -0.7354 -0.2067 -0.4419
  281MOL0     C38669   2.319   8.195   4.580 -0.4669 -0.0415 -0.2198
  281MOL0     C38670   2.169   8.175   4.569 -0.0274 -0.2333 -0.1283
  281MOL0     O38671   2.107   8.117   4.669  0.1762 -0.6200 -0.2516
  281MOL0     C38672   1.990   8.049   4.643 -0.1587  0.7618 -0.0043
  281MOL0     C38673   1.951   7.971   4.530 -0.1100  0.1488  0.0505
  281MOL0     C38674   1.832   7.902   4.538 -0.4131 -0.3933  0.7756
  281MOL0     C38675   1.741   7.926   4.643 -0.2480  0.3506  0.3896
  281MOL0     O38676   1.619   7.875   4.640  0.6381  0.0044 -0.1690
  281MOL0     C38677   1.601   7.740   4.702 -0.5008 -0.5092  0.1043
  281MOL0     C38678   1.463   7.695   4.670 -0.3053  0.5153 -1.9649
  281MOL0     C38679   1.450   7.675   4.518 -0.6043  0.4210  0.1424
  281MOL0     C38680   1.314   7.675   4.471  0.6399 -0.3398  0.0908
  281MOL0     C38681   1.315   7.676   4.321  0.0005  0.6961 -0.1193
  281MOL0     C38682   1.178   7.703   4.263  0.4359 -0.5027  0.3690
  281MOL0     C38683   1.068   7.598   4.302 -0.1024  0.3627  0.9009
  281MOL0     C38684   0.940   7.644   4.228 -0.1409 -0.4351  0.4873
  281MOL0    Cl38685   0.813   7.527   4.266  0.1537  0.2281  0.4658
  281MOL0     C38686   1.768   8.013   4.750  0.4346 -0.3308  0.1293
  281MOL0     C38687   1.897   8.069   4.746 -0.5754  0.2554 -0.8585
  281MOL0     O38688   2.114   8.233   4.479 -0.8160  0.0346  0.0039
  281MOL0     C38689   2.379   8.307   4.526  0.0528 -0.1898  0.2629
  281MOL0     C38690   2.517   8.325   4.540 -0.0639  0.4971 -0.2103
  281MOL0     N38691   3.138   8.312   5.170  0.2142 -0.3887  0.0358
  281MOL0     N38692   3.218   8.367   5.254 -0.3166 -0.9966  0.5136
  281MOL0     C38693   2.274   8.395   5.453 -0.7213  0.7663 -0.3662
  281MOL0     C38694   2.148   8.357   5.413  0.2530  0.1817  0.6061
  281MOL0     C38695   1.795   8.076   5.317 -1.2488 -0.3029  0.1458
  281MOL0     C38696   1.691   8.140   5.389 -0.3321 -0.4656 -0.4393
  281MOL0     C38697   1.560   8.095   5.375 -0.4295  0.3437 -0.7837
  281MOL0     C38698   1.527   8.001   5.278 -0.3137 -0.2295 -0.5596
  281MOL0     O38699   1.395   7.946   5.277 -0.9080 -0.7809  0.5650
  281MOL0     C38700   1.278   8.000   5.348 -0.2010  0.4317  0.0942
  281MOL0     C38701   1.178   7.887   5.361 -0.2010  0.2310  0.4864
  281MOL0     C38702   1.043   7.925   5.407 -0.3899  1.1840 -0.0668
  281MOL0     C38703   1.048   8.022   5.524  0.4263 -0.5066 -0.0924
  281MOL0     C38704   0.914   8.026   5.589  0.1845  0.1997  1.0651
  281MOL0     C38705   0.798   8.015   5.631  0.6414 -0.3600 -0.3513
  281MOL0     C38706   1.626   7.958   5.190  0.0538  0.3645 -0.9998
  281MOL0     C38707   1.762   7.987   5.211  0.0789 -0.3532  0.7109
  281MOL0     C38708   1.858   7.925   5.100 -0.0676 -0.0289 -0.4727
  281MOL0     H38709   2.071   8.138   5.666  0.0438 -1.1137 -0.4269
  281MOL0     H38710   2.298   8.234   5.745  0.3202  2.3308  1.1911
  281MOL0     H38711   2.491   8.525   5.458  0.1436 -0.9419 -0.7786
  281MOL0     H38712   2.588   8.375   5.474  3.0746 -0.8449  2.6135
  281MOL0     H38713   2.604   8.616   5.633 -1.1217 -0.3216 -1.1889
  281MOL0     H38714   2.707   8.469   5.663  0.5306  2.1719  1.5646
  281MOL0     H38715   2.797   8.507   5.433 -1.3805  0.6542 -1.1117
  281MOL0     H38716   2.706   8.650   5.426  1.0074 -1.8974 -1.4426
  281MOL0     H38717   2.815   8.735   5.624 -1.7836 -0.7800  0.6635
  281MOL0     H38718   2.918   8.591   5.633  3.9765  2.0186 -0.7628
  281MOL0     H38719   3.008   8.810   5.528 -0.5868 -0.4493  1.8668
  281MOL0     H38720   2.909   8.781   5.378 -0.1147  0.4194 -0.0537
  281MOL0     H38721   3.097   8.565   5.468  0.7841  1.1833  1.3065
  281MOL0     H38722   3.002   8.591   5.319  0.9906 -0.5374 -0.9329
  281MOL0     H38723   3.221   8.804   5.372 -2.5131  1.2879  0.2652
  281MOL0     H38724   3.136   8.747   5.230 -0.3132 -1.7042 -0.7019
  281MOL0     H38725   3.365   8.663   5.232  0.9589 -1.4929  0.2108
  281MOL0     H38726   3.325   8.579   5.373 -0.7689  0.5281  0.6397
  281MOL0     H38727   3.164   8.607   5.036 -2.3418 -0.3252  0.6971
  281MOL0     H38728   3.046   8.254   4.935  1.6098  0.1482  1.0777
  281MOL0     H38729   3.061   8.417   4.872 -1.3540  1.0183  0.4479
  281MOL0     H38730   2.823   8.325   5.055  1.1823 -1.7505 -0.5299
  281MOL0     H38731   2.855   8.488   5.022 -1.9042 -0.0792 -0.5929
  281MOL0     H38732   2.682   8.411   4.865 -1.3889 -1.8558 -1.6679
  281MOL0     H38733   2.825   8.476   4.784 -0.6661 -1.7371 -1.6330
  281MOL0     H38734   2.904   8.241   4.743 -0.2061  0.4970 -1.5605
  281MOL0     H38735   2.756   8.175   4.805  1.5183 -1.3647 -2.4555
  281MOL0     H38736   2.589   8.032   4.707 -5.8166 -0.8761  3.8670
  281MOL0     H38737   2.280   7.911   4.599  0.0686 -0.5673 -1.0238
  281MOL0     H38738   2.310   7.975   4.772  1.8895  0.9594  0.4230
  281MOL0     H38739   2.421   7.869   4.685 -0.3792  0.2713  0.9050
  281MOL0     H38740   2.027   7.954   4.455  1.3199 -0.2456  1.5289
  281MOL0     H38741   1.804   7.838   4.455  1.2526  0.6530 -0.6638
  281MOL0     H38742   1.671   7.680   4.643 -0.4425  0.6243 -1.0405
  281MOL0     H38743   1.614   7.732   4.810 -3.4928 -1.8419  0.4822
  281MOL0     H38744   1.444   7.605   4.730  1.3708  0.8972 -0.8056
  281MOL0     H38745   1.402   7.773   4.717 -1.2526 -1.9712  1.3924
  281MOL0     H38746   1.479   7.575   4.485  0.9459  1.3608 -1.5431
  281MOL0     H38747   1.513   7.749   4.468 -1.0921  1.3731  0.8877
  281MOL0     H38748   1.255   7.765   4.493  2.2564  0.8976 -0.4445
  281MOL0     H38749   1.254   7.588   4.501 -1.3159  0.3382 -1.5768
  281MOL0     H38750   1.379   7.758   4.288  0.7347 -0.3039 -1.2619
  281MOL0     H38751   1.355   7.583   4.280  0.6478  1.7342 -2.0153
  281MOL0     H38752   1.186   7.706   4.154  2.7883 -0.1111  0.5105
  281MOL0     H38753   1.144   7.799   4.304  0.2089 -1.0032  1.3986
  281MOL0     H38754   1.048   7.604   4.409 -2.0293  2.1608  0.5038
  281MOL0     H38755   1.098   7.500   4.265  0.0633  1.1931 -1.3626
  281MOL0     H38756   0.956   7.652   4.120 -0.4016  0.3803  0.5023
  281MOL0     H38757   0.914   7.745   4.260  1.0619 -0.1056  0.4781
  281MOL0     H38758   1.703   8.037   4.833  0.9173  0.7710  0.2057
  281MOL0     H38759   1.924   8.139   4.825 -5.1170 -1.5109  2.7235
  281MOL0     H38760   2.326   8.393   4.486 -1.8237 -1.4042  0.0599
  281MOL0     H38761   2.555   8.422   4.509 -1.1341  1.0478  0.1257
  281MOL0     H38762   2.327   8.464   5.389 -1.4749  2.1759  0.4539
  281MOL0     H38763   2.093   8.403   5.331  1.6164 -2.3900 -1.9389
  281MOL0     H38764   1.711   8.210   5.470 -2.5619  0.2469 -0.4510
  281MOL0     H38765   1.482   8.125   5.445  0.4957 -1.8310  1.3444
  281MOL0     H38766   1.303   8.028   5.450  0.1122 -2.4953  0.9325
  281MOL0     H38767   1.239   8.082   5.287 -2.2033  0.2830  1.0684
  281MOL0     H38768   1.204   7.807   5.431  0.6783 -0.3841 -0.5086
  281MOL0     H38769   1.168   7.844   5.261 -1.6032 -1.4912  1.3195
  281MOL0     H38770   0.982   7.975   5.332  1.3382  1.7622 -1.1490
  281MOL0     H38771   0.985   7.836   5.435  1.9728  0.3649  2.7441
  281MOL0     H38772   1.075   8.123   5.495  4.7452 -0.8667  2.0000
  281MOL0     H38773   1.119   7.989   5.600 -0.4766 -1.0065  0.5526
  281MOL0     H38774   0.698   8.017   5.669  1.2608 -0.8334  1.4258
  281MOL0     H38775   1.597   7.895   5.106  2.7353 -4.4134  1.2158
  281MOL0     H38776   1.786   7.890   5.025 -2.1149 -1.8438  2.1559
  281MOL0     H38777   1.917   8.007   5.058 -1.7737  0.2904 -2.4135
  281MOL0     H38778   1.924   7.845   5.136  0.1487 -0.0901 -0.9901
  282MOL0     O38779   9.236   0.781   0.144 -0.4377 -0.4035 -0.1632
  282MOL0     C38780   9.331   0.713   0.089  0.1339 -0.2393  0.7438
  282MOL0     O38781   9.421   0.635   0.158 -0.0568  0.2780  0.0120
  282MOL0     C38782   9.459   0.674   0.283 -0.4736 -0.4733  0.9231
  282MOL0     C38783   9.524   0.792   0.309  0.0568 -1.1343 -0.1120
  282MOL0     C38784   9.547   0.842   0.440  1.1034  0.6837 -0.1413
  282MOL0     C38785   9.512   0.768   0.549  0.8362  0.7594  0.1836
  282MOL0     O38786   9.538   0.813   0.672 -0.3121 -0.0193  0.2386
  282MOL0     C38787   9.418   0.825   0.754  0.9820  0.3337  0.6727
  282MOL0     C38788   9.460   0.898   0.880  0.2601  0.5879 -0.0057
  282MOL0     C38789   9.566   0.817   0.958  0.2466  0.5096 -0.2718
  282MOL0     C38790   9.602   0.874   1.101  0.0400 -0.3600  0.6715
  282MOL0     C38791   9.670   0.774   1.198 -0.0801 -0.2564 -0.0490
  282MOL0     C38792   9.817   0.740   1.163  0.3949  0.2196 -0.4491
  282MOL0     C38793   9.924   0.836   1.200 -0.6892  0.2478 -0.4716
  282MOL0     C38794  10.069   0.779   1.157 -0.9476 -0.2063  0.5535
  282MOL0     N38795  10.101   0.788   1.017  0.2902 -0.1178  0.0681
  282MOL0     C38796  10.087   0.898   0.944  0.3924 -0.2002 -0.0835
  282MOL0     C38797  10.072   0.858   0.816 -0.6240 -0.4214  0.4391
  282MOL0     C38798  10.044   0.938   0.679 -0.7518 -0.3341  0.4697
  282MOL0     C38799   9.931   1.031   0.696 -0.4565 -0.0904  0.4875
  282MOL0     C38800   9.881   1.091   0.566 -0.3715  0.0533  0.4300
  282MOL0     C38801   9.757   1.185   0.580  0.4753 -0.7423 -0.6227
  282MOL0     O38802   9.712   1.212   0.444  0.5378 -0.5861  0.4265
  282MOL0     C38803   9.613   1.301   0.431  0.1201 -0.0022  0.2626
  282MOL0     C38804   9.531   1.356   0.529  0.1317  0.1928  0.8773
  282MOL0     C38805   9.416   1.423   0.497  0.1300  0.0696  0.8979
  282MOL0     C38806   9.320   1.463   0.610 -0.2173  1.0920 -0.0771
  282MOL0     C38807   9.371   1.435   0.358 -0.2849  0.2774 -0.6446
  282MOL0     C38808   9.231   1.483   0.311 -0.4233  0.0272  1.0745
  282MOL0     O38809   9.210   1.466   0.177 -0.3237 -0.0652 -0.0835
  282MOL0     C38810   9.073   1.486   0.140  0.1998  0.5531 -0.3782
  282MOL0     C38811   8.999   1.365   0.138 -0.2843  0.5550 -0.1314
  282MOL0     C38812   8.863   1.357   0.118 -1.0540 -0.9918  0.1583
  282MOL0     C38813   8.794   1.477   0.085  0.5641 -0.5695 -1.4509
  282MOL0     O38814   8.662   1.478   0.051 -0.0662  0.1965  0.2022
  282MOL0     C38815   8.562   1.385   0.101 -0.8576 -0.1502  0.1018
  282MOL0     C38816   8.479   1.453   0.215 -0.3079  0.0188  0.1430
  282MOL0     C38817   8.554   1.476   0.346  0.3317  0.1520  0.2579
  282MOL0     C38818   8.565   1.364   0.446  0.1773  0.5659  0.6047
  282MOL0     C38819   8.646   1.398   0.578  0.1550  0.3396  0.8738
  282MOL0     C38820   8.777   1.465   0.560 -0.2231  0.1950 -1.0007
  282MOL0     C38821   8.837   1.501   0.701 -0.1524  0.0794  0.5260
  282MOL0     C38822   8.956   1.587   0.674  0.9107 -0.5650  0.7357
  282MOL0    Cl38823   9.083   1.577   0.796  0.0782  0.3213 -0.6359
  282MOL0     C38824   8.870   1.595   0.088 -0.1237 -0.4527 -0.1971
  282MOL0     C38825   9.008   1.601   0.113 -0.5543  0.2238  0.5037
  282MOL0     O38826   9.151   1.525   0.391  0.4774 -0.1129 -0.1018
  282MOL0     C38827   9.453   1.361   0.270 -0.0902 -0.3169  0.0314
  282MOL0     C38828   9.577   1.309   0.299 -0.4328  0.1279  0.6164
  282MOL0     N38829  10.105   0.724   0.806 -0.4947 -0.1250  0.3212
  282MOL0     N38830  10.111   0.685   0.930 -0.0417  0.6351  0.0908
  282MOL0     C38831   9.460   0.638   0.530 -0.0171 -0.5571 -0.3768
  282MOL0     C38832   9.423   0.598   0.393  0.4450 -1.4871 -0.2692
  282MOL0     C38833   9.339   0.707  -0.058  0.6944 -0.8199  0.4349
  282MOL0     C38834   9.454   0.701  -0.120 -0.8604  0.5974  0.7812
  282MOL0     C38835   9.474   0.707  -0.258 -0.7859  0.4019 -0.6725
  282MOL0     C38836   9.363   0.715  -0.339 -0.9612 -0.2687  0.1079
  282MOL0     O38837   9.388   0.723  -0.471  1.2703  0.1485  0.5996
  282MOL0     C38838   9.376   0.598  -0.539  1.0187  0.0896 -0.5131
  282MOL0     C38839   9.237   0.549  -0.576  0.5111 -0.3456 -1.0364
  282MOL0     C38840   9.169   0.659  -0.664  0.7990 -0.1356  0.6041
  282MOL0     C38841   9.035   0.623  -0.703 -0.2789 -0.2485 -0.6702
  282MOL0     C38842   8.974   0.742  -0.775 -0.3507  0.0585  0.6823
  282MOL0     C38843   8.922   0.840  -0.827  0.2852  0.1399  0.5158
  282MOL0     C38844   9.239   0.719  -0.281 -0.4785 -0.3464  0.3158
  282MOL0     C38845   9.224   0.726  -0.144  0.1889  0.3596  0.0767
  282MOL0     C38846   9.078   0.731  -0.094  0.0346  1.3246  0.4773
  282MOL0     H38847   9.543   0.860   0.227  0.5338 -1.0943  0.0280
  282MOL0     H38848   9.596   0.936   0.464  0.5712  0.5119  1.8150
  282MOL0     H38849   9.382   0.725   0.779  2.6863  0.2230  3.0503
  282MOL0     H38850   9.344   0.881   0.697  2.6716  1.2425 -0.6977
  282MOL0     H38851   9.492   1.001   0.862  0.0990  0.3559 -1.8442
  282MOL0     H38852   9.372   0.910   0.944  0.0112 -3.8928  0.8529
  282MOL0     H38853   9.535   0.712   0.958  0.5234  0.4178  0.6934
  282MOL0     H38854   9.660   0.817   0.902  0.1930  1.3381 -0.3729
  282MOL0     H38855   9.666   0.963   1.094  1.0136 -1.0931 -0.0606
  282MOL0     H38856   9.509   0.884   1.157 -0.3702 -1.6669  0.2493
  282MOL0     H38857   9.611   0.682   1.190  1.5841 -1.2348 -2.1753
  282MOL0     H38858   9.673   0.824   1.295  0.0649 -1.4512  0.5714
  282MOL0     H38859   9.839   0.642   1.208 -0.1092 -0.1791 -1.0563
  282MOL0     H38860   9.823   0.719   1.056 -0.8830 -0.3918 -0.4148
  282MOL0     H38861   9.941   0.847   1.308  1.0402 -2.3990 -0.3909
  282MOL0     H38862   9.899   0.939   1.173 -0.5562  0.2615 -0.5448
  282MOL0     H38863  10.157   0.826   1.200  0.4691 -1.5811 -0.7151
  282MOL0     H38864  10.074   0.675   1.190 -1.1778 -0.7747 -1.1212
  282MOL0     H38865  10.079   1.001   0.977  1.1661 -0.0506 -0.3165
  282MOL0     H38866  10.007   0.868   0.603  0.8169  0.2012 -0.8601
  282MOL0     H38867  10.134   0.989   0.643  1.1289 -2.4677  1.8558
  282MOL0     H38868   9.848   0.989   0.753 -2.0983 -1.8525 -2.8918
  282MOL0     H38869   9.975   1.114   0.753 -0.3226 -0.3986  0.8357
  282MOL0     H38870   9.967   1.143   0.523 -1.5849  3.7694  2.0695
  282MOL0     H38871   9.850   1.012   0.496  0.3769 -2.5538  2.8287
  282MOL0     H38872   9.686   1.129   0.641 -1.0558  1.3412 -0.3891
  282MOL0     H38873   9.785   1.271   0.642 -2.2102 -1.7167  2.2168
  282MOL0     H38874   9.553   1.339   0.634 -3.0463  1.4714  1.8568
  282MOL0     H38875   9.290   1.567   0.601 -1.4521  0.7065 -0.6399
  282MOL0     H38876   9.365   1.461   0.710  1.1359  0.6514 -0.6646
  282MOL0     H38877   9.231   1.400   0.607  0.7429 -0.2935 -1.6599
  282MOL0     H38878   9.046   1.273   0.172 -2.7683 -0.6402  0.2463
  282MOL0     H38879   8.822   1.256   0.114  2.0764 -2.3506 -1.8162
  282MOL0     H38880   8.491   1.363   0.021  0.0025  1.0836 -1.0315
  282MOL0     H38881   8.604   1.290   0.136  2.3530  0.7450 -0.9564
  282MOL0     H38882   8.442   1.551   0.181 -3.3821  1.5541  6.5130
  282MOL0     H38883   8.394   1.391   0.245  0.7293 -1.7971 -0.5138
  282MOL0     H38884   8.499   1.560   0.387  0.4514  1.3105 -1.8129
  282MOL0     H38885   8.653   1.517   0.323 -0.8342  1.9803 -1.9460
  282MOL0     H38886   8.606   1.274   0.401 -1.6990 -0.2498  0.4471
  282MOL0     H38887   8.462   1.334   0.469 -0.2659  0.4756 -1.3621
  282MOL0     H38888   8.576   1.455   0.640 -0.9442  0.8399 -0.7541
  282MOL0     H38889   8.664   1.306   0.636 -1.4110 -0.7387 -0.2768
  282MOL0     H38890   8.762   1.558   0.505  0.4065  1.3306  0.6516
  282MOL0     H38891   8.842   1.403   0.497 -1.2222 -1.3099 -0.6224
  282MOL0     H38892   8.858   1.410   0.758  4.6352  1.0233  0.6957
  282MOL0     H38893   8.761   1.559   0.754  0.0728  0.5656  0.3214
  282MOL0     H38894   8.921   1.689   0.654 -3.3700 -1.8431  0.8309
  282MOL0     H38895   9.016   1.559   0.587  0.5453 -0.8379  0.5698
  282MOL0     H38896   8.809   1.677   0.051 -1.7362 -1.4275  0.2015
  282MOL0     H38897   9.058   1.697   0.118 -2.5129  1.3118  0.2634
  282MOL0     H38898   9.414   1.354   0.169 -1.4992 -1.0763  0.5937
  282MOL0     H38899   9.634   1.247   0.230 -1.7242 -2.5956  1.8274
  282MOL0     H38900   9.448   0.569   0.612  1.1179  1.8962  1.9921
  282MOL0     H38901   9.379   0.502   0.368  1.1801 -2.2726  1.2894
  282MOL0     H38902   9.546   0.709  -0.062 -0.8114  0.7195  0.6859
  282MOL0     H38903   9.573   0.713  -0.302 -0.8625 -0.8387 -1.0776
  282MOL0     H38904   9.431   0.611  -0.633  1.3252  2.6679 -0.0725
  282MOL0     H38905   9.418   0.524  -0.470  0.5387  0.2966  0.0100
  282MOL0     H38906   9.200   0.534  -0.474  4.4458 -0.4732  0.5576
  282MOL0     H38907   9.242   0.449  -0.622 -2.3856  0.0107 -2.3202
  282MOL0     H38908   9.151   0.754  -0.615 -6.0177 -1.2030  1.2013
  282MOL0     H38909   9.237   0.681  -0.747 -0.0494  0.4528  0.0480
  282MOL0     H38910   8.980   0.591  -0.615 -0.8163  0.5190 -0.7178
  282MOL0     H38911   9.042   0.541  -0.775 -1.8773  3.0431 -5.0600
  282MOL0     H38912   8.865   0.924  -0.861 -1.3730 -0.4724  1.6537
  282MOL0     H38913   9.150   0.713  -0.343 -0.1093  0.8094 -0.3565
  282MOL0     H38914   9.007   0.690  -0.167  1.3130  1.1265 -0.6922
  282MOL0     H38915   9.070   0.668  -0.005 -4.2021 -0.0005 -0.5664
  282MOL0     H38916   9.054   0.837  -0.081 -0.4197  1.8466 -3.4443
  283MOL0     O38917   1.866   8.775   3.087 -0.1241 -0.2716  0.1500
  283MOL0     C38918   1.832   8.892   3.064 -0.2603 -0.0547 -0.1019
  283MOL0     O38919   1.732   8.919   2.979  0.4376 -0.1153  0.2814
  283MOL0     C38920   1.703   8.832   2.876 -0.6575 -0.2741 -0.0396
  283MOL0     C38921   1.578   8.772   2.869  0.9469  0.6571  0.2477
  283MOL0     C38922   1.545   8.691   2.760 -0.3933  0.2180  0.0753
  283MOL0     C38923   1.630   8.677   2.656 -0.8999 -0.5964 -0.0826
  283MOL0     O38924   1.599   8.613   2.537 -0.1360  0.1347 -0.1442
  283MOL0     C38925   1.502   8.505   2.548  1.1041  0.2852  0.3600
  283MOL0     C38926   1.488   8.417   2.424 -0.0197  0.0655 -0.1623
  283MOL0     C38927   1.453   8.488   2.295  0.2246  0.2444  0.2489
  283MOL0     C38928   1.458   8.401   2.171  0.1082 -0.7580  0.0355
  283MOL0     C38929   1.606   8.364   2.135  0.0888  0.4298  0.3496
  283MOL0     C38930   1.609   8.254   2.027 -0.0145 -0.6159 -0.0825
  283MOL0     C38931   1.743   8.195   1.997  0.7950 -0.3537 -1.1034
  283MOL0     C38932   1.852   8.295   1.954 -0.3541 -0.7495 -0.5095
  283MOL0     N38933   1.972   8.231   1.890  0.0131  0.0798 -0.0599
  283MOL0     C38934   2.064   8.145   1.940  0.0633  0.0219  0.6311
  283MOL0     C38935   2.127   8.094   1.834  0.5736 -0.9334  0.1000
  283MOL0     C38936   2.227   7.986   1.839  0.9855 -0.7537 -0.0692
  283MOL0     C38937   2.360   8.039   1.895  0.0139 -0.1500  0.1823
  283MOL0     C38938   2.434   8.127   1.796  0.0114 -0.6083  0.3175
  283MOL0     C38939   2.529   8.229   1.854 -0.3947  0.9514  0.3935
  283MOL0     O38940   2.564   8.340   1.764 -1.0083  0.3352  0.7628
  283MOL0     C38941   2.472   8.437   1.739 -0.4139  0.6199  0.1486
  283MOL0     C38942   2.349   8.446   1.809  0.4081  0.1290  1.4364
  283MOL0     C38943   2.262   8.549   1.769  0.4287  0.4875  0.7260
  283MOL0     C38944   2.136   8.558   1.850 -0.0708 -0.2509 -0.4453
  283MOL0     C38945   2.298   8.637   1.660  0.3615 -0.1830  0.6888
  283MOL0     C38946   2.197   8.747   1.626 -0.0676 -0.5681 -0.2083
  283MOL0     O38947   2.146   8.816   1.732  0.2166 -0.1762  0.0237
  283MOL0     C38948   2.047   8.906   1.714  0.0715 -0.1359 -0.3050
  283MOL0     C38949   1.974   8.916   1.595  0.0614 -0.0577  0.1144
  283MOL0     C38950   1.867   9.010   1.590 -0.5518 -0.4996  0.2920
  283MOL0     C38951   1.849   9.093   1.703  0.6947  0.7157 -0.1602
  283MOL0     O38952   1.745   9.184   1.700  0.0452  0.1637  0.6337
  283MOL0     C38953   1.616   9.130   1.663  0.1509  0.0911 -0.4435
  283MOL0     C38954   1.501   9.221   1.723  0.5329  0.3504  1.0562
  283MOL0     C38955   1.474   9.353   1.647 -0.2161 -0.0811  0.1553
  283MOL0     C38956   1.369   9.446   1.711  0.5033 -0.0526  0.1662
  283MOL0     C38957   1.337   9.563   1.617 -0.5684 -0.4240  0.4562
  283MOL0     C38958   1.222   9.651   1.671 -0.0754  0.0839  0.0940
  283MOL0     C38959   1.199   9.767   1.576  0.1191 -0.0728 -1.0057
  283MOL0     C38960   1.080   9.841   1.631 -0.5698 -0.4753  0.0613
  283MOL0    Cl38961   0.935   9.736   1.658 -0.2057 -0.1336  0.2023
  283MOL0     C38962   1.920   9.075   1.823  0.2894 -0.2312  0.2769
  283MOL0     C38963   2.022   8.987   1.826 -0.1195 -0.0208  0.3690
  283MOL0     O38964   2.208   8.787   1.512 -0.6070  0.3852  0.1293
  283MOL0     C38965   2.417   8.623   1.599 -0.6186 -0.5371  0.2984
  283MOL0     C38966   2.506   8.524   1.634  0.1468  0.2467 -0.1507
  283MOL0     N38967   2.079   8.158   1.716  0.1589  1.3532  0.6076
  283MOL0     N38968   1.975   8.226   1.749 -0.0183 -0.8783  0.2059
  283MOL0     C38969   1.752   8.746   2.656 -0.9646  0.4508 -0.3426
  283MOL0     C38970   1.791   8.814   2.771  1.2753 -0.0538 -0.0514
  283MOL0     C38971   1.894   8.994   3.145  0.4447  0.2851 -0.3488
  283MOL0     C38972   1.816   9.109   3.145 -0.3847  0.5578 -0.3249
  283MOL0     C38973   1.852   9.225   3.205  0.6696 -0.1670 -0.4811
  283MOL0     C38974   1.974   9.229   3.272  0.0978 -0.1353 -0.2611
  283MOL0     O38975   2.026   9.328   3.344  0.3450  0.4284  0.3205
  283MOL0     C38976   1.962   9.453   3.356 -0.3615 -0.0833  0.6040
  283MOL0     C38977   2.041   9.541   3.454  0.5587 -0.5540  0.1002
  283MOL0     C38978   2.144   9.636   3.398  0.0334 -0.4669  0.0851
  283MOL0     C38979   2.243   9.555   3.318  0.0072 -0.9764  0.2862
  283MOL0     C38980   2.364   9.631   3.306  0.4349  0.3900  0.8002
  283MOL0     C38981   2.461   9.703   3.289 -0.4815 -0.4866 -0.3363
  283MOL0     C38982   2.056   9.114   3.276 -0.4103  0.6470 -0.1607
  283MOL0     C38983   2.028   8.999   3.199  0.0353  0.5912  0.1337
  283MOL0     C38984   2.132   8.895   3.194  1.2545 -0.7929 -0.2371
  283MOL0     H38985   1.505   8.793   2.947 -0.4299  0.4315 -0.9415
  283MOL0     H38986   1.448   8.642   2.750 -0.9794  0.8538  2.1178
  283MOL0     H38987   1.411   8.564   2.557 -0.3325 -1.3483 -2.3619
  283MOL0     H38988   1.529   8.441   2.633  3.9178  0.6910 -0.0998
  283MOL0     H38989   1.572   8.347   2.425 -1.1584 -1.3978 -1.4826
  283MOL0     H38990   1.410   8.341   2.436  0.3255 -0.2238  0.2862
  283MOL0     H38991   1.348   8.517   2.302  0.6799  1.6489  2.1847
  283MOL0     H38992   1.520   8.575   2.288  1.2534 -0.4284  1.2756
  283MOL0     H38993   1.396   8.311   2.174 -0.2606 -0.4790  1.0150
  283MOL0     H38994   1.414   8.474   2.102 -0.1228  2.0994  2.9569
  283MOL0     H38995   1.664   8.307   2.208  1.7411 -2.2173 -2.7638
  283MOL0     H38996   1.665   8.451   2.105 -0.1026  0.0331 -1.2836
  283MOL0     H38997   1.549   8.165   2.050 -1.3830  0.0564 -0.9333
  283MOL0     H38998   1.564   8.289   1.934 -1.2242 -1.4061  0.1766
  283MOL0     H38999   1.739   8.121   1.915  0.6522 -1.2793 -0.2810
  283MOL0     H39000   1.769   8.146   2.091 -3.5070  3.8165  2.6990
  283MOL0     H39001   1.812   8.368   1.884 -0.3725 -3.2914 -3.3410
  283MOL0     H39002   1.892   8.354   2.037  2.6788 -1.6566 -1.1890
  283MOL0     H39003   2.088   8.128   2.044  2.2755  1.3518  0.4106
  283MOL0     H39004   2.244   7.941   1.741  0.1408 -0.2191 -0.4798
  283MOL0     H39005   2.191   7.901   1.897 -2.4705 -1.4187 -2.7969
  283MOL0     H39006   2.346   8.107   1.979  1.8309  2.1214 -1.2096
  283MOL0     H39007   2.412   7.944   1.911  2.2292  0.5864 -1.9332
  283MOL0     H39008   2.501   8.069   1.732  2.8489  0.2290  2.3411
  283MOL0     H39009   2.354   8.181   1.744 -3.1844 -3.1625  2.2096
  283MOL0     H39010   2.500   8.267   1.952 -1.9905  3.0834 -0.8477
  283MOL0     H39011   2.618   8.167   1.873 -2.7024 -2.1467  2.1232
  283MOL0     H39012   2.317   8.378   1.888  1.2181 -3.5786 -1.1415
  283MOL0     H39013   2.120   8.473   1.917 -3.8461 -0.0692 -0.9056
  283MOL0     H39014   2.057   8.548   1.776 -1.8215  0.9989  1.1458
  283MOL0     H39015   2.140   8.649   1.911  0.6892 -0.8042  0.3695
  283MOL0     H39016   1.976   8.872   1.496 -3.1094  2.0390 -1.0631
  283MOL0     H39017   1.800   9.020   1.506  0.1199  1.7804 -0.0235
  283MOL0     H39018   1.607   9.122   1.554 -0.6269 -2.5633 -0.2483
  283MOL0     H39019   1.593   9.026   1.689  0.5246 -0.2045 -1.2508
  283MOL0     H39020   1.413   9.162   1.695 -0.8827  3.5058 -1.9371
  283MOL0     H39021   1.518   9.240   1.829  0.0335 -0.2902  1.2513
  283MOL0     H39022   1.447   9.314   1.548 -4.6566 -0.6670  1.3778
  283MOL0     H39023   1.563   9.417   1.650  0.3352 -0.8698  1.2437
  283MOL0     H39024   1.388   9.473   1.815 -0.2823  2.1641 -0.2277
  283MOL0     H39025   1.275   9.390   1.719  1.1111 -1.4229 -1.5363
  283MOL0     H39026   1.428   9.624   1.618 -0.1627 -1.0006 -0.3587
  283MOL0     H39027   1.323   9.534   1.513 -0.6081 -0.9582  0.6070
  283MOL0     H39028   1.250   9.679   1.773  0.4951 -1.4850  0.4013
  283MOL0     H39029   1.142   9.576   1.674 -0.1077  0.1071 -0.1976
  283MOL0     H39030   1.189   9.730   1.473 -1.5455 -1.0220 -0.5380
  283MOL0     H39031   1.287   9.833   1.575  0.3636  0.0470  3.8330
  283MOL0     H39032   1.055   9.930   1.573  0.9457 -0.0711 -0.0037
  283MOL0     H39033   1.108   9.870   1.733 -1.1736 -0.9668  0.3742
  283MOL0     H39034   1.893   9.126   1.915  1.9711 -1.0332  1.2801
  283MOL0     H39035   2.079   8.968   1.917  1.0672 -2.5975 -0.8068
  283MOL0     H39036   2.458   8.689   1.524  2.9175 -3.2947 -0.5104
  283MOL0     H39037   2.597   8.522   1.575 -0.3880  2.0350 -1.1073
  283MOL0     H39038   1.817   8.731   2.570 -1.0622  1.6340 -0.6376
  283MOL0     H39039   1.891   8.855   2.780  1.6583 -0.6516 -1.3284
  283MOL0     H39040   1.721   9.119   3.094 -0.0768 -1.5438 -1.4210
  283MOL0     H39041   1.786   9.310   3.191 -1.0644 -0.7195  3.2037
  283MOL0     H39042   1.959   9.495   3.255  1.6545 -1.6372 -0.1731
  283MOL0     H39043   1.859   9.441   3.391 -1.1798 -1.4704 -2.0209
  283MOL0     H39044   2.100   9.476   3.519 -0.3847 -2.1446 -0.5872
  283MOL0     H39045   1.969   9.599   3.512 -0.7424 -2.5829  0.6070
  283MOL0     H39046   2.091   9.706   3.333  1.8028  2.4425  1.5573
  283MOL0     H39047   2.191   9.690   3.481  0.6795  0.3824 -0.8183
  283MOL0     H39048   2.207   9.527   3.219  1.2061 -0.2746 -0.3796
  283MOL0     H39049   2.253   9.460   3.371  0.9123  0.5308  3.0458
  283MOL0     H39050   2.535   9.776   3.262 -1.1710  0.0431 -0.8173
  283MOL0     H39051   2.149   9.116   3.332 -0.0136 -0.1755 -0.7620
  283MOL0     H39052   2.216   8.900   3.262  2.1260 -3.2654 -1.0085
  283MOL0     H39053   2.089   8.795   3.211 -0.4972 -0.3497 -1.6694
  283MOL0     H39054   2.179   8.897   3.095  0.1316  1.2476 -0.8005
  284MOL0     O39055   5.392   5.227   0.862  0.5956 -0.2066  0.0576
  284MOL0     C39056   5.413   5.315   0.949 -0.7333 -0.6497 -0.1501
  284MOL0     O39057   5.509   5.415   0.934  0.6443 -0.2479 -0.0739
  284MOL0     C39058   5.619   5.376   0.860  0.1632 -0.1266  0.3817
  284MOL0     C39059   5.655   5.450   0.742  0.8304 -0.0199 -1.0801
  284MOL0     C39060   5.767   5.422   0.673 -0.4018 -0.5440  0.2356
  284MOL0     C39061   5.850   5.313   0.721 -0.4198  0.2388 -0.2036
  284MOL0     O39062   5.953   5.280   0.645  0.9617 -0.1580  0.1789
  284MOL0     C39063   6.035   5.171   0.694 -0.0970  0.0800  0.5537
  284MOL0     C39064   6.116   5.210   0.813  0.2793  0.7399 -0.2653
  284MOL0     C39065   6.189   5.085   0.863  0.9440  1.2409 -0.3649
  284MOL0     C39066   6.212   5.072   1.013  0.1304 -0.5125  0.4141
  284MOL0     C39067   6.311   4.964   1.065  0.4196 -0.3173 -0.1752
  284MOL0     C39068   6.310   4.974   1.214 -0.2511 -0.8965  0.1756
  284MOL0     C39069   6.386   4.848   1.264  0.1213 -0.5676  1.0350
  284MOL0     C39070   6.384   4.841   1.424  0.0698  0.9511 -0.1109
  284MOL0     N39071   6.452   4.725   1.476 -0.3377 -0.6602  0.5052
  284MOL0     C39072   6.586   4.732   1.516  0.9218 -0.9947 -0.4288
  284MOL0     C39073   6.599   4.612   1.576 -0.0751 -0.4335 -0.0439
  284MOL0     C39074   6.718   4.562   1.651 -0.3099  0.2230 -0.1684
  284MOL0     C39075   6.661   4.536   1.787  0.1272 -0.2306  0.3831
  284MOL0     C39076   6.773   4.499   1.887  0.0668  0.2705 -0.5316
  284MOL0     C39077   6.713   4.482   2.026 -0.1968 -0.0079 -0.5114
  284MOL0     O39078   6.665   4.608   2.073  0.0648 -0.4562  0.4631
  284MOL0     C39079   6.757   4.709   2.102 -0.3066  0.9252 -0.2491
  284MOL0     C39080   6.713   4.841   2.102  0.9716  0.3299 -0.5919
  284MOL0     C39081   6.796   4.946   2.149  0.1391 -0.5968  0.4568
  284MOL0     C39082   6.733   5.078   2.167 -0.1328  0.4764  0.3497
  284MOL0     C39083   6.932   4.924   2.179  0.2688 -1.5940 -0.2254
  284MOL0     C39084   7.043   5.028   2.192  0.1484  0.1021 -0.0491
  284MOL0     O39085   7.012   5.156   2.154  0.1961 -0.5060  0.5892
  284MOL0     C39086   7.073   5.254   2.231 -0.0765  0.0389 -0.1439
  284MOL0     C39087   7.089   5.237   2.367 -0.3664 -0.7221  0.0959
  284MOL0     C39088   7.134   5.342   2.453 -0.0321 -0.0190  0.1987
  284MOL0     C39089   7.170   5.466   2.393  1.1340  0.2449  0.7874
  284MOL0     O39090   7.224   5.567   2.474  0.3926  0.6376 -0.1755
  284MOL0     C39091   7.131   5.667   2.510 -0.8706 -1.1125 -0.8027
  284MOL0     C39092   7.194   5.777   2.599 -0.4162 -0.0147 -0.2148
  284MOL0     C39093   7.251   5.894   2.523 -0.1657 -0.9848 -0.7870
  284MOL0     C39094   7.295   5.994   2.633 -0.0936 -0.2100 -0.6728
  284MOL0     C39095   7.416   6.080   2.597  0.4573  0.2432 -0.4798
  284MOL0     C39096   7.385   6.162   2.471  0.4433  0.2494  0.2520
  284MOL0     C39097   7.257   6.248   2.485  0.9466  0.5116  0.1874
  284MOL0     C39098   7.272   6.360   2.391 -0.1666 -0.1245 -0.3284
  284MOL0    Cl39099   7.231   6.297   2.227 -0.5179  0.6141  0.2726
  284MOL0     C39100   7.174   5.471   2.251  0.2992 -0.2274 -0.5939
  284MOL0     C39101   7.134   5.368   2.172  0.2211  0.9033 -0.5560
  284MOL0     O39102   7.163   4.993   2.208  0.2619  0.0087  0.0454
  284MOL0     C39103   6.969   4.789   2.185  0.3168  0.0941  0.0749
  284MOL0     C39104   6.887   4.676   2.156 -0.3128  0.0062 -0.1575
  284MOL0     N39105   6.483   4.535   1.550  0.1119  0.2442  0.1636
  284MOL0     N39106   6.387   4.612   1.498 -1.0877  0.1979  0.6486
  284MOL0     C39107   5.815   5.238   0.837 -0.4177 -0.0689  1.1377
  284MOL0     C39108   5.698   5.264   0.900  0.0271 -0.3697  0.8427
  284MOL0     C39109   5.323   5.314   1.068 -0.0762 -0.1718 -0.2332
  284MOL0     C39110   5.352   5.411   1.163  0.2763  0.1741 -0.3804
  284MOL0     C39111   5.281   5.413   1.283 -0.2283 -0.0764 -0.6635
  284MOL0     C39112   5.206   5.301   1.321 -0.9402  0.1008 -1.5531
  284MOL0     O39113   5.130   5.298   1.431 -0.5663  0.2953  0.4353
  284MOL0     C39114   5.140   5.390   1.539  0.2924  0.1165  0.8163
  284MOL0     C39115   5.048   5.521   1.516 -0.5038 -0.0461  0.4837
  284MOL0     C39116   4.908   5.485   1.527 -0.1437  0.4340 -0.0565
  284MOL0     C39117   4.814   5.586   1.463  0.1171 -0.2666  0.3105
  284MOL0     C39118   4.680   5.570   1.520  0.6662  0.0186  0.6325
  284MOL0     C39119   4.565   5.563   1.565  0.6120 -0.1976 -0.7978
  284MOL0     C39120   5.181   5.210   1.233  0.8904  0.3090  0.2809
  284MOL0     C39121   5.233   5.210   1.106  0.4515 -0.4264 -0.3816
  284MOL0     C39122   5.187   5.106   1.007 -0.6456 -0.0215 -0.2648
  284MOL0     H39123   5.581   5.526   0.721  0.8200  0.7600  1.4707
  284MOL0     H39124   5.797   5.452   0.573  0.4452  0.1540  0.6904
  284MOL0     H39125   6.098   5.136   0.612  0.0952  2.3321 -0.3158
  284MOL0     H39126   5.974   5.084   0.721  1.2760 -2.0270 -2.5503
  284MOL0     H39127   6.186   5.291   0.791  1.4650  0.5717  2.4916
  284MOL0     H39128   6.058   5.246   0.899 -1.5599  1.3566 -1.6921
  284MOL0     H39129   6.135   4.994   0.837 -1.3453  2.0593  1.1526
  284MOL0     H39130   6.287   5.083   0.813 -0.3591 -0.0291 -3.0545
  284MOL0     H39131   6.247   5.170   1.047 -0.3041 -0.5106  0.8717
  284MOL0     H39132   6.116   5.067   1.066 -1.7765  5.9443 -1.4596
  284MOL0     H39133   6.405   4.978   1.011  0.5655  0.4170  0.2632
  284MOL0     H39134   6.260   4.870   1.041 -0.3924 -0.6142  2.3513
  284MOL0     H39135   6.357   5.066   1.250  2.2232 -1.0382 -2.4232
  284MOL0     H39136   6.205   4.955   1.242 -0.9959 -1.6230 -2.7940
  284MOL0     H39137   6.485   4.837   1.218 -2.5250 -2.9198 -5.1299
  284MOL0     H39138   6.326   4.763   1.232 -1.9022  0.9656  0.5939
  284MOL0     H39139   6.444   4.924   1.463  1.3859 -0.8590  1.9361
  284MOL0     H39140   6.283   4.854   1.466  0.0429  2.5983 -0.5866
  284MOL0     H39141   6.655   4.816   1.513  1.3983 -1.3986 -0.9871
  284MOL0     H39142   6.802   4.632   1.647 -1.4338  1.5750 -0.8666
  284MOL0     H39143   6.762   4.470   1.611 -0.3316  0.5024 -0.8455
  284MOL0     H39144   6.611   4.631   1.811  1.9051  0.9676 -0.3933
  284MOL0     H39145   6.587   4.457   1.782 -1.4181  0.7105  4.4694
  284MOL0     H39146   6.809   4.402   1.852 -1.6435 -0.4636 -0.3080
  284MOL0     H39147   6.858   4.568   1.883 -2.1073  3.2432  0.8618
  284MOL0     H39148   6.630   4.412   2.013  1.2916 -2.1000  0.5471
  284MOL0     H39149   6.768   4.432   2.107 -0.8758  0.2613  0.1307
  284MOL0     H39150   6.608   4.850   2.076  1.7744  2.4252 -3.8100
  284MOL0     H39151   6.626   5.072   2.188 -0.1669 -0.7518 -0.0836
  284MOL0     H39152   6.754   5.146   2.083  0.0968  0.8188  0.6830
  284MOL0     H39153   6.777   5.123   2.256  0.6553  1.0551 -0.3056
  284MOL0     H39154   7.047   5.148   2.413 -1.1715  0.5603  1.9414
  284MOL0     H39155   7.136   5.352   2.561 -1.8998  1.2532  0.1582
  284MOL0     H39156   7.084   5.717   2.425  0.3970  1.8520  0.0874
  284MOL0     H39157   7.056   5.615   2.571 -1.0163 -1.4629 -1.2774
  284MOL0     H39158   7.121   5.819   2.668 -0.4842 -1.1021  0.3986
  284MOL0     H39159   7.274   5.741   2.664 -1.1551  0.8056  1.2062
  284MOL0     H39160   7.172   5.941   2.464 -0.8172  1.9923  2.1925
  284MOL0     H39161   7.339   5.870   2.463  0.8698  2.0850 -0.6192
  284MOL0     H39162   7.328   5.940   2.722 -3.4834  2.0749  2.2435
  284MOL0     H39163   7.213   6.054   2.673 -2.2697 -2.8244 -0.9094
  284MOL0     H39164   7.440   6.151   2.677 -0.0803 -1.0133  0.8464
  284MOL0     H39165   7.508   6.026   2.576 -0.3231 -1.2114 -0.2646
  284MOL0     H39166   7.384   6.105   2.377 -1.8468  1.4376 -0.5034
  284MOL0     H39167   7.472   6.226   2.453  0.4011  0.2331 -0.0111
  284MOL0     H39168   7.236   6.283   2.587 -1.5179  0.2318 -0.1737
  284MOL0     H39169   7.166   6.195   2.455  0.5855  0.7666  0.7965
  284MOL0     H39170   7.367   6.411   2.404  0.1613 -1.0239  0.9657
  284MOL0     H39171   7.209   6.448   2.411  0.5926  0.6424 -1.2160
  284MOL0     H39172   7.211   5.565   2.211 -4.8967  2.0285 -0.8903
  284MOL0     H39173   7.139   5.380   2.064 -0.1199  0.5736 -0.6121
  284MOL0     H39174   7.068   4.771   2.225 -0.6332 -1.0388  2.0680
  284MOL0     H39175   6.932   4.578   2.170  1.6204  1.1177  1.9514
  284MOL0     H39176   5.874   5.159   0.883  0.0242  0.8081  2.1271
  284MOL0     H39177   5.660   5.203   0.981  0.0062 -0.3053  0.8819
  284MOL0     H39178   5.410   5.499   1.135  3.2832 -1.6001 -0.1594
  284MOL0     H39179   5.296   5.510   1.330 -3.3737  1.2636 -2.1328
  284MOL0     H39180   5.116   5.342   1.634  1.3692 -0.4499  0.8146
  284MOL0     H39181   5.245   5.418   1.552 -0.8412  4.4813  2.2252
  284MOL0     H39182   5.078   5.558   1.418 -0.2817 -0.5458  0.3646
  284MOL0     H39183   5.079   5.596   1.590 -2.8126  2.2661 -0.7206
  284MOL0     H39184   4.890   5.392   1.471 -1.4189  1.1173 -0.8458
  284MOL0     H39185   4.882   5.461   1.630 -0.3295 -0.8598 -0.3871
  284MOL0     H39186   4.789   5.554   1.361 -1.4910 -1.6877  1.0999
  284MOL0     H39187   4.847   5.690   1.476 -1.5569  0.2991  0.3649
  284MOL0     H39188   4.465   5.571   1.602  1.6968  1.1303  2.1405
  284MOL0     H39189   5.095   5.146   1.253  1.3608  0.2342  2.2625
  284MOL0     H39190   5.154   5.156   0.916  0.5210  0.4037 -0.4782
  284MOL0     H39191   5.270   5.040   0.980  0.4319  1.4123 -0.5350
  284MOL0     H39192   5.094   5.061   1.043 -0.3978  0.0962  0.5453
  285MOL0     O39193  10.021   4.209   7.707  0.2324 -0.7725 -0.5271
  285MOL0     C39194  10.025   4.159   7.821  0.5029  0.2674  0.1538
  285MOL0     O39195   9.921   4.148   7.898  0.6105  0.6115 -0.2881
  285MOL0     C39196   9.793   4.191   7.850  0.0087 -1.4024 -0.3528
  285MOL0     C39197   9.762   4.322   7.804 -0.5507 -0.1949  0.3321
  285MOL0     C39198   9.628   4.360   7.769 -0.0901 -0.1050  0.0396
  285MOL0     C39199   9.527   4.262   7.767 -0.4691 -0.2472  0.7446
  285MOL0     O39200   9.401   4.315   7.740  0.2171 -0.0300  0.0055
  285MOL0     C39201   9.300   4.214   7.706 -0.5340  0.3412  0.3668
  285MOL0     C39202   9.171   4.301   7.677 -0.7680 -0.0821 -0.2347
  285MOL0     C39203   9.048   4.211   7.653  0.7833  0.3892 -0.4035
  285MOL0     C39204   8.938   4.301   7.595 -0.4472  0.9429 -0.3830
  285MOL0     C39205   8.806   4.230   7.552 -0.8375 -0.0981 -0.3592
  285MOL0     C39206   8.702   4.336   7.541  0.1771  0.0846 -0.0542
  285MOL0     C39207   8.568   4.294   7.468 -0.4125  0.3643 -0.1850
  285MOL0     C39208   8.487   4.186   7.540  0.5417 -1.4308  0.2750
  285MOL0     N39209   8.534   4.048   7.513 -0.0666  0.7500 -0.1757
  285MOL0     C39210   8.588   3.976   7.607  0.0831 -0.7233 -0.4703
  285MOL0     C39211   8.629   3.863   7.540  0.3300  0.0365  0.0140
  285MOL0     C39212   8.688   3.738   7.602  0.0633 -0.0724  0.9619
  285MOL0     C39213   8.830   3.765   7.650 -0.2512 -0.5786 -0.4711
  285MOL0     C39214   8.914   3.831   7.530  0.4008 -0.3422  0.1225
  285MOL0     C39215   9.060   3.823   7.545 -0.4888  1.1596  0.1042
  285MOL0     O39216   9.093   3.903   7.666 -0.0826 -0.2537 -1.0700
  285MOL0     C39217   9.204   3.862   7.742  0.1846  0.0897  0.8291
  285MOL0     C39218   9.201   3.893   7.873 -0.3841 -0.0178 -1.0032
  285MOL0     C39219   9.303   3.857   7.961  0.3670  0.9555 -0.1790
  285MOL0     C39220   9.270   3.858   8.103  0.5253 -0.1000  0.0498
  285MOL0     C39221   9.420   3.790   7.912 -0.9617  0.5827  1.2856
  285MOL0     C39222   9.546   3.750   7.986 -0.4535  0.1120  0.3179
  285MOL0     O39223   9.618   3.641   7.941  0.5486  0.2290 -0.0212
  285MOL0     C39224   9.745   3.629   7.996  0.3993  0.7895  0.4702
  285MOL0     C39225   9.770   3.520   8.077 -0.8399  0.3504  0.4422
  285MOL0     C39226   9.894   3.507   8.141  0.0520  0.4427  0.3978
  285MOL0     C39227   9.995   3.606   8.124 -0.3153 -0.1799 -0.4291
  285MOL0     O39228  10.115   3.618   8.188 -0.0992  0.6662 -0.6303
  285MOL0     C39229  10.144   3.550   8.314  0.4132  0.2041  0.3115
  285MOL0     C39230  10.262   3.632   8.376  0.4260  0.4806 -0.0698
  285MOL0     C39231  10.399   3.639   8.313 -0.1676  0.0450  0.0975
  285MOL0     C39232  10.497   3.715   8.406 -0.4888 -0.6396  0.3269
  285MOL0     C39233  10.638   3.707   8.343  1.1218 -0.0516 -0.6311
  285MOL0     C39234  10.710   3.581   8.400  0.1484  0.2132  0.9713
  285MOL0     C39235  10.848   3.556   8.340  0.4384  0.0575  0.5809
  285MOL0     C39236  10.922   3.449   8.416 -0.7823  0.0643 -0.6148
  285MOL0    Cl39237  11.048   3.374   8.315 -0.1809 -0.3735 -0.5018
  285MOL0     C39238   9.968   3.709   8.031  0.2033  0.3196  0.3311
  285MOL0     C39239   9.845   3.716   7.969  0.0823 -0.1075  0.2129
  285MOL0     O39240   9.577   3.818   8.088 -0.4136  0.5681 -0.2361
  285MOL0     C39241   9.430   3.761   7.765  0.3687 -0.6132 -0.9455
  285MOL0     C39242   9.323   3.803   7.686  0.8542 -0.5492 -0.5089
  285MOL0     N39243   8.598   3.870   7.406 -0.7799 -0.7849  0.0805
  285MOL0     N39244   8.542   3.987   7.386  0.1029 -0.4250 -0.2657
  285MOL0     C39245   9.557   4.135   7.802 -0.8819  0.4673  0.4538
  285MOL0     C39246   9.684   4.099   7.848 -0.7164  0.2425 -0.0231
  285MOL0     C39247  10.151   4.098   7.878 -0.0620  0.2539  0.6893
  285MOL0     C39248  10.143   4.011   7.986  0.0947 -0.0197 -0.5952
  285MOL0     C39249  10.255   3.947   8.036  0.4392  0.3983  0.5155
  285MOL0     C39250  10.380   3.976   7.979  0.0242  0.3052  0.1129
  285MOL0     O39251  10.477   3.897   8.041  1.7344 -0.6539  0.1724
  285MOL0     C39252  10.599   3.879   7.977 -0.4164 -0.4469 -0.6369
  285MOL0     C39253  10.695   3.999   8.031  0.0285  0.3812 -1.0913
  285MOL0     C39254  10.845   3.974   7.999 -0.4499  0.3675 -0.4463
  285MOL0     C39255  10.910   3.857   8.081  0.0804  0.1945  0.4736
  285MOL0     C39256  10.989   3.915   8.191  0.7632  0.4271  0.2506
  285MOL0     C39257  11.052   3.947   8.287 -0.1372  0.0502 -0.5782
  285MOL0     C39258  10.389   4.069   7.870 -1.5277 -0.3078 -0.2792
  285MOL0     C39259  10.281   4.135   7.826 -0.7637  0.7245  1.0510
  285MOL0     C39260  10.313   4.245   7.724 -0.0702  0.0430 -0.5386
  285MOL0     H39261   9.838   4.400   7.801 -2.5047  1.7813 -0.4963
  285MOL0     H39262   9.594   4.457   7.732 -0.0919 -0.6704 -1.5302
  285MOL0     H39263   9.284   4.148   7.792 -1.5082  1.7612  1.3169
  285MOL0     H39264   9.316   4.160   7.612 -0.1230 -0.8665  1.0981
  285MOL0     H39265   9.157   4.371   7.760  0.2470  0.4478 -0.4871
  285MOL0     H39266   9.193   4.360   7.587  1.2908 -0.2631  0.1031
  285MOL0     H39267   9.077   4.130   7.586  3.7704 -1.7001  3.1012
  285MOL0     H39268   9.011   4.173   7.748 -0.6698  2.1660 -0.1831
  285MOL0     H39269   8.920   4.382   7.665 -1.0804  2.4342 -2.1764
  285MOL0     H39270   8.984   4.344   7.506  1.8587 -1.6557 -0.5779
  285MOL0     H39271   8.779   4.157   7.629  0.3243  0.3177  0.4652
  285MOL0     H39272   8.823   4.179   7.456  1.8134 -4.1196  1.9475
  285MOL0     H39273   8.677   4.374   7.640  0.5526  2.4286 -0.8060
  285MOL0     H39274   8.743   4.421   7.487 -0.9247  0.3502 -0.5103
  285MOL0     H39275   8.596   4.262   7.368  0.0013 -2.2160  0.6759
  285MOL0     H39276   8.509   4.386   7.470  0.8659  1.3801  4.5810
  285MOL0     H39277   8.502   4.225   7.642  3.3267  3.5686 -1.6797
  285MOL0     H39278   8.384   4.207   7.509  1.1186  0.4072 -0.5758
  285MOL0     H39279   8.594   3.984   7.715 -4.2593  3.3828 -0.1663
  285MOL0     H39280   8.689   3.652   7.535 -2.5890 -0.9169  1.8481
  285MOL0     H39281   8.622   3.698   7.681  1.3572  0.4572  2.3649
  285MOL0     H39282   8.829   3.832   7.736  0.6805 -1.0590 -0.0674
  285MOL0     H39283   8.869   3.670   7.687 -2.4478 -1.2064  0.3829
  285MOL0     H39284   8.884   3.779   7.439 -1.7223  1.2733 -0.1810
  285MOL0     H39285   8.879   3.929   7.497 -0.1955 -0.0634  1.4882
  285MOL0     H39286   9.094   3.719   7.550  0.2518  1.3864  5.1358
  285MOL0     H39287   9.107   3.867   7.457  4.5138 -1.9396  0.8311
  285MOL0     H39288   9.122   3.954   7.916  1.7894  1.4118  1.1713
  285MOL0     H39289   9.257   3.755   8.136 -2.9258 -0.1765 -1.1269
  285MOL0     H39290   9.170   3.901   8.118  0.0874 -1.3297  0.8712
  285MOL0     H39291   9.344   3.917   8.157 -0.0115  1.0530 -0.4331
  285MOL0     H39292   9.705   3.433   8.075 -0.2719 -0.0649 -1.4871
  285MOL0     H39293   9.916   3.428   8.212 -0.3221 -0.9591 -0.9797
  285MOL0     H39294  10.059   3.547   8.383  1.3513  2.1905  1.6245
  285MOL0     H39295  10.177   3.452   8.279 -1.1999  0.6282 -2.8370
  285MOL0     H39296  10.220   3.733   8.388 -0.8406  0.0878 -0.8991
  285MOL0     H39297  10.272   3.594   8.478  3.6270 -0.3585 -0.6032
  285MOL0     H39298  10.385   3.703   8.225  1.7116  1.5664  0.8114
  285MOL0     H39299  10.444   3.546   8.277  1.4313  0.5377  0.7086
  285MOL0     H39300  10.499   3.669   8.505 -1.1149  0.8478  1.0716
  285MOL0     H39301  10.456   3.816   8.418 -1.8545 -1.1356 -0.0689
  285MOL0     H39302  10.629   3.695   8.235  1.9529 -1.5365 -0.5618
  285MOL0     H39303  10.696   3.797   8.364 -1.7131  2.1999 -1.8245
  285MOL0     H39304  10.656   3.488   8.380  2.1318 -1.1633  1.7368
  285MOL0     H39305  10.716   3.594   8.509  0.7059 -2.2981  1.2990
  285MOL0     H39306  10.898   3.652   8.350  1.2104 -0.5416  4.7950
  285MOL0     H39307  10.845   3.537   8.233 -0.9445  0.8621  0.4614
  285MOL0     H39308  10.859   3.364   8.447 -2.8917  1.5567 -0.5797
  285MOL0     H39309  10.950   3.491   8.513 -1.9335  0.2401 -0.3408
  285MOL0     H39310  10.037   3.781   7.989  1.4747  0.2491  2.1849
  285MOL0     H39311   9.816   3.801   7.908  2.9075  1.3212  0.6886
  285MOL0     H39312   9.512   3.713   7.713 -1.6448 -0.1054 -4.9359
  285MOL0     H39313   9.333   3.791   7.579  3.8382  0.0273 -0.3779
  285MOL0     H39314   9.487   4.054   7.789  0.5537 -0.5674 -1.2686
  285MOL0     H39315   9.701   3.995   7.878  1.1075 -1.0868 -4.8333
  285MOL0     H39316  10.041   3.984   8.012  0.1081  0.8401  0.3994
  285MOL0     H39317  10.237   3.879   8.119 -1.0834  2.7107  2.1807
  285MOL0     H39318  10.646   3.784   8.006 -0.4902 -0.5560 -0.8730
  285MOL0     H39319  10.582   3.886   7.869  0.5664 -1.6334 -0.8976
  285MOL0     H39320  10.678   3.998   8.139 -0.0649  1.9325 -1.0604
  285MOL0     H39321  10.651   4.090   7.988 -1.7106 -1.3536 -3.1948
  285MOL0     H39322  10.843   3.955   7.891 -1.6943 -0.9468 -0.2297
  285MOL0     H39323  10.907   4.063   8.009 -1.1117  0.7261  0.6289
  285MOL0     H39324  10.971   3.789   8.020 -0.3161 -0.1099  0.4178
  285MOL0     H39325  10.836   3.787   8.119  1.9758 -1.6249  1.0062
  285MOL0     H39326  11.097   3.973   8.380 -0.1904  1.1985 -0.8656
  285MOL0     H39327  10.489   4.099   7.838 -0.7022  0.4206  2.6399
  285MOL0     H39328  10.421   4.265   7.723 -0.1955  0.7322 -1.1102
  285MOL0     H39329  10.276   4.216   7.626 -1.7081 -1.2312  0.4002
  285MOL0     H39330  10.276   4.344   7.752  2.9339  2.1785 -3.3464
  286MOL0     O39331  10.302   4.996   2.500 -0.2175 -0.2894  0.0931
  286MOL0     C39332  10.272   5.027   2.385  0.1975 -0.1447  0.2757
  286MOL0     O39333  10.356   5.092   2.302  0.8317 -0.0113  0.3163
  286MOL0     C39334  10.487   5.125   2.326 -0.3051  0.1299  0.8371
  286MOL0     C39335  10.537   5.239   2.255 -0.3423 -0.2686  0.5712
  286MOL0     C39336  10.674   5.271   2.268  0.3488  0.2683  1.1183
  286MOL0     C39337  10.761   5.196   2.355  0.7446 -0.6678  0.6718
  286MOL0     O39338  10.890   5.233   2.379  0.5762 -0.1579  0.8558
  286MOL0     C39339  10.970   5.247   2.262  0.1865  0.0759  0.0125
  286MOL0     C39340  11.117   5.275   2.284  0.4774 -0.2531  0.0037
  286MOL0     C39341  11.194   5.153   2.350  0.2220 -0.2912 -0.1492
  286MOL0     C39342  11.135   5.108   2.484 -0.1066  0.2062 -0.6201
  286MOL0     C39343  11.234   5.043   2.591  0.1284  0.0413 -0.0966
  286MOL0     C39344  11.330   5.153   2.636  0.2650 -0.1851 -0.2769
  286MOL0     C39345  11.421   5.105   2.744 -0.3785  0.2844 -0.4988
  286MOL0     C39346  11.495   5.224   2.812 -0.0789  0.2956 -0.1655
  286MOL0     N39347  11.593   5.173   2.914  0.0669 -0.4730 -0.0384
  286MOL0     C39348  11.602   5.216   3.046 -0.5257  0.5652 -0.1467
  286MOL0     C39349  11.700   5.152   3.103 -0.9090  0.0969  0.4946
  286MOL0     C39350  11.762   5.177   3.239 -0.1085  0.1727 -0.9062
  286MOL0     C39351  11.912   5.163   3.233 -0.7479 -0.3165 -0.3920
  286MOL0     C39352  11.974   5.143   3.371 -0.3395  0.6954 -0.5670
  286MOL0     C39353  12.134   5.138   3.374 -0.9367  0.1195  0.5357
  286MOL0     O39354  12.196   5.249   3.301  0.3102 -0.3038 -0.6802
  286MOL0     C39355  12.330   5.269   3.304 -0.0396 -1.0445  0.1072
  286MOL0     C39356  12.379   5.378   3.238 -0.2725 -0.1993 -0.9375
  286MOL0     C39357  12.516   5.411   3.221  1.0312 -0.5362  0.9919
  286MOL0     C39358  12.553   5.527   3.140  0.9077  0.2193 -0.3150
  286MOL0     C39359  12.605   5.324   3.269 -0.6632  0.8817 -1.0377
  286MOL0     C39360  12.753   5.334   3.241  0.7367  0.8661  0.0719
  286MOL0     O39361  12.785   5.306   3.109  0.0352  0.1560  0.2642
  286MOL0     C39362  12.914   5.279   3.071  0.5072 -0.7184 -0.2051
  286MOL0     C39363  12.975   5.168   3.124 -0.0153  0.5744 -0.2961
  286MOL0     C39364  13.105   5.132   3.097 -0.3640  0.5123  0.1054
  286MOL0     C39365  13.182   5.208   3.005 -0.3599 -0.2503 -0.3562
  286MOL0     O39366  13.300   5.164   2.958 -0.4148 -0.1440  0.5650
  286MOL0     C39367  13.407   5.259   2.958 -0.7185  0.2448  0.0215
  286MOL0     C39368  13.547   5.199   2.920 -0.1462  0.3525  0.2163
  286MOL0     C39369  13.645   5.303   2.971  0.1702  0.7833  0.5799
  286MOL0     C39370  13.784   5.263   2.925 -0.3725  0.1900  0.5590
  286MOL0     C39371  13.881   5.395   2.932 -0.8880 -0.0502  0.1304
  286MOL0     C39372  13.927   5.451   3.069 -0.0642  0.0372 -0.9515
  286MOL0     C39373  14.013   5.356   3.150  0.8490  0.8451  0.4027
  286MOL0     C39374  14.130   5.422   3.226  0.2324  0.2243 -0.4756
  286MOL0    Cl39375  14.244   5.311   3.307  0.3040  0.0514 -0.3556
  286MOL0     C39376  13.123   5.331   2.959  0.0923 -0.1281 -0.5995
  286MOL0     C39377  12.989   5.360   2.978 -0.3600 -1.1589 -0.9916
  286MOL0     O39378  12.827   5.353   3.336  0.1851 -0.3506  0.0684
  286MOL0     C39379  12.568   5.215   3.357  0.0688 -0.5487  0.2366
  286MOL0     C39380  12.430   5.190   3.365  0.7253 -0.8658  0.7226
  286MOL0     N39381  11.744   5.056   3.009 -0.2720 -0.2635  0.1862
  286MOL0     N39382  11.690   5.077   2.890 -0.0858 -0.3076 -0.1359
  286MOL0     C39383  10.711   5.085   2.419  0.0423 -0.3716 -0.7103
  286MOL0     C39384  10.577   5.048   2.406 -1.1705 -0.4031  0.3451
  286MOL0     C39385  10.144   4.985   2.309  0.4683 -0.0617  0.3912
  286MOL0     C39386  10.150   4.968   2.169 -0.0220  0.2630  0.2391
  286MOL0     C39387  10.050   4.911   2.097  0.7077  0.9509 -0.1029
  286MOL0     C39388   9.928   4.890   2.154 -1.0669  0.8388  0.0321
  286MOL0     O39389   9.823   4.840   2.075 -0.3688  0.2746  0.7265
  286MOL0     C39390   9.715   4.787   2.141  0.1139  0.8120  0.2543
  286MOL0     C39391   9.604   4.892   2.137  0.0585 -0.3719  0.1446
  286MOL0     C39392   9.462   4.829   2.158 -1.1896  0.1884  1.3312
  286MOL0     C39393   9.350   4.930   2.178 -0.5834  0.9180 -0.2207
  286MOL0     C39394   9.227   4.848   2.179 -0.7567 -0.4957  1.1738
  286MOL0     C39395   9.123   4.804   2.183  0.4566 -0.5580 -0.0407
  286MOL0     C39396   9.916   4.925   2.293 -0.3643  0.4531 -0.3337
  286MOL0     C39397  10.018   4.970   2.370 -0.5060  0.0655 -0.7702
  286MOL0     C39398  10.001   4.997   2.521 -0.0069  0.6956 -0.0222
  286MOL0     H39399  10.465   5.296   2.197 -1.4266 -0.4497  1.6918
  286MOL0     H39400  10.705   5.356   2.208  1.8823 -1.1471 -0.1885
  286MOL0     H39401  10.927   5.326   2.200 -2.9864 -1.4028  0.1390
  286MOL0     H39402  10.964   5.163   2.191  0.9200  0.7945 -0.9306
  286MOL0     H39403  11.167   5.290   2.187 -1.4542  0.6002 -0.9105
  286MOL0     H39404  11.124   5.358   2.354  2.0040 -1.3189  1.1918
  286MOL0     H39405  11.191   5.072   2.276 -1.6023  0.1226 -0.5707
  286MOL0     H39406  11.298   5.187   2.358 -0.3558  0.9654  3.7835
  286MOL0     H39407  11.094   5.198   2.530  2.2030  1.1216 -0.1915
  286MOL0     H39408  11.063   5.026   2.481 -0.3438  0.4172 -0.7545
  286MOL0     H39409  11.283   4.963   2.535  1.6130 -0.7089  2.1195
  286MOL0     H39410  11.185   5.010   2.683  1.3744 -0.3380  0.4505
  286MOL0     H39411  11.405   5.189   2.565  1.4144 -1.2171  0.3722
  286MOL0     H39412  11.262   5.236   2.658  3.7121  2.0608  3.1902
  286MOL0     H39413  11.496   5.040   2.698  2.4014  4.5677 -2.8009
  286MOL0     H39414  11.367   5.060   2.827 -1.0548  2.1975  0.1629
  286MOL0     H39415  11.550   5.279   2.735 -0.6510 -1.6010 -1.9972
  286MOL0     H39416  11.417   5.280   2.866 -0.9274 -2.1808  1.3468
  286MOL0     H39417  11.554   5.304   3.087  2.2815  2.3369 -0.3650
  286MOL0     H39418  11.724   5.094   3.300 -0.7308  0.1433 -1.3287
  286MOL0     H39419  11.741   5.277   3.278  1.1148  0.2466 -0.3727
  286MOL0     H39420  11.943   5.085   3.164  1.2822  0.3378 -0.2916
  286MOL0     H39421  11.957   5.253   3.190  3.2639 -1.2719  1.2818
  286MOL0     H39422  11.931   5.219   3.435 -1.3061 -0.3004  0.0034
  286MOL0     H39423  11.942   5.049   3.417  0.9495  0.2848 -0.4866
  286MOL0     H39424  12.156   5.141   3.481 -1.0280  0.4103  0.5473
  286MOL0     H39425  12.171   5.045   3.330  0.4831 -0.3019  2.4447
  286MOL0     H39426  12.310   5.457   3.211  1.1927  1.2411 -0.6578
  286MOL0     H39427  12.463   5.590   3.134  1.2598  0.7382 -0.1590
  286MOL0     H39428  12.593   5.493   3.044  0.8152  2.3112 -1.1465
  286MOL0     H39429  12.624   5.579   3.204  0.1305 -2.1044  2.6844
  286MOL0     H39430  12.926   5.107   3.199  2.0695  2.1678  2.5472
  286MOL0     H39431  13.144   5.043   3.146  2.7733  2.4187  1.3669
  286MOL0     H39432  13.388   5.327   2.875 -0.3045 -0.0459 -0.3163
  286MOL0     H39433  13.421   5.318   3.049 -0.0274  1.5883 -0.9138
  286MOL0     H39434  13.553   5.099   2.965 -3.8300  0.1079  0.5010
  286MOL0     H39435  13.551   5.193   2.811  2.3829  2.9150  0.0548
  286MOL0     H39436  13.639   5.310   3.080  0.1851  0.4741  0.6019
  286MOL0     H39437  13.616   5.398   2.925  0.4901 -0.0819 -1.5056
  286MOL0     H39438  13.770   5.223   2.824  1.4553 -3.1778  1.4670
  286MOL0     H39439  13.823   5.176   2.979  2.4522  0.5570 -0.6759
  286MOL0     H39440  13.981   5.370   2.895 -0.8173  0.7344 -0.2071
  286MOL0     H39441  13.843   5.478   2.872 -0.2429  2.7248  3.2955
  286MOL0     H39442  13.831   5.459   3.121 -0.4367 -0.1318 -1.6008
  286MOL0     H39443  13.990   5.537   3.046  0.7115 -0.1389  0.4075
  286MOL0     H39444  14.056   5.279   3.085  1.0946  0.1539  1.3652
  286MOL0     H39445  13.971   5.301   3.234  1.9884 -2.4777 -1.0028
  286MOL0     H39446  14.087   5.478   3.310  0.5630 -1.0120  0.5651
  286MOL0     H39447  14.197   5.482   3.165  3.0277 -0.9167  1.2467
  286MOL0     H39448  13.176   5.409   2.904  0.0517  0.2380 -0.1330
  286MOL0     H39449  12.942   5.443   2.926 -3.3723 -0.8474  1.8815
  286MOL0     H39450  12.637   5.167   3.426  1.1942 -1.2720 -1.3476
  286MOL0     H39451  12.402   5.106   3.428 -0.0630 -0.4386  0.9596
  286MOL0     H39452  10.766   5.024   2.490 -2.3578  1.0602  2.6128
  286MOL0     H39453  10.527   4.967   2.459 -3.0014  0.1314 -0.4665
  286MOL0     H39454  10.249   4.974   2.124  0.6994 -5.1630  0.4084
  286MOL0     H39455  10.073   4.891   1.992  0.2453  1.2008 -0.2543
  286MOL0     H39456   9.680   4.700   2.085 -0.9195  1.8896 -0.8486
  286MOL0     H39457   9.725   4.751   2.243 -0.2613  0.8129  0.2930
  286MOL0     H39458   9.613   4.959   2.051  4.0417  0.5319  1.0639
  286MOL0     H39459   9.612   4.960   2.222  0.9990  2.4750 -2.0568
  286MOL0     H39460   9.436   4.776   2.066  0.1145 -0.8564  1.5203
  286MOL0     H39461   9.466   4.749   2.232  1.4738 -0.2950  0.7745
  286MOL0     H39462   9.340   5.008   2.103 -1.0504  0.6952 -0.3963
  286MOL0     H39463   9.368   4.991   2.267  1.9412 -1.1395  0.8266
  286MOL0     H39464   9.021   4.774   2.200 -0.8782  3.2976 -0.1079
  286MOL0     H39465   9.827   4.899   2.351  0.8443 -0.7817  1.0695
  286MOL0     H39466   9.893   5.011   2.526 -0.1882 -0.7119  0.5307
  286MOL0     H39467  10.035   4.905   2.571 -2.4416  1.0910  2.5863
  286MOL0     H39468  10.062   5.084   2.545 -0.2480  1.5373 -2.2428
  287MOL0     O39469   3.403   9.889   4.621 -0.4634  0.9081 -0.1288
  287MOL0     C39470   3.393   9.971   4.710 -0.5637  0.4911  0.2734
  287MOL0     O39471   3.488  10.061   4.734 -0.2841 -0.1005 -0.8750
  287MOL0     C39472   3.596  10.087   4.653  0.2680  0.1811 -0.3612
  287MOL0     C39473   3.589  10.071   4.510 -0.0114 -0.0285 -0.8024
  287MOL0     C39474   3.704  10.099   4.435  0.4386 -0.2065  0.3961
  287MOL0     C39475   3.822  10.147   4.494 -0.6916  1.0332 -0.6904
  287MOL0     O39476   3.944  10.168   4.424  0.2928 -0.3336  0.0907
  287MOL0     C39477   3.941  10.118   4.294  0.2743  0.8317 -0.0478
  287MOL0     C39478   4.071  10.154   4.224 -0.4876  0.6695 -0.5042
  287MOL0     C39479   4.205  10.119   4.299 -0.5208  0.4144  0.8427
  287MOL0     C39480   4.204   9.965   4.304 -0.4419 -1.5167 -0.7954
  287MOL0     C39481   4.351   9.914   4.347  1.0946  0.5199  0.3511
  287MOL0     C39482   4.382   9.929   4.494  0.0977  0.3565 -1.5826
  287MOL0     C39483   4.485   9.824   4.532  0.2737  0.3357  0.2999
  287MOL0     C39484   4.481   9.795   4.681  0.3401  0.3815 -0.2850
  287MOL0     N39485   4.602   9.727   4.724  0.7034  0.3868 -0.2431
  287MOL0     C39486   4.722   9.778   4.738  0.4303 -0.1786  0.3184
  287MOL0     C39487   4.804   9.677   4.772  0.2548 -1.0177  0.1592
  287MOL0     C39488   4.954   9.694   4.797  0.4218 -0.0384  0.1532
  287MOL0     C39489   5.006   9.633   4.923 -0.1011 -0.0462  0.0097
  287MOL0     C39490   5.162   9.664   4.925 -0.1770  0.4721 -0.5307
  287MOL0     C39491   5.243   9.599   5.041 -0.0495 -0.0291  0.1511
  287MOL0     O39492   5.376   9.657   5.064  0.2528  0.6832 -0.1801
  287MOL0     C39493   5.473   9.588   5.132  0.4638  0.2560  0.3393
  287MOL0     C39494   5.583   9.668   5.156  0.6630  0.2795  0.4745
  287MOL0     C39495   5.694   9.626   5.225  0.2361 -0.0848  0.1298
  287MOL0     C39496   5.816   9.713   5.225 -0.5122  0.3439  0.5292
  287MOL0     C39497   5.688   9.493   5.272  0.9387  0.9241 -0.5055
  287MOL0     C39498   5.788   9.434   5.362  0.0309  0.1256 -0.3521
  287MOL0     O39499   5.799   9.296   5.370  0.2490 -0.2764  0.4373
  287MOL0     C39500   5.878   9.240   5.468 -0.1013 -0.5398 -0.6855
  287MOL0     C39501   5.999   9.287   5.523  0.0896 -0.3205  0.2562
  287MOL0     C39502   6.056   9.223   5.636  0.0538  0.1767  0.7574
  287MOL0     C39503   6.000   9.105   5.688 -0.7900 -0.2485  0.7477
  287MOL0     O39504   6.072   9.043   5.784 -0.4207 -0.7999  0.3622
  287MOL0     C39505   6.019   9.091   5.919 -0.4515 -0.0853  0.1595
  287MOL0     C39506   6.068   8.982   6.027  0.9493 -0.8462  0.1367
  287MOL0     C39507   6.013   9.009   6.171  0.1496  0.8229  0.7379
  287MOL0     C39508   6.117   8.976   6.270 -0.5540 -0.3073  0.8495
  287MOL0     C39509   6.069   8.990   6.414 -0.3389  0.1891  0.2055
  287MOL0     C39510   6.180   8.954   6.514 -0.7086 -0.6060  0.7736
  287MOL0     C39511   6.130   8.942   6.663 -0.0312 -0.0422  0.6723
  287MOL0     C39512   6.249   8.901   6.757  0.0794  0.0205  0.4301
  287MOL0    Cl39513   6.338   8.748   6.709 -0.0656 -0.5536 -0.1266
  287MOL0     C39514   5.882   9.055   5.634 -0.3991 -0.8170  1.4024
  287MOL0     C39515   5.819   9.127   5.524 -0.4312  0.8009 -0.3016
  287MOL0     O39516   5.853   9.505   5.431  0.2199  0.2667 -0.1280
  287MOL0     C39517   5.581   9.404   5.244 -0.3813  0.2656  0.8694
  287MOL0     C39518   5.467   9.458   5.178 -0.5922  0.6283  0.7250
  287MOL0     N39519   4.734   9.567   4.792  1.1631 -0.4833  0.4742
  287MOL0     N39520   4.613   9.601   4.759 -0.0586 -0.4194  0.4141
  287MOL0     C39521   3.832  10.164   4.638  0.5399  0.0061  0.7484
  287MOL0     C39522   3.723  10.131   4.709  0.3943  0.1971  0.3274
  287MOL0     C39523   3.270   9.966   4.808 -0.3968  0.6682 -1.2688
  287MOL0     C39524   3.177   9.860   4.791  0.3127  0.1147  0.0592
  287MOL0     C39525   3.071   9.844   4.877  0.1923 -0.7277  0.5736
  287MOL0     C39526   3.042   9.946   4.972  0.4090 -0.1814 -0.7741
  287MOL0     O39527   2.940   9.939   5.063 -0.6158  0.3997  0.6145
  287MOL0     C39528   2.858   9.826   5.074  0.0126 -0.3136 -0.7163
  287MOL0     C39529   2.764   9.885   5.188  0.2567  0.5258 -0.0529
  287MOL0     C39530   2.649   9.794   5.232  0.4025 -0.6407 -0.4405
  287MOL0     C39531   2.702   9.679   5.323 -0.1692 -0.2385 -0.0742
  287MOL0     C39532   2.769   9.716   5.442  0.1130  0.1103 -0.6283
  287MOL0     C39533   2.810   9.764   5.546  0.2938 -0.6512 -0.4966
  287MOL0     C39534   3.124  10.057   4.976 -0.0566  0.1579  0.1253
  287MOL0     C39535   3.240  10.072   4.902 -1.0350 -0.3981 -1.0234
  287MOL0     C39536   3.326  10.196   4.917 -0.5844  0.5083  0.3655
  287MOL0     H39537   3.494  10.051   4.462 -1.7073  1.9232  1.4996
  287MOL0     H39538   3.691  10.074   4.330 -0.1769  1.1182  0.1349
  287MOL0     H39539   3.867  10.165   4.230  1.4674 -0.2510 -2.3184
  287MOL0     H39540   3.926  10.009   4.290 -1.3403  1.0282  0.1792
  287MOL0     H39541   4.062  10.110   4.124 -0.4592  1.6514 -0.9530
  287MOL0     H39542   4.075  10.261   4.201 -3.0078  0.5150 -2.0865
  287MOL0     H39543   4.287  10.151   4.234 -1.6615 -1.7468 -1.9036
  287MOL0     H39544   4.198  10.159   4.400  1.7538 -0.3804  1.3659
  287MOL0     H39545   4.127   9.919   4.368  1.2445 -0.9710  1.7908
  287MOL0     H39546   4.179   9.920   4.208  1.5125 -2.0646 -1.0830
  287MOL0     H39547   4.430   9.961   4.288  0.3352  0.2161 -0.9314
  287MOL0     H39548   4.345   9.809   4.318 -0.4706 -0.1867  2.8998
  287MOL0     H39549   4.409  10.032   4.519  0.4916 -0.4674  1.8929
  287MOL0     H39550   4.296   9.912   4.559  0.4709 -1.4820 -1.4951
  287MOL0     H39551   4.578   9.875   4.505  0.0024  0.3741 -0.5857
  287MOL0     H39552   4.457   9.731   4.482 -0.6467  0.9097 -0.2799
  287MOL0     H39553   4.488   9.892   4.731  1.0953  0.1573  0.0623
  287MOL0     H39554   4.392   9.740   4.713  0.8728 -0.3317 -0.0045
  287MOL0     H39555   4.746   9.884   4.734 -0.8762  0.1474  0.5225
  287MOL0     H39556   4.967   9.802   4.798  0.2620 -0.0222  0.4117
  287MOL0     H39557   5.008   9.655   4.710 -2.1200  0.3844 -1.7294
  287MOL0     H39558   4.965   9.689   5.007 -1.4284  0.6193 -1.0536
  287MOL0     H39559   4.988   9.525   4.919  1.4384 -0.3379  0.1069
  287MOL0     H39560   5.211   9.646   4.829  0.0684  1.6157 -0.6291
  287MOL0     H39561   5.171   9.772   4.941 -2.6310  0.5265  0.9495
  287MOL0     H39562   5.187   9.626   5.131 -0.5432 -0.1619 -0.1165
  287MOL0     H39563   5.249   9.491   5.028  1.6481 -0.0397  0.7661
  287MOL0     H39564   5.570   9.773   5.133 -0.0534  0.6121  2.2014
  287MOL0     H39565   5.798   9.809   5.274  2.1980  2.0088 -1.4435
  287MOL0     H39566   5.853   9.732   5.124  4.4019 -1.9971  1.5726
  287MOL0     H39567   5.906   9.679   5.276  1.5527  1.1162 -2.3682
  287MOL0     H39568   6.062   9.368   5.489 -0.4750 -0.4123 -1.0627
  287MOL0     H39569   6.152   9.250   5.677  0.5799  1.2768 -1.0940
  287MOL0     H39570   6.055   9.193   5.935 -0.4382 -0.2574  1.2496
  287MOL0     H39571   5.910   9.095   5.922 -0.4210  0.7328  0.4558
  287MOL0     H39572   6.026   8.884   6.003 -1.7044 -0.0280  1.1618
  287MOL0     H39573   6.178   8.986   6.030  1.0142  0.1113 -2.1384
  287MOL0     H39574   5.927   8.943   6.186 -0.9477  1.7589 -1.0393
  287MOL0     H39575   5.977   9.111   6.188 -2.0845  0.5553 -1.8059
  287MOL0     H39576   6.206   9.038   6.254 -0.6063  0.0860  2.0104
  287MOL0     H39577   6.139   8.870   6.250 -2.7107 -0.8829  1.2546
  287MOL0     H39578   6.047   9.097   6.425  3.3138  1.5433 -3.3499
  287MOL0     H39579   5.977   8.932   6.429 -1.9720  2.6988  0.4975
  287MOL0     H39580   6.256   9.032   6.521 -0.0427 -0.9693 -1.7002
  287MOL0     H39581   6.228   8.863   6.478  0.0789  0.2764 -0.5093
  287MOL0     H39582   6.044   8.876   6.672  0.0379 -0.2227  0.0324
  287MOL0     H39583   6.093   9.040   6.694 -2.6185 -1.0134  0.9355
  287MOL0     H39584   6.210   8.886   6.858  1.9034  1.7282  1.4674
  287MOL0     H39585   6.322   8.982   6.765  1.1032 -0.9583  1.5546
  287MOL0     H39586   5.835   8.964   5.671  1.3344 -1.9402  0.9757
  287MOL0     H39587   5.728   9.093   5.476  1.1447 -2.1032 -1.4901
  287MOL0     H39588   5.593   9.301   5.276  0.3933  0.0144 -0.1788
  287MOL0     H39589   5.378   9.398   5.160  0.1761 -0.3269 -0.0223
  287MOL0     H39590   3.915  10.212   4.689  0.1080 -0.1255  1.5957
  287MOL0     H39591   3.730  10.140   4.817  1.7653 -1.0847  0.3840
  287MOL0     H39592   3.193   9.772   4.730  1.2944 -0.4166  1.0523
  287MOL0     H39593   3.009   9.757   4.857  0.9072 -0.8894 -1.0509
  287MOL0     H39594   2.797   9.800   4.987  0.5836 -3.7511 -0.2396
  287MOL0     H39595   2.914   9.737   5.107 -0.3463 -0.5724 -0.8008
  287MOL0     H39596   2.727   9.977   5.142  3.9409  1.8041 -0.7761
  287MOL0     H39597   2.825   9.911   5.275 -0.4396 -0.0856  0.6362
  287MOL0     H39598   2.578   9.863   5.279 -0.1560  0.6669 -3.0219
  287MOL0     H39599   2.594   9.755   5.146  1.1762 -2.1219 -0.2972
  287MOL0     H39600   2.767   9.615   5.261  0.7418 -1.3284  1.8924
  287MOL0     H39601   2.621   9.614   5.356 -2.1721  1.9464 -0.4492
  287MOL0     H39602   2.841   9.818   5.632 -1.5920 -0.3366  0.0427
  287MOL0     H39603   3.094  10.141   5.038  0.5733  2.4240 -2.4605
  287MOL0     H39604   3.275  10.279   4.967  0.3393  1.4116 -0.1629
  287MOL0     H39605   3.425  10.167   4.951 -0.4756  0.5036  0.0438
  287MOL0     H39606   3.338  10.233   4.814 -0.8342  1.9531  0.8331
  288MOL0     O39607   3.239   0.167   1.310  0.5584  0.3790  0.4328
  288MOL0     C39608   3.170   0.257   1.357  0.3005 -0.2306 -0.0325
  288MOL0     O39609   3.198   0.390   1.361 -0.3689  0.0528  0.0201
  288MOL0     C39610   3.309   0.445   1.306 -0.7854 -0.0643 -0.2228
  288MOL0     C39611   3.389   0.546   1.368 -0.5674 -0.1598  0.1553
  288MOL0     C39612   3.478   0.622   1.288 -1.1081 -0.2332 -0.1805
  288MOL0     C39613   3.491   0.611   1.149  0.3027  0.3604 -0.5992
  288MOL0     O39614   3.594   0.679   1.079  0.2911 -0.3395  0.1305
  288MOL0     C39615   3.586   0.689   0.941 -0.6457 -0.4170  0.4989
  288MOL0     C39616   3.629   0.826   0.892  0.4801 -0.4542  0.3375
  288MOL0     C39617   3.774   0.864   0.910  0.4516  0.6865 -0.3648
  288MOL0     C39618   3.801   1.004   0.870  0.4774 -0.8299 -0.0030
  288MOL0     C39619   3.951   1.034   0.866 -0.0394  0.6168 -0.5646
  288MOL0     C39620   3.979   1.184   0.834  0.9547  0.0506 -0.0247
  288MOL0     C39621   4.131   1.204   0.821  0.8856 -0.2709 -0.9904
  288MOL0     C39622   4.149   1.347   0.769 -0.6014  1.1537 -0.5476
  288MOL0     N39623   4.293   1.389   0.762  0.2317 -0.0634 -0.2676
  288MOL0     C39624   4.364   1.439   0.655 -0.1707 -0.8945  0.5453
  288MOL0     C39625   4.482   1.478   0.701  1.2668 -0.0741  0.0474
  288MOL0     C39626   4.608   1.509   0.622  0.6775 -0.0282  0.0759
  288MOL0     C39627   4.734   1.545   0.711 -0.3002 -1.5615  0.0078
  288MOL0     C39628   4.848   1.599   0.620 -0.3034 -0.0849 -0.5854
  288MOL0     C39629   4.952   1.670   0.701  0.2772 -0.0787  0.9237
  288MOL0     O39630   5.064   1.710   0.622 -0.5797 -0.6788  0.9585
  288MOL0     C39631   5.183   1.633   0.620 -0.6071 -0.5664  0.0869
  288MOL0     C39632   5.223   1.540   0.718 -0.2085  0.4788 -0.9580
  288MOL0     C39633   5.339   1.456   0.707  0.4561  0.3567  0.2635
  288MOL0     C39634   5.361   1.334   0.800  0.5186 -0.8408  0.1943
  288MOL0     C39635   5.427   1.490   0.598  0.8642 -0.0580 -0.0605
  288MOL0     C39636   5.561   1.428   0.575 -0.1195 -0.1362 -0.2673
  288MOL0     O39637   5.629   1.466   0.469  0.3350  0.2523 -0.1368
  288MOL0     C39638   5.767   1.455   0.458 -0.3114  0.3053  0.4574
  288MOL0     C39639   5.872   1.428   0.553  0.6117  0.2213  0.5005
  288MOL0     C39640   6.001   1.400   0.512 -0.1791 -0.1223 -0.7774
  288MOL0     C39641   6.034   1.397   0.378 -0.3705  0.3729 -0.6501
  288MOL0     O39642   6.162   1.366   0.325 -0.1342 -0.4200  0.0927
  288MOL0     C39643   6.265   1.428   0.408 -0.0237 -0.1626 -0.2860
  288MOL0     C39644   6.398   1.401   0.334  0.7724  0.0816  0.8503
  288MOL0     C39645   6.520   1.444   0.411 -0.0776 -1.1881 -0.3019
  288MOL0     C39646   6.646   1.396   0.351  0.3339 -1.0156  0.3750
  288MOL0     C39647   6.769   1.438   0.429  0.5671  0.2370 -0.1692
  288MOL0     C39648   6.795   1.586   0.432  0.8831  0.7643 -0.1073
  288MOL0     C39649   6.940   1.624   0.471 -0.0373  0.4262  0.0113
  288MOL0     C39650   6.951   1.759   0.537 -0.1318  0.3356 -0.6904
  288MOL0    Cl39651   6.883   1.894   0.430 -0.3085  0.4573  0.3171
  288MOL0     C39652   5.933   1.419   0.288 -0.0683 -0.5388  0.0771
  288MOL0     C39653   5.804   1.456   0.324 -0.1568  1.4629 -0.6522
  288MOL0     O39654   5.598   1.353   0.665  0.8472 -0.4881  0.0828
  288MOL0     C39655   5.384   1.583   0.508 -0.4580  0.4226  0.3811
  288MOL0     C39656   5.270   1.655   0.512 -0.1918  0.2303  0.2403
  288MOL0     N39657   4.471   1.467   0.839  0.2483 -0.6050 -0.6823
  288MOL0     N39658   4.362   1.411   0.872 -0.0157  0.5936 -0.4094
  288MOL0     C39659   3.415   0.514   1.093  0.6198  0.7222 -0.1393
  288MOL0     C39660   3.329   0.432   1.164  0.3242  0.7118  0.2755
  288MOL0     C39661   3.040   0.224   1.418  0.2302 -0.3354 -0.8820
  288MOL0     C39662   2.993   0.307   1.526 -0.1318 -0.3998 -0.0166
  288MOL0     C39663   2.864   0.294   1.571  0.0198 -0.9017 -0.1664
  288MOL0     C39664   2.771   0.213   1.512 -0.6134 -0.0632  0.0017
  288MOL0     O39665   2.636   0.228   1.548  0.1359 -0.0682 -0.1034
  288MOL0     C39666   2.536   0.144   1.478 -0.3326 -0.4575 -0.7556
  288MOL0     C39667   2.419   0.129   1.573 -0.2268 -0.2133  0.1125
  288MOL0     C39668   2.285   0.105   1.505  1.1849 -0.1036  0.0681
  288MOL0     C39669   2.166   0.125   1.599  0.0717 -0.0870 -1.1997
  288MOL0     C39670   2.178   0.063   1.733 -0.4434  0.4397 -0.2756
  288MOL0     C39671   2.202   0.008   1.836  1.1666  0.1227  0.2421
  288MOL0     C39672   2.824   0.126   1.414 -0.6348 -0.4291 -0.8017
  288MOL0     C39673   2.952   0.127   1.365 -0.8566  0.5966  0.8480
  288MOL0     C39674   3.003   0.026   1.261  0.3088 -0.4506  0.3935
  288MOL0     H39675   3.377   0.556   1.476  0.4402 -3.9327  0.7585
  288MOL0     H39676   3.533   0.698   1.341 -0.2353 -1.3837  0.6302
  288MOL0     H39677   3.480   0.673   0.917  0.1190 -1.3767 -2.8338
  288MOL0     H39678   3.649   0.610   0.901  0.2423  1.2019 -1.4868
  288MOL0     H39679   3.602   0.826   0.787 -2.7518  0.2434  1.0668
  288MOL0     H39680   3.567   0.903   0.938  0.2015 -0.2724 -0.3305
  288MOL0     H39681   3.818   0.854   1.010 -0.5940 -4.3906 -0.1654
  288MOL0     H39682   3.818   0.791   0.842 -3.7042 -3.1132  0.5590
  288MOL0     H39683   3.757   1.035   0.775 -3.4913 -1.1143  1.5432
  288MOL0     H39684   3.770   1.066   0.955  3.6952  0.7012  0.2128
  288MOL0     H39685   4.007   0.969   0.797  1.5938  1.6969 -0.3163
  288MOL0     H39686   3.996   1.013   0.963  0.0405  1.5088 -0.3987
  288MOL0     H39687   3.941   1.209   0.735 -0.0565 -1.2092  0.0113
  288MOL0     H39688   3.937   1.241   0.917  0.6056 -0.1587 -0.0581
  288MOL0     H39689   4.172   1.128   0.754  0.1629 -0.6141 -1.0479
  288MOL0     H39690   4.175   1.200   0.922  0.9435 -0.1457 -1.0110
  288MOL0     H39691   4.102   1.349   0.671 -1.1317 -0.0685 -0.3346
  288MOL0     H39692   4.099   1.419   0.835 -0.8725 -0.0194  0.5833
  288MOL0     H39693   4.329   1.456   0.554  0.4990 -0.4060  0.3935
  288MOL0     H39694   4.577   1.583   0.548 -1.3704 -0.5376  0.3621
  288MOL0     H39695   4.630   1.419   0.564  0.7856 -0.3213  0.5631
  288MOL0     H39696   4.714   1.621   0.787  3.0988 -1.6672  1.1525
  288MOL0     H39697   4.766   1.460   0.773 -1.9117 -1.2761  1.3062
  288MOL0     H39698   4.900   1.516   0.572 -0.8032 -1.0496  0.5160
  288MOL0     H39699   4.810   1.659   0.537  0.1940  0.2488 -0.5793
  288MOL0     H39700   4.904   1.765   0.726 -0.0097  0.3088 -0.9255
  288MOL0     H39701   4.975   1.618   0.795 -0.5024 -0.7181  0.7774
  288MOL0     H39702   5.143   1.525   0.790 -0.3343  0.1980 -1.1559
  288MOL0     H39703   5.275   1.317   0.866 -1.2026  1.7708 -1.1650
  288MOL0     H39704   5.438   1.367   0.869 -0.0179  4.3870 -1.2080
  288MOL0     H39705   5.387   1.245   0.743  3.8669  0.9020 -1.2984
  288MOL0     H39706   5.844   1.431   0.658  1.8475 -0.5324  0.8587
  288MOL0     H39707   6.080   1.390   0.585 -2.8861 -3.5869  2.0548
  288MOL0     H39708   6.250   1.536   0.416 -0.6463 -0.3857  3.1363
  288MOL0     H39709   6.273   1.370   0.501  0.8520  1.1524  0.4889
  288MOL0     H39710   6.397   1.292   0.319 -0.6193  0.2566 -0.5590
  288MOL0     H39711   6.390   1.441   0.233  1.9893 -3.0660 -0.6214
  288MOL0     H39712   6.502   1.415   0.515 -0.1019 -4.5615 -1.1460
  288MOL0     H39713   6.512   1.553   0.417  0.8436 -1.1024 -0.6106
  288MOL0     H39714   6.671   1.439   0.254  0.8386  0.1349  0.9994
  288MOL0     H39715   6.649   1.286   0.348  0.5597 -1.1194  2.5848
  288MOL0     H39716   6.767   1.394   0.530  2.3068  1.2861  0.3654
  288MOL0     H39717   6.851   1.382   0.384  0.7264 -2.4262  2.9850
  288MOL0     H39718   6.722   1.631   0.500  0.7349  1.0065 -0.4176
  288MOL0     H39719   6.767   1.634   0.337 -3.7683 -0.6275  0.2866
  288MOL0     H39720   6.986   1.622   0.372  0.3128 -0.2447  0.1831
  288MOL0     H39721   6.986   1.547   0.534  0.1100 -0.8533 -1.5799
  288MOL0     H39722   7.057   1.778   0.556 -0.4543 -1.2426  3.8078
  288MOL0     H39723   6.906   1.758   0.637  2.7342 -3.0547  0.7741
  288MOL0     H39724   5.969   1.401   0.187 -0.8034  2.3618 -0.8076
  288MOL0     H39725   5.745   1.474   0.235 -0.8004  2.0725 -0.1191
  288MOL0     H39726   5.443   1.601   0.419  0.1251 -2.4305  0.1123
  288MOL0     H39727   5.250   1.733   0.438  2.2493 -0.7024 -1.5618
  288MOL0     H39728   3.425   0.476   0.992  1.7478 -0.5147  0.4173
  288MOL0     H39729   3.268   0.370   1.099  0.1074  1.2929 -0.0817
  288MOL0     H39730   3.056   0.390   1.557  1.3420 -2.0749  1.7541
  288MOL0     H39731   2.838   0.374   1.640 -0.3418  0.6318 -1.9950
  288MOL0     H39732   2.523   0.188   1.378  0.7345 -0.2769 -0.8245
  288MOL0     H39733   2.574   0.043   1.461  1.3665  0.0648 -0.2383
  288MOL0     H39734   2.413   0.221   1.631 -3.3370  0.9697 -1.8018
  288MOL0     H39735   2.446   0.041   1.632  1.0025  1.2432  1.8296
  288MOL0     H39736   2.288   0.169   1.417  5.9691  3.0815  2.1379
  288MOL0     H39737   2.275   0.003   1.465 -0.6437 -0.6411  1.7404
  288MOL0     H39738   2.081   0.079   1.548 -0.7450  0.5415 -0.4419
  288MOL0     H39739   2.165   0.234   1.607 -0.4683 -0.1998  0.7399
  288MOL0     H39740   2.222  -0.033   1.932 -0.3518 -0.9037  0.1645
  288MOL0     H39741   2.754   0.053   1.375  0.4364 -2.0513  0.1574
  288MOL0     H39742   2.926  -0.049   1.241 -0.3816 -0.7436  3.7332
  288MOL0     H39743   3.043   0.074   1.171  0.9076 -0.8492  0.4398
  288MOL0     H39744   3.084  -0.031   1.308  0.1293 -1.2897 -0.2794
  289MOL0     O39745   3.929   1.958   8.445 -0.5392 -0.2761 -0.9021
  289MOL0     C39746   3.846   1.864   8.459 -1.0348  0.1964 -0.4058
  289MOL0     O39747   3.848   1.750   8.401 -0.1263 -0.5327  0.2448
  289MOL0     C39748   3.894   1.748   8.268 -0.5955  0.5686 -1.1335
  289MOL0     C39749   3.933   1.621   8.215 -0.6038  0.4646 -0.5988
  289MOL0     C39750   3.988   1.603   8.097  0.2683 -0.1656 -0.5553
  289MOL0     C39751   4.012   1.711   8.011 -0.6484  0.3429  0.8395
  289MOL0     O39752   4.057   1.700   7.881 -0.7798 -0.4446  0.5229
  289MOL0     C39753   4.164   1.790   7.861  0.4990  0.1654 -0.0885
  289MOL0     C39754   4.227   1.756   7.732 -0.4298 -0.0215 -0.4433
  289MOL0     C39755   4.362   1.818   7.730  0.0693 -0.5664 -1.0574
  289MOL0     C39756   4.434   1.817   7.592  0.7833 -0.2197  0.9524
  289MOL0     C39757   4.574   1.878   7.601 -0.3610  0.1848  0.2463
  289MOL0     C39758   4.658   1.849   7.476 -0.5399 -0.1389  0.2323
  289MOL0     C39759   4.787   1.938   7.462 -0.5582  0.5649 -0.7862
  289MOL0     C39760   4.884   1.932   7.583 -0.1670 -0.0199  0.3019
  289MOL0     N39761   5.010   2.003   7.557 -0.1753  0.3875 -0.9090
  289MOL0     C39762   5.029   2.125   7.503 -0.1745 -0.1381 -0.7896
  289MOL0     C39763   5.165   2.152   7.513  0.2405 -0.8036  0.2265
  289MOL0     C39764   5.233   2.289   7.480 -1.1413  1.1473 -0.1335
  289MOL0     C39765   5.254   2.312   7.331  0.5567 -0.5625 -0.3443
  289MOL0     C39766   5.363   2.223   7.268 -0.1587 -0.4432 -0.1535
  289MOL0     C39767   5.500   2.284   7.253 -0.2549 -0.0664  0.1817
  289MOL0     O39768   5.479   2.387   7.155 -0.1962  0.4845  0.2142
  289MOL0     C39769   5.521   2.362   7.022 -0.2136  0.1911  0.4206
  289MOL0     C39770   5.455   2.448   6.929 -0.5925  0.3519 -0.5227
  289MOL0     C39771   5.497   2.456   6.793  0.2405 -0.2388 -0.3349
  289MOL0     C39772   5.432   2.546   6.699  0.2067  0.8407  0.7837
  289MOL0     C39773   5.590   2.353   6.748  0.9361  0.3349  0.5592
  289MOL0     C39774   5.643   2.336   6.605 -0.4154  1.1878  0.3079
  289MOL0     O39775   5.724   2.229   6.579 -0.5595 -0.6728  0.0879
  289MOL0     C39776   5.780   2.235   6.455  0.0939 -0.5630  0.1707
  289MOL0     C39777   5.743   2.137   6.360  0.2858  0.1035 -0.4049
  289MOL0     C39778   5.783   2.135   6.226 -0.4617  0.4622  0.8225
  289MOL0     C39779   5.876   2.224   6.188 -0.4847 -0.7860  0.0048
  289MOL0     O39780   5.928   2.210   6.062 -0.7711  0.0162 -0.1400
  289MOL0     C39781   6.001   2.318   5.993 -0.0082 -0.6169 -0.0100
  289MOL0     C39782   6.026   2.277   5.848  0.0494 -0.5883  0.0598
  289MOL0     C39783   6.152   2.351   5.803 -0.0072  0.2022  0.1406
  289MOL0     C39784   6.167   2.352   5.651  1.6037  0.1013 -0.9043
  289MOL0     C39785   6.301   2.404   5.601  0.4064  0.5673 -0.4856
  289MOL0     C39786   6.335   2.554   5.644  0.8044 -1.0428 -0.2988
  289MOL0     C39787   6.482   2.590   5.604 -0.1214 -0.4288 -0.0935
  289MOL0     C39788   6.509   2.728   5.652 -0.5378 -0.8870  0.4452
  289MOL0    Cl39789   6.665   2.769   5.563  0.4944  0.0295 -0.0069
  289MOL0     C39790   5.922   2.323   6.279  0.3631  0.0433  0.4645
  289MOL0     C39791   5.873   2.329   6.416 -0.1113  0.2651 -0.1180
  289MOL0     O39792   5.631   2.433   6.537  0.1672 -0.3318  0.5962
  289MOL0     C39793   5.634   2.262   6.843 -0.6787 -0.0878 -0.3742
  289MOL0     C39794   5.613   2.271   6.980  0.4421  0.4271  0.0035
  289MOL0     N39795   5.223   2.038   7.568 -0.5675  0.0179  0.5217
  289MOL0     N39796   5.128   1.960   7.596 -0.7373  0.7448 -0.2321
  289MOL0     C39797   3.959   1.829   8.049  0.5822  0.8692 -0.4620
  289MOL0     C39798   3.907   1.848   8.179 -0.4273 -0.5399  0.5448
  289MOL0     C39799   3.745   1.875   8.567 -0.1553  0.0081  1.0078
  289MOL0     C39800   3.618   1.809   8.546  0.3237 -0.8905  0.2872
  289MOL0     C39801   3.530   1.793   8.654 -0.5054  0.3918 -0.3120
  289MOL0     C39802   3.558   1.841   8.772  0.1916  0.2035 -0.9332
  289MOL0     O39803   3.487   1.823   8.886  0.5615 -0.0192  0.3585
  289MOL0     C39804   3.389   1.719   8.898  0.1812  0.8213  0.0876
  289MOL0     C39805   3.299   1.752   9.008  0.7651  0.4405 -0.6130
  289MOL0     C39806   3.178   1.650   9.024 -0.7625 -0.0249  0.9413
  289MOL0     C39807   3.214   1.524   9.108  0.6417 -0.2873 -0.6857
  289MOL0     C39808   3.105   1.417   9.121  0.5692 -0.2652 -0.1069
  289MOL0     C39809   3.010   1.356   9.146 -0.2500  0.3588  0.4691
  289MOL0     C39810   3.676   1.911   8.787 -0.0774 -1.3115  0.4699
  289MOL0     C39811   3.778   1.934   8.692  0.4024 -0.2439  0.1739
  289MOL0     C39812   3.913   1.997   8.734  0.4493 -0.8351  0.1148
  289MOL0     H39813   3.903   1.541   8.282 -0.3655 -2.1076 -3.4101
  289MOL0     H39814   4.024   1.504   8.071  3.4359  1.2692 -2.1996
  289MOL0     H39815   4.228   1.781   7.950 -4.0671 -0.5700  3.5062
  289MOL0     H39816   4.132   1.895   7.863  0.1707  0.0854  2.8727
  289MOL0     H39817   4.239   1.647   7.728  1.6467  0.0468  1.8677
  289MOL0     H39818   4.160   1.781   7.649 -1.3728  3.2121  1.1362
  289MOL0     H39819   4.344   1.923   7.757  2.7884 -0.0029 -1.2038
  289MOL0     H39820   4.429   1.771   7.802  0.1341 -1.6854 -1.8189
  289MOL0     H39821   4.449   1.711   7.568  0.7422  0.4280 -2.3673
  289MOL0     H39822   4.379   1.873   7.516  0.2329 -0.3625  1.2430
  289MOL0     H39823   4.627   1.823   7.679 -1.4055 -2.6964 -0.9401
  289MOL0     H39824   4.562   1.985   7.621  1.0479  0.2084  1.1106
  289MOL0     H39825   4.681   1.743   7.465  0.6299  0.1415 -0.1804
  289MOL0     H39826   4.595   1.872   7.389 -3.6242 -2.0563  1.7780
  289MOL0     H39827   4.763   2.044   7.453  1.6920  1.1495 -0.4929
  289MOL0     H39828   4.836   1.905   7.370  1.6540  1.5729 -0.0254
  289MOL0     H39829   4.834   1.985   7.665 -1.3821 -1.3832  0.4684
  289MOL0     H39830   4.910   1.827   7.602  2.9567  0.2038 -1.9069
  289MOL0     H39831   4.956   2.195   7.462 -1.7134 -0.9145  0.5421
  289MOL0     H39832   5.323   2.311   7.539 -0.5155 -0.0117 -0.6255
  289MOL0     H39833   5.164   2.369   7.509 -1.3006  0.6294  0.9950
  289MOL0     H39834   5.161   2.310   7.275  1.4865  1.3334 -2.1310
  289MOL0     H39835   5.266   2.421   7.323 -0.8967 -0.4174 -0.7691
  289MOL0     H39836   5.369   2.120   7.304  0.6655 -1.2077 -2.3390
  289MOL0     H39837   5.323   2.212   7.167  0.6112  0.9490 -0.6451
  289MOL0     H39838   5.525   2.329   7.349 -1.5248  2.7608 -0.6967
  289MOL0     H39839   5.574   2.204   7.240 -3.1151 -2.7136 -1.2490
  289MOL0     H39840   5.379   2.512   6.974 -1.5722 -0.6904 -0.6329
  289MOL0     H39841   5.359   2.618   6.737 -3.3351 -1.1512 -1.6603
  289MOL0     H39842   5.385   2.481   6.625  0.8734 -0.4349  1.4516
  289MOL0     H39843   5.503   2.610   6.645  0.3097 -0.7164 -1.0241
  289MOL0     H39844   5.665   2.072   6.396 -0.4989  1.3732  0.2485
  289MOL0     H39845   5.730   2.071   6.156 -1.0182  0.8991  0.8305
  289MOL0     H39846   5.924   2.396   5.988 -1.3123 -1.7996  0.6679
  289MOL0     H39847   6.089   2.358   6.044 -0.0805  0.5492 -0.7794
  289MOL0     H39848   6.039   2.168   5.856  1.3434 -0.3381  2.8697
  289MOL0     H39849   5.947   2.299   5.776  1.1744 -1.1933 -1.4199
  289MOL0     H39850   6.244   2.313   5.848  1.4470  2.4965 -0.6868
  289MOL0     H39851   6.138   2.458   5.824  3.4005  0.6469  0.7605
  289MOL0     H39852   6.087   2.416   5.613 -0.6287 -3.1400 -2.0591
  289MOL0     H39853   6.145   2.256   5.604 -1.4482  0.1130  0.2484
  289MOL0     H39854   6.372   2.337   5.650 -1.3991  2.0182  4.7892
  289MOL0     H39855   6.294   2.387   5.493 -3.9892  0.4022 -0.3674
  289MOL0     H39856   6.333   2.556   5.753 -2.9491  0.9159 -0.2563
  289MOL0     H39857   6.268   2.632   5.607  2.9122  0.5687 -0.8597
  289MOL0     H39858   6.490   2.591   5.494  0.6139  2.7177 -0.0919
  289MOL0     H39859   6.550   2.516   5.645  1.2603  2.5289  3.5187
  289MOL0     H39860   6.528   2.726   5.760  1.2905 -3.8366  0.1798
  289MOL0     H39861   6.437   2.805   5.622  1.2436  0.9555  0.6513
  289MOL0     H39862   6.010   2.381   6.252  1.5120 -1.4820  0.7912
  289MOL0     H39863   5.918   2.407   6.476 -2.6435  3.4875 -2.0762
  289MOL0     H39864   5.705   2.186   6.811  0.1048  0.4194  0.1415
  289MOL0     H39865   5.672   2.209   7.046  0.1830  0.2289  0.0531
  289MOL0     H39866   3.962   1.909   7.976  0.7249  0.4185 -0.9508
  289MOL0     H39867   3.868   1.947   8.201  1.9292  0.3589  0.9652
  289MOL0     H39868   3.583   1.777   8.448  0.8117 -2.1124  0.5022
  289MOL0     H39869   3.441   1.733   8.639 -0.3379 -0.6775  2.4425
  289MOL0     H39870   3.329   1.708   8.807 -0.2332 -1.4906  0.5796
  289MOL0     H39871   3.443   1.625   8.914  0.2769  0.6502 -1.1781
  289MOL0     H39872   3.250   1.847   8.984 -1.3236  0.1674  2.0523
  289MOL0     H39873   3.348   1.769   9.105 -3.5362  3.6192  1.3663
  289MOL0     H39874   3.087   1.694   9.067 -1.1113 -1.4983  1.7906
  289MOL0     H39875   3.139   1.626   8.925  0.3448  0.9531  0.2401
  289MOL0     H39876   3.239   1.557   9.209  0.4551 -0.6608 -0.5155
  289MOL0     H39877   3.304   1.470   9.075  1.5783  0.4187  0.6180
  289MOL0     H39878   2.925   1.293   9.157 -0.2350  0.1260 -0.6235
  289MOL0     H39879   3.697   1.948   8.887 -0.7827  2.6256 -0.6884
  289MOL0     H39880   3.914   2.021   8.841 -3.3875 -0.3387  0.1559
  289MOL0     H39881   3.995   1.927   8.715  0.8891  0.6525 -4.8371
  289MOL0     H39882   3.944   2.085   8.677 -2.1612 -1.0828 -1.8538
  290MOL0     O39883   7.069   7.377   9.758  0.0994 -0.7878 -0.4605
  290MOL0     C39884   7.039   7.498   9.743 -0.1950 -0.2032 -0.2961
  290MOL0     O39885   7.117   7.609   9.706 -0.5563  0.0424 -0.3737
  290MOL0     C39886   7.252   7.596   9.674  0.8398  0.2180  0.1657
  290MOL0     C39887   7.353   7.615   9.769 -0.1769  0.4316 -0.2652
  290MOL0     C39888   7.485   7.599   9.731 -0.0243  0.3490 -0.3799
  290MOL0     C39889   7.515   7.547   9.605 -0.2513 -0.1314  0.3389
  290MOL0     O39890   7.647   7.512   9.586  0.1100  0.3350  0.0590
  290MOL0     C39891   7.702   7.490   9.457 -0.4877 -0.1755  0.9404
  290MOL0     C39892   7.846   7.467   9.454 -0.6628 -0.2727  0.2581
  290MOL0     C39893   7.887   7.336   9.526 -0.9815 -0.6191 -0.3945
  290MOL0     C39894   8.023   7.285   9.481  0.5004 -0.5360 -0.3006
  290MOL0     C39895   8.086   7.188   9.578 -0.2894 -0.0994 -0.1933
  290MOL0     C39896   8.209   7.127   9.512  1.1062 -0.0644 -0.0411
  290MOL0     C39897   8.311   7.229   9.459  0.5584 -0.4957  0.6458
  290MOL0     C39898   8.431   7.165   9.382  0.0402 -0.4091 -0.7151
  290MOL0     N39899   8.518   7.085   9.466  0.2178  0.6931  0.5631
  290MOL0     C39900   8.492   6.951   9.475 -0.2932  0.3754 -0.2157
  290MOL0     C39901   8.591   6.910   9.552 -0.4185 -0.3560  0.0259
  290MOL0     C39902   8.594   6.773   9.625  0.2515 -0.1374 -0.4621
  290MOL0     C39903   8.715   6.685   9.576 -0.2384 -1.0774  0.1196
  290MOL0     C39904   8.854   6.726   9.632 -0.5141  1.3181 -0.2465
  290MOL0     C39905   8.952   6.608   9.627  0.3391 -1.4966  0.5941
  290MOL0     O39906   8.921   6.511   9.730  0.6049 -0.4391 -0.0167
  290MOL0     C39907   9.000   6.395   9.738 -1.0509 -0.5786 -0.4065
  290MOL0     C39908   9.102   6.362   9.646  0.7572 -0.0598  0.1569
  290MOL0     C39909   9.181   6.249   9.665 -0.1244  0.1067 -0.3661
  290MOL0     C39910   9.299   6.227   9.579 -0.5701 -0.1995  0.1268
  290MOL0     C39911   9.161   6.162   9.774 -0.0834  0.5357  0.3374
  290MOL0     C39912   9.249   6.049   9.817  0.1075  0.8522 -0.1210
  290MOL0     O39913   9.250   6.022   9.954 -0.5641 -0.7902 -0.0049
  290MOL0     C39914   9.339   5.929   9.992  0.2646  0.3138 -0.9544
  290MOL0     C39915   9.461   5.965  10.047  0.2945  1.0603  0.8638
  290MOL0     C39916   9.560   5.874  10.086 -0.9714 -0.1388 -0.5443
  290MOL0     C39917   9.533   5.738  10.076  0.4223  0.2622 -0.5217
  290MOL0     O39918   9.615   5.641  10.109 -0.6775 -0.2246  0.5308
  290MOL0     C39919   9.701   5.662  10.231 -0.5887  0.3720  0.1388
  290MOL0     C39920   9.770   5.528  10.264 -0.2957 -0.6566  0.4117
  290MOL0     C39921   9.876   5.489  10.153  0.3891 -0.5279  0.4293
  290MOL0     C39922   9.958   5.366  10.192  0.7435  0.5519  0.0465
  290MOL0     C39923  10.041   5.320  10.076  0.3272  0.4958  0.9261
  290MOL0     C39924  10.133   5.213  10.110  0.6950  0.3917  0.3624
  290MOL0     C39925  10.210   5.150   9.996  0.2528 -0.3586  0.1894
  290MOL0     C39926  10.134   5.153   9.872 -0.4312  1.0594  0.1246
  290MOL0    Cl39927  10.230   5.066   9.748  0.2491 -0.6176 -0.1239
  290MOL0     C39928   9.407   5.699  10.019 -0.9175 -0.3223 -0.4739
  290MOL0     C39929   9.317   5.788   9.973 -0.6696 -0.3895 -0.0820
  290MOL0     O39930   9.318   5.991   9.729 -0.6899  0.0191  0.5514
  290MOL0     C39931   9.057   6.193   9.868 -0.9087  0.2352  0.8985
  290MOL0     C39932   8.985   6.310   9.849 -0.9605 -0.4334 -0.6383
  290MOL0     N39933   8.682   7.014   9.567 -0.4335  0.2261 -1.1949
  290MOL0     N39934   8.633   7.121   9.523 -0.3381  0.2477  0.0464
  290MOL0     C39935   7.414   7.518   9.510 -0.2094 -1.0221 -0.2928
  290MOL0     C39936   7.279   7.556   9.544 -0.9089 -0.7172  0.4081
  290MOL0     C39937   6.897   7.539   9.759 -0.2373  0.6254 -0.0520
  290MOL0     C39938   6.839   7.612   9.652 -0.0959 -0.5657  0.0112
  290MOL0     C39939   6.701   7.638   9.664  0.7865 -0.0959  0.4295
  290MOL0     C39940   6.625   7.618   9.778  1.4155  0.6956  0.3172
  290MOL0     O39941   6.489   7.641   9.775  0.2026 -0.3340  0.1008
  290MOL0     C39942   6.419   7.564   9.673 -0.3287  0.2311 -0.3818
  290MOL0     C39943   6.271   7.565   9.702  0.8276  0.3094  0.2499
  290MOL0     C39944   6.217   7.702   9.703  0.5222  0.4218 -0.0139
  290MOL0     C39945   6.056   7.706   9.702 -0.4873  0.3008  0.6166
  290MOL0     C39946   5.990   7.667   9.819  0.2660  0.5223 -1.2751
  290MOL0     C39947   5.921   7.641   9.922 -0.5865 -0.1038  0.8432
  290MOL0     C39948   6.685   7.539   9.880 -0.3076  0.1973 -0.0541
  290MOL0     C39949   6.821   7.499   9.874 -0.4953 -0.2077  0.2453
  290MOL0     C39950   6.865   7.408   9.972  0.2163 -0.5336 -0.4777
  290MOL0     H39951   7.315   7.644   9.866 -0.7569  1.8131 -0.8737
  290MOL0     H39952   7.563   7.612   9.805 -1.2465  1.2882  0.8009
  290MOL0     H39953   7.676   7.584   9.407 -1.6025  0.3036  2.3768
  290MOL0     H39954   7.677   7.407   9.391  2.8096 -1.1052  0.6559
  290MOL0     H39955   7.875   7.464   9.349 -2.0044 -1.3577 -0.1092
  290MOL0     H39956   7.887   7.559   9.498 -0.0923  0.7427 -2.2282
  290MOL0     H39957   7.888   7.367   9.631 -0.6745  0.9955 -0.8467
  290MOL0     H39958   7.815   7.256   9.506  0.5384 -2.2178  0.2563
  290MOL0     H39959   8.007   7.232   9.387 -1.6606 -1.1608  0.3530
  290MOL0     H39960   8.091   7.371   9.472  1.2404 -1.1291 -0.4960
  290MOL0     H39961   8.008   7.114   9.598 -1.7321  1.4195 -0.0316
  290MOL0     H39962   8.117   7.237   9.671  1.1669  1.3377 -1.3772
  290MOL0     H39963   8.250   7.060   9.588 -1.5818  0.0573  1.6638
  290MOL0     H39964   8.183   7.059   9.431  3.1097 -2.3103  1.0856
  290MOL0     H39965   8.341   7.297   9.539 -1.0489  2.2883 -0.9266
  290MOL0     H39966   8.262   7.289   9.381  3.0262  2.2172  1.0178
  290MOL0     H39967   8.386   7.118   9.294 -3.8241  1.5223 -0.0072
  290MOL0     H39968   8.499   7.243   9.347 -1.6003  0.5863 -1.8015
  290MOL0     H39969   8.407   6.885   9.460  0.8089 -0.9555 -0.9507
  290MOL0     H39970   8.501   6.719   9.604  0.9305 -1.1385 -1.0089
  290MOL0     H39971   8.611   6.767   9.733  2.6123 -1.1044 -0.8200
  290MOL0     H39972   8.692   6.586   9.615 -0.5604 -2.4898 -3.3226
  290MOL0     H39973   8.718   6.675   9.467 -2.0662  2.1597 -0.3724
  290MOL0     H39974   8.906   6.806   9.578  0.6484  1.1201  0.5512
  290MOL0     H39975   8.841   6.760   9.735  1.7033 -1.0432  0.9305
  290MOL0     H39976   8.959   6.563   9.527 -1.1943  1.4788 -0.9715
  290MOL0     H39977   9.051   6.653   9.633 -0.6456  0.6351  1.8288
  290MOL0     H39978   9.133   6.436   9.572 -0.7164  2.7769  2.2170
  290MOL0     H39979   9.340   6.310   9.521  3.6247 -1.6362  0.6913
  290MOL0     H39980   9.268   6.147   9.512 -2.4961 -1.0322  1.8826
  290MOL0     H39981   9.382   6.198   9.644  0.2122  1.7931  0.0741
  290MOL0     H39982   9.467   6.071  10.070 -0.5890  1.3728 -0.2425
  290MOL0     H39983   9.656   5.908  10.125  1.6775 -3.3493 -3.5298
  290MOL0     H39984   9.777   5.740  10.215  1.1234 -1.1187  0.5994
  290MOL0     H39985   9.633   5.697  10.309 -2.4282 -0.9286 -0.8026
  290MOL0     H39986   9.827   5.556  10.354 -1.0050  1.8319  0.1688
  290MOL0     H39987   9.694   5.450  10.274 -0.8283 -0.2911 -0.6840
  290MOL0     H39988   9.939   5.573  10.124  0.7642 -0.6297  0.9503
  290MOL0     H39989   9.819   5.464  10.063 -1.5294  1.3268  1.0443
  290MOL0     H39990   9.899   5.286  10.238  2.4139 -0.2795  0.8340
  290MOL0     H39991  10.029   5.385  10.273  1.4277 -1.0701 -0.1338
  290MOL0     H39992   9.969   5.297   9.997 -0.5734  2.1641  1.2001
  290MOL0     H39993  10.093   5.410  10.040 -3.8306  1.4550 -3.9248
  290MOL0     H39994  10.078   5.134  10.163  0.2895 -0.4162 -1.2012
  290MOL0     H39995  10.211   5.247  10.179 -0.0574  2.0855  0.4226
  290MOL0     H39996  10.222   5.043  10.019 -1.6970  0.0409  3.6867
  290MOL0     H39997  10.305   5.203   9.990  0.0308  0.1637  1.1587
  290MOL0     H39998  10.129   5.256   9.834 -1.0055  1.2612  0.7380
  290MOL0     H39999  10.037   5.105   9.882  1.2619 -2.5360  0.6646
  290MOL0     H40000   9.387   5.596   9.993 -1.7911  0.4425 -3.2374
  290MOL0     H40001   9.226   5.761   9.920 -1.3605  0.6278  0.5468
  290MOL0     H40002   9.028   6.140   9.958  1.5248  0.4942  1.9091
  290MOL0     H40003   8.910   6.340   9.922 -1.8186 -0.1832 -1.6060
  290MOL0     H40004   7.425   7.458   9.420  2.2428 -3.6789  1.6003
  290MOL0     H40005   7.202   7.534   9.471 -2.5965  0.6009  1.7397
  290MOL0     H40006   6.906   7.655   9.578  1.9594  3.0581  3.5703
  290MOL0     H40007   6.659   7.683   9.575 -0.9557  1.8732  2.1216
  290MOL0     H40008   6.453   7.602   9.576 -2.9583  2.0259 -0.6923
  290MOL0     H40009   6.443   7.457   9.673 -1.8501 -0.1310 -0.1093
  290MOL0     H40010   6.255   7.515   9.798 -0.6796  0.3034  0.0162
  290MOL0     H40011   6.217   7.514   9.622  0.2402  4.1601 -2.0660
  290MOL0     H40012   6.245   7.749   9.797 -0.2027  1.9250 -0.5144
  290MOL0     H40013   6.260   7.754   9.617  2.0325 -2.0593 -0.8881
  290MOL0     H40014   6.014   7.635   9.631  3.5019 -3.2421  1.3711
  290MOL0     H40015   6.034   7.812   9.688  1.6117  0.4381 -2.7533
  290MOL0     H40016   5.867   7.624  10.013  0.2132 -0.8252  1.2031
  290MOL0     H40017   6.629   7.515   9.970  1.7355  3.6951  2.4114
  290MOL0     H40018   6.972   7.388   9.967  0.4291  0.5946 -0.6537
  290MOL0     H40019   6.841   7.454  10.069  0.0691  2.6055 -1.8976
  290MOL0     H40020   6.809   7.314   9.963  1.3365 -1.2522 -0.0867
  291MOL0     O40021   1.994   6.204   1.924 -0.1573  0.6684 -0.1484
  291MOL0     C40022   1.891   6.137   1.906 -0.9026 -0.8064 -0.4935
  291MOL0     O40023   1.876   6.002   1.865 -0.5398 -0.9890 -0.7467
  291MOL0     C40024   1.977   5.916   1.876 -0.2791  0.1388 -0.4958
  291MOL0     C40025   1.966   5.812   1.970  0.1872 -0.6182 -1.2859
  291MOL0     C40026   2.073   5.730   1.991 -0.6102 -0.3270  0.2475
  291MOL0     C40027   2.202   5.764   1.940 -0.4036  0.0947  0.9517
  291MOL0     O40028   2.309   5.690   1.996 -0.2975 -0.0409 -0.2662
  291MOL0     C40029   2.453   5.723   1.983 -0.2458  0.4275 -0.5181
  291MOL0     C40030   2.474   5.841   2.077  0.2942  0.9510 -0.0759
  291MOL0     C40031   2.622   5.842   2.115  0.2012  0.1141 -0.7869
  291MOL0     C40032   2.659   5.957   2.209  0.3101 -0.7580  0.9271
  291MOL0     C40033   2.800   5.929   2.260 -0.6650  0.5155 -0.3168
  291MOL0     C40034   2.844   6.044   2.358  0.8522  0.4399  0.5629
  291MOL0     C40035   2.960   6.017   2.451 -0.6289 -0.0775  0.8496
  291MOL0     C40036   2.899   5.952   2.574 -0.4094  0.0926  0.1050
  291MOL0     N40037   3.010   5.922   2.671 -0.1969 -0.3177 -0.5208
  291MOL0     C40038   3.131   5.862   2.637  0.1777 -0.4103  0.5575
  291MOL0     C40039   3.199   5.831   2.759 -0.4431 -1.2364 -0.4424
  291MOL0     C40040   3.325   5.736   2.766  0.0014 -0.3745  0.0819
  291MOL0     C40041   3.454   5.819   2.729  0.2257  0.4392 -0.0155
  291MOL0     C40042   3.519   5.902   2.842  0.5920  0.8528  0.8348
  291MOL0     C40043   3.629   5.992   2.800  0.3326 -0.9710  0.0425
  291MOL0     O40044   3.736   5.917   2.759  0.1296  0.5963 -0.4842
  291MOL0     C40045   3.857   5.983   2.764 -0.1828 -0.9373 -0.4040
  291MOL0     C40046   3.973   5.908   2.797  1.2549  0.3103 -0.1389
  291MOL0     C40047   4.097   5.957   2.810 -0.4885  1.1774 -0.2990
  291MOL0     C40048   4.205   5.848   2.847 -0.5433  0.4971  0.8574
  291MOL0     C40049   4.126   6.097   2.771 -0.6968  0.3687 -0.9145
  291MOL0     C40050   4.264   6.162   2.772  0.0162 -0.1537  0.1444
  291MOL0     O40051   4.271   6.298   2.762 -0.0875  0.1649 -0.6953
  291MOL0     C40052   4.386   6.370   2.721  0.6938 -0.2564 -0.6024
  291MOL0     C40053   4.429   6.475   2.791  0.0700  0.1711 -0.0509
  291MOL0     C40054   4.539   6.546   2.749 -0.3355  0.4048  0.4942
  291MOL0     C40055   4.606   6.507   2.630 -0.3109 -0.3513  0.0786
  291MOL0     O40056   4.702   6.577   2.572 -0.2761  0.2861  1.0297
  291MOL0     C40057   4.765   6.682   2.640 -0.6798  0.5364 -0.1762
  291MOL0     C40058   4.869   6.739   2.550  0.8612 -0.8115  0.1224
  291MOL0     C40059   4.977   6.638   2.521 -1.1237 -0.4120  0.3038
  291MOL0     C40060   5.117   6.706   2.507 -0.1033  0.9201 -0.1158
  291MOL0     C40061   5.236   6.606   2.489 -0.6219  0.1035  0.1803
  291MOL0     C40062   5.385   6.660   2.472  0.8928  0.3520 -0.6595
  291MOL0     C40063   5.416   6.661   2.319  0.2298  0.2169  0.6625
  291MOL0     C40064   5.554   6.729   2.284 -1.0480  0.0306 -0.6630
  291MOL0    Cl40065   5.699   6.652   2.363 -0.3127 -0.3218 -0.0951
  291MOL0     C40066   4.563   6.392   2.565 -0.2408 -0.2284  0.5922
  291MOL0     C40067   4.452   6.321   2.612 -0.1771  0.4121  0.4563
  291MOL0     O40068   4.356   6.090   2.780  0.1147  0.7575 -0.0812
  291MOL0     C40069   4.013   6.170   2.726  0.1926 -0.1187 -0.9560
  291MOL0     C40070   3.882   6.122   2.727 -0.8664 -0.0666  0.7031
  291MOL0     N40071   3.112   5.880   2.856 -0.8026 -0.6176 -0.1407
  291MOL0     N40072   3.013   5.938   2.804  0.2128 -0.0234  0.4179
  291MOL0     C40073   2.211   5.873   1.847  0.0350 -0.7066 -0.5605
  291MOL0     C40074   2.095   5.943   1.806 -0.7267 -1.2494 -1.5699
  291MOL0     C40075   1.766   6.199   1.934  0.4345  0.6880 -0.1704
  291MOL0     C40076   1.684   6.139   2.035 -0.5127  0.0207  0.5559
  291MOL0     C40077   1.558   6.183   2.060 -0.7265  0.8482  0.5923
  291MOL0     C40078   1.520   6.306   1.995  0.0909  1.0296  0.5453
  291MOL0     O40079   1.401   6.366   2.020 -0.0482 -0.0787 -0.5733
  291MOL0     C40080   1.332   6.335   2.141  0.6490  0.2770 -0.8690
  291MOL0     C40081   1.244   6.450   2.183 -0.4503  0.6627 -0.5878
  291MOL0     C40082   1.135   6.492   2.078 -0.4342  0.1749  0.3940
  291MOL0     C40083   1.044   6.592   2.147  0.2713 -1.7336  0.6381
  291MOL0     C40084   0.958   6.686   2.070  0.3923  0.5338  0.1778
  291MOL0     C40085   0.887   6.756   1.994  0.5919  0.4469 -0.0824
  291MOL0     C40086   1.596   6.355   1.891  0.0561  0.4133  0.0154
  291MOL0     C40087   1.721   6.307   1.863 -0.3387 -0.3738 -0.1098
  291MOL0     C40088   1.802   6.364   1.745  0.5896 -0.6828  0.4550
  291MOL0     H40089   1.868   5.809   2.017 -0.1544 -0.4688 -1.9684
  291MOL0     H40090   2.077   5.668   2.081  1.2934  1.2664  1.3385
  291MOL0     H40091   2.477   5.742   1.878 -0.5350  2.9174 -0.1878
  291MOL0     H40092   2.496   5.628   2.015 -0.9439 -0.1512 -1.2678
  291MOL0     H40093   2.445   5.932   2.025 -0.8004  0.2441 -0.7309
  291MOL0     H40094   2.408   5.822   2.163  0.8813 -1.7985 -0.1292
  291MOL0     H40095   2.649   5.744   2.156 -1.9406 -0.8155 -1.4248
  291MOL0     H40096   2.682   5.861   2.026  1.7820 -0.6146  0.0763
  291MOL0     H40097   2.661   6.051   2.152  0.3866  0.5351  2.9797
  291MOL0     H40098   2.580   5.964   2.284 -2.8808  0.5239 -2.2024
  291MOL0     H40099   2.876   5.929   2.181 -1.4161  1.0135 -1.0614
  291MOL0     H40100   2.810   5.827   2.299 -0.6176  0.1259 -1.3202
  291MOL0     H40101   2.861   6.127   2.289 -1.9740 -0.7727 -1.8044
  291MOL0     H40102   2.751   6.066   2.411  0.6785  1.5195 -0.1554
  291MOL0     H40103   3.018   6.109   2.465 -0.0988 -0.1281 -0.8015
  291MOL0     H40104   3.025   5.955   2.389  2.1100  3.8636 -0.6424
  291MOL0     H40105   2.822   6.009   2.628  1.8048  3.3374  0.1487
  291MOL0     H40106   2.865   5.855   2.537  0.6174  0.0557 -0.7741
  291MOL0     H40107   3.166   5.846   2.536  1.0060 -1.9065  1.0520
  291MOL0     H40108   3.311   5.651   2.697  1.6260 -0.6963  0.1066
  291MOL0     H40109   3.338   5.685   2.862  0.6550 -1.3768 -0.5095
  291MOL0     H40110   3.526   5.739   2.706  0.8311  0.8449  0.4312
  291MOL0     H40111   3.421   5.875   2.641  0.3554 -0.8562 -0.9268
  291MOL0     H40112   3.456   5.979   2.887 -0.2198  0.4330  0.4282
  291MOL0     H40113   3.543   5.837   2.927 -0.7533 -1.5207 -0.4986
  291MOL0     H40114   3.606   6.052   2.712  2.6825  0.6043  0.3951
  291MOL0     H40115   3.644   6.063   2.882 -2.3313 -0.4586  0.1697
  291MOL0     H40116   3.950   5.803   2.814  1.1069  0.1322 -1.3283
  291MOL0     H40117   4.290   5.872   2.912 -1.2251 -0.1896  2.0559
  291MOL0     H40118   4.241   5.812   2.750  0.8716  1.3443  1.0343
  291MOL0     H40119   4.160   5.759   2.892  0.1629  0.0338  0.6694
  291MOL0     H40120   4.371   6.495   2.881 -2.5554 -1.3822 -1.2712
  291MOL0     H40121   4.569   6.637   2.799 -1.8684  0.4200  1.4184
  291MOL0     H40122   4.697   6.764   2.667 -0.2590  0.0226  2.8195
  291MOL0     H40123   4.825   6.649   2.725 -2.5203  0.8493  1.2970
  291MOL0     H40124   4.829   6.781   2.457  1.6025  1.7688  0.8869
  291MOL0     H40125   4.914   6.820   2.607 -0.0759  0.6004 -1.0614
  291MOL0     H40126   4.960   6.582   2.429  3.0761 -1.5866  0.0274
  291MOL0     H40127   4.986   6.566   2.603 -1.7343 -2.3529 -1.2688
  291MOL0     H40128   5.125   6.766   2.598 -0.1717 -0.2835  0.6947
  291MOL0     H40129   5.110   6.766   2.415 -4.0994  0.2942 -0.3967
  291MOL0     H40130   5.255   6.548   2.580  2.8120  1.1869  0.2838
  291MOL0     H40131   5.209   6.543   2.404  1.2591 -1.2685  0.5537
  291MOL0     H40132   5.435   6.578   2.525  0.3527  1.2633  1.3709
  291MOL0     H40133   5.412   6.755   2.521  0.5184  0.1528 -0.0542
  291MOL0     H40134   5.340   6.723   2.271 -0.7449 -1.2582  0.2350
  291MOL0     H40135   5.404   6.560   2.278  2.2578 -0.2225  1.0268
  291MOL0     H40136   5.544   6.832   2.319 -1.8192  0.2401 -1.4584
  291MOL0     H40137   5.579   6.723   2.177  1.6498 -2.0674 -0.0376
  291MOL0     H40138   4.615   6.363   2.474 -0.0847 -2.8117  1.4073
  291MOL0     H40139   4.430   6.223   2.572  1.8625 -0.9480  2.4330
  291MOL0     H40140   4.029   6.270   2.686 -0.2805  0.2247 -0.2872
  291MOL0     H40141   3.810   6.188   2.679 -0.0087  0.9276  0.7571
  291MOL0     H40142   2.310   5.904   1.815  0.6763 -1.4194  0.6260
  291MOL0     H40143   2.103   6.034   1.748  1.8270  0.6970  1.4691
  291MOL0     H40144   1.702   6.056   2.102 -4.8001 -2.2264 -0.6944
  291MOL0     H40145   1.507   6.134   2.142  2.5549 -1.1895  1.6370
  291MOL0     H40146   1.269   6.247   2.125  1.9143 -1.3469  2.2087
  291MOL0     H40147   1.395   6.311   2.227 -2.4731  2.7036  2.3921
  291MOL0     H40148   1.303   6.538   2.210 -0.6264  0.4590  0.5200
  291MOL0     H40149   1.193   6.421   2.275  0.8744  0.8296  0.2222
  291MOL0     H40150   1.197   6.533   1.998  0.9973 -2.1290  0.2438
  291MOL0     H40151   1.081   6.411   2.028  0.4042  0.3499 -0.8372
  291MOL0     H40152   1.097   6.652   2.221 -1.1696 -0.8492  1.0095
  291MOL0     H40153   0.981   6.536   2.217 -0.8733 -1.2541  0.0248
  291MOL0     H40154   0.835   6.830   1.937 -1.1718 -1.2544 -0.7761
  291MOL0     H40155   1.552   6.442   1.842 -1.5556 -0.5668 -0.3752
  291MOL0     H40156   1.808   6.298   1.658 -1.2308  0.5700 -0.6904
  291MOL0     H40157   1.763   6.460   1.711 -1.5987 -0.6248  2.8178
  291MOL0     H40158   1.907   6.382   1.771  0.7048 -1.2182  0.3893
  292MOL0     O40159   7.123   8.972   1.860 -0.0044  0.3531  0.6256
  292MOL0     C40160   7.129   9.008   1.976  0.4006  0.7354  0.9073
  292MOL0     O40161   7.243   9.007   2.053 -0.1399 -0.0302 -0.2814
  292MOL0     C40162   7.370   8.984   1.994  0.6367  0.2342  0.6017
  292MOL0     C40163   7.378   8.862   1.917 -0.4053 -0.3744  0.8266
  292MOL0     C40164   7.502   8.832   1.863 -0.2017 -0.3966 -0.1515
  292MOL0     C40165   7.619   8.900   1.890  0.1127 -0.0401 -0.4359
  292MOL0     O40166   7.734   8.855   1.824  0.3662 -0.0566 -0.7999
  292MOL0     C40167   7.843   8.948   1.800 -0.3227  0.0630  0.2513
  292MOL0     C40168   7.895   8.896   1.659 -0.4488  0.3439  0.0066
  292MOL0     C40169   7.959   8.762   1.662 -0.2615  0.4633  0.2702
  292MOL0     C40170   8.030   8.750   1.523  0.4195 -0.1524  0.0873
  292MOL0     C40171   8.154   8.655   1.528  0.0721  1.0209 -0.2049
  292MOL0     C40172   8.274   8.718   1.612  0.9121  0.8476  0.3565
  292MOL0     C40173   8.403   8.628   1.611  0.2051  0.0265 -0.5350
  292MOL0     C40174   8.483   8.628   1.477 -0.8598  0.6970 -1.2864
  292MOL0     N40175   8.576   8.743   1.473 -0.4949 -0.0732 -0.0977
  292MOL0     C40176   8.559   8.859   1.397 -0.5672 -0.2088 -0.0566
  292MOL0     C40177   8.659   8.946   1.435 -0.4965  0.9286  1.0042
  292MOL0     C40178   8.682   9.085   1.384 -0.4777  0.4404  0.4325
  292MOL0     C40179   8.812   9.086   1.293  0.5464  0.8303  1.0177
  292MOL0     C40180   8.782   9.010   1.155 -0.7793 -0.1426 -0.5840
  292MOL0     C40181   8.891   9.015   1.043 -1.2608  0.8590 -0.7281
  292MOL0     O40182   8.955   9.141   1.036  0.9779  0.3020  0.1931
  292MOL0     C40183   9.047   9.150   0.939 -0.4212 -0.6243 -0.4217
  292MOL0     C40184   9.179   9.134   0.974  0.1616  1.0550 -0.2388
  292MOL0     C40185   9.280   9.144   0.878  0.2676 -1.1810  0.7102
  292MOL0     C40186   9.421   9.109   0.924 -1.4820 -0.4426 -0.1063
  292MOL0     C40187   9.245   9.174   0.749  1.0359  0.1359  0.5550
  292MOL0     C40188   9.341   9.217   0.642 -0.7508  0.1322 -1.1309
  292MOL0     O40189   9.469   9.255   0.679  0.2019 -0.0334 -0.6602
  292MOL0     C40190   9.561   9.263   0.571 -0.1694 -1.1830 -0.4455
  292MOL0     C40191   9.582   9.164   0.478  0.7082  0.1426 -0.5930
  292MOL0     C40192   9.703   9.156   0.397  0.2333 -0.1005  0.1981
  292MOL0     C40193   9.792   9.270   0.399  0.8118 -0.4987  0.0266
  292MOL0     O40194   9.901   9.285   0.316  0.3425  0.5475  0.4610
  292MOL0     C40195   9.916   9.202   0.200 -0.6321  0.0536  0.3723
  292MOL0     C40196  10.037   9.257   0.111  0.8800  0.3947 -0.7825
  292MOL0     C40197  10.062   9.182  -0.018 -0.4569  0.2842 -0.2825
  292MOL0     C40198  10.164   9.253  -0.103  0.0872 -0.5464  0.2816
  292MOL0     C40199  10.198   9.173  -0.224 -0.2569  0.5732  0.6765
  292MOL0     C40200  10.303   9.254  -0.296  0.5416 -0.5129 -0.0154
  292MOL0     C40201  10.351   9.202  -0.431  0.4647 -0.3486 -0.3715
  292MOL0     C40202  10.247   9.224  -0.541  0.1790 -0.0714 -0.4438
  292MOL0    Cl40203  10.209   9.403  -0.579  0.1887 -0.3783 -0.1567
  292MOL0     C40204   9.759   9.385   0.480  0.3517  0.5847 -0.2821
  292MOL0     C40205   9.639   9.389   0.559  0.7748 -0.1005  0.5497
  292MOL0     O40206   9.298   9.225   0.529 -0.1722 -0.3261  0.0694
  292MOL0     C40207   9.112   9.167   0.715 -0.1962 -0.4275 -0.3285
  292MOL0     C40208   9.013   9.176   0.803  1.0373  0.5117 -0.4192
  292MOL0     N40209   8.736   8.877   1.525 -0.4387 -0.2114  0.2052
  292MOL0     N40210   8.689   8.766   1.551 -0.4151 -0.2787 -0.2783
  292MOL0     C40211   7.608   9.010   1.970  0.2043  0.4112  0.2743
  292MOL0     C40212   7.481   9.060   2.021  0.7016  0.4899  0.6750
  292MOL0     C40213   7.004   9.072   2.031 -0.1687 -0.3317 -0.0450
  292MOL0     C40214   6.875   9.039   1.975  0.5907  0.1336 -0.4443
  292MOL0     C40215   6.755   9.075   2.042  0.7017 -0.4716 -0.0712
  292MOL0     C40216   6.756   9.161   2.156  0.2784 -0.0500  0.7498
  292MOL0     O40217   6.642   9.203   2.222  0.7225  0.6880 -0.6207
  292MOL0     C40218   6.510   9.170   2.167 -0.9321 -0.4962 -0.0444
  292MOL0     C40219   6.404   9.253   2.246 -0.2033  0.0732  0.0644
  292MOL0     C40220   6.268   9.207   2.208  0.7109 -0.4466 -0.1809
  292MOL0     C40221   6.161   9.272   2.298  0.1013 -0.0532 -1.1201
  292MOL0     C40222   6.038   9.235   2.248  0.8742 -0.7216 -0.7359
  292MOL0     C40223   5.922   9.212   2.208 -0.3946 -0.6538 -0.4877
  292MOL0     C40224   6.883   9.204   2.204  0.9745 -0.1517  0.4745
  292MOL0     C40225   7.004   9.166   2.143 -1.4502  0.5206  0.0079
  292MOL0     C40226   7.127   9.226   2.196 -0.3820 -0.2378 -0.5028
  292MOL0     H40227   7.288   8.802   1.908 -0.4408 -0.3768  1.1883
  292MOL0     H40228   7.515   8.739   1.809 -0.4495 -0.6762  0.2656
  292MOL0     H40229   7.920   8.934   1.876  0.7244 -2.2438 -1.0962
  292MOL0     H40230   7.810   9.051   1.787  3.0264  1.0826 -1.1941
  292MOL0     H40231   7.815   8.911   1.586  1.9132  1.6908 -2.4769
  292MOL0     H40232   7.975   8.964   1.630 -0.1661  0.6409  1.4018
  292MOL0     H40233   8.033   8.751   1.742  0.3863 -1.2251 -0.4942
  292MOL0     H40234   7.880   8.688   1.676  0.0319  0.4290  1.9409
  292MOL0     H40235   7.956   8.728   1.446  0.1033 -0.3494  0.4470
  292MOL0     H40236   8.066   8.850   1.495 -2.9713  0.9670 -0.7831
  292MOL0     H40237   8.198   8.631   1.430 -1.2020 -0.5854 -0.4352
  292MOL0     H40238   8.116   8.561   1.570 -0.6004  1.5730  0.4336
  292MOL0     H40239   8.294   8.818   1.573 -2.5279  1.0645 -1.1977
  292MOL0     H40240   8.244   8.723   1.717  1.2684  2.3246  0.3984
  292MOL0     H40241   8.387   8.522   1.633  1.6796  0.2677  2.1869
  292MOL0     H40242   8.462   8.676   1.689  0.1479  2.4121 -1.8843
  292MOL0     H40243   8.545   8.539   1.465 -1.8412  0.0037 -1.4258
  292MOL0     H40244   8.425   8.608   1.386  0.6702 -3.2994 -1.5793
  292MOL0     H40245   8.485   8.892   1.325  2.1097  2.7712 -1.7173
  292MOL0     H40246   8.712   9.142   1.472  4.0250  0.0056 -0.5849
  292MOL0     H40247   8.595   9.132   1.336 -2.0424 -2.3300  0.3005
  292MOL0     H40248   8.851   9.187   1.281  1.5817  0.1863 -1.6952
  292MOL0     H40249   8.896   9.033   1.339 -0.0541 -1.8673 -0.7619
  292MOL0     H40250   8.752   8.907   1.176 -0.9042  0.4603  2.5985
  292MOL0     H40251   8.692   9.055   1.110 -0.4873 -0.6663 -1.7395
  292MOL0     H40252   8.978   8.955   1.072 -2.2250  0.0513  0.5931
  292MOL0     H40253   8.849   8.976   0.950  3.5347 -4.3406 -1.2357
  292MOL0     H40254   9.205   9.118   1.078 -0.6372 -0.9792 -0.3125
  292MOL0     H40255   9.418   9.065   1.024  0.4890 -1.1266 -0.3229
  292MOL0     H40256   9.482   9.200   0.928  0.2934 -1.6370  1.3940
  292MOL0     H40257   9.465   9.040   0.852 -1.8616  2.0173 -2.9256
  292MOL0     H40258   9.542   9.063   0.472  5.4106 -1.9837 -0.8265
  292MOL0     H40259   9.734   9.068   0.342 -2.2950 -0.3455 -1.0039
  292MOL0     H40260   9.947   9.100   0.228  0.9325  0.9148  1.9885
  292MOL0     H40261   9.819   9.184   0.154 -2.3817  0.0074  3.7680
  292MOL0     H40262  10.023   9.364   0.093  3.3866  1.1049  0.9999
  292MOL0     H40263  10.117   9.244   0.184 -1.8511 -2.8337  2.0181
  292MOL0     H40264   9.974   9.181  -0.082  1.9333 -0.8994 -3.8967
  292MOL0     H40265  10.093   9.079  -0.001  1.3983  0.9114  0.4127
  292MOL0     H40266  10.255   9.281  -0.049  1.0460 -0.1063 -1.4871
  292MOL0     H40267  10.134   9.354  -0.133  1.8246 -0.3269 -0.8601
  292MOL0     H40268  10.231   9.069  -0.213 -1.0907  0.3029  0.6925
  292MOL0     H40269  10.112   9.161  -0.290 -1.3943 -1.8881  2.4358
  292MOL0     H40270  10.384   9.267  -0.225 -1.0194 -0.4408  1.8357
  292MOL0     H40271  10.282   9.360  -0.309  0.1743 -0.4690  0.9103
  292MOL0     H40272  10.378   9.098  -0.413  0.7666 -0.1923  0.1231
  292MOL0     H40273  10.448   9.246  -0.459 -0.2220  1.0016 -0.7515
  292MOL0     H40274  10.154   9.180  -0.504 -0.9877  2.0695 -0.6809
  292MOL0     H40275  10.270   9.165  -0.630  0.3491  0.1198 -0.5281
  292MOL0     H40276   9.816   9.477   0.482  0.0270  0.7844 -0.3358
  292MOL0     H40277   9.606   9.466   0.627 -0.5512 -1.5261  1.5984
  292MOL0     H40278   9.074   9.165   0.614  0.1179  4.3512 -0.7808
  292MOL0     H40279   8.908   9.189   0.777  0.7792  1.7751  1.0913
  292MOL0     H40280   7.696   9.071   1.987 -0.4623  1.4662  0.0920
  292MOL0     H40281   7.477   9.152   2.078  3.1147 -0.0913  1.9378
  292MOL0     H40282   6.866   8.972   1.889 -3.7228 -1.4281  0.9222
  292MOL0     H40283   6.662   9.041   1.998  0.6306 -0.3581 -0.0120
  292MOL0     H40284   6.488   9.207   2.067 -0.2584  1.0038  0.3389
  292MOL0     H40285   6.485   9.064   2.179  0.8050 -0.8011  1.2071
  292MOL0     H40286   6.427   9.359   2.234  0.9543 -0.1160  0.3690
  292MOL0     H40287   6.408   9.227   2.353 -0.2396 -0.3614 -0.0380
  292MOL0     H40288   6.253   9.232   2.103  3.2040 -1.7979 -0.9241
  292MOL0     H40289   6.251   9.101   2.227  0.0421 -0.3784 -0.3525
  292MOL0     H40290   6.166   9.381   2.298  2.8539 -0.0712  0.9494
  292MOL0     H40291   6.186   9.246   2.401  2.4442 -1.1867 -1.9011
  292MOL0     H40292   5.818   9.202   2.184 -0.2970  0.6489 -1.6183
  292MOL0     H40293   6.884   9.269   2.290 -2.6179  2.3899 -1.1916
  292MOL0     H40294   7.211   9.221   2.126 -1.5227  2.0490 -2.2005
  292MOL0     H40295   7.122   9.334   2.215  1.6822  0.3036 -2.5413
  292MOL0     H40296   7.143   9.175   2.291 -0.7904  1.3516  0.4529
  293MOL0     O40297   1.207   1.227   9.692  0.1287  0.1745 -0.4462
  293MOL0     C40298   1.097   1.232   9.741  0.5656 -0.5919  0.0868
  293MOL0     O40299   1.015   1.349   9.746 -0.4817  0.0398  0.3134
  293MOL0     C40300   1.083   1.465   9.752  0.8444  0.0102 -0.1039
  293MOL0     C40301   1.075   1.548   9.642  0.2525  0.5457 -0.1806
  293MOL0     C40302   1.158   1.660   9.631  1.1772 -0.2312  0.4337
  293MOL0     C40303   1.223   1.708   9.739  0.1470 -0.0589 -1.2977
  293MOL0     O40304   1.273   1.835   9.736  0.0640  0.6309 -0.2948
  293MOL0     C40305   1.375   1.880   9.817 -0.1363  0.1617  1.2311
  293MOL0     C40306   1.348   2.023   9.874 -0.8950 -0.1216  0.7729
  293MOL0     C40307   1.419   2.137   9.793 -0.7423  0.2373  0.2400
  293MOL0     C40308   1.352   2.271   9.806  0.1381 -0.5112  0.0827
  293MOL0     C40309   1.372   2.330   9.951  0.1609  0.5059  0.3710
  293MOL0     C40310   1.289   2.462   9.978 -0.0434 -0.2937 -0.5678
  293MOL0     C40311   1.317   2.566   9.869  0.0343  0.0084 -0.1109
  293MOL0     C40312   1.204   2.562   9.768 -0.5016 -0.0042  0.0104
  293MOL0     N40313   1.091   2.634   9.819  0.0709 -0.7138  0.8100
  293MOL0     C40314   1.063   2.762   9.793 -0.2095 -0.4448 -0.6454
  293MOL0     C40315   0.947   2.791   9.853  0.3339 -0.3894 -0.6826
  293MOL0     C40316   0.854   2.915   9.858 -0.4008 -0.5859 -0.0178
  293MOL0     C40317   0.726   2.912   9.766 -0.2986  0.7102  0.1332
  293MOL0     C40318   0.619   2.804   9.793 -0.4466 -0.2403  0.1764
  293MOL0     C40319   0.596   2.784   9.947  0.2123 -0.2712 -0.8156
  293MOL0     O40320   0.491   2.688   9.978  0.8006 -0.1762 -0.7550
  293MOL0     C40321   0.507   2.551   9.957  0.0026 -0.6809 -0.3166
  293MOL0     C40322   0.397   2.472   9.984  0.3047  1.1603  0.5477
  293MOL0     C40323   0.386   2.334   9.964  0.4634  0.1082  0.2761
  293MOL0     C40324   0.263   2.266   9.996  0.4934  0.1732 -0.4874
  293MOL0     C40325   0.497   2.277   9.897 -0.1187  0.1008  0.5787
  293MOL0     C40326   0.503   2.138   9.837 -0.8520  0.0426 -0.5504
  293MOL0     O40327   0.634   2.085   9.808 -0.0348  0.0100  0.2436
  293MOL0     C40328   0.653   1.963   9.755 -0.1518 -0.4819 -0.2966
  293MOL0     C40329   0.576   1.852   9.786 -0.1111 -0.3826 -0.0938
  293MOL0     C40330   0.611   1.728   9.733  0.4115  0.0106  0.5482
  293MOL0     C40331   0.723   1.714   9.651  0.8373  0.6057 -0.6092
  293MOL0     O40332   0.747   1.584   9.601  0.3919 -0.0957  0.2927
  293MOL0     C40333   0.672   1.561   9.483 -0.0808 -0.2671  0.7383
  293MOL0     C40334   0.726   1.433   9.417 -0.9431  0.5716 -0.6389
  293MOL0     C40335   0.649   1.318   9.479 -0.0837 -0.8783  0.2809
  293MOL0     C40336   0.710   1.185   9.433 -0.2520  0.6063  0.1748
  293MOL0     C40337   0.652   1.063   9.517 -0.0370 -0.3794 -0.8062
  293MOL0     C40338   0.672   0.931   9.444 -0.6289  0.2848  0.0756
  293MOL0     C40339   0.599   0.818   9.519  0.1544 -0.0145  0.1938
  293MOL0     C40340   0.604   0.691   9.431  0.4034 -0.1044 -0.1383
  293MOL0    Cl40341   0.533   0.556   9.525 -0.3814 -0.4598 -0.0540
  293MOL0     C40342   0.789   1.831   9.611 -0.5024  0.5598  0.0586
  293MOL0     C40343   0.756   1.957   9.665  0.3516 -0.2846 -0.4584
  293MOL0     O40344   0.396   2.081   9.816  0.1951  0.4103 -0.5378
  293MOL0     C40345   0.611   2.355   9.880 -0.3732 -0.6240  0.0308
  293MOL0     C40346   0.624   2.493   9.919 -0.4449  0.5850 -0.4412
  293MOL0     N40347   0.898   2.669   9.896 -0.3913 -0.7967 -0.8702
  293MOL0     N40348   0.989   2.588   9.894  0.0829 -0.1415  0.4874
  293MOL0     C40349   1.227   1.632   9.857 -0.0157 -0.2696 -0.2228
  293MOL0     C40350   1.160   1.512   9.862 -0.1942  0.4115  0.3089
  293MOL0     C40351   1.040   1.108   9.793 -1.3113 -0.4045  0.9598
  293MOL0     C40352   1.006   1.000   9.702 -0.0566  0.0874 -0.4190
  293MOL0     C40353   0.939   0.893   9.740  0.2933 -0.8826 -0.0213
  293MOL0     C40354   0.907   0.868   9.879 -0.4207  0.6894 -0.3879
  293MOL0     O40355   0.838   0.748   9.918 -0.0590 -0.7908  0.6120
  293MOL0     C40356   0.787   0.744  10.047 -0.2176  0.0030 -0.1581
  293MOL0     C40357   0.707   0.616  10.058  0.5459  0.3317 -0.0612
  293MOL0     C40358   0.584   0.606   9.958 -0.3356  0.2014 -0.0428
  293MOL0     C40359   0.499   0.729   9.966 -0.3057  0.1216  0.0690
  293MOL0     C40360   0.384   0.711   9.882  0.3536 -0.4231  0.2822
  293MOL0     C40361   0.295   0.687   9.809  0.8424 -0.5231  0.2622
  293MOL0     C40362   0.955   0.963   9.970  0.4789 -0.1940  0.0054
  293MOL0     C40363   1.016   1.085   9.929  0.3257  0.1026 -0.3448
  293MOL0     C40364   1.037   1.186  10.042  0.4014  0.2418 -0.6660
  293MOL0     H40365   1.015   1.508   9.561  0.8996 -0.7344 -0.0486
  293MOL0     H40366   1.157   1.716   9.538 -3.8473  0.8923  0.8704
  293MOL0     H40367   1.462   1.885   9.751 -0.0641 -0.8780  1.2398
  293MOL0     H40368   1.409   1.819   9.901  1.6650 -0.6719 -0.0417
  293MOL0     H40369   1.240   2.037   9.881 -0.7315  0.8137  1.7060
  293MOL0     H40370   1.385   2.027   9.977  0.6868  2.0484  0.1844
  293MOL0     H40371   1.527   2.136   9.809 -0.9349  1.4352  1.8387
  293MOL0     H40372   1.409   2.106   9.688 -0.6555 -1.6291  0.7414
  293MOL0     H40373   1.391   2.333   9.724 -1.7141  1.5958  0.6945
  293MOL0     H40374   1.246   2.254   9.785 -0.1620  1.6835 -0.4314
  293MOL0     H40375   1.476   2.357   9.971 -0.7819  3.0445  2.3437
  293MOL0     H40376   1.331   2.257  10.021  1.9984 -1.8315 -0.8256
  293MOL0     H40377   1.184   2.436   9.994  0.1707  0.1839  1.9385
  293MOL0     H40378   1.317   2.504  10.075  0.7702  0.7997 -1.2492
  293MOL0     H40379   1.402   2.529   9.811  0.5005 -0.4896  0.8610
  293MOL0     H40380   1.341   2.660   9.920  1.9126  0.3864 -1.6043
  293MOL0     H40381   1.239   2.615   9.678  3.1784  0.4515  1.5432
  293MOL0     H40382   1.170   2.465   9.731 -0.6543  0.6645 -1.7223
  293MOL0     H40383   1.125   2.828   9.733 -0.5064 -0.3971 -0.8981
  293MOL0     H40384   0.915   2.985   9.800  0.3116 -0.7058  0.5683
  293MOL0     H40385   0.836   2.948   9.961 -0.3761  2.5116 -0.9233
  293MOL0     H40386   0.684   3.012   9.774  2.0510  1.6235  3.2897
  293MOL0     H40387   0.761   2.902   9.663  1.6719 -1.6055  0.9265
  293MOL0     H40388   0.529   2.844   9.746 -0.9269 -0.5683  0.7970
  293MOL0     H40389   0.646   2.713   9.737  0.1013 -1.2786  2.0251
  293MOL0     H40390   0.684   2.763  10.007 -0.6550 -0.5746  0.3734
  293MOL0     H40391   0.565   2.883   9.981  2.2450  0.2492 -0.3515
  293MOL0     H40392   0.306   2.529   9.999 -0.0269  0.7876 -0.0229
  293MOL0     H40393   0.207   2.319  10.074 -1.7313 -0.3607 -1.6559
  293MOL0     H40394   0.264   2.161  10.026  1.0524  1.0059  2.9023
  293MOL0     H40395   0.193   2.288   9.915 -2.1057 -0.5584  1.4217
  293MOL0     H40396   0.497   1.858   9.860  0.1046  1.1951  0.0370
  293MOL0     H40397   0.566   1.635   9.766 -0.2934  1.2166  3.3276
  293MOL0     H40398   0.570   1.563   9.522  1.2511  3.1323  4.8363
  293MOL0     H40399   0.682   1.647   9.417 -1.4186  0.1949  1.1157
  293MOL0     H40400   0.732   1.436   9.308 -2.6359  0.2936 -0.7800
  293MOL0     H40401   0.830   1.417   9.446 -1.4384 -1.9863 -0.0358
  293MOL0     H40402   0.541   1.322   9.461 -0.1417 -1.3217  0.5065
  293MOL0     H40403   0.668   1.324   9.586 -4.2885 -2.2871  1.3056
  293MOL0     H40404   0.819   1.187   9.437 -0.0735 -0.9217 -1.9453
  293MOL0     H40405   0.670   1.172   9.331  2.3153 -0.6254 -0.7631
  293MOL0     H40406   0.689   1.060   9.620  1.4090  0.1590 -1.2847
  293MOL0     H40407   0.543   1.078   9.520 -0.0563 -0.6286 -0.2216
  293MOL0     H40408   0.777   0.903   9.443 -1.0523 -1.5033 -1.4085
  293MOL0     H40409   0.635   0.946   9.342  0.2722  0.9947 -0.1609
  293MOL0     H40410   0.493   0.841   9.531  0.0393 -0.3184 -0.2218
  293MOL0     H40411   0.646   0.801   9.617  1.2892 -0.0689 -0.3459
  293MOL0     H40412   0.706   0.667   9.399  1.9899  1.1882  3.3811
  293MOL0     H40413   0.543   0.705   9.341 -1.5999 -0.4492  1.1001
  293MOL0     H40414   0.862   1.825   9.531 -0.2797  0.4333  0.2720
  293MOL0     H40415   0.811   2.044   9.630 -0.5936  0.3747 -0.3207
  293MOL0     H40416   0.699   2.317   9.830  0.4610  2.5430 -1.1901
  293MOL0     H40417   0.714   2.552   9.909 -0.0092 -0.2785 -1.8360
  293MOL0     H40418   1.261   1.670   9.953 -0.8447  0.1037 -0.0652
  293MOL0     H40419   1.156   1.471   9.963 -1.8897  3.8163  1.8083
  293MOL0     H40420   1.030   1.010   9.597  0.3972 -1.2096 -0.4564
  293MOL0     H40421   0.903   0.817   9.671 -1.0594  0.0269 -0.3689
  293MOL0     H40422   0.867   0.728  10.121  0.5847 -1.0733 -1.2183
  293MOL0     H40423   0.726   0.830  10.074  0.9502  0.5613  0.8159
  293MOL0     H40424   0.660   0.608  10.157  0.1662  0.2487 -0.2421
  293MOL0     H40425   0.765   0.524  10.052 -1.9892 -1.3211 -0.9837
  293MOL0     H40426   0.619   0.604   9.854 -2.9916 -1.3895 -0.9960
  293MOL0     H40427   0.535   0.509   9.969 -0.5694 -0.1737 -3.3152
  293MOL0     H40428   0.558   0.807   9.915  1.1378  1.0103  2.8907
  293MOL0     H40429   0.484   0.756  10.071  0.8637 -0.0566  0.2969
  293MOL0     H40430   0.210   0.650   9.755  2.8433 -1.6717 -2.3274
  293MOL0     H40431   0.945   0.951  10.078  1.4224  1.8850  0.3507
  293MOL0     H40432   1.110   1.152  10.116  2.0740  1.2207 -1.8058
  293MOL0     H40433   1.080   1.282  10.014  0.0077  1.4335  2.3987
  293MOL0     H40434   0.939   1.192  10.090  1.2535 -1.7973  1.5520
  294MOL0     O40435  11.429  10.046   9.847  0.7250  0.0256  0.4326
  294MOL0     C40436  11.410  10.006   9.734 -0.4247 -0.1780 -0.6400
  294MOL0     O40437  11.465   9.893   9.684 -0.2068  0.0840  0.0966
  294MOL0     C40438  11.583   9.836   9.731 -0.1860 -0.9002 -0.8034
  294MOL0     C40439  11.634   9.733   9.653  0.1570 -0.6242 -0.2018
  294MOL0     C40440  11.752   9.669   9.702 -0.7276 -0.5183 -0.1512
  294MOL0     C40441  11.827   9.704   9.817 -0.9344 -0.5944  0.2194
  294MOL0     O40442  11.941   9.632   9.861  0.1218  0.1933 -0.4594
  294MOL0     C40443  12.054   9.697   9.914 -0.0338 -0.5376 -0.3115
  294MOL0     C40444  12.168   9.604   9.923 -0.0033  0.4870  0.2616
  294MOL0     C40445  12.154   9.484  10.019  0.3272 -0.8029  0.8831
  294MOL0     C40446  12.217   9.366   9.948  0.2017 -0.0792 -0.3955
  294MOL0     C40447  12.207   9.229  10.014 -0.1285 -0.7547  0.1606
  294MOL0     C40448  12.279   9.217  10.156 -0.2157 -0.3991  0.3151
  294MOL0     C40449  12.302   9.086  10.224 -0.7132 -0.2517 -0.0543
  294MOL0     C40450  12.181   8.995  10.240  0.7045 -0.5542 -0.0125
  294MOL0     N40451  12.219   8.855  10.271  0.1387 -0.3576  0.1400
  294MOL0     C40452  12.308   8.782  10.199 -0.3566  0.4684 -0.0519
  294MOL0     C40453  12.318   8.673  10.282 -0.1544  0.2605 -0.2557
  294MOL0     C40454  12.435   8.576  10.266 -0.3840  0.4505 -0.2445
  294MOL0     C40455  12.570   8.618  10.332  1.1734 -0.5049  0.2743
  294MOL0     C40456  12.623   8.755  10.268  0.0152 -0.6551 -1.1556
  294MOL0     C40457  12.776   8.757  10.298  0.4278  0.3390 -0.3464
  294MOL0     O40458  12.834   8.639  10.246 -0.2724 -0.7184 -0.2216
  294MOL0     C40459  12.966   8.616  10.258  0.6688 -0.5967 -0.4502
  294MOL0     C40460  13.007   8.488  10.227 -0.4264 -0.2206  0.5827
  294MOL0     C40461  13.144   8.454  10.237 -0.7696  0.8462 -0.6241
  294MOL0     C40462  13.169   8.310  10.216 -0.0190  0.6480 -0.2837
  294MOL0     C40463  13.239   8.552  10.270  0.4371 -0.0920  0.3274
  294MOL0     C40464  13.386   8.526  10.280  0.1875 -1.2242 -0.3758
  294MOL0     O40465  13.453   8.638  10.334 -0.6039 -0.1425 -0.2134
  294MOL0     C40466  13.589   8.664  10.326 -0.5881 -0.2029  0.1393
  294MOL0     C40467  13.629   8.785  10.382  0.2563  0.5953  0.0182
  294MOL0     C40468  13.751   8.828  10.383 -0.2876 -0.1122  0.0393
  294MOL0     C40469  13.854   8.773  10.309  0.3997  0.5522  0.3045
  294MOL0     O40470  13.976   8.823  10.298 -0.2497 -0.7042  0.4908
  294MOL0     C40471  14.027   8.933  10.376 -0.2749 -0.4173 -0.6406
  294MOL0     C40472  14.185   8.942  10.375 -0.4337  0.0914  0.4578
  294MOL0     C40473  14.244   9.005  10.244  0.1988  0.4152 -0.0816
  294MOL0     C40474  14.382   9.068  10.262 -0.3563  0.6390  0.1484
  294MOL0     C40475  14.453   9.081  10.126  0.8043  1.1361 -0.5876
  294MOL0     C40476  14.590   9.131  10.151 -0.0887  1.2968 -0.3170
  294MOL0     C40477  14.668   9.199  10.031 -0.3808  0.1831  1.1845
  294MOL0     C40478  14.805   9.268  10.067  0.3903  0.3020 -0.4994
  294MOL0    Cl40479  14.774   9.435  10.131 -0.3047 -0.4759  0.3176
  294MOL0     C40480  13.823   8.646  10.263 -0.0804  0.1466  0.9528
  294MOL0     C40481  13.695   8.585  10.271  0.0027  0.1026 -0.7757
  294MOL0     O40482  13.440   8.424  10.228  0.6831  0.7591  0.1419
  294MOL0     C40483  13.190   8.686  10.297  0.6467 -0.4910  1.2219
  294MOL0     C40484  13.053   8.720  10.286  0.0651  0.2510 -0.2515
  294MOL0     N40485  12.238   8.686  10.398 -0.2233  0.1622 -0.3898
  294MOL0     N40486  12.181   8.797  10.385  0.3020 -0.0106 -0.3178
  294MOL0     C40487  11.785   9.815   9.881  0.1144 -0.5428 -0.1623
  294MOL0     C40488  11.666   9.877   9.837 -0.2447 -0.6753 -0.1248
  294MOL0     C40489  11.335  10.090   9.633  0.7317 -0.5054 -0.4470
  294MOL0     C40490  11.280  10.211   9.674 -0.6688  0.0176 -0.2335
  294MOL0     C40491  11.196  10.294   9.594 -0.5538  0.9844 -1.1729
  294MOL0     C40492  11.160  10.249   9.469 -0.0329 -0.6469  1.2710
  294MOL0     O40493  11.067  10.316   9.390 -0.1344 -0.0256 -0.5475
  294MOL0     C40494  10.934  10.261   9.376 -0.1889  0.7369  0.0699
  294MOL0     C40495  10.856  10.290   9.502  0.2215 -0.3631  0.0958
  294MOL0     C40496  10.779  10.418   9.495  0.0647  0.2488 -0.5643
  294MOL0     C40497  10.669  10.414   9.394 -0.2275  0.2562 -0.3852
  294MOL0     C40498  10.534  10.374   9.455 -0.2037 -0.4061 -0.1002
  294MOL0     C40499  10.426  10.336   9.493  0.0079 -0.4101 -0.1619
  294MOL0     C40500  11.222  10.134   9.423  0.0588  0.5709  0.4232
  294MOL0     C40501  11.310  10.053   9.495 -0.3674 -0.1811  0.6656
  294MOL0     C40502  11.367   9.936   9.415 -0.3996  0.3362  0.4904
  294MOL0     H40503  11.574   9.685   9.577  3.0176 -2.4153 -1.5405
  294MOL0     H40504  11.788   9.582   9.647 -2.3337 -1.5269  0.3301
  294MOL0     H40505  12.029   9.749  10.008  0.4523  1.0135 -1.0032
  294MOL0     H40506  12.077   9.773   9.839  0.7687 -0.9740 -0.5125
  294MOL0     H40507  12.185   9.580   9.818 -3.4978  0.3561 -0.3796
  294MOL0     H40508  12.259   9.658   9.953  0.5948 -0.4161  0.1185
  294MOL0     H40509  12.209   9.502  10.113  2.1781  0.2005 -0.3266
  294MOL0     H40510  12.051   9.458  10.045 -0.4381  1.1486 -0.1070
  294MOL0     H40511  12.164   9.364   9.853 -0.2416  3.0803 -0.3204
  294MOL0     H40512  12.320   9.370   9.912 -0.8698 -2.0158 -4.1683
  294MOL0     H40513  12.239   9.152   9.944 -0.1809 -2.7169  2.1736
  294MOL0     H40514  12.100   9.210  10.024 -0.9933 -0.0169 -4.9354
  294MOL0     H40515  12.381   9.256  10.152 -0.3000 -0.2128 -0.0934
  294MOL0     H40516  12.230   9.287  10.225 -0.5739 -0.1603 -0.1682
  294MOL0     H40517  12.345   9.102  10.323  1.6927 -0.0136 -1.0633
  294MOL0     H40518  12.369   9.031  10.157  0.5421  2.0892 -0.8309
  294MOL0     H40519  12.112   9.042  10.310  0.5390  0.7594 -1.0082
  294MOL0     H40520  12.125   9.004  10.147 -0.2827  0.7623  0.6706
  294MOL0     H40521  12.366   8.803  10.110 -0.4047  1.3681  0.1169
  294MOL0     H40522  12.464   8.570  10.161 -0.0823 -0.5083 -0.1125
  294MOL0     H40523  12.411   8.481  10.314  0.0270  1.1001  1.3311
  294MOL0     H40524  12.548   8.636  10.438  0.5318 -0.7122  0.1811
  294MOL0     H40525  12.640   8.535  10.325  0.4980 -0.9440 -2.4446
  294MOL0     H40526  12.599   8.756  10.161 -3.3918  1.1523 -0.5072
  294MOL0     H40527  12.584   8.840  10.325 -0.0301 -2.7996  2.2861
  294MOL0     H40528  12.823   8.838  10.242  1.2477  0.1496  0.0538
  294MOL0     H40529  12.792   8.769  10.406  0.3696  0.3529 -0.3395
  294MOL0     H40530  12.933   8.417  10.192  1.3296 -0.6924 -2.4817
  294MOL0     H40531  13.085   8.244  10.194  1.6170 -1.5905 -0.1684
  294MOL0     H40532  13.211   8.264  10.305 -0.7462 -1.2796 -0.8865
  294MOL0     H40533  13.233   8.287  10.129 -1.1558 -0.4005 -0.8767
  294MOL0     H40534  13.565   8.861  10.427  0.8784  0.0066  2.0100
  294MOL0     H40535  13.774   8.926  10.423  2.6235 -1.3632  1.7586
  294MOL0     H40536  13.976   9.020  10.333 -1.3435  0.5157  2.2379
  294MOL0     H40537  14.004   8.934  10.484  0.6364  1.1016 -0.4327
  294MOL0     H40538  14.213   9.011  10.454 -2.1135 -0.4103  1.5416
  294MOL0     H40539  14.225   8.842  10.394  0.3524 -0.4426 -3.1642
  294MOL0     H40540  14.172   9.079  10.208 -1.8516 -1.5129 -0.1884
  294MOL0     H40541  14.262   8.929  10.167 -0.3751 -1.4533  1.5495
  294MOL0     H40542  14.434   9.001  10.331  0.0830  0.4933 -0.3252
  294MOL0     H40543  14.365   9.167  10.306  0.3234  0.5744  0.5679
  294MOL0     H40544  14.453   8.986  10.072 -2.1745  0.2701  0.7590
  294MOL0     H40545  14.392   9.154  10.072  1.9102 -0.1675 -3.8005
  294MOL0     H40546  14.651   9.048  10.189 -0.5536 -0.3309 -2.8635
  294MOL0     H40547  14.588   9.195  10.240 -0.7292 -0.8808  1.3316
  294MOL0     H40548  14.604   9.271   9.979  1.2997  0.4110 -0.7003
  294MOL0     H40549  14.702   9.126   9.958 -0.1859  1.1589  0.2712
  294MOL0     H40550  14.876   9.268   9.983  0.9818 -3.2522 -0.1712
  294MOL0     H40551  14.843   9.209  10.151 -1.7604  0.4006  0.6109
  294MOL0     H40552  13.894   8.587  10.206 -2.0946 -2.3357  0.8255
  294MOL0     H40553  13.681   8.483  10.239  0.6440  0.3908 -2.0323
  294MOL0     H40554  13.253   8.763  10.339  1.8271 -0.0861 -1.1339
  294MOL0     H40555  13.030   8.824  10.305  0.0497  0.1584  0.2584
  294MOL0     H40556  11.837   9.853   9.968 -0.9225 -0.0695  0.2693
  294MOL0     H40557  11.650   9.964   9.900 -0.2019  0.7747 -2.0116
  294MOL0     H40558  11.317  10.251   9.768 -1.0522  3.7748 -1.5304
  294MOL0     H40559  11.153  10.376   9.649 -0.5421 -1.3331  2.7148
  294MOL0     H40560  10.888  10.303   9.286  2.4564 -0.4095 -1.9863
  294MOL0     H40561  10.947  10.153   9.360  1.1127  1.1363 -1.9979
  294MOL0     H40562  10.915  10.280   9.593  2.2271 -2.6519 -1.3057
  294MOL0     H40563  10.788  10.208   9.526  1.7139 -1.1306  2.0318
  294MOL0     H40564  10.732  10.449   9.589 -0.4492  2.4541 -1.4816
  294MOL0     H40565  10.849  10.501   9.479 -0.1331  0.6371  0.4942
  294MOL0     H40566  10.690  10.359   9.301 -1.6635  2.1402 -1.9160
  294MOL0     H40567  10.661  10.519   9.364 -2.0988  0.0800 -0.6310
  294MOL0     H40568  10.333  10.297   9.532  0.3486  0.1932  1.3408
  294MOL0     H40569  11.207  10.099   9.321  1.8561  2.4250 -0.5408
  294MOL0     H40570  11.474   9.921   9.431 -0.8646 -3.9225  0.8392
  294MOL0     H40571  11.319   9.846   9.457 -0.4378 -0.2834 -0.8316
  294MOL0     H40572  11.355   9.942   9.307  0.3450 -0.6595  0.3275
  295MOL0     O40573   9.788   8.596   7.243  0.0222 -0.4738 -0.5454
  295MOL0     C40574   9.746   8.554   7.137  0.7265 -0.2190  0.7745
  295MOL0     O40575   9.752   8.426   7.088 -0.5658 -0.2435  0.7374
  295MOL0     C40576   9.832   8.338   7.153 -0.5349  0.8220 -0.4047
  295MOL0     C40577   9.973   8.352   7.167  0.8363 -1.1156  0.1936
  295MOL0     C40578  10.054   8.260   7.230  0.0903 -0.7105 -0.7553
  295MOL0     C40579   9.991   8.148   7.286 -0.7216  0.3046  0.3487
  295MOL0     O40580  10.073   8.053   7.348 -0.4383  0.1510 -0.0477
  295MOL0     C40581  10.016   7.930   7.404 -0.0478 -0.4026 -0.3899
  295MOL0     C40582  10.128   7.842   7.483 -0.4043 -0.4051  0.8922
  295MOL0     C40583  10.193   7.922   7.594 -0.3975 -1.2764  0.5378
  295MOL0     C40584  10.295   7.851   7.661  0.8198 -0.9893  0.0591
  295MOL0     C40585  10.244   7.766   7.778  0.2915  0.3161  0.6510
  295MOL0     C40586  10.349   7.663   7.831  0.1601 -0.0716 -0.1069
  295MOL0     C40587  10.288   7.560   7.927  0.8597 -0.5981  0.7343
  295MOL0     C40588  10.403   7.496   8.023 -0.0090  0.3307 -0.2206
  295MOL0     N40589  10.486   7.391   7.961 -0.7312 -0.3950  0.1212
  295MOL0     C40590  10.609   7.400   7.898  1.0082 -0.2275  0.7032
  295MOL0     C40591  10.638   7.278   7.860  0.1837 -0.2648 -0.4436
  295MOL0     C40592  10.761   7.233   7.782 -0.1633 -0.3378  0.2550
  295MOL0     C40593  10.837   7.114   7.853 -0.5736 -0.8718  0.5842
  295MOL0     C40594  10.988   7.124   7.794 -0.3014  0.1888  0.7943
  295MOL0     C40595  11.084   7.018   7.866 -0.2212 -0.0603  0.4554
  295MOL0     O40596  11.214   7.041   7.797  0.1860 -0.3506  0.1980
  295MOL0     C40597  11.313   6.955   7.817  0.4447  0.5169 -0.3099
  295MOL0     C40598  11.383   6.953   7.944  0.7312  0.4902 -0.3908
  295MOL0     C40599  11.483   6.863   7.976  0.1595  0.9642 -0.7950
  295MOL0     C40600  11.555   6.880   8.113 -0.0962  0.5405  0.2199
  295MOL0     C40601  11.520   6.765   7.880 -0.6138 -0.6239  0.9310
  295MOL0     C40602  11.620   6.657   7.901  0.7734 -1.0851  0.1186
  295MOL0     O40603  11.717   6.635   7.805  0.2214 -0.2177 -0.2170
  295MOL0     C40604  11.817   6.540   7.799  0.7638  0.6549 -0.7180
  295MOL0     C40605  11.839   6.449   7.897 -0.0460  0.4413 -0.2009
  295MOL0     C40606  11.942   6.349   7.882 -0.0526 -0.6085  0.3148
  295MOL0     C40607  12.019   6.345   7.770 -0.3742 -0.8050  0.2866
  295MOL0     O40608  12.109   6.250   7.745  0.1023  0.1039  0.3492
  295MOL0     C40609  12.052   6.122   7.742 -0.0792  0.2504  1.1771
  295MOL0     C40610  12.061   6.047   7.879  0.2420 -0.2307  0.0166
  295MOL0     C40611  12.041   5.906   7.844 -0.5972 -0.9329  1.1213
  295MOL0     C40612  12.030   5.825   7.974 -0.3364 -0.5809 -0.5211
  295MOL0     C40613  12.028   5.674   7.937  0.0708  0.5058  0.0059
  295MOL0     C40614  11.982   5.576   8.045  1.0243 -0.8607  0.1474
  295MOL0     C40615  11.836   5.596   8.080  0.2912  0.1726  0.6971
  295MOL0     C40616  11.803   5.505   8.197  0.0783 -0.5149  0.0639
  295MOL0    Cl40617  11.640   5.520   8.253 -0.2212 -0.3337  0.0983
  295MOL0     C40618  11.996   6.441   7.669 -0.2287 -0.0160 -0.2309
  295MOL0     C40619  11.892   6.533   7.679  1.2714 -0.5008 -0.4364
  295MOL0     O40620  11.618   6.600   8.008  0.0853 -0.1994 -0.7984
  295MOL0     C40621  11.467   6.775   7.749  0.3280 -0.2315 -0.0052
  295MOL0     C40622  11.363   6.863   7.719  0.0604  0.6122  0.0237
  295MOL0     N40623  10.541   7.185   7.919 -0.5221  0.5928  0.3785
  295MOL0     N40624  10.456   7.259   7.973 -0.7733  0.5398 -0.0391
  295MOL0     C40625   9.855   8.121   7.275  0.7197 -0.3168  0.3679
  295MOL0     C40626   9.780   8.212   7.192  0.3090 -0.3766 -0.5766
  295MOL0     C40627   9.667   8.661   7.058 -0.8587  1.0517  0.4254
  295MOL0     C40628   9.534   8.633   7.047  0.5064 -0.6866  0.1401
  295MOL0     C40629   9.452   8.708   6.961 -0.7506  0.7436  0.8206
  295MOL0     C40630   9.505   8.823   6.906  0.7799 -0.9951 -0.3219
  295MOL0     O40631   9.438   8.907   6.812 -0.9306  0.6277  0.3644
  295MOL0     C40632   9.313   8.861   6.763  0.5644  0.3265 -0.2364
  295MOL0     C40633   9.270   8.971   6.669 -0.4090 -0.7845  0.3357
  295MOL0     C40634   9.244   9.115   6.721  0.6126  0.5996 -0.0921
  295MOL0     C40635   9.111   9.120   6.812 -0.6072  0.8086  0.6968
  295MOL0     C40636   9.081   9.260   6.840  0.5339  0.0123 -0.1442
  295MOL0     C40637   9.067   9.376   6.872  0.0852 -0.0227 -0.2840
  295MOL0     C40638   9.629   8.874   6.938  0.5530  1.4897  0.0581
  295MOL0     C40639   9.714   8.778   7.006  0.5265 -1.3989  0.4095
  295MOL0     C40640   9.853   8.820   7.010 -0.1137 -0.1568  0.3593
  295MOL0     H40641  10.017   8.447   7.140 -0.6289 -0.5189 -0.1732
  295MOL0     H40642  10.162   8.274   7.231  0.4128 -2.7258 -1.9123
  295MOL0     H40643   9.973   7.870   7.323  2.2005 -1.8760 -0.5702
  295MOL0     H40644   9.937   7.964   7.471 -1.6229  0.6825 -2.6538
  295MOL0     H40645  10.081   7.749   7.517 -0.2629 -1.1593 -0.8947
  295MOL0     H40646  10.199   7.809   7.407 -0.7206  0.8173  0.0252
  295MOL0     H40647  10.243   8.009   7.550  0.9153 -1.1656  2.1488
  295MOL0     H40648  10.122   7.955   7.671  1.6114 -0.6270  2.2102
  295MOL0     H40649  10.358   7.795   7.590  1.0059  0.9005 -1.3509
  295MOL0     H40650  10.371   7.921   7.699  1.0348 -2.0907  1.7505
  295MOL0     H40651  10.153   7.715   7.745  0.4679  0.8827 -0.7998
  295MOL0     H40652  10.213   7.833   7.859  2.9120  2.1552  0.2908
  295MOL0     H40653  10.391   7.622   7.739 -1.5792 -0.6529 -0.6856
  295MOL0     H40654  10.433   7.718   7.875  0.4627  0.4599 -1.3067
  295MOL0     H40655  10.234   7.485   7.867 -3.3874  1.6753  1.3162
  295MOL0     H40656  10.213   7.613   7.987 -0.9153 -1.0656 -0.9507
  295MOL0     H40657  10.467   7.578   8.057  1.1123 -0.8302  0.5433
  295MOL0     H40658  10.355   7.456   8.113 -2.0225  1.7809 -0.5784
  295MOL0     H40659  10.663   7.493   7.880 -0.2531  0.0021 -2.6884
  295MOL0     H40660  10.836   7.313   7.778 -0.1560 -0.3488 -2.7764
  295MOL0     H40661  10.730   7.212   7.679 -2.3552  0.1342  0.7634
  295MOL0     H40662  10.846   7.135   7.960 -1.0868 -0.1451  0.4900
  295MOL0     H40663  10.790   7.016   7.842 -1.0546 -0.4785 -1.2410
  295MOL0     H40664  10.990   7.094   7.688  1.6178 -2.0504  1.3646
  295MOL0     H40665  11.038   7.220   7.800  2.4405 -1.1318  0.6320
  295MOL0     H40666  11.096   7.038   7.972  0.7098  0.9477  0.1830
  295MOL0     H40667  11.045   6.917   7.851  1.0203 -0.5192  0.2184
  295MOL0     H40668  11.353   7.032   8.012  0.6959  1.2448 -1.2592
  295MOL0     H40669  11.483   6.864   8.193  0.6955  0.0740  0.8581
  295MOL0     H40670  11.584   6.984   8.134  0.5681  0.6027 -0.9352
  295MOL0     H40671  11.642   6.815   8.120 -2.0567 -2.0302  2.7475
  295MOL0     H40672  11.780   6.456   7.989 -0.8215  2.9408 -0.7900
  295MOL0     H40673  11.965   6.288   7.968  0.4552  0.3111  0.8438
  295MOL0     H40674  11.953   6.130   7.696  1.2118 -0.0024 -1.8501
  295MOL0     H40675  12.107   6.066   7.666 -0.3639 -0.5233  1.5294
  295MOL0     H40676  12.150   6.067   7.940 -0.3123 -2.0083  1.5072
  295MOL0     H40677  11.980   6.072   7.948  0.7484 -0.6041  0.7638
  295MOL0     H40678  12.127   5.880   7.782 -0.2709  1.0318  0.6676
  295MOL0     H40679  11.950   5.896   7.783 -0.7952  2.7730  0.5367
  295MOL0     H40680  11.942   5.858   8.028  0.4854  1.5870 -0.4018
  295MOL0     H40681  12.113   5.835   8.044 -2.2696  1.3052  1.6533
  295MOL0     H40682  11.974   5.654   7.844  1.4311  0.2589 -0.7559
  295MOL0     H40683  12.132   5.649   7.918 -0.1680 -1.2425  0.8326
  295MOL0     H40684  12.031   5.584   8.142 -0.5965 -2.8062  1.2345
  295MOL0     H40685  12.005   5.475   8.010 -0.5959 -0.5341 -2.0472
  295MOL0     H40686  11.778   5.571   7.990  1.9728  2.0018 -0.9957
  295MOL0     H40687  11.814   5.699   8.107  1.7323  0.6273  0.2037
  295MOL0     H40688  11.864   5.539   8.281  1.9929 -2.4141 -0.4531
  295MOL0     H40689  11.835   5.404   8.172  2.3086 -0.6526  2.9334
  295MOL0     H40690  12.052   6.446   7.577 -0.8604 -0.3324 -0.6403
  295MOL0     H40691  11.896   6.610   7.602  0.9200 -0.2293 -0.1884
  295MOL0     H40692  11.495   6.701   7.675  0.1676 -1.4447  1.1170
  295MOL0     H40693  11.316   6.866   7.621 -1.8826 -0.0885  0.8858
  295MOL0     H40694   9.800   8.041   7.323 -0.8542  1.5436  1.8677
  295MOL0     H40695   9.672   8.204   7.183  0.1293  1.0998 -0.0058
  295MOL0     H40696   9.486   8.547   7.093 -1.5113  0.9044  1.2370
  295MOL0     H40697   9.356   8.664   6.937  1.0746 -1.6356 -3.1681
  295MOL0     H40698   9.314   8.769   6.704 -2.9767  0.8744 -1.3547
  295MOL0     H40699   9.238   8.845   6.841  0.4858  1.8114  0.0230
  295MOL0     H40700   9.170   8.944   6.635 -1.5430  4.5762 -1.5991
  295MOL0     H40701   9.347   8.980   6.592 -0.4669 -0.7142  0.2853
  295MOL0     H40702   9.330   9.155   6.775  0.0879  1.6860 -0.0394
  295MOL0     H40703   9.225   9.184   6.638 -3.0916  0.6841  0.6653
  295MOL0     H40704   9.123   9.067   6.906  0.0477  1.0511  0.7500
  295MOL0     H40705   9.034   9.066   6.756  3.1361 -1.2134 -3.0150
  295MOL0     H40706   9.047   9.481   6.879 -0.3610 -0.0634 -0.8624
  295MOL0     H40707   9.674   8.964   6.897  0.5172  0.9618 -1.2043
  295MOL0     H40708   9.861   8.915   7.063 -0.2039  0.9384 -1.5166
  295MOL0     H40709   9.907   8.746   7.070  0.9639  2.8708  3.4999
  295MOL0     H40710   9.896   8.824   6.910 -1.6165  1.3418 -0.2853
  296MOL0     O40711   0.559   5.417   5.792  1.0599  0.5498 -0.4630
  296MOL0     C40712   0.507   5.312   5.837 -0.4459 -0.2424  0.0523
  296MOL0     O40713   0.570   5.186   5.830  0.0478  0.3863  0.0930
  296MOL0     C40714   0.683   5.176   5.748 -0.4552  0.2304  0.5805
  296MOL0     C40715   0.661   5.119   5.622 -0.6381  0.0705 -0.5002
  296MOL0     C40716   0.764   5.113   5.527 -0.2739  0.5615 -0.1579
  296MOL0     C40717   0.895   5.146   5.566  0.3435 -0.4663  0.2859
  296MOL0     O40718   0.980   5.129   5.451 -0.3580 -0.0705 -0.4042
  296MOL0     C40719   1.116   5.113   5.479  0.7621  1.0088  0.8621
  296MOL0     C40720   1.177   5.066   5.357 -0.5360 -0.2742 -0.2385
  296MOL0     C40721   1.327   5.060   5.348 -1.1821 -0.2026  0.2812
  296MOL0     C40722   1.401   5.199   5.385  0.6332  0.1004 -0.0799
  296MOL0     C40723   1.552   5.176   5.372 -0.2489 -0.6122 -0.2032
  296MOL0     C40724   1.631   5.311   5.360  0.2155  0.6933  0.3348
  296MOL0     C40725   1.618   5.395   5.485 -0.2649  1.2726  0.0122
  296MOL0     C40726   1.675   5.333   5.611  0.9566  0.2660 -0.0217
  296MOL0     N40727   1.822   5.328   5.590  0.2399  0.9240  0.6599
  296MOL0     C40728   1.910   5.432   5.599  0.1776 -0.3480  0.5867
  296MOL0     C40729   2.028   5.385   5.568  0.1377  0.1629 -0.2444
  296MOL0     C40730   2.160   5.456   5.560  0.3843 -1.4255 -0.0173
  296MOL0     C40731   2.258   5.397   5.661 -0.4371 -0.0948  0.0910
  296MOL0     C40732   2.316   5.257   5.631 -0.2116  0.0206  0.0176
  296MOL0     C40733   2.461   5.234   5.670  0.4554  0.0451  0.3536
  296MOL0     O40734   2.544   5.323   5.598 -0.0766 -0.3061 -0.5312
  296MOL0     C40735   2.678   5.333   5.639  0.4803 -0.0683  0.1308
  296MOL0     C40736   2.754   5.401   5.552  0.2935  0.3862 -0.2700
  296MOL0     C40737   2.892   5.422   5.571  0.5761  0.0906  0.0046
  296MOL0     C40738   2.957   5.481   5.444  0.2310  0.3896 -0.0277
  296MOL0     C40739   2.955   5.365   5.683  0.0994 -0.2269 -0.2364
  296MOL0     C40740   3.096   5.401   5.728  1.5744  0.3008  0.4670
  296MOL0     O40741   3.132   5.356   5.854 -0.1343 -0.0130 -0.3903
  296MOL0     C40742   3.264   5.362   5.905  0.3244 -0.2901  0.0256
  296MOL0     C40743   3.377   5.356   5.823 -0.6182  0.5580 -0.0790
  296MOL0     C40744   3.510   5.356   5.871 -0.3080  0.3465 -0.7783
  296MOL0     C40745   3.533   5.349   6.005 -0.9548 -0.1385 -0.3352
  296MOL0     O40746   3.668   5.337   6.048  0.1258 -0.3604  0.6134
  296MOL0     C40747   3.690   5.392   6.180 -1.1077 -0.3770  0.5402
  296MOL0     C40748   3.834   5.411   6.214 -0.4286 -0.0164  0.1068
  296MOL0     C40749   3.933   5.291   6.191 -0.5546  0.1984 -0.0302
  296MOL0     C40750   3.886   5.154   6.249  0.3667 -0.9082 -0.3793
  296MOL0     C40751   4.002   5.054   6.265 -0.4726 -0.1626 -0.7988
  296MOL0     C40752   4.115   5.094   6.372  0.8449  0.7180  0.6804
  296MOL0     C40753   4.198   4.971   6.386 -0.4111  0.9581  0.2850
  296MOL0     C40754   4.286   4.948   6.261  0.8294  0.1125  0.3604
  296MOL0    Cl40755   4.352   4.792   6.274 -0.1235  0.7382  0.1428
  296MOL0     C40756   3.422   5.365   6.095 -0.5559 -0.2529 -0.4165
  296MOL0     C40757   3.290   5.359   6.041  0.1051  0.5421  0.3449
  296MOL0     O40758   3.162   5.465   5.650  0.1747  0.2634 -0.2578
  296MOL0     C40759   2.873   5.301   5.780  0.1787  0.0813 -0.7730
  296MOL0     C40760   2.738   5.278   5.753  0.6447 -0.4763  0.8041
  296MOL0     N40761   2.018   5.251   5.555 -0.6670  0.0019 -0.0589
  296MOL0     N40762   1.893   5.215   5.572  0.0301  0.1227 -0.7535
  296MOL0     C40763   0.920   5.200   5.696  0.1741  0.3517  0.2293
  296MOL0     C40764   0.812   5.219   5.784 -0.3435 -0.0144  0.2474
  296MOL0     C40765   0.372   5.323   5.901 -0.2804 -0.7807  0.5401
  296MOL0     C40766   0.354   5.445   5.961 -0.2099 -0.3476  0.2981
  296MOL0     C40767   0.220   5.486   6.003 -0.0473  0.6133 -0.3205
  296MOL0     C40768   0.114   5.394   5.985  0.4385 -0.5826 -0.5085
  296MOL0     O40769  -0.017   5.413   6.002 -0.6145  0.4171  0.0460
  296MOL0     C40770  -0.055   5.548   6.044 -0.3025  0.4865  0.3255
  296MOL0     C40771  -0.204   5.547   6.040 -0.7578  0.2341  0.8256
  296MOL0     C40772  -0.258   5.506   5.900  0.8850  0.1998 -0.4414
  296MOL0     C40773  -0.404   5.520   5.880 -0.0291 -0.0292 -0.1892
  296MOL0     C40774  -0.462   5.434   5.774 -0.1159  0.4807  1.0512
  296MOL0     C40775  -0.499   5.373   5.677 -0.1818  0.0314  0.2378
  296MOL0     C40776   0.141   5.264   5.942 -0.4544 -0.0805  0.4472
  296MOL0     C40777   0.267   5.229   5.893  0.0358 -0.5072 -0.5382
  296MOL0     C40778   0.287   5.087   5.846  0.5814  0.0126  0.5092
  296MOL0     H40779   0.555   5.105   5.602 -0.4831 -0.6495 -0.8468
  296MOL0     H40780   0.733   5.076   5.430  0.2822  0.9042 -0.4705
  296MOL0     H40781   1.126   5.043   5.562 -0.1966 -0.2318 -0.0245
  296MOL0     H40782   1.165   5.206   5.510  0.3791  1.5280 -0.0250
  296MOL0     H40783   1.136   4.965   5.346 -0.2797 -0.4958  0.7041
  296MOL0     H40784   1.129   5.121   5.276 -0.0993  2.1440  1.0421
  296MOL0     H40785   1.364   4.979   5.411  0.0503  0.3282  0.2571
  296MOL0     H40786   1.339   5.023   5.245  0.2806  1.2444 -0.1051
  296MOL0     H40787   1.367   5.279   5.319  1.9790 -0.5729 -1.6515
  296MOL0     H40788   1.372   5.235   5.484 -1.8249 -1.7436 -0.0210
  296MOL0     H40789   1.574   5.131   5.274 -1.6979  0.6511 -1.1597
  296MOL0     H40790   1.589   5.110   5.450 -0.8038 -0.3398  0.3018
  296MOL0     H40791   1.734   5.290   5.329 -0.4141 -1.0327 -0.7645
  296MOL0     H40792   1.588   5.372   5.281  0.8928  1.6523  0.6962
  296MOL0     H40793   1.510   5.416   5.491 -0.7492 -0.8970 -0.4836
  296MOL0     H40794   1.672   5.490   5.474  1.6650  0.6367  2.9526
  296MOL0     H40795   1.644   5.400   5.692 -2.1456 -0.4820 -0.4553
  296MOL0     H40796   1.630   5.233   5.616  1.2310 -0.0942 -2.9519
  296MOL0     H40797   1.878   5.536   5.607 -1.0469 -0.7930  1.9287
  296MOL0     H40798   2.148   5.563   5.577 -1.2964 -1.5029 -0.5502
  296MOL0     H40799   2.200   5.459   5.459  2.7789 -1.5077  0.8583
  296MOL0     H40800   2.342   5.467   5.662  0.9060 -1.5889 -1.2326
  296MOL0     H40801   2.206   5.389   5.757 -1.3001  1.0255 -0.2591
  296MOL0     H40802   2.250   5.180   5.674  0.3856 -1.9948 -2.4688
  296MOL0     H40803   2.309   5.243   5.523 -1.1509  0.8667 -0.0490
  296MOL0     H40804   2.473   5.260   5.776 -2.3361  3.5798 -0.0177
  296MOL0     H40805   2.497   5.133   5.651  2.0218  0.7556 -0.6930
  296MOL0     H40806   2.711   5.429   5.457 -0.8729  1.6636  0.5983
  296MOL0     H40807   2.934   5.585   5.421  1.1003  0.1374 -2.3272
  296MOL0     H40808   2.907   5.436   5.357 -2.6975  2.2365  0.5558
  296MOL0     H40809   3.065   5.469   5.437  0.6405  3.0574  0.6576
  296MOL0     H40810   3.365   5.364   5.716  0.9252 -1.5893 -0.4868
  296MOL0     H40811   3.592   5.340   5.802 -0.4682  0.6310 -1.0382
  296MOL0     H40812   3.649   5.493   6.194 -0.1522 -0.1343  1.7836
  296MOL0     H40813   3.649   5.333   6.262 -2.0453  1.0839  1.1772
  296MOL0     H40814   3.877   5.499   6.165  1.3841 -0.8410  0.1170
  296MOL0     H40815   3.845   5.449   6.316 -1.4687  0.4972  0.0352
  296MOL0     H40816   4.037   5.315   6.213  0.8989 -1.5304 -4.0807
  296MOL0     H40817   3.928   5.271   6.084  0.4479  0.9432 -0.2346
  296MOL0     H40818   3.810   5.112   6.183  0.4527 -3.1294  0.8427
  296MOL0     H40819   3.840   5.155   6.348  0.3240 -2.0037 -0.3838
  296MOL0     H40820   3.966   4.952   6.285  1.4457 -0.9911 -1.3603
  296MOL0     H40821   4.040   5.048   6.163 -0.6753 -0.6874 -0.8476
  296MOL0     H40822   4.067   5.113   6.469  0.8598  0.0902  0.8125
  296MOL0     H40823   4.165   5.188   6.345 -0.7343  0.5863 -3.3703
  296MOL0     H40824   4.130   4.887   6.400 -0.5629  0.3994 -3.0780
  296MOL0     H40825   4.272   4.984   6.466  1.8253 -0.4821 -1.4179
  296MOL0     H40826   4.362   5.026   6.250  0.4150  0.5368  0.4652
  296MOL0     H40827   4.224   4.947   6.171  1.6435  1.7335 -0.2553
  296MOL0     H40828   3.443   5.377   6.200  0.6271 -0.1007 -0.6514
  296MOL0     H40829   3.200   5.355   6.101 -1.6176  1.7098 -1.9746
  296MOL0     H40830   2.931   5.272   5.866  0.8711  1.9114 -0.5802
  296MOL0     H40831   2.675   5.213   5.814 -0.1624 -0.1618  0.3283
  296MOL0     H40832   1.019   5.225   5.733  0.9390 -3.6907  1.3616
  296MOL0     H40833   0.847   5.274   5.870  3.6029  1.4718 -2.0449
  296MOL0     H40834   0.433   5.519   5.969 -1.2239  0.6438  1.4432
  296MOL0     H40835   0.217   5.583   6.051  4.1411  0.7476  0.0397
  296MOL0     H40836  -0.010   5.565   6.143  1.0295 -0.1824 -0.1382
  296MOL0     H40837  -0.014   5.621   5.974  0.4109  2.9922  3.1266
  296MOL0     H40838  -0.235   5.650   6.062  1.5323  1.7661 -2.3467
  296MOL0     H40839  -0.236   5.485   6.124  1.0255 -2.1480 -0.1362
  296MOL0     H40840  -0.216   5.558   5.813 -3.8047  1.4076 -2.2646
  296MOL0     H40841  -0.233   5.399   5.902 -2.5487 -0.7009  1.0559
  296MOL0     H40842  -0.420   5.628   5.878  0.8352  0.0951 -1.4069
  296MOL0     H40843  -0.460   5.484   5.967  0.8394 -0.1803  0.3170
  296MOL0     H40844  -0.519   5.329   5.582 -0.2516  2.4719 -0.9566
  296MOL0     H40845   0.063   5.190   5.924 -0.8958  0.8654 -1.8904
  296MOL0     H40846   0.361   5.034   5.907  0.1047 -0.8464  0.3710
  296MOL0     H40847   0.196   5.027   5.863 -0.6462  0.7306 -2.7790
  296MOL0     H40848   0.301   5.091   5.738 -0.6875 -1.5478  0.2497
  297MOL0     O40849   8.235   2.137   5.718 -0.0090 -0.3704 -0.4201
  297MOL0     C40850   8.244   2.190   5.836 -0.4565  0.7486  0.5989
  297MOL0     O40851   8.350   2.252   5.879 -0.4049 -0.0687 -0.0665
  297MOL0     C40852   8.462   2.239   5.802  0.2822  0.0642 -0.0118
  297MOL0     C40853   8.525   2.357   5.769 -0.3478  0.5364  0.4425
  297MOL0     C40854   8.639   2.347   5.685  0.9050 -0.5432  0.0342
  297MOL0     C40855   8.697   2.227   5.647  0.4681  0.7292 -0.0991
  297MOL0     O40856   8.804   2.233   5.568 -0.3517  0.2813  0.4966
  297MOL0     C40857   8.830   2.118   5.480 -0.6897  0.0448  0.1708
  297MOL0     C40858   8.905   2.174   5.361 -0.3168  0.7915 -0.0888
  297MOL0     C40859   8.956   2.057   5.271  0.0090 -1.3564  0.5186
  297MOL0     C40860   9.026   2.116   5.145  0.9535  0.1853  0.5826
  297MOL0     C40861   9.073   2.010   5.052  0.7566  0.1310 -0.4400
  297MOL0     C40862   9.148   2.059   4.924  0.1582  0.0626 -0.3958
  297MOL0     C40863   9.198   1.942   4.839 -0.4047  0.5202 -0.3433
  297MOL0     C40864   9.242   1.972   4.698  0.1425 -0.1957  0.4647
  297MOL0     N40865   9.254   1.841   4.625  0.3423  0.5344 -0.3304
  297MOL0     C40866   9.153   1.774   4.557 -0.3862 -1.2661 -0.6761
  297MOL0     C40867   9.227   1.678   4.482 -0.1079  0.1609 -0.0513
  297MOL0     C40868   9.164   1.599   4.384 -0.1906  0.2425  0.2157
  297MOL0     C40869   9.072   1.686   4.288 -0.1719  1.2918  0.3783
  297MOL0     C40870   9.146   1.779   4.194  0.6748 -0.2212  0.9288
  297MOL0     C40871   9.051   1.838   4.089  0.4331 -2.0354 -0.6693
  297MOL0     O40872   9.108   1.968   4.044 -0.0997  0.7797  0.5427
  297MOL0     C40873   9.213   1.971   3.949  0.5478  0.5542  0.0611
  297MOL0     C40874   9.268   2.092   3.916 -0.5932 -0.7934  0.1057
  297MOL0     C40875   9.371   2.112   3.822  0.0186  0.0221  0.2247
  297MOL0     C40876   9.425   2.252   3.798  0.0124  0.3787 -0.1401
  297MOL0     C40877   9.426   1.994   3.758  0.7129  1.1116 -0.4962
  297MOL0     C40878   9.528   1.988   3.650  0.5395 -0.7274  0.6176
  297MOL0     O40879   9.582   1.862   3.632  0.4374 -0.5104 -0.0681
  297MOL0     C40880   9.677   1.844   3.538  0.0722  0.5594 -0.7353
  297MOL0     C40881   9.794   1.920   3.529 -1.1553  0.5354 -0.3468
  297MOL0     C40882   9.907   1.885   3.443  0.8070  0.0077 -0.2150
  297MOL0     C40883   9.898   1.768   3.369 -0.0114  0.3140  0.0298
  297MOL0     O40884  10.005   1.712   3.298  1.3770 -0.2372  0.0517
  297MOL0     C40885  10.138   1.766   3.324  0.5884 -0.6701  1.6302
  297MOL0     C40886  10.243   1.689   3.228  0.8458  0.3907 -0.2860
  297MOL0     C40887  10.269   1.548   3.289  0.6289  0.0284 -0.0459
  297MOL0     C40888  10.344   1.465   3.191  0.2622 -0.2184  0.5664
  297MOL0     C40889  10.376   1.327   3.252  0.5937  0.4032 -1.5351
  297MOL0     C40890  10.260   1.262   3.332  0.0943 -0.2875  0.2560
  297MOL0     C40891  10.142   1.243   3.243  0.0603  0.0644 -0.1379
  297MOL0     C40892  10.014   1.176   3.312  0.0678 -0.0082  0.1666
  297MOL0    Cl40893   9.859   1.189   3.219 -0.7777  0.3031  0.3326
  297MOL0     C40894   9.783   1.691   3.384 -0.1807 -0.8338 -1.0522
  297MOL0     C40895   9.676   1.727   3.471  0.1394  0.2096 -0.2714
  297MOL0     O40896   9.557   2.084   3.577  0.0305 -0.3248  0.0545
  297MOL0     C40897   9.368   1.874   3.796  0.5201  1.5618 -0.2592
  297MOL0     C40898   9.268   1.859   3.893  0.1319  0.8566 -0.3454
  297MOL0     N40899   9.358   1.693   4.507 -0.6773  0.0938 -0.3290
  297MOL0     N40900   9.378   1.787   4.586 -0.6627  0.0340 -0.1987
  297MOL0     C40901   8.644   2.108   5.701  0.0512  0.2083  0.0563
  297MOL0     C40902   8.525   2.112   5.770  0.4392 -0.4808 -0.7912
  297MOL0     C40903   8.125   2.185   5.926  0.5502 -0.5335  0.4519
  297MOL0     C40904   8.098   2.291   6.024  0.8357 -0.3308  0.0486
  297MOL0     C40905   7.976   2.288   6.086  0.0596 -0.1629 -0.6585
  297MOL0     C40906   7.886   2.178   6.075  0.0428 -0.1989 -0.0614
  297MOL0     O40907   7.781   2.184   6.153  0.4234 -0.1120 -0.3276
  297MOL0     C40908   7.700   2.070   6.194 -0.3862  0.1014  0.5803
  297MOL0     C40909   7.571   2.125   6.261  0.4589 -0.1772 -0.1390
  297MOL0     C40910   7.607   2.171   6.408 -0.4153  0.4165 -0.1361
  297MOL0     C40911   7.487   2.242   6.473 -0.1167  0.2258  0.1488
  297MOL0     C40912   7.488   2.226   6.624 -1.2290  0.5849  0.2153
  297MOL0     C40913   7.483   2.200   6.743  0.1125  0.2599 -0.0801
  297MOL0     C40914   7.919   2.068   6.004  0.0461 -0.7255  0.0206
  297MOL0     C40915   8.032   2.073   5.915 -0.5096 -0.2317 -0.3776
  297MOL0     C40916   8.051   1.953   5.831  0.1833  0.4982  0.1422
  297MOL0     H40917   8.486   2.457   5.781  0.8337  1.0546  0.1519
  297MOL0     H40918   8.697   2.431   5.647  0.1895 -0.7422 -1.5928
  297MOL0     H40919   8.740   2.065   5.448 -1.9969  1.9805  0.4986
  297MOL0     H40920   8.904   2.058   5.533  0.4855  0.4807 -0.9114
  297MOL0     H40921   8.837   2.239   5.304 -0.9920  1.5274  1.4984
  297MOL0     H40922   8.995   2.230   5.389 -0.3697  2.4385 -2.8360
  297MOL0     H40923   9.032   2.000   5.325  1.0394  2.0048  2.9610
  297MOL0     H40924   8.868   1.999   5.240 -0.1702  0.5083 -2.9837
  297MOL0     H40925   8.964   2.184   5.086  0.5452 -0.9289 -0.3085
  297MOL0     H40926   9.113   2.164   5.192 -1.6391  3.6850  2.1707
  297MOL0     H40927   8.993   1.946   5.014  0.2456 -0.9260  2.2593
  297MOL0     H40928   9.129   1.941   5.115  2.2564 -1.6784 -3.5082
  297MOL0     H40929   9.101   2.139   4.867  1.3810  0.8146 -0.3873
  297MOL0     H40930   9.239   2.108   4.961 -0.1250  1.9407 -2.0519
  297MOL0     H40931   9.125   1.861   4.833 -0.3749  0.4635  0.0188
  297MOL0     H40932   9.291   1.908   4.886  0.2033  1.6043 -0.7374
  297MOL0     H40933   9.167   2.029   4.643  0.0081 -1.6334 -0.9080
  297MOL0     H40934   9.334   2.032   4.693  0.1027 -0.2165 -1.8772
  297MOL0     H40935   9.055   1.820   4.566  0.0976 -0.4514  0.8393
  297MOL0     H40936   9.104   1.519   4.428  0.2328 -0.2473 -0.0897
  297MOL0     H40937   9.239   1.544   4.326 -0.6643 -1.8080  1.4223
  297MOL0     H40938   9.016   1.614   4.227  0.2096  1.1322  0.2098
  297MOL0     H40939   8.992   1.738   4.341 -0.7866  0.3580  0.4026
  297MOL0     H40940   9.177   1.869   4.249  3.3877  0.4559 -1.4618
  297MOL0     H40941   9.234   1.728   4.153 -0.1202 -0.0300 -1.1216
  297MOL0     H40942   9.032   1.776   4.001  1.2740 -1.1548 -1.4989
  297MOL0     H40943   8.952   1.847   4.134  1.3197 -3.1737  1.7158
  297MOL0     H40944   9.232   2.180   3.968 -0.5228 -0.3293 -0.6302
  297MOL0     H40945   9.395   2.301   3.891 -1.3455 -1.4875  0.4674
  297MOL0     H40946   9.364   2.284   3.713 -1.1788 -5.1215 -1.7303
  297MOL0     H40947   9.533   2.260   3.785  0.2710 -0.8769  1.0299
  297MOL0     H40948   9.808   2.013   3.582 -0.9720  1.5570 -2.0924
  297MOL0     H40949   9.983   1.963   3.450  0.8300  0.0193 -0.5793
  297MOL0     H40950  10.148   1.875   3.311  1.7819 -0.9271  0.0121
  297MOL0     H40951  10.159   1.743   3.429 -0.0091 -0.7977  1.7239
  297MOL0     H40952  10.206   1.686   3.126  0.7702  0.4053 -0.2592
  297MOL0     H40953  10.336   1.745   3.219  1.0033 -0.0745 -1.8928
  297MOL0     H40954  10.176   1.504   3.325  0.7571 -1.6183 -1.5870
  297MOL0     H40955  10.324   1.558   3.384 -0.2157 -2.2414  0.7504
  297MOL0     H40956  10.439   1.504   3.154 -0.5024  1.7795  0.5870
  297MOL0     H40957  10.278   1.469   3.104 -0.2327  1.8288  0.9735
  297MOL0     H40958  10.422   1.266   3.174  4.0456 -0.2910  0.7779
  297MOL0     H40959  10.458   1.341   3.323  1.1741 -3.9736 -1.0625
  297MOL0     H40960  10.222   1.324   3.414 -1.6675  1.0069 -1.4803
  297MOL0     H40961  10.294   1.169   3.380 -1.2444 -0.6525  0.5429
  297MOL0     H40962  10.177   1.177   3.163  0.9495 -4.6367  3.7252
  297MOL0     H40963  10.101   1.335   3.200 -0.6467  2.2512  4.5880
  297MOL0     H40964  10.004   1.220   3.411  0.5958 -1.1013  0.7172
  297MOL0     H40965  10.043   1.071   3.320 -0.1227 -0.0541  0.2490
  297MOL0     H40966   9.759   1.602   3.326 -0.1380 -0.3760 -1.7830
  297MOL0     H40967   9.591   1.661   3.476 -0.3374  0.6824 -1.7023
  297MOL0     H40968   9.379   1.795   3.722 -1.1332  2.8481 -1.9785
  297MOL0     H40969   9.225   1.760   3.897  1.5308  0.0675 -2.7367
  297MOL0     H40970   8.685   2.010   5.678  1.0276  0.7551 -0.6088
  297MOL0     H40971   8.480   2.026   5.819 -1.9179  0.8816 -0.4013
  297MOL0     H40972   8.156   2.383   6.031 -0.8091  0.7635  0.0756
  297MOL0     H40973   7.941   2.377   6.137  0.4854 -0.3845  0.0334
  297MOL0     H40974   7.661   2.010   6.110  0.5112 -1.1694  1.0436
  297MOL0     H40975   7.760   2.005   6.258  0.2218  2.7405  2.8763
  297MOL0     H40976   7.496   2.046   6.261 -0.7716  0.9270  1.2650
  297MOL0     H40977   7.526   2.211   6.210  1.1509  0.5413  0.4251
  297MOL0     H40978   7.636   2.079   6.461  1.9394  1.7317  1.0182
  297MOL0     H40979   7.693   2.238   6.402  0.6995 -0.9497  0.0272
  297MOL0     H40980   7.396   2.189   6.442  1.1279 -1.5885 -0.5676
  297MOL0     H40981   7.489   2.348   6.446  1.5475  1.0607  3.0552
  297MOL0     H40982   7.502   2.163   6.842  2.4596  0.0873 -0.5339
  297MOL0     H40983   7.846   1.989   5.995 -0.6804  0.0116 -0.7784
  297MOL0     H40984   8.154   1.914   5.827  0.0676  0.0999  0.7865
  297MOL0     H40985   7.986   1.871   5.861 -2.6917  1.6736 -2.4089
  297MOL0     H40986   8.020   1.974   5.729 -0.4093 -1.8047 -0.2058
  298MOL0     O40987   2.139  10.144   9.577 -0.1151 -0.0291  0.3053
  298MOL0     C40988   2.117  10.241   9.646 -0.1102  0.5565 -0.5840
  298MOL0     O40989   2.048  10.348   9.608 -0.3970 -0.1570  0.2569
  298MOL0     C40990   2.044  10.411   9.482  0.4212  0.1625 -0.5669
  298MOL0     C40991   1.960  10.517   9.452 -0.1042 -0.5055 -0.0828
  298MOL0     C40992   1.971  10.605   9.342 -0.5093  0.8820  0.6138
  298MOL0     C40993   2.078  10.571   9.249 -0.1318 -0.4759 -0.3702
  298MOL0     O40994   2.089  10.651   9.131 -0.2768 -0.4764 -0.1389
  298MOL0     C40995   2.087  10.583   9.009  0.9045  0.1375  0.0216
  298MOL0     C40996   2.227  10.564   8.950  0.6786  1.1299  0.1059
  298MOL0     C40997   2.315  10.694   8.942 -0.5846  0.4131  1.0104
  298MOL0     C40998   2.437  10.689   8.855  0.2032 -0.1617  0.2953
  298MOL0     C40999   2.529  10.590   8.922  0.4415  0.7661  0.0939
  298MOL0     C41000   2.679  10.604   8.885 -0.9887  0.0358  0.2018
  298MOL0     C41001   2.749  10.476   8.924  0.3952  1.2756 -0.0186
  298MOL0     C41002   2.902  10.473   8.912  0.1143 -0.6871 -0.3520
  298MOL0     N41003   2.952  10.337   8.931  0.3246  0.1007  0.6224
  298MOL0     C41004   2.981  10.257   8.823  0.7709 -0.0054 -0.5246
  298MOL0     C41005   3.033  10.148   8.887  0.5902 -0.2959 -0.1833
  298MOL0     C41006   3.080  10.030   8.811  0.9367 -0.1844 -0.3943
  298MOL0     C41007   3.224  10.053   8.766  0.1526  0.4896  0.7800
  298MOL0     C41008   3.279   9.910   8.720  0.9461 -1.2382 -0.7963
  298MOL0     C41009   3.395   9.911   8.627 -0.4622 -0.2050  0.8392
  298MOL0     O41010   3.494   9.988   8.681 -0.6509 -1.0145  0.3677
  298MOL0     C41011   3.620   9.984   8.617  1.1343  0.9309  0.8560
  298MOL0     C41012   3.628  10.004   8.477  0.2854  0.2255  0.0611
  298MOL0     C41013   3.754  10.012   8.411 -0.4225  0.5172 -0.3479
  298MOL0     C41014   3.750  10.050   8.265  0.7851  0.6653 -0.9146
  298MOL0     C41015   3.867   9.974   8.489 -0.0880 -0.4177  0.1903
  298MOL0     C41016   4.001   9.961   8.423 -0.4149 -0.0514  0.6534
  298MOL0     O41017   4.032  10.044   8.321  0.0568 -0.0034  0.6394
  298MOL0     C41018   4.160  10.043   8.265  0.4026  0.5214  0.3914
  298MOL0     C41019   4.261  10.137   8.283  0.2732  0.5596  0.3347
  298MOL0     C41020   4.388  10.126   8.226  0.3885 -0.7210 -0.0247
  298MOL0     C41021   4.410  10.025   8.134 -0.4083  0.3655  0.7062
  298MOL0     O41022   4.537  10.019   8.078  0.4280 -0.1088  1.3439
  298MOL0     C41023   4.626   9.912   8.131 -0.1453 -0.9514 -0.6102
  298MOL0     C41024   4.762   9.925   8.070 -0.6995 -0.7857  0.2586
  298MOL0     C41025   4.871   9.846   8.131  0.1823  1.5351 -0.2719
  298MOL0     C41026   4.877   9.702   8.081  0.0517  0.3376  0.1294
  298MOL0     C41027   4.997   9.611   8.137  0.5317  0.2908 -0.0142
  298MOL0     C41028   5.132   9.648   8.071 -0.3614 -0.2854 -0.5564
  298MOL0     C41029   5.256   9.584   8.142  0.6254 -0.1706 -0.0119
  298MOL0     C41030   5.391   9.587   8.051  0.1865  0.2002  0.2768
  298MOL0    Cl41031   5.523   9.493   8.125  0.5056 -0.1402 -0.0519
  298MOL0     C41032   4.315   9.925   8.112 -0.4884  0.4285  0.1483
  298MOL0     C41033   4.189   9.934   8.173  0.6997 -0.1886 -0.2507
  298MOL0     O41034   4.082   9.885   8.479  0.3574 -0.0235  0.3002
  298MOL0     C41035   3.856   9.946   8.628 -0.0352 -0.3356  0.7915
  298MOL0     C41036   3.731   9.957   8.695 -0.0559  0.8964 -0.0124
  298MOL0     N41037   3.035  10.168   9.025 -0.2863 -0.5525  0.6377
  298MOL0     N41038   2.978  10.283   9.050 -0.5412  0.4909  1.0259
  298MOL0     C41039   2.152  10.456   9.268  0.6666 -0.4086  0.0072
  298MOL0     C41040   2.132  10.376   9.380 -0.0904 -0.2585 -0.5503
  298MOL0     C41041   2.141  10.232   9.791 -0.5765  0.5653  0.3617
  298MOL0     C41042   2.065  10.316   9.874  0.6649  0.4733  0.1468
  298MOL0     C41043   2.081  10.321  10.012  0.9527 -0.3177  0.3529
  298MOL0     C41044   2.176  10.230  10.084 -0.1418 -0.1891  0.7085
  298MOL0     O41045   2.199  10.226  10.214 -1.1602  0.3579  0.1448
  298MOL0     C41046   2.109  10.309  10.296 -0.1391  0.0139 -0.6734
  298MOL0     C41047   2.144  10.308  10.448 -0.3298  0.1506  0.5635
  298MOL0     C41048   2.145  10.163  10.495  0.2376 -0.3823 -0.0736
  298MOL0     C41049   2.189  10.148  10.637 -0.7315  0.0615  0.8361
  298MOL0     C41050   2.327  10.207  10.663 -0.5945 -0.0271 -0.0440
  298MOL0     C41051   2.436  10.264  10.668  0.0658  0.0862  0.4712
  298MOL0     C41052   2.247  10.157   9.995  0.3040  0.0703 -0.9504
  298MOL0     C41053   2.241  10.152   9.859 -0.1902  0.0015  0.8982
  298MOL0     C41054   2.337  10.066   9.788  0.0385 -0.3187  0.0869
  298MOL0     H41055   1.883  10.543   9.523 -2.2396  2.0566 -3.0823
  298MOL0     H41056   1.916  10.696   9.318 -2.6002 -0.0344  1.6553
  298MOL0     H41057   2.022  10.634   8.937  0.0237 -0.4427  0.3875
  298MOL0     H41058   2.033  10.489   9.020 -0.8007  1.1283  0.4734
  298MOL0     H41059   2.283  10.498   9.017 -0.4716 -1.4804 -1.3425
  298MOL0     H41060   2.217  10.517   8.852 -1.2071  1.8000 -0.0674
  298MOL0     H41061   2.255  10.773   8.895  0.5860  0.9839  0.4220
  298MOL0     H41062   2.345  10.724   9.043 -1.9769 -0.6216  1.7632
  298MOL0     H41063   2.397  10.670   8.755 -4.3317  0.9083  1.6838
  298MOL0     H41064   2.496  10.781   8.861 -1.0323  0.5547  2.3032
  298MOL0     H41065   2.497  10.499   8.871  0.9144  0.4349  0.3776
  298MOL0     H41066   2.521  10.586   9.031  1.1100 -2.5194  0.1415
  298MOL0     H41067   2.696  10.617   8.777  0.2655 -0.1776  0.3606
  298MOL0     H41068   2.723  10.691   8.934 -0.5657  0.3896 -0.7836
  298MOL0     H41069   2.702  10.391   8.874 -1.5978  1.9862  0.5612
  298MOL0     H41070   2.735  10.464   9.032  1.0008  0.2379 -0.0463
  298MOL0     H41071   2.924  10.516   8.814  0.8144 -2.9084 -1.2216
  298MOL0     H41072   2.955  10.527   8.992 -0.0076  1.8858 -1.8821
  298MOL0     H41073   2.956  10.280   8.721  1.9441 -0.0829 -0.8424
  298MOL0     H41074   3.012  10.010   8.728  0.1762 -3.0992  0.8237
  298MOL0     H41075   3.078   9.944   8.877  2.3410 -0.9573 -1.3032
  298MOL0     H41076   3.231  10.124   8.683 -1.7265  1.4387  1.3936
  298MOL0     H41077   3.291  10.102   8.838  2.1639  0.6616 -1.0821
  298MOL0     H41078   3.309   9.858   8.811  0.5029 -0.9889 -0.5017
  298MOL0     H41079   3.196   9.863   8.668 -0.2038 -0.7469  0.5123
  298MOL0     H41080   3.436   9.810   8.618  1.5105  0.4944  1.6268
  298MOL0     H41081   3.367   9.942   8.526 -2.6934  0.5189  1.6155
  298MOL0     H41082   3.537  10.007   8.418 -1.3155 -1.1339  2.2968
  298MOL0     H41083   3.837   9.998   8.225  0.3490  0.2554 -1.3537
  298MOL0     H41084   3.754  10.157   8.245  1.8359  1.1645  1.6927
  298MOL0     H41085   3.664  10.003   8.214 -0.5546  2.9927 -0.9281
  298MOL0     H41086   4.245  10.228   8.340 -0.9549  1.3157 -1.1437
  298MOL0     H41087   4.466  10.196   8.253 -0.3980 -0.2834  1.2442
  298MOL0     H41088   4.631   9.917   8.240 -0.5031  0.0447 -0.6252
  298MOL0     H41089   4.585   9.815   8.101 -2.6133  0.2295 -1.3244
  298MOL0     H41090   4.754   9.900   7.964  0.7496 -3.4124  0.6900
  298MOL0     H41091   4.789  10.031   8.064  0.4784 -1.0838 -0.0307
  298MOL0     H41092   4.874   9.861   8.240  2.5512  0.5746 -0.1291
  298MOL0     H41093   4.967   9.888   8.099  2.9954 -3.2813  0.7537
  298MOL0     H41094   4.886   9.702   7.972  1.6458 -1.2444  0.2270
  298MOL0     H41095   4.780   9.658   8.107 -0.2964  0.2698 -1.2294
  298MOL0     H41096   4.996   9.635   8.244 -1.7626 -0.7457  0.2441
  298MOL0     H41097   4.980   9.504   8.121  1.8797  0.1558 -0.7618
  298MOL0     H41098   5.146   9.757   8.074 -1.7564 -0.0940 -0.3898
  298MOL0     H41099   5.140   9.611   7.968  1.1713  2.3860 -1.5031
  298MOL0     H41100   5.232   9.478   8.153  0.7077 -0.2742 -0.7754
  298MOL0     H41101   5.278   9.643   8.232  0.9543 -0.9821  0.4474
  298MOL0     H41102   5.422   9.690   8.031  0.5795 -0.3705 -2.4908
  298MOL0     H41103   5.358   9.552   7.952 -0.7468  1.7046  0.0279
  298MOL0     H41104   4.326   9.855   8.030  0.2417 -0.0413  0.6391
  298MOL0     H41105   4.113   9.861   8.146 -0.8013  1.2863 -0.2163
  298MOL0     H41106   3.942   9.928   8.692 -1.0969  0.7606  2.6286
  298MOL0     H41107   3.718   9.925   8.798 -0.3394  2.9732  0.6448
  298MOL0     H41108   2.219  10.414   9.194  0.5655 -0.5853  0.0143
  298MOL0     H41109   2.185  10.282   9.390  0.4274  0.1548  0.8406
  298MOL0     H41110   2.002  10.396   9.835  1.3232  0.8314 -0.1934
  298MOL0     H41111   2.015  10.379  10.076  2.9094 -0.0007  2.1778
  298MOL0     H41112   2.130  10.409  10.257  1.5710 -0.3676 -0.7888
  298MOL0     H41113   2.004  10.288  10.277 -0.4690  0.7837  0.1883
  298MOL0     H41114   2.059  10.361  10.494 -0.1847 -1.7136  3.2181
  298MOL0     H41115   2.239  10.359  10.464  0.6673 -0.9381 -1.5076
  298MOL0     H41116   2.046  10.116  10.493  0.6936 -1.4231  0.7598
  298MOL0     H41117   2.217  10.107  10.434  1.8131 -0.8071  2.0283
  298MOL0     H41118   2.207  10.042  10.656 -0.6732 -0.2767 -0.9374
  298MOL0     H41119   2.119  10.191  10.710 -2.0149  0.1911 -0.4397
  298MOL0     H41120   2.530  10.308  10.644 -1.5959  2.9600 -1.4539
  298MOL0     H41121   2.324  10.097  10.043 -1.8635 -2.2548 -0.2112
  298MOL0     H41122   2.385  10.120   9.706  0.2324  1.0895  1.0916
  298MOL0     H41123   2.422  10.056   9.857 -0.5428  1.6549  1.1852
  298MOL0     H41124   2.304   9.971   9.747  1.8435  0.6546 -4.1066
  299MOL0     O41125   8.745   9.111  11.061 -0.4755  0.2366 -0.5336
  299MOL0     C41126   8.644   9.112  11.129 -0.2200  0.2828 -0.4047
  299MOL0     O41127   8.636   9.135  11.260  0.4074  0.6161 -0.3567
  299MOL0     C41128   8.743   9.163  11.342 -0.2060  0.7401  0.2033
  299MOL0     C41129   8.866   9.230  11.301  0.3223 -0.0977  0.3020
  299MOL0     C41130   8.954   9.273  11.399  0.3918  0.2490  0.0297
  299MOL0     C41131   8.943   9.236  11.534 -0.1242  0.3769  0.1075
  299MOL0     O41132   9.036   9.268  11.630 -0.2419 -0.4999 -0.0300
  299MOL0     C41133   9.094   9.395  11.640 -0.1530 -0.0445 -0.0558
  299MOL0     C41134   9.108   9.430  11.780 -0.0249 -0.2839 -0.0045
  299MOL0     C41135   9.205   9.552  11.787 -0.8988 -0.7153 -0.4291
  299MOL0     C41136   9.341   9.533  11.870  0.1132 -0.5973  0.5837
  299MOL0     C41137   9.442   9.650  11.856 -0.0491  0.2348 -0.0021
  299MOL0     C41138   9.391   9.778  11.939 -0.6755  0.0697  0.0257
  299MOL0     C41139   9.502   9.865  11.998  0.4930  0.1800  0.4527
  299MOL0     C41140   9.542   9.974  11.898  0.1577  0.6003  0.4752
  299MOL0     N41141   9.647  10.060  11.950 -0.3100  0.4198 -0.1964
  299MOL0     C41142   9.763  10.018  12.011  0.3435 -0.4205  0.4582
  299MOL0     C41143   9.840  10.131  12.016 -0.0908  0.9319 -0.1135
  299MOL0     C41144   9.973  10.117  12.084  0.3031 -0.0454 -0.2083
  299MOL0     C41145   9.978  10.106  12.233  0.2536  0.0551 -0.1176
  299MOL0     C41146  10.117  10.066  12.284  0.3100 -0.6573  0.2718
  299MOL0     C41147  10.126  10.064  12.437  0.1894 -0.0134 -0.8673
  299MOL0     O41148  10.241   9.980  12.471 -0.1388 -0.0647  0.0867
  299MOL0     C41149  10.367  10.028  12.485 -0.5533 -0.4348 -0.1054
  299MOL0     C41150  10.404  10.152  12.438 -0.8186 -0.3558 -1.2148
  299MOL0     C41151  10.526  10.210  12.474 -0.3605  1.3102 -0.2137
  299MOL0     C41152  10.545  10.352  12.436  0.1607  0.1612 -0.4420
  299MOL0     C41153  10.620  10.135  12.548 -0.4628 -0.1048 -0.4122
  299MOL0     C41154  10.754  10.177  12.602  0.2280 -0.6728 -1.0058
  299MOL0     O41155  10.837  10.076  12.633  0.2197 -0.4830  0.0954
  299MOL0     C41156  10.965  10.118  12.674  0.7682  0.2405 -0.0132
  299MOL0     C41157  11.070  10.124  12.582 -0.4475 -0.5311 -0.1791
  299MOL0     C41158  11.199  10.178  12.611 -0.4290  0.0774 -0.2111
  299MOL0     C41159  11.230  10.205  12.746  0.1695  0.4791 -0.3421
  299MOL0     O41160  11.355  10.240  12.794 -0.3386 -0.1396  1.2774
  299MOL0     C41161  11.393  10.373  12.745 -0.4161  0.2968 -0.0158
  299MOL0     C41162  11.540  10.406  12.795 -0.0363 -0.7683  0.6282
  299MOL0     C41163  11.641  10.304  12.743 -1.0366  0.2071  0.3531
  299MOL0     C41164  11.782  10.333  12.801  0.3625  0.0577 -0.0675
  299MOL0     C41165  11.884  10.218  12.796 -0.2610  0.6025  0.0782
  299MOL0     C41166  12.016  10.267  12.866  0.0262 -0.2000 -0.7707
  299MOL0     C41167  11.994  10.288  13.025 -0.7464  0.6886  0.2173
  299MOL0     C41168  12.124  10.253  13.095  0.3163 -0.4654  1.0439
  299MOL0    Cl41169  12.095  10.245  13.276  0.2031  0.1612 -0.2241
  299MOL0     C41170  11.122  10.198  12.838 -0.4368 -0.3116 -0.6822
  299MOL0     C41171  10.989  10.160  12.803 -0.9782  0.0447 -0.4431
  299MOL0     O41172  10.778  10.299  12.620  0.1008  0.3564  0.0594
  299MOL0     C41173  10.593   9.996  12.562 -0.3178  0.1699 -0.0658
  299MOL0     C41174  10.468   9.944  12.533  0.3469 -0.5971  0.1550
  299MOL0     N41175   9.771  10.235  11.969  0.7223  0.5632  0.3824
  299MOL0     N41176   9.654  10.196  11.931 -0.0272 -0.1563 -0.6012
  299MOL0     C41177   8.840   9.157  11.568 -0.4238 -0.6424  0.2649
  299MOL0     C41178   8.739   9.127  11.475  0.3155 -1.1024 -0.4028
  299MOL0     C41179   8.536   9.067  11.061  0.3447  0.6831  0.0769
  299MOL0     C41180   8.510   9.117  10.936  0.0181 -0.2664  0.4673
  299MOL0     C41181   8.400   9.079  10.869  0.5295  0.3625  0.8911
  299MOL0     C41182   8.301   8.992  10.921  0.3672  0.9722 -0.7136
  299MOL0     O41183   8.185   8.970  10.851 -0.0539 -0.3292  0.0075
  299MOL0     C41184   8.209   8.933  10.714  0.2686  0.2746 -0.2609
  299MOL0     C41185   8.178   8.781  10.707 -0.2212  0.7496 -0.1664
  299MOL0     C41186   8.161   8.730  10.555 -0.1082 -1.0545 -0.8065
  299MOL0     C41187   8.215   8.586  10.535 -0.4709 -0.6086 -0.0327
  299MOL0     C41188   8.360   8.595  10.562 -1.0085 -0.5588  0.5354
  299MOL0     C41189   8.473   8.591  10.607 -0.0415 -0.4639 -0.1270
  299MOL0     C41190   8.336   8.928  11.039  0.5408 -0.2138  0.1404
  299MOL0     C41191   8.456   8.965  11.111 -0.0697 -0.1724  0.2327
  299MOL0     C41192   8.485   8.885  11.237  0.5465 -0.0984  0.0988
  299MOL0     H41193   8.880   9.236  11.193 -0.9783 -0.4499  0.0930
  299MOL0     H41194   9.050   9.318  11.374  1.7213 -1.9449  0.8951
  299MOL0     H41195   9.021   9.452  11.581  0.7684  0.5041 -0.7005
  299MOL0     H41196   9.192   9.389  11.591 -0.0033 -0.0026  0.2372
  299MOL0     H41197   9.012   9.445  11.829  0.3711 -1.7003  1.3032
  299MOL0     H41198   9.152   9.340  11.825 -1.2639 -0.6230  0.5733
  299MOL0     H41199   9.245   9.572  11.687  3.2468  0.3611  1.2529
  299MOL0     H41200   9.159   9.647  11.815  1.9856  0.5262  0.4992
  299MOL0     H41201   9.311   9.522  11.974  1.6860  2.1552  1.4133
  299MOL0     H41202   9.393   9.446  11.829  0.5938 -0.7639  1.5500
  299MOL0     H41203   9.462   9.664  11.750 -1.4891  2.1646 -0.0604
  299MOL0     H41204   9.537   9.625  11.904  0.7923  0.8749 -1.2864
  299MOL0     H41205   9.325   9.832  11.871 -0.7859 -2.6052 -2.2014
  299MOL0     H41206   9.331   9.745  12.025 -1.7063  0.4452 -0.5296
  299MOL0     H41207   9.582   9.801  12.036 -0.0623 -1.0459 -0.3569
  299MOL0     H41208   9.468   9.923  12.083 -3.0545 -2.2158  0.8861
  299MOL0     H41209   9.586   9.927  11.809 -1.7439  3.0956 -1.9699
  299MOL0     H41210   9.453  10.033  11.872 -1.6389 -2.5611 -1.1440
  299MOL0     H41211   9.789   9.922  12.055 -0.1084  0.3104  2.4240
  299MOL0     H41212  10.037  10.204  12.067  2.4448 -1.0350  2.1772
  299MOL0     H41213  10.011  10.028  12.032 -2.7998 -2.1777  0.8820
  299MOL0     H41214   9.949  10.204  12.273  0.2077  0.7280 -1.7246
  299MOL0     H41215   9.897  10.042  12.270  0.2664 -0.9837 -1.7820
  299MOL0     H41216  10.148   9.971  12.238  1.8248  0.1306 -0.4134
  299MOL0     H41217  10.193  10.136  12.247 -0.8737 -1.1159 -3.4796
  299MOL0     H41218  10.148  10.163  12.479  0.8844 -0.1659 -0.8623
  299MOL0     H41219  10.034  10.020  12.477 -2.2917  1.8629 -3.9786
  299MOL0     H41220  10.339  10.220  12.385  1.7378  1.1383 -2.6340
  299MOL0     H41221  10.647  10.364  12.397  0.9563  3.0694  2.1278
  299MOL0     H41222  10.534  10.426  12.515 -0.3991  1.8134 -1.9925
  299MOL0     H41223  10.482  10.385  12.352  1.0450  1.8407 -0.4954
  299MOL0     H41224  11.065  10.096  12.477  0.7062 -0.0134 -0.3818
  299MOL0     H41225  11.270  10.178  12.529 -1.1474 -0.7077 -0.8532
  299MOL0     H41226  11.394  10.369  12.635 -1.2268  0.7363 -0.0483
  299MOL0     H41227  11.335  10.463  12.767  4.3658  3.2905  1.9250
  299MOL0     H41228  11.571  10.508  12.772 -1.6740 -0.0731  1.3467
  299MOL0     H41229  11.525  10.412  12.903 -2.4932 -0.7474  0.3245
  299MOL0     H41230  11.642  10.301  12.634 -0.6041 -0.5282  0.3735
  299MOL0     H41231  11.605  10.205  12.771 -1.4207  0.2771  0.1207
  299MOL0     H41232  11.761  10.371  12.901  1.6331 -0.9648  0.6113
  299MOL0     H41233  11.826  10.422  12.756 -0.4417  0.4143 -0.1520
  299MOL0     H41234  11.848  10.124  12.840 -0.8867  0.7691 -0.0710
  299MOL0     H41235  11.907  10.203  12.690 -0.1476 -3.9801  0.5572
  299MOL0     H41236  12.047  10.364  12.824 -0.1315  1.3806  2.4297
  299MOL0     H41237  12.099  10.199  12.842  1.1908  0.3332  1.4420
  299MOL0     H41238  11.929  10.210  13.067 -0.9465 -0.2272 -1.7123
  299MOL0     H41239  11.960  10.390  13.044 -0.4108  0.5444  1.7869
  299MOL0     H41240  12.191  10.338  13.081  0.6067 -0.8332  0.0713
  299MOL0     H41241  12.176  10.165  13.057  2.6903  0.7538  1.2989
  299MOL0     H41242  11.144  10.229  12.939 -3.8236  0.2028  0.0246
  299MOL0     H41243  10.902  10.160  12.867 -1.2917 -0.8711 -0.8489
  299MOL0     H41244  10.673   9.926  12.584  0.0289  0.8584  0.9165
  299MOL0     H41245  10.437   9.842  12.552 -2.2883  0.0744 -0.1278
  299MOL0     H41246   8.833   9.130  11.673  1.6070 -0.4387  0.4989
  299MOL0     H41247   8.655   9.064  11.502  0.5162 -0.9373  0.6600
  299MOL0     H41248   8.562   9.195  10.880 -1.6924  0.8779  0.4034
  299MOL0     H41249   8.373   9.139  10.783 -0.6611 -0.2400  0.8239
  299MOL0     H41250   8.143   8.989  10.646  0.4594  0.8418  0.0189
  299MOL0     H41251   8.310   8.936  10.672 -0.1241 -0.8073 -1.3719
  299MOL0     H41252   8.087   8.752  10.761 -0.9174 -0.5285 -1.9206
  299MOL0     H41253   8.267   8.743  10.758 -0.4076  0.5908  0.0457
  299MOL0     H41254   8.055   8.729  10.532 -0.1046  0.9723 -1.0653
  299MOL0     H41255   8.215   8.793  10.484 -0.8621 -2.5299 -2.7660
  299MOL0     H41256   8.194   8.548  10.434 -1.3877  0.0188 -0.0940
  299MOL0     H41257   8.176   8.522  10.615  2.5505  0.8220  2.7943
  299MOL0     H41258   8.566   8.596  10.659  0.4294 -1.0831 -0.8916
  299MOL0     H41259   8.262   8.862  11.083 -1.4213  1.9723  0.3100
  299MOL0     H41260   8.469   8.940  11.330 -0.2231  1.8082 -1.0752
  299MOL0     H41261   8.424   8.795  11.231 -3.0932  2.0472  1.5648
  299MOL0     H41262   8.590   8.854  11.235  1.3280  2.2788 -1.8876
  300MOL0     O41263   6.509   0.101   5.640  0.0423  0.1374  0.5483
  300MOL0     C41264   6.477   0.165   5.739  0.0394 -0.3279  0.8616
  300MOL0     O41265   6.566   0.246   5.805 -0.5663 -0.4901 -0.8034
  300MOL0     C41266   6.704   0.253   5.781 -0.5622  0.1768  0.5053
  300MOL0     C41267   6.762   0.376   5.748  0.9103  0.4687  0.1227
  300MOL0     C41268   6.898   0.391   5.717 -0.7582 -0.0565  0.9546
  300MOL0     C41269   6.983   0.284   5.743  0.1629  0.9711 -0.1222
  300MOL0     O41270   7.124   0.289   5.732 -0.0450  0.2758 -0.1231
  300MOL0     C41271   7.183   0.412   5.770 -0.1860 -0.2625 -0.0458
  300MOL0     C41272   7.333   0.405   5.776 -0.5805 -1.3063 -0.2624
  300MOL0     C41273   7.391   0.461   5.639  1.3503  0.8197 -0.4048
  300MOL0     C41274   7.533   0.490   5.637 -0.6342  0.1958 -0.5964
  300MOL0     C41275   7.594   0.522   5.497 -0.7727 -0.4655  0.5704
  300MOL0     C41276   7.504   0.614   5.401  0.0777 -0.9751 -1.2006
  300MOL0     C41277   7.589   0.691   5.307 -0.8018  0.0656 -0.0502
  300MOL0     C41278   7.508   0.768   5.209  0.0990 -0.3466  0.3974
  300MOL0     N41279   7.582   0.843   5.110  0.4655  0.9204  0.7038
  300MOL0     C41280   7.688   0.927   5.140  0.4271 -0.2011  0.6913
  300MOL0     C41281   7.745   0.960   5.020  0.6752  0.7877  0.1238
  300MOL0     C41282   7.864   1.052   5.006  0.9024  0.0858  0.1741
  300MOL0     C41283   7.976   1.014   5.097  0.2169 -1.0806  0.1375
  300MOL0     C41284   8.102   1.109   5.090  0.6539  0.0103 -0.9890
  300MOL0     C41285   8.197   1.083   5.210 -0.1090 -0.4458 -0.0197
  300MOL0     O41286   8.252   0.950   5.207  0.3601  0.7861  1.3449
  300MOL0     C41287   8.381   0.932   5.233 -0.4370  0.2755  0.5468
  300MOL0     C41288   8.442   0.809   5.194  0.1519  0.3226  0.4229
  300MOL0     C41289   8.567   0.778   5.221 -0.5129 -0.0133  0.0072
  300MOL0     C41290   8.611   0.631   5.199 -0.2917 -0.6379  0.0451
  300MOL0     C41291   8.646   0.866   5.306 -0.2146  0.2708 -0.9770
  300MOL0     C41292   8.786   0.845   5.351 -0.6128  0.1150  0.8342
  300MOL0     O41293   8.821   0.924   5.461 -0.1740 -0.5425 -0.3416
  300MOL0     C41294   8.949   0.924   5.494  0.1545 -0.4227  0.3933
  300MOL0     C41295   8.991   0.824   5.588  0.1678 -0.3858 -0.4434
  300MOL0     C41296   9.126   0.824   5.632 -0.6205  0.1893 -0.3734
  300MOL0     C41297   9.225   0.910   5.574 -0.1531  0.6900 -0.2449
  300MOL0     O41298   9.350   0.887   5.622  1.0466 -0.4016 -0.3022
  300MOL0     C41299   9.447   0.994   5.596  1.7273 -0.1575 -0.4149
  300MOL0     C41300   9.587   0.957   5.656  0.3331 -0.9879 -0.0556
  300MOL0     C41301   9.568   0.922   5.803 -0.2799  0.8399 -0.0863
  300MOL0     C41302   9.685   0.840   5.861 -0.3703 -0.2751 -0.3697
  300MOL0     C41303   9.657   0.799   6.013  0.0528 -0.0235  0.1599
  300MOL0     C41304   9.542   0.692   6.022  0.3123  0.4377 -0.7188
  300MOL0     C41305   9.536   0.599   6.150 -0.1191 -0.6891 -0.0843
  300MOL0     C41306   9.660   0.512   6.169 -0.3095 -0.0448  0.2380
  300MOL0    Cl41307   9.686   0.393   6.040 -0.2959 -0.2982 -0.0379
  300MOL0     C41308   9.178   1.000   5.474  0.8138  0.3225 -0.3736
  300MOL0     C41309   9.048   1.006   5.428  0.1328 -0.4964 -0.5053
  300MOL0     O41310   8.859   0.768   5.287 -0.9536 -0.4182  0.8199
  300MOL0     C41311   8.597   0.983   5.349  0.5306  0.3289 -0.6243
  300MOL0     C41312   8.463   1.021   5.304 -0.0475 -0.1679  0.1277
  300MOL0     N41313   7.670   0.900   4.917 -0.1906 -0.1165 -0.6051
  300MOL0     N41314   7.576   0.827   4.972  0.0958 -0.7521  0.0472
  300MOL0     C41315   6.929   0.158   5.783 -0.6265  0.3762  0.5687
  300MOL0     C41316   6.784   0.147   5.790  0.8249  0.4084 -0.6112
  300MOL0     C41317   6.339   0.157   5.795  0.3176  0.4623  0.9147
  300MOL0     C41318   6.312   0.233   5.916  0.3988  0.2124 -1.0391
  300MOL0     C41319   6.182   0.228   5.978 -1.0100  0.0521 -0.1666
  300MOL0     C41320   6.085   0.153   5.912 -0.3085 -0.0248  0.0889
  300MOL0     O41321   5.969   0.158   5.987 -0.2293 -0.0674 -0.6465
  300MOL0     C41322   5.844   0.117   5.944 -0.3382  0.5499  0.8046
  300MOL0     C41323   5.737   0.118   6.049 -0.4170  0.0754 -0.0965
  300MOL0     C41324   5.601   0.183   6.005 -0.8145 -0.2518 -0.4341
  300MOL0     C41325   5.507   0.207   6.121 -0.1238 -0.4241 -0.1591
  300MOL0     C41326   5.507   0.110   6.227  0.9782  0.3799 -0.0926
  300MOL0     C41327   5.491   0.020   6.311  0.0007  0.8380 -0.4235
  300MOL0     C41328   6.110   0.083   5.790  0.0893 -0.7140  0.1834
  300MOL0     C41329   6.234   0.093   5.723 -0.6187 -1.0997  0.0390
  300MOL0     C41330   6.241   0.028   5.583 -0.0937  0.3849 -0.0622
  300MOL0     H41331   6.694   0.455   5.717  0.9824 -0.2221 -1.9779
  300MOL0     H41332   6.926   0.486   5.672 -0.4946 -0.3507  0.4904
  300MOL0     H41333   7.140   0.445   5.865  1.4015 -1.7255  1.2366
  300MOL0     H41334   7.151   0.488   5.698 -0.7073 -0.2160  0.2287
  300MOL0     H41335   7.363   0.475   5.854 -0.6119 -0.3932 -1.0429
  300MOL0     H41336   7.372   0.305   5.793  1.1936 -1.0116 -2.1655
  300MOL0     H41337   7.359   0.389   5.562 -0.3786 -0.1542  1.1498
  300MOL0     H41338   7.339   0.555   5.618 -0.1476  0.1462  0.1584
  300MOL0     H41339   7.567   0.575   5.697  1.6376  0.7884 -2.5712
  300MOL0     H41340   7.586   0.403   5.677  1.8138  1.4687 -0.8683
  300MOL0     H41341   7.624   0.429   5.447  0.4248 -0.1290  0.6103
  300MOL0     H41342   7.692   0.565   5.518 -0.4841 -0.8687  0.0993
  300MOL0     H41343   7.424   0.553   5.357 -0.1646 -1.6771  0.1410
  300MOL0     H41344   7.467   0.680   5.480  0.2363 -0.1973 -1.7724
  300MOL0     H41345   7.659   0.627   5.253  0.6140  1.9669 -0.6048
  300MOL0     H41346   7.638   0.772   5.363 -1.2898 -0.7491  1.6088
  300MOL0     H41347   7.433   0.706   5.158 -1.2400  1.0567  0.5772
  300MOL0     H41348   7.453   0.838   5.272  2.1809  0.8141  1.0107
  300MOL0     H41349   7.712   0.967   5.238 -1.9098 -0.5673  1.4649
  300MOL0     H41350   7.830   1.153   5.033 -0.2515 -0.0957 -0.5209
  300MOL0     H41351   7.889   1.054   4.900 -0.9296 -0.9666 -0.3296
  300MOL0     H41352   7.947   1.026   5.202 -1.8383 -2.0761 -0.2582
  300MOL0     H41353   8.009   0.912   5.076  1.2504 -0.6060 -0.6440
  300MOL0     H41354   8.151   1.095   4.993 -1.0441 -3.0702 -1.5248
  300MOL0     H41355   8.058   1.209   5.091  2.1418  0.7224 -2.1210
  300MOL0     H41356   8.279   1.153   5.191 -0.6879  0.3861  0.5028
  300MOL0     H41357   8.150   1.119   5.302 -2.9586 -1.1455 -1.1073
  300MOL0     H41358   8.381   0.737   5.139  1.4317 -0.3018 -0.2266
  300MOL0     H41359   8.658   0.579   5.282 -2.8179  0.9701  2.6667
  300MOL0     H41360   8.677   0.642   5.112  0.2822  0.4759  0.5987
  300MOL0     H41361   8.527   0.564   5.181  0.1374 -1.3877  0.8203
  300MOL0     H41362   8.916   0.762   5.637 -1.0188  1.0156 -0.4110
  300MOL0     H41363   9.152   0.746   5.703 -1.7664 -0.0489 -0.2006
  300MOL0     H41364   9.454   1.012   5.489 -2.9494 -1.3941 -1.1807
  300MOL0     H41365   9.407   1.077   5.655  0.7601 -0.4463 -0.6500
  300MOL0     H41366   9.637   0.876   5.604  2.0116 -0.0076 -0.0416
  300MOL0     H41367   9.639   1.053   5.646 -0.1930 -0.7484 -0.5655
  300MOL0     H41368   9.478   0.865   5.826  0.6239 -0.7675 -0.4058
  300MOL0     H41369   9.569   1.018   5.856 -2.2606  2.1856 -2.3061
  300MOL0     H41370   9.783   0.885   5.848  0.8234 -2.3367  0.8331
  300MOL0     H41371   9.687   0.744   5.808  0.8095 -0.4444 -0.0506
  300MOL0     H41372   9.747   0.759   6.062  0.6958  2.1242  0.8357
  300MOL0     H41373   9.629   0.893   6.060  0.7919 -1.0475  2.8024
  300MOL0     H41374   9.562   0.632   5.932  0.3674  0.9202 -1.0303
  300MOL0     H41375   9.441   0.733   6.012 -0.1750 -0.3607  0.6785
  300MOL0     H41376   9.448   0.534   6.153  0.4007 -1.3942  2.7923
  300MOL0     H41377   9.525   0.666   6.237 -0.3371  0.4852 -0.9850
  300MOL0     H41378   9.656   0.450   6.259  1.9041  0.4438  0.7234
  300MOL0     H41379   9.752   0.571   6.177  0.1455 -0.4584 -1.5530
  300MOL0     H41380   9.243   1.068   5.419  1.5840  0.8612  1.1418
  300MOL0     H41381   9.019   1.072   5.348  1.2440 -0.1823 -0.6658
  300MOL0     H41382   8.643   1.048   5.422 -1.2067  2.4171 -1.2929
  300MOL0     H41383   8.417   1.111   5.342  1.4049 -0.4020  2.7143
  300MOL0     H41384   6.996   0.075   5.802  1.4540  2.4863  3.4101
  300MOL0     H41385   6.732   0.055   5.811 -0.8851  1.3310 -0.5927
  300MOL0     H41386   6.400   0.285   5.951  0.8007 -1.0390 -0.1048
  300MOL0     H41387   6.150   0.292   6.060 -0.3472  1.5367 -1.0248
  300MOL0     H41388   5.820   0.184   5.861  2.0070 -0.3312 -0.6937
  300MOL0     H41389   5.849   0.016   5.902  2.5778  0.6633  0.6734
  300MOL0     H41390   5.778   0.182   6.128  0.0573 -1.6858  1.1428
  300MOL0     H41391   5.727   0.017   6.090 -1.3021 -0.9935 -2.7555
  300MOL0     H41392   5.626   0.277   5.955  0.6634 -0.1144  0.5301
  300MOL0     H41393   5.542   0.115   5.943  0.9425 -2.0626 -0.1863
  300MOL0     H41394   5.405   0.227   6.086 -0.4897  1.3992  1.6889
  300MOL0     H41395   5.543   0.301   6.165 -0.3489 -0.4755  0.1396
  300MOL0     H41396   5.487  -0.057   6.384 -1.1172  0.2503 -1.0793
  300MOL0     H41397   6.029   0.035   5.735  2.5049 -1.9853 -2.5183
  300MOL0     H41398   6.144   0.001   5.540  0.8183  0.1129 -2.0888
  300MOL0     H41399   6.307   0.088   5.519  1.0385  2.7890  3.1421
  300MOL0     H41400   6.284  -0.072   5.596  0.2502  0.1889 -2.2249
  301MOL0     O41401   3.815   1.157   9.981  0.5258  0.4501 -0.5678
  301MOL0     C41402   3.839   1.255   9.917  0.2557 -0.5241  0.3812
  301MOL0     O41403   3.937   1.266   9.821  0.7100 -0.1530  1.2252
  301MOL0     C41404   4.025   1.161   9.814  0.0422 -0.4022 -0.0469
  301MOL0     C41405   4.137   1.148   9.905 -0.1792 -0.0444  0.2348
  301MOL0     C41406   4.215   1.030   9.884 -0.0170 -0.4200  1.2575
  301MOL0     C41407   4.197   0.935   9.783  0.6301  1.1008  0.2673
  301MOL0     O41408   4.287   0.836   9.759 -0.5007 -0.6355  0.7119
  301MOL0     C41409   4.420   0.831   9.805  0.0976  0.3974 -0.6467
  301MOL0     C41410   4.515   0.950   9.771  0.4735  0.1427  0.2296
  301MOL0     C41411   4.637   0.968   9.853 -0.7576  0.4684 -0.0642
  301MOL0     C41412   4.711   1.092   9.817  0.0566  0.0033 -0.1081
  301MOL0     C41413   4.822   1.104   9.932  0.7131 -0.0667 -0.6424
  301MOL0     C41414   4.915   1.222   9.910  0.0855  0.0905  0.2371
  301MOL0     C41415   5.005   1.206   9.785 -0.9288 -0.0274  0.1871
  301MOL0     C41416   5.096   1.080   9.776 -0.6766 -0.0367  0.3995
  301MOL0     N41417   5.220   1.114   9.701  0.0078 -0.3720  0.9399
  301MOL0     C41418   5.245   1.092   9.574 -0.1683  0.3789  0.2402
  301MOL0     C41419   5.368   1.137   9.551  0.0336  0.4877 -0.0273
  301MOL0     C41420   5.445   1.128   9.419 -0.0486 -0.3641 -0.7107
  301MOL0     C41421   5.585   1.186   9.427 -0.0297  0.0125 -0.2476
  301MOL0     C41422   5.640   1.192   9.285 -0.1020 -0.4302  0.1960
  301MOL0     C41423   5.791   1.235   9.283  0.0924  0.9778 -0.1698
  301MOL0     O41424   5.862   1.126   9.349  0.4841  0.3903 -0.4984
  301MOL0     C41425   5.999   1.126   9.339 -0.0193 -1.2163 -0.7502
  301MOL0     C41426   6.064   1.016   9.386 -0.3822  0.6874 -0.1864
  301MOL0     C41427   6.200   1.003   9.390 -0.0038 -0.3395 -0.6637
  301MOL0     C41428   6.256   0.885   9.466 -0.0924  0.0651  0.7055
  301MOL0     C41429   6.280   1.115   9.345  0.5544 -0.2822 -0.0583
  301MOL0     C41430   6.435   1.121   9.355  0.9049  0.0193  0.4747
  301MOL0     O41431   6.493   1.188   9.247  0.5978  0.4185  0.0317
  301MOL0     C41432   6.634   1.197   9.265  0.1678  0.5728  0.3438
  301MOL0     C41433   6.677   1.305   9.329  0.4452  0.1431 -0.7540
  301MOL0     C41434   6.811   1.323   9.350 -0.0455  0.0412 -0.3895
  301MOL0     C41435   6.907   1.233   9.298 -0.2012  0.6364  0.0519
  301MOL0     O41436   7.044   1.225   9.305 -0.4394 -0.0044 -0.9538
  301MOL0     C41437   7.106   1.355   9.292 -0.2042  0.6781 -0.3108
  301MOL0     C41438   7.259   1.344   9.312  0.0123  0.3468 -0.4212
  301MOL0     C41439   7.325   1.464   9.242 -0.1470  0.2255 -0.1041
  301MOL0     C41440   7.471   1.460   9.261  0.0295  0.1501 -0.4870
  301MOL0     C41441   7.541   1.593   9.234  0.0669  0.6799 -0.5275
  301MOL0     C41442   7.697   1.588   9.243 -0.6500 -0.7574  0.1308
  301MOL0     C41443   7.748   1.733   9.203  0.1605  0.0290  0.1629
  301MOL0     C41444   7.900   1.750   9.243  0.5150  0.5272  0.3867
  301MOL0    Cl41445   8.014   1.762   9.104  0.3677 -0.2758 -0.0124
  301MOL0     C41446   6.857   1.124   9.231  0.4358  0.2336 -0.2253
  301MOL0     C41447   6.721   1.105   9.223 -0.1603  0.4524  0.8375
  301MOL0     O41448   6.490   1.068   9.451  0.7034  0.4091  0.0892
  301MOL0     C41449   6.215   1.234   9.297 -0.1129  0.8473 -0.7833
  301MOL0     C41450   6.072   1.228   9.294  0.9304  0.2403  0.9307
  301MOL0     N41451   5.416   1.194   9.665 -0.5626  0.1587  0.4123
  301MOL0     N41452   5.325   1.178   9.756 -0.0744 -0.4971  0.3671
  301MOL0     C41453   4.090   0.960   9.694 -0.1566 -0.7831 -0.0215
  301MOL0     C41454   4.000   1.065   9.713  0.2153 -0.5565  0.3114
  301MOL0     C41455   3.748   1.373   9.927 -0.3341  1.1546 -0.0078
  301MOL0     C41456   3.774   1.477   9.837  0.0986 -0.2244 -0.1390
  301MOL0     C41457   3.696   1.594   9.857 -0.7315  0.1959 -0.2848
  301MOL0     C41458   3.601   1.603   9.959  0.2981 -1.3903 -0.0586
  301MOL0     O41459   3.548   1.727   9.987  0.7889  0.2023  0.2552
  301MOL0     C41460   3.637   1.823  10.035 -0.7344 -0.7579  0.5219
  301MOL0     C41461   3.611   1.965   9.989  0.3674  0.5528 -0.1631
  301MOL0     C41462   3.650   1.973   9.842 -0.0040  0.1880 -0.0463
  301MOL0     C41463   3.611   2.104   9.769 -0.0954  0.5196  0.0309
  301MOL0     C41464   3.469   2.117   9.750 -0.9635 -0.1213 -0.3018
  301MOL0     C41465   3.349   2.145   9.734  0.5571  0.2262 -0.4858
  301MOL0     C41466   3.563   1.498  10.031  0.9910  0.1495 -0.9209
  301MOL0     C41467   3.639   1.378  10.020  1.1809 -0.6213 -0.0533
  301MOL0     C41468   3.597   1.266  10.120 -0.0138 -0.7292 -0.2890
  301MOL0     H41469   4.155   1.213   9.990 -0.2645 -0.3676  0.5030
  301MOL0     H41470   4.299   1.003   9.948  0.2646 -2.3341  0.1757
  301MOL0     H41471   4.457   0.730   9.783 -0.2469  0.0028  0.4945
  301MOL0     H41472   4.406   0.833   9.913 -1.8913  2.8266 -0.8554
  301MOL0     H41473   4.547   0.942   9.666 -0.7199 -1.0244 -0.0713
  301MOL0     H41474   4.453   1.040   9.777 -1.2098 -0.8583 -1.1199
  301MOL0     H41475   4.594   0.978   9.954 -3.0332  1.0879 -1.0235
  301MOL0     H41476   4.697   0.877   9.851 -1.0513  0.2799 -0.3132
  301MOL0     H41477   4.748   1.074   9.715  0.9263 -1.6825  0.4646
  301MOL0     H41478   4.649   1.181   9.800 -1.3436 -1.2286 -1.9577
  301MOL0     H41479   4.886   1.015   9.940  0.7688  0.0999  1.0396
  301MOL0     H41480   4.786   1.122  10.033  0.6544  2.5181 -1.0718
  301MOL0     H41481   4.867   1.319   9.899  1.1444  0.6532  0.4055
  301MOL0     H41482   4.976   1.222  10.001 -0.9945 -0.5337  0.9756
  301MOL0     H41483   5.066   1.296   9.777 -1.7503  0.4766 -0.6220
  301MOL0     H41484   4.937   1.205   9.699 -0.3054 -0.9743 -0.3204
  301MOL0     H41485   5.114   1.046   9.878  0.8246 -1.0101 -0.1438
  301MOL0     H41486   5.045   0.994   9.732  0.0047 -0.2246 -0.0504
  301MOL0     H41487   5.183   1.043   9.499  0.6091 -2.5408  1.3697
  301MOL0     H41488   5.390   1.181   9.340  0.4126  1.2678  0.0244
  301MOL0     H41489   5.444   1.024   9.387  2.0391 -1.2275  1.7421
  301MOL0     H41490   5.595   1.286   9.471 -0.1319  0.1638 -0.5660
  301MOL0     H41491   5.644   1.116   9.487 -2.8361 -2.4027 -0.1013
  301MOL0     H41492   5.637   1.092   9.241  2.0773 -0.1573 -0.7243
  301MOL0     H41493   5.584   1.266   9.226  1.4067 -0.1356 -0.9263
  301MOL0     H41494   5.829   1.242   9.180  2.7909  1.7910  0.7937
  301MOL0     H41495   5.812   1.329   9.335  2.8855 -0.2645  1.1713
  301MOL0     H41496   6.000   0.941   9.432 -0.1548 -0.3283 -1.4721
  301MOL0     H41497   6.184   0.803   9.469  0.2759 -0.4913 -2.4469
  301MOL0     H41498   6.289   0.914   9.566  0.8021 -3.1001  1.4158
  301MOL0     H41499   6.345   0.855   9.411  0.2370  1.4938  0.4001
  301MOL0     H41500   6.608   1.380   9.367 -0.6529 -1.6719  1.0146
  301MOL0     H41501   6.843   1.411   9.404 -1.9701  0.7544 -0.3358
  301MOL0     H41502   7.088   1.407   9.198  0.6925 -0.0003 -0.8803
  301MOL0     H41503   7.065   1.416   9.373  1.0156 -1.9531  2.5182
  301MOL0     H41504   7.275   1.335   9.419  0.8719  3.2893 -0.2123
  301MOL0     H41505   7.298   1.248   9.276  0.7483  0.8562 -1.0163
  301MOL0     H41506   7.288   1.555   9.289  0.3551 -0.8065  2.4949
  301MOL0     H41507   7.313   1.456   9.134  3.4565 -1.4053 -0.5282
  301MOL0     H41508   7.501   1.380   9.194  1.0776  1.8675 -2.1832
  301MOL0     H41509   7.491   1.436   9.366  1.4181  1.5946 -0.3885
  301MOL0     H41510   7.524   1.622   9.130  0.9490  0.3063 -0.7835
  301MOL0     H41511   7.490   1.663   9.301 -1.8649 -2.3929  1.4535
  301MOL0     H41512   7.724   1.527   9.157  0.1879 -1.1052  0.6370
  301MOL0     H41513   7.742   1.547   9.334 -0.6446 -3.6221 -1.0835
  301MOL0     H41514   7.702   1.813   9.261  2.5995  2.5408 -1.1501
  301MOL0     H41515   7.730   1.769   9.101  2.3649 -1.2880 -0.7658
  301MOL0     H41516   7.935   1.659   9.293  0.9869  0.5699  0.1469
  301MOL0     H41517   7.911   1.826   9.321  3.1883  0.8213 -0.1742
  301MOL0     H41518   6.928   1.051   9.194  0.7553 -1.8192  3.8577
  301MOL0     H41519   6.670   1.021   9.175 -1.4118  1.3421  0.5544
  301MOL0     H41520   6.278   1.316   9.263  0.8636 -0.6104 -2.7036
  301MOL0     H41521   6.032   1.326   9.271 -0.9383 -0.8488 -0.7292
  301MOL0     H41522   4.085   0.894   9.608 -3.1575 -0.8813  0.1519
  301MOL0     H41523   3.917   1.074   9.643  0.6539  2.7471  0.0545
  301MOL0     H41524   3.842   1.480   9.753  0.2257  1.9525 -0.0040
  301MOL0     H41525   3.704   1.682   9.794  2.4418 -0.1963 -0.5979
  301MOL0     H41526   3.628   1.813  10.143  2.0711 -0.6813  0.8300
  301MOL0     H41527   3.744   1.806  10.016 -0.0992  2.5103  0.4007
  301MOL0     H41528   3.669   2.033  10.052 -0.9979 -0.4405  2.3480
  301MOL0     H41529   3.507   1.995  10.005  0.3216  0.7962 -0.9146
  301MOL0     H41530   3.760   1.969   9.838 -0.0199 -1.8154  0.2082
  301MOL0     H41531   3.611   1.883   9.793  0.3500 -2.1689  3.6114
  301MOL0     H41532   3.645   2.106   9.665 -1.2895  0.1485 -0.3920
  301MOL0     H41533   3.647   2.192   9.823  1.1193 -0.3468  0.6640
  301MOL0     H41534   3.245   2.154   9.711 -0.5399 -3.5540  2.0956
  301MOL0     H41535   3.481   1.501  10.102  2.7605  1.1141  1.2244
  301MOL0     H41536   3.518   1.303  10.187 -1.2792 -0.6727 -1.7467
  301MOL0     H41537   3.573   1.171  10.072  2.8617 -0.5021 -2.3878
  301MOL0     H41538   3.678   1.254  10.193 -0.5422  1.5355  0.7739
  302MOL0     O41539   4.633   4.362   0.047  0.3534 -0.7989  0.0879
  302MOL0     C41540   4.614   4.309  -0.064 -0.4057  0.2537  0.3457
  302MOL0     O41541   4.685   4.330  -0.177 -0.0392  0.4146  0.2491
  302MOL0     C41542   4.790   4.424  -0.180  0.0152  0.5653 -0.4464
  302MOL0     C41543   4.835   4.453  -0.311  0.1216 -0.9610  0.2067
  302MOL0     C41544   4.949   4.541  -0.325 -0.0734  0.0738 -0.5941
  302MOL0     C41545   5.012   4.606  -0.214  0.6535  0.4910  0.6695
  302MOL0     O41546   5.116   4.698  -0.233  0.0278  0.3452 -0.0514
  302MOL0     C41547   5.209   4.665  -0.340  0.2056 -0.6348 -0.3703
  302MOL0     C41548   5.311   4.788  -0.360 -0.5588  0.3040 -0.2039
  302MOL0     C41549   5.398   4.766  -0.478  0.0079 -0.1531  0.7868
  302MOL0     C41550   5.427   4.902  -0.548  1.0212 -0.9432 -0.0349
  302MOL0     C41551   5.503   4.884  -0.681 -0.1937  0.3366  0.8388
  302MOL0     C41552   5.649   4.863  -0.648 -0.0185 -0.1124 -0.3043
  302MOL0     C41553   5.730   4.844  -0.780 -0.1162  0.4284 -0.2121
  302MOL0     C41554   5.882   4.822  -0.765  0.2111 -0.5562 -0.1698
  302MOL0     N41555   5.953   4.818  -0.893 -1.4550  0.8092 -0.4486
  302MOL0     C41556   5.971   4.919  -0.988 -0.2576  0.0867 -0.8087
  302MOL0     C41557   6.032   4.859  -1.089  0.1031 -0.3699 -0.2854
  302MOL0     C41558   6.062   4.944  -1.205 -0.0327  0.0116 -0.4978
  302MOL0     C41559   6.203   4.898  -1.266  0.6466 -0.3487 -0.8807
  302MOL0     C41560   6.226   4.977  -1.397  0.1192  0.5302  0.2296
  302MOL0     C41561   6.365   4.935  -1.474 -0.2235 -0.1190  0.0202
  302MOL0     O41562   6.481   4.993  -1.401  0.4542  0.8457 -0.9491
  302MOL0     C41563   6.504   5.127  -1.395  0.9248 -0.0928  0.5885
  302MOL0     C41564   6.437   5.230  -1.477 -0.6331  0.2229  0.3025
  302MOL0     C41565   6.462   5.367  -1.461  0.5211 -0.0702  0.3048
  302MOL0     C41566   6.369   5.451  -1.551 -1.0167 -0.5039 -0.2203
  302MOL0     C41567   6.548   5.411  -1.357  0.3767 -0.3904 -0.9559
  302MOL0     C41568   6.566   5.556  -1.312 -0.0397  0.4916 -0.2192
  302MOL0     O41569   6.479   5.645  -1.365  0.7327 -0.5090 -0.5829
  302MOL0     C41570   6.470   5.771  -1.311  0.4263  0.5165 -0.0963
  302MOL0     C41571   6.483   5.887  -1.389  0.9993 -0.1000 -0.4506
  302MOL0     C41572   6.460   6.017  -1.337 -0.9139 -0.4869  0.1902
  302MOL0     C41573   6.443   6.033  -1.203  0.8212  0.4622  0.5045
  302MOL0     O41574   6.440   6.161  -1.172  0.1064 -0.2080 -0.2287
  302MOL0     C41575   6.465   6.206  -1.040  0.3259 -0.0876 -0.4955
  302MOL0     C41576   6.442   6.355  -1.021  0.0126 -1.1695  0.3931
  302MOL0     C41577   6.299   6.392  -0.995 -0.4985  0.1481 -0.2756
  302MOL0     C41578   6.275   6.536  -1.037  0.1050 -0.1069 -0.6039
  302MOL0     C41579   6.123   6.574  -1.024 -0.1154  0.1337 -0.5270
  302MOL0     C41580   6.113   6.724  -0.996 -0.2698 -0.1914  0.0048
  302MOL0     C41581   5.967   6.752  -0.953 -0.6792 -0.1573 -0.4416
  302MOL0     C41582   5.920   6.885  -0.914 -0.8874  0.3439  0.1799
  302MOL0    Cl41583   6.024   6.998  -1.021  0.1688 -0.2290  0.1512
  302MOL0     C41584   6.438   5.924  -1.117  0.0900  0.1519  0.1052
  302MOL0     C41585   6.440   5.798  -1.178  0.2578  0.7626 -0.0355
  302MOL0     O41586   6.639   5.575  -1.216 -0.2512  1.0807  0.6914
  302MOL0     C41587   6.625   5.311  -1.290  0.0800  1.1328  0.8616
  302MOL0     C41588   6.604   5.173  -1.313  0.7095  0.7169 -0.0958
  302MOL0     N41589   6.052   4.728  -1.066 -0.1696  0.3412 -0.0389
  302MOL0     N41590   6.003   4.707  -0.949 -0.0683  0.2194  0.7288
  302MOL0     C41591   4.966   4.570  -0.087 -0.1100 -0.5033 -0.0721
  302MOL0     C41592   4.856   4.484  -0.067  0.2640  0.1257 -0.3590
  302MOL0     C41593   4.506   4.210  -0.071  0.4956 -0.1167  0.0538
  302MOL0     C41594   4.406   4.214   0.030 -0.4181 -0.2269  0.7163
  302MOL0     C41595   4.299   4.140   0.031  0.7646  0.0557  0.0383
  302MOL0     C41596   4.278   4.041  -0.071 -0.8306 -0.2150  0.2181
  302MOL0     O41597   4.171   3.963  -0.073  0.3946  0.6523 -0.1109
  302MOL0     C41598   4.045   4.009  -0.026 -0.0159  1.1345 -0.5237
  302MOL0     C41599   3.955   3.897  -0.062  0.5571  0.1390  0.4116
  302MOL0     C41600   3.815   3.920  -0.006  0.3204 -0.5558 -1.0601
  302MOL0     C41601   3.722   3.802  -0.061  0.8396 -0.3682 -0.3237
  302MOL0     C41602   3.589   3.799   0.007 -0.2484 -0.0624  0.6624
  302MOL0     C41603   3.484   3.809   0.067 -0.3513  0.9267 -0.7703
  302MOL0     C41604   4.373   4.030  -0.169 -0.1794  0.8089 -0.5624
  302MOL0     C41605   4.485   4.115  -0.177 -0.9153 -0.9180 -0.4008
  302MOL0     C41606   4.570   4.101  -0.305 -0.8563 -0.2363  0.2327
  302MOL0     H41607   4.777   4.420  -0.396 -1.9762 -2.4325  2.0818
  302MOL0     H41608   4.976   4.569  -0.426 -0.1932  0.6042 -0.4819
  302MOL0     H41609   5.159   4.657  -0.437  1.1901 -0.5373 -0.9029
  302MOL0     H41610   5.263   4.573  -0.314 -1.0256 -1.5457 -0.9275
  302MOL0     H41611   5.250   4.878  -0.374 -0.5021  0.3917  0.1217
  302MOL0     H41612   5.373   4.808  -0.272 -2.7654  1.4576  1.1673
  302MOL0     H41613   5.494   4.721  -0.448  0.0088 -1.7987 -1.4394
  302MOL0     H41614   5.355   4.698  -0.552 -0.0659 -1.2339  1.7850
  302MOL0     H41615   5.335   4.957  -0.570  1.2577 -1.4718 -2.6099
  302MOL0     H41616   5.488   4.960  -0.478 -0.6526 -0.5666  1.1793
  302MOL0     H41617   5.493   4.972  -0.744 -0.4804  1.1009  1.9308
  302MOL0     H41618   5.467   4.797  -0.737  1.9413  0.4834 -0.9162
  302MOL0     H41619   5.693   4.955  -0.609  0.9412 -0.0719 -1.4248
  302MOL0     H41620   5.665   4.781  -0.577  2.8601  0.9502  0.4267
  302MOL0     H41621   5.709   4.930  -0.844  0.1207  0.5729 -0.0999
  302MOL0     H41622   5.682   4.765  -0.839 -2.9646  2.7966 -1.2808
  302MOL0     H41623   5.926   4.895  -0.697  0.4107 -0.6122 -0.2386
  302MOL0     H41624   5.897   4.726  -0.714  2.4381  1.0822  2.5630
  302MOL0     H41625   5.934   5.020  -0.980  2.1033  0.9111  0.6692
  302MOL0     H41626   6.066   5.052  -1.184 -4.8187  0.1997  0.5694
  302MOL0     H41627   5.986   4.924  -1.281 -1.5083 -1.6536  1.3456
  302MOL0     H41628   6.287   4.907  -1.196 -0.1293 -1.2912  0.2093
  302MOL0     H41629   6.192   4.792  -1.290 -0.0583 -0.4646 -0.0718
  302MOL0     H41630   6.135   4.963  -1.456 -0.1062  2.5127  0.0453
  302MOL0     H41631   6.232   5.082  -1.368  2.3656  0.0913  1.6182
  302MOL0     H41632   6.377   4.826  -1.476 -0.7921 -0.1994  0.5058
  302MOL0     H41633   6.373   4.974  -1.576  3.7090  0.3707  0.3592
  302MOL0     H41634   6.364   5.190  -1.546  0.5833  0.3146 -1.0812
  302MOL0     H41635   6.419   5.501  -1.634  0.1570  0.3524  0.9558
  302MOL0     H41636   6.320   5.530  -1.494  2.2815  2.1733 -0.7335
  302MOL0     H41637   6.290   5.386  -1.590 -1.5874  0.2659 -0.3700
  302MOL0     H41638   6.493   5.877  -1.497  1.4688  0.3348 -0.4540
  302MOL0     H41639   6.472   6.107  -1.395 -0.7856 -0.1574  0.7231
  302MOL0     H41640   6.392   6.159  -0.974  1.6048  0.1790  1.1766
  302MOL0     H41641   6.568   6.178  -1.015  0.4349  0.4749 -0.2993
  302MOL0     H41642   6.506   6.396  -0.942 -1.1906 -0.5114  1.0626
  302MOL0     H41643   6.469   6.413  -1.109 -3.2327  1.1094  0.7209
  302MOL0     H41644   6.277   6.371  -0.890  0.8861  0.3368  0.0708
  302MOL0     H41645   6.241   6.327  -1.061 -0.4561 -0.1065 -0.0656
  302MOL0     H41646   6.311   6.562  -1.137  2.1907  0.0609  0.1418
  302MOL0     H41647   6.316   6.609  -0.966 -2.2061  0.6739  0.0501
  302MOL0     H41648   6.086   6.545  -1.122 -0.3496 -0.4542 -0.2640
  302MOL0     H41649   6.068   6.525  -0.943 -0.9474  1.1156 -0.4718
  302MOL0     H41650   6.154   6.779  -1.081  1.2920  2.2454  2.1452
  302MOL0     H41651   6.166   6.748  -0.903 -2.9314  1.5879  1.2194
  302MOL0     H41652   5.950   6.683  -0.869  2.6311 -0.0329  0.4833
  302MOL0     H41653   5.901   6.728  -1.036 -0.3593 -2.3318 -0.1328
  302MOL0     H41654   5.949   6.899  -0.809  1.7300  0.8840 -0.5511
  302MOL0     H41655   5.812   6.898  -0.924 -0.6156  1.1908 -2.1235
  302MOL0     H41656   6.413   5.942  -1.013 -2.1584 -0.3656 -0.3117
  302MOL0     H41657   6.423   5.707  -1.121 -0.1298 -0.8883 -2.5864
  302MOL0     H41658   6.703   5.338  -1.219  0.8752  1.5971 -0.1581
  302MOL0     H41659   6.667   5.103  -1.259 -2.3015 -1.9032  0.3052
  302MOL0     H41660   5.016   4.605   0.003 -3.1428  0.5293  1.3687
  302MOL0     H41661   4.839   4.466   0.039 -2.0711  0.8773 -0.5556
  302MOL0     H41662   4.410   4.292   0.106 -1.5965  0.0235  0.5337
  302MOL0     H41663   4.234   4.156   0.117  0.2192  1.9435 -0.6835
  302MOL0     H41664   4.053   4.030   0.081 -2.3166  3.5866 -0.7348
  302MOL0     H41665   4.011   4.101  -0.074 -1.7705  0.6270 -0.3220
  302MOL0     H41666   3.988   3.799  -0.029 -0.6934 -0.6868 -0.6970
  302MOL0     H41667   3.948   3.891  -0.171  1.7058 -1.1124  0.3804
  302MOL0     H41668   3.828   3.910   0.103  1.7667  0.2390 -1.1495
  302MOL0     H41669   3.777   4.015  -0.044 -0.3617 -1.5670 -3.0085
  302MOL0     H41670   3.752   3.699  -0.040 -0.8230 -0.1306  4.3243
  302MOL0     H41671   3.712   3.821  -0.168  0.1923  0.0101 -0.2038
  302MOL0     H41672   3.396   3.823   0.127 -1.2403 -3.2464 -0.7661
  302MOL0     H41673   4.351   3.958  -0.247  2.4253 -1.5276  0.7013
  302MOL0     H41674   4.677   4.106  -0.283 -0.5038  1.5345 -1.5829
  302MOL0     H41675   4.555   4.006  -0.356  0.5209 -0.2602 -0.1574
  302MOL0     H41676   4.550   4.179  -0.379  0.0148 -0.1242  0.0985
  303MOL0     O41677   9.409   5.234   5.544 -0.5302  0.2231  0.4550
  303MOL0     C41678   9.433   5.289   5.654 -0.8605  0.4850  0.6027
  303MOL0     O41679   9.342   5.287   5.750 -0.7245  0.0651 -0.1553
  303MOL0     C41680   9.345   5.191   5.840  0.2883  0.3085 -0.1829
  303MOL0     C41681   9.424   5.073   5.835  0.3850 -0.1029 -0.2648
  303MOL0     C41682   9.406   4.970   5.928  0.5672 -0.3746 -0.4615
  303MOL0     C41683   9.300   4.976   6.017  0.7577  1.1250  1.0444
  303MOL0     O41684   9.304   4.858   6.088  0.3000 -0.6277 -0.0233
  303MOL0     C41685   9.181   4.794   6.090  0.4962  0.2449 -0.3029
  303MOL0     C41686   9.153   4.736   5.952 -0.1010 -0.1376 -0.0224
  303MOL0     C41687   9.254   4.635   5.902  0.7707  0.4485  0.0580
  303MOL0     C41688   9.267   4.626   5.747  0.2715 -0.1288  0.1667
  303MOL0     C41689   9.357   4.507   5.698  0.2376  1.1410 -0.6095
  303MOL0     C41690   9.510   4.522   5.743 -0.4677 -0.8424  0.4899
  303MOL0     C41691   9.575   4.651   5.687  0.3197 -1.0360 -0.0503
  303MOL0     C41692   9.711   4.626   5.628  0.3157 -0.1332  0.9540
  303MOL0     N41693   9.707   4.612   5.483 -0.6794 -0.0357 -0.0425
  303MOL0     C41694   9.664   4.503   5.419  0.6480 -0.3636 -0.0981
  303MOL0     C41695   9.677   4.521   5.283 -0.1193 -0.2928  0.4533
  303MOL0     C41696   9.654   4.413   5.173  0.2819  0.2380  0.7141
  303MOL0     C41697   9.758   4.415   5.063 -0.6885  0.4322  0.8412
  303MOL0     C41698   9.704   4.314   4.955  0.8567  0.3303 -0.6114
  303MOL0     C41699   9.804   4.293   4.846  0.2189 -0.6006 -0.6264
  303MOL0     O41700   9.923   4.224   4.900  0.3051 -0.8668 -0.1042
  303MOL0     C41701   9.928   4.087   4.915 -0.2160 -0.7334 -0.4269
  303MOL0     C41702   9.839   3.997   4.850 -0.6903 -0.3270 -0.8104
  303MOL0     C41703   9.866   3.861   4.858  0.1464  0.2601  0.4266
  303MOL0     C41704   9.768   3.775   4.782  0.2039 -0.2032  0.8010
  303MOL0     C41705   9.960   3.812   4.951  0.7055  0.1738 -0.2075
  303MOL0     C41706   9.995   3.666   4.968 -0.1780 -0.2711 -0.0506
  303MOL0     O41707  10.100   3.636   5.059  0.7127  0.4032  0.5116
  303MOL0     C41708  10.142   3.507   5.082 -0.5533  0.6344 -0.9483
  303MOL0     C41709  10.061   3.394   5.097  0.0763 -0.0744 -0.2043
  303MOL0     C41710  10.115   3.271   5.155  0.4170  0.5194  0.6065
  303MOL0     C41711  10.246   3.259   5.195  0.1969 -0.0260  0.1297
  303MOL0     O41712  10.285   3.143   5.250 -0.4648  0.1842 -0.6722
  303MOL0     C41713  10.426   3.114   5.256 -0.0415 -0.8059  0.4157
  303MOL0     C41714  10.454   2.967   5.277  0.2276 -0.5496  0.1849
  303MOL0     C41715  10.597   2.924   5.259  0.3259  0.4642 -0.3078
  303MOL0     C41716  10.594   2.772   5.311 -0.7007  1.1459 -0.5708
  303MOL0     C41717  10.740   2.713   5.306 -0.4256 -0.8652 -0.1268
  303MOL0     C41718  10.742   2.571   5.373 -0.1638  0.1977 -0.2456
  303MOL0     C41719  10.873   2.500   5.356 -0.3323 -0.4144  0.4035
  303MOL0     C41720  10.866   2.359   5.400 -0.0943  0.4226  0.2482
  303MOL0    Cl41721  10.810   2.240   5.282  0.7390 -0.5243  0.0582
  303MOL0     C41722  10.324   3.375   5.174  0.0411  0.4091  0.1988
  303MOL0     C41723  10.277   3.498   5.119 -0.1275  0.1415  0.3050
  303MOL0     O41724   9.911   3.584   4.918 -0.0667 -0.4246 -0.8168
  303MOL0     C41725  10.043   3.901   5.023 -0.3210 -0.4476 -0.9419
  303MOL0     C41726  10.034   4.038   4.993  0.6497  0.1323 -0.1506
  303MOL0     N41727   9.747   4.640   5.268  0.2038  0.4740  0.2096
  303MOL0     N41728   9.758   4.695   5.391 -1.1441  0.4203  0.7716
  303MOL0     C41729   9.221   5.091   6.026 -0.0085  0.1991 -0.0591
  303MOL0     C41730   9.238   5.191   5.932  0.1667 -0.1681 -0.1400
  303MOL0     C41731   9.577   5.324   5.690  0.7052 -0.3563  0.4080
  303MOL0     C41732   9.675   5.239   5.641  0.1307 -0.2938 -0.3029
  303MOL0     C41733   9.801   5.254   5.688  0.0538 -0.1169  0.2121
  303MOL0     C41734   9.840   5.354   5.780  0.5572 -0.4869  0.3079
  303MOL0     O41735   9.970   5.341   5.809 -0.7334  0.1832  0.4150
  303MOL0     C41736  10.037   5.426   5.896  0.1818  0.5016 -0.7752
  303MOL0     C41737  10.171   5.366   5.946 -0.5299 -0.0535  0.3747
  303MOL0     C41738  10.267   5.476   5.997  0.0383 -0.6188 -0.1068
  303MOL0     C41739  10.409   5.423   6.025 -0.6010 -0.0625 -0.8447
  303MOL0     C41740  10.423   5.338   6.140 -0.1809 -0.8371  0.6264
  303MOL0     C41741  10.436   5.262   6.233  0.5122 -0.2697  0.3110
  303MOL0     C41742   9.741   5.435   5.839  1.0968  0.0101 -0.1702
  303MOL0     C41743   9.608   5.419   5.796 -0.1683 -0.7463 -0.3748
  303MOL0     C41744   9.507   5.511   5.857 -0.2809  0.9270 -0.4075
  303MOL0     H41745   9.493   5.054   5.754 -1.9323 -1.1921 -2.1354
  303MOL0     H41746   9.470   4.882   5.923 -0.6481 -1.2401 -4.2512
  303MOL0     H41747   9.101   4.857   6.130  2.4689  2.3198  0.5963
  303MOL0     H41748   9.184   4.706   6.155 -3.3137 -0.7169 -1.1709
  303MOL0     H41749   9.057   4.684   5.958 -0.3728  0.4935  2.1069
  303MOL0     H41750   9.147   4.817   5.878  4.1552 -0.2242 -0.6997
  303MOL0     H41751   9.356   4.650   5.938  2.3802 -1.7782 -3.0702
  303MOL0     H41752   9.232   4.538   5.947 -0.8332  0.4916 -0.5567
  303MOL0     H41753   9.170   4.619   5.696  0.5373 -1.4216 -0.2040
  303MOL0     H41754   9.308   4.725   5.725 -0.2316  0.1414  0.4347
  303MOL0     H41755   9.353   4.510   5.589 -2.0361 -2.2367 -0.7669
  303MOL0     H41756   9.312   4.413   5.730  1.4753  0.9735  0.7386
  303MOL0     H41757   9.514   4.516   5.853  0.9838 -2.8440  0.3890
  303MOL0     H41758   9.568   4.441   5.697  0.7748 -0.7698  1.8211
  303MOL0     H41759   9.598   4.719   5.769 -2.0265 -0.4841  0.2172
  303MOL0     H41760   9.503   4.698   5.620 -0.3125 -2.3867 -0.3626
  303MOL0     H41761   9.776   4.711   5.651 -2.2619  1.7630  1.6099
  303MOL0     H41762   9.759   4.539   5.673  1.6908  0.5280  0.8424
  303MOL0     H41763   9.618   4.421   5.473 -1.6689 -0.8457 -2.5871
  303MOL0     H41764   9.553   4.428   5.134 -0.2776 -0.0130  1.9844
  303MOL0     H41765   9.664   4.316   5.223  2.9733 -1.1718 -2.2229
  303MOL0     H41766   9.755   4.515   5.019  4.9213  0.8621  0.7978
  303MOL0     H41767   9.853   4.386   5.107  1.1000  2.9531 -1.0752
  303MOL0     H41768   9.670   4.223   5.005 -1.0959  1.9590  1.2306
  303MOL0     H41769   9.611   4.348   4.907 -0.7092 -0.5373  1.6423
  303MOL0     H41770   9.755   4.234   4.769 -0.0325 -0.2972 -0.6986
  303MOL0     H41771   9.843   4.385   4.803  2.9371 -0.2631  2.1648
  303MOL0     H41772   9.760   4.041   4.789 -0.9284 -0.4270 -0.5711
  303MOL0     H41773   9.815   3.697   4.723 -0.3888  0.8154 -1.1148
  303MOL0     H41774   9.715   3.838   4.710  2.1746 -0.0590 -0.5956
  303MOL0     H41775   9.694   3.733   4.852 -2.5807  1.3803 -0.9917
  303MOL0     H41776   9.953   3.391   5.088  0.1893 -1.7972 -1.7653
  303MOL0     H41777  10.066   3.175   5.168  0.9442  0.0716 -0.4925
  303MOL0     H41778  10.482   3.126   5.163  1.0820 -0.3864  1.1207
  303MOL0     H41779  10.476   3.175   5.332 -1.2623  2.1853 -1.0192
  303MOL0     H41780  10.428   2.943   5.381 -0.2399  0.5737  0.3445
  303MOL0     H41781  10.383   2.917   5.210 -2.2054  2.3017  0.4591
  303MOL0     H41782  10.665   2.987   5.317  0.5245 -0.1574  0.1490
  303MOL0     H41783  10.624   2.941   5.154 -2.3605  1.9142 -0.8304
  303MOL0     H41784  10.519   2.723   5.248 -3.0152 -1.3228  3.5971
  303MOL0     H41785  10.545   2.759   5.408 -1.3643 -1.3635 -1.1495
  303MOL0     H41786  10.785   2.721   5.207  4.7688  3.4813  2.0666
  303MOL0     H41787  10.793   2.779   5.375 -1.4466  1.6418 -1.5834
  303MOL0     H41788  10.667   2.512   5.320  0.0446 -2.2023  1.9003
  303MOL0     H41789  10.721   2.570   5.480  0.3509 -0.2727 -0.1442
  303MOL0     H41790  10.947   2.549   5.420 -0.0632 -1.3162  0.7946
  303MOL0     H41791  10.912   2.513   5.254  0.6050  1.6248  0.9537
  303MOL0     H41792  10.792   2.351   5.480 -0.7904  0.3742 -0.3867
  303MOL0     H41793  10.965   2.324   5.433 -0.6694 -1.1133  0.4602
  303MOL0     H41794  10.429   3.361   5.197  0.1896  0.2343 -0.5660
  303MOL0     H41795  10.344   3.582   5.133  2.9534 -1.6385 -2.3875
  303MOL0     H41796  10.126   3.855   5.075  2.0806 -3.3527 -6.4302
  303MOL0     H41797  10.110   4.097   5.044  1.7200 -0.6837 -0.7651
  303MOL0     H41798   9.140   5.099   6.098 -1.0009 -1.1822 -0.9726
  303MOL0     H41799   9.170   5.275   5.932  1.8911  1.2698  0.1089
  303MOL0     H41800   9.650   5.163   5.568 -1.3497  2.2217 -2.6348
  303MOL0     H41801   9.882   5.186   5.661  0.4238  1.2943 -2.5837
  303MOL0     H41802  10.061   5.520   5.845 -0.2611 -0.5458 -2.9807
  303MOL0     H41803   9.970   5.445   5.981 -2.7354 -2.5697 -2.1804
  303MOL0     H41804  10.226   5.318   5.865 -2.6991 -2.9248  0.4525
  303MOL0     H41805  10.133   5.291   6.016 -3.1459  1.2406  0.4609
  303MOL0     H41806  10.284   5.554   5.921 -0.3312  0.5794  1.0050
  303MOL0     H41807  10.230   5.525   6.088  0.3573  2.5473 -1.5284
  303MOL0     H41808  10.467   5.515   6.032  1.0363 -0.9781 -1.6759
  303MOL0     H41809  10.470   5.370   5.951  1.2079 -0.8815  1.1405
  303MOL0     H41810  10.464   5.225   6.329 -1.8848 -0.5349  0.9760
  303MOL0     H41811   9.774   5.502   5.918  0.9429  0.6493 -0.6469
  303MOL0     H41812   9.548   5.560   5.946 -1.8443 -0.9980  1.5070
  303MOL0     H41813   9.473   5.584   5.784  0.0154  0.7289 -0.7463
  303MOL0     H41814   9.417   5.462   5.896 -0.2678 -1.7057 -3.2722
  304MOL0     O41815   0.403   9.022   0.595 -0.1988  0.1964 -0.3767
  304MOL0     C41816   0.301   9.073   0.623 -0.4679 -0.8399 -0.4112
  304MOL0     O41817   0.288   9.206   0.673 -0.3635 -0.4866 -0.2237
  304MOL0     C41818   0.408   9.276   0.683  0.6039  0.0293 -0.5671
  304MOL0     C41819   0.489   9.265   0.804 -0.4585  0.3433  0.8853
  304MOL0     C41820   0.621   9.321   0.799  0.8092 -0.1096 -0.1804
  304MOL0     C41821   0.669   9.375   0.687 -0.2186  0.5128  0.7755
  304MOL0     O41822   0.803   9.415   0.702 -0.0260 -0.0017 -0.1598
  304MOL0     C41823   0.874   9.473   0.589 -0.0231  0.9515 -0.3232
  304MOL0     C41824   1.022   9.462   0.594 -1.0039  0.5247  1.1760
  304MOL0     C41825   1.083   9.564   0.693 -0.1487  0.0085  0.4606
  304MOL0     C41826   1.236   9.576   0.681  0.7321 -0.4819 -1.1532
  304MOL0     C41827   1.295   9.648   0.802  0.4528 -0.0904  0.5196
  304MOL0     C41828   1.440   9.691   0.768 -0.5510  0.3487  0.1023
  304MOL0     C41829   1.514   9.747   0.888 -0.3774  0.2802 -0.1169
  304MOL0     C41830   1.662   9.785   0.856  0.1915  0.0775  0.2359
  304MOL0     N41831   1.722   9.878   0.954  0.7822 -0.6885  0.4673
  304MOL0     C41832   1.807   9.845   1.056 -0.3912 -0.2396  0.6551
  304MOL0     C41833   1.818   9.957   1.135  0.0256 -0.2670 -0.8436
  304MOL0     C41834   1.913   9.983   1.257 -0.0721 -0.1433 -0.0240
  304MOL0     C41835   2.035  10.071   1.223  0.0886 -0.5820 -0.9447
  304MOL0     C41836   2.125  10.001   1.126  0.5430  0.0660 -0.8851
  304MOL0     C41837   2.246  10.096   1.119 -0.2363 -0.2151  0.0016
  304MOL0     O41838   2.351  10.018   1.066  0.2985 -0.0475  0.2457
  304MOL0     C41839   2.465  10.088   1.024  0.0627 -0.0145 -0.1883
  304MOL0     C41840   2.565  10.013   0.978 -0.3236  0.3439  0.1722
  304MOL0     C41841   2.681  10.077   0.935  0.3016  0.1776 -0.5230
  304MOL0     C41842   2.788   9.992   0.887  0.0086 -0.3215  0.1497
  304MOL0     C41843   2.694  10.212   0.951  0.0485  0.7684 -0.0611
  304MOL0     C41844   2.815  10.284   0.921 -0.6173 -0.6549 -0.5516
  304MOL0     O41845   2.802  10.400   0.862  0.4712 -0.2427 -0.2984
  304MOL0     C41846   2.899  10.453   0.785 -0.3393  0.9507  0.0322
  304MOL0     C41847   2.934  10.591   0.778  0.1562 -0.1613 -0.8284
  304MOL0     C41848   3.048  10.635   0.714 -0.8184  0.1354  0.2081
  304MOL0     C41849   3.122  10.546   0.633 -0.3010  0.0912  0.2973
  304MOL0     O41850   3.220  10.595   0.546  0.4154 -0.1383  0.1260
  304MOL0     C41851   3.316  10.506   0.495 -0.2207 -2.0663  0.3003
  304MOL0     C41852   3.442  10.583   0.442  0.1418  0.0039  0.2483
  304MOL0     C41853   3.495  10.687   0.537  0.0114 -0.3910  0.6705
  304MOL0     C41854   3.640  10.740   0.507 -0.3171  0.8863  0.2241
  304MOL0     C41855   3.640  10.834   0.382  0.1931 -0.2341  0.3575
  304MOL0     C41856   3.783  10.869   0.339  0.8845 -0.5054 -0.5138
  304MOL0     C41857   3.792  10.952   0.205 -0.9425 -0.2563 -0.4875
  304MOL0     C41858   3.916  11.039   0.191 -0.5217 -0.7089  0.4891
  304MOL0    Cl41859   4.061  10.938   0.146  0.4009 -0.0588  0.1114
  304MOL0     C41860   3.092  10.412   0.638  0.4225  0.1126 -0.5607
  304MOL0     C41861   2.985  10.365   0.707  0.4974  0.3094  0.3124
  304MOL0     O41862   2.917  10.231   0.963  0.3083 -0.0522  0.7584
  304MOL0     C41863   2.592  10.293   1.003  0.8656 -0.3475 -0.1457
  304MOL0     C41864   2.470  10.226   1.042 -0.8240  0.3538  0.3344
  304MOL0     N41865   1.743  10.054   1.071 -0.3210 -0.3011 -0.6682
  304MOL0     N41866   1.683  10.008   0.961 -0.3905  0.1351 -0.8083
  304MOL0     C41867   0.593   9.379   0.568  0.3511 -0.3476  0.4064
  304MOL0     C41868   0.458   9.337   0.571  0.7263 -0.4055 -1.0928
  304MOL0     C41869   0.174   9.004   0.589 -0.2885 -1.0132  1.1820
  304MOL0     C41870   0.053   9.071   0.624  0.2201  0.3224  0.7194
  304MOL0     C41871  -0.073   9.008   0.597  0.5010 -0.7604 -0.0139
  304MOL0     C41872  -0.090   8.893   0.526 -0.2707  0.4089  0.3192
  304MOL0     O41873  -0.218   8.848   0.508 -0.2188 -0.1274  0.0771
  304MOL0     C41874  -0.231   8.721   0.445 -0.3029  0.5647  0.0096
  304MOL0     C41875  -0.388   8.701   0.430 -0.6375  0.1149  0.2077
  304MOL0     C41876  -0.468   8.812   0.358 -0.5529  0.1957 -0.0047
  304MOL0     C41877  -0.607   8.758   0.320  0.3369  0.1479 -0.1716
  304MOL0     C41878  -0.682   8.704   0.434  0.1367 -0.4402  0.5881
  304MOL0     C41879  -0.730   8.657   0.530 -0.9234  0.7940 -0.1679
  304MOL0     C41880   0.031   8.831   0.482  0.4578 -0.0627 -0.5558
  304MOL0     C41881   0.160   8.882   0.520 -0.8868 -0.2197  0.3247
  304MOL0     C41882   0.284   8.807   0.466 -0.4759 -0.0478 -0.0911
  304MOL0     H41883   0.448   9.221   0.894  1.8849 -3.1239  0.4818
  304MOL0     H41884   0.687   9.304   0.883  0.2748 -0.1448  0.2401
  304MOL0     H41885   0.844   9.577   0.572  0.4435  0.9190 -1.4675
  304MOL0     H41886   0.853   9.420   0.495  1.8436  0.1863 -0.3577
  304MOL0     H41887   1.063   9.362   0.610  1.3390  1.3882  1.0381
  304MOL0     H41888   1.061   9.482   0.494 -3.2849  0.3817  0.1962
  304MOL0     H41889   1.046   9.667   0.684 -2.3781 -0.8414 -1.1018
  304MOL0     H41890   1.059   9.543   0.798  0.1347  1.2628  0.7888
  304MOL0     H41891   1.281   9.478   0.702 -0.0142 -0.9047 -1.5088
  304MOL0     H41892   1.261   9.625   0.587 -1.8775  0.9647 -1.1718
  304MOL0     H41893   1.288   9.584   0.891 -1.0797 -2.0060 -0.8891
  304MOL0     H41894   1.248   9.746   0.819  0.9066  0.6220 -1.9741
  304MOL0     H41895   1.499   9.609   0.726 -1.1497 -0.6157  1.1124
  304MOL0     H41896   1.443   9.764   0.686  1.1143  0.2908  0.0811
  304MOL0     H41897   1.514   9.675   0.971  0.4991 -0.6925 -0.9275
  304MOL0     H41898   1.466   9.834   0.933  0.4620  0.4545  0.4559
  304MOL0     H41899   1.727   9.697   0.848 -1.1149 -0.8860 -0.1438
  304MOL0     H41900   1.660   9.839   0.761 -4.4631 -1.9372 -1.1048
  304MOL0     H41901   1.866   9.754   1.061 -0.1492 -0.0692  0.9242
  304MOL0     H41902   1.939   9.891   1.308  0.8027  0.4147  0.5535
  304MOL0     H41903   1.851  10.039   1.328  1.3412  0.9997  0.3623
  304MOL0     H41904   2.000  10.170   1.192 -0.1457  0.3512  1.9552
  304MOL0     H41905   2.092  10.084   1.315  0.4157 -4.4830 -0.4189
  304MOL0     H41906   2.163   9.907   1.166 -1.6901 -0.6731 -0.3254
  304MOL0     H41907   2.071   9.991   1.031 -0.2890  2.8366 -0.8087
  304MOL0     H41908   2.225  10.172   1.044  0.5898  0.9333  0.8991
  304MOL0     H41909   2.277  10.135   1.216 -0.4907 -1.4220  0.5948
  304MOL0     H41910   2.549   9.908   0.959 -1.1876  0.4518  0.2598
  304MOL0     H41911   2.835  10.029   0.795  0.5236 -1.7669 -0.1929
  304MOL0     H41912   2.760   9.888   0.868  0.1836 -0.4358  0.5040
  304MOL0     H41913   2.861   9.994   0.968  0.5716  1.5423 -0.3442
  304MOL0     H41914   2.858  10.652   0.826  0.5842  0.9429 -1.5051
  304MOL0     H41915   3.079  10.739   0.709 -2.5839  0.7575  1.2314
  304MOL0     H41916   3.351  10.436   0.572 -0.1974 -1.0545  1.2466
  304MOL0     H41917   3.270  10.455   0.411 -1.6707 -1.1839  0.5245
  304MOL0     H41918   3.517  10.508   0.420  0.1668  0.6944 -2.4282
  304MOL0     H41919   3.409  10.630   0.348 -0.6645 -0.0985  0.4751
  304MOL0     H41920   3.481  10.649   0.639  2.0817 -0.5484  0.9226
  304MOL0     H41921   3.428  10.774   0.530 -1.4108 -1.5585 -1.9255
  304MOL0     H41922   3.715  10.662   0.491 -2.0908 -0.8915  0.1054
  304MOL0     H41923   3.678  10.804   0.587 -0.5758 -0.9557  1.8944
  304MOL0     H41924   3.595  10.783   0.296  0.3846  1.4201 -0.7790
  304MOL0     H41925   3.578  10.922   0.401  1.4300  0.7500 -0.0495
  304MOL0     H41926   3.847  10.781   0.328  2.4645  0.6469 -0.8733
  304MOL0     H41927   3.829  10.929   0.418 -0.4096  0.2976 -0.3336
  304MOL0     H41928   3.706  11.018   0.197 -0.8032 -0.2774 -5.3586
  304MOL0     H41929   3.781  10.884   0.120 -2.8827  1.2732 -1.5289
  304MOL0     H41930   3.937  11.107   0.274 -1.9389  1.9991 -1.2302
  304MOL0     H41931   3.893  11.110   0.111  1.7766  1.4222  1.5918
  304MOL0     H41932   3.140  10.326   0.593 -2.7199 -2.3870  0.5316
  304MOL0     H41933   2.964  10.259   0.704  1.4087  0.1000  0.9010
  304MOL0     H41934   2.605  10.400   1.012 -1.4289  0.1760 -2.0959
  304MOL0     H41935   2.379  10.283   1.059 -1.7169 -0.5329 -1.2521
  304MOL0     H41936   0.615   9.411   0.467 -2.7862 -1.6661 -0.8408
  304MOL0     H41937   0.401   9.342   0.479 -0.1196  2.2067 -0.5194
  304MOL0     H41938   0.051   9.161   0.685 -5.3512  0.4906  0.8775
  304MOL0     H41939  -0.171   9.042   0.629 -0.6077 -1.2645 -2.6463
  304MOL0     H41940  -0.189   8.731   0.344  0.8199 -0.6624  0.3407
  304MOL0     H41941  -0.182   8.638   0.496  0.2404 -1.0249 -2.8484
  304MOL0     H41942  -0.428   8.694   0.532  2.1502 -3.5042  1.2600
  304MOL0     H41943  -0.390   8.606   0.376  2.1096  0.0172  0.1365
  304MOL0     H41944  -0.475   8.902   0.420  3.5008  1.4289 -1.0498
  304MOL0     H41945  -0.418   8.841   0.265 -1.8643  0.5043 -0.6509
  304MOL0     H41946  -0.589   8.677   0.249  0.2238 -0.9103  0.9691
  304MOL0     H41947  -0.661   8.829   0.257 -1.4879 -0.6618  0.4229
  304MOL0     H41948  -0.769   8.628   0.626  1.4071  3.0875  1.6299
  304MOL0     H41949   0.030   8.738   0.424  3.6127  0.4249 -1.5983
  304MOL0     H41950   0.327   8.866   0.384 -1.0285  1.7202  0.8323
  304MOL0     H41951   0.360   8.802   0.546  4.9428 -0.2641 -4.6366
  304MOL0     H41952   0.263   8.704   0.437 -1.6758 -0.2921  1.5002
  305MOL0     O41953   1.686   8.441   7.916  0.3697  0.3902  0.3837
  305MOL0     C41954   1.654   8.549   7.947  0.4391 -0.1523 -0.1973
  305MOL0     O41955   1.697   8.623   8.062  0.0785  0.2014 -0.3653
  305MOL0     C41956   1.778   8.550   8.150  0.0725  0.0651  1.2612
  305MOL0     C41957   1.906   8.509   8.118 -0.3118  0.4969 -0.6931
  305MOL0     C41958   1.993   8.446   8.211  0.1674  0.0526 -0.5413
  305MOL0     C41959   1.949   8.408   8.339  0.6201  0.3909 -0.4055
  305MOL0     O41960   2.036   8.345   8.422  0.2909  1.0727  0.3893
  305MOL0     C41961   1.987   8.265   8.526  0.6385 -0.3711 -0.2181
  305MOL0     C41962   2.089   8.154   8.573  0.1535 -0.1685  0.0675
  305MOL0     C41963   2.222   8.214   8.599 -0.2751  0.2608 -0.2171
  305MOL0     C41964   2.326   8.115   8.641 -0.3039 -0.2227 -0.5354
  305MOL0     C41965   2.331   8.079   8.794 -0.0008 -0.3826  1.0963
  305MOL0     C41966   2.448   8.151   8.862  0.0589  0.2538  0.5693
  305MOL0     C41967   2.455   8.107   9.005 -0.8712  0.1616 -0.0822
  305MOL0     C41968   2.356   8.167   9.102  0.4290 -0.5248  0.1854
  305MOL0     N41969   2.410   8.264   9.197  0.2237 -0.4785  0.0926
  305MOL0     C41970   2.524   8.345   9.179 -0.5625  0.7157 -0.2361
  305MOL0     C41971   2.511   8.438   9.274 -0.9934 -0.3475 -0.7399
  305MOL0     C41972   2.611   8.533   9.320  0.3228  0.1142 -0.4215
  305MOL0     C41973   2.613   8.653   9.229 -0.2132  0.6846  1.2697
  305MOL0     C41974   2.716   8.755   9.266  0.3698  0.1722  0.3115
  305MOL0     C41975   2.852   8.730   9.199 -0.5571  0.5077  0.2055
  305MOL0     O41976   2.926   8.620   9.271  0.5915  0.9679 -0.2945
  305MOL0     C41977   3.026   8.656   9.365 -0.1376  0.0127 -0.6799
  305MOL0     C41978   3.086   8.549   9.433 -0.2108  0.0499  0.4156
  305MOL0     C41979   3.199   8.569   9.510 -0.0755 -0.3846 -0.4948
  305MOL0     C41980   3.245   8.447   9.586 -0.7340 -0.1758  1.0464
  305MOL0     C41981   3.264   8.694   9.523  0.1617 -0.9429 -1.1525
  305MOL0     C41982   3.391   8.721   9.605 -0.0001  0.8431  0.8491
  305MOL0     O41983   3.422   8.852   9.601 -0.2019  0.3869 -1.0831
  305MOL0     C41984   3.456   8.921   9.719  0.2746  0.4120  0.3859
  305MOL0     C41985   3.430   8.890   9.850  0.0677  0.5229  0.1902
  305MOL0     C41986   3.489   8.971   9.947  0.2522  0.0591 -0.2061
  305MOL0     C41987   3.585   9.072   9.925 -0.4576  0.5508 -0.0035
  305MOL0     O41988   3.656   9.134  10.025 -0.0458  0.2120  0.2726
  305MOL0     C41989   3.677   9.046  10.140 -0.2496  0.1693 -0.2491
  305MOL0     C41990   3.815   9.091  10.197 -0.2865  0.4031  0.0862
  305MOL0     C41991   3.852   9.013  10.323  0.5966 -0.0828 -0.6495
  305MOL0     C41992   3.756   9.014  10.439 -0.5151  0.1845  1.2180
  305MOL0     C41993   3.819   8.978  10.574 -0.3079 -0.4405  0.8045
  305MOL0     C41994   3.911   9.078  10.629 -0.1389  0.4853 -0.2372
  305MOL0     C41995   3.955   9.042  10.774 -1.0022  0.0729  0.0569
  305MOL0     C41996   4.065   9.141  10.818 -0.2471  0.6070 -0.1620
  305MOL0    Cl41997   4.127   9.108  10.985 -0.6197  0.3305 -0.3128
  305MOL0     C41998   3.617   9.093   9.791 -0.3203  0.3452 -0.3641
  305MOL0     C41999   3.550   9.023   9.690 -0.1876 -0.4254  0.5212
  305MOL0     O42000   3.458   8.637   9.662  0.3471 -0.1683  0.3068
  305MOL0     C42001   3.203   8.807   9.458 -0.4393  1.2357 -0.5337
  305MOL0     C42002   3.084   8.784   9.389 -0.1248 -0.2602  0.0130
  305MOL0     N42003   2.401   8.410   9.353  0.2345 -1.1338  0.1633
  305MOL0     N42004   2.335   8.314   9.298  1.2975  1.1595 -0.4274
  305MOL0     C42005   1.811   8.437   8.370 -0.0777 -1.0880  0.2830
  305MOL0     C42006   1.733   8.510   8.279 -0.1517 -0.3810  0.0809
  305MOL0     C42007   1.579   8.635   7.850  0.5392 -0.2272 -0.0974
  305MOL0     C42008   1.535   8.773   7.886 -0.0708 -0.0494  0.2606
  305MOL0     C42009   1.462   8.863   7.802  0.7141  0.8038 -0.2830
  305MOL0     C42010   1.413   8.818   7.688  1.1208  0.3632  0.5383
  305MOL0     O42011   1.334   8.897   7.610 -0.5281 -0.3177 -0.7164
  305MOL0     C42012   1.247   8.992   7.679  0.5524 -0.2846 -0.5644
  305MOL0     C42013   1.297   9.139   7.677  0.2658  0.1689  0.2524
  305MOL0     C42014   1.189   9.236   7.754  0.3253 -0.2217  0.0797
  305MOL0     C42015   1.175   9.366   7.686  0.4064  0.5156  0.8214
  305MOL0     C42016   1.137   9.339   7.542 -0.3151 -0.8727 -0.8010
  305MOL0     C42017   1.093   9.334   7.430  0.8348  0.3601  0.3510
  305MOL0     C42018   1.453   8.693   7.647  1.2824 -0.5635 -0.3205
  305MOL0     C42019   1.530   8.601   7.726 -0.3286  0.6300  0.2096
  305MOL0     C42020   1.529   8.465   7.663  1.5408 -0.1246  0.5186
  305MOL0     H42021   1.947   8.530   8.020  1.4089  1.7934  0.2460
  305MOL0     H42022   2.098   8.418   8.205  0.0516 -0.2998 -0.9697
  305MOL0     H42023   1.889   8.222   8.503  1.0506 -1.0734 -0.7086
  305MOL0     H42024   1.982   8.347   8.598  0.8875  1.6459 -2.3799
  305MOL0     H42025   2.051   8.083   8.647  2.0766 -0.8441  0.4618
  305MOL0     H42026   2.101   8.089   8.485 -2.3457 -1.5803  0.6698
  305MOL0     H42027   2.276   8.264   8.518  0.6248 -0.6552 -0.2007
  305MOL0     H42028   2.196   8.285   8.678 -1.8329  1.2811 -1.5873
  305MOL0     H42029   2.309   8.020   8.589 -0.5157 -1.2376  1.3003
  305MOL0     H42030   2.431   8.141   8.625 -0.4860  0.6862 -0.3113
  305MOL0     H42031   2.343   7.971   8.807 -0.8899 -0.7095 -0.4888
  305MOL0     H42032   2.237   8.113   8.839  0.2546  0.4766  0.9968
  305MOL0     H42033   2.539   8.151   8.802  0.9263  0.7516  1.8405
  305MOL0     H42034   2.414   8.255   8.865 -0.5877  0.0216  2.0828
  305MOL0     H42035   2.559   8.133   9.027 -0.5988  1.2178 -2.3354
  305MOL0     H42036   2.449   7.998   9.017  0.4405 -0.1148 -1.5198
  305MOL0     H42037   2.288   8.222   9.036  1.9739  2.5388  0.9441
  305MOL0     H42038   2.302   8.092   9.160 -1.9871  2.0262  1.5135
  305MOL0     H42039   2.610   8.340   9.113 -0.2535  3.4062 -0.1370
  305MOL0     H42040   2.711   8.492   9.335  1.4846  2.7605 -0.3580
  305MOL0     H42041   2.580   8.567   9.420  0.8708  1.0066 -0.5410
  305MOL0     H42042   2.628   8.638   9.121  0.4686  1.2123  1.2889
  305MOL0     H42043   2.518   8.702   9.252 -0.7785 -1.1397  3.1915
  305MOL0     H42044   2.654   8.841   9.242 -0.8188 -0.1395  2.1006
  305MOL0     H42045   2.744   8.762   9.371  0.6530 -1.0124  0.3318
  305MOL0     H42046   2.831   8.705   9.095  3.2769 -0.7069 -0.4369
  305MOL0     H42047   2.901   8.827   9.210  0.0991  0.1060  0.9453
  305MOL0     H42048   3.042   8.451   9.420  0.8055 -0.3287 -0.2591
  305MOL0     H42049   3.170   8.368   9.590 -2.6118  1.0632 -3.4695
  305MOL0     H42050   3.282   8.464   9.688  1.3684 -1.2667  0.5201
  305MOL0     H42051   3.332   8.398   9.542 -0.8987 -0.0246  0.5435
  305MOL0     H42052   3.376   8.800   9.876  0.4201 -0.0831 -1.1207
  305MOL0     H42053   3.455   8.952  10.048  0.2925 -1.1443 -0.4038
  305MOL0     H42054   3.602   9.055  10.219  0.8460 -1.1187  0.9924
  305MOL0     H42055   3.682   8.943  10.105 -2.5159  0.3610 -1.2818
  305MOL0     H42056   3.887   9.055  10.123 -1.1478 -2.4682  0.5198
  305MOL0     H42057   3.833   9.198  10.209  0.0657  0.7680 -3.0090
  305MOL0     H42058   3.944   9.059  10.360 -0.1343  0.3519  0.7094
  305MOL0     H42059   3.881   8.915  10.284 -0.4857  0.1152 -2.0210
  305MOL0     H42060   3.672   8.951  10.408  2.2179 -1.8511 -3.0312
  305MOL0     H42061   3.719   9.116  10.454 -2.7757 -0.8338  3.1860
  305MOL0     H42062   3.734   8.960  10.641  0.5799  0.7366  2.3129
  305MOL0     H42063   3.865   8.882  10.551 -1.0101 -0.1722 -2.0288
  305MOL0     H42064   3.871   9.179  10.618  0.3688  0.7124 -0.0262
  305MOL0     H42065   3.995   9.084  10.559 -0.1351  1.8705 -0.1271
  305MOL0     H42066   4.015   8.951  10.764  2.4291  2.1241  0.3697
  305MOL0     H42067   3.867   9.035  10.839 -1.3299  2.8639  0.0048
  305MOL0     H42068   4.029   9.244  10.809  2.0498  1.3313 -2.2695
  305MOL0     H42069   4.152   9.129  10.752 -0.9436  0.1232 -1.0157
  305MOL0     H42070   3.683   9.176   9.767 -1.1097  1.1670  0.2433
  305MOL0     H42071   3.571   9.049   9.587  2.7032 -1.7202  0.7083
  305MOL0     H42072   3.241   8.909   9.467 -3.3487  2.2800  1.6380
  305MOL0     H42073   3.040   8.873   9.345 -0.2091 -0.1246  0.3598
  305MOL0     H42074   1.766   8.418   8.467 -1.0810  4.0350  1.1037
  305MOL0     H42075   1.644   8.556   8.322  0.5460 -0.6158  1.8502
  305MOL0     H42076   1.579   8.814   7.976 -0.0173  1.2481 -0.3476
  305MOL0     H42077   1.437   8.959   7.846  3.5952  0.8607  1.4432
  305MOL0     H42078   1.151   9.002   7.629  0.8407  1.3544 -0.8494
  305MOL0     H42079   1.228   8.957   7.781  4.2237 -2.0954 -0.3243
  305MOL0     H42080   1.304   9.171   7.572 -1.1658  2.4701  0.7755
  305MOL0     H42081   1.402   9.156   7.702  1.2700  0.4016 -3.4504
  305MOL0     H42082   1.105   9.168   7.774 -0.0317  0.4863  1.0729
  305MOL0     H42083   1.228   9.263   7.852  2.0957 -0.0407 -0.6505
  305MOL0     H42084   1.262   9.431   7.700 -0.4789  1.5370  1.7650
  305MOL0     H42085   1.085   9.409   7.731 -1.9346 -0.9533 -2.0514
  305MOL0     H42086   1.047   9.337   7.333 -0.5736 -0.8982  0.9355
  305MOL0     H42087   1.410   8.665   7.551  0.3850 -4.4600  1.0641
  305MOL0     H42088   1.476   8.479   7.568  1.2497 -0.8851  0.5644
  305MOL0     H42089   1.627   8.423   7.641  1.3410  0.3728 -1.5119
  305MOL0     H42090   1.472   8.408   7.738 -0.7819 -1.4833 -2.1038
  306MOL0     O42091   0.774   9.442  10.450  0.2222 -0.6857 -0.3350
  306MOL0     C42092   0.699   9.507  10.523 -0.7672  1.2652 -0.0294
  306MOL0     O42093   0.672   9.484  10.658  0.2922  0.3086  1.1762
  306MOL0     C42094   0.756   9.406  10.735 -0.3435  0.2329 -0.2067
  306MOL0     C42095   0.713   9.284  10.791 -0.3043  0.5634 -0.0622
  306MOL0     C42096   0.805   9.218  10.872 -0.6489  0.0927 -0.1049
  306MOL0     C42097   0.934   9.266  10.901 -0.2735 -0.3319  0.7258
  306MOL0     O42098   1.029   9.185  10.959  0.3899  1.2571  0.3874
  306MOL0     C42099   1.063   9.231  11.092  0.8866 -0.8712 -0.0538
  306MOL0     C42100   1.165   9.133  11.142 -0.4061  1.0194 -1.2189
  306MOL0     C42101   1.298   9.114  11.060 -0.6130 -0.6239  0.4556
  306MOL0     C42102   1.405   9.230  11.083 -0.1668 -0.0904 -0.3521
  306MOL0     C42103   1.535   9.204  11.008  0.6620 -0.5667 -0.5308
  306MOL0     C42104   1.653   9.288  11.065 -0.5155 -0.0009  0.0374
  306MOL0     C42105   1.785   9.266  10.982  0.3618  1.2503  0.3291
  306MOL0     C42106   1.920   9.303  11.053  0.3675  0.6243  0.7006
  306MOL0     N42107   1.948   9.446  11.044 -0.0617 -0.3164 -0.1983
  306MOL0     C42108   1.942   9.533  11.151  0.1087  0.7075  0.1979
  306MOL0     C42109   2.033   9.634  11.126 -0.6372  0.0300 -1.0621
  306MOL0     C42110   2.098   9.732  11.216  0.0348 -0.5667 -0.4800
  306MOL0     C42111   2.164   9.857  11.145 -0.3348  0.4617 -0.6466
  306MOL0     C42112   2.266   9.925  11.241  0.1658 -0.4103 -0.5654
  306MOL0     C42113   2.320  10.050  11.175  0.4179  0.1878  0.7794
  306MOL0     O42114   2.435  10.082  11.246 -0.4594  0.4572  0.4705
  306MOL0     C42115   2.510  10.195  11.229  0.2684  0.7572 -0.4847
  306MOL0     C42116   2.479  10.300  11.144  1.0801  0.0668  0.6705
  306MOL0     C42117   2.569  10.404  11.114 -0.1171  0.4670 -0.3812
  306MOL0     C42118   2.538  10.502  11.007 -0.9669 -0.1301  0.1107
  306MOL0     C42119   2.691  10.405  11.184 -0.0548 -0.6174  0.0995
  306MOL0     C42120   2.798  10.503  11.180 -0.7349  0.3948  0.5910
  306MOL0     O42121   2.857  10.533  11.297 -0.2250  0.1003  0.0423
  306MOL0     C42122   2.978  10.584  11.294 -0.1230 -0.4830  0.3766
  306MOL0     C42123   3.013  10.711  11.340  0.1670 -0.3912  0.3808
  306MOL0     C42124   3.144  10.756  11.330 -0.5764  0.8604 -0.7625
  306MOL0     C42125   3.246  10.676  11.272 -0.1751 -0.0074 -0.6861
  306MOL0     O42126   3.352  10.756  11.264  0.7829  0.1263  0.1998
  306MOL0     C42127   3.464  10.681  11.318  0.5566 -0.0703  0.2243
  306MOL0     C42128   3.555  10.781  11.370 -0.3373  0.7520  0.1605
  306MOL0     C42129   3.605  10.876  11.260 -0.5002 -0.0189  0.1082
  306MOL0     C42130   3.740  10.947  11.296 -0.0683  0.0890 -0.0142
  306MOL0     C42131   3.782  11.023  11.168 -0.0905 -0.0492 -0.3573
  306MOL0     C42132   3.901  11.120  11.202 -0.1673 -0.1943  0.5779
  306MOL0     C42133   4.031  11.038  11.213 -0.0267  0.5882  0.6105
  306MOL0     C42134   4.147  11.101  11.134  0.3808  0.1365 -0.0886
  306MOL0    Cl42135   4.295  11.029  11.180 -0.5176 -0.1728  0.0295
  306MOL0     C42136   3.209  10.546  11.234 -0.4218 -0.0121  0.2245
  306MOL0     C42137   3.080  10.502  11.255  0.6366 -0.8958  0.6572
  306MOL0     O42138   2.824  10.553  11.072  0.4396  0.2507 -0.2682
  306MOL0     C42139   2.723  10.299  11.270  0.2140  0.4645 -0.3237
  306MOL0     C42140   2.634  10.194  11.293  0.0934  0.2603  0.0321
  306MOL0     N42141   2.089   9.605  11.008  0.3730  0.5656  0.2089
  306MOL0     N42142   2.028   9.506  10.958 -0.0502  0.5302 -0.5695
  306MOL0     C42143   0.966   9.392  10.849  0.1136  0.0402  0.7094
  306MOL0     C42144   0.880   9.462  10.766 -1.1865  0.8326  0.2277
  306MOL0     C42145   0.627   9.615  10.461  0.0768  0.8806 -0.2757
  306MOL0     C42146   0.569   9.581  10.347 -0.5868  0.8686  0.5135
  306MOL0     C42147   0.491   9.668  10.276 -0.0666 -0.3635  0.5803
  306MOL0     C42148   0.481   9.802  10.316  0.2307 -0.9623  0.1350
  306MOL0     O42149   0.406   9.894  10.244  0.3922  0.0639 -0.2894
  306MOL0     C42150   0.292   9.954  10.291 -0.5830 -0.0304 -0.0600
  306MOL0     C42151   0.197   9.860  10.361  0.2441 -0.4250 -0.2844
  306MOL0     C42152   0.074   9.933  10.405 -0.0512 -0.4417 -0.4790
  306MOL0     C42153  -0.022   9.859  10.491 -0.9170 -0.7710 -0.4326
  306MOL0     C42154  -0.142   9.942  10.514 -0.8072  1.1930 -0.1201
  306MOL0     C42155  -0.236  10.004  10.529  0.7274 -0.9105  0.1627
  306MOL0     C42156   0.536   9.835  10.436  0.1232  0.3349  0.4089
  306MOL0     C42157   0.608   9.740  10.512 -0.2780  0.3838  0.2056
  306MOL0     C42158   0.671   9.789  10.633  0.8482  0.1038  0.3798
  306MOL0     H42159   0.618   9.238  10.768 -0.4125  1.0986 -0.7134
  306MOL0     H42160   0.781   9.125  10.922  0.7323 -1.4805 -2.1847
  306MOL0     H42161   0.980   9.208  11.159  1.0918 -1.0379  0.1452
  306MOL0     H42162   1.089   9.336  11.104  1.5122 -1.1796  1.5260
  306MOL0     H42163   1.198   9.158  11.243 -2.0425 -0.5225 -0.2528
  306MOL0     H42164   1.117   9.035  11.152  1.9141 -0.0390  0.4873
  306MOL0     H42165   1.345   9.017  11.082  1.9282  0.5339  0.4250
  306MOL0     H42166   1.264   9.115  10.956 -1.6792 -2.6609  0.7233
  306MOL0     H42167   1.371   9.326  11.044 -1.1123  0.8904  2.6501
  306MOL0     H42168   1.422   9.221  11.191 -2.1974  1.5664  0.1759
  306MOL0     H42169   1.528   9.217  10.900  1.0824  2.7574 -0.2778
  306MOL0     H42170   1.562   9.100  11.029 -0.2018 -0.4158  1.6305
  306MOL0     H42171   1.629   9.394  11.068 -3.8767 -0.6181  3.8141
  306MOL0     H42172   1.665   9.249  11.167  0.3938 -1.7959 -0.7156
  306MOL0     H42173   1.778   9.307  10.881 -0.8844 -1.3328 -0.7502
  306MOL0     H42174   1.794   9.158  10.965 -0.2548  1.5016 -1.9005
  306MOL0     H42175   1.913   9.269  11.157  0.6815 -0.2528  0.4440
  306MOL0     H42176   1.999   9.249  11.000 -1.3989 -1.0520 -0.3706
  306MOL0     H42177   1.886   9.520  11.243  1.0348 -0.6654  0.5963
  306MOL0     H42178   2.173   9.695  11.287 -1.4979 -2.8456  0.0356
  306MOL0     H42179   2.023   9.769  11.286 -0.3538  1.2621 -1.7739
  306MOL0     H42180   2.218   9.828  11.054  0.1893  2.2159 -0.9419
  306MOL0     H42181   2.092   9.938  11.128  0.6713  1.3152 -0.9750
  306MOL0     H42182   2.213   9.949  11.333  2.1423  0.1408  0.4691
  306MOL0     H42183   2.341   9.849  11.264  0.5281  0.6661  2.2180
  306MOL0     H42184   2.341  10.041  11.068 -0.8545  0.1605  0.5133
  306MOL0     H42185   2.252  10.135  11.185 -1.0553 -0.8519  0.1885
  306MOL0     H42186   2.385  10.283  11.092  2.4215 -0.5122 -1.7204
  306MOL0     H42187   2.431  10.508  10.983 -0.8636  1.2837 -0.0592
  306MOL0     H42188   2.577  10.467  10.911  1.9146  1.2439  0.6811
  306MOL0     H42189   2.575  10.598  11.043 -2.7975  0.4385  0.6155
  306MOL0     H42190   2.935  10.772  11.385  1.4899  2.1627 -0.6300
  306MOL0     H42191   3.164  10.855  11.372 -1.5976  1.3146 -1.3285
  306MOL0     H42192   3.429  10.605  11.389 -1.4892  1.3551  0.8532
  306MOL0     H42193   3.531  10.638  11.243  1.3019  1.7601 -0.2158
  306MOL0     H42194   3.500  10.839  11.445 -0.0993  0.7932  0.3070
  306MOL0     H42195   3.637  10.721  11.411 -1.4143 -0.4365  0.6064
  306MOL0     H42196   3.533  10.958  11.252  2.2669  3.1889  3.9839
  306MOL0     H42197   3.617  10.830  11.161  1.1401  0.4905  0.0307
  306MOL0     H42198   3.818  10.874  11.316 -1.2357 -0.7927  1.6316
  306MOL0     H42199   3.723  11.012  11.383  0.0512  1.6006 -1.0873
  306MOL0     H42200   3.809  10.954  11.088  2.5383 -0.7649  1.0210
  306MOL0     H42201   3.697  11.086  11.138 -1.7070 -2.9210 -2.3205
  306MOL0     H42202   3.892  11.180  11.293 -0.8394 -1.5112  1.4069
  306MOL0     H42203   3.909  11.199  11.127 -1.5952  0.1147  0.7331
  306MOL0     H42204   4.019  10.936  11.175 -0.7399 -0.0695  2.4947
  306MOL0     H42205   4.068  11.021  11.314 -2.2725  0.9324  1.5544
  306MOL0     H42206   4.151  11.210  11.142 -1.2947  0.3337 -1.3073
  306MOL0     H42207   4.139  11.088  11.026  2.1179  1.9205 -0.4817
  306MOL0     H42208   3.284  10.473  11.207 -1.3722 -0.0562 -2.6973
  306MOL0     H42209   3.055  10.401  11.225 -1.1421  0.3469 -2.4727
  306MOL0     H42210   2.818  10.278  11.318 -0.9260 -2.8032  0.8185
  306MOL0     H42211   2.667  10.112  11.356 -2.7078 -0.8130  0.2489
  306MOL0     H42212   1.070   9.423  10.846 -1.4151  6.6194  1.6386
  306MOL0     H42213   0.921   9.549  10.716 -0.7753  0.7584  0.4280
  306MOL0     H42214   0.578   9.479  10.312 -0.6898  0.2902  2.1108
  306MOL0     H42215   0.460   9.632  10.178  0.5793  0.8474 -0.0896
  306MOL0     H42216   0.321  10.033  10.361 -1.0000 -0.9269  1.1534
  306MOL0     H42217   0.244  10.008  10.209  0.9680  2.0193  0.2964
  306MOL0     H42218   0.246   9.816  10.449  1.4266  2.1620  0.4648
  306MOL0     H42219   0.163   9.786  10.288 -2.1905  0.9972 -0.7084
  306MOL0     H42220   0.103  10.025  10.457 -1.6758 -0.6360  0.8304
  306MOL0     H42221   0.028   9.967  10.312  0.3223  1.4323 -0.0185
  306MOL0     H42222   0.027   9.837  10.587  0.1694  1.4401 -0.4169
  306MOL0     H42223  -0.046   9.762  10.446 -0.5206 -0.7345 -0.7309
  306MOL0     H42224  -0.330  10.052  10.549  1.4518 -0.1004  1.8211
  306MOL0     H42225   0.521   9.928  10.491  0.2679  1.0433 -0.7238
  306MOL0     H42226   0.769   9.825  10.600  1.4949 -2.3677 -0.5805
  306MOL0     H42227   0.607   9.864  10.681 -1.6870 -0.6388 -1.6173
  306MOL0     H42228   0.686   9.718  10.714 -2.5159  0.4079  1.4023
  307MOL0     O42229   3.611  11.152   9.510  0.0043 -0.2148  0.4515
  307MOL0     C42230   3.551  11.053   9.467  0.0524  0.2647 -0.2232
  307MOL0     O42231   3.609  10.932   9.434  0.5818  1.1399  0.2038
  307MOL0     C42232   3.740  10.911   9.427  0.0750  0.5453 -0.2986
  307MOL0     C42233   3.838  10.947   9.525 -0.5376  0.9923  0.1840
  307MOL0     C42234   3.976  10.936   9.501  1.0883 -1.0012 -0.8318
  307MOL0     C42235   4.025  10.892   9.374 -0.4464 -0.1547 -0.7455
  307MOL0     O42236   4.162  10.885   9.357  0.0963  0.7849  0.2915
  307MOL0     C42237   4.209  10.764   9.296 -0.1451  1.2660  0.5245
  307MOL0     C42238   4.296  10.801   9.171  0.3364 -0.3302 -0.1901
  307MOL0     C42239   4.293  10.694   9.072  0.2464  0.2396 -0.3578
  307MOL0     C42240   4.332  10.743   8.939 -0.2138 -0.5689  0.2263
  307MOL0     C42241   4.333  10.650   8.817  0.5923 -0.0975  0.5164
  307MOL0     C42242   4.325  10.738   8.689 -0.4149 -0.9987  0.1000
  307MOL0     C42243   4.389  10.674   8.569  0.5532  0.0923 -0.2886
  307MOL0     C42244   4.324  10.551   8.517 -0.0116  0.0178 -0.7173
  307MOL0     N42245   4.380  10.535   8.384 -0.6071  0.0435  1.1070
  307MOL0     C42246   4.514  10.546   8.342 -0.0280 -0.2551 -0.3339
  307MOL0     C42247   4.506  10.519   8.207  0.7698 -0.0114 -0.7434
  307MOL0     C42248   4.621  10.515   8.115 -0.4547 -0.3992  0.8854
  307MOL0     C42249   4.620  10.396   8.015  0.3275  0.0741  0.3391
  307MOL0     C42250   4.753  10.368   7.958  0.1746 -0.9292 -0.5855
  307MOL0     C42251   4.835  10.499   7.925  0.4756 -0.1932 -0.7047
  307MOL0     O42252   4.953  10.471   7.843  0.1931 -0.1011 -0.2925
  307MOL0     C42253   5.038  10.565   7.793  0.0852  0.8104 -0.3996
  307MOL0     C42254   5.046  10.697   7.836  0.4594  0.5147  0.4361
  307MOL0     C42255   5.148  10.778   7.795 -0.6908  0.3314  0.2107
  307MOL0     C42256   5.154  10.916   7.853 -0.3829  0.5486 -0.2033
  307MOL0     C42257   5.247  10.734   7.698  0.7392  0.8529 -0.8052
  307MOL0     C42258   5.348  10.820   7.636 -0.7162  0.6030  1.0444
  307MOL0     O42259   5.366  10.780   7.501 -0.2927  0.1066  0.3952
  307MOL0     C42260   5.456  10.850   7.429 -0.7715 -0.5894 -0.1140
  307MOL0     C42261   5.421  10.918   7.315 -0.1176 -0.4648  1.0592
  307MOL0     C42262   5.517  10.985   7.237  0.1627 -0.3962 -0.8962
  307MOL0     C42263   5.656  10.970   7.274  0.0493  0.7813  0.3441
  307MOL0     O42264   5.754  11.010   7.180 -0.1598 -0.0856  0.1724
  307MOL0     C42265   5.883  10.955   7.166  1.3842  0.5834 -0.2712
  307MOL0     C42266   5.864  10.819   7.089 -0.0074 -0.0115 -0.6967
  307MOL0     C42267   5.920  10.822   6.939  0.1996 -0.1907 -0.0607
  307MOL0     C42268   5.824  10.815   6.825  0.0670 -0.7333 -0.3139
  307MOL0     C42269   5.898  10.813   6.697  0.1299 -0.1727  0.9738
  307MOL0     C42270   5.790  10.816   6.583  0.4843  0.8002  0.8228
  307MOL0     C42271   5.870  10.848   6.451  0.3368 -0.3138 -1.3936
  307MOL0     C42272   5.780  10.875   6.329 -0.5143  0.1510 -0.9729
  307MOL0    Cl42273   5.677  11.018   6.365 -0.1256 -0.3751  0.0893
  307MOL0     C42274   5.696  10.904   7.391 -0.5810 -0.3173 -0.4464
  307MOL0     C42275   5.595  10.856   7.470  0.1508 -0.0967  0.2214
  307MOL0     O42276   5.409  10.912   7.697 -0.1327  0.2489  0.2041
  307MOL0     C42277   5.239  10.600   7.657  0.8144  0.7864 -0.0637
  307MOL0     C42278   5.133  10.520   7.707 -1.1636  0.5880 -0.1717
  307MOL0     N42279   4.373  10.505   8.171 -0.5214 -0.4249  0.3735
  307MOL0     N42280   4.296  10.513   8.276 -0.0025  0.2487  0.4879
  307MOL0     C42281   3.929  10.854   9.279  0.3305 -0.3548  0.4385
  307MOL0     C42282   3.789  10.861   9.304  0.3036  0.5818 -0.5624
  307MOL0     C42283   3.411  11.072   9.437  0.0528  0.7300 -1.1551
  307MOL0     C42284   3.357  11.008   9.326  0.6699 -0.0466  0.1073
  307MOL0     C42285   3.221  11.033   9.296 -0.8213  0.0162  0.3710
  307MOL0     C42286   3.134  11.121   9.371 -0.7047  0.7400  0.0565
  307MOL0     O42287   3.011  11.158   9.320 -0.0105 -0.2087 -0.2957
  307MOL0     C42288   2.900  11.167   9.409  0.2403  0.5814 -0.5312
  307MOL0     C42289   2.775  11.224   9.337  0.7435 -0.5437  0.4710
  307MOL0     C42290   2.657  11.267   9.426 -0.6187  0.8535 -0.6977
  307MOL0     C42291   2.647  11.417   9.447  0.1762 -0.1234  0.7828
  307MOL0     C42292   2.743  11.468   9.545 -0.7587  0.0700 -0.9441
  307MOL0     C42293   2.816  11.518   9.623  0.2803 -0.2995  0.0118
  307MOL0     C42294   3.199  11.172   9.490 -0.1500 -0.4066  0.0759
  307MOL0     C42295   3.331  11.153   9.522 -0.3401 -0.0302  0.1051
  307MOL0     C42296   3.374  11.220   9.652 -0.8276 -0.5517 -0.5126
  307MOL0     H42297   3.806  10.971   9.626 -1.8045 -1.4407  0.4557
  307MOL0     H42298   4.048  10.950   9.581  3.1368 -3.4993 -2.0892
  307MOL0     H42299   4.132  10.687   9.288 -0.6026  1.7631  0.1696
  307MOL0     H42300   4.289  10.717   9.355 -1.6758 -1.3407  0.6693
  307MOL0     H42301   4.265  10.895   9.125 -2.6571 -0.0294  2.1408
  307MOL0     H42302   4.397  10.816   9.212 -0.5550  0.7143  1.7887
  307MOL0     H42303   4.364  10.616   9.099  0.4412  0.6560  0.3450
  307MOL0     H42304   4.193  10.653   9.058  0.2982  0.9968 -4.3029
  307MOL0     H42305   4.260  10.820   8.908  0.4348  0.3969  1.0476
  307MOL0     H42306   4.430  10.792   8.941  1.0730 -3.0414  1.3898
  307MOL0     H42307   4.243  10.590   8.832  1.0248 -0.4644  1.7582
  307MOL0     H42308   4.418  10.581   8.816 -0.3631 -1.3072 -0.5759
  307MOL0     H42309   4.219  10.756   8.668 -0.3220 -0.2261  0.2755
  307MOL0     H42310   4.379  10.830   8.711 -0.3843 -1.3839  1.8142
  307MOL0     H42311   4.496  10.667   8.587  0.5057 -2.0753 -0.6453
  307MOL0     H42312   4.367  10.747   8.490  0.3717 -0.6096 -0.8955
  307MOL0     H42313   4.340  10.466   8.584  0.1557  0.5638 -0.0486
  307MOL0     H42314   4.215  10.550   8.517 -0.0958  0.2752 -3.8340
  307MOL0     H42315   4.598  10.569   8.406  0.3069 -1.4433 -0.3404
  307MOL0     H42316   4.713  10.496   8.172  0.4409  0.9223 -0.0600
  307MOL0     H42317   4.620  10.614   8.067 -0.2958 -0.8987 -0.1650
  307MOL0     H42318   4.591  10.309   8.075  0.9781  1.5834  3.0186
  307MOL0     H42319   4.550  10.428   7.937  0.5548  1.0174  0.5098
  307MOL0     H42320   4.819  10.319   8.031  0.0677 -3.5871 -2.1779
  307MOL0     H42321   4.731  10.300   7.876 -0.0524  0.2814 -1.5528
  307MOL0     H42322   4.766  10.564   7.871  0.9507 -0.0867 -1.1949
  307MOL0     H42323   4.864  10.544   8.020  2.4610 -1.0599 -0.8360
  307MOL0     H42324   4.977  10.728   7.913  1.4162  0.1930  1.4382
  307MOL0     H42325   5.095  10.925   7.945 -1.8555  0.0483 -1.0744
  307MOL0     H42326   5.125  10.987   7.775 -0.0436  1.6579  0.6477
  307MOL0     H42327   5.250  10.948   7.897  0.8515 -1.4333 -1.2772
  307MOL0     H42328   5.320  10.910   7.274 -0.9364  1.5135  2.5469
  307MOL0     H42329   5.477  11.034   7.149 -0.2545  2.2411  0.6438
  307MOL0     H42330   5.942  11.006   7.089 -2.6330  2.1747 -2.6025
  307MOL0     H42331   5.925  10.936   7.265 -1.3463  0.2331  0.9085
  307MOL0     H42332   5.914  10.742   7.148 -0.5576  1.6508  2.1403
  307MOL0     H42333   5.758  10.793   7.090  0.0441 -0.2902 -1.6109
  307MOL0     H42334   5.976  10.730   6.920 -0.6507 -1.1696  1.8931
  307MOL0     H42335   5.991  10.904   6.928 -0.0760 -0.0695 -1.0133
  307MOL0     H42336   5.764  10.906   6.835  0.6229 -0.1754 -1.7685
  307MOL0     H42337   5.757  10.729   6.825 -2.3824  1.0687 -0.2287
  307MOL0     H42338   5.952  10.907   6.687  2.8887 -1.4777  2.5550
  307MOL0     H42339   5.963  10.726   6.686 -0.3401 -0.4704  0.4690
  307MOL0     H42340   5.721  10.899   6.599 -1.4744 -0.2037 -1.7205
  307MOL0     H42341   5.731  10.724   6.573 -1.1943  1.9367 -0.0832
  307MOL0     H42342   5.933  10.760   6.442 -3.8252 -3.6920 -0.7173
  307MOL0     H42343   5.928  10.939   6.466 -1.2020  0.9048 -2.4337
  307MOL0     H42344   5.729  10.783   6.299  0.3730 -1.4034  1.8809
  307MOL0     H42345   5.846  10.905   6.247  0.5034  1.1268  0.1660
  307MOL0     H42346   5.792  10.899   7.442 -1.4257  0.3155  1.2827
  307MOL0     H42347   5.632  10.816   7.565  2.9256 -1.1089 -1.1725
  307MOL0     H42348   5.314  10.553   7.595 -0.1728 -0.5043 -0.3341
  307MOL0     H42349   5.147  10.418   7.674  3.3380  1.0466 -0.2866
  307MOL0     H42350   3.963  10.816   9.183  0.9961  2.3228 -0.4775
  307MOL0     H42351   3.720  10.828   9.227  1.9043  0.0481 -1.8090
  307MOL0     H42352   3.419  10.954   9.254 -0.3929 -3.2672  1.4246
  307MOL0     H42353   3.174  10.987   9.210 -1.4719 -1.1530  1.3052
  307MOL0     H42354   2.876  11.066   9.443 -3.6770  0.5646 -2.7096
  307MOL0     H42355   2.913  11.233   9.495 -2.2198  0.9762 -0.3946
  307MOL0     H42356   2.740  11.140   9.275 -1.3170 -0.9963  2.1622
  307MOL0     H42357   2.821  11.299   9.272  3.0628 -2.5743 -0.4375
  307MOL0     H42358   2.567  11.215   9.390  0.4169 -1.1163 -0.6012
  307MOL0     H42359   2.678  11.223   9.524 -1.7159 -1.2044 -1.3167
  307MOL0     H42360   2.544  11.444   9.472 -0.3818 -2.4104  1.1280
  307MOL0     H42361   2.669  11.466   9.352  0.3822 -1.1240  0.3036
  307MOL0     H42362   2.868  11.566   9.703  0.8637  0.9052 -1.0570
  307MOL0     H42363   3.148  11.244   9.553  2.0716  1.7360 -0.4512
  307MOL0     H42364   3.463  11.174   9.697  0.7397 -0.3660 -3.2213
  307MOL0     H42365   3.395  11.325   9.629 -2.0877 -0.4071 -1.1028
  307MOL0     H42366   3.303  11.228   9.736  0.8794 -0.3302  0.9748
  308MOL0     O42367   2.800   0.370   3.682  0.0730  0.3686  0.3191
  308MOL0     C42368   2.826   0.481   3.638 -0.8132 -0.9714 -0.1695
  308MOL0     O42369   2.762   0.593   3.675 -0.1784 -0.0212 -0.5347
  308MOL0     C42370   2.682   0.578   3.782 -0.0777  0.4606  0.5715
  308MOL0     C42371   2.544   0.571   3.762 -0.1512  0.4367 -0.0350
  308MOL0     C42372   2.463   0.565   3.875 -0.3920 -0.0074  1.1191
  308MOL0     C42373   2.510   0.549   4.000  0.4722  0.0078 -0.2629
  308MOL0     O42374   2.411   0.530   4.103  0.4666 -0.3496  0.5832
  308MOL0     C42375   2.449   0.529   4.242  0.1235 -0.2958 -0.3249
  308MOL0     C42376   2.499   0.395   4.278  0.3406  1.3861 -0.2441
  308MOL0     C42377   2.546   0.383   4.421 -0.0805  0.1398  0.1870
  308MOL0     C42378   2.609   0.249   4.464  0.4853 -1.2759 -0.3750
  308MOL0     C42379   2.657   0.254   4.611  0.0447 -0.0425 -0.3974
  308MOL0     C42380   2.687   0.110   4.659 -0.5675 -0.0911 -0.1791
  308MOL0     C42381   2.792   0.116   4.783 -0.1824 -0.3396  0.9189
  308MOL0     C42382   2.831  -0.031   4.816 -0.3834  0.3454 -0.1346
  308MOL0     N42383   2.901  -0.093   4.703 -1.4602 -0.3230 -0.2967
  308MOL0     C42384   3.005  -0.028   4.640  0.3729 -0.8283  0.5914
  308MOL0     C42385   2.992  -0.066   4.508 -0.3316 -0.7398  0.0813
  308MOL0     C42386   3.071  -0.001   4.397 -0.7150 -0.5527 -0.0038
  308MOL0     C42387   2.977   0.063   4.298 -0.3086 -0.4458 -0.3502
  308MOL0     C42388   3.053   0.146   4.187 -0.0998  0.4719  0.2868
  308MOL0     C42389   2.964   0.238   4.116  0.0951  0.0424  0.0022
  308MOL0     O42390   2.889   0.324   4.212 -0.0823  0.6618 -0.4913
  308MOL0     C42391   2.964   0.434   4.263 -0.1060 -0.3364 -0.0034
  308MOL0     C42392   2.927   0.458   4.398 -0.6420  0.4873 -1.0289
  308MOL0     C42393   2.985   0.559   4.478  0.3735 -0.6168  0.0737
  308MOL0     C42394   2.935   0.574   4.618 -0.2053 -0.3442  0.5030
  308MOL0     C42395   3.084   0.637   4.415  0.0618 -0.5545  0.5837
  308MOL0     C42396   3.159   0.740   4.491  0.0270 -0.1910 -0.4826
  308MOL0     O42397   3.178   0.861   4.437  0.3294 -0.2817  0.5254
  308MOL0     C42398   3.168   0.965   4.523  0.1615  0.2922  0.3339
  308MOL0     C42399   3.269   1.053   4.528  0.1293 -1.0945 -0.1114
  308MOL0     C42400   3.270   1.169   4.607 -0.7504  1.0010 -0.5159
  308MOL0     C42401   3.158   1.194   4.692 -0.5632 -0.6473 -0.2694
  308MOL0     O42402   3.143   1.305   4.773  0.2662 -0.1856 -0.3505
  308MOL0     C42403   3.204   1.437   4.749  0.3688  0.0787 -0.3174
  308MOL0     C42404   3.270   1.496   4.880  0.4663 -0.4026  0.0172
  308MOL0     C42405   3.410   1.436   4.883  0.7978 -0.5438  1.0752
  308MOL0     C42406   3.512   1.516   4.802  0.7381 -0.2500  0.0274
  308MOL0     C42407   3.653   1.468   4.802  0.7093  0.3132 -0.4302
  308MOL0     C42408   3.690   1.339   4.755 -0.1907  0.1761 -0.4706
  308MOL0     C42409   3.837   1.319   4.783 -0.1614  0.3169 -0.4235
  308MOL0     C42410   3.884   1.200   4.701  0.3005  0.4771  0.2114
  308MOL0    Cl42411   3.863   1.215   4.531  0.2714 -0.0332 -0.3590
  308MOL0     C42412   3.068   1.091   4.706 -0.0516 -0.4169 -0.2777
  308MOL0     C42413   3.069   0.987   4.615  0.7846 -0.0102 -0.6898
  308MOL0     O42414   3.231   0.694   4.575 -0.1351  0.8763  0.1439
  308MOL0     C42415   3.127   0.613   4.282 -0.0681  0.5791 -0.5533
  308MOL0     C42416   3.066   0.509   4.207  0.9672 -0.1576 -1.3300
  308MOL0     N42417   2.906  -0.178   4.507 -0.1272  0.1489  0.5648
  308MOL0     N42418   2.850  -0.186   4.622  0.2595  0.6433 -0.1989
  308MOL0     C42419   2.652   0.549   4.021  0.2198  0.1471 -0.1022
  308MOL0     C42420   2.734   0.565   3.908 -0.3199  0.2891  0.0172
  308MOL0     C42421   2.923   0.494   3.525 -0.8730  0.3207 -0.5461
  308MOL0     C42422   2.908   0.597   3.429  0.7469  0.5224 -0.4096
  308MOL0     C42423   2.989   0.615   3.319 -0.5779  0.6201 -0.0949
  308MOL0     C42424   3.092   0.519   3.297  1.1561 -0.1594  0.2837
  308MOL0     O42425   3.158   0.527   3.175 -0.2121  0.5021 -0.4828
  308MOL0     C42426   3.076   0.484   3.066  0.1384 -0.3045  1.0430
  308MOL0     C42427   3.136   0.376   2.970 -0.9838  0.0270 -0.7578
  308MOL0     C42428   3.187   0.248   3.031  0.2520 -0.5997  0.5076
  308MOL0     C42429   3.131   0.118   2.976 -0.2715 -1.2390  0.4103
  308MOL0     C42430   3.194   0.070   2.858  0.4036 -0.1343  0.0817
  308MOL0     C42431   3.235   0.037   2.751  0.3959 -0.4898  0.5900
  308MOL0     C42432   3.117   0.426   3.395 -1.4755 -0.6531 -0.3141
  308MOL0     C42433   3.044   0.417   3.521  0.1533 -0.3890  0.4256
  308MOL0     C42434   3.099   0.332   3.633 -0.5005  0.4275  1.1736
  308MOL0     H42435   2.489   0.590   3.670  1.8120  0.4115 -1.2691
  308MOL0     H42436   2.354   0.565   3.873 -0.7032 -3.1298  4.9667
  308MOL0     H42437   2.358   0.555   4.297  0.7715 -0.4462  0.8569
  308MOL0     H42438   2.526   0.602   4.270 -0.7313  0.3952  0.2845
  308MOL0     H42439   2.412   0.330   4.265  0.3961  0.6502  2.3972
  308MOL0     H42440   2.575   0.362   4.207 -1.4490 -1.6946 -0.9196
  308MOL0     H42441   2.618   0.462   4.442 -1.8723  1.5339  1.3532
  308MOL0     H42442   2.458   0.399   4.484 -4.1952 -1.3022 -4.4725
  308MOL0     H42443   2.526   0.181   4.446 -0.5848 -0.3643  0.8921
  308MOL0     H42444   2.684   0.220   4.390  0.8630 -0.5087 -0.3067
  308MOL0     H42445   2.581   0.294   4.679  0.7559 -0.7835  0.8511
  308MOL0     H42446   2.741   0.323   4.620  0.5988 -0.2818 -2.9703
  308MOL0     H42447   2.589   0.070   4.688 -2.3812  2.5407 -2.1690
  308MOL0     H42448   2.724   0.049   4.577 -1.9963  2.9963 -3.3909
  308MOL0     H42449   2.741   0.170   4.864 -0.1501  0.5025  0.3968
  308MOL0     H42450   2.884   0.171   4.761 -0.1538 -0.7533 -0.0613
  308MOL0     H42451   2.897  -0.036   4.903 -0.9053 -1.2140  0.2000
  308MOL0     H42452   2.742  -0.087   4.846  0.7820 -0.8197  1.2549
  308MOL0     H42453   3.064   0.056   4.674 -0.7457 -0.0476  0.6354
  308MOL0     H42454   3.131  -0.078   4.345 -0.7554 -0.1398 -0.6730
  308MOL0     H42455   3.136   0.074   4.443 -1.2285 -0.5289  0.6762
  308MOL0     H42456   2.912  -0.012   4.253 -0.3312 -0.5120 -0.2074
  308MOL0     H42457   2.909   0.122   4.360  0.0264 -0.6471  0.2191
  308MOL0     H42458   3.141   0.201   4.220  0.7316 -1.2258  1.0465
  308MOL0     H42459   3.084   0.070   4.115  0.7521 -0.7104  1.8339
  308MOL0     H42460   3.015   0.301   4.043 -0.1121 -0.2583 -0.4042
  308MOL0     H42461   2.901   0.172   4.055  0.6636 -0.0767 -0.4627
  308MOL0     H42462   2.857   0.395   4.452 -0.6448  2.1939  1.1176
  308MOL0     H42463   2.982   0.666   4.653  1.2638 -0.4689 -0.9994
  308MOL0     H42464   2.984   0.508   4.691  1.1894  0.0747 -0.0146
  308MOL0     H42465   2.826   0.571   4.627 -0.2181 -3.3300  0.5617
  308MOL0     H42466   3.355   1.031   4.466 -0.2296  0.8074 -1.3647
  308MOL0     H42467   3.362   1.227   4.609  0.8660 -1.3165 -1.9691
  308MOL0     H42468   3.275   1.439   4.666  0.6476 -2.5037 -0.2207
  308MOL0     H42469   3.122   1.501   4.716 -0.2321 -0.2204  0.5340
  308MOL0     H42470   3.271   1.606   4.878 -1.9218 -0.3276 -1.3187
  308MOL0     H42471   3.205   1.468   4.963 -0.7933 -1.5874 -1.2899
  308MOL0     H42472   3.401   1.334   4.845  1.8741 -0.8886  1.7033
  308MOL0     H42473   3.451   1.409   4.981 -1.0945 -5.4695  0.7644
  308MOL0     H42474   3.510   1.620   4.834  3.1388 -0.2297  0.3018
  308MOL0     H42475   3.472   1.525   4.700 -1.7698  2.3685  1.1270
  308MOL0     H42476   3.707   1.540   4.739  3.5007 -2.0340 -0.9266
  308MOL0     H42477   3.679   1.487   4.907 -1.1378 -0.7189  0.2536
  308MOL0     H42478   3.669   1.335   4.648 -0.1882  0.1153 -0.4690
  308MOL0     H42479   3.627   1.263   4.803  1.8079  0.3761  2.7493
  308MOL0     H42480   3.844   1.282   4.886 -0.8249  0.2567 -0.3978
  308MOL0     H42481   3.893   1.413   4.775 -1.1441  1.2765  2.6127
  308MOL0     H42482   3.829   1.114   4.740 -5.1169  3.5169  0.1857
  308MOL0     H42483   3.992   1.190   4.718  0.1997  1.6224  1.7894
  308MOL0     H42484   2.984   1.110   4.772  0.4305 -1.3972  0.6396
  308MOL0     H42485   2.987   0.916   4.615 -0.1622  1.0409  0.0244
  308MOL0     H42486   3.199   0.680   4.237  0.3013  2.5101  2.6130
  308MOL0     H42487   3.088   0.499   4.101 -0.9755 -1.1687 -1.6849
  308MOL0     H42488   2.694   0.530   4.120 -2.9963  1.1426  1.5909
  308MOL0     H42489   2.840   0.564   3.934 -1.0746 -0.7118  3.5109
  308MOL0     H42490   2.829   0.668   3.447  2.2287  1.9874  0.6783
  308MOL0     H42491   2.976   0.697   3.250 -0.8100 -1.0563 -2.1383
  308MOL0     H42492   2.978   0.446   3.099 -0.6366 -0.0548 -0.8314
  308MOL0     H42493   3.054   0.575   3.010  2.6299 -1.0704 -1.3850
  308MOL0     H42494   3.227   0.426   2.934 -0.5239 -0.6436 -0.5409
  308MOL0     H42495   3.077   0.358   2.880 -0.3631 -0.3373 -1.1016
  308MOL0     H42496   3.292   0.269   3.053  0.2712  2.0700 -1.6354
  308MOL0     H42497   3.151   0.255   3.134 -0.2128  0.6393  0.2859
  308MOL0     H42498   3.023   0.130   2.961  0.3333  2.1728 -2.3017
  308MOL0     H42499   3.162   0.055   3.060  2.1181  0.3548  0.8210
  308MOL0     H42500   3.281  -0.002   2.662  0.1454  1.2829 -0.3623
  308MOL0     H42501   3.206   0.366   3.379 -0.5591  0.6953 -0.5244
  308MOL0     H42502   3.209   0.338   3.631 -0.5629  1.8229 -0.6853
  308MOL0     H42503   3.085   0.373   3.733  0.9096  0.9905  1.1759
  308MOL0     H42504   3.059   0.231   3.623  0.4021  0.2795 -2.8230
  309MOL0     O42505   3.506   2.594   7.193 -1.1240 -0.2257 -0.3513
  309MOL0     C42506   3.449   2.584   7.089  0.5816 -0.7885  0.5086
  309MOL0     O42507   3.469   2.671   6.981  0.7407  0.3068  0.4675
  309MOL0     C42508   3.578   2.762   6.994  0.8222  0.2735 -0.6748
  309MOL0     C42509   3.682   2.758   6.909  0.1358 -0.3127 -0.5274
  309MOL0     C42510   3.785   2.851   6.916 -0.0358  0.7581 -0.4161
  309MOL0     C42511   3.777   2.958   7.007  0.3617  1.0543  0.2715
  309MOL0     O42512   3.873   3.051   7.042  0.5975  0.3257  0.7948
  309MOL0     C42513   3.937   3.105   6.935  0.3489  1.2266  1.3460
  309MOL0     C42514   3.886   3.249   6.924  0.3636 -0.5745 -0.4589
  309MOL0     C42515   3.996   3.331   6.852  0.0894 -0.6929  0.0377
  309MOL0     C42516   3.959   3.476   6.820 -0.3920 -0.2315 -0.2637
  309MOL0     C42517   4.038   3.536   6.704  0.2243  0.4053 -0.0885
  309MOL0     C42518   4.163   3.601   6.738 -0.9374  0.1652  0.3063
  309MOL0     C42519   4.236   3.632   6.606  0.1150  0.6915  0.6396
  309MOL0     C42520   4.319   3.513   6.544  0.3528  0.4771 -0.0208
  309MOL0     N42521   4.432   3.479   6.634  0.2179  0.1536  0.7306
  309MOL0     C42522   4.545   3.546   6.642 -0.7894  0.1480 -0.5062
  309MOL0     C42523   4.614   3.495   6.750  0.1136 -0.4256 -0.9547
  309MOL0     C42524   4.743   3.550   6.799  0.9874  0.2254  0.1903
  309MOL0     C42525   4.821   3.451   6.873 -0.1588 -0.3616 -0.5270
  309MOL0     C42526   4.953   3.517   6.913  0.4712  0.0004 -0.4852
  309MOL0     C42527   5.043   3.414   6.978 -0.1847  0.1568 -0.6468
  309MOL0     O42528   5.084   3.309   6.883  0.2027 -0.1589  0.6924
  309MOL0     C42529   5.220   3.305   6.860  0.4308  0.7540  0.6462
  309MOL0     C42530   5.309   3.293   6.967 -0.1406 -0.8434  0.4386
  309MOL0     C42531   5.449   3.294   6.957 -0.1368  0.1057 -0.5461
  309MOL0     C42532   5.530   3.331   7.079 -0.0886 -0.2102 -0.2275
  309MOL0     C42533   5.510   3.290   6.832 -0.1886  0.2576  0.0620
  309MOL0     C42534   5.656   3.280   6.796  0.5083 -0.2364  0.3202
  309MOL0     O42535   5.711   3.316   6.674 -0.1063 -0.3883 -0.6681
  309MOL0     C42536   5.838   3.284   6.647  0.0202 -0.4890  0.6192
  309MOL0     C42537   5.877   3.162   6.611 -0.6033  1.2148  0.0759
  309MOL0     C42538   6.017   3.141   6.594  0.8075 -0.5039  0.3216
  309MOL0     C42539   6.114   3.242   6.604  0.5080 -0.9050  0.9422
  309MOL0     O42540   6.242   3.209   6.571  0.2135 -0.0473  1.0270
  309MOL0     C42541   6.356   3.299   6.598  0.3480 -0.1438  0.3785
  309MOL0     C42542   6.387   3.393   6.479  0.1710  0.6601 -0.3378
  309MOL0     C42543   6.418   3.328   6.342  0.1556 -0.3592 -0.0366
  309MOL0     C42544   6.513   3.416   6.242  0.5368  0.5238  0.3058
  309MOL0     C42545   6.554   3.328   6.127 -0.0951 -0.9355  0.2138
  309MOL0     C42546   6.636   3.385   6.009  0.4894 -0.0745  0.3019
  309MOL0     C42547   6.762   3.465   6.051 -0.0669  0.5715 -0.0174
  309MOL0     C42548   6.864   3.487   5.931 -0.3182  0.1179 -0.1517
  309MOL0    Cl42549   6.985   3.618   5.976 -0.1542  0.3816 -0.2202
  309MOL0     C42550   6.071   3.366   6.650  0.6256  0.0670 -0.0383
  309MOL0     C42551   5.937   3.392   6.673  0.2277  0.3344 -0.0942
  309MOL0     O42552   5.717   3.234   6.885 -0.4819 -0.1206 -0.1511
  309MOL0     C42553   5.418   3.305   6.719 -0.0181 -1.0611 -0.3528
  309MOL0     C42554   5.271   3.312   6.736 -0.6942  1.1058  0.0048
  309MOL0     N42555   4.530   3.401   6.811 -0.1615 -0.8014 -0.4459
  309MOL0     N42556   4.420   3.392   6.738 -0.1458 -0.7583 -0.5828
  309MOL0     C42557   3.670   2.958   7.082  0.4631  0.2592 -0.2312
  309MOL0     C42558   3.570   2.868   7.088 -0.6981 -0.4648 -0.2107
  309MOL0     C42559   3.367   2.472   7.065  0.7711 -0.2423  0.3453
  309MOL0     C42560   3.390   2.403   6.949 -1.0517 -0.7853  0.0936
  309MOL0     C42561   3.308   2.294   6.923 -0.1421  0.0041  0.4206
  309MOL0     C42562   3.213   2.248   7.006  1.5090  0.4182  0.5376
  309MOL0     O42563   3.156   2.127   6.968 -0.0786  0.1288  0.3495
  309MOL0     C42564   3.045   2.074   7.027 -0.0775  0.1496  0.1400
  309MOL0     C42565   2.918   2.144   6.988  0.3483  0.2562 -0.7774
  309MOL0     C42566   2.910   2.167   6.833  0.4694 -0.6510 -0.3099
  309MOL0     C42567   2.780   2.239   6.784 -0.2742  1.1201 -0.1351
  309MOL0     C42568   2.656   2.161   6.804  0.3310 -0.2250 -0.0635
  309MOL0     C42569   2.565   2.087   6.835 -0.4177  0.3402  0.0392
  309MOL0     C42570   3.186   2.317   7.119 -0.7792  0.5230 -0.2317
  309MOL0     C42571   3.263   2.427   7.159  0.4770 -0.0341  0.6887
  309MOL0     C42572   3.244   2.495   7.294  0.3931  0.4852  0.6983
  309MOL0     H42573   3.694   2.680   6.835 -0.4289  1.3842 -2.5054
  309MOL0     H42574   3.876   2.832   6.860 -0.1092  0.4622 -0.4339
  309MOL0     H42575   3.910   3.050   6.845 -2.3123  2.0475  1.5707
  309MOL0     H42576   4.046   3.105   6.951  0.6436 -0.7371 -0.3412
  309MOL0     H42577   3.787   3.273   6.884 -0.2234 -1.0501  0.6648
  309MOL0     H42578   3.868   3.296   7.022  0.4988 -1.2248 -0.1150
  309MOL0     H42579   4.093   3.327   6.903  0.0712 -0.5129  0.0885
  309MOL0     H42580   4.018   3.285   6.755 -1.0166 -1.4561  0.1402
  309MOL0     H42581   3.852   3.489   6.801 -1.4907 -3.1942  2.7449
  309MOL0     H42582   3.983   3.530   6.913 -2.6519 -1.2870  1.0241
  309MOL0     H42583   3.975   3.601   6.643  0.0908 -1.3252 -1.8790
  309MOL0     H42584   4.051   3.458   6.628 -0.2246 -0.1501  0.3926
  309MOL0     H42585   4.144   3.694   6.792  1.6690  1.9225 -1.5728
  309MOL0     H42586   4.217   3.530   6.801  1.4275  0.6761 -1.0433
  309MOL0     H42587   4.316   3.704   6.626  0.6299  1.0527 -2.3675
  309MOL0     H42588   4.169   3.672   6.529 -2.8329  1.7704  3.5016
  309MOL0     H42589   4.251   3.429   6.527  2.5781 -1.0249 -2.1965
  309MOL0     H42590   4.358   3.535   6.444  1.5498 -0.5607  0.1917
  309MOL0     H42591   4.585   3.627   6.581 -0.0044 -0.5236 -0.8969
  309MOL0     H42592   4.715   3.638   6.858  0.3570  0.4231 -0.3983
  309MOL0     H42593   4.793   3.582   6.707  0.4153 -1.3789 -0.7263
  309MOL0     H42594   4.770   3.428   6.967  0.0700  0.5317 -0.1677
  309MOL0     H42595   4.836   3.361   6.813  0.7024 -1.3796  1.1249
  309MOL0     H42596   5.003   3.553   6.823  0.4122 -0.4558 -0.7017
  309MOL0     H42597   4.947   3.606   6.976 -2.0821 -0.5186  0.1487
  309MOL0     H42598   5.130   3.465   7.020 -0.5245  0.7613 -0.6655
  309MOL0     H42599   4.996   3.367   7.064 -0.5104  0.9244 -0.3986
  309MOL0     H42600   5.265   3.294   7.066  0.4017 -1.3457  0.6900
  309MOL0     H42601   5.580   3.238   7.107 -0.0456 -0.4250 -0.9955
  309MOL0     H42602   5.463   3.364   7.159 -1.4042  1.3820 -1.8960
  309MOL0     H42603   5.603   3.408   7.054 -0.0195 -0.3845 -0.5785
  309MOL0     H42604   5.799   3.094   6.579 -0.0837 -0.5184  2.2434
  309MOL0     H42605   6.059   3.046   6.561  2.8347 -0.2737  2.0326
  309MOL0     H42606   6.332   3.361   6.685 -0.9135  1.2145 -0.8910
  309MOL0     H42607   6.442   3.233   6.615  0.4077  0.0676  0.8941
  309MOL0     H42608   6.301   3.455   6.451  0.8784  1.6977 -0.2612
  309MOL0     H42609   6.468   3.458   6.513 -1.4121  2.2036  0.6759
  309MOL0     H42610   6.332   3.279   6.295  0.4884 -1.4168  0.4187
  309MOL0     H42611   6.486   3.249   6.376  3.1940  2.5173  1.2020
  309MOL0     H42612   6.599   3.446   6.303 -1.2029  1.3897  2.4988
  309MOL0     H42613   6.465   3.508   6.207  0.0912  0.4946  0.8210
  309MOL0     H42614   6.626   3.260   6.173  2.0248 -0.0863 -1.6598
  309MOL0     H42615   6.462   3.280   6.090 -0.6989 -0.1476  0.6490
  309MOL0     H42616   6.576   3.458   5.954 -0.1516  0.6088  1.8462
  309MOL0     H42617   6.653   3.309   5.932  2.8135 -0.5983  1.2686
  309MOL0     H42618   6.815   3.401   6.122 -3.8667 -3.7392 -0.6003
  309MOL0     H42619   6.741   3.563   6.096  0.4907  1.7168 -2.1055
  309MOL0     H42620   6.806   3.523   5.846 -5.2092 -1.8178  2.0105
  309MOL0     H42621   6.917   3.395   5.903 -1.2997 -0.5004 -0.0405
  309MOL0     H42622   6.138   3.451   6.657  1.4315 -0.3415 -2.1638
  309MOL0     H42623   5.911   3.492   6.706 -0.9145 -0.1432  0.5105
  309MOL0     H42624   5.450   3.305   6.616  0.6707  1.2115 -0.1788
  309MOL0     H42625   5.204   3.316   6.650 -0.4840  0.3323 -0.2036
  309MOL0     H42626   3.651   3.037   7.155 -3.3068 -2.1024  1.6670
  309MOL0     H42627   3.486   2.888   7.153 -0.3108  0.1026  0.1191
  309MOL0     H42628   3.471   2.431   6.883 -1.9784  2.0286  0.0273
  309MOL0     H42629   3.346   2.244   6.834  3.8485  0.1090  1.8552
  309MOL0     H42630   3.039   1.970   6.993 -0.3329 -0.6874  2.5849
  309MOL0     H42631   3.048   2.066   7.136 -0.0087 -2.2062  0.0220
  309MOL0     H42632   2.910   2.242   7.036  2.2163  0.4442 -0.7806
  309MOL0     H42633   2.835   2.083   7.027 -0.1940  1.1731 -0.4776
  309MOL0     H42634   2.983   2.242   6.801 -2.5702  2.7292  0.0113
  309MOL0     H42635   2.929   2.074   6.779  3.1144 -0.3968  0.0475
  309MOL0     H42636   2.783   2.251   6.676 -1.0559  3.5690  0.0606
  309MOL0     H42637   2.776   2.336   6.836  0.8847  0.5081  1.1787
  309MOL0     H42638   2.479   2.030   6.862 -1.1038  0.3052 -2.0686
  309MOL0     H42639   3.104   2.284   7.182  0.3542  1.6307  1.9543
  309MOL0     H42640   3.338   2.488   7.349 -0.1205  0.2626  1.5555
  309MOL0     H42641   3.205   2.597   7.294  2.0586  1.2064 -1.5534
  309MOL0     H42642   3.179   2.436   7.359  0.3111  2.0200  2.0647
  310MOL0     O42643   0.314   8.133   3.630 -0.1284 -0.0400  0.2239
  310MOL0     C42644   0.247   8.194   3.549  1.5575  0.9780  0.2752
  310MOL0     O42645   0.283   8.280   3.455 -0.3796  0.7153  0.3870
  310MOL0     C42646   0.419   8.308   3.431  0.8948 -0.7654 -0.0261
  310MOL0     C42647   0.470   8.276   3.304  0.0861  0.4180 -0.6448
  310MOL0     C42648   0.606   8.296   3.279  0.2469  0.5436 -0.4413
  310MOL0     C42649   0.688   8.336   3.383 -0.7873  0.3827  0.1958
  310MOL0     O42650   0.822   8.337   3.349 -0.8972 -0.3560 -0.8376
  310MOL0     C42651   0.873   8.469   3.360  0.5345  0.0495 -0.6484
  310MOL0     C42652   0.974   8.494   3.251 -0.3991 -0.0898 -0.8462
  310MOL0     C42653   1.107   8.426   3.270  0.7854  0.3261  0.1387
  310MOL0     C42654   1.209   8.508   3.195  0.4923 -0.0390 -0.9930
  310MOL0     C42655   1.338   8.431   3.189  0.2211 -0.3396 -0.8845
  310MOL0     C42656   1.451   8.527   3.150 -0.3565 -0.2640  0.2719
  310MOL0     C42657   1.592   8.456   3.146  0.5684  0.0373  0.2728
  310MOL0     C42658   1.599   8.344   3.035  0.0318 -0.1070 -0.5441
  310MOL0     N42659   1.729   8.348   2.970 -0.2534 -0.2961  0.4923
  310MOL0     C42660   1.755   8.436   2.872  0.1741  0.1694  0.1398
  310MOL0     C42661   1.884   8.417   2.836 -0.3728 -0.6536  0.1203
  310MOL0     C42662   1.971   8.477   2.729 -0.6022 -0.5720 -0.1189
  310MOL0     C42663   1.945   8.391   2.604 -0.3311  0.7384 -0.2764
  310MOL0     C42664   2.031   8.413   2.481 -0.5229  0.6510  0.3075
  310MOL0     C42665   1.964   8.341   2.364 -0.0499  0.4285 -0.8091
  310MOL0     O42666   2.016   8.364   2.226 -0.1736 -0.5234 -0.6005
  310MOL0     C42667   2.149   8.325   2.224  0.0610  0.4861  0.8488
  310MOL0     C42668   2.201   8.208   2.284  0.0949 -1.3323  0.4146
  310MOL0     C42669   2.332   8.181   2.285 -0.0025  0.2777  0.0077
  310MOL0     C42670   2.368   8.046   2.336 -0.3059 -0.7296 -0.0645
  310MOL0     C42671   2.428   8.272   2.238  1.4626 -0.6272  0.4546
  310MOL0     C42672   2.567   8.260   2.245 -0.5700 -0.2470  0.3050
  310MOL0     O42673   2.640   8.353   2.324 -0.3474 -0.0461  0.0367
  310MOL0     C42674   2.778   8.359   2.306 -1.3513 -0.1509  0.1765
  310MOL0     C42675   2.873   8.303   2.393  0.5309 -1.0950 -0.2161
  310MOL0     C42676   3.011   8.335   2.381  0.2753 -0.6919 -0.1267
  310MOL0     C42677   3.067   8.394   2.275  0.7015  0.1640  0.7539
  310MOL0     O42678   3.199   8.408   2.267  0.6513 -0.5421  0.0020
  310MOL0     C42679   3.252   8.530   2.211 -0.5840 -0.6847  0.0640
  310MOL0     C42680   3.402   8.523   2.248 -0.4425 -0.0630  0.1097
  310MOL0     C42681   3.486   8.643   2.211  0.8278 -0.2572  0.3067
  310MOL0     C42682   3.629   8.652   2.274 -0.5733  0.1123 -0.2557
  310MOL0     C42683   3.746   8.608   2.178 -0.3121  0.0448 -0.0820
  310MOL0     C42684   3.800   8.717   2.086 -0.4296 -0.7651 -0.4253
  310MOL0     C42685   3.949   8.686   2.040  0.1429 -0.1605  0.2244
  310MOL0     C42686   3.965   8.754   1.894 -1.1470  0.8870 -0.4699
  310MOL0    Cl42687   4.138   8.720   1.838 -0.1244  0.0378 -0.0369
  310MOL0     C42688   2.973   8.453   2.193  1.0986 -0.7215 -0.2948
  310MOL0     C42689   2.834   8.444   2.206 -0.0209 -0.0765 -0.2311
  310MOL0     O42690   2.608   8.170   2.175 -0.6603  0.2205 -0.2540
  310MOL0     C42691   2.376   8.386   2.178 -0.3804 -0.3244  0.5639
  310MOL0     C42692   2.247   8.409   2.175 -0.1976 -0.1740 -0.4315
  310MOL0     N42693   1.936   8.312   2.920  0.0419 -0.5320  0.1290
  310MOL0     N42694   1.841   8.269   2.995  0.5839 -1.0893  0.5845
  310MOL0     C42695   0.638   8.363   3.508  0.0571 -0.4024 -0.1677
  310MOL0     C42696   0.504   8.358   3.537  0.3167 -0.3149 -0.0554
  310MOL0     C42697   0.095   8.192   3.565  0.5314  0.6144 -0.5064
  310MOL0     C42698   0.021   8.302   3.523 -0.5062  0.2410 -0.8927
  310MOL0     C42699  -0.116   8.310   3.532  0.4955 -0.4139  0.1489
  310MOL0     C42700  -0.189   8.211   3.588  0.1515 -0.0566 -0.6027
  310MOL0     O42701  -0.318   8.230   3.602 -0.8322  0.4265  0.2819
  310MOL0     C42702  -0.379   8.174   3.729  0.4632 -0.5264  1.0093
  310MOL0     C42703  -0.515   8.250   3.758 -0.1245  0.9051 -0.0986
  310MOL0     C42704  -0.618   8.228   3.636  0.0614  0.7013  0.0873
  310MOL0     C42705  -0.757   8.279   3.661 -0.3361 -1.4078 -0.5901
  310MOL0     C42706  -0.779   8.425   3.660 -0.3915  0.1912  0.0791
  310MOL0     C42707  -0.806   8.541   3.660 -0.0905  0.1798 -0.3132
  310MOL0     C42708  -0.112   8.096   3.640 -0.4984 -0.1858 -0.7262
  310MOL0     C42709   0.024   8.083   3.621 -0.4729  0.2630  0.9056
  310MOL0     C42710   0.091   7.956   3.666 -0.0652 -0.5257  0.0555
  310MOL0     H42711   0.406   8.225   3.233 -0.0382 -0.0914 -0.1734
  310MOL0     H42712   0.665   8.265   3.194  2.0482 -1.2121  1.3222
  310MOL0     H42713   0.908   8.476   3.464 -0.5428 -1.9834 -0.0968
  310MOL0     H42714   0.791   8.540   3.346  0.1054 -0.0936  0.8803
  310MOL0     H42715   0.924   8.481   3.154 -0.5093 -1.9880 -0.5631
  310MOL0     H42716   0.998   8.601   3.252  0.2515 -0.1515  2.9321
  310MOL0     H42717   1.132   8.429   3.376 -0.7401 -0.1559  0.5453
  310MOL0     H42718   1.100   8.322   3.236 -1.0007 -0.2121  1.9419
  310MOL0     H42719   1.169   8.521   3.094 -0.1462 -2.1964 -1.0785
  310MOL0     H42720   1.231   8.592   3.262  2.1045 -0.7252 -0.6167
  310MOL0     H42721   1.331   8.344   3.122  0.3644 -2.4435  1.6734
  310MOL0     H42722   1.353   8.382   3.285 -0.3703  0.3227 -0.4475
  310MOL0     H42723   1.422   8.567   3.052 -0.5653 -0.4041  0.2752
  310MOL0     H42724   1.452   8.615   3.214 -1.1832  1.2663 -1.7299
  310MOL0     H42725   1.616   8.415   3.245 -1.6674  2.6749  2.0252
  310MOL0     H42726   1.661   8.536   3.116 -0.2375  1.4241  1.9687
  310MOL0     H42727   1.593   8.249   3.089  1.4070 -1.7364 -3.1212
  310MOL0     H42728   1.511   8.360   2.973  0.0241  0.9084 -0.2875
  310MOL0     H42729   1.692   8.512   2.826  2.4377  2.3765  0.4286
  310MOL0     H42730   2.073   8.463   2.766 -1.6095  0.3218  3.3996
  310MOL0     H42731   1.947   8.583   2.718 -2.2306 -0.9150 -0.1121
  310MOL0     H42732   1.964   8.287   2.633  1.0072  1.9368  3.9795
  310MOL0     H42733   1.838   8.402   2.582 -0.4453  0.5082  0.1439
  310MOL0     H42734   2.027   8.522   2.476 -3.6686  0.5667 -0.9306
  310MOL0     H42735   2.131   8.371   2.501 -1.6111 -1.0586  2.7589
  310MOL0     H42736   1.953   8.234   2.386 -4.9257  1.1178  1.5846
  310MOL0     H42737   1.860   8.373   2.354 -1.4983 -2.3343  3.0638
  310MOL0     H42738   2.129   8.134   2.319  0.5002 -0.9176  2.2202
  310MOL0     H42739   2.438   8.006   2.262  0.5599 -0.7089  0.7166
  310MOL0     H42740   2.273   7.994   2.350 -0.5550 -0.0545  0.9717
  310MOL0     H42741   2.414   8.041   2.436 -0.7137 -0.3447  0.1451
  310MOL0     H42742   2.847   8.246   2.482  2.2485 -2.2451 -0.3995
  310MOL0     H42743   3.079   8.296   2.456  2.1411  0.3555 -1.2239
  310MOL0     H42744   3.238   8.534   2.102  0.3757 -1.7722 -0.1199
  310MOL0     H42745   3.199   8.616   2.252 -1.2812 -1.3394  0.5725
  310MOL0     H42746   3.400   8.523   2.357  1.7609 -0.5979  0.1899
  310MOL0     H42747   3.453   8.436   2.207 -0.0337 -0.3360  1.1577
  310MOL0     H42748   3.426   8.734   2.219  0.0657 -0.4538 -2.2547
  310MOL0     H42749   3.509   8.635   2.104 -3.3621 -0.1428 -0.7546
  310MOL0     H42750   3.635   8.587   2.362 -1.4828  1.5297  0.8878
  310MOL0     H42751   3.655   8.755   2.300 -1.2663  0.6391 -1.5595
  310MOL0     H42752   3.832   8.584   2.241  0.4986  3.4405  0.2726
  310MOL0     H42753   3.715   8.522   2.118 -4.0416  2.6147 -2.2468
  310MOL0     H42754   3.797   8.818   2.128  0.2522 -0.8059 -0.2699
  310MOL0     H42755   3.728   8.723   2.004 -1.2287  1.0094  0.3561
  310MOL0     H42756   3.984   8.582   2.037  1.9424  0.4095  0.5074
  310MOL0     H42757   4.015   8.735   2.112 -0.1754  2.8867 -1.3703
  310MOL0     H42758   3.952   8.862   1.899 -0.6522  0.9092  0.4550
  310MOL0     H42759   3.896   8.727   1.813 -2.0846  1.9001 -0.0308
  310MOL0     H42760   3.006   8.520   2.115  2.6392 -1.0187  0.0763
  310MOL0     H42761   2.773   8.496   2.133  2.3740  0.6448 -1.8487
  310MOL0     H42762   2.442   8.464   2.142 -0.9884  0.7353  1.6903
  310MOL0     H42763   2.210   8.506   2.145 -1.7933 -0.5132  0.2883
  310MOL0     H42764   0.704   8.390   3.590  0.5020  2.6146 -1.3666
  310MOL0     H42765   0.463   8.359   3.637  0.9894  2.2790  0.2679
  310MOL0     H42766   0.073   8.384   3.475  0.9198  0.0017  0.1627
  310MOL0     H42767  -0.163   8.401   3.495  0.1708 -0.8647 -0.5624
  310MOL0     H42768  -0.390   8.065   3.719  0.8277 -0.4153 -1.3639
  310MOL0     H42769  -0.313   8.193   3.814 -0.0965  0.4212  1.2457
  310MOL0     H42770  -0.495   8.357   3.764  2.3560  0.4983  0.1239
  310MOL0     H42771  -0.549   8.233   3.860  1.2233  3.7982  0.9340
  310MOL0     H42772  -0.588   8.283   3.546 -0.1244 -1.6495 -1.5060
  310MOL0     H42773  -0.610   8.124   3.601  0.8246  1.2878 -1.6086
  310MOL0     H42774  -0.789   8.237   3.757  1.7579  1.6183  1.6300
  310MOL0     H42775  -0.823   8.229   3.590  0.0865 -4.8940  1.2591
  310MOL0     H42776  -0.820   8.647   3.663 -0.2034  0.1486  0.7212
  310MOL0     H42777  -0.163   8.012   3.686 -0.6345  0.2202 -0.1281
  310MOL0     H42778   0.115   7.962   3.773 -0.1685 -1.4544  0.1415
  310MOL0     H42779   0.026   7.869   3.651 -2.2036  1.0467 -0.2778
  310MOL0     H42780   0.180   7.929   3.608  0.8934 -0.3416  1.4014
  311MOL0     O42781   9.451   5.910   2.760 -0.5632  0.1378  0.3090
  311MOL0     C42782   9.399   5.999   2.829  0.0316  0.0248 -0.3954
  311MOL0     O42783   9.419   6.011   2.961  0.0474 -0.4744 -0.4096
  311MOL0     C42784   9.553   5.993   3.000 -0.4170 -0.3230  0.2805
  311MOL0     C42785   9.657   6.052   2.920 -0.4926  0.1039 -0.0414
  311MOL0     C42786   9.786   6.063   2.973  0.5147  0.5625 -0.2758
  311MOL0     C42787   9.809   6.014   3.106 -0.3559  0.0635 -0.3063
  311MOL0     O42788   9.934   6.028   3.176  0.4458 -0.2229  0.3547
  311MOL0     C42789  10.034   6.100   3.103  0.4267 -0.5095 -0.3361
  311MOL0     C42790  10.150   6.121   3.199 -0.1212 -0.3773 -0.4225
  311MOL0     C42791  10.247   6.225   3.143 -0.0863 -0.0441  0.2232
  311MOL0     C42792  10.379   6.241   3.214 -0.2201  0.1605 -0.4046
  311MOL0     C42793  10.434   6.380   3.187  1.1590 -0.2109  0.1867
  311MOL0     C42794  10.450   6.423   3.044  0.3099 -0.4320  0.7733
  311MOL0     C42795  10.537   6.544   3.031 -0.0195  0.2793  0.3259
  311MOL0     C42796  10.537   6.589   2.876  0.2764  0.2523  0.0244
  311MOL0     N42797  10.588   6.724   2.860 -0.1673 -0.2955 -0.5836
  311MOL0     C42798  10.721   6.736   2.875 -0.4478 -0.1802 -0.7239
  311MOL0     C42799  10.749   6.850   2.811  0.7966  0.4566  0.6992
  311MOL0     C42800  10.889   6.908   2.807 -0.7328 -0.5655  0.5884
  311MOL0     C42801  10.933   6.965   2.947  0.5486  0.5659 -0.1916
  311MOL0     C42802  11.076   6.997   2.951  0.0245 -0.5053 -0.4517
  311MOL0     C42803  11.126   7.032   3.088  0.2316 -0.3328  0.0084
  311MOL0     O42804  11.259   7.074   3.064 -0.2010 -0.0406  1.0509
  311MOL0     C42805  11.357   7.031   3.150  0.6780 -0.4174 -0.0978
  311MOL0     C42806  11.346   6.941   3.264  0.5948 -0.2403  2.1039
  311MOL0     C42807  11.467   6.896   3.321 -0.4303 -0.2564 -0.3365
  311MOL0     C42808  11.440   6.800   3.421  1.2098 -0.4000  0.4646
  311MOL0     C42809  11.592   6.962   3.296  0.0626  0.3009  0.0567
  311MOL0     C42810  11.724   6.936   3.364  0.6616 -0.4531 -0.0697
  311MOL0     O42811  11.811   7.044   3.370  1.4085  0.2203 -0.0963
  311MOL0     C42812  11.939   7.014   3.412 -0.4533 -0.2629  0.0080
  311MOL0     C42813  11.987   7.088   3.518  0.2527 -0.3146  1.1203
  311MOL0     C42814  12.124   7.083   3.548  0.6453 -0.3911  0.2236
  311MOL0     C42815  12.211   7.007   3.478  0.5138  0.4859  0.1262
  311MOL0     O42816  12.347   6.997   3.496  0.1108 -0.2223 -0.7686
  311MOL0     C42817  12.421   7.126   3.521  0.5104  0.9777 -0.4146
  311MOL0     C42818  12.571   7.103   3.502  0.4121  0.5887  0.3810
  311MOL0     C42819  12.627   7.033   3.629 -0.3148 -0.2888 -0.2504
  311MOL0     C42820  12.784   7.025   3.648  0.2200  0.1055  0.2497
  311MOL0     C42821  12.851   6.959   3.517 -0.6813 -0.3882 -0.2430
  311MOL0     C42822  12.991   6.906   3.533 -0.7467  1.4593  0.5492
  311MOL0     C42823  12.995   6.755   3.575  0.3915  0.2455 -0.5545
  311MOL0     C42824  13.136   6.687   3.571 -0.3954 -0.4863  0.1987
  311MOL0    Cl42825  13.224   6.695   3.729  0.4153  0.7758 -0.0074
  311MOL0     C42826  12.155   6.918   3.379  1.1388  0.9178  0.0400
  311MOL0     C42827  12.023   6.925   3.353  0.2149 -0.6848  0.0894
  311MOL0     O42828  11.747   6.827   3.404  0.1024 -0.2897 -0.2304
  311MOL0     C42829  11.597   7.063   3.188 -0.4753  0.3905 -0.5310
  311MOL0     C42830  11.482   7.084   3.122  0.1025  0.2752  0.3422
  311MOL0     N42831  10.640   6.896   2.738  0.7043  0.1013 -0.2112
  311MOL0     N42832  10.541   6.821   2.779  0.1897  0.7179  0.1975
  311MOL0     C42833   9.699   5.965   3.180  0.6474  0.6501 -1.0092
  311MOL0     C42834   9.569   5.955   3.132 -0.0805 -0.4373 -0.0840
  311MOL0     C42835   9.307   6.101   2.759  0.8741  0.4141  0.2890
  311MOL0     C42836   9.262   6.207   2.833 -0.1551  0.7120  0.1332
  311MOL0     C42837   9.188   6.309   2.779  0.4827 -0.0227 -1.4318
  311MOL0     C42838   9.132   6.298   2.650 -0.0062  0.2921 -0.2453
  311MOL0     O42839   9.058   6.405   2.602 -0.3090 -0.1791 -0.7970
  311MOL0     C42840   9.009   6.411   2.469 -0.2659 -0.0462 -1.0817
  311MOL0     C42841   8.878   6.339   2.446  0.3499 -0.0437 -0.0657
  311MOL0     C42842   8.763   6.416   2.521 -0.2777  0.1041  0.0030
  311MOL0     C42843   8.651   6.326   2.568  0.7810  0.2787  0.0923
  311MOL0     C42844   8.599   6.248   2.454 -0.2230 -1.2185  0.2117
  311MOL0     C42845   8.551   6.213   2.347 -0.3923 -0.2714  0.5584
  311MOL0     C42846   9.171   6.187   2.571 -0.1409  0.5711 -0.3663
  311MOL0     C42847   9.259   6.089   2.623 -0.1244  0.0434  0.6866
  311MOL0     C42848   9.289   5.983   2.528 -0.6477  1.1322  0.3310
  311MOL0     H42849   9.641   6.102   2.825  3.9105 -1.2258 -1.7007
  311MOL0     H42850   9.867   6.115   2.923  1.9495 -1.1700  0.1520
  311MOL0     H42851   9.995   6.190   3.055 -1.6415 -1.1202  0.1122
  311MOL0     H42852  10.060   6.034   3.020  1.2231 -0.2689 -0.2852
  311MOL0     H42853  10.129   6.153   3.301  0.5188 -0.7855 -0.1489
  311MOL0     H42854  10.215   6.033   3.200  2.0508  1.1367 -0.7791
  311MOL0     H42855  10.275   6.213   3.038  3.3513  0.5341  0.9319
  311MOL0     H42856  10.180   6.311   3.146  0.6426  0.5074  1.8029
  311MOL0     H42857  10.369   6.237   3.322 -1.2791  0.7311 -0.4625
  311MOL0     H42858  10.447   6.161   3.184 -0.9699  0.1147 -2.1570
  311MOL0     H42859  10.530   6.386   3.240  1.4878 -1.9800 -0.1619
  311MOL0     H42860  10.367   6.449   3.240  2.2772 -0.1678  1.6206
  311MOL0     H42861  10.485   6.336   2.987 -0.2070 -0.0624 -0.1224
  311MOL0     H42862  10.359   6.462   2.999  0.3302 -1.2165  0.0337
  311MOL0     H42863  10.642   6.535   3.062 -0.0127 -1.8930 -0.2095
  311MOL0     H42864  10.493   6.626   3.089  1.0195 -0.2728  1.9630
  311MOL0     H42865  10.612   6.523   2.830  1.5460  0.5330  1.5931
  311MOL0     H42866  10.436   6.585   2.835  0.4473  0.7131 -0.4557
  311MOL0     H42867  10.796   6.673   2.921  0.9610  1.5938 -0.4981
  311MOL0     H42868  10.886   6.988   2.732  0.3739 -0.1580  0.9484
  311MOL0     H42869  10.970   6.840   2.778 -0.1505  0.2896  0.1612
  311MOL0     H42870  10.874   7.056   2.963 -0.8084 -0.3931  0.4261
  311MOL0     H42871  10.905   6.894   3.025 -2.3246 -0.0818 -1.6261
  311MOL0     H42872  11.122   6.901   2.928  0.4316 -1.1768  2.7372
  311MOL0     H42873  11.098   7.083   2.887 -2.5791  2.4955  2.2709
  311MOL0     H42874  11.074   7.119   3.128  2.0506  0.8830 -0.1815
  311MOL0     H42875  11.110   6.947   3.156  1.0697  0.2664  0.9794
  311MOL0     H42876  11.254   6.892   3.296  1.5370 -2.6547  1.3714
  311MOL0     H42877  11.384   6.845   3.504  0.6980 -0.9606  0.4275
  311MOL0     H42878  11.529   6.750   3.460 -0.1624 -2.0572  1.6252
  311MOL0     H42879  11.377   6.719   3.382  1.1250 -0.2572  0.3025
  311MOL0     H42880  11.934   7.161   3.579  0.2047 -0.3382  1.1065
  311MOL0     H42881  12.153   7.146   3.631  0.3794  0.5200 -0.3543
  311MOL0     H42882  12.382   7.195   3.445 -2.5810  0.4674  0.5721
  311MOL0     H42883  12.399   7.182   3.612  1.0550 -0.9997  1.0036
  311MOL0     H42884  12.587   7.040   3.414  2.2704  1.4067  0.0793
  311MOL0     H42885  12.635   7.191   3.486  2.6912 -0.5236  2.6967
  311MOL0     H42886  12.584   6.932   3.630 -1.1601 -0.0974 -4.0218
  311MOL0     H42887  12.584   7.090   3.712 -1.0667 -1.5396  0.2604
  311MOL0     H42888  12.806   6.961   3.734 -3.0420 -1.8773 -0.1915
  311MOL0     H42889  12.817   7.126   3.673 -0.0794  0.5255 -0.9789
  311MOL0     H42890  12.788   6.894   3.456 -3.2230  2.0147 -0.4078
  311MOL0     H42891  12.866   7.050   3.457 -2.1175  0.4284  0.5676
  311MOL0     H42892  13.045   6.971   3.603  1.9673  1.0162 -0.9734
  311MOL0     H42893  13.033   6.913   3.432 -1.2435  0.2385  0.2375
  311MOL0     H42894  12.924   6.694   3.520  0.2857  0.1427 -0.3040
  311MOL0     H42895  12.967   6.752   3.680  1.0868  1.3252 -0.3176
  311MOL0     H42896  13.197   6.727   3.490 -1.7123 -0.0823 -0.6204
  311MOL0     H42897  13.122   6.582   3.543 -2.2951  0.5285 -3.2577
  311MOL0     H42898  12.225   6.862   3.318  3.3119  1.4925  1.8696
  311MOL0     H42899  11.978   6.868   3.273  1.4144 -0.8042 -0.5273
  311MOL0     H42900  11.687   7.116   3.158 -0.8935  1.2011 -0.3676
  311MOL0     H42901  11.488   7.160   3.044 -0.9154  2.6905  2.4902
  311MOL0     H42902   9.706   5.952   3.288  2.1595  0.3317 -1.1232
  311MOL0     H42903   9.487   5.919   3.193  1.0620 -3.6937 -0.2903
  311MOL0     H42904   9.290   6.208   2.938 -0.0903 -1.6871  0.1975
  311MOL0     H42905   9.162   6.389   2.848  1.2946 -1.1282  0.2097
  311MOL0     H42906   8.998   6.516   2.440  1.7217  1.2328  2.3029
  311MOL0     H42907   9.086   6.371   2.402 -0.2118  0.5253 -1.3732
  311MOL0     H42908   8.886   6.235   2.477  0.2632  0.4982  1.8669
  311MOL0     H42909   8.858   6.341   2.338  2.1186  0.4840 -0.4273
  311MOL0     H42910   8.807   6.457   2.612  2.0839  0.9792 -1.4234
  311MOL0     H42911   8.728   6.506   2.470 -1.7673 -0.8639 -0.7610
  311MOL0     H42912   8.582   6.393   2.620  0.2585  1.0142 -1.5128
  311MOL0     H42913   8.684   6.257   2.647 -2.1291  1.2685  2.3353
  311MOL0     H42914   8.499   6.184   2.258 -1.1835  1.1371  0.5472
  311MOL0     H42915   9.126   6.168   2.474  0.8381 -0.9388 -0.5583
  311MOL0     H42916   9.397   5.964   2.522 -0.6428  0.8639  1.1018
  311MOL0     H42917   9.239   5.892   2.562 -2.0794  1.0588 -1.7430
  311MOL0     H42918   9.257   6.012   2.427  0.3972  0.0184 -0.3576
  312MOL0     O42919   9.086   7.050   7.509  0.1885  0.3507  0.5298
  312MOL0     C42920   8.972   7.022   7.477  0.4880 -0.0599  0.6384
  312MOL0     O42921   8.937   6.950   7.374  0.8973 -0.4471  0.0162
  312MOL0     C42922   9.036   6.892   7.299  0.0774 -0.4517 -0.1110
  312MOL0     C42923   9.141   6.953   7.225  1.1697 -1.2692 -0.3929
  312MOL0     C42924   9.239   6.887   7.145 -0.3490  0.0776  0.5895
  312MOL0     C42925   9.229   6.753   7.130 -0.2587  0.7153 -0.2024
  312MOL0     O42926   9.313   6.674   7.051  0.0219 -0.0446 -0.4270
  312MOL0     C42927   9.451   6.714   7.035  1.0472  0.9235 -0.0722
  312MOL0     C42928   9.535   6.581   7.059 -0.4192 -0.1863  0.1346
  312MOL0     C42929   9.542   6.541   7.212  0.3214 -0.6095 -0.0896
  312MOL0     C42930   9.627   6.642   7.298 -0.1778  0.0983 -0.6176
  312MOL0     C42931   9.775   6.643   7.250  0.3056 -0.9684 -0.7009
  312MOL0     C42932   9.859   6.738   7.341 -0.1136 -0.0533 -0.0456
  312MOL0     C42933   9.983   6.664   7.407  0.1726 -0.4097 -0.1232
  312MOL0     C42934  10.100   6.622   7.326  1.0686 -0.1313  0.2429
  312MOL0     N42935  10.177   6.531   7.402  0.5598  0.0383  0.3200
  312MOL0     C42936  10.308   6.554   7.446  0.0848  0.6489  0.0641
  312MOL0     C42937  10.337   6.435   7.505  0.1786  0.2482 -0.1313
  312MOL0     C42938  10.470   6.405   7.572  0.1019 -0.4965 -0.8010
  312MOL0     C42939  10.523   6.267   7.556  0.2000  0.7928 -0.3696
  312MOL0     C42940  10.674   6.268   7.593 -0.2760 -0.5696 -0.0908
  312MOL0     C42941  10.731   6.130   7.575  0.3363  0.0821 -0.7948
  312MOL0     O42942  10.862   6.141   7.532 -0.4663 -0.2499 -0.1998
  312MOL0     C42943  10.940   6.022   7.524 -0.9602 -0.8281  0.6752
  312MOL0     C42944  10.888   5.894   7.511 -0.3800 -0.1150 -0.2258
  312MOL0     C42945  10.968   5.781   7.525  0.9378 -0.5494  0.7183
  312MOL0     C42946  10.910   5.640   7.519  0.4445  0.5033  0.2229
  312MOL0     C42947  11.107   5.797   7.518 -0.2243  0.0609 -0.9194
  312MOL0     C42948  11.202   5.684   7.510 -0.1312 -0.3593 -0.5265
  312MOL0     O42949  11.200   5.609   7.391 -0.0755  0.1993  0.9566
  312MOL0     C42950  11.312   5.531   7.366  0.4752 -0.0125 -0.0745
  312MOL0     C42951  11.316   5.396   7.405  0.2763 -0.1252  0.0095
  312MOL0     C42952  11.430   5.320   7.377 -0.4393  0.1139 -0.2793
  312MOL0     C42953  11.546   5.381   7.332  0.0111  0.7104 -1.1290
  312MOL0     O42954  11.653   5.298   7.338 -0.1768  1.0770 -0.3113
  312MOL0     C42955  11.769   5.339   7.263 -0.2651 -0.9887 -0.1322
  312MOL0     C42956  11.852   5.222   7.221 -0.6283 -0.3705 -0.6350
  312MOL0     C42957  12.000   5.248   7.280  1.1080  0.3802 -0.4875
  312MOL0     C42958  12.098   5.135   7.247 -0.7398 -0.6788 -0.3256
  312MOL0     C42959  12.238   5.185   7.295 -0.2966  0.7193  0.3911
  312MOL0     C42960  12.365   5.106   7.245  0.3541 -0.5442  0.0350
  312MOL0     C42961  12.488   5.184   7.218 -0.0231  0.7555 -0.1436
  312MOL0     C42962  12.616   5.086   7.223 -0.5579 -1.1789 -0.7728
  312MOL0    Cl42963  12.770   5.161   7.170 -0.2525 -0.1124 -0.4053
  312MOL0     C42964  11.548   5.516   7.294 -0.5358  0.8565  0.6722
  312MOL0     C42965  11.428   5.577   7.297 -0.2780 -0.7666 -0.3748
  312MOL0     O42966  11.280   5.671   7.602  0.2977 -0.1933  0.0931
  312MOL0     C42967  11.153   5.927   7.511 -0.8295 -0.2071  0.1147
  312MOL0     C42968  11.070   6.039   7.526  0.1034  0.3358  0.1616
  312MOL0     N42969  10.226   6.344   7.496 -0.1047 -0.4730 -0.0627
  312MOL0     N42970  10.133   6.404   7.432  0.6157 -0.2327  0.3927
  312MOL0     C42971   9.123   6.685   7.190  0.0694  0.3508  0.8809
  312MOL0     C42972   9.021   6.757   7.265 -0.4692  0.5557 -0.4000
  312MOL0     C42973   8.862   7.072   7.555  0.5987 -0.1290  0.6035
  312MOL0     C42974   8.886   7.097   7.689 -0.1785 -0.3597  0.1463
  312MOL0     C42975   8.782   7.134   7.782  0.4033 -0.3111  0.3982
  312MOL0     C42976   8.647   7.131   7.735  0.9576 -0.1086  0.2220
  312MOL0     O42977   8.551   7.178   7.827  0.3837 -0.5146 -0.0563
  312MOL0     C42978   8.411   7.209   7.782 -0.7446  0.1812 -0.1235
  312MOL0     C42979   8.346   7.282   7.901  0.1669 -0.0852  0.4277
  312MOL0     C42980   8.202   7.282   7.882  0.5801 -0.9187  0.7071
  312MOL0     C42981   8.146   7.370   7.988  0.3167 -0.3632  0.3266
  312MOL0     C42982   8.004   7.391   7.954 -0.0583 -0.4939 -0.5298
  312MOL0     C42983   7.877   7.406   7.951  0.4787  0.1577  0.0724
  312MOL0     C42984   8.623   7.122   7.598 -1.5281  0.6661  0.2452
  312MOL0     C42985   8.729   7.108   7.508  0.3664  0.4561 -0.5227
  312MOL0     C42986   8.681   7.105   7.364  1.0149  0.0719  0.0611
  312MOL0     H42987   9.153   7.059   7.247 -2.4262 -0.8120  0.0532
  312MOL0     H42988   9.322   6.943   7.104 -1.1470  0.0330 -1.1984
  312MOL0     H42989   9.482   6.791   7.106  0.0646  1.5787 -0.3297
  312MOL0     H42990   9.463   6.736   6.929  1.4753 -0.1853 -0.2657
  312MOL0     H42991   9.481   6.505   7.002  2.6585 -2.7297  0.2986
  312MOL0     H42992   9.639   6.583   7.024 -0.6845  2.7571 -0.6905
  312MOL0     H42993   9.445   6.528   7.260 -0.5625 -0.4074 -1.7472
  312MOL0     H42994   9.584   6.440   7.207 -0.6546 -0.9888 -3.9135
  312MOL0     H42995   9.576   6.739   7.301 -5.6654 -2.4256 -0.2526
  312MOL0     H42996   9.628   6.596   7.397  0.6775  1.2950 -0.0433
  312MOL0     H42997   9.792   6.696   7.156  1.2951  0.4465  0.2285
  312MOL0     H42998   9.805   6.538   7.249  1.0011 -0.7999  0.4051
  312MOL0     H42999   9.885   6.826   7.282  0.4766 -1.2544 -1.6438
  312MOL0     H43000   9.803   6.779   7.426  1.3650 -0.5091  1.1930
  312MOL0     H43001   9.939   6.576   7.455  0.8825 -0.8836 -0.3349
  312MOL0     H43002  10.015   6.744   7.475  0.0117 -1.0623  0.7373
  312MOL0     H43003  10.060   6.562   7.243  2.5378 -1.7485  0.6338
  312MOL0     H43004  10.159   6.702   7.282  0.7167 -0.4506 -0.8568
  312MOL0     H43005  10.375   6.637   7.427 -0.0511  0.6150 -0.5971
  312MOL0     H43006  10.465   6.444   7.675 -0.0160 -0.6683 -0.7404
  312MOL0     H43007  10.529   6.479   7.519 -1.7439  1.8413  0.1870
  312MOL0     H43008  10.478   6.192   7.621 -1.4608  2.8415  0.9809
  312MOL0     H43009  10.514   6.253   7.448 -2.5069  1.3574 -0.2927
  312MOL0     H43010  10.714   6.327   7.509 -1.6069 -0.0006 -0.3521
  312MOL0     H43011  10.704   6.303   7.692  2.1476 -3.1578  0.2078
  312MOL0     H43012  10.738   6.083   7.673 -0.8804  0.6250 -0.4330
  312MOL0     H43013  10.669   6.068   7.509 -0.2414 -1.0701  0.7894
  312MOL0     H43014  10.780   5.884   7.505 -0.3186 -0.8232 -0.2401
  312MOL0     H43015  10.926   5.588   7.614 -1.4858  1.8640  1.3477
  312MOL0     H43016  10.960   5.589   7.436  0.0799  0.4576  0.0267
  312MOL0     H43017  10.803   5.645   7.498  0.2463 -0.0670  1.0355
  312MOL0     H43018  11.240   5.344   7.462  1.1931 -1.5282 -0.0193
  312MOL0     H43019  11.441   5.222   7.423 -0.7065 -0.3104 -1.0874
  312MOL0     H43020  11.729   5.369   7.166 -1.4177 -3.4489 -0.5134
  312MOL0     H43021  11.826   5.421   7.306  0.7365 -0.4848 -2.2684
  312MOL0     H43022  11.814   5.126   7.257 -0.7515 -0.6500 -1.4868
  312MOL0     H43023  11.850   5.213   7.112  1.5259 -1.7100 -0.6237
  312MOL0     H43024  11.997   5.263   7.388 -0.0629 -1.0611 -0.2854
  312MOL0     H43025  12.032   5.341   7.233  0.2810  0.7276 -0.3944
  312MOL0     H43026  12.101   5.110   7.141 -0.1640  0.7297 -0.6711
  312MOL0     H43027  12.083   5.042   7.302  0.9919 -0.8975 -0.1650
  312MOL0     H43028  12.251   5.288   7.260 -1.4740  0.0237 -2.4200
  312MOL0     H43029  12.243   5.166   7.403  0.6910 -3.4348 -0.2171
  312MOL0     H43030  12.344   5.050   7.154 -3.8096  2.9621 -1.5436
  312MOL0     H43031  12.375   5.034   7.326  0.8224  0.9983  1.4187
  312MOL0     H43032  12.483   5.266   7.290 -2.9250  1.2382 -0.7604
  312MOL0     H43033  12.486   5.223   7.116 -0.0046  0.0908 -0.4059
  312MOL0     H43034  12.605   5.008   7.148 -0.4992 -0.4168 -1.5923
  312MOL0     H43035  12.619   5.043   7.324  0.2943 -1.5132 -0.9325
  312MOL0     H43036  11.645   5.552   7.263  1.0211 -2.4565  1.1990
  312MOL0     H43037  11.434   5.678   7.258  2.8890 -1.2829 -1.4690
  312MOL0     H43038  11.259   5.945   7.501 -0.2769 -0.9047  3.5402
  312MOL0     H43039  11.115   6.137   7.512  2.6879 -0.8475 -0.4300
  312MOL0     H43040   9.111   6.578   7.176  0.6424  0.2397  1.2045
  312MOL0     H43041   8.954   6.684   7.306  3.9392 -3.0479  1.1916
  312MOL0     H43042   8.988   7.105   7.725 -0.3632 -0.6007  0.7392
  312MOL0     H43043   8.804   7.164   7.884  0.3608  1.8951 -0.1811
  312MOL0     H43044   8.412   7.275   7.695 -3.3502 -1.7354 -1.7577
  312MOL0     H43045   8.348   7.122   7.762  1.3169 -1.5977  0.6904
  312MOL0     H43046   8.372   7.388   7.902 -0.7528  0.1629  2.3022
  312MOL0     H43047   8.376   7.240   7.997 -1.3429  0.0453  0.9701
  312MOL0     H43048   8.192   7.329   7.784 -0.3898  1.9227  2.0464
  312MOL0     H43049   8.146   7.190   7.901  0.2815 -0.4782  2.0810
  312MOL0     H43050   8.201   7.465   7.988 -0.9353  0.4710 -2.5198
  312MOL0     H43051   8.151   7.328   8.089 -2.8818  0.4354  0.9092
  312MOL0     H43052   7.770   7.414   7.948  0.1290 -3.2718 -1.8620
  312MOL0     H43053   8.526   7.133   7.552 -0.8364  1.0527 -1.1788
  312MOL0     H43054   8.766   7.125   7.298  0.0223  2.2635 -0.6809
  312MOL0     H43055   8.640   7.007   7.338 -2.3548  1.6343 -1.1053
  312MOL0     H43056   8.616   7.188   7.334  1.5583  0.0784 -1.1936
  313MOL0     O43057   2.390   2.076   6.041 -0.2735  1.2564 -0.1942
  313MOL0     C43058   2.362   2.012   5.939  0.7957 -0.0737 -0.1546
  313MOL0     O43059   2.459   1.961   5.853  0.2163 -0.6363 -0.4073
  313MOL0     C43060   2.584   2.006   5.879 -0.6129  0.1823 -0.1238
  313MOL0     C43061   2.648   1.949   5.991  0.7138 -0.6976  0.1072
  313MOL0     C43062   2.785   1.979   6.013  0.0745 -0.5990  0.1911
  313MOL0     C43063   2.859   2.080   5.935  0.3792 -0.4082 -0.0226
  313MOL0     O43064   2.985   2.120   5.964 -0.6931 -0.5675 -0.2196
  313MOL0     C43065   3.018   2.145   6.105  0.7888 -0.1979  0.4634
  313MOL0     C43066   3.142   2.233   6.127  0.0910  0.2074 -0.8904
  313MOL0     C43067   3.264   2.160   6.079  0.6426  1.0358 -0.4780
  313MOL0     C43068   3.387   2.250   6.086  0.5080 -1.0512  0.3622
  313MOL0     C43069   3.520   2.201   6.039 -0.1957  0.3719  0.4072
  313MOL0     C43070   3.575   2.090   6.129 -0.7068  0.0940  0.3972
  313MOL0     C43071   3.723   2.063   6.098 -1.4824 -0.7275  0.3552
  313MOL0     C43072   3.745   2.020   5.952 -0.5653 -0.6446  1.1963
  313MOL0     N43073   3.891   2.029   5.911 -0.2012 -0.2123 -0.6735
  313MOL0     C43074   3.931   2.074   5.793 -0.1457 -0.4671  0.5030
  313MOL0     C43075   4.067   2.058   5.789 -0.2609 -0.0004  0.0985
  313MOL0     C43076   4.161   2.081   5.668  0.1843 -0.3328  0.4052
  313MOL0     C43077   4.273   2.180   5.708 -0.1665  0.1105  0.7522
  313MOL0     C43078   4.403   2.137   5.638  0.2678 -0.2686 -0.1415
  313MOL0     C43079   4.448   1.991   5.670  0.2057 -0.2695 -0.4780
  313MOL0     O43080   4.586   1.986   5.666 -0.2969 -0.8041  0.2634
  313MOL0     C43081   4.654   1.868   5.677 -0.3364 -0.7635 -0.1349
  313MOL0     C43082   4.603   1.748   5.706 -0.2009  0.1615  0.5011
  313MOL0     C43083   4.683   1.632   5.710  0.6759  0.8429  0.0918
  313MOL0     C43084   4.605   1.502   5.729  0.4164  0.2900 -0.9165
  313MOL0     C43085   4.823   1.640   5.692 -0.2098 -1.5633 -0.0912
  313MOL0     C43086   4.924   1.542   5.684 -0.4135  0.5079 -0.5217
  313MOL0     O43087   4.869   1.413   5.690 -0.0534 -0.2558  0.3170
  313MOL0     C43088   4.954   1.304   5.700  0.1382 -0.0330  0.1925
  313MOL0     C43089   5.019   1.258   5.823  0.3421  0.1045  0.3445
  313MOL0     C43090   5.098   1.151   5.823 -0.0494  0.9775 -0.1037
  313MOL0     C43091   5.119   1.077   5.713  0.1627 -0.0544 -0.9630
  313MOL0     O43092   5.213   0.977   5.706  0.4128 -0.5206 -0.0040
  313MOL0     C43093   5.342   1.023   5.723  0.4100  0.5009  0.0205
  313MOL0     C43094   5.392   1.055   5.586  0.1631  0.2360 -0.2447
  313MOL0     C43095   5.538   1.102   5.604  0.3798 -0.4911  0.6221
  313MOL0     C43096   5.604   1.139   5.472  0.1432  0.7384 -0.1772
  313MOL0     C43097   5.750   1.198   5.477  0.3600 -0.3022  0.4587
  313MOL0     C43098   5.849   1.088   5.515 -0.6244 -0.1846 -0.0461
  313MOL0     C43099   5.988   1.153   5.516  0.0590 -0.8086  0.1775
  313MOL0     C43100   6.108   1.060   5.562 -0.6904 -0.3943  0.0120
  313MOL0    Cl43101   6.102   1.007   5.728  0.1122  0.4391 -0.2979
  313MOL0     C43102   5.050   1.110   5.601  1.0120 -0.8005 -0.5912
  313MOL0     C43103   4.972   1.226   5.589  0.5278  0.1432  0.1205
  313MOL0     O43104   5.045   1.569   5.694  0.4913  0.6641 -0.1619
  313MOL0     C43105   4.871   1.772   5.673 -0.7081 -0.2684  0.6910
  313MOL0     C43106   4.789   1.882   5.664 -0.4444 -0.6253  0.6238
  313MOL0     N43107   4.100   2.012   5.914  0.0787  0.6246  0.0782
  313MOL0     N43108   3.998   1.977   5.976 -0.3380  0.2220  0.3997
  313MOL0     C43109   2.781   2.139   5.828  0.0701  0.6041  0.2444
  313MOL0     C43110   2.654   2.092   5.797 -0.0045 -0.1009 -0.2723
  313MOL0     C43111   2.221   1.971   5.917  0.0359  0.6321 -0.4482
  313MOL0     C43112   2.200   1.854   5.839 -0.4039 -0.1101 -1.1176
  313MOL0     C43113   2.074   1.800   5.821  0.1904 -0.4719 -0.1582
  313MOL0     C43114   1.952   1.862   5.869 -0.6162 -1.0876 -0.1522
  313MOL0     O43115   1.833   1.797   5.842 -0.0596 -0.2105 -0.0017
  313MOL0     C43116   1.715   1.832   5.913 -0.2003 -0.2256  0.3653
  313MOL0     C43117   1.692   1.758   6.046  0.6445  0.0268 -0.7126
  313MOL0     C43118   1.677   1.609   6.034  0.3721  0.0894 -0.1841
  313MOL0     C43119   1.544   1.566   5.975 -0.0979  0.2925 -0.6291
  313MOL0     C43120   1.449   1.497   6.072  0.0969  0.6900 -0.3621
  313MOL0     C43121   1.377   1.450   6.159  0.0583 -0.1348 -0.3260
  313MOL0     C43122   1.968   1.985   5.941 -1.2931  0.2795 -0.3346
  313MOL0     C43123   2.099   2.039   5.968 -0.0167  0.6208 -0.6875
  313MOL0     C43124   2.118   2.160   6.062  0.2147 -0.1514  0.1776
  313MOL0     H43125   2.585   1.879   6.044 -3.0263  1.0306 -1.6798
  313MOL0     H43126   2.838   1.922   6.087  1.9930  0.5182 -0.2626
  313MOL0     H43127   3.023   2.051   6.160  2.0159 -0.5626 -0.2194
  313MOL0     H43128   2.936   2.207   6.142 -1.1057 -1.6545 -1.1297
  313MOL0     H43129   3.124   2.328   6.076 -2.9131 -0.2902 -0.9468
  313MOL0     H43130   3.162   2.258   6.231  0.8853 -2.2059 -0.4121
  313MOL0     H43131   3.289   2.074   6.141  3.6500  0.2427 -2.5921
  313MOL0     H43132   3.242   2.116   5.981  0.4571 -3.2140  1.2735
  313MOL0     H43133   3.365   2.337   6.023 -1.5811 -1.0392  1.0084
  313MOL0     H43134   3.400   2.279   6.190  0.2782 -1.1424  0.4184
  313MOL0     H43135   3.589   2.285   6.036 -1.1066  1.2621  2.6238
  313MOL0     H43136   3.505   2.168   5.936  1.7829 -0.2005  0.2498
  313MOL0     H43137   3.572   2.126   6.233  0.7194 -0.8553  0.7876
  313MOL0     H43138   3.517   1.998   6.139  1.5375 -1.4879 -0.5688
  313MOL0     H43139   3.753   1.987   6.171  1.7005  1.3944  1.4761
  313MOL0     H43140   3.773   2.156   6.126 -0.8044 -0.2877 -2.0822
  313MOL0     H43141   3.703   1.920   5.938 -0.4291 -0.4951 -0.4310
  313MOL0     H43142   3.689   2.088   5.888  2.1866  2.3835  1.7239
  313MOL0     H43143   3.873   2.104   5.707 -1.8563 -0.7872  1.5109
  313MOL0     H43144   4.120   2.142   5.586  2.9560 -0.7139 -1.4051
  313MOL0     H43145   4.194   1.987   5.623  1.9320 -0.5330  1.9928
  313MOL0     H43146   4.249   2.276   5.661  0.1297  0.1251  0.6269
  313MOL0     H43147   4.289   2.197   5.815  1.4239  2.2817  0.2357
  313MOL0     H43148   4.393   2.148   5.530  0.0334 -0.5881 -0.1535
  313MOL0     H43149   4.478   2.207   5.676 -0.5139  0.0884  0.7968
  313MOL0     H43150   4.428   1.975   5.777 -0.6091 -1.1715 -0.7553
  313MOL0     H43151   4.398   1.917   5.608  0.9770 -3.3978  2.3118
  313MOL0     H43152   4.497   1.733   5.726 -0.3525  1.9413  1.1440
  313MOL0     H43153   4.498   1.516   5.749  0.1841  1.3261 -2.6439
  313MOL0     H43154   4.642   1.441   5.812  1.1990 -0.8279 -2.0606
  313MOL0     H43155   4.616   1.437   5.642  0.0304 -1.5784  0.3868
  313MOL0     H43156   5.009   1.312   5.917 -0.7103  1.6251 -0.6035
  313MOL0     H43157   5.145   1.113   5.913  3.3004 -1.0649 -2.4816
  313MOL0     H43158   5.358   1.111   5.787  0.9186  0.5490 -0.1647
  313MOL0     H43159   5.399   0.946   5.775 -2.5422 -1.7492  0.1207
  313MOL0     H43160   5.379   0.980   5.508 -3.9839  0.3666  0.0988
  313MOL0     H43161   5.342   1.145   5.547 -1.8702 -1.1567 -0.9941
  313MOL0     H43162   5.594   1.023   5.655  1.2892 -0.2329  0.0531
  313MOL0     H43163   5.533   1.194   5.663  2.4849 -0.6946  1.2034
  313MOL0     H43164   5.545   1.216   5.421  0.0819 -0.3033 -1.7300
  313MOL0     H43165   5.600   1.054   5.404 -0.9762  0.4332  0.2422
  313MOL0     H43166   5.775   1.233   5.377 -1.1482 -2.1563 -0.6582
  313MOL0     H43167   5.751   1.286   5.541  0.6871 -0.9635  1.3897
  313MOL0     H43168   5.850   0.999   5.451  0.7041 -0.3589  0.1781
  313MOL0     H43169   5.824   1.052   5.615  1.9252  2.0787  1.5307
  313MOL0     H43170   5.985   1.239   5.585 -1.8328 -1.3891  0.8951
  313MOL0     H43171   6.020   1.187   5.417  0.1478  1.5259  0.9282
  313MOL0     H43172   6.200   1.112   5.534  0.1101 -2.0407 -0.5562
  313MOL0     H43173   6.115   0.978   5.491 -0.8516 -0.4835  0.0972
  313MOL0     H43174   5.051   1.035   5.522  3.3370 -2.2518  0.7088
  313MOL0     H43175   4.908   1.237   5.502 -1.6780 -2.0956  1.3502
  313MOL0     H43176   4.979   1.779   5.661 -0.9518  0.1399 -1.7335
  313MOL0     H43177   4.825   1.983   5.648  2.9380 -1.4227  2.2228
  313MOL0     H43178   2.815   2.221   5.766  1.5536  0.9736  1.4579
  313MOL0     H43179   2.602   2.141   5.715  0.7979  0.2228 -0.6074
  313MOL0     H43180   2.279   1.797   5.790 -0.8074  0.1929 -2.1443
  313MOL0     H43181   2.062   1.714   5.756 -0.5077  1.2812 -2.4651
  313MOL0     H43182   1.713   1.940   5.930  1.0548 -0.4856  2.4504
  313MOL0     H43183   1.633   1.822   5.841 -0.5332  0.3217  0.6626
  313MOL0     H43184   1.600   1.805   6.082  0.6109 -0.5907  0.0310
  313MOL0     H43185   1.769   1.779   6.120 -1.2777 -0.1109  1.4340
  313MOL0     H43186   1.761   1.570   5.975  0.4626 -0.1619  0.1071
  313MOL0     H43187   1.685   1.560   6.132 -0.3562 -3.9395 -1.9647
  313MOL0     H43188   1.584   1.504   5.894 -0.1509 -1.3139  0.5124
  313MOL0     H43189   1.491   1.651   5.931 -1.2269  1.5745  2.8061
  313MOL0     H43190   1.318   1.407   6.238 -0.9304 -1.2067 -1.6148
  313MOL0     H43191   1.879   2.030   5.984  0.2719  2.7070  0.5460
  313MOL0     H43192   2.153   2.122   6.159  0.2751 -0.1648  0.1503
  313MOL0     H43193   2.183   2.242   6.031  0.0129 -0.2712 -0.5876
  313MOL0     H43194   2.023   2.206   6.090 -1.0219 -1.4714 -1.6228
  314MOL0     O43195   4.505  10.189   6.615 -0.2629  0.3376  0.1289
  314MOL0     C43196   4.431  10.227   6.523 -0.1071 -0.3766  0.4379
  314MOL0     O43197   4.303  10.230   6.521  0.6857  0.4265 -0.2485
  314MOL0     C43198   4.243  10.183   6.629  0.3992  0.2578 -0.8796
  314MOL0     C43199   4.226  10.043   6.647  0.8728  0.5555  0.1723
  314MOL0     C43200   4.160   9.993   6.764  0.5188 -0.7498  0.2571
  314MOL0     C43201   4.110  10.085   6.861 -0.8012  0.7580  0.4572
  314MOL0     O43202   4.063  10.029   6.978 -0.1749  0.0724 -0.3495
  314MOL0     C43203   3.968  10.111   7.051 -0.5640  0.4948  0.1314
  314MOL0     C43204   3.873  10.030   7.141  0.1107 -0.1292 -0.3871
  314MOL0     C43205   3.960   9.965   7.261  0.4846  0.7467 -0.3981
  314MOL0     C43206   3.885   9.894   7.370  0.3729  0.4275 -0.3700
  314MOL0     C43207   3.954   9.847   7.506  0.2961 -0.4185 -0.3208
  314MOL0     C43208   4.095   9.810   7.479 -0.5196 -0.3499  1.1992
  314MOL0     C43209   4.098   9.688   7.383 -0.6302 -0.3702  0.1257
  314MOL0     C43210   4.240   9.642   7.341  0.3363  0.1264  0.4283
  314MOL0     N43211   4.318   9.762   7.302 -0.6691  0.5844  0.0780
  314MOL0     C43212   4.321   9.807   7.170 -0.3643  0.6721  0.2959
  314MOL0     C43213   4.416   9.901   7.165  0.2719  0.3197 -0.4763
  314MOL0     C43214   4.464   9.976   7.039 -1.0561  0.5357  0.5893
  314MOL0     C43215   4.526  10.113   7.072  0.0214 -0.0924  0.4280
  314MOL0     C43216   4.555  10.187   6.935  0.4258  1.2850 -0.1552
  314MOL0     C43217   4.660  10.305   6.967  0.6469  0.0742 -0.2425
  314MOL0     O43218   4.590  10.407   7.040  0.6986 -0.0275 -0.3996
  314MOL0     C43219   4.531  10.511   6.981 -0.5856  0.3271  0.2252
  314MOL0     C43220   4.500  10.522   6.845  0.1108 -0.3458 -0.0658
  314MOL0     C43221   4.446  10.634   6.787  1.0953 -0.6315  0.0892
  314MOL0     C43222   4.413  10.626   6.638 -0.1075  0.0283  0.5324
  314MOL0     C43223   4.430  10.752   6.871  0.2317 -0.4428  0.8514
  314MOL0     C43224   4.375  10.882   6.827  0.8779 -0.8249 -0.4287
  314MOL0     O43225   4.307  10.885   6.703 -0.0830  0.3112 -0.7880
  314MOL0     C43226   4.242  10.996   6.650  0.7678  0.2016 -0.1617
  314MOL0     C43227   4.170  11.081   6.735  0.4779  0.5645 -0.0965
  314MOL0     C43228   4.101  11.190   6.671  0.5082  0.0499  0.3839
  314MOL0     C43229   4.091  11.208   6.530 -1.1430 -0.1189 -0.2204
  314MOL0     O43230   4.014  11.310   6.486 -0.2875 -0.7829  0.0923
  314MOL0     C43231   3.938  11.294   6.364  0.3821  0.1306 -1.0386
  314MOL0     C43232   3.803  11.243   6.391 -0.5502  0.4625 -0.1289
  314MOL0     C43233   3.737  11.188   6.265 -0.4506  0.2906 -0.1584
  314MOL0     C43234   3.628  11.094   6.303 -0.0533 -0.5858  0.4538
  314MOL0     C43235   3.511  11.166   6.376  0.2443 -0.1999  0.1584
  314MOL0     C43236   3.393  11.074   6.402  0.2081 -0.2797  0.3626
  314MOL0     C43237   3.301  11.059   6.275  0.3949 -0.3545 -0.0834
  314MOL0     C43238   3.237  10.919   6.267 -0.4995  0.2447  0.0427
  314MOL0    Cl43239   3.143  10.868   6.410 -0.4670 -0.2655 -0.4189
  314MOL0     C43240   4.171  11.124   6.455  0.0085  1.1991 -0.6433
  314MOL0     C43241   4.236  11.013   6.513 -0.3723 -0.3451  0.5099
  314MOL0     O43242   4.388  10.982   6.902 -0.3753 -0.7576 -0.3476
  314MOL0     C43243   4.459  10.735   7.009 -0.1057  0.4230  0.5381
  314MOL0     C43244   4.501  10.613   7.062 -0.1828  1.4130 -0.0563
  314MOL0     N43245   4.490   9.885   7.286  0.3780 -0.3490  0.6033
  314MOL0     N43246   4.423   9.805   7.375  0.0098  0.0899 -0.0292
  314MOL0     C43247   4.133  10.226   6.838  0.7217  0.7515  0.3807
  314MOL0     C43248   4.195  10.277   6.717 -0.0163  1.4412  0.4090
  314MOL0     C43249   4.482  10.325   6.412  1.1374  1.2031 -0.1451
  314MOL0     C43250   4.382  10.384   6.334  0.4455  0.1081  0.6151
  314MOL0     C43251   4.414  10.445   6.212  0.4510 -0.2599  0.4743
  314MOL0     C43252   4.547  10.466   6.175 -0.7722  0.1793  0.5496
  314MOL0     O43253   4.599  10.535   6.067 -0.1447  0.1428  0.4795
  314MOL0     C43254   4.503  10.569   5.964 -0.2401 -0.1847  0.3105
  314MOL0     C43255   4.432  10.450   5.890 -0.8036  0.2699  0.0430
  314MOL0     C43256   4.335  10.500   5.787 -0.2786  0.0652  0.3732
  314MOL0     C43257   4.235  10.383   5.748 -0.1747 -0.0325  1.1412
  314MOL0     C43258   4.308  10.262   5.693  0.2813  0.0085  0.0071
  314MOL0     C43259   4.366  10.177   5.638  0.2789  0.5163 -0.3183
  314MOL0     C43260   4.648  10.418   6.258  0.2109  0.0128 -0.3780
  314MOL0     C43261   4.620  10.333   6.365 -0.1227 -0.1392  0.0212
  314MOL0     C43262   4.729  10.261   6.440  0.3728  0.1711 -0.8183
  314MOL0     H43263   4.247   9.983   6.559 -1.6047  1.6796 -1.2732
  314MOL0     H43264   4.140   9.886   6.771 -0.1084 -0.6056  0.7861
  314MOL0     H43265   3.907  10.164   6.978  1.4889 -2.0571 -3.8459
  314MOL0     H43266   4.016  10.185   7.115 -1.1755 -0.0168  1.2181
  314MOL0     H43267   3.806  10.102   7.188  2.2642  0.5336  1.8293
  314MOL0     H43268   3.823   9.950   7.085  2.0009 -2.0773  0.5544
  314MOL0     H43269   4.032   9.891   7.226  0.0676 -1.2317  2.5797
  314MOL0     H43270   4.021  10.045   7.305  1.6626 -0.1640 -0.3210
  314MOL0     H43271   3.809   9.958   7.417  1.8034 -0.0613  2.8590
  314MOL0     H43272   3.856   9.795   7.332 -1.0665  1.3054 -1.7220
  314MOL0     H43273   3.895   9.766   7.548 -1.9695 -0.2767 -2.9459
  314MOL0     H43274   3.952   9.935   7.572  1.3354 -0.9598  0.4723
  314MOL0     H43275   4.149   9.897   7.441  0.7967 -1.4734  0.3637
  314MOL0     H43276   4.149   9.784   7.570 -1.7795 -2.5481  1.3964
  314MOL0     H43277   4.037   9.695   7.293  0.0249  0.5244 -0.2578
  314MOL0     H43278   4.068   9.602   7.444 -1.6677  1.1414  1.8690
  314MOL0     H43279   4.288   9.571   7.409 -1.5630 -2.9772 -1.2319
  314MOL0     H43280   4.240   9.595   7.242  1.5133  0.2371  0.3599
  314MOL0     H43281   4.257   9.777   7.088 -0.8297 -0.5467  1.0699
  314MOL0     H43282   4.384  10.003   6.969  0.1957  0.1482 -1.0440
  314MOL0     H43283   4.532   9.916   6.978  1.1412  0.8264  2.6094
  314MOL0     H43284   4.459  10.176   7.131  1.9710 -0.2471  2.9528
  314MOL0     H43285   4.616  10.089   7.129  0.4306  1.5168  0.5269
  314MOL0     H43286   4.591  10.115   6.861 -2.5462 -0.1090 -0.3711
  314MOL0     H43287   4.467  10.233   6.889 -0.2336 -0.5370 -0.8134
  314MOL0     H43288   4.736  10.259   7.032 -1.7603 -1.5558  1.6207
  314MOL0     H43289   4.691  10.336   6.867  0.2953 -1.7320 -0.9650
  314MOL0     H43290   4.518  10.440   6.776 -3.0283 -1.4177  0.2223
  314MOL0     H43291   4.453  10.706   6.576 -0.2140 -2.2756 -2.7667
  314MOL0     H43292   4.305  10.618   6.621  0.0231  1.8952 -1.7343
  314MOL0     H43293   4.455  10.532   6.600  0.8908 -0.3900  2.5185
  314MOL0     H43294   4.164  11.071   6.843 -2.6628 -0.7140 -0.2958
  314MOL0     H43295   4.044  11.257   6.735 -0.8831  0.1597 -0.9030
  314MOL0     H43296   3.917  11.394   6.326 -1.7068 -0.5275 -1.7994
  314MOL0     H43297   3.993  11.232   6.292  3.6405  1.4598  0.1397
  314MOL0     H43298   3.814  11.166   6.468 -2.1966  1.3087  1.0173
  314MOL0     H43299   3.745  11.325   6.435 -2.0331  0.5345 -2.0896
  314MOL0     H43300   3.816  11.139   6.206 -0.6426  0.3664 -0.4816
  314MOL0     H43301   3.705  11.271   6.201  0.5670  2.5725  2.1294
  314MOL0     H43302   3.669  11.010   6.359 -1.0003 -1.3823 -0.0132
  314MOL0     H43303   3.592  11.060   6.205  0.8525 -0.1246 -0.0429
  314MOL0     H43304   3.548  11.193   6.475 -0.5755 -1.3026  0.7896
  314MOL0     H43305   3.474  11.252   6.320  1.0975  0.7933  1.0899
  314MOL0     H43306   3.327  11.117   6.479 -2.0867  2.2740 -2.7348
  314MOL0     H43307   3.424  10.975   6.435  0.7091 -1.1028 -2.3356
  314MOL0     H43308   3.364  11.066   6.186 -1.0277  0.6922 -1.0403
  314MOL0     H43309   3.217  11.128   6.264 -1.9573 -3.2848 -2.4293
  314MOL0     H43310   3.316  10.847   6.243  2.7654  3.2765  0.8998
  314MOL0     H43311   3.174  10.919   6.178  1.3993 -0.7433 -1.3963
  314MOL0     H43312   4.181  11.139   6.348 -0.2041 -0.6325 -0.9643
  314MOL0     H43313   4.292  10.956   6.439  0.5824  1.5840 -0.3049
  314MOL0     H43314   4.427  10.817   7.074 -3.6047 -0.1217 -0.2779
  314MOL0     H43315   4.529  10.613   7.167 -0.8066 -2.6752  0.2718
  314MOL0     H43316   4.101  10.300   6.910 -0.8597 -0.2078  0.6915
  314MOL0     H43317   4.230  10.379   6.716 -0.6374  1.6747  1.0321
  314MOL0     H43318   4.276  10.367   6.346 -0.0164  0.6960 -2.0747
  314MOL0     H43319   4.338  10.501   6.158  2.0874  0.7668 -0.8910
  314MOL0     H43320   4.422  10.633   5.999  0.5630  1.8903 -1.3820
  314MOL0     H43321   4.560  10.628   5.892 -1.5736  0.9280  0.1196
  314MOL0     H43322   4.381  10.394   5.969  1.1530 -0.9280  0.5404
  314MOL0     H43323   4.514  10.394   5.845  0.4156  1.4260  0.7319
  314MOL0     H43324   4.282  10.586   5.828  1.0641  1.9851 -1.6685
  314MOL0     H43325   4.386  10.539   5.698  0.6915 -2.2880 -0.1988
  314MOL0     H43326   4.163  10.413   5.672  0.7303 -1.3421 -0.3064
  314MOL0     H43327   4.170  10.355   5.831 -0.6071  0.9342  1.1462
  314MOL0     H43328   4.425  10.092   5.609  0.0816  0.4696 -0.5894
  314MOL0     H43329   4.752  10.424   6.229  0.6222 -3.2069 -0.0314
  314MOL0     H43330   4.704  10.156   6.457 -1.7881  0.7214 -0.2911
  314MOL0     H43331   4.821  10.271   6.381 -0.3923  3.0866 -1.6930
  314MOL0     H43332   4.733  10.305   6.540 -0.9414  3.5878 -2.1017
  315MOL0     O43333   5.863   2.882   3.447  0.5672  0.2326  0.2253
  315MOL0     C43334   5.892   2.945   3.346 -0.5987  0.3652  0.6290
  315MOL0     O43335   5.825   3.044   3.290 -0.4120 -0.2695  0.2635
  315MOL0     C43336   5.713   3.079   3.345 -0.8854  0.1928 -0.1818
  315MOL0     C43337   5.603   3.001   3.339  0.2144  0.3026 -0.4513
  315MOL0     C43338   5.484   3.062   3.379  0.1345 -0.5046  0.3956
  315MOL0     C43339   5.478   3.191   3.438  0.5429  0.6075  0.0029
  315MOL0     O43340   5.367   3.256   3.493  0.2666 -0.6919 -0.2310
  315MOL0     C43341   5.260   3.193   3.569  0.4265  0.8282 -0.7171
  315MOL0     C43342   5.133   3.282   3.535  0.9840  0.1453 -0.2594
  315MOL0     C43343   5.019   3.253   3.634  0.3784 -0.8794 -0.8231
  315MOL0     C43344   4.887   3.330   3.588  0.3278  0.3969 -0.6195
  315MOL0     C43345   4.752   3.287   3.651 -0.5355 -0.1044  0.5575
  315MOL0     C43346   4.754   3.305   3.799  0.5942 -0.0516  0.6520
  315MOL0     C43347   4.616   3.305   3.857 -0.2839 -0.5220  0.5274
  315MOL0     C43348   4.603   3.347   4.008  0.3691  0.0852 -0.7003
  315MOL0     N43349   4.609   3.489   4.010  0.1943  0.8632  0.3281
  315MOL0     C43350   4.513   3.582   3.972 -0.0670 -0.9201 -0.7755
  315MOL0     C43351   4.568   3.704   3.990  0.6352  0.6218 -0.1292
  315MOL0     C43352   4.516   3.829   3.947 -0.7634 -1.1555 -0.6904
  315MOL0     C43353   4.541   3.840   3.795 -0.9614 -0.2259 -0.1950
  315MOL0     C43354   4.689   3.866   3.750  0.8782  0.1369 -0.3790
  315MOL0     C43355   4.778   3.747   3.720  0.0282 -0.5155  0.6049
  315MOL0     O43356   4.912   3.779   3.679 -1.2165  0.2702 -0.1159
  315MOL0     C43357   4.999   3.843   3.774  0.3625  0.5213 -0.3317
  315MOL0     C43358   4.979   3.840   3.909  0.4034  0.1302  0.5026
  315MOL0     C43359   5.067   3.912   3.994  0.6880  0.3526  0.2392
  315MOL0     C43360   5.042   3.905   4.146  0.4290  0.1064 -0.3857
  315MOL0     C43361   5.172   3.996   3.940 -0.0492  0.0360  1.0374
  315MOL0     C43362   5.254   4.102   4.011 -1.2298  0.4595  0.6136
  315MOL0     O43363   5.371   4.148   3.944  0.0003  0.3899 -0.4389
  315MOL0     C43364   5.470   4.212   4.019 -0.4633 -0.0444  1.2343
  315MOL0     C43365   5.501   4.195   4.151  0.7448 -0.2134 -0.1211
  315MOL0     C43366   5.609   4.267   4.214 -0.1620 -0.1496 -0.2355
  315MOL0     C43367   5.687   4.360   4.143 -0.3288 -0.4513 -0.5228
  315MOL0     O43368   5.787   4.428   4.198  0.2264 -0.7185 -0.2769
  315MOL0     C43369   5.856   4.394   4.320  0.4021  0.0184 -0.6080
  315MOL0     C43370   5.943   4.511   4.364 -0.4894 -0.7856  0.4710
  315MOL0     C43371   6.063   4.521   4.264  0.2078  0.7096  0.1855
  315MOL0     C43372   6.174   4.610   4.328  0.5391  0.1445  0.3706
  315MOL0     C43373   6.286   4.643   4.237  0.5801 -0.1175  0.0566
  315MOL0     C43374   6.381   4.754   4.289 -0.2383  1.2883  0.8132
  315MOL0     C43375   6.521   4.759   4.222  0.0098 -0.1807 -0.7092
  315MOL0     C43376   6.593   4.630   4.223 -0.9978 -0.0623  0.8103
  315MOL0    Cl43377   6.765   4.670   4.261 -0.4500 -0.3606 -0.5053
  315MOL0     C43378   5.660   4.374   4.009  0.8487 -0.8180  0.3115
  315MOL0     C43379   5.553   4.301   3.949  0.1346  0.2177  0.3508
  315MOL0     O43380   5.215   4.150   4.116  0.1441  0.5624  0.0333
  315MOL0     C43381   5.185   3.986   3.800 -0.2505  0.3624 -0.7130
  315MOL0     C43382   5.108   3.910   3.724 -0.2849 -0.2251 -0.2679
  315MOL0     N43383   4.694   3.687   4.046 -0.1747  0.0692  0.0072
  315MOL0     N43384   4.711   3.559   4.052  0.3076  0.6900  0.2474
  315MOL0     C43385   5.595   3.261   3.451 -1.6371 -0.4418  0.0063
  315MOL0     C43386   5.712   3.203   3.402 -0.0726 -0.0812 -0.6680
  315MOL0     C43387   6.001   2.891   3.261 -0.0768 -0.1390  0.1733
  315MOL0     C43388   6.078   2.989   3.191  0.4472 -0.7249  0.3046
  315MOL0     C43389   6.189   2.953   3.117 -0.8410 -0.0551  0.7389
  315MOL0     C43390   6.230   2.816   3.100  1.0267 -0.4791 -0.2593
  315MOL0     O43391   6.336   2.786   3.025  0.1422 -0.1886 -0.0711
  315MOL0     C43392   6.368   2.648   2.996  0.7444 -0.2776 -0.2643
  315MOL0     C43393   6.501   2.645   2.918  0.4317 -0.4917 -0.3947
  315MOL0     C43394   6.480   2.683   2.773  0.0678  0.5498  0.1030
  315MOL0     C43395   6.600   2.641   2.692  0.2361  0.1495  0.5539
  315MOL0     C43396   6.553   2.609   2.556  0.0849  0.3087  0.6676
  315MOL0     C43397   6.505   2.608   2.446 -0.0232  0.6488  0.6416
  315MOL0     C43398   6.148   2.717   3.173 -0.0866 -0.2089  0.5655
  315MOL0     C43399   6.039   2.753   3.248 -0.3021 -0.1894 -0.1012
  315MOL0     C43400   5.965   2.637   3.314  0.6200  0.0447 -0.4507
  315MOL0     H43401   5.609   2.898   3.307 -1.9821 -0.7290  2.0768
  315MOL0     H43402   5.392   3.004   3.374  0.9189 -1.8910  1.3867
  315MOL0     H43403   5.282   3.188   3.676 -1.7019 -1.6324 -0.2869
  315MOL0     H43404   5.236   3.091   3.538  0.1382  0.9151 -0.7757
  315MOL0     H43405   5.161   3.387   3.539  1.2541  0.0800  3.0539
  315MOL0     H43406   5.110   3.266   3.430  0.0874  0.7279 -0.1607
  315MOL0     H43407   5.000   3.145   3.633  0.4220 -0.8861 -0.9113
  315MOL0     H43408   5.046   3.276   3.738  1.0428  3.7738 -1.8149
  315MOL0     H43409   4.899   3.439   3.598 -0.0413  0.3350  0.7103
  315MOL0     H43410   4.884   3.309   3.481  0.7698  2.9423 -1.2124
  315MOL0     H43411   4.732   3.182   3.629  1.2122 -0.6723  1.4837
  315MOL0     H43412   4.663   3.326   3.602  0.2348 -1.6600 -2.3263
  315MOL0     H43413   4.804   3.214   3.834  1.4659 -0.2865 -1.1375
  315MOL0     H43414   4.808   3.395   3.829 -0.7731  0.7083  0.9628
  315MOL0     H43415   4.568   3.208   3.844  3.0556 -2.3305  0.3978
  315MOL0     H43416   4.569   3.388   3.803 -0.1987 -0.4850  0.5098
  315MOL0     H43417   4.503   3.311   4.035 -0.6587  0.8431 -3.1315
  315MOL0     H43418   4.679   3.301   4.071 -0.7354  0.0577  0.6457
  315MOL0     H43419   4.413   3.558   3.935 -0.9487 -0.0809  0.9359
  315MOL0     H43420   4.561   3.911   4.004 -2.3662 -0.6900 -0.0298
  315MOL0     H43421   4.410   3.825   3.974 -0.2348 -1.1007  1.6168
  315MOL0     H43422   4.493   3.753   3.750 -1.7282  0.1054 -0.0221
  315MOL0     H43423   4.490   3.924   3.748 -0.1191  0.4186  0.0224
  315MOL0     H43424   4.683   3.936   3.666  0.1685 -0.4927 -0.8781
  315MOL0     H43425   4.734   3.925   3.830  1.0056  0.3754 -0.6245
  315MOL0     H43426   4.777   3.670   3.798 -0.0746 -3.1324 -1.8045
  315MOL0     H43427   4.729   3.700   3.634  1.3071  1.3316 -1.2371
  315MOL0     H43428   4.889   3.793   3.948 -3.6282  4.4362 -2.5383
  315MOL0     H43429   5.136   3.873   4.191  0.5502 -1.0951 -1.4621
  315MOL0     H43430   4.958   3.839   4.167 -0.0082  0.0020 -2.3189
  315MOL0     H43431   5.020   4.010   4.171  1.7975  0.5000 -0.7728
  315MOL0     H43432   5.429   4.139   4.210 -1.5160  2.4889 -0.0774
  315MOL0     H43433   5.619   4.236   4.317 -1.1430  0.3104  0.0060
  315MOL0     H43434   5.778   4.382   4.396 -0.6377  3.0959 -1.0616
  315MOL0     H43435   5.916   4.305   4.301  1.2143  0.0641  1.4860
  315MOL0     H43436   5.884   4.602   4.360  0.0607 -0.4264  0.4119
  315MOL0     H43437   5.992   4.493   4.460 -0.1195 -3.5234 -0.1325
  315MOL0     H43438   6.024   4.559   4.170  0.9617  0.7258 -0.1282
  315MOL0     H43439   6.110   4.424   4.245 -1.0822  0.4432 -1.8641
  315MOL0     H43440   6.214   4.572   4.423  1.2949  1.7609  0.7384
  315MOL0     H43441   6.134   4.703   4.371  2.3398 -0.0520  2.7296
  315MOL0     H43442   6.334   4.549   4.209  0.0694 -0.9278  1.7633
  315MOL0     H43443   6.246   4.687   4.145  0.4536  1.6945  0.9314
  315MOL0     H43444   6.397   4.759   4.398  3.3678 -2.5189  0.7073
  315MOL0     H43445   6.324   4.845   4.268 -0.9735  0.0774 -3.1737
  315MOL0     H43446   6.574   4.832   4.285  1.2177 -4.3001  3.6909
  315MOL0     H43447   6.520   4.782   4.115  2.2477 -0.0394 -0.7567
  315MOL0     H43448   6.594   4.576   4.128 -0.6883 -0.0125  0.7841
  315MOL0     H43449   6.554   4.559   4.296 -2.4529 -1.4276 -1.1993
  315MOL0     H43450   5.715   4.452   3.957  0.0073  3.1896  4.7058
  315MOL0     H43451   5.537   4.313   3.842 -5.1424  0.8613  0.9079
  315MOL0     H43452   5.266   4.040   3.752  0.0707  1.1917  0.7211
  315MOL0     H43453   5.135   3.923   3.620  1.4965 -2.1271 -0.1192
  315MOL0     H43454   5.608   3.362   3.489  1.9191 -0.1691 -1.5611
  315MOL0     H43455   5.804   3.257   3.420  0.2435  0.3591 -3.2581
  315MOL0     H43456   6.050   3.094   3.196 -1.5033 -1.2126  0.7716
  315MOL0     H43457   6.260   3.024   3.077  0.3796 -2.4709 -1.7342
  315MOL0     H43458   6.384   2.592   3.089  0.1610 -3.7994 -2.0920
  315MOL0     H43459   6.286   2.597   2.946  2.4305 -0.2035 -3.3623
  315MOL0     H43460   6.543   2.544   2.929 -2.5622 -1.8841 -0.7203
  315MOL0     H43461   6.575   2.712   2.963  0.8513 -1.8877  1.0755
  315MOL0     H43462   6.392   2.631   2.736 -0.4944  0.4708  1.4995
  315MOL0     H43463   6.459   2.789   2.755  1.1842  0.7879  0.1219
  315MOL0     H43464   6.651   2.545   2.707  1.3753  0.5325 -0.7247
  315MOL0     H43465   6.680   2.715   2.692  1.0043 -0.6322  1.7744
  315MOL0     H43466   6.457   2.593   2.351 -1.2545  0.0625  1.3310
  315MOL0     H43467   6.181   2.613   3.179  1.7841  0.0888 -2.3560
  315MOL0     H43468   6.032   2.551   3.311  1.0760  0.4030 -0.6278
  315MOL0     H43469   5.944   2.642   3.422  0.4780 -0.6691 -0.4410
  315MOL0     H43470   5.865   2.627   3.270 -0.8122  2.5959  1.8357
  316MOL0     O43471  11.241  10.404   1.640 -0.6430 -0.9256 -0.3027
  316MOL0     C43472  11.163  10.499   1.623  0.2265  0.3614 -0.2668
  316MOL0     O43473  11.184  10.630   1.643 -1.4450  0.3646 -1.1632
  316MOL0     C43474  11.317  10.671   1.663 -0.4897  0.5526  0.2567
  316MOL0     C43475  11.402  10.682   1.555  0.3610  0.8098 -0.2234
  316MOL0     C43476  11.533  10.724   1.579  0.8373 -0.5652  0.2037
  316MOL0     C43477  11.580  10.753   1.699  0.5570  1.1316 -0.4513
  316MOL0     O43478  11.711  10.785   1.726 -0.5419  0.3272  0.3938
  316MOL0     C43479  11.816  10.684   1.715 -0.0319  0.4203 -0.7266
  316MOL0     C43480  11.896  10.679   1.848  0.3931 -0.4993  0.4897
  316MOL0     C43481  12.055  10.668   1.841  2.0352 -0.2822  0.2468
  316MOL0     C43482  12.092  10.648   1.983  0.1946  0.3083  0.2802
  316MOL0     C43483  12.242  10.684   2.003  0.0907 -0.3350 -0.4118
  316MOL0     C43484  12.328  10.590   1.936 -0.7423  0.1465 -0.0015
  316MOL0     C43485  12.479  10.636   1.971 -0.0914 -0.1284 -0.1229
  316MOL0     C43486  12.591  10.540   1.926 -0.1608  0.2884 -0.1304
  316MOL0     N43487  12.599  10.519   1.782  0.3793  0.5488  0.5389
  316MOL0     C43488  12.518  10.432   1.716  0.4367  1.2913 -0.2498
  316MOL0     C43489  12.538  10.448   1.589 -0.3471  0.2336 -0.1859
  316MOL0     C43490  12.468  10.379   1.468 -0.9843  0.0178  0.1907
  316MOL0     C43491  12.528  10.233   1.441 -0.1833 -0.1039  0.2638
  316MOL0     C43492  12.498  10.189   1.300  0.6308 -1.2669 -0.3575
  316MOL0     C43493  12.547  10.051   1.252  0.1668  0.0381 -0.8291
  316MOL0     O43494  12.693  10.048   1.247 -0.0531 -0.7598 -0.3155
  316MOL0     C43495  12.766   9.928   1.251  0.5804  0.1818  0.0986
  316MOL0     C43496  12.708   9.810   1.217 -0.5376 -0.6930 -0.0262
  316MOL0     C43497  12.787   9.693   1.217  0.2009 -0.3449 -0.4950
  316MOL0     C43498  12.718   9.563   1.171 -0.1097  0.3094 -0.0781
  316MOL0     C43499  12.928   9.693   1.253  0.8377  0.0025 -0.4445
  316MOL0     C43500  13.014   9.572   1.254 -0.2130 -0.8987 -0.0778
  316MOL0     O43501  13.149   9.594   1.234  0.5119 -0.3087  0.4212
  316MOL0     C43502  13.247   9.494   1.265  0.5939  0.6442 -0.0730
  316MOL0     C43503  13.378   9.537   1.240  0.3190  0.0755 -0.3020
  316MOL0     C43504  13.487   9.465   1.271  0.8713 -0.1857 -0.0810
  316MOL0     C43505  13.473   9.338   1.326 -0.2625 -0.0138 -0.1852
  316MOL0     O43506  13.594   9.274   1.344 -0.0371  0.4890 -1.0131
  316MOL0     C43507  13.614   9.188   1.463 -0.1228  0.8304  0.2446
  316MOL0     C43508  13.752   9.195   1.522 -0.2261  0.7452 -0.0018
  316MOL0     C43509  13.778   9.113   1.644 -0.9373 -0.2986  0.8399
  316MOL0     C43510  13.926   9.122   1.698  0.6965  0.8053  0.2583
  316MOL0     C43511  13.972   9.021   1.802  1.2166  0.9044 -0.7447
  316MOL0     C43512  13.872   9.004   1.919 -0.6457 -0.0249 -0.8980
  316MOL0     C43513  13.944   8.910   2.025 -0.0722 -0.0091  0.1878
  316MOL0     C43514  13.861   8.888   2.153  0.4143 -0.6758 -0.3866
  316MOL0    Cl43515  13.701   8.824   2.121 -0.1632 -0.3485  0.4135
  316MOL0     C43516  13.343   9.276   1.342 -0.7113  0.5569 -0.2699
  316MOL0     C43517  13.231   9.362   1.322 -0.1993 -0.0448 -0.2634
  316MOL0     O43518  12.963   9.466   1.282 -0.0844 -0.2042 -0.5101
  316MOL0     C43519  12.980   9.819   1.279 -0.6459 -0.2108 -0.0280
  316MOL0     C43520  12.902   9.930   1.275  0.0650 -0.1609  0.3805
  316MOL0     N43521  12.641  10.543   1.585  0.0118 -0.4860  0.5286
  316MOL0     N43522  12.673  10.589   1.696  0.1026  0.3233 -0.0232
  316MOL0     C43523  11.491  10.739   1.809 -0.2762 -1.5824  0.5352
  316MOL0     C43524  11.356  10.703   1.791 -0.3221 -0.2458  0.2028
  316MOL0     C43525  11.020  10.467   1.606  0.2500 -0.0907 -0.4674
  316MOL0     C43526  10.951  10.413   1.716 -0.4731 -0.4964  0.9253
  316MOL0     C43527  10.820  10.372   1.696  0.3196  0.3155  0.0565
  316MOL0     C43528  10.746  10.394   1.583 -0.1513 -1.0376 -0.0009
  316MOL0     O43529  10.615  10.362   1.579 -0.0401 -0.3073  0.5542
  316MOL0     C43530  10.550  10.345   1.450 -0.1951  0.4547 -0.7144
  316MOL0     C43531  10.403  10.288   1.473 -0.2386 -0.0067 -1.0518
  316MOL0     C43532  10.341  10.247   1.346  0.2054  0.0750  1.7470
  316MOL0     C43533  10.198  10.202   1.375 -0.7093 -0.4530  0.3985
  316MOL0     C43534  10.099  10.303   1.414  0.0153 -0.1785  0.4049
  316MOL0     C43535  10.016  10.383   1.447  0.5458  0.0751 -0.7473
  316MOL0     C43536  10.821  10.445   1.469  1.4432 -0.6158 -0.1326
  316MOL0     C43537  10.952  10.491   1.482 -0.5741  0.8902 -0.1001
  316MOL0     C43538  11.020  10.553   1.360  0.2363  0.2311  0.6786
  316MOL0     H43539  11.363  10.649   1.459 -1.5932  0.5855  0.6033
  316MOL0     H43540  11.597  10.742   1.493  3.0609  2.1261  2.2234
  316MOL0     H43541  11.889  10.700   1.635  0.6175  1.4381  0.0316
  316MOL0     H43542  11.773  10.583   1.708  1.4253 -0.1257 -2.7124
  316MOL0     H43543  11.872  10.771   1.902  1.1622 -0.1012  0.1646
  316MOL0     H43544  11.852  10.597   1.906 -0.6319  0.1228  0.6091
  316MOL0     H43545  12.081  10.587   1.772  1.1700  0.7041 -1.2945
  316MOL0     H43546  12.088  10.766   1.804  3.4015 -1.5027 -2.0457
  316MOL0     H43547  12.037  10.709   2.055  0.1997 -0.3005  0.8079
  316MOL0     H43548  12.072  10.545   2.015  2.1510  0.2995  1.6959
  316MOL0     H43549  12.247  10.693   2.112 -2.3917 -1.1983 -0.1731
  316MOL0     H43550  12.262  10.785   1.966  1.0749 -0.0465  0.8140
  316MOL0     H43551  12.319  10.488   1.976 -0.4625 -0.3616 -1.1854
  316MOL0     H43552  12.322  10.592   1.827 -1.9567  1.3720  0.0615
  316MOL0     H43553  12.492  10.653   2.079  5.1643  1.2524 -0.7143
  316MOL0     H43554  12.496  10.735   1.927 -1.8863 -0.8847 -2.7312
  316MOL0     H43555  12.691  10.577   1.950 -1.2760  2.9149  0.8020
  316MOL0     H43556  12.573  10.445   1.976 -1.1198  0.0372 -0.9071
  316MOL0     H43557  12.435  10.381   1.763  0.3222  1.6553 -0.0525
  316MOL0     H43558  12.471  10.432   1.372  2.0421 -1.8553 -0.8898
  316MOL0     H43559  12.362  10.362   1.488 -0.6791 -1.6051  0.5329
  316MOL0     H43560  12.636  10.243   1.452  0.2685 -2.6026 -1.0744
  316MOL0     H43561  12.488  10.161   1.514 -1.3289  1.2102  0.9838
  316MOL0     H43562  12.390  10.202   1.288  0.8615 -0.2950 -1.5115
  316MOL0     H43563  12.544  10.260   1.231  2.6890 -0.4491  1.7277
  316MOL0     H43564  12.511   9.972   1.319 -3.3768 -0.4116 -2.9752
  316MOL0     H43565  12.502  10.031   1.154 -0.5009  2.8383 -1.1699
  316MOL0     H43566  12.600   9.812   1.207 -0.4295 -1.5175 -1.6986
  316MOL0     H43567  12.791   9.503   1.117  1.0121  0.8536  0.7831
  316MOL0     H43568  12.630   9.574   1.106  1.0918  1.7225 -1.5396
  316MOL0     H43569  12.683   9.510   1.260 -2.0405 -0.2765 -1.1134
  316MOL0     H43570  13.386   9.635   1.194  0.9643  1.5551  2.6849
  316MOL0     H43571  13.590   9.500   1.272  0.6536  0.4852  1.1397
  316MOL0     H43572  13.545   9.221   1.541  0.2381  1.7440  0.1910
  316MOL0     H43573  13.592   9.085   1.432  1.4049  0.0720  1.5446
  316MOL0     H43574  13.831   9.163   1.453 -2.1843 -2.6592 -0.9191
  316MOL0     H43575  13.766   9.296   1.562 -4.5972  1.0486  1.2137
  316MOL0     H43576  13.756   9.008   1.620  0.7113 -0.9633  2.0349
  316MOL0     H43577  13.713   9.147   1.725 -2.6092 -1.4430  0.0373
  316MOL0     H43578  13.940   9.225   1.733 -0.8147  1.2617 -0.4060
  316MOL0     H43579  13.991   9.101   1.613  0.9510  2.4845 -0.0111
  316MOL0     H43580  13.978   8.923   1.755  4.1716  0.2275  0.8348
  316MOL0     H43581  14.072   9.050   1.835  1.7825  0.3483 -1.9439
  316MOL0     H43582  13.781   8.959   1.878 -2.6250  2.0154  0.9598
  316MOL0     H43583  13.832   9.098   1.959  2.4822  0.6047  1.1209
  316MOL0     H43584  14.041   8.949   2.056 -1.0596  0.4135  3.0724
  316MOL0     H43585  13.936   8.808   1.985 -0.6807  0.5950 -1.3242
  316MOL0     H43586  13.855   8.985   2.203 -2.3089 -1.9546  2.0623
  316MOL0     H43587  13.916   8.819   2.217  0.6650  0.9379  1.2382
  316MOL0     H43588  13.340   9.179   1.390  1.8653  1.4455  1.8878
  316MOL0     H43589  13.136   9.334   1.367  0.6406 -1.7962  0.5300
  316MOL0     H43590  13.083   9.836   1.307 -0.1890 -1.4603 -0.8762
  316MOL0     H43591  12.943  10.026   1.308  0.4247 -0.6182  1.3063
  316MOL0     H43592  11.535  10.771   1.902 -0.4706 -2.2241  0.8494
  316MOL0     H43593  11.289  10.703   1.876 -0.2976  2.9910  0.3376
  316MOL0     H43594  10.987  10.388   1.816  3.1055  1.9657  0.4192
  316MOL0     H43595  10.765  10.321   1.774 -0.9912  0.4056 -0.7876
  316MOL0     H43596  10.542  10.432   1.385  0.0542  0.8016 -0.2861
  316MOL0     H43597  10.612  10.278   1.390  0.9644  2.2373 -1.5788
  316MOL0     H43598  10.340  10.359   1.528 -1.9764 -1.8745 -0.4895
  316MOL0     H43599  10.415  10.200   1.536 -3.3437  0.2399  0.0645
  316MOL0     H43600  10.341  10.330   1.275  3.3033 -0.9041  0.4481
  316MOL0     H43601  10.401  10.169   1.299  0.9555  2.4941 -1.7015
  316MOL0     H43602  10.197  10.124   1.452 -1.1907 -0.2964  0.5564
  316MOL0     H43603  10.153  10.160   1.285 -0.2390  2.3998 -1.2657
  316MOL0     H43604   9.942  10.455   1.475  1.8602  2.6940 -3.3706
  316MOL0     H43605  10.777  10.470   1.373  0.9879 -2.2284 -0.3779
  316MOL0     H43606  10.992  10.500   1.268 -1.7117 -0.0472  1.3928
  316MOL0     H43607  10.996  10.659   1.346  1.0209  0.7069  2.6062
  316MOL0     H43608  11.127  10.533   1.359 -0.0230 -1.3856 -1.3568
  317MOL0     O43609   9.748   4.882   5.903  0.6120  0.1973  0.5451
  317MOL0     C43610   9.828   4.823   5.976  0.1263  0.5977 -0.2339
  317MOL0     O43611   9.957   4.798   5.941  0.4085  0.1052 -0.6378
  317MOL0     C43612  10.013   4.868   5.833  0.7809  0.3225 -0.1940
  317MOL0     C43613  10.063   4.999   5.842  0.3074  0.3710  0.3014
  317MOL0     C43614  10.121   5.047   5.728 -0.2501 -0.3490 -0.7809
  317MOL0     C43615  10.119   4.979   5.605 -1.7881 -0.0932  0.1088
  317MOL0     O43616  10.161   5.043   5.487  0.0840 -0.7990  0.0639
  317MOL0     C43617  10.266   5.142   5.508 -0.0603  0.1831  0.5856
  317MOL0     C43618  10.356   5.154   5.383 -0.3759  0.5431  0.9936
  317MOL0     C43619  10.451   5.036   5.369  0.1869  0.0314  0.2577
  317MOL0     C43620  10.442   4.956   5.234 -0.8485  0.2837 -0.3006
  317MOL0     C43621  10.304   4.896   5.212 -0.3612  0.2832 -0.6701
  317MOL0     C43622  10.264   4.782   5.300 -0.5135  0.4448 -0.0657
  317MOL0     C43623  10.121   4.726   5.257  0.4831  0.8845 -0.4404
  317MOL0     C43624  10.085   4.587   5.313 -0.0947 -0.0298 -0.4944
  317MOL0     N43625  10.171   4.473   5.283 -0.4184  0.2718 -0.0296
  317MOL0     C43626  10.261   4.415   5.369  0.3575 -0.9883  0.3442
  317MOL0     C43627  10.322   4.315   5.306  0.6984  0.5475  0.7335
  317MOL0     C43628  10.442   4.246   5.364  0.0800 -0.4093 -0.0830
  317MOL0     C43629  10.418   4.092   5.383  0.3203 -0.4820 -0.5792
  317MOL0     C43630  10.391   4.037   5.237 -0.2838 -0.4951  0.2989
  317MOL0     C43631  10.499   4.047   5.131 -0.0381  0.1405  0.3264
  317MOL0     O43632  10.625   3.997   5.173 -0.1639  0.7407  0.0122
  317MOL0     C43633  10.655   3.856   5.168  0.1774  0.0932  0.2921
  317MOL0     C43634  10.787   3.825   5.203  0.6994 -0.2320 -0.6449
  317MOL0     C43635  10.835   3.696   5.198  0.5124  0.3802 -0.1645
  317MOL0     C43636  10.979   3.676   5.243  0.5311 -0.7571  0.7772
  317MOL0     C43637  10.746   3.591   5.156 -0.0764 -0.1173  0.4064
  317MOL0     C43638  10.792   3.448   5.140  0.0379  0.2920  0.3128
  317MOL0     O43639  10.896   3.398   5.207 -0.2428  0.2651  0.4857
  317MOL0     C43640  10.942   3.278   5.170  0.4635  1.0480 -0.3845
  317MOL0     C43641  10.886   3.163   5.229 -0.1777  0.7273  0.0181
  317MOL0     C43642  10.936   3.040   5.191 -0.4573  0.1173 -0.2320
  317MOL0     C43643  11.040   3.023   5.096  0.3018 -0.1006 -0.5481
  317MOL0     O43644  11.077   2.901   5.042  0.4743  0.5777  0.5075
  317MOL0     C43645  11.154   2.826   5.134 -0.1882 -0.5987  0.5735
  317MOL0     C43646  11.237   2.715   5.062 -0.1061  0.2079 -0.2990
  317MOL0     C43647  11.337   2.762   4.955 -0.3283 -0.0094 -0.4028
  317MOL0     C43648  11.397   2.899   4.987 -0.1082 -0.0672 -0.6440
  317MOL0     C43649  11.528   2.950   4.921 -0.0115  0.1843 -0.0853
  317MOL0     C43650  11.582   3.081   4.981  0.8709 -0.2691 -0.2398
  317MOL0     C43651  11.481   3.197   4.978 -0.2243 -0.2356 -1.3671
  317MOL0     C43652  11.552   3.331   5.007  0.0515  0.6337 -0.3382
  317MOL0    Cl43653  11.563   3.351   5.191 -0.1572  0.6184 -0.1735
  317MOL0     C43654  11.087   3.140   5.025 -0.4977  0.2380 -0.1683
  317MOL0     C43655  11.036   3.261   5.070 -0.0310 -0.3157  0.9354
  317MOL0     O43656  10.723   3.375   5.065 -0.4546  0.5406 -0.3083
  317MOL0     C43657  10.614   3.622   5.124 -0.7991 -0.6896  0.4444
  317MOL0     C43658  10.566   3.753   5.133  0.4834  0.3370 -0.0702
  317MOL0     N43659  10.259   4.302   5.180 -0.4909  0.4530  1.4335
  317MOL0     N43660  10.168   4.397   5.160 -0.1078 -0.4732 -0.2595
  317MOL0     C43661  10.081   4.845   5.607  0.0770 -0.1933  0.1217
  317MOL0     C43662  10.029   4.786   5.716 -0.1184  0.4482  0.2775
  317MOL0     C43663   9.785   4.778   6.110  0.1701 -0.2404 -0.0367
  317MOL0     C43664   9.672   4.845   6.163  0.0261  0.1251 -0.4346
  317MOL0     C43665   9.613   4.806   6.287  0.5053  0.0660 -0.1179
  317MOL0     C43666   9.663   4.696   6.355  0.2803 -0.4142 -0.8132
  317MOL0     O43667   9.605   4.656   6.477 -0.0896 -0.0030 -0.4778
  317MOL0     C43668   9.471   4.696   6.494  0.1003  0.3086 -0.1971
  317MOL0     C43669   9.418   4.621   6.616  0.0821 -0.7901 -0.4740
  317MOL0     C43670   9.281   4.688   6.652 -0.1993  0.7579  0.4316
  317MOL0     C43671   9.224   4.620   6.776  0.0866 -0.2322 -0.6588
  317MOL0     C43672   9.088   4.678   6.794  0.3337 -0.1601  0.8469
  317MOL0     C43673   8.981   4.736   6.801 -0.9382 -0.2020  0.3206
  317MOL0     C43674   9.776   4.634   6.316 -0.8841  0.3551  1.4559
  317MOL0     C43675   9.841   4.670   6.192  0.2291  0.3028  0.6214
  317MOL0     C43676   9.964   4.581   6.144 -0.3590  0.4671 -0.0272
  317MOL0     H43677  10.054   5.065   5.927 -1.8534 -1.8016  1.9229
  317MOL0     H43678  10.150   5.150   5.743  0.6146 -0.6384 -0.4460
  317MOL0     H43679  10.331   5.102   5.586 -1.1352 -0.1406  1.3493
  317MOL0     H43680  10.214   5.231   5.542 -2.9414 -1.0682 -0.1780
  317MOL0     H43681  10.302   5.161   5.289 -1.6063 -0.7022  1.5653
  317MOL0     H43682  10.416   5.244   5.399  2.7284 -1.3153  0.8367
  317MOL0     H43683  10.554   5.073   5.378 -0.4792  1.5918  2.3484
  317MOL0     H43684  10.435   4.968   5.454  0.3608 -0.6525 -0.2473
  317MOL0     H43685  10.481   5.021   5.155  0.6332 -1.3767 -1.0203
  317MOL0     H43686  10.514   4.876   5.253 -1.8111 -0.3474  0.8751
  317MOL0     H43687  10.293   4.866   5.107  2.4207  1.5283 -1.3924
  317MOL0     H43688  10.229   4.974   5.225  1.2541  1.9293 -0.8543
  317MOL0     H43689  10.340   4.705   5.283 -1.3291 -1.0357  2.4917
  317MOL0     H43690  10.267   4.811   5.406 -5.2176 -1.1395  0.6897
  317MOL0     H43691  10.114   4.710   5.149  1.0944 -0.1441 -0.3431
  317MOL0     H43692  10.047   4.798   5.294 -0.4296 -0.9221  1.4860
  317MOL0     H43693  10.079   4.594   5.422 -1.1602 -5.3577  0.0404
  317MOL0     H43694   9.982   4.566   5.282 -1.9537  1.6970  3.7664
  317MOL0     H43695  10.290   4.458   5.464 -0.7253  1.3024 -0.3048
  317MOL0     H43696  10.473   4.298   5.455 -0.2675  3.2838 -1.9262
  317MOL0     H43697  10.523   4.262   5.293  0.3522 -0.3905  0.2303
  317MOL0     H43698  10.508   4.041   5.418  0.1783 -1.0396 -1.0280
  317MOL0     H43699  10.330   4.076   5.447 -1.5645  1.1894 -2.5745
  317MOL0     H43700  10.379   3.930   5.252  2.5370 -0.7360  1.4634
  317MOL0     H43701  10.295   4.075   5.200  0.1728 -0.9471 -1.4412
  317MOL0     H43702  10.461   3.980   5.053  0.0457 -1.2262  1.4252
  317MOL0     H43703  10.523   4.150   5.102  5.1082 -1.1388 -0.8394
  317MOL0     H43704  10.843   3.914   5.226 -1.6734  1.0372  0.6529
  317MOL0     H43705  11.024   3.766   5.287 -1.4195  1.7472 -1.9731
  317MOL0     H43706  11.042   3.653   5.156  0.7454  0.1333  0.6859
  317MOL0     H43707  10.992   3.582   5.297 -3.2612 -1.9120 -0.0420
  317MOL0     H43708  10.810   3.191   5.301  0.5079  2.0881  0.2490
  317MOL0     H43709  10.891   2.956   5.244 -1.6752  1.4484  0.9053
  317MOL0     H43710  11.224   2.892   5.187  0.4079 -1.0789  0.4009
  317MOL0     H43711  11.083   2.789   5.208  2.2394 -0.1340  3.3296
  317MOL0     H43712  11.300   2.659   5.132  2.2707  0.7268 -1.8779
  317MOL0     H43713  11.167   2.638   5.027  0.4133 -0.4718  0.1433
  317MOL0     H43714  11.299   2.749   4.854  0.9935 -0.5874 -0.8468
  317MOL0     H43715  11.424   2.696   4.960  0.3190  0.8098 -0.5127
  317MOL0     H43716  11.420   2.910   5.094 -0.5381 -0.9613 -0.4489
  317MOL0     H43717  11.324   2.975   4.959 -0.3431  0.0055  0.1264
  317MOL0     H43718  11.590   2.863   4.942 -1.3919 -0.7590  0.2160
  317MOL0     H43719  11.522   2.959   4.812  0.1095 -1.3722 -0.2331
  317MOL0     H43720  11.669   3.104   4.918 -0.0138 -0.4600 -1.5908
  317MOL0     H43721  11.611   3.074   5.086 -0.0115 -2.1375 -0.0674
  317MOL0     H43722  11.408   3.185   5.058 -0.9746 -4.4707 -2.4224
  317MOL0     H43723  11.422   3.192   4.886 -2.2856 -1.7016 -0.0338
  317MOL0     H43724  11.490   3.414   4.972  0.6395  1.9535  1.6024
  317MOL0     H43725  11.650   3.337   4.959  1.3590 -0.5599  1.9848
  317MOL0     H43726  11.166   3.139   4.951  1.2427  0.9691  1.5962
  317MOL0     H43727  11.080   3.355   5.039  1.9423 -0.9936  1.5506
  317MOL0     H43728  10.545   3.545   5.089  1.2965 -0.8568 -4.0290
  317MOL0     H43729  10.463   3.778   5.109  0.3778  0.8738  0.8996
  317MOL0     H43730  10.100   4.785   5.518  3.3244 -0.3080  0.7503
  317MOL0     H43731   9.984   4.688   5.705  1.1862 -0.0969 -0.2958
  317MOL0     H43732   9.633   4.925   6.102  1.3279  0.0654 -1.3747
  317MOL0     H43733   9.528   4.868   6.314 -0.5437 -0.2603 -2.4275
  317MOL0     H43734   9.470   4.805   6.506 -0.1303  0.4709 -1.5401
  317MOL0     H43735   9.412   4.675   6.404  3.1597  2.3236 -2.8636
  317MOL0     H43736   9.481   4.643   6.703 -2.5576  1.9997  0.9096
  317MOL0     H43737   9.414   4.513   6.599 -0.0071 -0.6063 -1.6972
  317MOL0     H43738   9.297   4.796   6.665 -1.3252  1.2555 -1.7933
  317MOL0     H43739   9.213   4.673   6.567  0.3903  0.6618 -0.0279
  317MOL0     H43740   9.288   4.645   6.861 -2.0157 -1.7772  1.5123
  317MOL0     H43741   9.230   4.514   6.748 -2.5157 -0.4533 -0.5796
  317MOL0     H43742   8.889   4.790   6.801 -1.2294 -0.6854 -0.0260
  317MOL0     H43743   9.822   4.555   6.373  0.6057 -1.1648 -1.6233
  317MOL0     H43744   9.951   4.536   6.045  3.2206  0.4759 -0.6379
  317MOL0     H43745  10.050   4.647   6.134 -0.6816  0.6504 -1.9208
  317MOL0     H43746   9.985   4.499   6.213  0.0579 -0.5980 -1.3709
  318MOL0     O43747   7.430   6.582   5.723  0.4751 -0.0036  0.6630
  318MOL0     C43748   7.526   6.617   5.655  0.4769  0.2390  0.2390
  318MOL0     O43749   7.535   6.580   5.522 -0.4774  0.1514  0.4945
  318MOL0     C43750   7.442   6.508   5.445  0.2120  0.4353  0.3012
  318MOL0     C43751   7.303   6.508   5.464 -0.3912  0.1815  0.5477
  318MOL0     C43752   7.226   6.432   5.380  0.0629  0.3278 -0.3202
  318MOL0     C43753   7.285   6.352   5.279 -0.5977 -0.3912 -0.6083
  318MOL0     O43754   7.195   6.275   5.209 -0.5510  0.3696 -0.7296
  318MOL0     C43755   7.231   6.191   5.099  0.3007  0.3375  0.2121
  318MOL0     C43756   7.093   6.112   5.059  0.5728 -0.2135  0.2829
  318MOL0     C43757   6.989   6.211   5.010 -0.2292 -0.4945  0.1924
  318MOL0     C43758   7.028   6.255   4.870  1.3050 -0.1361 -0.0315
  318MOL0     C43759   6.920   6.358   4.820 -0.2509 -0.6108 -0.9825
  318MOL0     C43760   6.942   6.374   4.664 -0.7101  0.5577 -0.2108
  318MOL0     C43761   6.849   6.479   4.596 -0.3940  0.7679 -0.2570
  318MOL0     C43762   6.889   6.498   4.453 -0.0694 -0.1061  0.6322
  318MOL0     N43763   7.019   6.561   4.440 -0.0484  0.3674 -0.3358
  318MOL0     C43764   7.140   6.494   4.425  0.7246 -1.1370  0.3923
  318MOL0     C43765   7.234   6.590   4.399  0.3169  0.6516  0.2026
  318MOL0     C43766   7.379   6.568   4.364  0.5912  0.0845  0.9064
  318MOL0     C43767   7.467   6.575   4.490  0.7579 -0.5763  0.3565
  318MOL0     C43768   7.597   6.512   4.466  0.0192  0.4699 -0.4289
  318MOL0     C43769   7.678   6.586   4.350  0.8309 -0.6318  0.1069
  318MOL0     O43770   7.817   6.554   4.356  0.5898  0.6233 -0.4591
  318MOL0     C43771   7.899   6.604   4.459  0.5582  0.7353  0.0396
  318MOL0     C43772   7.871   6.717   4.544 -0.5917 -0.0465  0.1335
  318MOL0     C43773   7.962   6.764   4.642 -0.3209  0.3264 -0.5779
  318MOL0     C43774   7.906   6.870   4.737 -0.1736  0.1189 -0.8135
  318MOL0     C43775   8.095   6.721   4.651 -0.2084 -0.5030  0.7649
  318MOL0     C43776   8.202   6.772   4.736 -0.3263 -0.4749  0.7259
  318MOL0     O43777   8.170   6.797   4.866  0.3386  0.8601 -0.6744
  318MOL0     C43778   8.268   6.793   4.958 -0.4754 -0.3531 -0.5472
  318MOL0     C43779   8.330   6.920   4.982  0.5849 -0.5415 -0.0226
  318MOL0     C43780   8.436   6.926   5.072  0.3753  0.7973  0.2504
  318MOL0     C43781   8.480   6.808   5.141  0.7635 -0.9339  0.0930
  318MOL0     O43782   8.574   6.809   5.244 -0.0691 -0.3648 -0.5667
  318MOL0     C43783   8.681   6.913   5.242 -0.0110  0.3395 -0.2791
  318MOL0     C43784   8.772   6.888   5.369  0.2956  0.3832 -0.4589
  318MOL0     C43785   8.855   6.767   5.358 -0.9497  0.2783 -0.4603
  318MOL0     C43786   8.949   6.769   5.479  0.0790 -0.8541  0.1877
  318MOL0     C43787   9.049   6.657   5.468  0.5449  0.0233  0.5424
  318MOL0     C43788   9.152   6.677   5.583 -0.0454 -0.1550 -0.7116
  318MOL0     C43789   9.250   6.559   5.589 -0.4312 -0.7036  1.0127
  318MOL0     C43790   9.353   6.574   5.477  0.3190 -0.1031 -0.0387
  318MOL0    Cl43791   9.459   6.438   5.472  0.2279  0.3122  0.0810
  318MOL0     C43792   8.408   6.692   5.123 -0.4095 -0.1752 -0.2858
  318MOL0     C43793   8.309   6.682   5.027 -0.4705 -0.1631 -0.1982
  318MOL0     O43794   8.318   6.784   4.682  0.4352 -0.1981  0.1222
  318MOL0     C43795   8.128   6.622   4.562 -0.1815  0.3040 -1.2600
  318MOL0     C43796   8.036   6.559   4.477  0.0281 -1.3258  0.0645
  318MOL0     N43797   7.177   6.709   4.414 -0.2671  0.8247 -0.4514
  318MOL0     N43798   7.048   6.690   4.430  0.0788 -0.2698 -0.7257
  318MOL0     C43799   7.419   6.345   5.254 -0.4311 -0.8839 -1.3607
  318MOL0     C43800   7.498   6.426   5.336 -0.2828 -0.1277  0.1760
  318MOL0     C43801   7.631   6.705   5.707 -0.6439 -0.2186  0.0906
  318MOL0     C43802   7.733   6.741   5.619  0.0672 -0.3201  1.0899
  318MOL0     C43803   7.829   6.830   5.661 -0.6836  0.2136  0.5631
  318MOL0     C43804   7.842   6.892   5.784  0.0170  0.1874 -0.3100
  318MOL0     O43805   7.946   6.974   5.817 -0.1415 -0.3311 -0.5350
  318MOL0     C43806   8.064   6.982   5.737 -0.0541 -0.6510 -1.4682
  318MOL0     C43807   8.041   7.093   5.639 -0.3674  0.1941 -0.0905
  318MOL0     C43808   8.036   7.238   5.699  0.0700  0.0273  0.7259
  318MOL0     C43809   8.002   7.350   5.593 -0.4686  0.7114  0.0969
  318MOL0     C43810   8.061   7.481   5.619  0.2800 -0.4254 -0.4757
  318MOL0     C43811   8.099   7.596   5.636 -0.6476  0.1894  0.1994
  318MOL0     C43812   7.737   6.856   5.876 -0.0180  0.2419 -0.4221
  318MOL0     C43813   7.637   6.758   5.848 -0.8888  0.4596  0.9460
  318MOL0     C43814   7.548   6.710   5.957 -0.9857 -0.7752 -0.1871
  318MOL0     H43815   7.262   6.561   5.549 -0.5953  1.0818 -0.0966
  318MOL0     H43816   7.122   6.420   5.406  0.2475 -1.7935 -0.3697
  318MOL0     H43817   7.303   6.115   5.132 -0.1481  0.4925  1.5916
  318MOL0     H43818   7.267   6.258   5.021  0.1812  0.1995  0.0368
  318MOL0     H43819   7.117   6.048   4.973  2.4188  3.3551 -2.1305
  318MOL0     H43820   7.052   6.048   5.137 -1.2125 -0.0079 -0.4508
  318MOL0     H43821   6.897   6.153   4.995  0.3620 -1.1140 -1.3334
  318MOL0     H43822   6.968   6.287   5.085  0.1938  0.7870 -0.9513
  318MOL0     H43823   7.130   6.291   4.857  1.6319 -0.8353  0.5454
  318MOL0     H43824   7.014   6.166   4.809 -0.8604 -0.6122  1.0583
  318MOL0     H43825   6.939   6.448   4.879 -1.5874 -1.0085  0.0944
  318MOL0     H43826   6.819   6.325   4.842 -0.7001  0.7740 -0.8692
  318MOL0     H43827   7.050   6.379   4.650 -0.0135 -2.1770  2.8337
  318MOL0     H43828   6.915   6.274   4.629 -0.1716 -0.0663  1.0968
  318MOL0     H43829   6.850   6.569   4.658 -3.0546 -0.8476  2.3905
  318MOL0     H43830   6.747   6.442   4.588 -0.5426 -0.2208  3.8383
  318MOL0     H43831   6.886   6.399   4.408  1.0956 -0.4692  1.3041
  318MOL0     H43832   6.813   6.563   4.408 -0.0569  0.8512  1.9165
  318MOL0     H43833   7.136   6.386   4.414 -0.2175 -1.0753  0.0303
  318MOL0     H43834   7.409   6.641   4.288 -1.6089  0.0958 -0.0040
  318MOL0     H43835   7.380   6.466   4.325 -2.8134  0.7609 -1.3118
  318MOL0     H43836   7.477   6.680   4.520  1.6142 -0.4364 -0.3818
  318MOL0     H43837   7.414   6.517   4.566  0.9339  0.1255  1.0323
  318MOL0     H43838   7.644   6.515   4.565 -0.2725 -1.8568 -0.1661
  318MOL0     H43839   7.595   6.404   4.446 -0.6037  0.5458 -0.8042
  318MOL0     H43840   7.638   6.575   4.249  0.0149  1.0298  0.2211
  318MOL0     H43841   7.665   6.693   4.368  2.0278 -0.6088  0.9209
  318MOL0     H43842   7.780   6.775   4.540  1.8943  4.2197 -0.5779
  318MOL0     H43843   7.797   6.881   4.729 -0.1882  0.4726 -0.1437
  318MOL0     H43844   7.944   6.971   4.718 -0.7677  1.3287  3.3899
  318MOL0     H43845   7.928   6.859   4.843  1.1691  2.8364 -0.7430
  318MOL0     H43846   8.301   7.008   4.926  1.9034  1.5224  2.3480
  318MOL0     H43847   8.485   7.020   5.093  2.1120  1.4029 -5.0030
  318MOL0     H43848   8.733   6.933   5.148  3.0626 -0.8600  1.0370
  318MOL0     H43849   8.642   7.013   5.262 -0.7127  0.6776 -2.9689
  318MOL0     H43850   8.852   6.962   5.377  2.4766 -1.6440 -2.1411
  318MOL0     H43851   8.728   6.895   5.469  0.4648  0.9492 -0.4190
  318MOL0     H43852   8.924   6.781   5.274 -0.2302 -0.6393 -0.0420
  318MOL0     H43853   8.807   6.669   5.344  0.2701 -0.4527  0.3337
  318MOL0     H43854   8.889   6.757   5.570 -1.7799  0.8945 -0.7497
  318MOL0     H43855   9.006   6.861   5.493  1.6937 -2.0646  2.0968
  318MOL0     H43856   8.978   6.575   5.481 -1.2459  1.0045 -2.2670
  318MOL0     H43857   9.098   6.651   5.371 -1.0111  3.1705 -0.5720
  318MOL0     H43858   9.105   6.670   5.681  1.4272 -0.1517  0.0243
  318MOL0     H43859   9.213   6.767   5.572 -0.0358 -0.2577 -1.5834
  318MOL0     H43860   9.194   6.467   5.567 -1.8713  0.8219 -2.4008
  318MOL0     H43861   9.295   6.548   5.688  3.8649 -1.8135 -0.8188
  318MOL0     H43862   9.419   6.660   5.488  2.7157 -1.0752 -4.5972
  318MOL0     H43863   9.300   6.579   5.382 -0.3689 -0.0062  0.3401
  318MOL0     H43864   8.440   6.599   5.171  1.2406  0.3078 -0.3863
  318MOL0     H43865   8.263   6.588   4.997  0.0634  0.2390 -2.4310
  318MOL0     H43866   8.226   6.576   4.564 -0.8369 -1.1305  1.1250
  318MOL0     H43867   8.062   6.472   4.419  0.7465 -1.5840  0.7658
  318MOL0     H43868   7.460   6.282   5.176 -0.9920  0.5221 -2.8520
  318MOL0     H43869   7.607   6.419   5.336 -0.3940 -3.1711  0.1641
  318MOL0     H43870   7.722   6.711   5.515  0.5836 -1.0735  1.2479
  318MOL0     H43871   7.893   6.859   5.579 -2.7977 -0.1502 -1.2989
  318MOL0     H43872   8.144   7.005   5.807 -3.5766  1.2931  2.3592
  318MOL0     H43873   8.078   6.888   5.683  1.0742 -0.1402 -2.0861
  318MOL0     H43874   7.952   7.062   5.583  0.8025 -4.2152  0.0905
  318MOL0     H43875   8.131   7.090   5.578 -0.3864 -2.9749 -0.1465
  318MOL0     H43876   7.962   7.252   5.777 -1.6801  3.3500 -1.2851
  318MOL0     H43877   8.136   7.260   5.737 -0.0332 -0.2251  1.1449
  318MOL0     H43878   7.897   7.357   5.565 -0.4585 -4.7688 -2.5773
  318MOL0     H43879   8.039   7.313   5.497 -2.4889  0.4133 -0.6013
  318MOL0     H43880   8.141   7.693   5.652  2.1424 -1.1050  1.2441
  318MOL0     H43881   7.751   6.894   5.976 -0.8061 -3.2674  1.1815
  318MOL0     H43882   7.584   6.730   6.058  0.3403 -3.3526 -0.0813
  318MOL0     H43883   7.449   6.752   5.934 -0.6664 -0.7654 -1.6188
  318MOL0     H43884   7.540   6.601   5.958  0.0868 -0.8797 -0.7696
  319MOL0     O43885   0.625  10.161  10.856  0.6492  0.5867 -0.2705
  319MOL0     C43886   0.715  10.134  10.943  0.1141  0.5529  0.5586
  319MOL0     O43887   0.693  10.111  11.078 -0.1400 -0.0816 -0.4287
  319MOL0     C43888   0.568  10.087  11.104  0.2049 -0.3766  0.2171
  319MOL0     C43889   0.483  10.184  11.157 -0.2982 -0.4490  0.0317
  319MOL0     C43890   0.349  10.167  11.178 -0.1956  0.0807 -0.5295
  319MOL0     C43891   0.289  10.046  11.164  0.1624 -0.2492 -0.5805
  319MOL0     O43892   0.160  10.018  11.197  0.0529 -0.0028  0.0251
  319MOL0     C43893   0.067  10.122  11.230 -0.6678  0.3870  0.4201
  319MOL0     C43894  -0.060  10.067  11.277  0.5352  0.9478 -0.0761
  319MOL0     C43895  -0.151  10.173  11.324  0.1114  0.1194 -0.2352
  319MOL0     C43896  -0.280  10.123  11.399 -0.5811 -0.0688 -0.6559
  319MOL0     C43897  -0.365  10.240  11.452 -0.3575  0.4490  0.1581
  319MOL0     C43898  -0.423  10.339  11.345 -0.6282  0.0355  0.0495
  319MOL0     C43899  -0.510  10.281  11.240 -0.6399  0.2490  0.0592
  319MOL0     C43900  -0.600  10.383  11.169 -0.5242  0.6089  0.2019
  319MOL0     N43901  -0.521  10.483  11.082  0.5953 -0.0608 -0.0620
  319MOL0     C43902  -0.471  10.453  10.960  0.2378  0.4853  0.7562
  319MOL0     C43903  -0.416  10.566  10.918 -0.2681 -0.0729 -0.0907
  319MOL0     C43904  -0.356  10.595  10.779  0.2086  0.2148 -0.9490
  319MOL0     C43905  -0.208  10.556  10.787  0.5783 -0.7092  0.0159
  319MOL0     C43906  -0.125  10.677  10.846 -0.0833 -0.0445 -0.9162
  319MOL0     C43907   0.027  10.650  10.854 -0.2931 -0.5082 -0.3271
  319MOL0     O43908   0.054  10.580  10.972 -0.3464 -0.3810  0.0588
  319MOL0     C43909   0.189  10.591  11.000  0.4597 -0.3914 -0.2589
  319MOL0     C43910   0.217  10.698  11.087  0.3250  0.2104  0.3248
  319MOL0     C43911   0.352  10.711  11.139 -0.0860  0.7104  0.3172
  319MOL0     C43912   0.375  10.825  11.231  0.9158  0.3973 -0.4088
  319MOL0     C43913   0.449  10.619  11.104  0.1077  0.0751 -0.0152
  319MOL0     C43914   0.585  10.617  11.152 -0.5608 -0.6834  0.9920
  319MOL0     O43915   0.673  10.583  11.050 -0.0208 -1.2121  0.0160
  319MOL0     C43916   0.805  10.564  11.069  0.4277  0.0824  0.1961
  319MOL0     C43917   0.871  10.492  10.961 -0.0597  0.5603  0.2536
  319MOL0     C43918   1.016  10.483  10.956  0.7709 -0.0902 -0.4022
  319MOL0     C43919   1.084  10.532  11.068 -0.3487 -1.0588  0.3157
  319MOL0     O43920   1.222  10.516  11.058  0.8151  0.2348  0.1488
  319MOL0     C43921   1.315  10.579  11.152 -0.0341 -0.8686 -0.2715
  319MOL0     C43922   1.356  10.482  11.263 -0.2490  0.6181  0.0148
  319MOL0     C43923   1.405  10.350  11.207 -0.2312  0.3196  0.3258
  319MOL0     C43924   1.476  10.269  11.314 -0.5497  0.5596  0.1514
  319MOL0     C43925   1.512  10.127  11.257 -0.0647 -0.8933  0.3973
  319MOL0     C43926   1.602  10.049  11.356  1.0750 -0.3047  0.1922
  319MOL0     C43927   1.676   9.945  11.283 -0.5196  1.0458 -0.2634
  319MOL0     C43928   1.579   9.824  11.257  0.2120 -0.3252 -0.3856
  319MOL0    Cl43929   1.659   9.698  11.148 -0.1648 -0.3634 -0.5223
  319MOL0     C43930   1.021  10.599  11.176 -0.3393  0.3350 -0.0687
  319MOL0     C43931   0.886  10.604  11.176  0.3835  0.6473  0.7271
  319MOL0     O43932   0.613  10.645  11.267 -0.6695 -0.0010 -0.1010
  319MOL0     C43933   0.418  10.520  11.004 -0.2085  0.1478  0.0446
  319MOL0     C43934   0.285  10.501  10.959  0.1122  0.1323  0.1003
  319MOL0     N43935  -0.420  10.656  11.020  0.4199 -0.3334 -0.0156
  319MOL0     N43936  -0.487  10.612  11.117  0.5906 -0.0245 -0.4008
  319MOL0     C43937   0.367   9.952  11.095  0.3551  0.1632  0.0706
  319MOL0     C43938   0.501   9.968  11.065  0.8727 -0.3462  0.1503
  319MOL0     C43939   0.859  10.142  10.897  0.4047 -0.0705 -0.6925
  319MOL0     C43940   0.878  10.124  10.761 -0.0173  0.7107 -0.3304
  319MOL0     C43941   1.004  10.131  10.704  0.2432  0.4616  0.1233
  319MOL0     C43942   1.118  10.149  10.777  0.1722 -0.0635  0.1856
  319MOL0     O43943   1.239  10.161  10.718 -0.3115 -0.7264 -0.1703
  319MOL0     C43944   1.366  10.167  10.793  0.4520  0.8470 -0.2559
  319MOL0     C43945   1.403  10.038  10.875  0.1081 -0.0890  0.3391
  319MOL0     C43946   1.366   9.911  10.799 -0.4802  0.3718  0.3847
  319MOL0     C43947   1.445   9.799  10.859  0.3564 -0.1040  0.4659
  319MOL0     C43948   1.414   9.685  10.772  0.4854 -0.2833  0.0675
  319MOL0     C43949   1.379   9.587  10.716  0.7044  0.0786 -0.1444
  319MOL0     C43950   1.104  10.182  10.918  0.2002 -1.0699 -0.3621
  319MOL0     C43951   0.973  10.175  10.981 -0.2100  0.2726 -0.5524
  319MOL0     C43952   0.963  10.191  11.126  0.0587  0.5655 -0.0667
  319MOL0     H43953   0.532  10.277  11.183 -0.5137  0.2758 -1.9493
  319MOL0     H43954   0.293  10.260  11.190  2.4797  1.7057  0.3081
  319MOL0     H43955   0.040  10.177  11.139 -0.6640 -0.8808 -0.3749
  319MOL0     H43956   0.115  10.190  11.302 -2.4691  0.1826  1.8703
  319MOL0     H43957  -0.114  10.011  11.199  0.0608  0.2875  0.7066
  319MOL0     H43958  -0.049  10.002  11.365  1.6620  1.5219  0.2251
  319MOL0     H43959  -0.097  10.235  11.396  0.7197 -2.5300  1.7371
  319MOL0     H43960  -0.175  10.232  11.235  3.3143  1.1667 -0.5522
  319MOL0     H43961  -0.336  10.068  11.322  0.3740 -1.7784 -0.1810
  319MOL0     H43962  -0.252  10.055  11.481 -1.9006 -1.6079 -1.4297
  319MOL0     H43963  -0.286  10.288  11.510  0.6251 -3.1609  2.1008
  319MOL0     H43964  -0.439  10.204  11.525  0.6087 -0.8959  0.5168
  319MOL0     H43965  -0.468  10.426  11.394 -3.7990 -1.5822  0.2962
  319MOL0     H43966  -0.339  10.389  11.296  3.6259 -2.1530  4.3465
  319MOL0     H43967  -0.568  10.202  11.288 -1.3189 -0.8070 -2.3618
  319MOL0     H43968  -0.434  10.237  11.176  1.6872  2.6271  0.9975
  319MOL0     H43969  -0.660  10.322  11.101  2.4172  0.6674 -2.7235
  319MOL0     H43970  -0.651  10.434  11.251  1.1366  2.2825  0.2786
  319MOL0     H43971  -0.458  10.367  10.895 -1.1734  0.4538  0.4883
  319MOL0     H43972  -0.388  10.692  10.740  1.6485  0.3395 -1.8891
  319MOL0     H43973  -0.391  10.518  10.711  1.9546 -1.4031 -0.1132
  319MOL0     H43974  -0.217  10.467  10.851 -0.7186  0.6234  1.7687
  319MOL0     H43975  -0.166  10.533  10.688 -1.2578 -2.4023 -0.4306
  319MOL0     H43976  -0.134  10.770  10.788  1.4925  0.7291  0.0202
  319MOL0     H43977  -0.165  10.716  10.940  0.0483 -0.3019 -0.7525
  319MOL0     H43978   0.061  10.590  10.769  1.1855  0.9220 -0.7972
  319MOL0     H43979   0.082  10.744  10.843  0.4147 -0.8820  0.0209
  319MOL0     H43980   0.140  10.770  11.113 -0.1822 -0.9027  2.0139
  319MOL0     H43981   0.351  10.788  11.331  0.7882 -0.8440 -0.8808
  319MOL0     H43982   0.302  10.903  11.209 -2.7656 -2.9821 -1.3557
  319MOL0     H43983   0.476  10.867  11.243  1.1229  0.4454 -2.1463
  319MOL0     H43984   0.817  10.458  10.873  3.5276 -4.6309 -0.4044
  319MOL0     H43985   1.070  10.432  10.876  1.8899 -1.0559  0.9232
  319MOL0     H43986   1.402  10.600  11.089 -1.3895  1.0578 -1.6021
  319MOL0     H43987   1.294  10.675  11.201  2.0015 -0.8580  0.6823
  319MOL0     H43988   1.444  10.533  11.303 -1.6802  1.5488  2.2000
  319MOL0     H43989   1.275  10.460  11.334 -1.0449  1.9584 -0.4490
  319MOL0     H43990   1.477  10.360  11.125 -1.0009  3.4037 -0.0870
  319MOL0     H43991   1.316  10.295  11.176  1.2519 -0.9447 -1.9711
  319MOL0     H43992   1.406  10.251  11.397  0.8567  0.0594  1.2622
  319MOL0     H43993   1.572  10.309  11.348  0.7708 -0.9621 -1.6052
  319MOL0     H43994   1.415  10.086  11.227  0.4263 -1.4467 -0.4607
  319MOL0     H43995   1.575  10.150  11.171 -0.5038  1.0295  0.5580
  319MOL0     H43996   1.543  10.021  11.444  0.5895  0.2851  0.0622
  319MOL0     H43997   1.682  10.109  11.401  0.3076 -0.7551  2.3004
  319MOL0     H43998   1.755   9.902  11.345 -2.5090 -1.5788  0.6646
  319MOL0     H43999   1.719   9.974  11.186  0.1014 -1.5794 -0.8539
  319MOL0     H44000   1.481   9.843  11.212  0.2838 -0.7150 -0.7120
  319MOL0     H44001   1.558   9.775  11.352 -0.8196  1.6601  0.4693
  319MOL0     H44002   1.076  10.637  11.262 -1.2000  1.3157  0.0671
  319MOL0     H44003   0.834  10.658  11.254 -2.9105  1.4619 -1.7974
  319MOL0     H44004   0.494  10.449  10.973  0.6512  0.7694  0.6711
  319MOL0     H44005   0.256  10.416  10.898  1.1476 -1.8618  2.2198
  319MOL0     H44006   0.320   9.857  11.068 -0.7324  0.1837  1.7487
  319MOL0     H44007   0.551   9.888  11.012 -1.4071 -1.3999 -0.5349
  319MOL0     H44008   0.792  10.102  10.698  1.1901 -0.0246 -1.7671
  319MOL0     H44009   1.008  10.104  10.599  0.1878  2.7447 -0.5172
  319MOL0     H44010   1.447  10.184  10.721  0.6807 -1.9618 -0.7902
  319MOL0     H44011   1.361  10.250  10.864  1.1296 -1.4680  2.7091
  319MOL0     H44012   1.349  10.040  10.970 -2.3508  1.1173 -0.9873
  319MOL0     H44013   1.510  10.044  10.900 -0.1860 -0.9441  1.9247
  319MOL0     H44014   1.259   9.900  10.822 -0.5753  0.6722  0.0865
  319MOL0     H44015   1.394   9.915  10.694  3.5156 -2.3195  1.1240
  319MOL0     H44016   1.430   9.780  10.966  0.0504  0.1073  0.4604
  319MOL0     H44017   1.551   9.819  10.838 -0.2534  0.3701 -2.4977
  319MOL0     H44018   1.360   9.500  10.655 -0.3988 -0.6605  1.2046
  319MOL0     H44019   1.186  10.208  10.984  0.7410  1.5538 -1.9308
  319MOL0     H44020   0.886  10.261  11.159 -2.4326 -0.4730 -3.1415
  319MOL0     H44021   0.947  10.088  11.160  3.2897 -1.5646 -4.0390
  319MOL0     H44022   1.052  10.232  11.175 -0.7004  0.5233  1.3929
  320MOL0     O44023   2.176   0.027   0.854 -0.0554 -0.4958 -0.5357
  320MOL0     C44024   2.266  -0.060   0.840 -0.0542  0.0202 -0.3306
  320MOL0     O44025   2.244  -0.181   0.784  0.1506  0.4616  0.8517
  320MOL0     C44026   2.130  -0.205   0.715  0.1013  0.8599 -0.0019
  320MOL0     C44027   2.084  -0.137   0.601 -0.1321 -0.4222  0.3112
  320MOL0     C44028   1.962  -0.162   0.538 -1.1036  0.1319 -0.5063
  320MOL0     C44029   1.874  -0.248   0.606 -0.0152  0.3993  0.2304
  320MOL0     O44030   1.742  -0.257   0.559 -0.1463 -0.2996 -0.5207
  320MOL0     C44031   1.661  -0.136   0.568 -0.2118  1.6912  0.2320
  320MOL0     C44032   1.520  -0.154   0.501  1.5109 -0.2181  0.8934
  320MOL0     C44033   1.423  -0.041   0.574 -0.7741 -0.8619  1.0987
  320MOL0     C44034   1.300  -0.022   0.486  0.2332  0.2573  0.6249
  320MOL0     C44035   1.198   0.070   0.548 -0.6112  0.4195  0.4418
  320MOL0     C44036   1.083   0.113   0.458 -0.3966  0.3631 -0.6160
  320MOL0     C44037   1.001   0.211   0.535  0.0491 -0.4496 -0.6705
  320MOL0     C44038   0.879   0.254   0.472  0.0138  0.2594  0.5742
  320MOL0     N44039   0.814   0.380   0.529 -0.2529  1.1004  0.2795
  320MOL0     C44040   0.704   0.378   0.613 -0.5109  0.5557 -0.0977
  320MOL0     C44041   0.701   0.509   0.653 -0.0091  0.1821  0.2678
  320MOL0     C44042   0.601   0.566   0.756 -0.3515  0.3999 -0.0844
  320MOL0     C44043   0.674   0.670   0.841  0.2307  0.1955  0.2105
  320MOL0     C44044   0.586   0.683   0.971 -0.1642 -0.1204  1.0129
  320MOL0     C44045   0.601   0.803   1.056  0.3733 -0.5991  0.7099
  320MOL0     O44046   0.715   0.777   1.135  0.2684 -0.5415 -0.2068
  320MOL0     C44047   0.774   0.890   1.205 -0.3055  0.1543  1.2593
  320MOL0     C44048   0.721   1.021   1.198 -0.4310  0.9475 -0.5536
  320MOL0     C44049   0.782   1.128   1.265  0.3640 -0.1278 -1.1548
  320MOL0     C44050   0.699   1.256   1.264  0.2251  0.4956 -0.4544
  320MOL0     C44051   0.907   1.113   1.328 -0.1036 -0.0971 -0.1664
  320MOL0     C44052   0.979   1.219   1.398 -0.4433 -0.5707 -0.0109
  320MOL0     O44053   1.109   1.194   1.426  0.4126  0.1590 -0.0474
  320MOL0     C44054   1.196   1.290   1.455  0.2529 -1.1920 -0.8524
  320MOL0     C44055   1.285   1.316   1.352 -0.0694 -0.7143  0.0207
  320MOL0     C44056   1.398   1.403   1.381 -0.7893  0.1180  0.8328
  320MOL0     C44057   1.423   1.450   1.503 -0.0760 -0.2968 -0.6971
  320MOL0     O44058   1.518   1.547   1.510  0.1877  0.2047 -0.1401
  320MOL0     C44059   1.550   1.608   1.633 -0.0909 -0.6250 -0.0794
  320MOL0     C44060   1.653   1.718   1.589 -0.0204 -0.6592  0.3798
  320MOL0     C44061   1.594   1.844   1.517 -0.3787  0.3868 -0.0871
  320MOL0     C44062   1.659   1.883   1.386 -0.1114 -0.3604  0.1380
  320MOL0     C44063   1.577   1.992   1.310 -0.1266  0.2409 -0.4124
  320MOL0     C44064   1.632   2.024   1.173  0.0683  0.2038 -0.5017
  320MOL0     C44065   1.784   2.037   1.161  0.0720 -0.0594  0.2914
  320MOL0     C44066   1.837   2.157   1.241  0.4746 -0.1955  0.0421
  320MOL0    Cl44067   2.011   2.179   1.196  0.2932 -0.0087 -0.0562
  320MOL0     C44068   1.325   1.429   1.606 -0.1377 -0.1871  0.1910
  320MOL0     C44069   1.215   1.350   1.586 -0.3600  0.6209  0.0168
  320MOL0     O44070   0.922   1.317   1.433  0.8153  0.3831 -0.5304
  320MOL0     C44071   0.967   0.982   1.325  0.6672 -0.1536  0.3385
  320MOL0     C44072   0.891   0.876   1.261  0.2483 -0.7102 -0.7141
  320MOL0     N44073   0.798   0.583   0.583 -0.0811  0.1860  0.7165
  320MOL0     N44074   0.858   0.503   0.504 -0.5829 -0.4375  0.2151
  320MOL0     C44075   1.918  -0.320   0.719  0.0809 -0.0306  0.0178
  320MOL0     C44076   2.042  -0.295   0.778 -0.9412 -0.1946 -0.5197
  320MOL0     C44077   2.409  -0.028   0.889 -1.1823 -1.2382  0.0473
  320MOL0     C44078   2.431   0.079   0.983 -0.2272  0.8007 -0.0480
  320MOL0     C44079   2.558   0.120   1.014  0.0187 -0.0039  0.7361
  320MOL0     C44080   2.669   0.063   0.947  1.0547  0.9802 -0.1353
  320MOL0     O44081   2.784   0.136   0.971  0.2288 -0.2184 -0.0391
  320MOL0     C44082   2.890   0.119   0.879 -0.1917  0.0381  0.1485
  320MOL0     C44083   2.985   0.229   0.907 -0.2061 -0.0127  0.1507
  320MOL0     C44084   2.918   0.361   0.879 -0.1582 -0.5556 -0.2811
  320MOL0     C44085   3.016   0.474   0.899  0.9057 -0.3808 -0.6374
  320MOL0     C44086   3.115   0.478   0.787  0.1032 -0.5476  0.2885
  320MOL0     C44087   3.183   0.487   0.684 -0.1458 -0.2927 -0.2321
  320MOL0     C44088   2.653  -0.053   0.868 -0.6713 -0.6392  0.6026
  320MOL0     C44089   2.527  -0.099   0.836 -0.2481  0.8180 -0.6138
  320MOL0     C44090   2.536  -0.224   0.747 -0.8847 -0.6932 -0.3248
  320MOL0     H44091   2.135  -0.052   0.557  0.8926 -2.3396 -2.5255
  320MOL0     H44092   1.925  -0.097   0.459  3.2681  2.3413 -1.0086
  320MOL0     H44093   1.696  -0.050   0.510  0.9000  0.6567 -0.6784
  320MOL0     H44094   1.652  -0.116   0.675 -1.0065 -2.4301  1.1270
  320MOL0     H44095   1.512  -0.145   0.393 -3.8106  0.5445  1.0900
  320MOL0     H44096   1.474  -0.251   0.526 -1.3355  0.6523 -0.5640
  320MOL0     H44097   1.399  -0.070   0.677 -1.4728 -0.7291  0.9749
  320MOL0     H44098   1.471   0.058   0.573  2.8505 -2.4589  0.3895
  320MOL0     H44099   1.320   0.021   0.387  0.5649 -0.5067  0.3540
  320MOL0     H44100   1.257  -0.122   0.480  1.0299 -0.0938  0.6146
  320MOL0     H44101   1.244   0.165   0.573  0.5519  0.2289 -0.8684
  320MOL0     H44102   1.163   0.025   0.642 -1.1752 -0.1587 -0.0283
  320MOL0     H44103   1.112   0.152   0.360 -2.0908  2.4519 -0.3509
  320MOL0     H44104   1.033   0.020   0.428  1.0499 -1.0349  1.0681
  320MOL0     H44105   1.051   0.305   0.559  1.1809 -0.9741 -0.9139
  320MOL0     H44106   0.976   0.170   0.633 -2.6869  2.6287  0.0891
  320MOL0     H44107   0.913   0.261   0.368  1.6256 -4.6905  0.5148
  320MOL0     H44108   0.803   0.176   0.470 -1.6449  1.8166 -0.5961
  320MOL0     H44109   0.635   0.297   0.634  1.3013 -1.5447 -1.7358
  320MOL0     H44110   0.567   0.485   0.821  0.2504  0.8764  0.8537
  320MOL0     H44111   0.513   0.605   0.703  1.9167  1.2466 -3.5349
  320MOL0     H44112   0.778   0.648   0.867  0.0627 -0.9022  0.0178
  320MOL0     H44113   0.684   0.757   0.776  0.9923  1.3622  1.8401
  320MOL0     H44114   0.479   0.664   0.952  0.2153 -1.0909 -0.3070
  320MOL0     H44115   0.615   0.594   1.026 -2.5587 -0.9216  1.0932
  320MOL0     H44116   0.613   0.893   0.996 -0.7861 -0.8197  0.1175
  320MOL0     H44117   0.512   0.817   1.119 -2.8178 -0.5066 -3.4126
  320MOL0     H44118   0.629   1.049   1.147 -0.0494  2.8096 -0.2843
  320MOL0     H44119   0.664   1.279   1.365  1.1376 -1.1404  0.2821
  320MOL0     H44120   0.610   1.259   1.200  1.2475  0.5529 -1.9160
  320MOL0     H44121   0.755   1.347   1.239  0.6129  0.4771  0.3343
  320MOL0     H44122   1.275   1.255   1.263 -0.2926 -2.8651  1.4380
  320MOL0     H44123   1.468   1.430   1.303  1.5260 -2.1029  1.9619
  320MOL0     H44124   1.470   1.661   1.686 -0.8579 -1.2601 -0.5923
  320MOL0     H44125   1.601   1.546   1.707  2.4341  1.1164 -0.2377
  320MOL0     H44126   1.704   1.755   1.678 -1.7573 -0.2420  1.2452
  320MOL0     H44127   1.737   1.672   1.535  1.1781 -1.1008  2.5030
  320MOL0     H44128   1.590   1.930   1.584  1.0725  1.4830 -1.3294
  320MOL0     H44129   1.493   1.811   1.491 -1.7099  2.3795  2.2038
  320MOL0     H44130   1.663   1.790   1.330  2.7814  0.8085 -1.8345
  320MOL0     H44131   1.762   1.916   1.404 -1.3145  4.5218 -0.4376
  320MOL0     H44132   1.471   1.970   1.296 -1.2823  3.1159  2.6523
  320MOL0     H44133   1.583   2.089   1.359  1.4583  0.4342 -0.9472
  320MOL0     H44134   1.578   2.114   1.144 -0.2296  0.2905  0.2808
  320MOL0     H44135   1.604   1.950   1.097 -1.5548 -0.7152  0.9266
  320MOL0     H44136   1.806   2.052   1.055  0.3058 -0.8789  0.2193
  320MOL0     H44137   1.836   1.944   1.183  2.4998  1.1220 -0.1245
  320MOL0     H44138   1.833   2.128   1.346  0.8665  1.7307  0.6405
  320MOL0     H44139   1.772   2.243   1.219 -0.7186 -1.7190 -2.8886
  320MOL0     H44140   1.335   1.482   1.700 -0.9011  3.2849 -1.5094
  320MOL0     H44141   1.143   1.341   1.667  0.7359  2.1781  1.2107
  320MOL0     H44142   1.070   0.970   1.359  0.5630 -0.5172  0.5393
  320MOL0     H44143   0.935   0.777   1.265  1.3945 -0.2005 -0.1439
  320MOL0     H44144   1.846  -0.375   0.778  0.3510  1.8303  2.1961
  320MOL0     H44145   2.059  -0.342   0.875 -0.1456  1.9298  0.4449
  320MOL0     H44146   2.347   0.130   1.031  1.8441  3.0421  1.4352
  320MOL0     H44147   2.572   0.201   1.086 -2.3624  0.1034  1.1718
  320MOL0     H44148   2.932   0.022   0.906 -1.2246 -0.8177 -1.1978
  320MOL0     H44149   2.854   0.108   0.777 -1.3367 -2.0612  0.7039
  320MOL0     H44150   3.064   0.200   0.837  0.8602 -1.0307  1.7015
  320MOL0     H44151   3.021   0.222   1.011  0.2323  0.2243  0.0183
  320MOL0     H44152   2.875   0.364   0.779  2.4760 -0.0271 -1.4853
  320MOL0     H44153   2.835   0.372   0.949  0.5932 -0.9157  0.6856
  320MOL0     H44154   3.063   0.453   0.995  1.6898  0.6785 -0.7775
  320MOL0     H44155   2.959   0.567   0.908  0.6722 -0.7237  2.4228
  320MOL0     H44156   3.250   0.483   0.601 -0.1108 -0.4388 -0.1973
  320MOL0     H44157   2.748  -0.085   0.826 -2.3246 -1.9785 -2.4668
  320MOL0     H44158   2.616  -0.206   0.675  0.7567  0.3537  1.6557
  320MOL0     H44159   2.561  -0.309   0.812  0.2532  0.0681  0.2624
  320MOL0     H44160   2.442  -0.247   0.696 -1.9827  0.5876  1.0064
  321MOL0     O44161  10.806   6.491  10.131 -0.0749 -0.2339 -0.7244
  321MOL0     C44162  10.866   6.599  10.120 -0.9759 -0.2659 -0.7714
  321MOL0     O44163  10.999   6.621  10.155 -0.0441 -0.1361 -0.0844
  321MOL0     C44164  11.091   6.528  10.168  0.0559  0.3891  0.3159
  321MOL0     C44165  11.229   6.568  10.190  0.5668  0.0992 -0.3939
  321MOL0     C44166  11.334   6.484  10.199  0.3519  0.9204  0.0878
  321MOL0     C44167  11.310   6.344  10.207  0.1745  0.1380 -0.3957
  321MOL0     O44168  11.412   6.254  10.225  0.3420  0.7619  0.4256
  321MOL0     C44169  11.518   6.284  10.313 -1.2967  0.7056 -0.2924
  321MOL0     C44170  11.643   6.190  10.284  0.5408 -1.6890  0.0044
  321MOL0     C44171  11.720   6.217  10.150 -0.0333  0.5710  0.2557
  321MOL0     C44172  11.846   6.136  10.129 -0.6828  0.2492 -0.2309
  321MOL0     C44173  11.935   6.203  10.020 -0.1253 -0.3998  0.7899
  321MOL0     C44174  12.075   6.134  10.002  0.1360 -0.2709  0.0180
  321MOL0     C44175  12.075   5.980   9.991 -0.5279 -0.4170 -0.5418
  321MOL0     C44176  12.220   5.931   9.962  0.6320  0.2144 -0.2693
  321MOL0     N44177  12.279   5.989   9.841  0.1209  0.9713  0.0866
  321MOL0     C44178  12.226   6.000   9.712  0.1541  0.5751 -0.2803
  321MOL0     C44179  12.311   6.073   9.632 -0.2036  0.4113 -0.3128
  321MOL0     C44180  12.312   6.107   9.492  0.1241 -0.2753 -0.1632
  321MOL0     C44181  12.414   6.021   9.428  0.1791  0.6379  0.8060
  321MOL0     C44182  12.442   6.057   9.276  0.0636 -0.5271 -0.4530
  321MOL0     C44183  12.559   5.969   9.221 -0.1928  0.6754  0.7860
  321MOL0     O44184  12.679   6.024   9.274  0.2104 -0.0631 -0.4690
  321MOL0     C44185  12.801   5.959   9.263  0.6080 -0.6807 -0.5582
  321MOL0     C44186  12.818   5.850   9.177 -0.4011  0.0799 -0.4692
  321MOL0     C44187  12.949   5.790   9.171 -0.5793  0.9879 -0.1720
  321MOL0     C44188  12.965   5.665   9.080  0.1160  0.3827  0.8608
  321MOL0     C44189  13.057   5.846   9.246 -0.0504  0.9407  0.0198
  321MOL0     C44190  13.201   5.785   9.255  0.4487  0.6228 -0.0580
  321MOL0     O44191  13.217   5.646   9.225 -0.0064 -0.7016  0.3786
  321MOL0     C44192  13.347   5.594   9.233 -0.2549  1.0736 -0.0995
  321MOL0     C44193  13.439   5.652   9.151  0.6437  1.2378  0.5350
  321MOL0     C44194  13.570   5.589   9.140  0.8570 -0.1902 -0.1201
  321MOL0     C44195  13.600   5.472   9.217 -1.0750  0.9576  0.4441
  321MOL0     O44196  13.722   5.412   9.214 -0.0518  0.2432  1.0654
  321MOL0     C44197  13.838   5.491   9.193 -0.4689  0.0428 -0.8350
  321MOL0     C44198  13.958   5.416   9.253 -0.4568  0.1298  0.5544
  321MOL0     C44199  14.092   5.503   9.233  0.9621 -0.1800  0.5410
  321MOL0     C44200  14.213   5.412   9.253  0.7853 -1.0987  0.4141
  321MOL0     C44201  14.338   5.497   9.259 -0.0543 -0.3730  0.2161
  321MOL0     C44202  14.472   5.426   9.284  0.7923 -0.2719  0.5571
  321MOL0     C44203  14.588   5.529   9.300  0.0524 -0.0487 -0.8882
  321MOL0     C44204  14.649   5.573   9.437 -0.9237 -0.0515  0.1524
  321MOL0    Cl44205  14.778   5.703   9.424 -0.4787  0.1782 -0.0520
  321MOL0     C44206  13.499   5.414   9.294 -0.4607 -0.5170  0.1030
  321MOL0     C44207  13.384   5.475   9.301 -0.6927  0.0928 -0.3744
  321MOL0     O44208  13.293   5.867   9.274  0.0830  0.4064 -0.1943
  321MOL0     C44209  13.031   5.956   9.324 -0.6991 -0.4608 -0.4199
  321MOL0     C44210  12.903   6.013   9.345 -1.3481 -0.3608 -0.2908
  321MOL0     N44211  12.416   6.111   9.720  0.3756  0.1901 -0.1663
  321MOL0     N44212  12.396   6.054   9.834  0.5850  0.7093 -0.7347
  321MOL0     C44213  11.176   6.304  10.204 -0.2352 -1.0443 -0.9089
  321MOL0     C44214  11.068   6.389  10.179 -0.1683 -0.5949 -0.4778
  321MOL0     C44215  10.774   6.715  10.089 -0.4500  0.2274 -0.1091
  321MOL0     C44216  10.794   6.839  10.152  0.1004 -0.3505  0.3070
  321MOL0     C44217  10.706   6.946  10.146  0.7863  0.1211 -0.1054
  321MOL0     C44218  10.587   6.944  10.064  0.4299  0.8832 -0.0324
  321MOL0     O44219  10.491   7.042  10.052 -0.4016 -0.8125  0.0598
  321MOL0     C44220  10.524   7.173  10.086  0.5142 -1.7306  0.7865
  321MOL0     C44221  10.636   7.219   9.983 -0.9186  0.2047 -0.7355
  321MOL0     C44222  10.630   7.368   9.966  0.4725 -0.5576 -0.2222
  321MOL0     C44223  10.753   7.426   9.897 -0.1676  0.2018 -0.3033
  321MOL0     C44224  10.764   7.401   9.753  0.3047  0.9003 -0.0268
  321MOL0     C44225  10.793   7.389   9.636  0.6782 -0.3087 -1.1186
  321MOL0     C44226  10.568   6.823  10.001  0.6769 -0.3886  0.0724
  321MOL0     C44227  10.656   6.712  10.007  0.0981  0.8454  1.2676
  321MOL0     C44228  10.601   6.579   9.951  0.2706 -0.3611 -0.3633
  321MOL0     H44229  11.260   6.672  10.180  0.4655 -0.0045 -2.2934
  321MOL0     H44230  11.435   6.524  10.200  0.6040  0.3153  1.1446
  321MOL0     H44231  11.483   6.258  10.413  0.1736 -1.3603 -0.2606
  321MOL0     H44232  11.545   6.389  10.323  1.0133 -0.0731  3.1277
  321MOL0     H44233  11.714   6.195  10.368 -0.8667 -1.3802  1.2041
  321MOL0     H44234  11.607   6.086  10.277  1.4674 -2.0063 -0.2349
  321MOL0     H44235  11.642   6.195  10.076  2.6803  1.3452 -3.0511
  321MOL0     H44236  11.747   6.322  10.136 -0.6006  0.6155 -0.5560
  321MOL0     H44237  11.897   6.130  10.225 -0.0208 -2.1773 -0.6626
  321MOL0     H44238  11.812   6.035  10.104  1.3293 -0.1907 -1.4202
  321MOL0     H44239  11.952   6.310  10.031  2.3584 -0.6473 -0.1516
  321MOL0     H44240  11.878   6.184   9.928 -0.5103 -0.7854  1.1011
  321MOL0     H44241  12.124   6.182   9.917 -1.0705  1.8806  0.4557
  321MOL0     H44242  12.136   6.157  10.090 -0.8488  1.9880  0.1774
  321MOL0     H44243  12.007   5.955   9.909  1.0013 -2.3901 -1.2752
  321MOL0     H44244  12.043   5.933  10.084 -0.6618  1.3165  0.3380
  321MOL0     H44245  12.282   5.948  10.050 -0.3478  0.5132  0.3789
  321MOL0     H44246  12.235   5.823   9.946 -0.1838  0.1388 -0.5781
  321MOL0     H44247  12.124   5.968   9.692 -0.8666  2.3649  1.6553
  321MOL0     H44248  12.344   6.211   9.477 -0.0859 -0.5043 -2.7252
  321MOL0     H44249  12.212   6.108   9.446  0.3888  1.0768 -0.7771
  321MOL0     H44250  12.508   6.029   9.482  0.6213  2.5162 -0.1492
  321MOL0     H44251  12.377   5.918   9.427 -0.2100  0.7669  1.2666
  321MOL0     H44252  12.346   6.036   9.227 -0.2002  0.6297 -0.4536
  321MOL0     H44253  12.460   6.165   9.270 -0.7762 -0.0366  3.1963
  321MOL0     H44254  12.555   5.868   9.263  1.7776 -0.5502 -1.6605
  321MOL0     H44255  12.575   5.975   9.113 -1.6932  0.8263  0.5528
  321MOL0     H44256  12.742   5.807   9.113 -3.1818  0.8902  2.0820
  321MOL0     H44257  12.885   5.664   9.006  0.9746 -1.3300 -0.1022
  321MOL0     H44258  12.955   5.576   9.143 -1.0333  0.5836  0.9807
  321MOL0     H44259  13.058   5.665   9.022  0.5524 -1.1933  1.4990
  321MOL0     H44260  13.427   5.742   9.092  0.1014  0.3669 -0.7345
  321MOL0     H44261  13.643   5.633   9.073 -0.6256 -0.4472 -1.9738
  321MOL0     H44262  13.863   5.512   9.089 -0.1411  4.2091 -0.0948
  321MOL0     H44263  13.832   5.589   9.243 -0.0225 -0.1834 -0.3135
  321MOL0     H44264  13.935   5.407   9.360 -1.3579 -0.0466  0.3524
  321MOL0     H44265  13.948   5.313   9.217 -2.0362  0.3209  0.3922
  321MOL0     H44266  14.080   5.583   9.307 -2.1482  0.9292 -1.0193
  321MOL0     H44267  14.100   5.555   9.138 -0.2566 -2.2378 -0.7574
  321MOL0     H44268  14.220   5.345   9.167  1.2105 -1.1260  0.4652
  321MOL0     H44269  14.204   5.348   9.341  3.5056 -1.3801  0.5749
  321MOL0     H44270  14.356   5.541   9.161  2.4866 -1.2741  0.1932
  321MOL0     H44271  14.330   5.582   9.327  3.7063 -0.0724  0.5086
  321MOL0     H44272  14.498   5.349   9.210  0.0828 -3.0540  3.0122
  321MOL0     H44273  14.460   5.371   9.378 -0.1716  2.0593  1.8676
  321MOL0     H44274  14.555   5.622   9.254  0.3339  0.9956  0.9256
  321MOL0     H44275  14.673   5.499   9.238  1.1171  1.6151 -0.2982
  321MOL0     H44276  14.686   5.490   9.497  0.2173 -0.2755 -0.8454
  321MOL0     H44277  14.565   5.613   9.496 -0.2443  0.3630  0.8505
  321MOL0     H44278  13.523   5.327   9.354 -0.5978  0.1558  1.1609
  321MOL0     H44279  13.305   5.414   9.343  0.7992 -0.9143  1.0853
  321MOL0     H44280  13.115   5.971   9.391 -0.2746  1.0970 -1.2567
  321MOL0     H44281  12.885   6.080   9.428  1.2094 -0.1571  0.1722
  321MOL0     H44282  11.158   6.197  10.205 -2.6771 -0.6787  0.2897
  321MOL0     H44283  10.968   6.347  10.181 -0.4833  0.0631 -1.4926
  321MOL0     H44284  10.885   6.840  10.211  0.7621 -0.1941 -0.7087
  321MOL0     H44285  10.712   7.034  10.209 -2.5195 -0.2909  1.0172
  321MOL0     H44286  10.439   7.236  10.059  0.0564 -2.2669  0.9538
  321MOL0     H44287  10.550   7.190  10.191 -1.8100  0.5819  1.0955
  321MOL0     H44288  10.634   7.166   9.888  1.2473 -0.9239 -0.2388
  321MOL0     H44289  10.733   7.199  10.029 -0.8786  1.1928 -0.3723
  321MOL0     H44290  10.539   7.400   9.913 -1.1592 -4.2006  0.0468
  321MOL0     H44291  10.626   7.423  10.061 -2.0526  1.0115 -1.1309
  321MOL0     H44292  10.845   7.388   9.942 -1.2810 -3.6179 -0.8692
  321MOL0     H44293  10.746   7.533   9.918  1.0624 -0.0756  1.7409
  321MOL0     H44294  10.805   7.377   9.530  1.4844  1.2972 -1.2480
  321MOL0     H44295  10.473   6.823   9.949 -0.8688 -1.1845  2.7331
  321MOL0     H44296  10.512   6.590   9.890 -0.9895 -2.5253  0.9460
  321MOL0     H44297  10.670   6.545   9.873 -0.5536 -1.2478 -0.7142
  321MOL0     H44298  10.572   6.509  10.030  3.3558 -0.8739  0.4473
  322MOL0     O44299  11.408   7.736   0.875 -0.3938  0.3888  0.3726
  322MOL0     C44300  11.336   7.644   0.840 -0.0338  0.7739 -0.0303
  322MOL0     O44301  11.374   7.546   0.756  0.4508 -0.0127  1.0337
  322MOL0     C44302  11.502   7.550   0.703  0.8945  0.1653 -0.6688
  322MOL0     C44303  11.620   7.546   0.783  0.2728 -0.2150  0.1184
  322MOL0     C44304  11.743   7.544   0.728 -0.0115  0.7438  0.1449
  322MOL0     C44305  11.763   7.556   0.591  0.0075  0.5227 -0.3552
  322MOL0     O44306  11.883   7.560   0.521 -0.5118  0.9767  0.1876
  322MOL0     C44307  11.992   7.632   0.593  0.3938  0.7137 -0.2141
  322MOL0     C44308  12.128   7.622   0.516  0.2195 -0.0378  0.2267
  322MOL0     C44309  12.165   7.470   0.522 -0.0004 -0.2093 -0.7070
  322MOL0     C44310  12.284   7.462   0.421  0.0788 -0.5152 -0.5048
  322MOL0     C44311  12.358   7.330   0.442 -0.3976 -0.1023 -0.0159
  322MOL0     C44312  12.289   7.208   0.395 -0.0649  0.1193 -0.1410
  322MOL0     C44313  12.376   7.088   0.368 -0.4114  0.2416 -0.1458
  322MOL0     C44314  12.288   6.974   0.318 -0.3426  0.3759 -0.3029
  322MOL0     N44315  12.374   6.849   0.304  0.7327 -0.6767 -0.0173
  322MOL0     C44316  12.480   6.833   0.215 -0.9084 -0.2092  0.2706
  322MOL0     C44317  12.522   6.704   0.240  0.3878  0.5256  0.6378
  322MOL0     C44318  12.634   6.624   0.161  0.0038 -0.4909  0.1588
  322MOL0     C44319  12.656   6.480   0.204 -0.6973  0.3983 -0.2532
  322MOL0     C44320  12.766   6.425   0.101  0.1311  0.5758 -0.1410
  322MOL0     C44321  12.711   6.343  -0.021  0.1941  0.4117 -0.6996
  322MOL0     O44322  12.808   6.287  -0.112 -0.3343 -0.0698  0.1830
  322MOL0     C44323  12.802   6.154  -0.119  0.4943  0.7321  0.3637
  322MOL0     C44324  12.869   6.077  -0.032  0.3737 -0.1549  0.2267
  322MOL0     C44325  12.870   5.933  -0.042 -0.3892  0.3891 -0.0303
  322MOL0     C44326  12.957   5.850   0.058 -0.2092  0.3758  1.2056
  322MOL0     C44327  12.778   5.867  -0.142 -1.2922  0.6229  0.3217
  322MOL0     C44328  12.749   5.730  -0.149  0.1241  0.3774 -0.3515
  322MOL0     O44329  12.728   5.679  -0.270 -0.1382 -0.4171 -0.3966
  322MOL0     C44330  12.658   5.562  -0.286 -0.5728 -0.3892 -0.1289
  322MOL0     C44331  12.515   5.541  -0.267 -0.2300  0.9515  0.7938
  322MOL0     C44332  12.458   5.414  -0.295  0.1907 -0.0837 -0.4845
  322MOL0     C44333  12.538   5.312  -0.331 -0.1960  0.5297 -0.1798
  322MOL0     O44334  12.478   5.185  -0.355 -0.2218 -0.1581  0.0937
  322MOL0     C44335  12.444   5.171  -0.500 -1.0098 -0.2369 -0.8639
  322MOL0     C44336  12.513   5.053  -0.564 -0.7183  0.1286  1.0184
  322MOL0     C44337  12.663   5.045  -0.566  0.9132  0.2477 -0.2686
  322MOL0     C44338  12.711   4.967  -0.445  0.1538  0.1654 -0.0383
  322MOL0     C44339  12.865   4.947  -0.456  0.4110 -0.2127  0.5999
  322MOL0     C44340  12.927   4.912  -0.313  0.5197  0.1660 -0.1613
  322MOL0     C44341  13.082   4.898  -0.307  0.7106  0.1975  0.6948
  322MOL0     C44342  13.137   4.922  -0.165 -0.3883  0.0535  1.0589
  322MOL0    Cl44343  13.136   5.095  -0.118 -0.0056  0.0131  0.0421
  322MOL0     C44344  12.676   5.335  -0.356 -0.0402  0.0673  0.2656
  322MOL0     C44345  12.730   5.462  -0.349  0.3500 -0.6198  0.2674
  322MOL0     O44346  12.738   5.666  -0.042 -0.1369 -0.8846 -0.4083
  322MOL0     C44347  12.714   5.955  -0.227 -0.4605 -0.1238  0.5905
  322MOL0     C44348  12.718   6.094  -0.213 -0.5591 -0.5669 -0.2378
  322MOL0     N44349  12.442   6.651   0.350 -0.3866  0.4550 -0.1980
  322MOL0     N44350  12.360   6.740   0.384 -0.6561  0.3334 -0.3529
  322MOL0     C44351  11.650   7.557   0.511 -0.0837 -0.3035 -0.8580
  322MOL0     C44352  11.514   7.556   0.565 -0.5450  0.4298 -0.9560
  322MOL0     C44353  11.204   7.632   0.894 -0.4071  0.1118 -0.2180
  322MOL0     C44354  11.124   7.520   0.853 -0.2924 -0.5651  0.5955
  322MOL0     C44355  11.003   7.501   0.923  0.1667  0.8204 -0.6296
  322MOL0     C44356  10.951   7.578   1.022  0.3586  0.2522 -0.2751
  322MOL0     O44357  10.832   7.541   1.076 -0.3871  0.1557  0.3663
  322MOL0     C44358  10.741   7.640   1.105 -0.4892 -0.0724  0.8967
  322MOL0     C44359  10.676   7.681   0.975  0.4703 -0.4938  0.3684
  322MOL0     C44360  10.535   7.726   0.995  0.4233 -0.8143  0.9244
  322MOL0     C44361  10.468   7.783   0.869 -0.0058 -0.2053 -0.3861
  322MOL0     C44362  10.340   7.836   0.893  0.3636 -0.4399  1.2127
  322MOL0     C44363  10.232   7.893   0.909  0.4696 -0.6117  0.3474
  322MOL0     C44364  11.033   7.683   1.061 -0.7489 -0.6427  0.3065
  322MOL0     C44365  11.153   7.725   0.988  0.4414  0.1686 -0.5027
  322MOL0     C44366  11.219   7.846   1.043  0.1118  0.3150  0.1423
  322MOL0     H44367  11.614   7.543   0.891  1.0876  1.8699  0.2807
  322MOL0     H44368  11.826   7.539   0.798  0.9170 -1.1782 -1.0094
  322MOL0     H44369  12.008   7.592   0.694  0.2732  1.5338  0.1330
  322MOL0     H44370  11.959   7.735   0.607 -1.2794  0.0856  0.8943
  322MOL0     H44371  12.123   7.663   0.415 -0.5669 -0.4283  0.1033
  322MOL0     H44372  12.212   7.676   0.560  2.1147 -0.6607 -2.3759
  322MOL0     H44373  12.207   7.443   0.619  1.1119 -2.1104 -1.6761
  322MOL0     H44374  12.081   7.401   0.510  0.3331 -0.8265  0.4201
  322MOL0     H44375  12.250   7.457   0.318  2.1362  0.9528 -1.3194
  322MOL0     H44376  12.351   7.548   0.430 -0.1000 -0.2664 -1.4638
  322MOL0     H44377  12.388   7.318   0.547  1.3939 -0.4243 -0.5189
  322MOL0     H44378  12.454   7.336   0.389 -0.2614 -0.1747  0.2161
  322MOL0     H44379  12.211   7.192   0.470  2.6707 -0.6246  2.7247
  322MOL0     H44380  12.239   7.234   0.301  0.1454  0.7622 -0.0787
  322MOL0     H44381  12.441   7.063   0.453 -0.6609 -0.8094 -0.2439
  322MOL0     H44382  12.438   7.112   0.282  0.6046 -2.5583 -0.3011
  322MOL0     H44383  12.214   6.961   0.398 -0.6189 -0.1061 -0.6338
  322MOL0     H44384  12.259   6.994   0.215  2.1967  1.0256 -0.9580
  322MOL0     H44385  12.523   6.894   0.137  0.9457 -0.5316  0.9998
  322MOL0     H44386  12.728   6.678   0.174 -0.0597 -0.1342 -0.7346
  322MOL0     H44387  12.617   6.622   0.052 -0.0263 -0.2598  0.1597
  322MOL0     H44388  12.687   6.472   0.308  1.6785 -2.1630 -0.9990
  322MOL0     H44389  12.565   6.420   0.214  1.1418 -2.8451 -1.1807
  322MOL0     H44390  12.845   6.495   0.071  0.3641  0.0285 -0.8262
  322MOL0     H44391  12.831   6.358   0.158 -1.0536  0.2698  0.8895
  322MOL0     H44392  12.644   6.265   0.018  0.6831  0.1902 -0.2923
  322MOL0     H44393  12.642   6.410  -0.074  1.6427 -0.5171 -4.0549
  322MOL0     H44394  12.940   6.130   0.031  2.3279  4.1508 -4.8670
  322MOL0     H44395  12.902   5.797   0.137 -0.9998 -1.0011 -0.2174
  322MOL0     H44396  13.031   5.915   0.106  0.4688  1.0153 -0.6517
  322MOL0     H44397  13.025   5.785   0.004 -0.5180  1.4440 -0.5343
  322MOL0     H44398  12.446   5.620  -0.237 -2.6228 -0.5132 -0.5014
  322MOL0     H44399  12.351   5.397  -0.289  0.0855  0.5512 -0.4899
  322MOL0     H44400  12.336   5.153  -0.504 -1.0692 -0.5169  1.0239
  322MOL0     H44401  12.459   5.262  -0.559 -2.9085  2.8427  2.9665
  322MOL0     H44402  12.475   4.961  -0.519  0.1112  1.3424  4.4669
  322MOL0     H44403  12.470   5.062  -0.665  1.5978 -2.9702 -0.4205
  322MOL0     H44404  12.716   5.140  -0.576  2.6210 -0.3799  1.7775
  322MOL0     H44405  12.698   4.989  -0.653  1.2853  2.2892 -1.4846
  322MOL0     H44406  12.662   4.869  -0.437  3.1551 -1.5703 -1.0107
  322MOL0     H44407  12.686   5.030  -0.360 -3.3493 -0.8848 -0.1090
  322MOL0     H44408  12.887   4.863  -0.522 -3.4566 -1.4579  0.6370
  322MOL0     H44409  12.918   5.038  -0.487  0.0551 -0.1452  0.1888
  322MOL0     H44410  12.879   4.823  -0.274 -0.7260  1.9317  2.6637
  322MOL0     H44411  12.892   4.986  -0.241 -0.8959  0.8055 -1.4541
  322MOL0     H44412  13.131   4.975  -0.366  2.1915 -2.1471 -1.2973
  322MOL0     H44413  13.113   4.799  -0.341 -0.0109 -0.5664  2.1564
  322MOL0     H44414  13.240   4.888  -0.180 -0.9929 -2.2809  1.6916
  322MOL0     H44415  13.087   4.869  -0.083 -0.2184 -0.9024  0.5627
  322MOL0     H44416  12.752   5.259  -0.371 -0.7417 -0.8977  1.4735
  322MOL0     H44417  12.835   5.472  -0.376  0.4479 -1.0557  0.4898
  322MOL0     H44418  12.655   5.922  -0.312 -1.8578  0.6550  1.2289
  322MOL0     H44419  12.666   6.162  -0.280 -1.9885 -0.2421  1.1364
  322MOL0     H44420  11.669   7.569   0.405  3.6965  1.7107 -0.1137
  322MOL0     H44421  11.425   7.541   0.504 -1.4498 -0.1557  0.4521
  322MOL0     H44422  11.148   7.473   0.758 -1.2310  1.6340 -0.8124
  322MOL0     H44423  10.936   7.421   0.893  0.3916  0.5586 -0.4418
  322MOL0     H44424  10.668   7.611   1.181 -0.8067 -2.1769 -0.1339
  322MOL0     H44425  10.787   7.731   1.146 -1.7659  1.3915 -0.7598
  322MOL0     H44426  10.685   7.593   0.911  3.9049 -0.8184  1.1254
  322MOL0     H44427  10.733   7.763   0.930 -1.0661  0.0096 -0.7583
  322MOL0     H44428  10.488   7.643   1.049  1.8016  0.7917  4.9737
  322MOL0     H44429  10.534   7.798   1.077  0.8590 -1.1390  1.2196
  322MOL0     H44430  10.453   7.704   0.795  1.5893  0.6357 -1.6756
  322MOL0     H44431  10.527   7.860   0.818  1.0671 -1.0163 -0.4291
  322MOL0     H44432  10.137   7.940   0.919  1.1519  1.0256 -0.4271
  322MOL0     H44433  11.005   7.741   1.149  1.7296  0.2998  0.5481
  322MOL0     H44434  11.305   7.817   1.102 -0.6089 -1.7507  0.2515
  322MOL0     H44435  11.250   7.908   0.958 -4.2639  1.6211 -0.7850
  322MOL0     H44436  11.150   7.910   1.098 -2.2090 -0.2134 -1.9477
  323MOL0     O44437  11.069   9.831   5.498 -0.1694  0.1374  0.2229
  323MOL0     C44438  11.169   9.901   5.485 -0.1465 -0.3195 -0.1366
  323MOL0     O44439  11.160  10.037   5.493 -0.8864  0.0597 -0.0009
  323MOL0     C44440  11.049  10.093   5.555 -0.3050  0.1163 -1.3003
  323MOL0     C44441  11.065  10.136   5.682  0.0484  0.5460  0.8545
  323MOL0     C44442  10.951  10.177   5.753  0.3775 -0.7512 -0.2509
  323MOL0     C44443  10.825  10.181   5.698  0.5645  0.4271 -0.8749
  323MOL0     O44444  10.726  10.223   5.786  0.6208  0.2495  0.4304
  323MOL0     C44445  10.604  10.269   5.730 -0.0072  0.1751  0.0984
  323MOL0     C44446  10.509  10.302   5.857  0.3867 -0.0380 -0.6173
  323MOL0     C44447  10.399  10.390   5.819 -1.0646  0.4415 -0.4835
  323MOL0     C44448  10.440  10.537   5.821  0.2672 -0.1274  0.0639
  323MOL0     C44449  10.322  10.626   5.792  0.7883  0.3180 -0.1081
  323MOL0     C44450  10.256  10.604   5.652  0.0893  0.2619 -0.2682
  323MOL0     C44451  10.144  10.709   5.624  0.2159 -0.3084 -0.2708
  323MOL0     C44452  10.113  10.725   5.478  0.2893 -0.1459 -0.3553
  323MOL0     N44453  10.235  10.775   5.402  0.1347 -0.6864 -0.6543
  323MOL0     C44454  10.255  10.763   5.268  0.0703 -0.1654  0.6058
  323MOL0     C44455  10.384  10.805   5.252  0.4428 -0.1091  1.3023
  323MOL0     C44456  10.438  10.807   5.112 -0.0246 -0.0495  0.1373
  323MOL0     C44457  10.542  10.708   5.083  0.4201  0.2341 -0.7762
  323MOL0     C44458  10.693  10.736   5.130  0.1816  0.2083 -0.5120
  323MOL0     C44459  10.764  10.837   5.045  0.7577  0.4342 -0.6360
  323MOL0     O44460  10.876  10.886   5.115  0.0275  0.6032  0.1402
  323MOL0     C44461  10.970  10.951   5.046  0.5669  0.7823  0.0225
  323MOL0     C44462  11.041  11.051   5.106  0.2132 -0.3908 -0.1762
  323MOL0     C44463  11.148  11.120   5.044  0.2073  1.0681 -0.3324
  323MOL0     C44464  11.225  11.224   5.122  0.8880  0.1119 -0.2217
  323MOL0     C44465  11.188  11.087   4.914 -0.2895 -0.2649 -0.2406
  323MOL0     C44466  11.312  11.134   4.846  0.2176  0.3716 -0.0358
  323MOL0     O44467  11.339  11.077   4.724 -0.5485 -0.3427 -0.0075
  323MOL0     C44468  11.467  11.079   4.670 -0.5049  0.3289  0.0971
  323MOL0     C44469  11.488  11.051   4.534  0.9803 -0.1067 -0.3021
  323MOL0     C44470  11.615  11.041   4.468 -0.1795  0.1841 -0.0796
  323MOL0     C44471  11.731  11.074   4.547  0.3011  0.1995 -0.3500
  323MOL0     O44472  11.849  11.090   4.482  0.3761  0.2438 -0.2103
  323MOL0     C44473  11.933  11.199   4.535 -0.2906 -0.0112  0.2403
  323MOL0     C44474  12.058  11.234   4.447 -0.2523 -0.5092  0.4109
  323MOL0     C44475  12.016  11.251   4.302  1.2513  0.4305  0.7576
  323MOL0     C44476  12.132  11.290   4.214 -0.6950 -0.2594 -0.3868
  323MOL0     C44477  12.091  11.326   4.067  0.2747  0.8051 -0.5060
  323MOL0     C44478  12.203  11.388   3.980  0.2371 -1.0654 -0.8463
  323MOL0     C44479  12.156  11.406   3.833 -0.2350  0.7246 -0.5734
  323MOL0     C44480  12.196  11.280   3.765 -0.3691 -0.0652  0.2022
  323MOL0    Cl44481  12.372  11.251   3.766 -0.1575  0.0697  0.2114
  323MOL0     C44482  11.711  11.093   4.685  0.6199  0.0198  0.6746
  323MOL0     C44483  11.585  11.100   4.744  0.1641  0.4440 -0.2945
  323MOL0     O44484  11.380  11.220   4.895  0.3603  0.1787  0.4799
  323MOL0     C44485  11.109  10.993   4.846 -0.0820 -1.0474  0.1782
  323MOL0     C44486  10.997  10.939   4.904 -0.7758 -0.2025  0.8499
  323MOL0     N44487  10.435  10.864   5.364  0.7024 -0.1605  0.0324
  323MOL0     N44488  10.345  10.850   5.453 -0.6801 -0.5014 -0.0477
  323MOL0     C44489  10.806  10.139   5.565 -0.1629 -0.5230  0.4240
  323MOL0     C44490  10.921  10.094   5.495 -0.0614  0.0839 -0.1937
  323MOL0     C44491  11.301   9.843   5.451 -0.0763  0.4267  0.0892
  323MOL0     C44492  11.306   9.713   5.390 -0.1953 -0.2624  0.1869
  323MOL0     C44493  11.426   9.651   5.364 -0.3250  0.3863  0.4385
  323MOL0     C44494  11.552   9.708   5.399  0.3912  1.0114 -0.5636
  323MOL0     O44495  11.670   9.656   5.363 -0.3063 -0.4198  0.4378
  323MOL0     C44496  11.700   9.521   5.355 -0.4821 -0.1176 -0.7762
  323MOL0     C44497  11.733   9.453   5.489  0.1793  0.9518  0.7846
  323MOL0     C44498  11.784   9.304   5.468 -0.1576  0.2534 -1.0880
  323MOL0     C44499  11.859   9.253   5.588  0.7301 -0.0617  0.0630
  323MOL0     C44500  11.869   9.110   5.600 -0.6748 -1.3325  0.0496
  323MOL0     C44501  11.868   8.994   5.598 -0.1472 -0.3294  0.4392
  323MOL0     C44502  11.547   9.822   5.471  0.3360 -0.0276 -0.0428
  323MOL0     C44503  11.426   9.899   5.488  0.4067  0.5053 -0.4026
  323MOL0     C44504  11.449  10.040   5.518  1.0829 -0.2210 -0.7918
  323MOL0     H44505  11.159  10.113   5.729 -0.7722 -0.2821  2.1495
  323MOL0     H44506  10.966  10.202   5.858  2.4795  0.6385 -0.7961
  323MOL0     H44507  10.554  10.191   5.672 -0.1794 -1.2582  2.0688
  323MOL0     H44508  10.622  10.357   5.667 -1.9649 -0.1390 -1.0031
  323MOL0     H44509  10.469  10.208   5.896 -1.0938  0.4664 -0.8487
  323MOL0     H44510  10.561  10.358   5.936 -0.4185  0.0573 -0.1398
  323MOL0     H44511  10.364  10.358   5.721  0.0339 -1.2089 -0.3796
  323MOL0     H44512  10.335  10.372   5.906  1.7708 -0.0010  1.6907
  323MOL0     H44513  10.486  10.568   5.915  0.5404  2.7987 -0.9533
  323MOL0     H44514  10.523  10.547   5.751  0.6865 -2.6448  0.0811
  323MOL0     H44515  10.362  10.726   5.809 -1.6244  1.0158  2.0183
  323MOL0     H44516  10.249  10.609   5.871  1.1022 -1.1091 -0.0976
  323MOL0     H44517  10.335  10.610   5.577 -0.6303 -0.6536 -1.1228
  323MOL0     H44518  10.208  10.507   5.638 -0.9554  0.5946  0.8836
  323MOL0     H44519  10.178  10.806   5.660 -0.1251 -0.9692  1.9542
  323MOL0     H44520  10.048  10.676   5.664 -1.9834  2.7041 -2.6281
  323MOL0     H44521  10.071  10.633   5.437  0.3604 -1.6182  2.6096
  323MOL0     H44522  10.037  10.804   5.475 -0.3269 -0.7597 -1.2983
  323MOL0     H44523  10.180  10.723   5.200  1.8512 -0.4276 -1.3192
  323MOL0     H44524  10.477  10.909   5.099  1.0943 -0.3395  1.0668
  323MOL0     H44525  10.356  10.796   5.040 -0.3299  0.5575  0.3835
  323MOL0     H44526  10.519  10.615   5.135  0.3533  0.7082  0.0569
  323MOL0     H44527  10.542  10.695   4.974 -0.3572 -0.4396 -0.7026
  323MOL0     H44528  10.689  10.764   5.236 -1.5317  0.7850 -0.6918
  323MOL0     H44529  10.750  10.643   5.132 -2.3398 -1.4289  1.2850
  323MOL0     H44530  10.791  10.781   4.955  1.6088  0.8762 -0.6649
  323MOL0     H44531  10.698  10.919   5.012 -1.8381 -1.2190  0.1483
  323MOL0     H44532  11.000  11.076   5.204 -0.2172 -1.3325 -0.1100
  323MOL0     H44533  11.329  11.200   5.150  0.2089 -2.6137  0.3117
  323MOL0     H44534  11.172  11.262   5.210 -0.9545 -0.5283 -1.0042
  323MOL0     H44535  11.227  11.321   5.071  3.2294  1.5955  2.3716
  323MOL0     H44536  11.403  11.042   4.468 -0.9976  2.6282  1.6484
  323MOL0     H44537  11.630  11.019   4.363  0.7717 -2.8911  0.6150
  323MOL0     H44538  11.870  11.287   4.549  0.5360  0.4613  1.0788
  323MOL0     H44539  11.975  11.181   4.634 -3.0577  4.2269  2.4606
  323MOL0     H44540  12.101  11.328   4.481 -2.7843  0.7273  0.4748
  323MOL0     H44541  12.132  11.154   4.442 -1.2855 -1.4507 -2.8444
  323MOL0     H44542  11.942  11.332   4.304 -1.1254 -1.5866  2.9953
  323MOL0     H44543  11.957  11.163   4.278 -4.4908  1.9531  6.4139
  323MOL0     H44544  12.213  11.217   4.214  0.4341  0.9521  0.2284
  323MOL0     H44545  12.165  11.383   4.261  0.5937 -1.0001  0.2360
  323MOL0     H44546  12.047  11.235   4.025  3.7637 -0.6912 -1.2601
  323MOL0     H44547  12.018  11.408   4.071  1.6077  1.9888  1.8562
  323MOL0     H44548  12.299  11.339   3.999  0.0602 -0.9428  0.4529
  323MOL0     H44549  12.217  11.489   4.019  1.4777 -0.7788 -1.9758
  323MOL0     H44550  12.198  11.494   3.784  2.4692 -1.3764 -2.2861
  323MOL0     H44551  12.049  11.421   3.819 -0.8432 -3.3532 -1.4819
  323MOL0     H44552  12.171  11.282   3.658  2.2801 -1.4612 -0.5439
  323MOL0     H44553  12.138  11.198   3.808 -1.2528  0.5153  0.1480
  323MOL0     H44554  11.803  11.110   4.740  0.4849 -0.6438  1.1219
  323MOL0     H44555  11.579  11.123   4.850 -1.0538 -0.9092 -0.0266
  323MOL0     H44556  11.138  10.960   4.747 -0.8424  3.4166 -1.7812
  323MOL0     H44557  10.939  10.868   4.846 -0.3821 -0.1721  0.4181
  323MOL0     H44558  10.704  10.141   5.528 -0.4391 -1.3733  1.1059
  323MOL0     H44559  10.914  10.045   5.399  0.3307  0.1749 -0.2721
  323MOL0     H44560  11.220   9.654   5.361  2.1959 -1.7162 -5.3238
  323MOL0     H44561  11.426   9.558   5.308 -2.9175  1.3937 -1.4700
  323MOL0     H44562  11.614   9.464   5.318 -0.9447  0.7642 -1.0853
  323MOL0     H44563  11.791   9.507   5.298  1.5479 -0.5295  2.3362
  323MOL0     H44564  11.639   9.455   5.546 -2.0201 -2.6451 -2.2753
  323MOL0     H44565  11.811   9.513   5.537  2.3819 -0.4449 -0.8346
  323MOL0     H44566  11.700   9.235   5.457 -2.8487  3.1789 -0.4096
  323MOL0     H44567  11.845   9.290   5.379  0.0464 -3.0839 -0.5684
  323MOL0     H44568  11.812   9.286   5.681  2.3053 -0.9423  1.2137
  323MOL0     H44569  11.964   9.283   5.593  0.8454 -0.3671 -0.4127
  323MOL0     H44570  11.857   8.894   5.561  0.1865 -0.4799  0.7328
  323MOL0     H44571  11.645   9.865   5.491  0.3840  0.7134 -1.7287
  323MOL0     H44572  11.556  10.058   5.510  1.5530 -1.0811  2.2821
  323MOL0     H44573  11.383  10.100   5.455 -0.9982 -0.2219  1.2361
  323MOL0     H44574  11.408  10.067   5.616 -1.3410 -0.6130 -1.6381
  324MOL0     O44575   1.727   3.390   5.395  0.1856 -0.4400 -0.0272
  324MOL0     C44576   1.779   3.464   5.482 -0.2089 -0.3797  0.2854
  324MOL0     O44577   1.737   3.499   5.606  0.0184  1.1369  0.5864
  324MOL0     C44578   1.619   3.443   5.632 -0.1558 -0.1805 -0.6321
  324MOL0     C44579   1.600   3.304   5.659  0.3805  0.3768  0.6642
  324MOL0     C44580   1.466   3.256   5.669 -0.6469  0.3455  0.1999
  324MOL0     C44581   1.355   3.338   5.658 -0.4693 -0.1430 -1.0543
  324MOL0     O44582   1.227   3.294   5.695 -0.5447 -0.5143 -0.0743
  324MOL0     C44583   1.209   3.209   5.805  0.1892 -0.0583  0.7332
  324MOL0     C44584   1.065   3.215   5.840 -0.4797  0.0587 -0.0422
  324MOL0     C44585   0.967   3.251   5.734 -0.4782 -0.6410 -0.3711
  324MOL0     C44586   0.826   3.184   5.744 -0.5383  0.6271  0.2617
  324MOL0     C44587   0.725   3.266   5.829 -0.0098  0.7518 -0.1365
  324MOL0     C44588   0.583   3.208   5.841  0.0849  0.5208 -0.3712
  324MOL0     C44589   0.509   3.302   5.935  0.4934 -0.1956  0.0690
  324MOL0     C44590   0.465   3.247   6.072  0.0424 -0.1511 -0.5374
  324MOL0     N44591   0.575   3.221   6.176 -0.6224  1.1755  0.1499
  324MOL0     C44592   0.587   3.098   6.250 -0.0455  0.1762  0.2060
  324MOL0     C44593   0.681   3.131   6.343  0.8597  0.6136 -0.3028
  324MOL0     C44594   0.714   3.052   6.458  0.8460 -0.2776 -0.7038
  324MOL0     C44595   0.763   3.141   6.575  0.4795 -0.4071 -0.2065
  324MOL0     C44596   0.754   3.056   6.703 -0.0882 -0.6330  0.1567
  324MOL0     C44597   0.766   3.157   6.819 -0.2698 -0.7463 -0.5002
  324MOL0     O44598   0.747   3.088   6.948  0.0534  0.1690 -0.1953
  324MOL0     C44599   0.849   3.004   6.998 -0.4247 -0.2297 -0.3396
  324MOL0     C44600   0.828   2.950   7.128  0.2736  0.4398 -0.1264
  324MOL0     C44601   0.927   2.885   7.200  0.1213 -0.7885  0.1245
  324MOL0     C44602   0.902   2.852   7.344  0.0133  0.2436 -0.6705
  324MOL0     C44603   1.053   2.863   7.137 -0.6246 -0.0312 -0.2587
  324MOL0     C44604   1.164   2.773   7.187  0.1203 -0.0806 -0.7207
  324MOL0     O44605   1.251   2.718   7.097  0.8113 -0.0897  0.1976
  324MOL0     C44606   1.373   2.664   7.134  0.6211 -0.3348  0.8450
  324MOL0     C44607   1.419   2.555   7.060 -0.9305 -0.2344 -0.5430
  324MOL0     C44608   1.555   2.510   7.075  0.6074  0.5443 -0.5705
  324MOL0     C44609   1.637   2.561   7.178 -0.2429 -0.3173 -0.2153
  324MOL0     O44610   1.771   2.529   7.201 -0.6168 -0.0957  0.5434
  324MOL0     C44611   1.794   2.387   7.217 -0.5174 -0.1063  0.0559
  324MOL0     C44612   1.920   2.358   7.292 -0.3815  0.3768  0.2002
  324MOL0     C44613   1.949   2.207   7.322  0.7567  0.1412 -0.2936
  324MOL0     C44614   1.978   2.125   7.193  0.6652  0.4646 -0.1507
  324MOL0     C44615   2.069   1.996   7.221  1.1396 -0.3278  0.3449
  324MOL0     C44616   1.984   1.891   7.292 -0.1710 -0.6357 -0.1952
  324MOL0     C44617   2.065   1.768   7.318 -0.0951 -0.3286  0.3458
  324MOL0     C44618   1.989   1.655   7.386  0.5356 -0.1028 -0.1405
  324MOL0    Cl44619   1.935   1.710   7.551 -0.1358 -0.2623  0.2247
  324MOL0     C44620   1.573   2.644   7.267  0.5712  0.7303 -0.2687
  324MOL0     C44621   1.448   2.707   7.241 -0.7935  0.7831 -0.4099
  324MOL0     O44622   1.173   2.765   7.310 -0.2005  0.0098 -0.3093
  324MOL0     C44623   1.076   2.915   7.007 -0.8465 -0.1150 -0.1963
  324MOL0     C44624   0.983   2.981   6.938 -0.1231 -0.5689 -0.4691
  324MOL0     N44625   0.721   3.262   6.313  0.0480 -0.0910  0.0417
  324MOL0     N44626   0.652   3.320   6.223 -0.6203  0.5854  0.2564
  324MOL0     C44627   1.380   3.475   5.642  0.0602 -0.3208  0.6375
  324MOL0     C44628   1.511   3.523   5.637 -0.5124 -0.8654  0.1611
  324MOL0     C44629   1.907   3.527   5.440  1.2255 -0.0552 -0.1167
  324MOL0     C44630   2.018   3.447   5.402  0.5849 -0.2900  0.3278
  324MOL0     C44631   2.134   3.508   5.370 -0.5294  0.3057 -0.0912
  324MOL0     C44632   2.154   3.649   5.374 -0.5417 -0.1805 -0.3782
  324MOL0     O44633   2.276   3.702   5.350 -0.5477  0.3011 -0.6817
  324MOL0     C44634   2.303   3.837   5.393  0.2767 -0.5026 -0.6604
  324MOL0     C44635   2.452   3.875   5.377  0.2058 -0.1685  0.2797
  324MOL0     C44636   2.473   3.918   5.231  0.6862 -0.2136  0.0107
  324MOL0     C44637   2.600   3.988   5.186  0.2988 -0.2408 -0.5678
  324MOL0     C44638   2.706   3.876   5.191  0.3281 -0.2836  0.0679
  324MOL0     C44639   2.788   3.785   5.200  0.2074 -0.2675  0.1715
  324MOL0     C44640   2.036   3.729   5.416 -0.1254 -0.7253 -0.4424
  324MOL0     C44641   1.910   3.662   5.443  0.2682 -0.1146 -0.1383
  324MOL0     C44642   1.793   3.759   5.478 -0.1242 -1.1975 -0.0567
  324MOL0     H44643   1.687   3.238   5.659 -0.5450 -1.1842 -3.6571
  324MOL0     H44644   1.449   3.149   5.669 -0.6059  0.3097 -1.4894
  324MOL0     H44645   1.268   3.233   5.894  0.3752 -0.2141  0.6527
  324MOL0     H44646   1.224   3.109   5.764  0.1819  0.4771 -0.6178
  324MOL0     H44647   1.040   3.124   5.895  0.1190  0.3472  0.7386
  324MOL0     H44648   1.053   3.291   5.918  0.4831 -0.4557  0.6219
  324MOL0     H44649   0.952   3.359   5.729 -0.7233 -0.6428  0.1779
  324MOL0     H44650   1.010   3.217   5.640  1.1076 -3.6509  1.2874
  324MOL0     H44651   0.780   3.178   5.645  1.2376 -1.3997 -0.5244
  324MOL0     H44652   0.828   3.077   5.765  0.0847  0.9690  2.1373
  324MOL0     H44653   0.726   3.363   5.779 -1.0410  1.0530  0.3966
  324MOL0     H44654   0.770   3.284   5.926 -0.8330  0.9139  0.2273
  324MOL0     H44655   0.528   3.213   5.747 -2.1474 -0.4938  0.7945
  324MOL0     H44656   0.578   3.101   5.863 -0.6408  0.3270 -1.3903
  324MOL0     H44657   0.418   3.327   5.880 -1.0459  1.4646  3.0926
  324MOL0     H44658   0.564   3.396   5.942 -1.5667  1.2246 -1.4674
  324MOL0     H44659   0.393   3.317   6.115  2.0251  1.6256  0.0220
  324MOL0     H44660   0.408   3.154   6.058 -1.8820  0.1947  3.6026
  324MOL0     H44661   0.532   3.005   6.236  1.0052 -0.6170  1.1810
  324MOL0     H44662   0.793   2.985   6.423 -0.1158 -1.4657 -0.6683
  324MOL0     H44663   0.634   2.981   6.479 -0.1852 -0.0958 -3.5727
  324MOL0     H44664   0.866   3.177   6.566  0.8605 -0.7824  2.0791
  324MOL0     H44665   0.700   3.229   6.581 -0.4431 -1.0670 -0.0149
  324MOL0     H44666   0.663   2.996   6.698  0.7933 -2.1673  1.4759
  324MOL0     H44667   0.837   2.985   6.706 -0.8609 -1.5317  1.3192
  324MOL0     H44668   0.857   3.218   6.817 -2.8302  3.4339 -1.5779
  324MOL0     H44669   0.685   3.229   6.806  0.5910  0.4460  0.5502
  324MOL0     H44670   0.731   2.979   7.168  0.1283  1.4785 -1.1763
  324MOL0     H44671   0.799   2.878   7.368  0.6265  1.3447  0.9570
  324MOL0     H44672   0.968   2.915   7.405 -2.4260  0.7884  1.6040
  324MOL0     H44673   0.922   2.746   7.358 -0.2937  0.0798 -1.4324
  324MOL0     H44674   1.356   2.517   6.980 -2.2049  0.1690  0.2446
  324MOL0     H44675   1.599   2.437   7.008 -0.3239 -1.0479  0.4909
  324MOL0     H44676   1.722   2.343   7.287  0.9773 -0.6859  1.2917
  324MOL0     H44677   1.788   2.333   7.123 -0.4528  0.7258 -0.4371
  324MOL0     H44678   2.012   2.404   7.252  1.0533 -0.5244  2.2872
  324MOL0     H44679   1.925   2.405   7.391  3.5179  0.9638 -0.0860
  324MOL0     H44680   1.860   2.163   7.369  0.5005 -0.0007 -0.9114
  324MOL0     H44681   2.036   2.198   7.388  0.8019  0.4122 -0.3146
  324MOL0     H44682   2.026   2.189   7.119  0.0434 -0.2369 -1.1981
  324MOL0     H44683   1.881   2.100   7.149  0.5705 -0.7555  0.6992
  324MOL0     H44684   2.112   1.965   7.125  0.4072  2.3201 -0.9362
  324MOL0     H44685   2.151   2.018   7.289  0.0053  0.4925  1.4811
  324MOL0     H44686   1.910   1.854   7.220  0.9762 -1.9097 -0.7777
  324MOL0     H44687   1.935   1.932   7.380  1.8933  1.5588  0.0305
  324MOL0     H44688   2.164   1.787   7.359  0.8791 -1.4494 -1.3525
  324MOL0     H44689   2.073   1.717   7.221 -1.5624 -3.6331  1.8104
  324MOL0     H44690   2.045   1.562   7.399  1.4783  0.6232  1.2817
  324MOL0     H44691   1.913   1.623   7.314  1.3264  2.2591 -2.1588
  324MOL0     H44692   1.636   2.674   7.351 -0.4587  2.2786 -0.0006
  324MOL0     H44693   1.407   2.772   7.319 -4.2313 -1.9704  0.3397
  324MOL0     H44694   1.174   2.900   6.963 -1.0892 -3.7050  0.1825
  324MOL0     H44695   1.016   3.029   6.846 -0.2592  0.8780  0.2138
  324MOL0     H44696   1.291   3.536   5.649 -1.7380 -2.7400 -0.0827
  324MOL0     H44697   1.541   3.628   5.631 -0.3987 -0.5970  3.5022
  324MOL0     H44698   1.997   3.342   5.384 -1.1346 -0.2275  1.6784
  324MOL0     H44699   2.207   3.432   5.346 -0.8601 -0.4352  1.2194
  324MOL0     H44700   2.241   3.908   5.337 -2.2937 -1.6609  0.5273
  324MOL0     H44701   2.266   3.843   5.496 -1.5464  0.5435 -1.3265
  324MOL0     H44702   2.502   3.782   5.406  0.0746  0.5667  3.2425
  324MOL0     H44703   2.484   3.961   5.437  2.7129 -0.8950  0.1187
  324MOL0     H44704   2.437   3.839   5.165 -0.7547  0.4930 -0.0960
  324MOL0     H44705   2.397   3.996   5.216 -0.3544 -1.5344 -2.1407
  324MOL0     H44706   2.627   4.069   5.255 -1.2012 -0.5546  0.4293
  324MOL0     H44707   2.583   4.019   5.083 -2.0171 -0.4101 -0.2956
  324MOL0     H44708   2.859   3.705   5.204 -0.9568 -1.2810  1.3081
  324MOL0     H44709   2.046   3.838   5.416  0.9157 -0.6884 -3.7574
  324MOL0     H44710   1.796   3.780   5.585  0.5166  1.4255 -0.5253
  324MOL0     H44711   1.815   3.855   5.432 -0.4414  0.5516  3.1961
  324MOL0     H44712   1.697   3.717   5.444  1.4035 -3.4788 -1.9045
  325MOL0     O44713   1.564   4.813   5.358 -1.0125  0.1609  0.0907
  325MOL0     C44714   1.569   4.690   5.344  0.3043 -0.3062  0.6314
  325MOL0     O44715   1.679   4.606   5.345  0.5922  0.0323 -0.9200
  325MOL0     C44716   1.793   4.672   5.328  1.0082  0.7143  0.0138
  325MOL0     C44717   1.824   4.749   5.217  0.2952 -0.2997 -0.2525
  325MOL0     C44718   1.948   4.792   5.186 -0.7713 -0.3741  0.1707
  325MOL0     C44719   2.045   4.759   5.275 -1.1326 -0.8271  0.2621
  325MOL0     O44720   2.165   4.811   5.255 -0.4388 -0.4369  0.2860
  325MOL0     C44721   2.181   4.943   5.194 -0.6380  0.4400 -0.9052
  325MOL0     C44722   2.333   4.963   5.180  0.4677  0.6891 -0.5202
  325MOL0     C44723   2.397   4.987   5.320 -0.2913 -0.1827  0.0369
  325MOL0     C44724   2.556   4.998   5.307  0.7226  0.9633  0.6542
  325MOL0     C44725   2.619   5.083   5.200 -0.2065  0.3826  1.0756
  325MOL0     C44726   2.773   5.103   5.208 -0.5742  0.5598 -0.1922
  325MOL0     C44727   2.859   5.002   5.128 -0.3887  0.5668  0.4151
  325MOL0     C44728   3.011   4.989   5.181 -0.1805  1.0736  0.7594
  325MOL0     N44729   3.090   5.113   5.165 -0.0993 -0.2990 -0.1660
  325MOL0     C44730   3.206   5.116   5.096  0.5022  0.3257  0.5334
  325MOL0     C44731   3.245   5.247   5.094 -1.5964 -0.7394 -0.6195
  325MOL0     C44732   3.372   5.291   5.018 -0.0044  0.9204 -0.5137
  325MOL0     C44733   3.454   5.389   5.099 -0.2281 -0.1675  0.1779
  325MOL0     C44734   3.575   5.443   5.021 -0.3354  0.3497  0.9564
  325MOL0     C44735   3.657   5.530   5.113 -0.5212  0.8504  1.0605
  325MOL0     O44736   3.793   5.544   5.056  0.2536  0.5580  0.7770
  325MOL0     C44737   3.889   5.623   5.116 -0.0260 -0.7122 -0.7477
  325MOL0     C44738   4.024   5.617   5.077  0.2288  0.6572 -0.2884
  325MOL0     C44739   4.121   5.706   5.124  0.3127  0.0748  0.0741
  325MOL0     C44740   4.256   5.701   5.062  0.3337  0.5249  0.0339
  325MOL0     C44741   4.088   5.797   5.225  0.1380  0.4499  0.2646
  325MOL0     C44742   4.185   5.897   5.283  0.0156 -0.3816  0.1817
  325MOL0     O44743   4.247   5.967   5.185  0.0025  0.0650 -0.2847
  325MOL0     C44744   4.372   6.014   5.231  0.1481  1.1638 -0.1918
  325MOL0     C44745   4.450   5.954   5.329 -1.1605  1.0676  0.6429
  325MOL0     C44746   4.578   6.006   5.351 -0.0230  0.2727 -0.5635
  325MOL0     C44747   4.629   6.116   5.277 -0.4366 -0.3348 -0.5343
  325MOL0     O44748   4.748   6.160   5.333  0.4435 -0.4904  0.0616
  325MOL0     C44749   4.840   6.225   5.245 -0.2092  0.2020 -1.0843
  325MOL0     C44750   4.982   6.215   5.301 -0.2665  0.5160  0.7788
  325MOL0     C44751   5.014   6.292   5.436  0.3741  0.2178 -0.3542
  325MOL0     C44752   5.153   6.284   5.482 -0.2276 -0.0403  1.3330
  325MOL0     C44753   5.168   6.360   5.617  0.4577  0.3106 -0.3356
  325MOL0     C44754   5.295   6.318   5.691  0.1314 -0.3363  0.3195
  325MOL0     C44755   5.355   6.406   5.810 -0.6760  0.6388 -0.8501
  325MOL0     C44756   5.266   6.417   5.933 -0.0441  0.3187 -0.0221
  325MOL0    Cl44757   5.348   6.494   6.075  0.3597 -0.1530 -0.0358
  325MOL0     C44758   4.552   6.170   5.177  0.0255 -0.1473  0.4356
  325MOL0     C44759   4.426   6.120   5.149 -0.4872 -0.0719  1.0116
  325MOL0     O44760   4.171   5.937   5.403  0.1203  0.0543 -0.5463
  325MOL0     C44761   3.953   5.798   5.277  0.8253 -0.4960  0.5224
  325MOL0     C44762   3.854   5.717   5.218 -0.1058  0.2189  0.3046
  325MOL0     N44763   3.155   5.318   5.166 -0.3846 -0.6909  0.4291
  325MOL0     N44764   3.061   5.242   5.207 -0.6118  0.2232  0.2141
  325MOL0     C44765   2.024   4.678   5.386 -0.8128 -0.7867  0.5249
  325MOL0     C44766   1.895   4.641   5.424  0.2385  0.6632  0.0787
  325MOL0     C44767   1.435   4.632   5.352 -0.6060 -0.4386  1.1995
  325MOL0     C44768   1.341   4.656   5.245  0.2302 -0.9162 -0.4622
  325MOL0     C44769   1.215   4.600   5.253 -0.2015 -0.3306 -0.1767
  325MOL0     C44770   1.185   4.497   5.337  0.0082 -0.3621 -0.1625
  325MOL0     O44771   1.072   4.427   5.335 -0.0716 -0.1769  0.7227
  325MOL0     C44772   0.981   4.443   5.444 -0.2896 -0.1576  0.5326
  325MOL0     C44773   0.849   4.516   5.422  0.3255  0.3996  0.1204
  325MOL0     C44774   0.881   4.662   5.393  0.6637  0.1243 -0.8842
  325MOL0     C44775   0.762   4.761   5.375 -0.7065 -0.1728 -1.1369
  325MOL0     C44776   0.667   4.760   5.488  0.9852  0.2923 -0.8336
  325MOL0     C44777   0.587   4.742   5.578  0.5750  0.7092  0.3100
  325MOL0     C44778   1.274   4.465   5.433 -0.5191  0.1903 -0.3658
  325MOL0     C44779   1.406   4.530   5.443 -0.5095 -0.1320  1.0127
  325MOL0     C44780   1.506   4.495   5.563  0.2012  0.2554 -0.2020
  325MOL0     H44781   1.749   4.777   5.144 -2.4302  1.4002  2.9443
  325MOL0     H44782   1.972   4.830   5.087  3.9838  1.7367  1.8138
  325MOL0     H44783   2.150   5.025   5.260  1.8682 -0.0220  1.0261
  325MOL0     H44784   2.143   4.941   5.092 -0.4864 -1.4158 -0.9586
  325MOL0     H44785   2.377   4.868   5.146 -0.9965 -0.1594 -0.1468
  325MOL0     H44786   2.356   5.041   5.107  1.4127  1.0373  0.1316
  325MOL0     H44787   2.373   5.082   5.370  1.7876  1.3337 -1.6597
  325MOL0     H44788   2.360   4.908   5.385  0.3747  0.2847  1.0161
  325MOL0     H44789   2.595   5.034   5.403  0.3891 -0.1471  1.2208
  325MOL0     H44790   2.579   4.893   5.286  1.2568  1.3806 -0.9551
  325MOL0     H44791   2.583   5.186   5.214  0.6738  0.7320  0.8567
  325MOL0     H44792   2.590   5.051   5.099 -0.2697  1.4937  0.7257
  325MOL0     H44793   2.792   5.207   5.178  2.0793  0.3745  0.6082
  325MOL0     H44794   2.802   5.100   5.313  0.1033 -2.6644 -0.3811
  325MOL0     H44795   2.870   5.038   5.025 -0.7815 -0.4596 -0.0008
  325MOL0     H44796   2.808   4.905   5.136  2.7085 -1.2089  0.0788
  325MOL0     H44797   3.008   4.970   5.289  2.6215 -0.1388  0.6945
  325MOL0     H44798   3.061   4.911   5.124 -3.1233 -0.1879 -0.3183
  325MOL0     H44799   3.254   5.030   5.051 -0.1372  0.2774 -0.0627
  325MOL0     H44800   3.336   5.341   4.928 -2.9264  0.4878  0.2806
  325MOL0     H44801   3.434   5.205   4.993  2.6459  3.3996 -3.2291
  325MOL0     H44802   3.397   5.472   5.142  0.4929 -0.0969  1.0165
  325MOL0     H44803   3.496   5.330   5.180 -0.2534 -0.5735 -0.1019
  325MOL0     H44804   3.631   5.359   4.979  0.1550  0.7930  0.6997
  325MOL0     H44805   3.543   5.507   4.938  0.4731 -0.3233  0.0979
  325MOL0     H44806   3.610   5.626   5.137  0.1249  0.5838  3.7049
  325MOL0     H44807   3.662   5.479   5.209 -1.0213  2.1514  1.7970
  325MOL0     H44808   4.042   5.545   4.998 -0.2781 -2.5141  2.2662
  325MOL0     H44809   4.286   5.796   5.015 -1.2031  1.3893  0.7086
  325MOL0     H44810   4.251   5.626   4.982  2.3230 -1.3640  1.5763
  325MOL0     H44811   4.334   5.681   5.136  3.1039  2.8345 -1.9915
  325MOL0     H44812   4.416   5.875   5.396 -1.2039  1.5764  1.2276
  325MOL0     H44813   4.641   5.966   5.430  0.8039  0.5470 -1.0665
  325MOL0     H44814   4.840   6.168   5.151  0.1720 -0.1990 -0.8483
  325MOL0     H44815   4.804   6.327   5.233 -1.5228 -0.0946  0.0899
  325MOL0     H44816   4.997   6.108   5.314  0.2239  0.1983 -1.9251
  325MOL0     H44817   5.050   6.249   5.222  2.7277  0.1221  2.9740
  325MOL0     H44818   4.953   6.250   5.517  1.6376  1.1165  1.1088
  325MOL0     H44819   4.988   6.396   5.415  2.7884  0.9787  0.0596
  325MOL0     H44820   5.216   6.338   5.410 -0.6539 -0.1089  0.9049
  325MOL0     H44821   5.183   6.179   5.490  0.6709  0.2066  1.2962
  325MOL0     H44822   5.166   6.468   5.601 -1.1531  0.2143 -0.9435
  325MOL0     H44823   5.082   6.338   5.680  2.3996 -2.6944  1.5184
  325MOL0     H44824   5.372   6.302   5.615 -1.7611 -3.1473 -1.1789
  325MOL0     H44825   5.278   6.215   5.726  0.7573 -0.8228 -0.7615
  325MOL0     H44826   5.389   6.504   5.774  0.0289  2.3606  3.7950
  325MOL0     H44827   5.439   6.347   5.848  0.0938  1.0666 -1.8417
  325MOL0     H44828   5.223   6.318   5.954 -0.0338  0.6246  1.5822
  325MOL0     H44829   5.186   6.487   5.905 -0.6401  0.0540  0.9560
  325MOL0     H44830   4.589   6.265   5.140 -2.0483  2.3478  4.0147
  325MOL0     H44831   4.370   6.171   5.072  1.9282  1.4009  0.0988
  325MOL0     H44832   3.930   5.861   5.363  2.3392 -0.0224  0.6091
  325MOL0     H44833   3.753   5.726   5.259 -0.4248  1.8271 -0.7454
  325MOL0     H44834   2.112   4.649   5.443  0.4782 -0.9910 -1.4566
  325MOL0     H44835   1.876   4.580   5.511  0.1618  1.9567  0.9949
  325MOL0     H44836   1.355   4.721   5.159 -1.0355  1.7897  1.2358
  325MOL0     H44837   1.144   4.621   5.174  1.8825 -3.3300 -3.1174
  325MOL0     H44838   0.959   4.342   5.482 -0.1586 -0.5032 -0.2924
  325MOL0     H44839   1.028   4.496   5.528  0.4368  1.0925 -0.6160
  325MOL0     H44840   0.782   4.500   5.507 -2.3585  0.4198 -1.8918
  325MOL0     H44841   0.804   4.467   5.335 -1.2663  1.0698  0.5327
  325MOL0     H44842   0.942   4.696   5.476  0.0570 -1.9734  0.4942
  325MOL0     H44843   0.949   4.667   5.307  2.7299 -0.9306  0.6212
  325MOL0     H44844   0.715   4.746   5.277  2.5814  1.2531 -3.1013
  325MOL0     H44845   0.809   4.860   5.383  2.3798 -1.6815  1.0495
  325MOL0     H44846   0.522   4.720   5.660  3.6599 -1.9986  2.2766
  325MOL0     H44847   1.253   4.381   5.499  0.7447  0.4340  0.3919
  325MOL0     H44848   1.511   4.581   5.630  1.5316  0.8208 -0.9767
  325MOL0     H44849   1.457   4.412   5.615 -2.2024  0.6909 -1.6218
  325MOL0     H44850   1.605   4.461   5.530 -0.0998 -1.3674  0.4803
  326MOL0     O44851   1.018   5.342   7.690 -0.0217 -0.6976  0.0801
  326MOL0     C44852   0.920   5.266   7.697 -0.6456  0.1714  0.2218
  326MOL0     O44853   0.919   5.141   7.740  0.3654 -0.0372 -0.0189
  326MOL0     C44854   1.030   5.071   7.762  0.5568  0.0645  0.0087
  326MOL0     C44855   1.086   5.042   7.891 -0.0309  0.5987 -0.0886
  326MOL0     C44856   1.211   4.981   7.896 -0.3221 -0.3877 -0.6152
  326MOL0     C44857   1.283   4.944   7.787  0.0342 -0.1169  0.3417
  326MOL0     O44858   1.410   4.900   7.804 -0.0504 -0.4249 -0.2738
  326MOL0     C44859   1.503   4.988   7.880  0.4990  0.6558 -0.4599
  326MOL0     C44860   1.632   4.999   7.808  0.1671  0.2031  1.0524
  326MOL0     C44861   1.747   5.045   7.891 -0.4746 -0.1997 -0.4668
  326MOL0     C44862   1.886   5.018   7.835 -0.5195 -0.1375 -0.7522
  326MOL0     C44863   1.906   5.090   7.702  0.1627  0.1468 -0.3758
  326MOL0     C44864   2.052   5.066   7.657  0.1618 -0.5232 -0.1912
  326MOL0     C44865   2.077   5.116   7.519 -0.1592 -0.0034 -0.4607
  326MOL0     C44866   2.202   5.054   7.470 -0.3109  0.3474  0.4069
  326MOL0     N44867   2.320   5.073   7.557  0.3095 -0.4564 -0.1307
  326MOL0     C44868   2.393   4.960   7.607  0.7622 -0.2004  0.1708
  326MOL0     C44869   2.510   5.022   7.659  0.1112 -0.1458 -0.0720
  326MOL0     C44870   2.625   4.938   7.712 -0.1212 -0.7220 -0.3629
  326MOL0     C44871   2.645   4.957   7.868 -0.4709 -0.1226  0.2298
  326MOL0     C44872   2.746   4.856   7.923  0.4277 -0.0633 -0.2130
  326MOL0     C44873   2.889   4.896   7.901 -0.0884  0.3818 -0.5265
  326MOL0     O44874   2.920   5.026   7.957  0.5082 -0.7993 -0.1428
  326MOL0     C44875   3.056   5.046   7.969  0.3423  0.7224  0.0163
  326MOL0     C44876   3.157   4.993   7.889 -0.2044 -0.0333  0.1665
  326MOL0     C44877   3.293   5.027   7.904  0.2339  0.4594  0.3023
  326MOL0     C44878   3.393   4.952   7.820 -0.7957  0.2748 -0.1739
  326MOL0     C44879   3.325   5.142   7.986 -0.7767  0.4844 -0.5823
  326MOL0     C44880   3.457   5.200   7.995  0.3810  0.0265 -0.8674
  326MOL0     O44881   3.462   5.334   8.009  0.1108  0.3435  0.4335
  326MOL0     C44882   3.587   5.393   8.045  0.0793  0.3473  0.4958
  326MOL0     C44883   3.642   5.490   7.959 -0.1021  0.5963 -0.1066
  326MOL0     C44884   3.756   5.559   7.991 -0.1363 -0.1884 -0.3582
  326MOL0     C44885   3.820   5.525   8.111  0.0777 -0.4658  0.3055
  326MOL0     O44886   3.946   5.587   8.123  0.8105 -0.0479  0.1608
  326MOL0     C44887   4.035   5.527   8.208  0.2780  0.0828 -0.1919
  326MOL0     C44888   4.143   5.623   8.253  0.7022  0.5192 -0.4800
  326MOL0     C44889   4.241   5.534   8.336 -0.6561 -0.5614 -0.2815
  326MOL0     C44890   4.346   5.623   8.391  0.9941  0.2938 -0.0610
  326MOL0     C44891   4.294   5.734   8.487 -0.8229  0.9563 -0.1688
  326MOL0     C44892   4.405   5.799   8.568 -0.1109  0.3809 -0.6549
  326MOL0     C44893   4.443   5.698   8.679 -0.0417  0.5913 -0.2571
  326MOL0     C44894   4.542   5.771   8.777 -0.5628  0.6295  0.0616
  326MOL0    Cl44895   4.498   5.914   8.851  0.2920 -0.3248 -0.3679
  326MOL0     C44896   3.764   5.436   8.194  0.1562 -0.1024 -0.5057
  326MOL0     C44897   3.644   5.366   8.162  0.0632  0.5759 -0.2288
  326MOL0     O44898   3.556   5.126   7.995 -0.4701 -0.6260 -0.3723
  326MOL0     C44899   3.223   5.187   8.067  0.5006  0.4109 -0.6721
  326MOL0     C44900   3.093   5.147   8.048  0.0597 -0.0536 -0.1713
  326MOL0     N44901   2.495   5.159   7.657 -0.0859 -0.8034  0.2058
  326MOL0     N44902   2.386   5.192   7.578 -0.1541  0.4511  0.1481
  326MOL0     C44903   1.231   4.972   7.661 -0.4978  0.0417 -0.2615
  326MOL0     C44904   1.104   5.031   7.648  0.5161 -0.1610  0.0563
  326MOL0     C44905   0.791   5.328   7.664 -0.7966 -0.2513 -0.0302
  326MOL0     C44906   0.678   5.263   7.716  0.3401 -0.3966 -0.2269
  326MOL0     C44907   0.548   5.313   7.691  0.7159 -0.1191 -0.2399
  326MOL0     C44908   0.534   5.427   7.622  0.5900 -0.1407  0.4034
  326MOL0     O44909   0.416   5.500   7.605  0.1873 -0.3149  0.6133
  326MOL0     C44910   0.285   5.450   7.646  0.0279  0.2090 -0.7471
  326MOL0     C44911   0.178   5.555   7.652  0.3664  0.5469  0.3941
  326MOL0     C44912   0.190   5.666   7.760 -0.8268  0.3660  0.6043
  326MOL0     C44913   0.128   5.816   7.748 -0.2718 -1.3302 -1.0273
  326MOL0     C44914   0.170   5.910   7.865 -0.2851  0.0700  0.3528
  326MOL0     C44915   0.211   5.996   7.947  0.1796  0.7146  0.2471
  326MOL0     C44916   0.643   5.491   7.573 -0.3497  0.3638 -0.5697
  326MOL0     C44917   0.774   5.446   7.583  0.9053 -0.6044 -0.7586
  326MOL0     C44918   0.881   5.519   7.505 -0.0271  0.1480 -0.4111
  326MOL0     H44919   1.041   5.058   7.988 -0.1155 -0.4404  0.0547
  326MOL0     H44920   1.249   4.934   7.986  1.5601 -0.2593 -1.2995
  326MOL0     H44921   1.512   4.956   7.984  1.6202 -0.9007 -0.9967
  326MOL0     H44922   1.456   5.087   7.884 -1.3808 -0.2199  1.9746
  326MOL0     H44923   1.655   4.901   7.766  2.6088  1.2424 -0.2129
  326MOL0     H44924   1.621   5.068   7.725  2.5279  0.7833  1.1668
  326MOL0     H44925   1.751   5.155   7.895  2.1348 -0.2403 -0.2561
  326MOL0     H44926   1.747   4.992   7.986 -1.0361 -3.8048 -2.3300
  326MOL0     H44927   1.973   5.034   7.899 -2.0951  1.0131  1.1923
  326MOL0     H44928   1.898   4.911   7.813 -0.3899 -0.1008 -0.8624
  326MOL0     H44929   1.882   5.196   7.696  2.5890  0.7238 -1.3975
  326MOL0     H44930   1.841   5.048   7.625  1.7721 -2.3281 -0.5334
  326MOL0     H44931   2.121   5.109   7.729  0.1142  0.0805 -0.5011
  326MOL0     H44932   2.073   4.959   7.664  4.9499  0.1843 -0.3660
  326MOL0     H44933   2.091   5.224   7.511  2.0090 -0.3456 -2.1611
  326MOL0     H44934   1.995   5.094   7.450 -0.3963  0.0919 -0.2137
  326MOL0     H44935   2.183   4.948   7.450 -0.8181  0.8216 -1.9047
  326MOL0     H44936   2.224   5.104   7.376 -0.6583  1.4800  0.9139
  326MOL0     H44937   2.380   4.857   7.576  2.1251  0.1748 -1.8768
  326MOL0     H44938   2.712   4.968   7.652 -0.5787 -0.4974 -0.9283
  326MOL0     H44939   2.606   4.831   7.698 -1.7293 -0.5723  0.5295
  326MOL0     H44940   2.676   5.059   7.891  0.6765 -0.8906  2.3346
  326MOL0     H44941   2.552   4.932   7.920  0.7898 -1.7528  1.8275
  326MOL0     H44942   2.719   4.852   8.029  0.7776  0.6235 -0.0925
  326MOL0     H44943   2.732   4.761   7.870 -0.0496 -0.2164  0.1816
  326MOL0     H44944   2.947   4.820   7.954  0.4008  0.5601 -0.7986
  326MOL0     H44945   2.917   4.894   7.795 -1.5773 -0.1457 -0.9431
  326MOL0     H44946   3.133   4.916   7.816 -2.3953  0.1595  0.6118
  326MOL0     H44947   3.443   5.023   7.755  0.6044 -0.0716  0.4788
  326MOL0     H44948   3.357   4.869   7.759 -1.5940  0.7920 -0.4165
  326MOL0     H44949   3.472   4.913   7.885  3.1088  4.1584 -2.0667
  326MOL0     H44950   3.586   5.515   7.869 -0.5153 -1.7093 -0.5598
  326MOL0     H44951   3.784   5.637   7.921  0.2376 -0.6959 -0.7808
  326MOL0     H44952   4.002   5.479   8.300  1.9506 -1.5496 -0.3807
  326MOL0     H44953   4.077   5.447   8.146 -2.3689 -0.3986 -1.4647
  326MOL0     H44954   4.175   5.674   8.162  1.0308 -0.8827 -1.1605
  326MOL0     H44955   4.088   5.691   8.320 -1.2213 -1.7263  0.3514
  326MOL0     H44956   4.289   5.458   8.274 -1.6628  0.8789 -3.0376
  326MOL0     H44957   4.182   5.501   8.422 -2.1146  1.4852 -0.4025
  326MOL0     H44958   4.399   5.670   8.307  0.7440  0.8116  0.0685
  326MOL0     H44959   4.423   5.573   8.451 -0.3505 -1.4953  0.2549
  326MOL0     H44960   4.255   5.820   8.433  1.6256  1.6743 -0.9238
  326MOL0     H44961   4.222   5.691   8.558  0.7439 -1.0902  0.2780
  326MOL0     H44962   4.380   5.889   8.625 -0.4000  0.0414 -0.2545
  326MOL0     H44963   4.483   5.836   8.500 -1.2732  0.2103 -2.1399
  326MOL0     H44964   4.490   5.610   8.632 -0.2362  1.2559 -1.7590
  326MOL0     H44965   4.364   5.664   8.747  1.2624  0.1313  1.0813
  326MOL0     H44966   4.622   5.802   8.710 -0.2843  0.0095  0.1042
  326MOL0     H44967   4.582   5.707   8.856 -1.7549 -1.3498 -0.8503
  326MOL0     H44968   3.811   5.406   8.287  1.0035  4.3058  0.7096
  326MOL0     H44969   3.610   5.298   8.239 -2.3508  1.8727 -0.0786
  326MOL0     H44970   3.252   5.253   8.149  1.8053 -0.8544 -0.0686
  326MOL0     H44971   3.022   5.198   8.112  0.1686  3.5444 -2.6454
  326MOL0     H44972   1.298   4.948   7.579  0.8339  0.7773  0.5844
  326MOL0     H44973   1.054   5.049   7.553  0.4775  0.3151  0.1668
  326MOL0     H44974   0.688   5.170   7.770  1.6607 -3.2366 -4.8165
  326MOL0     H44975   0.465   5.260   7.737  0.7732  0.2603  0.3027
  326MOL0     H44976   0.265   5.362   7.584  2.7072 -1.0811  0.0491
  326MOL0     H44977   0.308   5.426   7.751  3.2206  3.1555 -0.6207
  326MOL0     H44978   0.080   5.509   7.669  0.1283  1.1119  0.6115
  326MOL0     H44979   0.174   5.590   7.549  1.7495  2.6336  0.9747
  326MOL0     H44980   0.176   5.626   7.861  3.5003 -2.1884  0.4742
  326MOL0     H44981   0.299   5.676   7.773 -0.7542 -1.0412  1.3075
  326MOL0     H44982   0.020   5.810   7.765 -0.0581  1.1743  2.1260
  326MOL0     H44983   0.156   5.869   7.656  0.5233  0.5156  0.2257
  326MOL0     H44984   0.255   6.068   8.013  1.1693  1.6978 -1.4290
  326MOL0     H44985   0.630   5.585   7.521 -1.0827  2.1220  2.4974
  326MOL0     H44986   0.848   5.561   7.410 -1.3825  2.7647  1.1108
  326MOL0     H44987   0.916   5.608   7.558 -0.7599  0.9179 -1.1878
  326MOL0     H44988   0.960   5.455   7.465 -0.0679  1.5966 -3.0116
  327MOL0     O44989   4.856   0.271   6.090 -0.4280 -0.2416  0.3666
  327MOL0     C44990   4.797   0.179   6.151 -0.2164  0.1729  0.6619
  327MOL0     O44991   4.674   0.180   6.203  0.1058  0.4208  0.4449
  327MOL0     C44992   4.590   0.294   6.182  0.5636  0.2166  0.8578
  327MOL0     C44993   4.609   0.405   6.097 -0.2971  0.0984 -0.3250
  327MOL0     C44994   4.507   0.496   6.077  0.3317  0.1646 -0.1523
  327MOL0     C44995   4.381   0.471   6.124 -0.1731  0.0228  0.7282
  327MOL0     O44996   4.287   0.568   6.085 -0.6386  1.1142  0.3779
  327MOL0     C44997   4.161   0.581   6.162  0.1346 -0.1265  0.3752
  327MOL0     C44998   4.070   0.690   6.099  0.7053  0.3087  1.4562
  327MOL0     C44999   4.146   0.823   6.110  0.1158 -0.7074 -0.3231
  327MOL0     C45000   4.069   0.954   6.075 -0.2475  0.3087  1.2654
  327MOL0     C45001   4.153   1.083   6.087  0.1636 -0.0321 -0.2881
  327MOL0     C45002   4.224   1.102   6.224 -0.3022 -0.8087  0.0245
  327MOL0     C45003   4.123   1.117   6.338 -0.2648 -0.3838 -0.2212
  327MOL0     C45004   4.182   1.122   6.477 -1.2844  0.5162 -0.8147
  327MOL0     N45005   4.251   0.993   6.518  0.1121 -1.0919  0.3580
  327MOL0     C45006   4.387   0.983   6.494 -0.9300  1.3906 -0.8305
  327MOL0     C45007   4.418   0.854   6.504  0.2463  1.1929  0.8104
  327MOL0     C45008   4.549   0.784   6.500  0.3026  0.3438  0.4826
  327MOL0     C45009   4.584   0.692   6.372 -0.3306 -0.0144 -0.4731
  327MOL0     C45010   4.712   0.612   6.410  0.5246 -0.4960  0.2596
  327MOL0     C45011   4.839   0.684   6.368  0.8689  0.5850 -0.4375
  327MOL0     O45012   4.932   0.584   6.353 -0.6387 -0.2260  0.3446
  327MOL0     C45013   5.049   0.617   6.283  0.1591 -1.0805 -1.1323
  327MOL0     C45014   5.133   0.718   6.334 -0.9686  0.0955 -0.0951
  327MOL0     C45015   5.257   0.743   6.281 -0.7003  0.1223  0.1741
  327MOL0     C45016   5.321   0.869   6.328 -0.2551 -0.9495 -0.0206
  327MOL0     C45017   5.315   0.647   6.198  0.2005  0.0627  0.3846
  327MOL0     C45018   5.450   0.643   6.147 -1.0870 -0.7718 -0.4008
  327MOL0     O45019   5.480   0.568   6.035 -0.1529 -0.5677 -0.9278
  327MOL0     C45020   5.618   0.570   6.005  0.1810  0.3657 -0.2673
  327MOL0     C45021   5.722   0.530   6.093  0.1441 -0.0812 -0.0513
  327MOL0     C45022   5.855   0.515   6.051  1.0027 -0.3388  0.1317
  327MOL0     C45023   5.886   0.534   5.920  0.5167  0.0770 -0.6344
  327MOL0     O45024   6.016   0.495   5.886 -0.0812 -1.0627 -0.0783
  327MOL0     C45025   6.091   0.602   5.843  0.6268 -0.5438 -1.3378
  327MOL0     C45026   6.238   0.563   5.810 -0.2948 -0.0741  0.1264
  327MOL0     C45027   6.323   0.674   5.744  0.1574 -0.2859  0.7156
  327MOL0     C45028   6.474   0.651   5.726 -1.0534  0.9674 -0.1989
  327MOL0     C45029   6.544   0.778   5.683  0.0231 -0.4139  0.0826
  327MOL0     C45030   6.483   0.844   5.551  0.0201  0.0562 -0.6997
  327MOL0     C45031   6.476   0.753   5.427 -0.8067 -0.2949 -0.7815
  327MOL0     C45032   6.466   0.818   5.292  0.3262 -0.3776 -0.4979
  327MOL0    Cl45033   6.311   0.908   5.263  0.0186 -0.3116  0.2372
  327MOL0     C45034   5.784   0.587   5.836 -0.5525 -0.7638  0.1553
  327MOL0     C45035   5.655   0.611   5.879  0.8863  0.4191 -0.3720
  327MOL0     O45036   5.532   0.687   6.227 -0.1898  0.2019  0.4311
  327MOL0     C45037   5.232   0.550   6.142 -0.4084  0.3484 -0.5634
  327MOL0     C45038   5.098   0.534   6.189  0.3313  0.0374  0.5882
  327MOL0     N45039   4.303   0.787   6.542  0.0950  0.1047  1.0874
  327MOL0     N45040   4.201   0.873   6.547 -0.4033  0.2574  0.2496
  327MOL0     C45041   4.357   0.365   6.210  0.7698 -0.1225  0.5408
  327MOL0     C45042   4.457   0.271   6.233 -0.0534  0.6659 -0.6237
  327MOL0     C45043   4.858   0.048   6.162 -0.6691  0.1207  0.4673
  327MOL0     C45044   4.795  -0.063   6.213  0.4449  0.1442 -0.3025
  327MOL0     C45045   4.856  -0.182   6.241 -0.1514  0.0414 -0.0753
  327MOL0     C45046   4.983  -0.206   6.210 -0.1361 -0.0220  0.0890
  327MOL0     O45047   5.040  -0.326   6.227 -0.5659  0.8164 -0.3075
  327MOL0     C45048   4.976  -0.443   6.167  0.2933 -0.2135 -0.1175
  327MOL0     C45049   4.973  -0.551   6.274  0.3478 -0.4702 -0.0830
  327MOL0     C45050   4.903  -0.676   6.226 -0.5534  0.1211 -0.7605
  327MOL0     C45051   4.941  -0.794   6.320 -0.6736 -0.0034  0.0385
  327MOL0     C45052   4.849  -0.808   6.433  0.6802 -0.0037 -0.6476
  327MOL0     C45053   4.767  -0.826   6.521  0.4070 -0.1694 -0.0862
  327MOL0     C45054   5.056  -0.101   6.160  0.3952  0.2104 -0.4366
  327MOL0     C45055   4.996   0.024   6.134 -0.7429 -0.5048 -0.0460
  327MOL0     C45056   5.106   0.129   6.088 -0.1017 -0.4595 -0.2861
  327MOL0     H45057   4.699   0.427   6.041 -0.1988 -2.5866 -1.3711
  327MOL0     H45058   4.516   0.577   6.005 -0.0056 -0.9291 -1.4744
  327MOL0     H45059   4.182   0.605   6.266  0.4451  0.3370  0.2074
  327MOL0     H45060   4.105   0.488   6.144 -3.6464  2.0889 -0.4493
  327MOL0     H45061   4.055   0.664   5.994 -1.4231  1.8766  1.3098
  327MOL0     H45062   3.973   0.685   6.149  0.4696  1.6637  1.1773
  327MOL0     H45063   4.188   0.822   6.211  0.2248  1.5341 -0.3097
  327MOL0     H45064   4.242   0.819   6.057  0.0521 -2.6383 -0.3650
  327MOL0     H45065   4.038   0.949   5.970 -1.3619  1.3739  1.5182
  327MOL0     H45066   3.986   0.957   6.146  0.4899 -1.9751  2.3301
  327MOL0     H45067   4.085   1.166   6.068 -3.2069 -2.1628  1.4781
  327MOL0     H45068   4.228   1.083   6.007  2.1793  3.6265  1.3455
  327MOL0     H45069   4.298   1.024   6.243 -0.3404 -0.9637 -0.4604
  327MOL0     H45070   4.271   1.200   6.218 -0.4705 -0.5476  2.0763
  327MOL0     H45071   4.054   1.033   6.335  0.4854 -0.9862 -2.5986
  327MOL0     H45072   4.070   1.213   6.332  0.5063  0.5413  4.2154
  327MOL0     H45073   4.242   1.213   6.491 -0.2466 -0.4549  1.6601
  327MOL0     H45074   4.101   1.124   6.550 -0.9518 -2.3127 -0.2753
  327MOL0     H45075   4.463   1.053   6.461 -0.2380  1.0236 -0.0449
  327MOL0     H45076   4.556   0.715   6.584  1.0100 -0.6371 -0.3453
  327MOL0     H45077   4.626   0.862   6.506  0.8325 -0.2003  0.9373
  327MOL0     H45078   4.502   0.620   6.367 -2.0848  1.7989  0.6619
  327MOL0     H45079   4.582   0.763   6.290 -0.0538  0.5119 -0.0295
  327MOL0     H45080   4.728   0.595   6.517  2.0382 -0.0289  0.1404
  327MOL0     H45081   4.711   0.511   6.366 -0.8477  0.0614 -1.0719
  327MOL0     H45082   4.819   0.744   6.279 -1.8593  0.1217 -0.2440
  327MOL0     H45083   4.882   0.751   6.443  0.0137 -0.0367  0.6478
  327MOL0     H45084   5.098   0.796   6.401 -1.2245 -1.7073  1.9574
  327MOL0     H45085   5.383   0.907   6.247 -0.3525  0.8707  0.7094
  327MOL0     H45086   5.392   0.861   6.412 -2.0389  1.1679  1.8390
  327MOL0     H45087   5.250   0.950   6.352 -1.5856 -2.1434  0.2122
  327MOL0     H45088   5.707   0.512   6.199 -0.9505  1.9787  0.2033
  327MOL0     H45089   5.943   0.496   6.111  1.7089  0.9025 -0.4671
  327MOL0     H45090   6.051   0.656   5.757  0.4354 -0.2836 -1.0879
  327MOL0     H45091   6.088   0.673   5.926  0.7179 -1.1237 -0.8260
  327MOL0     H45092   6.289   0.543   5.905  1.3766  0.4902 -0.6293
  327MOL0     H45093   6.240   0.472   5.750 -0.6118  0.0485 -0.0716
  327MOL0     H45094   6.317   0.765   5.803  3.3446 -0.2335  1.1568
  327MOL0     H45095   6.283   0.696   5.644 -2.5254  2.7977  2.2789
  327MOL0     H45096   6.505   0.573   5.655  2.7032  2.9109 -0.9615
  327MOL0     H45097   6.507   0.615   5.823  1.7285 -0.3553 -1.5166
  327MOL0     H45098   6.523   0.847   5.765 -1.4892  0.6418 -1.1465
  327MOL0     H45099   6.652   0.759   5.677 -0.1508 -1.5499  0.2825
  327MOL0     H45100   6.546   0.932   5.535 -0.7664  1.0306  1.1776
  327MOL0     H45101   6.381   0.880   5.571  0.4212  0.4901  0.7310
  327MOL0     H45102   6.389   0.689   5.444 -2.2051  1.8290  0.6842
  327MOL0     H45103   6.569   0.696   5.420  0.7412  1.7145  1.7513
  327MOL0     H45104   6.458   0.728   5.230  1.5717 -0.4959 -0.5128
  327MOL0     H45105   6.556   0.877   5.275  0.5700 -1.4014 -3.3474
  327MOL0     H45106   5.811   0.599   5.732 -1.4013 -0.3900 -0.0269
  327MOL0     H45107   5.587   0.644   5.801 -0.4116 -1.0898  0.0646
  327MOL0     H45108   5.258   0.477   6.066 -0.8325  2.0925 -2.4770
  327MOL0     H45109   5.030   0.459   6.150 -2.9811  2.2203  1.7450
  327MOL0     H45110   4.260   0.338   6.251  0.5595  2.0809  1.6268
  327MOL0     H45111   4.438   0.177   6.283  0.7115 -0.4708 -2.3848
  327MOL0     H45112   4.688  -0.071   6.232 -0.0271 -0.1640 -2.7732
  327MOL0     H45113   4.816  -0.270   6.291 -1.6293  0.6716 -0.0894
  327MOL0     H45114   4.876  -0.419   6.129 -0.1114 -0.4274  0.7901
  327MOL0     H45115   5.028  -0.487   6.081  0.2394  0.8293 -0.6969
  327MOL0     H45116   4.920  -0.520   6.364  0.1496  1.4882 -0.8299
  327MOL0     H45117   5.075  -0.583   6.295  0.2842 -1.8088 -1.6428
  327MOL0     H45118   4.794  -0.671   6.214 -0.6425  1.8642  0.3101
  327MOL0     H45119   4.937  -0.701   6.125 -0.4696  0.2520 -0.7648
  327MOL0     H45120   5.045  -0.799   6.354  0.1295  0.0545 -2.1915
  327MOL0     H45121   4.933  -0.886   6.261 -0.4255 -2.1774  3.1704
  327MOL0     H45122   4.689  -0.817   6.594  1.0544 -2.9400  1.1018
  327MOL0     H45123   5.161  -0.118   6.142  0.2000 -0.3333 -1.1377
  327MOL0     H45124   5.202   0.079   6.076  0.3083 -0.0968  1.1840
  327MOL0     H45125   5.075   0.160   5.988 -0.3880 -2.3855 -0.8271
  327MOL0     H45126   5.110   0.208   6.164  2.5668 -4.1285  3.8639
  328MOL0     O45127   7.571   2.908   7.293  0.7000 -0.3484  0.3272
  328MOL0     C45128   7.515   2.949   7.191  0.6864  0.1512 -0.0722
  328MOL0     O45129   7.572   2.996   7.088 -0.5545  0.2709 -0.1127
  328MOL0     C45130   7.703   3.031   7.102 -0.3430  0.7857  0.2611
  328MOL0     C45131   7.788   2.932   7.068 -0.2318  0.8411  0.7520
  328MOL0     C45132   7.929   2.962   7.062  0.3720  0.1503  0.1491
  328MOL0     C45133   7.970   3.091   7.082  0.1530 -0.1841  0.0306
  328MOL0     O45134   8.111   3.103   7.082 -0.3716  0.1599  0.3277
  328MOL0     C45135   8.180   3.217   7.023  0.2827 -0.4688 -1.1137
  328MOL0     C45136   8.164   3.230   6.872  0.5600 -0.3009  0.0029
  328MOL0     C45137   8.251   3.333   6.795  0.1054  0.3718  0.0412
  328MOL0     C45138   8.381   3.266   6.751 -0.5131 -0.8043 -0.5799
  328MOL0     C45139   8.465   3.366   6.663  0.5592  0.1569  0.5149
  328MOL0     C45140   8.616   3.346   6.681  0.4216  0.2049  0.0301
  328MOL0     C45141   8.712   3.448   6.611  0.8227 -0.0826  0.7453
  328MOL0     C45142   8.845   3.371   6.606 -0.4292  0.0756  0.5640
  328MOL0     N45143   8.893   3.314   6.722 -0.6801 -0.6121 -0.2860
  328MOL0     C45144   8.913   3.179   6.756  0.3472 -0.5298 -0.0530
  328MOL0     C45145   8.960   3.175   6.881 -0.0155  0.3252  0.2546
  328MOL0     C45146   8.997   3.047   6.951  0.2800 -0.6474 -0.6587
  328MOL0     C45147   9.125   2.980   6.896 -0.4465 -0.0367  0.2317
  328MOL0     C45148   9.187   2.888   7.008 -0.2077  0.0645  1.1364
  328MOL0     C45149   9.299   2.816   6.926  0.0337 -1.0850  0.4930
  328MOL0     O45150   9.382   2.917   6.864 -0.5518  0.0136 -0.2823
  328MOL0     C45151   9.500   2.882   6.803  0.1439  0.4384  0.1195
  328MOL0     C45152   9.583   2.989   6.761  0.8767  0.9335 -0.1548
  328MOL0     C45153   9.710   2.970   6.714 -0.0093  0.1932  0.7856
  328MOL0     C45154   9.801   3.089   6.682 -0.7946 -0.4663  0.4295
  328MOL0     C45155   9.752   2.838   6.678 -0.6120 -0.0344 -0.7857
  328MOL0     C45156   9.877   2.806   6.614 -0.1097  0.2629 -0.1029
  328MOL0     O45157   9.938   2.685   6.646 -0.4646  0.1987  0.3950
  328MOL0     C45158  10.050   2.640   6.573  0.0475 -0.3001 -0.2332
  328MOL0     C45159  10.042   2.532   6.486  1.3528  0.5160  0.3776
  328MOL0     C45160  10.145   2.484   6.415 -0.1989 -0.2237  0.5677
  328MOL0     C45161  10.264   2.547   6.409 -0.2111 -1.0411 -0.2641
  328MOL0     O45162  10.351   2.494   6.323 -0.2967  0.1488  0.2933
  328MOL0     C45163  10.488   2.541   6.332  0.5418  0.1831 -0.1651
  328MOL0     C45164  10.562   2.442   6.242  0.4385  0.1079  0.6747
  328MOL0     C45165  10.598   2.313   6.318 -0.0388 -0.3925 -0.1255
  328MOL0     C45166  10.698   2.229   6.226 -0.6403 -0.5866 -0.0840
  328MOL0     C45167  10.681   2.080   6.261  0.9948 -0.6476  0.8408
  328MOL0     C45168  10.820   2.014   6.286  0.1220 -0.2245  0.1488
  328MOL0     C45169  10.795   1.868   6.338  0.1572  0.1250 -0.0557
  328MOL0     C45170  10.906   1.773   6.303  1.1330 -0.2911 -0.0452
  328MOL0    Cl45171  11.062   1.807   6.377 -0.0487  0.6845  0.1670
  328MOL0     C45172  10.283   2.655   6.496  0.7813 -0.2970 -0.3149
  328MOL0     C45173  10.178   2.699   6.583  0.1550 -0.6435  0.0506
  328MOL0     O45174   9.926   2.886   6.539 -0.8951  0.2814 -0.0586
  328MOL0     C45175   9.667   2.728   6.714  1.5492 -0.3513 -0.1604
  328MOL0     C45176   9.544   2.748   6.778  0.4997 -0.5027  0.0751
  328MOL0     N45177   8.959   3.305   6.927 -0.6366 -1.2432 -0.4397
  328MOL0     N45178   8.928   3.387   6.834 -0.6730  0.4415  0.5613
  328MOL0     C45179   7.876   3.192   7.119 -0.0848 -0.0959 -0.9919
  328MOL0     C45180   7.740   3.164   7.123  0.2272 -0.5707 -0.3067
  328MOL0     C45181   7.368   2.955   7.212  0.8666 -0.0524  0.1688
  328MOL0     C45182   7.296   2.982   7.096  0.1048 -0.2060 -0.1605
  328MOL0     C45183   7.159   2.993   7.085  0.2957  0.5112  0.2254
  328MOL0     C45184   7.087   2.962   7.202 -0.3257 -0.2813 -0.0273
  328MOL0     O45185   6.944   2.964   7.210 -0.2995 -0.4637 -0.9519
  328MOL0     C45186   6.908   3.100   7.250 -0.7465  0.2834 -0.1672
  328MOL0     C45187   6.782   3.089   7.335 -0.5768  0.2319 -0.3800
  328MOL0     C45188   6.658   3.049   7.239 -0.1625 -0.1172 -0.0870
  328MOL0     C45189   6.551   2.968   7.302 -0.5856 -0.3096 -0.3545
  328MOL0     C45190   6.459   3.047   7.385  0.1747 -0.1247  0.3927
  328MOL0     C45191   6.373   3.099   7.452  0.6085 -0.0269  0.1081
  328MOL0     C45192   7.158   2.921   7.313  0.3974 -0.4238  0.0398
  328MOL0     C45193   7.293   2.928   7.329 -0.7473 -0.2182 -0.1623
  328MOL0     C45194   7.343   2.869   7.455 -0.1567 -0.5703  0.3813
  328MOL0     H45195   7.747   2.836   7.041 -0.9817  1.2521  0.4136
  328MOL0     H45196   7.990   2.884   7.018  0.0537 -0.7226  1.1847
  328MOL0     H45197   8.287   3.203   7.041  0.7195  1.1387 -2.2532
  328MOL0     H45198   8.156   3.314   7.067  1.5293 -0.4466 -0.4333
  328MOL0     H45199   8.177   3.132   6.824 -0.9973 -0.8768  0.6963
  328MOL0     H45200   8.058   3.258   6.868  0.6842  0.1373 -0.3299
  328MOL0     H45201   8.199   3.372   6.707 -0.6948 -2.6518 -0.9144
  328MOL0     H45202   8.281   3.417   6.859 -1.6162  3.5007 -2.8911
  328MOL0     H45203   8.440   3.232   6.837  2.4042 -0.2691 -2.2287
  328MOL0     H45204   8.357   3.183   6.684 -1.6805  1.4690 -3.1278
  328MOL0     H45205   8.443   3.470   6.687 -1.9422  0.0019 -0.7729
  328MOL0     H45206   8.418   3.350   6.565 -4.4934 -0.0760  2.6571
  328MOL0     H45207   8.641   3.330   6.786 -1.0191 -3.8497 -0.0619
  328MOL0     H45208   8.642   3.248   6.639 -1.2304 -0.6166  0.8473
  328MOL0     H45209   8.725   3.537   6.674 -2.0262  1.7554 -1.0263
  328MOL0     H45210   8.683   3.481   6.511  0.7655 -1.4337  0.2957
  328MOL0     H45211   8.828   3.282   6.544  2.7725 -1.7319  2.0343
  328MOL0     H45212   8.915   3.432   6.547 -2.9048  1.3217 -1.3263
  328MOL0     H45213   8.889   3.092   6.696 -1.5740 -0.2678  0.2688
  328MOL0     H45214   8.918   2.977   6.924 -0.6926  0.4977 -0.8224
  328MOL0     H45215   8.995   3.066   7.059 -1.4083 -1.4549 -0.5191
  328MOL0     H45216   9.087   2.908   6.823 -2.7428  1.6340 -0.3374
  328MOL0     H45217   9.195   3.057   6.862 -0.0488 -0.0823  0.9432
  328MOL0     H45218   9.221   2.945   7.095  1.5777  2.5181 -1.0060
  328MOL0     H45219   9.112   2.817   7.042 -1.5390  1.6693  1.6913
  328MOL0     H45220   9.344   2.751   7.001  0.1240  0.2144  1.6035
  328MOL0     H45221   9.259   2.754   6.845  3.5505  0.5828 -2.8283
  328MOL0     H45222   9.551   3.090   6.785  1.3982  1.0201  0.2126
  328MOL0     H45223   9.789   3.113   6.576  5.0000 -1.4070 -0.7730
  328MOL0     H45224   9.908   3.082   6.704 -0.5072  0.4397 -0.5927
  328MOL0     H45225   9.767   3.171   6.746 -3.4510 -0.5243 -0.7940
  328MOL0     H45226   9.947   2.481   6.492  0.9829  1.3349  2.0183
  328MOL0     H45227  10.128   2.394   6.355 -2.4005 -0.6827  1.7446
  328MOL0     H45228  10.498   2.643   6.293  0.1302 -0.5067 -2.2293
  328MOL0     H45229  10.520   2.538   6.436  0.4160 -0.3224 -0.1397
  328MOL0     H45230  10.501   2.420   6.154  2.6367  0.6073 -1.0651
  328MOL0     H45231  10.660   2.479   6.210  1.2569 -0.5209  2.3215
  328MOL0     H45232  10.516   2.244   6.343 -0.0793  0.1091  1.2144
  328MOL0     H45233  10.659   2.328   6.407 -0.9966 -0.5431  0.5786
  328MOL0     H45234  10.796   2.274   6.249 -1.9421  2.3659  0.1842
  328MOL0     H45235  10.672   2.241   6.121  0.9546 -0.0191 -0.4462
  328MOL0     H45236  10.617   2.071   6.349 -0.2295  3.4854  0.5862
  328MOL0     H45237  10.637   2.024   6.177  0.8276  2.2468 -1.1280
  328MOL0     H45238  10.888   2.072   6.349  1.8913 -0.7310 -1.2450
  328MOL0     H45239  10.865   2.007   6.187 -0.2522 -2.5891  0.0864
  328MOL0     H45240  10.702   1.836   6.289 -0.7720  3.7161 -0.9515
  328MOL0     H45241  10.769   1.863   6.444  0.1850  0.2636 -0.0418
  328MOL0     H45242  10.917   1.789   6.195  0.4243  2.1355  0.1858
  328MOL0     H45243  10.874   1.672   6.328  2.0326 -0.9098 -1.2777
  328MOL0     H45244  10.382   2.690   6.524  0.6499 -1.4542  1.8105
  328MOL0     H45245  10.190   2.777   6.658 -2.2747 -0.9961  0.8875
  328MOL0     H45246   9.699   2.626   6.697 -1.2777 -1.4718  0.7807
  328MOL0     H45247   9.479   2.670   6.816 -0.2808  0.1975  0.2098
  328MOL0     H45248   7.905   3.294   7.141 -0.5220  0.0993 -1.3217
  328MOL0     H45249   7.662   3.236   7.144  0.2836 -0.7840  0.6642
  328MOL0     H45250   7.345   3.006   7.003  0.3817 -0.4232 -0.0727
  328MOL0     H45251   7.101   3.010   6.995 -1.1083 -0.4427  0.9027
  328MOL0     H45252   6.990   3.143   7.308  0.2263  1.4950 -2.3192
  328MOL0     H45253   6.888   3.164   7.163 -0.0842  1.0885  0.2556
  328MOL0     H45254   6.770   3.179   7.396 -3.1170 -0.0526 -0.3527
  328MOL0     H45255   6.799   3.016   7.414 -0.7427  0.4643 -0.1241
  328MOL0     H45256   6.610   3.141   7.202 -0.0808  0.0836  0.2956
  328MOL0     H45257   6.689   3.003   7.145 -2.3548 -1.1117 -0.3904
  328MOL0     H45258   6.596   2.895   7.369  1.0468  0.4392 -0.5729
  328MOL0     H45259   6.494   2.917   7.224 -0.2143 -2.3798  0.6816
  328MOL0     H45260   6.291   3.134   7.512 -0.1411  0.8723 -1.3666
  328MOL0     H45261   7.099   2.878   7.394  1.4746 -2.5609 -0.2332
  328MOL0     H45262   7.414   2.940   7.497  0.3482  0.2054 -1.6353
  328MOL0     H45263   7.261   2.852   7.525 -3.8337 -2.7789 -3.9102
  328MOL0     H45264   7.383   2.769   7.439 -0.3259 -0.4442 -1.0195
  329MOL0     O45265   0.060   4.426   5.095  0.4930 -0.9122  0.0765
  329MOL0     C45266   0.011   4.464   4.990 -0.1754 -0.8834  0.5438
  329MOL0     O45267   0.064   4.443   4.866  0.6683  0.0496  0.5693
  329MOL0     C45268   0.164   4.349   4.849 -0.0994  0.3517  0.4604
  329MOL0     C45269   0.218   4.369   4.726  0.1580 -0.5888 -1.3732
  329MOL0     C45270   0.323   4.292   4.677  0.2437  0.2719  0.2796
  329MOL0     C45271   0.373   4.186   4.757  1.1178 -0.0527  0.1737
  329MOL0     O45272   0.485   4.105   4.725  0.5939 -0.1594 -1.0080
  329MOL0     C45273   0.578   4.157   4.628  0.3012  0.4463 -0.7270
  329MOL0     C45274   0.701   4.071   4.601 -0.0492 -0.3282 -0.0133
  329MOL0     C45275   0.798   4.090   4.725 -1.2602  0.9852  0.1606
  329MOL0     C45276   0.935   4.009   4.714 -0.8057  0.1211  0.0915
  329MOL0     C45277   1.005   3.989   4.856  0.7291 -1.1525 -0.9456
  329MOL0     C45278   1.152   3.964   4.848  0.9835 -0.5830 -0.9936
  329MOL0     C45279   1.213   3.930   4.988 -1.1514  0.0799  0.9768
  329MOL0     C45280   1.206   4.041   5.086 -0.4379  0.0491  0.2088
  329MOL0     N45281   1.308   4.142   5.079 -0.4961  0.1148  0.0075
  329MOL0     C45282   1.445   4.130   5.090 -0.8399 -0.7883 -0.5983
  329MOL0     C45283   1.492   4.258   5.063 -0.0582  0.4317  0.0927
  329MOL0     C45284   1.641   4.294   5.062  0.4198  0.3982 -0.4433
  329MOL0     C45285   1.679   4.318   4.915 -0.6905 -0.7616  0.9491
  329MOL0     C45286   1.835   4.353   4.916 -0.7411 -0.1596 -1.2203
  329MOL0     C45287   1.894   4.400   4.786  0.0134 -0.0616 -0.0768
  329MOL0     O45288   1.924   4.543   4.785  0.0912 -0.7097 -0.8479
  329MOL0     C45289   2.036   4.603   4.842 -1.0300 -0.2345 -0.9444
  329MOL0     C45290   2.051   4.740   4.806  0.3547  0.1494 -0.0898
  329MOL0     C45291   2.176   4.796   4.814  0.6065  0.3544  0.5442
  329MOL0     C45292   2.170   4.944   4.767 -0.0843 -0.0603 -0.4083
  329MOL0     C45293   2.283   4.723   4.870 -0.2982 -0.6955  0.3996
  329MOL0     C45294   2.426   4.774   4.891  0.2691 -0.8318  0.4703
  329MOL0     O45295   2.512   4.693   4.958 -0.0848  0.2034  0.3000
  329MOL0     C45296   2.651   4.694   4.945  0.7221  0.9390 -0.6797
  329MOL0     C45297   2.730   4.755   4.845 -1.0919 -0.1419 -0.5227
  329MOL0     C45298   2.871   4.747   4.863 -0.2801  0.6450 -0.2444
  329MOL0     C45299   2.933   4.698   4.975 -0.9949 -0.6495  0.7288
  329MOL0     O45300   3.072   4.714   4.993  0.2748  0.4359 -0.3385
  329MOL0     C45301   3.135   4.597   5.026 -0.7285  0.3926 -0.7687
  329MOL0     C45302   3.289   4.624   5.032 -0.4244  0.3524  0.4502
  329MOL0     C45303   3.357   4.554   5.145  0.9494 -0.7046  0.9155
  329MOL0     C45304   3.495   4.595   5.177 -0.0934 -0.9937  0.0871
  329MOL0     C45305   3.543   4.529   5.308  0.6317  0.9592 -0.1059
  329MOL0     C45306   3.699   4.549   5.335  0.8643  0.9481  0.1244
  329MOL0     C45307   3.751   4.462   5.450 -0.4949  0.3098 -0.2781
  329MOL0     C45308   3.895   4.431   5.427 -0.2255 -0.4234 -0.2260
  329MOL0    Cl45309   3.953   4.329   5.577  0.0035 -0.4709  0.3287
  329MOL0     C45310   2.848   4.646   5.072 -0.5596 -0.7073  0.4319
  329MOL0     C45311   2.709   4.647   5.063 -0.4051  0.2822  1.1054
  329MOL0     O45312   2.453   4.880   4.840  0.3634 -0.6704  0.5329
  329MOL0     C45313   2.257   4.600   4.922 -0.1857  0.5486 -0.3761
  329MOL0     C45314   2.137   4.531   4.906 -0.4501  0.9621  0.7742
  329MOL0     N45315   1.382   4.339   5.034  0.2765 -0.1222 -0.3355
  329MOL0     N45316   1.273   4.273   5.041 -0.0632  0.1724 -0.1122
  329MOL0     C45317   0.313   4.151   4.879 -0.2022 -0.1413  0.2339
  329MOL0     C45318   0.215   4.243   4.927 -0.3696  0.1339  0.3373
  329MOL0     C45319  -0.110   4.563   4.996  0.6947  0.8289 -0.1278
  329MOL0     C45320  -0.120   4.656   5.101  0.6860 -0.8779 -0.2082
  329MOL0     C45321  -0.221   4.752   5.101  0.7461 -0.8913 -0.7295
  329MOL0     C45322  -0.324   4.751   5.006  0.0823  0.9428  0.3775
  329MOL0     O45323  -0.427   4.841   5.021 -0.1770 -0.0572  0.1639
  329MOL0     C45324  -0.551   4.820   4.950  0.2299 -0.3879 -0.2291
  329MOL0     C45325  -0.627   4.698   4.995 -0.0680  0.0050  0.7471
  329MOL0     C45326  -0.769   4.693   4.935  0.7936  0.2906 -0.0084
  329MOL0     C45327  -0.861   4.597   5.004 -0.3461 -0.5532  0.6911
  329MOL0     C45328  -0.850   4.609   5.147 -0.2312  0.6765 -0.5493
  329MOL0     C45329  -0.827   4.592   5.263 -0.7486 -0.2932 -0.5142
  329MOL0     C45330  -0.315   4.658   4.898 -0.4765  0.9691 -0.2741
  329MOL0     C45331  -0.203   4.571   4.892  0.3107  0.4699  0.2439
  329MOL0     C45332  -0.186   4.497   4.764 -0.1484 -0.1959 -0.3533
  329MOL0     H45333   0.177   4.448   4.664 -3.0403  0.3595  1.5826
  329MOL0     H45334   0.369   4.319   4.583 -0.4297  0.8139  0.0959
  329MOL0     H45335   0.603   4.251   4.678  1.9637 -0.8947  1.1709
  329MOL0     H45336   0.532   4.166   4.530 -0.8297 -1.7041 -0.4533
  329MOL0     H45337   0.673   3.968   4.574 -4.3608  0.9362 -1.2410
  329MOL0     H45338   0.751   4.117   4.516  0.5101  1.4322  1.2080
  329MOL0     H45339   0.813   4.187   4.772 -2.1455  0.6318  1.2180
  329MOL0     H45340   0.756   4.030   4.807  1.6946 -0.5758  0.6553
  329MOL0     H45341   0.920   3.909   4.673 -0.0028  0.0483 -0.0541
  329MOL0     H45342   1.007   4.062   4.650  1.1577 -0.5998  1.5777
  329MOL0     H45343   0.964   3.895   4.895  1.1791 -1.5357 -1.3979
  329MOL0     H45344   0.985   4.074   4.922  0.6386 -1.7426 -0.1989
  329MOL0     H45345   1.165   3.889   4.770  2.6047 -0.9682 -0.3964
  329MOL0     H45346   1.214   4.051   4.821  3.2467 -1.5117  0.8065
  329MOL0     H45347   1.319   3.907   4.975 -1.2633  0.3708 -0.8100
  329MOL0     H45348   1.150   3.858   5.039  0.7396 -0.1160  3.2075
  329MOL0     H45349   1.108   4.087   5.069 -1.9713 -3.4690 -1.3974
  329MOL0     H45350   1.210   3.998   5.186 -0.8246  2.9984  1.6189
  329MOL0     H45351   1.494   4.033   5.102 -1.6409 -1.2290 -0.8383
  329MOL0     H45352   1.702   4.215   5.106  0.2409  1.0666  1.0750
  329MOL0     H45353   1.653   4.389   5.114  1.5677  0.8889 -1.5306
  329MOL0     H45354   1.655   4.230   4.855 -2.2278 -0.2604  0.7959
  329MOL0     H45355   1.623   4.401   4.869  1.8148 -0.6726 -2.3305
  329MOL0     H45356   1.865   4.422   4.995 -0.3541 -0.3005 -1.2442
  329MOL0     H45357   1.882   4.258   4.942 -0.4932  0.2033 -0.3319
  329MOL0     H45358   1.987   4.349   4.761 -0.6491 -1.0287 -0.6496
  329MOL0     H45359   1.821   4.374   4.709 -0.4366 -2.4042  1.0488
  329MOL0     H45360   1.975   4.791   4.747  2.1688  1.3260 -1.5334
  329MOL0     H45361   2.208   5.003   4.851 -1.0974 -2.9204  2.2744
  329MOL0     H45362   2.077   4.985   4.728 -0.0292 -0.9983 -1.5788
  329MOL0     H45363   2.238   4.958   4.683  0.6956 -1.6633 -0.0898
  329MOL0     H45364   2.688   4.776   4.747 -0.7669 -2.5351 -1.2430
  329MOL0     H45365   2.943   4.785   4.790 -1.2070  0.9144 -1.0311
  329MOL0     H45366   3.096   4.562   5.122  0.4371  2.7898  0.6918
  329MOL0     H45367   3.122   4.520   4.949  2.0012 -0.4512 -0.4787
  329MOL0     H45368   3.341   4.593   4.941 -2.5025  1.5984 -1.2656
  329MOL0     H45369   3.312   4.731   5.042  5.0296 -0.7060  2.5821
  329MOL0     H45370   3.372   4.451   5.114 -0.7160 -0.6011 -0.3907
  329MOL0     H45371   3.292   4.564   5.232  0.0952 -0.5293  0.2713
  329MOL0     H45372   3.501   4.702   5.197 -1.1393 -0.9916  0.4455
  329MOL0     H45373   3.566   4.574   5.096  0.2867  1.5903 -0.3374
  329MOL0     H45374   3.488   4.574   5.391  2.7936  2.0162  0.8474
  329MOL0     H45375   3.525   4.421   5.306  0.6519  0.9501  0.2117
  329MOL0     H45376   3.718   4.655   5.356  0.8798  0.8176  0.7885
  329MOL0     H45377   3.759   4.519   5.248 -0.7881  1.0102 -1.0944
  329MOL0     H45378   3.704   4.363   5.457  0.8738 -0.2942  1.0359
  329MOL0     H45379   3.728   4.510   5.546 -1.0066 -1.6565  0.6385
  329MOL0     H45380   3.955   4.522   5.433 -1.1266  0.0568  2.2799
  329MOL0     H45381   3.905   4.371   5.335  0.7482 -2.8644  1.3656
  329MOL0     H45382   2.883   4.614   5.169  2.5405 -1.1790 -0.7052
  329MOL0     H45383   2.663   4.617   5.157 -1.6822 -0.3035  0.3298
  329MOL0     H45384   2.336   4.555   4.982 -0.3722  0.7738  0.0392
  329MOL0     H45385   2.128   4.431   4.948  0.1584  1.0687  1.1695
  329MOL0     H45386   0.338   4.062   4.936 -0.0865  0.0822  0.5344
  329MOL0     H45387   0.183   4.244   5.031 -0.2052 -3.0007  0.5024
  329MOL0     H45388  -0.040   4.665   5.175 -0.0347  0.1181  0.4767
  329MOL0     H45389  -0.229   4.804   5.196  2.2026 -1.0152 -0.5149
  329MOL0     H45390  -0.608   4.911   4.972 -0.3554 -1.0935  1.2889
  329MOL0     H45391  -0.537   4.815   4.842 -1.0391 -3.0103 -0.3310
  329MOL0     H45392  -0.641   4.717   5.102 -2.0020  0.7806  0.4017
  329MOL0     H45393  -0.571   4.606   4.978 -3.0025 -1.3781 -2.7152
  329MOL0     H45394  -0.813   4.793   4.941  0.8723  0.2462  3.6279
  329MOL0     H45395  -0.756   4.667   4.830  1.1831  0.8988 -0.1202
  329MOL0     H45396  -0.842   4.494   4.974  1.9071  0.0767 -0.2867
  329MOL0     H45397  -0.965   4.620   4.979 -0.7026 -3.5933 -1.1678
  329MOL0     H45398  -0.815   4.567   5.366 -0.0290 -2.0237 -0.9756
  329MOL0     H45399  -0.384   4.661   4.815 -0.1493  0.6482 -0.5631
  329MOL0     H45400  -0.273   4.500   4.699  1.0247 -1.1167 -2.0464
  329MOL0     H45401  -0.107   4.545   4.706 -0.3219 -0.9848 -1.2770
  329MOL0     H45402  -0.168   4.389   4.773 -1.8003 -0.4013  0.9035
  330MOL0     O45403   6.550   6.623   4.266 -0.4014  0.0807 -1.0496
  330MOL0     C45404   6.470   6.617   4.176 -0.1685  0.6425 -0.2975
  330MOL0     O45405   6.494   6.611   4.038  0.1404  0.1654  0.2848
  330MOL0     C45406   6.612   6.667   3.988 -0.5383  1.0846 -0.3024
  330MOL0     C45407   6.664   6.615   3.871  0.1018  0.0881  0.3208
  330MOL0     C45408   6.778   6.657   3.807 -0.1875 -0.5110  0.0400
  330MOL0     C45409   6.845   6.782   3.859 -0.8635 -0.2343  0.6334
  330MOL0     O45410   6.957   6.832   3.791  0.0774 -0.4688  0.0187
  330MOL0     C45411   6.977   6.775   3.659  0.3235  0.0648 -0.5511
  330MOL0     C45412   7.086   6.855   3.587  1.0686  0.3233 -0.4882
  330MOL0     C45413   7.229   6.834   3.656 -0.2808 -0.0555 -0.2532
  330MOL0     C45414   7.295   6.702   3.608  0.5138  0.4121 -0.5475
  330MOL0     C45415   7.316   6.684   3.456  0.6235  0.3214 -0.2606
  330MOL0     C45416   7.416   6.780   3.385  0.5681 -0.1832  0.0073
  330MOL0     C45417   7.549   6.755   3.456 -0.4640 -0.8325  0.1342
  330MOL0     C45418   7.661   6.836   3.382  1.1132  0.3458  0.4111
  330MOL0     N45419   7.796   6.797   3.423 -0.0309 -0.7855  0.2475
  330MOL0     C45420   7.859   6.832   3.538  0.9019  0.5696  0.4604
  330MOL0     C45421   7.972   6.764   3.527 -0.8089  0.0496  0.2647
  330MOL0     C45422   8.083   6.771   3.636 -0.1971  0.2213 -0.3138
  330MOL0     C45423   8.231   6.792   3.593  0.0669 -0.9247 -0.0959
  330MOL0     C45424   8.334   6.734   3.698  0.0482  0.6321 -0.4733
  330MOL0     C45425   8.482   6.737   3.666  0.0757  0.4174  0.3115
  330MOL0     O45426   8.510   6.873   3.622  0.3754 -0.6091 -0.2949
  330MOL0     C45427   8.628   6.923   3.567 -0.1894  0.7334  0.5927
  330MOL0     C45428   8.750   6.845   3.581 -0.2533  0.2179 -0.1222
  330MOL0     C45429   8.877   6.889   3.527  0.3087  0.3498 -0.5699
  330MOL0     C45430   8.998   6.790   3.533  0.0126  0.4074  0.3396
  330MOL0     C45431   8.882   7.017   3.453  0.3020  1.1082 -0.8170
  330MOL0     C45432   9.013   7.083   3.412  1.6769 -0.3006 -0.1334
  330MOL0     O45433   9.003   7.199   3.341  0.0771  0.6106 -0.4228
  330MOL0     C45434   9.119   7.236   3.296 -0.7558  0.2463  0.2181
  330MOL0     C45435   9.190   7.156   3.208  0.2195 -0.0543 -0.3252
  330MOL0     C45436   9.307   7.205   3.156 -0.4591 -0.0332  1.0532
  330MOL0     C45437   9.366   7.322   3.201 -0.6790  0.0872  0.5934
  330MOL0     O45438   9.487   7.348   3.131 -0.3361  1.0736 -0.3751
  330MOL0     C45439   9.540   7.485   3.137 -0.5287  0.3522  0.2417
  330MOL0     C45440   9.638   7.502   3.253 -0.9119 -0.1425 -0.6183
  330MOL0     C45441   9.765   7.417   3.226 -0.9015 -0.6769 -0.2340
  330MOL0     C45442   9.879   7.461   3.313  0.5124 -0.2490 -0.1126
  330MOL0     C45443   9.882   7.399   3.459  0.1401  0.5238 -0.4071
  330MOL0     C45444  10.002   7.445   3.545  0.1141  0.0883  0.0610
  330MOL0     C45445  10.010   7.598   3.543  0.2940 -0.4921  0.6104
  330MOL0     C45446  10.109   7.666   3.633 -0.4635  0.3645 -0.4832
  330MOL0    Cl45447  10.274   7.617   3.608 -0.5781  0.3027 -0.2756
  330MOL0     C45448   9.303   7.402   3.300 -0.4356 -0.3135 -0.9901
  330MOL0     C45449   9.177   7.354   3.345 -0.0121 -0.2049  0.3381
  330MOL0     O45450   9.119   7.025   3.436 -0.2593  0.3478  0.1045
  330MOL0     C45451   8.758   7.089   3.442 -0.4337 -0.0799  0.6978
  330MOL0     C45452   8.637   7.040   3.489  0.5203  0.1880 -0.2778
  330MOL0     N45453   7.986   6.695   3.413  0.0419  0.4397  0.1900
  330MOL0     N45454   7.875   6.717   3.345  0.1454 -0.3302  0.4725
  330MOL0     C45455   6.786   6.840   3.968 -0.0942 -0.2933 -0.2434
  330MOL0     C45456   6.676   6.775   4.040 -0.1235  0.8107 -0.9702
  330MOL0     C45457   6.323   6.628   4.209  0.1593  0.1143 -0.4218
  330MOL0     C45458   6.241   6.701   4.116 -0.3270  0.1962  0.3774
  330MOL0     C45459   6.107   6.707   4.137  1.0519 -0.6767 -0.3176
  330MOL0     C45460   6.046   6.649   4.246 -0.0933 -0.3218 -0.6122
  330MOL0     O45461   5.911   6.660   4.259  0.6022  0.5302  0.1274
  330MOL0     C45462   5.866   6.741   4.367 -0.7578 -0.8088 -0.8593
  330MOL0     C45463   5.802   6.664   4.487 -0.1773 -1.1091 -0.1336
  330MOL0     C45464   5.656   6.624   4.455 -0.3893  0.5057 -0.2637
  330MOL0     C45465   5.634   6.536   4.327  0.2845 -0.0941 -0.5495
  330MOL0     C45466   5.490   6.516   4.296 -0.9919 -0.2942  0.4958
  330MOL0     C45467   5.371   6.501   4.276 -1.0872  0.4329  0.1654
  330MOL0     C45468   6.123   6.589   4.340 -0.3074 -0.4597 -0.4135
  330MOL0     C45469   6.255   6.575   4.322  0.7334 -0.1268  0.7661
  330MOL0     C45470   6.329   6.493   4.420 -1.0312  0.0788 -0.0879
  330MOL0     H45471   6.616   6.527   3.829 -0.8397  1.5839 -2.0143
  330MOL0     H45472   6.804   6.610   3.712  2.5333 -0.3443  0.6089
  330MOL0     H45473   6.891   6.785   3.593  0.2072  2.0072 -0.1879
  330MOL0     H45474   7.003   6.669   3.661  0.0793  0.0107  0.6985
  330MOL0     H45475   7.084   6.817   3.485  1.1788 -3.4862  0.7604
  330MOL0     H45476   7.064   6.962   3.590 -1.2609 -0.0952 -0.4717
  330MOL0     H45477   7.306   6.908   3.631  0.5497 -1.2102 -1.2779
  330MOL0     H45478   7.234   6.837   3.765  0.2961  1.7376 -0.3009
  330MOL0     H45479   7.388   6.673   3.660 -0.4014  0.5309  1.2274
  330MOL0     H45480   7.223   6.626   3.641  0.8087 -0.5960 -2.1260
  330MOL0     H45481   7.215   6.697   3.415  0.8811  0.5327 -0.8439
  330MOL0     H45482   7.350   6.583   3.432 -2.0857 -1.0002  0.9988
  330MOL0     H45483   7.427   6.749   3.280 -0.3728 -2.2467  0.4563
  330MOL0     H45484   7.389   6.886   3.381 -1.3038 -0.5937  0.8086
  330MOL0     H45485   7.585   6.652   3.461  1.8143 -0.1356 -0.4218
  330MOL0     H45486   7.552   6.796   3.558 -0.3744 -0.1026 -0.1534
  330MOL0     H45487   7.627   6.828   3.278  1.2914  1.2711  0.2714
  330MOL0     H45488   7.644   6.943   3.399  2.6543  1.2144 -2.7979
  330MOL0     H45489   7.831   6.893   3.623  1.8247  0.8214  0.5957
  330MOL0     H45490   8.082   6.675   3.689  1.4396  0.0289 -0.5877
  330MOL0     H45491   8.054   6.844   3.712  1.1408  0.1282  0.3068
  330MOL0     H45492   8.251   6.744   3.498 -0.2978  1.8675 -1.6984
  330MOL0     H45493   8.237   6.899   3.569  2.4768 -0.5503  1.8289
  330MOL0     H45494   8.321   6.792   3.790  0.9115  0.5011 -0.2669
  330MOL0     H45495   8.304   6.631   3.723 -0.5914  0.8743 -0.2199
  330MOL0     H45496   8.540   6.709   3.754  1.2240  0.1469 -0.5120
  330MOL0     H45497   8.488   6.672   3.578 -2.4576 -1.8401  1.7062
  330MOL0     H45498   8.745   6.747   3.627  0.8173  0.5894  0.8368
  330MOL0     H45499   9.087   6.813   3.593 -0.5435 -1.0682  1.7940
  330MOL0     H45500   9.019   6.768   3.428 -1.1057  1.1618 -0.0632
  330MOL0     H45501   8.971   6.688   3.561  1.3536  0.7164  3.1133
  330MOL0     H45502   9.140   7.066   3.175  0.1619 -0.4032  0.7020
  330MOL0     H45503   9.355   7.151   3.075 -0.5513 -2.0709  2.3083
  330MOL0     H45504   9.602   7.513   3.052 -0.2044 -0.5448  0.1793
  330MOL0     H45505   9.461   7.561   3.148  0.4131  1.1086  2.4089
  330MOL0     H45506   9.660   7.606   3.279 -3.2267 -0.1772  1.8527
  330MOL0     H45507   9.592   7.462   3.343  1.1154  0.7891  0.9062
  330MOL0     H45508   9.789   7.421   3.119  0.7511 -1.1886  0.0885
  330MOL0     H45509   9.737   7.314   3.247  0.8446 -1.1830 -0.2891
  330MOL0     H45510   9.880   7.570   3.307 -0.4204 -0.2282 -0.0969
  330MOL0     H45511   9.977   7.431   3.275  0.5431  1.1735 -1.2388
  330MOL0     H45512   9.790   7.432   3.507 -0.5575  0.6240 -1.7618
  330MOL0     H45513   9.881   7.289   3.457 -1.6798  0.5115 -0.5105
  330MOL0     H45514  10.098   7.403   3.514 -0.5644 -2.5617  1.2737
  330MOL0     H45515   9.979   7.413   3.647 -3.5569  0.3774 -0.5050
  330MOL0     H45516   9.910   7.636   3.565  0.5748  0.5506  0.1549
  330MOL0     H45517  10.049   7.624   3.444  0.7093  1.2531  1.1968
  330MOL0     H45518  10.087   7.643   3.738 -2.6385  5.4584  0.4857
  330MOL0     H45519  10.095   7.774   3.641 -1.0824  0.1903  1.1356
  330MOL0     H45520   9.347   7.494   3.335  0.3236 -0.7282 -0.8371
  330MOL0     H45521   9.108   7.407   3.410  0.3139 -0.0351  0.5509
  330MOL0     H45522   8.760   7.182   3.386 -1.8095  0.3620  1.3456
  330MOL0     H45523   8.550   7.101   3.468  0.9227  0.4990 -1.0724
  330MOL0     H45524   6.826   6.934   4.004  1.0138 -0.1182 -1.8383
  330MOL0     H45525   6.637   6.826   4.128  0.1352  0.0985 -0.4328
  330MOL0     H45526   6.288   6.747   4.029  1.1031 -2.2782 -0.2835
  330MOL0     H45527   6.050   6.761   4.062  0.2752 -0.3125  0.5211
  330MOL0     H45528   5.951   6.800   4.403  0.4292 -2.8307 -0.2379
  330MOL0     H45529   5.806   6.830   4.343  1.0624  1.2321  1.5689
  330MOL0     H45530   5.807   6.721   4.580 -2.2011  0.6959 -1.0526
  330MOL0     H45531   5.865   6.579   4.512  0.3496 -0.2092  1.7670
  330MOL0     H45532   5.619   6.569   4.543  1.6600 -0.3080  0.1374
  330MOL0     H45533   5.594   6.713   4.445  1.1723  1.4976 -1.4386
  330MOL0     H45534   5.681   6.438   4.335  0.7295  0.0592 -1.2498
  330MOL0     H45535   5.686   6.582   4.243  0.5000 -3.1687 -2.2033
  330MOL0     H45536   5.266   6.482   4.267 -1.3217  1.9341 -0.5172
  330MOL0     H45537   6.073   6.543   4.424  0.7746 -1.0730 -0.0883
  330MOL0     H45538   6.263   6.458   4.500 -0.6756  0.3809  0.3395
  330MOL0     H45539   6.373   6.406   4.369 -0.7857 -0.1086  0.4421
  330MOL0     H45540   6.403   6.556   4.469 -1.2474 -0.9195  1.5882
  331MOL0     O45541   8.789   4.726   5.507 -0.1812 -0.6453 -0.5631
  331MOL0     C45542   8.716   4.826   5.542  1.1125  0.1542  0.1883
  331MOL0     O45543   8.580   4.831   5.544  0.0165  0.2929  0.1492
  331MOL0     C45544   8.504   4.730   5.505 -0.1559  0.1870  0.2006
  331MOL0     C45545   8.425   4.731   5.389  0.2839  0.7261 -0.3064
  331MOL0     C45546   8.331   4.631   5.363  0.2682  0.5016 -0.5058
  331MOL0     C45547   8.309   4.519   5.447 -1.4506  0.1143  0.2965
  331MOL0     O45548   8.221   4.422   5.406  0.2503  0.2975  0.5594
  331MOL0     C45549   8.279   4.289   5.405  0.3171  0.0827  0.6477
  331MOL0     C45550   8.184   4.196   5.328 -0.7608 -0.4520  0.2072
  331MOL0     C45551   8.130   4.247   5.193  0.0035  0.0430  0.1660
  331MOL0     C45552   8.242   4.275   5.098 -0.1963  0.1146  0.5058
  331MOL0     C45553   8.296   4.156   5.022  0.1382 -0.7364 -0.7286
  331MOL0     C45554   8.395   4.198   4.924 -0.2321  0.1125  0.4403
  331MOL0     C45555   8.527   4.119   4.927  0.2793  0.1341  0.0402
  331MOL0     C45556   8.631   4.180   4.837 -0.1042  0.8251  0.1040
  331MOL0     N45557   8.761   4.104   4.831  0.2362 -0.0200 -0.7222
  331MOL0     C45558   8.777   3.972   4.807  0.1763  0.7240 -0.1657
  331MOL0     C45559   8.911   3.951   4.790  0.4117 -0.1961 -0.2707
  331MOL0     C45560   8.977   3.821   4.756 -0.1470 -0.9344  0.2818
  331MOL0     C45561   9.087   3.788   4.862  1.0119  0.1870  1.2959
  331MOL0     C45562   9.190   3.674   4.835  0.0418 -0.2961 -0.2514
  331MOL0     C45563   9.311   3.674   4.929 -0.4540  0.5270  0.2746
  331MOL0     O45564   9.286   3.628   5.059 -0.1250 -0.4312 -0.2251
  331MOL0     C45565   9.385   3.594   5.157  0.3219 -0.9024  0.8814
  331MOL0     C45566   9.519   3.628   5.138  0.0757  0.9377 -0.6085
  331MOL0     C45567   9.612   3.587   5.236  0.3985 -0.6943 -0.0950
  331MOL0     C45568   9.756   3.634   5.198  1.0983  0.4558 -0.5495
  331MOL0     C45569   9.576   3.512   5.347 -0.6520 -0.6455 -0.1852
  331MOL0     C45570   9.679   3.457   5.443 -0.1908 -0.2323  0.7255
  331MOL0     O45571   9.675   3.325   5.445 -0.4337  0.5288 -0.1082
  331MOL0     C45572   9.786   3.249   5.481 -0.6327 -0.7201  0.2798
  331MOL0     C45573   9.760   3.130   5.555 -1.2398  0.4809  0.6202
  331MOL0     C45574   9.870   3.042   5.584  0.3957 -0.2321 -0.5272
  331MOL0     C45575  10.001   3.070   5.547 -0.0693 -0.4772  0.7357
  331MOL0     O45576  10.096   2.987   5.596 -0.4047 -0.1205 -0.4156
  331MOL0     C45577  10.193   2.932   5.515  0.3840 -0.1312  0.3416
  331MOL0     C45578  10.147   2.839   5.402 -0.1184 -0.8243 -0.0571
  331MOL0     C45579  10.056   2.733   5.465  0.3862 -0.6512 -0.1282
  331MOL0     C45580   9.995   2.638   5.361  0.5648  0.5678 -0.6601
  331MOL0     C45581  10.095   2.534   5.304 -0.7533 -0.1509 -0.0658
  331MOL0     C45582  10.133   2.438   5.407 -0.4700  0.1704 -0.0226
  331MOL0     C45583  10.229   2.339   5.349 -0.8635  0.3164  0.8927
  331MOL0     C45584  10.385   2.373   5.342 -0.6622 -0.8651 -0.5796
  331MOL0    Cl45585  10.468   2.388   5.501 -0.1612 -0.3860 -0.3616
  331MOL0     C45586  10.030   3.190   5.476 -0.2835 -0.5495  0.1843
  331MOL0     C45587   9.917   3.278   5.449  0.7751  0.4880  0.0008
  331MOL0     O45588   9.766   3.525   5.489 -0.3837 -0.0423 -0.3317
  331MOL0     C45589   9.437   3.482   5.362  0.1426  0.1676  0.2865
  331MOL0     C45590   9.341   3.521   5.264  0.4491  0.3322 -0.3705
  331MOL0     N45591   8.963   4.076   4.805 -0.0957 -0.6028 -0.4586
  331MOL0     N45592   8.879   4.161   4.834  0.3789 -0.2985  0.6056
  331MOL0     C45593   8.399   4.511   5.549  0.4890 -0.4223  0.3660
  331MOL0     C45594   8.490   4.613   5.577 -0.3637 -0.6479  0.0443
  331MOL0     C45595   8.779   4.957   5.559 -0.2202  0.2336  0.0058
  331MOL0     C45596   8.690   5.071   5.556 -0.3201 -0.2592  0.4133
  331MOL0     C45597   8.746   5.197   5.573 -0.2209 -0.1792  0.3680
  331MOL0     C45598   8.880   5.223   5.598 -0.0886  0.7707  0.2091
  331MOL0     O45599   8.918   5.350   5.617  0.4387  0.1491  0.0194
  331MOL0     C45600   9.043   5.388   5.673  0.7714 -0.2505 -0.7241
  331MOL0     C45601   9.079   5.524   5.631 -0.0706 -0.6961 -0.5134
  331MOL0     C45602   9.103   5.527   5.480 -0.6488  0.6093 -0.1759
  331MOL0     C45603   9.171   5.661   5.444 -0.3275 -0.4000  0.2133
  331MOL0     C45604   9.309   5.680   5.485 -0.0091  0.5190 -0.7094
  331MOL0     C45605   9.427   5.701   5.506 -0.3696 -0.4867  0.4963
  331MOL0     C45606   8.961   5.108   5.602  0.7049 -0.3787  0.5010
  331MOL0     C45607   8.913   4.979   5.572  0.5208 -0.3520  0.2449
  331MOL0     C45608   9.022   4.880   5.551 -0.5846 -0.1572 -0.2781
  331MOL0     H45609   8.429   4.808   5.312  0.6892 -2.6003 -3.9473
  331MOL0     H45610   8.271   4.635   5.273  0.1830 -2.9464 -0.7091
  331MOL0     H45611   8.292   4.247   5.505  0.1768  0.9529  1.0427
  331MOL0     H45612   8.373   4.300   5.350 -0.0072  4.7069  0.6421
  331MOL0     H45613   8.238   4.104   5.304 -2.2250 -0.5288 -3.4050
  331MOL0     H45614   8.100   4.156   5.385  0.5104 -0.0985  2.4090
  331MOL0     H45615   8.067   4.172   5.145 -2.5036  2.5858 -0.8128
  331MOL0     H45616   8.068   4.335   5.216  0.2311  0.4040 -0.5697
  331MOL0     H45617   8.190   4.333   5.022 -1.5042 -1.5486  0.0643
  331MOL0     H45618   8.329   4.329   5.137  0.5210 -0.3231 -0.4550
  331MOL0     H45619   8.214   4.103   4.971  1.2840 -1.2589 -2.1003
  331MOL0     H45620   8.350   4.081   5.080  1.9725 -0.2350 -1.7261
  331MOL0     H45621   8.349   4.169   4.829  1.6751 -2.1977  0.1413
  331MOL0     H45622   8.422   4.304   4.930 -0.3152  0.2611 -1.4119
  331MOL0     H45623   8.508   4.017   4.891 -0.5981 -0.7624  2.7998
  331MOL0     H45624   8.575   4.115   5.026  0.1346  0.0746  0.1079
  331MOL0     H45625   8.592   4.199   4.737  0.2852  1.2064  0.0165
  331MOL0     H45626   8.654   4.277   4.883 -2.9464  1.2773  0.7338
  331MOL0     H45627   8.694   3.902   4.806 -0.4633  1.4741 -0.2340
  331MOL0     H45628   9.016   3.832   4.654  1.9399  1.9739  1.2382
  331MOL0     H45629   8.902   3.742   4.765 -0.8211 -0.3823 -0.3504
  331MOL0     H45630   9.150   3.877   4.859  1.1474  0.1911 -3.1683
  331MOL0     H45631   9.032   3.772   4.955 -1.9658  0.9047 -0.2032
  331MOL0     H45632   9.135   3.579   4.838 -0.2323 -0.1171  0.4684
  331MOL0     H45633   9.223   3.689   4.732  3.0475  0.7020  0.7755
  331MOL0     H45634   9.377   3.604   4.877 -0.7077 -2.0527  3.1603
  331MOL0     H45635   9.342   3.779   4.935 -1.4188  0.7773  1.1072
  331MOL0     H45636   9.550   3.680   5.047  0.9490  0.1885 -0.7490
  331MOL0     H45637   9.828   3.562   5.239 -1.4786 -2.7888 -1.3202
  331MOL0     H45638   9.775   3.724   5.257 -1.3151  0.1844  0.7375
  331MOL0     H45639   9.765   3.655   5.091  3.1230  0.3364 -0.4513
  331MOL0     H45640   9.657   3.104   5.573 -1.4109  0.8358  0.1792
  331MOL0     H45641   9.859   2.954   5.647 -1.7682 -0.1657 -0.7588
  331MOL0     H45642  10.245   3.013   5.463 -2.1740  1.5986  0.2659
  331MOL0     H45643  10.269   2.877   5.571  1.4218  2.5094  1.6609
  331MOL0     H45644  10.090   2.902   5.335 -0.8502 -2.2907 -0.8611
  331MOL0     H45645  10.238   2.808   5.350  1.7506  3.2308  0.4553
  331MOL0     H45646   9.970   2.783   5.511 -1.1146 -1.9454 -1.4125
  331MOL0     H45647  10.104   2.675   5.545  0.1255 -0.3520  0.2539
  331MOL0     H45648   9.961   2.694   5.273 -0.2658  0.5014 -0.3854
  331MOL0     H45649   9.908   2.589   5.405 -0.6580  3.0221 -0.1110
  331MOL0     H45650  10.043   2.486   5.221  1.3163 -1.8275 -0.4695
  331MOL0     H45651  10.185   2.587   5.268 -0.6786 -1.0500 -1.2700
  331MOL0     H45652  10.053   2.369   5.434  0.3181 -0.9717 -0.5241
  331MOL0     H45653  10.183   2.489   5.490  0.1515 -0.7633  0.1892
  331MOL0     H45654  10.200   2.297   5.252 -2.7788  0.3204  1.4241
  331MOL0     H45655  10.226   2.259   5.423  2.7833  1.3979  2.4261
  331MOL0     H45656  10.399   2.464   5.284  3.8737 -0.5452  0.6358
  331MOL0     H45657  10.440   2.300   5.281  0.0527  0.7209 -1.9116
  331MOL0     H45658  10.133   3.211   5.445 -0.6206 -0.7527 -1.1566
  331MOL0     H45659   9.942   3.374   5.405 -0.1855  0.0342 -1.6007
  331MOL0     H45660   9.418   3.413   5.444 -1.9847  1.3325  0.8292
  331MOL0     H45661   9.236   3.506   5.286  0.7986  0.1311  1.2728
  331MOL0     H45662   8.388   4.426   5.617 -1.1746  0.5584  1.3747
  331MOL0     H45663   8.555   4.607   5.663 -0.6606 -2.1210  0.1950
  331MOL0     H45664   8.585   5.057   5.532 -0.0975 -2.6361  0.5093
  331MOL0     H45665   8.678   5.281   5.572  1.2916  1.1258 -1.5398
  331MOL0     H45666   9.033   5.378   5.782 -1.2270  1.0154 -0.7354
  331MOL0     H45667   9.116   5.318   5.633  1.4606  0.0447 -0.0200
  331MOL0     H45668   9.167   5.556   5.686 -1.1350  0.5475  0.5272
  331MOL0     H45669   9.006   5.601   5.655 -0.2853 -0.1952 -2.5682
  331MOL0     H45670   9.167   5.445   5.445 -0.8370  0.2125  0.3871
  331MOL0     H45671   9.007   5.531   5.429 -0.4602 -0.8039 -0.6773
  331MOL0     H45672   9.114   5.745   5.484  0.4027  0.5813 -0.7558
  331MOL0     H45673   9.164   5.667   5.335 -1.3655  3.5042  0.3455
  331MOL0     H45674   9.531   5.722   5.525 -0.7015  1.9961 -0.0907
  331MOL0     H45675   9.069   5.109   5.610  0.8626  1.5059 -1.1911
  331MOL0     H45676   9.017   4.810   5.634  0.8737 -3.3352 -2.6548
  331MOL0     H45677   9.017   4.820   5.460  2.8687 -2.1463  0.6716
  331MOL0     H45678   9.120   4.928   5.563 -1.4084  1.1425  1.7510
  332MOL0     O45679   7.655   8.639   6.373  0.3227  0.5458 -0.2462
  332MOL0     C45680   7.707   8.540   6.435 -0.2349 -0.8652 -0.3551
  332MOL0     O45681   7.646   8.480   6.543 -0.2673 -0.5612 -0.1443
  332MOL0     C45682   7.512   8.511   6.561  0.0340  0.1367 -0.3093
  332MOL0     C45683   7.466   8.630   6.625 -0.3287 -0.3883 -0.1349
  332MOL0     C45684   7.328   8.652   6.621  0.5292  0.4028  0.0611
  332MOL0     C45685   7.238   8.557   6.572  1.1966  0.8305 -0.0916
  332MOL0     O45686   7.106   8.583   6.583  0.4431  0.2633  0.3356
  332MOL0     C45687   7.049   8.583   6.717  0.3319  0.0197  0.0785
  332MOL0     C45688   7.033   8.443   6.766 -0.3892 -0.4930 -0.1192
  332MOL0     C45689   6.937   8.420   6.886  0.0509 -0.8162  0.1678
  332MOL0     C45690   7.011   8.435   7.026  0.0848 -0.0791  1.3640
  332MOL0     C45691   6.925   8.390   7.143 -0.1451 -1.7401  0.0090
  332MOL0     C45692   6.992   8.452   7.267  0.2831 -0.6863  0.8521
  332MOL0     C45693   6.891   8.456   7.385 -0.2674 -0.0336 -0.4688
  332MOL0     C45694   6.955   8.480   7.516 -0.1499  0.0697  0.7306
  332MOL0     N45695   6.869   8.433   7.619  0.1000  0.0778  0.2132
  332MOL0     C45696   6.875   8.299   7.640  0.2831  0.1484 -0.5405
  332MOL0     C45697   6.795   8.290   7.750  0.3974 -0.1917  0.0737
  332MOL0     C45698   6.766   8.174   7.836 -1.1987  0.6675  0.4052
  332MOL0     C45699   6.656   8.086   7.778 -0.0651 -0.6858 -0.4894
  332MOL0     C45700   6.712   7.964   7.703 -0.2844 -0.4623 -0.2850
  332MOL0     C45701   6.598   7.894   7.629  0.5645 -0.1046  0.0567
  332MOL0     O45702   6.560   7.797   7.726 -0.0539  0.1019  0.3512
  332MOL0     C45703   6.578   7.663   7.699  0.4965 -0.0559 -0.4504
  332MOL0     C45704   6.668   7.611   7.612  0.7785 -0.0375  0.5207
  332MOL0     C45705   6.686   7.465   7.594  0.0013 -0.4097  0.1197
  332MOL0     C45706   6.778   7.425   7.488  0.4991  0.5045  0.7339
  332MOL0     C45707   6.602   7.379   7.668  0.4933  0.3602  0.0725
  332MOL0     C45708   6.597   7.228   7.671 -0.0204  0.0265 -1.1489
  332MOL0     O45709   6.503   7.169   7.748 -0.0220 -0.3626 -0.5116
  332MOL0     C45710   6.504   7.032   7.751  0.3989  0.0719 -0.2381
  332MOL0     C45711   6.454   6.950   7.643  0.9548  0.4519  0.1840
  332MOL0     C45712   6.469   6.811   7.648 -0.5138  0.4609  0.1396
  332MOL0     C45713   6.513   6.745   7.759 -1.1405 -0.8834  0.5773
  332MOL0     O45714   6.523   6.613   7.755 -0.2677 -0.4122 -0.2585
  332MOL0     C45715   6.639   6.563   7.821 -0.2824  0.1127  0.0968
  332MOL0     C45716   6.663   6.423   7.785  0.5808 -0.1026  0.6374
  332MOL0     C45717   6.807   6.386   7.815 -0.3467 -0.5857 -0.2355
  332MOL0     C45718   6.819   6.232   7.825 -0.8807  0.4637 -0.3653
  332MOL0     C45719   6.961   6.180   7.834 -0.3429  0.4664  0.6331
  332MOL0     C45720   6.955   6.038   7.896 -0.0707 -0.8276  0.0435
  332MOL0     C45721   6.882   5.940   7.801 -0.0764  0.3033 -0.0115
  332MOL0     C45722   6.870   5.805   7.863 -0.3685  0.1655 -0.3866
  332MOL0    Cl45723   7.025   5.752   7.928  0.3189  0.0914  0.2561
  332MOL0     C45724   6.562   6.828   7.869  0.3793  0.8346  0.0872
  332MOL0     C45725   6.549   6.966   7.867 -0.6465  0.4235  0.2419
  332MOL0     O45726   6.679   7.165   7.606  0.1700  0.3117 -0.4277
  332MOL0     C45727   6.508   7.438   7.750  1.4090  0.1541 -0.5491
  332MOL0     C45728   6.496   7.577   7.769 -0.2902 -0.6637 -0.0876
  332MOL0     N45729   6.729   8.407   7.773 -0.0228 -0.4562 -1.0083
  332MOL0     N45730   6.766   8.492   7.687  0.1323 -0.0999 -0.6644
  332MOL0     C45731   7.287   8.446   6.515 -0.1994  0.2824  0.0038
  332MOL0     C45732   7.419   8.427   6.500  0.3534  0.2884  0.2167
  332MOL0     C45733   7.839   8.493   6.390  0.5569  0.4256  0.0860
  332MOL0     C45734   7.916   8.423   6.483 -0.3170  0.5846  0.5084
  332MOL0     C45735   8.039   8.371   6.450 -0.0938 -0.4814  0.4091
  332MOL0     C45736   8.080   8.355   6.321  0.0534  0.6197  0.3781
  332MOL0     O45737   8.184   8.272   6.300 -0.0301 -0.3178 -0.6333
  332MOL0     C45738   8.259   8.285   6.176  0.6070 -0.4896 -0.8912
  332MOL0     C45739   8.390   8.223   6.192  1.1313 -0.2807  0.9599
  332MOL0     C45740   8.481   8.243   6.064 -0.5502 -0.3492 -0.5821
  332MOL0     C45741   8.435   8.185   5.934  0.7954  1.1323  0.1403
  332MOL0     C45742   8.537   8.190   5.829 -0.4150  0.3846  0.6164
  332MOL0     C45743   8.622   8.201   5.742  0.1646  0.1473 -0.4539
  332MOL0     C45744   7.995   8.409   6.220 -0.4252 -0.0169 -1.0502
  332MOL0     C45745   7.877   8.482   6.258  0.0875  0.8026  0.0694
  332MOL0     C45746   7.797   8.537   6.134 -0.3400 -0.2215 -0.3999
  332MOL0     H45747   7.549   8.690   6.659  0.3403 -1.6836  0.6160
  332MOL0     H45748   7.297   8.747   6.664  0.8534  0.7769 -0.5197
  332MOL0     H45749   6.947   8.617   6.694 -1.1576 -2.6312  2.0852
  332MOL0     H45750   7.108   8.643   6.786  1.7530  0.3595 -1.4043
  332MOL0     H45751   7.002   8.381   6.681  0.1465 -0.8907 -0.0251
  332MOL0     H45752   7.134   8.409   6.789  1.8782  4.5518 -1.0312
  332MOL0     H45753   6.857   8.495   6.888  1.1843  0.4149  1.3603
  332MOL0     H45754   6.890   8.321   6.883 -0.0810 -0.7280 -1.5521
  332MOL0     H45755   7.102   8.375   7.027 -1.1883 -2.1004  1.0554
  332MOL0     H45756   7.022   8.543   7.038 -1.3607 -0.0571  2.8887
  332MOL0     H45757   6.920   8.281   7.147 -0.7122 -1.7530 -0.8627
  332MOL0     H45758   6.827   8.438   7.143  1.4621  1.8875  1.1301
  332MOL0     H45759   7.070   8.382   7.300  0.2833 -0.8324  0.5483
  332MOL0     H45760   7.038   8.548   7.244 -2.3555  0.6776  0.9098
  332MOL0     H45761   6.842   8.359   7.367  1.3341 -0.4674 -3.0207
  332MOL0     H45762   6.823   8.539   7.362  0.3881  0.3575 -1.0395
  332MOL0     H45763   7.052   8.430   7.524  0.4229  1.0857  0.3572
  332MOL0     H45764   6.964   8.588   7.532 -0.6362  0.2509 -0.1673
  332MOL0     H45765   6.934   8.219   7.595 -1.6541 -1.2454 -0.7307
  332MOL0     H45766   6.745   8.201   7.940 -0.2617 -4.1466  2.1400
  332MOL0     H45767   6.859   8.117   7.846 -0.4005  1.8106 -0.3111
  332MOL0     H45768   6.598   8.041   7.859 -0.4741  1.3389  0.3800
  332MOL0     H45769   6.594   8.154   7.720  2.4997 -0.1077 -2.7250
  332MOL0     H45770   6.784   8.009   7.634  0.7280 -1.3432  0.1700
  332MOL0     H45771   6.760   7.893   7.771  1.1847 -0.5635 -1.3931
  332MOL0     H45772   6.517   7.966   7.610  0.2195 -1.1978 -3.3594
  332MOL0     H45773   6.618   7.839   7.537 -0.4571 -0.1309 -0.1707
  332MOL0     H45774   6.731   7.681   7.557  0.5001 -1.3253 -1.5609
  332MOL0     H45775   6.774   7.492   7.401 -0.3043 -2.6482 -1.8523
  332MOL0     H45776   6.752   7.326   7.448  2.7358 -0.0113  0.4574
  332MOL0     H45777   6.881   7.418   7.522  0.4895 -1.3148  0.5027
  332MOL0     H45778   6.421   6.988   7.547  2.6977  0.4429 -0.4440
  332MOL0     H45779   6.463   6.756   7.555 -1.4321  1.7402 -0.5883
  332MOL0     H45780   6.722   6.615   7.773  1.7594 -3.2887 -0.3708
  332MOL0     H45781   6.641   6.584   7.928  2.4262  2.4631 -0.2834
  332MOL0     H45782   6.596   6.364   7.849  1.7219 -2.3284 -0.1201
  332MOL0     H45783   6.630   6.410   7.682  2.6288  1.2897 -0.2645
  332MOL0     H45784   6.854   6.425   7.905  1.6616 -4.6827  0.7072
  332MOL0     H45785   6.872   6.417   7.733 -0.5047 -1.4734 -0.7117
  332MOL0     H45786   6.773   6.184   7.738  1.5784  0.2866 -1.6259
  332MOL0     H45787   6.764   6.200   7.915 -0.2137 -0.0668 -0.1338
  332MOL0     H45788   7.020   6.176   7.742  0.2154 -0.3388  1.0092
  332MOL0     H45789   7.020   6.244   7.901  0.4459  0.8428 -0.3975
  332MOL0     H45790   6.925   6.054   8.000  0.4329 -0.7293  0.1756
  332MOL0     H45791   7.055   5.998   7.919 -0.7806 -2.5567  0.2830
  332MOL0     H45792   6.931   5.923   7.705 -1.5725 -1.0979 -0.5786
  332MOL0     H45793   6.781   5.974   7.776  0.1353 -0.2526 -1.7479
  332MOL0     H45794   6.840   5.733   7.786 -1.6830  2.2183 -1.9402
  332MOL0     H45795   6.792   5.794   7.939 -1.6750  2.6908 -1.2179
  332MOL0     H45796   6.584   6.789   7.969 -2.3962 -1.9839 -0.2513
  332MOL0     H45797   6.576   7.017   7.959  0.9877 -1.2713  0.7626
  332MOL0     H45798   6.435   7.383   7.808  0.8545  0.4714 -0.9288
  332MOL0     H45799   6.431   7.609   7.850  0.0971 -2.4126  0.9854
  332MOL0     H45800   7.226   8.373   6.462  2.0492 -2.7784  1.2865
  332MOL0     H45801   7.462   8.343   6.446 -2.8393 -0.4849 -1.3305
  332MOL0     H45802   7.882   8.406   6.585 -2.3620 -2.3918 -0.5516
  332MOL0     H45803   8.080   8.322   6.537 -1.5685  0.3632  1.6210
  332MOL0     H45804   8.188   8.241   6.105 -3.4782  2.3472  1.0549
  332MOL0     H45805   8.274   8.388   6.140  0.2562 -0.6149 -1.4137
  332MOL0     H45806   8.371   8.116   6.208  0.6134 -0.3528 -0.0298
  332MOL0     H45807   8.445   8.257   6.279  1.2486  0.8654  0.4581
  332MOL0     H45808   8.506   8.348   6.046 -0.1551 -0.3913 -0.2943
  332MOL0     H45809   8.574   8.192   6.092  0.1703  2.0793  1.9802
  332MOL0     H45810   8.339   8.229   5.907 -0.9456 -0.1206  3.7247
  332MOL0     H45811   8.419   8.078   5.950  0.1776  1.4076  1.5233
  332MOL0     H45812   8.695   8.216   5.665  2.4869  0.8663  1.7409
  332MOL0     H45813   8.039   8.415   6.121  1.4992  2.1147 -0.1429
  332MOL0     H45814   7.790   8.646   6.138  3.3014  0.0972  0.5872
  332MOL0     H45815   7.853   8.510   6.044  0.9688  0.0843  0.2854
  332MOL0     H45816   7.701   8.487   6.145  1.2384 -3.2173  1.0798
  333MOL0     O45817   4.725   0.241   8.357  0.1861  0.5917 -0.1219
  333MOL0     C45818   4.786   0.199   8.259 -0.1895 -0.9169  0.5021
  333MOL0     O45819   4.730   0.139   8.151 -1.3012  0.0296  0.0033
  333MOL0     C45820   4.598   0.091   8.164 -0.8798  0.3738  0.4584
  333MOL0     C45821   4.560  -0.028   8.221 -0.4412 -0.0000 -0.1566
  333MOL0     C45822   4.427  -0.069   8.243 -0.0816 -0.4960  0.3519
  333MOL0     C45823   4.323  -0.004   8.179  0.2676 -0.0819 -0.2130
  333MOL0     O45824   4.200  -0.042   8.216 -0.4379  0.1614  0.0111
  333MOL0     C45825   4.080   0.010   8.161 -0.2213 -0.3482 -0.2023
  333MOL0     C45826   3.965  -0.091   8.166  0.2543 -0.1330  0.1812
  333MOL0     C45827   3.860  -0.050   8.068 -0.3339 -0.1490 -0.2427
  333MOL0     C45828   3.754  -0.160   8.049  0.2176  0.1598  0.3343
  333MOL0     C45829   3.627  -0.139   7.969  0.2459 -0.5496  0.7394
  333MOL0     C45830   3.568   0.001   7.967  0.2927 -0.4356 -0.5751
  333MOL0     C45831   3.437   0.012   7.888 -0.1835 -0.3120 -0.3124
  333MOL0     C45832   3.330  -0.078   7.943 -0.1272 -0.4058 -0.2574
  333MOL0     N45833   3.202  -0.038   7.884  0.4719 -0.1083 -0.0366
  333MOL0     C45834   3.092  -0.120   7.857  0.0241  1.0719  0.8292
  333MOL0     C45835   2.992  -0.036   7.817 -0.6071  0.0755  0.3765
  333MOL0     C45836   2.852  -0.079   7.780  0.4249  0.4100 -0.2176
  333MOL0     C45837   2.848  -0.226   7.714 -0.2924 -0.2843  0.1695
  333MOL0     C45838   2.696  -0.251   7.675  0.0445  0.2563  0.1001
  333MOL0     C45839   2.687  -0.398   7.636 -0.2480  0.5977 -0.8236
  333MOL0     O45840   2.753  -0.412   7.507 -0.3571  1.3132 -0.1053
  333MOL0     C45841   2.796  -0.538   7.462 -0.2398 -0.5211 -0.4672
  333MOL0     C45842   2.783  -0.651   7.543 -0.4993  1.3803 -0.2677
  333MOL0     C45843   2.830  -0.779   7.507  0.0082  0.6080  0.0828
  333MOL0     C45844   2.821  -0.902   7.596  0.5151  0.5483  0.6087
  333MOL0     C45845   2.899  -0.789   7.382  0.5761  0.6372 -0.3127
  333MOL0     C45846   2.973  -0.908   7.323  0.1093 -0.1784 -0.2414
  333MOL0     O45847   3.009  -0.898   7.191 -0.0096  0.8288  0.5201
  333MOL0     C45848   3.112  -0.980   7.137  0.3536 -1.3705 -0.0923
  333MOL0     C45849   3.245  -0.926   7.137 -0.1423 -0.0046  0.3794
  333MOL0     C45850   3.351  -1.001   7.090 -0.0377  0.6790 -1.0541
  333MOL0     C45851   3.319  -1.127   7.033 -1.4167  0.3737  0.1881
  333MOL0     O45852   3.429  -1.185   6.984 -0.0293  0.8458  0.0091
  333MOL0     C45853   3.447  -1.322   7.009  0.7504 -0.9449  0.3151
  333MOL0     C45854   3.495  -1.393   6.890 -0.0983  0.8210  0.4063
  333MOL0     C45855   3.592  -1.318   6.804  0.4237 -0.2757 -0.9213
  333MOL0     C45856   3.669  -1.414   6.715  0.4225  0.5896 -0.3179
  333MOL0     C45857   3.769  -1.330   6.627 -0.4767  0.4544  0.3668
  333MOL0     C45858   3.843  -1.426   6.522  0.2378 -1.2619  0.2046
  333MOL0     C45859   3.929  -1.348   6.425  0.0877 -0.5891  0.1134
  333MOL0     C45860   3.879  -1.220   6.367  0.4210  0.6393 -0.2134
  333MOL0    Cl45861   4.003  -1.152   6.258  0.5186  0.1783  0.1316
  333MOL0     C45862   3.190  -1.179   7.034  1.3632  0.5310 -0.5153
  333MOL0     C45863   3.085  -1.106   7.085  0.8036 -0.8810  0.8466
  333MOL0     O45864   3.018  -0.992   7.401 -0.3269  0.1457  0.3895
  333MOL0     C45865   2.909  -0.674   7.303  0.2230 -0.1494  0.4550
  333MOL0     C45866   2.858  -0.552   7.346 -0.2936  0.2927  0.2295
  333MOL0     N45867   3.032   0.095   7.828  0.3093 -0.1622  0.1871
  333MOL0     N45868   3.155   0.091   7.875  0.6337  0.6711  0.4734
  333MOL0     C45869   4.364   0.110   8.108 -0.3369 -0.2001 -0.3711
  333MOL0     C45870   4.498   0.157   8.093  0.6249  0.2084 -0.0362
  333MOL0     C45871   4.928   0.230   8.250  0.6787  0.3443  0.2254
  333MOL0     C45872   5.004   0.153   8.157 -0.3339 -0.0021  0.1688
  333MOL0     C45873   5.142   0.168   8.149 -0.1630  0.4532 -0.0230
  333MOL0     C45874   5.211   0.266   8.219 -0.7815 -0.6889 -0.9989
  333MOL0     O45875   5.342   0.298   8.203  0.3243 -0.4682 -0.4780
  333MOL0     C45876   5.432   0.212   8.138 -0.0179  0.3669  0.2996
  333MOL0     C45877   5.441   0.229   7.981 -0.2089 -0.4695 -0.3866
  333MOL0     C45878   5.469   0.386   7.937  0.3701  0.5087  0.3337
  333MOL0     C45879   5.579   0.401   7.836  0.2716  0.3548 -0.3105
  333MOL0     C45880   5.593   0.535   7.789 -0.2324  0.2470  0.1554
  333MOL0     C45881   5.592   0.634   7.726 -0.5283 -0.3254 -0.5019
  333MOL0     C45882   5.140   0.347   8.301  0.0151 -0.0663 -0.2945
  333MOL0     C45883   4.996   0.327   8.326 -0.4725 -0.3870 -0.7977
  333MOL0     C45884   4.926   0.414   8.425  0.4822 -0.2118  0.3653
  333MOL0     H45885   4.635  -0.089   8.270 -1.4057 -0.1638  1.1554
  333MOL0     H45886   4.403  -0.163   8.291 -0.0615 -0.1156  1.1202
  333MOL0     H45887   4.094   0.029   8.054 -3.3522 -0.1944 -0.6759
  333MOL0     H45888   4.046   0.107   8.200 -0.3960 -0.2176 -0.6582
  333MOL0     H45889   4.004  -0.188   8.136 -1.6401 -0.7959 -0.3020
  333MOL0     H45890   3.922  -0.100   8.266 -0.1376  0.9568  0.1217
  333MOL0     H45891   3.816   0.042   8.105 -0.9419 -0.7612  0.5819
  333MOL0     H45892   3.907  -0.021   7.973 -0.8955  0.6641 -0.2756
  333MOL0     H45893   3.810  -0.238   7.997  0.6975  1.4664 -1.2096
  333MOL0     H45894   3.730  -0.202   8.147  3.4757 -1.6689  0.4973
  333MOL0     H45895   3.546  -0.206   8.000 -0.9789  0.7827  0.4538
  333MOL0     H45896   3.649  -0.174   7.868  0.4280  0.2670  0.4880
  333MOL0     H45897   3.544   0.031   8.069 -1.3959  3.0859 -1.8689
  333MOL0     H45898   3.629   0.078   7.918 -1.2303 -0.0606 -1.9516
  333MOL0     H45899   3.442  -0.013   7.782 -1.6336 -1.6341 -0.1116
  333MOL0     H45900   3.410   0.116   7.906  3.0327  0.2712  2.2028
  333MOL0     H45901   3.353  -0.183   7.923 -0.5347 -0.7343  0.9249
  333MOL0     H45902   3.335  -0.066   8.051 -0.5454 -0.9245 -0.1833
  333MOL0     H45903   3.100  -0.227   7.869  2.0714  0.8223 -1.8109
  333MOL0     H45904   2.806  -0.007   7.711  1.8270  2.1452  0.5530
  333MOL0     H45905   2.793  -0.080   7.872  1.3960  2.4556  0.4957
  333MOL0     H45906   2.919  -0.227   7.631  1.3403 -0.5850  1.5198
  333MOL0     H45907   2.892  -0.296   7.785  0.3845  1.2936  1.3523
  333MOL0     H45908   2.622  -0.232   7.753 -0.6322  0.6433 -0.6251
  333MOL0     H45909   2.680  -0.184   7.590  0.8314  1.5958  0.9732
  333MOL0     H45910   2.721  -0.462   7.718 -1.6119 -0.3030 -0.9385
  333MOL0     H45911   2.585  -0.437   7.626  0.1157 -0.7819  0.5185
  333MOL0     H45912   2.739  -0.664   7.641 -2.0813  0.3016 -1.0674
  333MOL0     H45913   2.792  -0.982   7.528  2.7630  1.0984 -1.1325
  333MOL0     H45914   2.750  -0.886   7.678  2.5456 -0.0835  2.6061
  333MOL0     H45915   2.912  -0.931   7.650 -0.2182 -0.1513  1.5010
  333MOL0     H45916   3.270  -0.829   7.179 -0.2767  0.6966 -1.1013
  333MOL0     H45917   3.453  -0.966   7.085 -0.6119  2.2677 -2.4425
  333MOL0     H45918   3.529  -1.333   7.081  0.1959  1.4013  1.4003
  333MOL0     H45919   3.356  -1.374   7.041 -0.3031  0.8232  0.2900
  333MOL0     H45920   3.534  -1.490   6.924  0.9782  0.5485 -1.4597
  333MOL0     H45921   3.413  -1.421   6.824  0.5330 -2.5999  0.8829
  333MOL0     H45922   3.663  -1.253   6.856  0.1817 -0.1046 -0.8011
  333MOL0     H45923   3.536  -1.244   6.746  0.5015 -1.6633 -2.8550
  333MOL0     H45924   3.595  -1.459   6.649 -0.2526  1.9547 -0.5116
  333MOL0     H45925   3.718  -1.496   6.768  0.5485  0.6449 -0.3491
  333MOL0     H45926   3.717  -1.252   6.571  0.8473  1.8241  0.9923
  333MOL0     H45927   3.843  -1.283   6.691 -1.5737  2.2745  0.3655
  333MOL0     H45928   3.768  -1.478   6.462  0.0206 -1.5775  0.7398
  333MOL0     H45929   3.910  -1.490   6.579  3.3681  1.5149 -0.0870
  333MOL0     H45930   3.953  -1.420   6.347 -1.4169 -2.2099  1.0691
  333MOL0     H45931   4.019  -1.313   6.476  0.0292  1.0900 -0.8811
  333MOL0     H45932   3.853  -1.157   6.452 -0.4158  1.7011 -1.2212
  333MOL0     H45933   3.786  -1.234   6.311  0.3113  0.5641 -0.0094
  333MOL0     H45934   3.164  -1.278   6.998  0.1830 -0.0407  1.7590
  333MOL0     H45935   2.982  -1.137   7.088  0.1588  1.0915  0.7861
  333MOL0     H45936   2.966  -0.663   7.211 -0.6409 -1.1595 -0.2179
  333MOL0     H45937   2.872  -0.465   7.284 -0.4322 -0.2233 -0.5451
  333MOL0     H45938   4.290   0.176   8.064 -2.3818 -0.0639  2.9029
  333MOL0     H45939   4.516   0.253   8.045 -1.5378  0.3522 -0.6433
  333MOL0     H45940   4.953   0.076   8.100  0.8509  0.6772 -1.8895
  333MOL0     H45941   5.199   0.113   8.075  1.6805 -1.8883  2.9122
  333MOL0     H45942   5.531   0.228   8.181 -0.2906  2.3248  0.2711
  333MOL0     H45943   5.404   0.111   8.169  0.1664  0.9908  2.7651
  333MOL0     H45944   5.352   0.189   7.932 -2.3850 -1.1902  3.6819
  333MOL0     H45945   5.518   0.160   7.947  0.4544 -1.0940  2.1341
  333MOL0     H45946   5.381   0.422   7.883  1.4278  0.7762 -1.2816
  333MOL0     H45947   5.497   0.448   8.023  2.8458 -2.3589  1.8048
  333MOL0     H45948   5.537   0.340   7.756 -0.3315 -2.8972  2.2995
  333MOL0     H45949   5.669   0.356   7.880 -1.1065 -2.3803 -0.0876
  333MOL0     H45950   5.583   0.725   7.671 -1.6780 -1.8409 -3.0108
  333MOL0     H45951   5.193   0.425   8.355 -1.1886 -0.2496  1.2100
  333MOL0     H45952   4.998   0.490   8.457  0.1526  0.3141 -0.1076
  333MOL0     H45953   4.845   0.468   8.374  0.3408  4.1674  4.5113
  333MOL0     H45954   4.891   0.365   8.516 -1.8127 -0.5704 -0.6533
  334MOL0     O45955   9.904  10.354   9.778 -0.3137  0.5557 -0.3410
  334MOL0     C45956   9.927  10.234   9.770  0.7813  0.2519  0.0012
  334MOL0     O45957   9.831  10.137   9.754  0.4469 -0.6716  0.4902
  334MOL0     C45958   9.703  10.169   9.703  0.7308 -0.8195  0.1541
  334MOL0     C45959   9.676  10.164   9.568  0.2772  0.8544  0.7812
  334MOL0     C45960   9.557  10.195   9.505  0.2922  0.2893  0.3350
  334MOL0     C45961   9.454  10.241   9.590 -0.7411 -0.7489  0.2287
  334MOL0     O45962   9.338  10.289   9.538 -0.6643 -0.0203  0.4451
  334MOL0     C45963   9.233  10.202   9.575  0.6984 -0.5854  1.0176
  334MOL0     C45964   9.245  10.070   9.507 -0.3953 -0.6200 -0.7716
  334MOL0     C45965   9.113   9.990   9.514  0.0750 -0.0653  1.0611
  334MOL0     C45966   9.123   9.879   9.616 -0.3923  0.0657 -0.3255
  334MOL0     C45967   9.151   9.913   9.761  0.2150 -0.7385  0.7830
  334MOL0     C45968   9.199   9.793   9.843  0.4963 -0.2676  0.1610
  334MOL0     C45969   9.234   9.819   9.988 -0.4327 -0.0238  0.1346
  334MOL0     C45970   9.254   9.685  10.055  0.6972  0.2348  0.7128
  334MOL0     N45971   9.291   9.703  10.195  0.2630  0.4795 -0.0358
  334MOL0     C45972   9.210   9.760  10.290  0.0982  0.1469 -0.8155
  334MOL0     C45973   9.294   9.773  10.399  0.6767  0.4676 -0.0307
  334MOL0     C45974   9.269   9.846  10.530 -0.0196 -0.6577 -0.0575
  334MOL0     C45975   9.245  10.002  10.513  0.5621 -0.4829  0.3585
  334MOL0     C45976   9.241  10.065  10.644 -0.0399 -0.4108  0.0462
  334MOL0     C45977   9.215  10.212  10.644 -0.6753  0.2968 -0.1792
  334MOL0     O45978   9.177  10.248  10.774 -0.1936  0.7014 -0.0540
  334MOL0     C45979   9.274  10.298  10.858  0.2911  0.4346  0.2791
  334MOL0     C45980   9.302  10.432  10.861 -0.5136  0.4185  0.3977
  334MOL0     C45981   9.421  10.479  10.935  0.4268 -0.3605 -0.0287
  334MOL0     C45982   9.455  10.629  10.913 -0.4848 -0.3232  0.0628
  334MOL0     C45983   9.481  10.396  11.021 -0.3164 -0.6336  1.2320
  334MOL0     C45984   9.609  10.427  11.097  1.5451  0.3838  0.0763
  334MOL0     O45985   9.650  10.560  11.102 -0.4097  0.5450 -0.2327
  334MOL0     C45986   9.772  10.566  11.165  0.4113 -0.2856 -0.6649
  334MOL0     C45987   9.882  10.558  11.083 -0.3914  0.1839  0.2610
  334MOL0     C45988  10.011  10.539  11.136  0.2065 -0.2173 -0.0116
  334MOL0     C45989  10.031  10.548  11.274  0.6875 -0.1005  0.8857
  334MOL0     O45990  10.152  10.524  11.342 -0.2892  0.4299  0.5617
  334MOL0     C45991  10.262  10.489  11.260 -0.3710 -0.2487 -0.1056
  334MOL0     C45992  10.379  10.417  11.330  0.6648 -0.2570 -0.0571
  334MOL0     C45993  10.438  10.515  11.428 -0.2518 -0.2630  0.1670
  334MOL0     C45994  10.545  10.460  11.516 -0.4656 -0.2930  1.5700
  334MOL0     C45995  10.630  10.566  11.591  0.2084  0.1327  0.0078
  334MOL0     C45996  10.747  10.503  11.666  0.1119  0.8621 -0.3756
  334MOL0     C45997  10.834  10.611  11.738 -0.1087  0.2797 -0.0556
  334MOL0     C45998  10.976  10.561  11.768 -0.1159 -1.4480  0.0171
  334MOL0    Cl45999  10.963  10.405  11.854  0.2236 -0.1406 -0.4723
  334MOL0     C46000   9.914  10.554  11.353 -0.9692 -0.3494  0.0654
  334MOL0     C46001   9.787  10.564  11.304  1.2805 -0.1283  0.6692
  334MOL0     O46002   9.666  10.333  11.139 -0.3793  0.4248  0.1690
  334MOL0     C46003   9.433  10.265  11.030  0.0919  0.1907 -0.5506
  334MOL0     C46004   9.335  10.213  10.943 -0.0984 -0.2603 -0.0405
  334MOL0     N46005   9.412   9.719  10.370  0.1445 -0.2458  0.5007
  334MOL0     N46006   9.414   9.676  10.249  1.0360 -0.3305 -1.0346
  334MOL0     C46007   9.484  10.263   9.723 -0.1378  0.5257 -0.5363
  334MOL0     C46008   9.605  10.234   9.782 -0.5451  0.0534 -0.1646
  334MOL0     C46009  10.066  10.181   9.790  0.7251  1.3800 -0.2356
  334MOL0     C46010  10.155  10.250   9.872 -0.1105 -0.7294  0.0145
  334MOL0     C46011  10.287  10.213   9.892 -0.4936 -0.2908 -0.0725
  334MOL0     C46012  10.331  10.096   9.840  1.7451  0.5282  0.3320
  334MOL0     O46013  10.455  10.054   9.866 -0.7886  0.3841  0.2610
  334MOL0     C46014  10.537  10.064   9.748 -1.5380  0.2979 -0.6595
  334MOL0     C46015  10.667   9.989   9.758 -0.8077  0.1159 -0.5060
  334MOL0     C46016  10.759  10.068   9.851 -0.4784  0.3939  0.5257
  334MOL0     C46017  10.889   9.990   9.868 -0.3980  0.8746 -0.4914
  334MOL0     C46018  10.960   9.949   9.749 -0.2080  0.7701 -0.4638
  334MOL0     C46019  11.017   9.907   9.652  1.5233  0.2498  0.2671
  334MOL0     C46020  10.245  10.021   9.758 -0.5648 -0.4808  0.0038
  334MOL0     C46021  10.114  10.063   9.731 -0.4607  0.0449 -0.4900
  334MOL0     C46022  10.041   9.958   9.638  0.8429 -0.2591 -0.0053
  334MOL0     H46023   9.760  10.145   9.501 -2.0061 -0.6792 -1.8484
  334MOL0     H46024   9.527  10.179   9.402 -0.6060  0.7404  0.5147
  334MOL0     H46025   9.145  10.259   9.545  0.9744 -0.1040  1.1076
  334MOL0     H46026   9.223  10.191   9.684  1.3794 -1.9115  0.9725
  334MOL0     H46027   9.269  10.086   9.401 -1.3710  1.4559 -0.7282
  334MOL0     H46028   9.332  10.016   9.544  1.1775  0.6349 -2.4247
  334MOL0     H46029   9.027  10.051   9.545 -0.2672 -1.1417  2.3106
  334MOL0     H46030   9.103   9.946   9.415  1.3967  0.2945  0.7532
  334MOL0     H46031   9.033   9.817   9.617 -1.2623  1.2760 -0.8438
  334MOL0     H46032   9.201   9.815   9.573 -0.6584 -1.6318  1.5426
  334MOL0     H46033   9.065   9.963   9.806  1.0304  0.9799  0.5223
  334MOL0     H46034   9.227   9.992   9.761 -1.0876  0.7906 -3.7692
  334MOL0     H46035   9.109   9.731   9.843  0.4538 -0.2686 -1.9313
  334MOL0     H46036   9.281   9.741   9.793  1.7622  2.5908 -0.9523
  334MOL0     H46037   9.162   9.871  10.050 -1.2014  1.2425 -1.7156
  334MOL0     H46038   9.326   9.878  10.000  0.3443 -1.2364  0.3678
  334MOL0     H46039   9.173   9.614  10.039  0.9486  0.2388 -0.7391
  334MOL0     H46040   9.346   9.646  10.010 -0.0106  0.3035 -0.8805
  334MOL0     H46041   9.105   9.786  10.278  0.1899  1.0782  0.2791
  334MOL0     H46042   9.349   9.827  10.603 -1.8234 -3.0050  1.4555
  334MOL0     H46043   9.180   9.791  10.560  0.2541 -1.5678 -0.8532
  334MOL0     H46044   9.315  10.054  10.447 -1.0732  2.7644  0.9484
  334MOL0     H46045   9.155  10.021  10.454  0.5829 -0.3986  0.3527
  334MOL0     H46046   9.170  10.008  10.706  3.4847 -0.1625  4.8881
  334MOL0     H46047   9.335  10.058  10.699  0.0342 -0.3240 -0.0699
  334MOL0     H46048   9.309  10.264  10.622 -1.0014  0.8858 -0.1779
  334MOL0     H46049   9.141  10.224  10.565  0.7999 -3.6512 -2.4797
  334MOL0     H46050   9.238  10.491  10.797  2.5068  3.2756 -0.2324
  334MOL0     H46051   9.358  10.661  10.874 -1.3149 -2.4777  0.2606
  334MOL0     H46052   9.537  10.634  10.841 -0.2334 -1.1648  0.2793
  334MOL0     H46053   9.480  10.692  11.000 -0.3694  0.3158 -0.4268
  334MOL0     H46054   9.867  10.559  10.976 -2.2972 -1.0093  0.4732
  334MOL0     H46055  10.096  10.530  11.070 -1.3016  1.0037 -2.2196
  334MOL0     H46056  10.233  10.421  11.179 -0.4035 -1.7042  1.0808
  334MOL0     H46057  10.307  10.579  11.217  3.0188 -1.8687 -0.3119
  334MOL0     H46058  10.335  10.332  11.384 -1.6168  1.6351  1.2645
  334MOL0     H46059  10.462  10.384  11.267  0.6692 -0.7808  0.2100
  334MOL0     H46060  10.362  10.564  11.491  1.1200  0.5096  1.3030
  334MOL0     H46061  10.486  10.596  11.373 -0.3332  0.7291  1.4980
  334MOL0     H46062  10.607  10.411  11.441  0.0551  1.8511  0.5138
  334MOL0     H46063  10.500  10.390  11.587 -1.9366 -0.2593  0.7218
  334MOL0     H46064  10.671  10.635  11.517  2.6731  0.2209  1.3460
  334MOL0     H46065  10.569  10.619  11.665 -2.2239 -0.7418 -1.2630
  334MOL0     H46066  10.812  10.443  11.602  0.0966  1.5816 -1.0741
  334MOL0     H46067  10.697  10.438  11.739  0.8652 -1.0510 -1.4727
  334MOL0     H46068  10.781  10.637  11.830 -0.8844 -3.4687  0.7545
  334MOL0     H46069  10.840  10.698  11.672  1.5977 -0.9193 -1.6149
  334MOL0     H46070  11.026  10.648  11.812 -1.8644  0.2396 -1.1127
  334MOL0     H46071  11.036  10.537  11.681  1.7415 -1.9500  1.3862
  334MOL0     H46072   9.918  10.530  11.459  0.0329 -1.6126 -0.2413
  334MOL0     H46073   9.697  10.565  11.366  1.4078 -2.8225  1.0040
  334MOL0     H46074   9.457  10.219  11.125  1.4853  1.7178 -0.1192
  334MOL0     H46075   9.299  10.113  10.962  2.9137 -1.7625 -1.4632
  334MOL0     H46076   9.405  10.314   9.777 -0.4344  0.6864 -1.1164
  334MOL0     H46077   9.623  10.253   9.887 -0.3382 -1.1013  0.0294
  334MOL0     H46078  10.123  10.340   9.923 -1.4515 -0.2803 -1.5218
  334MOL0     H46079  10.357  10.282   9.936 -1.9222  2.1599 -1.3973
  334MOL0     H46080  10.485  10.024   9.661 -0.2120  0.2640 -1.4742
  334MOL0     H46081  10.559  10.170   9.730 -2.7527  0.3068 -2.3622
  334MOL0     H46082  10.710   9.979   9.658 -1.1344  0.5729 -0.6943
  334MOL0     H46083  10.636   9.893   9.799 -1.0368  0.5078  0.2644
  334MOL0     H46084  10.780  10.168   9.812  0.5869  0.1100  0.3536
  334MOL0     H46085  10.710  10.076   9.949 -2.7348  0.7809 -0.5673
  334MOL0     H46086  10.863   9.909   9.937 -1.8681  2.6501  1.2160
  334MOL0     H46087  10.954  10.054   9.928  0.4625 -0.6976  0.2895
  334MOL0     H46088  11.063   9.857   9.570  0.9103  2.3378 -1.4316
  334MOL0     H46089  10.295   9.932   9.720  0.7116  0.9445 -1.8862
  334MOL0     H46090   9.965  10.011   9.579  0.0296 -0.1018  1.1281
  334MOL0     H46091  10.114   9.897   9.586  0.2381 -0.6060 -0.4558
  334MOL0     H46092   9.978   9.895   9.701  2.1226  0.2179  1.8374
  335MOL0     O46093   8.698   5.976   0.421 -0.3435 -0.2362  0.4888
  335MOL0     C46094   8.810   5.944   0.379  0.1611  0.1226  0.6869
  335MOL0     O46095   8.838   5.847   0.280  0.0540  0.8507  0.0789
  335MOL0     C46096   8.747   5.784   0.201  0.1724 -0.2395  0.6177
  335MOL0     C46097   8.624   5.837   0.174 -0.3471  0.0388  1.0264
  335MOL0     C46098   8.536   5.765   0.086  0.0830  0.0118  0.2500
  335MOL0     C46099   8.568   5.650   0.014  0.7145  1.2419  0.3017
  335MOL0     O46100   8.486   5.575  -0.068  0.1480 -0.3394  0.7333
  335MOL0     C46101   8.358   5.636  -0.093  0.2800  0.3631 -0.0368
  335MOL0     C46102   8.281   5.548  -0.195 -0.4003  0.2926  0.2773
  335MOL0     C46103   8.143   5.619  -0.210 -0.3255 -0.2273 -0.9683
  335MOL0     C46104   8.132   5.693  -0.342 -0.6197  0.3068  0.1954
  335MOL0     C46105   8.011   5.784  -0.358 -0.0765  0.4804  0.2466
  335MOL0     C46106   8.026   5.879  -0.473  0.0644 -0.1690  0.4617
  335MOL0     C46107   7.891   5.942  -0.525  0.0511 -0.8703 -0.1178
  335MOL0     C46108   7.774   5.838  -0.547 -0.5980  0.1216  1.0414
  335MOL0     N46109   7.821   5.722  -0.634  0.2561 -0.9589  1.0206
  335MOL0     C46110   7.872   5.601  -0.592  0.7294  0.1312  0.4446
  335MOL0     C46111   7.914   5.550  -0.710 -0.2709  0.1500  0.3634
  335MOL0     C46112   7.983   5.406  -0.713 -0.9903 -0.0250 -0.2755
  335MOL0     C46113   8.077   5.394  -0.831  0.2560  0.6994 -0.1685
  335MOL0     C46114   8.122   5.248  -0.868 -0.4408 -0.1049  0.3214
  335MOL0     C46115   8.270   5.231  -0.818 -0.6484  0.0788 -0.3574
  335MOL0     O46116   8.348   5.330  -0.886 -0.5524  1.1481  0.3987
  335MOL0     C46117   8.470   5.350  -0.833  0.6025 -0.0668  0.1572
  335MOL0     C46118   8.532   5.464  -0.875 -0.1359 -0.3368  0.6564
  335MOL0     C46119   8.662   5.506  -0.846 -0.0923 -0.2507 -0.3836
  335MOL0     C46120   8.710   5.627  -0.924  0.0642  0.4094 -0.5732
  335MOL0     C46121   8.735   5.418  -0.761 -0.7695  0.4090 -0.1570
  335MOL0     C46122   8.871   5.438  -0.700  0.0480  1.0695  0.3576
  335MOL0     O46123   8.911   5.336  -0.618 -0.3453  0.4136 -0.2748
  335MOL0     C46124   9.026   5.352  -0.551 -0.2184 -0.6640 -0.4898
  335MOL0     C46125   9.124   5.255  -0.567  0.1451 -0.8243 -0.5270
  335MOL0     C46126   9.253   5.265  -0.510  0.4740 -0.0617 -0.1676
  335MOL0     C46127   9.290   5.377  -0.435  1.0297  0.6283  0.4958
  335MOL0     O46128   9.403   5.398  -0.373 -0.1164 -0.2978 -0.3189
  335MOL0     C46129   9.513   5.302  -0.392 -0.2537 -0.7526 -0.1255
  335MOL0     C46130   9.625   5.313  -0.293  0.3604 -0.4671 -0.0801
  335MOL0     C46131   9.741   5.230  -0.336 -0.4386  0.1995 -0.4789
  335MOL0     C46132   9.861   5.230  -0.245  0.0511  0.2188  0.1985
  335MOL0     C46133   9.967   5.139  -0.305  0.0366  0.1291 -0.4798
  335MOL0     C46134  10.092   5.115  -0.211 -0.2443 -0.6667  0.1883
  335MOL0     C46135  10.187   5.022  -0.274 -0.4919  0.1672 -0.1096
  335MOL0     C46136  10.316   5.019  -0.192  0.0505 -1.5042 -0.2247
  335MOL0    Cl46137  10.285   4.944  -0.025 -0.1189 -0.7491  0.6062
  335MOL0     C46138   9.190   5.474  -0.416  0.3099  0.6752 -0.1818
  335MOL0     C46139   9.059   5.461  -0.478  0.8222  0.0981 -0.5991
  335MOL0     O46140   8.940   5.530  -0.741  0.1256  0.1796 -0.5999
  335MOL0     C46141   8.677   5.295  -0.725  1.0342 -0.3668  0.2309
  335MOL0     C46142   8.544   5.262  -0.761 -0.8042 -0.1496  0.8765
  335MOL0     N46143   7.880   5.634  -0.814  0.9755 -1.0517  0.0313
  335MOL0     N46144   7.814   5.729  -0.769  0.1818  0.0299 -0.7388
  335MOL0     C46145   8.698   5.599   0.042  0.5384  0.4598  0.1753
  335MOL0     C46146   8.777   5.667   0.134 -0.4762  0.1603 -0.5997
  335MOL0     C46147   8.934   6.007   0.432 -0.0347 -0.3819  0.8706
  335MOL0     C46148   9.058   5.973   0.366  0.2664  0.0325 -0.5294
  335MOL0     C46149   9.177   6.024   0.409  0.8348 -0.2777  0.2471
  335MOL0     C46150   9.180   6.112   0.521 -0.8331 -0.2209  0.7702
  335MOL0     O46151   9.293   6.170   0.564  0.1571 -0.8575  0.9865
  335MOL0     C46152   9.387   6.088   0.637 -0.1132  0.0664 -1.3679
  335MOL0     C46153   9.399   6.126   0.788 -0.8523  0.4036 -0.5776
  335MOL0     C46154   9.512   6.236   0.810 -0.6435  0.1411 -0.6306
  335MOL0     C46155   9.555   6.249   0.965 -0.3997  0.0353  0.1454
  335MOL0     C46156   9.667   6.169   1.010  0.1901  0.5100  0.4443
  335MOL0     C46157   9.762   6.097   1.018 -0.6399 -0.5733 -1.3869
  335MOL0     C46158   9.067   6.143   0.591 -0.3272 -0.1418  0.3388
  335MOL0     C46159   8.943   6.093   0.547  0.9448 -0.1986  0.5578
  335MOL0     C46160   8.831   6.133   0.641  1.6536 -0.3657 -0.7274
  335MOL0     H46161   8.587   5.926   0.225  0.9968 -0.7406  3.5429
  335MOL0     H46162   8.436   5.807   0.081  0.9176  2.0412 -3.2695
  335MOL0     H46163   8.352   5.744  -0.113 -0.3595  0.5376  0.9879
  335MOL0     H46164   8.302   5.621   0.000 -0.5682 -2.8870 -0.9647
  335MOL0     H46165   8.337   5.537  -0.288  1.1346 -0.5248  1.2541
  335MOL0     H46166   8.275   5.444  -0.159 -1.1824  0.5090  0.8021
  335MOL0     H46167   8.057   5.554  -0.193 -0.3328  0.4375  2.3990
  335MOL0     H46168   8.136   5.696  -0.132  0.9113 -2.8708  1.9677
  335MOL0     H46169   8.219   5.755  -0.365  0.0413 -1.6591 -3.1744
  335MOL0     H46170   8.135   5.617  -0.420 -0.4007 -1.3448  1.7347
  335MOL0     H46171   8.003   5.845  -0.267 -1.5124 -0.4788  0.7989
  335MOL0     H46172   7.919   5.726  -0.368 -1.7169  3.1786 -1.5692
  335MOL0     H46173   8.095   5.963  -0.459 -1.3078  1.1794 -0.4935
  335MOL0     H46174   8.070   5.814  -0.550 -0.0289  2.1308 -1.6718
  335MOL0     H46175   7.931   5.988  -0.616  2.6096  1.9874  2.2472
  335MOL0     H46176   7.871   6.027  -0.460  3.8593 -0.9378  1.4163
  335MOL0     H46177   7.733   5.805  -0.451 -1.9862 -0.3689  0.3117
  335MOL0     H46178   7.699   5.901  -0.597  0.3570  0.3541 -0.1662
  335MOL0     H46179   7.888   5.552  -0.496  2.8866  0.5140  0.3362
  335MOL0     H46180   7.906   5.329  -0.704 -1.7266  0.8651  1.4577
  335MOL0     H46181   8.040   5.397  -0.620 -1.8311 -3.0518  0.0511
  335MOL0     H46182   8.022   5.437  -0.915 -0.5141  3.5953  1.6576
  335MOL0     H46183   8.158   5.466  -0.814 -0.2984  1.0650  1.1007
  335MOL0     H46184   8.061   5.175  -0.812 -0.8974 -0.2278 -0.3243
  335MOL0     H46185   8.116   5.237  -0.976 -2.3338 -0.9771  0.4713
  335MOL0     H46186   8.280   5.253  -0.711  1.5357  2.1065 -0.9115
  335MOL0     H46187   8.310   5.133  -0.844  0.5256  1.0566 -2.4798
  335MOL0     H46188   8.476   5.542  -0.926  3.0014 -0.8550 -4.1966
  335MOL0     H46189   8.816   5.615  -0.946  0.5135  3.5445 -0.6552
  335MOL0     H46190   8.698   5.713  -0.856 -0.4389  0.3244 -0.5467
  335MOL0     H46191   8.651   5.640  -1.016 -1.5717  0.6756  0.4665
  335MOL0     H46192   9.104   5.159  -0.614  2.0270 -1.8268  0.6008
  335MOL0     H46193   9.310   5.173  -0.522  0.0849 -0.0849 -2.1890
  335MOL0     H46194   9.486   5.196  -0.387  0.7284 -1.0666 -1.1117
  335MOL0     H46195   9.556   5.319  -0.491 -1.5830  1.8563 -0.3316
  335MOL0     H46196   9.673   5.411  -0.288  2.9582 -1.7150  1.5782
  335MOL0     H46197   9.580   5.283  -0.198  0.5652  0.3507  0.2850
  335MOL0     H46198   9.782   5.276  -0.427  0.1158 -1.3749 -1.0531
  335MOL0     H46199   9.701   5.131  -0.358 -1.5606  0.4938  0.1973
  335MOL0     H46200   9.828   5.200  -0.145 -1.7897  2.7475  0.4728
  335MOL0     H46201   9.891   5.335  -0.235 -0.8663  0.7216 -1.9015
  335MOL0     H46202   9.922   5.045  -0.338 -0.2617 -0.2422  0.9191
  335MOL0     H46203  10.011   5.177  -0.398 -1.4049  1.9045 -0.4809
  335MOL0     H46204  10.065   5.092  -0.108  2.1465  0.2246  1.0799
  335MOL0     H46205  10.149   5.208  -0.204 -2.9329  1.1154 -0.2258
  335MOL0     H46206  10.195   5.062  -0.376 -0.2625  4.3100  1.3464
  335MOL0     H46207  10.149   4.920  -0.262 -0.3856  0.3500  2.2594
  335MOL0     H46208  10.346   5.122  -0.174  1.9623 -1.9142 -0.8652
  335MOL0     H46209  10.392   4.966  -0.250  0.5949 -0.8920 -0.0767
  335MOL0     H46210   9.197   5.564  -0.355  2.5147  0.1505  0.4284
  335MOL0     H46211   8.981   5.536  -0.468  0.6152  0.2109 -2.5984
  335MOL0     H46212   8.724   5.227  -0.655  1.3301  1.6194  2.0355
  335MOL0     H46213   8.504   5.166  -0.730 -1.2242 -0.1719  0.2811
  335MOL0     H46214   8.724   5.503  -0.001  1.0925 -0.1408  1.7702
  335MOL0     H46215   8.875   5.621   0.139  0.0511  1.3022 -0.0394
  335MOL0     H46216   9.062   5.916   0.273  0.7937  3.3243 -2.6839
  335MOL0     H46217   9.262   6.004   0.345  0.6329  1.5269 -0.6550
  335MOL0     H46218   9.373   5.982   0.615  3.2265 -0.3108 -2.2587
  335MOL0     H46219   9.488   6.095   0.595 -0.2672 -0.4278 -1.8190
  335MOL0     H46220   9.412   6.036   0.849  0.3467  1.9199  1.5097
  335MOL0     H46221   9.304   6.166   0.825 -1.1734 -1.1286  0.3260
  335MOL0     H46222   9.600   6.229   0.745  0.0761  0.5913  0.2681
  335MOL0     H46223   9.457   6.327   0.784 -0.8370  0.2267  0.0554
  335MOL0     H46224   9.478   6.213   1.034 -2.8454  0.8182 -2.0438
  335MOL0     H46225   9.579   6.354   0.983  2.4311 -0.6156  0.7647
  335MOL0     H46226   9.849   6.035   1.017  0.1814  0.4450  0.4429
  335MOL0     H46227   9.075   6.216   0.671  3.5866  3.4158 -2.8837
  335MOL0     H46228   8.858   6.214   0.709  2.3245 -0.6122 -0.6906
  335MOL0     H46229   8.750   6.175   0.581 -0.9371 -0.5552  2.3734
  335MOL0     H46230   8.800   6.046   0.699 -0.5637  1.2222  0.6417
  336MOL0     O46231   2.986  10.692   7.872 -0.1331  0.0960 -0.3961
  336MOL0     C46232   2.938  10.768   7.954  0.7768  0.1538 -0.5187
  336MOL0     O46233   2.996  10.888   7.997  0.2094 -1.2072 -0.0330
  336MOL0     C46234   3.130  10.902   8.015 -0.2390 -0.8722 -0.1793
  336MOL0     C46235   3.224  10.798   8.005  0.2555  0.2215 -0.4135
  336MOL0     C46236   3.362  10.808   8.028  0.2669  0.4918  0.3506
  336MOL0     C46237   3.405  10.934   8.082  0.2285  0.3178  0.1692
  336MOL0     O46238   3.532  10.944   8.130 -0.0369  0.6064  0.6007
  336MOL0     C46239   3.638  10.874   8.067 -0.0116  0.1403 -0.2414
  336MOL0     C46240   3.658  10.913   7.921  0.2904  0.9800 -1.2481
  336MOL0     C46241   3.756  10.824   7.850 -0.4610  0.3072 -1.0993
  336MOL0     C46242   3.894  10.802   7.915  0.6575  0.1646  0.7906
  336MOL0     C46243   3.993  10.732   7.819  0.5342 -0.5696 -0.1882
  336MOL0     C46244   4.132  10.715   7.893  0.5384 -0.2475  0.3790
  336MOL0     C46245   4.238  10.674   7.795 -0.6410 -1.0150  0.2674
  336MOL0     C46246   4.375  10.634   7.859  0.6927 -1.0974 -0.1879
  336MOL0     N46247   4.489  10.641   7.773  0.2520 -0.0032 -0.3734
  336MOL0     C46248   4.508  10.534   7.688 -0.6085 -0.3265 -0.0810
  336MOL0     C46249   4.609  10.580   7.605 -0.1434 -0.5412  0.5139
  336MOL0     C46250   4.666  10.508   7.495 -0.0152 -0.0638 -0.3357
  336MOL0     C46251   4.734  10.377   7.541 -0.2401  0.2655 -0.1404
  336MOL0     C46252   4.808  10.294   7.432  0.4447  0.3779  0.2629
  336MOL0     C46253   4.956  10.340   7.405  0.8165 -0.5987  0.0524
  336MOL0     O46254   4.993  10.291   7.286 -0.6747  0.3928  0.0368
  336MOL0     C46255   5.080  10.365   7.206  0.2549 -0.6579 -1.1185
  336MOL0     C46256   5.092  10.340   7.076  0.1935  0.5784  0.1397
  336MOL0     C46257   5.145  10.433   6.988 -0.3996  0.4174 -0.7388
  336MOL0     C46258   5.138  10.409   6.838  0.0902  0.1592 -0.3212
  336MOL0     C46259   5.210  10.540   7.045  0.4795 -0.2449  0.8478
  336MOL0     C46260   5.302  10.631   6.976 -0.3647 -0.0312  0.2091
  336MOL0     O46261   5.276  10.761   6.994  0.2501 -0.8918  0.4316
  336MOL0     C46262   5.342  10.864   6.940  0.2076  0.1627 -0.6608
  336MOL0     C46263   5.275  10.982   6.976  0.1387 -0.1325  0.1418
  336MOL0     C46264   5.316  11.103   6.931 -0.4589 -0.9664 -0.0072
  336MOL0     C46265   5.432  11.112   6.850  0.4078 -0.3264  0.0726
  336MOL0     O46266   5.465  11.246   6.815 -0.0462  0.4433  0.3347
  336MOL0     C46267   5.566  11.250   6.713  0.1442  0.9063  0.2385
  336MOL0     C46268   5.586  11.408   6.675  0.4061 -0.1918 -0.5029
  336MOL0     C46269   5.721  11.421   6.619 -0.5819 -0.1409 -0.0651
  336MOL0     C46270   5.756  11.328   6.494 -0.2183 -0.6291  0.3197
  336MOL0     C46271   5.872  11.385   6.418  0.1169 -0.4956 -0.5972
  336MOL0     C46272   5.901  11.310   6.293  0.9770 -0.0872 -0.3613
  336MOL0     C46273   6.007  11.199   6.305 -0.1661 -0.5252  0.4733
  336MOL0     C46274   6.085  11.162   6.175  0.0800 -0.6062  0.1160
  336MOL0    Cl46275   6.234  11.049   6.201 -0.5015  0.1120 -0.1263
  336MOL0     C46276   5.500  10.991   6.826 -0.7223 -0.0779 -0.7421
  336MOL0     C46277   5.457  10.863   6.861  0.8976  1.2154  0.4674
  336MOL0     O46278   5.408  10.586   6.937 -0.0876 -0.7929 -0.1888
  336MOL0     C46279   5.200  10.569   7.182  0.0083  0.6830  0.4706
  336MOL0     C46280   5.146  10.475   7.270 -0.8388 -0.3205  0.5244
  336MOL0     N46281   4.651  10.703   7.659  0.9045  0.3539  0.6944
  336MOL0     N46282   4.578  10.742   7.761 -0.0827  0.7377  0.5222
  336MOL0     C46283   3.323  11.044   8.085  0.5954  0.2139 -1.0982
  336MOL0     C46284   3.183  11.028   8.061 -0.5071  1.3227  0.6080
  336MOL0     C46285   2.803  10.742   8.008  0.2742 -0.3350  0.2408
  336MOL0     C46286   2.726  10.859   8.033 -0.8546  0.6327 -0.6464
  336MOL0     C46287   2.608  10.847   8.099  1.3774  0.4125  0.1522
  336MOL0     C46288   2.551  10.720   8.119  0.0866  0.2897 -0.4937
  336MOL0     O46289   2.419  10.689   8.149  0.4371  0.0556 -0.0749
  336MOL0     C46290   2.328  10.793   8.137  0.1398 -0.3186  0.1044
  336MOL0     C46291   2.195  10.778   8.219  0.4745  0.7930 -0.4838
  336MOL0     C46292   2.094  10.880   8.174 -0.6731 -0.8163 -0.7239
  336MOL0     C46293   1.991  10.924   8.276  0.6335  0.5810  0.1697
  336MOL0     C46294   1.909  11.044   8.235  0.2998  1.6855 -0.0124
  336MOL0     C46295   1.852  11.142   8.201 -0.5479 -0.7606 -0.0174
  336MOL0     C46296   2.622  10.604   8.090 -0.1091  0.8175 -0.6330
  336MOL0     C46297   2.753  10.607   8.041 -0.7461 -0.4393 -0.0257
  336MOL0     C46298   2.834  10.474   8.012 -0.0170  0.2998 -0.9281
  336MOL0     H46299   3.184  10.698   7.987 -0.5008  0.4276  0.0961
  336MOL0     H46300   3.426  10.720   8.031 -1.3650 -1.1701 -4.2429
  336MOL0     H46301   3.626  10.765   8.072 -1.6712  0.3085  0.1818
  336MOL0     H46302   3.734  10.893   8.115  1.8906  0.1778 -3.7838
  336MOL0     H46303   3.557  10.907   7.879 -1.4386 -0.6532  2.6640
  336MOL0     H46304   3.691  11.016   7.911 -0.4493  1.4446  0.6725
  336MOL0     H46305   3.722  10.724   7.821  1.2953 -0.8494  0.5441
  336MOL0     H46306   3.759  10.864   7.748  0.4529 -0.7278 -1.4962
  336MOL0     H46307   3.937  10.896   7.952 -3.1925  2.2280  0.5717
  336MOL0     H46308   3.882  10.729   7.995 -2.3874  0.1801  0.4778
  336MOL0     H46309   4.011  10.801   7.736 -0.2721  0.9952  0.8831
  336MOL0     H46310   3.958  10.632   7.791 -0.2545 -1.0807  2.3444
  336MOL0     H46311   4.157  10.804   7.951 -2.2681  0.6189  0.3612
  336MOL0     H46312   4.117  10.632   7.963  0.4064 -0.3959  0.1759
  336MOL0     H46313   4.256  10.748   7.717  2.1118 -2.1393 -0.2974
  336MOL0     H46314   4.204  10.581   7.747 -0.2860 -0.1111 -1.8361
  336MOL0     H46315   4.405  10.718   7.922  2.7186  0.3514 -2.8708
  336MOL0     H46316   4.362  10.534   7.902 -0.7267 -0.6443  0.5264
  336MOL0     H46317   4.442  10.449   7.670  0.1037 -0.7130 -0.9959
  336MOL0     H46318   4.742  10.576   7.454 -1.9015  2.6211  0.3305
  336MOL0     H46319   4.582  10.494   7.426 -0.2521 -0.2639 -0.0075
  336MOL0     H46320   4.798  10.389   7.629  0.8629 -1.3143 -0.6757
  336MOL0     H46321   4.668  10.303   7.587  2.7020 -2.0986  0.6281
  336MOL0     H46322   4.812  10.192   7.470  0.8185  1.2733  2.8013
  336MOL0     H46323   4.752  10.290   7.338  0.7981 -0.5183  0.0777
  336MOL0     H46324   4.946  10.449   7.409 -5.0778 -0.8891  2.6531
  336MOL0     H46325   5.023  10.305   7.484  1.1482 -0.2756 -0.0761
  336MOL0     H46326   5.043  10.255   7.029  0.2212  1.5991 -1.8637
  336MOL0     H46327   5.239  10.379   6.807  0.3274  1.2939 -0.6937
  336MOL0     H46328   5.117  10.499   6.779 -0.2874  0.7835  0.7504
  336MOL0     H46329   5.074  10.328   6.800 -0.9762  1.7438 -2.0741
  336MOL0     H46330   5.190  10.973   7.043  0.7613 -2.1657  0.7400
  336MOL0     H46331   5.262  11.197   6.945 -1.5813 -1.4168 -1.0547
  336MOL0     H46332   5.658  11.206   6.754 -0.1947  0.0736  0.1122
  336MOL0     H46333   5.541  11.186   6.628 -1.6318  1.6042  0.2104
  336MOL0     H46334   5.514  11.444   6.601 -0.9419  0.2160  0.9356
  336MOL0     H46335   5.581  11.474   6.762 -0.4242 -0.3348 -0.4319
  336MOL0     H46336   5.801  11.401   6.690  1.4304 -0.0365 -2.1699
  336MOL0     H46337   5.734  11.525   6.588 -1.2930  0.1751  0.6636
  336MOL0     H46338   5.669  11.320   6.429  0.7971  1.4825 -1.4212
  336MOL0     H46339   5.773  11.226   6.529  2.2218 -0.3319  0.1315
  336MOL0     H46340   5.851  11.490   6.396  3.6354  0.2474 -0.9426
  336MOL0     H46341   5.955  11.392   6.488 -0.4877  3.3728 -0.0501
  336MOL0     H46342   5.934  11.386   6.222  1.7022 -0.6658 -0.6580
  336MOL0     H46343   5.814  11.266   6.243  1.4918  1.2068 -2.5127
  336MOL0     H46344   5.964  11.109   6.349 -2.3268  2.1100  4.3877
  336MOL0     H46345   6.077  11.237   6.380 -1.3114 -0.7721  1.6968
  336MOL0     H46346   6.123  11.246   6.116  2.9318 -0.9122  1.3481
  336MOL0     H46347   6.018  11.107   6.108 -1.5784  0.2154  1.0532
  336MOL0     H46348   5.586  10.993   6.760 -1.9100  2.9584 -2.3757
  336MOL0     H46349   5.501  10.771   6.822 -1.2115  0.1640  0.4349
  336MOL0     H46350   5.236  10.662   7.224 -0.6912  0.2945  1.9762
  336MOL0     H46351   5.169  10.492   7.375  0.7605 -0.1314  0.1668
  336MOL0     H46352   3.356  11.142   8.119  0.3836 -0.0782 -0.0113
  336MOL0     H46353   3.122  11.116   8.075  0.6286  2.3268 -0.4805
  336MOL0     H46354   2.774  10.956   8.025 -0.0239  0.6381  2.7154
  336MOL0     H46355   2.550  10.938   8.115  0.6551  0.6942 -3.3188
  336MOL0     H46356   2.366  10.894   8.157 -0.1867 -0.2271  0.2802
  336MOL0     H46357   2.300  10.789   8.031  0.4651  3.5286 -0.2677
  336MOL0     H46358   2.217  10.796   8.325  2.9214  1.5957 -1.0707
  336MOL0     H46359   2.159  10.676   8.208 -0.0298  0.8319  0.6455
  336MOL0     H46360   2.149  10.971   8.152  0.2474 -0.6515  1.9709
  336MOL0     H46361   2.055  10.853   8.075  1.5040  1.6416 -2.3858
  336MOL0     H46362   2.047  10.937   8.370  2.1023 -1.3115 -0.3785
  336MOL0     H46363   1.926  10.837   8.292  1.2983  0.0127 -0.1361
  336MOL0     H46364   1.798  11.230   8.170 -1.1265 -1.0888  0.0453
  336MOL0     H46365   2.585  10.505   8.113  0.3199  0.1688 -2.5295
  336MOL0     H46366   2.757  10.401   8.036 -1.4228  1.2615 -2.3153
  336MOL0     H46367   2.865  10.459   7.907 -0.7840  0.9061 -1.2480
  336MOL0     H46368   2.921  10.460   8.077  0.5947  2.4917 -1.1896
  337MOL0     O46369  10.612   5.253   2.999  0.0822  0.3221  0.2162
  337MOL0     C46370  10.504   5.290   3.045  0.7659 -0.3263  0.0078
  337MOL0     O46371  10.480   5.322   3.181 -0.5767  0.3226  0.2382
  337MOL0     C46372  10.574   5.269   3.266  0.7966 -0.4016  0.1572
  337MOL0     C46373  10.702   5.309   3.280 -0.4027 -0.5003  1.1464
  337MOL0     C46374  10.779   5.253   3.386  0.1432  0.1755  0.4662
  337MOL0     C46375  10.721   5.160   3.475 -0.1311  0.1087  0.1100
  337MOL0     O46376  10.777   5.110   3.579 -0.2643 -0.2203  0.0668
  337MOL0     C46377  10.912   5.099   3.586 -0.7382  0.1593 -0.0699
  337MOL0     C46378  10.940   4.987   3.690 -0.7146 -0.0206 -0.0051
  337MOL0     C46379  11.088   4.950   3.682 -0.1868  0.9277  0.3499
  337MOL0     C46380  11.128   4.874   3.815 -0.9941 -0.0718  0.5326
  337MOL0     C46381  11.262   4.792   3.800  0.7844 -0.2550  0.9674
  337MOL0     C46382  11.289   4.744   3.943 -0.6366 -0.9751 -0.5880
  337MOL0     C46383  11.439   4.704   3.955  0.4609 -1.0082  0.4188
  337MOL0     C46384  11.484   4.569   3.882  0.1709  0.1081  0.1345
  337MOL0     N46385  11.619   4.546   3.931 -0.0241 -0.4286  0.7463
  337MOL0     C46386  11.732   4.612   3.884  0.7019  0.5814  0.2316
  337MOL0     C46387  11.835   4.539   3.928 -0.1238 -0.1371 -0.3380
  337MOL0     C46388  11.976   4.578   3.899  0.1528  0.2723 -0.0183
  337MOL0     C46389  12.043   4.617   4.022 -0.8209 -0.5374  0.2141
  337MOL0     C46390  12.192   4.653   3.989  0.0387  0.1508 -0.8724
  337MOL0     C46391  12.242   4.771   4.075  0.0579 -0.1232 -0.7512
  337MOL0     O46392  12.172   4.894   4.045 -0.8083  0.7857  0.5092
  337MOL0     C46393  12.107   4.957   4.153  0.1944  0.7834  0.4575
  337MOL0     C46394  12.123   5.087   4.175 -0.8194 -0.0414 -0.1866
  337MOL0     C46395  12.045   5.159   4.263  0.1544 -0.4616 -0.1681
  337MOL0     C46396  12.084   5.304   4.283  0.1147 -0.3093  0.5381
  337MOL0     C46397  11.940   5.097   4.333  0.0528  0.3508  0.2717
  337MOL0     C46398  11.845   5.178   4.429 -0.0672  0.8064 -0.0956
  337MOL0     O46399  11.743   5.111   4.495 -0.3025  0.5485  0.0961
  337MOL0     C46400  11.656   5.178   4.580 -0.6047  1.1485  1.0125
  337MOL0     C46401  11.588   5.296   4.549 -0.3817 -0.2982  0.5903
  337MOL0     C46402  11.483   5.341   4.629  0.5640 -0.5156 -0.4706
  337MOL0     C46403  11.448   5.269   4.741  0.5224 -0.9341  0.1122
  337MOL0     O46404  11.330   5.305   4.809  0.2408  0.3522 -0.6012
  337MOL0     C46405  11.261   5.183   4.842 -0.2858 -0.2427  0.6214
  337MOL0     C46406  11.156   5.216   4.950 -0.2106 -0.2155 -1.7119
  337MOL0     C46407  11.207   5.269   5.083  0.5546  0.6052 -0.3617
  337MOL0     C46408  11.338   5.182   5.135  0.0063  0.6943 -0.5610
  337MOL0     C46409  11.396   5.228   5.269 -0.4597  0.1718  1.3293
  337MOL0     C46410  11.538   5.180   5.295  0.1920 -0.7353  0.4917
  337MOL0     C46411  11.585   5.241   5.425 -0.5878  0.6021  0.1156
  337MOL0     C46412  11.737   5.209   5.434  0.3813  0.1420  0.0356
  337MOL0    Cl46413  11.779   5.048   5.460  0.0561  0.1937  0.1563
  337MOL0     C46414  11.534   5.165   4.783 -0.6709  0.1045  0.4267
  337MOL0     C46415  11.626   5.111   4.699  0.0232  0.7855  0.5418
  337MOL0     O46416  11.862   5.303   4.449 -0.2567  1.2099  0.0607
  337MOL0     C46417  11.933   4.954   4.330 -0.2063 -1.3473  0.7665
  337MOL0     C46418  12.022   4.893   4.245  0.2778  0.4369  0.2955
  337MOL0     N46419  11.791   4.433   4.004  0.1308 -1.6053  0.8107
  337MOL0     N46420  11.660   4.435   3.991  0.2832  0.3003  0.4490
  337MOL0     C46421  10.590   5.109   3.445 -0.2311  0.5335 -0.4755
  337MOL0     C46422  10.515   5.171   3.349 -0.5585 -0.0867 -0.3177
  337MOL0     C46423  10.378   5.290   2.973 -0.0195  0.4656 -0.2919
  337MOL0     C46424  10.259   5.337   3.037  0.8178  0.6627 -1.0047
  337MOL0     C46425  10.139   5.322   2.974 -0.5342  0.3358  0.3205
  337MOL0     C46426  10.120   5.260   2.844 -0.5645 -0.2562 -0.2504
  337MOL0     O46427  10.004   5.262   2.767 -0.0378 -0.1384 -0.8151
  337MOL0     C46428   9.902   5.333   2.831 -1.0283  0.6369 -0.8447
  337MOL0     C46429   9.776   5.334   2.754  0.3371  0.0732  0.0544
  337MOL0     C46430   9.720   5.198   2.728  1.3374  0.9752  0.4767
  337MOL0     C46431   9.602   5.174   2.632 -0.0322 -1.2263  1.1105
  337MOL0     C46432   9.498   5.285   2.626 -0.5701  0.8816 -0.4737
  337MOL0     C46433   9.414   5.370   2.617 -1.0983  1.5998 -0.2171
  337MOL0     C46434  10.230   5.207   2.785 -0.4007  0.1192  0.5426
  337MOL0     C46435  10.362   5.223   2.843 -0.2372  0.4512  0.0571
  337MOL0     C46436  10.476   5.179   2.763 -0.4192  0.6010  0.3313
  337MOL0     H46437  10.723   5.378   3.199 -4.3503 -0.7174 -0.2814
  337MOL0     H46438  10.879   5.292   3.400  0.8702 -0.7923 -1.5534
  337MOL0     H46439  10.957   5.197   3.606 -1.4107  1.0282 -2.5049
  337MOL0     H46440  10.947   5.058   3.491 -0.6659 -4.3044  1.6179
  337MOL0     H46441  10.896   5.012   3.786 -2.4924  0.3266 -0.8641
  337MOL0     H46442  10.884   4.899   3.657 -1.2350  0.5087 -0.5680
  337MOL0     H46443  11.103   4.881   3.599 -0.1709  1.7519 -0.3488
  337MOL0     H46444  11.163   5.025   3.656  0.2047  0.7883  1.0658
  337MOL0     H46445  11.126   4.949   3.895 -2.9581 -0.8937  1.3485
  337MOL0     H46446  11.045   4.804   3.835 -4.6157  1.7444 -5.5884
  337MOL0     H46447  11.334   4.861   3.755 -0.5906  0.0443 -0.8668
  337MOL0     H46448  11.264   4.706   3.733  3.8255  0.8040 -0.5000
  337MOL0     H46449  11.269   4.824   4.014  0.5431 -1.3270  0.1668
  337MOL0     H46450  11.235   4.654   3.973  1.8710 -2.3971 -0.0491
  337MOL0     H46451  11.462   4.696   4.061  1.5323 -2.5590  0.0921
  337MOL0     H46452  11.503   4.789   3.928  0.0151 -0.3714  1.3084
  337MOL0     H46453  11.424   4.488   3.923  0.9232 -1.3165 -1.4247
  337MOL0     H46454  11.485   4.562   3.773  0.0115 -2.5136  0.2350
  337MOL0     H46455  11.731   4.693   3.812  0.4808  0.8145  0.4950
  337MOL0     H46456  11.974   4.662   3.829 -0.7402  0.5831  0.3756
  337MOL0     H46457  12.026   4.495   3.847 -3.0172 -0.0145 -3.0061
  337MOL0     H46458  11.987   4.709   4.041  1.7354  1.6272 -1.8343
  337MOL0     H46459  12.030   4.548   4.106  0.2816  0.0780  0.9269
  337MOL0     H46460  12.255   4.568   4.016 -2.6299 -1.5441  0.5599
  337MOL0     H46461  12.200   4.676   3.882  0.6476  0.4779 -0.7587
  337MOL0     H46462  12.252   4.751   4.182  1.3193  2.5102 -0.2837
  337MOL0     H46463  12.347   4.790   4.049  0.4685  1.8461  1.9626
  337MOL0     H46464  12.179   5.127   4.090  0.8293 -1.9290 -0.0629
  337MOL0     H46465  12.176   5.328   4.229  0.7903 -0.6088  1.5293
  337MOL0     H46466  12.116   5.325   4.386 -0.3461  2.3864  0.2044
  337MOL0     H46467  12.004   5.372   4.252  0.7994  0.4075  0.3239
  337MOL0     H46468  11.614   5.340   4.453  2.1630  2.2638  2.3134
  337MOL0     H46469  11.426   5.422   4.584  2.7542  0.3948 -1.7351
  337MOL0     H46470  11.210   5.147   4.752 -2.6084  1.0323  1.3238
  337MOL0     H46471  11.321   5.100   4.883 -0.1843 -0.7897 -0.5921
  337MOL0     H46472  11.075   5.278   4.912 -1.0574 -0.3025 -0.1331
  337MOL0     H46473  11.105   5.122   4.975 -1.1302  0.6422 -0.2108
  337MOL0     H46474  11.129   5.288   5.157 -0.6981  0.3531 -1.5770
  337MOL0     H46475  11.235   5.372   5.057  1.3444  0.0678 -1.7595
  337MOL0     H46476  11.418   5.188   5.061  1.8726 -2.2325  1.0357
  337MOL0     H46477  11.306   5.077   5.141 -1.9558  1.3061  0.4215
  337MOL0     H46478  11.394   5.337   5.273  4.8734  0.6283 -0.4864
  337MOL0     H46479  11.335   5.198   5.354 -0.5129 -1.1967  0.8452
  337MOL0     H46480  11.581   5.215   5.201 -1.5809  0.8824  0.2237
  337MOL0     H46481  11.533   5.071   5.310 -1.3168 -0.4789  2.1773
  337MOL0     H46482  11.533   5.200   5.511  1.4576  0.9810  1.6050
  337MOL0     H46483  11.573   5.350   5.426  3.2283  1.1821  0.1280
  337MOL0     H46484  11.787   5.280   5.500  1.4546  0.7592 -1.3883
  337MOL0     H46485  11.784   5.239   5.340  3.2899  3.1209  2.2072
  337MOL0     H46486  11.543   5.113   4.878  3.6279  3.0913  1.9839
  337MOL0     H46487  11.683   5.020   4.716  1.1664  1.2640 -0.5900
  337MOL0     H46488  11.866   4.900   4.396 -0.9564 -1.4686 -0.0744
  337MOL0     H46489  12.031   4.785   4.242  2.2886  0.4429  2.8392
  337MOL0     H46490  10.552   5.032   3.511  0.6635  0.8238  0.3907
  337MOL0     H46491  10.411   5.144   3.331 -0.4765 -0.4474 -0.2593
  337MOL0     H46492  10.257   5.385   3.135 -0.9967 -0.6365 -0.3486
  337MOL0     H46493  10.050   5.364   3.021 -0.5490  0.5449  0.1054
  337MOL0     H46494   9.878   5.277   2.922 -2.7559  2.8599  0.1711
  337MOL0     H46495   9.934   5.434   2.862  0.0130 -0.7749  3.3780
  337MOL0     H46496   9.792   5.391   2.662  0.5708 -1.9269 -1.1823
  337MOL0     H46497   9.707   5.398   2.811 -0.2883 -1.2728  0.8350
  337MOL0     H46498   9.803   5.129   2.710  0.0524 -0.5651  0.2644
  337MOL0     H46499   9.685   5.160   2.824  1.5034  1.8060  0.8779
  337MOL0     H46500   9.549   5.080   2.645 -1.0508 -0.7729  0.3913
  337MOL0     H46501   9.644   5.159   2.532 -1.0920 -2.8917  0.8824
  337MOL0     H46502   9.344   5.450   2.629 -1.1882  1.2873  1.7132
  337MOL0     H46503  10.237   5.161   2.687  0.8103 -0.6043  0.9507
  337MOL0     H46504  10.520   5.274   2.732 -1.1166  1.7938  2.7598
  337MOL0     H46505  10.537   5.117   2.829 -0.7794  0.2829  0.3712
  337MOL0     H46506  10.454   5.113   2.678  0.3376 -2.2102  2.1712
  338MOL0     O46507   6.462  10.313   4.892 -1.6679 -0.2315  0.0874
  338MOL0     C46508   6.404  10.249   4.801  1.2902 -0.3270 -1.0574
  338MOL0     O46509   6.416  10.120   4.775  0.1216 -0.2713 -0.2589
  338MOL0     C46510   6.492  10.050   4.866  0.2229  0.5630 -0.7178
  338MOL0     C46511   6.431   9.992   4.980 -0.1393 -0.4839  0.1580
  338MOL0     C46512   6.515   9.928   5.072  0.1755 -0.3551  0.0407
  338MOL0     C46513   6.652   9.906   5.059  0.4054 -0.7718  0.1562
  338MOL0     O46514   6.703   9.811   5.151 -0.3840  0.1448  0.6850
  338MOL0     C46515   6.842   9.796   5.136  1.0335  0.1191  0.6432
  338MOL0     C46516   6.876   9.700   5.025 -0.3792  0.4472 -0.8030
  338MOL0     C46517   7.023   9.666   5.039  0.3787  0.1018  0.1769
  338MOL0     C46518   7.074   9.579   4.922  0.4618  0.3200 -0.8176
  338MOL0     C46519   7.227   9.553   4.939  0.3927  0.6651  0.6049
  338MOL0     C46520   7.273   9.456   4.828 -0.0032  0.2700 -0.0366
  338MOL0     C46521   7.417   9.414   4.858 -0.1015 -0.1890  0.6962
  338MOL0     C46522   7.514   9.525   4.843  0.1436  0.4618 -0.7187
  338MOL0     N46523   7.648   9.471   4.831 -0.0765 -0.3752  0.2665
  338MOL0     C46524   7.743   9.537   4.889 -0.7408  0.6407  0.2517
  338MOL0     C46525   7.853   9.472   4.852  0.3155 -0.5720 -0.0779
  338MOL0     C46526   7.992   9.507   4.892  0.0603  0.5877  0.1851
  338MOL0     C46527   8.053   9.618   4.806  0.2240 -0.6209  0.3834
  338MOL0     C46528   8.164   9.685   4.864  0.1729  0.6246  0.6565
  338MOL0     C46529   8.275   9.604   4.940 -0.0055  0.4513  0.2028
  338MOL0     O46530   8.342   9.506   4.856  0.1140  0.1955  0.6884
  338MOL0     C46531   8.446   9.540   4.768  0.2994  0.3848 -1.0880
  338MOL0     C46532   8.486   9.674   4.731 -0.2944  0.9447 -0.4168
  338MOL0     C46533   8.602   9.690   4.648 -0.3366 -0.0290 -0.4178
  338MOL0     C46534   8.632   9.831   4.603  0.0753 -0.2724  0.1533
  338MOL0     C46535   8.669   9.584   4.594 -0.7532 -0.1150 -0.0819
  338MOL0     C46536   8.796   9.590   4.509 -0.0682 -0.2777 -0.3028
  338MOL0     O46537   8.863   9.469   4.500 -0.0061 -0.0144  0.1341
  338MOL0     C46538   8.968   9.449   4.415 -0.0563  0.1517  0.1574
  338MOL0     C46539   8.986   9.326   4.362  0.7245 -0.6564 -0.5714
  338MOL0     C46540   9.096   9.301   4.274 -0.2418 -0.0624 -0.4841
  338MOL0     C46541   9.193   9.392   4.251 -0.0538  0.6850  0.1052
  338MOL0     O46542   9.303   9.370   4.172 -1.0663  0.1164 -0.7898
  338MOL0     C46543   9.293   9.345   4.037  0.1488  0.0184  0.0370
  338MOL0     C46544   9.423   9.377   3.967  0.1287 -0.3283 -0.6261
  338MOL0     C46545   9.412   9.387   3.816 -0.2187  0.4734  0.0446
  338MOL0     C46546   9.332   9.501   3.768  0.2045 -0.6932  0.8826
  338MOL0     C46547   9.338   9.527   3.621  0.0874  0.2460 -0.0857
  338MOL0     C46548   9.293   9.411   3.522 -0.6094 -0.1324 -0.3105
  338MOL0     C46549   9.292   9.459   3.376  0.1756 -0.1890  0.0315
  338MOL0     C46550   9.244   9.354   3.277 -0.7780  0.2958 -0.2005
  338MOL0    Cl46551   9.366   9.217   3.273 -0.2555 -0.2499 -0.0221
  338MOL0     C46552   9.176   9.518   4.310  0.4840 -0.5024 -0.4453
  338MOL0     C46553   9.070   9.544   4.396 -0.5954  0.2155 -0.1364
  338MOL0     O46554   8.822   9.691   4.450 -0.1458  0.3697 -0.3225
  338MOL0     C46555   8.612   9.457   4.617  0.1330  0.4853 -0.4905
  338MOL0     C46556   8.507   9.434   4.703 -0.3519 -0.5236 -0.3438
  338MOL0     N46557   7.822   9.365   4.764 -0.4602 -0.3339 -0.2061
  338MOL0     N46558   7.695   9.368   4.758  0.6606 -0.9927  0.8752
  338MOL0     C46559   6.711   9.956   4.941  0.0396 -1.3794  0.4920
  338MOL0     C46560   6.632  10.027   4.843 -0.0081 -0.1511 -0.6862
  338MOL0     C46561   6.332  10.340   4.698 -0.8055 -1.0617 -0.0755
  338MOL0     C46562   6.354  10.482   4.712  0.7419 -1.2644 -0.0918
  338MOL0     C46563   6.291  10.565   4.620 -0.5183  0.2216 -0.6961
  338MOL0     C46564   6.219  10.515   4.508  0.5217 -0.3613  0.4543
  338MOL0     O46565   6.184  10.602   4.415 -0.2074 -0.0063 -0.7405
  338MOL0     C46566   6.200  10.562   4.281 -0.2195  0.9831  0.1962
  338MOL0     C46567   6.199  10.679   4.179 -0.7432  0.1622 -0.8728
  338MOL0     C46568   6.272  10.797   4.246 -0.5182  0.3966 -0.0061
  338MOL0     C46569   6.311  10.889   4.121 -0.1192 -0.3606 -0.4093
  338MOL0     C46570   6.327  11.024   4.169 -0.6452 -0.5910  0.6538
  338MOL0     C46571   6.328  11.137   4.209 -0.0474  0.4216  0.2387
  338MOL0     C46572   6.196  10.375   4.499  0.5612 -1.0768  0.3988
  338MOL0     C46573   6.259  10.285   4.588  0.1717  0.4638  0.0903
  338MOL0     C46574   6.226  10.131   4.577  0.3183 -0.1984  0.7729
  338MOL0     H46575   6.325   9.995   5.002  0.1623 -0.3921  1.7033
  338MOL0     H46576   6.471   9.888   5.163  1.5559 -0.7980  0.5302
  338MOL0     H46577   6.881   9.752   5.228  2.3953 -0.7299 -0.3178
  338MOL0     H46578   6.900   9.887   5.119 -1.0282  0.9257 -3.1652
  338MOL0     H46579   6.815   9.612   5.045 -0.7407  0.4400 -1.9070
  338MOL0     H46580   6.850   9.744   4.929 -0.1015  1.5188 -0.4064
  338MOL0     H46581   7.079   9.759   5.048 -2.7146  2.0923  0.2417
  338MOL0     H46582   7.046   9.604   5.126  2.0060 -0.5494 -0.6752
  338MOL0     H46583   7.019   9.486   4.910 -1.8826  1.3134  1.3775
  338MOL0     H46584   7.061   9.640   4.831  0.5409 -0.5302 -1.4077
  338MOL0     H46585   7.258   9.511   5.035 -1.4905 -2.7553 -0.1236
  338MOL0     H46586   7.280   9.647   4.918  2.2262  0.1303  2.4377
  338MOL0     H46587   7.219   9.361   4.834  0.4161 -0.0981 -1.6786
  338MOL0     H46588   7.258   9.501   4.729  0.7630  1.9255  0.5686
  338MOL0     H46589   7.440   9.337   4.784  0.7926  0.9871 -0.2910
  338MOL0     H46590   7.430   9.372   4.958  2.9544  0.7849  0.7778
  338MOL0     H46591   7.490   9.573   4.748 -0.2459  1.0910 -0.3161
  338MOL0     H46592   7.501   9.600   4.922 -0.0669  1.0320 -1.2884
  338MOL0     H46593   7.736   9.619   4.959 -0.3937  2.8934 -2.1617
  338MOL0     H46594   8.056   9.418   4.886 -0.2581  0.4267 -1.1571
  338MOL0     H46595   7.987   9.543   4.996  1.4927  0.4224  0.3362
  338MOL0     H46596   8.080   9.584   4.706  1.0844 -0.4154  0.5390
  338MOL0     H46597   7.971   9.689   4.791  0.2693 -1.0418 -2.4047
  338MOL0     H46598   8.204   9.742   4.780  1.0305  0.0249  0.6476
  338MOL0     H46599   8.123   9.754   4.939 -1.8017  1.0453 -0.7302
  338MOL0     H46600   8.352   9.669   4.983  0.6107 -1.6449  2.5277
  338MOL0     H46601   8.227   9.546   5.020  1.0896  1.4745  1.6622
  338MOL0     H46602   8.429   9.760   4.765  2.1443  3.3800 -2.0075
  338MOL0     H46603   8.737   9.860   4.612  0.0472 -0.7329  2.7035
  338MOL0     H46604   8.583   9.894   4.677  1.1622 -0.2964  0.9131
  338MOL0     H46605   8.586   9.846   4.505 -2.1984 -3.0425  0.6626
  338MOL0     H46606   8.911   9.251   4.384 -0.1694  1.1143  3.3237
  338MOL0     H46607   9.116   9.206   4.226  0.9338  0.1910 -0.5205
  338MOL0     H46608   9.267   9.243   4.010  2.0758 -2.3099  5.5731
  338MOL0     H46609   9.212   9.406   3.996 -0.8494 -1.2344  0.0900
  338MOL0     H46610   9.473   9.469   3.998 -1.3544 -0.0997  1.3044
  338MOL0     H46611   9.482   9.292   4.004 -1.9563 -0.4204  3.0521
  338MOL0     H46612   9.384   9.293   3.766 -0.0541  1.3042 -1.7032
  338MOL0     H46613   9.515   9.394   3.779  1.2190 -3.4189  2.6617
  338MOL0     H46614   9.365   9.589   3.825 -1.6040 -0.6580  1.9468
  338MOL0     H46615   9.226   9.500   3.793 -0.2818  2.9984 -0.4125
  338MOL0     H46616   9.293   9.627   3.613 -2.7031 -0.9092 -0.1369
  338MOL0     H46617   9.445   9.536   3.601  0.2196  1.1580  0.9540
  338MOL0     H46618   9.191   9.385   3.553  0.1871 -0.8964  1.8988
  338MOL0     H46619   9.362   9.326   3.532 -1.4862 -0.6876  1.5821
  338MOL0     H46620   9.390   9.490   3.339 -0.8673  1.4708 -1.5283
  338MOL0     H46621   9.213   9.535   3.377 -0.3792 -0.6089 -2.8150
  338MOL0     H46622   9.252   9.393   3.175  1.3620 -1.4679 -0.7793
  338MOL0     H46623   9.142   9.319   3.299 -0.2527 -1.1297  0.0202
  338MOL0     H46624   9.259   9.587   4.295  0.2545  0.7256  3.0702
  338MOL0     H46625   9.069   9.630   4.463 -2.6267 -0.2984  0.5800
  338MOL0     H46626   8.652   9.374   4.560  1.5214  2.5717 -2.8083
  338MOL0     H46627   8.463   9.336   4.723 -1.7834 -0.5205 -2.9918
  338MOL0     H46628   6.817   9.945   4.920  0.1953  1.1620 -0.3767
  338MOL0     H46629   6.675  10.080   4.758 -4.2437  3.3774 -0.9714
  338MOL0     H46630   6.403  10.527   4.797 -3.5822 -1.9543  3.0790
  338MOL0     H46631   6.293  10.673   4.633 -1.6513  0.2879 -1.0127
  338MOL0     H46632   6.301  10.524   4.266 -1.1730 -1.7230  0.1194
  338MOL0     H46633   6.128  10.484   4.255  1.0639 -1.4775  3.3580
  338MOL0     H46634   6.094  10.700   4.153 -0.5823  2.7939  0.2981
  338MOL0     H46635   6.254  10.650   4.089  0.2427  1.2103 -0.6215
  338MOL0     H46636   6.207  10.855   4.312 -0.7533 -1.6691  1.6633
  338MOL0     H46637   6.360  10.776   4.307 -0.1082 -0.2557 -0.7985
  338MOL0     H46638   6.223  10.892   4.056 -0.3084  1.9981 -0.1090
  338MOL0     H46639   6.398  10.852   4.067 -0.4630  1.2199 -2.1129
  338MOL0     H46640   6.298  11.236   4.236 -2.3932  0.2276 -1.3400
  338MOL0     H46641   6.134  10.347   4.414 -1.0270  2.1760  0.3512
  338MOL0     H46642   6.313  10.068   4.558 -0.2340 -0.6498 -0.4047
  338MOL0     H46643   6.167  10.088   4.658  0.1364 -2.7188 -0.5704
  338MOL0     H46644   6.170  10.133   4.482  1.4490 -1.3238  0.0518
  339MOL0     O46645   6.592  10.443   9.635 -0.0847 -0.5731  0.4409
  339MOL0     C46646   6.581  10.483   9.749 -0.8634  0.4840  0.2344
  339MOL0     O46647   6.646  10.601   9.793  0.4103 -0.8829  0.0238
  339MOL0     C46648   6.748  10.646   9.715 -1.1452  0.5801  0.7865
  339MOL0     C46649   6.864  10.564   9.688  0.3973  0.0008 -0.3087
  339MOL0     C46650   6.960  10.617   9.597  0.2445  0.4448 -0.6939
  339MOL0     C46651   6.955  10.752   9.544  0.9637  0.2644  0.2438
  339MOL0     O46652   7.055  10.811   9.470 -0.0699  0.0072  0.3198
  339MOL0     C46653   7.182  10.745   9.452 -0.6019 -0.0236 -0.8621
  339MOL0     C46654   7.283  10.850   9.390 -0.5147  0.9758  0.0437
  339MOL0     C46655   7.425  10.790   9.374 -0.5485 -0.0989  0.6225
  339MOL0     C46656   7.507  10.899   9.292 -0.0390 -1.0702  0.3774
  339MOL0     C46657   7.647  10.837   9.248  0.9385 -1.2444 -0.3043
  339MOL0     C46658   7.741  10.947   9.201  0.2054  0.3701 -0.6019
  339MOL0     C46659   7.874  10.890   9.165  0.8521 -0.0067 -1.0756
  339MOL0     C46660   7.965  10.997   9.117  0.5659 -0.1559 -0.2409
  339MOL0     N46661   8.088  10.949   9.045 -0.0078 -0.4243  0.0744
  339MOL0     C46662   8.164  10.849   9.097 -0.3270 -0.1268  0.5070
  339MOL0     C46663   8.271  10.840   9.015  1.0590 -0.4369 -0.5872
  339MOL0     C46664   8.387  10.748   9.045 -0.5032  0.1084 -0.1798
  339MOL0     C46665   8.436  10.743   9.192  0.3106 -0.4534 -0.9259
  339MOL0     C46666   8.528  10.862   9.224 -0.6972 -1.3698 -0.8254
  339MOL0     C46667   8.664  10.891   9.155 -0.9344 -0.2363  0.2204
  339MOL0     O46668   8.737  10.771   9.145 -1.1061  0.3144 -0.2118
  339MOL0     C46669   8.865  10.774   9.091  0.6685  0.7395 -0.4354
  339MOL0     C46670   8.910  10.883   9.027 -0.0255 -0.2922 -0.0357
  339MOL0     C46671   9.038  10.879   8.961  0.3728  0.0457 -0.6148
  339MOL0     C46672   9.087  11.009   8.904  0.3625 -0.0710 -0.1130
  339MOL0     C46673   9.095  10.759   8.935  0.3473 -0.2270  1.1210
  339MOL0     C46674   9.218  10.743   8.850  0.7911  0.0498 -0.1289
  339MOL0     O46675   9.328  10.716   8.917  0.4625 -0.3078  0.5618
  339MOL0     C46676   9.450  10.708   8.851 -0.4849  0.0244  0.0134
  339MOL0     C46677   9.563  10.780   8.889 -0.4463  0.4024  0.3420
  339MOL0     C46678   9.694  10.757   8.841  0.1366 -0.3309  0.0286
  339MOL0     C46679   9.715  10.652   8.742 -0.4528 -0.3187  0.2434
  339MOL0     O46680   9.842  10.622   8.687  0.8330 -0.1227  0.8791
  339MOL0     C46681   9.955  10.698   8.723 -0.3172 -0.2135  1.3219
  339MOL0     C46682  10.080  10.667   8.633  0.2688 -0.5059  0.6268
  339MOL0     C46683  10.127  10.522   8.650 -0.1535 -0.0112  0.0380
  339MOL0     C46684  10.261  10.498   8.598  0.2465  0.7747  0.5985
  339MOL0     C46685  10.322  10.365   8.664  0.5144 -0.5909  0.3218
  339MOL0     C46686  10.464  10.347   8.633 -0.2923  0.0344 -0.1958
  339MOL0     C46687  10.534  10.238   8.715  0.4092 -0.1696  0.0779
  339MOL0     C46688  10.666  10.177   8.661  0.2960  0.2709  0.4928
  339MOL0    Cl46689  10.644  10.096   8.507  0.2580  0.0673  0.1648
  339MOL0     C46690   9.607  10.568   8.714 -0.4654 -0.1305  0.5384
  339MOL0     C46691   9.483  10.592   8.774  0.4887  0.0821  0.4948
  339MOL0     O46692   9.207  10.751   8.727  0.1953 -0.4990  0.0096
  339MOL0     C46693   9.041  10.638   8.991  0.5416 -0.6084 -0.5915
  339MOL0     C46694   8.929  10.651   9.073 -0.2500  0.6318  0.2655
  339MOL0     N46695   8.247  10.924   8.906  0.9410  0.8756  0.0540
  339MOL0     N46696   8.136  10.985   8.923  0.4804 -0.4829 -0.7696
  339MOL0     C46697   6.842  10.823   9.578  0.0743 -0.1377  0.1578
  339MOL0     C46698   6.745  10.772   9.661 -0.4090  0.3018  0.5898
  339MOL0     C46699   6.491  10.419   9.848 -0.8511  0.3386  0.0677
  339MOL0     C46700   6.507  10.452   9.984 -0.9913  0.3167  0.3768
  339MOL0     C46701   6.431  10.410  10.087 -0.0073  0.6377 -0.3534
  339MOL0     C46702   6.319  10.328  10.058  0.5152  0.8544 -0.2362
  339MOL0     O46703   6.231  10.293  10.165 -0.2270 -0.1224  0.3639
  339MOL0     C46704   6.155  10.170  10.145 -0.1101  0.0143 -0.3280
  339MOL0     C46705   6.048  10.151  10.250  0.4455 -0.4000  0.3527
  339MOL0     C46706   6.104  10.117  10.390 -0.1582 -0.6807 -0.6019
  339MOL0     C46707   5.999  10.129  10.504  1.0178  0.1440  0.2909
  339MOL0     C46708   6.056  10.100  10.634 -0.3892  0.4863 -0.2247
  339MOL0     C46709   6.116  10.095  10.736 -0.2249 -0.7027 -0.4462
  339MOL0     C46710   6.296  10.299   9.923 -0.0586  0.2183  0.3987
  339MOL0     C46711   6.377  10.338   9.819 -0.4573 -0.6448 -0.4573
  339MOL0     C46712   6.335  10.298   9.689  0.5972  0.9849 -0.2583
  339MOL0     H46713   6.875  10.470   9.740 -1.0037 -0.3137 -0.5374
  339MOL0     H46714   7.043  10.554   9.565 -0.6291 -3.4336  3.5884
  339MOL0     H46715   7.168  10.658   9.386 -0.1102  0.4879 -1.6652
  339MOL0     H46716   7.210  10.730   9.556  3.1248  5.0829 -0.7483
  339MOL0     H46717   7.237  10.874   9.294 -3.4099  2.4811  1.6808
  339MOL0     H46718   7.278  10.938   9.455  2.6691  0.5534  1.0708
  339MOL0     H46719   7.471  10.773   9.472  0.4805 -0.7037  0.0493
  339MOL0     H46720   7.433  10.697   9.317 -2.2013 -0.1390  0.4137
  339MOL0     H46721   7.443  10.937   9.212 -1.6762  1.4236  2.6982
  339MOL0     H46722   7.524  10.986   9.356 -0.6475 -1.1744  0.6862
  339MOL0     H46723   7.626  10.748   9.188 -1.2367 -2.1208  1.6002
  339MOL0     H46724   7.679  10.799   9.346 -1.0000 -2.3508 -0.0594
  339MOL0     H46725   7.699  10.995   9.112  2.2941  1.4661 -1.0656
  339MOL0     H46726   7.746  11.027   9.275 -2.2175 -0.5266  0.6203
  339MOL0     H46727   7.862  10.826   9.078 -1.1623  0.5436 -1.2519
  339MOL0     H46728   7.919  10.833   9.247 -1.3082 -1.2295 -0.6618
  339MOL0     H46729   7.903  11.065   9.057 -2.0394 -3.0474 -1.1070
  339MOL0     H46730   7.981  11.048   9.213 -2.4650 -0.5113  0.5763
  339MOL0     H46731   8.158  10.797   9.192 -0.2124 -0.6881  0.2164
  339MOL0     H46732   8.468  10.776   8.976 -0.7931  2.0456  0.2001
  339MOL0     H46733   8.354  10.646   9.024 -0.4488 -0.1638  0.9936
  339MOL0     H46734   8.362  10.747   9.272  3.7407  1.0346  2.4503
  339MOL0     H46735   8.496  10.652   9.196 -0.6230 -1.1181 -1.6432
  339MOL0     H46736   8.471  10.955   9.214 -0.7770 -1.5439 -2.3467
  339MOL0     H46737   8.558  10.841   9.327 -0.1907  0.4943 -0.5611
  339MOL0     H46738   8.669  10.942   9.059  3.4218  1.4716  1.1032
  339MOL0     H46739   8.718  10.959   9.222  1.0566 -3.0324  1.6739
  339MOL0     H46740   8.868  10.983   9.037 -0.0729 -0.4479  1.7134
  339MOL0     H46741   9.142  10.994   8.811 -0.5631  1.3368 -0.9243
  339MOL0     H46742   9.156  11.058   8.973  1.0277 -0.4818 -0.4872
  339MOL0     H46743   8.998  11.073   8.893 -0.1873 -0.8097 -0.0086
  339MOL0     H46744   9.556  10.850   8.971 -3.7463 -1.9264  2.3128
  339MOL0     H46745   9.781  10.808   8.880  0.9295 -1.3436 -0.3672
  339MOL0     H46746   9.929  10.800   8.695 -1.2479 -0.6619  0.4799
  339MOL0     H46747   9.978  10.676   8.828  1.8344 -2.4295  0.4917
  339MOL0     H46748  10.043  10.690   8.533 -2.8545  1.3492  2.0656
  339MOL0     H46749  10.159  10.740   8.654 -1.7864  2.2719 -0.7234
  339MOL0     H46750  10.056  10.443   8.623 -1.4426  0.8506  0.7982
  339MOL0     H46751  10.140  10.501   8.756  0.2053 -2.3425 -0.4089
  339MOL0     H46752  10.328  10.578   8.629  0.6655  0.6441  0.0556
  339MOL0     H46753  10.254  10.498   8.489  2.2350  2.0277  0.4281
  339MOL0     H46754  10.309  10.374   8.772 -1.2417  6.4509  0.0394
  339MOL0     H46755  10.273  10.273   8.629  1.2800 -0.9773  0.2478
  339MOL0     H46756  10.519  10.439   8.652 -0.0182 -0.2371  0.3672
  339MOL0     H46757  10.476  10.310   8.530  2.4333  1.3575 -0.4598
  339MOL0     H46758  10.463  10.155   8.720 -1.6148  1.5400  1.3691
  339MOL0     H46759  10.543  10.279   8.816  1.0456 -0.1582  0.0191
  339MOL0     H46760  10.707  10.108   8.734 -0.4263  1.1902  1.8026
  339MOL0     H46761  10.748  10.249   8.648  2.0726 -2.0802 -2.5045
  339MOL0     H46762   9.622  10.474   8.661  1.1733 -0.8704  2.1707
  339MOL0     H46763   9.409  10.513   8.763  0.7791 -0.2872  1.1182
  339MOL0     H46764   9.086  10.543   8.965 -0.2339 -0.6725 -1.7813
  339MOL0     H46765   8.867  10.575   9.117 -2.0980  2.1423  0.3942
  339MOL0     H46766   6.828  10.923   9.541 -1.7163 -0.6755 -0.7063
  339MOL0     H46767   6.657  10.832   9.684 -0.1143  1.4274 -1.0548
  339MOL0     H46768   6.588  10.519  10.014  1.0254 -2.2546  1.0417
  339MOL0     H46769   6.453  10.425  10.193  3.3124 -1.7224 -0.5326
  339MOL0     H46770   6.108  10.191  10.048  0.4171 -0.3724 -0.6764
  339MOL0     H46771   6.223  10.085  10.134 -0.4741 -0.1253 -1.7336
  339MOL0     H46772   5.974  10.073  10.230 -1.0117  0.4758  2.0765
  339MOL0     H46773   6.000  10.249  10.256  1.1866  0.0917 -1.2549
  339MOL0     H46774   6.156  10.021  10.386  1.1674 -0.0558  0.7264
  339MOL0     H46775   6.181  10.194  10.408 -0.9929  0.5006 -1.8406
  339MOL0     H46776   5.911  10.065  10.487  0.7255 -0.0108  2.1499
  339MOL0     H46777   5.957  10.229  10.513 -3.4720 -1.6833  4.1500
  339MOL0     H46778   6.171  10.096  10.828  0.4916  0.3885 -0.8676
  339MOL0     H46779   6.197  10.269   9.891 -0.7474 -0.1404  2.7056
  339MOL0     H46780   6.321  10.377   9.614 -0.2547  0.2314 -0.9210
  339MOL0     H46781   6.402  10.220   9.650  1.0590  1.6724 -0.8783
  339MOL0     H46782   6.237  10.249   9.695  1.1369 -0.0599  0.2804
  340MOL0     O46783   7.803   5.902   5.475  0.2906  0.4353  0.5454
  340MOL0     C46784   7.770   5.989   5.393 -0.7441  0.0525  0.6108
  340MOL0     O46785   7.770   6.116   5.417 -0.1980 -0.4990  0.3893
  340MOL0     C46786   7.776   6.168   5.542  0.0444  1.3334  0.2969
  340MOL0     C46787   7.889   6.156   5.619  0.0204 -0.5997  0.4634
  340MOL0     C46788   7.891   6.204   5.749  0.0641  0.3607  0.7746
  340MOL0     C46789   7.780   6.267   5.796 -1.1082 -0.3586 -0.5698
  340MOL0     O46790   7.765   6.339   5.913  0.3131 -0.5145  1.0958
  340MOL0     C46791   7.879   6.376   5.992 -0.3121 -0.0528  0.2893
  340MOL0     C46792   7.933   6.503   5.928  0.4709 -0.0189 -0.2025
  340MOL0     C46793   8.060   6.552   6.005 -0.1111 -0.0989 -0.1188
  340MOL0     C46794   8.176   6.460   6.013 -0.0959  0.0186 -0.4510
  340MOL0     C46795   8.301   6.529   6.071 -0.5533  0.5349 -1.1015
  340MOL0     C46796   8.427   6.438   6.090 -0.7384 -1.1693 -0.2202
  340MOL0     C46797   8.531   6.509   6.170  0.1991  0.1043 -0.6068
  340MOL0     C46798   8.635   6.404   6.216  0.1017 -0.4464 -0.4349
  340MOL0     N46799   8.730   6.480   6.305 -0.6332 -0.5658  0.0664
  340MOL0     C46800   8.855   6.508   6.257 -0.4954 -0.0329 -0.0065
  340MOL0     C46801   8.901   6.611   6.335 -0.4175 -0.0664  0.1265
  340MOL0     C46802   9.035   6.688   6.328  0.5435  0.2616 -0.5317
  340MOL0     C46803   9.146   6.592   6.331  0.3484 -0.4748  0.1361
  340MOL0     C46804   9.156   6.517   6.470 -0.4832 -0.0748  0.9953
  340MOL0     C46805   9.287   6.451   6.490 -0.2300  0.3765  0.4204
  340MOL0     O46806   9.397   6.533   6.532 -0.3088  0.2435 -0.3819
  340MOL0     C46807   9.505   6.482   6.605  0.1834  0.5795  0.7092
  340MOL0     C46808   9.530   6.347   6.626  0.7143  0.0786  0.8272
  340MOL0     C46809   9.648   6.302   6.692  0.0622  0.0416 -0.0496
  340MOL0     C46810   9.669   6.157   6.732  0.3217 -0.5429 -0.0125
  340MOL0     C46811   9.746   6.396   6.736  0.2720  0.4232  0.5403
  340MOL0     C46812   9.881   6.368   6.784 -0.0916  0.4934 -0.4867
  340MOL0     O46813   9.933   6.445   6.885  0.2468  0.0955 -0.9089
  340MOL0     C46814  10.064   6.423   6.922 -0.7081  0.1443  0.1683
  340MOL0     C46815  10.162   6.454   6.828  0.6502  0.9528 -0.7030
  340MOL0     C46816  10.289   6.459   6.877  0.4517 -0.0053  0.5295
  340MOL0     C46817  10.331   6.411   6.998  0.6007  0.0681  0.2610
  340MOL0     O46818  10.462   6.410   7.017 -0.3510  0.5333  0.4551
  340MOL0     C46819  10.519   6.308   7.104  0.5253  0.2200 -0.2613
  340MOL0     C46820  10.671   6.324   7.094  0.4127 -0.1453 -0.6555
  340MOL0     C46821  10.739   6.212   7.174  0.1029 -0.0047 -0.9024
  340MOL0     C46822  10.747   6.085   7.100 -0.3632  0.3143  0.5647
  340MOL0     C46823  10.808   5.967   7.185  0.4914 -0.4151  0.0305
  340MOL0     C46824  10.864   5.856   7.082 -0.2855  0.6322 -0.0724
  340MOL0     C46825  10.904   5.730   7.166  0.1249 -0.0362 -0.4138
  340MOL0     C46826  10.938   5.609   7.075 -0.2430  0.1536  1.0474
  340MOL0    Cl46827  10.853   5.623   6.912  0.6398 -0.3087 -0.0606
  340MOL0     C46828  10.236   6.351   7.084 -0.2672 -0.0966  0.0765
  340MOL0     C46829  10.097   6.362   7.044  0.7483 -0.2876 -0.2704
  340MOL0     O46830   9.950   6.290   6.719 -0.5076 -0.1957  1.0564
  340MOL0     C46831   9.714   6.534   6.717  1.5073 -0.5689  0.7676
  340MOL0     C46832   9.593   6.575   6.649 -0.1723 -0.5417  0.4808
  340MOL0     N46833   8.806   6.641   6.433 -0.0312  0.8382  0.9339
  340MOL0     N46834   8.704   6.565   6.408 -1.0367  0.6515 -0.0259
  340MOL0     C46835   7.667   6.285   5.720 -1.4640  0.5703  0.0833
  340MOL0     C46836   7.664   6.236   5.587 -0.5106  0.3560 -0.0381
  340MOL0     C46837   7.739   5.953   5.256 -0.4609  0.4872 -0.3410
  340MOL0     C46838   7.735   6.058   5.162  0.0525  0.6811  0.2350
  340MOL0     C46839   7.705   6.025   5.032  0.3744 -0.0810 -0.1824
  340MOL0     C46840   7.694   5.894   4.986 -0.2273 -0.1250  0.4895
  340MOL0     O46841   7.650   5.872   4.855 -0.2030  0.0135  0.5084
  340MOL0     C46842   7.673   5.749   4.801 -0.5226  0.9280 -0.8731
  340MOL0     C46843   7.592   5.727   4.662  1.2655 -0.5265  0.0713
  340MOL0     C46844   7.442   5.746   4.656  0.5594  0.4592  0.1191
  340MOL0     C46845   7.399   5.672   4.533  0.1100  0.7457 -0.0155
  340MOL0     C46846   7.261   5.708   4.509  0.0973  0.5858 -0.4338
  340MOL0     C46847   7.140   5.734   4.526  0.1794 -0.2039  0.5641
  340MOL0     C46848   7.719   5.793   5.079 -0.1473 -0.3805 -0.2808
  340MOL0     C46849   7.733   5.817   5.217 -0.0277 -0.6649 -0.5271
  340MOL0     C46850   7.747   5.688   5.298 -0.1456  0.1422  0.1412
  340MOL0     H46851   7.971   6.096   5.583  1.7041  2.3279 -0.8823
  340MOL0     H46852   7.987   6.187   5.797  0.7483 -2.2470 -1.2555
  340MOL0     H46853   7.960   6.302   5.988  0.3764  0.7135 -3.0762
  340MOL0     H46854   7.849   6.401   6.093 -0.2131  2.8936 -0.3272
  340MOL0     H46855   7.950   6.483   5.822 -3.3801  1.3192 -1.2097
  340MOL0     H46856   7.855   6.580   5.925 -2.5490 -2.8724 -1.6510
  340MOL0     H46857   8.092   6.640   5.949  1.1496 -2.2386 -3.0367
  340MOL0     H46858   8.031   6.576   6.108 -1.1976  2.5647 -0.9366
  340MOL0     H46859   8.149   6.379   6.081 -1.9476 -0.0692 -1.2360
  340MOL0     H46860   8.206   6.407   5.922 -0.2481  1.0092 -1.0925
  340MOL0     H46861   8.266   6.565   6.169 -1.6461 -2.2959 -0.3608
  340MOL0     H46862   8.328   6.626   6.027  1.5537  1.8917  2.6923
  340MOL0     H46863   8.408   6.343   6.142 -1.0767 -0.2725  1.3483
  340MOL0     H46864   8.481   6.429   5.995  0.0328  2.4434 -0.2457
  340MOL0     H46865   8.482   6.562   6.252 -0.4002  1.3458 -1.7220
  340MOL0     H46866   8.584   6.584   6.109  0.0322  0.6691 -0.0628
  340MOL0     H46867   8.604   6.328   6.288  3.4541  0.6029  2.4297
  340MOL0     H46868   8.679   6.348   6.132 -1.5568 -1.9090 -0.3879
  340MOL0     H46869   8.907   6.457   6.177 -0.3973  0.6902 -0.4110
  340MOL0     H46870   9.040   6.759   6.412 -5.5952  0.5728  0.0323
  340MOL0     H46871   9.031   6.750   6.238  1.4315  2.5892  0.9000
  340MOL0     H46872   9.122   6.518   6.255  1.7971  0.7988 -1.6545
  340MOL0     H46873   9.241   6.635   6.297  0.6135 -3.2578 -3.1533
  340MOL0     H46874   9.127   6.584   6.552 -2.1192 -0.9897  1.2048
  340MOL0     H46875   9.079   6.439   6.469 -0.2671 -0.2988  1.4091
  340MOL0     H46876   9.267   6.377   6.568  0.2531  2.0319  2.1864
  340MOL0     H46877   9.314   6.414   6.391  0.2932  2.8462 -0.4322
  340MOL0     H46878   9.476   6.255   6.605  1.3071 -0.7261  2.6480
  340MOL0     H46879   9.761   6.126   6.683  1.5400  2.6637  0.0093
  340MOL0     H46880   9.581   6.098   6.702  0.7893  0.0158 -2.7278
  340MOL0     H46881   9.694   6.147   6.838  2.2727 -4.3918 -0.6435
  340MOL0     H46882  10.128   6.499   6.736  2.6137  1.9843 -0.9599
  340MOL0     H46883  10.359   6.501   6.806 -2.9724  3.9025 -0.9560
  340MOL0     H46884  10.485   6.331   7.206 -1.9254  1.0631 -1.2169
  340MOL0     H46885  10.480   6.210   7.078 -1.3285  0.4670  1.3641
  340MOL0     H46886  10.702   6.318   6.989  0.7444  1.0865 -0.6431
  340MOL0     H46887  10.688   6.422   7.139 -1.3051 -0.7628  1.5046
  340MOL0     H46888  10.697   6.199   7.274  0.9442  0.2799 -0.4945
  340MOL0     H46889  10.838   6.247   7.206 -0.1659 -0.9048  1.0300
  340MOL0     H46890  10.798   6.102   7.005  1.7834  0.1925  1.6376
  340MOL0     H46891  10.643   6.058   7.077  0.1743 -0.3025 -1.3464
  340MOL0     H46892  10.885   6.013   7.248 -1.1191  1.4331  0.7785
  340MOL0     H46893  10.737   5.938   7.263 -0.0281  2.4026  0.7200
  340MOL0     H46894  10.955   5.892   7.032 -1.7062  2.6726 -1.3280
  340MOL0     H46895  10.797   5.839   6.997  2.3135  1.9583 -2.6043
  340MOL0     H46896  10.820   5.713   7.234  0.6402  1.6926  0.7247
  340MOL0     H46897  10.990   5.747   7.230  0.7898 -2.5285 -0.5228
  340MOL0     H46898  10.904   5.516   7.120  0.7755 -0.8899 -0.2704
  340MOL0     H46899  11.047   5.609   7.066  0.1435  0.2995  4.3546
  340MOL0     H46900  10.270   6.308   7.178  1.5507 -1.3883 -1.1162
  340MOL0     H46901  10.020   6.334   7.115  1.0990  0.2950  0.3547
  340MOL0     H46902   9.783   6.610   6.753 -0.4554  0.7261  1.9497
  340MOL0     H46903   9.583   6.681   6.626 -0.0513 -0.4465  0.8709
  340MOL0     H46904   7.571   6.327   5.747 -3.0402 -2.1151 -0.9941
  340MOL0     H46905   7.576   6.239   5.524  0.3338  0.0272 -1.2665
  340MOL0     H46906   7.746   6.166   5.174 -2.2551  1.3861 -2.8013
  340MOL0     H46907   7.683   6.102   4.958 -2.4791  1.9409  2.5051
  340MOL0     H46908   7.775   5.727   4.769 -1.2492  0.2283 -2.8303
  340MOL0     H46909   7.645   5.663   4.863 -1.5789  2.6048  1.0726
  340MOL0     H46910   7.616   5.626   4.627 -1.2111 -1.0055 -0.3868
  340MOL0     H46911   7.635   5.800   4.592 -0.7881  1.0412  0.3462
  340MOL0     H46912   7.396   5.709   4.748 -0.5132 -0.6027 -0.8133
  340MOL0     H46913   7.419   5.853   4.650  0.6488  0.8836  4.4371
  340MOL0     H46914   7.397   5.566   4.561 -1.9479  1.0104  1.0767
  340MOL0     H46915   7.456   5.669   4.440  0.6378 -0.6869  0.3208
  340MOL0     H46916   7.039   5.766   4.540 -0.7832 -1.9095 -1.9368
  340MOL0     H46917   7.726   5.689   5.051 -0.1084  0.6332 -4.8403
  340MOL0     H46918   7.684   5.677   5.387 -0.7812  0.3112 -0.2824
  340MOL0     H46919   7.723   5.595   5.245 -0.7528  0.3833 -0.0155
  340MOL0     H46920   7.851   5.663   5.320  0.0127 -1.4361 -2.0762
  341MOL0     O46921   6.188   5.828   1.763 -0.9288 -0.9101 -0.1417
  341MOL0     C46922   6.079   5.867   1.785 -0.8256 -0.5872  0.7784
  341MOL0     O46923   5.973   5.843   1.714 -0.5042  0.7645  0.4432
  341MOL0     C46924   6.010   5.768   1.598  0.5722 -1.0017 -1.0524
  341MOL0     C46925   5.970   5.638   1.574  0.5922  0.1620  0.3476
  341MOL0     C46926   6.001   5.581   1.449  0.0454 -0.2026 -0.4606
  341MOL0     C46927   6.069   5.650   1.351  0.1540  0.7141 -0.5489
  341MOL0     O46928   6.123   5.581   1.245  0.1962 -0.3285 -0.3431
  341MOL0     C46929   6.199   5.649   1.144  0.5335  0.0252 -0.6587
  341MOL0     C46930   6.231   5.565   1.024  0.0667 -0.3995  0.0983
  341MOL0     C46931   6.343   5.464   1.024 -0.6238  0.7500 -0.5827
  341MOL0     C46932   6.477   5.537   1.064 -1.0472  0.2101 -0.0957
  341MOL0     C46933   6.597   5.446   1.061 -0.4935 -0.2022  0.1986
  341MOL0     C46934   6.732   5.517   1.085  0.4756 -0.4724  0.4867
  341MOL0     C46935   6.849   5.421   1.080  0.3162  0.5804  0.0460
  341MOL0     C46936   6.983   5.482   1.095 -0.9287  0.1067  0.4322
  341MOL0     N46937   6.988   5.601   1.182 -0.8326 -0.7236  0.7903
  341MOL0     C46938   7.005   5.598   1.315  0.7869 -0.3898  0.1556
  341MOL0     C46939   7.022   5.725   1.357  1.0414  0.4709 -0.0187
  341MOL0     C46940   7.043   5.767   1.502 -0.1480  0.4901 -0.2383
  341MOL0     C46941   7.171   5.838   1.514 -0.2636 -0.1215  0.5431
  341MOL0     C46942   7.293   5.758   1.477 -0.2865  0.7346 -0.4729
  341MOL0     C46943   7.422   5.822   1.536  0.1276  1.0584  0.2795
  341MOL0     O46944   7.531   5.778   1.459 -0.1739  0.1079  0.2551
  341MOL0     C46945   7.652   5.829   1.496 -0.8104  0.1395  0.0593
  341MOL0     C46946   7.687   5.925   1.592  0.4927 -0.0913  0.8360
  341MOL0     C46947   7.818   5.947   1.639 -0.5081  0.9096 -1.1522
  341MOL0     C46948   7.833   6.033   1.758 -0.2831 -0.1382 -0.5199
  341MOL0     C46949   7.919   5.877   1.574  1.0198  0.0927 -0.4102
  341MOL0     C46950   8.059   5.891   1.620 -0.1453 -0.1384 -0.4247
  341MOL0     O46951   8.147   5.785   1.626 -0.5946  0.4736  0.6576
  341MOL0     C46952   8.273   5.781   1.689  1.0769  0.1504 -0.2784
  341MOL0     C46953   8.320   5.879   1.777  0.4657 -0.0155  0.0611
  341MOL0     C46954   8.449   5.858   1.842  0.1273 -0.4307  0.5036
  341MOL0     C46955   8.523   5.753   1.804 -0.5483 -0.2975 -1.0095
  341MOL0     O46956   8.660   5.763   1.848  0.5052 -0.0358  0.1891
  341MOL0     C46957   8.763   5.660   1.829 -0.2105 -0.4074 -0.6682
  341MOL0     C46958   8.898   5.705   1.902 -0.1588 -0.1274  0.4740
  341MOL0     C46959   9.021   5.613   1.903  0.3337 -0.4933  1.3765
  341MOL0     C46960   9.148   5.680   1.955 -0.3205 -0.0616 -1.1690
  341MOL0     C46961   9.281   5.593   1.961 -0.1984  0.6398 -0.3172
  341MOL0     C46962   9.294   5.505   2.083 -1.3950 -0.1524 -0.7401
  341MOL0     C46963   9.432   5.429   2.100  0.5347  0.2231 -0.7801
  341MOL0     C46964   9.401   5.319   2.205  0.2084  0.8962 -0.2110
  341MOL0    Cl46965   9.559   5.245   2.241  0.1892  0.1700 -0.0017
  341MOL0     C46966   8.474   5.649   1.714  0.4456  0.5686 -0.5476
  341MOL0     C46967   8.345   5.669   1.664 -0.6710  0.1322  0.7987
  341MOL0     O46968   8.098   6.008   1.615 -0.2651  0.3812 -0.0109
  341MOL0     C46969   7.889   5.788   1.471 -0.0662  0.8900 -0.4964
  341MOL0     C46970   7.762   5.768   1.431 -0.4339  0.2179  0.5024
  341MOL0     N46971   7.017   5.806   1.244 -0.7402  0.1213 -0.2977
  341MOL0     N46972   6.991   5.732   1.134 -0.6707 -0.4898 -0.2890
  341MOL0     C46973   6.093   5.786   1.372 -0.0368 -0.5092 -0.0777
  341MOL0     C46974   6.061   5.842   1.489  0.3849 -0.4216 -0.4084
  341MOL0     C46975   6.067   5.963   1.893  0.3199  0.6476 -0.5320
  341MOL0     C46976   5.979   6.072   1.866  0.0102  0.8468  0.9205
  341MOL0     C46977   5.937   6.156   1.962  0.1752 -0.5480 -0.6401
  341MOL0     C46978   5.986   6.141   2.091  0.0777  0.3789 -0.9941
  341MOL0     O46979   5.937   6.228   2.195 -0.9304  0.1428  0.5261
  341MOL0     C46980   5.974   6.214   2.326 -0.0778 -0.2476 -0.2239
  341MOL0     C46981   5.932   6.334   2.409  0.4896 -0.2053  0.2272
  341MOL0     C46982   6.020   6.462   2.390  0.1915 -0.0253 -0.3355
  341MOL0     C46983   5.993   6.537   2.252 -0.1716 -0.3630 -0.2221
  341MOL0     C46984   6.111   6.637   2.228  0.7026  0.2320  0.1624
  341MOL0     C46985   6.207   6.712   2.204  0.3560 -0.4275  0.1478
  341MOL0     C46986   6.075   6.045   2.120 -0.2761 -0.1408  0.1309
  341MOL0     C46987   6.111   5.946   2.025 -1.9373 -0.1380  0.1528
  341MOL0     C46988   6.198   5.826   2.058 -0.0280  0.6736 -1.4256
  341MOL0     H46989   5.933   5.578   1.656  0.8065  1.3527  1.3595
  341MOL0     H46990   5.977   5.476   1.433 -3.9210  0.8364 -2.6968
  341MOL0     H46991   6.286   5.702   1.184 -0.9083  3.0040 -1.1471
  341MOL0     H46992   6.134   5.728   1.105 -0.2851 -0.7513 -0.8977
  341MOL0     H46993   6.140   5.507   1.003 -0.5350  1.1396 -1.8465
  341MOL0     H46994   6.243   5.636   0.942  0.3491  0.2597  0.6924
  341MOL0     H46995   6.326   5.384   1.095  0.3512 -0.1162 -1.2881
  341MOL0     H46996   6.351   5.415   0.926 -0.1483 -1.1041  0.3579
  341MOL0     H46997   6.493   5.622   0.997 -0.4878 -0.0774 -0.3300
  341MOL0     H46998   6.473   5.577   1.166 -2.8207 -0.4228  0.1173
  341MOL0     H46999   6.601   5.404   0.960  0.6273  1.3767 -0.4571
  341MOL0     H47000   6.584   5.362   1.130  0.5329 -2.4273 -2.1601
  341MOL0     H47001   6.738   5.601   1.016 -2.3894 -2.0857 -1.9291
  341MOL0     H47002   6.723   5.556   1.187  1.6073  2.3342 -0.3990
  341MOL0     H47003   6.845   5.363   0.988  0.5342 -0.6909  0.8139
  341MOL0     H47004   6.839   5.341   1.154  1.0384 -1.7678 -2.2464
  341MOL0     H47005   7.060   5.409   1.123  0.7844  1.2431 -1.0695
  341MOL0     H47006   7.018   5.512   0.995  0.1510 -5.4778 -1.2428
  341MOL0     H47007   6.999   5.516   1.386  2.2196 -0.1904  0.5411
  341MOL0     H47008   7.031   5.682   1.569 -0.0689  1.5716  1.1855
  341MOL0     H47009   6.962   5.835   1.529 -1.7682  0.1305 -3.6580
  341MOL0     H47010   7.179   5.925   1.448 -2.2436  0.5367  1.0738
  341MOL0     H47011   7.192   5.870   1.617  1.5431 -0.0021  0.1736
  341MOL0     H47012   7.292   5.653   1.508 -0.8754  0.4627 -1.3822
  341MOL0     H47013   7.296   5.756   1.367  0.9696  1.5511 -0.4837
  341MOL0     H47014   7.420   5.929   1.517 -1.0439  0.5800 -2.9282
  341MOL0     H47015   7.435   5.785   1.639 -1.5322  3.8250  1.5838
  341MOL0     H47016   7.599   5.973   1.632 -0.4040  1.1454 -2.3491
  341MOL0     H47017   7.773   5.987   1.837  0.6636 -0.2029  0.1650
  341MOL0     H47018   7.798   6.136   1.744 -2.4786 -1.0319 -2.2568
  341MOL0     H47019   7.933   6.034   1.800  0.2189  0.8313 -1.6693
  341MOL0     H47020   8.273   5.975   1.796 -0.6848 -0.4842 -0.3116
  341MOL0     H47021   8.492   5.937   1.903 -3.1904 -0.4554  3.1826
  341MOL0     H47022   8.734   5.569   1.883  2.4388 -1.8887 -1.5452
  341MOL0     H47023   8.784   5.641   1.724  0.1706 -0.8243 -0.5215
  341MOL0     H47024   8.925   5.801   1.859 -1.2072  0.0963  0.2849
  341MOL0     H47025   8.872   5.709   2.009  2.2003 -0.1602  1.1171
  341MOL0     H47026   9.053   5.578   1.804  1.1770 -5.1400  3.0553
  341MOL0     H47027   9.008   5.525   1.966  1.7334  0.6378  3.3697
  341MOL0     H47028   9.117   5.698   2.058 -1.6822 -2.0314 -1.1804
  341MOL0     H47029   9.180   5.773   1.906  0.9050  0.0228 -0.2433
  341MOL0     H47030   9.284   5.538   1.866 -3.0798 -0.4345  0.0972
  341MOL0     H47031   9.366   5.659   1.942  1.0162 -0.8196 -0.1583
  341MOL0     H47032   9.214   5.431   2.077 -2.4940  0.4172  3.4843
  341MOL0     H47033   9.276   5.565   2.173  2.3327  0.0694  0.0045
  341MOL0     H47034   9.516   5.491   2.131  0.2624  1.0559 -1.6682
  341MOL0     H47035   9.466   5.379   2.009 -0.8078 -0.3609 -0.9928
  341MOL0     H47036   9.340   5.246   2.151  1.9927 -1.4772  0.8173
  341MOL0     H47037   9.352   5.361   2.293  0.7000 -3.7502  2.6168
  341MOL0     H47038   8.518   5.552   1.696 -1.8223 -1.0970  2.0434
  341MOL0     H47039   8.305   5.590   1.602 -1.5140 -0.3708  1.9484
  341MOL0     H47040   7.974   5.736   1.428  0.6970  2.6990 -1.2799
  341MOL0     H47041   7.731   5.702   1.351  0.3181 -2.3222  2.1738
  341MOL0     H47042   6.160   5.846   1.312 -1.0517 -1.7827 -2.5980
  341MOL0     H47043   6.091   5.946   1.495  0.4959 -0.4801  0.0631
  341MOL0     H47044   5.954   6.100   1.764  0.5895  1.6408  0.9865
  341MOL0     H47045   5.876   6.244   1.949  1.0472  0.1650 -0.0026
  341MOL0     H47046   5.925   6.127   2.371  1.0118 -0.1877  1.1668
  341MOL0     H47047   6.083   6.220   2.334 -0.0749 -1.1410  0.6736
  341MOL0     H47048   5.933   6.306   2.515  5.3773 -1.2957  0.1321
  341MOL0     H47049   5.827   6.346   2.382  0.6358 -0.5188 -0.5086
  341MOL0     H47050   6.002   6.528   2.475 -0.5482 -0.9374  0.2459
  341MOL0     H47051   6.125   6.433   2.396  0.0051 -0.4177  2.7489
  341MOL0     H47052   5.900   6.594   2.256  1.0130  1.8398 -1.6637
  341MOL0     H47053   5.993   6.458   2.176 -0.5232 -1.7905  1.2117
  341MOL0     H47054   6.287   6.779   2.180 -0.9113 -0.0417 -3.5737
  341MOL0     H47055   6.110   6.022   2.221  0.8254  0.9438  0.0178
  341MOL0     H47056   6.216   5.812   2.165  1.2330  0.0900 -1.6925
  341MOL0     H47057   6.148   5.736   2.022 -1.2195  0.1394  1.3403
  341MOL0     H47058   6.295   5.828   2.006  0.6611  0.5217 -0.1831
  342MOL0     O47059  10.631   8.150   2.348  0.0696 -0.4247  0.4729
  342MOL0     C47060  10.694   8.229   2.280 -0.0450 -0.1115 -0.2580
  342MOL0     O47061  10.647   8.284   2.157  0.0216 -0.1298  0.0366
  342MOL0     C47062  10.522   8.250   2.106 -0.8652 -0.5412 -0.1439
  342MOL0     C47063  10.512   8.198   1.985 -0.1794 -0.0307 -0.0335
  342MOL0     C47064  10.388   8.173   1.926  0.9195 -0.4011  0.1024
  342MOL0     C47065  10.270   8.175   2.009 -0.0298  0.1049  0.4386
  342MOL0     O47066  10.138   8.151   1.964  0.6877  0.6953  0.2882
  342MOL0     C47067  10.127   8.068   1.842 -0.2815  0.1787 -1.4981
  342MOL0     C47068   9.978   8.040   1.815  0.5594  0.0972  0.4147
  342MOL0     C47069   9.906   7.972   1.934 -0.3885  0.4133 -0.1834
  342MOL0     C47070   9.755   7.952   1.911  0.4696  0.9698  0.6674
  342MOL0     C47071   9.729   7.859   1.792  0.2027 -0.2677  0.8134
  342MOL0     C47072   9.580   7.816   1.796  0.1194 -0.5877  0.3609
  342MOL0     C47073   9.532   7.738   1.672 -0.3717  0.4944 -0.2247
  342MOL0     C47074   9.529   7.586   1.696 -0.9395  0.3916 -0.4117
  342MOL0     N47075   9.658   7.519   1.719  0.3621  0.1031  0.2474
  342MOL0     C47076   9.749   7.492   1.619  0.2431 -0.2665  1.1267
  342MOL0     C47077   9.853   7.431   1.674  0.4698  1.1368 -0.7988
  342MOL0     C47078   9.983   7.390   1.610  0.8681  0.4375 -0.4544
  342MOL0     C47079  10.099   7.484   1.648  1.3278  0.4555  1.0669
  342MOL0     C47080  10.085   7.626   1.606 -0.0088 -0.2807  0.8606
  342MOL0     C47081  10.216   7.707   1.610  1.1345 -0.2622  1.0830
  342MOL0     O47082  10.251   7.734   1.745  0.3464  0.1776 -0.4416
  342MOL0     C47083  10.374   7.792   1.762  0.2481 -0.1778  0.1872
  342MOL0     C47084  10.419   7.790   1.891 -1.3973 -0.0188 -0.6804
  342MOL0     C47085  10.542   7.843   1.928  0.6508  0.0597  0.0852
  342MOL0     C47086  10.572   7.824   2.072 -0.6759  0.3217  0.3731
  342MOL0     C47087  10.624   7.901   1.823 -0.7921  1.1059 -0.0204
  342MOL0     C47088  10.749   7.964   1.867  0.0798 -0.0481  0.1414
  342MOL0     O47089  10.823   7.898   1.956 -0.3874 -0.1609 -0.1847
  342MOL0     C47090  10.931   7.957   2.002 -0.8755 -0.3047  0.0712
  342MOL0     C47091  11.052   7.969   1.924  0.5219  0.5440 -0.0249
  342MOL0     C47092  11.168   8.024   1.965 -0.9393 -0.5694 -0.8134
  342MOL0     C47093  11.180   8.043   2.100 -0.2754 -0.2860  0.6677
  342MOL0     O47094  11.302   8.088   2.133 -0.4289  0.0360 -0.3828
  342MOL0     C47095  11.343   8.056   2.268  0.1664  0.5134  1.1419
  342MOL0     C47096  11.481   8.118   2.275  0.2666 -0.2787 -0.3066
  342MOL0     C47097  11.561   8.063   2.388 -0.4840  1.3000  0.2493
  342MOL0     C47098  11.677   8.151   2.431 -0.7294 -0.6807  1.1523
  342MOL0     C47099  11.749   8.110   2.558 -0.4032 -0.4295 -0.0567
  342MOL0     C47100  11.847   8.217   2.604  0.3887  0.1274 -1.3846
  342MOL0     C47101  11.974   8.240   2.530  0.3464  0.6793  0.1653
  342MOL0     C47102  12.070   8.124   2.532 -0.5473  0.8129 -0.8085
  342MOL0    Cl47103  12.156   8.129   2.696  0.0147  0.0793  0.3450
  342MOL0     C47104  11.070   8.022   2.183  0.2887 -0.1373  0.1644
  342MOL0     C47105  10.950   7.977   2.143 -0.1647  0.4768  0.5879
  342MOL0     O47106  10.783   8.062   1.799 -0.7797 -0.2386 -0.2821
  342MOL0     C47107  10.581   7.910   1.691  0.5482  1.0815  0.4436
  342MOL0     C47108  10.448   7.863   1.666 -0.6514 -0.3378 -0.0555
  342MOL0     N47109   9.831   7.425   1.814 -0.3556 -0.4994  0.6688
  342MOL0     N47110   9.716   7.479   1.838  0.3186 -0.5497  0.4524
  342MOL0     C47111  10.286   8.222   2.139 -0.0105 -0.1411 -0.0535
  342MOL0     C47112  10.407   8.261   2.182 -0.0517  0.7620 -0.5539
  342MOL0     C47113  10.832   8.272   2.335  0.1822 -0.3292  0.8487
  342MOL0     C47114  10.850   8.276   2.477 -0.7753 -0.2033 -0.2197
  342MOL0     C47115  10.972   8.292   2.538  0.2352  0.7553 -0.3622
  342MOL0     C47116  11.084   8.319   2.465 -0.4219  0.6354 -0.4845
  342MOL0     O47117  11.202   8.359   2.528 -0.2634  0.3283  0.6898
  342MOL0     C47118  11.203   8.390   2.668 -0.3932  0.5529 -0.4826
  342MOL0     C47119  11.231   8.258   2.752  1.0608  0.6315  1.0120
  342MOL0     C47120  11.357   8.185   2.720  0.0000  0.7517  0.2052
  342MOL0     C47121  11.390   8.098   2.842 -0.1777  0.0517 -0.0896
  342MOL0     C47122  11.476   7.977   2.815  0.6945  0.7062 -0.6623
  342MOL0     C47123  11.550   7.876   2.818 -1.1194 -0.2265  0.4561
  342MOL0     C47124  11.073   8.331   2.328  0.6248 -0.3703 -0.1665
  342MOL0     C47125  10.946   8.307   2.264 -0.2356  0.3416 -0.1868
  342MOL0     C47126  10.949   8.333   2.114 -0.2071  0.2495 -0.6092
  342MOL0     H47127  10.602   8.204   1.924  0.2407 -1.8497  0.3526
  342MOL0     H47128  10.381   8.175   1.817 -0.0826 -0.3457  0.1589
  342MOL0     H47129  10.178   7.972   1.847  0.4919  0.6436 -0.0418
  342MOL0     H47130  10.163   8.124   1.755  1.4741 -3.5903 -3.4453
  342MOL0     H47131   9.930   8.138   1.805  1.3922  0.4687 -0.0580
  342MOL0     H47132   9.969   7.994   1.717 -0.2737  2.4347 -0.6713
  342MOL0     H47133   9.957   7.876   1.945  2.8809  1.8064 -1.9009
  342MOL0     H47134   9.930   8.017   2.031  3.5273 -3.3840  0.8861
  342MOL0     H47135   9.718   7.904   2.003  0.8466 -2.3285 -0.7612
  342MOL0     H47136   9.707   8.049   1.891 -1.6005 -0.5900 -2.8006
  342MOL0     H47137   9.789   7.769   1.812  0.7947 -0.2252 -0.6591
  342MOL0     H47138   9.757   7.907   1.698  0.1813  1.8502  1.8223
  342MOL0     H47139   9.554   7.763   1.888 -1.0456  0.1097  0.4625
  342MOL0     H47140   9.519   7.907   1.800  2.0202  0.8897 -1.8244
  342MOL0     H47141   9.590   7.771   1.586  0.7700 -0.0721  0.3089
  342MOL0     H47142   9.433   7.775   1.642 -0.0263  3.3409  1.7676
  342MOL0     H47143   9.466   7.572   1.784 -1.6168  0.5530 -0.8657
  342MOL0     H47144   9.477   7.534   1.615 -2.9529 -0.9098  1.6168
  342MOL0     H47145   9.750   7.510   1.512 -1.4851 -0.7046  1.0108
  342MOL0     H47146   9.966   7.387   1.502 -1.2026  2.2109 -0.2440
  342MOL0     H47147  10.020   7.293   1.645  1.0519  0.5048 -0.4629
  342MOL0     H47148  10.109   7.478   1.757 -1.9604  1.8437  1.5730
  342MOL0     H47149  10.189   7.437   1.610  0.6206 -1.2175  1.3824
  342MOL0     H47150  10.060   7.614   1.500  2.2506  0.4779  0.1604
  342MOL0     H47151  10.015   7.683   1.667 -0.8718 -0.5996  0.1744
  342MOL0     H47152  10.281   7.637   1.557 -0.6525  0.7455 -2.8080
  342MOL0     H47153  10.204   7.798   1.551 -2.2676 -1.4071 -0.2841
  342MOL0     H47154  10.362   7.729   1.960  1.5651 -0.4651  1.5771
  342MOL0     H47155  10.633   7.907   2.109  1.2464 -1.1337  0.5926
  342MOL0     H47156  10.628   7.730   2.073 -0.2038  0.5975  0.1638
  342MOL0     H47157  10.481   7.813   2.132 -1.1399 -1.4325 -0.5763
  342MOL0     H47158  11.031   7.952   1.819 -0.1367  1.6887 -0.1098
  342MOL0     H47159  11.257   8.032   1.902 -0.4440 -3.0343 -0.5286
  342MOL0     H47160  11.281   8.106   2.343 -1.4097 -3.4450  2.7861
  342MOL0     H47161  11.335   7.948   2.286 -1.8034  0.5246  0.6475
  342MOL0     H47162  11.540   8.104   2.184 -0.5901  2.6381 -1.4273
  342MOL0     H47163  11.459   8.225   2.281  0.0506 -0.3881  1.1839
  342MOL0     H47164  11.593   7.959   2.375  0.3513  1.1428  2.9938
  342MOL0     H47165  11.495   8.059   2.475 -1.0265 -4.0650 -0.0328
  342MOL0     H47166  11.634   8.252   2.439 -2.5450 -1.2918 -0.0896
  342MOL0     H47167  11.747   8.145   2.347 -1.7070 -1.2132  0.3540
  342MOL0     H47168  11.691   8.090   2.648 -0.7114  1.5875  0.2587
  342MOL0     H47169  11.803   8.019   2.532 -1.3120 -1.3905  1.2758
  342MOL0     H47170  11.880   8.189   2.705  0.3244 -0.1721 -1.4446
  342MOL0     H47171  11.798   8.314   2.609  0.2096 -0.0142  0.6966
  342MOL0     H47172  12.034   8.325   2.562 -0.7818  1.4243  0.3687
  342MOL0     H47173  11.943   8.265   2.428 -0.9665 -1.1123  0.0615
  342MOL0     H47174  12.144   8.126   2.452 -0.4769 -2.3446 -0.9625
  342MOL0     H47175  12.025   8.024   2.526  3.8799 -1.3989 -1.6472
  342MOL0     H47176  11.080   8.038   2.289 -2.2124  2.1791  0.1673
  342MOL0     H47177  10.863   7.948   2.201 -0.2485 -2.0624 -0.6533
  342MOL0     H47178  10.645   7.953   1.615  1.3800 -0.6612  0.1149
  342MOL0     H47179  10.412   7.869   1.563 -0.2958  0.8647 -0.1248
  342MOL0     H47180  10.198   8.243   2.198 -1.0144 -1.8354 -0.8432
  342MOL0     H47181  10.418   8.317   2.275  0.9668 -0.5563  0.1544
  342MOL0     H47182  10.768   8.267   2.547 -0.2189  1.7345  0.7571
  342MOL0     H47183  10.964   8.281   2.645 -0.6681  0.0664 -0.4855
  342MOL0     H47184  11.290   8.450   2.692  0.2512 -0.9837  1.3267
  342MOL0     H47185  11.116   8.436   2.717  0.5961  0.7661  1.1367
  342MOL0     H47186  11.151   8.193   2.715  2.0099  1.8170 -3.7565
  342MOL0     H47187  11.211   8.283   2.857 -4.2801 -0.3483  0.5299
  342MOL0     H47188  11.352   8.129   2.626 -0.9108  1.3747 -0.1270
  342MOL0     H47189  11.442   8.252   2.706  0.0617  0.3015 -1.8789
  342MOL0     H47190  11.298   8.072   2.894 -2.6108  2.1629 -3.0360
  342MOL0     H47191  11.453   8.162   2.906 -0.2688 -0.2524  0.3090
  342MOL0     H47192  11.625   7.800   2.818  0.7405  1.4779  1.5655
  342MOL0     H47193  11.164   8.358   2.275  0.2940  1.0328 -0.0727
  342MOL0     H47194  10.932   8.441   2.103  2.0622  1.0790  2.5840
  342MOL0     H47195  11.046   8.320   2.064 -0.3884  2.6606 -1.7371
  342MOL0     H47196  10.878   8.273   2.056  1.9688 -3.9792  0.6633
  343MOL0     O47197   9.226   5.478   3.256  0.1100 -0.2183 -0.2147
  343MOL0     C47198   9.283   5.586   3.290 -0.2515  0.9349 -0.7108
  343MOL0     O47199   9.258   5.708   3.238 -0.5319 -0.2078  0.4288
  343MOL0     C47200   9.156   5.703   3.145  0.3282  0.2781 -0.7450
  343MOL0     C47201   9.028   5.677   3.198 -0.2040 -0.2934 -0.1076
  343MOL0     C47202   8.919   5.683   3.116  1.0519  0.1343 -0.2188
  343MOL0     C47203   8.929   5.700   2.977  0.7004  0.0451  0.1970
  343MOL0     O47204   8.835   5.692   2.880  0.4016  0.3231 -0.6605
  343MOL0     C47205   8.703   5.631   2.912  0.8443  0.0535  0.3125
  343MOL0     C47206   8.615   5.619   2.785 -0.3579 -0.2572  0.6156
  343MOL0     C47207   8.655   5.514   2.688 -0.4410  0.2930  0.7918
  343MOL0     C47208   8.553   5.484   2.576 -0.5451 -0.2313  0.5346
  343MOL0     C47209   8.597   5.378   2.482 -0.6961 -0.7763 -0.6842
  343MOL0     C47210   8.616   5.244   2.559  0.1626 -0.6564  0.4150
  343MOL0     C47211   8.614   5.134   2.454 -0.0387 -0.2433 -0.6553
  343MOL0     C47212   8.610   4.997   2.511  0.4190  0.2083 -0.5746
  343MOL0     N47213   8.746   4.943   2.530  0.2587 -0.2053 -0.1731
  343MOL0     C47214   8.817   4.941   2.652 -0.0497 -0.0721 -0.8319
  343MOL0     C47215   8.940   4.890   2.615 -0.3371  0.6595  0.4166
  343MOL0     C47216   9.064   4.877   2.686 -0.4881 -0.6505  0.0619
  343MOL0     C47217   9.163   4.999   2.677 -0.7056 -0.6705 -0.4052
  343MOL0     C47218   9.285   4.973   2.775 -0.0037  0.0501 -0.6123
  343MOL0     C47219   9.260   4.955   2.927  0.7623  0.6872  0.1966
  343MOL0     O47220   9.371   5.005   3.009 -0.1357 -0.5245 -0.7991
  343MOL0     C47221   9.343   4.999   3.141 -0.1680 -0.1710 -0.2400
  343MOL0     C47222   9.413   4.908   3.225 -0.0937 -0.4635  0.0559
  343MOL0     C47223   9.382   4.897   3.362  0.9188 -0.1413 -0.6460
  343MOL0     C47224   9.462   4.807   3.457 -0.0420 -0.2119 -0.2409
  343MOL0     C47225   9.292   4.989   3.426  0.3258  1.1950  0.8975
  343MOL0     C47226   9.231   4.980   3.560 -0.5099 -0.5177  0.2736
  343MOL0     O47227   9.251   5.089   3.632 -0.0094  0.0666 -0.6473
  343MOL0     C47228   9.228   5.082   3.770  0.0829  0.7403 -0.4494
  343MOL0     C47229   9.170   5.186   3.844  0.3348 -0.1524  0.0226
  343MOL0     C47230   9.170   5.187   3.984  0.4027 -0.2929 -0.1944
  343MOL0     C47231   9.227   5.077   4.061  0.0337 -1.1811  0.1140
  343MOL0     O47232   9.213   5.076   4.188 -0.2577  0.1216 -1.0426
  343MOL0     C47233   9.149   5.173   4.264 -0.6219  0.2405 -0.0175
  343MOL0     C47234   9.115   5.108   4.399  0.4608 -0.1846  0.2644
  343MOL0     C47235   9.231   5.098   4.499 -0.3313 -0.4191  0.1034
  343MOL0     C47236   9.303   5.232   4.548 -0.5500  0.8951  0.0558
  343MOL0     C47237   9.412   5.200   4.651 -1.0581 -0.4540 -0.7041
  343MOL0     C47238   9.461   5.339   4.704  0.5792 -0.5318  0.1236
  343MOL0     C47239   9.601   5.328   4.768 -0.8481 -0.3704  0.5689
  343MOL0     C47240   9.686   5.449   4.729 -0.8135 -0.1273  0.2735
  343MOL0    Cl47241   9.847   5.420   4.805  0.8597  0.1464 -0.2163
  343MOL0     C47242   9.290   4.984   3.988  0.1383 -0.0348  0.1544
  343MOL0     C47243   9.296   4.981   3.852 -0.2797  0.1545  0.6679
  343MOL0     O47244   9.171   4.881   3.592  0.0681  1.0589 -0.6144
  343MOL0     C47245   9.230   5.084   3.338  0.1016  1.3012 -0.3645
  343MOL0     C47246   9.251   5.086   3.204  0.7708  0.3667 -0.3764
  343MOL0     N47247   8.940   4.868   2.479  0.6592 -1.0360 -0.3159
  343MOL0     N47248   8.826   4.900   2.425  0.0701  0.6743 -0.1207
  343MOL0     C47249   9.055   5.740   2.934  0.3236  0.0057  0.6776
  343MOL0     C47250   9.171   5.743   3.013  0.5123  0.9936 -0.3878
  343MOL0     C47251   9.401   5.584   3.387  0.9760 -0.4905 -1.0619
  343MOL0     C47252   9.459   5.706   3.421 -1.9322  0.0626  0.9879
  343MOL0     C47253   9.563   5.709   3.520  0.3015 -0.9683  0.1317
  343MOL0     C47254   9.619   5.595   3.574  0.0027 -0.8543 -0.6733
  343MOL0     O47255   9.718   5.602   3.670  0.4315  0.1537  0.4257
  343MOL0     C47256   9.820   5.701   3.646  0.1894  0.2784 -0.1809
  343MOL0     C47257   9.955   5.655   3.709  0.3509 -0.0061 -0.1064
  343MOL0     C47258   9.947   5.668   3.865 -0.0757  0.0523  1.0886
  343MOL0     C47259  10.028   5.572   3.943  0.2842  0.4913 -0.7898
  343MOL0     C47260  10.173   5.583   3.909 -0.0525 -0.0689 -0.1774
  343MOL0     C47261  10.281   5.576   3.869 -0.3408 -0.1824 -0.1384
  343MOL0     C47262   9.557   5.478   3.554  0.0943 -0.3673  0.0053
  343MOL0     C47263   9.453   5.468   3.454  0.1658 -1.1011 -0.2667
  343MOL0     C47264   9.397   5.330   3.441 -0.4785  0.3261  0.0901
  343MOL0     H47265   9.008   5.662   3.304  2.2414 -0.4751  0.3846
  343MOL0     H47266   8.821   5.665   3.158 -0.7107  0.6901 -3.6747
  343MOL0     H47267   8.650   5.688   2.989 -0.3151 -3.5776  2.4996
  343MOL0     H47268   8.721   5.529   2.948 -1.5352 -0.2593  0.8431
  343MOL0     H47269   8.508   5.598   2.800 -0.8490  0.4661 -1.4839
  343MOL0     H47270   8.611   5.717   2.738  0.5429 -0.4210  0.1884
  343MOL0     H47271   8.747   5.541   2.635 -2.4793  0.0854 -3.2143
  343MOL0     H47272   8.669   5.419   2.741 -0.3380  0.4788  1.1092
  343MOL0     H47273   8.452   5.452   2.603  0.1955 -1.2389  2.3166
  343MOL0     H47274   8.534   5.576   2.521 -2.0670 -0.5130  0.5456
  343MOL0     H47275   8.694   5.406   2.439  0.0854 -3.5906 -0.9253
  343MOL0     H47276   8.515   5.389   2.409 -0.3081 -0.3238 -1.0590
  343MOL0     H47277   8.715   5.250   2.605 -0.9591 -2.5390  3.3669
  343MOL0     H47278   8.548   5.217   2.640  1.2983 -3.5903  0.4996
  343MOL0     H47279   8.703   5.139   2.391  0.3131  0.1648 -0.1349
  343MOL0     H47280   8.529   5.139   2.385 -1.0078 -1.1402  0.4458
  343MOL0     H47281   8.555   4.985   2.604  2.7894 -4.0922  0.5710
  343MOL0     H47282   8.560   4.938   2.433  3.2977 -0.1885 -2.3029
  343MOL0     H47283   8.786   4.985   2.746  1.1454 -0.3398 -0.3005
  343MOL0     H47284   9.115   4.784   2.660  1.0702  0.1397  0.2031
  343MOL0     H47285   9.042   4.864   2.793 -1.7720 -2.1243 -0.3337
  343MOL0     H47286   9.201   4.997   2.575  1.0356 -0.1511  0.2065
  343MOL0     H47287   9.110   5.090   2.706  1.7978  0.1520  2.0121
  343MOL0     H47288   9.348   4.889   2.742  0.8559  0.9739 -1.3996
  343MOL0     H47289   9.353   5.058   2.764  1.2282 -0.1348  3.8421
  343MOL0     H47290   9.178   5.021   2.956  0.0500 -0.1044  0.0423
  343MOL0     H47291   9.234   4.851   2.950  2.6011 -0.7097 -3.3966
  343MOL0     H47292   9.499   4.851   3.192 -0.5371 -2.7451  2.4793
  343MOL0     H47293   9.391   4.754   3.522 -1.5562  1.5355 -0.3923
  343MOL0     H47294   9.527   4.863   3.525 -0.5022 -0.0463  0.0683
  343MOL0     H47295   9.525   4.741   3.397  0.8520  0.7950 -0.4249
  343MOL0     H47296   9.124   5.271   3.793 -4.1976 -1.4704  1.4280
  343MOL0     H47297   9.134   5.278   4.033 -1.4516 -1.0847  0.0008
  343MOL0     H47298   9.204   5.267   4.273  1.2952 -0.8473  0.1531
  343MOL0     H47299   9.054   5.199   4.218 -0.5993 -0.1757 -0.2968
  343MOL0     H47300   9.031   5.169   4.432  0.3979 -0.7067  1.1180
  343MOL0     H47301   9.071   5.008   4.396 -0.7747 -0.0453  5.3451
  343MOL0     H47302   9.296   5.028   4.446 -3.2568 -2.6235 -0.8323
  343MOL0     H47303   9.205   5.028   4.580 -0.4173 -1.4385 -0.7790
  343MOL0     H47304   9.236   5.309   4.588 -0.4723  0.5879  0.8002
  343MOL0     H47305   9.346   5.273   4.456  1.4501  1.2974  1.1034
  343MOL0     H47306   9.376   5.139   4.734 -0.1298  0.7462  0.6333
  343MOL0     H47307   9.489   5.148   4.594  0.1609  0.2562  0.2363
  343MOL0     H47308   9.386   5.372   4.777  0.6685 -0.7870  0.3313
  343MOL0     H47309   9.468   5.415   4.625  0.4446 -2.2474 -1.6021
  343MOL0     H47310   9.651   5.235   4.740 -1.1076 -0.1349 -0.7524
  343MOL0     H47311   9.585   5.329   4.876 -1.4329  1.8681  0.5049
  343MOL0     H47312   9.650   5.543   4.771 -1.2645 -0.1626 -0.0251
  343MOL0     H47313   9.693   5.444   4.620 -2.2324  0.1633  0.1558
  343MOL0     H47314   9.344   4.915   4.053 -0.8005 -0.2104  0.7725
  343MOL0     H47315   9.355   4.905   3.801 -0.7631  1.4349 -1.9829
  343MOL0     H47316   9.160   5.155   3.380  0.5729  1.4131  0.2540
  343MOL0     H47317   9.188   5.146   3.139  0.7754  1.6818  0.7865
  343MOL0     H47318   9.065   5.769   2.829  0.2025 -0.4580  0.5383
  343MOL0     H47319   9.259   5.781   2.962 -0.0147 -0.4769 -2.5121
  343MOL0     H47320   9.434   5.802   3.377  0.2664 -0.8673 -2.7498
  343MOL0     H47321   9.608   5.804   3.548  0.3157 -1.0812  0.4991
  343MOL0     H47322   9.844   5.722   3.542  2.3357  2.0632  0.5810
  343MOL0     H47323   9.792   5.793   3.699  0.3626 -0.8819  2.0469
  343MOL0     H47324  10.037   5.724   3.686 -0.9082  2.6406  2.5349
  343MOL0     H47325   9.967   5.550   3.684  0.8090 -0.1325  0.6329
  343MOL0     H47326   9.972   5.772   3.887  2.2198 -0.8550  3.1865
  343MOL0     H47327   9.840   5.655   3.885 -1.8403 -0.5378 -5.9537
  343MOL0     H47328  10.000   5.469   3.922  1.2472  0.3336 -1.3824
  343MOL0     H47329  10.015   5.595   4.049  1.3116  0.7105 -0.7002
  343MOL0     H47330  10.378   5.582   3.823 -0.7355 -1.2844 -1.1876
  343MOL0     H47331   9.595   5.390   3.605 -1.6746 -1.1409  0.0691
  343MOL0     H47332   9.292   5.321   3.471 -0.6433 -1.9675 -0.9617
  343MOL0     H47333   9.406   5.291   3.339 -2.1726  0.4591 -0.1367
  343MOL0     H47334   9.456   5.262   3.503  1.4148  2.5535  0.8948
  344MOL0     O47335  10.512   2.183   7.061 -0.1922 -0.4689  0.2967
  344MOL0     C47336  10.442   2.197   7.169  0.5110  0.1595  0.5406
  344MOL0     O47337  10.491   2.244   7.283  0.2230 -0.4262  0.9267
  344MOL0     C47338  10.618   2.278   7.305 -0.5104 -0.0907  0.3598
  344MOL0     C47339  10.637   2.377   7.401 -0.4060 -0.3799  0.5678
  344MOL0     C47340  10.764   2.406   7.444 -1.0273 -0.9722  0.0850
  344MOL0     C47341  10.880   2.342   7.401  0.0866 -0.5983  0.3732
  344MOL0     O47342  11.002   2.377   7.449  0.5474  0.1479  0.2414
  344MOL0     C47343  11.112   2.292   7.430 -0.3296  0.3063  0.4186
  344MOL0     C47344  11.249   2.350   7.480  0.2982  0.3588  0.2470
  344MOL0     C47345  11.365   2.301   7.397 -0.5051 -0.0899  0.3716
  344MOL0     C47346  11.393   2.158   7.406  1.0966  0.7877 -0.1767
  344MOL0     C47347  11.510   2.116   7.311 -0.0592 -0.2126  0.0916
  344MOL0     C47348  11.476   1.985   7.239 -0.6186 -0.2237  0.6537
  344MOL0     C47349  11.574   1.970   7.119  0.3539  0.0839 -0.5079
  344MOL0     C47350  11.721   1.973   7.149  1.2581  0.0901  0.2183
  344MOL0     N47351  11.767   1.858   7.222  0.2668  0.2670 -0.1146
  344MOL0     C47352  11.780   1.840   7.363 -0.5753  0.5702 -0.0002
  344MOL0     C47353  11.837   1.722   7.369  0.3362  0.1167  0.6079
  344MOL0     C47354  11.873   1.666   7.509 -0.1090  0.8618  0.4879
  344MOL0     C47355  12.009   1.710   7.567 -0.0911 -0.2281 -0.2173
  344MOL0     C47356  12.128   1.683   7.474  0.0704 -0.3728  0.4770
  344MOL0     C47357  12.266   1.750   7.516  0.4330 -0.0258  0.1959
  344MOL0     O47358  12.322   1.691   7.633 -0.3784 -0.5220 -0.5474
  344MOL0     C47359  12.387   1.572   7.625  0.5027 -0.1572 -0.0751
  344MOL0     C47360  12.427   1.522   7.742  0.0219  0.8527 -1.1663
  344MOL0     C47361  12.500   1.398   7.747 -0.2291 -0.5314  0.0619
  344MOL0     C47362  12.542   1.340   7.887  0.5844 -1.1043 -0.6102
  344MOL0     C47363  12.534   1.331   7.625 -0.1476 -1.3041  0.3778
  344MOL0     C47364  12.604   1.206   7.620  0.1626  1.6700 -0.5845
  344MOL0     O47365  12.552   1.105   7.539 -0.2521 -1.3049  0.2794
  344MOL0     C47366  12.582   0.976   7.551 -0.0465  0.0699 -0.0761
  344MOL0     C47367  12.597   0.903   7.426  0.8052 -0.7380  0.5183
  344MOL0     C47368  12.618   0.766   7.426 -0.4422  0.5123  0.5205
  344MOL0     C47369  12.622   0.695   7.548 -0.1006 -1.0156 -0.7403
  344MOL0     O47370  12.653   0.563   7.562  0.4892 -0.5723 -0.1367
  344MOL0     C47371  12.761   0.509   7.483  0.5022 -0.9403 -0.2505
  344MOL0     C47372  12.775   0.358   7.515 -0.6073  0.5726  0.0700
  344MOL0     C47373  12.871   0.282   7.410 -0.0376  0.0752  0.1873
  344MOL0     C47374  12.836   0.132   7.396 -0.1181  0.0895 -0.0947
  344MOL0     C47375  12.893   0.062   7.516 -0.6618 -0.4065 -0.4631
  344MOL0     C47376  12.895  -0.086   7.492  0.3404  0.3357  0.2261
  344MOL0     C47377  12.889  -0.173   7.623 -0.4959 -0.5550  0.6551
  344MOL0     C47378  13.022  -0.176   7.688 -0.5262 -0.7350 -0.6068
  344MOL0    Cl47379  13.009  -0.226   7.856 -0.4510 -0.2203 -0.2651
  344MOL0     C47380  12.602   0.764   7.669  0.1857  0.5645  0.7693
  344MOL0     C47381  12.583   0.906   7.673  0.2698 -0.2881 -0.9238
  344MOL0     O47382  12.703   1.188   7.682 -0.5491 -0.0929  0.1631
  344MOL0     C47383  12.484   1.395   7.506  0.3463 -0.8835  0.5830
  344MOL0     C47384  12.402   1.506   7.509 -0.5451 -1.1523 -0.0880
  344MOL0     N47385  11.835   1.652   7.255  0.0950 -0.7272  0.5641
  344MOL0     N47386  11.808   1.741   7.161  0.6482  0.3399 -0.7369
  344MOL0     C47387  10.854   2.243   7.298  0.4820 -0.6842 -0.4261
  344MOL0     C47388  10.725   2.217   7.254  0.2710 -0.0115  0.3922
  344MOL0     C47389  10.292   2.188   7.161  0.0811  0.1832  0.4966
  344MOL0     C47390  10.221   2.253   7.263  0.6913 -0.2362  0.1829
  344MOL0     C47391  10.077   2.242   7.257  0.6334 -0.2721 -0.4807
  344MOL0     C47392  10.010   2.173   7.155 -0.4460 -0.6578  0.1746
  344MOL0     O47393   9.876   2.175   7.138  0.6129  0.0986 -0.4212
  344MOL0     C47394   9.797   2.083   7.208 -0.0372  0.5266  0.5494
  344MOL0     C47395   9.652   2.112   7.190  0.1842 -0.2551  0.5513
  344MOL0     C47396   9.620   2.258   7.180  0.6160 -0.2789  0.0722
  344MOL0     C47397   9.471   2.271   7.156  0.0270 -0.3137 -0.0861
  344MOL0     C47398   9.438   2.409   7.178  0.1355  0.5870  0.2869
  344MOL0     C47399   9.416   2.527   7.207 -0.9355 -0.8538  0.5535
  344MOL0     C47400  10.085   2.110   7.059  0.6094 -1.3845 -0.2146
  344MOL0     C47401  10.229   2.113   7.064  0.2475  0.3550  0.4852
  344MOL0     C47402  10.296   2.011   6.975 -0.0677  0.1136 -0.1351
  344MOL0     H47403  10.553   2.420   7.455 -0.3982 -1.7169  1.7123
  344MOL0     H47404  10.769   2.481   7.522  1.3064  0.8576 -1.6421
  344MOL0     H47405  11.111   2.281   7.321 -2.5658  0.5680  0.3735
  344MOL0     H47406  11.098   2.200   7.487 -0.4948 -0.6520 -1.0965
  344MOL0     H47407  11.250   2.458   7.463 -2.5997  0.1928 -1.6352
  344MOL0     H47408  11.269   2.331   7.586  3.1127  1.2749 -0.0489
  344MOL0     H47409  11.338   2.322   7.294  0.1808  0.6324  0.3285
  344MOL0     H47410  11.458   2.353   7.422  0.5487 -2.1322  0.9557
  344MOL0     H47411  11.416   2.128   7.509  0.1880  2.4688  0.5399
  344MOL0     H47412  11.306   2.097   7.380  1.7471 -0.3928  0.2928
  344MOL0     H47413  11.605   2.098   7.362  1.3776  2.0508 -1.6236
  344MOL0     H47414  11.537   2.197   7.244 -1.3990  2.1780  2.2617
  344MOL0     H47415  11.491   1.897   7.303 -1.5673  0.2111  1.5132
  344MOL0     H47416  11.373   2.001   7.207 -0.3259  1.6386  0.5108
  344MOL0     H47417  11.564   2.055   7.052  0.8228  0.5458 -0.0061
  344MOL0     H47418  11.549   1.886   7.054 -0.5437  0.3162 -0.4685
  344MOL0     H47419  11.781   1.979   7.057  0.9929  0.1984  0.0516
  344MOL0     H47420  11.729   2.067   7.205  0.4384  1.9629 -2.5436
  344MOL0     H47421  11.777   1.908   7.447  1.4580 -1.4183  1.8244
  344MOL0     H47422  11.868   1.557   7.509  2.3201  0.6222 -2.1935
  344MOL0     H47423  11.798   1.709   7.576  1.0638  0.0925  2.3898
  344MOL0     H47424  12.013   1.820   7.567 -1.9819 -0.0745 -2.8964
  344MOL0     H47425  12.032   1.660   7.661 -1.9459  3.0516  2.2091
  344MOL0     H47426  12.139   1.575   7.465  0.4702 -0.3045  0.1337
  344MOL0     H47427  12.109   1.718   7.372  0.5109  0.9475  0.8189
  344MOL0     H47428  12.332   1.742   7.430  0.4533 -0.4748  0.2532
  344MOL0     H47429  12.253   1.858   7.528 -0.1545 -0.1366  0.6261
  344MOL0     H47430  12.401   1.569   7.837  0.1683  0.3704 -0.8817
  344MOL0     H47431  12.650   1.352   7.891  0.4837 -0.1458  3.4498
  344MOL0     H47432  12.526   1.234   7.867 -3.7148 -0.8160  0.3443
  344MOL0     H47433  12.486   1.381   7.972  2.2205  0.5541 -0.2708
  344MOL0     H47434  12.583   0.963   7.337  0.0629  1.9731  2.3091
  344MOL0     H47435  12.624   0.700   7.340 -2.1067 -0.3392  1.0165
  344MOL0     H47436  12.740   0.512   7.376 -2.7116 -3.5766  0.1555
  344MOL0     H47437  12.856   0.556   7.510  1.0930 -1.3880 -1.4540
  344MOL0     H47438  12.825   0.333   7.610  0.6807 -1.0654 -0.9814
  344MOL0     H47439  12.677   0.309   7.510 -0.7631  0.9965 -1.4692
  344MOL0     H47440  12.974   0.297   7.444 -0.3203  2.9400  0.0207
  344MOL0     H47441  12.851   0.331   7.315 -3.0936  2.5201  1.9070
  344MOL0     H47442  12.880   0.090   7.306 -0.5373 -1.9833  0.6029
  344MOL0     H47443  12.728   0.113   7.390  0.2851 -4.2519  2.1926
  344MOL0     H47444  12.995   0.091   7.545 -0.5583  0.4433 -1.6043
  344MOL0     H47445  12.818   0.091   7.590 -1.4111  0.0249 -1.3663
  344MOL0     H47446  12.975  -0.115   7.424  0.8214 -0.3505  1.0545
  344MOL0     H47447  12.810  -0.115   7.430  1.0911 -4.1906  0.9540
  344MOL0     H47448  12.854  -0.272   7.592 -2.4110  0.5367 -0.8420
  344MOL0     H47449  12.817  -0.123   7.689 -1.2564  0.3695 -0.8247
  344MOL0     H47450  13.071  -0.078   7.683 -1.1019 -0.4744 -1.2413
  344MOL0     H47451  13.098  -0.242   7.645  0.6619 -1.6711  2.6339
  344MOL0     H47452  12.624   0.705   7.758 -0.8295 -1.0107  0.0119
  344MOL0     H47453  12.589   0.963   7.765  3.4940  0.9507 -1.7836
  344MOL0     H47454  12.489   1.341   7.412  2.3883  1.2054 -0.6137
  344MOL0     H47455  12.353   1.531   7.416  1.8102  1.1224 -0.8215
  344MOL0     H47456  10.931   2.183   7.251  1.0990  1.0240 -1.6842
  344MOL0     H47457  10.722   2.145   7.173 -1.1029  0.4582  0.0065
  344MOL0     H47458  10.261   2.304   7.350  0.3109  0.7735 -0.2125
  344MOL0     H47459  10.029   2.307   7.330  0.7812 -1.2076  0.4728
  344MOL0     H47460   9.815   1.980   7.178  2.6279  1.6371 -2.0617
  344MOL0     H47461   9.807   2.090   7.317 -2.2939  0.4478  0.8184
  344MOL0     H47462   9.588   2.077   7.272  0.5356 -0.3868  0.7695
  344MOL0     H47463   9.625   2.077   7.090 -0.1837 -1.5101  1.0707
  344MOL0     H47464   9.642   2.306   7.276 -2.2801  0.7036  0.3505
  344MOL0     H47465   9.674   2.308   7.100  0.0303 -0.1665 -0.2614
  344MOL0     H47466   9.418   2.211   7.231 -1.9486 -2.4776 -2.9855
  344MOL0     H47467   9.445   2.232   7.057 -3.8677  2.9333 -0.5895
  344MOL0     H47468   9.425   2.630   7.236  1.0765 -0.3025 -1.6689
  344MOL0     H47469  10.038   2.052   6.981  1.9883 -2.0050 -0.6155
  344MOL0     H47470  10.352   1.942   7.039  0.4618  2.1941  1.7761
  344MOL0     H47471  10.225   1.951   6.917  0.1419 -1.6504  1.3563
  344MOL0     H47472  10.370   2.062   6.913 -0.4733 -0.9897 -1.5626
  345MOL0     O47473   5.486   8.893   6.439  0.3696 -0.1860  0.0161
  345MOL0     C47474   5.493   8.782   6.489  0.0376  0.9291  0.0408
  345MOL0     O47475   5.577   8.755   6.590  0.4906 -0.6168 -0.5677
  345MOL0     C47476   5.612   8.868   6.668  0.3065  0.5555  0.4135
  345MOL0     C47477   5.540   8.907   6.780 -0.1435  0.9454 -0.4784
  345MOL0     C47478   5.579   9.014   6.865 -0.1538  0.7494 -0.7343
  345MOL0     C47479   5.693   9.085   6.845 -0.3174  0.5807  1.1045
  345MOL0     O47480   5.738   9.184   6.927 -0.3315 -0.2148 -0.1986
  345MOL0     C47481   5.738   9.175   7.072  0.5889  0.5029 -0.6116
  345MOL0     C47482   5.877   9.202   7.101 -0.6847  0.5575  0.2331
  345MOL0     C47483   5.977   9.085   7.074  0.5896  0.0298  0.0237
  345MOL0     C47484   6.106   9.076   7.166 -0.0046 -0.0032  0.2614
  345MOL0     C47485   6.195   8.975   7.104  0.8278 -0.1014 -0.7569
  345MOL0     C47486   6.312   8.945   7.199 -0.3042  0.2949 -0.2468
  345MOL0     C47487   6.402   8.835   7.144  0.2524  0.0094  0.0780
  345MOL0     C47488   6.539   8.874   7.079  0.0668 -0.3649  0.5788
  345MOL0     N47489   6.633   8.939   7.177  0.2302 -0.5172 -0.1279
  345MOL0     C47490   6.666   9.071   7.173 -0.1450  0.5845 -0.3819
  345MOL0     C47491   6.742   9.094   7.277 -0.6184  0.3074 -0.7205
  345MOL0     C47492   6.817   9.227   7.307  0.0869 -0.2755  0.7791
  345MOL0     C47493   6.948   9.225   7.230 -0.6689 -1.1180 -0.5607
  345MOL0     C47494   7.044   9.333   7.291 -0.2428 -0.0434 -0.3289
  345MOL0     C47495   7.170   9.349   7.201  1.1559 -0.5603 -1.0405
  345MOL0     O47496   7.254   9.238   7.227  0.1938  0.2401  0.6105
  345MOL0     C47497   7.316   9.183   7.122  0.0308 -0.6360 -0.3154
  345MOL0     C47498   7.336   9.231   6.997  0.5682  0.4113 -0.3363
  345MOL0     C47499   7.414   9.168   6.909 -0.5590  1.5629  0.4318
  345MOL0     C47500   7.427   9.240   6.771 -0.3233  0.3504 -0.0972
  345MOL0     C47501   7.475   9.052   6.940  0.1043  0.3124 -0.3660
  345MOL0     C47502   7.564   8.981   6.842  0.4038  0.7024  0.2024
  345MOL0     O47503   7.647   8.891   6.898 -0.2022 -0.4380 -0.4035
  345MOL0     C47504   7.751   8.830   6.827  1.3689 -0.0741 -0.1437
  345MOL0     C47505   7.810   8.883   6.711 -0.0028  0.2567 -0.5152
  345MOL0     C47506   7.921   8.820   6.656  0.6215 -0.0111  0.8413
  345MOL0     C47507   7.973   8.701   6.708 -0.3546 -0.2062  0.5051
  345MOL0     O47508   8.091   8.635   6.678 -0.2826 -0.5649 -0.4618
  345MOL0     C47509   8.186   8.690   6.584 -0.2388 -0.1650 -0.3220
  345MOL0     C47510   8.303   8.590   6.590  0.2949  0.0089  0.5174
  345MOL0     C47511   8.414   8.633   6.494 -0.2932 -0.4986 -1.5924
  345MOL0     C47512   8.381   8.595   6.352 -0.0564 -0.1088 -0.0676
  345MOL0     C47513   8.501   8.645   6.270 -0.3261 -1.7784 -1.2298
  345MOL0     C47514   8.619   8.557   6.264  0.7092  0.3379  0.0079
  345MOL0     C47515   8.750   8.643   6.239  0.6319  0.7645  0.1264
  345MOL0     C47516   8.760   8.696   6.091  0.9883 -0.3430 -0.5104
  345MOL0    Cl47517   8.925   8.737   6.046 -0.5610  0.3316 -0.4078
  345MOL0     C47518   7.900   8.641   6.812  0.7206 -0.0115 -0.3451
  345MOL0     C47519   7.799   8.713   6.869 -1.2321  0.1995 -0.3904
  345MOL0     O47520   7.526   8.973   6.725  0.2451 -0.5582 -0.2271
  345MOL0     C47521   7.466   9.012   7.068  0.0820  0.1051 -0.8584
  345MOL0     C47522   7.384   9.068   7.161  0.8855  0.2062 -0.0457
  345MOL0     N47523   6.743   8.973   7.351 -0.4937 -0.1169 -0.3153
  345MOL0     N47524   6.683   8.879   7.287 -0.3035  0.2667 -0.5526
  345MOL0     C47525   5.773   9.043   6.732 -0.3683 -0.2435  0.1038
  345MOL0     C47526   5.721   8.949   6.633 -0.7880 -0.4151  0.0011
  345MOL0     C47527   5.406   8.676   6.426  0.1316  0.4423  0.4468
  345MOL0     C47528   5.408   8.670   6.289 -0.3789  0.3536 -0.3139
  345MOL0     C47529   5.343   8.579   6.214  1.0337 -0.3615 -0.4869
  345MOL0     C47530   5.256   8.490   6.278  1.1973  0.4712  0.7991
  345MOL0     O47531   5.193   8.407   6.182  0.0093  0.3100 -0.1028
  345MOL0     C47532   5.095   8.311   6.222 -0.0612 -1.0973 -0.3915
  345MOL0     C47533   5.060   8.225   6.103  0.1460 -0.5532  0.2026
  345MOL0     C47534   5.183   8.165   6.036 -0.4555  0.1021 -0.3952
  345MOL0     C47535   5.154   8.094   5.907 -0.1795 -0.2570  0.2785
  345MOL0     C47536   5.115   8.199   5.808  0.0136  0.4793  0.5223
  345MOL0     C47537   5.072   8.289   5.745  0.3556  0.6114  0.4384
  345MOL0     C47538   5.246   8.485   6.418 -0.3121 -0.7386  0.3109
  345MOL0     C47539   5.316   8.588   6.492 -0.0158  0.0495  0.1037
  345MOL0     C47540   5.296   8.591   6.645  0.3799 -0.8684  0.3263
  345MOL0     H47541   5.459   8.843   6.815  0.5512 -0.1624 -0.8384
  345MOL0     H47542   5.537   9.041   6.961 -0.0837  0.6585 -0.6786
  345MOL0     H47543   5.714   9.076   7.112  2.9128  0.1479  0.0571
  345MOL0     H47544   5.679   9.255   7.118 -2.2186 -1.7760  0.0116
  345MOL0     H47545   5.920   9.283   7.042  1.4972 -1.4113 -1.0987
  345MOL0     H47546   5.874   9.237   7.205  5.4298  0.7084  0.7430
  345MOL0     H47547   5.934   8.985   7.070 -0.8991  0.6615 -3.3593
  345MOL0     H47548   6.021   9.108   6.976 -0.8511  1.6633 -0.3078
  345MOL0     H47549   6.158   9.169   7.194 -3.7913  2.5952 -0.5311
  345MOL0     H47550   6.074   9.035   7.263  0.2612  0.0835  0.3877
  345MOL0     H47551   6.234   9.004   7.006 -1.8170  0.4350 -1.7332
  345MOL0     H47552   6.133   8.887   7.087  0.8840 -1.3005  4.0040
  345MOL0     H47553   6.364   9.029   7.245  0.5814 -0.6994  0.6081
  345MOL0     H47554   6.271   8.891   7.286  0.5688  0.7744  0.4704
  345MOL0     H47555   6.351   8.782   7.063 -1.1101  1.3489  0.0084
  345MOL0     H47556   6.429   8.760   7.219 -1.4620 -1.5319 -0.7862
  345MOL0     H47557   6.594   8.793   7.029 -0.3144 -1.7171  2.2615
  345MOL0     H47558   6.515   8.933   6.991  0.0376 -1.3516 -0.0986
  345MOL0     H47559   6.642   9.143   7.095  2.4965  1.2268 -0.7000
  345MOL0     H47560   6.842   9.245   7.412  0.5457 -2.5435  1.1109
  345MOL0     H47561   6.742   9.298   7.272 -2.7462 -2.8560  1.2347
  345MOL0     H47562   6.995   9.130   7.256  3.0767  0.5931 -0.3790
  345MOL0     H47563   6.930   9.239   7.123 -0.4470 -2.1356 -0.7395
  345MOL0     H47564   6.982   9.423   7.288 -0.1398  0.1450  1.7793
  345MOL0     H47565   7.079   9.305   7.391 -1.7292 -0.4596  0.0946
  345MOL0     H47566   7.137   9.364   7.098  1.5221  0.8027 -0.9821
  345MOL0     H47567   7.220   9.444   7.224 -3.8079  2.2471 -0.3456
  345MOL0     H47568   7.286   9.321   6.962  1.7570  1.4786  0.6297
  345MOL0     H47569   7.530   9.230   6.736  0.0585 -4.4605  1.6703
  345MOL0     H47570   7.406   9.347   6.776 -0.0520  0.4539 -0.9952
  345MOL0     H47571   7.356   9.184   6.709 -0.5945  2.2861 -1.6467
  345MOL0     H47572   7.794   8.980   6.664  1.1206  2.0111  2.3974
  345MOL0     H47573   7.976   8.866   6.574 -2.3908  3.6878  0.6278
  345MOL0     H47574   8.145   8.679   6.484 -0.1384 -0.9979 -0.2784
  345MOL0     H47575   8.205   8.790   6.624  0.4696 -0.1333 -0.7275
  345MOL0     H47576   8.340   8.594   6.693  0.8835  1.1196  0.2730
  345MOL0     H47577   8.248   8.498   6.567 -1.9046  1.1480  1.0292
  345MOL0     H47578   8.509   8.586   6.521  0.9827  2.5932 -0.2106
  345MOL0     H47579   8.431   8.741   6.500 -0.4893 -0.5273 -0.3267
  345MOL0     H47580   8.285   8.635   6.318  0.8263  3.3243  1.1131
  345MOL0     H47581   8.382   8.486   6.353 -1.3391 -0.1308  0.7071
  345MOL0     H47582   8.467   8.664   6.167 -3.0273  1.2745  0.0460
  345MOL0     H47583   8.524   8.745   6.307 -2.3490 -0.9210 -2.1706
  345MOL0     H47584   8.596   8.485   6.186 -0.4790 -0.3895  0.9956
  345MOL0     H47585   8.645   8.497   6.352  0.6091  2.8085  1.8322
  345MOL0     H47586   8.836   8.583   6.268 -1.7886 -2.5323  1.0046
  345MOL0     H47587   8.752   8.736   6.297  0.3553  1.9979 -1.7297
  345MOL0     H47588   8.705   8.788   6.070  1.0438  0.3743  2.1315
  345MOL0     H47589   8.729   8.621   6.018  1.6424  0.8514 -2.0721
  345MOL0     H47590   7.950   8.561   6.866  1.0179  1.1150  1.1072
  345MOL0     H47591   7.761   8.686   6.968  1.4180 -0.2995  0.5722
  345MOL0     H47592   7.507   8.916   7.097 -1.0270  0.1955  1.2136
  345MOL0     H47593   7.382   9.031   7.263 -0.1316  0.8889  0.2058
  345MOL0     H47594   5.868   9.093   6.715 -0.2660  0.1600  1.6835
  345MOL0     H47595   5.786   8.940   6.546 -1.1965  3.8143 -0.9396
  345MOL0     H47596   5.461   8.738   6.223 -3.1826  1.6284 -1.4075
  345MOL0     H47597   5.348   8.583   6.106 -1.2333 -0.0554 -0.6274
  345MOL0     H47598   5.139   8.252   6.304  2.0295  2.6922  1.4707
  345MOL0     H47599   5.009   8.365   6.263  0.8947  0.6441 -0.6141
  345MOL0     H47600   5.002   8.285   6.033 -0.1619 -1.0861 -0.0102
  345MOL0     H47601   4.998   8.148   6.151  0.6881 -1.0691  0.1005
  345MOL0     H47602   5.259   8.240   6.011 -1.4798  0.6556 -2.0542
  345MOL0     H47603   5.231   8.103   6.112 -1.4650 -0.3313 -0.0966
  345MOL0     H47604   5.080   8.014   5.908 -0.9559  0.4180 -0.9532
  345MOL0     H47605   5.249   8.043   5.892 -1.7505 -4.4115  2.7521
  345MOL0     H47606   5.027   8.374   5.698  0.5722  0.9190  0.7718
  345MOL0     H47607   5.192   8.402   6.461 -3.5177  0.1014 -1.7076
  345MOL0     H47608   5.385   8.627   6.697  1.5688  0.0192 -2.1445
  345MOL0     H47609   5.218   8.666   6.662  1.2113 -0.0718  0.6594
  345MOL0     H47610   5.269   8.496   6.691 -2.5258  0.2052  1.0484
  346MOL0     O47611  10.496   4.678  10.433 -0.1422  0.2606 -0.0795
  346MOL0     C47612  10.480   4.614  10.327 -0.2406  0.0725 -0.3321
  346MOL0     O47613  10.580   4.542  10.266  0.1958  0.4217 -0.3610
  346MOL0     C47614  10.686   4.509  10.349 -0.6899 -0.1319 -0.8081
  346MOL0     C47615  10.814   4.541  10.322 -1.2853  0.1141 -0.1854
  346MOL0     C47616  10.914   4.516  10.422 -0.1097 -0.1410  0.2909
  346MOL0     C47617  10.879   4.459  10.541  0.8844 -0.5401 -0.4845
  346MOL0     O47618  10.958   4.450  10.647  0.1410  0.2446 -0.3958
  346MOL0     C47619  11.095   4.414  10.633 -0.5648  0.8498 -0.8023
  346MOL0     C47620  11.142   4.338  10.759 -0.4041  0.0974 -0.1568
  346MOL0     C47621  11.220   4.429  10.855  0.9337  0.2536 -0.1060
  346MOL0     C47622  11.373   4.420  10.835 -0.1111  0.4752  0.3540
  346MOL0     C47623  11.434   4.507  10.947 -0.5776  0.0691 -0.2486
  346MOL0     C47624  11.590   4.489  10.944  0.1179 -0.6862 -0.0642
  346MOL0     C47625  11.653   4.602  11.021 -0.1607  0.1984 -0.2763
  346MOL0     C47626  11.653   4.581  11.171 -0.0789  0.8731 -0.5684
  346MOL0     N47627  11.771   4.640  11.247  0.3132 -0.4156  0.7803
  346MOL0     C47628  11.879   4.572  11.277 -0.6135  0.5769 -0.5474
  346MOL0     C47629  11.947   4.661  11.352 -1.5684  0.3028 -0.4426
  346MOL0     C47630  12.088   4.633  11.403 -0.6921  1.0041  0.5696
  346MOL0     C47631  12.167   4.552  11.298 -0.1535  0.0239 -0.3161
  346MOL0     C47632  12.325   4.578  11.320  1.0268  0.7583 -0.0207
  346MOL0     C47633  12.382   4.564  11.464 -0.5405 -1.2981  0.1177
  346MOL0     O47634  12.364   4.693  11.532 -0.8768 -0.2361 -0.2289
  346MOL0     C47635  12.443   4.726  11.636 -0.0952 -0.9721  0.5262
  346MOL0     C47636  12.534   4.650  11.708 -0.7486  0.5316  0.2787
  346MOL0     C47637  12.608   4.694  11.815 -0.8137  0.2717 -0.3288
  346MOL0     C47638  12.696   4.595  11.883  0.3968  0.0083 -0.5149
  346MOL0     C47639  12.585   4.828  11.858 -0.6068 -0.7079  0.8709
  346MOL0     C47640  12.638   4.880  11.982 -0.3296 -0.0236  0.8918
  346MOL0     O47641  12.660   5.011  11.981 -0.0107  0.4891 -0.3002
  346MOL0     C47642  12.694   5.070  12.105  0.3628  0.7318 -0.2927
  346MOL0     C47643  12.606   5.140  12.184  1.1445  0.6128 -0.6819
  346MOL0     C47644  12.643   5.187  12.311  0.5081  0.6444 -0.1122
  346MOL0     C47645  12.765   5.165  12.362 -0.8741  0.4308 -0.8613
  346MOL0     O47646  12.809   5.205  12.484 -0.4396 -0.2948  0.2797
  346MOL0     C47647  12.710   5.264  12.567 -1.1880  0.0887 -0.6046
  346MOL0     C47648  12.770   5.326  12.691  0.5286 -0.7195 -0.1903
  346MOL0     C47649  12.823   5.210  12.786  0.4660 -0.0059 -0.4097
  346MOL0     C47650  12.892   5.279  12.906  0.1067  0.3638 -0.3747
  346MOL0     C47651  12.941   5.171  13.005 -0.2166 -0.1686 -0.4324
  346MOL0     C47652  13.081   5.108  12.976 -0.6007  0.3551 -0.2328
  346MOL0     C47653  13.103   4.984  13.060  1.0243  0.0012  0.2468
  346MOL0     C47654  13.236   4.918  13.056  0.4402  0.1521 -0.2408
  346MOL0    Cl47655  13.229   4.778  13.161 -0.5078 -0.1586 -0.3230
  346MOL0     C47656  12.853   5.074  12.292 -0.0544 -0.7713  0.0326
  346MOL0     C47657  12.817   5.041  12.158 -0.9645  0.2090 -0.3924
  346MOL0     O47658  12.632   4.812  12.084  0.1017 -0.2068 -0.2625
  346MOL0     C47659  12.498   4.907  11.787  0.0555  0.0382 -0.4720
  346MOL0     C47660  12.421   4.862  11.680 -1.5762 -0.1424 -0.1586
  346MOL0     N47661  11.867   4.772  11.375  0.5744 -0.2882 -0.7730
  346MOL0     N47662  11.759   4.757  11.306 -0.0599 -0.4307  0.0817
  346MOL0     C47663  10.751   4.418  10.562 -0.3819  0.1296 -0.5903
  346MOL0     C47664  10.651   4.443  10.471 -0.2530  0.4722 -0.3133
  346MOL0     C47665  10.367   4.648  10.254  1.2655 -0.4461  0.6102
  346MOL0     C47666  10.375   4.659  10.109  0.1423  0.1576  0.5077
  346MOL0     C47667  10.264   4.711  10.035  0.2361 -0.0596  0.5876
  346MOL0     C47668  10.148   4.730  10.102  0.8015 -0.4213  0.5127
  346MOL0     O47669  10.040   4.790  10.035  0.6317 -0.5335 -0.3867
  346MOL0     C47670   9.905   4.795  10.080 -0.4416  0.5888 -0.1067
  346MOL0     C47671   9.867   4.931  10.143  0.3652  0.1745 -0.3954
  346MOL0     C47672   9.720   4.924  10.208 -0.2447 -0.6462 -0.2132
  346MOL0     C47673   9.661   5.061  10.231 -0.6728 -0.1813 -0.1363
  346MOL0     C47674   9.528   5.032  10.293  0.1477  0.1327  0.5613
  346MOL0     C47675   9.418   5.006  10.330  0.1648 -0.2824  0.4685
  346MOL0     C47676  10.131   4.701  10.236 -0.0791 -0.2017 -0.3638
  346MOL0     C47677  10.243   4.669  10.311 -0.2573 -0.0947  0.3294
  346MOL0     C47678  10.215   4.671  10.457 -0.2531  0.3372 -0.2552
  346MOL0     H47679  10.838   4.589  10.228 -1.8558  1.2097  0.2138
  346MOL0     H47680  11.019   4.533  10.400 -0.9209  2.9176 -1.9286
  346MOL0     H47681  11.158   4.504  10.634  0.4531  0.1535 -0.7476
  346MOL0     H47682  11.109   4.346  10.549 -2.9833  0.1073 -0.6773
  346MOL0     H47683  11.061   4.277  10.800 -0.4582 -0.1224 -0.5896
  346MOL0     H47684  11.217   4.273  10.713  1.6375  0.5575  2.3196
  346MOL0     H47685  11.200   4.536  10.848  2.1637  0.4866 -0.2139
  346MOL0     H47686  11.197   4.398  10.957 -1.0244 -3.8363 -1.5623
  346MOL0     H47687  11.420   4.324  10.853  3.5124  2.4047  2.2285
  346MOL0     H47688  11.394   4.454  10.733  1.4868  2.3286  1.2390
  346MOL0     H47689  11.395   4.474  11.044  0.3036 -4.0443 -1.0953
  346MOL0     H47690  11.408   4.612  10.934 -1.1016  0.0252  0.3728
  346MOL0     H47691  11.613   4.389  10.984 -1.8345 -0.6069  1.4162
  346MOL0     H47692  11.616   4.498  10.838 -2.6858 -0.3285 -0.7855
  346MOL0     H47693  11.610   4.701  11.004  0.7199  0.8556  1.1954
  346MOL0     H47694  11.754   4.599  10.980  0.6743 -1.3065  1.7049
  346MOL0     H47695  11.560   4.603  11.224  1.3210  0.0443  2.4869
  346MOL0     H47696  11.652   4.473  11.188 -0.1424  0.6572 -1.8418
  346MOL0     H47697  11.903   4.471  11.244 -0.7469  0.0753  0.8029
  346MOL0     H47698  12.085   4.576  11.497 -1.1859 -1.9760 -1.1481
  346MOL0     H47699  12.131   4.733  11.418 -0.6478  1.0201  0.3362
  346MOL0     H47700  12.142   4.446  11.289  0.6698 -0.1827 -0.2407
  346MOL0     H47701  12.142   4.595  11.201  0.1434 -1.5571 -1.1185
  346MOL0     H47702  12.378   4.514  11.249  0.2612 -0.9349  0.8600
  346MOL0     H47703  12.341   4.684  11.297  0.9086  0.3575 -2.1501
  346MOL0     H47704  12.337   4.487  11.528 -2.4667  0.5188  1.0547
  346MOL0     H47705  12.485   4.530  11.452 -0.1333  0.4906 -2.3368
  346MOL0     H47706  12.535   4.547  11.675 -0.1881  1.4791 -2.9749
  346MOL0     H47707  12.705   4.500  11.831 -2.2673 -1.7360  1.8888
  346MOL0     H47708  12.643   4.557  11.971  0.0980  0.6579 -0.4021
  346MOL0     H47709  12.796   4.633  11.908 -0.5114  1.5329  1.0967
  346MOL0     H47710  12.503   5.153  12.153  0.1839 -1.3473  1.3873
  346MOL0     H47711  12.568   5.245  12.364 -1.4050 -1.0367 -0.8681
  346MOL0     H47712  12.676   5.351  12.509 -0.0323 -0.0826 -1.5915
  346MOL0     H47713  12.628   5.198  12.596 -0.7554  0.3351  1.2743
  346MOL0     H47714  12.840   5.403  12.657 -2.9568  3.1119  0.5537
  346MOL0     H47715  12.703   5.392  12.745  0.7014  1.6485 -2.6167
  346MOL0     H47716  12.891   5.146  12.729 -0.4998  1.2124 -3.0928
  346MOL0     H47717  12.734   5.154  12.817 -0.6589  1.4093 -0.9965
  346MOL0     H47718  12.822   5.343  12.959  1.3734  0.1502  1.6341
  346MOL0     H47719  12.975   5.342  12.875  1.7638 -0.9620  1.1583
  346MOL0     H47720  12.948   5.213  13.105 -0.5525 -0.8438 -0.1215
  346MOL0     H47721  12.863   5.095  13.016  0.6250 -1.4085 -2.3619
  346MOL0     H47722  13.158   5.183  12.997  1.8103 -1.6801 -1.2750
  346MOL0     H47723  13.088   5.081  12.870 -0.3263 -1.9253  0.3175
  346MOL0     H47724  13.025   4.914  13.028  0.7941 -0.2477  1.3178
  346MOL0     H47725  13.072   5.013  13.161  1.2103  1.3487 -0.0602
  346MOL0     H47726  13.316   4.990  13.075 -0.3327  1.4233 -1.5801
  346MOL0     H47727  13.258   4.888  12.953 -0.0859 -1.3126  0.0515
  346MOL0     H47728  12.945   5.034  12.332  0.9589 -2.5394 -3.6315
  346MOL0     H47729  12.897   4.985  12.111  0.0063 -1.5415  2.9911
  346MOL0     H47730  12.475   5.011  11.809  0.9043  0.3516 -1.0313
  346MOL0     H47731  12.353   4.916  11.615  2.1020  0.4444 -3.9212
  346MOL0     H47732  10.735   4.370  10.659  1.8521 -1.9111 -1.1237
  346MOL0     H47733  10.556   4.404  10.505 -0.3503  2.6012  2.2139
  346MOL0     H47734  10.471   4.638  10.062  0.9476 -0.6032  2.3738
  346MOL0     H47735  10.276   4.748   9.933  0.1949  0.0304  0.6159
  346MOL0     H47736   9.845   4.787   9.989 -2.4221 -0.1603  1.1874
  346MOL0     H47737   9.864   4.708  10.133 -2.1707  1.2457 -0.3047
  346MOL0     H47738   9.871   5.003  10.060  0.2807  0.4282 -0.1790
  346MOL0     H47739   9.943   4.957  10.217 -2.2792  2.4025  1.7581
  346MOL0     H47740   9.657   4.856  10.150  2.2006 -0.7241 -2.9709
  346MOL0     H47741   9.747   4.872  10.300  1.5109 -1.9472 -1.4138
  346MOL0     H47742   9.665   5.122  10.140 -3.9072 -1.4932 -1.2940
  346MOL0     H47743   9.719   5.118  10.305  2.0170 -0.9278 -1.5409
  346MOL0     H47744   9.332   4.988  10.391 -0.9727 -0.9173 -1.2543
  346MOL0     H47745  10.040   4.716  10.293  1.2976  0.7082  1.7390
  346MOL0     H47746  10.280   4.606  10.517 -1.1771 -1.4641 -1.1116
  346MOL0     H47747  10.198   4.772  10.494 -0.2897 -0.3299  1.6581
  346MOL0     H47748  10.121   4.618  10.477 -0.2881  0.9126  1.1851
  347MOL0     O47749   1.622   4.589   3.556  0.0504  0.4443  0.5984
  347MOL0     C47750   1.604   4.571   3.435  1.0520 -0.0719 -0.5788
  347MOL0     O47751   1.677   4.482   3.359 -0.1385 -0.3561 -0.3135
  347MOL0     C47752   1.701   4.367   3.432 -0.0066  0.8319  0.0247
  347MOL0     C47753   1.833   4.347   3.470  0.6997  0.9517 -0.1289
  347MOL0     C47754   1.868   4.237   3.554  0.3561  0.8862 -0.0540
  347MOL0     C47755   1.773   4.135   3.601 -0.1993  0.2076  0.4536
  347MOL0     O47756   1.806   4.022   3.667 -0.0648 -0.3227 -0.3870
  347MOL0     C47757   1.933   4.010   3.735  0.4940  0.1841 -0.3464
  347MOL0     C47758   1.922   3.871   3.804  0.3200 -0.2931 -0.3164
  347MOL0     C47759   2.066   3.813   3.830  0.4588  0.6894 -0.2365
  347MOL0     C47760   2.056   3.662   3.870  0.3069  0.3671  0.4284
  347MOL0     C47761   2.190   3.608   3.921 -0.5492 -0.0655 -0.4590
  347MOL0     C47762   2.164   3.475   3.990 -0.2730 -0.4930  0.5917
  347MOL0     C47763   2.287   3.388   4.038 -0.1926  0.1397  0.2247
  347MOL0     C47764   2.366   3.337   3.919 -0.1373  0.1986  0.7771
  347MOL0     N47765   2.480   3.246   3.953  0.9608 -0.7156  0.3426
  347MOL0     C47766   2.571   3.263   4.051  0.0264  0.2316  0.9633
  347MOL0     C47767   2.660   3.162   4.041 -0.6022  0.6852 -0.4669
  347MOL0     C47768   2.785   3.142   4.145  0.8077  0.7327 -0.1761
  347MOL0     C47769   2.911   3.081   4.085 -0.1277 -0.3104 -0.5800
  347MOL0     C47770   2.922   2.927   4.101  0.0317  0.1749  0.8511
  347MOL0     C47771   3.073   2.868   4.113  0.3621 -0.0142  0.7099
  347MOL0     O47772   3.157   2.928   4.011 -0.2887  0.2103 -0.4347
  347MOL0     C47773   3.270   2.856   3.976  0.2768  0.0364  0.6537
  347MOL0     C47774   3.313   2.871   3.846 -0.2533 -0.0831  0.7259
  347MOL0     C47775   3.432   2.816   3.798 -0.2462  0.2281 -0.8255
  347MOL0     C47776   3.482   2.851   3.659  0.0481  0.4328  0.2480
  347MOL0     C47777   3.494   2.724   3.880  0.2791 -0.0889 -0.1875
  347MOL0     C47778   3.625   2.660   3.851 -1.3669 -0.0975  0.3299
  347MOL0     O47779   3.649   2.614   3.725 -0.8270 -0.2988  0.0085
  347MOL0     C47780   3.777   2.556   3.716 -0.1302  0.3878  0.2289
  347MOL0     C47781   3.799   2.412   3.710  1.1772  0.7823 -0.4492
  347MOL0     C47782   3.922   2.355   3.703 -0.1984  0.2503 -0.8950
  347MOL0     C47783   4.035   2.435   3.684 -0.1437  0.3605 -1.0754
  347MOL0     O47784   4.166   2.384   3.689 -0.0278 -0.8207  0.0668
  347MOL0     C47785   4.194   2.247   3.722  0.3479  0.2664 -0.3413
  347MOL0     C47786   4.333   2.201   3.683 -0.0871 -0.2023  0.3917
  347MOL0     C47787   4.350   2.059   3.738 -0.8879 -0.0682  0.7642
  347MOL0     C47788   4.476   1.992   3.684  0.1743 -1.2298 -0.0086
  347MOL0     C47789   4.521   1.873   3.768  0.6700  0.0827 -0.9452
  347MOL0     C47790   4.570   1.747   3.705  0.0985  0.3314  0.4245
  347MOL0     C47791   4.672   1.762   3.593 -1.0218 -0.4530 -1.2156
  347MOL0     C47792   4.795   1.845   3.641 -0.9169 -0.3506 -0.5974
  347MOL0    Cl47793   4.890   1.760   3.768 -0.0692  0.0041 -0.3469
  347MOL0     C47794   4.021   2.572   3.686  0.0582 -0.2192 -0.5774
  347MOL0     C47795   3.897   2.632   3.712  0.2586  0.4033  0.0390
  347MOL0     O47796   3.706   2.656   3.942 -0.2388 -0.4019  0.0838
  347MOL0     C47797   3.438   2.691   4.006  0.0344 -0.0976  0.1941
  347MOL0     C47798   3.337   2.770   4.056  0.1383  0.3776  1.5350
  347MOL0     N47799   2.617   3.072   3.946  0.3426  0.3052  0.5463
  347MOL0     N47800   2.514   3.129   3.886 -0.4401 -0.2091  0.1333
  347MOL0     C47801   1.646   4.155   3.561 -0.5691  0.6454  1.0209
  347MOL0     C47802   1.611   4.262   3.473 -0.0846  1.1713 -0.0840
  347MOL0     C47803   1.498   4.654   3.372  0.9592 -0.3614 -0.5889
  347MOL0     C47804   1.529   4.705   3.241  0.6160 -0.1444  0.3957
  347MOL0     C47805   1.443   4.797   3.172  0.1478  0.1988  0.2600
  347MOL0     C47806   1.325   4.841   3.236  0.3993 -0.6584  0.5650
  347MOL0     O47807   1.256   4.947   3.178  0.2031  0.6534  0.2869
  347MOL0     C47808   1.175   4.924   3.063 -0.2850 -1.0606  0.1460
  347MOL0     C47809   1.031   4.966   3.092  0.0684  0.0892 -0.6669
  347MOL0     C47810   0.932   4.936   2.987 -0.4913  0.3379  0.0592
  347MOL0     C47811   0.801   5.009   3.016 -0.4312 -0.1194 -1.4219
  347MOL0     C47812   0.696   4.967   2.928  0.8619 -0.2990  0.1504
  347MOL0     C47813   0.597   4.940   2.861  0.2330  0.4372  0.7622
  347MOL0     C47814   1.288   4.792   3.362  0.0046 -0.4590 -0.6778
  347MOL0     C47815   1.369   4.692   3.425  0.0970  0.3297 -0.5183
  347MOL0     C47816   1.316   4.619   3.547  0.2845  0.3486 -0.8291
  347MOL0     H47817   1.916   4.407   3.434  0.8955  1.7448  1.5431
  347MOL0     H47818   1.969   4.211   3.582 -0.2117 -0.0743  1.1951
  347MOL0     H47819   1.954   4.087   3.810  0.3494  0.3563 -0.4818
  347MOL0     H47820   2.010   4.009   3.657 -0.1473 -3.1423 -1.0457
  347MOL0     H47821   1.864   3.882   3.896 -0.7636  0.7919 -1.1029
  347MOL0     H47822   1.870   3.790   3.751  1.0213 -1.1222  0.2253
  347MOL0     H47823   2.117   3.833   3.735 -0.4547  3.9915 -0.1665
  347MOL0     H47824   2.121   3.856   3.913  1.5385 -1.0625 -0.0055
  347MOL0     H47825   1.984   3.650   3.952 -1.9654 -0.9750 -1.6119
  347MOL0     H47826   2.016   3.602   3.788  0.7571  0.7762 -0.1026
  347MOL0     H47827   2.225   3.675   4.000 -1.0968  0.7632 -0.9034
  347MOL0     H47828   2.263   3.590   3.843  0.0404 -1.5526  0.3893
  347MOL0     H47829   2.104   3.499   4.078 -2.5785 -0.1277 -0.9798
  347MOL0     H47830   2.094   3.416   3.930 -0.9466  0.0833  0.7798
  347MOL0     H47831   2.254   3.302   4.098  1.5771 -1.8646 -1.5091
  347MOL0     H47832   2.352   3.452   4.099 -1.4417 -0.2787  2.0992
  347MOL0     H47833   2.296   3.283   3.854 -2.4820 -2.0067  4.6435
  347MOL0     H47834   2.408   3.417   3.859 -1.7953 -1.2420 -2.5817
  347MOL0     H47835   2.576   3.347   4.120  0.2626  1.8133 -0.8632
  347MOL0     H47836   2.752   3.075   4.225  0.0532 -2.1083 -2.6680
  347MOL0     H47837   2.807   3.237   4.194 -0.3313 -0.8827  3.8999
  347MOL0     H47838   2.924   3.115   3.982 -0.2723 -0.2590 -0.5813
  347MOL0     H47839   2.995   3.121   4.142 -0.2783 -3.0250  1.7332
  347MOL0     H47840   2.870   2.903   4.193 -1.9922  0.9955 -0.0245
  347MOL0     H47841   2.879   2.876   4.014  1.3259  0.6056 -0.0833
  347MOL0     H47842   3.122   2.894   4.208 -2.1937  0.0594  2.0914
  347MOL0     H47843   3.069   2.760   4.101  0.3890 -0.0717  1.1819
  347MOL0     H47844   3.265   2.942   3.779 -0.7272 -0.4929  0.6265
  347MOL0     H47845   3.487   2.758   3.601  0.0081  0.2227  0.5783
  347MOL0     H47846   3.581   2.896   3.667  0.7288 -1.0130  0.2088
  347MOL0     H47847   3.420   2.924   3.605 -0.0160 -1.0939 -1.8592
  347MOL0     H47848   3.713   2.347   3.708  0.5009  1.6398 -0.0422
  347MOL0     H47849   3.924   2.247   3.702  1.8553  0.2105  0.4098
  347MOL0     H47850   4.194   2.239   3.831  0.2127  2.9075 -0.0937
  347MOL0     H47851   4.117   2.176   3.691 -0.3377  0.6430  0.4653
  347MOL0     H47852   4.344   2.203   3.574 -1.6584  0.5252  0.2224
  347MOL0     H47853   4.405   2.276   3.716 -0.3238 -0.7961  2.3438
  347MOL0     H47854   4.269   1.992   3.709  0.4894 -1.0913 -0.9454
  347MOL0     H47855   4.355   2.074   3.846  2.3232  0.6287  0.6141
  347MOL0     H47856   4.562   2.060   3.675  0.1348 -0.9076  1.6924
  347MOL0     H47857   4.461   1.965   3.580  1.3658  0.2339 -0.6065
  347MOL0     H47858   4.597   1.916   3.834 -0.1861 -0.2924  0.3255
  347MOL0     H47859   4.429   1.859   3.826  2.7337 -0.0482  2.5588
  347MOL0     H47860   4.482   1.694   3.669 -0.0932 -1.3798  3.0598
  347MOL0     H47861   4.616   1.689   3.786 -0.1511  1.0185  1.0732
  347MOL0     H47862   4.621   1.811   3.509 -1.2685  0.4038 -0.5802
  347MOL0     H47863   4.712   1.671   3.547  0.4457  0.2569 -1.3935
  347MOL0     H47864   4.769   1.945   3.676 -2.4219 -1.5810  2.1673
  347MOL0     H47865   4.846   1.868   3.547 -0.0373 -0.8886 -0.2677
  347MOL0     H47866   4.108   2.637   3.688 -2.5367  3.6026  1.8213
  347MOL0     H47867   3.876   2.738   3.715 -3.0560 -0.1309 -0.5365
  347MOL0     H47868   3.487   2.621   4.073 -1.7181  0.9782  2.7534
  347MOL0     H47869   3.311   2.759   4.161 -3.7097 -2.1447  0.5378
  347MOL0     H47870   1.566   4.096   3.604 -0.2611 -0.3158  0.3237
  347MOL0     H47871   1.505   4.280   3.461 -0.6002 -2.3622 -2.1355
  347MOL0     H47872   1.624   4.672   3.200 -0.5746 -0.3066 -2.4520
  347MOL0     H47873   1.456   4.827   3.069 -2.8510 -0.4201 -0.3966
  347MOL0     H47874   1.223   4.981   2.984  3.9709 -4.6991 -0.2780
  347MOL0     H47875   1.175   4.824   3.020 -0.7294 -1.3192  0.7263
  347MOL0     H47876   1.031   5.074   3.112  0.1452 -0.0402  0.0412
  347MOL0     H47877   1.009   4.908   3.182  2.0872  0.2047 -0.0296
  347MOL0     H47878   0.974   4.955   2.888  1.0784 -3.9284 -0.2564
  347MOL0     H47879   0.904   4.831   2.990 -0.1656  0.2096 -0.9156
  347MOL0     H47880   0.823   5.115   3.004 -1.4825 -0.0602 -3.2268
  347MOL0     H47881   0.773   4.994   3.121  1.1262  2.0070 -0.6397
  347MOL0     H47882   0.510   4.890   2.825  2.2242 -1.7850 -1.2938
  347MOL0     H47883   1.199   4.830   3.411 -0.4202 -0.8282 -1.1423
  347MOL0     H47884   1.359   4.520   3.560 -0.2791  0.0894 -0.9309
  347MOL0     H47885   1.342   4.679   3.635  0.9112  1.7365 -1.9160
  347MOL0     H47886   1.208   4.604   3.538  0.5029 -0.6127 -1.9446
  348MOL0     O47887   4.374   1.243   7.025  0.4391  0.8717 -0.5216
  348MOL0     C47888   4.284   1.207   6.948  0.2650 -1.1360 -0.0961
  348MOL0     O47889   4.296   1.159   6.829 -0.7828  0.1586 -0.1736
  348MOL0     C47890   4.430   1.113   6.808  0.0741 -0.0085  1.2449
  348MOL0     C47891   4.507   1.194   6.726 -0.0759 -0.1716  1.3044
  348MOL0     C47892   4.629   1.154   6.685  0.5917 -0.2504 -0.0843
  348MOL0     C47893   4.680   1.031   6.711 -0.3731  0.3005 -0.0093
  348MOL0     O47894   4.806   0.996   6.674  0.0282 -0.0416  0.1953
  348MOL0     C47895   4.890   0.932   6.775 -0.8774  0.2976  0.3632
  348MOL0     C47896   5.036   0.914   6.722  0.5736 -0.2583  0.4261
  348MOL0     C47897   5.106   1.045   6.670 -0.8116 -0.0826  0.6445
  348MOL0     C47898   5.130   1.148   6.779 -1.3282  0.1339 -0.1972
  348MOL0     C47899   5.193   1.275   6.729 -0.3231  0.6927 -0.5472
  348MOL0     C47900   5.100   1.356   6.638  0.8783 -0.7885  0.2405
  348MOL0     C47901   4.957   1.400   6.675 -0.2273  0.2516  0.4564
  348MOL0     C47902   4.961   1.465   6.816 -1.0750 -0.1756 -0.3252
  348MOL0     N47903   4.834   1.526   6.847 -0.1007 -0.1202 -0.1803
  348MOL0     C47904   4.716   1.466   6.848 -0.6672  0.1722  0.8840
  348MOL0     C47905   4.626   1.558   6.885  0.2255 -0.6629 -0.4479
  348MOL0     C47906   4.470   1.546   6.880 -0.2465  0.0210 -0.6405
  348MOL0     C47907   4.412   1.655   6.787  0.6668 -0.4373  0.0414
  348MOL0     C47908   4.479   1.657   6.647  0.0608 -1.0470  0.4502
  348MOL0     C47909   4.468   1.799   6.603  0.5996  0.5039  0.3009
  348MOL0     O47910   4.485   1.815   6.454 -0.0125 -0.3505 -0.8663
  348MOL0     C47911   4.607   1.787   6.404  0.5328  0.1139  0.2779
  348MOL0     C47912   4.618   1.768   6.273  0.1880  1.0371  1.3741
  348MOL0     C47913   4.733   1.729   6.206  0.0011 -0.2955 -0.9813
  348MOL0     C47914   4.709   1.719   6.057 -0.4105  0.3917  0.2122
  348MOL0     C47915   4.856   1.709   6.278  0.7181  0.0714  0.0990
  348MOL0     C47916   4.981   1.644   6.223  0.5319 -0.9117  0.5310
  348MOL0     O47917   5.102   1.647   6.289 -0.3599 -0.5773 -0.0793
  348MOL0     C47918   5.191   1.554   6.239  0.2036 -0.0799 -0.1143
  348MOL0     C47919   5.312   1.592   6.181 -0.6578 -0.2528 -0.6561
  348MOL0     C47920   5.387   1.490   6.119  0.0222 -0.0779  0.8369
  348MOL0     C47921   5.352   1.355   6.122  1.0214 -0.5378  0.2605
  348MOL0     O47922   5.413   1.251   6.063 -0.2060 -0.2476 -0.2135
  348MOL0     C47923   5.544   1.266   6.003 -0.6207  0.8347 -0.5303
  348MOL0     C47924   5.594   1.117   5.984  0.0191 -0.4921  0.1341
  348MOL0     C47925   5.647   1.075   6.125  1.4129 -0.1750  0.3130
  348MOL0     C47926   5.737   0.952   6.115 -0.1378 -0.2064  0.2326
  348MOL0     C47927   5.877   0.986   6.064  0.7333  0.2410  0.0842
  348MOL0     C47928   5.975   0.888   6.103 -0.9468 -0.3397 -0.5161
  348MOL0     C47929   6.117   0.914   6.065 -0.7436 -0.7806  0.1109
  348MOL0     C47930   6.226   0.821   6.133 -0.4522  0.3315  0.5469
  348MOL0    Cl47931   6.386   0.829   6.057  0.1153 -0.1478  0.1606
  348MOL0     C47932   5.234   1.324   6.190  1.1329 -0.5553 -0.1869
  348MOL0     C47933   5.157   1.422   6.259  0.0632  0.2726  0.6534
  348MOL0     O47934   4.968   1.587   6.117  0.6135  0.5977 -0.6285
  348MOL0     C47935   4.850   1.748   6.418 -0.4178  0.1993  0.6981
  348MOL0     C47936   4.732   1.793   6.475  0.1916 -0.2598  0.4872
  348MOL0     N47937   4.688   1.674   6.918 -0.0607  0.5064  0.3577
  348MOL0     N47938   4.820   1.657   6.894  0.6656  0.3363 -0.3162
  348MOL0     C47939   4.612   0.942   6.799  0.2053  0.1365  0.1921
  348MOL0     C47940   4.485   0.983   6.848  1.0495 -0.1930  0.4108
  348MOL0     C47941   4.155   1.221   6.990 -0.8991 -0.4355  0.0389
  348MOL0     C47942   4.080   1.322   6.933 -0.1748 -0.0772  0.5399
  348MOL0     C47943   3.946   1.340   6.971 -0.5856  0.6031 -0.7675
  348MOL0     C47944   3.891   1.271   7.079  0.3664 -0.3290 -0.3763
  348MOL0     O47945   3.763   1.294   7.121 -0.7181 -0.3085 -0.1451
  348MOL0     C47946   3.756   1.321   7.254 -0.6271  0.1140  0.0301
  348MOL0     C47947   3.629   1.404   7.278  0.3317  0.1676  0.5628
  348MOL0     C47948   3.593   1.420   7.421  1.3257  0.4969  0.7681
  348MOL0     C47949   3.485   1.526   7.421  0.2728  0.7221 -0.6296
  348MOL0     C47950   3.444   1.552   7.561 -0.1442 -0.3424  0.0315
  348MOL0     C47951   3.419   1.561   7.675  0.4752  0.0811 -0.8109
  348MOL0     C47952   3.964   1.175   7.141 -0.5027 -0.0100 -0.1618
  348MOL0     C47953   4.093   1.142   7.092  0.1577  0.1965 -0.4836
  348MOL0     C47954   4.165   1.018   7.146  0.4852 -0.4146  0.2230
  348MOL0     H47955   4.467   1.291   6.697 -2.5940 -1.4143  0.3329
  348MOL0     H47956   4.692   1.220   6.626  2.9373  1.0699  3.5193
  348MOL0     H47957   4.850   0.837   6.812 -2.3996 -0.0643 -1.9888
  348MOL0     H47958   4.879   0.996   6.862 -2.7672 -1.4706  1.4997
  348MOL0     H47959   5.097   0.887   6.808 -1.8752  0.2407  2.4367
  348MOL0     H47960   5.038   0.841   6.640  5.6105  2.5035 -2.3586
  348MOL0     H47961   5.200   1.027   6.617 -1.0673 -3.6721  1.1573
  348MOL0     H47962   5.035   1.092   6.601  0.6445 -0.5562 -1.2588
  348MOL0     H47963   5.041   1.169   6.839 -0.7370 -2.3016  1.6850
  348MOL0     H47964   5.206   1.104   6.844 -1.1578  2.1240  1.0485
  348MOL0     H47965   5.290   1.249   6.685  1.1438  0.9807  2.3096
  348MOL0     H47966   5.218   1.347   6.808 -1.6493  3.3788 -2.4110
  348MOL0     H47967   5.154   1.448   6.614  1.8258 -0.8941  1.8514
  348MOL0     H47968   5.079   1.306   6.544 -0.6907  2.7357 -1.4667
  348MOL0     H47969   4.896   1.309   6.682  2.1019 -1.3370  1.5973
  348MOL0     H47970   4.917   1.469   6.601 -1.4052 -1.3765 -0.4950
  348MOL0     H47971   4.973   1.384   6.888 -1.9039  0.3297  0.3892
  348MOL0     H47972   5.040   1.541   6.820  1.4485 -2.6090 -0.7546
  348MOL0     H47973   4.685   1.365   6.825  0.9786 -0.3817  0.9665
  348MOL0     H47974   4.418   1.553   6.977  0.4432  0.5370 -0.2981
  348MOL0     H47975   4.449   1.442   6.851  1.7035  0.0313 -2.3033
  348MOL0     H47976   4.304   1.644   6.771  0.3239  1.7782  0.5317
  348MOL0     H47977   4.418   1.751   6.838 -0.6696  0.0326 -0.6377
  348MOL0     H47978   4.580   1.618   6.637 -0.6493 -2.4184 -2.7489
  348MOL0     H47979   4.424   1.593   6.577 -1.6714  0.2783  0.5119
  348MOL0     H47980   4.365   1.834   6.618  0.0440 -0.5601 -0.7942
  348MOL0     H47981   4.535   1.862   6.662  1.6370 -0.1415 -0.1667
  348MOL0     H47982   4.524   1.771   6.218 -0.4092  1.0741  2.3613
  348MOL0     H47983   4.785   1.776   6.003 -0.3343  0.7389  0.6823
  348MOL0     H47984   4.607   1.746   6.028 -0.8630 -0.4736  0.9270
  348MOL0     H47985   4.704   1.614   6.026  0.5399  0.2289  0.5675
  348MOL0     H47986   5.340   1.697   6.179  0.9942 -0.6646 -0.6064
  348MOL0     H47987   5.473   1.521   6.061 -1.5673 -0.6550 -2.0478
  348MOL0     H47988   5.524   1.314   5.907  0.6294  0.7119 -0.8762
  348MOL0     H47989   5.609   1.323   6.070 -1.2403  0.7741  0.1277
  348MOL0     H47990   5.515   1.052   5.946  0.4139 -0.5523 -0.5969
  348MOL0     H47991   5.674   1.104   5.911  0.5353 -2.0330  0.9253
  348MOL0     H47992   5.559   1.057   6.187  0.0090  0.3661 -1.4369
  348MOL0     H47993   5.706   1.154   6.173  2.5693  0.9056 -2.6031
  348MOL0     H47994   5.683   0.887   6.045  1.1870 -0.6608 -0.4152
  348MOL0     H47995   5.742   0.900   6.211 -2.6692  0.7289  0.9507
  348MOL0     H47996   5.872   0.995   5.955 -1.2768  2.9553  0.2932
  348MOL0     H47997   5.905   1.084   6.105 -1.5818  1.6332 -1.3845
  348MOL0     H47998   5.942   0.786   6.080 -1.0534 -0.4310  0.0267
  348MOL0     H47999   5.975   0.881   6.212  1.4716  1.1291 -0.3467
  348MOL0     H48000   6.146   1.013   6.102 -1.5139 -0.8634  0.9507
  348MOL0     H48001   6.131   0.907   5.957  0.5999  1.2066  0.0999
  348MOL0     H48002   6.184   0.720   6.125  0.9207 -0.2284 -0.0025
  348MOL0     H48003   6.235   0.851   6.237 -0.4444  0.6938  0.4439
  348MOL0     H48004   5.193   1.224   6.194  0.5751 -0.3843 -1.1544
  348MOL0     H48005   5.063   1.409   6.311  0.4697  1.0116  1.6152
  348MOL0     H48006   4.935   1.741   6.485  1.2378 -0.6418 -1.3727
  348MOL0     H48007   4.740   1.822   6.579 -1.4666  0.3374  0.4652
  348MOL0     H48008   4.652   0.856   6.852 -1.1348  0.4902  1.8580
  348MOL0     H48009   4.427   0.905   6.896  0.2025 -1.9327 -3.1233
  348MOL0     H48010   4.121   1.391   6.860  1.1850  1.8977  3.0354
  348MOL0     H48011   3.882   1.412   6.920  0.6777  2.0053 -0.4533
  348MOL0     H48012   3.750   1.232   7.316  2.5901 -0.7970 -0.7797
  348MOL0     H48013   3.845   1.376   7.287 -0.6926 -0.0703  0.5212
  348MOL0     H48014   3.550   1.356   7.218  1.5399 -1.0171 -0.1200
  348MOL0     H48015   3.655   1.501   7.233  2.5413 -0.7141 -0.1919
  348MOL0     H48016   3.551   1.322   7.447 -0.2315  0.6448 -0.9933
  348MOL0     H48017   3.675   1.449   7.488  0.2831  0.1646  2.2495
  348MOL0     H48018   3.407   1.493   7.351  0.3337 -1.7759  0.3689
  348MOL0     H48019   3.520   1.621   7.379  0.2743  0.1193 -2.0532
  348MOL0     H48020   3.405   1.555   7.781  1.2704  0.6101 -0.6659
  348MOL0     H48021   3.919   1.096   7.201 -0.4865 -1.9839 -2.6156
  348MOL0     H48022   4.223   0.974   7.065  1.4576  0.2911  0.5121
  348MOL0     H48023   4.228   1.051   7.229 -3.0256  2.1391  2.1729
  348MOL0     H48024   4.089   0.947   7.181 -2.9800  2.5467 -0.6660
  349MOL0     O48025   8.341   4.068   9.506  0.6115  0.0390 -0.4645
  349MOL0     C48026   8.404   4.066   9.616  0.3749  0.1336  0.4759
  349MOL0     O48027   8.503   3.984   9.636 -0.8720 -0.6364 -1.0093
  349MOL0     C48028   8.543   3.890   9.547 -0.5812  0.0893  0.7151
  349MOL0     C48029   8.528   3.883   9.402  0.1393 -0.1128  0.2322
  349MOL0     C48030   8.570   3.780   9.320  0.4257 -0.1831  0.6212
  349MOL0     C48031   8.650   3.680   9.385 -0.0294 -0.4656 -0.4589
  349MOL0     O48032   8.711   3.577   9.317 -0.3275 -0.6139 -0.0903
  349MOL0     C48033   8.784   3.615   9.194  0.0966 -0.0038 -0.2408
  349MOL0     C48034   8.831   3.485   9.127  0.1387  0.1621 -0.6331
  349MOL0     C48035   8.926   3.407   9.218  0.6493  0.6821 -0.0853
  349MOL0     C48036   9.046   3.356   9.133  0.0757  0.8811  0.3612
  349MOL0     C48037   9.156   3.464   9.133 -0.2864 -0.0382 -0.5431
  349MOL0     C48038   9.225   3.473   9.278  0.6210 -0.2500  0.4833
  349MOL0     C48039   9.360   3.544   9.280 -0.1701  0.5192 -0.7251
  349MOL0     C48040   9.369   3.682   9.216  0.4326  0.4632 -0.1815
  349MOL0     N48041   9.263   3.771   9.253 -0.1830 -0.0946  0.1098
  349MOL0     C48042   9.230   3.822   9.376  0.3743  0.3231 -1.0992
  349MOL0     C48043   9.114   3.897   9.353  0.0298 -0.6641  0.3623
  349MOL0     C48044   9.052   3.991   9.461 -0.5660  0.5810  0.9285
  349MOL0     C48045   8.905   4.027   9.433 -0.4797  1.2183  0.1430
  349MOL0     C48046   8.857   4.116   9.548  0.1887 -0.9225  0.5621
  349MOL0     C48047   8.896   4.095   9.684 -0.4530  0.2919 -1.0553
  349MOL0     O48048   8.798   4.138   9.776 -0.1484 -0.1933  0.1243
  349MOL0     C48049   8.833   4.168   9.909  0.4060 -0.1145  1.1683
  349MOL0     C48050   8.757   4.260   9.974 -0.4872 -0.8798 -0.6338
  349MOL0     C48051   8.779   4.292  10.110  1.0316 -0.5897  0.0248
  349MOL0     C48052   8.713   4.417  10.164  0.3767  0.0053 -0.1335
  349MOL0     C48053   8.895   4.236  10.168 -0.5851 -0.5640  0.6787
  349MOL0     C48054   8.932   4.272  10.312  0.1336 -0.1772  0.2451
  349MOL0     O48055   8.964   4.175  10.402 -0.2782  0.5403  0.8381
  349MOL0     C48056   8.973   4.198  10.534 -0.4173 -0.1917  0.7552
  349MOL0     C48057   8.857   4.212  10.614 -0.1073 -0.8986  0.4491
  349MOL0     C48058   8.865   4.226  10.757 -0.7503  0.1377  0.5053
  349MOL0     C48059   8.988   4.221  10.823 -0.9224  0.5762 -0.4588
  349MOL0     O48060   8.999   4.223  10.962  0.0775  0.4735 -0.2634
  349MOL0     C48061   9.122   4.238  11.025 -0.4544  0.3646  0.1750
  349MOL0     C48062   9.092   4.310  11.150 -0.0568  0.7907  0.2341
  349MOL0     C48063   9.061   4.205  11.261 -0.4254 -0.6161  0.4716
  349MOL0     C48064   9.194   4.147  11.316  0.1352  0.2356 -0.9793
  349MOL0     C48065   9.162   4.046  11.421 -0.1287 -0.5796  0.1491
  349MOL0     C48066   9.288   3.978  11.458  0.0719 -0.1128  0.6151
  349MOL0     C48067   9.277   3.861  11.557  0.8076  0.1471 -0.1071
  349MOL0     C48068   9.216   3.887  11.696  0.1637  0.1707 -0.7446
  349MOL0    Cl48069   9.240   3.752  11.817  0.0644  0.1333 -0.0662
  349MOL0     C48070   9.100   4.219  10.738 -0.5937  0.0683 -0.0413
  349MOL0     C48071   9.093   4.212  10.597  0.1840  0.1774  0.8897
  349MOL0     O48072   8.937   4.397  10.340 -0.4384  0.0058  0.1049
  349MOL0     C48073   8.974   4.144  10.106  0.5971  0.4329  0.6028
  349MOL0     C48074   8.947   4.110   9.973  1.0988  0.0293 -0.7671
  349MOL0     N48075   9.091   3.901   9.216 -0.1098 -0.2463 -0.0133
  349MOL0     N48076   9.170   3.813   9.155 -0.1933  0.6593 -0.0921
  349MOL0     C48077   8.670   3.690   9.518  0.1041 -0.0905 -0.3568
  349MOL0     C48078   8.621   3.784   9.598 -0.5335  0.1818  0.2497
  349MOL0     C48079   8.361   4.150   9.730 -0.6801 -0.1810  1.0007
  349MOL0     C48080   8.450   4.168   9.842 -0.3010  0.2799 -1.2452
  349MOL0     C48081   8.421   4.246   9.954 -0.0937 -0.4235  0.1746
  349MOL0     C48082   8.295   4.304   9.961  0.8506  0.2954 -0.3820
  349MOL0     O48083   8.271   4.360  10.081  1.1456 -0.4003  0.5200
  349MOL0     C48084   8.136   4.411  10.102 -0.7306  0.4080 -0.1890
  349MOL0     C48085   8.124   4.506  10.226  0.1313  0.4619 -0.1459
  349MOL0     C48086   8.018   4.619  10.195 -1.1944  0.2097  0.3003
  349MOL0     C48087   7.981   4.701  10.316 -0.4274 -0.7533 -0.4685
  349MOL0     C48088   8.100   4.759  10.382 -0.3226  0.5157  0.3029
  349MOL0     C48089   8.195   4.799  10.449  0.3217  0.2781 -0.6488
  349MOL0     C48090   8.203   4.278   9.860  0.4906  0.0555 -0.3752
  349MOL0     C48091   8.237   4.206   9.745  0.5687  0.8278 -0.3890
  349MOL0     C48092   8.122   4.184   9.643  0.5810 -0.0357 -0.8248
  349MOL0     H48093   8.473   3.960   9.348  1.5362 -1.4194 -3.3708
  349MOL0     H48094   8.558   3.779   9.212  2.0664  0.8049  0.3926
  349MOL0     H48095   8.877   3.669   9.215 -0.4287  1.3395 -1.2831
  349MOL0     H48096   8.724   3.675   9.126 -3.2524 -3.7743 -0.9779
  349MOL0     H48097   8.740   3.427   9.103 -0.8893  2.0963 -1.6941
  349MOL0     H48098   8.883   3.500   9.032  1.9975 -2.5561 -0.1536
  349MOL0     H48099   8.953   3.476   9.299 -1.0049 -0.2158  1.3076
  349MOL0     H48100   8.870   3.326   9.266 -3.3298  2.6175 -1.0203
  349MOL0     H48101   9.074   3.257   9.171  1.0346  0.7217 -0.7346
  349MOL0     H48102   9.009   3.322   9.036 -1.3343 -2.0427  1.7692
  349MOL0     H48103   9.123   3.563   9.100 -0.4081  0.3513  0.6946
  349MOL0     H48104   9.233   3.438   9.060  0.9464 -0.6117  0.9076
  349MOL0     H48105   9.149   3.526   9.336 -2.0832 -2.7075 -0.5758
  349MOL0     H48106   9.249   3.376   9.324  0.6307 -1.1648 -1.3534
  349MOL0     H48107   9.417   3.484   9.208 -1.2447  0.0767 -1.2280
  349MOL0     H48108   9.407   3.546   9.379 -3.5004  0.2418  0.9854
  349MOL0     H48109   9.470   3.724   9.218  1.0965 -0.3183 -5.0243
  349MOL0     H48110   9.351   3.675   9.108  1.8099 -1.4810 -0.3228
  349MOL0     H48111   9.281   3.797   9.469 -3.5685 -1.3593  0.8344
  349MOL0     H48112   9.119   4.077   9.470  0.7080 -0.4200  1.4577
  349MOL0     H48113   9.067   3.925   9.547 -3.5046 -1.5552 -0.0536
  349MOL0     H48114   8.898   4.083   9.339 -1.5611  0.8340 -0.0124
  349MOL0     H48115   8.840   3.939   9.430 -2.3976  2.5738 -0.0471
  349MOL0     H48116   8.887   4.218   9.525 -0.2990 -1.0725 -0.8117
  349MOL0     H48117   8.748   4.114   9.550  0.1944 -2.1311  1.1519
  349MOL0     H48118   8.897   3.990   9.713  0.9633 -0.2083 -2.8138
  349MOL0     H48119   8.997   4.129   9.705 -1.6238  1.6454  3.6588
  349MOL0     H48120   8.686   4.318   9.916 -1.6707 -3.1267 -1.5940
  349MOL0     H48121   8.629   4.443  10.098  0.8764 -2.3886 -1.8464
  349MOL0     H48122   8.783   4.500  10.175 -0.2983  0.3517  2.0728
  349MOL0     H48123   8.677   4.403  10.266 -1.5915 -0.3489 -0.8333
  349MOL0     H48124   8.757   4.206  10.571 -2.0563  1.1929  4.1382
  349MOL0     H48125   8.773   4.240  10.813 -0.7504 -0.8208  0.7565
  349MOL0     H48126   9.174   4.147  11.053  0.7009  0.7643 -0.6005
  349MOL0     H48127   9.195   4.293  10.965 -0.1914 -1.8542 -1.6271
  349MOL0     H48128   9.173   4.376  11.182  0.6316 -0.7529  1.8165
  349MOL0     H48129   8.999   4.364  11.132 -0.8063 -0.8592 -1.1576
  349MOL0     H48130   8.997   4.128  11.216 -2.2811 -1.2320  3.8695
  349MOL0     H48131   8.994   4.252  11.333 -0.9410  0.8862 -0.9096
  349MOL0     H48132   9.251   4.234  11.351 -2.3458  1.7565 -0.4580
  349MOL0     H48133   9.257   4.106  11.237  2.3877  4.4652 -1.6957
  349MOL0     H48134   9.103   4.090  11.502 -0.4368  1.7009 -1.2431
  349MOL0     H48135   9.102   3.964  11.379 -0.5164  0.3432 -1.1505
  349MOL0     H48136   9.349   4.055  11.506 -0.0259  0.0063  0.5464
  349MOL0     H48137   9.346   3.947  11.370  0.1068 -1.5829  1.1257
  349MOL0     H48138   9.379   3.827  11.580  0.6104  0.7454  1.8540
  349MOL0     H48139   9.216   3.776  11.522  2.2484 -1.2159  0.5734
  349MOL0     H48140   9.110   3.896  11.675 -0.7414 -0.2696  2.9310
  349MOL0     H48141   9.246   3.984  11.736  1.0036  0.7451 -2.6311
  349MOL0     H48142   9.200   4.219  10.779 -1.4184  1.4295  2.1483
  349MOL0     H48143   9.184   4.211  10.538  0.6839 -3.5814  1.4635
  349MOL0     H48144   9.057   4.111  10.167 -1.3267 -1.2208  2.4600
  349MOL0     H48145   9.012   4.035   9.929 -0.3794 -0.5489 -2.1070
  349MOL0     H48146   8.720   3.619   9.583 -1.5621  1.7327  3.1982
  349MOL0     H48147   8.644   3.781   9.704 -0.6580  0.2625  0.2784
  349MOL0     H48148   8.547   4.122   9.831  0.1902  1.2314 -1.0249
  349MOL0     H48149   8.497   4.263  10.029  2.0123  1.7493 -2.2615
  349MOL0     H48150   8.100   4.466  10.014  0.1367 -0.2891 -1.0054
  349MOL0     H48151   8.069   4.326  10.121  0.4212 -0.5335 -0.2467
  349MOL0     H48152   8.218   4.561  10.234  1.5493 -1.9988  1.2154
  349MOL0     H48153   8.093   4.455  10.317 -0.1731  1.9995  0.6535
  349MOL0     H48154   8.065   4.698  10.135 -2.8012  0.2036 -1.0479
  349MOL0     H48155   7.925   4.596  10.141 -2.2743  2.6779  0.9532
  349MOL0     H48156   7.917   4.653  10.391 -2.2449 -1.1692 -2.1922
  349MOL0     H48157   7.922   4.789  10.289 -0.0447 -0.1365  0.6750
  349MOL0     H48158   8.265   4.858  10.503  1.0039  0.5883 -1.8375
  349MOL0     H48159   8.104   4.319   9.875 -0.0222 -1.4092  0.4431
  349MOL0     H48160   8.136   4.262   9.568 -2.6971  3.4490  1.8141
  349MOL0     H48161   8.117   4.088   9.591  1.2693 -0.8461  0.5246
  349MOL0     H48162   8.024   4.198   9.689  1.2812  1.8011  0.2124
  350MOL0     O48163   9.296   0.387   9.262 -0.5712 -0.0020  0.1547
  350MOL0     C48164   9.205   0.433   9.200 -0.2887 -0.1373  0.6105
  350MOL0     O48165   9.089   0.370   9.166  0.5320 -0.5781 -0.3823
  350MOL0     C48166   9.076   0.246   9.217 -0.4408  0.8544  0.1000
  350MOL0     C48167   9.080   0.136   9.127 -0.8178 -0.3552  0.7272
  350MOL0     C48168   9.052   0.010   9.184  0.3982  0.4156 -0.5255
  350MOL0     C48169   9.025  -0.013   9.324 -1.0309  0.7442  0.6534
  350MOL0     O48170   9.013  -0.140   9.374 -0.0731 -0.5246  0.4428
  350MOL0     C48171   9.084  -0.251   9.310  0.5300 -0.0535  0.0852
  350MOL0     C48172   9.237  -0.241   9.339  0.8002 -0.2411 -0.6211
  350MOL0     C48173   9.316  -0.335   9.254  1.1239 -1.1882 -0.0719
  350MOL0     C48174   9.469  -0.327   9.302  0.7257  0.8011 -0.5916
  350MOL0     C48175   9.570  -0.395   9.215  0.1394  1.0214 -0.1479
  350MOL0     C48176   9.702  -0.399   9.279  0.7000  0.6868 -0.7083
  350MOL0     C48177   9.793  -0.465   9.191 -0.2782  0.4545  0.8091
  350MOL0     C48178   9.928  -0.509   9.257  0.7537 -0.8009 -0.0025
  350MOL0     N48179  10.021  -0.387   9.283  0.0661  0.2423  0.7371
  350MOL0     C48180  10.081  -0.300   9.187  0.3259  0.2335  0.0307
  350MOL0     C48181  10.134  -0.201   9.262 -0.5660  1.0042 -0.1709
  350MOL0     C48182  10.218  -0.077   9.217  0.3025  0.1551 -0.4355
  350MOL0     C48183  10.336  -0.036   9.291  1.0071  0.9467 -0.4118
  350MOL0     C48184  10.429   0.072   9.223 -0.1961 -0.4994 -0.4558
  350MOL0     C48185  10.451   0.066   9.072  0.8673  0.3176  0.5307
  350MOL0     O48186  10.543   0.172   9.035 -0.6161  0.2096 -0.3771
  350MOL0     C48187  10.671   0.138   9.052  0.2089  0.3798 -0.1423
  350MOL0     C48188  10.733   0.039   8.969  0.0945  0.0204 -1.1726
  350MOL0     C48189  10.869   0.005   8.983 -0.4592  0.2250 -0.1446
  350MOL0     C48190  10.911  -0.120   8.912 -0.6019 -0.8391 -0.2367
  350MOL0     C48191  10.949   0.090   9.064  0.4763  0.5379 -0.0149
  350MOL0     C48192  11.100   0.083   9.071 -0.9811 -0.4543  0.1906
  350MOL0     O48193  11.178   0.167   9.136  0.0265  0.0911  0.0636
  350MOL0     C48194  11.316   0.153   9.145 -0.5851 -0.4720 -0.3640
  350MOL0     C48195  11.376   0.130   9.271  1.0017 -0.2356  0.1489
  350MOL0     C48196  11.514   0.133   9.291  0.2891 -1.2452 -0.2687
  350MOL0     C48197  11.596   0.148   9.176  0.1684  0.5883 -0.1473
  350MOL0     O48198  11.732   0.125   9.181 -0.1226  0.4192 -0.2092
  350MOL0     C48199  11.794   0.192   9.285 -0.1881  0.3005 -0.1795
  350MOL0     C48200  11.953   0.176   9.298  0.1574  0.4387 -0.8603
  350MOL0     C48201  12.005   0.252   9.420 -0.2319 -0.0943  0.0787
  350MOL0     C48202  12.093   0.146   9.504 -0.0493  0.3199 -0.0181
  350MOL0     C48203  12.130   0.214   9.637  0.8320  0.0424 -0.6408
  350MOL0     C48204  12.261   0.285   9.613 -0.1616  0.3641  0.1460
  350MOL0     C48205  12.298   0.402   9.710 -0.6012 -0.5969  0.2570
  350MOL0     C48206  12.321   0.341   9.848  0.6178  0.7669  0.6478
  350MOL0    Cl48207  12.455   0.437   9.910  0.1163 -0.1101 -0.0244
  350MOL0     C48208  11.546   0.171   9.049 -0.1573 -0.4828 -0.1703
  350MOL0     C48209  11.406   0.177   9.037  0.2597 -0.8084 -0.6180
  350MOL0     O48210  11.148  -0.017   9.021  0.3734  0.4600  1.1061
  350MOL0     C48211  10.889   0.194   9.130  0.7407 -0.2913 -0.6189
  350MOL0     C48212  10.749   0.211   9.133 -0.2136 -1.5360 -0.1437
  350MOL0     N48213  10.108  -0.221   9.396  0.4313  0.1766 -0.1955
  350MOL0     N48214  10.030  -0.326   9.401  0.2252  0.4861 -0.6549
  350MOL0     C48215   9.026   0.093   9.403 -0.3486 -0.0126 -0.7212
  350MOL0     C48216   9.054   0.214   9.347 -0.3544 -0.4700  0.3684
  350MOL0     C48217   9.235   0.569   9.147  0.8877  1.0540 -1.0485
  350MOL0     C48218   9.356   0.630   9.181 -0.8866  0.2342 -0.5281
  350MOL0     C48219   9.395   0.763   9.144 -0.0981  0.0091  0.3654
  350MOL0     C48220   9.304   0.830   9.071 -0.3418 -1.2291  1.1751
  350MOL0     O48221   9.320   0.964   9.028  0.5721 -0.4169  0.5105
  350MOL0     C48222   9.432   0.982   8.944  0.1625 -0.1657 -0.1172
  350MOL0     C48223   9.379   1.066   8.828 -0.6039 -0.1153 -0.3757
  350MOL0     C48224   9.359   1.214   8.871  0.5119  0.0359 -0.5386
  350MOL0     C48225   9.228   1.266   8.825  1.0090  0.0360 -0.9472
  350MOL0     C48226   9.218   1.410   8.850 -0.1260  0.4905  0.0049
  350MOL0     C48227   9.209   1.531   8.874  0.1925 -0.2360  0.6877
  350MOL0     C48228   9.181   0.775   9.038  0.2066  0.0987  0.1026
  350MOL0     C48229   9.141   0.643   9.079 -0.7992 -0.1271 -1.0320
  350MOL0     C48230   9.001   0.601   9.036  0.6416  0.0289 -0.3500
  350MOL0     H48231   9.106   0.143   9.022  1.0957  0.9514  1.2398
  350MOL0     H48232   9.046  -0.072   9.114 -2.4820  0.5344 -0.5438
  350MOL0     H48233   9.059  -0.249   9.204 -3.4545 -1.5644  0.7992
  350MOL0     H48234   9.039  -0.347   9.338 -1.1829  0.9647  0.9856
  350MOL0     H48235   9.276  -0.141   9.317  2.2447 -0.9736 -1.4899
  350MOL0     H48236   9.247  -0.261   9.446  1.2596 -1.2367 -0.8378
  350MOL0     H48237   9.282  -0.437   9.273  0.8596 -1.3716 -1.4073
  350MOL0     H48238   9.303  -0.301   9.150 -3.8119 -2.3169 -0.0881
  350MOL0     H48239   9.489  -0.220   9.309 -1.2474  1.3680 -2.4642
  350MOL0     H48240   9.479  -0.366   9.403  1.7580 -1.5257 -1.5011
  350MOL0     H48241   9.581  -0.345   9.118  0.8892 -0.4227 -0.8300
  350MOL0     H48242   9.526  -0.492   9.190  0.3680  0.0369  2.9381
  350MOL0     H48243   9.735  -0.302   9.317  0.9083  0.0007  0.9275
  350MOL0     H48244   9.690  -0.459   9.369 -0.6749  0.4810 -1.0126
  350MOL0     H48245   9.815  -0.407   9.101  1.3237 -0.4106  0.6049
  350MOL0     H48246   9.744  -0.561   9.171 -1.3783  0.2779  3.8353
  350MOL0     H48247   9.900  -0.547   9.356 -1.0307  0.9630  0.2425
  350MOL0     H48248   9.983  -0.586   9.204  1.0653 -2.5671  2.6685
  350MOL0     H48249  10.086  -0.307   9.079  0.4703 -1.3216  0.1171
  350MOL0     H48250  10.152   0.010   9.227  1.0288  0.8863 -1.7481
  350MOL0     H48251  10.245  -0.099   9.113  0.9352 -2.7320  0.2716
  350MOL0     H48252  10.311  -0.011   9.395 -1.9313  2.6509 -1.4089
  350MOL0     H48253  10.393  -0.128   9.300 -0.7019 -0.3553 -2.1775
  350MOL0     H48254  10.388   0.170   9.252 -0.4594 -1.0738  1.2558
  350MOL0     H48255  10.526   0.067   9.273 -0.2650 -1.2242 -0.3916
  350MOL0     H48256  10.496  -0.033   9.055  0.9862 -0.0310  2.6347
  350MOL0     H48257  10.354   0.078   9.022  1.2903 -1.6460 -0.9144
  350MOL0     H48258  10.673  -0.032   8.914  1.7039 -2.8588  0.4905
  350MOL0     H48259  10.984  -0.091   8.835 -2.2646 -1.4323 -2.1316
  350MOL0     H48260  10.831  -0.178   8.865  0.0273 -1.6202 -0.3567
  350MOL0     H48261  10.958  -0.197   8.973  0.2841 -1.0687 -1.1662
  350MOL0     H48262  11.309   0.121   9.355 -2.2813  0.7897 -2.1611
  350MOL0     H48263  11.551   0.118   9.392  2.1408 -2.4595 -1.0778
  350MOL0     H48264  11.776   0.298   9.266  1.3096  0.5518 -0.3696
  350MOL0     H48265  11.750   0.164   9.381 -1.4200  0.7091 -0.6116
  350MOL0     H48266  11.986   0.072   9.299  0.2128  0.4514  0.0396
  350MOL0     H48267  11.999   0.212   9.206  1.2498 -0.7067 -0.7817
  350MOL0     H48268  11.922   0.282   9.486  0.4066  0.0482  0.8314
  350MOL0     H48269  12.062   0.337   9.382 -1.0312  0.0749 -0.7827
  350MOL0     H48270  12.179   0.122   9.441 -0.9789 -4.1557  0.1106
  350MOL0     H48271  12.034   0.057   9.527 -2.4479  1.1922 -2.2129
  350MOL0     H48272  12.056   0.280   9.682 -0.0136 -1.1796 -0.1606
  350MOL0     H48273  12.149   0.143   9.719 -0.9442  0.7522  0.4395
  350MOL0     H48274  12.251   0.338   9.518  3.5739  0.6873 -0.2493
  350MOL0     H48275  12.344   0.218   9.589  0.1374  0.2523  1.4034
  350MOL0     H48276  12.227   0.485   9.710 -0.2389 -0.2541  2.1418
  350MOL0     H48277  12.388   0.451   9.670 -1.6766  2.8343  1.6929
  350MOL0     H48278  12.356   0.237   9.848 -0.2734  0.4642  0.7370
  350MOL0     H48279  12.224   0.354   9.897 -1.1681 -0.5258 -2.2619
  350MOL0     H48280  11.602   0.168   8.956 -1.0625  0.6855 -0.7947
  350MOL0     H48281  11.363   0.201   8.940 -1.1015 -1.7261 -0.2682
  350MOL0     H48282  10.959   0.258   9.182 -1.0243 -0.0582  1.6310
  350MOL0     H48283  10.719   0.296   9.194  2.1390 -1.4297  0.9929
  350MOL0     H48284   9.021   0.085   9.511 -1.1734 -0.0628 -0.7604
  350MOL0     H48285   9.073   0.293   9.418 -0.9587 -0.6746  0.7658
  350MOL0     H48286   9.423   0.576   9.249  1.7987  1.3968 -2.0715
  350MOL0     H48287   9.486   0.812   9.179 -1.3178  0.2433  3.4622
  350MOL0     H48288   9.506   1.040   9.001  0.6142 -0.5432 -0.3162
  350MOL0     H48289   9.475   0.892   8.899  0.9230  0.4812 -0.7046
  350MOL0     H48290   9.286   1.025   8.788 -0.7307  0.0225 -0.2232
  350MOL0     H48291   9.459   1.055   8.754  0.0954  0.1317  0.3282
  350MOL0     H48292   9.372   1.214   8.979 -0.7723 -0.3131 -0.3711
  350MOL0     H48293   9.437   1.276   8.827 -0.0478  0.3680 -1.0834
  350MOL0     H48294   9.150   1.213   8.881  2.3932  0.6623  1.7325
  350MOL0     H48295   9.210   1.242   8.720 -2.1255  1.5336 -0.8810
  350MOL0     H48296   9.199   1.637   8.885 -1.4861 -0.2178 -0.6359
  350MOL0     H48297   9.108   0.830   8.978  1.2366 -0.1954 -1.4914
  350MOL0     H48298   8.934   0.557   9.111 -1.2984  1.5407 -1.1254
  350MOL0     H48299   8.942   0.678   8.986 -0.7659 -0.4463  0.5221
  350MOL0     H48300   9.006   0.520   8.962 -2.7818 -1.4132  0.7656
  351MOL0     O48301   9.018   3.473   2.705 -0.2990  1.0852 -0.3995
  351MOL0     C48302   9.082   3.513   2.803 -1.3082 -0.5172 -0.2598
  351MOL0     O48303   9.193   3.459   2.853 -0.3808  0.0459 -0.0208
  351MOL0     C48304   9.258   3.360   2.791  0.3396  1.1768 -0.2819
  351MOL0     C48305   9.195   3.232   2.790 -0.6578 -0.0311  0.2459
  351MOL0     C48306   9.245   3.131   2.709  0.7474  0.2390 -0.4832
  351MOL0     C48307   9.363   3.150   2.641 -0.6240  0.6383  0.0176
  351MOL0     O48308   9.431   3.049   2.571 -0.1780  0.1707 -0.5871
  351MOL0     C48309   9.499   2.964   2.658 -0.7495  0.2121  0.0218
  351MOL0     C48310   9.634   2.906   2.590  0.0355  0.3792 -0.5089
  351MOL0     C48311   9.734   3.021   2.571 -1.7115 -0.3922 -0.0248
  351MOL0     C48312   9.882   2.965   2.569 -0.2700 -0.7450  0.0366
  351MOL0     C48313   9.976   3.077   2.506  1.2405  0.1180 -0.1784
  351MOL0     C48314  10.116   3.033   2.524 -0.8799 -0.0607  0.7994
  351MOL0     C48315  10.210   3.144   2.466 -0.0468 -0.2980  0.2401
  351MOL0     C48316  10.209   3.280   2.541  0.2014 -0.5974  0.1162
  351MOL0     N48317  10.307   3.380   2.500  0.0236  0.6737  0.4172
  351MOL0     C48318  10.393   3.439   2.582 -0.2310  0.5113  0.9301
  351MOL0     C48319  10.452   3.529   2.504 -0.0249  0.6779 -0.5676
  351MOL0     C48320  10.539   3.637   2.558 -0.1941 -0.8621 -0.0661
  351MOL0     C48321  10.466   3.756   2.614  0.4825  0.1622 -0.0771
  351MOL0     C48322  10.556   3.851   2.693  0.4610 -0.2527 -0.4082
  351MOL0     C48323  10.490   3.979   2.752  0.5844  0.1209  0.2039
  351MOL0     O48324  10.377   3.948   2.841 -0.4242  0.1326 -0.2967
  351MOL0     C48325  10.346   4.042   2.931  1.1375 -0.3584 -0.4408
  351MOL0     C48326  10.324   4.174   2.894 -0.1841 -1.1768  0.4163
  351MOL0     C48327  10.283   4.273   2.977  0.3533  0.8602  0.4171
  351MOL0     C48328  10.231   4.399   2.912 -0.5780 -0.2451  0.1891
  351MOL0     C48329  10.279   4.257   3.113  0.4774 -0.1954  0.3600
  351MOL0     C48330  10.248   4.354   3.212 -0.8420 -1.1958 -0.9271
  351MOL0     O48331  10.139   4.316   3.293  0.4470  0.1736 -0.5621
  351MOL0     C48332  10.091   4.417   3.370 -0.1411 -0.5914 -1.2194
  351MOL0     C48333   9.989   4.499   3.323 -0.3093 -0.1407 -0.0800
  351MOL0     C48334   9.935   4.596   3.411 -0.3787 -0.0032  0.2960
  351MOL0     C48335   9.973   4.606   3.544 -0.1214  0.3721  0.3833
  351MOL0     O48336   9.896   4.694   3.615 -0.9970  0.7546 -0.8920
  351MOL0     C48337   9.848   4.655   3.744  0.4734  0.1349  0.2458
  351MOL0     C48338   9.754   4.759   3.794 -0.0108 -0.3701 -0.0127
  351MOL0     C48339   9.820   4.896   3.820  0.4251 -0.4485  0.2034
  351MOL0     C48340   9.868   4.916   3.959 -1.3326 -0.3447 -0.0658
  351MOL0     C48341   9.917   5.069   3.963  0.9662  0.0901  0.0929
  351MOL0     C48342   9.811   5.181   3.944 -0.9684 -0.8541 -0.8834
  351MOL0     C48343   9.683   5.141   4.030 -0.0785  0.5811 -0.4247
  351MOL0     C48344   9.589   5.264   4.059 -0.6525  0.5730 -0.0663
  351MOL0    Cl48345   9.559   5.374   3.929  0.4732 -0.0338  0.4156
  351MOL0     C48346  10.079   4.524   3.591  0.5359 -0.5711  0.2043
  351MOL0     C48347  10.140   4.438   3.504  1.0536  0.9268 -0.3518
  351MOL0     O48348  10.301   4.465   3.210  0.3932 -1.0995  0.4899
  351MOL0     C48349  10.292   4.129   3.157 -0.2393  0.1159 -0.1539
  351MOL0     C48350  10.312   4.020   3.065  0.0788 -0.3022 -0.3154
  351MOL0     N48351  10.410   3.502   2.374 -0.1200 -0.3796 -0.7315
  351MOL0     N48352  10.319   3.419   2.372  1.1739 -0.0920 -0.1696
  351MOL0     C48353   9.430   3.277   2.647  0.4572  0.1468 -1.0267
  351MOL0     C48354   9.366   3.385   2.711  0.0137  0.6528  0.2625
  351MOL0     C48355   9.025   3.639   2.868 -0.5026  0.0149 -0.2398
  351MOL0     C48356   8.883   3.658   2.853  0.1776  0.2677  0.2967
  351MOL0     C48357   8.809   3.769   2.895  0.1274 -0.2169 -1.3072
  351MOL0     C48358   8.864   3.857   2.989 -0.1106  0.8099 -0.9569
  351MOL0     O48359   8.796   3.966   3.041 -0.3965  0.3280 -0.3131
  351MOL0     C48360   8.806   4.000   3.181  0.2767 -0.6954 -0.2232
  351MOL0     C48361   8.719   4.119   3.217  0.7278 -0.2219  0.7109
  351MOL0     C48362   8.578   4.078   3.230 -0.4900 -0.2693  0.2174
  351MOL0     C48363   8.479   4.195   3.266  0.4520 -0.2465  0.0109
  351MOL0     C48364   8.494   4.231   3.414  0.6858 -0.7320 -0.4235
  351MOL0     C48365   8.513   4.271   3.530 -0.0768 -0.3885  0.3267
  351MOL0     C48366   9.002   3.829   3.022  0.0234 -1.3772  0.6110
  351MOL0     C48367   9.081   3.719   2.973  0.4134  0.5593  0.8084
  351MOL0     C48368   9.233   3.711   2.999  0.1560 -0.1133 -0.5414
  351MOL0     H48369   9.106   3.221   2.850 -0.6947  1.4373  0.5172
  351MOL0     H48370   9.193   3.036   2.715  2.4323 -0.6426  3.6796
  351MOL0     H48371   9.433   2.883   2.689 -2.2410  0.8856 -1.2583
  351MOL0     H48372   9.526   3.016   2.750 -3.7771 -0.3837  1.3564
  351MOL0     H48373   9.677   2.823   2.647 -0.8255  1.4753  1.8750
  351MOL0     H48374   9.618   2.865   2.490 -1.5897 -1.5935  0.4889
  351MOL0     H48375   9.707   3.063   2.473 -3.8106 -1.9973 -0.2031
  351MOL0     H48376   9.733   3.097   2.649  2.6146  1.8163 -1.7429
  351MOL0     H48377   9.910   2.943   2.672  0.5520  2.1418  0.5243
  351MOL0     H48378   9.878   2.868   2.517  0.8457 -0.5158 -0.5093
  351MOL0     H48379   9.956   3.173   2.555  1.9687 -0.3823  1.1361
  351MOL0     H48380   9.952   3.093   2.400  1.3359  0.0616 -0.2089
  351MOL0     H48381  10.140   3.004   2.627 -0.3415 -2.7729 -0.0177
  351MOL0     H48382  10.128   2.945   2.461  0.2730  0.9468 -0.4245
  351MOL0     H48383  10.173   3.163   2.364  0.6214  0.4607  0.1273
  351MOL0     H48384  10.308   3.096   2.460 -0.6255 -1.6465  1.1292
  351MOL0     H48385  10.108   3.321   2.544  0.9433  1.2698  1.8132
  351MOL0     H48386  10.225   3.246   2.644  0.0308  2.0218  1.0825
  351MOL0     H48387  10.410   3.428   2.688  0.6439  4.7840  1.4185
  351MOL0     H48388  10.599   3.669   2.473  0.2011  1.5554  1.0486
  351MOL0     H48389  10.620   3.580   2.606 -0.6878 -2.3354 -0.9178
  351MOL0     H48390  10.426   3.814   2.531  0.6621 -0.6818 -0.7674
  351MOL0     H48391  10.385   3.715   2.674  0.1207 -2.1911 -2.0317
  351MOL0     H48392  10.614   3.808   2.776 -0.8728 -0.6006  0.3792
  351MOL0     H48393  10.634   3.882   2.623  0.4118  2.7720  0.7266
  351MOL0     H48394  10.568   4.035   2.804 -1.3519  2.9281  0.2806
  351MOL0     H48395  10.443   4.031   2.668  1.4889  2.2269  0.9250
  351MOL0     H48396  10.341   4.196   2.789  0.9585 -1.7335  0.4737
  351MOL0     H48397  10.316   4.467   2.896 -1.7898  0.8506 -2.1218
  351MOL0     H48398  10.151   4.441   2.973 -1.4633 -1.2264 -0.2796
  351MOL0     H48399  10.185   4.365   2.819 -3.7856 -1.1865  1.9925
  351MOL0     H48400   9.953   4.492   3.221 -1.4333 -1.2720  0.3666
  351MOL0     H48401   9.864   4.666   3.369  0.3096 -1.8276 -4.5010
  351MOL0     H48402   9.801   4.557   3.747  1.8581 -0.5888  3.6831
  351MOL0     H48403   9.928   4.636   3.817 -0.6773 -1.1404  1.2314
  351MOL0     H48404   9.673   4.767   3.720  0.3516 -1.7198 -0.5878
  351MOL0     H48405   9.700   4.720   3.881  1.5667 -1.5881  0.4826
  351MOL0     H48406   9.732   4.957   3.797  1.5810  0.5187 -1.8682
  351MOL0     H48407   9.898   4.919   3.747 -0.8781  1.1359 -0.7617
  351MOL0     H48408   9.945   4.839   3.963  1.4561  2.0651 -2.9182
  351MOL0     H48409   9.787   4.896   4.031 -0.9009  0.7941  0.7618
  351MOL0     H48410   9.975   5.091   4.053  2.5351  0.9852 -1.0913
  351MOL0     H48411   9.982   5.102   3.881  0.8200 -1.3536 -0.6411
  351MOL0     H48412   9.795   5.187   3.836 -2.3371 -3.0733 -0.8712
  351MOL0     H48413   9.830   5.282   3.983 -0.6294 -1.9062  1.9099
  351MOL0     H48414   9.715   5.103   4.128  0.2088  1.7370 -0.0550
  351MOL0     H48415   9.624   5.062   3.984 -2.5352  1.8656  0.3258
  351MOL0     H48416   9.614   5.327   4.145 -0.0768  0.1219  0.1035
  351MOL0     H48417   9.490   5.231   4.093 -0.8154 -0.5338 -1.4983
  351MOL0     H48418  10.123   4.551   3.687 -1.3751  1.5205  0.5799
  351MOL0     H48419  10.229   4.385   3.537  1.0445  0.7939 -0.5374
  351MOL0     H48420  10.287   4.110   3.264 -0.7556 -1.4906 -0.4350
  351MOL0     H48421  10.329   3.924   3.113  1.8366  0.5609  0.9289
  351MOL0     H48422   9.522   3.292   2.591  0.9786  1.6156  0.1696
  351MOL0     H48423   9.416   3.481   2.705  1.8834 -0.3214 -0.6347
  351MOL0     H48424   8.830   3.587   2.790  1.7910 -0.7839  0.0546
  351MOL0     H48425   8.706   3.795   2.873 -0.0410  1.9843  1.4893
  351MOL0     H48426   8.783   3.918   3.250  1.9690  1.0102  2.5238
  351MOL0     H48427   8.909   4.024   3.206 -0.4916 -1.6278  4.9617
  351MOL0     H48428   8.723   4.186   3.131 -0.0873  0.5256  1.2337
  351MOL0     H48429   8.760   4.169   3.306 -0.2558  1.5373  0.2432
  351MOL0     H48430   8.545   4.026   3.140  1.3862  0.5013 -0.9908
  351MOL0     H48431   8.562   4.008   3.313  0.7244  1.1952  1.7879
  351MOL0     H48432   8.376   4.160   3.258  0.4221 -1.8384  4.3423
  351MOL0     H48433   8.508   4.283   3.209  0.3542  0.1516  0.5622
  351MOL0     H48434   8.522   4.305   3.631  3.1811  1.1721 -0.3488
  351MOL0     H48435   9.060   3.897   3.084  1.5489 -0.5334 -1.5979
  351MOL0     H48436   9.294   3.711   2.908  0.3390  1.1159 -0.4276
  351MOL0     H48437   9.265   3.799   3.055 -2.3231  0.7811 -0.4186
  351MOL0     H48438   9.247   3.623   3.062 -1.4250 -0.1880 -0.2442
  352MOL0     O48439  10.320   2.060   4.823 -0.6996  0.2417  0.2687
  352MOL0     C48440  10.423   2.068   4.890 -0.2183 -0.3425  0.4956
  352MOL0     O48441  10.467   2.188   4.941 -0.0318 -0.7181 -0.2251
  352MOL0     C48442  10.408   2.311   4.918  0.0662 -0.4256  0.3199
  352MOL0     C48443  10.468   2.428   4.975 -0.3779  0.5744  0.8796
  352MOL0     C48444  10.398   2.552   4.982 -0.4411 -0.2799  0.7943
  352MOL0     C48445  10.287   2.573   4.899  0.3983  1.0876  0.3709
  352MOL0     O48446  10.211   2.680   4.882 -0.2373 -0.1514 -0.4694
  352MOL0     C48447  10.252   2.800   4.942  0.1128 -0.5783  0.0393
  352MOL0     C48448  10.135   2.906   4.935  0.7388 -0.0225 -0.1460
  352MOL0     C48449  10.010   2.876   5.021  0.1839  0.0912  0.4280
  352MOL0     C48450   9.902   2.975   4.994  0.3737 -0.2181 -0.6035
  352MOL0     C48451   9.795   2.972   5.114  0.1334  0.4612 -1.0400
  352MOL0     C48452   9.734   3.106   5.143 -0.1327 -0.4522  0.6460
  352MOL0     C48453   9.648   3.147   5.021  0.1050  0.3775  0.3986
  352MOL0     C48454   9.577   3.275   5.032  0.1898 -0.2797 -0.8712
  352MOL0     N48455   9.520   3.315   4.903  0.0878 -0.4929  0.2843
  352MOL0     C48456   9.584   3.396   4.813 -0.6953  0.5251 -0.0340
  352MOL0     C48457   9.504   3.415   4.710  0.4281 -0.2485  0.1903
  352MOL0     C48458   9.531   3.502   4.597 -1.0410 -1.0904  0.1088
  352MOL0     C48459   9.604   3.424   4.486 -0.5052 -0.4171 -1.1410
  352MOL0     C48460   9.594   3.505   4.357  0.2981 -0.0912  0.9563
  352MOL0     C48461   9.698   3.439   4.258  0.7854 -0.9060 -1.1402
  352MOL0     O48462   9.717   3.529   4.155  0.9628  0.3959  0.5435
  352MOL0     C48463   9.828   3.531   4.070  0.3174  0.7064 -0.1968
  352MOL0     C48464   9.936   3.437   4.077 -0.0247 -0.7709  0.1304
  352MOL0     C48465  10.048   3.443   3.996 -0.7077  0.5414 -0.7397
  352MOL0     C48466  10.161   3.342   4.016 -0.2276  0.6116 -0.2123
  352MOL0     C48467  10.057   3.554   3.904  0.8524  0.4045 -0.5665
  352MOL0     C48468  10.164   3.558   3.805 -0.1147 -0.3105 -0.8732
  352MOL0     O48469  10.200   3.688   3.768 -0.4121 -0.0518 -0.2528
  352MOL0     C48470  10.275   3.706   3.652 -0.1206  0.2191  0.1582
  352MOL0     C48471  10.217   3.690   3.524 -0.1494  0.5175  0.1535
  352MOL0     C48472  10.293   3.719   3.412  0.2116  0.2651  0.0778
  352MOL0     C48473  10.421   3.784   3.424  1.1945 -0.2203 -0.7831
  352MOL0     O48474  10.472   3.832   3.311 -1.1527 -0.2936 -0.0439
  352MOL0     C48475  10.594   3.904   3.304 -0.0536  0.2971 -0.2527
  352MOL0     C48476  10.655   3.918   3.160  0.5492 -0.5282 -0.2625
  352MOL0     C48477  10.759   4.026   3.153 -0.2504 -0.3113 -0.4159
  352MOL0     C48478  10.815   4.045   3.014 -0.5917  0.3490 -0.7136
  352MOL0     C48479  10.959   4.098   3.021  0.6748 -0.7886  0.2614
  352MOL0     C48480  10.956   4.254   3.047  0.5567 -0.2005 -0.5325
  352MOL0     C48481  11.095   4.308   3.057  0.4503 -0.2815  0.5138
  352MOL0     C48482  11.095   4.467   3.067 -0.2918  0.4200 -0.0757
  352MOL0    Cl48483  11.265   4.537   3.067  0.4735  0.2113 -0.0328
  352MOL0     C48484  10.479   3.795   3.553  0.4919 -0.1328 -0.2501
  352MOL0     C48485  10.405   3.764   3.661 -0.8401  0.3699  0.9208
  352MOL0     O48486  10.192   3.450   3.751 -0.4220  0.5516  0.4328
  352MOL0     C48487   9.963   3.656   3.905  0.6833  0.3840 -0.1072
  352MOL0     C48488   9.842   3.643   3.982 -0.6409 -0.5919  0.0362
  352MOL0     N48489   9.380   3.357   4.745 -0.1219  0.3872 -0.2083
  352MOL0     N48490   9.391   3.298   4.862  0.0781 -0.6084  0.6925
  352MOL0     C48491  10.240   2.464   4.830 -0.7124  0.4853  0.6236
  352MOL0     C48492  10.302   2.344   4.832  0.2544  0.2534  0.3412
  352MOL0     C48493  10.500   1.954   4.933 -0.1674 -0.4465 -0.1297
  352MOL0     C48494  10.441   1.823   4.927  0.0418  0.0241  0.2442
  352MOL0     C48495  10.514   1.714   4.967  0.1371 -0.7621 -0.4782
  352MOL0     C48496  10.643   1.723   5.013 -0.8124  0.0969 -0.9785
  352MOL0     O48497  10.707   1.605   5.056 -0.1697 -0.5385  0.4671
  352MOL0     C48498  10.849   1.614   5.090 -0.9621 -0.2670 -0.7082
  352MOL0     C48499  10.901   1.481   5.134  0.0105 -0.4342 -0.2233
  352MOL0     C48500  11.052   1.494   5.130 -0.3867 -0.3398 -0.1819
  352MOL0     C48501  11.119   1.359   5.162  0.5731  0.6241 -0.1932
  352MOL0     C48502  11.260   1.382   5.177 -0.7025  1.0731 -0.2550
  352MOL0     C48503  11.378   1.401   5.195 -0.2315 -0.9211  0.1699
  352MOL0     C48504  10.711   1.844   5.010  0.6444  0.1097 -0.0229
  352MOL0     C48505  10.636   1.958   4.979  1.0637 -0.8045 -0.3060
  352MOL0     C48506  10.718   2.089   4.975 -0.1606  0.3595  0.3401
  352MOL0     H48507  10.558   2.420   5.036  0.9314 -0.3707 -1.0746
  352MOL0     H48508  10.429   2.638   5.041  1.5789 -0.0411 -0.4909
  352MOL0     H48509  10.329   2.844   4.878 -0.4944  2.3349  1.1498
  352MOL0     H48510  10.286   2.774   5.042 -0.2181  0.4411  0.4364
  352MOL0     H48511  10.178   3.003   4.965 -1.3920  0.7554  0.5824
  352MOL0     H48512  10.117   2.908   4.827  2.4295 -2.5121 -0.5480
  352MOL0     H48513   9.989   2.769   5.012  0.6116  0.0501 -0.1276
  352MOL0     H48514  10.032   2.881   5.128 -1.3659 -1.0327  0.8356
  352MOL0     H48515   9.947   3.075   4.995  1.9325 -0.8767  0.6850
  352MOL0     H48516   9.856   2.949   4.899 -0.6015 -3.4487  0.6019
  352MOL0     H48517   9.832   2.952   5.215 -0.2714  2.5725 -0.4284
  352MOL0     H48518   9.721   2.901   5.077  3.5311 -3.1523 -1.5758
  352MOL0     H48519   9.660   3.107   5.224  0.5437 -3.5347  1.4290
  352MOL0     H48520   9.815   3.173   5.173 -1.7787  0.0074  4.6682
  352MOL0     H48521   9.569   3.072   5.014  0.3604 -0.2054  2.8269
  352MOL0     H48522   9.711   3.150   4.931  2.8332 -0.3934  2.1701
  352MOL0     H48523   9.491   3.265   5.098  0.4245 -3.5851 -0.8793
  352MOL0     H48524   9.638   3.352   5.081 -1.6062  1.5413 -1.3700
  352MOL0     H48525   9.687   3.430   4.809  0.2029 -2.0284 -0.9567
  352MOL0     H48526   9.586   3.595   4.612 -1.3517 -0.9525  0.4040
  352MOL0     H48527   9.428   3.522   4.566 -0.8733  1.1144  0.8294
  352MOL0     H48528   9.705   3.417   4.526 -1.6334  1.5362  2.5294
  352MOL0     H48529   9.563   3.323   4.476 -2.2603 -0.3067  2.8869
  352MOL0     H48530   9.496   3.511   4.309 -0.5645  0.4944  2.7011
  352MOL0     H48531   9.617   3.610   4.379  1.3143 -0.2699  0.8201
  352MOL0     H48532   9.792   3.419   4.310  0.6022  2.7763  0.9627
  352MOL0     H48533   9.646   3.350   4.223 -1.0907 -0.1626 -0.4049
  352MOL0     H48534   9.932   3.346   4.137 -1.7127 -0.8274 -0.0105
  352MOL0     H48535  10.252   3.403   4.015 -0.5577  1.1628  1.0231
  352MOL0     H48536  10.172   3.271   3.934  2.2313 -1.2882  1.6255
  352MOL0     H48537  10.153   3.286   4.110 -0.5506  1.0116  0.0024
  352MOL0     H48538  10.115   3.654   3.511 -0.3373  1.6058 -1.6481
  352MOL0     H48539  10.245   3.701   3.316 -0.2488  3.2846 -0.3570
  352MOL0     H48540  10.574   4.001   3.350 -1.6506 -0.8961  1.7198
  352MOL0     H48541  10.670   3.849   3.360 -0.3726 -0.6954 -0.7670
  352MOL0     H48542  10.689   3.825   3.113  1.5544  0.0655 -0.7460
  352MOL0     H48543  10.574   3.948   3.094 -1.3534 -0.1029  2.1467
  352MOL0     H48544  10.833   3.982   3.222 -0.5510  0.9161  0.7274
  352MOL0     H48545  10.730   4.124   3.190  0.1273  0.0305 -1.0125
  352MOL0     H48546  10.741   4.095   2.951 -0.1174 -0.1526 -1.6923
  352MOL0     H48547  10.841   3.948   2.972  1.0451  0.5046 -0.1324
  352MOL0     H48548  11.023   4.051   3.097  1.2145  1.0572  0.9950
  352MOL0     H48549  11.009   4.081   2.925 -0.2015  0.8453 -0.5139
  352MOL0     H48550  10.903   4.266   3.142 -2.2912 -3.0393 -1.5796
  352MOL0     H48551  10.893   4.308   2.975  1.5426 -0.1046 -1.3337
  352MOL0     H48552  11.148   4.268   2.970 -0.3499  0.9091 -0.5496
  352MOL0     H48553  11.142   4.259   3.143  0.7617 -2.4765 -0.8342
  352MOL0     H48554  11.056   4.496   3.165  2.6750  1.1702  1.0067
  352MOL0     H48555  11.035   4.516   2.990  0.2184  0.6126 -0.3540
  352MOL0     H48556  10.576   3.843   3.550  0.5597 -0.3043 -2.8200
  352MOL0     H48557  10.448   3.778   3.760  0.4159  0.8807  0.3255
  352MOL0     H48558   9.973   3.735   3.831 -1.5844 -2.7351 -4.1778
  352MOL0     H48559   9.766   3.720   3.980  0.5645  0.6278 -0.3729
  352MOL0     H48560  10.179   2.477   4.741  0.5930  0.8725 -0.2518
  352MOL0     H48561  10.264   2.270   4.761  1.0702  1.5320 -1.5201
  352MOL0     H48562  10.339   1.820   4.890  1.1347  0.3211 -3.1698
  352MOL0     H48563  10.457   1.622   4.961 -1.0844  0.0319 -1.8775
  352MOL0     H48564  10.910   1.660   5.011  1.7656  2.1233  2.4981
  352MOL0     H48565  10.853   1.688   5.170  0.5230  1.7447 -2.5244
  352MOL0     H48566  10.864   1.401   5.070  0.0322 -0.5878 -0.0467
  352MOL0     H48567  10.863   1.473   5.237 -0.6193  1.1122 -0.3036
  352MOL0     H48568  11.093   1.539   5.039 -3.1563  2.8668  0.0019
  352MOL0     H48569  11.090   1.563   5.205 -1.6782  0.0246  0.1609
  352MOL0     H48570  11.099   1.287   5.082 -2.2390 -1.4866  2.1656
  352MOL0     H48571  11.070   1.319   5.252  0.2943  0.5660 -0.3692
  352MOL0     H48572  11.476   1.435   5.221 -1.0545  0.8454  1.1457
  352MOL0     H48573  10.819   1.848   5.028  0.3543  1.2940  1.8122
  352MOL0     H48574  10.701   2.159   4.893 -2.1584  1.4912  1.6341
  352MOL0     H48575  10.694   2.141   5.069 -1.1190 -0.9575  0.8573
  352MOL0     H48576  10.824   2.063   4.987 -0.7980 -2.5732  0.5564
  353MOL0     O48577   8.202   2.418   1.671  0.1269 -0.1286 -0.8998
  353MOL0     C48578   8.234   2.540   1.675  1.1245  0.5469 -0.0940
  353MOL0     O48579   8.360   2.580   1.687  0.3161  0.2236  0.2433
  353MOL0     C48580   8.466   2.496   1.687  0.2283  0.6143  0.9114
  353MOL0     C48581   8.484   2.395   1.783  0.2516 -0.5377 -1.0898
  353MOL0     C48582   8.596   2.313   1.777 -0.4229 -0.3058 -0.7072
  353MOL0     C48583   8.708   2.341   1.700  0.3381 -0.4943 -0.4682
  353MOL0     O48584   8.836   2.293   1.713 -0.5688 -0.1292  0.4843
  353MOL0     C48585   8.855   2.184   1.806  0.5245 -0.5254  0.4880
  353MOL0     C48586   9.008   2.148   1.796  1.0252 -0.6461  0.1648
  353MOL0     C48587   9.037   2.114   1.651 -0.2714 -0.1065 -0.9502
  353MOL0     C48588   9.176   2.044   1.637 -0.5002 -0.1392  0.3851
  353MOL0     C48589   9.207   2.014   1.489  0.3765 -0.7712 -0.1872
  353MOL0     C48590   9.175   1.871   1.444 -0.1512 -0.4711  0.3348
  353MOL0     C48591   9.260   1.753   1.476 -0.3755 -0.4404  0.2283
  353MOL0     C48592   9.414   1.780   1.452 -0.3954 -0.2740  0.1186
  353MOL0     N48593   9.442   1.801   1.312  0.3669  0.2955  0.5339
  353MOL0     C48594   9.469   1.699   1.222  0.5413 -0.7696 -0.4581
  353MOL0     C48595   9.481   1.755   1.098 -0.2414  0.1241 -0.5317
  353MOL0     C48596   9.514   1.684   0.973 -0.4451 -0.3584  0.6250
  353MOL0     C48597   9.628   1.740   0.892  0.1390  0.0030 -0.0620
  353MOL0     C48598   9.638   1.651   0.762  0.0490 -0.8863 -0.1291
  353MOL0     C48599   9.707   1.733   0.644  0.4661 -0.5946  0.3042
  353MOL0     O48600   9.836   1.782   0.678  0.3061  0.2104 -0.0253
  353MOL0     C48601   9.941   1.690   0.698 -0.8136 -0.4805  1.1143
  353MOL0     C48602  10.032   1.720   0.793  0.4216  0.1813  0.1815
  353MOL0     C48603  10.143   1.643   0.816  0.8133 -0.8226  0.1019
  353MOL0     C48604  10.246   1.699   0.910 -0.4497  0.2569 -0.4189
  353MOL0     C48605  10.160   1.521   0.747  1.1872  0.7625  0.1219
  353MOL0     C48606  10.273   1.421   0.778  0.0227 -0.2371  0.3409
  353MOL0     O48607  10.245   1.290   0.753 -0.0929 -0.1884 -0.2691
  353MOL0     C48608  10.344   1.213   0.703 -0.1032 -0.0464  0.0433
  353MOL0     C48609  10.356   1.075   0.746 -0.0269 -0.2258  0.1428
  353MOL0     C48610  10.450   0.979   0.702  0.0913  0.2911  0.6305
  353MOL0     C48611  10.549   1.020   0.609  1.0933 -0.2947 -0.4508
  353MOL0     O48612  10.643   0.943   0.543 -0.1049  0.4657  0.1723
  353MOL0     C48613  10.745   0.866   0.614 -0.1019  0.1036  0.5715
  353MOL0     C48614  10.838   0.804   0.500  0.1982  0.2958 -0.2003
  353MOL0     C48615  10.780   0.668   0.447 -0.3563 -0.6615  0.7836
  353MOL0     C48616  10.870   0.603   0.344 -0.4840  0.0962  0.0246
  353MOL0     C48617  10.819   0.481   0.273 -0.5011  0.3438 -0.6136
  353MOL0     C48618  10.918   0.417   0.171 -0.0706 -0.4605 -0.6150
  353MOL0     C48619  10.833   0.344   0.069 -0.1774  0.0963  0.1962
  353MOL0     C48620  10.906   0.245  -0.031  0.2525  0.3553  0.0715
  353MOL0    Cl48621  10.806   0.253  -0.170 -0.1477  0.0352  0.2308
  353MOL0     C48622  10.541   1.157   0.566  0.6511  0.2922  0.3534
  353MOL0     C48623  10.446   1.254   0.609  0.8027  0.2215  0.9249
  353MOL0     O48624  10.379   1.460   0.829 -0.0529 -0.2540 -0.3725
  353MOL0     C48625  10.065   1.485   0.649 -1.2383 -0.3174 -1.0775
  353MOL0     C48626   9.954   1.572   0.624  0.6425  0.2534 -0.1501
  353MOL0     N48627   9.474   1.893   1.119  0.1709  0.6079 -0.3176
  353MOL0     N48628   9.444   1.922   1.242  0.2189  0.3037  0.0187
  353MOL0     C48629   8.692   2.441   1.611  0.5328 -0.8136  0.4523
  353MOL0     C48630   8.575   2.529   1.608  0.3634  0.4553 -0.1048
  353MOL0     C48631   8.129   2.649   1.664  0.8596 -0.5844  0.0333
  353MOL0     C48632   8.169   2.771   1.603 -0.8846 -0.1409  0.7599
  353MOL0     C48633   8.076   2.858   1.560 -0.5456 -0.4334 -0.4387
  353MOL0     C48634   7.937   2.831   1.555 -0.8802 -0.3807 -0.3130
  353MOL0     O48635   7.861   2.927   1.499 -0.0368  0.6280 -0.4563
  353MOL0     C48636   7.732   2.940   1.555  0.2295 -0.0939  0.8092
  353MOL0     C48637   7.675   3.065   1.500 -0.2672 -0.2738  0.3814
  353MOL0     C48638   7.720   3.177   1.593 -0.1353 -0.9036  0.6981
  353MOL0     C48639   7.629   3.298   1.566 -0.3397 -0.6614 -0.9086
  353MOL0     C48640   7.667   3.377   1.449  0.3600  0.3533 -0.9035
  353MOL0     C48641   7.705   3.450   1.354 -0.3049  0.1085  0.6478
  353MOL0     C48642   7.892   2.705   1.602 -0.1403 -0.8070  0.2729
  353MOL0     C48643   7.986   2.613   1.666 -0.2771 -0.2821  0.5721
  353MOL0     C48644   7.933   2.476   1.708  0.0825 -0.4090 -1.6712
  353MOL0     H48645   8.413   2.366   1.861 -0.5919  1.0108 -1.2459
  353MOL0     H48646   8.593   2.227   1.842 -1.6576  0.3474  0.1450
  353MOL0     H48647   8.800   2.092   1.785  3.4325 -2.6597  1.4551
  353MOL0     H48648   8.842   2.216   1.909 -3.6073  0.9142 -0.3066
  353MOL0     H48649   9.065   2.229   1.842 -2.5669  1.9856  0.4484
  353MOL0     H48650   9.011   2.056   1.856  0.1888 -1.1026 -0.4713
  353MOL0     H48651   8.959   2.045   1.619 -0.8781 -0.3132  0.8447
  353MOL0     H48652   9.037   2.210   1.599  0.6489  2.2967  3.0173
  353MOL0     H48653   9.257   2.105   1.678 -0.6722  0.4608 -0.1538
  353MOL0     H48654   9.193   1.950   1.691  3.3733  0.4043  0.4155
  353MOL0     H48655   9.311   2.040   1.467  0.4896  0.4293  1.5097
  353MOL0     H48656   9.138   2.079   1.435 -0.9757 -0.0184  2.2776
  353MOL0     H48657   9.071   1.851   1.473 -0.5729 -0.7610 -1.2659
  353MOL0     H48658   9.175   1.877   1.334 -0.4446 -0.4590  0.3329
  353MOL0     H48659   9.213   1.674   1.417 -1.8635  0.6966 -0.1807
  353MOL0     H48660   9.244   1.735   1.583 -1.4310 -0.0854  0.1456
  353MOL0     H48661   9.447   1.869   1.506  1.5259 -1.1883  0.5450
  353MOL0     H48662   9.475   1.698   1.492  1.9573  2.1665  1.9097
  353MOL0     H48663   9.476   1.595   1.252 -0.3394 -0.6985  0.0283
  353MOL0     H48664   9.432   1.679   0.901  1.8571 -1.8877 -2.1061
  353MOL0     H48665   9.543   1.582   0.998 -0.8398 -0.6996 -0.2527
  353MOL0     H48666   9.606   1.844   0.866  0.5452  0.3496  0.9520
  353MOL0     H48667   9.722   1.730   0.948 -1.1028 -3.7574  1.7150
  353MOL0     H48668   9.694   1.559   0.785 -2.0870 -1.7226  2.1497
  353MOL0     H48669   9.539   1.620   0.726 -0.0570 -0.1055 -0.5356
  353MOL0     H48670   9.704   1.672   0.553 -1.0071 -1.2825  0.7756
  353MOL0     H48671   9.653   1.825   0.619 -0.7863 -1.4087 -0.1052
  353MOL0     H48672   9.993   1.803   0.851 -1.6038 -1.3275  1.0872
  353MOL0     H48673  10.271   1.625   0.985 -0.2556  3.1223  2.5722
  353MOL0     H48674  10.218   1.791   0.963 -1.5868 -0.2885 -0.0520
  353MOL0     H48675  10.333   1.705   0.844 -1.0494 -2.9154 -1.6742
  353MOL0     H48676  10.287   1.052   0.827  1.7711 -2.3635  1.1485
  353MOL0     H48677  10.437   0.872   0.718  3.9916  0.0527  3.4301
  353MOL0     H48678  10.815   0.928   0.672  1.6137  0.2883 -1.5548
  353MOL0     H48679  10.705   0.785   0.676  0.8015 -2.7419 -2.2892
  353MOL0     H48680  10.848   0.883   0.425 -1.5163  2.0433  1.2759
  353MOL0     H48681  10.937   0.794   0.546  0.8104 -0.0023 -1.5414
  353MOL0     H48682  10.684   0.686   0.397  0.3056 -0.6886 -0.5253
  353MOL0     H48683  10.752   0.594   0.523  2.8310 -0.9871  1.7661
  353MOL0     H48684  10.961   0.578   0.399 -1.0446 -0.8183  0.5700
  353MOL0     H48685  10.886   0.673   0.261 -0.5006  0.3754  0.2537
  353MOL0     H48686  10.791   0.401   0.343  0.6729  0.4233 -0.0186
  353MOL0     H48687  10.725   0.512   0.226 -0.9649  1.5362  0.9907
  353MOL0     H48688  10.985   0.349   0.226  0.9437 -0.8875 -2.3070
  353MOL0     H48689  10.979   0.493   0.121 -0.6297 -0.1995 -0.8953
  353MOL0     H48690  10.780   0.421   0.013 -2.4216 -1.0939  0.5933
  353MOL0     H48691  10.754   0.288   0.119  0.8561 -0.6679  1.0191
  353MOL0     H48692  10.908   0.143   0.009  1.3207 -0.2563 -1.4544
  353MOL0     H48693  11.010   0.276  -0.046  0.3381  0.2247  0.3810
  353MOL0     H48694  10.618   1.189   0.496  0.1859  2.2755  0.7036
  353MOL0     H48695  10.445   1.349   0.556  1.5144 -0.6786 -0.7680
  353MOL0     H48696  10.077   1.403   0.580  3.5422 -1.9804  1.2980
  353MOL0     H48697   9.877   1.548   0.551  0.2191  0.4070  0.2444
  353MOL0     H48698   8.780   2.466   1.552 -0.9006  0.1851 -1.3726
  353MOL0     H48699   8.582   2.615   1.542  2.7839 -1.5127 -2.6632
  353MOL0     H48700   8.271   2.808   1.593 -0.6749 -1.1875 -1.8826
  353MOL0     H48701   8.111   2.950   1.513 -0.8029 -1.7399 -3.4237
  353MOL0     H48702   7.669   2.854   1.532 -1.0995  1.1710 -0.4775
  353MOL0     H48703   7.741   2.945   1.664  1.0102  0.8259  0.7253
  353MOL0     H48704   7.568   3.046   1.515 -0.6100  0.3878 -1.0577
  353MOL0     H48705   7.692   3.086   1.395 -1.7878 -0.0409  0.1523
  353MOL0     H48706   7.708   3.151   1.699  0.1569 -0.7465  0.7736
  353MOL0     H48707   7.824   3.199   1.565  0.5821 -0.6851  3.2367
  353MOL0     H48708   7.614   3.365   1.651 -3.4292 -0.2306 -1.6977
  353MOL0     H48709   7.525   3.265   1.564 -0.8696  0.9564 -1.8536
  353MOL0     H48710   7.732   3.485   1.256  2.2469 -2.9138  0.0649
  353MOL0     H48711   7.787   2.678   1.602  0.0513 -1.5883  0.6563
  353MOL0     H48712   7.970   2.447   1.806 -0.1702 -0.3600 -1.5626
  353MOL0     H48713   7.824   2.479   1.720  0.1724 -2.5627  0.4514
  353MOL0     H48714   7.951   2.398   1.633  1.6363 -0.3717 -1.3618
  354MOL0     O48715   3.222   2.427   9.748  0.3707 -0.0111 -0.0541
  354MOL0     C48716   3.201   2.516   9.830 -0.1793  0.6574 -0.0011
  354MOL0     O48717   3.265   2.630   9.823 -0.1868 -0.4690 -0.2960
  354MOL0     C48718   3.372   2.638   9.745  0.3089 -0.0062  0.0388
  354MOL0     C48719   3.369   2.736   9.645 -0.2012 -0.4661  0.5949
  354MOL0     C48720   3.470   2.742   9.551  0.0538  0.9567 -0.4335
  354MOL0     C48721   3.585   2.677   9.562  0.2072 -0.2541  0.1654
  354MOL0     O48722   3.670   2.688   9.458  0.5294 -0.2879  0.4030
  354MOL0     C48723   3.791   2.756   9.494 -0.1212 -0.2602 -0.0320
  354MOL0     C48724   3.862   2.770   9.362 -0.0193  0.3635 -0.6445
  354MOL0     C48725   3.996   2.843   9.382 -0.0196 -0.5521  0.1664
  354MOL0     C48726   4.074   2.863   9.248 -0.6982 -0.3930 -0.7213
  354MOL0     C48727   4.208   2.945   9.255  0.6729 -0.4345 -0.6004
  354MOL0     C48728   4.270   2.958   9.119  0.1094  0.6684 -0.7284
  354MOL0     C48729   4.405   3.035   9.142 -0.8160 -0.5744 -0.9387
  354MOL0     C48730   4.483   3.039   9.012 -0.0387  0.6076 -0.0682
  354MOL0     N48731   4.612   3.097   9.045  0.1387 -0.3862 -0.1035
  354MOL0     C48732   4.694   3.144   8.947  0.7300  0.6021 -0.5120
  354MOL0     C48733   4.800   3.200   9.000 -0.2558  0.5063  0.1750
  354MOL0     C48734   4.912   3.260   8.924  0.1452  0.1768 -0.5675
  354MOL0     C48735   5.054   3.231   8.968 -0.5882 -0.6677 -0.6528
  354MOL0     C48736   5.095   3.298   9.094  0.2487 -0.2076 -0.0033
  354MOL0     C48737   5.250   3.291   9.097  0.1055  0.1036  0.3997
  354MOL0     O48738   5.288   3.154   9.105 -0.1640 -0.1564 -0.0055
  354MOL0     C48739   5.419   3.124   9.087  0.3920  0.7136 -0.1069
  354MOL0     C48740   5.436   2.989   9.061 -0.2484  0.0654 -0.1253
  354MOL0     C48741   5.560   2.933   9.028 -0.5202  0.1258  0.0334
  354MOL0     C48742   5.558   2.785   8.996 -0.1597 -0.3127 -0.0592
  354MOL0     C48743   5.671   3.020   9.025  0.8619 -0.5616 -0.7413
  354MOL0     C48744   5.812   2.978   9.002 -0.2843  0.7221 -0.3932
  354MOL0     O48745   5.911   3.076   9.009 -0.5047  0.6973  0.2996
  354MOL0     C48746   6.037   3.032   8.993 -0.4312 -0.1753  0.0504
  354MOL0     C48747   6.106   3.033   8.870 -0.4526 -0.2131 -0.2831
  354MOL0     C48748   6.250   3.018   8.870  0.5404  0.3218  0.4146
  354MOL0     C48749   6.312   2.985   8.988  0.3616  0.6689 -0.5368
  354MOL0     O48750   6.454   2.971   8.984  0.5551 -0.2937 -0.0126
  354MOL0     C48751   6.522   2.893   9.083  0.6457  0.1858 -0.6810
  354MOL0     C48752   6.650   2.843   9.033 -0.7143 -0.0578 -0.2113
  354MOL0     C48753   6.737   2.758   9.141  0.3070 -0.1201 -0.2361
  354MOL0     C48754   6.893   2.754   9.123 -0.7997  0.4698 -0.1615
  354MOL0     C48755   6.936   2.715   8.980 -0.9085 -0.3073  0.2677
  354MOL0     C48756   7.085   2.714   8.972  0.2901 -0.1592  0.8567
  354MOL0     C48757   7.130   2.641   8.851  0.6121 -0.4594 -0.3852
  354MOL0     C48758   7.281   2.651   8.837 -0.3692 -0.6621  0.0432
  354MOL0    Cl48759   7.334   2.822   8.820  0.1944  0.0318 -0.3041
  354MOL0     C48760   6.243   2.974   9.107 -0.1474  0.1861  0.4637
  354MOL0     C48761   6.106   3.006   9.116 -0.4281  0.0789  0.5125
  354MOL0     O48762   5.834   2.856   8.977  0.0565  0.0271  0.5312
  354MOL0     C48763   5.653   3.162   9.042 -0.1317 -0.2579 -0.2395
  354MOL0     C48764   5.524   3.214   9.071  0.5677  0.1029 -0.2138
  354MOL0     N48765   4.787   3.190   9.134  0.1402 -0.4787 -0.7937
  354MOL0     N48766   4.667   3.136   9.166 -0.0807  0.2658 -0.4003
  354MOL0     C48767   3.595   2.575   9.668  0.0614 -0.7887  0.0553
  354MOL0     C48768   3.487   2.565   9.749  0.4732  0.2041 -0.3350
  354MOL0     C48769   3.085   2.501   9.920  0.4940 -1.1758  0.8083
  354MOL0     C48770   3.008   2.394   9.917  1.3716  1.3214 -0.1246
  354MOL0     C48771   2.883   2.376   9.989 -0.0332  0.4570  0.1847
  354MOL0     C48772   2.830   2.479  10.073  0.0434 -0.2961  0.1826
  354MOL0     O48773   2.708   2.476  10.128 -0.4728  0.1841 -0.0847
  354MOL0     C48774   2.654   2.353  10.182  0.3331 -0.1039  0.0349
  354MOL0     C48775   2.694   2.332  10.324  0.4556 -0.5313  0.7715
  354MOL0     C48776   2.667   2.461  10.412  0.9556  0.3253  0.0866
  354MOL0     C48777   2.527   2.458  10.465 -0.3954 -0.4049 -0.0682
  354MOL0     C48778   2.521   2.546  10.587 -0.3729  0.8505 -0.9456
  354MOL0     C48779   2.505   2.607  10.691  0.8274  0.0015 -0.5286
  354MOL0     C48780   2.911   2.596  10.078  0.0861 -0.0702  0.5402
  354MOL0     C48781   3.038   2.610  10.004 -0.3135  0.6017 -0.2778
  354MOL0     C48782   3.101   2.751  10.009  0.3788  0.4752  0.2829
  354MOL0     H48783   3.284   2.798   9.621  1.5695  1.8570 -0.0369
  354MOL0     H48784   3.448   2.808   9.467 -1.0487 -1.5923 -2.3169
  354MOL0     H48785   3.845   2.703   9.573 -0.6584 -0.7684  0.0082
  354MOL0     H48786   3.755   2.852   9.530 -1.9348 -1.7077  2.2990
  354MOL0     H48787   3.886   2.672   9.319  3.4562  0.9529 -0.3299
  354MOL0     H48788   3.803   2.811   9.280  0.0706 -1.3201 -1.5954
  354MOL0     H48789   3.984   2.942   9.427 -1.1383  0.1866 -1.6053
  354MOL0     H48790   4.057   2.784   9.451  4.1353  2.6330 -0.4291
  354MOL0     H48791   4.093   2.768   9.197 -2.2126 -0.9552 -0.2834
  354MOL0     H48792   4.005   2.919   9.183 -4.2346 -1.5470  1.7651
  354MOL0     H48793   4.272   2.899   9.331  1.9419  3.1746  0.7062
  354MOL0     H48794   4.192   3.046   9.293  2.1946  0.3111 -1.8662
  354MOL0     H48795   4.297   2.865   9.068  2.7629  0.3424  1.0519
  354MOL0     H48796   4.210   3.023   9.054  0.0647  1.5411  0.1655
  354MOL0     H48797   4.461   2.986   9.222  0.2856 -1.8417 -2.4104
  354MOL0     H48798   4.383   3.134   9.182  0.6086 -0.7285  0.3030
  354MOL0     H48799   4.493   2.940   8.968 -1.8431  1.0256 -1.5564
  354MOL0     H48800   4.426   3.093   8.935  0.6459 -2.6584 -3.1578
  354MOL0     H48801   4.671   3.141   8.841  0.5940 -1.8744 -0.4718
  354MOL0     H48802   4.887   3.366   8.912 -1.6990 -0.1173  0.3625
  354MOL0     H48803   4.903   3.224   8.821 -0.0157  1.3798 -0.9994
  354MOL0     H48804   5.051   3.126   8.999  3.1859  0.3228  4.5806
  354MOL0     H48805   5.120   3.236   8.882  0.8621 -2.1862  0.3189
  354MOL0     H48806   5.071   3.404   9.096  0.3056 -0.1706 -1.0279
  354MOL0     H48807   5.050   3.251   9.182  2.0220 -2.5310 -0.2156
  354MOL0     H48808   5.275   3.331   8.999  0.5817  3.3125  1.7090
  354MOL0     H48809   5.296   3.354   9.175 -1.7464  0.0014  1.6576
  354MOL0     H48810   5.346   2.931   9.079  1.8662 -2.6703  3.0077
  354MOL0     H48811   5.469   2.734   9.035  0.1361 -0.0379  1.0039
  354MOL0     H48812   5.642   2.730   9.039 -0.6773 -0.7593  0.3968
  354MOL0     H48813   5.566   2.766   8.889  0.8911 -0.4871  0.0467
  354MOL0     H48814   6.069   3.063   8.772  1.2394  0.5299 -0.7283
  354MOL0     H48815   6.307   3.017   8.778  3.4300 -0.0995  2.0752
  354MOL0     H48816   6.541   2.968   9.160  0.8540  1.9480 -2.3796
  354MOL0     H48817   6.458   2.811   9.118 -1.0534  0.4885 -2.8543
  354MOL0     H48818   6.637   2.781   8.944  0.1935  0.5147 -0.7681
  354MOL0     H48819   6.717   2.927   9.013  1.7918 -1.3969  1.8493
  354MOL0     H48820   6.698   2.656   9.138  0.8044 -0.2965 -2.2634
  354MOL0     H48821   6.704   2.790   9.240  2.8983 -3.3565  1.8709
  354MOL0     H48822   6.930   2.679   9.194 -0.8479  0.2602 -0.3544
  354MOL0     H48823   6.938   2.851   9.144  1.4899 -0.9424  1.9689
  354MOL0     H48824   6.890   2.617   8.965  1.0900 -1.4803  1.3350
  354MOL0     H48825   6.900   2.795   8.915 -1.9269 -0.8163  0.1961
  354MOL0     H48826   7.139   2.672   9.057  1.4947 -1.4664 -0.5001
  354MOL0     H48827   7.116   2.818   8.955 -1.6497  0.8172  2.9098
  354MOL0     H48828   7.085   2.686   8.761  1.8812  3.4874  0.7691
  354MOL0     H48829   7.116   2.534   8.867  0.5201 -0.1656  1.6802
  354MOL0     H48830   7.302   2.602   8.742 -0.0553 -0.8809  0.2227
  354MOL0     H48831   7.338   2.602   8.917 -1.1451 -0.8215  0.5062
  354MOL0     H48832   6.291   2.959   9.203 -3.6232 -0.1226  2.2838
  354MOL0     H48833   6.062   3.031   9.212 -1.9285 -0.4470  0.0035
  354MOL0     H48834   5.725   3.243   9.041 -0.3102 -0.0951 -1.4137
  354MOL0     H48835   5.499   3.319   9.088  0.6846  0.1612 -0.3945
  354MOL0     H48836   3.679   2.508   9.653  0.2606 -0.2479 -1.3474
  354MOL0     H48837   3.496   2.478   9.813  2.3985 -1.3895 -2.5740
  354MOL0     H48838   3.030   2.310   9.851 -3.6151 -1.0786  0.8069
  354MOL0     H48839   2.820   2.289   9.975 -1.1988  1.6833 -3.1586
  354MOL0     H48840   2.544   2.353  10.181  0.2649 -0.3752 -2.9800
  354MOL0     H48841   2.679   2.266  10.120 -3.0440  0.8613 -3.0716
  354MOL0     H48842   2.803   2.325  10.316  0.4036 -2.3231  1.3305
  354MOL0     H48843   2.656   2.240  10.369 -3.0304 -0.9298 -2.4711
  354MOL0     H48844   2.725   2.446  10.503 -1.4088  0.5449  1.7316
  354MOL0     H48845   2.692   2.559  10.371  1.4789  0.0099 -0.3564
  354MOL0     H48846   2.518   2.352  10.489  1.9566 -0.9478 -1.2433
  354MOL0     H48847   2.453   2.499  10.396 -1.9517 -1.0775  1.1383
  354MOL0     H48848   2.482   2.641  10.790  1.3180  0.0905 -0.4425
  354MOL0     H48849   2.865   2.659  10.153  0.6659  2.4607 -1.1231
  354MOL0     H48850   3.088   2.785   9.906 -1.2426 -1.9614 -0.4006
  354MOL0     H48851   3.046   2.805  10.087  0.4620  0.1754  0.5546
  354MOL0     H48852   3.206   2.746  10.040  0.4036 -2.2536  0.0164
  355MOL0     O48853  10.161   1.491   1.253  0.5220 -0.0723 -0.4555
  355MOL0     C48854  10.208   1.381   1.230 -0.2263 -0.0386  0.5398
  355MOL0     O48855  10.144   1.281   1.168 -0.0861  0.3422 -0.7172
  355MOL0     C48856  10.016   1.298   1.119  0.2730  0.9198  0.4138
  355MOL0     C48857   9.986   1.354   0.990  0.3174  0.3534 -0.2537
  355MOL0     C48858   9.868   1.346   0.931  0.1439 -0.8250  0.5420
  355MOL0     C48859   9.760   1.302   1.013 -0.1034 -0.4755 -0.2070
  355MOL0     O48860   9.638   1.297   0.953  0.4105 -0.3902  1.1112
  355MOL0     C48861   9.525   1.276   1.035  0.0020  0.3164  0.6587
  355MOL0     C48862   9.389   1.303   0.979 -0.5443 -0.2989  0.0604
  355MOL0     C48863   9.273   1.254   1.069  0.3972 -0.1591  0.2866
  355MOL0     C48864   9.138   1.252   1.012  0.7054 -0.2253  0.1237
  355MOL0     C48865   9.042   1.180   1.102 -0.0083 -0.9758  0.0117
  355MOL0     C48866   8.902   1.190   1.036  0.1673 -0.2140 -0.1693
  355MOL0     C48867   8.823   1.314   1.096 -1.4862  0.6132 -0.6293
  355MOL0     C48868   8.684   1.313   1.046  0.2977 -0.6633 -0.3268
  355MOL0     N48869   8.619   1.446   1.076 -0.6097 -0.0495  0.2969
  355MOL0     C48870   8.561   1.477   1.193  0.6167  0.1558 -0.3967
  355MOL0     C48871   8.482   1.591   1.169  0.5998  1.1813 -0.0380
  355MOL0     C48872   8.406   1.685   1.268 -0.3221  0.2184  0.7781
  355MOL0     C48873   8.324   1.610   1.372 -0.2142 -0.3029 -0.1581
  355MOL0     C48874   8.285   1.702   1.488 -0.0240  0.3102 -0.0101
  355MOL0     C48875   8.207   1.819   1.429 -0.0539  0.0036  0.0422
  355MOL0     O48876   8.094   1.792   1.350 -0.0995 -0.2667 -0.4657
  355MOL0     C48877   7.970   1.773   1.420  0.0937  0.5872 -0.2459
  355MOL0     C48878   7.855   1.748   1.338 -0.4219  0.7277  0.2702
  355MOL0     C48879   7.726   1.730   1.393 -0.1476 -0.4561 -0.3810
  355MOL0     C48880   7.618   1.697   1.311  0.0023  0.1473 -0.2968
  355MOL0     C48881   7.719   1.730   1.535  0.0152  0.6873 -0.7463
  355MOL0     C48882   7.590   1.723   1.600 -0.2448 -0.8755  0.6695
  355MOL0     O48883   7.581   1.614   1.677  0.2968  0.5702  0.8741
  355MOL0     C48884   7.467   1.589   1.745 -0.3700 -0.3253  0.3448
  355MOL0     C48885   7.379   1.680   1.803  0.0780  0.1062 -0.2653
  355MOL0     C48886   7.266   1.633   1.874 -0.3433 -0.8996  0.7670
  355MOL0     C48887   7.235   1.495   1.883 -0.3639  0.8031 -0.7434
  355MOL0     O48888   7.132   1.449   1.955  0.0029 -0.4367 -0.3785
  355MOL0     C48889   7.014   1.497   1.888  0.1675  0.7929  0.1309
  355MOL0     C48890   6.891   1.439   1.953  0.8133 -0.4655  0.3389
  355MOL0     C48891   6.769   1.505   1.872 -0.6391 -0.2710 -0.0942
  355MOL0     C48892   6.628   1.458   1.933 -0.0295  0.4683  0.0648
  355MOL0     C48893   6.508   1.505   1.848 -0.4001  0.1929 -0.1532
  355MOL0     C48894   6.381   1.414   1.866 -0.0247 -0.5678 -0.2507
  355MOL0     C48895   6.297   1.431   1.990  0.0351 -0.0766  0.0676
  355MOL0     C48896   6.236   1.570   1.989 -0.0916  0.4092 -0.0026
  355MOL0    Cl48897   6.136   1.584   2.137 -0.6695  0.0125  0.0500
  355MOL0     C48898   7.333   1.411   1.835 -0.0015  0.2601  0.8792
  355MOL0     C48899   7.440   1.457   1.764 -0.2666 -1.4432 -0.1280
  355MOL0     O48900   7.501   1.798   1.565 -0.0085  0.0861 -0.8980
  355MOL0     C48901   7.831   1.740   1.612 -0.0803 -0.1432 -1.1629
  355MOL0     C48902   7.956   1.752   1.559  0.6412 -1.3118  0.4671
  355MOL0     N48903   8.511   1.625   1.037  0.3078  0.2826 -0.6438
  355MOL0     N48904   8.608   1.546   0.994  0.6860  0.6082 -0.4732
  355MOL0     C48905   9.780   1.253   1.140  0.1124 -0.6028 -0.1553
  355MOL0     C48906   9.911   1.246   1.194  0.4031 -0.1122  0.4312
  355MOL0     C48907  10.360   1.370   1.266  0.3038  0.4654  0.0470
  355MOL0     C48908  10.449   1.476   1.243 -0.3825  0.3150 -0.0526
  355MOL0     C48909  10.586   1.461   1.271  0.1296  0.9589  0.2665
  355MOL0     C48910  10.635   1.348   1.337 -0.2287  0.0401  1.2304
  355MOL0     O48911  10.770   1.327   1.373  0.3972  0.3765 -0.1843
  355MOL0     C48912  10.874   1.417   1.343 -1.3009 -0.0024  0.0437
  355MOL0     C48913  11.016   1.352   1.369  0.1183  0.6314  0.7458
  355MOL0     C48914  11.044   1.222   1.279 -0.9962 -0.1059 -0.1877
  355MOL0     C48915  11.169   1.149   1.321 -0.4806  0.3445  0.8599
  355MOL0     C48916  11.287   1.190   1.247  0.7108 -0.7662  1.0916
  355MOL0     C48917  11.364   1.245   1.166  0.5954  0.3728  0.5138
  355MOL0     C48918  10.541   1.247   1.371 -0.4497  0.6321  0.6871
  355MOL0     C48919  10.408   1.257   1.334  0.5600  0.6813  0.1182
  355MOL0     C48920  10.325   1.141   1.386  0.3984  0.4112  0.4097
  355MOL0     H48921  10.071   1.378   0.927  1.4538 -0.0687  1.0640
  355MOL0     H48922   9.857   1.385   0.830 -0.5565 -2.1471  0.0822
  355MOL0     H48923   9.529   1.339   1.124 -1.1635  0.8469  0.3601
  355MOL0     H48924   9.526   1.171   1.064  0.2442  0.4437  1.1199
  355MOL0     H48925   9.375   1.411   0.969  1.0448 -0.2306 -2.5143
  355MOL0     H48926   9.370   1.257   0.882 -1.6263 -0.6348  0.4212
  355MOL0     H48927   9.300   1.154   1.106 -3.4922 -1.5446 -0.1530
  355MOL0     H48928   9.284   1.305   1.165  1.3612  1.4418 -0.6360
  355MOL0     H48929   9.106   1.356   1.003 -1.6613 -0.5086  3.3671
  355MOL0     H48930   9.126   1.200   0.916  2.0294 -1.6452  0.6766
  355MOL0     H48931   9.031   1.230   1.199 -2.0802 -2.8603  0.8420
  355MOL0     H48932   9.073   1.077   1.120  1.5634 -0.5113  0.0462
  355MOL0     H48933   8.899   1.192   0.927 -0.1723 -1.1034 -0.1857
  355MOL0     H48934   8.845   1.105   1.073 -1.1900 -0.0077 -1.6598
  355MOL0     H48935   8.870   1.407   1.061  1.9365 -0.1568  1.4130
  355MOL0     H48936   8.826   1.308   1.205  1.0710  0.1603 -0.6444
  355MOL0     H48937   8.680   1.306   0.937 -1.7081  2.2509 -0.5572
  355MOL0     H48938   8.621   1.240   1.097 -1.4558  0.1235 -1.2668
  355MOL0     H48939   8.562   1.418   1.284 -2.0046  0.7532  0.0767
  355MOL0     H48940   8.345   1.756   1.212 -0.7323  0.6833  1.8066
  355MOL0     H48941   8.479   1.741   1.326  0.4590 -0.4020  0.4201
  355MOL0     H48942   8.232   1.581   1.323 -2.4472  2.3561  2.0796
  355MOL0     H48943   8.375   1.523   1.416  0.1356  0.8253  1.8124
  355MOL0     H48944   8.223   1.640   1.552 -0.7947 -1.5709 -2.4452
  355MOL0     H48945   8.368   1.732   1.554 -0.5082  1.8282 -0.0351
  355MOL0     H48946   8.176   1.876   1.517  0.1205  0.6170 -0.2855
  355MOL0     H48947   8.273   1.883   1.370  0.3403 -0.9558 -0.5863
  355MOL0     H48948   7.863   1.745   1.230 -0.2085 -1.0194  0.3082
  355MOL0     H48949   7.633   1.716   1.204  1.5172 -1.5502 -0.4449
  355MOL0     H48950   7.520   1.736   1.336  0.3905 -0.0701  1.7101
  355MOL0     H48951   7.612   1.587   1.313  2.1525 -0.0104 -0.0625
  355MOL0     H48952   7.376   1.788   1.787 -1.1971  0.2575  0.8387
  355MOL0     H48953   7.190   1.704   1.907  1.5518  0.8804  1.5572
  355MOL0     H48954   7.001   1.606   1.897 -2.4373  0.4951  0.9041
  355MOL0     H48955   7.010   1.465   1.784 -1.9180 -2.4544  1.0696
  355MOL0     H48956   6.878   1.331   1.941  2.4608 -0.7030  0.4711
  355MOL0     H48957   6.882   1.450   2.062 -2.3089 -1.7876  0.3133
  355MOL0     H48958   6.780   1.454   1.776  0.8004  1.1084 -0.7024
  355MOL0     H48959   6.780   1.613   1.859  3.3888 -0.8570 -3.5631
  355MOL0     H48960   6.614   1.500   2.033  0.1670  0.2612  0.1815
  355MOL0     H48961   6.633   1.348   1.932  1.3409  0.4925 -2.6159
  355MOL0     H48962   6.480   1.609   1.862  0.7171  0.2716  1.7519
  355MOL0     H48963   6.541   1.491   1.744 -3.3691  0.6336 -1.2465
  355MOL0     H48964   6.412   1.309   1.865 -1.0498 -0.8798  0.2087
  355MOL0     H48965   6.320   1.437   1.778  0.5275  3.8775  0.2679
  355MOL0     H48966   6.355   1.417   2.081 -0.1353 -2.3486 -0.1118
  355MOL0     H48967   6.216   1.358   1.982 -1.4609  1.4863  0.4326
  355MOL0     H48968   6.174   1.584   1.900 -0.0656  2.7012  0.2700
  355MOL0     H48969   6.319   1.641   1.993  2.4560 -2.4119  3.4122
  355MOL0     H48970   7.307   1.307   1.851  1.0294 -0.1521  0.0115
  355MOL0     H48971   7.513   1.382   1.735  3.4068  1.7247  0.1202
  355MOL0     H48972   7.813   1.758   1.717  1.1765  0.5501 -1.0474
  355MOL0     H48973   8.041   1.770   1.624  0.4504  1.5415  0.0760
  355MOL0     H48974   9.700   1.207   1.197  1.2047 -0.9616  1.1504
  355MOL0     H48975   9.928   1.195   1.288 -3.6833  0.4981  1.6949
  355MOL0     H48976  10.398   1.563   1.203  1.8360  0.4196 -2.9274
  355MOL0     H48977  10.634   1.556   1.247 -3.1227  2.3823 -1.1221
  355MOL0     H48978  10.869   1.459   1.242 -0.5799  1.3505  0.5530
  355MOL0     H48979  10.860   1.507   1.403  1.1565  0.2454  0.3313
  355MOL0     H48980  11.019   1.326   1.475  0.2904  1.7518  1.0293
  355MOL0     H48981  11.091   1.430   1.349  0.7849  0.1487  1.3049
  355MOL0     H48982  10.954   1.160   1.283 -2.1186  1.5251  1.2855
  355MOL0     H48983  11.047   1.242   1.172 -1.8089  0.3911 -0.1296
  355MOL0     H48984  11.157   1.043   1.298 -2.1886  0.1451  2.4684
  355MOL0     H48985  11.183   1.155   1.429  0.6447  0.3337  0.7254
  355MOL0     H48986  11.424   1.298   1.094 -3.1295 -0.2027 -3.4069
  355MOL0     H48987  10.583   1.165   1.429 -1.0776  1.5315  2.4705
  355MOL0     H48988  10.253   1.165   1.465 -0.0175 -1.6382  0.6969
  355MOL0     H48989  10.267   1.095   1.305 -0.4620 -0.7862  1.6783
  355MOL0     H48990  10.384   1.063   1.433 -2.0666 -0.5753  2.0791
  356MOL0     O48991   7.703   9.866   7.016  0.4532  1.2024 -0.1552
  356MOL0     C48992   7.790   9.799   7.070  0.3894 -1.1540 -0.1070
  356MOL0     O48993   7.903   9.760   7.012  0.1523 -0.0564 -0.6891
  356MOL0     C48994   7.921   9.784   6.883 -0.6674 -0.1460  0.2408
  356MOL0     C48995   7.831   9.742   6.782  0.5241 -0.0543 -0.2004
  356MOL0     C48996   7.866   9.745   6.646 -0.4702 -0.6863 -0.2245
  356MOL0     C48997   7.983   9.810   6.606  0.2286 -0.2033  0.5134
  356MOL0     O48998   8.027   9.837   6.475 -0.3316 -0.5279 -0.6866
  356MOL0     C48999   7.987   9.754   6.365  0.6388 -0.2169  0.2866
  356MOL0     C49000   8.020   9.819   6.226  0.0966  0.0536 -0.7999
  356MOL0     C49001   8.176   9.817   6.202 -0.5237 -0.0148 -0.3755
  356MOL0     C49002   8.217   9.688   6.141  0.3740  0.3730  0.0631
  356MOL0     C49003   8.366   9.678   6.109  0.4686  0.5929  1.0029
  356MOL0     C49004   8.402   9.534   6.069 -0.5156 -0.2032  1.0628
  356MOL0     C49005   8.556   9.522   6.008  0.7833  0.4322  0.5174
  356MOL0     C49006   8.670   9.520   6.103  0.4727  0.2610 -0.5895
  356MOL0     N49007   8.806   9.526   6.038  1.4453 -0.5043  0.9759
  356MOL0     C49008   8.890   9.628   6.017 -0.3057 -0.2695 -0.2932
  356MOL0     C49009   9.006   9.568   5.964  1.0423  0.5903  0.0210
  356MOL0     C49010   9.117   9.643   5.903  0.7492  0.3719 -0.1746
  356MOL0     C49011   9.118   9.794   5.941  0.7750 -0.1589  0.0094
  356MOL0     C49012   9.164   9.807   6.090 -0.1494  0.9757  0.5472
  356MOL0     C49013   9.136   9.944   6.146 -0.6859 -0.1975  0.2665
  356MOL0     O49014   9.001   9.985   6.107 -0.5039 -0.2599  0.0652
  356MOL0     C49015   8.896   9.948   6.187  1.0076 -0.1583 -0.2767
  356MOL0     C49016   8.765   9.996   6.174 -0.1815  0.2781  0.0534
  356MOL0     C49017   8.649   9.953   6.243 -0.3724 -0.1412 -0.2457
  356MOL0     C49018   8.517  10.026   6.211  0.0794 -0.4519  0.3603
  356MOL0     C49019   8.665   9.855   6.336  0.9710  0.0927 -0.4229
  356MOL0     C49020   8.557   9.808   6.423 -0.8870 -0.8356 -0.6961
  356MOL0     O49021   8.577   9.696   6.486 -0.5110  0.3468  0.2130
  356MOL0     C49022   8.485   9.659   6.577 -0.2754  0.2093 -0.2314
  356MOL0     C49023   8.369   9.586   6.545 -0.0513  0.0634  0.5248
  356MOL0     C49024   8.264   9.552   6.633 -0.5787  0.6961  0.3803
  356MOL0     C49025   8.282   9.583   6.767  0.2692 -0.2599  0.0596
  356MOL0     O49026   8.184   9.550   6.852 -0.4357 -0.1639  0.7418
  356MOL0     C49027   8.205   9.557   6.987  0.1620  0.3913  0.1580
  356MOL0     C49028   8.096   9.475   7.054  0.3163 -0.6913 -0.4244
  356MOL0     C49029   8.109   9.467   7.205  0.7027  0.3289 -0.5919
  356MOL0     C49030   8.144   9.600   7.271  0.0640 -0.1316 -0.3143
  356MOL0     C49031   8.130   9.600   7.425 -0.6225 -0.5659  0.1732
  356MOL0     C49032   8.171   9.720   7.507 -0.3723 -0.7256 -1.0536
  356MOL0     C49033   8.193   9.688   7.657 -0.0760  0.0150  1.0435
  356MOL0     C49034   8.262   9.800   7.727 -1.1113 -0.8043 -1.0547
  356MOL0    Cl49035   8.430   9.815   7.651 -0.1331  0.2751  0.4111
  356MOL0     C49036   8.390   9.670   6.801 -0.4797  0.4609 -0.0053
  356MOL0     C49037   8.490   9.710   6.712  0.6362  1.1921  0.0420
  356MOL0     O49038   8.461   9.879   6.441  0.0373 -0.6944 -0.3185
  356MOL0     C49039   8.795   9.798   6.362  0.0138  0.3799  0.6588
  356MOL0     C49040   8.905   9.854   6.290 -0.6627 -0.4552 -0.0027
  356MOL0     N49041   8.988   9.428   5.965 -0.0574  0.2840 -0.5861
  356MOL0     N49042   8.868   9.410   6.007 -0.0161  0.1560 -0.5113
  356MOL0     C49043   8.069   9.863   6.699 -0.4196  0.2130 -1.4257
  356MOL0     C49044   8.041   9.844   6.839  0.0129 -0.1045 -0.5191
  356MOL0     C49045   7.765   9.766   7.210 -0.2704 -0.6614  0.4123
  356MOL0     C49046   7.801   9.861   7.310  0.7509  0.5743 -0.7135
  356MOL0     C49047   7.768   9.845   7.447  0.7481 -0.0566 -0.2046
  356MOL0     C49048   7.700   9.726   7.483 -0.1570  0.1874  0.4067
  356MOL0     O49049   7.646   9.701   7.604  0.2811  0.0671 -0.0270
  356MOL0     C49050   7.535   9.788   7.632 -0.1305 -0.5592 -1.1495
  356MOL0     C49051   7.410   9.744   7.556  0.5356 -1.0014 -0.9152
  356MOL0     C49052   7.365   9.607   7.598 -0.2343 -0.1420 -0.2763
  356MOL0     C49053   7.211   9.593   7.598 -0.0409 -0.2642  0.1055
  356MOL0     C49054   7.172   9.458   7.643  0.0092  0.1053 -0.0841
  356MOL0     C49055   7.175   9.348   7.697  0.1698 -0.4858  0.3985
  356MOL0     C49056   7.683   9.623   7.388  0.9827  0.1463 -0.3408
  356MOL0     C49057   7.715   9.640   7.250 -0.6528 -0.3409  0.1548
  356MOL0     C49058   7.710   9.519   7.158  0.3007  0.8179  1.2753
  356MOL0     H49059   7.739   9.694   6.816  0.3792  0.4507  0.1434
  356MOL0     H49060   7.794   9.703   6.576  0.6074 -0.2596 -1.6491
  356MOL0     H49061   7.878   9.740   6.368  0.4642 -0.5366 -3.0357
  356MOL0     H49062   8.029   9.653   6.367 -2.7440 -1.8023  3.8909
  356MOL0     H49063   7.963   9.766   6.149  0.4355  0.4257 -1.3127
  356MOL0     H49064   7.983   9.922   6.222 -1.1746 -0.4102 -1.5592
  356MOL0     H49065   8.196   9.907   6.142 -0.6179  0.9408  0.9892
  356MOL0     H49066   8.225   9.835   6.298  1.1121  2.5212 -1.5588
  356MOL0     H49067   8.180   9.610   6.208 -2.0325  0.8209 -0.6401
  356MOL0     H49068   8.165   9.667   6.047 -0.1808 -0.0369  0.4567
  356MOL0     H49069   8.429   9.718   6.189  2.4674 -2.9404  1.3748
  356MOL0     H49070   8.384   9.739   6.020  0.1038 -1.2342 -0.3913
  356MOL0     H49071   8.387   9.478   6.161  0.2562  1.3816  2.2145
  356MOL0     H49072   8.338   9.496   5.989  0.5365 -0.4070  0.2997
  356MOL0     H49073   8.568   9.610   5.944  2.7550 -0.2896 -0.1607
  356MOL0     H49074   8.547   9.433   5.945  1.6516  0.4661  0.3276
  356MOL0     H49075   8.656   9.598   6.178 -2.8211 -1.4983  0.8728
  356MOL0     H49076   8.661   9.420   6.147 -0.3785 -0.2493 -1.8496
  356MOL0     H49077   8.866   9.733   6.019 -0.2507 -0.2473 -0.8170
  356MOL0     H49078   9.116   9.634   5.794  1.5535 -1.5560 -0.0630
  356MOL0     H49079   9.207   9.598   5.948  0.2374 -0.6455 -0.1517
  356MOL0     H49080   9.184   9.854   5.877  3.7408  0.1574  3.1277
  356MOL0     H49081   9.022   9.843   5.918  0.6313  1.4895  3.4964
  356MOL0     H49082   9.111   9.733   6.150 -3.6465  0.1517 -3.1275
  356MOL0     H49083   9.271   9.790   6.107 -0.5273 -1.9154  0.5309
  356MOL0     H49084   9.154   9.947   6.254 -3.1840  1.5317  0.7016
  356MOL0     H49085   9.198  10.024   6.104 -3.7267  1.6053 -1.1167
  356MOL0     H49086   8.755  10.054   6.083 -0.0130  0.2775  0.0344
  356MOL0     H49087   8.480  10.067   6.305  2.9406 -1.1113  1.8962
  356MOL0     H49088   8.432   9.981   6.159 -1.5381  0.2523  2.2677
  356MOL0     H49089   8.536  10.109   6.143  0.0452 -1.6989 -1.2220
  356MOL0     H49090   8.336   9.558   6.445  0.7878 -0.9489  0.5094
  356MOL0     H49091   8.180   9.490   6.602  0.9815 -0.8153 -1.1048
  356MOL0     H49092   8.297   9.510   7.019 -1.1604 -0.8879  2.2800
  356MOL0     H49093   8.193   9.663   7.011 -4.9110  0.5628 -1.7953
  356MOL0     H49094   7.999   9.510   7.019  0.0249 -1.2211 -0.1595
  356MOL0     H49095   8.102   9.374   7.010  0.7898 -0.3074 -1.2800
  356MOL0     H49096   8.184   9.393   7.233  0.4810  0.2577 -0.1718
  356MOL0     H49097   8.015   9.434   7.249  0.0759  0.3320 -1.9041
  356MOL0     H49098   8.080   9.682   7.235  1.5279  0.3914 -1.8872
  356MOL0     H49099   8.247   9.623   7.244  0.4937  0.6010  1.7873
  356MOL0     H49100   8.029   9.566   7.450  0.0465 -2.4342  0.4947
  356MOL0     H49101   8.193   9.523   7.470 -0.6022  1.1483  3.3232
  356MOL0     H49102   8.101   9.804   7.510 -0.5098 -0.7742  3.0311
  356MOL0     H49103   8.266   9.757   7.466 -0.6170  0.9736 -0.1820
  356MOL0     H49104   8.247   9.594   7.669 -2.1088 -1.2983  0.5387
  356MOL0     H49105   8.089   9.689   7.693 -0.7202  2.0208 -0.6582
  356MOL0     H49106   8.278   9.790   7.835  0.4854  1.3878 -1.0218
  356MOL0     H49107   8.233   9.905   7.723  2.6215  0.4395  0.2868
  356MOL0     H49108   8.394   9.708   6.903 -2.3533 -0.6975  0.5463
  356MOL0     H49109   8.564   9.783   6.743 -0.9866  2.2864  1.5357
  356MOL0     H49110   8.810   9.719   6.435  1.8288 -1.2719 -1.3832
  356MOL0     H49111   9.002   9.809   6.309 -0.2519  0.6142  0.5296
  356MOL0     H49112   8.165   9.898   6.663 -0.8295  1.8757 -0.9973
  356MOL0     H49113   8.114   9.873   6.913  2.5007 -1.9707 -2.0729
  356MOL0     H49114   7.849   9.954   7.282  1.2099  0.4324 -0.4170
  356MOL0     H49115   7.803   9.911   7.525 -0.1621 -1.5310  1.5130
  356MOL0     H49116   7.518   9.775   7.739 -2.0301 -1.2978 -1.4949
  356MOL0     H49117   7.558   9.893   7.615 -3.3833  0.3753 -0.3967
  356MOL0     H49118   7.440   9.760   7.452 -0.7336 -0.4524 -1.2144
  356MOL0     H49119   7.334   9.817   7.587 -3.1063 -3.7472 -2.5858
  356MOL0     H49120   7.404   9.534   7.527  0.1299  0.3942 -0.6335
  356MOL0     H49121   7.406   9.581   7.696 -0.0610 -1.1586 -0.6060
  356MOL0     H49122   7.179   9.606   7.495  0.0124  2.9830  0.3937
  356MOL0     H49123   7.170   9.670   7.665  1.5665 -0.8673  1.8863
  356MOL0     H49124   7.179   9.243   7.720 -2.0742 -0.8763 -0.6663
  356MOL0     H49125   7.650   9.528   7.428  1.0327  0.3547  0.2113
  356MOL0     H49126   7.781   9.537   7.078 -0.8678  1.6730  0.4056
  356MOL0     H49127   7.739   9.426   7.209 -2.1552 -1.7265 -1.5648
  356MOL0     H49128   7.612   9.494   7.116  1.8787 -2.5456 -0.8006
  357MOL0     O49129   4.121   3.634   3.944 -0.3791  0.8772 -0.4477
  357MOL0     C49130   4.029   3.554   3.956  0.1949  0.8049  0.4295
  357MOL0     O49131   4.019   3.431   3.892 -0.1833  0.7917 -0.0184
  357MOL0     C49132   4.098   3.413   3.785 -0.1878  0.3782 -0.5529
  357MOL0     C49133   4.056   3.446   3.660 -0.1291 -0.7986 -1.3412
  357MOL0     C49134   4.135   3.411   3.552  0.3418  0.3011 -0.5524
  357MOL0     C49135   4.263   3.355   3.562 -0.5925 -0.0689  0.4585
  357MOL0     O49136   4.338   3.323   3.451  0.6233 -0.2309  0.0024
  357MOL0     C49137   4.267   3.311   3.324 -0.5879 -0.0891 -0.8934
  357MOL0     C49138   4.356   3.247   3.220 -0.0113  0.0715 -0.6391
  357MOL0     C49139   4.482   3.338   3.197 -0.1981  1.2438 -0.0067
  357MOL0     C49140   4.550   3.313   3.059  0.5042 -0.3894 -0.6615
  357MOL0     C49141   4.679   3.394   3.038 -0.0291 -0.2509  0.6005
  357MOL0     C49142   4.756   3.331   2.919 -0.0742 -0.7363 -0.2015
  357MOL0     C49143   4.857   3.435   2.867 -0.4234 -1.3348  0.4350
  357MOL0     C49144   4.807   3.536   2.761 -0.4059  0.5691 -0.5945
  357MOL0     N49145   4.905   3.638   2.766 -0.3080  0.8735 -0.2845
  357MOL0     C49146   5.035   3.628   2.718  0.0952 -0.5247  0.3905
  357MOL0     C49147   5.090   3.750   2.726  0.4091 -0.1870  0.3102
  357MOL0     C49148   5.233   3.799   2.686  0.0213  0.3398  0.4677
  357MOL0     C49149   5.235   3.930   2.607  0.7727 -0.8901 -0.8030
  357MOL0     C49150   5.375   3.968   2.558  0.5481  1.5539  0.2459
  357MOL0     C49151   5.397   4.116   2.563 -0.8043 -0.0378  0.1476
  357MOL0     O49152   5.523   4.147   2.495  0.3827  0.4433  0.0312
  357MOL0     C49153   5.614   4.215   2.569  0.6774 -0.2549  0.8133
  357MOL0     C49154   5.610   4.354   2.583  0.6701 -0.4380  0.0746
  357MOL0     C49155   5.704   4.421   2.648 -0.0564 -0.3523 -0.4504
  357MOL0     C49156   5.689   4.570   2.659 -0.6211  0.3962  0.1384
  357MOL0     C49157   5.814   4.347   2.707 -0.4367 -0.8862 -0.5353
  357MOL0     C49158   5.934   4.405   2.789 -0.4182 -0.3324 -0.6390
  357MOL0     O49159   5.901   4.498   2.889 -0.5480 -1.0563 -0.2593
  357MOL0     C49160   6.002   4.536   2.966  0.2634 -0.2905 -0.8130
  357MOL0     C49161   6.053   4.458   3.068  0.3234 -0.6339 -0.0234
  357MOL0     C49162   6.156   4.495   3.148  0.1190  0.1206 -1.3462
  357MOL0     C49163   6.208   4.624   3.138  0.7286  0.1187  1.5203
  357MOL0     O49164   6.306   4.666   3.216 -0.2877 -0.9908 -0.2834
  357MOL0     C49165   6.327   4.602   3.345 -0.2665  1.1099  0.0214
  357MOL0     C49166   6.454   4.654   3.423 -0.5351 -0.1961  0.0686
  357MOL0     C49167   6.576   4.557   3.394 -0.2187  0.3793 -0.0684
  357MOL0     C49168   6.698   4.598   3.472  0.2393  0.6075 -0.5159
  357MOL0     C49169   6.809   4.505   3.420  0.3236  0.8609  0.6839
  357MOL0     C49170   6.886   4.541   3.293 -0.4641 -0.5846  0.5305
  357MOL0     C49171   6.942   4.415   3.227  1.1432  0.6731  0.2124
  357MOL0     C49172   6.993   4.436   3.094 -0.2906 -0.1612 -0.3015
  357MOL0    Cl49173   7.033   4.260   3.051 -0.2133 -0.4798 -0.1535
  357MOL0     C49174   6.162   4.707   3.033 -0.5913  0.3206 -0.9468
  357MOL0     C49175   6.049   4.667   2.947 -0.8646  0.5199  0.6120
  357MOL0     O49176   6.042   4.353   2.779 -0.5010  0.2388  0.1070
  357MOL0     C49177   5.812   4.210   2.698  0.0737 -0.3298 -0.4575
  357MOL0     C49178   5.721   4.147   2.620 -0.2962 -0.1318 -1.1771
  357MOL0     N49179   4.984   3.835   2.767  0.2074  0.1630 -0.5179
  357MOL0     N49180   4.876   3.769   2.781  0.3961  0.3716  0.4959
  357MOL0     C49181   4.308   3.325   3.690  0.1809  0.7622 -0.2364
  357MOL0     C49182   4.223   3.343   3.799  0.5671 -0.1254 -0.4531
  357MOL0     C49183   3.915   3.574   4.055 -0.2478 -0.4883  0.0945
  357MOL0     C49184   3.835   3.463   4.084 -0.5605  0.8674 -0.1808
  357MOL0     C49185   3.704   3.482   4.137  0.1392  0.3299  0.0577
  357MOL0     C49186   3.664   3.604   4.190 -0.4611  0.9685 -0.1817
  357MOL0     O49187   3.541   3.639   4.240  0.4000  0.1659 -0.8665
  357MOL0     C49188   3.435   3.553   4.215  0.6503  0.6349  0.2327
  357MOL0     C49189   3.298   3.633   4.210 -0.2015  0.0300 -0.7563
  357MOL0     C49190   3.271   3.684   4.351  0.4362  0.7300  0.0083
  357MOL0     C49191   3.125   3.713   4.377 -0.1949  0.0527 -0.0128
  357MOL0     C49192   3.038   3.594   4.382  0.6301 -0.0335  0.5562
  357MOL0     C49193   2.962   3.501   4.368 -0.3095  1.1045  0.3114
  357MOL0     C49194   3.757   3.705   4.186  0.6692 -0.2404 -0.5781
  357MOL0     C49195   3.873   3.694   4.115  0.0765  0.6843 -0.0734
  357MOL0     C49196   3.966   3.810   4.119 -0.4587  0.2980  0.5801
  357MOL0     H49197   3.967   3.509   3.653 -0.4625 -1.1943 -0.7782
  357MOL0     H49198   4.096   3.432   3.453 -2.1149 -0.4835  0.1879
  357MOL0     H49199   4.247   3.414   3.293 -1.8764  0.5494  1.7351
  357MOL0     H49200   4.185   3.242   3.343  0.1891 -0.0483  3.6287
  357MOL0     H49201   4.378   3.145   3.251 -0.7289  0.6823  2.2330
  357MOL0     H49202   4.294   3.253   3.129  2.4723  0.1046 -2.4203
  357MOL0     H49203   4.461   3.445   3.197 -1.7550  0.9924  1.5448
  357MOL0     H49204   4.557   3.314   3.274 -0.2620 -1.5133 -0.6869
  357MOL0     H49205   4.576   3.207   3.054  2.5220  0.0524 -0.3781
  357MOL0     H49206   4.480   3.335   2.977 -0.7842 -0.7654  0.2921
  357MOL0     H49207   4.743   3.389   3.127  0.4428 -1.8714  0.2195
  357MOL0     H49208   4.650   3.499   3.029 -0.3396 -0.4885 -1.8530
  357MOL0     H49209   4.817   3.248   2.955  0.6889 -0.5654 -1.0709
  357MOL0     H49210   4.686   3.295   2.843  0.5548 -0.3321 -0.9877
  357MOL0     H49211   4.935   3.377   2.816 -0.4456  1.5399 -3.2976
  357MOL0     H49212   4.907   3.474   2.957  1.4613 -2.9974  0.1769
  357MOL0     H49213   4.801   3.490   2.662  2.4023 -0.7730 -0.2634
  357MOL0     H49214   4.711   3.571   2.800 -0.7352 -0.1999 -0.6814
  357MOL0     H49215   5.077   3.542   2.667  1.3738  0.9805 -1.2682
  357MOL0     H49216   5.296   3.727   2.633  1.3660  1.6409  0.2183
  357MOL0     H49217   5.291   3.814   2.777  1.5767 -0.6229 -0.3230
  357MOL0     H49218   5.162   3.919   2.526 -1.5689 -1.3659  1.2297
  357MOL0     H49219   5.195   4.007   2.674  1.1330 -0.0530 -1.5475
  357MOL0     H49220   5.457   3.935   2.622  0.0882 -0.2881 -0.0568
  357MOL0     H49221   5.384   3.918   2.461 -0.6836 -1.2890  1.4619
  357MOL0     H49222   5.310   4.156   2.511 -0.9602  1.1984  1.3011
  357MOL0     H49223   5.405   4.139   2.670  0.8466 -1.4185  0.3673
  357MOL0     H49224   5.528   4.400   2.529  1.9131 -1.0996 -2.5446
  357MOL0     H49225   5.780   4.625   2.635 -0.2650 -0.2834 -0.0813
  357MOL0     H49226   5.665   4.592   2.764  0.7946  0.2257  0.5138
  357MOL0     H49227   5.602   4.615   2.609 -0.5597  1.7177  1.1646
  357MOL0     H49228   6.013   4.358   3.080 -0.0442 -0.5270 -0.3483
  357MOL0     H49229   6.178   4.420   3.224 -2.7748  1.6341  1.2353
  357MOL0     H49230   6.246   4.617   3.416  0.8727 -1.9058  2.1750
  357MOL0     H49231   6.333   4.493   3.331 -3.4560  0.9208 -0.6293
  357MOL0     H49232   6.482   4.759   3.411 -1.8774  0.2212  0.4376
  357MOL0     H49233   6.445   4.639   3.531  2.7862  0.6799  0.5745
  357MOL0     H49234   6.593   4.553   3.286 -0.4265 -0.7913 -0.0634
  357MOL0     H49235   6.536   4.458   3.416 -2.0310  0.6240 -1.9245
  357MOL0     H49236   6.678   4.571   3.576  0.0570 -0.9279 -0.9282
  357MOL0     H49237   6.728   4.702   3.459  1.8004  0.7977  3.3725
  357MOL0     H49238   6.880   4.498   3.503 -1.1360  1.2519  2.0004
  357MOL0     H49239   6.768   4.404   3.404  0.6597  1.0315 -1.6814
  357MOL0     H49240   6.972   4.596   3.331 -0.9760 -1.7978  3.7089
  357MOL0     H49241   6.833   4.602   3.218  0.6446  0.8654  0.8756
  357MOL0     H49242   6.862   4.342   3.215  1.6165  0.1161  0.3958
  357MOL0     H49243   7.021   4.364   3.283  2.7147  1.4672 -1.1989
  357MOL0     H49244   7.087   4.491   3.094 -0.9203  0.9718 -2.1249
  357MOL0     H49245   6.916   4.472   3.026 -2.0488 -2.0901  0.5751
  357MOL0     H49246   6.212   4.800   3.010  0.0163  0.5270  1.0125
  357MOL0     H49247   6.008   4.729   2.868  2.2808 -1.6203 -3.1008
  357MOL0     H49248   5.899   4.167   2.745 -0.4772 -1.0313 -0.0620
  357MOL0     H49249   5.724   4.039   2.610 -4.7340 -1.2032  3.9707
  357MOL0     H49250   4.394   3.260   3.701 -0.4359 -0.1059 -0.4235
  357MOL0     H49251   4.253   3.292   3.890 -2.3057  2.0489  1.9434
  357MOL0     H49252   3.861   3.361   4.058 -0.3529  0.2569  2.2330
  357MOL0     H49253   3.644   3.391   4.130  3.5999 -2.0250 -1.8064
  357MOL0     H49254   3.454   3.509   4.117  2.9023  0.1335  0.8278
  357MOL0     H49255   3.425   3.476   4.292  1.7366 -0.9635 -1.1506
  357MOL0     H49256   3.214   3.567   4.188 -0.7971 -0.0092  1.3686
  357MOL0     H49257   3.297   3.720   4.143  0.2041  0.2855 -0.4370
  357MOL0     H49258   3.307   3.612   4.425  2.0773  0.8253 -0.6515
  357MOL0     H49259   3.334   3.772   4.366  0.7540  0.4998  0.0277
  357MOL0     H49260   3.082   3.786   4.307 -0.7283  0.0753  0.3288
  357MOL0     H49261   3.131   3.770   4.470 -0.0142  0.9771 -0.5743
  357MOL0     H49262   2.890   3.435   4.324  1.1855 -0.3721 -0.0312
  357MOL0     H49263   3.730   3.802   4.228 -0.5876 -1.8669  2.6764
  357MOL0     H49264   4.066   3.778   4.150 -0.1095  0.0359 -0.7652
  357MOL0     H49265   3.957   3.861   4.023 -0.7338 -0.7795  0.0172
  357MOL0     H49266   3.948   3.874   4.205  1.1943 -0.4194  1.5194
  358MOL0     O49267   1.163   4.967  10.202  0.1696  0.2939 -0.3077
  358MOL0     C49268   1.184   4.895  10.103 -0.6148 -0.6374 -0.0136
  358MOL0     O49269   1.306   4.883  10.045  0.3192 -0.3501 -0.4936
  358MOL0     C49270   1.421   4.927  10.111  0.6211  0.0974 -0.8147
  358MOL0     C49271   1.435   5.050  10.182 -0.3208 -0.8359 -0.1440
  358MOL0     C49272   1.552   5.083  10.245 -0.8261  0.2107 -0.2299
  358MOL0     C49273   1.670   4.997  10.226  0.8695  0.4030 -0.6106
  358MOL0     O49274   1.796   5.025  10.261  0.0756  0.3156 -0.1858
  358MOL0     C49275   1.811   5.142  10.337  0.3582 -0.4887  0.0806
  358MOL0     C49276   1.959   5.177  10.358 -0.6029  0.4217 -0.1693
  358MOL0     C49277   2.032   5.057  10.432 -0.1735 -0.4333  0.0764
  358MOL0     C49278   2.178   5.043  10.386  0.1496 -0.6641 -0.6945
  358MOL0     C49279   2.261   4.935  10.464  0.0177  0.4545  0.0711
  358MOL0     C49280   2.388   4.899  10.394 -0.3685  0.0877  0.0023
  358MOL0     C49281   2.472   4.794  10.476  0.7420 -0.2689 -0.4806
  358MOL0     C49282   2.587   4.759  10.379  0.0625  0.1289 -0.3815
  358MOL0     N49283   2.684   4.657  10.435 -0.4278 -0.4551  0.7158
  358MOL0     C49284   2.732   4.656  10.564 -0.1275  0.0384 -0.1421
  358MOL0     C49285   2.823   4.560  10.555  0.2803 -0.3559  0.4717
  358MOL0     C49286   2.926   4.529  10.654  0.1487  0.4749 -0.3774
  358MOL0     C49287   3.039   4.429  10.617 -0.6199  0.1118 -0.0760
  358MOL0     C49288   3.146   4.465  10.527 -0.3574  0.2698  0.3151
  358MOL0     C49289   3.239   4.344  10.499  0.4037  0.4307 -0.1634
  358MOL0     O49290   3.319   4.345  10.625 -0.7779  0.1980 -0.3732
  358MOL0     C49291   3.443   4.274  10.615 -0.1462  0.4770 -0.1904
  358MOL0     C49292   3.458   4.169  10.707  0.0206 -0.0996 -0.1333
  358MOL0     C49293   3.577   4.090  10.700  0.5018 -0.0695  0.0681
  358MOL0     C49294   3.587   3.981  10.798  0.9779  0.0147  0.2320
  358MOL0     C49295   3.682   4.115  10.615 -0.3010 -0.0610  0.5559
  358MOL0     C49296   3.816   4.042  10.599 -0.9971  0.1249  0.3750
  358MOL0     O49297   3.905   4.081  10.499 -0.1378  0.6065  0.2985
  358MOL0     C49298   4.023   4.013  10.489  1.5051 -0.3346 -0.4480
  358MOL0     C49299   4.056   3.958  10.368 -0.1634 -0.3298 -0.1158
  358MOL0     C49300   4.183   3.899  10.349  0.2669  0.0224  0.0911
  358MOL0     C49301   4.278   3.889  10.455 -0.3452  0.9029  0.8970
  358MOL0     O49302   4.406   3.842  10.450 -0.3279  0.2549 -0.3467
  358MOL0     C49303   4.452   3.769  10.340 -0.0606  0.4851 -0.8536
  358MOL0     C49304   4.498   3.849  10.220  0.6234 -0.7922  0.5281
  358MOL0     C49305   4.545   3.984  10.263 -0.0719  0.2588  0.2288
  358MOL0     C49306   4.686   3.981  10.322  0.0067 -0.4626 -0.5926
  358MOL0     C49307   4.727   4.116  10.374 -0.1519  0.3368 -0.1009
  358MOL0     C49308   4.634   4.163  10.497 -0.1049 -0.2790 -0.3736
  358MOL0     C49309   4.686   4.298  10.557  0.2746  0.5739  0.0235
  358MOL0     C49310   4.666   4.297  10.712  0.3026 -0.2561  0.2873
  358MOL0    Cl49311   4.492   4.305  10.738  0.1253 -0.4225 -0.0544
  358MOL0     C49312   4.248   3.949  10.576  0.1426 -0.1256 -0.4490
  358MOL0     C49313   4.123   4.016  10.590  0.4941  1.1986 -0.6043
  358MOL0     O49314   3.846   3.962  10.685  0.6478 -0.4870 -0.3109
  358MOL0     C49315   3.667   4.231  10.533 -0.6234  0.6216  0.2880
  358MOL0     C49316   3.547   4.298  10.526  0.3105 -0.3690 -0.2598
  358MOL0     N49317   2.815   4.490  10.429 -0.8130  0.1049 -0.2813
  358MOL0     N49318   2.731   4.557  10.354  0.1114 -0.2641 -0.1401
  358MOL0     C49319   1.656   4.874  10.158  0.9368 -0.3391 -0.5538
  358MOL0     C49320   1.532   4.838  10.098  0.3030  0.0485  0.5895
  358MOL0     C49321   1.066   4.839  10.030 -0.4683 -0.1360  0.4229
  358MOL0     C49322   1.091   4.773   9.908 -0.0951  0.2581 -0.7488
  358MOL0     C49323   0.993   4.697   9.840 -0.1727  0.6048  0.0521
  358MOL0     C49324   0.866   4.703   9.904  0.5581 -0.2088  0.5546
  358MOL0     O49325   0.752   4.632   9.854 -0.3748  0.0418  0.7416
  358MOL0     C49326   0.745   4.588   9.717  0.2124 -0.5554 -0.1076
  358MOL0     C49327   0.694   4.698   9.616 -0.3560 -0.5959  0.4782
  358MOL0     C49328   0.553   4.756   9.646  0.9756 -0.8209 -0.0708
  358MOL0     C49329   0.512   4.894   9.586  0.4024  0.4444  0.2793
  358MOL0     C49330   0.470   4.881   9.446 -0.1734 -0.2112 -0.1874
  358MOL0     C49331   0.439   4.854   9.330 -0.0677 -0.5394  1.0475
  358MOL0     C49332   0.843   4.779  10.018  0.1721  0.5821  0.0762
  358MOL0     C49333   0.940   4.844  10.084 -0.3272  0.0273 -0.0607
  358MOL0     C49334   0.892   4.922  10.209  0.2564  0.1255  0.8564
  358MOL0     H49335   1.355   5.124  10.182  1.4426  1.1624 -0.7571
  358MOL0     H49336   1.545   5.178  10.297 -1.9570  1.2247 -2.1172
  358MOL0     H49337   1.774   5.126  10.438  0.3883  0.5929  0.2776
  358MOL0     H49338   1.756   5.227  10.295  1.0095 -0.0205  0.1530
  358MOL0     H49339   2.002   5.198  10.259 -0.4598  0.0164 -0.1950
  358MOL0     H49340   1.968   5.264  10.423 -1.1862  0.0194  0.4687
  358MOL0     H49341   2.031   5.062  10.541  0.3096 -3.5522  0.3340
  358MOL0     H49342   1.989   4.960  10.405  2.0280 -1.4489  0.0099
  358MOL0     H49343   2.169   5.016  10.280  0.0097 -2.4892 -0.2502
  358MOL0     H49344   2.224   5.142  10.392 -0.6362 -0.3503  0.3488
  358MOL0     H49345   2.207   4.840  10.474  2.1021 -1.0189 -1.7469
  358MOL0     H49346   2.286   4.957  10.568  1.3259  1.0890 -0.3558
  358MOL0     H49347   2.350   4.851  10.304 -1.7432 -1.6378  1.4156
  358MOL0     H49348   2.450   4.988  10.382 -1.6321  0.9440 -0.3888
  358MOL0     H49349   2.409   4.708  10.497  2.2073 -1.2871 -0.1124
  358MOL0     H49350   2.501   4.834  10.573 -1.9586 -0.3238  0.4354
  358MOL0     H49351   2.548   4.712  10.288  2.3106  0.4196 -1.5761
  358MOL0     H49352   2.642   4.850  10.351  2.1294 -1.1141 -0.6072
  358MOL0     H49353   2.712   4.704  10.659  1.2991 -1.2184  0.8358
  358MOL0     H49354   2.874   4.496  10.745  1.6450  3.2039  1.6218
  358MOL0     H49355   2.973   4.624  10.682 -0.7437  1.2253 -1.3823
  358MOL0     H49356   3.092   4.410  10.711 -1.4997  0.4197  0.4972
  358MOL0     H49357   2.995   4.335  10.582 -1.4013 -0.1609  1.5250
  358MOL0     H49358   3.100   4.490  10.431  0.4788 -3.8275 -1.3497
  358MOL0     H49359   3.197   4.549  10.574 -1.7866  1.3493  0.0126
  358MOL0     H49360   3.197   4.245  10.485  1.1470  0.1330 -0.3414
  358MOL0     H49361   3.298   4.360  10.408  1.8068 -1.3109  0.3966
  358MOL0     H49362   3.396   4.147  10.793  1.4712 -1.1181  0.6867
  358MOL0     H49363   3.604   3.882  10.755 -0.8922 -0.5694  0.7027
  358MOL0     H49364   3.486   3.969  10.840  0.4577  2.6721 -0.1131
  358MOL0     H49365   3.651   4.014  10.880  1.0398  1.8366 -0.5066
  358MOL0     H49366   3.993   3.961  10.280  0.4776  1.8867 -0.5708
  358MOL0     H49367   4.203   3.858  10.250  4.1600 -2.7753  1.7698
  358MOL0     H49368   4.537   3.719  10.387  0.0023  0.3258 -1.1322
  358MOL0     H49369   4.385   3.687  10.314 -1.1494  0.6513  1.2276
  358MOL0     H49370   4.570   3.790  10.161  2.4593  0.1541  1.7366
  358MOL0     H49371   4.417   3.872  10.150  1.4116  3.6651  0.8125
  358MOL0     H49372   4.474   4.035  10.329  0.7826  2.0317 -0.1678
  358MOL0     H49373   4.551   4.050  10.176  0.2488 -0.0913 -0.0207
  358MOL0     H49374   4.757   3.943  10.248 -1.2199  1.8938 -3.1442
  358MOL0     H49375   4.697   3.917  10.411  2.9088 -0.8113 -1.1125
  358MOL0     H49376   4.831   4.126  10.406 -0.1990  0.6648 -0.0459
  358MOL0     H49377   4.726   4.196  10.299 -0.7094 -0.3063 -0.7965
  358MOL0     H49378   4.634   4.086  10.575  1.1878 -0.9820 -1.0414
  358MOL0     H49379   4.536   4.187  10.456  0.2911  2.1815 -0.0375
  358MOL0     H49380   4.625   4.384  10.530 -0.9828  0.0765  1.1688
  358MOL0     H49381   4.794   4.312  10.548  0.5640 -1.0491  0.6072
  358MOL0     H49382   4.708   4.388  10.757 -0.5370  1.2097 -1.7301
  358MOL0     H49383   4.716   4.213  10.762  1.9750 -0.0678 -0.9830
  358MOL0     H49384   4.312   3.940  10.664  0.7097 -0.7653 -0.9138
  358MOL0     H49385   4.092   4.053  10.687  3.9811 -1.5248  1.8413
  358MOL0     H49386   3.744   4.273  10.470 -2.0983 -0.4875 -2.4151
  358MOL0     H49387   3.540   4.381  10.457  1.4173 -2.0142 -2.4556
  358MOL0     H49388   1.741   4.807  10.158 -0.8043 -2.8634  3.4034
  358MOL0     H49389   1.543   4.749  10.036  2.2189 -0.0796  1.0585
  358MOL0     H49390   1.192   4.765   9.868  1.3170 -1.8566  2.7302
  358MOL0     H49391   1.023   4.630   9.761  1.0557  0.5928  0.4995
  358MOL0     H49392   0.842   4.546   9.687  0.9912 -0.6261  2.2552
  358MOL0     H49393   0.683   4.499   9.701  3.1357 -2.3465 -2.6472
  358MOL0     H49394   0.701   4.645   9.521  0.3925 -0.8651  0.6747
  358MOL0     H49395   0.763   4.783   9.619 -0.4390 -0.4247 -1.3254
  358MOL0     H49396   0.483   4.680   9.610  0.1509 -0.2207  0.2188
  358MOL0     H49397   0.558   4.770   9.754  1.6037 -1.7528  0.0298
  358MOL0     H49398   0.595   4.966   9.581  0.3809  0.3818 -3.0610
  358MOL0     H49399   0.436   4.945   9.645  0.4196  0.1704  0.5420
  358MOL0     H49400   0.406   4.835   9.230  1.3504  0.9421  0.2498
  358MOL0     H49401   0.743   4.763  10.058  0.3549 -1.5827 -0.2011
  358MOL0     H49402   0.904   4.861  10.299 -1.8440 -2.2545 -0.3382
  358MOL0     H49403   0.939   5.020  10.215  0.6792  0.1187 -1.3679
  358MOL0     H49404   0.787   4.954  10.202  0.3183  0.2642  0.5639
  359MOL0     O49405   9.758   2.499   9.794 -0.8076  0.1120 -0.0114
  359MOL0     C49406   9.632   2.525   9.805 -0.4345  0.4051 -0.0066
  359MOL0     O49407   9.577   2.647   9.768  0.7057  0.5214  0.5433
  359MOL0     C49408   9.667   2.726   9.703  0.0377  0.1089  0.4706
  359MOL0     C49409   9.696   2.699   9.567  0.1354 -0.1054  0.0152
  359MOL0     C49410   9.779   2.780   9.491  0.2379  0.5204  0.1852
  359MOL0     C49411   9.841   2.887   9.553  0.0020 -0.0454  0.4703
  359MOL0     O49412   9.927   2.965   9.476 -0.3037 -0.1689 -0.0666
  359MOL0     C49413  10.017   3.057   9.549 -0.4359  0.2294  0.0688
  359MOL0     C49414  10.121   3.097   9.439 -0.0522  1.0022 -0.0188
  359MOL0     C49415  10.062   3.201   9.340  0.2049  0.2583  0.0422
  359MOL0     C49416  10.147   3.202   9.211 -0.0202 -0.0281 -0.3725
  359MOL0     C49417  10.116   3.337   9.133 -0.0974  0.1719  0.2425
  359MOL0     C49418  10.192   3.452   9.206 -0.0002 -0.4616  0.2135
  359MOL0     C49419  10.179   3.583   9.133 -0.2484 -0.7532 -0.2546
  359MOL0     C49420  10.034   3.644   9.130 -0.2220 -0.0697 -0.3975
  359MOL0     N49421  10.040   3.784   9.185 -0.3355 -0.0013  0.3586
  359MOL0     C49422  10.104   3.892   9.123 -0.1374 -0.3799  0.2179
  359MOL0     C49423  10.063   4.001   9.193 -0.5760 -0.0851 -0.9499
  359MOL0     C49424  10.108   4.150   9.173  0.5723  0.2336  0.3229
  359MOL0     C49425   9.989   4.244   9.127  0.4212  0.3384 -0.7298
  359MOL0     C49426   9.865   4.265   9.224 -0.0673 -0.0137  0.4003
  359MOL0     C49427   9.895   4.360   9.348  0.0972  0.3407  0.1553
  359MOL0     O49428   9.786   4.390   9.433  0.9672  0.7463 -0.4740
  359MOL0     C49429   9.711   4.505   9.415  0.5483 -0.2323 -0.2654
  359MOL0     C49430   9.697   4.575   9.284 -0.0097 -0.0187  0.0120
  359MOL0     C49431   9.620   4.691   9.273 -0.4473  0.3376  0.3520
  359MOL0     C49432   9.614   4.767   9.143 -0.4880 -0.7011  0.4152
  359MOL0     C49433   9.533   4.725   9.386  0.4741  0.1346  0.1697
  359MOL0     C49434   9.433   4.834   9.385 -0.6906  0.2183 -0.4443
  359MOL0     O49435   9.458   4.957   9.324 -0.2747 -0.6130 -0.2114
  359MOL0     C49436   9.390   5.063   9.383  0.8154  0.5390 -0.0307
  359MOL0     C49437   9.317   5.150   9.298  0.2347  1.1711 -0.3970
  359MOL0     C49438   9.249   5.260   9.351 -0.1400  0.5198  0.3049
  359MOL0     C49439   9.266   5.291   9.486  0.5853  0.1600  0.8159
  359MOL0     O49440   9.195   5.407   9.520 -0.2028 -0.1264  0.5880
  359MOL0     C49441   9.178   5.440   9.654  0.3095 -0.1959 -0.8584
  359MOL0     C49442   9.038   5.507   9.667  0.5991  0.0659 -0.8441
  359MOL0     C49443   9.035   5.656   9.667  0.0545 -0.1667 -0.0920
  359MOL0     C49444   8.897   5.707   9.686  0.0491 -0.0799  0.8667
  359MOL0     C49445   8.888   5.855   9.647 -0.6852  0.2833 -0.1105
  359MOL0     C49446   8.895   5.871   9.493 -0.5256 -0.6482 -0.5913
  359MOL0     C49447   8.874   6.018   9.448 -0.7230  0.8387 -0.3484
  359MOL0     C49448   8.753   6.086   9.504 -0.4147  0.3315 -1.0940
  359MOL0    Cl49449   8.608   6.014   9.430  0.1941  0.4509  0.2319
  359MOL0     C49450   9.343   5.212   9.565 -0.9348  0.2206 -0.9003
  359MOL0     C49451   9.407   5.093   9.517  0.2219 -1.0692  0.1962
  359MOL0     O49452   9.325   4.808   9.434  0.3921  0.0965 -0.7957
  359MOL0     C49453   9.546   4.661   9.515  1.1280  0.7016 -0.5556
  359MOL0     C49454   9.637   4.550   9.525  0.5921 -1.1339  0.2128
  359MOL0     N49455   9.970   3.957   9.290 -0.1476  0.4467 -0.5811
  359MOL0     N49456   9.957   3.833   9.280  0.3455 -0.7866 -0.5106
  359MOL0     C49457   9.809   2.914   9.690  0.4369  0.4563 -1.2237
  359MOL0     C49458   9.727   2.833   9.769 -0.0115 -0.3954 -0.0367
  359MOL0     C49459   9.535   2.421   9.853  0.7474 -0.5042  0.5751
  359MOL0     C49460   9.428   2.469   9.941  0.6102 -0.3469 -0.0688
  359MOL0     C49461   9.324   2.380   9.984 -0.4739 -0.1786 -0.0863
  359MOL0     C49462   9.338   2.247   9.947 -0.1152  0.0238 -0.2179
  359MOL0     O49463   9.240   2.164   9.993 -0.1952  0.0431  0.1615
  359MOL0     C49464   9.234   2.029   9.947 -0.1869  0.1171  0.4384
  359MOL0     C49465   9.336   1.940  10.022 -0.2468 -0.5234  0.1432
  359MOL0     C49466   9.328   1.793   9.998  0.0986 -0.1415  0.0093
  359MOL0     C49467   9.244   1.714  10.087  0.0494 -0.5132 -1.5647
  359MOL0     C49468   9.106   1.753  10.073 -0.5314 -1.2839 -0.1157
  359MOL0     C49469   8.990   1.783  10.055  0.2089  0.4736  0.2338
  359MOL0     C49470   9.452   2.200   9.872 -0.3157 -0.0619 -0.1003
  359MOL0     C49471   9.552   2.283   9.829 -0.8265 -0.4794  0.6307
  359MOL0     C49472   9.653   2.233   9.728 -0.1430 -0.2688  0.0137
  359MOL0     H49473   9.648   2.608   9.532  2.6758 -3.2220  3.7965
  359MOL0     H49474   9.798   2.755   9.387  1.7107  1.3630  0.2183
  359MOL0     H49475  10.063   3.016   9.640  2.0208  2.5273 -0.0131
  359MOL0     H49476   9.965   3.147   9.583  0.4473  0.6041  0.4640
  359MOL0     H49477  10.217   3.141   9.470  1.2429  0.6477 -3.1703
  359MOL0     H49478  10.142   2.999   9.395 -0.6615  1.3260 -1.0555
  359MOL0     H49479   9.963   3.167   9.309 -0.4952  1.0077  1.3487
  359MOL0     H49480  10.058   3.294   9.398 -1.8583  0.8122 -0.8923
  359MOL0     H49481  10.255   3.203   9.229  0.1519  0.9971 -1.3456
  359MOL0     H49482  10.121   3.117   9.148  0.4471  1.7253 -3.0687
  359MOL0     H49483  10.010   3.354   9.113 -0.4577 -1.4159  0.6779
  359MOL0     H49484  10.163   3.330   9.034 -1.6544 -2.4694 -0.3990
  359MOL0     H49485  10.152   3.462   9.307 -1.6216  0.6223 -0.4969
  359MOL0     H49486  10.298   3.426   9.216 -0.2356 -1.0043  1.4986
  359MOL0     H49487  10.222   3.574   9.033  2.0969 -1.0182  0.7171
  359MOL0     H49488  10.244   3.657   9.181 -1.7795  0.4652  0.0261
  359MOL0     H49489   9.992   3.644   9.029  2.8442 -1.8401 -1.8164
  359MOL0     H49490   9.962   3.588   9.190 -0.0154 -0.8285 -0.8469
  359MOL0     H49491  10.156   3.895   9.027 -1.8553  0.9076 -0.7407
  359MOL0     H49492  10.186   4.143   9.097 -2.1327  0.1269 -2.6425
  359MOL0     H49493  10.159   4.198   9.257  2.0278 -0.8338  0.0767
  359MOL0     H49494  10.032   4.345   9.121  0.1046  0.4726 -0.7426
  359MOL0     H49495   9.951   4.217   9.028  1.1782  1.8166 -1.4768
  359MOL0     H49496   9.796   4.314   9.155  0.2793 -2.4263 -1.8302
  359MOL0     H49497   9.820   4.173   9.262 -1.2423 -0.1115 -1.1539
  359MOL0     H49498   9.975   4.312   9.404 -1.1088 -0.5912  1.1494
  359MOL0     H49499   9.928   4.460   9.319 -0.7035  0.7242  0.5166
  359MOL0     H49500   9.730   4.521   9.196  0.4686 -0.6349  0.5608
  359MOL0     H49501   9.659   4.866   9.153  0.1983 -1.1937  2.8983
  359MOL0     H49502   9.513   4.775   9.102  0.2108 -2.7643 -1.9949
  359MOL0     H49503   9.679   4.716   9.071 -0.6350  2.0757 -1.8831
  359MOL0     H49504   9.319   5.122   9.193  2.9198 -1.2703  0.1909
  359MOL0     H49505   9.191   5.337   9.302  1.5827  1.3000 -0.5821
  359MOL0     H49506   9.174   5.357   9.725 -0.5980 -0.8845 -1.6772
  359MOL0     H49507   9.254   5.510   9.686 -2.5766  2.3830  0.8964
  359MOL0     H49508   8.970   5.470   9.590 -0.5721  1.1343 -0.3484
  359MOL0     H49509   8.997   5.472   9.762  3.2073 -0.5467  0.1404
  359MOL0     H49510   9.088   5.683   9.575 -1.7634 -2.3564 -1.9334
  359MOL0     H49511   9.090   5.695   9.753 -1.0159  0.7732  0.1888
  359MOL0     H49512   8.850   5.687   9.783 -1.6006 -2.3083 -0.2875
  359MOL0     H49513   8.836   5.646   9.618  0.8872  0.5490 -0.4907
  359MOL0     H49514   8.786   5.887   9.667 -0.9873  0.6811 -2.0878
  359MOL0     H49515   8.968   5.906   9.702 -2.2000  2.2197  0.3844
  359MOL0     H49516   8.811   5.813   9.453 -2.8321  1.4852  0.9293
  359MOL0     H49517   8.991   5.833   9.456  0.7287  0.8148  0.9984
  359MOL0     H49518   8.877   6.017   9.339 -0.3479 -1.4949 -0.3810
  359MOL0     H49519   8.957   6.080   9.484  0.8141 -1.0581 -0.4334
  359MOL0     H49520   8.769   6.194   9.495  1.9324  0.3385  1.7878
  359MOL0     H49521   8.752   6.077   9.613  0.0274  0.5249 -1.0732
  359MOL0     H49522   9.341   5.237   9.671 -1.6206 -0.5809 -0.7184
  359MOL0     H49523   9.442   5.016   9.584 -0.6636 -2.1495 -0.5515
  359MOL0     H49524   9.485   4.697   9.598  2.1715 -0.5888  0.8077
  359MOL0     H49525   9.656   4.495   9.616 -0.5689 -0.5416  0.8390
  359MOL0     H49526   9.856   2.998   9.741 -1.0912 -0.4310  1.9153
  359MOL0     H49527   9.708   2.839   9.876  3.0578 -1.6013  0.6826
  359MOL0     H49528   9.407   2.575   9.950  1.5163  0.0463 -2.0098
  359MOL0     H49529   9.235   2.418  10.033  0.7472 -1.3014  3.2582
  359MOL0     H49530   9.137   1.991   9.978 -0.5108 -0.4103 -1.1410
  359MOL0     H49531   9.247   2.001   9.842  3.9037 -0.2138  0.8654
  359MOL0     H49532   9.327   1.957  10.129 -1.3118 -1.3222  0.2056
  359MOL0     H49533   9.435   1.967   9.983 -0.3337 -1.0766 -0.4904
  359MOL0     H49534   9.304   1.778   9.893  0.5759  0.5033 -0.1896
  359MOL0     H49535   9.427   1.747  10.006  1.0593  2.0154  1.5723
  359MOL0     H49536   9.271   1.715  10.192 -0.6761 -1.2638 -1.3557
  359MOL0     H49537   9.254   1.608  10.061 -0.2767 -1.3732  1.4913
  359MOL0     H49538   8.890   1.819  10.041  0.6386  1.5447 -0.2107
  359MOL0     H49539   9.471   2.097   9.845 -1.9794 -0.2296 -0.7159
  359MOL0     H49540   9.645   2.296   9.639 -0.0757  1.0970  0.9487
  359MOL0     H49541   9.750   2.241   9.778 -0.0375  1.3118 -0.3999
  359MOL0     H49542   9.641   2.126   9.709 -1.2057 -0.4337  1.4388
  360MOL0     O49543   9.391  11.015   0.680  0.3809 -0.4703 -0.1256
  360MOL0     C49544   9.339  11.110   0.614  0.5610  0.8965 -0.6980
  360MOL0     O49545   9.362  11.145   0.479  0.1079 -0.2651 -0.7615
  360MOL0     C49546   9.468  11.088   0.423 -0.6060  0.3516  0.1691
  360MOL0     C49547   9.589  11.157   0.422 -0.3016 -0.3104  0.2164
  360MOL0     C49548   9.698  11.102   0.353 -0.5585  0.3747  0.1485
  360MOL0     C49549   9.695  10.981   0.284 -0.1804 -0.2087 -0.2155
  360MOL0     O49550   9.824  10.943   0.237  0.5398  0.0708  0.0179
  360MOL0     C49551   9.837  10.810   0.183 -0.1482  0.5368 -0.4560
  360MOL0     C49552   9.987  10.782   0.197  0.3053  0.2636 -0.3995
  360MOL0     C49553  10.085  10.878   0.131  0.3926  0.4716 -0.2448
  360MOL0     C49554  10.052  10.897  -0.012 -0.0736 -0.1114  0.7246
  360MOL0     C49555  10.110  11.022  -0.073 -0.2481 -0.1321 -0.0622
  360MOL0     C49556  10.070  11.039  -0.222 -0.5895  0.4018 -0.3301
  360MOL0     C49557  10.134  10.930  -0.309  0.2805  0.8470  0.4116
  360MOL0     C49558  10.288  10.938  -0.324  0.1602  0.3954  0.0374
  360MOL0     N49559  10.329  11.076  -0.368  0.2987  0.1697 -1.3315
  360MOL0     C49560  10.278  11.132  -0.476  0.1944  0.5647  0.2551
  360MOL0     C49561  10.334  11.255  -0.487 -0.3759 -0.5040  0.1303
  360MOL0     C49562  10.307  11.362  -0.597  0.5741 -0.0212 -0.6578
  360MOL0     C49563  10.209  11.471  -0.544 -0.1185  1.0736  0.2404
  360MOL0     C49564  10.062  11.436  -0.523  0.2354  0.4103  0.2396
  360MOL0     C49565  10.002  11.342  -0.625 -0.0315  0.0743 -0.3189
  360MOL0     O49566   9.862  11.326  -0.598  1.2299 -0.2668 -0.1716
  360MOL0     C49567   9.812  11.216  -0.657  0.2001  0.2134  0.3006
  360MOL0     C49568   9.837  11.083  -0.608 -0.8196  0.3831 -0.1784
  360MOL0     C49569   9.794  10.974  -0.675 -0.1710  0.1034  0.9479
  360MOL0     C49570   9.825  10.843  -0.604  1.0755 -0.1355 -0.1162
  360MOL0     C49571   9.714  10.981  -0.792  0.5593  0.1781  0.5793
  360MOL0     C49572   9.625  10.874  -0.855 -0.5325  0.7430  0.3900
  360MOL0     O49573   9.607  10.746  -0.798  0.0296 -0.3505 -0.0162
  360MOL0     C49574   9.535  10.654  -0.868  0.5964 -0.2710  0.5646
  360MOL0     C49575   9.616  10.565  -0.950  0.5430 -0.6528 -0.0029
  360MOL0     C49576   9.545  10.459  -1.010  0.7927  0.0665 -0.4814
  360MOL0     C49577   9.409  10.440  -1.001  0.1056 -0.1222 -0.2984
  360MOL0     O49578   9.332  10.351  -1.066  0.1291  0.4353  0.3881
  360MOL0     C49579   9.375  10.263  -1.171  0.0346 -0.6646 -0.1546
  360MOL0     C49580   9.267  10.221  -1.273  0.8645  0.6413  0.5577
  360MOL0     C49581   9.225  10.321  -1.375 -0.3931  0.3904  0.5319
  360MOL0     C49582   9.134  10.252  -1.480  0.2337 -0.1990 -1.2406
  360MOL0     C49583   9.085  10.343  -1.595 -0.3491 -0.9222 -0.1549
  360MOL0     C49584   8.993  10.453  -1.544  0.5185  0.4438 -0.5034
  360MOL0     C49585   9.001  10.583  -1.621 -0.1733  0.1277  0.6405
  360MOL0     C49586   8.942  10.694  -1.543  0.2797 -1.2115  0.2018
  360MOL0    Cl49587   8.946  10.860  -1.633 -0.4857 -0.4465  0.3138
  360MOL0     C49588   9.334  10.527  -0.919 -0.1043 -0.6001 -0.3846
  360MOL0     C49589   9.397  10.637  -0.860  0.8291 -0.4091  0.5485
  360MOL0     O49590   9.576  10.906  -0.963 -0.0009  0.2064 -0.0732
  360MOL0     C49591   9.679  11.116  -0.828 -0.0520  0.4766  0.3800
  360MOL0     C49592   9.729  11.226  -0.768 -0.1688 -0.2703  0.0316
  360MOL0     N49593  10.401  11.274  -0.374 -0.1551 -0.5647 -0.6108
  360MOL0     N49594  10.397  11.172  -0.294  0.2693 -0.3859 -0.2120
  360MOL0     C49595   9.577  10.904   0.299  0.8382  0.1481  0.7809
  360MOL0     C49596   9.458  10.959   0.361 -0.1202  0.8334  0.1242
  360MOL0     C49597   9.238  11.196   0.688 -0.6861 -0.0802 -0.5954
  360MOL0     C49598   9.159  11.283   0.613  0.5398  0.6718 -0.3620
  360MOL0     C49599   9.072  11.379   0.672  0.1073 -0.0259  0.5164
  360MOL0     C49600   9.057  11.388   0.809  0.2952  0.6419  0.2526
  360MOL0     O49601   8.976  11.491   0.843  0.7580 -0.6485 -0.0964
  360MOL0     C49602   8.973  11.519   0.983  0.5184 -0.8250 -0.0719
  360MOL0     C49603   8.929  11.668   0.979 -0.4168 -0.1610 -0.3365
  360MOL0     C49604   9.041  11.764   0.926 -0.0562  0.6294 -0.2438
  360MOL0     C49605   8.993  11.903   0.904  0.0198  1.0051 -0.0553
  360MOL0     C49606   8.964  11.974   1.037  0.5268  0.1880  1.2445
  360MOL0     C49607   8.935  12.036   1.137  0.0370  0.1382  0.5710
  360MOL0     C49608   9.141  11.298   0.889  0.7526 -0.2279 -0.7148
  360MOL0     C49609   9.230  11.206   0.830 -0.1033 -0.3684 -0.1256
  360MOL0     C49610   9.327  11.130   0.923  1.0103  0.2198  0.1439
  360MOL0     H49611   9.593  11.247   0.482 -2.3028  0.5477 -0.8397
  360MOL0     H49612   9.791  11.158   0.360  0.1155 -0.7191  0.1840
  360MOL0     H49613   9.804  10.815   0.079 -1.4279  1.4782 -0.0283
  360MOL0     H49614   9.780  10.735   0.239  1.2309 -1.8465 -2.0768
  360MOL0     H49615  10.016  10.763   0.301  0.5924  1.0480 -0.3316
  360MOL0     H49616  10.000  10.681   0.158  1.1322 -0.8650  2.5148
  360MOL0     H49617  10.085  10.972   0.188  0.3634  0.7361 -0.6764
  360MOL0     H49618  10.189  10.844   0.141  0.4907  0.3240 -1.5651
  360MOL0     H49619  10.092  10.813  -0.069 -0.1470  0.6922 -0.5369
  360MOL0     H49620   9.945  10.896  -0.035 -0.9636 -0.4546  4.2322
  360MOL0     H49621  10.218  11.034  -0.064 -0.5011  3.0104 -0.0111
  360MOL0     H49622  10.081  11.112  -0.017 -1.8996 -1.4692  1.3372
  360MOL0     H49623   9.960  11.040  -0.226 -0.6355 -1.1365 -0.3759
  360MOL0     H49624  10.110  11.138  -0.244 -1.1136  0.5099 -0.8280
  360MOL0     H49625  10.091  10.949  -0.408  1.8033  1.8217 -0.0891
  360MOL0     H49626  10.105  10.828  -0.281 -0.0195  0.8299  0.0529
  360MOL0     H49627  10.334  10.903  -0.231 -1.4191 -2.3314 -0.1023
  360MOL0     H49628  10.314  10.871  -0.406  0.3037  3.9519 -3.1079
  360MOL0     H49629  10.222  11.074  -0.549  0.1923 -0.6662  1.1957
  360MOL0     H49630  10.263  11.328  -0.691 -0.7338 -0.6990  0.1643
  360MOL0     H49631  10.403  11.405  -0.625  0.9138 -0.2664  0.0892
  360MOL0     H49632  10.250  11.486  -0.443  0.4076 -1.2638  0.4404
  360MOL0     H49633  10.236  11.564  -0.594 -0.3055  0.3581 -1.2503
  360MOL0     H49634  10.065  11.390  -0.424  2.6162  1.8180  0.9083
  360MOL0     H49635  10.009  11.532  -0.532 -0.8860  0.0382  2.2626
  360MOL0     H49636  10.021  11.390  -0.722  0.4484  2.0286  0.6967
  360MOL0     H49637  10.061  11.250  -0.622  3.6434  2.2963  1.1570
  360MOL0     H49638   9.891  11.076  -0.515 -2.3183 -0.9120  0.6438
  360MOL0     H49639   9.908  10.864  -0.535  1.4088 -2.3191  0.2379
  360MOL0     H49640   9.851  10.762  -0.673 -0.1603  1.3312 -2.4311
  360MOL0     H49641   9.738  10.816  -0.543  0.1164 -1.3000 -1.8911
  360MOL0     H49642   9.722  10.577  -0.971 -0.2318  0.5571 -4.0046
  360MOL0     H49643   9.599  10.407  -1.089 -0.0734  0.1566 -1.1526
  360MOL0     H49644   9.455  10.309  -1.229  0.8644 -1.1532  0.5939
  360MOL0     H49645   9.416  10.169  -1.134  0.6027 -0.7318 -0.9373
  360MOL0     H49646   9.290  10.125  -1.320  0.2928  0.1196  1.3177
  360MOL0     H49647   9.180  10.207  -1.209  0.9773  3.2583  1.3854
  360MOL0     H49648   9.317  10.353  -1.425 -1.0156 -2.6815 -2.9878
  360MOL0     H49649   9.171  10.404  -1.329 -3.0843 -1.6833  1.3543
  360MOL0     H49650   9.047  10.210  -1.428  0.8546 -0.2475 -0.2041
  360MOL0     H49651   9.196  10.168  -1.513  2.7862  2.0306 -2.5393
  360MOL0     H49652   9.170  10.393  -1.643  0.2269  1.1247  2.7517
  360MOL0     H49653   9.023  10.287  -1.666  0.1532  0.8067 -2.0855
  360MOL0     H49654   8.995  10.474  -1.437 -1.9239  0.5216 -0.4188
  360MOL0     H49655   8.894  10.408  -1.555  0.9175 -0.3661 -0.8217
  360MOL0     H49656   8.948  10.566  -1.716  1.4419 -3.8470  0.2335
  360MOL0     H49657   9.104  10.601  -1.653 -1.4004 -1.2303 -5.4343
  360MOL0     H49658   8.999  10.690  -1.449  0.4721 -1.1098  0.0889
  360MOL0     H49659   8.843  10.682  -1.497 -0.5535 -1.5616 -1.6066
  360MOL0     H49660   9.227  10.512  -0.908 -0.4954  0.6363 -2.2309
  360MOL0     H49661   9.345  10.707  -0.796  0.6779 -0.0534  0.0370
  360MOL0     H49662   9.603  11.124  -0.905  0.7622 -1.0361 -0.6305
  360MOL0     H49663   9.701  11.319  -0.816  1.1645 -1.1478 -2.6376
  360MOL0     H49664   9.550  10.812   0.249  0.6306  1.4620 -1.6755
  360MOL0     H49665   9.365  10.904   0.354 -0.9808  1.8750  2.3731
  360MOL0     H49666   9.168  11.281   0.505 -0.6879  0.6876 -0.4756
  360MOL0     H49667   9.033  11.460   0.612 -0.0999 -1.1304 -0.9005
  360MOL0     H49668   8.891  11.461   1.028 -0.0583  1.0132  1.3976
  360MOL0     H49669   9.065  11.510   1.042  0.7665  2.0217  0.0796
  360MOL0     H49670   8.902  11.691   1.083 -0.3442 -0.7597 -0.1793
  360MOL0     H49671   8.842  11.685   0.915 -0.3899  0.8239 -0.1279
  360MOL0     H49672   9.118  11.779   1.002  0.5710 -0.2836 -0.6769
  360MOL0     H49673   9.091  11.723   0.838  0.5299  2.8445 -0.9962
  360MOL0     H49674   8.901  11.902   0.845  0.4039  0.7478 -0.6610
  360MOL0     H49675   9.062  11.954   0.837  0.5214  0.7023  0.2222
  360MOL0     H49676   8.915  12.087   1.229 -0.5146 -1.8426  1.6180
  360MOL0     H49677   9.132  11.312   0.996  2.7546  2.0792 -0.7482
  360MOL0     H49678   9.320  11.171   1.024 -2.7557 -0.7783  0.4409
  360MOL0     H49679   9.311  11.022   0.931 -2.9120  0.6771  0.4851
  360MOL0     H49680   9.429  11.142   0.884  1.9128 -1.6866  1.7300
  361MOL0     O49681   0.862   4.423   7.972 -0.1072 -0.1665 -0.0786
  361MOL0     C49682   0.787   4.428   7.880 -0.2057 -0.8818  0.5773
  361MOL0     O49683   0.819   4.465   7.748  0.2205 -0.0688 -0.1753
  361MOL0     C49684   0.944   4.455   7.708 -0.1161 -0.3602 -0.3173
  361MOL0     C49685   0.985   4.338   7.641  0.4541  0.6032 -0.5188
  361MOL0     C49686   1.116   4.329   7.597 -0.0214  0.9357 -0.6701
  361MOL0     C49687   1.207   4.433   7.610 -0.3324  0.1320 -0.4872
  361MOL0     O49688   1.340   4.437   7.577  0.0762  0.0480 -0.7418
  361MOL0     C49689   1.410   4.313   7.553  0.3915  0.1824  0.9509
  361MOL0     C49690   1.555   4.361   7.539  0.1218  0.2825 -0.1546
  361MOL0     C49691   1.636   4.244   7.482  0.2338  0.0951 -0.2475
  361MOL0     C49692   1.594   4.174   7.355 -0.0521 -0.2643  0.2671
  361MOL0     C49693   1.681   4.047   7.346 -0.6410 -0.6208 -0.6683
  361MOL0     C49694   1.645   3.956   7.233 -0.2143  0.0340 -0.7394
  361MOL0     C49695   1.718   3.822   7.248  0.3900  0.5059 -0.8400
  361MOL0     C49696   1.873   3.854   7.252  0.2050 -0.1792 -0.0832
  361MOL0     N49697   1.957   3.734   7.249  0.1794  0.1546  0.0721
  361MOL0     C49698   2.087   3.739   7.286 -0.2872  1.4552 -0.5932
  361MOL0     C49699   2.138   3.612   7.264  0.2325  0.4341 -0.6242
  361MOL0     C49700   2.275   3.551   7.272 -0.0249  0.1235  0.3940
  361MOL0     C49701   2.377   3.651   7.210 -1.0682  0.1252 -1.2685
  361MOL0     C49702   2.415   3.750   7.319 -0.1817  0.3657  0.7350
  361MOL0     C49703   2.548   3.716   7.386 -0.5044  0.4029 -0.0082
  361MOL0     O49704   2.558   3.582   7.446 -0.7790  0.7114 -1.2424
  361MOL0     C49705   2.678   3.547   7.504 -0.2042  1.0021 -0.2803
  361MOL0     C49706   2.706   3.409   7.507  0.1732  0.2630  1.1468
  361MOL0     C49707   2.822   3.361   7.562  0.2578  0.1737 -0.9693
  361MOL0     C49708   2.849   3.209   7.551 -0.8707  0.8550  0.7250
  361MOL0     C49709   2.923   3.456   7.613 -0.0631  0.3391 -0.6143
  361MOL0     C49710   3.042   3.405   7.689 -0.2323 -0.3161 -0.8168
  361MOL0     O49711   3.143   3.505   7.697 -0.3602 -0.1239 -0.4259
  361MOL0     C49712   3.272   3.487   7.746  0.5205 -0.9186  0.7411
  361MOL0     C49713   3.352   3.606   7.753  0.6825 -0.5775  0.4750
  361MOL0     C49714   3.487   3.599   7.787  0.2180 -0.0622  0.1170
  361MOL0     C49715   3.539   3.483   7.839 -0.7056  1.3661 -0.4659
  361MOL0     O49716   3.671   3.455   7.875  0.3058 -0.7894  0.2199
  361MOL0     C49717   3.751   3.569   7.915 -0.1812 -0.2822  0.3470
  361MOL0     C49718   3.879   3.519   7.972 -0.9490  0.1178 -0.5142
  361MOL0     C49719   3.951   3.442   7.859 -0.1524  0.0437  0.3333
  361MOL0     C49720   4.098   3.412   7.897 -0.4969 -0.0995 -0.3544
  361MOL0     C49721   4.180   3.368   7.770 -1.2719  0.3108  1.0388
  361MOL0     C49722   4.327   3.346   7.806 -0.3554  0.4167 -0.1945
  361MOL0     C49723   4.408   3.231   7.741 -0.2441 -0.3661  1.2515
  361MOL0     C49724   4.467   3.253   7.602  0.1523 -0.6494 -0.5485
  361MOL0    Cl49725   4.630   3.335   7.613  0.2670  0.4596 -0.4079
  361MOL0     C49726   3.459   3.366   7.838  0.0607  0.3215  0.0402
  361MOL0     C49727   3.328   3.369   7.794 -0.8225  0.2802 -0.0261
  361MOL0     O49728   3.035   3.302   7.756 -0.4600 -0.2494  0.0984
  361MOL0     C49729   2.892   3.590   7.606 -1.1669 -0.0744 -0.1947
  361MOL0     C49730   2.775   3.642   7.550  0.0650  0.5550  0.2161
  361MOL0     N49731   2.039   3.543   7.202  0.7343 -0.9907 -0.4550
  361MOL0     N49732   1.928   3.606   7.207  0.2543 -0.3462 -0.0315
  361MOL0     C49733   1.158   4.547   7.673 -0.8594  0.4598 -0.9862
  361MOL0     C49734   1.034   4.559   7.726  0.1635  0.1002 -0.0901
  361MOL0     C49735   0.657   4.370   7.893  0.6274 -0.6197  0.0501
  361MOL0     C49736   0.606   4.323   7.776  0.5283  0.7327  0.7437
  361MOL0     C49737   0.487   4.251   7.767 -0.0186 -0.4439  0.9485
  361MOL0     C49738   0.412   4.230   7.883  0.4015 -0.3663  0.8921
  361MOL0     O49739   0.280   4.201   7.864  0.2649  0.3866 -0.4420
  361MOL0     C49740   0.202   4.157   7.981 -0.6972  0.6909 -0.0133
  361MOL0     C49741   0.060   4.114   7.929 -0.8823 -0.1026 -0.1438
  361MOL0     C49742   0.035   3.971   7.973 -0.2151 -0.8580 -0.4267
  361MOL0     C49743  -0.112   3.922   7.968  0.0691  0.4207 -0.7207
  361MOL0     C49744  -0.176   3.929   7.834 -0.3208 -0.1322  0.1264
  361MOL0     C49745  -0.220   3.937   7.723 -0.3044 -0.1108 -0.1587
  361MOL0     C49746   0.465   4.276   8.009 -0.1357 -0.7599  0.2458
  361MOL0     C49747   0.586   4.341   8.016  0.0394 -0.5290 -0.0886
  361MOL0     C49748   0.635   4.383   8.149  0.8728  0.1537 -0.0442
  361MOL0     H49749   0.914   4.256   7.631 -0.9372  1.3315  2.3761
  361MOL0     H49750   1.149   4.246   7.536 -0.9663 -0.0378  0.1111
  361MOL0     H49751   1.360   4.260   7.471 -0.3996  0.7236  1.0746
  361MOL0     H49752   1.400   4.242   7.636 -1.8588 -2.0746 -1.0508
  361MOL0     H49753   1.563   4.449   7.476  1.7102 -0.8642 -1.6556
  361MOL0     H49754   1.587   4.381   7.642 -0.7486 -0.7664  0.3486
  361MOL0     H49755   1.736   4.287   7.473  0.6055 -0.2607  1.6473
  361MOL0     H49756   1.642   4.170   7.562  0.6065  1.2339  0.8191
  361MOL0     H49757   1.489   4.144   7.356 -0.4124  0.8576  2.4103
  361MOL0     H49758   1.609   4.237   7.267  2.5629 -3.4612 -1.8264
  361MOL0     H49759   1.677   3.990   7.439 -0.6144 -0.0336 -0.3021
  361MOL0     H49760   1.782   4.085   7.329 -0.7634  1.0996  1.9044
  361MOL0     H49761   1.538   3.938   7.244 -0.1849 -0.6232 -1.4397
  361MOL0     H49762   1.671   4.013   7.144 -0.3455  5.0276  2.0716
  361MOL0     H49763   1.704   3.759   7.160  1.7371 -0.1551 -0.6035
  361MOL0     H49764   1.675   3.769   7.333 -0.0488 -0.1105 -1.4348
  361MOL0     H49765   1.902   3.912   7.164 -0.2948  0.7216  0.3321
  361MOL0     H49766   1.898   3.911   7.342 -1.5146 -1.2691  1.1490
  361MOL0     H49767   2.136   3.823   7.333  0.4607  0.6425  0.1305
  361MOL0     H49768   2.290   3.457   7.218 -0.2037 -0.2647  1.0083
  361MOL0     H49769   2.299   3.518   7.373  1.1379 -1.3613 -0.3179
  361MOL0     H49770   2.466   3.595   7.181  0.4862  2.6896 -1.8345
  361MOL0     H49771   2.336   3.699   7.121  0.9870  2.4034 -1.0931
  361MOL0     H49772   2.410   3.855   7.289 -0.5748  0.6352  1.6926
  361MOL0     H49773   2.332   3.739   7.389 -0.0851 -0.1852  0.7632
  361MOL0     H49774   2.636   3.726   7.322  1.1441  2.1987  2.3689
  361MOL0     H49775   2.562   3.791   7.464  0.8538 -1.6594  1.8522
  361MOL0     H49776   2.640   3.338   7.459  0.6659  0.1985  0.5531
  361MOL0     H49777   2.955   3.187   7.562 -0.6590  1.3283 -0.2614
  361MOL0     H49778   2.808   3.181   7.454  0.4097 -0.6552  0.5907
  361MOL0     H49779   2.795   3.148   7.624 -2.8617  0.5039 -0.9424
  361MOL0     H49780   3.311   3.700   7.719  0.5053 -1.6123 -2.4506
  361MOL0     H49781   3.555   3.683   7.783 -0.3466  0.4318 -4.2500
  361MOL0     H49782   3.784   3.629   7.830 -0.9702 -0.6974 -0.2720
  361MOL0     H49783   3.702   3.637   7.984  1.6321 -0.3102  1.7417
  361MOL0     H49784   3.945   3.598   8.009 -2.0468  0.5077  0.6993
  361MOL0     H49785   3.857   3.464   8.064 -2.7969 -0.0450 -1.0136
  361MOL0     H49786   3.949   3.488   7.759  1.8251 -1.3137 -0.3953
  361MOL0     H49787   3.898   3.347   7.845 -0.0252 -0.4860  3.0326
  361MOL0     H49788   4.099   3.342   7.981  3.6113 -0.0908 -0.1895
  361MOL0     H49789   4.151   3.503   7.926  0.4600 -0.6816 -0.2210
  361MOL0     H49790   4.145   3.275   7.726  3.0852 -0.1895 -2.0759
  361MOL0     H49791   4.175   3.444   7.691 -1.6222 -2.0506 -1.3391
  361MOL0     H49792   4.332   3.327   7.914 -0.6331 -0.3516 -0.3098
  361MOL0     H49793   4.392   3.430   7.780  0.2426 -0.6020 -2.2002
  361MOL0     H49794   4.347   3.141   7.731 -2.6998  1.2939  0.5337
  361MOL0     H49795   4.501   3.209   7.796  0.6154 -0.0182 -0.0248
  361MOL0     H49796   4.400   3.329   7.560  2.1557  2.1440  0.9626
  361MOL0     H49797   4.479   3.160   7.545  1.3827 -1.0205  0.2824
  361MOL0     H49798   3.512   3.282   7.882  0.9042  0.0197 -1.4664
  361MOL0     H49799   3.280   3.272   7.802  1.1068 -0.6524  1.1935
  361MOL0     H49800   2.971   3.663   7.622  0.0190 -0.7716 -2.3961
  361MOL0     H49801   2.756   3.749   7.546  1.2745  0.7690 -2.5396
  361MOL0     H49802   1.233   4.623   7.691  1.5718 -1.3079 -2.8242
  361MOL0     H49803   1.018   4.652   7.781 -1.0771  0.9620 -1.8032
  361MOL0     H49804   0.650   4.345   7.679 -0.8789  0.1309 -0.0714
  361MOL0     H49805   0.462   4.237   7.662  2.9075  0.1846  0.0636
  361MOL0     H49806   0.252   4.074   8.031 -0.9048 -1.0159 -2.4690
  361MOL0     H49807   0.198   4.250   8.039  1.7995  2.4518 -2.3502
  361MOL0     H49808   0.060   4.104   7.820  0.1684 -1.8594 -0.0187
  361MOL0     H49809  -0.026   4.172   7.964  1.0080  1.7250  1.7684
  361MOL0     H49810   0.092   3.909   7.904  1.3532 -1.1443  1.0603
  361MOL0     H49811   0.074   3.949   8.073 -1.5910  0.3135  0.3955
  361MOL0     H49812  -0.175   3.972   8.042 -0.7270 -1.6331  0.0568
  361MOL0     H49813  -0.105   3.817   7.997  1.4385  0.4717 -0.7940
  361MOL0     H49814  -0.256   3.941   7.622 -1.4021  1.5329  0.2598
  361MOL0     H49815   0.408   4.276   8.102 -1.7342  3.6338 -0.5251
  361MOL0     H49816   0.695   4.475   8.146 -3.0738  2.9862 -0.1976
  361MOL0     H49817   0.558   4.394   8.225  2.0236  2.5408  0.9144
  361MOL0     H49818   0.691   4.299   8.190  1.1282  0.3291 -0.0332
  362MOL0     O49819  11.100   5.327   0.806 -0.1082  0.1267 -0.6297
  362MOL0     C49820  11.185   5.289   0.728 -1.8035  0.5251 -0.6902
  362MOL0     O49821  11.222   5.155   0.711 -0.2783  0.1229  0.2315
  362MOL0     C49822  11.163   5.043   0.771 -0.1794 -0.1777 -0.4820
  362MOL0     C49823  11.210   4.928   0.703  0.5806 -0.1280 -0.4617
  362MOL0     C49824  11.160   4.803   0.738  0.5711 -0.4453 -0.3896
  362MOL0     C49825  11.058   4.792   0.837  0.3824  0.5305 -0.2524
  362MOL0     O49826  11.017   4.662   0.856  0.3206 -0.1952 -0.1827
  362MOL0     C49827  10.926   4.638   0.964 -0.1710  0.5899 -0.2289
  362MOL0     C49828  10.908   4.488   1.000 -0.1652 -0.3747  0.9474
  362MOL0     C49829  10.886   4.386   0.877 -1.3691 -0.1437 -0.0866
  362MOL0     C49830  11.020   4.335   0.816 -0.3069 -0.0070  0.2856
  362MOL0     C49831  10.978   4.209   0.736  0.4299 -0.0161  0.0872
  362MOL0     C49832  11.106   4.140   0.688 -0.6023  0.8216 -0.8427
  362MOL0     C49833  11.077   4.009   0.624  0.3824 -0.4162  0.2766
  362MOL0     C49834  10.990   4.013   0.496 -0.5075  0.2148  0.4010
  362MOL0     N49835  10.995   3.900   0.404  0.1871  0.1237  0.5257
  362MOL0     C49836  11.080   3.786   0.415 -0.5290  0.1810  0.4999
  362MOL0     C49837  11.049   3.716   0.300  0.2926 -0.3753  1.1597
  362MOL0     C49838  11.097   3.581   0.272  0.1135  1.1641 -0.5913
  362MOL0     C49839  11.020   3.482   0.363  0.4208 -0.0115 -0.1347
  362MOL0     C49840  10.986   3.347   0.299  1.2926 -0.1624  0.1916
  362MOL0     C49841  11.114   3.271   0.271 -0.3100 -0.2389 -0.0496
  362MOL0     O49842  11.212   3.295   0.375  0.4252  0.3992  0.4549
  362MOL0     C49843  11.308   3.203   0.380 -0.6874  0.7019  0.0044
  362MOL0     C49844  11.335   3.157   0.508  0.1265  0.3730  0.3822
  362MOL0     C49845  11.430   3.060   0.527  0.0229  1.0685  0.1987
  362MOL0     C49846  11.435   3.015   0.668  0.7322 -0.0210 -0.2433
  362MOL0     C49847  11.504   3.004   0.424  0.9206  0.5954  0.3063
  362MOL0     C49848  11.608   2.906   0.442  0.7133  0.5598  0.4874
  362MOL0     O49849  11.694   2.944   0.537 -1.1801 -0.1022 -0.1883
  362MOL0     C49850  11.801   2.859   0.567 -0.4250 -1.0180  0.4316
  362MOL0     C49851  11.850   2.861   0.695 -0.1889 -0.3920 -0.0307
  362MOL0     C49852  11.958   2.785   0.729 -0.5322 -0.3936  0.0825
  362MOL0     C49853  12.036   2.711   0.635 -0.1100  0.2224 -0.9681
  362MOL0     O49854  12.147   2.643   0.681  0.0542  0.1869 -0.1603
  362MOL0     C49855  12.153   2.499   0.664 -0.5769  0.0669 -0.5136
  362MOL0     C49856  12.301   2.472   0.632  0.5870  0.6233  0.0323
  362MOL0     C49857  12.399   2.538   0.728 -0.1511  0.7087  0.1547
  362MOL0     C49858  12.525   2.447   0.741  0.1499  1.1486  0.8525
  362MOL0     C49859  12.633   2.524   0.826 -0.4446 -0.0636  0.1639
  362MOL0     C49860  12.765   2.452   0.819  0.1330 -0.1045 -0.0918
  362MOL0     C49861  12.866   2.537   0.894  0.0340 -0.0302 -0.5690
  362MOL0     C49862  12.994   2.485   0.862 -0.2532 -1.2673 -0.4924
  362MOL0    Cl49863  13.014   2.343   0.951  0.2008 -0.3861  0.0285
  362MOL0     C49864  11.990   2.717   0.501 -1.0969 -0.5998  0.2282
  362MOL0     C49865  11.878   2.796   0.470  0.3098  0.4316  0.3976
  362MOL0     O49866  11.609   2.792   0.387  0.4824 -0.4376 -0.0784
  362MOL0     C49867  11.471   3.050   0.290  0.9123 -0.4714 -0.0020
  362MOL0     C49868  11.376   3.151   0.270  0.4009  0.4510  0.4804
  362MOL0     N49869  10.956   3.785   0.226  0.0788  0.6412 -0.4544
  362MOL0     N49870  10.915   3.892   0.289  0.3619  0.6625 -0.7720
  362MOL0     C49871  11.005   4.905   0.900  0.1716  0.4054 -0.0007
  362MOL0     C49872  11.066   5.029   0.875 -0.0583 -0.0568  0.3992
  362MOL0     C49873  11.266   5.384   0.653  0.4859 -0.0157 -0.5259
  362MOL0     C49874  11.361   5.330   0.565  0.2603 -0.8255 -0.2697
  362MOL0     C49875  11.427   5.425   0.485  0.3327  1.2564  0.6520
  362MOL0     C49876  11.418   5.563   0.491  0.4769 -0.8678  0.5359
  362MOL0     O49877  11.489   5.652   0.419 -0.8374  0.2048 -0.7197
  362MOL0     C49878  11.618   5.675   0.473  0.6677 -0.3091  0.1089
  362MOL0     C49879  11.609   5.785   0.584 -0.2354  0.1814 -0.2482
  362MOL0     C49880  11.756   5.864   0.598  0.1243  0.4621 -0.5056
  362MOL0     C49881  11.783   5.958   0.711  0.0655  0.6896  0.3206
  362MOL0     C49882  11.913   6.032   0.716  0.9959  0.4637  0.6063
  362MOL0     C49883  12.014   6.100   0.719 -0.4378  0.7140  0.0007
  362MOL0     C49884  11.329   5.620   0.583 -0.7340 -0.0076  0.0363
  362MOL0     C49885  11.252   5.530   0.657  0.4174  0.2725  0.3961
  362MOL0     C49886  11.136   5.598   0.744 -0.8562 -0.3671  0.0438
  362MOL0     H49887  11.269   4.946   0.613  0.5391  3.1055  0.0111
  362MOL0     H49888  11.190   4.719   0.676  2.0246 -1.4194  1.5634
  362MOL0     H49889  10.824   4.677   0.954 -0.3322  0.0233 -0.8599
  362MOL0     H49890  10.975   4.685   1.050  1.7542  4.2449 -3.0607
  362MOL0     H49891  11.002   4.452   1.043 -0.9944 -1.1357  2.1809
  362MOL0     H49892  10.827   4.475   1.071 -0.5901 -2.0456  0.2093
  362MOL0     H49893  10.839   4.298   0.922 -1.4164 -0.0013  0.1500
  362MOL0     H49894  10.812   4.432   0.812  0.5236  5.9066  1.3752
  362MOL0     H49895  11.071   4.411   0.756 -1.5793  1.5520  1.1220
  362MOL0     H49896  11.093   4.299   0.889  1.2120  3.3254  0.6171
  362MOL0     H49897  10.923   4.229   0.644  1.6845 -0.5638 -0.8146
  362MOL0     H49898  10.928   4.135   0.799  1.7892  0.1280  1.4073
  362MOL0     H49899  11.147   4.210   0.615 -0.9107  0.7846 -1.0513
  362MOL0     H49900  11.176   4.125   0.771 -0.9011 -0.9576 -0.8691
  362MOL0     H49901  11.013   3.954   0.694 -1.6022  0.5253 -0.7282
  362MOL0     H49902  11.172   3.960   0.601  1.4061 -0.2153  3.6105
  362MOL0     H49903  10.886   4.035   0.523  0.0666  0.5672  2.5017
  362MOL0     H49904  11.029   4.090   0.429 -1.6302  0.2255 -0.2759
  362MOL0     H49905  11.139   3.744   0.495  1.3629 -1.9002 -1.8327
  362MOL0     H49906  11.205   3.574   0.290 -0.1923 -0.5723  0.7064
  362MOL0     H49907  11.068   3.554   0.170  0.7395 -0.9993 -0.2484
  362MOL0     H49908  11.065   3.474   0.463  0.7276 -1.8113 -0.3757
  362MOL0     H49909  10.922   3.519   0.395  0.1478 -1.4557  0.8109
  362MOL0     H49910  10.920   3.296   0.369  3.3868  1.1279  3.3960
  362MOL0     H49911  10.932   3.373   0.208  3.3786  2.1596 -0.5048
  362MOL0     H49912  11.091   3.166   0.250  0.4580 -0.1387 -1.5409
  362MOL0     H49913  11.159   3.303   0.177  0.1656  1.2142  0.6466
  362MOL0     H49914  11.277   3.202   0.588  0.9409 -0.9273  1.7535
  362MOL0     H49915  11.515   3.069   0.718  0.3658  0.1903  0.1192
  362MOL0     H49916  11.453   2.907   0.681 -1.6046 -0.4191  0.0988
  362MOL0     H49917  11.333   3.031   0.706  1.2166  0.9379  0.7078
  362MOL0     H49918  11.793   2.914   0.770  2.5709  2.9365 -0.0283
  362MOL0     H49919  11.990   2.795   0.832 -0.9444 -0.0020  0.1737
  362MOL0     H49920  12.122   2.448   0.756  2.5592 -0.3918  0.4105
  362MOL0     H49921  12.089   2.463   0.583 -0.5540 -1.2909  0.0339
  362MOL0     H49922  12.316   2.364   0.630  1.6903  0.7270  1.3354
  362MOL0     H49923  12.318   2.512   0.532  1.0393 -3.7211 -1.8431
  362MOL0     H49924  12.363   2.542   0.831  0.8532 -0.1789  0.5505
  362MOL0     H49925  12.434   2.638   0.702  0.7574  0.2774 -0.3401
  362MOL0     H49926  12.576   2.425   0.647  0.1711 -0.6205  1.2502
  362MOL0     H49927  12.509   2.351   0.790 -2.6188  1.1427  0.1388
  362MOL0     H49928  12.635   2.625   0.784  0.4734 -0.8677 -1.8278
  362MOL0     H49929  12.603   2.522   0.931  1.7162 -2.1666  0.8509
  362MOL0     H49930  12.803   2.439   0.717  2.3079 -0.6408  0.7405
  362MOL0     H49931  12.750   2.355   0.866 -0.6885 -2.6848 -4.9782
  362MOL0     H49932  12.853   2.538   1.003  0.3354  0.0214 -0.5333
  362MOL0     H49933  12.847   2.636   0.852 -2.2207 -1.3658 -3.0114
  362MOL0     H49934  13.067   2.564   0.883 -1.1359 -0.6426  0.2970
  362MOL0     H49935  13.018   2.464   0.757  1.2532 -1.7661 -0.0857
  362MOL0     H49936  12.048   2.670   0.422  0.1701  1.8465 -0.4216
  362MOL0     H49937  11.864   2.804   0.363 -0.8322  1.0890  0.5834
  362MOL0     H49938  11.520   3.011   0.201  0.0430  1.6305 -1.4735
  362MOL0     H49939  11.362   3.187   0.169  0.6536  2.8488  1.2307
  362MOL0     H49940  10.932   4.894   0.980  3.1682 -0.3705  2.8307
  362MOL0     H49941  11.019   5.114   0.923 -4.1880  0.4586 -3.7841
  362MOL0     H49942  11.370   5.223   0.548  4.2096 -0.7643  0.4491
  362MOL0     H49943  11.498   5.390   0.410  0.2889  0.1456  1.0982
  362MOL0     H49944  11.654   5.581   0.515  0.2789 -0.1623  0.7853
  362MOL0     H49945  11.682   5.711   0.392 -0.6027  2.1576  0.1251
  362MOL0     H49946  11.583   5.744   0.681  4.1590 -0.9650  0.6294
  362MOL0     H49947  11.540   5.856   0.536  0.8812  1.2937 -0.2801
  362MOL0     H49948  11.830   5.783   0.603  1.6818  1.8241 -0.5694
  362MOL0     H49949  11.775   5.914   0.503  0.6679  2.6324  0.6784
  362MOL0     H49950  11.776   5.898   0.802 -0.4762 -0.0029 -0.1698
  362MOL0     H49951  11.700   6.029   0.726  0.7595  1.7108 -0.4695
  362MOL0     H49952  12.095   6.169   0.729 -2.7548  4.0991 -2.0582
  362MOL0     H49953  11.318   5.727   0.594  2.0695  0.2497  1.1697
  362MOL0     H49954  11.096   5.691   0.702 -1.0158 -0.9428 -1.1101
  362MOL0     H49955  11.043   5.541   0.737 -0.8398 -0.2854 -0.9087
  362MOL0     H49956  11.170   5.599   0.848 -1.3331 -3.5258  0.3262
  363MOL0     O49957   0.924   8.509   3.864  0.2596 -1.0485  0.4485
  363MOL0     C49958   0.849   8.567   3.787 -0.3794  0.5289 -0.1224
  363MOL0     O49959   0.888   8.610   3.667  0.0190 -0.0124 -0.8135
  363MOL0     C49960   1.022   8.636   3.655 -0.3715 -0.4378  0.5594
  363MOL0     C49961   1.070   8.766   3.681 -0.1839  0.2819 -0.8876
  363MOL0     C49962   1.211   8.797   3.676  0.7163 -0.6907  1.0128
  363MOL0     C49963   1.297   8.691   3.639  0.5507 -0.0618  0.3425
  363MOL0     O49964   1.425   8.733   3.608  0.1574  0.0344 -0.2958
  363MOL0     C49965   1.492   8.648   3.512 -0.4469  0.0226  0.5212
  363MOL0     C49966   1.615   8.714   3.459 -0.7867  0.2761 -0.4104
  363MOL0     C49967   1.726   8.730   3.567 -0.5928  0.4291 -0.8519
  363MOL0     C49968   1.862   8.771   3.509  0.1324  0.2235 -0.4522
  363MOL0     C49969   1.973   8.785   3.616  0.0638 -0.7313  0.3978
  363MOL0     C49970   1.969   8.684   3.727  0.5786 -0.2537  0.1799
  363MOL0     C49971   2.102   8.653   3.795  0.1104  0.0885 -0.1386
  363MOL0     C49972   2.161   8.767   3.882 -0.6374 -0.6403 -0.4665
  363MOL0     N49973   2.285   8.747   3.955 -0.2591 -0.0649  0.0585
  363MOL0     C49974   2.310   8.651   4.044 -0.8136 -0.1336 -0.6546
  363MOL0     C49975   2.448   8.655   4.070  0.5745 -0.5433 -0.2612
  363MOL0     C49976   2.536   8.552   4.153 -0.9317  0.4676 -0.9872
  363MOL0     C49977   2.661   8.598   4.230 -0.0464  0.5377  0.3956
  363MOL0     C49978   2.608   8.680   4.360  0.1320 -0.1515  0.9087
  363MOL0     C49979   2.733   8.734   4.424 -1.1227 -1.0466 -0.1373
  363MOL0     O49980   2.801   8.626   4.496  0.3004 -0.2823 -0.1517
  363MOL0     C49981   2.932   8.649   4.531  0.2765  0.0146  0.3121
  363MOL0     C49982   2.998   8.530   4.551  0.6333 -0.5517 -0.3143
  363MOL0     C49983   3.130   8.528   4.575 -0.8139 -0.2573  0.0677
  363MOL0     C49984   3.195   8.392   4.589  0.1869  0.2009  0.9602
  363MOL0     C49985   3.200   8.657   4.580  0.3825 -0.1026  0.2704
  363MOL0     C49986   3.349   8.670   4.596 -0.4564  0.2705 -0.2003
  363MOL0     O49987   3.399   8.791   4.624  0.2981  0.2998 -0.0001
  363MOL0     C49988   3.536   8.805   4.610 -0.3125 -0.0770  0.7155
  363MOL0     C49989   3.629   8.840   4.709  0.1621  0.1619  0.4848
  363MOL0     C49990   3.759   8.861   4.670  0.0271 -0.0076  0.2404
  363MOL0     C49991   3.804   8.857   4.542  0.2439  0.2194  0.5246
  363MOL0     O49992   3.935   8.871   4.512  0.7757  0.4890  0.2991
  363MOL0     C49993   4.007   8.968   4.584 -0.4678  0.0321  0.1954
  363MOL0     C49994   4.135   9.005   4.508 -0.3805 -0.5029 -0.5052
  363MOL0     C49995   4.184   9.136   4.552  1.0388 -0.4578  0.4576
  363MOL0     C49996   4.300   9.190   4.464 -0.0178  0.3666 -0.0715
  363MOL0     C49997   4.433   9.185   4.527 -0.1441 -0.2892 -0.5696
  363MOL0     C49998   4.541   9.244   4.440  0.4150  0.5187 -0.5682
  363MOL0     C49999   4.550   9.393   4.486  0.0584  0.1907  0.6546
  363MOL0     C50000   4.642   9.458   4.385  0.0283 -1.1411  0.3088
  363MOL0    Cl50001   4.810   9.385   4.397  0.0403 -0.1417 -0.3290
  363MOL0     C50002   3.717   8.814   4.447  0.2236 -0.0058  0.4743
  363MOL0     C50003   3.579   8.797   4.474  0.2046  0.2443 -0.3141
  363MOL0     O50004   3.414   8.578   4.562 -0.6050  1.6258  0.0501
  363MOL0     C50005   3.125   8.778   4.576  0.5532  0.6140  0.5034
  363MOL0     C50006   2.989   8.769   4.542 -0.2252 -0.8130 -0.0356
  363MOL0     N50007   2.498   8.767   3.997 -0.9332  0.1489 -0.2496
  363MOL0     N50008   2.398   8.814   3.925  0.2976  0.3807  0.6808
  363MOL0     C50009   1.248   8.557   3.616 -0.0672 -0.6814  0.6480
  363MOL0     C50010   1.112   8.533   3.619 -0.1769 -0.4022  0.7509
  363MOL0     C50011   0.709   8.558   3.820  0.6555  0.0522  0.1600
  363MOL0     C50012   0.663   8.438   3.877  0.3181  0.5526 -0.3603
  363MOL0     C50013   0.534   8.420   3.929 -0.1249 -0.0127  0.3053
  363MOL0     C50014   0.438   8.524   3.920 -0.2002 -0.3582  0.3533
  363MOL0     O50015   0.306   8.515   3.955  0.9762 -0.0899 -0.9998
  363MOL0     C50016   0.234   8.386   3.977 -0.0517 -0.1705  0.6036
  363MOL0     C50017   0.088   8.404   4.015  0.2117 -0.9352 -1.0169
  363MOL0     C50018  -0.007   8.376   3.887 -0.1769  0.0626  0.0910
  363MOL0     C50019  -0.149   8.425   3.920 -0.6815  0.5762 -0.2083
  363MOL0     C50020  -0.208   8.401   4.051  0.9872  0.4852  0.0850
  363MOL0     C50021  -0.252   8.376   4.162  0.7767  0.1463  0.5594
  363MOL0     C50022   0.484   8.641   3.856 -0.2551 -0.1755  0.1855
  363MOL0     C50023   0.612   8.655   3.800 -0.4878  0.5621 -0.2537
  363MOL0     C50024   0.647   8.777   3.727 -0.3033 -0.1823  0.4864
  363MOL0     H50025   1.000   8.844   3.709  1.0189  0.1123  3.1030
  363MOL0     H50026   1.253   8.896   3.687  0.5671 -0.8528  3.9585
  363MOL0     H50027   1.417   8.618   3.438 -0.7656 -3.4024  2.0313
  363MOL0     H50028   1.522   8.556   3.562  0.5472 -1.2383 -2.2286
  363MOL0     H50029   1.650   8.659   3.371 -0.2688 -0.8665  0.4665
  363MOL0     H50030   1.590   8.816   3.430  2.5327  0.8383 -1.8582
  363MOL0     H50031   1.705   8.795   3.652 -1.1496 -0.2997 -0.4120
  363MOL0     H50032   1.739   8.637   3.624 -0.4547  1.5855  1.0916
  363MOL0     H50033   1.904   8.692   3.446 -0.9013  0.6933 -1.7737
  363MOL0     H50034   1.844   8.854   3.441 -0.7315  0.8167  0.4483
  363MOL0     H50035   1.968   8.888   3.652 -1.0965 -0.9772  0.9705
  363MOL0     H50036   2.066   8.779   3.559 -0.5342  0.1811 -0.7067
  363MOL0     H50037   1.902   8.724   3.803  0.7962  2.5628 -0.9948
  363MOL0     H50038   1.935   8.588   3.686 -0.6212  0.5568 -0.8033
  363MOL0     H50039   2.181   8.618   3.728  1.3641  1.8995  0.3140
  363MOL0     H50040   2.093   8.565   3.860  1.4968  1.3440  1.8673
  363MOL0     H50041   2.194   8.845   3.814  3.4175  1.2495  3.1476
  363MOL0     H50042   2.095   8.808   3.958  2.2219  0.0190  1.8578
  363MOL0     H50043   2.234   8.583   4.083 -2.2344  2.2888  1.1343
  363MOL0     H50044   2.573   8.473   4.087  1.3215  1.4928 -1.0306
  363MOL0     H50045   2.480   8.500   4.231 -0.4575  2.7376  0.9904
  363MOL0     H50046   2.726   8.516   4.262  2.1365  2.2850  0.6805
  363MOL0     H50047   2.725   8.656   4.162  3.0401 -2.1107  0.7929
  363MOL0     H50048   2.531   8.755   4.339  0.9281  1.5199  3.5454
  363MOL0     H50049   2.570   8.610   4.435  0.8929 -1.3238  0.2382
  363MOL0     H50050   2.802   8.780   4.352 -1.5515 -0.8583 -0.4299
  363MOL0     H50051   2.707   8.817   4.490 -0.2413  0.1623 -1.2572
  363MOL0     H50052   2.944   8.436   4.549 -2.4993  0.9218  3.0515
  363MOL0     H50053   3.243   8.399   4.687  0.3871  0.2146  0.8607
  363MOL0     H50054   3.280   8.376   4.521 -1.5954  0.1909 -1.3905
  363MOL0     H50055   3.132   8.303   4.579  1.2548 -0.5834  1.0733
  363MOL0     H50056   3.598   8.865   4.810  0.8928  1.0790  0.5025
  363MOL0     H50057   3.821   8.888   4.755 -1.0634 -1.4130  1.5328
  363MOL0     H50058   3.941   9.055   4.589  2.2256  2.9426 -5.5198
  363MOL0     H50059   4.033   8.922   4.680 -0.1820  1.7113  0.9500
  363MOL0     H50060   4.214   8.929   4.517 -0.5593 -0.7764 -1.1629
  363MOL0     H50061   4.101   9.019   4.405 -2.8463  2.9963  0.6156
  363MOL0     H50062   4.207   9.123   4.658  0.9608 -1.6618  0.3455
  363MOL0     H50063   4.101   9.204   4.535  0.5979 -1.3104 -0.9889
  363MOL0     H50064   4.279   9.296   4.446  1.4557  0.8345  0.7951
  363MOL0     H50065   4.307   9.141   4.366  0.1871  0.8147 -0.2811
  363MOL0     H50066   4.427   9.233   4.625  1.1821 -2.8764  0.9027
  363MOL0     H50067   4.445   9.077   4.541  1.8421 -0.0296  0.0593
  363MOL0     H50068   4.517   9.227   4.335 -2.2192 -2.4446  0.3464
  363MOL0     H50069   4.633   9.190   4.462  0.1043 -0.1386 -0.8375
  363MOL0     H50070   4.600   9.414   4.581 -4.2910 -0.0196  3.2505
  363MOL0     H50071   4.454   9.445   4.492 -0.1181 -0.0917  0.2798
  363MOL0     H50072   4.644   9.566   4.401 -1.7585 -1.1356  0.6942
  363MOL0     H50073   4.589   9.441   4.291  1.0381 -1.7376 -0.1730
  363MOL0     H50074   3.745   8.806   4.343 -0.4380  1.2792  0.1700
  363MOL0     H50075   3.503   8.759   4.406  0.1384 -4.2796  1.9156
  363MOL0     H50076   3.173   8.875   4.581 -0.3664  1.0868  0.4370
  363MOL0     H50077   2.934   8.861   4.528  0.5478 -0.1964  0.8892
  363MOL0     H50078   1.313   8.478   3.580  3.0112  0.0561  3.9433
  363MOL0     H50079   1.074   8.436   3.589  0.2629 -0.6290  0.9198
  363MOL0     H50080   0.730   8.353   3.885  0.3230  0.6615  0.8936
  363MOL0     H50081   0.515   8.324   3.977  1.0753 -1.0549 -1.2130
  363MOL0     H50082   0.242   8.329   3.884 -2.3338  0.5668 -0.0976
  363MOL0     H50083   0.282   8.325   4.053  0.2505 -1.0777 -0.2919
  363MOL0     H50084   0.073   8.508   4.048  1.9675 -1.3699  1.4322
  363MOL0     H50085   0.063   8.324   4.084  1.4339  0.4827  1.1799
  363MOL0     H50086   0.026   8.436   3.801  0.7593  0.2662  0.5777
  363MOL0     H50087  -0.005   8.272   3.853  0.1359  0.0070  0.2716
  363MOL0     H50088  -0.218   8.378   3.850 -0.6620  1.1362 -0.6091
  363MOL0     H50089  -0.158   8.532   3.899 -2.9376  1.0157  2.2759
  363MOL0     H50090  -0.306   8.345   4.249  0.6901 -1.4173 -0.0062
  363MOL0     H50091   0.413   8.722   3.843 -1.0430 -1.0035 -0.7940
  363MOL0     H50092   0.662   8.758   3.621  0.7227 -0.9693  0.7538
  363MOL0     H50093   0.567   8.852   3.728  0.2235  0.3916  1.7043
  363MOL0     H50094   0.738   8.818   3.772 -0.0618  1.6849 -1.5455
  364MOL0     O50095  11.162   6.141   9.776  0.4230  0.6174  0.0828
  364MOL0     C50096  11.070   6.213   9.766 -0.8309  0.2760 -0.4659
  364MOL0     O50097  10.945   6.179   9.740 -0.2384 -0.2481  0.3996
  364MOL0     C50098  10.919   6.055   9.689 -0.2540 -1.0221  0.0183
  364MOL0     C50099  10.863   6.035   9.567 -0.8173 -0.3667  1.1640
  364MOL0     C50100  10.838   5.903   9.522  0.0721 -0.4134  0.5488
  364MOL0     C50101  10.883   5.793   9.587  0.3338  0.4297 -0.3765
  364MOL0     O50102  10.847   5.672   9.533  0.5274 -0.3463 -0.3112
  364MOL0     C50103  10.838   5.555   9.616  0.2646  0.7635  0.2867
  364MOL0     C50104  10.724   5.565   9.709 -0.5846 -0.2617  0.4679
  364MOL0     C50105  10.725   5.448   9.804 -0.5601  0.9451 -0.1562
  364MOL0     C50106  10.587   5.420   9.863 -0.2287 -0.3468  0.0421
  364MOL0     C50107  10.548   5.509   9.978  1.0621 -0.1332  0.5371
  364MOL0     C50108  10.486   5.448  10.108 -0.7072  0.1776  0.3070
  364MOL0     C50109  10.418   5.556  10.197  0.0576 -0.7130  0.2137
  364MOL0     C50110  10.371   5.508  10.337  0.7935  0.5834  1.1752
  364MOL0     N50111  10.334   5.624  10.419 -0.3688 -0.3661  0.5442
  364MOL0     C50112  10.246   5.720  10.377 -0.5802 -0.4257 -0.0267
  364MOL0     C50113  10.247   5.811  10.482  0.5798 -0.2424  0.6742
  364MOL0     C50114  10.154   5.935  10.485 -0.0541  0.5538 -0.2154
  364MOL0     C50115  10.088   5.933  10.624 -0.1736 -0.0264  0.2889
  364MOL0     C50116   9.973   6.028  10.640 -0.2640 -0.8646 -0.5711
  364MOL0     C50117   9.995   6.171  10.583  0.1231 -0.0818 -0.3822
  364MOL0     O50118  10.093   6.250  10.650  0.4285  0.1321 -0.7566
  364MOL0     C50119  10.103   6.385  10.621 -0.7090 -0.1182 -0.4386
  364MOL0     C50120  10.200   6.454  10.697  0.7247 -0.5619 -0.2907
  364MOL0     C50121  10.228   6.593  10.678 -0.0099 -0.5945 -0.1040
  364MOL0     C50122  10.333   6.663  10.763  0.1187 -0.4233  0.0780
  364MOL0     C50123  10.146   6.668  10.580 -1.1791 -0.1132  0.3485
  364MOL0     C50124  10.166   6.810  10.533 -0.3413  0.4313 -0.6079
  364MOL0     O50125  10.050   6.867  10.478  0.2419  0.4040  0.0491
  364MOL0     C50126  10.048   6.987  10.416  0.9222  0.4774  0.0300
  364MOL0     C50127  10.165   7.041  10.353  0.3747 -0.0312 -0.1202
  364MOL0     C50128  10.165   7.169  10.293 -0.6942 -0.0081 -0.2386
  364MOL0     C50129  10.057   7.252  10.297 -0.2716 -0.0275 -0.5164
  364MOL0     O50130  10.078   7.383  10.260  0.6899 -0.6738  0.2765
  364MOL0     C50131  10.170   7.411  10.151  0.1140 -0.7291 -0.1703
  364MOL0     C50132  10.124   7.533  10.073 -0.2244 -0.7314 -0.5840
  364MOL0     C50133  10.190   7.574   9.947  0.1240  0.0224  0.1838
  364MOL0     C50134  10.158   7.477   9.838 -0.1027 -0.1831 -0.0593
  364MOL0     C50135  10.206   7.528   9.700 -0.7564  0.0162 -1.1699
  364MOL0     C50136  10.307   7.431   9.641 -0.9326  0.1560  0.9328
  364MOL0     C50137  10.373   7.469   9.504  0.7245 -1.0649  0.1516
  364MOL0     C50138  10.468   7.592   9.499 -0.0125  0.0775 -0.0003
  364MOL0    Cl50139  10.411   7.764   9.535  0.4209  0.0120  0.0704
  364MOL0     C50140   9.934   7.196  10.350  0.0536  0.1976 -0.2183
  364MOL0     C50141   9.931   7.070  10.408 -0.4692  0.1630  0.8130
  364MOL0     O50142  10.261   6.877  10.568 -0.5119 -0.6247 -0.6123
  364MOL0     C50143  10.055   6.591  10.505  0.4493 -0.7520  1.1118
  364MOL0     C50144  10.036   6.456  10.527  0.6178  0.4679  1.6285
  364MOL0     N50145  10.349   5.771  10.571  0.6329  0.7673  0.3743
  364MOL0     N50146  10.386   5.653  10.541  0.2056 -0.2813 -0.0807
  364MOL0     C50147  10.941   5.808   9.718 -0.2359 -0.2589 -0.3585
  364MOL0     C50148  10.961   5.937   9.758 -0.5787  1.3563  0.3955
  364MOL0     C50149  11.107   6.364   9.776 -0.0028 -0.0607 -0.0397
  364MOL0     C50150  11.010   6.458   9.722 -0.1171 -0.3971  0.1140
  364MOL0     C50151  11.033   6.595   9.726 -0.0365 -0.6538  0.7775
  364MOL0     C50152  11.161   6.648   9.770  0.5649 -0.9907 -0.3758
  364MOL0     O50153  11.191   6.780   9.782 -0.1803 -0.5505  0.2767
  364MOL0     C50154  11.091   6.886   9.761  0.0024  0.2530  0.0843
  364MOL0     C50155  10.979   6.896   9.872 -0.2743 -0.0112 -0.0688
  364MOL0     C50156  10.878   7.012   9.848 -0.0328 -0.5363  0.1498
  364MOL0     C50157  10.834   7.040   9.701 -0.3025 -0.5930 -0.2716
  364MOL0     C50158  10.747   6.933   9.659  0.6736 -0.5117 -0.1796
  364MOL0     C50159  10.676   6.855   9.599  0.1773 -0.6582  0.6516
  364MOL0     C50160  11.250   6.558   9.824  0.6667 -0.5410  0.7727
  364MOL0     C50161  11.229   6.417   9.820 -0.6067  0.0050  0.2479
  364MOL0     C50162  11.356   6.340   9.842  0.4697 -0.5407 -0.9702
  364MOL0     H50163  10.847   6.122   9.504  0.6066  0.9435  2.5199
  364MOL0     H50164  10.784   5.896   9.428 -1.0470  1.4068  0.9933
  364MOL0     H50165  10.936   5.538   9.662 -0.2396  1.7714  1.7740
  364MOL0     H50166  10.821   5.465   9.556  2.8981 -0.1197  0.7140
  364MOL0     H50167  10.734   5.658   9.766  0.2038 -0.1766  0.1972
  364MOL0     H50168  10.636   5.585   9.646  0.1743  1.2490 -0.1719
  364MOL0     H50169  10.744   5.352   9.754 -0.7576 -0.9552  3.1527
  364MOL0     H50170  10.805   5.459   9.878 -0.1639 -3.1453  0.2424
  364MOL0     H50171  10.509   5.434   9.787  0.8396 -3.6470 -1.8389
  364MOL0     H50172  10.581   5.318   9.902  1.2923 -0.3428  0.3277
  364MOL0     H50173  10.486   5.594   9.947  0.7649  0.6901  3.1238
  364MOL0     H50174  10.631   5.575  10.004  0.7540  1.2999 -1.7959
  364MOL0     H50175  10.425   5.359  10.090 -0.7914  0.3461 -0.2675
  364MOL0     H50176  10.570   5.413  10.168  0.6884  1.1051 -1.0324
  364MOL0     H50177  10.344   5.602  10.132  0.9230 -0.8474 -0.8857
  364MOL0     H50178  10.501   5.624  10.222 -0.6217 -0.1179  0.9189
  364MOL0     H50179  10.282   5.447  10.324  0.9084  0.3101  1.6404
  364MOL0     H50180  10.450   5.448  10.383  2.7765  2.7500  0.8325
  364MOL0     H50181  10.187   5.721  10.286  1.3667  1.9058 -1.3619
  364MOL0     H50182  10.075   5.917  10.412  0.8468 -0.5242 -0.9486
  364MOL0     H50183  10.207   6.030  10.475  0.2637  0.4606  0.4811
  364MOL0     H50184  10.040   5.838  10.646 -2.1669  1.5180  3.2484
  364MOL0     H50185  10.165   5.954  10.699 -1.1672  3.3358  0.5425
  364MOL0     H50186   9.883   5.975  10.609 -0.3948 -1.3549  0.6051
  364MOL0     H50187   9.957   6.055  10.744  0.7345 -0.6881 -0.4522
  364MOL0     H50188  10.025   6.156  10.479 -1.2092 -1.8194 -0.5490
  364MOL0     H50189   9.897   6.221  10.591 -0.5816 -1.0736 -2.2211
  364MOL0     H50190  10.256   6.412  10.780 -0.5727  1.7159  1.8648
  364MOL0     H50191  10.423   6.679  10.702 -3.1657  2.1501 -4.8066
  364MOL0     H50192  10.346   6.593  10.846 -3.3084 -2.0011 -0.5272
  364MOL0     H50193  10.300   6.759  10.804  0.9483 -1.5739  3.7770
  364MOL0     H50194  10.256   6.982  10.350  0.8283  0.6996 -1.1763
  364MOL0     H50195  10.259   7.201  10.250 -1.0167  1.2010 -0.0886
  364MOL0     H50196  10.271   7.432  10.188 -1.0462 -0.6012  3.2675
  364MOL0     H50197  10.175   7.324  10.084 -1.2207  0.3609 -1.7687
  364MOL0     H50198  10.018   7.522  10.046 -0.2722 -2.6516  0.1979
  364MOL0     H50199  10.139   7.617  10.141 -0.3586  0.2525 -1.7374
  364MOL0     H50200  10.298   7.585   9.954  0.6451 -1.9476 -2.8005
  364MOL0     H50201  10.146   7.669   9.914 -0.8908 -0.6816 -0.5665
  364MOL0     H50202  10.050   7.461   9.839 -0.1707  0.2614  0.0746
  364MOL0     H50203  10.207   7.382   9.862 -2.1481 -2.0957 -2.9438
  364MOL0     H50204  10.125   7.548   9.628 -0.5084  0.1776 -1.4054
  364MOL0     H50205  10.253   7.624   9.723 -2.0494  0.8575 -1.8679
  364MOL0     H50206  10.251   7.339   9.622  0.8023 -1.1042  1.6056
  364MOL0     H50207  10.386   7.416   9.716 -1.2184  2.7986  1.8751
  364MOL0     H50208  10.305   7.479   9.419 -0.6743  0.6579  1.3924
  364MOL0     H50209  10.432   7.382   9.472  0.4272 -1.1700 -0.1259
  364MOL0     H50210  10.504   7.604   9.396 -2.4100 -0.4072 -0.9590
  364MOL0     H50211  10.551   7.565   9.564 -0.2698 -1.6299 -0.3366
  364MOL0     H50212   9.842   7.254  10.343  1.2979  2.2002 -0.6368
  364MOL0     H50213   9.832   7.032  10.434 -0.3489 -1.4187 -0.8356
  364MOL0     H50214  10.007   6.629  10.415 -0.8412 -0.8665  1.7215
  364MOL0     H50215   9.973   6.398  10.461  2.1663  0.9826 -0.3856
  364MOL0     H50216  10.979   5.726   9.778 -0.4782 -2.0968 -2.6010
  364MOL0     H50217  11.002   5.955   9.857 -2.1971  2.9762  0.8089
  364MOL0     H50218  10.916   6.411   9.695  1.7595 -2.6637 -3.3205
  364MOL0     H50219  10.964   6.665   9.681 -0.1396 -0.6240  0.9773
  364MOL0     H50220  11.158   6.973   9.765  0.5069  0.0494 -2.4437
  364MOL0     H50221  11.051   6.864   9.661 -0.7502 -0.2417  0.4849
  364MOL0     H50222  11.016   6.909   9.974 -3.9578  0.9292  1.3176
  364MOL0     H50223  10.922   6.802   9.869 -0.9775  0.3965  0.3211
  364MOL0     H50224  10.792   6.980   9.907  0.9999 -0.9939  1.4522
  364MOL0     H50225  10.906   7.105   9.899 -1.2032 -0.9840  1.6590
  364MOL0     H50226  10.917   7.044   9.630 -0.1829 -0.4657 -0.1274
  364MOL0     H50227  10.784   7.137   9.695  0.6052  0.0590  1.8084
  364MOL0     H50228  10.602   6.808   9.539 -0.5303 -0.1278  1.0883
  364MOL0     H50229  11.342   6.599   9.864  0.7493 -0.3391  0.3803
  364MOL0     H50230  11.345   6.246   9.896 -1.1149  0.5867  0.8033
  364MOL0     H50231  11.405   6.315   9.747 -0.5164 -0.3029 -1.5641
  364MOL0     H50232  11.429   6.396   9.901 -0.4353 -0.7340  0.3846
  365MOL0     O50233   9.127   0.095  10.184 -0.0378  0.2019  0.3617
  365MOL0     C50234   9.223   0.078  10.105  0.1224  0.0414 -0.2618
  365MOL0     O50235   9.323  -0.010  10.129 -0.3274 -0.1033 -0.1574
  365MOL0     C50236   9.353  -0.054  10.260  0.3440  0.5210  0.1671
  365MOL0     C50237   9.372  -0.188  10.289  0.6735 -1.0699  0.4970
  365MOL0     C50238   9.391  -0.233  10.419  0.1979  0.3153 -0.7672
  365MOL0     C50239   9.394  -0.144  10.528 -0.1021  0.9157  0.6060
  365MOL0     O50240   9.397  -0.182  10.661  0.5789  0.1899  0.2306
  365MOL0     C50241   9.344  -0.312  10.692  0.0710 -0.2941  0.5368
  365MOL0     C50242   9.309  -0.329  10.839  0.0358  0.4029 -0.3322
  365MOL0     C50243   9.420  -0.312  10.936  0.3741  0.3980 -0.4160
  365MOL0     C50244   9.426  -0.426  11.045  1.1366 -0.6164 -0.2087
  365MOL0     C50245   9.563  -0.439  11.104 -0.2588 -0.1204 -0.6628
  365MOL0     C50246   9.570  -0.547  11.207 -0.0158  0.2841  0.0843
  365MOL0     C50247   9.514  -0.522  11.342  0.2186  0.0668 -0.3449
  365MOL0     C50248   9.479  -0.655  11.411  0.2363 -0.6916 -0.4177
  365MOL0     N50249   9.372  -0.734  11.354 -0.0881  0.4715  0.4719
  365MOL0     C50250   9.370  -0.873  11.340  0.2144 -0.1612 -0.5244
  365MOL0     C50251   9.256  -0.908  11.292 -0.4389 -0.0051 -0.1507
  365MOL0     C50252   9.207  -1.047  11.260  0.1671 -0.4148  0.0337
  365MOL0     C50253   9.105  -1.098  11.355  0.4256 -0.2648  1.5066
  365MOL0     C50254   9.071  -1.249  11.338 -0.5285  0.4568 -0.0582
  365MOL0     C50255   9.026  -1.295  11.202 -0.0466  0.1018 -0.3026
  365MOL0     O50256   8.895  -1.256  11.180  0.6280  0.2542 -0.0980
  365MOL0     C50257   8.856  -1.288  11.055 -0.2169 -0.9993 -0.1887
  365MOL0     C50258   8.862  -1.190  10.958  0.3452  0.4049 -1.3440
  365MOL0     C50259   8.832  -1.218  10.825  0.5044  0.2212  0.1401
  365MOL0     C50260   8.846  -1.101  10.737  0.0208 -0.8457  0.2952
  365MOL0     C50261   8.786  -1.342  10.788 -0.2238  0.6605 -0.0313
  365MOL0     C50262   8.777  -1.389  10.648 -0.3778  0.0637 -0.0069
  365MOL0     O50263   8.873  -1.366  10.561  0.4118 -0.0904  0.4393
  365MOL0     C50264   8.861  -1.410  10.428 -0.2665 -0.4542  0.4096
  365MOL0     C50265   8.848  -1.550  10.397  0.4507 -0.5875  0.2184
  365MOL0     C50266   8.844  -1.601  10.276  0.0502  0.5341  1.5674
  365MOL0     C50267   8.853  -1.522  10.169  1.3377 -0.3657  0.2343
  365MOL0     O50268   8.862  -1.573  10.041  0.0413  1.7484  0.4095
  365MOL0     C50269   8.763  -1.674  10.008  0.2414 -0.0276 -1.2763
  365MOL0     C50270   8.749  -1.691   9.857  0.5419  0.2450 -0.6940
  365MOL0     C50271   8.650  -1.807   9.832 -0.1180  0.2149 -0.4153
  365MOL0     C50272   8.603  -1.809   9.691  0.4344  0.8154  0.4728
  365MOL0     C50273   8.526  -1.945   9.661  0.2469 -0.2819  0.2755
  365MOL0     C50274   8.471  -1.957   9.513  0.2646 -0.3257 -0.2522
  365MOL0     C50275   8.419  -2.098   9.494  0.3810  0.0736  0.3023
  365MOL0     C50276   8.416  -2.137   9.343  0.3534 -0.0255 -0.1185
  365MOL0    Cl50277   8.287  -2.036   9.266  0.1353 -0.2727  0.4295
  365MOL0     C50278   8.871  -1.383  10.189  0.1547  0.1146  0.7003
  365MOL0     C50279   8.875  -1.331  10.318 -0.1957  0.5165 -0.0152
  365MOL0     O50280   8.661  -1.433  10.619 -0.3427 -0.2903  0.1708
  365MOL0     C50281   8.776  -1.437  10.892  0.5775 -0.2188 -0.2708
  365MOL0     C50282   8.804  -1.410  11.019  1.1103 -0.3646 -0.7198
  365MOL0     N50283   9.184  -0.791  11.275  0.4304 -0.3171 -0.1554
  365MOL0     N50284   9.252  -0.693  11.311 -0.3124 -0.0913  0.6086
  365MOL0     C50285   9.365  -0.007  10.497 -0.2252 -0.3485  0.2051
  365MOL0     C50286   9.344   0.043  10.363  0.2009 -0.7341 -0.8109
  365MOL0     C50287   9.220   0.162   9.983 -0.3555  0.5688  0.1814
  365MOL0     C50288   9.104   0.227   9.950 -0.6497 -0.1456 -0.1467
  365MOL0     C50289   9.097   0.304   9.836  0.3398 -0.3467  0.7752
  365MOL0     C50290   9.213   0.325   9.747 -0.0684 -0.6778 -0.7489
  365MOL0     O50291   9.179   0.411   9.645 -0.0062  0.3675 -0.1110
  365MOL0     C50292   9.281   0.500   9.600 -0.5796 -0.2135  0.3277
  365MOL0     C50293   9.197   0.623   9.559  0.2446 -0.1690 -0.0816
  365MOL0     C50294   9.292   0.745   9.549 -0.2049 -0.5517 -0.0458
  365MOL0     C50295   9.224   0.874   9.493 -0.7724  1.3386  0.1066
  365MOL0     C50296   9.329   0.959   9.452  0.4248  0.7363  0.1392
  365MOL0     C50297   9.427   1.016   9.408 -0.2248  0.1590 -0.3583
  365MOL0     C50298   9.334   0.261   9.776 -0.3555  0.1767 -0.0582
  365MOL0     C50299   9.334   0.183   9.898 -0.1289 -0.0830 -0.3520
  365MOL0     C50300   9.464   0.107   9.909 -0.0822  0.9122  0.2748
  365MOL0     H50301   9.376  -0.266  10.213 -0.8241 -0.9219  0.2427
  365MOL0     H50302   9.417  -0.335  10.448  1.0235  1.3698  2.6629
  365MOL0     H50303   9.430  -0.373  10.664  0.3117  1.2773 -2.6486
  365MOL0     H50304   9.261  -0.339  10.625  1.3765  3.2411 -2.9101
  365MOL0     H50305   9.227  -0.259  10.860 -0.5086  0.7716 -3.1604
  365MOL0     H50306   9.258  -0.425  10.853 -1.8402  1.5677  1.4448
  365MOL0     H50307   9.518  -0.306  10.889  1.7940 -0.2314  2.2775
  365MOL0     H50308   9.408  -0.219  10.993 -2.2271 -0.3514  0.4327
  365MOL0     H50309   9.368  -0.397  11.133  1.9182  0.2954  0.0131
  365MOL0     H50310   9.386  -0.521  11.008  0.4034 -1.8125  3.2577
  365MOL0     H50311   9.602  -0.343  11.140  3.7604 -0.5327 -3.2980
  365MOL0     H50312   9.632  -0.471  11.026  2.2565  2.0372  0.5300
  365MOL0     H50313   9.522  -0.638  11.168  0.0065  0.6733 -0.8827
  365MOL0     H50314   9.675  -0.571  11.223 -0.0143  0.2581  0.0365
  365MOL0     H50315   9.424  -0.460  11.338  1.5205  2.1392  0.5674
  365MOL0     H50316   9.593  -0.463  11.391  0.0179  1.5598 -1.7235
  365MOL0     H50317   9.569  -0.715  11.428  0.5628  0.0144  0.3919
  365MOL0     H50318   9.443  -0.631  11.511 -0.7720 -2.4927 -0.3072
  365MOL0     H50319   9.449  -0.937  11.378 -0.1057  0.2119  0.8284
  365MOL0     H50320   9.298  -1.106  11.272  0.7425 -0.1109 -2.3614
  365MOL0     H50321   9.168  -1.041  11.158 -1.6639  0.3136  0.7326
  365MOL0     H50322   9.142  -1.091  11.458 -4.8713 -0.2458  3.7482
  365MOL0     H50323   9.014  -1.037  11.354  0.3689 -0.3333  2.1120
  365MOL0     H50324   9.163  -1.306  11.359 -0.0329  0.9958 -0.7239
  365MOL0     H50325   9.006  -1.285  11.418 -0.6905  0.7224 -0.0709
  365MOL0     H50326   9.094  -1.264  11.122  2.1590 -2.9653  0.2302
  365MOL0     H50327   9.026  -1.404  11.204 -0.4482  0.1008 -0.2386
  365MOL0     H50328   8.888  -1.088  10.983 -0.1765  0.3127 -0.3527
  365MOL0     H50329   8.774  -1.114  10.656 -1.1209 -0.9394  1.2965
  365MOL0     H50330   8.943  -1.099  10.687 -0.4550  4.5478 -0.9868
  365MOL0     H50331   8.827  -1.013  10.799  2.2679 -1.2268  1.6333
  365MOL0     H50332   8.841  -1.617  10.483 -0.0272 -0.5413  0.2201
  365MOL0     H50333   8.848  -1.709  10.272  0.8681  0.6033 -0.6970
  365MOL0     H50334   8.792  -1.770  10.053 -1.3756 -0.2781 -0.7070
  365MOL0     H50335   8.669  -1.652  10.060  1.7125  0.5796  1.2819
  365MOL0     H50336   8.710  -1.600   9.809 -2.7584  0.0129  1.2676
  365MOL0     H50337   8.843  -1.726   9.815  0.5257 -0.7299  0.0623
  365MOL0     H50338   8.571  -1.790   9.906  0.0778 -0.7171  0.0241
  365MOL0     H50339   8.698  -1.902   9.859  0.8806  1.2823  1.7469
  365MOL0     H50340   8.683  -1.802   9.617  0.2551  1.1598  0.3127
  365MOL0     H50341   8.532  -1.728   9.673  1.6878  1.7685 -0.2955
  365MOL0     H50342   8.593  -2.026   9.689 -0.2490 -1.1060 -0.8329
  365MOL0     H50343   8.443  -1.963   9.730 -0.8458 -0.9468 -1.1335
  365MOL0     H50344   8.555  -1.934   9.448  1.3059 -2.6399  0.1644
  365MOL0     H50345   8.394  -1.880   9.504  0.6787 -0.0948 -2.1148
  365MOL0     H50346   8.318  -2.099   9.536  1.1146 -1.2221  2.1499
  365MOL0     H50347   8.487  -2.169   9.543 -0.0152 -0.2774  0.3457
  365MOL0     H50348   8.390  -2.242   9.324  1.5515 -0.5775  1.0989
  365MOL0     H50349   8.516  -2.112   9.307  1.5488  1.3328  3.6814
  365MOL0     H50350   8.880  -1.332  10.094  1.1481 -1.2107  0.0361
  365MOL0     H50351   8.888  -1.223  10.321  1.0677  0.5370 -2.8065
  365MOL0     H50352   8.740  -1.531  10.854 -1.5897  1.7265 -3.4766
  365MOL0     H50353   8.804  -1.476  11.105  1.7991  2.0136  1.2278
  365MOL0     H50354   9.355   0.062  10.580 -0.4801 -1.0183  0.7383
  365MOL0     H50355   9.319   0.147  10.350  0.9822 -0.2958  0.9474
  365MOL0     H50356   9.020   0.216  10.018  0.4301  1.3803  1.5416
  365MOL0     H50357   8.998   0.347   9.823  0.2095  0.0294  2.7490
  365MOL0     H50358   9.347   0.535   9.680  0.2589  1.1342 -0.9082
  365MOL0     H50359   9.341   0.467   9.515  1.3070 -1.0639  1.9043
  365MOL0     H50360   9.109   0.639   9.622 -1.0878 -1.5265 -1.5219
  365MOL0     H50361   9.164   0.592   9.460  3.0969  1.6219 -1.7448
  365MOL0     H50362   9.322   0.757   9.654  0.1520  0.3216 -0.2368
  365MOL0     H50363   9.380   0.717   9.490 -1.1639  1.5313 -2.6629
  365MOL0     H50364   9.159   0.922   9.567 -0.3331  0.4910  1.0637
  365MOL0     H50365   9.159   0.865   9.405 -1.9662 -1.4758  1.1703
  365MOL0     H50366   9.514   1.053   9.359 -0.6932 -0.7847 -1.9829
  365MOL0     H50367   9.416   0.270   9.706 -1.6332  0.2330 -1.5997
  365MOL0     H50368   9.451  -0.002   9.902 -0.6265  0.8892  1.4328
  365MOL0     H50369   9.528   0.146   9.829 -0.3792  1.7431  0.4337
  365MOL0     H50370   9.519   0.132  10.001  0.5647 -0.0905  0.1784
  366MOL0     O50371   7.779   9.445   0.869 -0.2658 -0.0316  0.9854
  366MOL0     C50372   7.728   9.550   0.891 -0.1126 -0.4882  0.3531
  366MOL0     O50373   7.595   9.566   0.907 -0.2967 -0.0648  0.1706
  366MOL0     C50374   7.513   9.460   0.924  0.2016  0.0100  0.3004
  366MOL0     C50375   7.502   9.400   1.044  0.5154  0.3016  0.0351
  366MOL0     C50376   7.409   9.295   1.055 -0.5966 -0.3130 -0.3985
  366MOL0     C50377   7.335   9.247   0.946  0.4903  0.4971  0.0476
  366MOL0     O50378   7.254   9.135   0.962  0.0429 -0.7686  0.0507
  366MOL0     C50379   7.183   9.132   1.089 -0.1775  0.6117  0.1729
  366MOL0     C50380   7.055   9.053   1.087  0.0362  0.0232 -0.6638
  366MOL0     C50381   6.982   9.095   1.205  1.2281  0.2039  0.3927
  366MOL0     C50382   6.839   9.021   1.184  0.2048  0.4329 -1.2949
  366MOL0     C50383   6.770   9.030   1.326 -0.4577  0.0076 -0.0077
  366MOL0     C50384   6.632   8.975   1.302 -0.5787 -1.2421 -0.1183
  366MOL0     C50385   6.523   9.030   1.394  0.4744  0.5197  0.1634
  366MOL0     C50386   6.498   8.926   1.505  0.4736 -0.6349 -0.1827
  366MOL0     N50387   6.417   8.983   1.616 -0.3384  0.5210  0.2540
  366MOL0     C50388   6.288   8.947   1.645  0.8345 -0.9371 -1.2670
  366MOL0     C50389   6.255   9.036   1.743 -0.1793 -0.4664 -0.8492
  366MOL0     C50390   6.125   9.052   1.811  1.6216 -1.1189 -0.5033
  366MOL0     C50391   6.076   8.921   1.863  0.1277 -0.0518  0.3160
  366MOL0     C50392   6.121   8.897   2.015 -0.3112  0.4306 -0.0279
  366MOL0     C50393   6.124   8.741   2.046 -0.5128  0.7053 -0.4393
  366MOL0     O50394   6.178   8.655   1.945 -0.8125 -0.3569  0.3880
  366MOL0     C50395   6.313   8.669   1.925  0.2192  0.0905  0.5244
  366MOL0     C50396   6.367   8.612   1.810 -0.6917 -0.5548 -0.0307
  366MOL0     C50397   6.506   8.615   1.773 -0.2934  0.1178  0.2840
  366MOL0     C50398   6.544   8.532   1.652  0.2784 -0.2572 -0.2388
  366MOL0     C50399   6.591   8.679   1.861 -0.7384  0.5211  0.4389
  366MOL0     C50400   6.751   8.681   1.855 -0.0830 -0.0186 -0.6318
  366MOL0     O50401   6.806   8.588   1.774 -0.8602  0.6048  0.5451
  366MOL0     C50402   6.943   8.582   1.769  0.2903  1.6581 -0.2011
  366MOL0     C50403   7.017   8.691   1.719 -0.4415 -0.7433  0.0829
  366MOL0     C50404   7.153   8.678   1.689  0.1826  0.1649  0.2756
  366MOL0     C50405   7.214   8.550   1.712 -0.3263  0.0634 -0.2753
  366MOL0     O50406   7.348   8.525   1.686 -0.5684 -0.1949  0.1084
  366MOL0     C50407   7.419   8.588   1.577  0.0184  0.2364 -0.7632
  366MOL0     C50408   7.547   8.511   1.555 -0.8434 -0.3531  0.6557
  366MOL0     C50409   7.618   8.583   1.436 -0.3389 -0.9983 -0.0650
  366MOL0     C50410   7.754   8.519   1.393  0.7493  0.2802 -0.3377
  366MOL0     C50411   7.797   8.574   1.254  0.5146  0.0032  0.3083
  366MOL0     C50412   7.928   8.512   1.203 -0.0542  0.2410 -0.4535
  366MOL0     C50413   7.953   8.359   1.231 -0.3352 -0.5639  0.0952
  366MOL0     C50414   8.092   8.325   1.182 -0.3020 -1.2399 -0.7257
  366MOL0    Cl50415   8.224   8.381   1.295  0.1733  0.1547 -0.2381
  366MOL0     C50416   7.136   8.445   1.767 -0.2686  0.2463  0.3275
  366MOL0     C50417   7.005   8.460   1.797 -1.0568  0.2016  0.0120
  366MOL0     O50418   6.811   8.733   1.952  0.9931 -0.5010  0.2637
  366MOL0     C50419   6.537   8.734   1.978 -0.0395  0.6390 -0.3579
  366MOL0     C50420   6.400   8.735   2.006 -0.8111 -0.8622 -0.6145
  366MOL0     N50421   6.359   9.118   1.780  0.2817  0.0469  1.2713
  366MOL0     N50422   6.459   9.079   1.699  0.3795  1.0829 -0.8317
  366MOL0     C50423   7.359   9.299   0.822  0.2201  0.2544  0.5727
  366MOL0     C50424   7.448   9.408   0.810 -0.0543 -0.2382 -0.4930
  366MOL0     C50425   7.812   9.676   0.878 -0.1449 -0.9899 -0.2191
  366MOL0     C50426   7.746   9.804   0.894  0.6143  0.0604  0.5177
  366MOL0     C50427   7.814   9.933   0.893 -0.1871  0.1996  0.1250
  366MOL0     C50428   7.957   9.925   0.878  0.6667  0.4834  0.4616
  366MOL0     O50429   8.042  10.025   0.881  0.0513 -0.8440 -0.3705
  366MOL0     C50430   8.028  10.139   0.968  0.2437 -0.5494  0.5727
  366MOL0     C50431   7.964  10.260   0.892  0.1292 -0.2393 -0.1149
  366MOL0     C50432   8.051  10.316   0.777  0.7170  0.7685  0.1498
  366MOL0     C50433   8.194  10.333   0.780 -0.0949 -0.2185 -0.7413
  366MOL0     C50434   8.226  10.429   0.888  0.9683  0.0552 -0.0671
  366MOL0     C50435   8.251  10.496   0.990  1.0126  0.1951  0.1839
  366MOL0     C50436   8.022   9.800   0.859 -0.1290 -0.0826 -0.3582
  366MOL0     C50437   7.957   9.677   0.853 -0.7290  0.0444  0.2069
  366MOL0     C50438   8.049   9.561   0.831 -0.3217  0.0025 -0.2131
  366MOL0     H50439   7.540   9.439   1.138 -4.7067 -0.3281  2.7735
  366MOL0     H50440   7.381   9.259   1.154 -1.6690 -2.0854 -1.2906
  366MOL0     H50441   7.163   9.237   1.114 -1.3324  0.2482  0.8809
  366MOL0     H50442   7.251   9.086   1.161 -0.2705  0.6914  0.3119
  366MOL0     H50443   6.992   9.072   1.000  0.6911  2.7217 -0.6371
  366MOL0     H50444   7.085   8.948   1.087  1.2506  0.3046  1.4792
  366MOL0     H50445   7.031   9.054   1.294  0.6961 -1.0118  0.1536
  366MOL0     H50446   6.972   9.202   1.223 -3.2224  0.4456 -2.0277
  366MOL0     H50447   6.782   9.073   1.106  0.2474  0.0061 -1.6145
  366MOL0     H50448   6.860   8.917   1.158 -1.0961 -0.2302  0.1674
  366MOL0     H50449   6.782   9.132   1.364  1.1994 -0.3671  0.5732
  366MOL0     H50450   6.811   8.963   1.402  1.8910 -0.9270 -1.9739
  366MOL0     H50451   6.605   8.994   1.198  2.5929 -0.3065 -0.8784
  366MOL0     H50452   6.639   8.866   1.312  1.2824 -1.0375  1.5167
  366MOL0     H50453   6.437   9.045   1.327  0.8625  1.0290 -0.2260
  366MOL0     H50454   6.547   9.128   1.434  0.6740  0.1412  0.9943
  366MOL0     H50455   6.446   8.842   1.457  0.1020 -0.4896 -0.0418
  366MOL0     H50456   6.596   8.900   1.545 -0.0033 -1.6710  0.3824
  366MOL0     H50457   6.231   8.863   1.607  1.2755 -1.4968 -0.7022
  366MOL0     H50458   6.052   9.094   1.740  1.3390  1.6467  1.2869
  366MOL0     H50459   6.119   9.125   1.892  0.0613 -2.1550  0.3749
  366MOL0     H50460   5.967   8.918   1.857  0.1355 -1.9335  0.4692
  366MOL0     H50461   6.101   8.841   1.792  0.2644 -0.9178  1.3083
  366MOL0     H50462   6.218   8.938   2.046 -0.0115  0.5982 -1.1637
  366MOL0     H50463   6.055   8.947   2.087  1.8386 -0.6370  2.8832
  366MOL0     H50464   6.175   8.714   2.138 -0.7297 -0.6539 -0.6865
  366MOL0     H50465   6.020   8.711   2.060  0.0979 -0.7555  1.4654
  366MOL0     H50466   6.294   8.561   1.748  1.1650 -2.5107 -0.7622
  366MOL0     H50467   6.588   8.441   1.692 -2.7578 -0.7683  2.3935
  366MOL0     H50468   6.607   8.589   1.584 -0.0376 -0.9873 -1.1598
  366MOL0     H50469   6.458   8.511   1.588  0.8359  1.8504 -1.8079
  366MOL0     H50470   6.967   8.784   1.691  2.5440  1.5474  1.6755
  366MOL0     H50471   7.209   8.758   1.641 -0.3632  0.4191  0.0573
  366MOL0     H50472   7.362   8.580   1.484  0.9303 -3.3876 -1.1704
  366MOL0     H50473   7.432   8.696   1.595 -0.8268  0.4037 -1.1383
  366MOL0     H50474   7.592   8.514   1.655 -3.7716 -1.3983  2.1376
  366MOL0     H50475   7.523   8.409   1.522  0.6295 -0.6179  0.3629
  366MOL0     H50476   7.643   8.686   1.460  3.3149 -1.5375 -0.9161
  366MOL0     H50477   7.549   8.571   1.352  1.8658 -2.3419 -1.7987
  366MOL0     H50478   7.739   8.411   1.397  3.0963 -0.0633  0.7553
  366MOL0     H50479   7.832   8.537   1.468 -0.4320 -1.7780  1.5251
  366MOL0     H50480   7.724   8.549   1.176  1.7089  0.4453 -0.9837
  366MOL0     H50481   7.808   8.682   1.257 -2.1109  0.3274  1.0404
  366MOL0     H50482   8.013   8.569   1.242 -0.1816 -0.8275  1.5459
  366MOL0     H50483   7.937   8.530   1.096 -0.8056  4.2608  0.0017
  366MOL0     H50484   7.881   8.297   1.175  0.8270 -0.5842 -1.4516
  366MOL0     H50485   7.938   8.338   1.337  1.6369  0.4824  0.6235
  366MOL0     H50486   8.116   8.385   1.095  0.9965  0.0164  0.4393
  366MOL0     H50487   8.114   8.222   1.152  1.9892 -0.9640 -0.1898
  366MOL0     H50488   7.184   8.353   1.800 -3.1409 -1.6941 -0.5960
  366MOL0     H50489   6.948   8.380   1.845  0.7631 -0.7255  0.7064
  366MOL0     H50490   6.599   8.768   2.060  0.2492 -2.1818  0.7336
  366MOL0     H50491   6.376   8.793   2.095  1.0540 -2.1856  0.8108
  366MOL0     H50492   7.306   9.265   0.734  0.2022  0.2723  0.5764
  366MOL0     H50493   7.462   9.459   0.715 -5.2859 -0.5032 -1.7241
  366MOL0     H50494   7.639   9.820   0.888  0.4057 -1.2659  0.4626
  366MOL0     H50495   7.762  10.028   0.898  0.7953  0.7479  0.0975
  366MOL0     H50496   7.973  10.133   1.062 -1.3853  1.7226 -0.1610
  366MOL0     H50497   8.129  10.172   0.994 -0.2786  1.6122  0.0662
  366MOL0     H50498   7.954  10.330   0.975 -0.1145 -0.0270 -0.3203
  366MOL0     H50499   7.867  10.239   0.846 -0.6547  1.7792  0.5327
  366MOL0     H50500   8.055  10.244   0.695  3.8298  0.8491  0.1159
  366MOL0     H50501   8.006  10.402   0.728  2.1672  0.9004 -0.9944
  366MOL0     H50502   8.223  10.376   0.684  0.1513 -2.0085 -1.5136
  366MOL0     H50503   8.243  10.236   0.797  1.6816  0.8276  0.4231
  366MOL0     H50504   8.272  10.529   1.090 -0.7665  0.9109  0.3589
  366MOL0     H50505   8.129   9.810   0.844  0.0358 -0.4666  0.5061
  366MOL0     H50506   8.011   9.479   0.893 -2.5578  0.3100 -1.0651
  366MOL0     H50507   8.041   9.525   0.728  0.8220  0.3158 -0.4272
  366MOL0     H50508   8.154   9.583   0.850 -0.0976  1.2553 -2.5245
  367MOL0     O50509   5.430   7.711   9.632 -0.0418  0.1807 -0.3384
  367MOL0     C50510   5.547   7.717   9.597 -0.2293  0.2842  0.1993
  367MOL0     O50511   5.628   7.615   9.604 -0.1934 -0.2408  0.4139
  367MOL0     C50512   5.578   7.483   9.601 -0.5472  0.1352  0.4413
  367MOL0     C50513   5.679   7.384   9.637  1.0066 -0.5856 -0.0760
  367MOL0     C50514   5.649   7.248   9.633  0.0266  0.1863 -0.1888
  367MOL0     C50515   5.520   7.202   9.605  0.3917  0.3623  0.1545
  367MOL0     O50516   5.496   7.066   9.576 -0.1388 -0.5985 -0.5912
  367MOL0     C50517   5.387   6.989   9.623 -0.2303 -0.0886  0.4046
  367MOL0     C50518   5.403   6.956   9.771 -1.3171  0.5450 -0.3135
  367MOL0     C50519   5.341   6.821   9.815  0.4948 -0.8470  0.8315
  367MOL0     C50520   5.443   6.702   9.797  0.3826 -0.6565  0.3396
  367MOL0     C50521   5.387   6.570   9.855  0.2317  0.5173  0.9298
  367MOL0     C50522   5.267   6.504   9.771 -0.2257 -0.8892 -0.0528
  367MOL0     C50523   5.306   6.464   9.634  0.1275  0.6417  0.2151
  367MOL0     C50524   5.195   6.407   9.541  0.0359  0.3511  0.5617
  367MOL0     N50525   5.147   6.274   9.577 -0.3284 -0.2683 -0.2198
  367MOL0     C50526   5.052   6.255   9.667 -0.2407  0.4701  0.8723
  367MOL0     C50527   4.996   6.140   9.630  0.1273  0.4679 -0.3093
  367MOL0     C50528   4.878   6.087   9.710  0.9723  0.1208 -0.1975
  367MOL0     C50529   4.917   6.015   9.838 -0.5968  0.3799 -0.3618
  367MOL0     C50530   5.012   5.895   9.812 -0.1546  0.0776  0.7881
  367MOL0     C50531   5.021   5.817   9.938  1.0217 -0.3046  0.4011
  367MOL0     O50532   5.126   5.713   9.946 -0.0123 -0.0876  0.2192
  367MOL0     C50533   5.132   5.648  10.073  0.3923  0.8725 -0.4883
  367MOL0     C50534   5.207   5.529  10.071 -0.7766  0.8698 -0.1079
  367MOL0     C50535   5.219   5.443  10.181 -0.2845  0.9177  1.0000
  367MOL0     C50536   5.309   5.324  10.168 -0.4998 -0.1647 -0.5654
  367MOL0     C50537   5.151   5.477  10.302 -0.2542 -0.6887  0.2928
  367MOL0     C50538   5.173   5.398  10.424  0.8436 -0.3353  0.6281
  367MOL0     O50539   5.079   5.427  10.519 -0.5726  0.2968 -0.3537
  367MOL0     C50540   5.063   5.330  10.617  0.5088  0.3023 -0.1584
  367MOL0     C50541   5.162   5.294  10.711  0.4297 -0.0053 -0.6729
  367MOL0     C50542   5.130   5.197  10.814 -0.0751  0.3602  0.3492
  367MOL0     C50543   4.996   5.134  10.817  0.0542 -0.3167 -0.5081
  367MOL0     O50544   4.969   5.026  10.898  0.2514 -0.0908  0.3239
  367MOL0     C50545   4.846   5.029  10.961 -0.1102 -0.2582  0.7403
  367MOL0     C50546   4.842   4.941  11.091  0.7860 -0.8029 -0.0427
  367MOL0     C50547   4.703   4.964  11.161  0.1059  1.0036  0.5154
  367MOL0     C50548   4.695   4.867  11.292  0.2933 -0.9389 -0.0871
  367MOL0     C50549   4.565   4.872  11.356  0.2283 -0.2058 -0.1926
  367MOL0     C50550   4.543   4.812  11.503  0.3496  0.2411 -0.3646
  367MOL0     C50551   4.404   4.764  11.516  0.2092 -0.8638 -0.2925
  367MOL0     C50552   4.388   4.620  11.471 -0.2157 -0.6886  0.2216
  367MOL0    Cl50553   4.231   4.564  11.520 -0.2906 -0.2850  0.2234
  367MOL0     C50554   4.905   5.174  10.723 -0.1558 -0.9752  0.2366
  367MOL0     C50555   4.933   5.270  10.623  0.2563 -0.7216  0.1916
  367MOL0     O50556   5.264   5.318  10.433  0.5265 -0.0137  0.6757
  367MOL0     C50557   5.057   5.588  10.291 -0.0528 -0.3888  0.0174
  367MOL0     C50558   5.047   5.672  10.183  0.0175  0.3621  0.3639
  367MOL0     N50559   5.066   6.079   9.530  1.0312  0.0478  1.0983
  367MOL0     N50560   5.160   6.157   9.500  0.4567  0.3747 -0.1132
  367MOL0     C50561   5.421   7.291   9.578 -0.2092  0.1759 -0.5867
  367MOL0     C50562   5.448   7.429   9.560  0.5775 -0.0496 -0.2082
  367MOL0     C50563   5.607   7.836   9.545 -0.5917 -0.0540 -0.7138
  367MOL0     C50564   5.742   7.871   9.570  0.2110 -0.0603  0.7704
  367MOL0     C50565   5.803   7.986   9.521 -0.4542 -0.1340 -0.7468
  367MOL0     C50566   5.731   8.071   9.444 -0.1507 -0.1117 -0.2347
  367MOL0     O50567   5.783   8.184   9.391 -0.7880  0.0630 -0.2963
  367MOL0     C50568   5.710   8.306   9.423  0.1097  0.1170 -0.9819
  367MOL0     C50569   5.802   8.400   9.490  1.1258 -0.7389 -0.6388
  367MOL0     C50570   5.736   8.536   9.525  0.5078 -0.1014  0.1132
  367MOL0     C50571   5.645   8.598   9.413 -0.0137 -0.2477  0.2114
  367MOL0     C50572   5.648   8.745   9.437 -0.0548  0.2175  1.0377
  367MOL0     C50573   5.639   8.862   9.453 -0.1102 -0.3204 -0.5134
  367MOL0     C50574   5.602   8.036   9.411  0.0585  0.2838 -0.2085
  367MOL0     C50575   5.539   7.923   9.459  0.9600  0.2321  0.2463
  367MOL0     C50576   5.394   7.915   9.428  0.0289 -0.0522 -0.2486
  367MOL0     H50577   5.770   7.417   9.686 -0.2738 -0.8109  2.6360
  367MOL0     H50578   5.729   7.181   9.665 -0.4856  0.8688  2.7893
  367MOL0     H50579   5.408   6.890   9.580  0.8365 -0.1056  0.9230
  367MOL0     H50580   5.285   7.017   9.597  0.9184  1.9970 -2.4600
  367MOL0     H50581   5.507   6.941   9.799 -1.3836  1.5808  0.5137
  367MOL0     H50582   5.365   7.042   9.825 -0.6097 -0.6142  2.1550
  367MOL0     H50583   5.307   6.832   9.919 -1.0818  2.4010  0.1221
  367MOL0     H50584   5.251   6.799   9.756  0.5922 -0.0168  0.3619
  367MOL0     H50585   5.464   6.683   9.692  0.7373 -2.7446  0.7355
  367MOL0     H50586   5.529   6.737   9.855  1.3603 -0.0284 -1.4169
  367MOL0     H50587   5.361   6.585   9.960 -0.3761  3.2764  0.4669
  367MOL0     H50588   5.467   6.496   9.843  1.3868  1.9281 -0.5099
  367MOL0     H50589   5.235   6.419   9.832  1.1328 -0.5696  1.1557
  367MOL0     H50590   5.184   6.575   9.755  1.3957  0.7776 -1.6679
  367MOL0     H50591   5.385   6.388   9.641 -1.2112 -0.7604  0.6863
  367MOL0     H50592   5.351   6.546   9.578  1.2575 -1.4704 -2.1780
  367MOL0     H50593   5.105   6.468   9.531 -3.0060 -3.0008  3.8165
  367MOL0     H50594   5.252   6.394   9.449 -0.4185  4.1382 -0.4216
  367MOL0     H50595   5.032   6.322   9.750  0.9594 -1.1646  2.5751
  367MOL0     H50596   4.812   6.022   9.652 -2.6279  0.7718  2.7809
  367MOL0     H50597   4.811   6.167   9.744 -0.4616 -0.6529 -1.0579
  367MOL0     H50598   4.964   6.078   9.914  0.3272 -0.5023 -0.1609
  367MOL0     H50599   4.822   5.973   9.873  0.2919 -0.0199  1.7307
  367MOL0     H50600   4.974   5.827   9.735  0.0419  0.6584  0.1605
  367MOL0     H50601   5.114   5.922   9.780 -0.2552  0.9793  1.1948
  367MOL0     H50602   5.054   5.882  10.020  0.9010  0.4498 -0.1378
  367MOL0     H50603   4.921   5.776   9.955  1.5410 -0.9943  2.0730
  367MOL0     H50604   5.267   5.521   9.980 -0.6023  1.2781 -0.0292
  367MOL0     H50605   5.254   5.239  10.209 -2.2601  0.0243 -2.3802
  367MOL0     H50606   5.399   5.346  10.226 -1.3603 -0.2255  0.8422
  367MOL0     H50607   5.337   5.297  10.065  1.6186  0.3059 -0.1620
  367MOL0     H50608   5.264   5.331  10.715  0.9458 -0.9595 -3.2505
  367MOL0     H50609   5.219   5.170  10.870  1.3775 -0.5888 -2.2543
  367MOL0     H50610   4.836   5.136  10.984 -0.3702  0.3721 -1.9606
  367MOL0     H50611   4.768   4.997  10.891 -1.7930 -0.2996  2.5236
  367MOL0     H50612   4.848   4.834  11.073  2.1404 -0.8153  0.4094
  367MOL0     H50613   4.920   4.975  11.160 -0.2695  1.3520  0.1764
  367MOL0     H50614   4.633   4.928  11.086  2.8813 -1.6613 -1.0350
  367MOL0     H50615   4.675   5.067  11.186  0.5493  0.5342  3.1790
  367MOL0     H50616   4.769   4.893  11.368  0.8603 -2.4064 -0.0961
  367MOL0     H50617   4.720   4.764  11.266 -0.8683 -1.5627  1.1202
  367MOL0     H50618   4.537   4.977  11.375 -3.6212 -1.0785 -0.1457
  367MOL0     H50619   4.487   4.830  11.293 -2.1954  2.5891  0.6861
  367MOL0     H50620   4.570   4.895  11.568  0.1818 -0.2724  0.3768
  367MOL0     H50621   4.614   4.735  11.533  0.8467  1.5449  1.9756
  367MOL0     H50622   4.346   4.839  11.462  2.0782  0.8276 -0.0821
  367MOL0     H50623   4.382   4.760  11.623  2.2253  0.5737  0.2379
  367MOL0     H50624   4.465   4.555  11.513  0.3776 -0.3310 -0.2980
  367MOL0     H50625   4.390   4.613  11.362 -1.4321 -1.6053  0.2281
  367MOL0     H50626   4.810   5.122  10.726 -0.9682  0.5029  1.4581
  367MOL0     H50627   4.855   5.299  10.553  0.9541 -1.0471 -0.7381
  367MOL0     H50628   4.985   5.622  10.365 -1.3415  2.0221 -2.1823
  367MOL0     H50629   4.975   5.753  10.192 -1.5782 -0.9166 -0.4479
  367MOL0     H50630   5.331   7.236   9.554  0.8409 -1.6441 -0.5733
  367MOL0     H50631   5.371   7.500   9.532 -0.2612  0.6120  3.2745
  367MOL0     H50632   5.812   7.815   9.631  3.1828  3.0242  0.4767
  367MOL0     H50633   5.907   8.004   9.544 -0.2441 -0.9350 -1.0437
  367MOL0     H50634   5.666   8.342   9.330 -0.7377  0.9561 -0.2595
  367MOL0     H50635   5.633   8.289   9.498  1.6317 -1.7552  0.2587
  367MOL0     H50636   5.892   8.412   9.430  1.8831 -1.5156  0.3179
  367MOL0     H50637   5.840   8.357   9.582  0.3836 -2.1386 -0.9573
  367MOL0     H50638   5.676   8.511   9.613  0.5948 -0.6690  0.0157
  367MOL0     H50639   5.816   8.603   9.554  1.3280  0.7545 -3.6438
  367MOL0     H50640   5.548   8.548   9.416 -0.3451  0.0608 -2.6673
  367MOL0     H50641   5.693   8.583   9.316 -0.3054  1.3954 -0.2102
  367MOL0     H50642   5.616   8.960   9.489 -0.4844 -0.1084 -1.3187
  367MOL0     H50643   5.542   8.106   9.353 -2.2145  0.2186  1.9173
  367MOL0     H50644   5.380   7.818   9.380 -2.8468  0.5647 -0.8669
  367MOL0     H50645   5.335   7.949   9.514 -1.0044 -1.7240 -0.2621
  367MOL0     H50646   5.377   7.979   9.341  0.7748  2.3152  1.2326
  368MOL0     O50647   0.417   2.042  10.453 -0.4811  0.0367 -0.5470
  368MOL0     C50648   0.309   2.009  10.494 -0.0448 -0.1575 -0.2864
  368MOL0     O50649   0.273   2.011  10.626  0.2693 -0.0476  0.2886
  368MOL0     C50650   0.358   2.066  10.721  0.4378 -0.3781  0.1217
  368MOL0     C50651   0.288   2.141  10.818 -0.0573 -1.1174  0.7140
  368MOL0     C50652   0.360   2.205  10.920 -0.0165 -0.4641  0.6027
  368MOL0     C50653   0.500   2.182  10.932 -0.1612 -0.2588  0.1647
  368MOL0     O50654   0.562   2.231  11.046 -0.1302  1.0269 -0.2438
  368MOL0     C50655   0.700   2.215  11.082 -0.1624 -0.2168  0.8792
  368MOL0     C50656   0.781   2.336  11.040 -1.1009  0.2071 -0.2966
  368MOL0     C50657   0.737   2.458  11.115  0.2739  0.1689 -0.5478
  368MOL0     C50658   0.803   2.595  11.095  0.6668 -0.0789  0.7883
  368MOL0     C50659   0.735   2.718  11.161  0.7760 -0.3077 -0.5985
  368MOL0     C50660   0.590   2.733  11.106 -0.6448 -0.0111  0.1714
  368MOL0     C50661   0.524   2.851  11.170 -0.5700 -0.8251 -0.3693
  368MOL0     C50662   0.490   2.836  11.322 -0.3411  0.3362  0.1181
  368MOL0     N50663   0.423   2.938  11.400  0.1926 -0.4019  0.1909
  368MOL0     C50664   0.490   3.047  11.460  0.0433  0.5625  0.2152
  368MOL0     C50665   0.389   3.118  11.513 -0.9079  0.1781  0.5132
  368MOL0     C50666   0.414   3.237  11.601  0.3057  0.0335 -0.6976
  368MOL0     C50667   0.495   3.213  11.737  0.1161 -0.0475 -0.3842
  368MOL0     C50668   0.415   3.224  11.871  0.1479 -0.0037  0.0080
  368MOL0     C50669   0.492   3.166  11.994  0.3549 -0.1857  0.2428
  368MOL0     O50670   0.602   3.250  12.028 -0.6362  0.0466  0.1337
  368MOL0     C50671   0.707   3.202  12.099 -0.0876 -0.5859 -0.8432
  368MOL0     C50672   0.726   3.079  12.160 -0.6222 -0.1267 -0.1414
  368MOL0     C50673   0.834   3.052  12.250 -0.3489  0.0374  0.3218
  368MOL0     C50674   0.843   2.914  12.306 -0.6163 -0.1339  0.2307
  368MOL0     C50675   0.935   3.143  12.272  0.0969 -0.1864 -0.8255
  368MOL0     C50676   1.039   3.145  12.374 -0.0598 -0.3710  1.0773
  368MOL0     O50677   1.050   3.031  12.451  0.9700  0.3815  0.7308
  368MOL0     C50678   1.170   2.973  12.473 -0.1147 -0.3670 -0.0390
  368MOL0     C50679   1.174   2.872  12.564 -0.6621 -0.5110 -0.8810
  368MOL0     C50680   1.288   2.799  12.594 -1.0384  0.5622  0.4009
  368MOL0     C50681   1.414   2.829  12.524  0.7713  0.4133 -0.0675
  368MOL0     O50682   1.541   2.787  12.562 -0.5217 -0.2049  0.2356
  368MOL0     C50683   1.544   2.736  12.698 -0.5494 -0.0201  0.4623
  368MOL0     C50684   1.688   2.698  12.742  0.1388  0.2116 -0.6055
  368MOL0     C50685   1.745   2.567  12.681  0.3052  0.3918 -0.7302
  368MOL0     C50686   1.841   2.592  12.564 -0.7034 -0.0077  0.0526
  368MOL0     C50687   1.980   2.640  12.616 -0.3177  0.0893 -0.4540
  368MOL0     C50688   2.092   2.628  12.502  0.4773 -0.1540  0.5241
  368MOL0     C50689   2.143   2.480  12.477 -0.1988  0.3996  0.0188
  368MOL0     C50690   2.288   2.457  12.510 -0.3571 -1.0680 -0.9801
  368MOL0    Cl50691   2.315   2.273  12.525  0.4494 -0.2121 -0.0077
  368MOL0     C50692   1.405   2.935  12.430  0.8353  0.3374  0.3644
  368MOL0     C50693   1.285   2.995  12.402  0.3735 -0.0407 -0.3363
  368MOL0     O50694   1.113   3.236  12.373 -0.5638  0.4904 -0.0486
  368MOL0     C50695   0.920   3.262  12.189 -0.4319  0.2990 -0.1970
  368MOL0     C50696   0.812   3.293  12.115 -0.4144  0.8554 -0.0568
  368MOL0     N50697   0.267   3.056  11.504  0.3622 -0.1243  0.1452
  368MOL0     N50698   0.287   2.954  11.427 -0.1686  0.1569 -0.2274
  368MOL0     C50699   0.569   2.103  10.841 -1.0173 -0.4239  0.2044
  368MOL0     C50700   0.497   2.047  10.741 -0.1984  0.6182 -1.2121
  368MOL0     C50701   0.202   1.989  10.395  0.4804 -0.6843 -0.7613
  368MOL0     C50702   0.068   2.010  10.443 -0.0291 -0.8707  0.0647
  368MOL0     C50703  -0.041   1.978  10.363 -0.4373 -0.6366  0.5564
  368MOL0     C50704  -0.028   1.945  10.229 -0.0759 -0.2739  0.9751
  368MOL0     O50705  -0.146   1.915  10.157  0.4312  0.1722 -0.4855
  368MOL0     C50706  -0.142   1.854  10.026  0.3438 -0.3247 -0.6813
  368MOL0     C50707  -0.149   1.962   9.916  0.9332  0.2860 -0.3354
  368MOL0     C50708  -0.265   2.060   9.932  0.2092 -0.8050  0.0809
  368MOL0     C50709  -0.400   2.023   9.865  0.4844 -1.0362 -0.1780
  368MOL0     C50710  -0.477   2.144   9.885 -0.0917 -0.0267 -0.9122
  368MOL0     C50711  -0.555   2.243   9.893 -0.3690  0.0763  0.5666
  368MOL0     C50712   0.101   1.949  10.180  0.0472  0.2111  0.8042
  368MOL0     C50713   0.223   1.959  10.254 -0.0211 -1.1472 -0.4841
  368MOL0     C50714   0.351   1.959  10.175  0.3445 -0.3589 -0.1456
  368MOL0     H50715   0.181   2.162  10.814  0.2840  1.2549  2.1961
  368MOL0     H50716   0.302   2.264  10.991 -3.9916 -3.7957  0.5072
  368MOL0     H50717   0.753   2.123  11.055  2.4959  2.0300 -2.2652
  368MOL0     H50718   0.695   2.206  11.191 -0.2958 -0.6724  0.8360
  368MOL0     H50719   0.885   2.316  11.067 -0.2096  3.3162 -0.9956
  368MOL0     H50720   0.777   2.356  10.932 -2.2672  2.7148  0.1193
  368MOL0     H50721   0.629   2.469  11.100  0.2950  0.1498 -0.7120
  368MOL0     H50722   0.746   2.429  11.220 -1.4674 -1.1518 -0.7046
  368MOL0     H50723   0.907   2.600  11.129  3.0092 -1.9607 -4.9556
  368MOL0     H50724   0.805   2.608  10.987  0.7604  2.6087  1.0451
  368MOL0     H50725   0.786   2.814  11.156 -0.9601  0.6026 -1.3704
  368MOL0     H50726   0.723   2.692  11.267  2.9861  0.0286 -0.2318
  368MOL0     H50727   0.603   2.760  11.000  3.6578 -0.4854  0.3917
  368MOL0     H50728   0.528   2.645  11.123 -0.6329 -0.1734 -0.5663
  368MOL0     H50729   0.425   2.860  11.126 -1.4809 -4.2010  0.7069
  368MOL0     H50730   0.591   2.935  11.153 -1.0590 -0.4817 -0.6051
  368MOL0     H50731   0.436   2.741  11.327  0.2976  0.0296  1.9787
  368MOL0     H50732   0.586   2.826  11.374 -0.3125  2.0998  0.4608
  368MOL0     H50733   0.593   3.081  11.458 -0.1052  0.9961 -0.2376
  368MOL0     H50734   0.322   3.294  11.613 -2.1166 -3.7901  0.5494
  368MOL0     H50735   0.478   3.296  11.535  3.2254  0.9442  2.6415
  368MOL0     H50736   0.541   3.114  11.736 -0.1871 -0.2172  0.7534
  368MOL0     H50737   0.579   3.284  11.739 -1.5371  1.9776 -0.3843
  368MOL0     H50738   0.367   3.322  11.878 -2.2987 -0.9718 -1.8026
  368MOL0     H50739   0.330   3.155  11.868  0.8168 -0.7939 -1.3016
  368MOL0     H50740   0.428   3.174  12.083  1.3053 -0.2578  0.9553
  368MOL0     H50741   0.526   3.065  11.974  0.6219  0.2833 -1.8857
  368MOL0     H50742   0.659   2.994  12.147 -1.8743  0.2494  3.0311
  368MOL0     H50743   0.940   2.863  12.302 -1.4600 -1.7420 -0.3154
  368MOL0     H50744   0.770   2.843  12.266 -0.6026  0.2132 -0.4174
  368MOL0     H50745   0.810   2.929  12.410 -1.6516 -1.0777  0.0580
  368MOL0     H50746   1.076   2.867  12.611 -0.0881  1.1669  0.6368
  368MOL0     H50747   1.281   2.720  12.668 -0.3691  1.0558  0.9984
  368MOL0     H50748   1.504   2.822  12.753  0.3750  2.6147 -2.6508
  368MOL0     H50749   1.481   2.649  12.716 -1.1458  0.4911  0.9217
  368MOL0     H50750   1.755   2.785  12.734 -0.0195  0.6035  1.5423
  368MOL0     H50751   1.685   2.663  12.846  1.6274 -1.5700 -1.1166
  368MOL0     H50752   1.659   2.511  12.644  1.6822 -0.2422 -3.1886
  368MOL0     H50753   1.790   2.501  12.756  1.6301 -0.0336 -1.8522
  368MOL0     H50754   1.803   2.665  12.491 -1.2899 -0.3505  0.0003
  368MOL0     H50755   1.857   2.497  12.510  0.2401 -1.5433  2.8476
  368MOL0     H50756   1.964   2.743  12.649 -4.7115 -0.6124  0.2869
  368MOL0     H50757   2.014   2.583  12.703 -1.6328 -1.6027 -0.9765
  368MOL0     H50758   2.164   2.709  12.515  0.1985  0.3855 -1.0103
  368MOL0     H50759   2.046   2.658  12.407 -0.3708 -0.4306  0.8385
  368MOL0     H50760   2.156   2.456  12.371  1.4309 -0.8756  0.4777
  368MOL0     H50761   2.074   2.412  12.527  0.0056 -1.6205 -2.2753
  368MOL0     H50762   2.315   2.497  12.608 -0.2904  2.8017 -2.4225
  368MOL0     H50763   2.347   2.513  12.437 -0.2305  2.7779  1.7773
  368MOL0     H50764   1.494   2.960  12.373  1.0629 -2.5365 -0.7055
  368MOL0     H50765   1.280   3.064  12.318 -2.0718  0.3569  0.0519
  368MOL0     H50766   0.999   3.335  12.174  1.6616 -1.6340  0.7897
  368MOL0     H50767   0.798   3.387  12.062  1.3332  1.3135  0.2362
  368MOL0     H50768   0.674   2.076  10.844 -0.6825  0.8177  0.0958
  368MOL0     H50769   0.556   1.981  10.677 -1.6375 -3.0454  0.9124
  368MOL0     H50770   0.058   2.039  10.547  1.2295 -0.0126 -0.0212
  368MOL0     H50771  -0.143   1.992  10.397 -0.0480 -0.7890  1.8511
  368MOL0     H50772  -0.050   1.795  10.024  0.7420  0.2947 -0.8295
  368MOL0     H50773  -0.234   1.795  10.013 -1.3331  2.3771 -2.0307
  368MOL0     H50774  -0.149   1.909   9.820  0.0256  1.3456 -0.9393
  368MOL0     H50775  -0.057   2.017   9.896  2.5041 -1.8992  0.3986
  368MOL0     H50776  -0.277   2.085  10.038  0.2793 -1.1468  0.1707
  368MOL0     H50777  -0.237   2.155   9.886 -0.3160 -0.4028  0.5794
  368MOL0     H50778  -0.454   1.938   9.909  0.7504 -1.0574  0.1045
  368MOL0     H50779  -0.391   1.998   9.759 -0.4998 -1.4254 -0.1865
  368MOL0     H50780  -0.620   2.328   9.902  0.2344  0.6424 -0.2196
  368MOL0     H50781   0.120   1.923  10.076 -1.1006  2.5475 -0.0535
  368MOL0     H50782   0.401   2.057  10.174  3.9430 -2.0500 -1.2004
  368MOL0     H50783   0.421   1.898  10.233 -0.5099  1.9488  3.7471
  368MOL0     H50784   0.329   1.924  10.074 -0.2627  1.9460 -0.8726
  369MOL0     O50785   2.394   6.897   7.091  0.3581 -0.6634  0.8138
  369MOL0     C50786   2.359   6.997   7.021 -0.2383 -0.0966  0.0370
  369MOL0     O50787   2.456   7.083   6.973 -0.6067 -0.3140  0.2665
  369MOL0     C50788   2.597   7.074   6.997  1.1725  0.9783 -1.3804
  369MOL0     C50789   2.680   6.972   6.938  0.0347  0.7777 -0.8351
  369MOL0     C50790   2.815   6.976   6.952 -0.4000 -0.7132 -0.0557
  369MOL0     C50791   2.881   7.086   7.015 -0.0292 -0.8386 -0.6883
  369MOL0     O50792   3.022   7.101   7.040 -0.0824  0.3903 -0.2858
  369MOL0     C50793   3.107   6.988   7.032 -0.1605  0.8086  1.2942
  369MOL0     C50794   3.252   7.003   7.084 -0.0163 -1.4335 -0.3091
  369MOL0     C50795   3.337   6.881   7.095  0.3774  0.4764  1.0892
  369MOL0     C50796   3.466   6.914   7.175  0.9725  1.0480  0.2967
  369MOL0     C50797   3.538   6.781   7.212 -0.1227 -0.5825  0.2908
  369MOL0     C50798   3.611   6.717   7.094  0.1422 -0.4641  0.5613
  369MOL0     C50799   3.673   6.578   7.130  0.0740  0.2214  0.0918
  369MOL0     C50800   3.768   6.523   7.024 -0.0527  0.1568 -0.5520
  369MOL0     N50801   3.903   6.586   7.029 -0.5987  0.3390 -0.2465
  369MOL0     C50802   3.948   6.699   6.962  0.3790  0.7585  0.0749
  369MOL0     C50803   4.048   6.741   7.033 -0.0815 -0.4287 -0.4644
  369MOL0     C50804   4.125   6.872   6.992 -1.2486 -0.2238 -0.4413
  369MOL0     C50805   4.277   6.850   6.979 -0.2268 -0.1404 -0.0262
  369MOL0     C50806   4.368   6.976   6.956  0.3398 -0.5000  0.2943
  369MOL0     C50807   4.376   7.069   7.081 -0.4332  0.5909 -1.9354
  369MOL0     O50808   4.437   7.004   7.193  0.4573  0.4334 -0.1501
  369MOL0     C50809   4.562   6.951   7.184  0.7200  0.8413 -0.5816
  369MOL0     C50810   4.668   6.996   7.102  0.5903  0.6975 -0.2693
  369MOL0     C50811   4.796   6.942   7.102  0.4026 -0.7159 -0.3038
  369MOL0     C50812   4.894   6.994   7.001 -0.0774  0.0012  0.0980
  369MOL0     C50813   4.835   6.850   7.201  0.5082 -0.0688 -0.0391
  369MOL0     C50814   4.968   6.784   7.208  1.0013  0.3221 -0.0532
  369MOL0     O50815   4.987   6.702   7.323  0.1520  0.1446  0.7048
  369MOL0     C50816   5.118   6.646   7.340  0.6080  0.2797 -0.2858
  369MOL0     C50817   5.247   6.688   7.292  0.6748  0.6463 -0.6827
  369MOL0     C50818   5.356   6.618   7.324 -0.8336 -0.2283 -0.1635
  369MOL0     C50819   5.348   6.498   7.390 -0.3495  0.6200  0.1500
  369MOL0     O50820   5.474   6.437   7.406  0.6924  0.4199 -0.9654
  369MOL0     C50821   5.486   6.343   7.519 -0.1866 -0.4566  0.3834
  369MOL0     C50822   5.629   6.286   7.541 -0.3259  0.1919  1.0411
  369MOL0     C50823   5.739   6.385   7.599 -0.8669 -1.0318 -0.0554
  369MOL0     C50824   5.702   6.447   7.738  0.4666 -0.2222  0.1657
  369MOL0     C50825   5.826   6.505   7.812  0.0446 -0.3812 -0.5255
  369MOL0     C50826   5.798   6.548   7.957  0.6118 -0.4032  0.4010
  369MOL0     C50827   5.839   6.432   8.049 -0.4191 -0.4260  0.5641
  369MOL0     C50828   5.829   6.485   8.194  0.0111  0.7330 -0.5328
  369MOL0    Cl50829   5.917   6.362   8.302 -0.1138 -0.1219  0.0660
  369MOL0     C50830   5.215   6.450   7.429 -0.4425  0.6599 -0.2245
  369MOL0     C50831   5.099   6.527   7.405 -1.2060  1.0335  1.0074
  369MOL0     O50832   5.049   6.804   7.125 -0.3502 -0.1102 -0.3286
  369MOL0     C50833   4.728   6.819   7.294  0.0752 -0.1062  0.2660
  369MOL0     C50834   4.597   6.862   7.283 -0.6621  0.0975  0.3047
  369MOL0     N50835   4.064   6.669   7.147 -0.2089 -0.3745  0.3790
  369MOL0     N50836   3.994   6.560   7.132  0.7875 -0.1174 -0.4975
  369MOL0     C50837   2.802   7.184   7.075  0.6613 -0.1438 -0.9620
  369MOL0     C50838   2.661   7.183   7.060 -0.1916 -0.1630  0.4256
  369MOL0     C50839   2.217   7.022   6.993 -0.2889  0.2933  0.6095
  369MOL0     C50840   2.182   7.115   6.897 -0.0160  0.1213  0.7999
  369MOL0     C50841   2.049   7.143   6.855  0.2590 -0.3761 -0.6967
  369MOL0     C50842   1.947   7.075   6.924 -0.2441  0.3514 -0.1035
  369MOL0     O50843   1.821   7.094   6.872 -0.0355  0.7453  1.3651
  369MOL0     C50844   1.718   7.002   6.898 -1.6720 -0.1708  0.1741
  369MOL0     C50845   1.587   7.054   6.839 -0.8212 -0.5440  0.1813
  369MOL0     C50846   1.483   6.961   6.884  0.5619 -0.0492  0.7822
  369MOL0     C50847   1.353   6.992   6.820 -0.4923 -0.2787 -0.5076
  369MOL0     C50848   1.235   6.922   6.869 -1.2440 -0.2325  0.4950
  369MOL0     C50849   1.143   6.860   6.919  0.2052  0.5539  0.6369
  369MOL0     C50850   1.978   6.987   7.030  0.7096 -0.6396 -0.2834
  369MOL0     C50851   2.111   6.959   7.069  0.1083  0.0947  0.4986
  369MOL0     C50852   2.119   6.851   7.173 -0.5183  0.3215  0.0220
  369MOL0     H50853   2.637   6.885   6.891  1.7306 -1.3551  1.3373
  369MOL0     H50854   2.881   6.907   6.900 -2.3887 -2.5704 -0.2844
  369MOL0     H50855   3.107   6.935   6.936  3.4831  0.0956  1.5725
  369MOL0     H50856   3.062   6.915   7.099 -0.5284 -0.2688 -0.0804
  369MOL0     H50857   3.303   7.073   7.018  0.5206  0.4408  1.9503
  369MOL0     H50858   3.243   7.052   7.182  0.1773 -4.9581  1.6705
  369MOL0     H50859   3.284   6.811   7.161  0.3415 -1.2526 -0.6655
  369MOL0     H50860   3.344   6.836   6.995 -1.2613  1.2929  0.5733
  369MOL0     H50861   3.533   6.982   7.121  1.0378  0.9839  0.2965
  369MOL0     H50862   3.426   6.956   7.267  1.1935  2.1633 -0.0966
  369MOL0     H50863   3.463   6.710   7.248  1.5638 -0.9009  3.5808
  369MOL0     H50864   3.610   6.801   7.293 -0.0913  0.5695  0.0012
  369MOL0     H50865   3.536   6.698   7.016  1.9668  0.7785 -1.6079
  369MOL0     H50866   3.689   6.788   7.065  0.7905 -1.0698  0.7915
  369MOL0     H50867   3.586   6.513   7.140  0.0897  0.0638 -0.7431
  369MOL0     H50868   3.720   6.583   7.229 -0.7161  0.5542  0.4590
  369MOL0     H50869   3.788   6.419   7.053 -0.0709  0.3987  0.3843
  369MOL0     H50870   3.740   6.519   6.919  3.7550 -2.0108 -1.6920
  369MOL0     H50871   3.899   6.752   6.882  0.5889 -0.9480 -1.2484
  369MOL0     H50872   4.108   6.951   7.066  1.9195 -0.0690  0.2572
  369MOL0     H50873   4.094   6.912   6.895  0.1268  2.0504 -0.0191
  369MOL0     H50874   4.306   6.810   7.077  0.2127 -1.3841 -0.6529
  369MOL0     H50875   4.294   6.773   6.904 -1.0647 -0.5488  0.1957
  369MOL0     H50876   4.469   6.937   6.937  0.5371 -1.4553  2.8816
  369MOL0     H50877   4.346   7.034   6.866  1.6482 -1.1156 -0.4501
  369MOL0     H50878   4.429   7.163   7.064 -1.2113  1.7867  1.5659
  369MOL0     H50879   4.272   7.086   7.108 -0.0730  0.3324 -0.3306
  369MOL0     H50880   4.647   7.079   7.035 -3.7787  1.1505  1.3734
  369MOL0     H50881   4.978   7.036   7.056  2.0327 -4.0291  0.3409
  369MOL0     H50882   4.838   7.058   6.933  0.3887 -0.6728 -0.9398
  369MOL0     H50883   4.936   6.913   6.941 -2.2186 -1.1521  0.0464
  369MOL0     H50884   5.249   6.789   7.251  0.8519  0.5740 -0.8521
  369MOL0     H50885   5.452   6.645   7.279 -1.1508 -1.2125 -1.5018
  369MOL0     H50886   5.477   6.398   7.614  3.7788 -0.0256  0.6869
  369MOL0     H50887   5.415   6.261   7.514  0.5377 -1.0512 -0.3479
  369MOL0     H50888   5.624   6.205   7.614  0.2526  0.9160  1.9171
  369MOL0     H50889   5.664   6.239   7.448 -0.4677 -0.1978  1.1842
  369MOL0     H50890   5.745   6.464   7.523  0.0278  0.1810  1.2283
  369MOL0     H50891   5.834   6.331   7.609 -0.1740 -0.1215 -1.3752
  369MOL0     H50892   5.659   6.362   7.792 -0.7159  0.6250  0.5948
  369MOL0     H50893   5.618   6.513   7.716  0.0135 -1.3564 -1.8244
  369MOL0     H50894   5.905   6.430   7.811  0.8309  0.4304 -2.3282
  369MOL0     H50895   5.848   6.592   7.750 -2.6201  1.8269  1.3720
  369MOL0     H50896   5.697   6.587   7.974  1.4807  0.7259  4.0438
  369MOL0     H50897   5.859   6.634   7.986  1.8835 -0.6664 -1.3319
  369MOL0     H50898   5.940   6.401   8.023 -0.2074  1.0171 -0.4946
  369MOL0     H50899   5.782   6.342   8.026  0.8973 -0.8525 -1.2417
  369MOL0     H50900   5.723   6.493   8.221  0.2662 -1.5776  1.4841
  369MOL0     H50901   5.873   6.583   8.212  1.5218  0.2192 -1.2673
  369MOL0     H50902   5.202   6.355   7.480 -2.4457  2.7220  3.6036
  369MOL0     H50903   5.009   6.493   7.456 -0.5915 -0.2793  1.2727
  369MOL0     H50904   4.745   6.765   7.386 -1.6584  2.8579  2.4844
  369MOL0     H50905   4.522   6.820   7.349  0.1208 -2.1336 -0.1286
  369MOL0     H50906   2.856   7.266   7.122  0.5027  0.2353 -1.4298
  369MOL0     H50907   2.600   7.265   7.098  0.0454  0.9414 -1.4444
  369MOL0     H50908   2.262   7.138   6.827 -1.0887  0.5739 -0.3236
  369MOL0     H50909   2.024   7.206   6.770  1.4425  1.6712  0.3871
  369MOL0     H50910   1.749   6.907   6.854  1.9091  0.7413  0.4097
  369MOL0     H50911   1.696   6.988   7.004  0.1676  1.9682  0.9247
  369MOL0     H50912   1.588   7.058   6.729 -1.7409 -0.3641  0.1676
  369MOL0     H50913   1.563   7.152   6.881 -0.0585 -0.2572 -0.0260
  369MOL0     H50914   1.506   6.857   6.861 -1.6353 -1.2380  3.3646
  369MOL0     H50915   1.476   6.969   6.993 -1.4422  1.7903  0.5740
  369MOL0     H50916   1.362   6.956   6.717 -0.7253 -1.0898 -0.2546
  369MOL0     H50917   1.337   7.100   6.827  0.6492 -0.2243  3.2547
  369MOL0     H50918   1.055   6.816   6.961 -0.7541  1.1614 -0.6757
  369MOL0     H50919   1.899   6.946   7.092  0.9145 -0.9842 -0.2445
  369MOL0     H50920   2.022   6.811   7.201 -1.2175  1.9928  0.1008
  369MOL0     H50921   2.172   6.762   7.138  0.9929  0.8034  0.9667
  369MOL0     H50922   2.177   6.893   7.257 -0.2886  0.3474 -0.1464
  370MOL0     O50923   3.359   8.198  10.422 -0.0092  1.2617  0.1036
  370MOL0     C50924   3.348   8.106  10.343 -0.8678 -0.8072  0.2589
  370MOL0     O50925   3.446   8.010  10.328 -0.1998 -0.2563  0.1558
  370MOL0     C50926   3.572   8.015  10.376  0.5368 -0.2972  0.8407
  370MOL0     C50927   3.643   7.900  10.382  0.2445  0.6878  0.0359
  370MOL0     C50928   3.779   7.904  10.419  0.8759  0.0272 -0.2613
  370MOL0     C50929   3.839   8.023  10.470 -1.3134  0.1731  0.3070
  370MOL0     O50930   3.960   8.003  10.536 -0.3781 -0.3603  0.4958
  370MOL0     C50931   4.008   8.118  10.609  0.0641 -0.1587 -0.2565
  370MOL0     C50932   4.115   8.100  10.715  0.6534 -0.1147  0.7542
  370MOL0     C50933   4.190   8.233  10.738 -0.2311  0.0392 -0.3968
  370MOL0     C50934   4.273   8.275  10.615 -0.3700 -0.7351  1.0009
  370MOL0     C50935   4.402   8.364  10.644 -0.1119  0.2664 -0.0943
  370MOL0     C50936   4.520   8.277  10.698  0.0208  0.3027 -0.1504
  370MOL0     C50937   4.623   8.369  10.767 -0.3039 -0.1466  0.1742
  370MOL0     C50938   4.698   8.457  10.669 -0.3635 -0.0073  0.5502
  370MOL0     N50939   4.828   8.485  10.731  0.0109  0.1724  0.8174
  370MOL0     C50940   4.847   8.600  10.789  0.0848  0.0746 -0.7545
  370MOL0     C50941   4.980   8.591  10.832  0.4735  0.5807  0.2630
  370MOL0     C50942   5.056   8.691  10.926 -0.3938  0.4405 -0.1699
  370MOL0     C50943   5.048   8.842  10.885 -1.0140 -0.3461  0.9617
  370MOL0     C50944   5.085   8.856  10.729 -0.0586 -0.0979 -0.1278
  370MOL0     C50945   5.052   8.999  10.689 -1.0261 -0.5640  1.0540
  370MOL0     O50946   5.150   9.098  10.744  0.4865  0.2666  0.2796
  370MOL0     C50947   5.277   9.119  10.700 -0.1610  0.5049  2.0038
  370MOL0     C50948   5.367   9.176  10.782  0.1649  0.4473 -0.5364
  370MOL0     C50949   5.497   9.200  10.743  0.1954  0.2088  1.3520
  370MOL0     C50950   5.589   9.260  10.845 -0.4431  0.0057 -0.4800
  370MOL0     C50951   5.540   9.159  10.610 -0.0051 -0.3497  0.7322
  370MOL0     C50952   5.673   9.179  10.543 -0.0188  0.6265 -0.1036
  370MOL0     O50953   5.693   9.147  10.406  0.0389  0.0000 -0.2450
  370MOL0     C50954   5.823   9.178  10.362  0.1301  0.7354  0.5593
  370MOL0     C50955   5.927   9.086  10.369 -0.6977  0.1974  1.0395
  370MOL0     C50956   6.054   9.126  10.310  0.5223 -0.0876  0.6616
  370MOL0     C50957   6.073   9.256  10.261 -0.0669  0.4187  0.2949
  370MOL0     O50958   6.192   9.296  10.203  0.6299  0.4399  0.7160
  370MOL0     C50959   6.324   9.245  10.229 -0.5227  0.2083  0.0109
  370MOL0     C50960   6.403   9.370  10.284  0.3785  0.6783  0.1862
  370MOL0     C50961   6.419   9.473  10.162  0.0430 -0.1045 -0.6416
  370MOL0     C50962   6.502   9.416  10.045 -0.6969 -0.3610  0.5266
  370MOL0     C50963   6.527   9.540   9.946 -0.0312  1.1129 -0.5774
  370MOL0     C50964   6.565   9.498   9.807  0.3380  1.2211 -0.4298
  370MOL0     C50965   6.524   9.594   9.699 -0.4782  0.0611  0.1136
  370MOL0     C50966   6.613   9.724   9.713 -0.1900 -1.4447  0.5005
  370MOL0    Cl50967   6.536   9.852   9.621  0.8243  0.1455  0.5882
  370MOL0     C50968   5.962   9.340  10.247 -0.9399  0.6717  0.2854
  370MOL0     C50969   5.844   9.305  10.311 -0.0346  0.0506  1.9222
  370MOL0     O50970   5.766   9.201  10.620  0.2946 -0.1571  1.3184
  370MOL0     C50971   5.441   9.105  10.532  0.4864 -0.0580 -0.2932
  370MOL0     C50972   5.308   9.085  10.570  0.2253  0.2065 -0.5449
  370MOL0     N50973   5.029   8.465  10.800 -0.0436  0.7179 -0.5681
  370MOL0     N50974   4.933   8.408  10.735  0.5962  0.5383  0.4533
  370MOL0     C50975   3.761   8.137  10.469 -0.3475 -0.0806  0.3963
  370MOL0     C50976   3.634   8.138  10.408  0.1210  0.1943 -0.4970
  370MOL0     C50977   3.219   8.084  10.277 -0.0581 -0.5343  0.4116
  370MOL0     C50978   3.202   7.966  10.203 -0.2741  0.2501 -0.6208
  370MOL0     C50979   3.081   7.927  10.137  0.2762 -1.1039  0.5088
  370MOL0     C50980   2.971   8.014  10.128 -0.6888 -0.4478  0.2153
  370MOL0     O50981   2.865   7.964  10.057 -0.3546 -0.2411  0.0234
  370MOL0     C50982   2.736   8.009  10.090 -0.1574  0.8238 -0.0851
  370MOL0     C50983   2.622   7.918  10.033  0.0674 -0.2939  0.0290
  370MOL0     C50984   2.593   7.952   9.886 -0.0351 -0.5756  0.6167
  370MOL0     C50985   2.526   7.839   9.801 -0.1809 -0.7481  0.0966
  370MOL0     C50986   2.428   7.895   9.712 -0.1611  0.2192 -0.2843
  370MOL0     C50987   2.331   7.923   9.644  0.0828  0.2387  0.1887
  370MOL0     C50988   2.987   8.141  10.199  0.2168  0.4501  0.5351
  370MOL0     C50989   3.106   8.175  10.274  0.0804  0.7012 -0.0028
  370MOL0     C50990   3.100   8.302  10.362 -0.0848  0.0249 -0.9266
  370MOL0     H50991   3.588   7.815  10.343 -1.3546  3.2004 -3.8147
  370MOL0     H50992   3.843   7.817  10.422  0.2836 -0.4573 -1.1558
  370MOL0     H50993   3.931   8.175  10.662  1.1582  1.6744 -0.5473
  370MOL0     H50994   4.048   8.187  10.534 -0.6714 -0.3527 -0.8415
  370MOL0     H50995   4.062   8.069  10.806  0.3295 -0.5694  0.4134
  370MOL0     H50996   4.185   8.026  10.675  0.2599 -0.2233  0.2498
  370MOL0     H50997   4.128   8.318  10.766  0.8884  0.6132  0.4041
  370MOL0     H50998   4.261   8.213  10.818  0.6613 -2.9087 -1.7661
  370MOL0     H50999   4.317   8.185  10.571 -1.0618  0.2019 -1.7916
  370MOL0     H51000   4.208   8.325  10.542  0.8567 -0.9376 -0.2550
  370MOL0     H51001   4.373   8.431  10.725 -1.2981  3.0763 -2.6371
  370MOL0     H51002   4.425   8.421  10.553 -2.1874 -0.0625 -0.8792
  370MOL0     H51003   4.486   8.210  10.778  1.8870 -2.6080 -1.6393
  370MOL0     H51004   4.570   8.213  10.625  0.1110  0.7524 -0.4866
  370MOL0     H51005   4.693   8.307  10.823 -0.4927 -1.7001 -1.2226
  370MOL0     H51006   4.584   8.432  10.847 -1.4995 -0.7115  0.0589
  370MOL0     H51007   4.717   8.409  10.573 -1.3215  3.9608 -1.8406
  370MOL0     H51008   4.646   8.547  10.635  1.4798 -0.0439 -2.8289
  370MOL0     H51009   4.776   8.675  10.823 -0.4242  0.5233 -2.6547
  370MOL0     H51010   5.162   8.670  10.910 -0.0114  1.6029  0.6836
  370MOL0     H51011   5.029   8.664  11.029 -1.9834 -2.6952 -1.2700
  370MOL0     H51012   4.945   8.875  10.902 -1.0937  0.3872 -0.7604
  370MOL0     H51013   5.112   8.911  10.940  0.6830 -0.0865 -1.2057
  370MOL0     H51014   5.189   8.826  10.714 -0.5473 -1.5009 -0.9454
  370MOL0     H51015   5.019   8.789  10.673  0.8867  2.6331 -5.1100
  370MOL0     H51016   5.049   8.998  10.580 -1.2921 -1.5806  1.0597
  370MOL0     H51017   4.952   9.018  10.727 -0.5621  1.3697  1.4028
  370MOL0     H51018   5.341   9.198  10.885  1.0139  1.1157 -0.4524
  370MOL0     H51019   5.545   9.261  10.945 -1.8191 -3.2471 -0.9511
  370MOL0     H51020   5.605   9.365  10.817  0.0053 -0.2189 -1.0752
  370MOL0     H51021   5.687   9.212  10.847 -0.2614  0.3019 -1.5065
  370MOL0     H51022   5.918   8.987  10.412  3.3794 -1.1538 -0.7537
  370MOL0     H51023   6.136   9.056  10.320 -0.3987 -1.5371 -1.2742
  370MOL0     H51024   6.331   9.160  10.298  0.1062  1.7654  1.9755
  370MOL0     H51025   6.370   9.206  10.138 -1.4154 -2.6009  0.6743
  370MOL0     H51026   6.346   9.423  10.361  0.0625  0.0967  0.3592
  370MOL0     H51027   6.499   9.334  10.323 -0.7124 -2.1059  0.5631
  370MOL0     H51028   6.468   9.561  10.204 -0.0104  0.0020 -0.8012
  370MOL0     H51029   6.319   9.507  10.133 -1.3790 -2.2428  1.3215
  370MOL0     H51030   6.460   9.331   9.991  2.2140 -1.0349 -0.9060
  370MOL0     H51031   6.592   9.376  10.093 -0.5293 -0.5413  0.0648
  370MOL0     H51032   6.428   9.585   9.934 -0.2267  0.5173 -1.2586
  370MOL0     H51033   6.584   9.618   9.997 -1.9017  2.6762 -0.7469
  370MOL0     H51034   6.519   9.400   9.789  1.8252  1.0080 -3.7627
  370MOL0     H51035   6.672   9.475   9.800 -0.2096 -1.4818 -1.1020
  370MOL0     H51036   6.418   9.619   9.707 -0.2874  1.5063 -1.3912
  370MOL0     H51037   6.544   9.566   9.595  0.1958 -0.8453  0.4696
  370MOL0     H51038   6.713   9.692   9.685 -1.2322 -1.4523 -3.9345
  370MOL0     H51039   6.610   9.768   9.814 -1.7580  1.5408 -0.7229
  370MOL0     H51040   5.978   9.428  10.185  2.4291 -2.1217 -3.3695
  370MOL0     H51041   5.766   9.380  10.300  2.0929  2.0063 -4.1464
  370MOL0     H51042   5.467   9.074  10.431 -0.5659  0.7646 -0.8389
  370MOL0     H51043   5.235   9.046  10.500  0.0694 -2.4147  0.9310
  370MOL0     H51044   3.795   8.233  10.504 -0.7999 -0.2092  1.2132
  370MOL0     H51045   3.588   8.236  10.403 -2.4536 -0.8503  0.9996
  370MOL0     H51046   3.275   7.887  10.204 -1.6213 -1.0747 -2.0561
  370MOL0     H51047   3.061   7.837  10.079 -2.1216  0.1237 -0.7236
  370MOL0     H51048   2.718   8.002  10.198 -2.0284 -0.6458 -0.4449
  370MOL0     H51049   2.716   8.107  10.046  1.4302  2.7460  3.0680
  370MOL0     H51050   2.531   7.930  10.092  1.5409  0.3712  2.3116
  370MOL0     H51051   2.658   7.817  10.054 -1.5902 -1.0680 -0.6533
  370MOL0     H51052   2.527   8.039   9.894  1.1796  0.2448  2.5093
  370MOL0     H51053   2.686   7.982   9.837 -1.7047  1.7294 -1.3784
  370MOL0     H51054   2.473   7.766   9.864 -2.0692  0.6519  0.2117
  370MOL0     H51055   2.602   7.798   9.734 -1.7928 -1.6070 -1.3020
  370MOL0     H51056   2.256   7.963   9.579  1.9622  0.4663 -1.9597
  370MOL0     H51057   2.905   8.212  10.210  0.4843  1.2496 -2.0726
  370MOL0     H51058   3.119   8.271  10.465  4.1018  0.1171 -1.5241
  370MOL0     H51059   3.183   8.368  10.337  1.2916 -1.0947  0.5067
  370MOL0     H51060   3.004   8.354  10.349 -0.5976 -0.8270 -0.6423
  371MOL0     O51061  10.388   2.739  11.003 -0.1469  0.3939  1.0181
  371MOL0     C51062  10.363   2.708  11.123  0.5763 -0.9765 -0.3766
  371MOL0     O51063  10.460   2.678  11.218  0.3172  0.2338  0.3671
  371MOL0     C51064  10.583   2.631  11.183 -0.9279  0.4409 -0.3394
  371MOL0     C51065  10.695   2.699  11.236 -0.1594 -0.4049 -0.2986
  371MOL0     C51066  10.827   2.668  11.194 -0.1764 -0.4509  0.7388
  371MOL0     C51067  10.853   2.552  11.120 -0.0374 -0.2788  1.1170
  371MOL0     O51068  10.984   2.527  11.081  0.0724 -0.3942 -0.1093
  371MOL0     C51069  11.031   2.406  11.144 -0.5753  0.5253  0.3277
  371MOL0     C51070  11.177   2.371  11.119  0.7851  0.2778 -0.4198
  371MOL0     C51071  11.223   2.393  10.980 -0.3131  0.2015 -0.2072
  371MOL0     C51072  11.365   2.370  10.947 -0.5766 -0.1847 -1.0099
  371MOL0     C51073  11.459   2.448  11.041 -0.1723 -0.4085 -0.3378
  371MOL0     C51074  11.562   2.532  10.961 -1.2589  0.4766  0.6381
  371MOL0     C51075  11.506   2.650  10.885 -0.1009 -0.4266  0.1487
  371MOL0     C51076  11.618   2.751  10.837 -0.0043  0.7374  0.8609
  371MOL0     N51077  11.582   2.899  10.835 -0.7969  0.6186 -0.1109
  371MOL0     C51078  11.466   2.951  10.776  0.0613 -0.1489  0.7050
  371MOL0     C51079  11.477   3.083  10.812  0.1933  0.0771  0.4872
  371MOL0     C51080  11.373   3.192  10.774 -0.2275  0.1541  0.5713
  371MOL0     C51081  11.288   3.240  10.894 -0.1211  0.4510  0.1713
  371MOL0     C51082  11.197   3.356  10.843  0.2671  0.5649  0.6966
  371MOL0     C51083  11.066   3.375  10.929 -0.4141 -0.8615 -0.9353
  371MOL0     O51084  10.988   3.259  10.916  0.3723  0.7046 -1.0914
  371MOL0     C51085  10.855   3.268  10.947  0.3336  1.3934 -1.2291
  371MOL0     C51086  10.790   3.152  10.994  0.6559  0.1748 -0.5296
  371MOL0     C51087  10.653   3.150  11.025 -0.0611  0.7389 -0.2543
  371MOL0     C51088  10.581   3.015  11.036  0.4486 -0.1813 -0.1583
  371MOL0     C51089  10.583   3.272  11.030  0.8157  0.0066 -0.0542
  371MOL0     C51090  10.441   3.282  11.076  0.2580 -0.2040  0.1818
  371MOL0     O51091  10.402   3.199  11.176  0.2411  0.0654 -0.0081
  371MOL0     C51092  10.266   3.203  11.195 -0.4578  0.1149 -0.2772
  371MOL0     C51093  10.178   3.122  11.120 -0.4821 -0.4315  0.6723
  371MOL0     C51094  10.045   3.154  11.139  0.1681  0.0294  0.3836
  371MOL0     C51095   9.990   3.247  11.224  0.7848  0.3233 -0.5226
  371MOL0     O51096   9.848   3.277  11.229  0.0110  0.9653 -0.3615
  371MOL0     C51097   9.788   3.296  11.102  0.2381  0.3063  0.6464
  371MOL0     C51098   9.640   3.303  11.119  0.0276 -0.4138 -0.5777
  371MOL0     C51099   9.567   3.330  10.984 -0.2375 -0.7674 -1.4142
  371MOL0     C51100   9.416   3.346  11.025  0.0392 -0.7954 -0.4377
  371MOL0     C51101   9.341   3.312  10.894  0.2954 -0.5685 -0.2638
  371MOL0     C51102   9.184   3.297  10.917 -0.7538 -0.3688  0.1225
  371MOL0     C51103   9.131   3.186  11.007 -0.4645  0.0533  0.0827
  371MOL0     C51104   8.997   3.222  11.071 -0.3490  0.2789  1.3941
  371MOL0    Cl51105   8.857   3.194  10.958  0.0292 -0.2280  0.1480
  371MOL0     C51106  10.081   3.313  11.310 -1.2410 -0.1518 -0.3435
  371MOL0     C51107  10.220   3.296  11.288 -0.6325 -0.2387 -0.9155
  371MOL0     O51108  10.373   3.368  11.017  0.6190 -0.4497  0.1103
  371MOL0     C51109  10.639   3.391  10.979 -0.1469 -0.3998  0.0075
  371MOL0     C51110  10.774   3.387  10.939  0.0618  0.1314 -0.0398
  371MOL0     N51111  11.598   3.102  10.882 -0.4454  0.2828  0.6538
  371MOL0     N51112  11.663   2.993  10.893  0.3023 -0.1337 -0.1141
  371MOL0     C51113  10.740   2.484  11.060  0.5551 -0.2131  0.7710
  371MOL0     C51114  10.605   2.516  11.105 -0.0707 -1.0321  0.3422
  371MOL0     C51115  10.226   2.718  11.169 -0.1362 -0.2664  0.3628
  371MOL0     C51116  10.211   2.756  11.305  0.0082 -0.3969 -0.2593
  371MOL0     C51117  10.088   2.792  11.351 -0.4656 -0.2883  0.2622
  371MOL0     C51118   9.981   2.764  11.269  0.6724 -0.2894  0.4077
  371MOL0     O51119   9.858   2.766  11.336  0.4833  0.1465 -0.0922
  371MOL0     C51120   9.808   2.897  11.379 -0.9628 -1.1100  0.0840
  371MOL0     C51121   9.701   2.956  11.274 -0.0518 -0.1207 -0.5437
  371MOL0     C51122   9.582   2.869  11.248  0.4323  0.0331 -0.3351
  371MOL0     C51123   9.470   2.942  11.174  0.3613  0.0559 -0.3366
  371MOL0     C51124   9.355   2.849  11.157 -0.0271  0.4453  0.2958
  371MOL0     C51125   9.248   2.795  11.146  0.3467 -0.0442 -0.1229
  371MOL0     C51126   9.993   2.727  11.132  0.6509 -0.2020 -0.4812
  371MOL0     C51127  10.117   2.695  11.080 -0.0494 -1.2973  0.0600
  371MOL0     C51128  10.127   2.628  10.948  0.1932  0.0241  1.3880
  371MOL0     H51129  10.671   2.779  11.305 -1.0105 -3.0982  2.8142
  371MOL0     H51130  10.906   2.739  11.215 -1.6151  1.9273 -1.3621
  371MOL0     H51131  10.974   2.331  11.088 -0.1783  0.3559  0.1426
  371MOL0     H51132  11.011   2.395  11.251  0.3521 -2.9825  0.2810
  371MOL0     H51133  11.239   2.417  11.197  3.2793 -3.9937  0.4476
  371MOL0     H51134  11.196   2.265  11.140 -0.5114  0.6333  3.3774
  371MOL0     H51135  11.170   2.320  10.918  0.7950 -1.8912  1.1481
  371MOL0     H51136  11.191   2.493  10.950 -4.4049  0.1679  3.1421
  371MOL0     H51137  11.371   2.261  10.955 -0.1886 -0.1707 -1.0743
  371MOL0     H51138  11.373   2.397  10.841  0.1862  0.8096 -0.7122
  371MOL0     H51139  11.518   2.372  11.093  0.0419  0.1067  0.1790
  371MOL0     H51140  11.406   2.524  11.099 -1.0913 -0.1964 -1.4348
  371MOL0     H51141  11.641   2.561  11.032 -1.6887  1.3185  0.7873
  371MOL0     H51142  11.611   2.460  10.894  2.9264  0.4471  3.3390
  371MOL0     H51143  11.435   2.693  10.955  0.3040 -0.5897  0.6690
  371MOL0     H51144  11.455   2.608  10.797 -2.6731 -4.0924  3.0653
  371MOL0     H51145  11.710   2.718  10.886  1.9591 -2.2111 -4.0031
  371MOL0     H51146  11.633   2.715  10.734  1.8172 -1.9745  1.9496
  371MOL0     H51147  11.394   2.900  10.712 -1.7491  0.7353  1.9530
  371MOL0     H51148  11.314   3.149  10.693 -0.2758 -2.1165  1.7403
  371MOL0     H51149  11.427   3.277  10.731  0.1553 -1.1253 -1.6245
  371MOL0     H51150  11.228   3.153  10.924 -0.0999  0.0076 -1.0406
  371MOL0     H51151  11.355   3.268  10.976 -2.2599 -1.1741  2.6344
  371MOL0     H51152  11.261   3.444  10.857  3.6291 -1.4979 -0.4708
  371MOL0     H51153  11.164   3.337  10.740  0.3680  0.6981  0.6383
  371MOL0     H51154  11.100   3.389  11.032 -0.7439 -2.0353 -0.6502
  371MOL0     H51155  11.009   3.465  10.905  0.1570 -0.8372 -2.2759
  371MOL0     H51156  10.846   3.060  10.995 -1.1003 -0.9510  0.6577
  371MOL0     H51157  10.642   2.935  10.993  0.2906 -0.1134 -0.5149
  371MOL0     H51158  10.488   3.009  10.979  1.1799 -2.9615 -1.2631
  371MOL0     H51159  10.556   3.006  11.142  2.5262  0.7450  0.4584
  371MOL0     H51160  10.222   3.049  11.053 -2.1464 -3.8389  3.0112
  371MOL0     H51161   9.976   3.096  11.079 -0.2680  2.5808 -1.7843
  371MOL0     H51162   9.844   3.375  11.052 -0.1368  0.5743  0.6470
  371MOL0     H51163   9.799   3.204  11.044 -3.5669  0.2664 -0.2979
  371MOL0     H51164   9.605   3.209  11.162 -2.6588  0.4162 -0.7202
  371MOL0     H51165   9.617   3.379  11.195  0.8564 -0.9312  0.2038
  371MOL0     H51166   9.599   3.252  10.914 -3.1260 -3.3596 -0.0955
  371MOL0     H51167   9.601   3.424  10.940  2.1036  0.8433  3.2454
  371MOL0     H51168   9.388   3.446  11.058  0.1419 -0.8229 -0.2621
  371MOL0     H51169   9.389   3.287  11.114  1.2969 -0.3754  0.2531
  371MOL0     H51170   9.363   3.390  10.821 -0.4738 -0.5601 -0.4947
  371MOL0     H51171   9.376   3.214  10.859 -2.7489 -2.1854  0.8048
  371MOL0     H51172   9.131   3.290  10.822 -0.0417 -1.4071 -0.2143
  371MOL0     H51173   9.141   3.388  10.961 -2.5426 -0.2626 -1.6995
  371MOL0     H51174   9.200   3.165  11.089  1.6511  1.3691 -1.2560
  371MOL0     H51175   9.120   3.096  10.945  1.8012 -0.7137  0.6905
  371MOL0     H51176   8.987   3.325  11.108 -3.0213 -0.6524  3.5266
  371MOL0     H51177   8.992   3.147  11.150  1.1221 -0.3444  0.9302
  371MOL0     H51178  10.048   3.371  11.397 -3.1828 -2.0066  0.2534
  371MOL0     H51179  10.297   3.354  11.338 -1.2664  0.3275 -0.5822
  371MOL0     H51180  10.586   3.485  10.989  0.1230 -0.0304 -1.7938
  371MOL0     H51181  10.810   3.487  10.917 -0.6829  1.0084  2.3564
  371MOL0     H51182  10.763   2.397  10.999  2.7485  0.7098  0.1853
  371MOL0     H51183  10.521   2.463  11.061  0.2849  0.7741 -2.8166
  371MOL0     H51184  10.296   2.771  11.371  0.5979  2.1018 -1.4494
  371MOL0     H51185  10.079   2.823  11.455 -2.5449 -0.1630  0.0873
  371MOL0     H51186   9.764   2.886  11.478  4.1876 -1.2787  2.6437
  371MOL0     H51187   9.889   2.968  11.396 -1.7563 -0.3640  0.8692
  371MOL0     H51188   9.748   2.977  11.177  1.1021 -1.9600 -0.4309
  371MOL0     H51189   9.655   3.048  11.313 -1.2137 -1.0828  0.4244
  371MOL0     H51190   9.612   2.781  11.191 -2.9270 -1.5066  0.0807
  371MOL0     H51191   9.545   2.830  11.343 -0.5395  0.3954 -0.5575
  371MOL0     H51192   9.492   2.979  11.074 -1.6251 -0.9686 -1.2098
  371MOL0     H51193   9.428   3.024  11.234 -4.6046 -1.3143 -1.4873
  371MOL0     H51194   9.151   2.752  11.138  1.0003 -1.4235 -1.0411
  371MOL0     H51195   9.905   2.714  11.069 -2.1321 -0.1261  3.0644
  371MOL0     H51196  10.156   2.693  10.865  0.1335 -0.3073  1.1057
  371MOL0     H51197  10.199   2.545  10.954 -0.0076 -0.0608  2.8056
  371MOL0     H51198  10.033   2.587  10.912 -0.0649  0.0081  2.0778
  372MOL0     O51199   6.978   2.845  10.832  0.4457  0.1167  0.5847
  372MOL0     C51200   6.957   2.723  10.829 -0.9112 -0.7431 -0.3142
  372MOL0     O51201   7.050   2.629  10.809  0.0727 -0.1705  0.7492
  372MOL0     C51202   7.186   2.659  10.824  0.2791 -0.8873 -0.4086
  372MOL0     C51203   7.243   2.757  10.734  0.5393  0.1678 -0.3114
  372MOL0     C51204   7.379   2.761  10.723 -0.8001 -0.6500  0.5218
  372MOL0     C51205   7.466   2.681  10.802 -0.6339  0.6980  0.3035
  372MOL0     O51206   7.605   2.676  10.794 -0.7429  0.0069 -0.0264
  372MOL0     C51207   7.670   2.786  10.737  0.4396 -0.3851  0.3346
  372MOL0     C51208   7.821   2.763  10.754  0.8219  0.4975  0.5011
  372MOL0     C51209   7.900   2.891  10.739 -0.3723  0.0937 -0.6950
  372MOL0     C51210   8.052   2.853  10.745  0.4999 -0.5246 -1.3217
  372MOL0     C51211   8.155   2.971  10.753  0.6884  1.1151  0.5559
  372MOL0     C51212   8.299   2.906  10.736  0.1595  0.3917 -0.3168
  372MOL0     C51213   8.404   3.019  10.727 -0.3871  0.2464 -1.0154
  372MOL0     C51214   8.421   3.077  10.589 -0.6667  0.2097 -0.1206
  372MOL0     N51215   8.540   3.162  10.565 -0.2014 -0.2666  0.6252
  372MOL0     C51216   8.649   3.185  10.645 -0.7033  0.4878  1.0503
  372MOL0     C51217   8.742   3.245  10.570 -0.4898  0.1380 -0.7171
  372MOL0     C51218   8.874   3.293  10.606 -0.4122  0.0293 -0.2729
  372MOL0     C51219   8.933   3.396  10.502  0.5551 -0.1805  0.2955
  372MOL0     C51220   9.085   3.405  10.512  0.0371 -0.0150  0.3591
  372MOL0     C51221   9.162   3.303  10.445  0.3635 -0.7399  0.4394
  372MOL0     O51222   9.307   3.313  10.467 -0.1196 -0.3879  0.0976
  372MOL0     C51223   9.379   3.191  10.457 -0.0730 -0.2555 -0.1174
  372MOL0     C51224   9.491   3.188  10.551 -0.1108 -0.3482 -0.7493
  372MOL0     C51225   9.572   3.075  10.573 -0.5415 -0.2882  0.0011
  372MOL0     C51226   9.671   3.076  10.681 -0.1004 -0.4279 -0.7457
  372MOL0     C51227   9.550   2.960  10.490 -0.9159 -0.4597 -0.7409
  372MOL0     C51228   9.639   2.831  10.489  0.4206 -0.2420 -0.2079
  372MOL0     O51229   9.761   2.842  10.551  0.2682 -0.5908  0.3730
  372MOL0     C51230   9.850   2.732  10.552 -0.7955 -0.4065 -0.3240
  372MOL0     C51231   9.824   2.593  10.553  0.9688  0.9274  0.4213
  372MOL0     C51232   9.928   2.496  10.556 -0.3566 -0.5596  0.4074
  372MOL0     C51233  10.058   2.531  10.568 -0.8892  0.0527  0.6109
  372MOL0     O51234  10.159   2.430  10.564  0.3318 -0.0793  0.3087
  372MOL0     C51235  10.296   2.462  10.536  0.6081 -0.6363 -0.2947
  372MOL0     C51236  10.372   2.478  10.667 -0.3567  0.1040 -0.0259
  372MOL0     C51237  10.518   2.445  10.638 -0.3258 -0.9096  0.2140
  372MOL0     C51238  10.599   2.481  10.759 -0.6955 -0.0784  0.6100
  372MOL0     C51239  10.747   2.439  10.733  0.1124  0.8940  0.4565
  372MOL0     C51240  10.770   2.290  10.733 -0.5204 -0.1813 -0.2305
  372MOL0     C51241  10.900   2.282  10.648  0.3433  0.0822  0.3954
  372MOL0     C51242  10.940   2.148  10.653 -0.5302 -0.0463  0.0822
  372MOL0    Cl51243  11.105   2.127  10.555 -0.0634 -0.0431 -0.0166
  372MOL0     C51244  10.088   2.669  10.572  0.4380 -0.0499 -0.5658
  372MOL0     C51245   9.982   2.770  10.565 -0.2788 -0.5632 -0.5822
  372MOL0     O51246   9.594   2.728  10.438 -0.2730 -0.1894  0.1112
  372MOL0     C51247   9.426   2.965  10.405 -0.7211 -0.1888 -0.7600
  372MOL0     C51248   9.345   3.079  10.392  0.1266 -1.0216 -0.2829
  372MOL0     N51249   8.687   3.271  10.441  0.5123  0.3775  0.3189
  372MOL0     N51250   8.567   3.215  10.451 -0.1137  0.2282 -0.1574
  372MOL0     C51251   7.398   2.583  10.892 -0.3743  0.1713  0.1439
  372MOL0     C51252   7.262   2.574  10.898  0.4799 -0.4888 -0.3965
  372MOL0     C51253   6.816   2.685  10.829  0.4101 -0.5636 -0.4386
  372MOL0     C51254   6.726   2.790  10.858  0.8565  0.0554 -0.0246
  372MOL0     C51255   6.590   2.758  10.884  0.4837  0.3220  0.9077
  372MOL0     C51256   6.538   2.630  10.852 -0.5269  0.2617  0.2328
  372MOL0     O51257   6.401   2.625  10.864  0.0422 -0.5397 -0.1243
  372MOL0     C51258   6.329   2.552  10.768  0.8002 -0.0756  0.4296
  372MOL0     C51259   6.204   2.632  10.738  1.0143 -0.8286  0.0272
  372MOL0     C51260   6.123   2.564  10.626 -0.4464  0.6013 -0.0755
  372MOL0     C51261   5.983   2.607  10.582 -0.9964 -0.2227  0.8215
  372MOL0     C51262   5.897   2.651  10.689 -0.3949 -0.1499  0.0083
  372MOL0     C51263   5.834   2.719  10.772  0.6575 -0.1470  0.3698
  372MOL0     C51264   6.630   2.526  10.826  0.3024  0.3379  0.9510
  372MOL0     C51265   6.767   2.555  10.820  0.0471  0.5122 -0.7186
  372MOL0     C51266   6.861   2.435  10.782  1.6486  0.3340 -0.5392
  372MOL0     H51267   7.180   2.822  10.674 -1.1323 -0.7409  0.4019
  372MOL0     H51268   7.432   2.825  10.653 -0.9427 -0.3860  0.6576
  372MOL0     H51269   7.624   2.872  10.788 -0.8289 -0.1141 -1.1902
  372MOL0     H51270   7.642   2.800  10.632 -0.9514  3.6176  1.0349
  372MOL0     H51271   7.846   2.722  10.852 -0.0280 -1.0675  0.0958
  372MOL0     H51272   7.846   2.695  10.672 -0.6729  0.4561  0.0444
  372MOL0     H51273   7.878   2.961  10.658  1.3670 -0.3062 -1.5497
  372MOL0     H51274   7.870   2.957  10.821 -1.1438 -0.4253 -0.5519
  372MOL0     H51275   8.066   2.799  10.839 -0.6907  0.4587 -0.5628
  372MOL0     H51276   8.070   2.794  10.654 -2.5688 -0.7676 -1.8847
  372MOL0     H51277   8.156   3.020  10.850  0.2957  0.6972  0.7711
  372MOL0     H51278   8.128   3.037  10.670 -3.4969 -2.0059 -0.9131
  372MOL0     H51279   8.320   2.855  10.830 -0.1991  2.8044  1.1760
  372MOL0     H51280   8.310   2.833  10.656  0.6956 -1.1838  1.1222
  372MOL0     H51281   8.500   2.977  10.761 -1.1367 -0.1551  0.7405
  372MOL0     H51282   8.382   3.101  10.796  2.0068  0.4796 -0.4225
  372MOL0     H51283   8.428   3.004  10.508 -1.4898 -0.4265  0.3691
  372MOL0     H51284   8.335   3.140  10.564 -0.5794  0.3984  0.0467
  372MOL0     H51285   8.672   3.141  10.742  0.4472 -0.7962  0.2297
  372MOL0     H51286   8.939   3.205  10.617  2.1695  2.0211  1.6231
  372MOL0     H51287   8.875   3.335  10.706  1.7102  0.2672 -0.3355
  372MOL0     H51288   8.904   3.378  10.398 -1.0125  3.2585 -0.0124
  372MOL0     H51289   8.888   3.493  10.529 -1.6978 -1.1477  0.2672
  372MOL0     H51290   9.110   3.500  10.465 -0.1342 -0.0058  0.2837
  372MOL0     H51291   9.119   3.398  10.615  3.1584 -3.2351 -0.6913
  372MOL0     H51292   9.121   3.208  10.480  1.0762 -1.2106  0.0331
  372MOL0     H51293   9.149   3.299  10.337  2.0962  0.2837  0.1574
  372MOL0     H51294   9.498   3.281  10.606 -0.6972 -0.1341 -1.0374
  372MOL0     H51295   9.648   3.157  10.750 -0.7246 -1.0465 -0.2171
  372MOL0     H51296   9.772   3.092  10.643 -0.9567  1.7372 -2.2695
  372MOL0     H51297   9.669   2.979  10.733  0.0716  0.1204  0.3260
  372MOL0     H51298   9.723   2.556  10.540  1.9591 -2.6163  1.6815
  372MOL0     H51299   9.903   2.393  10.531 -0.7226  0.0198 -1.8620
  372MOL0     H51300  10.343   2.380  10.481  6.0755  0.6343  1.9032
  372MOL0     H51301  10.307   2.554  10.478  3.1711 -0.0986  0.8982
  372MOL0     H51302  10.364   2.579  10.709  1.1110 -0.1051  0.8119
  372MOL0     H51303  10.336   2.410  10.744 -2.0308  0.2575 -0.6337
  372MOL0     H51304  10.542   2.516  10.558  1.9365  0.3789  1.9292
  372MOL0     H51305  10.510   2.345  10.596  1.5732 -0.8023 -0.4547
  372MOL0     H51306  10.565   2.417  10.841 -0.3972 -1.1461 -0.0733
  372MOL0     H51307  10.592   2.588  10.776 -0.3205 -0.2269  1.8063
  372MOL0     H51308  10.765   2.483  10.635  0.0165 -3.7311 -1.9360
  372MOL0     H51309  10.818   2.492  10.797 -0.2332 -1.2524  2.7502
  372MOL0     H51310  10.687   2.244  10.678  1.2848 -0.2944 -3.0930
  372MOL0     H51311  10.774   2.242  10.831 -0.1858 -1.0243 -0.6421
  372MOL0     H51312  10.976   2.355  10.678  0.7259  0.7486 -1.9742
  372MOL0     H51313  10.875   2.298  10.543 -2.7798 -1.6078  0.7423
  372MOL0     H51314  10.868   2.089  10.595  0.4209 -0.7342 -0.4348
  372MOL0     H51315  10.960   2.112  10.755 -0.9788  0.0365  0.2034
  372MOL0     H51316  10.188   2.709  10.574  1.4156 -2.2703  2.1928
  372MOL0     H51317  10.015   2.873  10.574 -0.5192 -0.6417  1.9737
  372MOL0     H51318   9.407   2.884  10.336 -1.4511 -1.5465  0.9441
  372MOL0     H51319   9.267   3.097  10.319 -0.1287  2.1138  0.6258
  372MOL0     H51320   7.456   2.524  10.961  1.1643  2.2039  0.6806
  372MOL0     H51321   7.213   2.504  10.965  2.6016 -2.3147 -0.6475
  372MOL0     H51322   6.734   2.898  10.861 -4.4757  0.6930  1.1556
  372MOL0     H51323   6.524   2.839  10.910  0.7213  1.1534 -0.9115
  372MOL0     H51324   6.376   2.554  10.669 -1.4449  1.5783 -0.6976
  372MOL0     H51325   6.302   2.449  10.790 -2.1485  0.6220  0.4936
  372MOL0     H51326   6.227   2.728  10.691 -1.4379 -1.4003 -2.5748
  372MOL0     H51327   6.155   2.643  10.835  0.1498 -2.5359 -0.1775
  372MOL0     H51328   6.186   2.563  10.537  1.4329 -1.5711  1.1653
  372MOL0     H51329   6.111   2.461  10.662  0.6256  1.1229  1.9354
  372MOL0     H51330   5.936   2.526  10.525  3.2703 -2.5224  0.1276
  372MOL0     H51331   6.001   2.691  10.514  0.2902 -1.7020 -0.7942
  372MOL0     H51332   5.786   2.789  10.837 -1.9253 -1.6105  0.1929
  372MOL0     H51333   6.589   2.425  10.819  1.1392  0.1277 -3.1606
  372MOL0     H51334   6.800   2.353  10.744  3.2975 -1.3739  0.3614
  372MOL0     H51335   6.927   2.447  10.695  0.7207  0.1668 -1.2771
  372MOL0     H51336   6.912   2.395  10.870  0.8795  0.6879  0.0763
  373MOL0     O51337   1.462   3.704   1.060 -0.7818 -0.2062  0.8057
  373MOL0     C51338   1.496   3.675   0.939 -0.5011 -0.5017 -0.3256
  373MOL0     O51339   1.544   3.547   0.899 -0.3422 -0.0728  0.2905
  373MOL0     C51340   1.564   3.459   1.005 -0.1618 -0.5173 -0.0067
  373MOL0     C51341   1.680   3.455   1.074  0.6849 -0.0737 -0.4684
  373MOL0     C51342   1.696   3.374   1.194 -0.2363  0.1548  0.2295
  373MOL0     C51343   1.600   3.287   1.233  0.4854  0.1845 -0.1202
  373MOL0     O51344   1.632   3.204   1.345  0.4536  0.7618 -0.6327
  373MOL0     C51345   1.512   3.145   1.397 -0.8225  1.1035  0.2796
  373MOL0     C51346   1.543   3.106   1.541  0.0606  0.2582 -0.0461
  373MOL0     C51347   1.648   2.994   1.543 -0.3858  0.5952 -0.2543
  373MOL0     C51348   1.708   2.953   1.678 -1.1271 -0.4099  0.5776
  373MOL0     C51349   1.785   2.819   1.657 -0.6126  0.0655 -0.0317
  373MOL0     C51350   1.861   2.793   1.795 -0.3974 -0.1726 -0.1212
  373MOL0     C51351   1.920   2.655   1.769 -0.6976 -0.4900  0.6509
  373MOL0     C51352   2.017   2.592   1.867  0.4020 -0.9037 -0.0499
  373MOL0     N51353   1.963   2.618   2.008 -0.5919  0.5952  0.1418
  373MOL0     C51354   1.869   2.543   2.079  0.1013 -0.9295  0.0680
  373MOL0     C51355   1.858   2.605   2.208 -0.7207  0.5711  0.0042
  373MOL0     C51356   1.777   2.573   2.326 -0.2242  0.0153 -0.4091
  373MOL0     C51357   1.638   2.617   2.314 -0.2434 -0.8458  0.3134
  373MOL0     C51358   1.547   2.613   2.434 -0.4706  0.4774  0.3658
  373MOL0     C51359   1.451   2.498   2.449 -0.3857 -0.4764  0.0293
  373MOL0     O51360   1.362   2.483   2.337  0.1644 -0.0920 -0.4928
  373MOL0     C51361   1.274   2.584   2.311  0.3299  0.0922  0.2420
  373MOL0     C51362   1.196   2.661   2.414  0.1450  0.0503  0.8659
  373MOL0     C51363   1.098   2.760   2.382 -0.2482  0.0192 -0.2540
  373MOL0     C51364   1.015   2.816   2.490  0.4807 -0.0483 -0.2721
  373MOL0     C51365   1.083   2.789   2.236  0.1265 -0.1372 -0.4677
  373MOL0     C51366   0.989   2.898   2.189  0.5184  0.2161 -1.0698
  373MOL0     O51367   1.020   2.951   2.064  0.5849  0.4095 -0.2031
  373MOL0     C51368   0.917   3.014   1.992  0.1690 -0.0031  0.2068
  373MOL0     C51369   0.954   3.116   1.906 -0.8729  0.4964 -0.0185
  373MOL0     C51370   0.859   3.164   1.814  0.3212  0.0650 -0.9205
  373MOL0     C51371   0.728   3.118   1.819 -0.0664  0.5658  0.0541
  373MOL0     O51372   0.628   3.167   1.739 -0.3003 -0.2936 -0.3964
  373MOL0     C51373   0.661   3.159   1.600  0.1350 -0.4461  0.7515
  373MOL0     C51374   0.648   3.310   1.548 -0.4540  0.5289  0.7868
  373MOL0     C51375   0.707   3.320   1.405  0.5075 -1.0279 -0.0944
  373MOL0     C51376   0.704   3.461   1.344 -0.0640 -0.6695  0.8887
  373MOL0     C51377   0.778   3.474   1.215 -0.0381 -0.7749 -0.7362
  373MOL0     C51378   0.770   3.621   1.173  0.2126 -0.4395 -0.8264
  373MOL0     C51379   0.807   3.629   1.020  0.0142  0.0844 -0.9682
  373MOL0     C51380   0.797   3.773   0.970 -0.0600 -0.3974 -0.6012
  373MOL0    Cl51381   0.855   3.783   0.802 -0.0798  0.2465 -0.1486
  373MOL0     C51382   0.684   3.023   1.914 -0.5846  0.0886  0.0086
  373MOL0     C51383   0.785   2.968   1.998  0.3787 -0.6274 -0.1205
  373MOL0     O51384   0.887   2.931   2.256  0.7839  0.2696  0.3286
  373MOL0     C51385   1.162   2.719   2.144  0.6049  0.4477  1.0918
  373MOL0     C51386   1.243   2.608   2.176  0.0353  0.2084 -0.4661
  373MOL0     N51387   1.953   2.708   2.207 -0.4159  0.5480 -0.0919
  373MOL0     N51388   2.019   2.709   2.094  0.5629  0.0231  1.0916
  373MOL0     C51389   1.487   3.281   1.154  0.4281  0.0176  0.6803
  373MOL0     C51390   1.467   3.369   1.048 -1.0667  1.2708 -0.9581
  373MOL0     C51391   1.487   3.785   0.839 -0.2674 -0.4797 -0.9963
  373MOL0     C51392   1.608   3.809   0.784 -1.3828  0.5123 -0.1999
  373MOL0     C51393   1.620   3.922   0.703  0.1107  0.2374  0.4816
  373MOL0     C51394   1.524   4.019   0.684  0.4676  0.2576 -0.3031
  373MOL0     O51395   1.557   4.134   0.607 -0.2621  0.1903  0.6118
  373MOL0     C51396   1.448   4.218   0.555 -0.3709  0.2493 -0.1106
  373MOL0     C51397   1.513   4.336   0.466  0.1878  0.0213 -0.1210
  373MOL0     C51398   1.628   4.413   0.537 -0.0416  0.6460 -0.1959
  373MOL0     C51399   1.644   4.554   0.486 -0.3703 -0.8870 -0.3156
  373MOL0     C51400   1.783   4.596   0.520 -0.1137 -0.4689 -0.4574
  373MOL0     C51401   1.898   4.628   0.545  0.9274  0.1604  0.4508
  373MOL0     C51402   1.398   3.993   0.740  0.8487 -0.6090 -0.2818
  373MOL0     C51403   1.375   3.872   0.820 -0.5824 -1.1238 -0.8980
  373MOL0     C51404   1.245   3.854   0.899 -1.1094  0.4131  1.0132
  373MOL0     H51405   1.765   3.517   1.049  1.8056 -1.4935 -0.3177
  373MOL0     H51406   1.788   3.387   1.250 -0.5544  1.8608  0.4091
  373MOL0     H51407   1.489   3.054   1.341  0.2334  0.1739  1.2692
  373MOL0     H51408   1.420   3.204   1.402 -0.6416  1.3571  0.7204
  373MOL0     H51409   1.584   3.195   1.591  1.2085 -0.6343  0.6594
  373MOL0     H51410   1.457   3.070   1.598  2.0388  1.9960  4.5247
  373MOL0     H51411   1.605   2.897   1.514 -2.6513  0.7130  2.3770
  373MOL0     H51412   1.726   3.014   1.468 -2.6548  0.0975 -2.9250
  373MOL0     H51413   1.763   3.040   1.715  0.2739 -0.6038 -0.9522
  373MOL0     H51414   1.636   2.926   1.756 -0.5854  1.2178  1.6768
  373MOL0     H51415   1.861   2.824   1.578 -1.4083  1.5408 -0.7533
  373MOL0     H51416   1.717   2.737   1.631 -0.9776  0.3962 -0.1363
  373MOL0     H51417   1.931   2.876   1.806  0.6878 -0.9589 -0.9296
  373MOL0     H51418   1.791   2.787   1.879 -2.2689  4.8450 -0.9620
  373MOL0     H51419   1.986   2.668   1.683  0.6432  0.3276  1.7562
  373MOL0     H51420   1.835   2.590   1.747 -1.1204  0.9711 -2.6420
  373MOL0     H51421   2.026   2.486   1.841 -0.7730 -0.9450 -0.3365
  373MOL0     H51422   2.112   2.645   1.867  2.2577 -3.7892  3.0493
  373MOL0     H51423   1.829   2.447   2.049  0.0902 -1.1973  0.9201
  373MOL0     H51424   1.823   2.619   2.414 -1.7805 -1.0045  0.9921
  373MOL0     H51425   1.779   2.464   2.334  1.5812 -0.1042 -1.9551
  373MOL0     H51426   1.628   2.721   2.280  1.2458 -1.2969 -1.7016
  373MOL0     H51427   1.604   2.553   2.232  1.9381  0.5850 -1.8240
  373MOL0     H51428   1.606   2.608   2.526 -0.4273 -0.5781  0.2910
  373MOL0     H51429   1.482   2.701   2.444 -0.2873  0.8111 -1.1298
  373MOL0     H51430   1.512   2.409   2.460 -0.6830 -0.6180  0.5997
  373MOL0     H51431   1.393   2.508   2.542  1.0592 -0.2259  0.9336
  373MOL0     H51432   1.223   2.641   2.517  1.1784 -0.2097  0.5488
  373MOL0     H51433   1.039   2.921   2.509  2.9300 -0.8687  1.7957
  373MOL0     H51434   1.034   2.763   2.585 -0.8910 -2.9937 -1.5115
  373MOL0     H51435   0.910   2.799   2.465  0.5812 -3.5254  0.9967
  373MOL0     H51436   1.057   3.150   1.904 -0.6164 -0.2980 -1.3920
  373MOL0     H51437   0.884   3.243   1.744  2.5461 -0.2648 -0.5856
  373MOL0     H51438   0.761   3.121   1.577 -0.5221 -1.8811  0.1369
  373MOL0     H51439   0.600   3.082   1.553 -3.2279  2.3020  0.1523
  373MOL0     H51440   0.547   3.350   1.537 -0.8441 -0.3554  1.1131
  373MOL0     H51441   0.707   3.373   1.614  2.1765 -2.2115  1.3097
  373MOL0     H51442   0.661   3.247   1.337  1.2090  0.3690 -2.1749
  373MOL0     H51443   0.808   3.280   1.412  0.0490 -2.8157 -2.2944
  373MOL0     H51444   0.755   3.535   1.407 -2.7601  2.9718 -0.8443
  373MOL0     H51445   0.603   3.495   1.319  0.2452 -2.2477 -3.2456
  373MOL0     H51446   0.886   3.457   1.222  0.6897  3.3849  1.6199
  373MOL0     H51447   0.714   3.414   1.149 -2.5875  0.0133  0.8508
  373MOL0     H51448   0.837   3.689   1.227 -0.1619 -1.5180  1.0701
  373MOL0     H51449   0.665   3.649   1.188 -0.3875 -3.1048  0.5844
  373MOL0     H51450   0.739   3.565   0.963 -0.2490  0.8208 -1.5066
  373MOL0     H51451   0.911   3.596   1.011  1.7209  4.7201 -0.7631
  373MOL0     H51452   0.867   3.839   1.023  2.5993  0.9638 -5.1824
  373MOL0     H51453   0.693   3.803   0.988 -0.6674 -1.0839 -2.6614
  373MOL0     H51454   0.580   2.993   1.915 -1.3237  2.3542  2.4754
  373MOL0     H51455   0.747   2.890   2.062  1.7231 -1.3927 -0.2183
  373MOL0     H51456   1.150   2.746   2.039 -0.8767 -1.7115  0.6298
  373MOL0     H51457   1.293   2.542   2.106 -1.5932 -1.5410 -0.0369
  373MOL0     H51458   1.406   3.208   1.155  0.7736 -0.3698  0.5749
  373MOL0     H51459   1.379   3.356   0.985 -1.6006  2.4791 -0.5125
  373MOL0     H51460   1.698   3.755   0.813 -1.4452  0.6827  0.3237
  373MOL0     H51461   1.723   3.936   0.671 -0.1610  0.3534 -0.3804
  373MOL0     H51462   1.377   4.158   0.498 -2.8419  1.6043  1.3895
  373MOL0     H51463   1.387   4.264   0.633 -2.2240 -0.6815 -0.9447
  373MOL0     H51464   1.435   4.405   0.433 -0.3114 -1.3027 -1.8492
  373MOL0     H51465   1.557   4.296   0.374  3.4833  2.3153  0.2527
  373MOL0     H51466   1.613   4.404   0.645  1.5421  0.7442  0.0605
  373MOL0     H51467   1.713   4.348   0.517 -1.8340 -1.1891 -2.4167
  373MOL0     H51468   1.568   4.624   0.523  0.0817  1.0557 -2.7937
  373MOL0     H51469   1.651   4.559   0.377  0.5095  0.2859 -0.2242
  373MOL0     H51470   1.991   4.664   0.585  0.2576 -0.3623  2.6195
  373MOL0     H51471   1.310   4.055   0.724  0.3085 -1.2340  0.2638
  373MOL0     H51472   1.230   3.908   0.993 -0.0239  0.0243  1.4240
  373MOL0     H51473   1.172   3.898   0.831 -1.7429 -0.9058  0.7953
  373MOL0     H51474   1.228   3.749   0.924 -3.0491  0.2520 -0.7011
  374MOL0     O51475   6.711   3.571   4.366 -0.5338  0.4234  0.1629
  374MOL0     C51476   6.712   3.498   4.461 -0.1433  0.6571 -0.0110
  374MOL0     O51477   6.787   3.518   4.571  0.2025 -1.2344 -0.0457
  374MOL0     C51478   6.868   3.635   4.569 -0.2546  0.8631  1.1157
  374MOL0     C51479   6.999   3.618   4.516 -0.2460 -0.0928  0.5106
  374MOL0     C51480   7.094   3.720   4.528  0.3368  0.9705  0.2138
  374MOL0     C51481   7.064   3.840   4.592 -0.3547 -0.0046 -1.2905
  374MOL0     O51482   7.169   3.929   4.598  0.2030  0.0892 -0.1206
  374MOL0     C51483   7.161   4.003   4.726 -0.2437 -0.8817 -0.5344
  374MOL0     C51484   7.291   4.074   4.755 -0.8641 -0.1515  0.0908
  374MOL0     C51485   7.343   4.172   4.656  0.8606 -0.0266  0.1512
  374MOL0     C51486   7.448   4.265   4.715  0.0835  0.1400  0.3432
  374MOL0     C51487   7.498   4.371   4.620 -0.5174  0.3146  0.2875
  374MOL0     C51488   7.410   4.469   4.555  0.6608 -0.2058  0.4022
  374MOL0     C51489   7.482   4.569   4.461  0.4232 -1.4207 -0.8015
  374MOL0     C51490   7.555   4.689   4.532 -0.3825 -0.2216 -0.0259
  374MOL0     N51491   7.638   4.773   4.443  0.3843  0.0739 -0.3551
  374MOL0     C51492   7.713   4.735   4.332  0.0165 -1.0575 -1.0279
  374MOL0     C51493   7.777   4.850   4.289  0.9605  0.4689  0.2719
  374MOL0     C51494   7.857   4.855   4.159 -0.1211  1.1841 -0.3123
  374MOL0     C51495   7.989   4.905   4.183 -0.2864 -0.0933  0.4194
  374MOL0     C51496   8.012   5.048   4.140 -0.2693  0.0499 -0.0460
  374MOL0     C51497   8.153   5.103   4.166  0.1504 -0.2672  0.0745
  374MOL0     O51498   8.173   5.094   4.311 -0.3176  0.0579  0.1380
  374MOL0     C51499   8.300   5.135   4.353  0.6376 -0.0642 -0.0077
  374MOL0     C51500   8.301   5.189   4.474  0.8023 -0.0742 -0.3080
  374MOL0     C51501   8.419   5.234   4.529 -0.8295  0.4646 -1.2140
  374MOL0     C51502   8.405   5.276   4.677 -0.9411 -0.3946  0.1517
  374MOL0     C51503   8.550   5.216   4.464 -0.1812  0.8231 -0.7560
  374MOL0     C51504   8.689   5.246   4.522 -0.6095  0.3537  0.0291
  374MOL0     O51505   8.687   5.300   4.648  0.0838 -0.3664  0.2161
  374MOL0     C51506   8.790   5.365   4.697 -0.9113 -0.4601 -0.3322
  374MOL0     C51507   8.912   5.301   4.722  0.0094 -0.6744  0.4920
  374MOL0     C51508   9.010   5.363   4.795  0.4440 -0.3720 -0.0755
  374MOL0     C51509   8.998   5.495   4.835  0.3158  0.7954 -0.0645
  374MOL0     O51510   9.107   5.551   4.893  0.3252 -0.0596  0.1748
  374MOL0     C51511   9.090   5.667   4.970  0.4331 -0.6980  1.1303
  374MOL0     C51512   9.233   5.706   5.024  1.3467 -0.1302  0.1976
  374MOL0     C51513   9.315   5.577   5.074  0.7992 -0.1524  0.4538
  374MOL0     C51514   9.459   5.606   5.127 -0.3370  0.9349 -0.4251
  374MOL0     C51515   9.535   5.495   5.202  0.0143  0.4190  0.7366
  374MOL0     C51516   9.651   5.554   5.265 -0.5175  0.3334 -0.6685
  374MOL0     C51517   9.718   5.458   5.367  0.7620 -0.4804 -1.1460
  374MOL0     C51518   9.871   5.484   5.394  0.5026 -0.1887 -0.4913
  374MOL0    Cl51519   9.889   5.608   5.527  0.3727  0.2858  0.1229
  374MOL0     C51520   8.874   5.561   4.815  0.0354  0.0809 -0.0573
  374MOL0     C51521   8.773   5.497   4.740 -0.5243 -0.3306 -0.0565
  374MOL0     O51522   8.792   5.232   4.449  0.1579 -0.0792 -0.2164
  374MOL0     C51523   8.544   5.151   4.343 -0.6229 -0.0814  0.2125
  374MOL0     C51524   8.420   5.109   4.286 -0.1307  0.8317 -0.5880
  374MOL0     N51525   7.740   4.954   4.374  1.2578  0.0071 -0.0545
  374MOL0     N51526   7.655   4.911   4.460  0.5403  0.2207 -0.0156
  374MOL0     C51527   6.933   3.858   4.642  0.0983 -0.3117  0.1103
  374MOL0     C51528   6.839   3.750   4.637  0.5644  0.4461 -0.1063
  374MOL0     C51529   6.603   3.394   4.466 -0.3186 -0.4919  0.8659
  374MOL0     C51530   6.554   3.349   4.590 -0.2707 -0.3944 -0.1653
  374MOL0     C51531   6.462   3.247   4.598  0.1340 -0.1626 -0.7145
  374MOL0     C51532   6.396   3.193   4.497 -0.7203 -0.6029  0.3781
  374MOL0     O51533   6.316   3.088   4.515  0.0534  0.0216  0.7903
  374MOL0     C51534   6.232   3.039   4.409  0.1840 -0.8641  0.8104
  374MOL0     C51535   6.114   2.939   4.447 -0.1804  0.1505 -0.4405
  374MOL0     C51536   6.010   3.002   4.545 -0.5751 -0.7507 -0.3931
  374MOL0     C51537   5.937   2.887   4.620 -0.1106  0.9669  0.5456
  374MOL0     C51538   5.807   2.924   4.665  1.2202 -0.3647 -0.5349
  374MOL0     C51539   5.695   2.957   4.702 -0.3361  0.3935 -0.3959
  374MOL0     C51540   6.432   3.246   4.371 -0.7767  0.3820  0.9764
  374MOL0     C51541   6.532   3.344   4.353  0.5711 -0.2736  0.4559
  374MOL0     C51542   6.561   3.379   4.216 -0.4923  0.7673  0.0295
  374MOL0     H51543   7.011   3.525   4.462 -1.6180  0.2871 -0.5051
  374MOL0     H51544   7.195   3.702   4.491  1.5226 -0.6462  3.7795
  374MOL0     H51545   7.134   3.945   4.815 -0.3969  0.4707  0.3321
  374MOL0     H51546   7.081   4.077   4.711 -0.4565 -1.1819 -0.8835
  374MOL0     H51547   7.295   4.111   4.857  1.4926  1.3613 -0.4707
  374MOL0     H51548   7.371   3.999   4.756  0.0579  0.8009  1.2612
  374MOL0     H51549   7.383   4.119   4.569  3.4870  4.9357 -2.1377
  374MOL0     H51550   7.255   4.227   4.622  1.1264  1.9530  2.4544
  374MOL0     H51551   7.411   4.320   4.802  1.8646  1.1397  0.5004
  374MOL0     H51552   7.534   4.214   4.760  1.6921  2.6323  0.2583
  374MOL0     H51553   7.549   4.331   4.532 -1.3376  0.6407 -0.3495
  374MOL0     H51554   7.580   4.421   4.672 -0.4249 -2.0901  2.6934
  374MOL0     H51555   7.332   4.417   4.498 -1.4576  2.5770  0.5400
  374MOL0     H51556   7.373   4.530   4.638  1.1893  0.8220 -0.1102
  374MOL0     H51557   7.412   4.612   4.388 -1.0468 -1.8283  0.3170
  374MOL0     H51558   7.559   4.511   4.409  1.3775 -2.6801  1.8739
  374MOL0     H51559   7.481   4.753   4.581  0.0909  2.6454 -2.7321
  374MOL0     H51560   7.613   4.648   4.615  0.7554  1.9072  0.3009
  374MOL0     H51561   7.704   4.638   4.284 -3.0720 -2.4369  1.9051
  374MOL0     H51562   7.788   4.912   4.095  1.8112  0.8225 -2.8528
  374MOL0     H51563   7.873   4.757   4.112  0.8183  0.7555  0.8651
  374MOL0     H51564   8.009   4.905   4.291  0.0440  0.0245  0.3598
  374MOL0     H51565   8.064   4.850   4.125 -0.2411  0.0581  0.3337
  374MOL0     H51566   7.986   5.065   4.035  3.6601 -0.7274 -1.3201
  374MOL0     H51567   7.961   5.119   4.207  0.6262 -0.5454  1.3225
  374MOL0     H51568   8.224   5.037   4.115 -1.3662 -1.3637 -0.7012
  374MOL0     H51569   8.160   5.207   4.132 -0.4278 -0.4181 -0.5269
  374MOL0     H51570   8.209   5.181   4.532 -0.4423 -2.1257 -2.3917
  374MOL0     H51571   8.306   5.293   4.721 -0.4630 -2.2398  2.1169
  374MOL0     H51572   8.463   5.366   4.696  0.4312 -0.7622 -1.8921
  374MOL0     H51573   8.442   5.196   4.741  0.0667  1.2439  1.7007
  374MOL0     H51574   8.923   5.196   4.698  1.2501 -0.3736 -0.3105
  374MOL0     H51575   9.102   5.307   4.811  0.7337  0.0734 -0.1572
  374MOL0     H51576   9.051   5.748   4.907  2.7845  1.5175  2.3213
  374MOL0     H51577   9.031   5.652   5.061  0.4338  2.6828  1.8337
  374MOL0     H51578   9.294   5.748   4.943 -0.8308 -0.4558 -1.7324
  374MOL0     H51579   9.220   5.775   5.107  0.1440  0.3381 -0.3593
  374MOL0     H51580   9.307   5.499   4.998 -0.9658 -1.4167  1.8549
  374MOL0     H51581   9.254   5.530   5.151 -0.6044  1.7637  0.6027
  374MOL0     H51582   9.444   5.691   5.193  2.4489 -0.3930  2.1496
  374MOL0     H51583   9.514   5.624   5.034 -0.0819  2.7221  0.0358
  374MOL0     H51584   9.465   5.459   5.278  1.5437  1.0561  2.5214
  374MOL0     H51585   9.566   5.419   5.130  0.4067 -0.0655  1.4041
  374MOL0     H51586   9.609   5.648   5.302 -1.2294  0.9650 -2.9242
  374MOL0     H51587   9.734   5.585   5.200  1.0485  2.1880  2.0117
  374MOL0     H51588   9.705   5.356   5.328  0.6099  0.1299 -2.7599
  374MOL0     H51589   9.668   5.466   5.463 -1.3153 -0.2749 -2.1914
  374MOL0     H51590   9.906   5.534   5.304  2.5670  2.1583  1.4603
  374MOL0     H51591   9.924   5.391   5.416 -1.2000 -1.1206 -0.0587
  374MOL0     H51592   8.844   5.659   4.849 -2.3637  0.2290 -2.2655
  374MOL0     H51593   8.678   5.548   4.735 -1.0459 -1.3109 -0.5346
  374MOL0     H51594   8.633   5.134   4.282 -1.4100 -2.4319 -0.3809
  374MOL0     H51595   8.424   5.059   4.190  0.3341  0.3749 -0.3345
  374MOL0     H51596   6.906   3.948   4.697 -1.6839 -0.5672 -0.3008
  374MOL0     H51597   6.741   3.754   4.682  0.5930 -0.6462  0.0621
  374MOL0     H51598   6.609   3.388   4.675 -0.6877  0.6937 -0.3854
  374MOL0     H51599   6.433   3.195   4.689 -2.0588  0.1106 -1.1907
  374MOL0     H51600   6.188   3.126   4.358 -0.8466 -1.9197 -0.1533
  374MOL0     H51601   6.289   2.992   4.329 -0.4066 -0.1297 -0.0783
  374MOL0     H51602   6.164   2.851   4.489  0.0460 -0.5113 -1.9985
  374MOL0     H51603   6.075   2.898   4.353  0.1540 -0.7582 -0.1974
  374MOL0     H51604   6.068   3.059   4.618 -0.4115  1.3885 -2.0649
  374MOL0     H51605   5.940   3.065   4.490  0.4714 -0.0830 -1.0151
  374MOL0     H51606   5.999   2.849   4.702 -3.1243 -1.8874  1.7105
  374MOL0     H51607   5.927   2.808   4.546  1.0761  2.3844 -1.2067
  374MOL0     H51608   5.602   2.987   4.747 -0.0366  2.2922 -0.9553
  374MOL0     H51609   6.386   3.199   4.286 -1.4061 -0.3940  1.7278
  374MOL0     H51610   6.546   3.487   4.205 -2.5258  0.6936  1.5798
  374MOL0     H51611   6.660   3.342   4.185  0.8125  1.5041  3.0011
  374MOL0     H51612   6.496   3.333   4.141 -1.6121  3.1279 -0.5292
  375MOL0     O51613   7.988   7.758   0.236  0.5006 -0.1815  0.4997
  375MOL0     C51614   7.905   7.723   0.321 -0.0939 -0.8959  0.1367
  375MOL0     O51615   7.922   7.727   0.455  0.2937 -0.5203  0.0617
  375MOL0     C51616   8.046   7.755   0.505 -0.5209  0.3054  0.3686
  375MOL0     C51617   8.036   7.817   0.635 -0.4212  0.7274 -0.0337
  375MOL0     C51618   8.159   7.831   0.710 -0.1768  0.2092  0.1076
  375MOL0     C51619   8.287   7.798   0.664 -0.0814  0.2131  0.4237
  375MOL0     O51620   8.408   7.817   0.725  1.1712  0.0040 -0.5394
  375MOL0     C51621   8.401   7.818   0.873  0.4542 -0.3266  0.0515
  375MOL0     C51622   8.541   7.819   0.936 -0.4267  0.3882 -0.1612
  375MOL0     C51623   8.624   7.687   0.901 -0.0816 -0.5797  0.1542
  375MOL0     C51624   8.762   7.710   0.958 -0.4901  0.5640  1.0153
  375MOL0     C51625   8.868   7.608   0.913 -0.2816 -0.2967 -0.5752
  375MOL0     C51626   8.842   7.468   0.945  0.7598  0.1575 -0.1345
  375MOL0     C51627   8.941   7.375   0.873  0.9885  0.4494 -0.8709
  375MOL0     C51628   9.082   7.351   0.939 -0.0450  0.4134  0.1185
  375MOL0     N51629   9.178   7.450   0.897  0.4195 -0.5550 -0.4576
  375MOL0     C51630   9.210   7.478   0.765  0.1625 -0.0781  0.1355
  375MOL0     C51631   9.272   7.594   0.763  0.3131 -0.1221 -0.3816
  375MOL0     C51632   9.319   7.665   0.638 -0.5061 -0.2735 -0.4537
  375MOL0     C51633   9.475   7.670   0.627 -0.3308 -0.1323 -0.7763
  375MOL0     C51634   9.532   7.758   0.745 -0.5321 -0.4187  0.2561
  375MOL0     C51635   9.684   7.776   0.730  0.2002 -0.3490  0.5368
  375MOL0     O51636   9.715   7.821   0.595 -0.1782  0.0664 -0.4085
  375MOL0     C51637   9.841   7.801   0.552 -0.1268  0.7143  0.6945
  375MOL0     C51638   9.873   7.817   0.415  0.5326 -0.2749 -0.1767
  375MOL0     C51639  10.003   7.792   0.360  0.4585  0.3555  0.2438
  375MOL0     C51640  10.020   7.797   0.213 -0.5491  0.0566  0.0819
  375MOL0     C51641  10.106   7.765   0.450 -0.9120  0.0735 -0.1782
  375MOL0     C51642  10.250   7.748   0.429  0.2077 -0.1117  0.4148
  375MOL0     O51643  10.329   7.698   0.529  0.1506  0.7026 -0.5577
  375MOL0     C51644  10.466   7.691   0.505  0.4075 -0.5183  0.3300
  375MOL0     C51645  10.551   7.801   0.491  0.9158 -0.5139  0.0707
  375MOL0     C51646  10.682   7.794   0.447 -0.0969 -0.1031  1.4705
  375MOL0     C51647  10.744   7.670   0.437  0.6816  1.4169  0.4082
  375MOL0     O51648  10.877   7.645   0.395  0.1807 -0.5434 -0.4927
  375MOL0     C51649  10.969   7.676   0.506  0.9920 -0.2465  0.1067
  375MOL0     C51650  11.109   7.638   0.457  0.1176 -0.7634  0.1472
  375MOL0     C51651  11.160   7.732   0.342 -0.2666 -0.7956 -0.2713
  375MOL0     C51652  11.297   7.681   0.302 -0.0935  0.5388  1.1622
  375MOL0     C51653  11.359   7.774   0.194  0.1075  0.3275 -0.2451
  375MOL0     C51654  11.508   7.741   0.200  1.0832  0.0608  1.1514
  375MOL0     C51655  11.592   7.805   0.088  0.2047  0.6057  0.5602
  375MOL0     C51656  11.565   7.957   0.050 -0.0896 -0.4737 -0.2846
  375MOL0    Cl51657  11.505   8.045   0.189 -0.1039 -0.5002 -0.1732
  375MOL0     C51658  10.668   7.560   0.468  0.8202  0.6584 -0.2526
  375MOL0     C51659  10.528   7.564   0.477  0.3608 -0.4221  0.3580
  375MOL0     O51660  10.296   7.798   0.325 -0.0849 -0.1546 -0.6313
  375MOL0     C51661  10.073   7.754   0.588  0.1882 -0.4778 -0.1470
  375MOL0     C51662   9.946   7.748   0.638  0.5038  0.4112 -0.7757
  375MOL0     N51663   9.278   7.639   0.891 -0.1498 -0.5591  0.0964
  375MOL0     N51664   9.221   7.551   0.976 -0.9983  0.4297  0.3133
  375MOL0     C51665   8.293   7.738   0.534  1.1196 -0.1173 -0.9466
  375MOL0     C51666   8.172   7.716   0.461 -0.6115  0.1856  0.5002
  375MOL0     C51667   7.773   7.651   0.272 -0.6589  0.7786 -0.2424
  375MOL0     C51668   7.678   7.633   0.377 -0.0825 -0.6529 -0.2077
  375MOL0     C51669   7.566   7.559   0.346 -0.4177 -0.3244 -0.4298
  375MOL0     C51670   7.541   7.499   0.227 -0.0656 -0.1503  0.5989
  375MOL0     O51671   7.425   7.427   0.212 -0.2810  0.0615 -0.8760
  375MOL0     C51672   7.361   7.459   0.094  0.6976 -0.6077 -0.0824
  375MOL0     C51673   7.232   7.381   0.072 -0.1939  0.3879  0.2631
  375MOL0     C51674   7.238   7.225   0.099  0.0509  0.5546 -0.4821
  375MOL0     C51675   7.332   7.144   0.007  0.1024 -0.5639  0.0530
  375MOL0     C51676   7.349   7.011   0.062 -0.4195  0.0655  0.2250
  375MOL0     C51677   7.355   6.900   0.110 -1.2222 -0.3385 -0.4100
  375MOL0     C51678   7.642   7.513   0.131 -0.0804 -0.8070  0.0736
  375MOL0     C51679   7.759   7.586   0.153 -0.0798 -0.3941 -1.2799
  375MOL0     C51680   7.850   7.610   0.035  0.9438 -1.1786 -0.3974
  375MOL0     H51681   7.949   7.862   0.683 -0.3961  0.5074  0.2221
  375MOL0     H51682   8.142   7.879   0.806  0.7001  1.4250 -0.3234
  375MOL0     H51683   8.355   7.721   0.897 -1.2482 -0.0877 -2.0471
  375MOL0     H51684   8.337   7.899   0.910  3.8579  2.1143  1.1421
  375MOL0     H51685   8.600   7.904   0.903 -3.3799  1.4730 -3.1926
  375MOL0     H51686   8.531   7.844   1.042  0.3610  2.4196 -0.5210
  375MOL0     H51687   8.568   7.602   0.941 -3.5279  1.8394  0.9273
  375MOL0     H51688   8.623   7.669   0.793  1.1308 -0.1316  0.0532
  375MOL0     H51689   8.792   7.812   0.931  0.9623 -0.1009 -0.0007
  375MOL0     H51690   8.752   7.699   1.067  1.3134 -1.4312  1.0459
  375MOL0     H51691   8.965   7.633   0.958 -1.2319 -1.3025  2.2411
  375MOL0     H51692   8.870   7.615   0.804  0.2099  2.4203 -0.4730
  375MOL0     H51693   8.831   7.462   1.054  0.3890 -0.0775 -0.1827
  375MOL0     H51694   8.743   7.437   0.909  1.0705 -0.2378 -0.6532
  375MOL0     H51695   8.957   7.411   0.771 -0.4522  1.0044 -0.9159
  375MOL0     H51696   8.887   7.280   0.869 -0.6259  1.3073 -0.3768
  375MOL0     H51697   9.062   7.348   1.046  0.0730  2.3083  0.2282
  375MOL0     H51698   9.122   7.254   0.911 -1.5797  0.0626 -0.9712
  375MOL0     H51699   9.196   7.420   0.674  0.7920 -1.6830  0.9985
  375MOL0     H51700   9.278   7.766   0.632  0.9064  0.5628  2.2960
  375MOL0     H51701   9.291   7.617   0.544  0.6419 -2.5340  0.2851
  375MOL0     H51702   9.514   7.569   0.640 -1.6868 -0.4084  1.6827
  375MOL0     H51703   9.494   7.706   0.525 -2.7239  0.2851 -1.1173
  375MOL0     H51704   9.481   7.854   0.733 -3.3740 -1.3771  3.1530
  375MOL0     H51705   9.500   7.720   0.843 -2.8625 -1.0494 -0.6859
  375MOL0     H51706   9.720   7.849   0.803  1.3008  0.6645 -0.9648
  375MOL0     H51707   9.726   7.676   0.741  0.2181 -0.8783 -2.9725
  375MOL0     H51708   9.789   7.848   0.354 -3.6449 -3.1346  3.4285
  375MOL0     H51709   9.922   7.795   0.166 -2.0298  0.7109  2.9368
  375MOL0     H51710  10.069   7.707   0.174 -1.6190  0.2904 -1.9049
  375MOL0     H51711  10.077   7.886   0.183 -1.7480  1.3574  1.4752
  375MOL0     H51712  10.507   7.899   0.504  0.2140 -0.6718 -0.9645
  375MOL0     H51713  10.740   7.884   0.428  1.8187 -1.4666  0.5446
  375MOL0     H51714  10.967   7.781   0.536  0.0303  0.4309 -2.1319
  375MOL0     H51715  10.948   7.617   0.596 -2.2441  0.6133  0.0111
  375MOL0     H51716  11.172   7.655   0.545  1.0597  0.2352 -0.6922
  375MOL0     H51717  11.118   7.534   0.426  0.5456 -0.3066 -1.3414
  375MOL0     H51718  11.169   7.832   0.385 -0.3606 -0.0379 -1.9566
  375MOL0     H51719  11.089   7.734   0.260  0.1625  2.9175 -0.7107
  375MOL0     H51720  11.297   7.575   0.277  1.0526  0.9696 -0.8525
  375MOL0     H51721  11.365   7.685   0.387  0.2901  1.2363  0.8290
  375MOL0     H51722  11.311   7.740   0.102 -2.5301 -1.2037  1.5652
  375MOL0     H51723  11.325   7.877   0.212  0.5201  0.4943 -0.4092
  375MOL0     H51724  11.518   7.633   0.188 -2.3160 -0.4863  2.2555
  375MOL0     H51725  11.547   7.768   0.298 -0.9083 -0.4445  2.1417
  375MOL0     H51726  11.568   7.762  -0.010  3.5849  1.2577 -0.6929
  375MOL0     H51727  11.698   7.805   0.117 -0.0442  2.8340  1.6818
  375MOL0     H51728  11.490   7.967  -0.028  0.0802  0.1196 -0.3722
  375MOL0     H51729  11.648   8.015   0.008 -0.2473  0.7666  1.0423
  375MOL0     H51730  10.715   7.462   0.465 -0.1223  0.1483  0.8847
  375MOL0     H51731  10.468   7.474   0.470 -0.3193  0.1322 -1.5888
  375MOL0     H51732  10.151   7.745   0.664  0.0775 -0.5998 -0.0474
  375MOL0     H51733   9.930   7.725   0.743  2.1175  1.5439 -0.2548
  375MOL0     H51734   8.392   7.704   0.504  2.3587  0.6777  1.8878
  375MOL0     H51735   8.172   7.659   0.368 -0.0971  1.5614 -0.3818
  375MOL0     H51736   7.680   7.687   0.472 -3.5923 -0.8692  0.1099
  375MOL0     H51737   7.496   7.559   0.429 -1.7339 -1.3915 -1.5004
  375MOL0     H51738   7.330   7.562   0.080  3.1738  0.1580 -0.5374
  375MOL0     H51739   7.422   7.450   0.003  0.6374 -2.3244 -0.0023
  375MOL0     H51740   7.190   7.411  -0.025 -0.9678  2.3127  1.1600
  375MOL0     H51741   7.163   7.422   0.146  1.1054  2.8368  0.2260
  375MOL0     H51742   7.255   7.202   0.204 -5.6473 -3.3323  0.0170
  375MOL0     H51743   7.136   7.188   0.085 -0.0550  0.0213  1.4965
  375MOL0     H51744   7.428   7.196   0.002  0.1406 -0.3352  2.3373
  375MOL0     H51745   7.287   7.139  -0.093 -2.5137  1.5369  0.9959
  375MOL0     H51746   7.343   6.797   0.137 -1.4562 -0.6843 -1.7711
  375MOL0     H51747   7.634   7.464   0.035  1.1629 -2.0987  0.5913
  375MOL0     H51748   7.954   7.592   0.062  0.9989 -0.5126 -0.1372
  375MOL0     H51749   7.819   7.545  -0.048  2.8757 -4.3627  1.1853
  375MOL0     H51750   7.836   7.715   0.008 -0.5475 -1.5062 -0.9692
  376MOL0     O51751  10.631   2.138  10.287  0.3163  0.5302 -0.0691
  376MOL0     C51752  10.593   2.053  10.213 -0.7621 -0.4228  0.3763
  376MOL0     O51753  10.638   1.917  10.222  0.3199 -1.0242  0.4260
  376MOL0     C51754  10.759   1.886  10.269 -0.0964  0.9143  0.6262
  376MOL0     C51755  10.877   1.959  10.243  0.5951  0.1097  1.3082
  376MOL0     C51756  11.003   1.918  10.281  0.1826 -0.6353 -0.4320
  376MOL0     C51757  11.014   1.796  10.348  1.1627  0.2895 -0.9229
  376MOL0     O51758  11.145   1.757  10.368  0.1068  0.0035 -0.0922
  376MOL0     C51759  11.175   1.615  10.381 -1.2054 -0.2363  0.1097
  376MOL0     C51760  11.317   1.582  10.323  0.3729 -0.0307 -0.4866
  376MOL0     C51761  11.425   1.569  10.433 -0.1538 -0.8191  0.3811
  376MOL0     C51762  11.561   1.609  10.365  0.1755  0.0854 -0.3047
  376MOL0     C51763  11.666   1.634  10.471 -0.1600  0.0244  0.2112
  376MOL0     C51764  11.791   1.649  10.397 -0.0878  0.2477  0.2627
  376MOL0     C51765  11.912   1.673  10.491 -0.2775 -0.6528 -0.3938
  376MOL0     C51766  12.034   1.721  10.407 -0.1827  0.0461 -0.2465
  376MOL0     N51767  12.142   1.745  10.492 -0.5287 -0.2900 -0.3458
  376MOL0     C51768  12.229   1.646  10.555  0.7421 -0.2325  0.7111
  376MOL0     C51769  12.313   1.701  10.635  0.9917  0.4881  0.3753
  376MOL0     C51770  12.405   1.634  10.724 -0.4393 -0.3938  0.0782
  376MOL0     C51771  12.364   1.631  10.869  0.7265  0.3952 -0.0260
  376MOL0     C51772  12.443   1.522  10.954  0.0550  0.1164 -0.9069
  376MOL0     C51773  12.597   1.568  10.965  0.5605  0.9841 -0.4832
  376MOL0     O51774  12.664   1.468  11.044  0.4920 -0.1866  0.4647
  376MOL0     C51775  12.800   1.471  11.057 -0.8845  0.4386 -0.0106
  376MOL0     C51776  12.843   1.359  11.127 -0.1444  0.5508  0.7497
  376MOL0     C51777  12.981   1.329  11.140 -0.6279  0.8141  1.1238
  376MOL0     C51778  13.021   1.221  11.232 -0.6887 -0.3445  0.0489
  376MOL0     C51779  13.080   1.407  11.068 -0.1011  0.6294  1.1337
  376MOL0     C51780  13.217   1.373  11.087 -0.7907 -0.6986  0.0675
  376MOL0     O51781  13.287   1.487  11.128 -0.6005  0.1961  0.3933
  376MOL0     C51782  13.410   1.459  11.181 -0.2612 -0.1800 -0.3766
  376MOL0     C51783  13.520   1.384  11.128  0.0992 -0.1030  0.2201
  376MOL0     C51784  13.647   1.385  11.199  0.0223  0.8119  0.2138
  376MOL0     C51785  13.664   1.467  11.315 -0.3436  0.5844 -0.7152
  376MOL0     O51786  13.783   1.490  11.380  0.2646 -0.8799 -0.8246
  376MOL0     C51787  13.889   1.401  11.339  0.0700  0.0165  0.5711
  376MOL0     C51788  14.005   1.399  11.439 -0.7812  0.6098  0.4264
  376MOL0     C51789  13.964   1.348  11.580 -0.0460  0.1808 -0.2614
  376MOL0     C51790  14.000   1.441  11.696 -0.4490 -1.2900 -0.0179
  376MOL0     C51791  14.158   1.452  11.721 -0.3044 -0.7228  0.5734
  376MOL0     C51792  14.193   1.529  11.854  0.5369  0.9960  0.0468
  376MOL0     C51793  14.351   1.537  11.877 -0.1092  0.2472  0.0008
  376MOL0     C51794  14.397   1.621  12.001 -0.2096  0.6097  0.0152
  376MOL0    Cl51795  14.564   1.564  12.045  0.0436  0.0192 -0.0372
  376MOL0     C51796  13.562   1.550  11.357 -0.1124 -0.7751 -0.6691
  376MOL0     C51797  13.442   1.549  11.291 -0.9134  0.7577 -0.3576
  376MOL0     O51798  13.262   1.262  11.066  0.0797  0.4773 -0.1196
  376MOL0     C51799  13.034   1.519  11.001 -0.6160 -0.0828  0.1863
  376MOL0     C51800  12.897   1.549  10.994  1.1794  0.0050  0.1744
  376MOL0     N51801  12.277   1.838  10.635 -0.4037 -0.3580 -0.3025
  376MOL0     N51802  12.172   1.865  10.554 -0.5712  0.9524 -0.4999
  376MOL0     C51803  10.894   1.715  10.388 -0.3750 -0.1993  0.1492
  376MOL0     C51804  10.770   1.760  10.340 -0.7720  1.4481 -0.8210
  376MOL0     C51805  10.503   2.081  10.099  0.3941  0.3684 -0.5042
  376MOL0     C51806  10.551   2.055   9.974  0.5269  0.4504 -0.4151
  376MOL0     C51807  10.477   2.080   9.859  0.7530 -0.5796 -0.5064
  376MOL0     C51808  10.354   2.146   9.863  0.4281  0.3486 -0.3402
  376MOL0     O51809  10.298   2.182   9.750  0.1817  0.0003 -0.3437
  376MOL0     C51810  10.159   2.205   9.740 -0.4722 -0.0906 -0.1502
  376MOL0     C51811  10.116   2.133   9.615  0.3079 -1.1410 -0.0674
  376MOL0     C51812   9.964   2.139   9.609  0.3496 -0.0847 -0.2874
  376MOL0     C51813   9.922   2.055   9.486 -0.1071  0.1311 -0.2579
  376MOL0     C51814   9.933   1.910   9.514 -0.0244  0.1176 -0.1953
  376MOL0     C51815   9.930   1.794   9.558  0.4070 -0.5758  0.1710
  376MOL0     C51816  10.300   2.173   9.987 -0.6146  0.5928 -0.3572
  376MOL0     C51817  10.369   2.130  10.103  0.8822 -0.2728  0.7416
  376MOL0     C51818  10.297   2.122  10.234  0.0843  0.3482 -0.6421
  376MOL0     H51819  10.877   2.047  10.179 -0.6102 -3.4197 -4.2553
  376MOL0     H51820  11.091   1.979  10.264 -0.1841  0.3007  0.8822
  376MOL0     H51821  11.096   1.555  10.334 -0.4701 -1.2590  0.1616
  376MOL0     H51822  11.180   1.593  10.488 -1.0861  0.1433  0.1845
  376MOL0     H51823  11.322   1.489  10.265  0.1238 -0.8194  0.7212
  376MOL0     H51824  11.342   1.660  10.250  0.7921  2.3136  2.0036
  376MOL0     H51825  11.409   1.638  10.516  1.2780  1.4116 -1.1135
  376MOL0     H51826  11.443   1.467  10.469  1.8954 -0.2187  1.1881
  376MOL0     H51827  11.583   1.521  10.304 -3.0413 -0.4213 -0.9401
  376MOL0     H51828  11.535   1.700  10.311 -3.2092 -0.9509 -0.6576
  376MOL0     H51829  11.657   1.551  10.541 -1.1870  1.0376  1.3321
  376MOL0     H51830  11.658   1.726  10.530  3.5712  0.3574  0.4047
  376MOL0     H51831  11.812   1.548  10.360 -2.2359 -0.1266 -0.0278
  376MOL0     H51832  11.781   1.723  10.317 -2.2702 -0.1582  0.1145
  376MOL0     H51833  11.930   1.572  10.528  1.1181 -1.5030 -3.0818
  376MOL0     H51834  11.890   1.751  10.564 -1.1113 -0.9536 -0.3208
  376MOL0     H51835  12.066   1.647  10.334  2.3200  1.3740 -0.6364
  376MOL0     H51836  12.010   1.811  10.348 -0.7984 -1.1784 -1.9337
  376MOL0     H51837  12.226   1.542  10.524  2.7301 -0.9999  2.8308
  376MOL0     H51838  12.499   1.689  10.731 -1.0572  0.8694 -1.0447
  376MOL0     H51839  12.423   1.528  10.701  0.8199 -0.0117 -0.8040
  376MOL0     H51840  12.370   1.728  10.921  4.2983 -0.0350  0.6357
  376MOL0     H51841  12.259   1.601  10.872  0.8080  0.1109 -0.0336
  376MOL0     H51842  12.399   1.510  11.053  0.5703  3.0500 -0.2427
  376MOL0     H51843  12.430   1.426  10.902 -2.0787  0.1939 -0.6250
  376MOL0     H51844  12.640   1.583  10.866 -1.7085  2.9296 -1.2724
  376MOL0     H51845  12.609   1.663  11.018 -0.4511  0.6155  0.4486
  376MOL0     H51846  12.769   1.299  11.180 -2.2396  2.0386 -0.3403
  376MOL0     H51847  13.074   1.276  11.311 -2.4292  0.9627  0.3862
  376MOL0     H51848  13.094   1.151  11.191  1.0670  1.9162 -0.9183
  376MOL0     H51849  12.928   1.169  11.256 -1.0324 -0.7353 -1.9540
  376MOL0     H51850  13.506   1.347  11.026  0.1871  2.4033 -0.7622
  376MOL0     H51851  13.727   1.327  11.154  1.3123  1.9880  0.9206
  376MOL0     H51852  13.860   1.295  11.344  3.3949 -0.9874  0.9150
  376MOL0     H51853  13.926   1.421  11.239  2.1819 -2.2990  0.7923
  376MOL0     H51854  14.068   1.324  11.390 -2.5471  1.0980 -2.9012
  376MOL0     H51855  14.055   1.497  11.440 -2.3089  1.5070 -1.6631
  376MOL0     H51856  14.010   1.250  11.600  1.5369  0.3673 -2.5672
  376MOL0     H51857  13.855   1.342  11.581 -0.2553  1.0477 -3.7532
  376MOL0     H51858  13.953   1.425  11.793  0.5028  1.3847  0.9777
  376MOL0     H51859  13.965   1.541  11.667  1.6947 -0.9473 -1.6886
  376MOL0     H51860  14.194   1.349  11.726  1.3177 -0.1164  3.6397
  376MOL0     H51861  14.217   1.507  11.647  2.2449 -2.2844  1.3257
  376MOL0     H51862  14.148   1.462  11.928  1.5455 -4.2130 -3.5036
  376MOL0     H51863  14.150   1.630  11.857 -0.0039  0.7498  0.9363
  376MOL0     H51864  14.408   1.579  11.794  2.0998  2.6708  2.5439
  376MOL0     H51865  14.374   1.431  11.896 -0.3987 -0.2350 -2.1291
  376MOL0     H51866  14.336   1.593  12.087  1.3172 -2.2874  0.3052
  376MOL0     H51867  14.395   1.729  11.982 -0.8466  0.7859  1.0495
  376MOL0     H51868  13.574   1.613  11.444 -0.8483 -3.5698  1.6346
  376MOL0     H51869  13.352   1.596  11.330 -3.5416 -1.5277 -3.1778
  376MOL0     H51870  13.102   1.579  10.942  3.2134 -4.2194 -0.1130
  376MOL0     H51871  12.863   1.629  10.928  0.5568 -0.8108 -0.5204
  376MOL0     H51872  10.908   1.620  10.439  0.9863 -0.6203 -0.9311
  376MOL0     H51873  10.688   1.693  10.365 -1.4880  2.5313 -0.1965
  376MOL0     H51874  10.649   2.011   9.962 -0.6897 -2.9180  0.7872
  376MOL0     H51875  10.515   2.057   9.760  1.6636 -0.9468 -0.0778
  376MOL0     H51876  10.116   2.175   9.836 -1.2485  2.6418  0.4177
  376MOL0     H51877  10.132   2.309   9.722 -2.9104 -0.2491  1.9905
  376MOL0     H51878  10.149   2.029   9.609 -0.8806 -1.4994 -0.8431
  376MOL0     H51879  10.163   2.182   9.529  1.2264 -2.2699 -0.2263
  376MOL0     H51880   9.924   2.111   9.706  1.1880  2.3467  0.8456
  376MOL0     H51881   9.925   2.241   9.603 -1.9260 -0.6668  2.4529
  376MOL0     H51882   9.987   2.083   9.402 -0.1579  2.3136  0.3816
  376MOL0     H51883   9.820   2.082   9.458  0.1340 -0.6555 -2.0216
  376MOL0     H51884   9.916   1.696   9.599  1.0894 -1.5722 -1.9012
  376MOL0     H51885  10.199   2.208  10.004 -0.1741  1.4072  0.6334
  376MOL0     H51886  10.316   2.215  10.289 -1.1022  1.9253 -2.7677
  376MOL0     H51887  10.192   2.106  10.210 -0.3344  1.7936  0.0934
  376MOL0     H51888  10.339   2.044  10.298 -0.8722  1.2915  1.2178
  377MOL0     O51889   8.129   5.257   9.342  0.7046 -0.9828 -0.2223
  377MOL0     C51890   8.086   5.201   9.440  0.6590  0.4936  0.5834
  377MOL0     O51891   8.161   5.114   9.513  0.4153  0.6736  0.1513
  377MOL0     C51892   8.289   5.097   9.485 -0.4214 -0.1471 -0.5043
  377MOL0     C51893   8.370   5.207   9.459 -0.8320  0.0548 -0.7493
  377MOL0     C51894   8.507   5.192   9.424  0.3109  0.0240 -0.9665
  377MOL0     C51895   8.566   5.069   9.446 -0.9895 -0.7241  0.7133
  377MOL0     O51896   8.698   5.064   9.441 -0.0381  0.6130  0.2837
  377MOL0     C51897   8.758   5.023   9.557  0.7217  0.0557 -0.9613
  377MOL0     C51898   8.899   5.073   9.574 -0.7260  0.1891 -0.7665
  377MOL0     C51899   8.940   5.050   9.728  0.0715 -0.2749  0.6497
  377MOL0     C51900   8.947   4.909   9.795  0.2909  0.1060  0.4092
  377MOL0     C51901   9.005   4.920   9.939  0.2126 -0.7348  0.3786
  377MOL0     C51902   8.984   4.801  10.039  0.0272  0.1281 -0.4041
  377MOL0     C51903   9.071   4.805  10.170  0.8036 -0.0423  0.0551
  377MOL0     C51904   8.996   4.845  10.298 -0.1551  0.1568 -0.1971
  377MOL0     N51905   9.010   4.988  10.337  0.0015  1.2688  0.3255
  377MOL0     C51906   8.937   5.085  10.275 -0.8651 -0.2648  0.2493
  377MOL0     C51907   8.963   5.200  10.353 -0.3874  0.6469 -0.7867
  377MOL0     C51908   8.910   5.338  10.341 -0.3390  0.3162 -0.5420
  377MOL0     C51909   8.937   5.408  10.197 -0.0616  0.4953 -0.0697
  377MOL0     C51910   9.084   5.430  10.157 -0.0229  0.2291  0.1444
  377MOL0     C51911   9.145   5.307  10.105 -0.3745 -0.0161 -0.0223
  377MOL0     O51912   9.282   5.330  10.059  0.3991 -0.1172  0.1690
  377MOL0     C51913   9.365   5.230  10.006 -0.2728 -0.5159  0.4395
  377MOL0     C51914   9.480   5.281   9.951 -0.2477  0.5280  0.2230
  377MOL0     C51915   9.569   5.197   9.887 -0.3724  0.4592 -0.7638
  377MOL0     C51916   9.698   5.240   9.822 -0.1666 -0.0306 -0.5120
  377MOL0     C51917   9.543   5.054   9.881  0.4894  0.3249 -0.5684
  377MOL0     C51918   9.634   4.953   9.810 -0.0972  0.1455 -0.0962
  377MOL0     O51919   9.772   4.963   9.800 -0.2627  0.6783 -0.2918
  377MOL0     C51920   9.827   4.895   9.695 -0.1407 -0.2657 -0.2363
  377MOL0     C51921   9.783   4.883   9.563 -0.2265 -0.0260  0.4594
  377MOL0     C51922   9.871   4.826   9.465 -0.3542 -0.1362 -0.4084
  377MOL0     C51923   9.996   4.783   9.506 -0.5603 -0.1373  0.8039
  377MOL0     O51924  10.064   4.723   9.409  0.1855  0.3670 -0.8648
  377MOL0     C51925  10.205   4.747   9.402 -0.0081  0.1231 -0.5697
  377MOL0     C51926  10.265   4.676   9.278  0.5925  0.4758  0.1020
  377MOL0     C51927  10.284   4.528   9.296  0.2190  0.6784 -0.5669
  377MOL0     C51928  10.407   4.485   9.393 -0.1003 -0.0161 -0.1884
  377MOL0     C51929  10.407   4.330   9.394  0.2001  0.1573  0.1269
  377MOL0     C51930  10.553   4.283   9.384 -0.2261 -0.5526 -0.1671
  377MOL0     C51931  10.550   4.133   9.399 -0.1365  0.5103 -0.1526
  377MOL0     C51932  10.692   4.081   9.391 -0.3281  0.3688 -0.2269
  377MOL0    Cl51933  10.768   4.083   9.541  0.2024 -0.1268 -0.6516
  377MOL0     C51934  10.038   4.798   9.635 -0.2039 -0.6682  0.4973
  377MOL0     C51935   9.955   4.861   9.714 -0.6039 -0.0485 -0.5297
  377MOL0     O51936   9.566   4.860   9.763 -0.4167 -0.2986  0.3042
  377MOL0     C51937   9.424   5.007   9.943  0.5287  1.0231 -0.5448
  377MOL0     C51938   9.331   5.098  10.005  0.3347  0.7243 -0.2600
  377MOL0     N51939   9.048   5.161  10.457 -0.0775 -0.4264  0.6605
  377MOL0     N51940   9.079   5.043  10.443 -0.2759  0.6259 -0.3273
  377MOL0     C51941   8.484   4.962   9.484 -0.0309 -0.1894  0.6692
  377MOL0     C51942   8.346   4.974   9.510  0.1469 -0.7069  0.3011
  377MOL0     C51943   7.945   5.213   9.489 -0.9877 -0.2616 -0.7015
  377MOL0     C51944   7.848   5.220   9.388  0.5172 -0.0158  0.6744
  377MOL0     C51945   7.718   5.252   9.422  0.0182 -0.5266 -0.7404
  377MOL0     C51946   7.676   5.266   9.549 -0.3786  0.0020 -0.8345
  377MOL0     O51947   7.543   5.313   9.568 -0.0550  0.1491  0.5098
  377MOL0     C51948   7.489   5.347   9.697  0.4504 -0.6171  0.3680
  377MOL0     C51949   7.525   5.495   9.732  0.4207  0.1719  0.0370
  377MOL0     C51950   7.440   5.534   9.867  0.1750 -0.0839  0.9110
  377MOL0     C51951   7.517   5.483   9.995  0.5283 -1.0578 -0.0666
  377MOL0     C51952   7.644   5.554  10.041 -0.0913  0.9265  0.2130
  377MOL0     C51953   7.750   5.601  10.083 -0.2832  0.5751  1.0578
  377MOL0     C51954   7.772   5.244   9.650 -0.4645  0.2235 -0.6187
  377MOL0     C51955   7.907   5.228   9.624  0.6594  0.4383  0.2432
  377MOL0     C51956   8.003   5.241   9.742  0.5778 -0.4239  0.1294
  377MOL0     H51957   8.334   5.309   9.449  2.5238  1.2593 -1.6621
  377MOL0     H51958   8.571   5.275   9.396  0.7472  0.3520  0.8314
  377MOL0     H51959   8.753   4.914   9.563  3.0493 -0.0466  3.1377
  377MOL0     H51960   8.689   5.043   9.639  1.6762 -2.0830  0.4617
  377MOL0     H51961   8.964   5.017   9.506  0.0594 -1.6977  1.3782
  377MOL0     H51962   8.893   5.179   9.549 -1.9108  1.0070  2.4162
  377MOL0     H51963   9.038   5.099   9.733  0.9632 -1.8105 -0.7262
  377MOL0     H51964   8.880   5.118   9.789  0.9808  1.7349 -0.6064
  377MOL0     H51965   8.852   4.857   9.811  0.8239 -0.3303  2.4500
  377MOL0     H51966   9.015   4.850   9.733  0.0962 -0.3532  0.6301
  377MOL0     H51967   8.958   5.003   9.993 -0.0088 -0.0476 -0.8441
  377MOL0     H51968   9.114   4.925   9.931  0.3217  0.7453  2.0076
  377MOL0     H51969   8.880   4.792  10.071  0.6017 -0.0582  1.5120
  377MOL0     H51970   9.009   4.705   9.992  0.5867 -1.7670  3.3773
  377MOL0     H51971   9.148   4.883  10.160 -0.3831  0.8287 -3.9654
  377MOL0     H51972   9.119   4.708  10.185  0.9480  0.0145 -0.0444
  377MOL0     H51973   8.891   4.814  10.295  0.0879 -0.7912  0.4999
  377MOL0     H51974   9.039   4.794  10.385  1.5738 -0.2819 -1.2666
  377MOL0     H51975   8.875   5.075  10.187 -1.5949  0.0838  0.7155
  377MOL0     H51976   8.959   5.397  10.420 -0.5975 -2.0768  1.5438
  377MOL0     H51977   8.802   5.346  10.354 -0.5878 -2.8464  0.3146
  377MOL0     H51978   8.889   5.356  10.113  2.7416 -0.2214 -1.3650
  377MOL0     H51979   8.896   5.507  10.217 -0.8689 -0.0351  0.9863
  377MOL0     H51980   9.076   5.505  10.078 -3.4626 -1.8948 -1.7503
  377MOL0     H51981   9.140   5.462  10.246  2.2003  0.6583 -1.3272
  377MOL0     H51982   9.145   5.238  10.190  0.7715 -0.9365 -0.7423
  377MOL0     H51983   9.077   5.264  10.031  0.8141 -0.5862 -0.8127
  377MOL0     H51984   9.505   5.386   9.940 -0.8671  0.9453  2.2552
  377MOL0     H51985   9.686   5.347   9.806 -2.3746  0.2392  2.1835
  377MOL0     H51986   9.720   5.185   9.730  0.6819 -1.4240  0.4773
  377MOL0     H51987   9.785   5.221   9.887  0.9619  4.9183 -0.1855
  377MOL0     H51988   9.687   4.922   9.529  0.1229  2.5480  2.1838
  377MOL0     H51989   9.851   4.812   9.360  1.8012  0.9378 -1.0268
  377MOL0     H51990  10.218   4.855   9.396 -2.1812  0.4869  0.4846
  377MOL0     H51991  10.253   4.706   9.492 -1.3223 -0.9219 -0.3143
  377MOL0     H51992  10.196   4.689   9.194  0.0763 -0.7701  0.3030
  377MOL0     H51993  10.365   4.714   9.257  1.1766  0.4318  2.4890
  377MOL0     H51994  10.305   4.495   9.193 -1.4269 -2.6710  0.0189
  377MOL0     H51995  10.190   4.480   9.325  1.5300 -1.2333  0.8167
  377MOL0     H51996  10.387   4.513   9.497 -0.3536  0.0260 -0.2470
  377MOL0     H51997  10.499   4.532   9.357  0.2241  0.4802  1.2207
  377MOL0     H51998  10.371   4.313   9.495  0.8226  2.0300  0.7049
  377MOL0     H51999  10.358   4.282   9.308  1.8761 -2.3218  0.4335
  377MOL0     H52000  10.613   4.333   9.461 -0.2001  0.3802 -0.7743
  377MOL0     H52001  10.581   4.320   9.285  1.6607 -1.1622  0.1114
  377MOL0     H52002  10.496   4.093   9.312  0.0786 -2.2564  0.8685
  377MOL0     H52003  10.511   4.097   9.494 -0.5678  0.8011 -0.2187
  377MOL0     H52004  10.749   4.136   9.315  0.6655  2.2776  1.8014
  377MOL0     H52005  10.675   3.979   9.356  3.2550 -0.1624 -0.7864
  377MOL0     H52006  10.136   4.758   9.660  1.3079  0.6321 -2.6990
  377MOL0     H52007   9.994   4.863   9.815 -0.3088  0.3738 -0.6502
  377MOL0     H52008   9.388   4.905   9.948 -0.4261  1.3936  1.3763
  377MOL0     H52009   9.240   5.061  10.049 -0.0959 -0.3461 -1.9567
  377MOL0     H52010   8.533   4.865   9.488  0.5531  0.1101  0.9530
  377MOL0     H52011   8.284   4.891   9.541  0.9919 -1.7843 -0.8063
  377MOL0     H52012   7.862   5.213   9.281 -1.0017 -1.2411  0.5245
  377MOL0     H52013   7.653   5.292   9.344  1.7638 -0.5793 -2.2800
  377MOL0     H52014   7.381   5.327   9.690  0.7380 -1.6226 -2.9075
  377MOL0     H52015   7.528   5.274   9.768  0.4373 -1.7143 -0.7181
  377MOL0     H52016   7.482   5.566   9.661  0.6169  0.9596  0.6904
  377MOL0     H52017   7.633   5.505   9.738  0.7537 -1.8273 -1.5542
  377MOL0     H52018   7.416   5.641   9.868  0.3456 -0.0381  2.2957
  377MOL0     H52019   7.344   5.485   9.848 -0.6976  0.8240  2.7148
  377MOL0     H52020   7.547   5.378   9.981  1.1179 -1.2963  2.5239
  377MOL0     H52021   7.440   5.492  10.072  0.5186  1.5968 -0.3116
  377MOL0     H52022   7.824   5.661  10.132 -0.6829  0.8262  1.3643
  377MOL0     H52023   7.750   5.258   9.756 -2.1987 -0.4111 -0.8536
  377MOL0     H52024   8.052   5.338   9.739 -0.8277  0.3045 -0.6062
  377MOL0     H52025   7.951   5.238   9.838  2.3525 -2.6401  1.1235
  377MOL0     H52026   8.083   5.166   9.745  0.2403 -0.9830 -2.5701
  378MOL0     O52027  10.461   6.507   3.756  0.1296 -0.6990  0.6842
  378MOL0     C52028  10.396   6.476   3.659  0.8756  0.2337 -0.5181
  378MOL0     O52029  10.446   6.430   3.542 -0.1646  0.2600 -0.5855
  378MOL0     C52030  10.571   6.375   3.542  0.4385 -0.6691 -0.4455
  378MOL0     C52031  10.600   6.255   3.601  0.3076 -0.5577 -0.1085
  378MOL0     C52032  10.733   6.221   3.610  0.2282  0.2609  0.9797
  378MOL0     C52033  10.837   6.294   3.556  0.5878 -0.1632 -0.1366
  378MOL0     O52034  10.968   6.254   3.581  0.0963  0.4461  0.4818
  378MOL0     C52035  11.042   6.189   3.470  0.1574  1.2163  0.1960
  378MOL0     C52036  11.192   6.170   3.503  0.8008  0.1581 -1.3695
  378MOL0     C52037  11.269   6.303   3.475 -0.1820  0.6640  0.3020
  378MOL0     C52038  11.366   6.277   3.357 -1.0426 -0.1224 -0.2604
  378MOL0     C52039  11.463   6.398   3.347  0.3325 -0.2073 -0.8425
  378MOL0     C52040  11.555   6.414   3.476 -0.0810  0.4748  0.3839
  378MOL0     C52041  11.690   6.467   3.448  0.3322  0.1138  0.0235
  378MOL0     C52042  11.771   6.464   3.583  0.4859 -0.2392  0.3450
  378MOL0     N52043  11.914   6.473   3.572 -0.2505 -0.0112 -0.3085
  378MOL0     C52044  11.990   6.588   3.553  0.7130 -0.0364  0.2037
  378MOL0     C52045  12.114   6.541   3.560  0.1923  1.3248 -0.9374
  378MOL0     C52046  12.238   6.625   3.565  0.3105  0.1332  0.7359
  378MOL0     C52047  12.335   6.578   3.664 -0.5481 -0.2288 -1.0660
  378MOL0     C52048  12.451   6.674   3.685 -0.1006 -0.1033 -0.2902
  378MOL0     C52049  12.556   6.615   3.777  0.0366 -0.3016 -0.0553
  378MOL0     O52050  12.507   6.591   3.905 -0.2235 -0.7617 -1.1185
  378MOL0     C52051  12.566   6.493   3.978 -0.0681  0.2603 -0.4860
  378MOL0     C52052  12.480   6.397   4.040  0.6412  0.5342  0.2113
  378MOL0     C52053  12.528   6.314   4.140  0.2646 -0.7368  0.3050
  378MOL0     C52054  12.426   6.226   4.194  0.1699  0.2408 -0.0200
  378MOL0     C52055  12.661   6.307   4.171 -0.9445  0.0518 -1.2454
  378MOL0     C52056  12.721   6.198   4.250 -1.0381 -1.4438  0.0640
  378MOL0     O52057  12.646   6.098   4.307  0.1297  0.5167 -0.1995
  378MOL0     C52058  12.722   6.016   4.385  0.7872 -0.6713 -0.3901
  378MOL0     C52059  12.726   5.879   4.359  0.3455  0.8970 -0.6585
  378MOL0     C52060  12.774   5.784   4.459  0.5657 -0.9227  1.2375
  378MOL0     C52061  12.823   5.831   4.583 -0.0550 -0.3625 -0.1601
  378MOL0     O52062  12.900   5.750   4.661  0.7178  0.3413  0.4947
  378MOL0     C52063  12.857   5.622   4.688  0.1996  0.1438  1.1550
  378MOL0     C52064  12.979   5.527   4.706 -0.1790 -0.0010 -0.3048
  378MOL0     C52065  13.071   5.564   4.816 -0.1174 -0.4132  0.4398
  378MOL0     C52066  13.167   5.684   4.789  0.0318 -0.5148  0.0502
  378MOL0     C52067  13.254   5.708   4.915  0.7178  0.0402 -0.1124
  378MOL0     C52068  13.383   5.612   4.920 -1.2275 -0.1300  0.3826
  378MOL0     C52069  13.484   5.663   5.032  0.4001  0.1408  0.2625
  378MOL0     C52070  13.433   5.626   5.168 -0.0153 -0.0760  1.0224
  378MOL0    Cl52071  13.525   5.724   5.284  0.3816  0.3598 -0.0716
  378MOL0     C52072  12.811   5.963   4.616  0.0439 -0.2337 -0.2513
  378MOL0     C52073  12.765   6.058   4.512 -0.3855  0.1044  0.3136
  378MOL0     O52074  12.848   6.215   4.257  0.4957  0.2251 -0.3358
  378MOL0     C52075  12.748   6.403   4.110  0.3696  0.4832 -0.1507
  378MOL0     C52076  12.702   6.498   4.017  0.8189  0.2271 -0.3817
  378MOL0     N52077  12.120   6.406   3.592 -0.1471 -0.0878  0.5300
  378MOL0     N52078  11.996   6.375   3.599  0.8455  0.3840  0.2970
  378MOL0     C52079  10.812   6.415   3.504  0.1694 -0.6290 -0.0192
  378MOL0     C52080  10.672   6.458   3.490 -1.1967  0.6478  0.2964
  378MOL0     C52081  10.239   6.491   3.660  0.4239  0.0632  0.9261
  378MOL0     C52082  10.170   6.453   3.550 -0.0277 -0.3997  0.2499
  378MOL0     C52083  10.032   6.456   3.544  0.1013 -0.0257  0.7160
  378MOL0     C52084   9.950   6.501   3.650 -0.4462  0.5138  0.9604
  378MOL0     O52085   9.808   6.486   3.640 -0.5817  0.3554  0.2542
  378MOL0     C52086   9.729   6.531   3.748  0.7402 -0.5709  0.7375
  378MOL0     C52087   9.580   6.539   3.684 -0.4016 -0.2029  0.7322
  378MOL0     C52088   9.484   6.609   3.785 -0.3328 -0.5402  0.2148
  378MOL0     C52089   9.360   6.680   3.706  0.0672  0.5743 -0.2587
  378MOL0     C52090   9.293   6.576   3.623 -0.5796  0.2493 -0.4155
  378MOL0     C52091   9.236   6.485   3.577  0.3749  0.0348  1.2988
  378MOL0     C52092  10.023   6.534   3.767  0.3917 -0.5646  0.3461
  378MOL0     C52093  10.163   6.542   3.770  0.6920  0.2661  0.4441
  378MOL0     C52094  10.226   6.597   3.889  0.7464 -0.3312 -0.1601
  378MOL0     H52095  10.518   6.186   3.620 -0.7034  0.7458  0.3681
  378MOL0     H52096  10.756   6.125   3.655 -1.3207  0.4110  2.1614
  378MOL0     H52097  11.025   6.233   3.371 -1.0079 -2.4012 -1.3931
  378MOL0     H52098  11.004   6.087   3.458 -0.6220  1.5655 -0.3982
  378MOL0     H52099  11.204   6.152   3.610 -0.7494  0.7861 -1.0565
  378MOL0     H52100  11.228   6.086   3.444 -1.0999 -0.9607 -1.0167
  378MOL0     H52101  11.209   6.388   3.440  0.1739  0.0005 -2.0844
  378MOL0     H52102  11.325   6.328   3.566 -2.4697  0.3556  1.8858
  378MOL0     H52103  11.438   6.198   3.380 -0.6844  0.7043  1.6462
  378MOL0     H52104  11.314   6.259   3.262 -0.1818 -1.9536 -0.4437
  378MOL0     H52105  11.414   6.493   3.328 -0.5469 -0.6393 -0.7876
  378MOL0     H52106  11.529   6.380   3.262 -0.1658 -1.6978 -0.9449
  378MOL0     H52107  11.507   6.478   3.551 -1.3570 -0.9398  0.8177
  378MOL0     H52108  11.571   6.313   3.512  1.2714  0.0449 -1.2671
  378MOL0     H52109  11.704   6.562   3.396  1.0720  1.2463  2.1484
  378MOL0     H52110  11.738   6.384   3.396 -0.0534 -1.5128  2.1502
  378MOL0     H52111  11.738   6.551   3.641 -0.9154 -1.4554  1.4732
  378MOL0     H52112  11.735   6.380   3.644 -2.9976  1.9267  1.5566
  378MOL0     H52113  11.961   6.693   3.557  3.5722  0.8509  0.3791
  378MOL0     H52114  12.203   6.727   3.584 -2.8524 -0.5383 -0.8116
  378MOL0     H52115  12.277   6.616   3.463 -1.4697 -3.1434  0.2040
  378MOL0     H52116  12.290   6.562   3.763  2.4088  0.2463  0.4706
  378MOL0     H52117  12.367   6.477   3.635 -1.0983 -0.5976 -0.4358
  378MOL0     H52118  12.503   6.685   3.589 -0.3585 -1.4400 -0.6130
  378MOL0     H52119  12.419   6.768   3.730  1.7991  0.1991  0.5047
  378MOL0     H52120  12.605   6.530   3.728 -0.8713 -1.0714  0.3450
  378MOL0     H52121  12.633   6.692   3.789  0.0470 -0.7300  3.9638
  378MOL0     H52122  12.379   6.391   4.001  0.0598 -3.6075  1.8421
  378MOL0     H52123  12.320   6.241   4.171 -0.4034  0.4784  2.4691
  378MOL0     H52124  12.421   6.252   4.300  0.3202 -1.4792  0.4388
  378MOL0     H52125  12.449   6.120   4.179 -0.4895  0.2635 -1.2505
  378MOL0     H52126  12.684   5.834   4.270  0.1515 -0.3082  0.0231
  378MOL0     H52127  12.776   5.677   4.441 -0.1074 -0.9613  1.3667
  378MOL0     H52128  12.796   5.628   4.779 -1.2896  1.4989  0.1288
  378MOL0     H52129  12.795   5.575   4.611  2.5168  1.6154 -1.8281
  378MOL0     H52130  12.924   5.436   4.729 -1.1306  0.4707 -0.6607
  378MOL0     H52131  13.031   5.522   4.609 -0.7862 -2.1471 -0.5647
  378MOL0     H52132  13.144   5.483   4.829  1.1445  0.7345  0.7395
  378MOL0     H52133  13.014   5.570   4.910  0.9351 -0.0915  1.0757
  378MOL0     H52134  13.118   5.778   4.764  2.8147  0.5338 -1.8890
  378MOL0     H52135  13.237   5.660   4.708 -0.4725 -4.3882  0.5757
  378MOL0     H52136  13.284   5.813   4.907  1.9230 -0.2539  0.3138
  378MOL0     H52137  13.191   5.686   5.002  0.6573 -0.4575 -0.2770
  378MOL0     H52138  13.429   5.623   4.821  1.0031 -0.0578  1.3584
  378MOL0     H52139  13.363   5.506   4.935 -2.1165 -0.1175 -0.5765
  378MOL0     H52140  13.488   5.772   5.020 -2.7248  0.3085 -0.2024
  378MOL0     H52141  13.576   5.605   5.019  0.0514 -0.0768 -1.5408
  378MOL0     H52142  13.440   5.518   5.179 -1.1117 -1.0043 -4.4554
  378MOL0     H52143  13.326   5.646   5.175  0.5920  4.2685  0.5713
  378MOL0     H52144  12.843   5.993   4.715 -2.8382  1.3096  0.3308
  378MOL0     H52145  12.764   6.163   4.541  0.6521  0.1048  0.3678
  378MOL0     H52146  12.853   6.406   4.137  0.4538 -1.7633 -0.0237
  378MOL0     H52147  12.767   6.570   3.968  1.1526 -0.1122 -0.4396
  378MOL0     H52148  10.894   6.478   3.472 -0.6685  0.1880 -0.6447
  378MOL0     H52149  10.644   6.553   3.447 -0.4720  1.6607  1.9454
  378MOL0     H52150  10.208   6.410   3.458  2.0330 -0.4755  1.1008
  378MOL0     H52151   9.979   6.424   3.455 -2.3855  2.5745  1.1117
  378MOL0     H52152   9.735   6.463   3.834  2.7994 -1.2099  0.1588
  378MOL0     H52153   9.759   6.632   3.776  2.0509 -0.9364  0.7411
  378MOL0     H52154   9.546   6.437   3.667 -1.8091  0.6630 -2.2544
  378MOL0     H52155   9.575   6.596   3.591 -0.6046  0.4865  1.1485
  378MOL0     H52156   9.445   6.529   3.849  1.0106 -0.1989  1.4776
  378MOL0     H52157   9.534   6.686   3.844  1.9035  0.0374 -2.2404
  378MOL0     H52158   9.402   6.763   3.649 -0.4204  1.2533  0.3540
  378MOL0     H52159   9.286   6.733   3.767 -1.6177  0.8724 -2.4642
  378MOL0     H52160   9.174   6.413   3.526  1.5569 -1.6871  2.1914
  378MOL0     H52161   9.958   6.546   3.853 -4.1282 -3.7561 -2.1686
  378MOL0     H52162  10.284   6.518   3.939 -1.8559 -0.6713  2.5619
  378MOL0     H52163  10.291   6.679   3.858  0.2972  1.2617  2.8040
  378MOL0     H52164  10.151   6.637   3.957  1.5738 -0.7403  1.0256
  379MOL0     O52165  10.329   9.728   1.640 -0.5836 -0.1161 -0.8917
  379MOL0     C52166  10.243   9.719   1.557 -0.2750  0.9453 -0.6526
  379MOL0     O52167  10.259   9.675   1.431 -0.2097  0.0764  0.1597
  379MOL0     C52168  10.377   9.673   1.368  0.7928 -0.1465 -0.8391
  379MOL0     C52169  10.479   9.769   1.386 -0.1923  1.0273 -0.7796
  379MOL0     C52170  10.610   9.745   1.340 -0.2411  0.4154  0.7401
  379MOL0     C52171  10.628   9.634   1.267  0.6413  0.8224  0.8986
  379MOL0     O52172  10.747   9.609   1.193 -0.4268  0.7520  0.4080
  379MOL0     C52173  10.871   9.662   1.253  0.6061  0.0547  0.0534
  379MOL0     C52174  10.989   9.582   1.179 -0.0537  0.1486 -0.1154
  379MOL0     C52175  11.119   9.630   1.226 -0.3678 -0.2017  0.1226
  379MOL0     C52176  11.138   9.758   1.313  0.6666 -0.3370  0.0922
  379MOL0     C52177  11.275   9.787   1.366 -0.6497 -0.9644  0.3725
  379MOL0     C52178  11.383   9.817   1.266  0.3393  0.1860 -0.6206
  379MOL0     C52179  11.521   9.794   1.317  0.6096  0.1500 -0.6849
  379MOL0     C52180  11.563   9.909   1.400 -0.2835 -0.1317 -0.2791
  379MOL0     N52181  11.707   9.888   1.438  0.3109 -0.3941 -0.2604
  379MOL0     C52182  11.746   9.877   1.561 -1.0408  0.5014 -1.0035
  379MOL0     C52183  11.875   9.845   1.547 -0.7772 -0.2531 -0.5712
  379MOL0     C52184  11.995   9.840   1.641 -0.0806 -0.4353 -0.9658
  379MOL0     C52185  11.961   9.915   1.773 -0.7363 -0.3808 -0.8094
  379MOL0     C52186  12.065   9.889   1.877 -0.3284  0.8361 -0.3463
  379MOL0     C52187  12.036   9.755   1.952  0.5297  0.5364 -0.6810
  379MOL0     O52188  12.151   9.712   2.029 -0.6129  0.0048 -0.6127
  379MOL0     C52189  12.176   9.772   2.150  1.3993  0.1384  0.6516
  379MOL0     C52190  12.082   9.849   2.227 -0.5922  0.5327 -0.1826
  379MOL0     C52191  12.112   9.918   2.348 -0.4816  0.5349 -0.0410
  379MOL0     C52192  11.992   9.969   2.425 -0.4087 -0.5209 -0.7065
  379MOL0     C52193  12.241   9.911   2.393  0.2539  0.7746  0.3488
  379MOL0     C52194  12.295   9.976   2.511  1.0130 -0.4512  0.2044
  379MOL0     O52195  12.223  10.087   2.569  0.2028 -0.6864 -0.3322
  379MOL0     C52196  12.298  10.162   2.658 -0.0801 -0.2260 -0.0526
  379MOL0     C52197  12.357  10.273   2.608  0.5583 -0.1077  0.5792
  379MOL0     C52198  12.447  10.352   2.674  0.7394 -0.3026 -0.2559
  379MOL0     C52199  12.472  10.328   2.815 -0.9362  0.1669 -0.0258
  379MOL0     O52200  12.550  10.414   2.877 -0.1908 -0.1374 -0.3639
  379MOL0     C52201  12.690  10.412   2.840 -0.2234 -0.0183  0.2581
  379MOL0     C52202  12.794  10.359   2.947 -0.4126  1.1393 -0.0278
  379MOL0     C52203  12.920  10.295   2.882  0.5663 -0.1522 -0.4403
  379MOL0     C52204  12.994  10.225   2.990 -0.1796  0.0919  1.3092
  379MOL0     C52205  13.124  10.166   2.912  0.9180 -0.6010  0.0885
  379MOL0     C52206  13.200  10.268   2.832 -1.2990  0.4403 -0.5455
  379MOL0     C52207  13.339  10.213   2.787 -0.1993  0.1686 -1.0418
  379MOL0     C52208  13.329  10.109   2.671  0.1107 -0.6446 -0.3424
  379MOL0    Cl52209  13.487  10.080   2.609 -0.1060 -0.1591  0.0184
  379MOL0     C52210  12.408  10.218   2.876 -1.2504  1.2341 -0.4383
  379MOL0     C52211  12.320  10.147   2.797 -0.7377 -0.2552  0.6933
  379MOL0     O52212  12.387   9.921   2.571 -0.0183 -0.2772  0.3945
  379MOL0     C52213  12.332   9.822   2.319  0.3882  0.3959 -0.7418
  379MOL0     C52214  12.300   9.751   2.206 -0.0236  1.0339  0.0954
  379MOL0     N52215  11.911   9.833   1.413 -0.5229 -0.6555 -0.6323
  379MOL0     N52216  11.808   9.863   1.348  0.6522 -0.2351  1.1297
  379MOL0     C52217  10.527   9.543   1.241 -0.0584  0.3578 -0.0158
  379MOL0     C52218  10.401   9.555   1.300 -0.0733 -0.1891  0.2374
  379MOL0     C52219  10.107   9.732   1.612  1.2547 -0.0497  0.8444
  379MOL0     C52220  10.007   9.658   1.558 -0.0343 -0.1344  0.2802
  379MOL0     C52221   9.873   9.671   1.600  0.0570  0.2800 -0.7779
  379MOL0     C52222   9.830   9.766   1.695  1.1881  0.0473 -0.3800
  379MOL0     O52223   9.699   9.789   1.742  0.7864 -0.0158  0.4211
  379MOL0     C52224   9.593   9.707   1.695 -0.1309  0.5640 -0.1460
  379MOL0     C52225   9.534   9.761   1.574  0.3149  0.3209 -0.4497
  379MOL0     C52226   9.470   9.900   1.593 -0.1660 -0.4706 -0.1249
  379MOL0     C52227   9.368   9.897   1.710 -0.5129 -0.3126  0.3375
  379MOL0     C52228   9.292  10.021   1.714 -0.0261  0.5010 -0.2675
  379MOL0     C52229   9.226  10.120   1.713  0.3979  0.0241  0.4645
  379MOL0     C52230   9.933   9.845   1.735 -0.3772 -0.5006  0.0801
  379MOL0     C52231  10.069   9.829   1.711 -0.1216  0.6327  0.2208
  379MOL0     C52232  10.159   9.933   1.774  1.0379 -0.6009 -0.0072
  379MOL0     H52233  10.464   9.862   1.441 -4.5746 -0.7102  1.3959
  379MOL0     H52234  10.681   9.827   1.348  1.7228 -1.0081 -0.9145
  379MOL0     H52235  10.852   9.651   1.360 -1.1082 -0.4230 -0.2670
  379MOL0     H52236  10.875   9.767   1.221 -0.2854  0.2504  0.5534
  379MOL0     H52237  10.986   9.476   1.206  1.5722 -1.0344 -3.9500
  379MOL0     H52238  10.973   9.601   1.073  1.5451 -0.2218 -0.4501
  379MOL0     H52239  11.168   9.546   1.276 -1.2634 -1.4211 -0.9634
  379MOL0     H52240  11.186   9.642   1.141 -0.0580  0.4942  0.4633
  379MOL0     H52241  11.094   9.833   1.247  0.0027  0.7130  1.6740
  379MOL0     H52242  11.075   9.746   1.402  0.2596  1.0046  0.0054
  379MOL0     H52243  11.302   9.694   1.415  1.7091 -0.7072 -0.3258
  379MOL0     H52244  11.277   9.868   1.440  0.8200 -1.2969  0.7243
  379MOL0     H52245  11.364   9.746   1.185 -3.2270 -0.2859  0.4583
  379MOL0     H52246  11.372   9.919   1.228  0.9027 -0.0228 -1.3677
  379MOL0     H52247  11.583   9.778   1.228  0.6091  0.5539 -0.7582
  379MOL0     H52248  11.534   9.702   1.375  1.4452  1.5696  1.5112
  379MOL0     H52249  11.563  10.000   1.340  3.6348  0.5206  0.4307
  379MOL0     H52250  11.491   9.922   1.482 -1.7093  1.6994 -1.7059
  379MOL0     H52251  11.685   9.891   1.649  0.3961 -1.9422  0.4996
  379MOL0     H52252  12.084   9.884   1.595 -0.2175 -0.0243 -0.8406
  379MOL0     H52253  12.014   9.734   1.662 -1.0202 -0.4558 -0.1020
  379MOL0     H52254  11.967  10.021   1.745 -2.5335  0.5785  2.0880
  379MOL0     H52255  11.862   9.885   1.807  0.6991 -3.9748  0.6535
  379MOL0     H52256  12.167   9.891   1.838  0.0146 -1.4533  0.3048
  379MOL0     H52257  12.058   9.964   1.957  2.6865  1.3521 -0.4496
  379MOL0     H52258  11.952   9.781   2.017  0.3048 -0.3359 -0.6123
  379MOL0     H52259  12.013   9.672   1.885 -0.7225  2.8280 -3.3478
  379MOL0     H52260  11.986   9.878   2.186 -0.9920 -2.2067 -1.4117
  379MOL0     H52261  12.002  10.077   2.435 -1.6220 -0.5979  2.4905
  379MOL0     H52262  11.994   9.929   2.527 -0.7780 -0.1267 -0.5403
  379MOL0     H52263  11.891   9.957   2.385 -0.8149  2.3130 -0.7168
  379MOL0     H52264  12.356  10.296   2.502  1.1079  1.4325  0.8852
  379MOL0     H52265  12.487  10.444   2.634 -0.1923 -0.7660 -2.3576
  379MOL0     H52266  12.708  10.361   2.745 -0.9168  1.3120 -0.6346
  379MOL0     H52267  12.729  10.512   2.816  1.9966 -1.4414 -2.6683
  379MOL0     H52268  12.820  10.436   3.021  1.6867  1.5072 -1.0958
  379MOL0     H52269  12.736  10.281   2.997  1.3337  0.0674  0.4058
  379MOL0     H52270  12.973  10.377   2.832  0.5768 -0.9310 -1.7582
  379MOL0     H52271  12.871  10.225   2.814  0.2182  1.6297 -2.1056
  379MOL0     H52272  12.936  10.145   3.036  0.8868  0.4611  3.4148
  379MOL0     H52273  13.026  10.304   3.059  0.4085  0.5002  0.5809
  379MOL0     H52274  13.190  10.119   2.986 -1.0713  0.6282  2.8314
  379MOL0     H52275  13.076  10.098   2.841 -3.0635  2.2372 -0.2757
  379MOL0     H52276  13.219  10.357   2.892  0.1301 -0.6610  0.6950
  379MOL0     H52277  13.136  10.287   2.745 -2.7973 -4.6222 -0.8568
  379MOL0     H52278  13.394  10.168   2.870  0.2436  2.8432  0.2239
  379MOL0     H52279  13.395  10.299   2.749  0.4244 -1.8470 -5.2723
  379MOL0     H52280  13.259  10.153   2.600 -0.4788 -0.7061  0.1873
  379MOL0     H52281  13.286  10.013   2.701 -1.0262 -0.3861 -1.0966
  379MOL0     H52282  12.444  10.189   2.974 -1.3163  0.2380 -0.6985
  379MOL0     H52283  12.273  10.069   2.856 -0.1983  0.3065  1.8880
  379MOL0     H52284  12.439   9.831   2.337  0.5882 -1.0674 -1.0612
  379MOL0     H52285  12.375   9.695   2.151  0.9060  1.5126  0.8749
  379MOL0     H52286  10.546   9.468   1.165 -5.3240 -0.6243 -0.7758
  379MOL0     H52287  10.325   9.482   1.272 -2.8751  2.8862 -0.7549
  379MOL0     H52288  10.025   9.586   1.479 -0.4838  1.6355 -1.5535
  379MOL0     H52289   9.803   9.604   1.551 -0.9361  1.4242 -0.9710
  379MOL0     H52290   9.618   9.601   1.683  0.6982  0.7082  0.2224
  379MOL0     H52291   9.522   9.717   1.777  0.8745 -0.3337  0.8657
  379MOL0     H52292   9.463   9.685   1.541  2.0440 -0.7845 -1.8090
  379MOL0     H52293   9.613   9.760   1.499 -0.9383  1.6176 -1.8694
  379MOL0     H52294   9.548   9.973   1.616 -0.5841 -0.3093  0.8476
  379MOL0     H52295   9.421   9.936   1.502 -1.0311  0.3769  0.6616
  379MOL0     H52296   9.415   9.899   1.809 -0.2620  3.1205  0.2624
  379MOL0     H52297   9.313   9.802   1.707 -1.9726  0.3241  3.0573
  379MOL0     H52298   9.180  10.216   1.704  2.4330  1.0949  0.7863
  379MOL0     H52299   9.910   9.935   1.792  1.4544  0.4121 -0.5606
  379MOL0     H52300  10.191   9.894   1.871 -0.0125 -0.1766  0.5305
  379MOL0     H52301  10.242   9.960   1.709 -0.1729  0.8514 -1.0126
  379MOL0     H52302  10.094  10.016   1.802 -1.4071 -1.9048 -1.4220
  380MOL0     O52303   7.493   7.081   6.355  0.2251 -0.2426  0.3709
  380MOL0     C52304   7.507   7.086   6.230  0.3585  0.2196 -0.3423
  380MOL0     O52305   7.618   7.103   6.158 -0.1405 -0.0253 -0.1707
  380MOL0     C52306   7.745   7.137   6.202  0.1943 -1.1315 -0.1611
  380MOL0     C52307   7.853   7.137   6.115  0.6186  0.3276  0.1001
  380MOL0     C52308   7.982   7.179   6.158 -1.5329 -1.0488  0.0728
  380MOL0     C52309   8.009   7.220   6.286  1.0843  0.5641  0.3983
  380MOL0     O52310   8.131   7.269   6.305 -0.1076 -1.0872 -0.1927
  380MOL0     C52311   8.165   7.326   6.433 -0.2140  0.2704  0.7315
  380MOL0     C52312   8.303   7.383   6.456 -0.5786 -0.2535 -0.4987
  380MOL0     C52313   8.417   7.302   6.382  0.9182  0.1411 -0.0964
  380MOL0     C52314   8.544   7.283   6.473 -0.2066 -0.8910  0.3584
  380MOL0     C52315   8.624   7.171   6.410  0.0159  0.6852  0.0012
  380MOL0     C52316   8.740   7.146   6.510  0.3202 -0.1800  0.5826
  380MOL0     C52317   8.815   7.024   6.472 -0.6434  0.9016  0.1104
  380MOL0     C52318   8.895   7.036   6.339 -0.5509 -0.0408 -0.0582
  380MOL0     N52319   8.823   7.003   6.216  1.1642  0.3562 -0.0529
  380MOL0     C52320   8.732   6.898   6.200 -0.0495 -0.8880 -0.4000
  380MOL0     C52321   8.664   6.932   6.086  0.0473  0.4994  0.4789
  380MOL0     C52322   8.572   6.833   6.028 -0.1871 -0.4004 -0.0971
  380MOL0     C52323   8.469   6.892   5.935 -0.3007  0.5155  0.3037
  380MOL0     C52324   8.463   6.825   5.793  0.5044  0.3724 -0.0440
  380MOL0     C52325   8.540   6.906   5.693 -0.3234  0.0913 -0.2989
  380MOL0     O52326   8.467   6.938   5.584 -0.3443 -1.1226 -0.3460
  380MOL0     C52327   8.424   7.069   5.569  0.5408  0.0806  0.0433
  380MOL0     C52328   8.410   7.160   5.669 -1.1474  0.4908 -0.2813
  380MOL0     C52329   8.388   7.298   5.637 -0.1788 -0.3881 -0.1586
  380MOL0     C52330   8.378   7.396   5.763  0.5842 -0.1845 -0.9524
  380MOL0     C52331   8.379   7.341   5.505 -0.0692  0.4568  0.5482
  380MOL0     C52332   8.363   7.480   5.455  0.4579 -0.7962 -0.7792
  380MOL0     O52333   8.270   7.488   5.357  1.0638  0.3197 -0.0320
  380MOL0     C52334   8.254   7.600   5.293 -0.0536  0.3189  0.4758
  380MOL0     C52335   8.359   7.689   5.262 -0.1511  1.0385  0.0179
  380MOL0     C52336   8.329   7.817   5.207  0.2743  0.0103  0.0639
  380MOL0     C52337   8.201   7.853   5.179 -1.8304 -0.3155 -0.9405
  380MOL0     O52338   8.202   7.972   5.119  0.2180  0.0801  0.1470
  380MOL0     C52339   8.077   8.035   5.096  0.5189 -0.6235 -0.5717
  380MOL0     C52340   8.110   8.173   5.045 -0.1708  0.5960  0.3861
  380MOL0     C52341   8.180   8.271   5.141 -0.1348 -0.3003  0.1658
  380MOL0     C52342   8.072   8.305   5.251  0.0686 -0.0075 -0.9438
  380MOL0     C52343   8.138   8.398   5.351  0.4167 -0.3818 -0.7763
  380MOL0     C52344   8.052   8.437   5.470 -0.3454 -0.5927 -0.0609
  380MOL0     C52345   8.107   8.573   5.535  0.3702  0.4105 -0.2760
  380MOL0     C52346   8.014   8.615   5.652  0.0189  0.0485 -0.3135
  380MOL0    Cl52347   8.016   8.477   5.769  0.3109  0.4335  0.5946
  380MOL0     C52348   8.093   7.770   5.225  0.6671  0.4756 -0.0669
  380MOL0     C52349   8.124   7.650   5.279 -0.0120  0.6002 -0.1573
  380MOL0     O52350   8.428   7.570   5.508 -0.8168  0.1407 -0.0974
  380MOL0     C52351   8.388   7.241   5.411 -0.0069 -0.4498 -0.0086
  380MOL0     C52352   8.406   7.107   5.443 -0.0586 -0.3500 -0.2394
  380MOL0     N52353   8.706   7.052   6.029 -0.2630 -0.6433 -0.0465
  380MOL0     N52354   8.816   7.088   6.103 -0.6092  0.9272 -0.4045
  380MOL0     C52355   7.904   7.214   6.376  0.0152  0.1130  1.0010
  380MOL0     C52356   7.774   7.182   6.329 -0.5753 -0.5354 -0.5850
  380MOL0     C52357   7.377   7.062   6.157  0.0200  0.8111  1.3572
  380MOL0     C52358   7.383   7.035   6.016  0.1171  0.0364  0.3077
  380MOL0     C52359   7.269   6.991   5.947 -0.5607 -1.0450 -0.3606
  380MOL0     C52360   7.147   6.972   6.012 -0.1389 -0.7937  0.7267
  380MOL0     O52361   7.033   6.914   5.955  0.0013  0.7801  0.0068
  380MOL0     C52362   7.053   6.827   5.841  0.5821  0.4086  0.1590
  380MOL0     C52363   7.022   6.672   5.872  0.1127  0.1572 -0.3860
  380MOL0     C52364   6.878   6.650   5.904  1.1050 -0.4706 -0.2761
  380MOL0     C52365   6.850   6.506   5.884 -0.7665  0.6149  0.0271
  380MOL0     C52366   6.863   6.457   5.749 -0.0222  0.2391 -0.2005
  380MOL0     C52367   6.874   6.411   5.631 -0.3358 -0.2465  0.2490
  380MOL0     C52368   7.137   7.019   6.141 -0.1297 -0.0241  0.2057
  380MOL0     C52369   7.242   7.064   6.215 -0.5441  0.5403  0.4440
  380MOL0     C52370   7.208   7.097   6.355 -0.9812  0.3637  0.5776
  380MOL0     H52371   7.828   7.101   6.016  0.0183  2.7607 -0.7056
  380MOL0     H52372   8.055   7.190   6.078 -2.2203 -0.2531 -0.4662
  380MOL0     H52373   8.149   7.246   6.506  0.6469 -0.6784 -0.0799
  380MOL0     H52374   8.094   7.405   6.457  0.3484  1.5618 -1.5448
  380MOL0     H52375   8.305   7.490   6.434  2.0620  0.4631  2.5932
  380MOL0     H52376   8.322   7.384   6.564  1.1301  2.9152 -0.7182
  380MOL0     H52377   8.374   7.204   6.359 -1.6688  1.9223 -3.8706
  380MOL0     H52378   8.442   7.346   6.285  1.1711  0.0718 -0.0642
  380MOL0     H52379   8.614   7.367   6.473 -1.6192  0.3440  1.1824
  380MOL0     H52380   8.514   7.265   6.577 -2.3036  0.0315 -0.0440
  380MOL0     H52381   8.666   7.221   6.322 -2.2129  1.8953 -0.4549
  380MOL0     H52382   8.564   7.082   6.391  0.5816 -0.4737  3.0819
  380MOL0     H52383   8.796   7.240   6.507 -1.9783  1.2685  0.2777
  380MOL0     H52384   8.701   7.147   6.613  0.6725  0.6912  0.7154
  380MOL0     H52385   8.739   6.945   6.462 -2.3350  2.1984  1.8519
  380MOL0     H52386   8.881   7.002   6.556  0.4206  2.5597 -0.2495
  380MOL0     H52387   8.929   7.140   6.329 -0.8308 -0.1290 -2.3019
  380MOL0     H52388   8.980   6.967   6.342  1.8989  2.6936 -1.4667
  380MOL0     H52389   8.718   6.807   6.258  1.0482  0.3928  1.9885
  380MOL0     H52390   8.524   6.795   6.119  2.5651  2.2793  2.6965
  380MOL0     H52391   8.632   6.758   5.976  1.5353  0.5697  0.4295
  380MOL0     H52392   8.381   6.870   5.996 -1.4528  0.2840 -1.3692
  380MOL0     H52393   8.484   6.999   5.920  1.0580  0.4184  0.7785
  380MOL0     H52394   8.512   6.727   5.800  0.4834  0.4679  2.2170
  380MOL0     H52395   8.358   6.814   5.766  0.1756  0.1335  1.2708
  380MOL0     H52396   8.599   6.987   5.737 -0.3637 -0.9746  1.8255
  380MOL0     H52397   8.621   6.843   5.655  0.0299  0.0298  0.5390
  380MOL0     H52398   8.439   7.134   5.770  1.8370 -1.3299 -1.4631
  380MOL0     H52399   8.429   7.490   5.741 -1.6540  1.0556 -1.1708
  380MOL0     H52400   8.427   7.347   5.847  0.9131  1.1947 -0.2987
  380MOL0     H52401   8.275   7.422   5.789  0.4172 -1.7983  0.1678
  380MOL0     H52402   8.461   7.654   5.273 -1.0919 -1.7101  0.8611
  380MOL0     H52403   8.417   7.876   5.184  0.8944 -1.7226 -2.3924
  380MOL0     H52404   8.023   7.981   5.018 -0.8182 -1.4447  0.8624
  380MOL0     H52405   8.009   8.040   5.182  0.6994  0.7838 -0.4857
  380MOL0     H52406   8.175   8.167   4.957 -0.2037 -2.8792  0.4694
  380MOL0     H52407   8.020   8.223   5.009 -0.2376 -1.9911 -3.6720
  380MOL0     H52408   8.205   8.365   5.091  1.5119 -0.6047  0.3422
  380MOL0     H52409   8.276   8.231   5.177 -1.2453  0.9564  5.4457
  380MOL0     H52410   8.037   8.214   5.301 -1.7122  2.4322  2.7084
  380MOL0     H52411   7.982   8.351   5.209 -1.0069 -3.0251 -2.2409
  380MOL0     H52412   8.228   8.341   5.375  0.9436  0.6356 -0.2652
  380MOL0     H52413   8.161   8.491   5.299 -0.2118  0.6050  0.6563
  380MOL0     H52414   8.050   8.353   5.540 -3.2743 -0.5670  0.0251
  380MOL0     H52415   7.949   8.460   5.442 -0.0478  1.9093  0.6674
  380MOL0     H52416   8.113   8.644   5.452  0.7319  0.4011 -0.2589
  380MOL0     H52417   8.207   8.550   5.575 -0.7712 -0.6754  2.2121
  380MOL0     H52418   7.916   8.630   5.606  0.9260  3.0664 -1.4621
  380MOL0     H52419   8.047   8.709   5.695  0.0926  0.7293 -1.8024
  380MOL0     H52420   7.994   7.803   5.197  0.3993  0.3640  0.7218
  380MOL0     H52421   8.047   7.580   5.310  0.5011  0.0988  0.0224
  380MOL0     H52422   8.403   7.265   5.306 -1.0524  0.2490 -0.0188
  380MOL0     H52423   8.416   7.030   5.367  0.0091 -0.6975  0.1137
  380MOL0     H52424   7.924   7.243   6.478  2.4923 -1.6336  1.0915
  380MOL0     H52425   7.693   7.189   6.401 -0.2299  0.2926 -0.2613
  380MOL0     H52426   7.480   7.033   5.968  0.5018  1.5159  0.9651
  380MOL0     H52427   7.280   6.972   5.841 -3.1896  0.7959 -1.0543
  380MOL0     H52428   6.976   6.852   5.767  0.1910  0.5725  0.6103
  380MOL0     H52429   7.153   6.822   5.798  1.3336  2.7295  1.4870
  380MOL0     H52430   7.079   6.648   5.963  0.8491  2.8628 -0.0304
  380MOL0     H52431   7.060   6.608   5.793 -2.6342  0.3230 -1.9502
  380MOL0     H52432   6.852   6.679   6.007 -0.8611 -2.9852  0.0235
  380MOL0     H52433   6.810   6.709   5.842 -1.0811  0.1688  2.5101
  380MOL0     H52434   6.748   6.490   5.920 -1.2586  2.1182 -0.5799
  380MOL0     H52435   6.924   6.457   5.948 -0.7229  1.4528  0.6315
  380MOL0     H52436   6.879   6.387   5.527  2.1366  1.6609 -0.1681
  380MOL0     H52437   7.042   7.016   6.192  0.1463 -0.2316  0.7220
  380MOL0     H52438   7.279   7.169   6.397  0.0732 -1.8350  2.7594
  380MOL0     H52439   7.109   7.143   6.367  0.1889  2.8864  1.1114
  380MOL0     H52440   7.201   7.011   6.421 -0.1752  0.7142  1.1373
  381MOL0     O52441   2.739   9.683   4.795 -0.5854 -0.0306 -1.0405
  381MOL0     C52442   2.704   9.650   4.682  1.2146 -0.3372  0.3288
  381MOL0     O52443   2.776   9.572   4.590 -0.1919 -0.2344 -0.1036
  381MOL0     C52444   2.895   9.518   4.630 -0.2725  0.3915  0.8443
  381MOL0     C52445   2.905   9.419   4.716  0.0076  0.4227  0.5048
  381MOL0     C52446   3.026   9.357   4.744  0.4416 -0.1807  0.0603
  381MOL0     C52447   3.151   9.421   4.716 -0.1574  0.1384 -0.0266
  381MOL0     O52448   3.272   9.372   4.745 -0.6683  0.1419 -1.1569
  381MOL0     C52449   3.281   9.309   4.874 -0.2402 -0.6692 -0.4754
  381MOL0     C52450   3.409   9.215   4.899  1.0290 -0.2142  0.3159
  381MOL0     C52451   3.539   9.294   4.919 -0.0956 -0.7429  0.5724
  381MOL0     C52452   3.670   9.217   4.904  0.3714 -0.2995 -0.6688
  381MOL0     C52453   3.777   9.325   4.914 -0.3057 -0.3046  0.1907
  381MOL0     C52454   3.915   9.256   4.875  0.4725 -0.2263  0.8708
  381MOL0     C52455   3.993   9.177   4.977 -0.3869 -1.0390 -0.1151
  381MOL0     C52456   4.015   9.257   5.108 -0.4995  0.1366 -0.1453
  381MOL0     N52457   4.112   9.362   5.115 -0.4785  0.0134  0.2702
  381MOL0     C52458   4.242   9.362   5.064 -0.0394  0.4443 -0.0756
  381MOL0     C52459   4.292   9.488   5.075  0.2679 -0.9694  1.0318
  381MOL0     C52460   4.419   9.545   5.018  0.7725 -0.9514 -0.5209
  381MOL0     C52461   4.517   9.610   5.127 -0.0983 -0.2119 -0.5677
  381MOL0     C52462   4.567   9.503   5.226 -0.0031 -0.0625  0.3909
  381MOL0     C52463   4.711   9.470   5.186 -0.3367 -0.2350 -0.0596
  381MOL0     O52464   4.800   9.565   5.258 -0.0487 -0.4834 -0.0181
  381MOL0     C52465   4.923   9.518   5.300 -0.7653 -0.5303 -0.0012
  381MOL0     C52466   4.993   9.412   5.239 -0.4901  0.0942 -0.8903
  381MOL0     C52467   5.108   9.359   5.304  0.8999 -0.1545  0.4675
  381MOL0     C52468   5.182   9.254   5.226 -0.1781 -0.1615 -0.2254
  381MOL0     C52469   5.161   9.428   5.414 -0.1398  0.2418  0.3707
  381MOL0     C52470   5.280   9.374   5.484 -0.4652 -0.5521  0.5720
  381MOL0     O52471   5.362   9.464   5.531  0.2932  0.1066 -0.8315
  381MOL0     C52472   5.456   9.449   5.621 -0.1873 -0.0400 -0.1869
  381MOL0     C52473   5.540   9.335   5.662 -0.6299  0.1288  0.7208
  381MOL0     C52474   5.641   9.347   5.764 -0.4833 -0.3815  0.8062
  381MOL0     C52475   5.661   9.461   5.832 -0.0278 -0.5661 -0.5084
  381MOL0     O52476   5.761   9.491   5.913  0.3380  0.0494 -0.0096
  381MOL0     C52477   5.882   9.457   5.854  0.3141  0.0114  0.3183
  381MOL0     C52478   5.993   9.501   5.954  0.1382  0.3066  0.7877
  381MOL0     C52479   6.006   9.651   5.980 -0.1339 -0.8045 -0.5694
  381MOL0     C52480   6.115   9.688   6.081  0.7326 -1.2220  0.1028
  381MOL0     C52481   6.100   9.833   6.133  0.2235  1.2714 -0.5387
  381MOL0     C52482   6.234   9.863   6.216  0.4757  0.0457 -0.0286
  381MOL0     C52483   6.342   9.924   6.132  0.0881 -0.0815 -0.0645
  381MOL0     C52484   6.458   9.983   6.206  0.2299  0.0335  0.5124
  381MOL0    Cl52485   6.576   9.858   6.247  0.0752  0.1728  0.0823
  381MOL0     C52486   5.587   9.577   5.794  0.2355  0.2949  0.0148
  381MOL0     C52487   5.489   9.572   5.687  0.0048  0.8888 -0.2326
  381MOL0     O52488   5.284   9.255   5.507  0.0323 -0.1662  0.8241
  381MOL0     C52489   5.098   9.544   5.467  0.0670  0.5367 -0.1448
  381MOL0     C52490   4.972   9.577   5.417  0.2616 -0.1175  0.2822
  381MOL0     N52491   4.197   9.561   5.138 -0.0462  0.4488  0.4739
  381MOL0     N52492   4.093   9.489   5.160 -0.1683  0.0105 -0.0406
  381MOL0     C52493   3.141   9.526   4.624 -0.8078 -0.9435 -0.0064
  381MOL0     C52494   3.019   9.579   4.587  0.7453  0.2793 -0.1907
  381MOL0     C52495   2.566   9.679   4.638  0.6915  1.1728  0.2971
  381MOL0     C52496   2.530   9.659   4.500 -0.1973 -0.5098 -1.4406
  381MOL0     C52497   2.401   9.671   4.446 -0.1171  0.2222 -0.8163
  381MOL0     C52498   2.295   9.716   4.524 -0.5590  0.1255  0.0761
  381MOL0     O52499   2.168   9.738   4.478  0.5493 -1.0798 -0.8088
  381MOL0     C52500   2.131   9.685   4.350 -0.5765  0.5664 -0.4493
  381MOL0     C52501   1.981   9.693   4.338 -0.9026 -0.0177 -0.2905
  381MOL0     C52502   1.910   9.580   4.414 -0.0488 -0.1311 -0.0613
  381MOL0     C52503   1.750   9.580   4.396 -0.1622 -0.8567 -0.4134
  381MOL0     C52504   1.712   9.546   4.264  0.1068  0.2190  0.2419
  381MOL0     C52505   1.678   9.519   4.149  0.5280  0.4910  0.5585
  381MOL0     C52506   2.328   9.742   4.658 -0.2298 -0.0174  0.7171
  381MOL0     C52507   2.459   9.720   4.711  1.2192 -0.1761 -0.2007
  381MOL0     C52508   2.480   9.777   4.850  0.4900  0.1844 -0.3242
  381MOL0     H52509   2.814   9.373   4.754 -0.4485  2.3214  1.8706
  381MOL0     H52510   3.016   9.266   4.803 -2.0670  0.3672  0.6118
  381MOL0     H52511   3.192   9.248   4.896 -0.9746  0.8701  1.0433
  381MOL0     H52512   3.285   9.382   4.955 -0.7698  0.9688 -1.8846
  381MOL0     H52513   3.393   9.148   4.983  1.4970  0.2624  0.7946
  381MOL0     H52514   3.407   9.152   4.809 -1.6809  0.2196 -0.0041
  381MOL0     H52515   3.538   9.380   4.852  1.0514 -0.7538  0.5157
  381MOL0     H52516   3.528   9.342   5.017  0.4354 -0.9618  0.7439
  381MOL0     H52517   3.665   9.145   4.986  0.1279 -0.5797 -0.9270
  381MOL0     H52518   3.680   9.170   4.806 -0.9840  0.8582 -1.3933
  381MOL0     H52519   3.776   9.367   5.015  0.3001  0.4248 -0.1012
  381MOL0     H52520   3.759   9.409   4.848  1.8104 -1.2906 -1.7757
  381MOL0     H52521   3.903   9.181   4.796  4.1573 -0.2623  0.1621
  381MOL0     H52522   3.970   9.330   4.816 -0.6266 -1.0037 -1.2204
  381MOL0     H52523   4.088   9.137   4.942  1.3995  0.5765  2.5328
  381MOL0     H52524   3.934   9.092   5.013 -0.0734 -1.2014  0.0155
  381MOL0     H52525   3.925   9.296   5.157  0.3415  2.1275 -0.0832
  381MOL0     H52526   4.045   9.182   5.182 -2.0232  0.8884  1.3182
  381MOL0     H52527   4.290   9.282   5.007  0.4357 -0.6648  1.7844
  381MOL0     H52528   4.393   9.623   4.946 -1.3563 -1.1218  0.0051
  381MOL0     H52529   4.467   9.463   4.964  0.7756 -1.5583  0.3786
  381MOL0     H52530   4.600   9.667   5.085  1.2458 -1.1449  0.7370
  381MOL0     H52531   4.456   9.686   5.175  0.7852  1.3429 -1.8221
  381MOL0     H52532   4.573   9.534   5.331  0.6459 -0.5147  0.4917
  381MOL0     H52533   4.523   9.404   5.215  2.3099 -1.2414  1.0379
  381MOL0     H52534   4.732   9.364   5.207 -1.5821 -1.1187 -2.8315
  381MOL0     H52535   4.728   9.480   5.078 -0.5268 -1.0322 -0.1685
  381MOL0     H52536   4.957   9.363   5.149 -0.4332 -1.5890 -0.0142
  381MOL0     H52537   5.193   9.297   5.126 -2.4807  1.3289  0.0687
  381MOL0     H52538   5.135   9.156   5.222  0.8208 -0.6585 -4.0522
  381MOL0     H52539   5.284   9.232   5.257 -0.2512 -0.5458 -0.2626
  381MOL0     H52540   5.546   9.242   5.607  3.6026  0.8246 -0.3554
  381MOL0     H52541   5.701   9.258   5.776  0.3185  0.0534  0.1372
  381MOL0     H52542   5.883   9.348   5.843 -1.5156 -0.2380  2.0070
  381MOL0     H52543   5.901   9.507   5.759 -0.0699 -0.2323  0.1113
  381MOL0     H52544   5.979   9.452   6.051  2.5350 -0.8998  0.5990
  381MOL0     H52545   6.076   9.444   5.912  2.4589  4.2231 -0.5634
  381MOL0     H52546   5.911   9.687   6.022  1.3050  1.7161  0.7843
  381MOL0     H52547   6.021   9.713   5.891 -0.7753  1.7018  0.9540
  381MOL0     H52548   6.212   9.662   6.038  0.7308  0.4236 -1.0164
  381MOL0     H52549   6.100   9.623   6.167  1.3013 -1.6259 -0.0978
  381MOL0     H52550   6.086   9.910   6.057  1.2538  0.0461 -2.0263
  381MOL0     H52551   6.012   9.829   6.198  1.5417 -1.3363  1.2662
  381MOL0     H52552   6.246   9.766   6.266  0.4264  0.7943  1.4713
  381MOL0     H52553   6.206   9.931   6.296 -0.0385  0.8206 -0.8504
  381MOL0     H52554   6.300  10.015   6.088  3.1720  1.3702 -0.3123
  381MOL0     H52555   6.367   9.857   6.049 -1.8543 -1.0438  0.0718
  381MOL0     H52556   6.414  10.043   6.287 -0.3048 -0.5894  0.6974
  381MOL0     H52557   6.512  10.052   6.140  1.3779 -2.7174 -1.5869
  381MOL0     H52558   5.620   9.666   5.847 -0.6696 -1.4221  3.8118
  381MOL0     H52559   5.431   9.660   5.659  0.1586  1.0837  0.0487
  381MOL0     H52560   5.138   9.595   5.553  0.1889  3.6360 -1.8981
  381MOL0     H52561   4.911   9.653   5.462 -1.9109 -2.3397  1.3075
  381MOL0     H52562   3.228   9.579   4.585 -1.5285 -0.0812 -0.4830
  381MOL0     H52563   3.002   9.658   4.516  2.6741 -0.1479 -1.2090
  381MOL0     H52564   2.607   9.610   4.441  2.1439  0.7731  0.3680
  381MOL0     H52565   2.383   9.634   4.346  1.1420  0.3854 -1.1291
  381MOL0     H52566   2.184   9.749   4.278 -0.8716  0.7495 -0.5052
  381MOL0     H52567   2.165   9.582   4.336  2.1853  1.0819  1.5057
  381MOL0     H52568   1.963   9.700   4.231 -0.8514 -0.1107 -0.3052
  381MOL0     H52569   1.941   9.787   4.377 -1.3531 -0.6030  0.6849
  381MOL0     H52570   1.961   9.490   4.379 -0.7842  0.3656 -2.5976
  381MOL0     H52571   1.924   9.594   4.522  0.1107  2.3099 -0.3348
  381MOL0     H52572   1.706   9.678   4.414 -3.6620 -2.4892  0.6995
  381MOL0     H52573   1.711   9.500   4.461 -3.9187 -0.2644 -1.6933
  381MOL0     H52574   1.640   9.505   4.050  0.1591 -0.5379  0.8303
  381MOL0     H52575   2.245   9.780   4.715 -2.1981 -1.7225 -0.8612
  381MOL0     H52576   2.390   9.804   4.906  1.5536 -0.5277  1.8403
  381MOL0     H52577   2.520   9.705   4.922 -2.4162 -0.9333  0.2992
  381MOL0     H52578   2.547   9.864   4.851  0.4306  0.2358  1.1935
  382MOL0     O52579   8.523   3.729  10.299 -0.3491  0.4800  0.0170
  382MOL0     C52580   8.644   3.722  10.311 -0.3505 -0.3676  1.2936
  382MOL0     O52581   8.718   3.674  10.414  0.7642  0.0227 -0.9879
  382MOL0     C52582   8.642   3.672  10.534 -0.4118  0.7178  0.3707
  382MOL0     C52583   8.543   3.578  10.557 -0.4907 -0.2581  0.7019
  382MOL0     C52584   8.462   3.604  10.668 -0.0801  1.1295  0.1013
  382MOL0     C52585   8.494   3.702  10.767  1.1408 -0.8201  0.4794
  382MOL0     O52586   8.397   3.728  10.866 -0.3416 -0.5607 -0.0807
  382MOL0     C52587   8.414   3.831  10.966  0.8549 -0.6125 -0.3513
  382MOL0     C52588   8.278   3.867  11.020 -0.1154 -0.5810  0.0288
  382MOL0     C52589   8.193   3.934  10.917 -0.1366  1.2454 -1.0716
  382MOL0     C52590   8.065   3.996  10.964  0.9658 -0.1664  0.0831
  382MOL0     C52591   7.980   4.047  10.848 -0.9104  0.0635  1.2705
  382MOL0     C52592   7.852   4.121  10.891 -0.8661 -0.7323  0.6609
  382MOL0     C52593   7.769   4.046  10.995  0.1276  0.7487 -0.4473
  382MOL0     C52594   7.615   4.055  10.987  0.5818 -0.0442 -0.3007
  382MOL0     N52595   7.550   4.186  11.023  0.3269 -0.2753 -0.8231
  382MOL0     C52596   7.589   4.308  10.972  0.0045 -0.1434 -0.2374
  382MOL0     C52597   7.541   4.401  11.057  0.1877 -0.1997  0.2260
  382MOL0     C52598   7.555   4.552  11.044  0.4210 -1.0186  0.8313
  382MOL0     C52599   7.691   4.612  11.056 -0.6677 -0.1435  0.2632
  382MOL0     C52600   7.688   4.758  11.012 -0.4746 -0.0272  0.3314
  382MOL0     C52601   7.821   4.827  11.042  0.5653 -0.5800  0.6778
  382MOL0     O52602   7.807   4.864  11.182  0.4353 -0.6869 -0.1386
  382MOL0     C52603   7.911   4.939  11.231  1.2094 -0.6614 -0.3874
  382MOL0     C52604   8.004   5.018  11.165  0.0006 -0.2620  0.0604
  382MOL0     C52605   8.109   5.091  11.231 -1.6009  0.0648 -0.6071
  382MOL0     C52606   8.209   5.179  11.150 -0.2479  0.1152 -0.1119
  382MOL0     C52607   8.106   5.082  11.373 -0.1588  0.3254 -0.4168
  382MOL0     C52608   8.194   5.147  11.465 -1.5049 -0.1216  0.2208
  382MOL0     O52609   8.157   5.150  11.600  0.0498  0.6777  0.5487
  382MOL0     C52610   8.234   5.206  11.695 -0.2272  0.5264  0.7510
  382MOL0     C52611   8.276   5.133  11.802  0.6230  0.2774  0.3102
  382MOL0     C52612   8.352   5.198  11.895 -0.8731  0.0961  0.0454
  382MOL0     C52613   8.404   5.324  11.886 -0.2394  0.7310  0.2613
  382MOL0     O52614   8.488   5.369  11.984 -0.1146  0.0279 -0.4806
  382MOL0     C52615   8.549   5.494  11.967 -0.3352 -0.0753  0.7263
  382MOL0     C52616   8.628   5.527  12.098 -0.4234 -0.7534  0.6486
  382MOL0     C52617   8.725   5.644  12.081 -0.6345  0.2805 -0.0724
  382MOL0     C52618   8.863   5.616  12.135  0.9670  0.1106  0.0531
  382MOL0     C52619   8.954   5.740  12.141  1.1091 -0.6034  0.2146
  382MOL0     C52620   9.085   5.720  12.214  0.2381  0.6005 -0.4213
  382MOL0     C52621   9.159   5.848  12.249 -0.1069 -0.3116 -0.0427
  382MOL0     C52622   9.107   5.932  12.360  0.1349 -0.9182  0.4934
  382MOL0    Cl52623   9.120   5.847  12.511 -0.1114  0.0946 -0.4109
  382MOL0     C52624   8.349   5.402  11.779  0.3261 -0.0809 -0.2397
  382MOL0     C52625   8.259   5.343  11.684 -0.1731  0.0315  0.3273
  382MOL0     O52626   8.310   5.181  11.423  0.4071  0.9011 -0.8126
  382MOL0     C52627   8.022   4.987  11.436  0.4534 -0.9498  0.1211
  382MOL0     C52628   7.921   4.928  11.369  0.2978  1.0495  0.9953
  382MOL0     N52629   7.470   4.336  11.158  0.2443 -0.1327  0.1188
  382MOL0     N52630   7.494   4.212  11.150 -0.4838  0.2424  0.2008
  382MOL0     C52631   8.607   3.778  10.745 -0.1753 -0.8163 -0.3708
  382MOL0     C52632   8.683   3.767  10.632 -0.0855 -0.4728  0.1015
  382MOL0     C52633   8.720   3.753  10.177 -0.2200  1.1357 -0.4184
  382MOL0     C52634   8.836   3.681  10.180  0.4212  0.0267  0.3597
  382MOL0     C52635   8.922   3.684  10.068 -0.0885  0.8031  0.2070
  382MOL0     C52636   8.884   3.762   9.955 -0.3541  0.1360 -0.5857
  382MOL0     O52637   8.961   3.766   9.848  0.3439 -0.5752  0.3350
  382MOL0     C52638   8.937   3.665   9.747  0.2251 -0.4260  0.2907
  382MOL0     C52639   9.049   3.566   9.741  0.0666 -0.0889  0.2355
  382MOL0     C52640   9.175   3.644   9.695 -0.3531  0.3389  0.3665
  382MOL0     C52641   9.306   3.559   9.698 -0.8783  0.2319  1.2970
  382MOL0     C52642   9.332   3.503   9.833 -0.1760  0.3155 -0.2739
  382MOL0     C52643   9.335   3.472   9.947  0.4457 -0.0302  0.1987
  382MOL0     C52644   8.769   3.848   9.959 -0.9475  0.5510  0.1289
  382MOL0     C52645   8.687   3.840  10.070  0.0007 -1.9519 -0.3953
  382MOL0     C52646   8.565   3.922  10.065 -0.6359  0.3657 -0.1070
  382MOL0     H52647   8.535   3.508  10.475 -0.8929  0.5433  0.0430
  382MOL0     H52648   8.365   3.554  10.664  0.6441 -0.3608  0.5160
  382MOL0     H52649   8.476   3.914  10.929  1.2597 -1.4083 -1.5118
  382MOL0     H52650   8.475   3.779  11.041  0.5346  0.0701  0.4003
  382MOL0     H52651   8.224   3.776  11.051 -2.4437  0.9629  0.7731
  382MOL0     H52652   8.286   3.922  11.114  2.4322  0.0403 -0.4915
  382MOL0     H52653   8.259   4.006  10.868 -0.1792  2.5673  0.7332
  382MOL0     H52654   8.173   3.860  10.839  1.0799 -0.4344  0.1573
  382MOL0     H52655   7.999   3.926  11.016 -0.2686 -0.3099 -1.5983
  382MOL0     H52656   8.096   4.073  11.035  1.6385  0.6332 -1.0549
  382MOL0     H52657   7.954   3.962  10.784 -1.5232  1.3864 -0.2879
  382MOL0     H52658   8.046   4.114  10.792 -1.3322  0.6624  1.4905
  382MOL0     H52659   7.872   4.221  10.932 -3.1021 -0.5216  1.3700
  382MOL0     H52660   7.803   4.147  10.797  0.9448  1.3401  0.1953
  382MOL0     H52661   7.795   4.078  11.096  1.8694 -0.6220 -0.4057
  382MOL0     H52662   7.777   3.937  10.985 -0.3016  0.4660  1.6871
  382MOL0     H52663   7.583   4.027  10.886 -2.7370 -0.7901  0.8177
  382MOL0     H52664   7.569   3.982  11.055  1.2782 -0.1905  0.0187
  382MOL0     H52665   7.642   4.328  10.879  0.5562 -2.2399 -0.4261
  382MOL0     H52666   7.485   4.612  11.102  1.4920  1.7165 -0.5356
  382MOL0     H52667   7.531   4.581  10.941  2.1164  0.7605  0.8946
  382MOL0     H52668   7.709   4.615  11.164 -1.9683  0.4726  0.4949
  382MOL0     H52669   7.773   4.555  11.013  1.4304  0.6801  2.9255
  382MOL0     H52670   7.683   4.765  10.903  1.5921 -1.9423  0.0342
  382MOL0     H52671   7.597   4.805  11.050 -0.9948 -0.9902  0.2877
  382MOL0     H52672   7.913   4.773  11.018  1.0950 -1.1905  3.6678
  382MOL0     H52673   7.824   4.914  10.977  1.2488 -2.5557 -2.0922
  382MOL0     H52674   8.002   5.027  11.056 -3.0336  3.3550  0.2148
  382MOL0     H52675   8.225   5.141  11.049 -0.5116 -1.9813  0.5876
  382MOL0     H52676   8.307   5.189  11.197  0.9033  1.2569 -2.5421
  382MOL0     H52677   8.178   5.284  11.139  0.0626 -0.0800 -4.1851
  382MOL0     H52678   8.242   5.031  11.820  2.0629 -0.0503  1.4014
  382MOL0     H52679   8.383   5.141  11.981  0.6444  2.1296  0.9336
  382MOL0     H52680   8.614   5.493  11.878 -1.9121  0.1169 -0.4723
  382MOL0     H52681   8.471   5.571  11.960  0.4803  0.7348  0.1685
  382MOL0     H52682   8.553   5.555  12.171 -0.0711  1.8941  0.1222
  382MOL0     H52683   8.686   5.441  12.134 -0.0357 -0.4071  0.8643
  382MOL0     H52684   8.691   5.736  12.129 -1.4327 -0.3771  0.6586
  382MOL0     H52685   8.741   5.656  11.973 -1.0951 -0.1296 -0.1882
  382MOL0     H52686   8.904   5.545  12.063  3.0570  0.3854  0.8839
  382MOL0     H52687   8.848   5.569  12.233  0.7566  0.9163  0.4139
  382MOL0     H52688   8.969   5.786  12.043 -0.1495 -1.1637 -0.2620
  382MOL0     H52689   8.887   5.807  12.196 -0.8835 -2.4483  0.1141
  382MOL0     H52690   9.149   5.653  12.157 -3.5916 -0.1752 -4.3194
  382MOL0     H52691   9.052   5.663  12.301  0.2956 -2.1545 -2.0965
  382MOL0     H52692   9.146   5.911  12.161  2.0220 -0.8727 -0.8183
  382MOL0     H52693   9.265   5.819  12.254  0.1464  0.6796  0.6927
  382MOL0     H52694   9.004   5.966  12.347 -0.3709 -0.7618  3.8366
  382MOL0     H52695   9.159   6.028  12.359  0.2102 -0.9158 -2.5293
  382MOL0     H52696   8.382   5.505  11.765  1.2945 -0.2117  0.8215
  382MOL0     H52697   8.214   5.393  11.599  1.3031  1.9211  0.5919
  382MOL0     H52698   8.015   4.978  11.544 -0.1210 -1.8102  0.0262
  382MOL0     H52699   7.855   4.858  11.418 -0.1172 -0.1864 -1.1705
  382MOL0     H52700   8.643   3.849  10.818 -2.5726  1.6914 -1.4381
  382MOL0     H52701   8.775   3.824  10.622  0.9280 -2.0785 -0.2831
  382MOL0     H52702   8.871   3.626  10.267 -2.3234 -0.6597  1.1143
  382MOL0     H52703   9.003   3.612  10.063 -3.2867 -3.1831  0.7800
  382MOL0     H52704   8.841   3.619   9.774 -0.4840  0.4261 -0.6630
  382MOL0     H52705   8.924   3.708   9.647  0.1118  1.1026  0.9275
  382MOL0     H52706   9.019   3.485   9.674 -0.7326 -0.4734  1.0381
  382MOL0     H52707   9.070   3.525   9.840 -0.9170 -0.0394  0.4826
  382MOL0     H52708   9.153   3.677   9.593  1.9069 -0.2756 -0.3687
  382MOL0     H52709   9.193   3.716   9.776  1.3800 -2.3750  2.5748
  382MOL0     H52710   9.391   3.623   9.674 -1.3497  0.4109  0.0179
  382MOL0     H52711   9.293   3.481   9.622 -3.0948  1.0594  0.7367
  382MOL0     H52712   9.349   3.442  10.049  1.5273  1.0535  0.3994
  382MOL0     H52713   8.742   3.912   9.875 -0.2097 -0.9648 -1.3011
  382MOL0     H52714   8.489   3.874  10.129 -1.4826  0.8431 -0.7392
  382MOL0     H52715   8.582   4.027  10.090 -1.1976  0.7454 -1.2589
  382MOL0     H52716   8.526   3.922   9.963 -2.8564  1.4137  0.6740
  383MOL0     O52717   1.696   6.920   5.058  0.3851  0.6158  0.0077
  383MOL0     C52718   1.757   6.950   4.960  0.1835 -0.6804 -0.1431
  383MOL0     O52719   1.873   7.019   4.967 -0.1451  0.0049  0.0927
  383MOL0     C52720   1.930   7.053   5.080 -0.4657  0.6796 -0.2423
  383MOL0     C52721   1.871   7.084   5.206 -0.1410 -1.1240  1.5356
  383MOL0     C52722   1.948   7.133   5.311  0.1408  0.2471  0.1842
  383MOL0     C52723   2.085   7.169   5.296  0.2959 -0.5456 -0.2499
  383MOL0     O52724   2.150   7.229   5.402  0.2584 -0.6662 -0.2858
  383MOL0     C52725   2.286   7.271   5.384  0.4456 -0.2872  0.2833
  383MOL0     C52726   2.344   7.325   5.521 -0.3157 -0.0716  1.0532
  383MOL0     C52727   2.353   7.220   5.626 -0.5857  0.5545 -0.8526
  383MOL0     C52728   2.405   7.276   5.762 -0.0268 -0.0588  0.3062
  383MOL0     C52729   2.451   7.165   5.861  0.4425  0.5942  0.2093
  383MOL0     C52730   2.581   7.104   5.813  0.4015  0.2326  0.2968
  383MOL0     C52731   2.616   6.969   5.880  0.0575 -0.2268 -0.6029
  383MOL0     C52732   2.608   6.971   6.029  0.2392 -0.4202  0.5802
  383MOL0     N52733   2.677   6.851   6.062  0.4834 -0.6530  1.3527
  383MOL0     C52734   2.809   6.834   6.091 -0.6011  0.1566  0.3170
  383MOL0     C52735   2.825   6.709   6.133 -0.2650 -0.0671  0.0178
  383MOL0     C52736   2.953   6.645   6.179 -0.5125  0.1932 -0.1932
  383MOL0     C52737   3.073   6.691   6.106 -0.2516 -0.5333 -0.2937
  383MOL0     C52738   3.203   6.618   6.155  0.9418 -0.6387 -0.1625
  383MOL0     C52739   3.329   6.652   6.071 -0.4355 -0.1950 -0.1002
  383MOL0     O52740   3.363   6.781   6.113  0.4306  0.0600 -0.0373
  383MOL0     C52741   3.497   6.817   6.110 -0.5263  0.0475  0.0404
  383MOL0     C52742   3.545   6.918   6.199  0.0671 -0.4979 -0.5217
  383MOL0     C52743   3.677   6.961   6.191  0.8897  0.5462 -0.0886
  383MOL0     C52744   3.704   7.073   6.285 -0.0455 -0.0313 -0.5647
  383MOL0     C52745   3.770   6.891   6.105  0.2560  0.8709 -0.5462
  383MOL0     C52746   3.919   6.922   6.105  0.2976  0.0045  0.6742
  383MOL0     O52747   3.970   7.007   6.190  0.6424  0.1490  0.0012
  383MOL0     C52748   4.093   7.060   6.162  0.2609 -0.3049 -0.0177
  383MOL0     C52749   4.209   7.003   6.203 -0.3182  0.4484 -0.2646
  383MOL0     C52750   4.332   7.062   6.173 -0.1703 -0.2017  0.7752
  383MOL0     C52751   4.354   7.179   6.107  0.7775 -0.4339 -0.2758
  383MOL0     O52752   4.477   7.236   6.091 -0.7827 -0.1849  0.3053
  383MOL0     C52753   4.495   7.339   5.985 -0.2638  0.1671 -0.2891
  383MOL0     C52754   4.648   7.341   5.935 -0.2168  0.0813 -0.8398
  383MOL0     C52755   4.659   7.404   5.795 -0.1734  0.0486 -0.3270
  383MOL0     C52756   4.802   7.437   5.753  0.4578  0.6628 -0.3419
  383MOL0     C52757   4.897   7.321   5.706 -0.4511 -0.0179  0.1039
  383MOL0     C52758   4.839   7.225   5.593  0.1622  0.6332 -0.8115
  383MOL0     C52759   4.809   7.278   5.454 -0.1222  0.7221  0.2647
  383MOL0     C52760   4.929   7.351   5.389 -1.1128 -0.0639 -0.4998
  383MOL0    Cl52761   5.067   7.240   5.369 -0.0250 -0.2174 -0.1873
  383MOL0     C52762   4.231   7.241   6.072 -0.3422  0.3434  0.4338
  383MOL0     C52763   4.104   7.181   6.093 -0.1630 -0.6628 -0.3040
  383MOL0     O52764   3.978   6.863   6.019  0.5099 -0.5235  0.1700
  383MOL0     C52765   3.717   6.787   6.027 -0.1518 -0.9038  0.1509
  383MOL0     C52766   3.581   6.755   6.021  0.5404  0.2247 -0.1942
  383MOL0     N52767   2.692   6.655   6.141  0.3321 -0.2974  0.2948
  383MOL0     N52768   2.612   6.738   6.082  0.0291 -0.2483  0.3318
  383MOL0     C52769   2.140   7.131   5.173 -1.1059 -0.4721  0.1397
  383MOL0     C52770   2.066   7.072   5.066 -0.1332 -0.6286 -0.8896
  383MOL0     C52771   1.698   6.936   4.821 -0.3502 -0.0286  0.6520
  383MOL0     C52772   1.768   6.993   4.714  0.0229  1.5027  0.7360
  383MOL0     C52773   1.716   6.998   4.581  0.6778 -0.2983  0.1661
  383MOL0     C52774   1.586   6.952   4.551 -0.5187  0.5316  0.2449
  383MOL0     O52775   1.520   6.944   4.432 -0.1061  0.0761 -0.2422
  383MOL0     C52776   1.556   7.047   4.334 -0.5924 -0.3542  0.6561
  383MOL0     C52777   1.486   7.174   4.382 -0.0596 -0.3405 -0.2284
  383MOL0     C52778   1.326   7.164   4.372 -0.8615 -0.3453 -0.5787
  383MOL0     C52779   1.247   7.302   4.379 -0.2887  0.0063 -0.0409
  383MOL0     C52780   1.107   7.278   4.408  0.3532 -0.6503 -0.2133
  383MOL0     C52781   0.997   7.263   4.442 -0.7152  0.6985 -0.3790
  383MOL0     C52782   1.518   6.903   4.655  0.3713 -0.3776  0.5015
  383MOL0     C52783   1.572   6.881   4.781 -0.5284 -0.1446 -0.1947
  383MOL0     C52784   1.481   6.837   4.889  0.7374  0.1730  0.6026
  383MOL0     H52785   1.763   7.081   5.215 -0.5213 -0.2149 -1.5020
  383MOL0     H52786   1.896   7.152   5.405  1.8640 -1.3704  1.5333
  383MOL0     H52787   2.286   7.353   5.311 -1.7299  0.2745  0.8451
  383MOL0     H52788   2.350   7.185   5.363 -0.6831 -2.0860  3.4894
  383MOL0     H52789   2.447   7.356   5.502 -0.7406  0.2385 -0.9647
  383MOL0     H52790   2.292   7.411   5.564 -0.8807  0.0848  0.1059
  383MOL0     H52791   2.254   7.179   5.643  0.1883 -1.2281 -0.4012
  383MOL0     H52792   2.423   7.140   5.597 -0.1578 -0.1041  1.7588
  383MOL0     H52793   2.492   7.336   5.733 -0.7792  0.6222 -0.5911
  383MOL0     H52794   2.336   7.345   5.811 -0.8598 -0.1507 -0.7033
  383MOL0     H52795   2.372   7.090   5.874  0.1850 -0.1491 -4.1656
  383MOL0     H52796   2.473   7.211   5.958  1.8711  1.2030 -0.3743
  383MOL0     H52797   2.580   7.096   5.704  0.5806 -0.5940  0.3517
  383MOL0     H52798   2.668   7.165   5.840  1.8644 -1.8174  0.4802
  383MOL0     H52799   2.709   6.930   5.839  0.1345  0.4705 -1.0969
  383MOL0     H52800   2.538   6.899   5.848  0.0374 -0.2960 -0.4071
  383MOL0     H52801   2.661   7.058   6.067 -2.5590  0.1604  3.5561
  383MOL0     H52802   2.504   6.970   6.060 -0.8080  2.4524 -2.2448
  383MOL0     H52803   2.885   6.911   6.081  0.3084 -0.7863 -0.2962
  383MOL0     H52804   2.938   6.538   6.163 -2.4825  0.1739  1.3874
  383MOL0     H52805   2.963   6.644   6.288  1.2816  0.5294 -0.3238
  383MOL0     H52806   3.061   6.665   6.000  2.1557 -2.3037 -0.2186
  383MOL0     H52807   3.081   6.800   6.120 -0.2479 -0.5899  0.1427
  383MOL0     H52808   3.221   6.633   6.262 -1.7266 -0.6944  0.3780
  383MOL0     H52809   3.186   6.510   6.151  1.2831 -0.6472 -1.8684
  383MOL0     H52810   3.407   6.583   6.103 -1.5523 -0.7022  1.6521
  383MOL0     H52811   3.303   6.649   5.965  0.1202 -3.6270 -0.2562
  383MOL0     H52812   3.476   6.971   6.264  0.9324  1.2011 -0.9397
  383MOL0     H52813   3.782   7.048   6.357 -0.0577  1.2513 -0.0781
  383MOL0     H52814   3.616   7.108   6.341 -0.5602 -0.7344 -0.9156
  383MOL0     H52815   3.727   7.161   6.224 -1.8354  1.1492  0.3664
  383MOL0     H52816   4.209   6.906   6.252  3.6787 -0.1674 -1.1537
  383MOL0     H52817   4.421   7.009   6.208 -0.6445 -0.3430  1.8107
  383MOL0     H52818   4.422   7.331   5.904 -2.3129  1.2338  1.3684
  383MOL0     H52819   4.471   7.436   6.029  0.7741  0.8239 -1.1314
  383MOL0     H52820   4.707   7.405   6.001  0.5704  0.1760 -1.6231
  383MOL0     H52821   4.695   7.243   5.936 -1.3892 -0.5034 -0.1614
  383MOL0     H52822   4.596   7.492   5.811 -0.1269  0.4230 -2.0175
  383MOL0     H52823   4.619   7.339   5.716 -0.4824  0.0972 -0.2099
  383MOL0     H52824   4.854   7.479   5.840 -0.5971 -1.4641  1.3959
  383MOL0     H52825   4.806   7.504   5.666  0.0020  0.1343 -0.7756
  383MOL0     H52826   4.991   7.353   5.660 -0.5421 -0.9568 -0.7754
  383MOL0     H52827   4.931   7.267   5.794  0.0512 -1.7093 -1.0739
  383MOL0     H52828   4.745   7.178   5.625  0.2222  0.2968 -1.1079
  383MOL0     H52829   4.900   7.135   5.581 -0.2415 -0.3801  3.2667
  383MOL0     H52830   4.722   7.345   5.462  0.3152  1.8998 -3.1590
  383MOL0     H52831   4.775   7.199   5.386  3.8507  2.0987 -3.8710
  383MOL0     H52832   4.961   7.434   5.453 -1.9285 -1.9207  2.5120
  383MOL0     H52833   4.922   7.395   5.290  3.1362  1.7266 -0.2082
  383MOL0     H52834   4.233   7.342   6.033 -3.2228  1.9963  4.0382
  383MOL0     H52835   4.013   7.227   6.057 -0.7093 -0.9369  0.6771
  383MOL0     H52836   3.782   6.723   5.969  1.2528 -0.4166  1.1388
  383MOL0     H52837   3.560   6.671   5.957  0.1943  0.3614 -0.2599
  383MOL0     H52838   2.243   7.161   5.154 -1.6482 -0.1302 -2.5905
  383MOL0     H52839   2.110   7.052   4.969  1.5596  3.1082 -1.0807
  383MOL0     H52840   1.854   7.059   4.727  1.1042  0.5705 -1.2456
  383MOL0     H52841   1.766   7.038   4.493 -1.2289 -1.4490 -1.5470
  383MOL0     H52842   1.660   7.074   4.311 -1.4125  1.7882 -0.8739
  383MOL0     H52843   1.508   7.026   4.238 -0.7685  5.5301 -0.9564
  383MOL0     H52844   1.523   7.255   4.319 -2.3617 -0.8033 -2.3337
  383MOL0     H52845   1.511   7.199   4.486 -0.9633  0.4138 -0.1829
  383MOL0     H52846   1.306   7.109   4.280  1.4819  0.8248 -1.8742
  383MOL0     H52847   1.283   7.100   4.449 -3.2956 -0.2694 -1.7763
  383MOL0     H52848   1.248   7.350   4.281 -0.6259  0.0124 -0.0424
  383MOL0     H52849   1.297   7.362   4.455 -0.9653  0.4247  0.0817
  383MOL0     H52850   0.904   7.235   4.487 -0.2125  1.1483  1.0035
  383MOL0     H52851   1.418   6.866   4.634 -0.7008  3.5052 -2.1131
  383MOL0     H52852   1.490   6.733   4.920  1.7453 -0.4765 -1.6649
  383MOL0     H52853   1.478   6.910   4.971 -3.8309 -1.6543  2.4166
  383MOL0     H52854   1.380   6.844   4.847  1.1579  2.5171 -0.2056
  384MOL0     O52855   8.806   1.778   4.484  0.0024  0.4687 -0.1170
  384MOL0     C52856   8.705   1.761   4.549  0.3041  0.4140 -0.5126
  384MOL0     O52857   8.681   1.661   4.628  0.2500  0.9951 -0.0406
  384MOL0     C52858   8.789   1.587   4.667 -0.0388 -0.2268  0.8614
  384MOL0     C52859   8.899   1.643   4.725 -0.6640 -0.0207 -0.5363
  384MOL0     C52860   9.011   1.563   4.749 -0.4281  0.8131 -0.9850
  384MOL0     C52861   9.025   1.432   4.700 -0.1760 -0.0825  0.1987
  384MOL0     O52862   9.133   1.343   4.706  0.5040  0.4432 -0.5042
  384MOL0     C52863   9.262   1.398   4.749  0.1478  0.0076  0.9786
  384MOL0     C52864   9.370   1.306   4.686 -0.1274 -0.5668 -0.3461
  384MOL0     C52865   9.490   1.387   4.642 -0.9172 -0.5559 -1.0552
  384MOL0     C52866   9.600   1.275   4.640 -0.0917 -0.9511  0.4482
  384MOL0     C52867   9.734   1.347   4.600 -0.1283 -0.1560  0.5755
  384MOL0     C52868   9.800   1.436   4.708  0.5087 -0.3029  0.5643
  384MOL0     C52869   9.926   1.498   4.650 -0.3187  0.1280 -0.2458
  384MOL0     C52870  10.017   1.580   4.750  0.4770  0.3000  0.4914
  384MOL0     N52871  10.138   1.621   4.677 -0.4806  0.0582  0.1470
  384MOL0     C52872  10.130   1.725   4.587  0.0597  0.0641  0.1029
  384MOL0     C52873  10.248   1.716   4.521  0.6277  0.3588 -0.1699
  384MOL0     C52874  10.282   1.807   4.406  0.3526  0.1884  0.1849
  384MOL0     C52875  10.322   1.948   4.456 -0.2168 -0.6525 -0.4873
  384MOL0     C52876  10.477   1.980   4.448  0.0746  0.2157 -0.2174
  384MOL0     C52877  10.560   1.892   4.547  0.0995 -0.4508  0.4709
  384MOL0     O52878  10.690   1.941   4.521 -0.6361  0.1007 -0.0381
  384MOL0     C52879  10.796   1.919   4.603 -0.1313 -0.1555  0.5006
  384MOL0     C52880  10.869   2.037   4.638 -0.1253 -0.3532 -0.9651
  384MOL0     C52881  10.977   2.032   4.726 -0.2912 -0.2968 -0.3421
  384MOL0     C52882  11.050   2.167   4.754 -0.0264  0.4365  0.1387
  384MOL0     C52883  11.010   1.908   4.790  1.2600 -0.0566  0.6082
  384MOL0     C52884  11.115   1.900   4.893 -0.0673 -0.2429  0.6512
  384MOL0     O52885  11.084   1.838   5.005  0.1428 -0.6778  0.3948
  384MOL0     C52886  11.162   1.855   5.116 -0.1413 -0.8702  0.7991
  384MOL0     C52887  11.123   1.955   5.201 -0.2713  0.3270 -1.5260
  384MOL0     C52888  11.206   1.980   5.319 -0.1461 -0.1366  0.0165
  384MOL0     C52889  11.328   1.899   5.344  0.2777 -0.5568 -0.9508
  384MOL0     O52890  11.408   1.915   5.456 -0.2631 -0.0290 -0.5218
  384MOL0     C52891  11.384   2.042   5.521 -0.9474  0.8724 -0.6244
  384MOL0     C52892  11.494   2.048   5.636  0.1170 -0.7846  0.2433
  384MOL0     C52893  11.543   2.181   5.688  0.0002  0.3979  0.7681
  384MOL0     C52894  11.662   2.232   5.600  0.4367 -0.1746 -0.2104
  384MOL0     C52895  11.614   2.326   5.491  0.5526 -0.6762 -0.0491
  384MOL0     C52896  11.724   2.391   5.403  1.2888  0.2852  0.4783
  384MOL0     C52897  11.653   2.516   5.335 -0.5000  1.2319 -0.3492
  384MOL0     C52898  11.754   2.566   5.231 -0.0886 -0.2467  0.8629
  384MOL0    Cl52899  11.667   2.703   5.143  0.1629 -0.3354  0.2747
  384MOL0     C52900  11.352   1.790   5.263  0.1277  0.1893 -0.0391
  384MOL0     C52901  11.270   1.769   5.146 -0.8829 -0.6699 -0.1124
  384MOL0     O52902  11.228   1.928   4.859  0.1608 -0.3156  0.4669
  384MOL0     C52903  10.938   1.787   4.757  1.0670 -0.6086  0.6283
  384MOL0     C52904  10.833   1.801   4.658 -0.5916  0.7306 -0.3027
  384MOL0     N52905  10.331   1.617   4.581 -0.3512  0.1710  0.1308
  384MOL0     N52906  10.257   1.558   4.671 -0.1737 -0.0529  0.3140
  384MOL0     C52907   8.919   1.381   4.631 -0.7973  0.0726  0.0657
  384MOL0     C52908   8.805   1.453   4.614 -0.5109  0.0829  0.6665
  384MOL0     C52909   8.597   1.863   4.540 -0.2909  0.9936  0.9257
  384MOL0     C52910   8.530   1.902   4.647  0.4791  0.0189  0.2079
  384MOL0     C52911   8.422   1.986   4.647  0.3600 -0.1660 -0.1104
  384MOL0     C52912   8.396   2.062   4.526 -0.6056  1.1794  0.2679
  384MOL0     O52913   8.298   2.146   4.508  0.6483  0.4125 -0.1064
  384MOL0     C52914   8.242   2.214   4.622  0.3883 -0.5026  0.4110
  384MOL0     C52915   8.133   2.316   4.577 -0.2812 -0.3643  0.0090
  384MOL0     C52916   8.025   2.231   4.513 -0.5056 -0.2095  0.0037
  384MOL0     C52917   7.927   2.308   4.424 -1.0634  0.4859  0.5823
  384MOL0     C52918   7.839   2.397   4.495  0.1105  0.6394  0.4295
  384MOL0     C52919   7.772   2.467   4.569 -0.7401  0.2536  0.0069
  384MOL0     C52920   8.475   2.029   4.412  0.3103 -0.6993  0.5691
  384MOL0     C52921   8.571   1.927   4.415  0.1591 -0.4177  0.0555
  384MOL0     C52922   8.644   1.902   4.290  0.7420  0.3387 -0.2776
  384MOL0     H52923   8.902   1.746   4.757  0.0677 -0.1392 -0.1882
  384MOL0     H52924   9.093   1.598   4.809 -1.4672  0.5485  0.6584
  384MOL0     H52925   9.266   1.381   4.857 -2.7120 -2.5725  0.8541
  384MOL0     H52926   9.272   1.503   4.721  1.1681  0.1970  1.9971
  384MOL0     H52927   9.399   1.225   4.753 -0.6220 -0.7448 -0.3425
  384MOL0     H52928   9.326   1.263   4.596 -0.8762 -1.2352  0.3315
  384MOL0     H52929   9.477   1.436   4.545  0.0578  4.3333  0.9627
  384MOL0     H52930   9.513   1.464   4.717  2.2685 -2.7236  0.4415
  384MOL0     H52931   9.613   1.218   4.733 -1.0471  0.4271  1.4708
  384MOL0     H52932   9.567   1.201   4.567 -0.8273 -2.1872  1.9829
  384MOL0     H52933   9.729   1.399   4.504  0.0556  1.3250  1.3487
  384MOL0     H52934   9.810   1.269   4.582  1.2170  1.3993 -0.9119
  384MOL0     H52935   9.737   1.517   4.745 -2.6390 -1.5487 -1.6531
  384MOL0     H52936   9.832   1.378   4.795  1.9659  0.3536  0.5001
  384MOL0     H52937   9.878   1.573   4.586 -1.1355 -0.1959 -0.0316
  384MOL0     H52938   9.987   1.433   4.586 -0.0774  0.7493 -0.6603
  384MOL0     H52939   9.964   1.667   4.792  0.5775  1.1773 -1.1182
  384MOL0     H52940  10.034   1.507   4.830 -0.6939 -0.2261  0.2869
  384MOL0     H52941  10.045   1.786   4.559  1.1640  1.8575  0.4805
  384MOL0     H52942  10.200   1.804   4.333  2.1018 -1.1759 -1.8218
  384MOL0     H52943  10.369   1.762   4.357  1.0923 -2.5228  3.6402
  384MOL0     H52944  10.258   2.018   4.402 -0.6991 -0.8714 -0.2065
  384MOL0     H52945  10.291   1.957   4.561  3.3276  0.7298  0.5567
  384MOL0     H52946  10.515   1.971   4.346  1.6514  1.2782  0.2366
  384MOL0     H52947  10.499   2.084   4.476 -0.8029  1.0332 -2.3445
  384MOL0     H52948  10.525   1.900   4.650 -1.1725 -0.6489  0.0695
  384MOL0     H52949  10.566   1.790   4.507  0.8447  0.4041 -1.7408
  384MOL0     H52950  10.836   2.128   4.589  0.5776  0.5106  0.1303
  384MOL0     H52951  11.092   2.165   4.855  2.1674  0.5623 -0.7214
  384MOL0     H52952  10.985   2.251   4.729 -1.3846  0.1520  2.4708
  384MOL0     H52953  11.141   2.169   4.694  0.2401  0.5451  0.5483
  384MOL0     H52954  11.030   2.011   5.187 -0.0066  1.6297  1.2195
  384MOL0     H52955  11.161   2.046   5.392 -2.8509 -2.7329  0.9182
  384MOL0     H52956  11.393   2.127   5.452 -0.2522  1.8701  0.6419
  384MOL0     H52957  11.287   2.061   5.568  0.1313  2.4872  1.1099
  384MOL0     H52958  11.482   1.988   5.726  0.0783  1.3706  1.7461
  384MOL0     H52959  11.583   2.002   5.590  0.3984  0.9558 -1.0445
  384MOL0     H52960  11.579   2.166   5.790  2.5982 -0.8117 -0.2150
  384MOL0     H52961  11.460   2.252   5.682 -0.3134 -0.0909 -1.7356
  384MOL0     H52962  11.714   2.148   5.553 -0.1782  0.0652 -1.3599
  384MOL0     H52963  11.723   2.290   5.670 -2.3693  0.5705  1.7925
  384MOL0     H52964  11.559   2.263   5.421 -0.7008  0.4301 -0.1027
  384MOL0     H52965  11.554   2.395   5.552 -0.6951  1.2761 -3.2082
  384MOL0     H52966  11.750   2.315   5.329 -0.1781 -0.5916  0.8257
  384MOL0     H52967  11.806   2.421   5.468 -0.4839  0.3143  2.8405
  384MOL0     H52968  11.628   2.598   5.404 -1.0866  1.1013 -0.3974
  384MOL0     H52969  11.563   2.473   5.290  0.2323 -1.7214  0.8359
  384MOL0     H52970  11.787   2.492   5.157 -0.0590  1.1958 -0.6367
  384MOL0     H52971  11.841   2.604   5.285  0.3069  1.1067 -0.6327
  384MOL0     H52972  11.429   1.717   5.285  1.6297  1.4627 -0.8216
  384MOL0     H52973  11.283   1.687   5.076 -1.2154 -0.5919 -0.2660
  384MOL0     H52974  10.961   1.693   4.805 -2.6092 -1.4794  0.9747
  384MOL0     H52975  10.788   1.714   4.612 -0.4112  1.4838 -1.9985
  384MOL0     H52976   8.923   1.276   4.604 -0.1060 -0.0717  0.7054
  384MOL0     H52977   8.724   1.410   4.556 -0.1319  0.4904 -0.1729
  384MOL0     H52978   8.572   1.877   4.743 -1.2318 -0.2668  0.9101
  384MOL0     H52979   8.366   2.011   4.737  1.7170  0.6308  0.5499
  384MOL0     H52980   8.189   2.136   4.677 -0.8839  0.2607  0.3239
  384MOL0     H52981   8.321   2.266   4.677 -0.9833  2.0505  0.1247
  384MOL0     H52982   8.175   2.391   4.511  0.9430 -0.1917  0.9499
  384MOL0     H52983   8.101   2.375   4.664  1.8363  0.4306  0.2911
  384MOL0     H52984   8.069   2.149   4.454  2.5007  0.8875  0.5320
  384MOL0     H52985   7.970   2.181   4.593  0.4080 -2.8419 -0.8721
  384MOL0     H52986   7.872   2.236   4.363  1.8915  0.9041 -2.8482
  384MOL0     H52987   7.984   2.373   4.357 -0.1521  0.9554  1.7787
  384MOL0     H52988   7.695   2.524   4.618  0.3953  1.2620  0.7066
  384MOL0     H52989   8.457   2.085   4.321  1.5311 -1.1449  0.0401
  384MOL0     H52990   8.735   1.963   4.294  0.8865  0.1922 -1.2006
  384MOL0     H52991   8.672   1.798   4.272  0.5255  0.1808  0.2770
  384MOL0     H52992   8.578   1.936   4.209  0.2167  0.2109  0.0912
  385MOL0     O52993   4.878  10.426  10.046  0.3344  0.0849  0.1901
  385MOL0     C52994   4.820  10.513  10.110  0.7879 -0.0011  0.3492
  385MOL0     O52995   4.872  10.611  10.183 -0.7284  0.4893 -0.4964
  385MOL0     C52996   4.990  10.676  10.133  1.2020 -0.8251  0.2376
  385MOL0     C52997   5.106  10.687  10.212  1.3871  0.3132  1.2415
  385MOL0     C52998   5.217  10.752  10.160  0.7235  0.5209 -0.1719
  385MOL0     C52999   5.219  10.813  10.034 -0.1039  0.0797  0.7317
  385MOL0     O53000   5.328  10.889  10.002  0.2304 -0.7874 -0.0761
  385MOL0     C53001   5.319  11.024   9.946 -0.1853 -0.4059 -0.3106
  385MOL0     C53002   5.398  11.017   9.819 -0.1467 -0.9942 -0.4304
  385MOL0     C53003   5.327  10.944   9.708  0.0856 -0.7050  0.0316
  385MOL0     C53004   5.374  10.990   9.570 -0.1436 -0.4464  0.0234
  385MOL0     C53005   5.358  10.880   9.466  0.4702  1.3532 -0.4806
  385MOL0     C53006   5.212  10.836   9.453 -0.2374 -0.0684  0.1322
  385MOL0     C53007   5.180  10.725   9.352  0.0357  0.4778  0.0563
  385MOL0     C53008   5.192  10.777   9.213  0.6207  0.2159  0.4864
  385MOL0     N53009   5.057  10.797   9.166 -0.2056 -0.0089 -0.3355
  385MOL0     C53010   4.971  10.694   9.143 -1.0616 -1.1519 -0.6115
  385MOL0     C53011   4.856  10.766   9.115  0.5547  0.4796  0.5304
  385MOL0     C53012   4.722  10.721   9.086  0.2555  0.3752  0.0103
  385MOL0     C53013   4.712  10.640   8.957 -0.0563  0.0142  0.0285
  385MOL0     C53014   4.749  10.701   8.828  1.2724 -0.3853  0.8498
  385MOL0     C53015   4.894  10.727   8.796  0.9042  0.4330 -0.7915
  385MOL0     O53016   4.921  10.711   8.658  0.0557 -0.6145  0.5037
  385MOL0     C53017   5.050  10.753   8.622  0.8808 -0.1505 -0.6333
  385MOL0     C53018   5.145  10.653   8.604  0.4095  0.6479 -0.0207
  385MOL0     C53019   5.273  10.675   8.559 -0.3463 -1.0182  0.1291
  385MOL0     C53020   5.374  10.559   8.538  0.3684 -0.3618 -0.0228
  385MOL0     C53021   5.306  10.814   8.520  0.2258 -1.1238  0.3065
  385MOL0     C53022   5.435  10.855   8.448  0.7156  0.0005 -0.2654
  385MOL0     O53023   5.490  10.972   8.493  0.5952  0.0695  0.5256
  385MOL0     C53024   5.602  11.013   8.435  0.1854 -0.6986 -0.3045
  385MOL0     C53025   5.597  11.138   8.376  0.0245  0.1485 -0.1930
  385MOL0     C53026   5.705  11.191   8.305 -0.5281 -0.7730 -1.1973
  385MOL0     C53027   5.827  11.121   8.296  0.3949 -0.9936  0.5448
  385MOL0     O53028   5.939  11.168   8.237 -0.1500  0.4577 -0.3090
  385MOL0     C53029   5.936  11.298   8.174 -0.3967 -0.4836 -0.4599
  385MOL0     C53030   6.085  11.332   8.153 -0.9653  0.4954  0.5814
  385MOL0     C53031   6.129  11.465   8.089  0.3296  0.9905 -0.1795
  385MOL0     C53032   6.277  11.469   8.066 -0.2328  0.1053  0.8033
  385MOL0     C53033   6.327  11.616   8.046  0.2124  0.8556  0.3502
  385MOL0     C53034   6.259  11.688   7.920 -0.2216 -0.3026 -0.2238
  385MOL0     C53035   6.299  11.646   7.772  0.1665 -0.6309  0.6623
  385MOL0     C53036   6.236  11.740   7.668  0.3548  0.1690  0.0750
  385MOL0    Cl53037   6.061  11.750   7.702  0.5352  0.2250  0.2767
  385MOL0     C53038   5.834  10.993   8.351 -0.0057  0.1100 -0.4745
  385MOL0     C53039   5.715  10.939   8.420  0.0460  1.0482 -0.6073
  385MOL0     O53040   5.462  10.789   8.346 -0.2847 -0.2336 -0.0421
  385MOL0     C53041   5.211  10.917   8.549 -0.6176 -0.6398 -0.5078
  385MOL0     C53042   5.085  10.884   8.596  0.0543 -0.4234  0.5952
  385MOL0     N53043   4.880  10.900   9.130 -0.1597  0.0909  0.7991
  385MOL0     N53044   4.996  10.912   9.175  0.1434 -0.9143  0.2164
  385MOL0     C53045   5.088  10.811   9.955 -0.3533  0.5729 -0.1058
  385MOL0     C53046   4.982  10.734  10.005 -0.2115  0.1992 -0.1793
  385MOL0     C53047   4.678  10.488  10.130 -0.3883  0.6786 -0.6096
  385MOL0     C53048   4.624  10.545  10.245 -0.2977  0.5940  0.8752
  385MOL0     C53049   4.483  10.533  10.263 -0.8445 -0.8908  0.4416
  385MOL0     C53050   4.401  10.465  10.184  0.8039  0.7492 -0.0568
  385MOL0     O53051   4.264  10.477  10.210 -0.4268 -0.8581  0.1453
  385MOL0     C53052   4.174  10.434  10.110  0.8947 -0.5126 -0.0647
  385MOL0     C53053   4.133  10.294  10.136 -0.9927  0.1887 -0.0677
  385MOL0     C53054   4.053  10.223  10.020 -0.0656 -0.0220  1.0129
  385MOL0     C53055   3.902  10.188  10.035  0.4992 -0.3918 -0.4060
  385MOL0     C53056   3.830  10.307   9.988 -0.5808  1.0233  0.2036
  385MOL0     C53057   3.775  10.408   9.959  0.3875 -0.4846 -0.1483
  385MOL0     C53058   4.455  10.396  10.075 -0.4638  0.5629  0.1726
  385MOL0     C53059   4.593  10.406  10.048 -0.0782 -1.1490  0.2177
  385MOL0     C53060   4.638  10.343   9.920 -0.5903 -0.2435 -0.3025
  385MOL0     H53061   5.110  10.646  10.312  1.7964 -0.7316  0.8135
  385MOL0     H53062   5.300  10.748  10.230 -0.1386  1.5587  0.9533
  385MOL0     H53063   5.371  11.092  10.014  0.7141  0.9724 -2.2814
  385MOL0     H53064   5.217  11.056   9.926 -0.5684  0.1826  2.2548
  385MOL0     H53065   5.416  11.122   9.794  1.3442 -0.5468  2.1512
  385MOL0     H53066   5.498  10.980   9.843  1.1639  3.5668  2.4009
  385MOL0     H53067   5.339  10.835   9.715  2.9747 -0.5691 -1.0837
  385MOL0     H53068   5.220  10.964   9.707  0.4198  1.6513  2.3161
  385MOL0     H53069   5.328  11.089   9.556  1.3326  0.4792  1.3803
  385MOL0     H53070   5.482  11.005   9.586 -0.3857 -1.0845  2.7048
  385MOL0     H53071   5.419  10.792   9.490  1.5139  2.9968  3.8330
  385MOL0     H53072   5.380  10.925   9.368 -0.1459  1.5423 -0.5389
  385MOL0     H53073   5.159  10.801   9.542  0.9665  0.5810  1.1291
  385MOL0     H53074   5.153  10.927   9.432  0.1423 -0.1556 -1.4315
  385MOL0     H53075   5.079  10.688   9.372 -0.2099  0.5472 -0.9925
  385MOL0     H53076   5.253  10.644   9.358 -1.0077 -0.5997 -1.1043
  385MOL0     H53077   5.243  10.873   9.220 -0.8407  0.9466  1.6952
  385MOL0     H53078   5.248  10.709   9.148  0.2110 -0.9577  1.3133
  385MOL0     H53079   4.980  10.586   9.136 -0.4408 -1.1939  0.5407
  385MOL0     H53080   4.660  10.811   9.079  0.3445  0.4307 -0.0641
  385MOL0     H53081   4.700  10.658   9.173 -0.2314  0.3414 -0.1379
  385MOL0     H53082   4.774  10.550   8.967  0.6096  0.0554 -2.8081
  385MOL0     H53083   4.608  10.610   8.938 -0.4857  1.0333  0.6650
  385MOL0     H53084   4.715  10.627   8.755  0.5688  0.4923  0.2598
  385MOL0     H53085   4.689  10.789   8.801 -0.2746 -2.2970 -2.6368
  385MOL0     H53086   4.924  10.824   8.836 -0.3068 -0.1463  1.6724
  385MOL0     H53087   4.953  10.646   8.840  0.8522 -0.1769 -1.8021
  385MOL0     H53088   5.114  10.556   8.640  0.2355  1.2013  1.3692
  385MOL0     H53089   5.384  10.524   8.434  1.6893 -1.1936  0.3597
  385MOL0     H53090   5.337  10.472   8.592  1.8885 -1.5010 -0.7063
  385MOL0     H53091   5.468  10.585   8.588  0.8881 -0.0799 -1.0894
  385MOL0     H53092   5.499  11.185   8.377 -0.2634 -0.4465 -0.1750
  385MOL0     H53093   5.702  11.287   8.255  0.6832  1.5831  2.8149
  385MOL0     H53094   5.903  11.295   8.069  3.1560 -0.2264 -1.7119
  385MOL0     H53095   5.896  11.385   8.227 -0.2501  1.0071 -2.6436
  385MOL0     H53096   6.143  11.330   8.245  2.0211  2.4583 -1.1009
  385MOL0     H53097   6.132  11.251   8.097 -2.2243 -1.0094  1.6050
  385MOL0     H53098   6.107  11.547   8.159  2.0182  0.5684  0.9090
  385MOL0     H53099   6.083  11.480   7.991  0.2869  2.0311 -0.0098
  385MOL0     H53100   6.291  11.414   7.972 -0.8351 -0.1652  0.8626
  385MOL0     H53101   6.336  11.421   8.144 -0.4517  0.7874  1.3930
  385MOL0     H53102   6.301  11.672   8.137 -1.5676  0.2239  0.2580
  385MOL0     H53103   6.437  11.616   8.043  0.3041 -2.7552  0.0529
  385MOL0     H53104   6.285  11.794   7.927 -1.3331  0.2290 -2.9920
  385MOL0     H53105   6.151  11.674   7.935 -0.6104  0.2313 -2.2768
  385MOL0     H53106   6.269  11.547   7.738  1.7893 -0.8353 -0.3121
  385MOL0     H53107   6.408  11.653   7.768  0.1130 -0.0433 -1.9025
  385MOL0     H53108   6.257  11.716   7.563  0.2813 -1.5454  0.4125
  385MOL0     H53109   6.277  11.840   7.678  0.7530 -0.0844  1.0473
  385MOL0     H53110   5.924  10.936   8.329 -1.0376 -2.3013  1.1260
  385MOL0     H53111   5.719  10.834   8.447  2.9449  1.1086 -0.5720
  385MOL0     H53112   5.233  11.021   8.524  1.2225 -1.0429 -0.7589
  385MOL0     H53113   5.011  10.961   8.616 -1.7342 -2.4775  2.5220
  385MOL0     H53114   5.077  10.853   9.855 -1.1620  0.4237 -0.0835
  385MOL0     H53115   4.890  10.701   9.956 -0.6881 -0.3525  1.0435
  385MOL0     H53116   4.684  10.600  10.317  0.4253 -2.5558  2.9240
  385MOL0     H53117   4.429  10.602  10.328 -0.5016  0.5564 -0.7724
  385MOL0     H53118   4.088  10.501  10.111  1.4705  0.2383  1.3018
  385MOL0     H53119   4.209  10.448  10.008 -0.9512 -3.9180 -1.3467
  385MOL0     H53120   4.083  10.289  10.233  0.0099 -0.5054  0.4292
  385MOL0     H53121   4.227  10.243  10.157  1.0470  4.0830  1.2987
  385MOL0     H53122   4.061  10.280   9.928 -2.1171 -0.4831  0.5083
  385MOL0     H53123   4.113  10.132  10.003  0.1746  0.4587 -0.9205
  385MOL0     H53124   3.881  10.189  10.142 -1.2806 -0.0407 -0.7300
  385MOL0     H53125   3.876  10.096   9.981 -5.3844 -0.5922  2.0830
  385MOL0     H53126   3.730  10.505   9.949  1.3941 -0.0597 -0.6166
  385MOL0     H53127   4.392  10.351  10.000  1.5755  0.1731 -1.3971
  385MOL0     H53128   4.682  10.422   9.859 -0.0883 -1.3342 -1.4025
  385MOL0     H53129   4.711  10.262   9.931 -1.3336 -0.9355 -0.3798
  385MOL0     H53130   4.554  10.304   9.862 -0.5512 -3.1453  1.3708
  386MOL0     O53131   7.729   6.208   8.990 -0.1039  0.3864 -0.1230
  386MOL0     C53132   7.747   6.285   9.083 -0.4541  0.4631  1.4448
  386MOL0     O53133   7.818   6.263   9.198 -0.4393 -0.8463  0.7400
  386MOL0     C53134   7.943   6.208   9.176 -0.2924  0.0765  0.3715
  386MOL0     C53135   8.002   6.129   9.273 -0.5281  0.0253 -0.1917
  386MOL0     C53136   8.129   6.066   9.245  0.2552 -0.5961  0.0958
  386MOL0     C53137   8.192   6.079   9.120  0.0410 -0.3165  0.0273
  386MOL0     O53138   8.301   6.007   9.092  0.1904  0.4750 -0.2787
  386MOL0     C53139   8.383   6.062   8.998 -0.8197  0.6871 -0.0771
  386MOL0     C53140   8.370   6.002   8.859  0.0728  0.2388 -0.4620
  386MOL0     C53141   8.489   6.038   8.763 -0.5014  0.5857 -0.0679
  386MOL0     C53142   8.473   5.983   8.620 -0.9206  0.6210  0.1988
  386MOL0     C53143   8.608   5.997   8.548  0.1682 -0.2454 -0.3898
  386MOL0     C53144   8.720   5.887   8.578 -0.0232 -0.2323  0.3355
  386MOL0     C53145   8.851   5.925   8.510 -0.6480 -0.4161 -0.3766
  386MOL0     C53146   8.975   5.835   8.537 -0.2931 -0.4881  1.1139
  386MOL0     N53147   9.040   5.882   8.662 -0.3273 -0.0199 -0.3695
  386MOL0     C53148   9.007   5.847   8.799 -0.8040 -0.4770  0.3039
  386MOL0     C53149   9.087   5.927   8.870  0.5695 -0.3530 -0.2599
  386MOL0     C53150   9.084   5.919   9.022 -0.5812  0.5305  0.4072
  386MOL0     C53151   9.120   5.776   9.065 -0.1808 -0.1918  0.4372
  386MOL0     C53152   9.117   5.761   9.215 -0.5161  0.3645  0.0783
  386MOL0     C53153   9.204   5.645   9.264  0.8835 -0.0904 -0.0200
  386MOL0     O53154   9.340   5.682   9.239  0.4902  0.7235  0.1689
  386MOL0     C53155   9.421   5.615   9.158  0.6205  0.4865 -0.4140
  386MOL0     C53156   9.409   5.490   9.098  0.8514  0.6232 -1.0763
  386MOL0     C53157   9.512   5.416   9.032  0.3051  0.2641 -0.0127
  386MOL0     C53158   9.474   5.276   8.991 -0.1664  0.0367 -0.3196
  386MOL0     C53159   9.634   5.487   9.005 -0.6637  0.2251  0.3712
  386MOL0     C53160   9.760   5.414   8.948  0.5062 -0.9908  0.0116
  386MOL0     O53161   9.861   5.498   8.914  0.0609 -0.1483  0.4027
  386MOL0     C53162   9.988   5.467   8.945  0.0950  0.5513 -0.5241
  386MOL0     C53163  10.049   5.338   8.975  0.2539 -0.8313 -0.0654
  386MOL0     C53164  10.185   5.320   9.003 -0.2727  0.2577  0.1038
  386MOL0     C53165  10.272   5.433   8.992  0.6064 -1.2288  1.0141
  386MOL0     O53166  10.410   5.418   9.020 -0.0319  0.1921 -0.7293
  386MOL0     C53167  10.505   5.517   8.972 -0.3182  0.6464 -0.2255
  386MOL0     C53168  10.644   5.455   8.990  0.0989  0.0561  0.4219
  386MOL0     C53169  10.677   5.341   8.899  0.8742  0.2738  0.0376
  386MOL0     C53170  10.832   5.347   8.857  0.8963 -0.9380  0.5531
  386MOL0     C53171  10.857   5.455   8.758  0.6677 -0.2576 -0.4243
  386MOL0     C53172  11.005   5.456   8.718 -0.0537 -0.1530  0.5442
  386MOL0     C53173  11.111   5.472   8.820 -0.1662 -0.2673 -0.0029
  386MOL0     C53174  11.213   5.589   8.792 -0.1357 -0.6566 -0.0416
  386MOL0    Cl53175  11.309   5.636   8.941 -0.4659 -0.4232  0.4607
  386MOL0     C53176  10.217   5.556   8.940 -0.3248 -0.4871 -0.1213
  386MOL0     C53177  10.079   5.566   8.923 -0.3955 -0.4395 -0.2815
  386MOL0     O53178   9.754   5.299   8.920 -0.7085 -0.1366  0.3754
  386MOL0     C53179   9.647   5.618   9.062 -0.5279 -0.0872  0.4525
  386MOL0     C53180   9.549   5.679   9.134  0.0464 -0.5528  0.0278
  386MOL0     N53181   9.159   6.013   8.787 -0.3770  0.0339 -0.5320
  386MOL0     N53182   9.135   5.982   8.661  0.1558 -0.0279 -0.1981
  386MOL0     C53183   8.125   6.163   9.026 -1.2676  0.0315 -0.7423
  386MOL0     C53184   8.006   6.221   9.053  0.1819 -0.3184 -0.0295
  386MOL0     C53185   7.652   6.405   9.086 -0.0907  0.6523  0.4065
  386MOL0     C53186   7.612   6.453   9.218  0.4113  0.1978 -0.2075
  386MOL0     C53187   7.521   6.561   9.226 -0.1508 -0.8548 -0.5356
  386MOL0     C53188   7.465   6.615   9.108 -0.5979 -0.3880  0.4096
  386MOL0     O53189   7.385   6.725   9.134 -0.5078  0.1184  0.2006
  386MOL0     C53190   7.293   6.763   9.036 -0.2098  0.1797  0.1924
  386MOL0     C53191   7.173   6.825   9.109 -0.1691  0.4999 -0.7360
  386MOL0     C53192   7.094   6.729   9.206  0.2044 -0.1732 -0.1410
  386MOL0     C53193   7.060   6.593   9.156 -0.0243  0.1724  0.8202
  386MOL0     C53194   6.980   6.516   9.247  0.5768 -0.4398  0.8800
  386MOL0     C53195   6.908   6.436   9.304 -0.6347 -0.2030  0.0851
  386MOL0     C53196   7.503   6.575   8.977  0.0235  0.2605  0.5341
  386MOL0     C53197   7.599   6.465   8.965  0.2324  0.2427  0.9271
  386MOL0     C53198   7.610   6.410   8.825  0.5798  0.2678  0.3617
  386MOL0     H53199   7.949   6.132   9.367 -2.5150  0.8348 -1.2765
  386MOL0     H53200   8.175   6.005   9.322 -2.6246 -0.8288  1.7962
  386MOL0     H53201   8.480   6.033   9.039 -0.1345  3.1223  0.1808
  386MOL0     H53202   8.391   6.169   8.981  0.7462  0.2517 -2.5794
  386MOL0     H53203   8.369   5.893   8.863 -2.0781  0.2401  2.5980
  386MOL0     H53204   8.278   6.042   8.813  1.8773  0.3165 -4.4471
  386MOL0     H53205   8.502   6.147   8.760  1.5911  0.3620 -0.9282
  386MOL0     H53206   8.577   5.992   8.808  1.0567  1.2353 -2.2637
  386MOL0     H53207   8.439   5.879   8.624 -2.2293  0.9588 -1.2097
  386MOL0     H53208   8.394   6.034   8.565  1.0494  2.5422 -0.9845
  386MOL0     H53209   8.651   6.096   8.562 -0.6227  0.1023 -0.3590
  386MOL0     H53210   8.583   5.990   8.442  1.9439 -1.1723 -0.7929
  386MOL0     H53211   8.735   5.876   8.686 -4.1220 -2.3019  0.9042
  386MOL0     H53212   8.690   5.789   8.541 -2.0597 -0.1431  1.5821
  386MOL0     H53213   8.874   6.028   8.540 -0.7358 -1.1358  2.4479
  386MOL0     H53214   8.837   5.908   8.403 -0.7106 -3.3181  0.0200
  386MOL0     H53215   8.950   5.729   8.537  0.3105 -0.6363  0.3902
  386MOL0     H53216   9.048   5.849   8.457 -0.2568 -4.2801  0.2901
  386MOL0     H53217   8.922   5.795   8.841 -1.5126  2.5661  3.0609
  386MOL0     H53218   8.984   5.937   9.060 -1.3351 -4.0127  1.1845
  386MOL0     H53219   9.159   5.989   9.059  0.3855 -0.5124  0.4751
  386MOL0     H53220   9.057   5.698   9.022 -2.9411  1.2904  1.5651
  386MOL0     H53221   9.219   5.763   9.021 -0.4539  1.7685 -0.8669
  386MOL0     H53222   9.137   5.858   9.264 -2.0103  0.3868  0.6803
  386MOL0     H53223   9.020   5.732   9.257 -0.3953  0.1442  0.2107
  386MOL0     H53224   9.204   5.620   9.370 -0.7742  0.5846  0.1636
  386MOL0     H53225   9.169   5.554   9.214  0.9895  0.0285 -0.3133
  386MOL0     H53226   9.315   5.436   9.104  0.3111  1.5614 -0.8001
  386MOL0     H53227   9.369   5.254   9.014  0.4275 -0.8304  1.8339
  386MOL0     H53228   9.533   5.207   9.052 -1.2354 -0.5750  0.0535
  386MOL0     H53229   9.494   5.275   8.884 -0.8055 -0.0449 -0.4448
  386MOL0     H53230   9.988   5.249   8.976 -3.6732  1.5962 -0.4452
  386MOL0     H53231  10.229   5.223   9.025 -1.7813 -0.3779  0.4867
  386MOL0     H53232  10.494   5.539   8.866  4.6918  0.1932 -1.0833
  386MOL0     H53233  10.489   5.607   9.031 -1.4432 -0.2249  0.8398
  386MOL0     H53234  10.713   5.537   8.968  2.4870 -1.6986  0.9693
  386MOL0     H53235  10.655   5.426   9.095 -1.2015  0.3277  0.6628
  386MOL0     H53236  10.610   5.353   8.813  2.3672 -0.0800 -1.2089
  386MOL0     H53237  10.652   5.244   8.942 -1.9804  0.8138 -0.1838
  386MOL0     H53238  10.865   5.255   8.808  2.1258  0.7201 -1.8810
  386MOL0     H53239  10.895   5.362   8.946 -0.8822  0.2525  1.6839
  386MOL0     H53240  10.784   5.438   8.678  1.6127 -1.2137 -1.1062
  386MOL0     H53241  10.830   5.550   8.806  1.4807 -0.2737  0.0785
  386MOL0     H53242  11.021   5.527   8.636 -0.4253  0.9231  1.3854
  386MOL0     H53243  11.009   5.357   8.672 -2.3975 -0.5704  1.1001
  386MOL0     H53244  11.182   5.389   8.821 -1.4564 -1.4342 -1.2506
  386MOL0     H53245  11.066   5.471   8.920  0.4997 -3.9857  0.3947
  386MOL0     H53246  11.153   5.673   8.754 -0.0626  0.0850  1.4075
  386MOL0     H53247  11.288   5.563   8.718 -0.1814 -2.1392  0.4049
  386MOL0     H53248  10.280   5.637   8.904 -0.9701 -1.4481 -3.8232
  386MOL0     H53249  10.049   5.663   8.884  2.2746  0.0230 -1.4455
  386MOL0     H53250   9.747   5.659   9.074 -0.6467  0.7188 -0.9847
  386MOL0     H53251   9.572   5.775   9.179 -1.0029  1.1355 -2.6928
  386MOL0     H53252   8.168   6.170   8.926  2.6748 -2.0337  0.5806
  386MOL0     H53253   7.977   6.280   8.967  1.2076  2.4232  1.3847
  386MOL0     H53254   7.661   6.408   9.303  0.8306  0.8291 -0.1168
  386MOL0     H53255   7.494   6.590   9.327  3.4501 -2.1733  0.9729
  386MOL0     H53256   7.341   6.834   8.968 -1.0143  2.0751  1.5148
  386MOL0     H53257   7.261   6.672   8.984  0.7562 -0.9956  1.5535
  386MOL0     H53258   7.112   6.867   9.028 -0.9519 -0.7935 -0.8460
  386MOL0     H53259   7.210   6.909   9.168 -0.9504 -0.4881  1.2443
  386MOL0     H53260   7.151   6.716   9.299 -1.2042 -1.5676  0.5875
  386MOL0     H53261   6.997   6.763   9.241  0.8089  0.5486  0.8944
  386MOL0     H53262   7.155   6.541   9.145  0.7461  1.9513 -2.0102
  386MOL0     H53263   7.013   6.599   9.057  2.9868  3.3701 -0.6236
  386MOL0     H53264   6.851   6.360   9.354 -1.0781 -0.3496 -0.6308
  386MOL0     H53265   7.453   6.609   8.887 -0.2420 -0.4158  0.4177
  386MOL0     H53266   7.564   6.312   8.806  0.0652  0.7608 -1.0489
  386MOL0     H53267   7.567   6.480   8.753  1.4261  0.8800  0.4268
  386MOL0     H53268   7.713   6.388   8.795 -0.2271 -1.2627 -1.5479
  387MOL0     O53269   1.859   6.630   4.474  0.1560  0.3971 -0.2915
  387MOL0     C53270   1.809   6.614   4.583 -0.0253  0.3527 -0.4908
  387MOL0     O53271   1.872   6.642   4.703  0.4946  0.6990 -0.4243
  387MOL0     C53272   1.991   6.712   4.719 -0.0133  0.2518  0.6088
  387MOL0     C53273   2.071   6.773   4.615  0.6758 -0.3562  0.5103
  387MOL0     C53274   2.196   6.830   4.637 -1.0655  0.1444 -0.4193
  387MOL0     C53275   2.246   6.827   4.767 -0.3964 -0.3667 -0.2284
  387MOL0     O53276   2.369   6.873   4.786  0.5558 -0.0305  0.8049
  387MOL0     C53277   2.375   7.005   4.837 -0.7255 -0.3815  0.9362
  387MOL0     C53278   2.368   7.102   4.717 -0.7758 -0.6506 -0.5290
  387MOL0     C53279   2.484   7.110   4.615  0.0912 -0.7329  0.3653
  387MOL0     C53280   2.615   7.165   4.657 -0.3896  0.1462 -0.8945
  387MOL0     C53281   2.698   7.219   4.540  0.4121 -0.7973  0.5814
  387MOL0     C53282   2.826   7.275   4.605 -0.2555  0.7637 -0.2170
  387MOL0     C53283   2.942   7.308   4.498  0.4458  0.1551 -0.0997
  387MOL0     C53284   3.075   7.271   4.543  0.2814  0.0178 -0.3311
  387MOL0     N53285   3.135   7.369   4.640  0.2353  0.3014 -0.9137
  387MOL0     C53286   3.173   7.498   4.618  0.1746 -0.1327  0.1605
  387MOL0     C53287   3.222   7.546   4.729 -0.5281  0.2517  0.3227
  387MOL0     C53288   3.269   7.690   4.739 -0.0035 -0.5639 -0.7484
  387MOL0     C53289   3.422   7.700   4.780  0.9642  0.1764  1.2668
  387MOL0     C53290   3.519   7.685   4.655 -0.0088  0.1705 -0.0878
  387MOL0     C53291   3.659   7.692   4.697  0.5441 -0.5651  1.0097
  387MOL0     O53292   3.680   7.584   4.796 -0.6485 -0.2408 -0.3879
  387MOL0     C53293   3.793   7.599   4.872 -0.7441  0.4577 -0.2148
  387MOL0     C53294   3.825   7.496   4.960 -0.6617 -0.5533  0.7770
  387MOL0     C53295   3.934   7.501   5.042  0.6202  0.6433  0.8600
  387MOL0     C53296   3.972   7.377   5.122 -0.1266  0.5131  0.6137
  387MOL0     C53297   4.029   7.610   5.039  0.3026 -0.0614 -0.1241
  387MOL0     C53298   4.163   7.616   5.099 -0.7672  0.0546  0.6298
  387MOL0     O53299   4.252   7.704   5.037 -0.3320 -0.6040  0.3864
  387MOL0     C53300   4.370   7.709   5.100 -1.1549  0.1240  0.2017
  387MOL0     C53301   4.462   7.607   5.079  0.2443  0.7947  0.3376
  387MOL0     C53302   4.591   7.605   5.137  0.4782  0.3434  0.3344
  387MOL0     C53303   4.627   7.712   5.220 -0.1887 -0.9188  0.6474
  387MOL0     O53304   4.765   7.719   5.260  0.5415  0.2525  0.1839
  387MOL0     C53305   4.803   7.832   5.340  0.4020  0.4901  0.0137
  387MOL0     C53306   4.943   7.822   5.394  1.1981 -0.0887  0.7265
  387MOL0     C53307   4.940   7.723   5.507 -0.0099  0.6858 -0.4779
  387MOL0     C53308   5.080   7.697   5.568 -0.5957 -0.4857 -0.1689
  387MOL0     C53309   5.124   7.791   5.681  1.4605 -0.0398  0.4225
  387MOL0     C53310   5.280   7.818   5.699  0.4579 -0.0106  0.2247
  387MOL0     C53311   5.335   7.906   5.594  0.0675 -0.6516 -0.3013
  387MOL0     C53312   5.484   7.883   5.596 -0.4369  0.1777  0.5752
  387MOL0    Cl53313   5.558   7.972   5.743  0.2244 -0.2180  0.1606
  387MOL0     C53314   4.538   7.813   5.238  0.5063 -0.3355 -0.7098
  387MOL0     C53315   4.413   7.822   5.179  0.2026  0.6688  1.0909
  387MOL0     O53316   4.194   7.558   5.197 -0.1058 -0.2326 -0.0740
  387MOL0     C53317   3.997   7.707   4.942 -0.6997 -0.7666 -1.3820
  387MOL0     C53318   3.888   7.706   4.861 -0.8136  0.0317 -0.0080
  387MOL0     N53319   3.218   7.442   4.828 -0.5872  0.0288 -0.9405
  387MOL0     N53320   3.166   7.337   4.775  0.7510  0.8340 -0.9030
  387MOL0     C53321   2.177   6.757   4.868  0.5380 -0.4308 -0.1650
  387MOL0     C53322   2.056   6.701   4.840 -0.3749  0.0856  0.0909
  387MOL0     C53323   1.674   6.554   4.594  0.1774  0.2303 -0.1429
  387MOL0     C53324   1.604   6.569   4.715 -0.0702 -0.8946 -0.4209
  387MOL0     C53325   1.479   6.512   4.741  0.3436 -0.7259 -0.1413
  387MOL0     C53326   1.412   6.447   4.636 -0.4805 -0.6431  0.2354
  387MOL0     O53327   1.281   6.388   4.640 -0.4545 -0.3867 -0.3720
  387MOL0     C53328   1.206   6.429   4.757 -0.6550 -0.9768 -0.0671
  387MOL0     C53329   1.233   6.346   4.887  0.5858 -0.3563 -0.4321
  387MOL0     C53330   1.227   6.191   4.867  0.6334  0.6667 -0.0850
  387MOL0     C53331   1.196   6.108   4.996 -0.0639 -0.6230 -0.0622
  387MOL0     C53332   1.084   6.172   5.066 -0.1574 -0.9053  0.1759
  387MOL0     C53333   1.000   6.219   5.136 -0.9532 -0.5616  0.0274
  387MOL0     C53334   1.479   6.440   4.511 -0.1657 -0.8220  0.1394
  387MOL0     C53335   1.607   6.488   4.490  0.3695  0.6594  0.7129
  387MOL0     C53336   1.671   6.456   4.349 -0.1238  0.6979 -1.0508
  387MOL0     H53337   2.040   6.772   4.511 -2.5771  0.5904  1.3559
  387MOL0     H53338   2.261   6.882   4.567  2.3981  0.1644  2.5187
  387MOL0     H53339   2.467   7.016   4.895  1.1333 -0.0340 -1.8822
  387MOL0     H53340   2.289   7.032   4.900 -3.4180 -0.6868 -2.3558
  387MOL0     H53341   2.271   7.093   4.667 -0.3774  0.7512 -1.6256
  387MOL0     H53342   2.372   7.194   4.777 -0.2883 -0.3230 -1.0492
  387MOL0     H53343   2.496   7.016   4.560  1.3346  0.9584 -2.4475
  387MOL0     H53344   2.443   7.175   4.537 -1.5262 -2.6204 -0.4605
  387MOL0     H53345   2.590   7.245   4.727 -3.6188 -1.0109 -0.5543
  387MOL0     H53346   2.667   7.085   4.711 -1.5286 -0.2206 -0.3115
  387MOL0     H53347   2.654   7.299   4.480  3.2155 -0.9970 -1.9586
  387MOL0     H53348   2.717   7.137   4.471 -3.7814 -0.8205 -0.8158
  387MOL0     H53349   2.807   7.376   4.643 -0.7335  0.2003  1.0833
  387MOL0     H53350   2.865   7.204   4.678 -1.1573  2.0661  1.6118
  387MOL0     H53351   2.943   7.412   4.464  2.0866  0.6208  1.2576
  387MOL0     H53352   2.925   7.240   4.414 -1.5441  0.9311 -0.3869
  387MOL0     H53353   3.079   7.171   4.586 -1.7088 -0.1383 -0.4438
  387MOL0     H53354   3.144   7.265   4.459  0.7956 -1.0571  0.1460
  387MOL0     H53355   3.177   7.545   4.521  0.8397 -1.6538 -0.5847
  387MOL0     H53356   3.202   7.742   4.808 -2.9656 -1.0432 -3.0439
  387MOL0     H53357   3.253   7.735   4.641  1.0664  1.0038 -0.2400
  387MOL0     H53358   3.439   7.799   4.823 -0.3622  1.0543 -0.0963
  387MOL0     H53359   3.442   7.624   4.856  1.2294 -3.5379 -2.1710
  387MOL0     H53360   3.487   7.591   4.609  1.1722 -0.2414 -0.0993
  387MOL0     H53361   3.514   7.763   4.579  2.1289  1.8354  1.3726
  387MOL0     H53362   3.730   7.686   4.613  0.7011 -0.9772  1.1675
  387MOL0     H53363   3.678   7.788   4.746 -1.2711  0.6023 -0.4435
  387MOL0     H53364   3.766   7.405   4.963 -1.4155 -0.1133 -0.2224
  387MOL0     H53365   3.886   7.308   5.122 -0.6922  1.1941  1.3482
  387MOL0     H53366   3.997   7.401   5.226  2.8595 -3.7777  1.1353
  387MOL0     H53367   4.057   7.317   5.090 -0.8776 -0.5588  0.5593
  387MOL0     H53368   4.427   7.526   5.017 -1.9732  1.2810  0.8881
  387MOL0     H53369   4.660   7.523   5.119  0.7481  0.0030  2.6806
  387MOL0     H53370   4.804   7.914   5.268 -1.1610  0.9116  0.4249
  387MOL0     H53371   4.737   7.845   5.426  0.0131 -1.0427 -0.0189
  387MOL0     H53372   5.007   7.787   5.312 -1.7546  0.2250 -1.8871
  387MOL0     H53373   4.966   7.920   5.437 -3.7234  1.8807 -0.3876
  387MOL0     H53374   4.893   7.631   5.473  0.6844 -0.0568  0.5086
  387MOL0     H53375   4.875   7.768   5.582 -1.0730 -1.6863  0.0939
  387MOL0     H53376   5.157   7.723   5.495 -2.0365  0.1772 -1.5344
  387MOL0     H53377   5.091   7.591   5.590  3.0206  0.4012  3.6509
  387MOL0     H53378   5.078   7.888   5.658  0.1542 -0.5907  0.6087
  387MOL0     H53379   5.074   7.767   5.775  1.5296  3.3117  1.4511
  387MOL0     H53380   5.332   7.722   5.708 -0.5385 -0.4255  2.3726
  387MOL0     H53381   5.301   7.865   5.796 -0.0967 -3.0837  1.9743
  387MOL0     H53382   5.310   8.006   5.631  1.2110  0.7585 -3.0000
  387MOL0     H53383   5.283   7.890   5.498 -0.9272  3.5391 -0.6842
  387MOL0     H53384   5.520   7.930   5.504 -1.1808 -1.1049 -0.4033
  387MOL0     H53385   5.511   7.777   5.591 -0.2800  0.1424  1.7424
  387MOL0     H53386   4.568   7.895   5.304 -2.2750 -1.0328  1.6392
  387MOL0     H53387   4.342   7.903   5.195 -3.0853 -1.6589 -0.4717
  387MOL0     H53388   4.063   7.790   4.920  2.3068 -2.2114  1.3186
  387MOL0     H53389   3.873   7.789   4.792 -1.9895 -0.4111 -0.3099
  387MOL0     H53390   2.221   6.757   4.967  0.6504 -1.1861 -0.2085
  387MOL0     H53391   2.020   6.647   4.927  2.1272  2.5903  2.9274
  387MOL0     H53392   1.660   6.619   4.793 -0.2065 -2.5485  0.8092
  387MOL0     H53393   1.436   6.518   4.841  0.0793  0.2152 -0.2965
  387MOL0     H53394   1.222   6.534   4.781 -2.3297 -1.0845  1.7720
  387MOL0     H53395   1.099   6.420   4.734 -0.7734  1.1963 -0.5525
  387MOL0     H53396   1.159   6.381   4.959  1.7326  1.0283  0.1445
  387MOL0     H53397   1.329   6.378   4.931  0.1098 -0.9584  1.1066
  387MOL0     H53398   1.150   6.177   4.792  0.4097  1.4754 -0.0146
  387MOL0     H53399   1.320   6.159   4.820 -1.3637 -2.7682 -2.0628
  387MOL0     H53400   1.290   6.111   5.052  0.1858 -0.0166 -0.5028
  387MOL0     H53401   1.170   6.004   4.971 -2.7820  0.5511 -2.7843
  387MOL0     H53402   0.921   6.274   5.184 -0.4989 -0.9581  1.2906
  387MOL0     H53403   1.417   6.379   4.445 -2.2110 -0.6174  1.7387
  387MOL0     H53404   1.769   6.413   4.373  0.5406  2.3217 -0.6888
  387MOL0     H53405   1.611   6.380   4.299 -1.0119  0.8913 -0.3055
  387MOL0     H53406   1.682   6.537   4.277  3.9124  0.5135 -0.8583
  388MOL0     O53407   1.465   6.933   2.197 -0.4381  0.2123  0.3405
  388MOL0     C53408   1.397   6.883   2.285 -0.0992 -0.3824  0.9887
  388MOL0     O53409   1.433   6.782   2.362 -0.8824  0.3997  0.0813
  388MOL0     C53410   1.564   6.742   2.342  0.0102 -0.0154 -0.8257
  388MOL0     C53411   1.597   6.618   2.284  0.7605 -0.1258 -0.0650
  388MOL0     C53412   1.728   6.567   2.299  0.3573  0.1613  0.0399
  388MOL0     C53413   1.810   6.631   2.383 -0.8221 -0.2991 -1.1146
  388MOL0     O53414   1.930   6.566   2.394  0.6414 -0.2705  0.3623
  388MOL0     C53415   2.041   6.641   2.453  0.2817 -0.0675  0.7365
  388MOL0     C53416   2.171   6.574   2.449  0.5772 -0.3541 -0.5129
  388MOL0     C53417   2.214   6.543   2.308 -0.8684  0.2986 -0.2378
  388MOL0     C53418   2.330   6.443   2.295  0.5040 -0.3928  0.2168
  388MOL0     C53419   2.336   6.386   2.156 -0.4152  0.0007 -0.2874
  388MOL0     C53420   2.455   6.284   2.136 -0.0133 -0.4184 -0.6747
  388MOL0     C53421   2.469   6.233   1.994 -0.4294 -0.5381 -0.4737
  388MOL0     C53422   2.484   6.350   1.899 -0.3417  0.6803  0.0805
  388MOL0     N53423   2.597   6.444   1.928 -0.6157 -0.0746 -0.3083
  388MOL0     C53424   2.624   6.534   2.032 -0.6733 -1.7925  0.4514
  388MOL0     C53425   2.746   6.578   2.012 -0.3337  0.0784  0.3433
  388MOL0     C53426   2.835   6.680   2.088  0.9496 -1.0137 -0.2038
  388MOL0     C53427   2.956   6.608   2.153 -0.2771  0.0117 -0.3838
  388MOL0     C53428   3.051   6.535   2.056 -0.0834 -0.0663 -0.2305
  388MOL0     C53429   3.045   6.385   2.079 -0.4592 -1.2433  0.2287
  388MOL0     O53430   3.086   6.356   2.213 -0.5193 -0.5458  0.5272
  388MOL0     C53431   3.222   6.326   2.228 -0.4169 -0.3395  0.2854
  388MOL0     C53432   3.256   6.255   2.342 -0.2406 -0.0578 -0.6148
  388MOL0     C53433   3.385   6.211   2.364 -0.5226  0.8223 -0.1045
  388MOL0     C53434   3.397   6.114   2.482  0.3122 -0.5655  0.7515
  388MOL0     C53435   3.491   6.240   2.271  1.1162 -0.2896  0.7615
  388MOL0     C53436   3.634   6.200   2.288 -0.5858  0.1737  0.1538
  388MOL0     O53437   3.720   6.287   2.238  0.2946  0.6185  0.4986
  388MOL0     C53438   3.854   6.256   2.257  0.2478  0.2761 -0.0005
  388MOL0     C53439   3.915   6.288   2.382 -1.2829 -0.3829 -0.6070
  388MOL0     C53440   4.055   6.286   2.383  0.0928 -0.1802 -0.6021
  388MOL0     C53441   4.137   6.229   2.280 -0.0250 -1.2920  1.3794
  388MOL0     O53442   4.265   6.208   2.300 -0.0373 -0.2437  0.0619
  388MOL0     C53443   4.324   6.090   2.232 -1.3466  0.2284 -0.9995
  388MOL0     C53444   4.474   6.074   2.282  0.0343  0.2448  1.0009
  388MOL0     C53445   4.538   5.952   2.224  0.2300 -0.3032 -0.0292
  388MOL0     C53446   4.663   5.921   2.297  0.5973 -0.2229 -0.5711
  388MOL0     C53447   4.784   5.992   2.226 -0.1306 -0.0540 -0.2434
  388MOL0     C53448   4.911   5.942   2.294  0.1929 -0.3055  0.1731
  388MOL0     C53449   5.023   6.055   2.271  0.3343  1.0341 -0.1432
  388MOL0     C53450   5.159   5.987   2.265  0.0603 -0.2225 -0.6736
  388MOL0    Cl53451   5.177   5.853   2.384  0.1887  0.4709  0.3164
  388MOL0     C53452   4.070   6.189   2.167  1.3831 -0.4133  0.9534
  388MOL0     C53453   3.933   6.211   2.147  0.5742  0.7539  0.2665
  388MOL0     O53454   3.659   6.093   2.338 -0.3336 -0.2380 -0.8323
  388MOL0     C53455   3.456   6.317   2.159  0.8152  0.0531 -0.1156
  388MOL0     C53456   3.324   6.357   2.138  0.1772 -0.1700 -0.3081
  388MOL0     N53457   2.791   6.521   1.897 -0.1878  0.6689 -0.1179
  388MOL0     N53458   2.710   6.433   1.852 -0.0658 -0.2371 -0.1832
  388MOL0     C53459   1.781   6.753   2.439  0.1230 -0.4778 -0.5278
  388MOL0     C53460   1.655   6.808   2.417  0.5356  0.6634  0.0500
  388MOL0     C53461   1.259   6.919   2.288 -0.1846 -0.4645  0.3729
  388MOL0     C53462   1.178   6.885   2.403 -0.8864 -0.2677  0.0885
  388MOL0     C53463   1.042   6.894   2.407 -0.2495  0.8408 -0.4574
  388MOL0     C53464   0.975   6.958   2.303  0.2712 -0.6315 -0.0865
  388MOL0     O53465   0.844   6.999   2.303 -0.6293  0.1229 -0.5779
  388MOL0     C53466   0.756   6.927   2.392 -0.0772 -1.1787 -0.2093
  388MOL0     C53467   0.718   6.790   2.351  0.1894  0.2800 -0.1444
  388MOL0     C53468   0.627   6.721   2.452 -0.0290 -0.1319  0.5254
  388MOL0     C53469   0.549   6.589   2.401  1.1221 -0.2841 -0.7041
  388MOL0     C53470   0.637   6.472   2.379  1.3885 -0.2589  0.2215
  388MOL0     C53471   0.715   6.386   2.347 -1.1581 -0.5546  0.3191
  388MOL0     C53472   1.054   7.007   2.203  0.9953  0.4477  0.2919
  388MOL0     C53473   1.186   6.980   2.187  0.9718  0.6638 -0.6163
  388MOL0     C53474   1.231   7.023   2.053  0.6220 -0.3192  0.7602
  388MOL0     H53475   1.524   6.573   2.218  1.5708  0.1210 -1.1481
  388MOL0     H53476   1.762   6.492   2.228 -1.3387  2.5366 -3.5199
  388MOL0     H53477   2.016   6.660   2.557  0.2624  2.4399  0.3591
  388MOL0     H53478   2.053   6.743   2.415  0.6576  0.6585  2.6801
  388MOL0     H53479   2.247   6.638   2.493  0.1414  0.5740 -1.0789
  388MOL0     H53480   2.161   6.488   2.516 -3.0100  0.1109 -0.2138
  388MOL0     H53481   2.136   6.480   2.265 -0.4894 -1.6739  1.7861
  388MOL0     H53482   2.222   6.636   2.251  1.0699  0.8213  0.7854
  388MOL0     H53483   2.421   6.500   2.315  0.4009  0.1813 -0.9113
  388MOL0     H53484   2.327   6.363   2.370  1.0641  0.3686  1.0809
  388MOL0     H53485   2.353   6.474   2.094  0.2516  0.2655  0.2505
  388MOL0     H53486   2.242   6.354   2.111 -0.7420 -0.3361  0.6094
  388MOL0     H53487   2.549   6.331   2.164 -0.2367  0.1170 -0.7856
  388MOL0     H53488   2.433   6.195   2.195 -2.3664 -0.2059 -1.1218
  388MOL0     H53489   2.382   6.172   1.968 -0.8392 -0.5644  0.8351
  388MOL0     H53490   2.557   6.168   1.987 -1.7095 -2.2049 -2.3031
  388MOL0     H53491   2.500   6.301   1.803 -0.5198 -1.4308  1.0707
  388MOL0     H53492   2.393   6.409   1.887 -0.3977  1.0267  1.8819
  388MOL0     H53493   2.560   6.559   2.117 -1.3847 -2.1557  0.0359
  388MOL0     H53494   2.783   6.735   2.166  1.0414  1.1801 -1.6084
  388MOL0     H53495   2.866   6.752   2.011  2.0532 -1.3443 -0.0961
  388MOL0     H53496   3.009   6.682   2.213 -1.8985 -0.1688  1.3506
  388MOL0     H53497   2.915   6.545   2.233 -1.8278  0.1314 -1.0440
  388MOL0     H53498   3.020   6.551   1.952 -3.4854 -2.5575  0.2394
  388MOL0     H53499   3.159   6.554   2.064  0.2826 -2.3721  1.1617
  388MOL0     H53500   2.943   6.349   2.062 -0.1937 -3.8662  3.2046
  388MOL0     H53501   3.111   6.342   2.004  1.0336  0.8244  0.2718
  388MOL0     H53502   3.168   6.227   2.399  1.0581 -2.0504  0.5265
  388MOL0     H53503   3.381   6.014   2.440 -0.1346 -0.1904  0.0007
  388MOL0     H53504   3.319   6.133   2.556  0.1973  0.4022  0.3926
  388MOL0     H53505   3.498   6.109   2.523  1.6957 -1.7729 -2.4396
  388MOL0     H53506   3.856   6.331   2.462  0.5470  3.7679 -1.2242
  388MOL0     H53507   4.120   6.317   2.464  0.3698  2.0164 -1.6036
  388MOL0     H53508   4.272   5.999   2.262  0.1096 -0.5761 -0.8243
  388MOL0     H53509   4.329   6.103   2.124  1.2416  2.4070 -0.7292
  388MOL0     H53510   4.537   6.157   2.247 -0.5565  0.7302  1.0732
  388MOL0     H53511   4.490   6.061   2.389  2.2520  1.0354  0.8240
  388MOL0     H53512   4.548   5.974   2.117 -2.2214  0.6727 -0.1263
  388MOL0     H53513   4.477   5.861   2.233  1.6426 -1.3155 -0.2930
  388MOL0     H53514   4.675   5.814   2.280 -0.8069 -0.4678 -0.1246
  388MOL0     H53515   4.655   5.942   2.404 -1.6222 -4.3322  0.2907
  388MOL0     H53516   4.796   5.969   2.120  0.0692 -1.1735  0.0054
  388MOL0     H53517   4.775   6.101   2.223  0.8292  0.0367 -0.1777
  388MOL0     H53518   4.941   5.847   2.250  0.0101 -1.4353  2.3300
  388MOL0     H53519   4.898   5.915   2.399  0.4197  1.6189  0.7455
  388MOL0     H53520   5.007   6.131   2.347 -1.1791  2.7886 -2.0904
  388MOL0     H53521   5.001   6.111   2.180 -2.1322 -0.1755 -0.4008
  388MOL0     H53522   5.233   6.066   2.277 -1.4284  1.7247 -3.1540
  388MOL0     H53523   5.174   5.951   2.162  1.1215  0.3985 -0.7498
  388MOL0     H53524   4.135   6.158   2.087  3.0726  3.1680  0.7645
  388MOL0     H53525   3.888   6.209   2.048  1.9276  3.3168 -0.5020
  388MOL0     H53526   3.525   6.341   2.080 -0.6870  2.0757 -0.9074
  388MOL0     H53527   3.305   6.405   2.042 -1.2048 -1.1133 -0.5383
  388MOL0     H53528   1.850   6.795   2.512 -1.1037 -2.1369  1.7335
  388MOL0     H53529   1.623   6.898   2.470  1.6997  0.5075  1.0796
  388MOL0     H53530   1.229   6.860   2.496 -0.0650  2.2562  0.3953
  388MOL0     H53531   0.988   6.851   2.491  2.7572 -0.2913  1.0141
  388MOL0     H53532   0.798   6.928   2.493  0.6674  1.5590 -0.4478
  388MOL0     H53533   0.666   6.988   2.406  0.8873  1.2547 -3.4469
  388MOL0     H53534   0.812   6.734   2.355  0.5082  0.7188 -1.1448
  388MOL0     H53535   0.685   6.794   2.247 -1.6102 -2.2170  0.2172
  388MOL0     H53536   0.678   6.679   2.540 -1.8743 -0.9640  1.2596
  388MOL0     H53537   0.562   6.796   2.498 -0.0184  2.3840 -3.1601
  388MOL0     H53538   0.488   6.612   2.313 -0.9258 -0.8085  0.5027
  388MOL0     H53539   0.482   6.548   2.478  1.6569  0.0542 -0.0394
  388MOL0     H53540   0.789   6.318   2.310  0.4370  2.5049 -2.7715
  388MOL0     H53541   1.005   7.074   2.132  1.7185  1.1499  0.4354
  388MOL0     H53542   1.275   6.943   1.992  1.5317  2.7282 -2.9163
  388MOL0     H53543   1.152   7.066   1.992 -0.6882  0.0117  2.6111
  388MOL0     H53544   1.307   7.101   2.064 -1.2611  1.4978  1.3752
  389MOL0     O53545   3.283   1.947   6.638  0.3771  0.6236 -0.6429
  389MOL0     C53546   3.263   2.010   6.535 -0.1122 -0.8083 -0.6672
  389MOL0     O53547   3.355   2.065   6.456 -0.0565 -0.2822 -0.2420
  389MOL0     C53548   3.485   2.041   6.483 -1.0327 -0.6058 -0.4890
  389MOL0     C53549   3.570   2.155   6.527  0.3894  0.3087  0.4448
  389MOL0     C53550   3.705   2.133   6.544 -0.0037 -0.9082 -0.0250
  389MOL0     C53551   3.772   2.017   6.505  0.1860  0.3992 -0.0867
  389MOL0     O53552   3.909   1.994   6.523 -0.1433 -0.1251  0.3323
  389MOL0     C53553   3.986   2.107   6.578 -0.0834 -0.2670 -0.6177
  389MOL0     C53554   4.133   2.066   6.572  0.2744  0.0328 -1.2068
  389MOL0     C53555   4.216   2.170   6.643 -0.2774  0.4566  0.0127
  389MOL0     C53556   4.364   2.150   6.641  0.2826  0.0347  0.5263
  389MOL0     C53557   4.425   2.287   6.654 -0.5518  0.0681  0.0941
  389MOL0     C53558   4.574   2.282   6.660  0.3679 -0.4396  0.4536
  389MOL0     C53559   4.642   2.224   6.529 -0.2479 -0.8027  0.5628
  389MOL0     C53560   4.790   2.279   6.512  0.3470 -0.0255  0.0857
  389MOL0     N53561   4.874   2.204   6.419 -0.3577  0.1657 -0.1968
  389MOL0     C53562   4.880   2.219   6.285  0.0169 -0.1031  0.0038
  389MOL0     C53563   4.945   2.111   6.230  0.9580  0.2050  0.1606
  389MOL0     C53564   4.982   2.093   6.088 -0.2545 -0.2851 -0.7069
  389MOL0     C53565   5.086   1.990   6.065 -0.3347  0.6450 -0.0569
  389MOL0     C53566   5.073   1.930   5.920 -0.4208 -0.6293 -0.1262
  389MOL0     C53567   5.176   1.818   5.883 -0.2578 -1.0683 -0.1457
  389MOL0     O53568   5.311   1.874   5.900 -0.7872 -0.1542  0.0312
  389MOL0     C53569   5.421   1.789   5.869  0.0227 -0.3487 -0.7190
  389MOL0     C53570   5.555   1.834   5.885  0.0302  0.3745  0.0455
  389MOL0     C53571   5.666   1.749   5.845  0.2510  0.2000 -0.2432
  389MOL0     C53572   5.805   1.810   5.862  0.4690 -0.6697  0.3944
  389MOL0     C53573   5.640   1.624   5.794 -0.0698  0.8719  0.2622
  389MOL0     C53574   5.749   1.523   5.768 -0.5489  0.1505  0.9774
  389MOL0     O53575   5.877   1.564   5.746  0.2506  0.1221 -0.5487
  389MOL0     C53576   5.987   1.488   5.781 -0.1659  0.1677 -0.1278
  389MOL0     C53577   5.985   1.363   5.862 -0.6664  0.2128  0.1224
  389MOL0     C53578   6.110   1.316   5.904 -0.0595 -0.5098  0.8861
  389MOL0     C53579   6.232   1.380   5.866 -0.2977 -0.3369 -0.2119
  389MOL0     O53580   6.358   1.348   5.911 -0.1209  0.2735  0.1692
  389MOL0     C53581   6.374   1.206   5.938  0.5261 -0.9610  0.1581
  389MOL0     C53582   6.519   1.169   5.923 -1.4801  0.8432  1.2103
  389MOL0     C53583   6.609   1.216   6.035  0.1230 -1.4363 -0.2233
  389MOL0     C53584   6.762   1.183   6.022 -0.1433 -0.0231 -0.3769
  389MOL0     C53585   6.841   1.266   5.923  0.1962  0.9649 -0.5067
  389MOL0     C53586   6.989   1.221   5.912 -0.1320  0.2029 -0.0015
  389MOL0     C53587   7.080   1.278   6.029  0.6262 -0.6443  0.4414
  389MOL0     C53588   7.209   1.194   6.025 -0.7872 -0.2457 -0.4857
  389MOL0    Cl53589   7.326   1.252   6.151  0.3623 -0.4423  0.0234
  389MOL0     C53590   6.233   1.491   5.783 -0.2792 -0.4918 -0.4276
  389MOL0     C53591   6.111   1.550   5.746  0.5212  0.5097 -0.4961
  389MOL0     O53592   5.716   1.405   5.740  0.2148 -0.3218 -0.1490
  389MOL0     C53593   5.504   1.578   5.780 -1.4301  0.0515  0.5573
  389MOL0     C53594   5.400   1.656   5.823 -0.6182 -0.3986 -0.3588
  389MOL0     N53595   4.996   2.036   6.336 -0.5467  0.1765  0.7105
  389MOL0     N53596   4.953   2.095   6.445  0.2852  0.6553  0.3205
  389MOL0     C53597   3.680   1.913   6.460  0.2124  0.5849 -0.7186
  389MOL0     C53598   3.543   1.922   6.446  0.2245 -0.4846 -0.0760
  389MOL0     C53599   3.122   2.000   6.495  0.1671 -0.2438 -0.7337
  389MOL0     C53600   3.076   1.871   6.460 -0.1970 -0.0556 -0.2142
  389MOL0     C53601   2.954   1.847   6.409  0.8968  0.6140 -0.3810
  389MOL0     C53602   2.855   1.939   6.391 -0.3980  0.6005 -0.1529
  389MOL0     O53603   2.725   1.889   6.358 -0.8445 -0.4071  0.0431
  389MOL0     C53604   2.623   1.962   6.424 -0.0213  0.1231 -0.2882
  389MOL0     C53605   2.483   1.887   6.428 -0.5871 -0.4232  0.3520
  389MOL0     C53606   2.431   1.855   6.287 -0.7385 -0.2802 -0.0980
  389MOL0     C53607   2.330   1.737   6.302 -1.0060  0.8030 -0.9687
  389MOL0     C53608   2.273   1.692   6.181 -0.8169  0.2292  0.0268
  389MOL0     C53609   2.210   1.646   6.087 -0.0114 -0.5624  0.2648
  389MOL0     C53610   2.892   2.070   6.431 -0.0797  0.8431  0.3135
  389MOL0     C53611   3.026   2.100   6.475  0.1951 -0.8897 -0.4475
  389MOL0     C53612   3.067   2.249   6.501 -0.2983 -0.4455  0.4917
  389MOL0     H53613   3.523   2.246   6.563 -0.7736 -1.2629  3.1976
  389MOL0     H53614   3.756   2.211   6.599  0.2791  0.3989 -2.0359
  389MOL0     H53615   3.956   2.138   6.678 -1.2522  2.5048 -1.7269
  389MOL0     H53616   3.958   2.186   6.507 -1.9922  0.2768  0.6877
  389MOL0     H53617   4.151   1.975   6.629  2.0524  2.6726  2.8980
  389MOL0     H53618   4.167   2.059   6.468  1.2697  1.9014 -1.0557
  389MOL0     H53619   4.194   2.267   6.597 -1.6413 -0.9551 -2.5087
  389MOL0     H53620   4.192   2.177   6.750  1.3469 -1.9690  0.6029
  389MOL0     H53621   4.379   2.083   6.726 -2.7537 -0.4398  0.8021
  389MOL0     H53622   4.382   2.096   6.548 -1.2039  1.9896 -0.9815
  389MOL0     H53623   4.382   2.341   6.739 -0.7149  0.7715 -0.4267
  389MOL0     H53624   4.383   2.353   6.577 -2.5635  1.2294  2.0591
  389MOL0     H53625   4.605   2.386   6.669  0.9968 -0.7042  1.4603
  389MOL0     H53626   4.624   2.229   6.741  2.1264 -0.9430 -0.9155
  389MOL0     H53627   4.593   2.249   6.435  2.6038 -1.6004 -1.2827
  389MOL0     H53628   4.636   2.115   6.529 -2.6698 -0.7961 -2.5598
  389MOL0     H53629   4.787   2.384   6.480  3.0840 -0.1697 -0.8965
  389MOL0     H53630   4.833   2.274   6.613  2.3685  1.0679 -0.6604
  389MOL0     H53631   4.827   2.292   6.225 -0.2730 -0.8784 -0.7008
  389MOL0     H53632   5.021   2.187   6.047 -1.9966 -0.2060 -2.3022
  389MOL0     H53633   4.894   2.059   6.033 -0.5052 -1.1255  0.1879
  389MOL0     H53634   5.184   2.034   6.087  0.3285 -0.9730  0.3483
  389MOL0     H53635   5.064   1.904   6.129  1.9825 -0.0446 -0.1031
  389MOL0     H53636   4.979   1.876   5.909  0.2868 -1.7528 -0.8647
  389MOL0     H53637   5.076   2.011   5.846 -2.7312 -0.7012 -0.3638
  389MOL0     H53638   5.161   1.733   5.950 -0.4290 -2.7271 -2.1816
  389MOL0     H53639   5.165   1.794   5.777 -0.8213  2.9490 -1.1557
  389MOL0     H53640   5.582   1.932   5.922  3.6715 -0.2488 -0.6538
  389MOL0     H53641   5.856   1.835   5.768  1.5719  0.0128  1.1487
  389MOL0     H53642   5.865   1.740   5.921  1.4948 -0.6673 -0.6204
  389MOL0     H53643   5.806   1.905   5.916  1.4473 -0.5415  0.1726
  389MOL0     H53644   5.891   1.316   5.887 -1.0594  0.9185 -0.0023
  389MOL0     H53645   6.115   1.229   5.969 -0.2148  0.0035  1.5881
  389MOL0     H53646   6.342   1.172   6.037 -2.1265 -1.6958 -0.8895
  389MOL0     H53647   6.319   1.139   5.872  1.0044 -1.6168  0.4157
  389MOL0     H53648   6.542   1.063   5.909  1.2527  1.1923  2.5296
  389MOL0     H53649   6.560   1.218   5.834 -1.6107  1.0422  1.2586
  389MOL0     H53650   6.584   1.178   6.134  1.2510  1.0793  1.1080
  389MOL0     H53651   6.606   1.325   6.045  4.3964 -1.1608 -0.0434
  389MOL0     H53652   6.779   1.081   5.984 -0.3115  0.6459 -2.3814
  389MOL0     H53653   6.809   1.191   6.120  1.7727 -3.7042 -0.7777
  389MOL0     H53654   6.776   1.262   5.835 -3.4903 -0.8191  2.0244
  389MOL0     H53655   6.836   1.368   5.960 -0.0546  0.6993  0.1974
  389MOL0     H53656   7.042   1.265   5.827  1.6234 -1.4994  0.1285
  389MOL0     H53657   6.987   1.112   5.904  1.5555  0.1436  0.0531
  389MOL0     H53658   7.032   1.267   6.127 -1.0623  2.2799  0.0781
  389MOL0     H53659   7.109   1.382   6.011  0.7062 -0.8154 -0.4939
  389MOL0     H53660   7.254   1.207   5.926 -0.1250  2.0882  0.0557
  389MOL0     H53661   7.190   1.087   6.028 -0.4484 -0.2982 -0.0641
  389MOL0     H53662   6.325   1.546   5.768 -0.7400  1.4439  2.8982
  389MOL0     H53663   6.107   1.643   5.691 -0.1968  0.8339  0.1108
  389MOL0     H53664   5.481   1.475   5.754  0.4211 -0.6928  1.6356
  389MOL0     H53665   5.296   1.629   5.811 -0.6569 -1.3729  1.7901
  389MOL0     H53666   3.723   1.815   6.448 -0.7988  0.2498 -1.7513
  389MOL0     H53667   3.488   1.835   6.412  0.9002 -0.5792 -0.9643
  389MOL0     H53668   3.151   1.793   6.470  1.0742  0.7247 -2.8521
  389MOL0     H53669   2.942   1.744   6.378  3.6802  0.7328 -2.2480
  389MOL0     H53670   2.649   1.984   6.528 -1.0462  2.8267 -0.5078
  389MOL0     H53671   2.617   2.061   6.376  0.4986  0.5992  0.5894
  389MOL0     H53672   2.415   1.955   6.481 -1.2695 -1.6376  1.0991
  389MOL0     H53673   2.504   1.798   6.488  1.5444  0.5631  1.1909
  389MOL0     H53674   2.369   1.943   6.265 -2.5161 -1.3611  0.3915
  389MOL0     H53675   2.513   1.826   6.221 -0.0165  1.5185 -0.0514
  389MOL0     H53676   2.254   1.764   6.376 -1.4240  0.0662 -1.1179
  389MOL0     H53677   2.382   1.656   6.354  1.0423  1.7350 -1.4356
  389MOL0     H53678   2.158   1.586   6.015 -0.8653  0.5361 -0.0740
  389MOL0     H53679   2.820   2.151   6.429  1.1587  2.0746  2.1347
  389MOL0     H53680   3.047   2.301   6.407  1.0240 -2.5338 -1.0462
  389MOL0     H53681   3.019   2.301   6.584  0.0658  0.2580  0.2679
  389MOL0     H53682   3.174   2.254   6.521 -0.1688  0.7208 -0.3447
  390MOL0     O53683   9.128   4.285   8.780 -0.2411 -0.6035  0.0687
  390MOL0     C53684   9.092   4.215   8.693 -0.8792  0.4257 -0.5005
  390MOL0     O53685   8.971   4.212   8.640 -0.0101 -0.3450  0.7180
  390MOL0     C53686   8.888   4.321   8.650  0.2626  0.0377 -1.0594
  390MOL0     C53687   8.754   4.291   8.700 -0.2746 -0.5149  0.2449
  390MOL0     C53688   8.656   4.383   8.683  0.2027 -0.5824  0.0725
  390MOL0     C53689   8.679   4.505   8.614  0.2431  0.2250 -0.0273
  390MOL0     O53690   8.570   4.583   8.588 -0.9052 -0.3298 -0.1230
  390MOL0     C53691   8.542   4.689   8.682 -0.1087 -0.2637 -0.2682
  390MOL0     C53692   8.528   4.831   8.618  0.2811 -0.0383 -0.3896
  390MOL0     C53693   8.659   4.882   8.556 -0.5579 -0.1468 -0.0205
  390MOL0     C53694   8.750   4.921   8.678 -0.2544  0.8444 -0.6549
  390MOL0     C53695   8.903   4.938   8.642 -0.0265 -0.6282  0.3226
  390MOL0     C53696   8.967   5.001   8.765  0.0834 -0.6513 -0.1134
  390MOL0     C53697   9.113   4.999   8.736  0.5319  0.6674  0.2824
  390MOL0     C53698   9.183   5.077   8.840 -0.4096  1.0579 -0.0960
  390MOL0     N53699   9.157   5.217   8.815  0.6741 -0.8655 -1.0642
  390MOL0     C53700   9.227   5.306   8.743 -0.0050 -0.4607  0.2082
  390MOL0     C53701   9.160   5.422   8.760 -0.7948  0.1598 -0.2968
  390MOL0     C53702   9.213   5.554   8.694  0.0441 -0.4936  0.6113
  390MOL0     C53703   9.368   5.576   8.686  0.3502  0.3734  0.4417
  390MOL0     C53704   9.403   5.720   8.641 -0.1742  0.4327 -0.1728
  390MOL0     C53705   9.552   5.734   8.616  0.6084  0.8254 -0.3318
  390MOL0     O53706   9.588   5.695   8.486  0.7339  0.7748 -0.1268
  390MOL0     C53707   9.718   5.664   8.455 -0.8925  0.4522  0.1054
  390MOL0     C53708   9.750   5.608   8.333 -0.2644 -0.9136 -0.2218
  390MOL0     C53709   9.880   5.596   8.296 -0.2915  0.2583 -0.1475
  390MOL0     C53710   9.907   5.542   8.158 -0.2614 -0.2648 -0.3615
  390MOL0     C53711   9.988   5.634   8.380  1.6448  0.1660 -0.5561
  390MOL0     C53712  10.127   5.610   8.355 -0.9306 -0.4028  1.1074
  390MOL0     O53713  10.217   5.671   8.438 -0.0625  0.2794  0.1330
  390MOL0     C53714  10.356   5.657   8.428  0.3761  0.1520 -0.5753
  390MOL0     C53715  10.436   5.663   8.310 -0.3048  0.2097  0.4285
  390MOL0     C53716  10.578   5.660   8.314  0.8961  0.4603 -0.2775
  390MOL0     C53717  10.637   5.660   8.444  0.8134  0.0602 -0.1780
  390MOL0     O53718  10.773   5.665   8.460 -0.6435 -0.5146  0.1988
  390MOL0     C53719  10.867   5.681   8.350  0.5659 -1.3986 -0.8251
  390MOL0     C53720  11.005   5.709   8.400  0.2774  0.0311  0.3355
  390MOL0     C53721  11.078   5.817   8.313  0.2309  0.2238 -0.3241
  390MOL0     C53722  11.227   5.829   8.374  0.3077 -0.1154 -0.0727
  390MOL0     C53723  11.281   5.960   8.333 -0.6979 -0.8748  0.2707
  390MOL0     C53724  11.431   5.979   8.361  0.5445 -0.1182 -0.1108
  390MOL0     C53725  11.513   5.861   8.301  0.9373 -0.4650  0.4735
  390MOL0     C53726  11.663   5.890   8.318  0.1666 -0.4419  0.1272
  390MOL0    Cl53727  11.721   5.871   8.489 -0.1715 -0.0780  0.2406
  390MOL0     C53728  10.558   5.650   8.555  0.1122  0.0966 -0.4645
  390MOL0     C53729  10.416   5.659   8.553 -0.3050 -0.2770  0.4038
  390MOL0     O53730  10.161   5.539   8.260 -0.0866  0.4147  0.6426
  390MOL0     C53731   9.952   5.696   8.506 -0.4160  0.9947  0.1600
  390MOL0     C53732   9.818   5.709   8.533 -0.9560  0.2362 -0.3158
  390MOL0     N53733   9.069   5.414   8.863  0.1418 -0.8467  0.8823
  390MOL0     N53734   9.059   5.289   8.886  0.2314  0.1484 -0.1382
  390MOL0     C53735   8.808   4.530   8.578  1.3697  0.8915  0.6767
  390MOL0     C53736   8.918   4.442   8.597 -0.6283 -0.7099  0.4337
  390MOL0     C53737   9.190   4.117   8.644  0.0920  1.4222 -0.1637
  390MOL0     C53738   9.318   4.124   8.704  0.4809  0.3924 -0.4823
  390MOL0     C53739   9.423   4.041   8.662 -0.9631 -0.0407  0.7838
  390MOL0     C53740   9.407   3.945   8.562  0.0884  0.3860  0.7163
  390MOL0     O53741   9.512   3.863   8.531 -0.5794 -0.9843  0.8323
  390MOL0     C53742   9.510   3.773   8.415  0.0125  0.3752  0.1072
  390MOL0     C53743   9.463   3.638   8.448  0.6558 -0.9868 -0.6353
  390MOL0     C53744   9.449   3.554   8.320 -0.1391 -0.7967  0.2860
  390MOL0     C53745   9.414   3.408   8.343  0.5257 -0.0924  0.5769
  390MOL0     C53746   9.526   3.324   8.391 -0.9036  0.0066  0.9113
  390MOL0     C53747   9.632   3.278   8.430 -0.3259  0.9221 -0.1696
  390MOL0     C53748   9.273   3.937   8.503  0.1606 -0.2008 -0.9440
  390MOL0     C53749   9.163   4.016   8.553  0.4417  0.1543 -0.0059
  390MOL0     C53750   9.035   3.995   8.479 -0.2664  1.4107  0.0634
  390MOL0     H53751   8.739   4.195   8.748  0.5765 -1.5088 -1.3567
  390MOL0     H53752   8.561   4.371   8.733  1.7994 -1.5761  3.1075
  390MOL0     H53753   8.606   4.684   8.771  0.9516 -0.9410 -1.0424
  390MOL0     H53754   8.442   4.661   8.716  0.4020 -0.3271  1.2526
  390MOL0     H53755   8.441   4.822   8.552 -1.9465  1.2237  2.1893
  390MOL0     H53756   8.487   4.896   8.697 -2.2477 -1.4100 -0.4589
  390MOL0     H53757   8.699   4.801   8.495 -1.2286  0.8336 -1.8159
  390MOL0     H53758   8.647   4.971   8.493  0.5982  1.5097  1.9639
  390MOL0     H53759   8.706   5.016   8.709 -2.9424 -0.3642 -0.4542
  390MOL0     H53760   8.740   4.843   8.754 -3.5790  0.8268 -0.9665
  390MOL0     H53761   8.910   5.009   8.558 -2.8233  0.4864  0.9112
  390MOL0     H53762   8.941   4.838   8.619  1.8455 -0.3910  2.1654
  390MOL0     H53763   8.922   5.101   8.769 -1.9147 -1.4368 -1.8209
  390MOL0     H53764   8.937   4.941   8.851  1.4971  2.2859  2.6554
  390MOL0     H53765   9.149   5.047   8.644  1.7706 -0.5300  0.1142
  390MOL0     H53766   9.146   4.895   8.743 -0.8506  0.3424  3.6079
  390MOL0     H53767   9.160   5.055   8.945  0.8665  1.6898  0.3318
  390MOL0     H53768   9.291   5.065   8.837 -0.1792  2.3815  1.6178
  390MOL0     H53769   9.304   5.275   8.672  0.0797 -0.4541  0.2973
  390MOL0     H53770   9.159   5.639   8.738  0.7180  0.2686  0.0058
  390MOL0     H53771   9.183   5.546   8.590  3.2431 -0.5659 -0.4137
  390MOL0     H53772   9.398   5.564   8.790 -0.5965  0.1968  0.7028
  390MOL0     H53773   9.423   5.503   8.626 -0.0137  1.1130 -0.8253
  390MOL0     H53774   9.346   5.740   8.550 -2.7814 -1.4306  0.9220
  390MOL0     H53775   9.370   5.775   8.730 -0.4728 -3.8042  2.6310
  390MOL0     H53776   9.590   5.833   8.642  1.2012 -0.0904  2.7275
  390MOL0     H53777   9.602   5.664   8.684  0.6089  1.3056  0.1734
  390MOL0     H53778   9.674   5.589   8.258  0.6388  1.1151 -1.7564
  390MOL0     H53779   9.955   5.609   8.086  3.2023 -0.7121  1.3306
  390MOL0     H53780   9.815   5.498   8.117 -0.3724 -0.2540 -0.1268
  390MOL0     H53781   9.968   5.452   8.150 -0.0503  0.0163 -3.3423
  390MOL0     H53782  10.399   5.671   8.209  0.8201  0.7424  0.0358
  390MOL0     H53783  10.628   5.664   8.218  1.6012 -0.7398  0.0222
  390MOL0     H53784  10.865   5.589   8.290 -0.5565 -2.6410  1.0015
  390MOL0     H53785  10.835   5.764   8.286  0.1153 -1.8328 -1.1697
  390MOL0     H53786  11.002   5.739   8.505 -0.2029 -1.9903  0.9462
  390MOL0     H53787  11.048   5.608   8.398 -0.5313 -0.3423  1.1769
  390MOL0     H53788  11.028   5.913   8.325 -0.6038  0.0937 -2.2901
  390MOL0     H53789  11.080   5.794   8.206  0.4955  0.6500 -0.4125
  390MOL0     H53790  11.294   5.745   8.354  1.5849  1.2759 -2.0370
  390MOL0     H53791  11.222   5.835   8.483 -0.5712 -1.6353  0.0079
  390MOL0     H53792  11.260   5.978   8.227 -1.2050  0.4704  0.5893
  390MOL0     H53793  11.224   6.039   8.382 -1.9261 -1.5318 -0.0740
  390MOL0     H53794  11.454   5.982   8.468 -1.2205  2.3985  0.2997
  390MOL0     H53795  11.464   6.078   8.326  3.6608 -1.6072 -1.7467
  390MOL0     H53796  11.492   5.850   8.194 -2.2684 -1.1846  1.0714
  390MOL0     H53797  11.483   5.770   8.354 -2.4385 -0.9834 -2.0113
  390MOL0     H53798  11.681   5.994   8.292  3.4138 -0.0033  3.2541
  390MOL0     H53799  11.718   5.818   8.256 -0.6810 -1.1871  0.2121
  390MOL0     H53800  10.609   5.656   8.651  0.5269  4.4513 -0.7819
  390MOL0     H53801  10.347   5.662   8.638 -1.4161 -0.7097 -0.4560
  390MOL0     H53802  10.033   5.719   8.574  2.4019 -1.1062 -2.2331
  390MOL0     H53803   9.801   5.754   8.630  3.1156  0.4397  0.4816
  390MOL0     H53804   8.828   4.619   8.520  1.4993  1.4466  1.5657
  390MOL0     H53805   9.016   4.474   8.564 -1.7973  2.0688 -0.6222
  390MOL0     H53806   9.349   4.194   8.781  3.2381  3.5455 -4.0921
  390MOL0     H53807   9.520   4.070   8.701 -0.8524  2.2258 -0.9336
  390MOL0     H53808   9.452   3.817   8.334  0.9205  0.0079 -0.7657
  390MOL0     H53809   9.611   3.760   8.375 -0.6058 -1.0452 -1.0680
  390MOL0     H53810   9.369   3.653   8.503  0.6079 -0.5769 -0.8242
  390MOL0     H53811   9.530   3.573   8.504  1.0564 -0.6471 -0.7167
  390MOL0     H53812   9.393   3.599   8.237  1.5767 -0.7652 -0.8998
  390MOL0     H53813   9.553   3.553   8.286 -0.6715  0.9926 -1.6620
  390MOL0     H53814   9.363   3.367   8.255 -0.4486  1.2619  0.4803
  390MOL0     H53815   9.340   3.399   8.424  2.5123 -0.8216  2.4132
  390MOL0     H53816   9.715   3.230   8.480 -0.8313 -1.0029 -1.0787
  390MOL0     H53817   9.254   3.869   8.421  0.4517  2.7953 -3.6758
  390MOL0     H53818   9.010   4.087   8.425 -2.2206  1.1453  0.4227
  390MOL0     H53819   9.038   3.917   8.403 -1.4307  1.3404  0.0638
  390MOL0     H53820   8.949   3.978   8.545 -1.5056  1.3094 -1.5196
  391MOL0     O53821   7.932   3.784   0.353 -0.1196 -0.3006 -0.0692
  391MOL0     C53822   7.890   3.725   0.454 -0.4651  0.0927  0.0777
  391MOL0     O53823   7.916   3.757   0.580  0.3423  0.5970  0.3167
  391MOL0     C53824   8.016   3.842   0.612  0.5012  0.3107  0.1490
  391MOL0     C53825   8.073   3.945   0.547  0.2536 -0.1639  0.8466
  391MOL0     C53826   8.172   4.028   0.604 -0.2884 -0.9155  0.4802
  391MOL0     C53827   8.222   4.003   0.732 -0.8342 -0.7181 -0.7895
  391MOL0     O53828   8.314   4.086   0.791 -0.6218 -0.3792  0.7198
  391MOL0     C53829   8.366   4.069   0.920 -0.0474 -0.4582  0.1203
  391MOL0     C53830   8.505   4.135   0.939  0.1254 -0.5618  0.8316
  391MOL0     C53831   8.549   4.113   1.081 -0.4452  0.4467 -0.4211
  391MOL0     C53832   8.688   4.186   1.091  0.1513  0.0016  0.3676
  391MOL0     C53833   8.777   4.153   1.222 -0.5217 -0.5195  0.2866
  391MOL0     C53834   8.696   4.181   1.347  0.4136 -0.6549  0.2193
  391MOL0     C53835   8.772   4.153   1.472  0.0809 -0.1185 -0.9529
  391MOL0     C53836   8.681   4.158   1.590 -0.1817 -0.3445  0.5230
  391MOL0     N53837   8.757   4.151   1.716  0.9038  0.3154 -0.6231
  391MOL0     C53838   8.807   4.035   1.781  0.2932  0.3845 -0.2503
  391MOL0     C53839   8.828   4.093   1.903  0.0281  0.3880  0.6467
  391MOL0     C53840   8.898   4.017   2.015  0.5464 -0.8556  0.0765
  391MOL0     C53841   8.814   4.009   2.135 -0.7139 -0.3292  0.6781
  391MOL0     C53842   8.829   4.139   2.230 -0.2422 -0.1270  0.9363
  391MOL0     C53843   8.756   4.099   2.353 -0.1973 -0.5748  0.5268
  391MOL0     O53844   8.614   4.114   2.333  0.0378 -0.4440 -0.5372
  391MOL0     C53845   8.539   4.117   2.452  0.3669  0.6618  0.3865
  391MOL0     C53846   8.581   4.079   2.573  0.4859 -0.7748 -0.3089
  391MOL0     C53847   8.495   4.097   2.686  0.4366 -0.1132 -0.0104
  391MOL0     C53848   8.562   4.051   2.815 -0.4691 -0.4507 -0.0437
  391MOL0     C53849   8.364   4.148   2.665 -1.1917 -0.5093  1.5377
  391MOL0     C53850   8.259   4.171   2.768  0.1542  0.1774 -0.1399
  391MOL0     O53851   8.299   4.167   2.900 -0.0845 -0.3903 -0.0780
  391MOL0     C53852   8.239   4.250   2.999 -0.0767  0.1361  0.3505
  391MOL0     C53853   8.309   4.365   3.022 -0.1047  0.1329 -0.2796
  391MOL0     C53854   8.269   4.433   3.140 -0.1926 -0.2534  1.3878
  391MOL0     C53855   8.166   4.401   3.216  0.3490 -0.5002 -0.3011
  391MOL0     O53856   8.137   4.496   3.314  0.1293  0.3415  0.6896
  391MOL0     C53857   8.007   4.509   3.363 -1.1223  0.5213 -0.2668
  391MOL0     C53858   8.005   4.604   3.481 -0.2419 -0.0737  0.0266
  391MOL0     C53859   8.036   4.515   3.610 -1.0237  1.1796 -0.3509
  391MOL0     C53860   8.027   4.602   3.739  0.2121 -0.2859  0.6875
  391MOL0     C53861   8.074   4.524   3.860 -0.5442  0.1483  0.4434
  391MOL0     C53862   7.975   4.415   3.918 -0.2017 -0.3001 -0.3059
  391MOL0     C53863   8.047   4.334   4.025 -0.2441  0.1986  0.6254
  391MOL0     C53864   8.081   4.422   4.155  0.1321  0.3097  0.2951
  391MOL0    Cl53865   7.917   4.445   4.239 -0.0599 -0.1632  0.2047
  391MOL0     C53866   8.098   4.285   3.190 -0.2679  0.8441  0.0259
  391MOL0     C53867   8.140   4.202   3.087  0.1001 -0.3804 -0.6599
  391MOL0     O53868   8.144   4.208   2.745  0.0205  0.6339 -0.3611
  391MOL0     C53869   8.323   4.177   2.527 -0.0433  0.5055  0.1534
  391MOL0     C53870   8.406   4.157   2.419  0.5630  0.0034  0.8089
  391MOL0     N53871   8.793   4.228   1.904  0.1080  0.2015 -0.2225
  391MOL0     N53872   8.770   4.262   1.787 -0.3139 -0.3895 -0.0837
  391MOL0     C53873   8.163   3.899   0.801 -0.8047  0.6754  0.3283
  391MOL0     C53874   8.065   3.813   0.740 -0.0492 -0.1424  0.4449
  391MOL0     C53875   7.818   3.586   0.442  0.0093 -1.5079  1.4730
  391MOL0     C53876   7.817   3.502   0.559  0.1255 -0.2387 -0.3947
  391MOL0     C53877   7.739   3.395   0.561  0.6500 -0.9144 -0.2823
  391MOL0     C53878   7.667   3.353   0.444  0.0381  0.2346 -0.4787
  391MOL0     O53879   7.592   3.241   0.478 -0.5987  0.6317  0.0011
  391MOL0     C53880   7.512   3.170   0.370 -0.9396 -0.5654  0.0783
  391MOL0     C53881   7.534   3.018   0.377 -0.7717 -0.0772 -0.5946
  391MOL0     C53882   7.679   2.985   0.361 -0.8547 -0.2636  0.6924
  391MOL0     C53883   7.696   2.836   0.354 -0.5642 -0.1076 -0.0792
  391MOL0     C53884   7.841   2.796   0.361 -0.7421 -0.0813  0.3950
  391MOL0     C53885   7.955   2.760   0.373 -0.3980  0.0214 -0.5603
  391MOL0     C53886   7.685   3.418   0.323 -0.2087  0.4581 -0.5542
  391MOL0     C53887   7.755   3.538   0.326 -0.7644 -0.8815  0.6058
  391MOL0     C53888   7.750   3.612   0.190  1.9012  0.2041  0.9667
  391MOL0     H53889   8.056   3.959   0.441  1.7108  0.6356  0.7041
  391MOL0     H53890   8.210   4.109   0.543  0.4358 -1.9493 -0.4932
  391MOL0     H53891   8.383   3.962   0.936 -2.4096 -1.0103 -0.7435
  391MOL0     H53892   8.284   4.113   0.977  0.4081  2.4960 -1.3374
  391MOL0     H53893   8.576   4.100   0.863  1.3713  3.5569 -0.1787
  391MOL0     H53894   8.490   4.241   0.916 -1.1249 -0.6800  1.0414
  391MOL0     H53895   8.481   4.153   1.157  1.3926  2.3492  0.3054
  391MOL0     H53896   8.561   4.004   1.090  0.5274  0.1793 -3.7155
  391MOL0     H53897   8.744   4.144   1.007 -0.6076  1.0641 -0.7021
  391MOL0     H53898   8.685   4.294   1.077 -1.0122 -0.1670 -0.9790
  391MOL0     H53899   8.871   4.210   1.217 -0.4693 -0.6844 -1.1061
  391MOL0     H53900   8.805   4.048   1.216 -0.1350 -0.3487 -1.2677
  391MOL0     H53901   8.653   4.282   1.350 -2.5955 -1.8250  0.4863
  391MOL0     H53902   8.613   4.110   1.343 -0.1380  0.0482 -2.1476
  391MOL0     H53903   8.855   4.223   1.484  0.3642 -0.4042 -1.2404
  391MOL0     H53904   8.810   4.052   1.454 -2.8191 -1.2888 -1.1340
  391MOL0     H53905   8.619   4.248   1.591 -0.2986 -0.2635  4.5342
  391MOL0     H53906   8.620   4.068   1.576  0.1278 -0.7278  1.5382
  391MOL0     H53907   8.821   3.934   1.744  1.7696  1.6537 -3.5779
  391MOL0     H53908   8.992   4.066   2.044 -0.5952 -0.1171  2.7846
  391MOL0     H53909   8.923   3.919   1.973 -0.8903  0.2602 -3.8761
  391MOL0     H53910   8.707   3.999   2.114 -0.7559 -0.0573  0.7612
  391MOL0     H53911   8.850   3.916   2.180  3.4205 -0.2518 -1.9103
  391MOL0     H53912   8.936   4.147   2.248 -0.4465 -1.0327  2.7499
  391MOL0     H53913   8.792   4.234   2.190 -0.8708 -1.0483 -0.7952
  391MOL0     H53914   8.786   4.000   2.388 -0.4590 -0.6588  0.5155
  391MOL0     H53915   8.772   4.169   2.436  0.9929  2.0592 -1.7638
  391MOL0     H53916   8.685   4.066   2.601  0.3020  0.5678  1.1790
  391MOL0     H53917   8.671   4.041   2.815 -0.3133  0.4019  2.8191
  391MOL0     H53918   8.530   3.949   2.835  0.0968 -0.2651  2.0679
  391MOL0     H53919   8.540   4.117   2.899 -0.8819  1.2956 -1.4449
  391MOL0     H53920   8.404   4.382   2.972  1.4025 -2.4529  1.4763
  391MOL0     H53921   8.332   4.519   3.156 -1.6819  1.1734 -0.0198
  391MOL0     H53922   7.944   4.532   3.276 -3.1682  1.6047  1.3969
  391MOL0     H53923   7.981   4.412   3.406  0.1915  1.0881  1.9296
  391MOL0     H53924   8.080   4.683   3.474  0.0655 -0.4473 -0.9976
  391MOL0     H53925   7.909   4.656   3.489  0.3470  0.8918  1.0177
  391MOL0     H53926   8.134   4.471   3.591 -1.5047  0.2921 -0.8370
  391MOL0     H53927   7.973   4.426   3.616 -0.6801  0.9348 -0.3507
  391MOL0     H53928   7.932   4.653   3.756  0.2664 -0.0352  0.2516
  391MOL0     H53929   8.101   4.680   3.718 -0.4022  0.3038  0.6831
  391MOL0     H53930   8.176   4.485   3.850 -1.0342 -1.6601  2.0318
  391MOL0     H53931   8.084   4.596   3.942  0.6064  0.3484  0.1526
  391MOL0     H53932   7.937   4.351   3.838 -1.0582 -0.1064 -0.0647
  391MOL0     H53933   7.887   4.472   3.950 -0.1265  0.5226 -1.4781
  391MOL0     H53934   8.143   4.303   3.983  0.1746  3.6307 -1.3624
  391MOL0     H53935   7.980   4.252   4.052  0.6034 -1.1853 -1.2807
  391MOL0     H53936   8.121   4.518   4.121 -1.7764  0.7290 -0.9315
  391MOL0     H53937   8.156   4.372   4.217  2.4423 -0.8248 -3.0957
  391MOL0     H53938   8.014   4.250   3.249 -1.9826  1.5372 -1.9078
  391MOL0     H53939   8.090   4.109   3.064  0.9849 -0.7575 -1.0844
  391MOL0     H53940   8.222   4.215   2.521 -0.7195 -0.9876  1.3919
  391MOL0     H53941   8.363   4.167   2.320 -2.0095 -1.8161  1.6441
  391MOL0     H53942   8.190   3.870   0.902  1.4622 -0.0438 -0.4365
  391MOL0     H53943   8.022   3.733   0.800 -1.5451  2.6297  3.3478
  391MOL0     H53944   7.856   3.520   0.659  1.4056 -5.1631  0.2970
  391MOL0     H53945   7.726   3.342   0.655 -0.5345 -1.9442 -1.0023
  391MOL0     H53946   7.406   3.197   0.380 -0.4697  1.4421  0.0463
  391MOL0     H53947   7.534   3.202   0.268 -3.9410 -0.5705 -0.6887
  391MOL0     H53948   7.483   2.972   0.292 -1.6540 -0.1957 -0.0158
  391MOL0     H53949   7.493   2.979   0.471  1.0666  1.5207  0.9475
  391MOL0     H53950   7.724   3.028   0.271 -0.3126 -4.0000 -1.0184
  391MOL0     H53951   7.730   3.016   0.453 -3.0695  1.7149  1.3559
  391MOL0     H53952   7.658   2.799   0.259 -0.1100 -3.4224  0.8917
  391MOL0     H53953   7.648   2.790   0.441  4.6004 -2.3672  2.0410
  391MOL0     H53954   8.059   2.733   0.373 -0.5644 -1.0837 -4.0739
  391MOL0     H53955   7.632   3.381   0.236  0.1264 -2.7497  0.4686
  391MOL0     H53956   7.741   3.721   0.203 -0.3897  0.3123 -0.9915
  391MOL0     H53957   7.838   3.598   0.127  0.1090  0.3582 -1.7364
  391MOL0     H53958   7.672   3.582   0.120  2.4200  1.2703 -0.1134
  392MOL0     O53959   3.173   0.452   8.413 -1.1751 -0.9633 -0.1562
  392MOL0     C53960   3.131   0.398   8.308  0.2021 -0.3216  0.7074
  392MOL0     O53961   3.208   0.339   8.222 -0.3274  0.3019 -0.1028
  392MOL0     C53962   3.342   0.331   8.245 -0.4133  0.9600  0.8252
  392MOL0     C53963   3.402   0.204   8.270 -0.0003 -0.3197 -0.4157
  392MOL0     C53964   3.534   0.194   8.302  0.6862  0.5204  0.3147
  392MOL0     C53965   3.617   0.305   8.306 -0.5984 -0.0033 -1.3556
  392MOL0     O53966   3.751   0.287   8.337 -0.1759  0.6448  0.1418
  392MOL0     C53967   3.810   0.401   8.403  0.4272 -0.3601 -0.3057
  392MOL0     C53968   3.960   0.373   8.421  0.1459 -0.2889  0.6325
  392MOL0     C53969   4.059   0.484   8.467 -0.7242  0.3382 -0.0630
  392MOL0     C53970   3.997   0.623   8.493 -1.1802 -0.8705  0.2693
  392MOL0     C53971   4.098   0.732   8.514 -0.7307 -0.0023 -0.2103
  392MOL0     C53972   4.028   0.856   8.570  0.3627 -0.6731  0.8537
  392MOL0     C53973   4.115   0.978   8.578  0.2767  0.2297  0.0042
  392MOL0     C53974   4.199   0.961   8.708  0.5318 -0.3366  0.1289
  392MOL0     N53975   4.296   1.070   8.708 -0.5781 -0.2225  0.3374
  392MOL0     C53976   4.415   1.076   8.635 -0.2429 -0.3838 -0.9195
  392MOL0     C53977   4.455   1.202   8.647 -0.0125 -0.6723  0.5037
  392MOL0     C53978   4.592   1.253   8.590 -0.0375 -0.4830 -0.1638
  392MOL0     C53979   4.708   1.238   8.688 -0.3436  0.1576 -0.7362
  392MOL0     C53980   4.833   1.250   8.603  0.0410  1.0185 -0.8446
  392MOL0     C53981   4.973   1.246   8.670  0.9476 -0.0522  0.4929
  392MOL0     O53982   5.031   1.118   8.702 -0.0413  0.0419  0.2147
  392MOL0     C53983   5.152   1.119   8.764 -0.2687 -0.6539  0.2028
  392MOL0     C53984   5.259   1.210   8.740 -0.8801  0.3480 -0.2990
  392MOL0     C53985   5.388   1.181   8.791 -0.4030  0.1148 -0.3357
  392MOL0     C53986   5.490   1.289   8.764  0.3684 -0.4857 -0.7028
  392MOL0     C53987   5.407   1.072   8.882 -0.3178 -1.0637  0.4227
  392MOL0     C53988   5.532   1.036   8.951 -0.6602  0.2011 -0.1062
  392MOL0     O53989   5.549   0.905   8.982 -0.4172  0.0898  0.6936
  392MOL0     C53990   5.689   0.877   8.998 -0.1009  0.4565  0.5308
  392MOL0     C53991   5.740   0.853   9.124 -0.0410  0.0673 -0.3328
  392MOL0     C53992   5.880   0.836   9.132  0.3834  0.5493  0.0103
  392MOL0     C53993   5.962   0.824   9.022  0.2315 -0.2859  0.7014
  392MOL0     O53994   6.093   0.804   9.051 -0.0148 -0.0021  0.9214
  392MOL0     C53995   6.198   0.881   8.978 -0.1480  0.5480 -0.1964
  392MOL0     C53996   6.325   0.813   9.025  0.0056  0.2716  0.6153
  392MOL0     C53997   6.448   0.886   8.964  0.3704 -0.6579  0.7595
  392MOL0     C53998   6.585   0.820   8.981  0.5619  0.0159  0.6089
  392MOL0     C53999   6.698   0.896   8.910  0.3220 -0.0283  0.7531
  392MOL0     C54000   6.836   0.855   8.963 -1.0905  0.2072  0.0357
  392MOL0     C54001   6.857   0.717   8.913  0.4511  0.5410  0.2400
  392MOL0     C54002   6.995   0.673   8.934 -0.0780 -0.2465 -0.2283
  392MOL0    Cl54003   7.122   0.791   8.874  0.0469  0.0894  0.0981
  392MOL0     C54004   5.903   0.833   8.893 -0.8172 -0.3486 -0.8517
  392MOL0     C54005   5.766   0.859   8.883 -0.0852 -1.1217 -0.4827
  392MOL0     O54006   5.611   1.129   8.978  0.7606 -0.0515  0.2987
  392MOL0     C54007   5.291   0.993   8.917  0.1474  0.3636  0.4250
  392MOL0     C54008   5.170   1.011   8.857 -0.4112  0.1703 -0.4139
  392MOL0     N54009   4.360   1.281   8.708 -1.0271 -0.1114 -0.2418
  392MOL0     N54010   4.264   1.205   8.735  0.7626  0.4582  0.2399
  392MOL0     C54011   3.561   0.428   8.271  0.0735  0.4784 -0.5122
  392MOL0     C54012   3.425   0.442   8.234 -0.0035 -0.8248 -0.0097
  392MOL0     C54013   2.989   0.413   8.293  0.2748  0.1691 -0.5154
  392MOL0     C54014   2.926   0.513   8.367  0.7122  0.1124  0.1927
  392MOL0     C54015   2.788   0.542   8.344  0.0156 -1.3593  0.4836
  392MOL0     C54016   2.710   0.470   8.256 -0.0559 -0.3952  1.1731
  392MOL0     O54017   2.577   0.511   8.236  0.4978  0.7509  0.2106
  392MOL0     C54018   2.518   0.519   8.104  0.4637 -0.2818 -0.2225
  392MOL0     C54019   2.382   0.601   8.081 -0.2291 -0.8237  0.1533
  392MOL0     C54020   2.280   0.576   8.192  0.0695  0.8548 -0.1304
  392MOL0     C54021   2.142   0.632   8.157 -0.4237  0.1158 -0.5507
  392MOL0     C54022   2.052   0.612   8.267  0.1820 -0.2381 -0.0565
  392MOL0     C54023   1.962   0.615   8.353 -0.7528  0.3234 -0.6903
  392MOL0     C54024   2.768   0.356   8.187 -0.8291 -0.8772 -0.0220
  392MOL0     C54025   2.906   0.332   8.211 -0.8922  0.6007 -0.3348
  392MOL0     C54026   2.963   0.211   8.151 -0.5633 -0.1490 -0.7559
  392MOL0     H54027   3.330   0.123   8.270 -2.5962  1.8309  0.5709
  392MOL0     H54028   3.576   0.106   8.348  0.5943 -0.1105 -0.7802
  392MOL0     H54029   3.765   0.407   8.502  2.6678 -2.3294  0.9389
  392MOL0     H54030   3.804   0.494   8.345  1.2019 -0.6388 -0.8589
  392MOL0     H54031   3.973   0.301   8.502 -0.3683  1.0283  1.9301
  392MOL0     H54032   4.002   0.327   8.331  2.5127  1.5440  0.7096
  392MOL0     H54033   4.108   0.449   8.559 -1.4729  0.2321  0.3047
  392MOL0     H54034   4.144   0.503   8.401 -1.5269  1.3183 -0.8517
  392MOL0     H54035   3.932   0.655   8.410  0.7245 -0.6847 -1.2066
  392MOL0     H54036   3.933   0.626   8.582 -0.9115 -0.1868  0.4445
  392MOL0     H54037   4.146   0.763   8.421 -1.7077 -1.0344 -1.0818
  392MOL0     H54038   4.170   0.685   8.582  1.1661  2.1030 -0.6336
  392MOL0     H54039   3.940   0.880   8.510  3.0173  0.8446 -2.7413
  392MOL0     H54040   3.991   0.830   8.670  1.1324  2.1062  1.9691
  392MOL0     H54041   4.063   1.073   8.592 -1.3403 -0.5827 -0.2926
  392MOL0     H54042   4.183   0.988   8.493  2.3851 -3.0390  1.1288
  392MOL0     H54043   4.125   0.965   8.789  0.8955 -0.9108  0.4989
  392MOL0     H54044   4.245   0.861   8.708 -0.1593 -0.6650  0.2528
  392MOL0     H54045   4.472   1.000   8.582 -0.1420 -0.2558 -0.9943
  392MOL0     H54046   4.587   1.357   8.557  1.2460 -0.2330  0.3609
  392MOL0     H54047   4.609   1.186   8.506 -0.6270 -1.9977  0.8937
  392MOL0     H54048   4.713   1.319   8.762  0.9988 -1.4773  1.0976
  392MOL0     H54049   4.704   1.137   8.731  2.5234 -0.0432 -0.7084
  392MOL0     H54050   4.838   1.161   8.539  0.7264 -0.8654  1.6600
  392MOL0     H54051   4.813   1.337   8.540 -3.0721  0.1702 -1.1917
  392MOL0     H54052   5.036   1.295   8.596  1.1248  1.8459  1.8236
  392MOL0     H54053   4.981   1.309   8.759  1.3316  0.2868  0.2170
  392MOL0     H54054   5.248   1.296   8.675 -4.0048  0.9265  0.8082
  392MOL0     H54055   5.585   1.239   8.744  1.9269  0.6910  3.0804
  392MOL0     H54056   5.506   1.352   8.851 -2.2275 -2.3953  1.3266
  392MOL0     H54057   5.458   1.347   8.677  4.0800  1.5465 -0.8737
  392MOL0     H54058   5.683   0.861   9.216  0.1127  1.9072 -0.3478
  392MOL0     H54059   5.936   0.835   9.225  0.1491 -1.3087  0.1730
  392MOL0     H54060   6.182   0.868   8.870  2.6493 -4.1874 -0.3040
  392MOL0     H54061   6.191   0.985   9.011 -2.4465 -0.0313  1.3735
  392MOL0     H54062   6.330   0.806   9.134  1.7952  0.1997  0.5572
  392MOL0     H54063   6.333   0.708   8.994 -1.0558  0.0167  1.1379
  392MOL0     H54064   6.443   0.981   9.018 -1.8996 -0.7544  0.8076
  392MOL0     H54065   6.435   0.913   8.859 -1.7016 -1.0063  0.8749
  392MOL0     H54066   6.571   0.719   8.940  1.6608 -0.1306  0.5768
  392MOL0     H54067   6.612   0.811   9.087  1.0074 -1.8031  0.3811
  392MOL0     H54068   6.687   0.878   8.803 -2.0793 -1.0889  1.1177
  392MOL0     H54069   6.688   1.003   8.932 -1.6063 -0.3631  1.7035
  392MOL0     H54070   6.838   0.856   9.073  2.3117 -1.7570  0.1254
  392MOL0     H54071   6.915   0.926   8.938  2.8822 -4.3452 -1.9171
  392MOL0     H54072   6.846   0.704   8.805 -0.6130 -0.4269  0.4582
  392MOL0     H54073   6.782   0.650   8.955 -0.5904  0.3155 -1.8675
  392MOL0     H54074   7.011   0.577   8.883  0.0122 -0.0628 -0.5521
  392MOL0     H54075   7.011   0.656   9.041  0.7442  3.6740  0.4226
  392MOL0     H54076   5.962   0.820   8.803 -0.2805  0.6964 -0.6635
  392MOL0     H54077   5.725   0.869   8.783 -2.4266  2.1995  0.6504
  392MOL0     H54078   5.296   0.929   9.005 -0.1234 -0.7833 -0.3816
  392MOL0     H54079   5.101   0.930   8.879  0.5822 -0.2991  1.1571
  392MOL0     H54080   3.612   0.521   8.297 -1.4281  1.0567  0.4789
  392MOL0     H54081   3.398   0.546   8.217  1.0737 -1.0548 -4.4446
  392MOL0     H54082   2.977   0.572   8.442  1.4837 -0.9689  0.5492
  392MOL0     H54083   2.749   0.632   8.388 -2.3305 -1.0899 -1.9328
  392MOL0     H54084   2.595   0.552   8.033 -0.9489  5.8355  0.5020
  392MOL0     H54085   2.492   0.416   8.077 -2.5862 -0.5039  2.8244
  392MOL0     H54086   2.338   0.580   7.983 -0.9472  1.8893 -0.1825
  392MOL0     H54087   2.406   0.707   8.078  0.2025 -0.9256  0.0142
  392MOL0     H54088   2.274   0.469   8.217 -0.5754  0.1131 -3.0047
  392MOL0     H54089   2.314   0.628   8.282 -0.8416  1.3084 -0.0330
  392MOL0     H54090   2.105   0.592   8.062 -0.7299 -1.5116  0.2074
  392MOL0     H54091   2.147   0.739   8.138  1.1005  0.2710  0.5064
  392MOL0     H54092   1.881   0.617   8.424 -0.1409 -2.5244  0.2389
  392MOL0     H54093   2.713   0.299   8.113  0.4432  1.7001 -3.1692
  392MOL0     H54094   2.997   0.249   8.054 -1.1377 -0.4058 -1.0636
  392MOL0     H54095   3.044   0.169   8.210 -1.4955 -0.7263  0.1430
  392MOL0     H54096   2.884   0.137   8.138 -1.9426  1.1198  0.0574
  393MOL0     O54097  11.298   5.552   4.220  0.0089  0.7854 -1.1576
  393MOL0     C54098  11.214   5.625   4.183  0.3564  0.1601  0.9745
  393MOL0     O54099  11.217   5.762   4.195 -0.3427 -0.6036 -0.3650
  393MOL0     C54100  11.241   5.818   4.317  0.8011 -0.7343 -0.5934
  393MOL0     C54101  11.174   5.941   4.345  0.2630  0.3803  0.4198
  393MOL0     C54102  11.196   6.012   4.459 -0.2064 -0.1688 -0.6793
  393MOL0     C54103  11.298   5.987   4.552  0.2317  0.3874  0.0417
  393MOL0     O54104  11.324   6.064   4.665  1.0453 -0.7835 -0.2586
  393MOL0     C54105  11.209   6.076   4.747 -0.1410  0.3414 -0.4670
  393MOL0     C54106  11.230   6.174   4.857 -0.1263 -0.1221  0.5325
  393MOL0     C54107  11.105   6.197   4.948  0.4405 -0.5905  0.1965
  393MOL0     C54108  11.123   6.314   5.047  0.0395  0.3064  0.2290
  393MOL0     C54109  11.139   6.452   4.997 -0.2544  0.0536 -0.0055
  393MOL0     C54110  11.101   6.566   5.093  1.0906  0.2311  0.7327
  393MOL0     C54111  11.205   6.579   5.202  0.1326 -0.0662  0.4064
  393MOL0     C54112  11.167   6.682   5.304 -0.8743  0.8228  0.0844
  393MOL0     N54113  11.185   6.817   5.255  1.1849 -0.5264 -0.1506
  393MOL0     C54114  11.309   6.869   5.241  0.5247  0.2206 -0.5518
  393MOL0     C54115  11.288   7.003   5.239  0.6814 -0.1777  0.5367
  393MOL0     C54116  11.392   7.111   5.232 -0.0550 -0.0826  0.3975
  393MOL0     C54117  11.447   7.144   5.088 -0.2848  0.3017 -0.8293
  393MOL0     C54118  11.488   7.289   5.082  0.5827  0.4669 -0.8214
  393MOL0     C54119  11.566   7.315   4.953 -0.1770  0.3376  1.0551
  393MOL0     O54120  11.518   7.254   4.831  0.1490  0.1818 -0.3017
  393MOL0     C54121  11.387   7.278   4.785 -0.0670  0.5438 -0.3950
  393MOL0     C54122  11.308   7.396   4.815  0.6350  0.5653 -0.1699
  393MOL0     C54123  11.181   7.405   4.756 -0.1322 -0.7698  0.3651
  393MOL0     C54124  11.104   7.540   4.777 -0.3803  0.3899  0.5932
  393MOL0     C54125  11.129   7.300   4.672  1.0047 -0.3694 -0.0196
  393MOL0     C54126  11.007   7.315   4.584 -0.2518 -0.3306 -0.5206
  393MOL0     O54127  11.031   7.285   4.450 -0.4600  0.3168 -0.4648
  393MOL0     C54128  10.934   7.315   4.366 -0.4361 -0.2010  0.4130
  393MOL0     C54129  10.877   7.446   4.369  0.2497  0.0421  0.2053
  393MOL0     C54130  10.768   7.480   4.281 -0.6726  0.5883 -0.4404
  393MOL0     C54131  10.723   7.389   4.191 -0.2307 -0.0820  0.3679
  393MOL0     O54132  10.623   7.408   4.101 -0.1877  0.3818  0.3580
  393MOL0     C54133  10.508   7.323   4.114  1.0371  0.1040  0.1804
  393MOL0     C54134  10.391   7.373   4.019 -0.0677  0.1030 -0.5564
  393MOL0     C54135  10.319   7.498   4.078 -0.8851  0.1200 -0.6856
  393MOL0     C54136  10.174   7.473   4.141  0.5384 -1.1484 -0.7634
  393MOL0     C54137  10.050   7.496   4.052 -0.2983 -0.0947 -0.1996
  393MOL0     C54138   9.931   7.394   4.073  0.0094  0.2096  0.2234
  393MOL0     C54139   9.806   7.409   3.983  0.6262 -0.0778 -0.0569
  393MOL0     C54140   9.784   7.549   3.917  0.7432 -0.6968 -0.0363
  393MOL0    Cl54141   9.761   7.676   4.046 -0.1191  0.3161 -0.3853
  393MOL0     C54142  10.777   7.255   4.194 -0.6234  0.8378  0.1694
  393MOL0     C54143  10.880   7.222   4.282 -0.2340 -0.2695 -0.3539
  393MOL0     O54144  10.898   7.326   4.639 -0.1362  0.3665  0.7576
  393MOL0     C54145  11.213   7.195   4.650 -0.4295 -0.1319 -0.8254
  393MOL0     C54146  11.337   7.177   4.711  0.5905  0.3561 -0.4967
  393MOL0     N54147  11.153   7.031   5.260 -0.1963 -0.6632 -0.3859
  393MOL0     N54148  11.095   6.920   5.267  0.1945 -0.4664 -0.0010
  393MOL0     C54149  11.367   5.857   4.532  0.0698  0.0014 -1.0742
  393MOL0     C54150  11.329   5.779   4.419 -0.2001 -0.2315  0.8018
  393MOL0     C54151  11.094   5.575   4.112 -0.2977 -0.1964 -0.4138
  393MOL0     C54152  10.979   5.656   4.106 -0.5852 -0.0047 -0.1846
  393MOL0     C54153  10.865   5.618   4.036 -0.1178  0.3132  0.0606
  393MOL0     C54154  10.863   5.484   3.992  0.7836  0.1924  0.2522
  393MOL0     O54155  10.739   5.446   3.945  0.2455  0.3976  0.5167
  393MOL0     C54156  10.704   5.447   3.806 -0.1757  0.3173  0.5119
  393MOL0     C54157  10.587   5.348   3.779 -0.0501  0.8209 -0.2897
  393MOL0     C54158  10.608   5.218   3.875 -0.3859  0.4096 -0.2068
  393MOL0     C54159  10.517   5.101   3.834  0.0333 -0.8262  0.5300
  393MOL0     C54160  10.373   5.134   3.860  0.0241 -0.2943  0.1132
  393MOL0     C54161  10.268   5.191   3.880  0.9588 -0.0119  0.2504
  393MOL0     C54162  10.967   5.401   4.014  0.2034 -0.7257  0.5527
  393MOL0     C54163  11.083   5.449   4.067 -0.8452 -0.0007  0.5015
  393MOL0     C54164  11.189   5.350   4.071  1.0804  0.0137  0.1091
  393MOL0     H54165  11.102   5.969   4.269 -1.7446 -0.5221  1.8966
  393MOL0     H54166  11.125   6.093   4.472 -0.4908 -0.5826  0.4431
  393MOL0     H54167  11.184   5.978   4.788  2.1418  1.5216  4.5397
  393MOL0     H54168  11.124   6.115   4.691 -1.3083  0.0055  1.0019
  393MOL0     H54169  11.314   6.141   4.920  0.0830  0.6467  0.6592
  393MOL0     H54170  11.271   6.263   4.809  1.9070 -1.5880 -0.6426
  393MOL0     H54171  11.020   6.230   4.888  1.1202 -0.4122 -0.6924
  393MOL0     H54172  11.089   6.103   5.001  0.2312  0.1922  1.5537
  393MOL0     H54173  11.033   6.325   5.109  0.4800 -0.9919  1.1392
  393MOL0     H54174  11.215   6.300   5.105 -0.2075 -0.6728  0.3937
  393MOL0     H54175  11.079   6.466   4.906  2.9536  0.1146 -2.2666
  393MOL0     H54176  11.242   6.462   4.963 -0.7759  0.2859 -1.6402
  393MOL0     H54177  11.101   6.657   5.032 -3.8745  0.0963  0.0847
  393MOL0     H54178  11.002   6.554   5.138  0.0636 -2.1416 -1.8447
  393MOL0     H54179  11.298   6.612   5.156 -0.9526  0.4661 -1.4932
  393MOL0     H54180  11.225   6.480   5.245 -0.6496 -0.2525  0.3734
  393MOL0     H54181  11.063   6.676   5.338  0.0845  2.1354  3.8682
  393MOL0     H54182  11.233   6.664   5.390  1.0868  1.5762 -1.2079
  393MOL0     H54183  11.405   6.818   5.237 -0.1629 -1.7300  3.2567
  393MOL0     H54184  11.474   7.085   5.300 -2.1098 -0.3037  2.9662
  393MOL0     H54185  11.332   7.195   5.269 -3.0153 -2.3693  1.1675
  393MOL0     H54186  11.530   7.072   5.084 -0.2843 -0.0925  2.9523
  393MOL0     H54187  11.380   7.114   5.007  2.6270 -3.8343 -2.1093
  393MOL0     H54188  11.395   7.346   5.085 -0.9505 -1.9609  0.5330
  393MOL0     H54189  11.545   7.318   5.171 -2.9490 -0.6874  2.0438
  393MOL0     H54190  11.584   7.420   4.929  1.2978  0.8571  3.9300
  393MOL0     H54191  11.662   7.264   4.958 -0.0403  0.6776  2.5423
  393MOL0     H54192  11.353   7.473   4.876  1.8122  0.6606 -1.1035
  393MOL0     H54193  11.013   7.546   4.718  0.3533 -0.2874 -0.6614
  393MOL0     H54194  11.170   7.623   4.752  0.9456 -0.4235  1.2601
  393MOL0     H54195  11.064   7.548   4.878  1.0148  0.9263  1.1315
  393MOL0     H54196  10.914   7.525   4.434 -1.0308  0.5933  0.3059
  393MOL0     H54197  10.722   7.578   4.288 -2.5140 -0.0351 -2.5579
  393MOL0     H54198  10.531   7.219   4.089 -0.8902 -0.2245 -0.3991
  393MOL0     H54199  10.494   7.326   4.222  0.5464  1.3905  0.0962
  393MOL0     H54200  10.428   7.406   3.921 -0.1790 -0.9030 -0.9453
  393MOL0     H54201  10.326   7.288   3.998  2.7730 -2.0029 -1.3981
  393MOL0     H54202  10.302   7.575   4.001 -1.0236  0.6137 -0.1709
  393MOL0     H54203  10.383   7.550   4.149 -2.3379  0.7806  0.1971
  393MOL0     H54204  10.159   7.551   4.217 -0.4130 -1.5416 -0.5312
  393MOL0     H54205  10.173   7.375   4.189 -2.2418 -1.1136 -0.5716
  393MOL0     H54206  10.011   7.596   4.072  4.1034  1.7016  0.4470
  393MOL0     H54207  10.087   7.494   3.949 -1.1289  1.7281 -0.5721
  393MOL0     H54208   9.895   7.380   4.175 -1.7217 -3.5631 -0.7552
  393MOL0     H54209   9.972   7.299   4.037  1.4503  1.1362 -0.6960
  393MOL0     H54210   9.722   7.386   4.050  0.1982  1.2564 -0.1083
  393MOL0     H54211   9.816   7.333   3.906  0.0806  0.4693 -0.6788
  393MOL0     H54212   9.697   7.558   3.851 -1.5070 -1.5846  2.6556
  393MOL0     H54213   9.872   7.584   3.862  1.0511  1.1200  1.5156
  393MOL0     H54214  10.733   7.173   4.139 -1.7769  0.7522  1.1796
  393MOL0     H54215  10.916   7.119   4.274  0.9914  0.2675 -3.2992
  393MOL0     H54216  11.187   7.115   4.581  1.7744 -0.9672 -0.7660
  393MOL0     H54217  11.387   7.082   4.729  3.8825  1.8084 -1.1347
  393MOL0     H54218  11.453   5.846   4.597 -0.1055  0.8347 -0.6814
  393MOL0     H54219  11.395   5.694   4.402 -1.0530 -0.4602 -1.7011
  393MOL0     H54220  10.987   5.755   4.150  1.9884 -0.5614  0.7981
  393MOL0     H54221  10.783   5.684   4.009 -0.4343 -0.7737 -1.7956
  393MOL0     H54222  10.676   5.549   3.779 -1.8161 -0.5180 -1.1643
  393MOL0     H54223  10.792   5.415   3.750 -0.6767  0.5159 -0.4017
  393MOL0     H54224  10.578   5.316   3.675 -1.4306 -0.3095  0.1531
  393MOL0     H54225  10.496   5.403   3.805  0.3376  0.7732  1.2991
  393MOL0     H54226  10.712   5.186   3.870 -0.5052  0.1680 -1.2523
  393MOL0     H54227  10.582   5.237   3.980 -0.4670 -2.8028  0.4506
  393MOL0     H54228  10.535   5.009   3.890  2.1530 -0.7423  0.1062
  393MOL0     H54229  10.520   5.074   3.728  2.7267 -3.1208  1.0581
  393MOL0     H54230  10.177   5.241   3.903  0.1199 -1.7787  0.9530
  393MOL0     H54231  10.945   5.298   3.988 -2.0596  0.2629 -1.9670
  393MOL0     H54232  11.281   5.387   4.026  0.7500  0.7489  0.0097
  393MOL0     H54233  11.211   5.325   4.176  4.6891 -1.2288 -0.7894
  393MOL0     H54234  11.169   5.253   4.025  0.2925 -0.5304  1.5177
  394MOL0     O54235   2.198   0.352   4.435 -0.6059 -0.2879 -0.3764
  394MOL0     C54236   2.092   0.340   4.496 -0.0032  0.8146  0.1955
  394MOL0     O54237   2.077   0.378   4.628 -0.3696 -0.5999  0.3022
  394MOL0     C54238   2.195   0.409   4.700 -0.3463 -0.0248  0.9946
  394MOL0     C54239   2.267   0.522   4.678 -0.2744 -0.2641 -0.4899
  394MOL0     C54240   2.374   0.559   4.761  0.0282  0.8263  0.8471
  394MOL0     C54241   2.421   0.465   4.857  0.8402  0.0599 -0.0334
  394MOL0     O54242   2.532   0.478   4.935 -0.2043 -0.0131  0.1370
  394MOL0     C54243   2.612   0.597   4.921  0.4914  0.0123 -0.0205
  394MOL0     C54244   2.745   0.582   4.986 -0.2568  0.4181 -0.0113
  394MOL0     C54245   2.830   0.714   4.983  0.0933  0.4468  0.6209
  394MOL0     C54246   2.978   0.681   5.026 -0.8203 -0.3919  0.0570
  394MOL0     C54247   3.059   0.803   5.013 -1.0860 -0.0952  0.2311
  394MOL0     C54248   3.200   0.798   5.076 -0.5243 -0.1173  0.5636
  394MOL0     C54249   3.280   0.913   5.024  0.1625  0.4325  0.5701
  394MOL0     C54250   3.346   0.873   4.887  0.4712 -0.0431 -0.3157
  394MOL0     N54251   3.444   0.766   4.890 -0.9423 -0.2576 -0.0991
  394MOL0     C54252   3.425   0.636   4.902  0.1072  0.4984 -0.7261
  394MOL0     C54253   3.538   0.574   4.938 -0.1470 -0.5573 -1.2875
  394MOL0     C54254   3.551   0.431   4.952 -0.2542  0.0379  0.1305
  394MOL0     C54255   3.676   0.369   4.883  0.0549  0.6611  0.4451
  394MOL0     C54256   3.801   0.383   4.974 -0.8792  0.2805  1.0390
  394MOL0     C54257   3.901   0.299   4.896  0.9550 -0.4332  0.1446
  394MOL0     O54258   3.950   0.364   4.779  0.0011  0.7386  0.4331
  394MOL0     C54259   4.055   0.446   4.791 -0.2833 -0.0584  0.1875
  394MOL0     C54260   4.128   0.485   4.676 -0.4523  0.2038 -0.4031
  394MOL0     C54261   4.244   0.567   4.676  0.1027  0.5038 -0.0944
  394MOL0     C54262   4.320   0.580   4.550 -0.1045  0.3900 -0.3695
  394MOL0     C54263   4.276   0.628   4.794 -0.0832  0.0743  0.2423
  394MOL0     C54264   4.400   0.707   4.815 -0.5184 -0.3045 -0.8579
  394MOL0     O54265   4.443   0.718   4.947  0.1242  0.5425 -0.3788
  394MOL0     C54266   4.559   0.783   4.964 -0.6241 -0.0001 -0.3101
  394MOL0     C54267   4.564   0.923   4.950 -0.4109 -0.1802  0.1625
  394MOL0     C54268   4.678   0.989   4.993  0.8923  0.3711  0.5694
  394MOL0     C54269   4.802   0.922   5.027 -0.6753  0.2827 -0.0132
  394MOL0     O54270   4.923   0.991   5.034  0.3632 -0.3547  0.7853
  394MOL0     C54271   5.046   0.924   5.001 -0.1336 -0.1159 -0.3264
  394MOL0     C54272   5.176   1.023   5.004  0.0850 -1.0775 -0.5044
  394MOL0     C54273   5.306   0.949   5.007 -0.8097  0.0450  0.3505
  394MOL0     C54274   5.411   1.058   5.030  0.5331  0.2653 -0.1068
  394MOL0     C54275   5.544   0.976   5.037 -0.3793  0.6150  0.2203
  394MOL0     C54276   5.665   1.070   5.043  0.0391  0.4549  1.3110
  394MOL0     C54277   5.784   1.019   4.961 -0.5200 -0.2767  0.3794
  394MOL0     C54278   5.912   1.083   5.002  0.1932  0.5444 -1.0580
  394MOL0    Cl54279   5.941   1.035   5.181  0.1741 -0.5135  0.0949
  394MOL0     C54280   4.802   0.779   5.033  0.1739 -0.9512 -0.9000
  394MOL0     C54281   4.680   0.715   5.006 -0.1630 -0.4912  0.9411
  394MOL0     O54282   4.446   0.778   4.723 -0.4618  0.1990 -0.0780
  394MOL0     C54283   4.199   0.605   4.907 -0.4232  0.3761  0.0400
  394MOL0     C54284   4.094   0.516   4.903 -0.0445 -0.6058 -0.0946
  394MOL0     N54285   3.633   0.672   4.946 -0.1345  0.3807  0.1658
  394MOL0     N54286   3.577   0.785   4.919  0.1404 -0.2991  0.6596
  394MOL0     C54287   2.353   0.347   4.879  0.4991  0.3758 -0.0673
  394MOL0     C54288   2.235   0.323   4.803 -0.6424  0.4852  0.4439
  394MOL0     C54289   1.972   0.300   4.423 -1.1926  0.6485 -0.2337
  394MOL0     C54290   1.866   0.239   4.498  0.5884  0.1928  0.4520
  394MOL0     C54291   1.744   0.201   4.440 -0.7110 -0.8309 -1.0062
  394MOL0     C54292   1.720   0.220   4.302  0.0555  0.0903  0.9424
  394MOL0     O54293   1.607   0.180   4.236  0.4843  0.0748  0.5611
  394MOL0     C54294   1.483   0.154   4.312 -0.6453  0.1573 -0.2000
  394MOL0     C54295   1.379   0.128   4.196  0.6522 -0.4357  0.5480
  394MOL0     C54296   1.245   0.065   4.252  0.9027 -0.1820  0.7293
  394MOL0     C54297   1.137   0.031   4.144 -0.7943  0.4930 -0.1476
  394MOL0     C54298   1.135   0.134   4.035 -0.1007  0.5543 -0.9204
  394MOL0     C54299   1.141   0.218   3.942  0.4539  0.0935  0.2742
  394MOL0     C54300   1.834   0.258   4.226  0.9165 -0.0749  0.3183
  394MOL0     C54301   1.961   0.291   4.287  0.9298 -0.6709 -0.0586
  394MOL0     C54302   2.072   0.309   4.192 -0.2866 -0.2146 -0.3582
  394MOL0     H54303   2.241   0.591   4.598  0.4285 -0.8569 -1.2518
  394MOL0     H54304   2.412   0.660   4.749 -0.3452  0.8292 -0.5835
  394MOL0     H54305   2.562   0.690   4.949  0.4459  0.2237 -0.7986
  394MOL0     H54306   2.625   0.598   4.813 -3.8575 -2.3413 -0.7959
  394MOL0     H54307   2.705   0.559   5.085 -4.0163  0.2897 -1.3988
  394MOL0     H54308   2.814   0.509   4.943  0.6340 -0.2559  2.4025
  394MOL0     H54309   2.824   0.764   4.886  0.1327  1.8220  1.3162
  394MOL0     H54310   2.782   0.790   5.044  1.3732  1.4606  0.4043
  394MOL0     H54311   2.991   0.639   5.126 -0.1730 -1.2393 -0.3705
  394MOL0     H54312   3.023   0.610   4.956  1.5244 -0.0365  1.1141
  394MOL0     H54313   3.015   0.885   5.073  0.5873 -0.7447  2.4794
  394MOL0     H54314   3.066   0.838   4.910 -3.3180  6.2319  1.7323
  394MOL0     H54315   3.195   0.808   5.185 -5.1044 -0.5315  0.5680
  394MOL0     H54316   3.243   0.697   5.070  0.4867  0.2412  1.4156
  394MOL0     H54317   3.354   0.943   5.099 -0.7342 -1.1619  2.1632
  394MOL0     H54318   3.221   1.004   5.012  0.1997  0.5295  1.1098
  394MOL0     H54319   3.268   0.844   4.816 -0.7212  1.4315  0.3538
  394MOL0     H54320   3.389   0.965   4.847 -1.3544  0.7889 -0.4743
  394MOL0     H54321   3.330   0.586   4.883 -0.3438  1.4244 -0.9658
  394MOL0     H54322   3.461   0.387   4.908 -0.6666  0.0364  0.9682
  394MOL0     H54323   3.554   0.399   5.056 -0.3763 -1.0199 -0.1870
  394MOL0     H54324   3.650   0.265   4.860 -1.1189  0.8479  0.8680
  394MOL0     H54325   3.702   0.413   4.786  1.3307  0.2483  0.5818
  394MOL0     H54326   3.829   0.488   4.985 -1.2561  0.4874  0.1577
  394MOL0     H54327   3.782   0.329   5.067 -1.7848 -1.2778 -0.0058
  394MOL0     H54328   3.994   0.272   4.947  0.8156 -3.7020 -1.0738
  394MOL0     H54329   3.846   0.209   4.866 -0.1859  1.3946 -3.9654
  394MOL0     H54330   4.097   0.448   4.579 -1.3507  0.2479 -0.1383
  394MOL0     H54331   4.275   0.515   4.474 -0.5302 -0.8246  0.8902
  394MOL0     H54332   4.425   0.552   4.567  0.6601  1.4449 -2.8251
  394MOL0     H54333   4.338   0.681   4.512  2.1304  0.2899  0.2703
  394MOL0     H54334   4.470   0.974   4.929  0.0232  0.6456  0.2009
  394MOL0     H54335   4.654   1.095   4.992 -3.9476 -0.4908 -0.3362
  394MOL0     H54336   5.058   0.853   5.083 -0.3624  1.1577  0.8471
  394MOL0     H54337   5.030   0.865   4.910  0.1735 -1.1414  0.2707
  394MOL0     H54338   5.165   1.076   4.909  0.7592 -2.5966 -1.4670
  394MOL0     H54339   5.177   1.104   5.078 -0.8043  0.7848 -2.4270
  394MOL0     H54340   5.323   0.892   4.915 -1.2147  1.6087 -0.7302
  394MOL0     H54341   5.318   0.876   5.088  0.3097 -0.6042 -0.3702
  394MOL0     H54342   5.390   1.104   5.127  1.7034 -1.2411  0.9185
  394MOL0     H54343   5.414   1.127   4.945  0.9535  0.3689 -0.0066
  394MOL0     H54344   5.555   0.906   5.120 -4.0835 -0.7404 -0.2486
  394MOL0     H54345   5.547   0.917   4.945 -1.4104 -1.1508  1.2541
  394MOL0     H54346   5.679   1.094   5.149 -0.4451  0.3855  1.3935
  394MOL0     H54347   5.648   1.172   5.007  0.8806 -0.4659 -2.0414
  394MOL0     H54348   5.772   1.049   4.857  1.0014  1.4681  0.6418
  394MOL0     H54349   5.802   0.912   4.967  0.3170 -0.0916  1.6706
  394MOL0     H54350   5.915   1.189   4.975  3.6462  0.7676 -0.2420
  394MOL0     H54351   5.989   1.041   4.937  0.4055  1.3821 -1.3585
  394MOL0     H54352   4.893   0.722   5.049  0.3384 -1.3258 -2.8875
  394MOL0     H54353   4.679   0.606   5.008 -0.2769 -0.4793  2.0839
  394MOL0     H54354   4.222   0.652   5.002 -0.5622 -3.0379  1.9108
  394MOL0     H54355   4.044   0.494   4.997 -0.4765  0.0066 -0.1741
  394MOL0     H54356   2.374   0.284   4.965  0.1297 -2.1929 -1.7618
  394MOL0     H54357   2.180   0.232   4.823 -1.2844  0.4917 -1.1481
  394MOL0     H54358   1.863   0.237   4.606  0.9171  2.0918  0.5335
  394MOL0     H54359   1.674   0.151   4.506  1.3391 -2.5144  0.0251
  394MOL0     H54360   1.483   0.060   4.369 -0.3386 -0.8746 -1.8219
  394MOL0     H54361   1.464   0.245   4.368  0.9815  0.5116 -0.1683
  394MOL0     H54362   1.422   0.048   4.134  5.1211  1.0705  1.3147
  394MOL0     H54363   1.370   0.215   4.130  5.4953  0.6469  0.9169
  394MOL0     H54364   1.264  -0.028   4.305 -2.4712 -1.1354  0.4852
  394MOL0     H54365   1.204   0.139   4.322 -0.5652 -1.7514  1.6103
  394MOL0     H54366   1.037   0.033   4.187 -2.3207  0.7191 -3.4216
  394MOL0     H54367   1.150  -0.066   4.096  0.9574 -0.2048  1.5792
  394MOL0     H54368   1.121   0.287   3.863 -2.6820 -1.0075 -0.0121
  394MOL0     H54369   1.834   0.277   4.119 -0.4849 -2.6072 -0.2131
  394MOL0     H54370   2.145   0.231   4.214  0.5223  1.4354  3.6543
  394MOL0     H54371   2.030   0.300   4.091  1.0856 -1.6260 -0.8348
  394MOL0     H54372   2.121   0.406   4.202  0.6163 -0.7855  1.0422
  395MOL0     O54373  10.933   0.658   8.802 -0.7955 -0.5050 -0.0381
  395MOL0     C54374  10.821   0.650   8.842  0.6433  0.4865 -0.4654
  395MOL0     O54375  10.733   0.537   8.823 -0.3049 -1.1345  0.8415
  395MOL0     C54376  10.787   0.441   8.734  0.0874  0.7016 -1.0319
  395MOL0     C54377  10.835   0.471   8.597  1.1232  0.1816 -1.1474
  395MOL0     C54378  10.885   0.375   8.513 -0.3883  0.6673  0.6993
  395MOL0     C54379  10.874   0.240   8.547 -0.6854  0.6424  0.0331
  395MOL0     O54380  10.907   0.133   8.463 -0.2171  0.1964  0.2194
  395MOL0     C54381  11.044   0.117   8.461  0.6188  0.5733  0.0800
  395MOL0     C54382  11.085   0.034   8.580 -0.7200 -0.1821 -0.8805
  395MOL0     C54383  11.236   0.026   8.577 -0.8336 -0.4164 -0.2944
  395MOL0     C54384  11.260  -0.090   8.673  0.7577 -0.1998 -0.6308
  395MOL0     C54385  11.412  -0.122   8.684  0.7751 -0.6025 -0.9122
  395MOL0     C54386  11.413  -0.258   8.756  0.6159  0.9945  0.0976
  395MOL0     C54387  11.550  -0.310   8.788 -0.4138 -0.7990 -0.0838
  395MOL0     C54388  11.614  -0.230   8.900  0.0392  0.1530  0.4369
  395MOL0     N54389  11.574  -0.248   9.039  1.0852  0.7386 -0.4573
  395MOL0     C54390  11.466  -0.192   9.104 -0.2791 -0.7293 -0.5172
  395MOL0     C54391  11.465  -0.252   9.228 -0.7362  0.1671  0.2950
  395MOL0     C54392  11.357  -0.231   9.333  0.8838 -0.3387 -0.0538
  395MOL0     C54393  11.267  -0.359   9.333  0.3889  0.0579  0.1805
  395MOL0     C54394  11.201  -0.378   9.198  0.9968 -0.7098  0.4961
  395MOL0     C54395  11.049  -0.355   9.198  0.5947  0.2823  0.5749
  395MOL0     O54396  10.978  -0.434   9.098 -1.0569  0.2010 -0.1122
  395MOL0     C54397  10.852  -0.411   9.060  0.8698 -0.6597  0.5578
  395MOL0     C54398  10.804  -0.491   8.960 -0.4361  0.1386 -0.2004
  395MOL0     C54399  10.675  -0.486   8.911 -0.3616 -0.1609 -0.4064
  395MOL0     C54400  10.637  -0.590   8.816  0.2124 -0.0194  0.3302
  395MOL0     C54401  10.582  -0.394   8.970  0.2006 -1.2104  0.2233
  395MOL0     C54402  10.436  -0.391   8.940  0.5948 -0.2569  0.0491
  395MOL0     O54403  10.390  -0.469   8.840  0.4200 -0.5440  0.1634
  395MOL0     C54404  10.261  -0.438   8.814  0.0206 -0.3764  0.3405
  395MOL0     C54405  10.224  -0.328   8.734 -0.0234 -1.5244  0.9536
  395MOL0     C54406  10.083  -0.292   8.739  0.0358 -0.7145  0.8319
  395MOL0     C54407   9.984  -0.373   8.798 -0.1439  0.4318  0.5911
  395MOL0     O54408   9.847  -0.363   8.781 -0.3766  0.2534  0.2848
  395MOL0     C54409   9.799  -0.233   8.754  0.1179 -0.6111 -0.4278
  395MOL0     C54410   9.646  -0.208   8.783  0.7318 -0.2630 -0.1521
  395MOL0     C54411   9.622  -0.061   8.813 -0.2788  0.8068  0.0010
  395MOL0     C54412   9.472  -0.037   8.839 -0.0034 -0.4178 -0.3999
  395MOL0     C54413   9.440   0.092   8.919 -0.6880 -0.3770  0.1178
  395MOL0     C54414   9.462   0.223   8.848 -0.3847 -0.9653  0.3976
  395MOL0     C54415   9.461   0.338   8.957  0.2884  0.0294  0.0178
  395MOL0     C54416   9.457   0.471   8.883 -0.1966  0.3991  0.3427
  395MOL0    Cl54417   9.609   0.499   8.792 -0.0071  0.0440 -0.0722
  395MOL0     C54418  10.022  -0.472   8.881 -0.0678 -0.6060 -0.0436
  395MOL0     C54419  10.159  -0.505   8.888  0.8321 -0.3411 -0.5127
  395MOL0     O54420  10.366  -0.322   9.016  0.0861 -1.2241  0.6900
  395MOL0     C54421  10.630  -0.314   9.077  0.0091  0.5339 -0.1847
  395MOL0     C54422  10.763  -0.330   9.119 -0.1515 -0.9708  0.3133
  395MOL0     N54423  11.572  -0.340   9.234 -0.2416  0.2415 -0.2567
  395MOL0     N54424  11.647  -0.332   9.131  0.0083  1.2602  0.1005
  395MOL0     C54425  10.812   0.210   8.675 -0.6371  0.5056  0.9106
  395MOL0     C54426  10.760   0.307   8.758 -0.2752  0.5317  0.7176
  395MOL0     C54427  10.770   0.759   8.918 -0.2046  0.3105 -0.5365
  395MOL0     C54428  10.748   0.748   9.059 -0.1481 -0.9445 -1.2902
  395MOL0     C54429  10.701   0.860   9.130 -0.1586  0.1423  0.0092
  395MOL0     C54430  10.670   0.976   9.072 -0.1975 -0.5141  0.0570
  395MOL0     O54431  10.616   1.066   9.161  0.2143 -0.0437 -0.3619
  395MOL0     C54432  10.539   1.187   9.120 -0.1180 -0.2402 -0.6142
  395MOL0     C54433  10.638   1.309   9.119  0.1694  0.8897  0.0220
  395MOL0     C54434  10.558   1.441   9.135 -0.7448 -0.5109 -0.0390
  395MOL0     C54435  10.633   1.582   9.137  0.4540 -0.3458 -0.8813
  395MOL0     C54436  10.778   1.577   9.111  0.7449 -0.5715  0.3895
  395MOL0     C54437  10.893   1.579   9.062  0.3168 -0.1797 -0.6840
  395MOL0     C54438  10.702   0.998   8.936 -0.5092 -0.0826 -0.9274
  395MOL0     C54439  10.758   0.892   8.862  0.3302 -0.8950 -0.7427
  395MOL0     C54440  10.796   0.917   8.712 -0.0283  1.0215 -1.1182
  395MOL0     H54441  10.836   0.575   8.564  0.2159  0.0143 -1.7540
  395MOL0     H54442  10.929   0.404   8.419 -2.1675  1.5066  0.0619
  395MOL0     H54443  11.101   0.209   8.447 -1.5323  1.8797 -0.6231
  395MOL0     H54444  11.073   0.060   8.372 -1.3979 -1.6988  0.7825
  395MOL0     H54445  11.051   0.086   8.670  0.3034  1.0108 -1.1399
  395MOL0     H54446  11.040  -0.065   8.574 -0.1421 -0.3485 -3.3735
  395MOL0     H54447  11.264   0.001   8.474 -0.3186  0.1422 -0.2974
  395MOL0     H54448  11.288   0.117   8.606 -0.9445  0.2020 -1.8896
  395MOL0     H54449  11.225  -0.063   8.774  1.6039 -2.8742  0.4830
  395MOL0     H54450  11.199  -0.178   8.649 -1.4939  0.9259  0.6418
  395MOL0     H54451  11.464  -0.047   8.745  1.6255 -1.0180 -1.1122
  395MOL0     H54452  11.459  -0.134   8.586 -0.9329  1.1080 -2.0146
  395MOL0     H54453  11.354  -0.250   8.848 -0.4947  0.6053 -0.5552
  395MOL0     H54454  11.359  -0.333   8.697  0.8269  0.8760  0.0552
  395MOL0     H54455  11.613  -0.305   8.699  1.1397 -0.7326  0.9866
  395MOL0     H54456  11.540  -0.417   8.811  1.0390 -1.3734 -1.8118
  395MOL0     H54457  11.719  -0.260   8.901 -0.6914 -2.7161  1.9018
  395MOL0     H54458  11.604  -0.123   8.884 -2.9695  0.3097  2.5731
  395MOL0     H54459  11.404  -0.122   9.048 -0.8812 -2.0389 -1.5275
  395MOL0     H54460  11.305  -0.139   9.309  0.9403 -0.7781 -1.9706
  395MOL0     H54461  11.387  -0.216   9.438 -1.3832  0.8729  0.5001
  395MOL0     H54462  11.325  -0.450   9.354 -0.7633 -0.1676  2.8233
  395MOL0     H54463  11.195  -0.346   9.415 -1.9662  0.2745 -1.8170
  395MOL0     H54464  11.242  -0.314   9.119 -4.0964  1.5046 -0.7336
  395MOL0     H54465  11.210  -0.485   9.177 -0.3144 -0.6520 -0.4728
  395MOL0     H54466  11.013  -0.388   9.296 -0.7341 -1.2157 -0.3607
  395MOL0     H54467  11.028  -0.248   9.186 -0.7828 -0.1254 -1.1682
  395MOL0     H54468  10.866  -0.574   8.927  3.1228  2.7404 -0.6336
  395MOL0     H54469  10.574  -0.548   8.737 -0.4448  0.9989  1.3575
  395MOL0     H54470  10.573  -0.658   8.873 -1.0630  1.0800  0.2561
  395MOL0     H54471  10.717  -0.643   8.764  1.4184  2.3816 -0.4147
  395MOL0     H54472  10.285  -0.261   8.674 -0.3734  0.8318  3.0784
  395MOL0     H54473  10.049  -0.202   8.690 -2.3228 -0.6235  2.4716
  395MOL0     H54474   9.861  -0.166   8.815 -1.2938  2.0251 -1.7181
  395MOL0     H54475   9.811  -0.206   8.649  1.7907 -0.7540 -0.3027
  395MOL0     H54476   9.593  -0.240   8.693  1.7039 -0.5199 -0.6472
  395MOL0     H54477   9.619  -0.267   8.870  0.6069 -3.2708 -2.0732
  395MOL0     H54478   9.666  -0.003   8.731  1.7552 -1.0192 -0.3073
  395MOL0     H54479   9.685  -0.024   8.894 -0.3729  4.0686 -1.2517
  395MOL0     H54480   9.430  -0.125   8.888  1.4850 -0.1002  1.5991
  395MOL0     H54481   9.416  -0.022   8.746  1.3298 -0.7537 -1.2822
  395MOL0     H54482   9.337   0.093   8.956  0.3666  0.4115  3.4593
  395MOL0     H54483   9.492   0.082   9.015 -0.9974 -0.5636  0.2690
  395MOL0     H54484   9.382   0.251   8.779  0.1113 -0.4061  0.0420
  395MOL0     H54485   9.560   0.222   8.799 -0.3260  2.8542  0.1419
  395MOL0     H54486   9.548   0.342   9.023 -0.4629 -1.2111  1.1248
  395MOL0     H54487   9.369   0.333   9.016 -0.7355 -0.7885 -1.5644
  395MOL0     H54488   9.464   0.543   8.965 -0.1284 -0.0535  0.7381
  395MOL0     H54489   9.372   0.474   8.814  0.1086 -0.4668 -0.0855
  395MOL0     H54490   9.943  -0.530   8.928 -2.4544  1.3505 -1.4335
  395MOL0     H54491  10.194  -0.590   8.946 -1.2129 -0.5238  0.5539
  395MOL0     H54492  10.569  -0.240   9.127 -0.5026  1.5126 -2.1499
  395MOL0     H54493  10.788  -0.250   9.188 -0.0478  0.3724 -1.2233
  395MOL0     H54494  10.799   0.106   8.704  0.8005  0.0442 -0.0060
  395MOL0     H54495  10.725   0.278   8.857 -0.1695 -0.2250  0.5389
  395MOL0     H54496  10.772   0.663   9.121 -1.4103  0.5034  1.3840
  395MOL0     H54497  10.692   0.848   9.237  0.6875 -3.9532 -0.1957
  395MOL0     H54498  10.502   1.168   9.019  0.6716  0.2095 -1.0034
  395MOL0     H54499  10.459   1.207   9.191  0.5873 -0.0173  0.1309
  395MOL0     H54500  10.685   1.307   9.020  0.6623 -1.1740  0.2447
  395MOL0     H54501  10.715   1.310   9.197  1.0215 -1.4214 -0.6955
  395MOL0     H54502  10.497   1.438   9.044  1.7438 -2.6546 -1.7908
  395MOL0     H54503  10.500   1.435   9.228  1.3812  1.5572  1.5301
  395MOL0     H54504  10.612   1.634   9.231  0.3176 -0.6039 -0.7687
  395MOL0     H54505  10.583   1.642   9.061 -3.7056 -0.4366  1.4678
  395MOL0     H54506  10.998   1.571   9.045  0.7047  2.0337  0.2843
  395MOL0     H54507  10.673   1.085   8.878 -2.0754  0.4000  0.4757
  395MOL0     H54508  10.747   1.007   8.674  1.9634  1.2952 -3.2309
  395MOL0     H54509  10.905   0.915   8.701  0.0595 -0.8133 -0.2905
  395MOL0     H54510  10.768   0.827   8.657  1.2335  1.4715 -2.5456
  396MOL0     O54511   9.158   0.290   0.292 -0.0906  0.7134 -0.3585
  396MOL0     C54512   9.140   0.293   0.416 -0.8733 -0.1089  0.4954
  396MOL0     O54513   9.207   0.221   0.509  0.2686 -0.5974  0.6043
  396MOL0     C54514   9.330   0.175   0.473  0.3625 -0.8864  0.3145
  396MOL0     C54515   9.350   0.066   0.389  0.4266  0.5524 -0.8129
  396MOL0     C54516   9.476   0.013   0.362  0.0534 -0.1001  0.0090
  396MOL0     C54517   9.587   0.073   0.418 -0.3012 -0.1768 -0.3240
  396MOL0     O54518   9.714   0.042   0.386 -0.2653  0.1463  0.3416
  396MOL0     C54519   9.742   0.024   0.248  0.1844 -0.1205  0.8008
  396MOL0     C54520   9.883  -0.020   0.234  0.3247  0.3580 -0.5659
  396MOL0     C54521   9.937  -0.071   0.101  0.4185 -0.4877  0.7137
  396MOL0     C54522   9.974   0.040   0.000  0.5900  0.2508 -0.2286
  396MOL0     C54523  10.048  -0.027  -0.123 -0.1043 -0.1815  0.0986
  396MOL0     C54524  10.197  -0.047  -0.087  0.6947  1.6303  0.5952
  396MOL0     C54525  10.277   0.070  -0.140  0.3016 -0.2207 -0.4115
  396MOL0     C54526  10.429   0.046  -0.096  0.2760  0.7104  0.4667
  396MOL0     N54527  10.452   0.061   0.046 -0.1532 -0.1444 -1.0523
  396MOL0     C54528  10.392   0.146   0.136 -0.0799 -0.1815  0.1358
  396MOL0     C54529  10.424   0.101   0.259 -0.2055 -0.6134 -0.2338
  396MOL0     C54530  10.383   0.156   0.392  0.8282  0.2153  0.0630
  396MOL0     C54531  10.239   0.131   0.441  0.5342  0.0572 -0.6490
  396MOL0     C54532  10.242   0.144   0.596 -0.5930  0.5389 -0.6195
  396MOL0     C54533  10.110   0.095   0.647 -0.7853 -0.4318 -0.0999
  396MOL0     O54534  10.107   0.104   0.787 -0.0627 -0.8121 -0.1075
  396MOL0     C54535  10.008   0.040   0.856 -0.6531  0.4036  0.2048
  396MOL0     C54536   9.897  -0.020   0.794 -0.6391 -0.4513  0.3757
  396MOL0     C54537   9.806  -0.095   0.872  0.1873  0.1235  0.4762
  396MOL0     C54538   9.675  -0.140   0.798 -0.8473  0.5320  0.0523
  396MOL0     C54539   9.827  -0.108   1.013  0.4423  0.2023 -0.4332
  396MOL0     C54540   9.733  -0.192   1.105 -0.5432  0.0405 -0.4108
  396MOL0     O54541   9.777  -0.190   1.236  0.4879 -0.2647  0.6913
  396MOL0     C54542   9.690  -0.213   1.335  0.2326  0.8984 -0.0003
  396MOL0     C54543   9.672  -0.334   1.408 -0.5317  0.7670  0.4761
  396MOL0     C54544   9.561  -0.363   1.492  0.3188  0.5949  0.4948
  396MOL0     C54545   9.469  -0.270   1.526  0.2831 -0.4867  0.3169
  396MOL0     O54546   9.377  -0.280   1.627  0.6017 -0.0318  0.5167
  396MOL0     C54547   9.266  -0.190   1.631 -0.4159  0.3942 -0.1923
  396MOL0     C54548   9.172  -0.244   1.740 -0.4568  0.4078  0.1041
  396MOL0     C54549   9.038  -0.184   1.737  0.4869 -0.7825 -0.3820
  396MOL0     C54550   9.043  -0.031   1.780 -0.3736 -0.0794  0.2378
  396MOL0     C54551   8.896   0.013   1.810  0.4223 -0.3574 -0.0203
  396MOL0     C54552   8.877   0.146   1.875  0.0252  0.5872 -0.3706
  396MOL0     C54553   8.734   0.181   1.874  0.6007  0.0932 -0.8770
  396MOL0     C54554   8.673   0.184   2.014 -0.4121 -0.7380  0.7321
  396MOL0    Cl54555   8.513   0.264   2.026 -0.2198 -0.1645 -0.4905
  396MOL0     C54556   9.482  -0.145   1.441 -0.3035  0.1049  0.1624
  396MOL0     C54557   9.595  -0.117   1.357 -0.1497 -0.5055 -0.1633
  396MOL0     O54558   9.625  -0.243   1.068 -0.3692 -0.1974  0.9452
  396MOL0     C54559   9.943  -0.046   1.079 -0.1033  0.4929 -0.5758
  396MOL0     C54560  10.031   0.028   0.996 -0.5225  0.3284  1.2224
  396MOL0     N54561  10.515  -0.004   0.240  0.0703 -0.1182 -0.0810
  396MOL0     N54562  10.527  -0.033   0.114  0.3646 -0.5148  0.1668
  396MOL0     C54563   9.577   0.181   0.502  0.2899 -0.6600 -0.1734
  396MOL0     C54564   9.445   0.239   0.530 -0.0827  0.8420  0.2197
  396MOL0     C54565   9.019   0.368   0.468 -0.3616  0.5218  0.7302
  396MOL0     C54566   8.948   0.311   0.569 -0.2936 -0.1834 -0.3357
  396MOL0     C54567   8.821   0.351   0.602 -0.4203 -0.4607  0.0742
  396MOL0     C54568   8.761   0.464   0.543  0.9079 -0.1275 -0.2349
  396MOL0     O54569   8.631   0.505   0.572 -0.2699  0.5761 -0.0425
  396MOL0     C54570   8.549   0.437   0.672  0.7052  0.0805 -0.3119
  396MOL0     C54571   8.438   0.515   0.721 -0.3510  0.3375 -0.3519
  396MOL0     C54572   8.339   0.555   0.608 -0.4680 -0.5689  0.2218
  396MOL0     C54573   8.217   0.622   0.668 -0.2266  0.5705 -0.1186
  396MOL0     C54574   8.254   0.740   0.747  0.1577  0.7169  0.5828
  396MOL0     C54575   8.297   0.822   0.826 -0.5477  0.4168 -0.7774
  396MOL0     C54576   8.833   0.539   0.446 -0.2634 -0.3944  0.7061
  396MOL0     C54577   8.957   0.485   0.404 -0.6883 -0.7317 -0.2624
  396MOL0     C54578   9.028   0.559   0.293  0.6224 -0.8873  0.2674
  396MOL0     H54579   9.261   0.018   0.351  1.1867  0.6870 -2.8931
  396MOL0     H54580   9.473  -0.069   0.290 -2.8150  1.0695 -1.3574
  396MOL0     H54581   9.705   0.101   0.179 -1.4444 -1.5158  0.0112
  396MOL0     H54582   9.685  -0.063   0.212 -2.0958  0.8720  1.8002
  396MOL0     H54583   9.955   0.059   0.254  0.6300  0.0156 -0.2753
  396MOL0     H54584   9.885  -0.106   0.302 -0.8448  0.5343 -0.2909
  396MOL0     H54585  10.034  -0.119   0.119  1.4123  2.4731  4.5826
  396MOL0     H54586   9.867  -0.138   0.050 -1.7435 -0.1412  3.0146
  396MOL0     H54587   9.879   0.085  -0.026  0.0176  1.6033  3.5541
  396MOL0     H54588  10.034   0.123   0.039 -0.0011  0.5967 -0.0544
  396MOL0     H54589  10.038   0.023  -0.220  0.4097  0.2799  0.2754
  396MOL0     H54590  10.011  -0.127  -0.144 -2.1631  0.1666  1.7335
  396MOL0     H54591  10.224  -0.039   0.018  0.6281 -0.6012  0.8296
  396MOL0     H54592  10.241  -0.135  -0.135  1.5912  2.6429 -0.5190
  396MOL0     H54593  10.244   0.161  -0.088  1.1983  0.8165 -1.6005
  396MOL0     H54594  10.277   0.079  -0.249  0.5507 -1.8439 -0.5674
  396MOL0     H54595  10.473  -0.047  -0.132  1.1763  0.9343  0.9613
  396MOL0     H54596  10.478   0.132  -0.143 -0.1530  1.2126  0.9148
  396MOL0     H54597  10.324   0.227   0.115  3.8950  3.8833  1.2748
  396MOL0     H54598  10.388   0.265   0.395  0.2748  0.2430  0.0983
  396MOL0     H54599  10.453   0.119   0.467 -0.8921 -2.1067  0.6625
  396MOL0     H54600  10.180   0.206   0.387  2.0975  0.5058 -1.8040
  396MOL0     H54601  10.203   0.030   0.414 -1.8432  0.7410 -0.2709
  396MOL0     H54602  10.329   0.086   0.628 -1.1195 -3.3186 -5.1077
  396MOL0     H54603  10.258   0.249   0.621  2.1948 -0.3898  2.2249
  396MOL0     H54604  10.025   0.146   0.601  0.1906  0.6035 -0.8125
  396MOL0     H54605  10.102  -0.010   0.619  1.3418 -0.6485 -0.0480
  396MOL0     H54606   9.866  -0.011   0.690 -1.1223  0.2423  0.5702
  396MOL0     H54607   9.591  -0.073   0.819  0.1607  1.5861  0.8485
  396MOL0     H54608   9.650  -0.246   0.812 -0.5766  0.4693  0.0632
  396MOL0     H54609   9.699  -0.130   0.691  3.4697 -0.0517  0.7733
  396MOL0     H54610   9.750  -0.410   1.400 -2.0143 -0.7823 -0.0184
  396MOL0     H54611   9.564  -0.462   1.538  1.4341 -0.0414 -0.8697
  396MOL0     H54612   9.305  -0.093   1.663  0.8847 -0.6721  1.5836
  396MOL0     H54613   9.206  -0.174   1.540 -2.1839 -0.7636  0.7100
  396MOL0     H54614   9.161  -0.353   1.744  0.1342  0.3583  0.5343
  396MOL0     H54615   9.213  -0.221   1.839 -0.6613 -1.8016  0.7647
  396MOL0     H54616   8.970  -0.233   1.807  1.3722 -0.1570  0.9572
  396MOL0     H54617   9.004  -0.188   1.633  1.6165 -1.0596 -0.7581
  396MOL0     H54618   9.080   0.043   1.709  0.6985 -1.1468 -0.3489
  396MOL0     H54619   9.097  -0.008   1.872  0.0843  1.6404 -0.4239
  396MOL0     H54620   8.832   0.016   1.721  0.9473  1.2587 -0.3721
  396MOL0     H54621   8.856  -0.064   1.877 -0.2540  1.4819  1.7667
  396MOL0     H54622   8.938   0.207   1.807  1.6280 -1.9931 -1.4484
  396MOL0     H54623   8.907   0.151   1.980  1.5502  1.8671 -0.8275
  396MOL0     H54624   8.663   0.117   1.821 -0.9847 -0.9192  2.1876
  396MOL0     H54625   8.720   0.286   1.846  0.3709  0.0115 -1.0724
  396MOL0     H54626   8.738   0.245   2.077  1.8970  0.1717 -2.2721
  396MOL0     H54627   8.673   0.081   2.049  1.5746  0.3001  4.2644
  396MOL0     H54628   9.412  -0.063   1.455  2.4243  2.5545  0.4404
  396MOL0     H54629   9.594  -0.034   1.287  3.5267 -1.3398 -1.4627
  396MOL0     H54630   9.983  -0.053   1.179 -2.5322  2.2210  0.6371
  396MOL0     H54631  10.125   0.063   1.037  0.1230 -0.4208  0.4013
  396MOL0     H54632   9.663   0.223   0.553 -1.8265  2.6317  1.0331
  396MOL0     H54633   9.421   0.318   0.601 -1.2444 -0.2745  1.1109
  396MOL0     H54634   8.978   0.215   0.610 -1.3358 -0.3042  0.1879
  396MOL0     H54635   8.773   0.288   0.676 -2.2415  0.0936 -0.5694
  396MOL0     H54636   8.509   0.342   0.637 -0.2580  0.2351  0.3386
  396MOL0     H54637   8.615   0.415   0.757 -0.1342  0.8507  0.5648
  396MOL0     H54638   8.485   0.603   0.767 -2.9044  0.3435  2.5560
  396MOL0     H54639   8.388   0.459   0.801  0.9421  1.8340  1.5933
  396MOL0     H54640   8.388   0.631   0.546  0.3978  0.5369  2.1742
  396MOL0     H54641   8.310   0.468   0.548 -0.2878 -0.6513  0.2525
  396MOL0     H54642   8.165   0.541   0.719 -2.2277  1.4131 -0.7102
  396MOL0     H54643   8.143   0.652   0.593  0.4627 -0.5174 -1.2879
  396MOL0     H54644   8.336   0.908   0.875  1.2949 -0.2061 -1.0764
  396MOL0     H54645   8.780   0.617   0.392  0.4535 -2.5414 -3.5323
  396MOL0     H54646   9.016   0.509   0.196 -0.3273 -1.6997  0.7843
  396MOL0     H54647   8.981   0.658   0.291  1.1866 -0.6075  0.7125
  396MOL0     H54648   9.133   0.571   0.318  0.1806  0.6160  1.5471
  397MOL0     O54649   0.741   5.546   6.704  0.1201  0.1057  0.0263
  397MOL0     C54650   0.726   5.434   6.754  0.5343  0.1025  0.4768
  397MOL0     O54651   0.828   5.351   6.793 -0.9543 -0.3023  0.5534
  397MOL0     C54652   0.956   5.380   6.750  0.5009  0.2553 -0.4502
  397MOL0     C54653   1.056   5.358   6.844  0.2779 -0.4392  0.6990
  397MOL0     C54654   1.184   5.375   6.807  0.8287  0.8412  0.1607
  397MOL0     C54655   1.220   5.421   6.678  0.1427  0.5769  0.4299
  397MOL0     O54656   1.350   5.436   6.647 -0.1898 -0.1088  0.2172
  397MOL0     C54657   1.417   5.313   6.624 -0.9327  0.2061  0.5896
  397MOL0     C54658   1.573   5.322   6.613  0.6578 -0.2870  0.3718
  397MOL0     C54659   1.650   5.372   6.736 -0.0958  0.1366 -1.0575
  397MOL0     C54660   1.586   5.349   6.872  0.0056  0.0047  0.2950
  397MOL0     C54661   1.685   5.372   6.986  0.1220 -0.5246 -0.3088
  397MOL0     C54662   1.638   5.334   7.119 -0.0459  0.0979 -0.0097
  397MOL0     C54663   1.747   5.332   7.230 -0.1945 -0.4957 -0.1781
  397MOL0     C54664   1.688   5.271   7.355  1.1193  0.0976  0.9411
  397MOL0     N54665   1.666   5.127   7.344 -0.1783 -0.3228 -0.0814
  397MOL0     C54666   1.564   5.041   7.386  0.5217  0.2720  0.5308
  397MOL0     C54667   1.600   4.915   7.359  0.1519  0.4008  0.2515
  397MOL0     C54668   1.510   4.790   7.374  0.3964 -0.4700  0.5001
  397MOL0     C54669   1.441   4.746   7.242 -0.2364 -0.2589 -0.1517
  397MOL0     C54670   1.360   4.609   7.254  0.4505  0.1160  1.0759
  397MOL0     C54671   1.234   4.623   7.338  0.3357 -0.7289  0.1711
  397MOL0     O54672   1.165   4.737   7.291 -0.1671  0.3433 -0.0591
  397MOL0     C54673   1.031   4.744   7.324  0.6624  0.4357  0.1068
  397MOL0     C54674   0.978   4.760   7.456 -0.0415  0.3173  0.9794
  397MOL0     C54675   0.835   4.763   7.478 -0.2974 -0.2043 -0.1884
  397MOL0     C54676   0.794   4.789   7.625  0.1964 -0.1976 -0.2615
  397MOL0     C54677   0.738   4.747   7.372 -0.9645  0.3868  0.3136
  397MOL0     C54678   0.593   4.712   7.382 -0.1304 -0.6723 -0.1440
  397MOL0     O54679   0.525   4.716   7.264 -0.6090 -0.3193  0.6581
  397MOL0     C54680   0.388   4.703   7.260  0.2625 -0.1606 -1.2218
  397MOL0     C54681   0.309   4.824   7.249 -1.0023 -0.5129 -0.3567
  397MOL0     C54682   0.175   4.829   7.271  0.4395 -0.0197 -0.5207
  397MOL0     C54683   0.101   4.716   7.296 -0.4412  0.0288 -0.5328
  397MOL0     O54684  -0.036   4.726   7.293 -0.8334 -0.4172 -0.0293
  397MOL0     C54685  -0.113   4.622   7.338  0.1676  0.2997 -0.5411
  397MOL0     C54686  -0.100   4.577   7.491 -0.2651  0.1244 -0.5204
  397MOL0     C54687  -0.190   4.472   7.535  0.5452 -0.1694 -0.5946
  397MOL0     C54688  -0.187   4.440   7.681 -0.2353  0.9114 -1.4150
  397MOL0     C54689  -0.268   4.310   7.720 -0.1268 -0.4925 -0.5701
  397MOL0     C54690  -0.428   4.343   7.701 -0.0534 -0.8323 -0.0247
  397MOL0     C54691  -0.482   4.267   7.577 -0.9421 -0.1550  0.5113
  397MOL0     C54692  -0.633   4.281   7.554  0.5425  0.0685 -0.3905
  397MOL0    Cl54693  -0.739   4.232   7.694  0.2119  0.1491  0.3481
  397MOL0     C54694   0.175   4.589   7.300  0.1114 -0.4208  0.7541
  397MOL0     C54695   0.316   4.584   7.287 -0.6805  0.5611  0.4871
  397MOL0     O54696   0.547   4.663   7.486 -0.2162 -0.5064  0.2834
  397MOL0     C54697   0.795   4.739   7.239 -0.4754 -0.0036 -0.6364
  397MOL0     C54698   0.935   4.725   7.226 -0.3821  0.3273 -0.4678
  397MOL0     N54699   1.722   4.920   7.293  0.6273 -0.0551 -0.8233
  397MOL0     N54700   1.764   5.042   7.295  0.1593  0.1164 -0.8599
  397MOL0     C54701   1.127   5.455   6.580  0.0516 -0.3464 -0.4436
  397MOL0     C54702   0.994   5.434   6.623  0.8424 -0.3050  0.0932
  397MOL0     C54703   0.585   5.386   6.787 -0.7051 -0.0105 -1.1768
  397MOL0     C54704   0.492   5.483   6.823 -0.6907 -0.3707 -0.0241
  397MOL0     C54705   0.362   5.450   6.877 -0.5251  1.2346  0.0061
  397MOL0     C54706   0.329   5.313   6.884  0.4209 -0.1567 -0.6519
  397MOL0     O54707   0.193   5.280   6.922 -0.6618  0.1804  0.4714
  397MOL0     C54708   0.130   5.160   6.873  0.0641  1.5390 -0.5571
  397MOL0     C54709  -0.025   5.182   6.849 -0.7754  0.5928  0.0414
  397MOL0     C54710  -0.079   5.259   6.969  0.0966 -0.5209  0.6550
  397MOL0     C54711  -0.227   5.287   6.948 -0.5604 -0.4888 -1.2399
  397MOL0     C54712  -0.310   5.186   7.005  0.1104  0.7549  0.3730
  397MOL0     C54713  -0.386   5.106   7.054  0.2678  0.5439 -0.3700
  397MOL0     C54714   0.421   5.218   6.853 -0.4346 -0.5246  0.0649
  397MOL0     C54715   0.547   5.248   6.804  0.1446 -0.4067  0.9253
  397MOL0     C54716   0.639   5.128   6.773  0.4702 -0.4321 -1.0385
  397MOL0     H54717   1.020   5.322   6.940  2.9953 -1.5234  1.3927
  397MOL0     H54718   1.263   5.362   6.880  0.3734 -0.4301  0.4533
  397MOL0     H54719   1.367   5.255   6.546  1.0095 -2.5565  1.2506
  397MOL0     H54720   1.404   5.250   6.713  2.3574 -1.3081  0.1451
  397MOL0     H54721   1.610   5.220   6.603  0.9588 -0.0767 -0.8755
  397MOL0     H54722   1.600   5.383   6.526 -1.7980  0.6395  0.1706
  397MOL0     H54723   1.751   5.331   6.743 -0.3813 -0.5280  5.3748
  397MOL0     H54724   1.657   5.481   6.723 -1.6995  0.4520  0.2910
  397MOL0     H54725   1.508   5.425   6.884  1.4260  1.4281  0.9232
  397MOL0     H54726   1.537   5.252   6.884  0.8690 -0.3795  0.7600
  397MOL0     H54727   1.725   5.474   6.985 -0.0633 -0.4554 -0.9862
  397MOL0     H54728   1.769   5.302   6.975 -0.3558 -1.1788  0.1068
  397MOL0     H54729   1.562   5.408   7.150 -0.0611 -0.3641  1.0894
  397MOL0     H54730   1.579   5.243   7.109  0.2755 -0.0224 -0.8961
  397MOL0     H54731   1.782   5.434   7.250  0.0907 -0.3950 -1.1201
  397MOL0     H54732   1.830   5.270   7.196  0.8276 -0.3544  1.9071
  397MOL0     H54733   1.750   5.282   7.444  2.2505  0.6132  0.1061
  397MOL0     H54734   1.598   5.326   7.386 -1.3354 -2.7091 -0.5837
  397MOL0     H54735   1.477   5.080   7.438  0.5737  1.4155 -0.2176
  397MOL0     H54736   1.428   4.807   7.445 -0.3141 -0.5556 -0.2796
  397MOL0     H54737   1.575   4.710   7.411 -2.1744 -2.4160  1.1022
  397MOL0     H54738   1.391   4.833   7.200 -0.2653  1.4700  3.1705
  397MOL0     H54739   1.525   4.731   7.172 -0.9524  0.2397 -1.1397
  397MOL0     H54740   1.342   4.577   7.151  0.4401  0.6247  0.9166
  397MOL0     H54741   1.415   4.523   7.294  0.4415 -0.5136 -0.1911
  397MOL0     H54742   1.171   4.534   7.325  0.5235 -1.2318  2.3175
  397MOL0     H54743   1.264   4.650   7.439  1.3147 -0.6516 -0.1278
  397MOL0     H54744   1.047   4.776   7.539  0.9681 -1.3497  0.5236
  397MOL0     H54745   0.732   4.705   7.660 -3.0989  1.0522 -2.6076
  397MOL0     H54746   0.730   4.877   7.636 -0.1041 -0.6545  2.5843
  397MOL0     H54747   0.874   4.804   7.698 -1.2000 -0.2772  1.3489
  397MOL0     H54748   0.371   4.912   7.236 -1.3181 -0.0110  1.2172
  397MOL0     H54749   0.121   4.922   7.262 -0.6257 -0.4401  1.1358
  397MOL0     H54750  -0.213   4.658   7.312 -0.8635 -2.9506 -1.5720
  397MOL0     H54751  -0.097   4.537   7.271  0.4610 -0.1678  0.0994
  397MOL0     H54752   0.000   4.537   7.507  0.8179  2.4726 -1.0989
  397MOL0     H54753  -0.107   4.663   7.559  1.0198 -2.2657  2.9172
  397MOL0     H54754  -0.175   4.384   7.472  2.1183 -0.0563 -0.4215
  397MOL0     H54755  -0.292   4.508   7.517  0.5021  0.0531  0.0551
  397MOL0     H54756  -0.216   4.536   7.726 -0.3826  0.3637 -0.3069
  397MOL0     H54757  -0.086   4.422   7.717 -1.0324  0.4501  0.7502
  397MOL0     H54758  -0.237   4.223   7.662 -1.0912 -1.9939  1.0866
  397MOL0     H54759  -0.241   4.303   7.826 -2.0164  3.7877  0.4240
  397MOL0     H54760  -0.450   4.450   7.691 -0.0822 -0.5675  2.3917
  397MOL0     H54761  -0.488   4.314   7.787  0.0685 -2.2351 -0.3971
  397MOL0     H54762  -0.466   4.162   7.604 -1.7569 -0.6940 -0.9827
  397MOL0     H54763  -0.422   4.284   7.487 -2.3519 -1.3110 -0.6931
  397MOL0     H54764  -0.673   4.231   7.465  0.7695  1.5358 -1.3448
  397MOL0     H54765  -0.653   4.386   7.530 -0.1521  0.0552  0.1012
  397MOL0     H54766   0.122   4.497   7.322 -1.2352  0.3203  0.7286
  397MOL0     H54767   0.365   4.493   7.323 -1.4037  0.6409  1.7194
  397MOL0     H54768   0.735   4.727   7.149 -1.0124  2.3720 -0.6387
  397MOL0     H54769   0.972   4.691   7.129  0.0296  1.0250 -0.5636
  397MOL0     H54770   1.160   5.495   6.485 -1.0352  0.8114 -0.3669
  397MOL0     H54771   0.914   5.449   6.552  0.1290 -0.5223  0.8375
  397MOL0     H54772   0.522   5.587   6.828  1.1274 -0.7059 -2.3524
  397MOL0     H54773   0.292   5.529   6.902  0.1430  1.8041  0.1084
  397MOL0     H54774   0.171   5.129   6.777  0.1293  0.9801 -0.3560
  397MOL0     H54775   0.153   5.086   6.951  0.8197  0.0998 -2.0957
  397MOL0     H54776  -0.081   5.089   6.846 -1.9059  1.2656 -0.1124
  397MOL0     H54777  -0.043   5.224   6.750 -1.4930  1.0074  0.3330
  397MOL0     H54778  -0.053   5.200   7.057 -1.5266 -0.7251  1.0207
  397MOL0     H54779  -0.037   5.360   6.967 -1.8779  0.3385 -1.2600
  397MOL0     H54780  -0.249   5.304   6.843  3.1151 -2.6397 -2.5157
  397MOL0     H54781  -0.256   5.376   7.005  4.1128 -0.4507  1.5279
  397MOL0     H54782  -0.457   5.032   7.087  0.7209  0.1285 -0.3030
  397MOL0     H54783   0.386   5.117   6.873 -0.4317 -0.1025  2.5815
  397MOL0     H54784   0.708   5.121   6.857  1.8560 -0.3599 -2.1290
  397MOL0     H54785   0.577   5.037   6.777 -0.7443  0.3771 -0.8484
  397MOL0     H54786   0.694   5.131   6.679  0.4195 -0.8251 -1.0811
  398MOL0     O54787   2.767   2.013   0.800 -0.2694  0.8082 -0.8638
  398MOL0     C54788   2.853   2.038   0.888 -0.4240 -0.2627  0.6532
  398MOL0     O54789   2.835   2.057   1.021 -0.1477 -0.3893 -0.7939
  398MOL0     C54790   2.724   2.015   1.090  0.1627 -0.0552 -1.2889
  398MOL0     C54791   2.583   2.014   1.056 -0.3408  1.0042  0.3341
  398MOL0     C54792   2.488   1.960   1.152  0.1718  1.1774 -0.1628
  398MOL0     C54793   2.525   1.923   1.284  0.4416 -0.7157 -0.4754
  398MOL0     O54794   2.434   1.874   1.378  0.8020 -0.0621  0.5044
  398MOL0     C54795   2.312   1.946   1.390  1.2814  0.4788  0.1874
  398MOL0     C54796   2.255   1.911   1.528 -0.4538  0.1525  0.5487
  398MOL0     C54797   2.161   1.790   1.531  0.2684  0.4978 -0.9166
  398MOL0     C54798   2.140   1.739   1.679  0.0396 -0.7523  1.0450
  398MOL0     C54799   2.038   1.625   1.700  0.4641  0.3948  0.0980
  398MOL0     C54800   2.003   1.621   1.846 -1.2433  0.2655  0.2596
  398MOL0     C54801   1.903   1.521   1.893 -0.1625  0.8427  0.1905
  398MOL0     C54802   1.886   1.535   2.048  0.0960  0.2338 -0.2211
  398MOL0     N54803   1.806   1.417   2.103  0.4714 -0.1249 -0.8541
  398MOL0     C54804   1.848   1.286   2.135  0.3607  0.6717 -0.3443
  398MOL0     C54805   1.740   1.228   2.192  0.2396 -0.1792  0.0857
  398MOL0     C54806   1.727   1.087   2.249 -0.1126 -0.2088 -0.3548
  398MOL0     C54807   1.643   0.981   2.156  0.2818  0.5504  0.0257
  398MOL0     C54808   1.569   0.868   2.229  0.0011 -1.0166  0.0890
  398MOL0     C54809   1.653   0.756   2.295  0.8874  0.0239  0.5868
  398MOL0     O54810   1.738   0.813   2.394  0.0262  0.4898 -0.7900
  398MOL0     C54811   1.731   0.756   2.522 -0.1673 -0.2829  0.8259
  398MOL0     C54812   1.709   0.845   2.626 -0.2497  0.4427 -0.4215
  398MOL0     C54813   1.736   0.804   2.764 -0.8377  0.3465  0.6964
  398MOL0     C54814   1.715   0.911   2.871 -0.1395 -0.5448 -0.4717
  398MOL0     C54815   1.759   0.664   2.793  0.2142  0.3527  0.5214
  398MOL0     C54816   1.781   0.607   2.927 -1.0187  0.0576  0.1989
  398MOL0     O54817   1.844   0.690   3.012 -0.5756 -0.1221 -0.4573
  398MOL0     C54818   1.858   0.658   3.147 -0.3391  0.1663 -0.3158
  398MOL0     C54819   1.971   0.704   3.211 -0.1079 -0.8244 -0.7961
  398MOL0     C54820   1.993   0.684   3.351 -0.6638 -0.4890  0.1424
  398MOL0     C54821   1.898   0.618   3.427  0.2523  0.1868 -0.5846
  398MOL0     O54822   1.911   0.597   3.565  0.6439 -0.1422 -0.4220
  398MOL0     C54823   2.044   0.591   3.633  1.0421 -0.2688 -0.2317
  398MOL0     C54824   2.048   0.560   3.777 -0.4626 -0.0502  0.2782
  398MOL0     C54825   1.958   0.648   3.861  0.4563  0.3676 -0.2414
  398MOL0     C54826   1.947   0.604   4.006 -1.1959  0.2938  0.7157
  398MOL0     C54827   1.893   0.713   4.104  0.2936  0.4704 -0.4025
  398MOL0     C54828   1.865   0.642   4.243 -0.1250  0.5698  0.0440
  398MOL0     C54829   1.836   0.742   4.358  0.3545  0.3207 -0.2977
  398MOL0     C54830   1.808   0.654   4.479  0.3808  0.1103  0.2965
  398MOL0    Cl54831   1.647   0.586   4.460  0.1518 -0.0150 -0.3102
  398MOL0     C54832   1.777   0.574   3.359  0.4954 -0.3412 -0.2413
  398MOL0     C54833   1.756   0.596   3.221 -0.0527 -0.1230 -1.0011
  398MOL0     O54834   1.744   0.492   2.950 -0.3244  0.4288  0.1578
  398MOL0     C54835   1.752   0.576   2.683  0.5106 -0.9254  0.0368
  398MOL0     C54836   1.743   0.626   2.556  0.3308  0.5197 -0.0003
  398MOL0     N54837   1.635   1.325   2.196 -0.1446 -0.5259 -1.0448
  398MOL0     N54838   1.677   1.435   2.147 -0.4526  0.1052 -0.7108
  398MOL0     C54839   2.659   1.919   1.318 -0.5980 -0.2607  0.8790
  398MOL0     C54840   2.756   1.973   1.221  0.6435 -0.2750 -0.0380
  398MOL0     C54841   2.996   2.013   0.856  0.4891 -0.0562  0.4960
  398MOL0     C54842   3.025   1.931   0.746  0.2233  0.2160 -0.1212
  398MOL0     C54843   3.161   1.905   0.716  0.1395 -0.5815  0.5022
  398MOL0     C54844   3.265   1.947   0.795 -0.9573 -0.7804 -0.8670
  398MOL0     O54845   3.397   1.920   0.771  0.0934  0.4859  0.0650
  398MOL0     C54846   3.436   1.802   0.696  0.9768 -1.1342  0.5375
  398MOL0     C54847   3.553   1.743   0.762 -0.6020 -0.6318 -0.0674
  398MOL0     C54848   3.611   1.626   0.681 -0.1248  0.9835  0.1429
  398MOL0     C54849   3.745   1.565   0.736  0.0898 -0.5416 -0.4379
  398MOL0     C54850   3.863   1.647   0.694  0.4919 -0.2800  0.6185
  398MOL0     C54851   3.946   1.731   0.661 -0.8217  0.3086  0.6287
  398MOL0     C54852   3.235   2.017   0.902  0.2120 -0.3830 -0.1884
  398MOL0     C54853   3.105   2.060   0.937 -0.2287 -0.7460  0.3635
  398MOL0     C54854   3.100   2.153   1.049 -0.1466 -0.0986 -0.4052
  398MOL0     H54855   2.559   2.043   0.954 -0.9044 -0.0145  0.1631
  398MOL0     H54856   2.383   1.966   1.128  0.1058  5.3560  0.4531
  398MOL0     H54857   2.245   1.915   1.309  0.3540 -1.4818  1.6223
  398MOL0     H54858   2.325   2.055   1.389  1.4897  0.6450  4.3679
  398MOL0     H54859   2.344   1.898   1.591  2.1350  1.8394 -2.4792
  398MOL0     H54860   2.202   1.996   1.572  1.5453  1.4324  0.6412
  398MOL0     H54861   2.068   1.823   1.485  0.2557  1.2259 -0.3934
  398MOL0     H54862   2.209   1.708   1.476  1.5761  1.1571 -0.8077
  398MOL0     H54863   2.236   1.712   1.725  1.5193  2.2384 -0.0197
  398MOL0     H54864   2.104   1.830   1.728 -1.3030  0.2646 -1.6470
  398MOL0     H54865   2.068   1.523   1.672 -2.3593 -0.3942 -0.3340
  398MOL0     H54866   1.956   1.656   1.636 -0.1391 -0.0280  0.6551
  398MOL0     H54867   2.094   1.602   1.903  0.2408  0.0684 -2.0347
  398MOL0     H54868   1.965   1.720   1.875 -0.8649  0.3395  0.5082
  398MOL0     H54869   1.933   1.420   1.863 -4.4191 -0.5934  0.2028
  398MOL0     H54870   1.813   1.544   1.835 -1.1258 -3.7845 -0.5503
  398MOL0     H54871   1.986   1.549   2.090  0.4468 -0.4899 -0.7971
  398MOL0     H54872   1.838   1.631   2.071 -2.1102 -0.3900 -1.8948
  398MOL0     H54873   1.945   1.240   2.128 -0.2914 -0.9840  0.7651
  398MOL0     H54874   1.679   1.091   2.347  1.2092  1.7934  0.2759
  398MOL0     H54875   1.824   1.047   2.280 -0.0345  0.3161  0.0731
  398MOL0     H54876   1.563   1.041   2.113  0.8787  2.2006  1.1054
  398MOL0     H54877   1.706   0.947   2.073 -0.8435  1.7587 -1.3757
  398MOL0     H54878   1.498   0.909   2.303  1.6709 -1.6604  2.1301
  398MOL0     H54879   1.489   0.831   2.164 -0.3825  0.0924 -0.1071
  398MOL0     H54880   1.584   0.683   2.337  0.6684  0.6112  1.2760
  398MOL0     H54881   1.723   0.714   2.222  0.2450 -0.7767  0.4198
  398MOL0     H54882   1.676   0.946   2.601  0.8712  1.2509  1.2044
  398MOL0     H54883   1.654   0.989   2.824 -2.0517  0.5614  3.4545
  398MOL0     H54884   1.800   0.969   2.908 -0.8503  2.2001 -2.7676
  398MOL0     H54885   1.657   0.880   2.957  0.1247  2.6371  1.0094
  398MOL0     H54886   2.051   0.750   3.153  0.5871 -1.3076 -0.2437
  398MOL0     H54887   2.090   0.721   3.385 -0.0742 -0.8333 -1.1172
  398MOL0     H54888   2.099   0.515   3.576 -0.7571 -0.6507 -1.5504
  398MOL0     H54889   2.090   0.690   3.628  0.0878  0.6178  4.3533
  398MOL0     H54890   2.026   0.454   3.793  0.8277 -0.1980  1.2985
  398MOL0     H54891   2.151   0.575   3.813 -1.1838  0.9680  2.0412
  398MOL0     H54892   1.857   0.642   3.818 -0.2378 -2.2023  1.5465
  398MOL0     H54893   2.004   0.747   3.855 -1.4608  1.2378 -1.9591
  398MOL0     H54894   2.044   0.568   4.042 -1.2898  0.8104  1.5042
  398MOL0     H54895   1.873   0.525   4.022 -1.9686  0.9379  0.3935
  398MOL0     H54896   1.967   0.789   4.131  1.2233 -0.4859 -0.1736
  398MOL0     H54897   1.804   0.767   4.071 -0.6214  1.0202  2.6567
  398MOL0     H54898   1.962   0.600   4.272  0.7961 -0.1875 -3.6394
  398MOL0     H54899   1.785   0.569   4.237 -1.1766  1.6185  0.8305
  398MOL0     H54900   1.743   0.793   4.330 -0.5353 -1.5059 -0.8114
  398MOL0     H54901   1.923   0.803   4.384  0.1687 -0.7361  3.3911
  398MOL0     H54902   1.810   0.689   4.582 -0.3310  0.9040  0.0476
  398MOL0     H54903   1.873   0.566   4.467 -1.3618 -1.1073 -0.6634
  398MOL0     H54904   1.701   0.529   3.423 -0.2237  1.3351  0.1589
  398MOL0     H54905   1.666   0.559   3.172 -2.6903  0.7283  2.7515
  398MOL0     H54906   1.771   0.472   2.707 -1.5891 -0.7191  3.1024
  398MOL0     H54907   1.728   0.552   2.478 -0.4061 -0.1408  0.7639
  398MOL0     H54908   2.679   1.877   1.417  3.8732 -2.3312 -0.6154
  398MOL0     H54909   2.861   1.986   1.247  1.1471 -0.0435 -2.0332
  398MOL0     H54910   2.936   1.885   0.704 -2.1948  2.0977  2.5393
  398MOL0     H54911   3.194   1.859   0.624  1.2360  0.0441  0.5676
  398MOL0     H54912   3.361   1.723   0.686 -2.3926  1.8167  0.1453
  398MOL0     H54913   3.468   1.830   0.595 -2.0650 -0.6448 -0.4151
  398MOL0     H54914   3.530   1.700   0.860  2.8908 -0.0879  1.1434
  398MOL0     H54915   3.629   1.817   0.788  0.9982 -1.9717 -0.7140
  398MOL0     H54916   3.530   1.553   0.683 -0.6986  1.6061  0.3234
  398MOL0     H54917   3.626   1.656   0.576 -0.5868 -0.2574 -0.2876
  398MOL0     H54918   3.751   1.462   0.700 -1.8154 -0.6743 -0.5079
  398MOL0     H54919   3.733   1.559   0.845 -0.9595  1.4313 -0.3988
  398MOL0     H54920   4.038   1.780   0.636  1.5701 -3.7893  0.3747
  398MOL0     H54921   3.312   2.060   0.966  0.4651 -1.0427 -0.0382
  398MOL0     H54922   3.040   2.239   1.019  4.4081  2.3815 -3.5270
  398MOL0     H54923   3.065   2.097   1.136  3.4704 -2.9990 -0.5657
  398MOL0     H54924   3.200   2.193   1.066 -0.9740  2.1971 -0.5449
  399MOL0     O54925   1.636   5.125   9.263  0.1402 -0.4929 -0.6302
  399MOL0     C54926   1.534   5.063   9.280  0.1926  0.4712  0.1879
  399MOL0     O54927   1.523   4.929   9.280 -0.1324  0.0718 -0.2253
  399MOL0     C54928   1.648   4.870   9.330  0.2641 -0.1407  0.2324
  399MOL0     C54929   1.652   4.777   9.439 -0.3218 -0.0566 -1.1191
  399MOL0     C54930   1.774   4.728   9.482  0.0568  0.0444  0.0457
  399MOL0     C54931   1.893   4.753   9.418 -0.3298  1.1087  0.6050
  399MOL0     O54932   2.010   4.693   9.468  0.4644 -0.0223 -0.4062
  399MOL0     C54933   2.058   4.758   9.590 -0.4245 -0.3676 -1.1833
  399MOL0     C54934   2.193   4.707   9.633  0.3421 -0.3273 -1.0122
  399MOL0     C54935   2.208   4.558   9.618 -0.2591  0.4390 -0.4956
  399MOL0     C54936   2.337   4.506   9.698  0.0705 -0.2331  0.1592
  399MOL0     C54937   2.469   4.556   9.658  0.0821 -0.5978 -0.5699
  399MOL0     C54938   2.579   4.464   9.720 -0.5739  0.4755 -0.2148
  399MOL0     C54939   2.716   4.523   9.719 -0.0098 -0.1165  0.9065
  399MOL0     C54940   2.806   4.501   9.589 -0.0984 -0.3079 -0.2176
  399MOL0     N54941   2.937   4.566   9.605 -0.5330  0.0477  0.5305
  399MOL0     C54942   3.033   4.524   9.689 -0.3514 -0.8440 -0.1842
  399MOL0     C54943   3.138   4.604   9.667 -0.6589 -0.4155 -0.0544
  399MOL0     C54944   3.271   4.614   9.744 -0.5692 -0.2580 -0.8681
  399MOL0     C54945   3.386   4.599   9.658  0.1455  0.1169 -0.6385
  399MOL0     C54946   3.407   4.462   9.589  0.1382  0.1416  0.5666
  399MOL0     C54947   3.547   4.444   9.536  0.2102 -0.5418  0.1448
  399MOL0     O54948   3.617   4.374   9.631 -0.7209 -0.0995 -0.6423
  399MOL0     C54949   3.754   4.373   9.624  0.7441  0.1746  0.2397
  399MOL0     C54950   3.833   4.398   9.509  0.2889 -0.8282  0.2863
  399MOL0     C54951   3.968   4.387   9.512 -1.4592 -0.1906 -0.1156
  399MOL0     C54952   4.040   4.413   9.377 -0.4469 -0.8859  0.2545
  399MOL0     C54953   4.038   4.334   9.630  0.2393  0.2752  0.1623
  399MOL0     C54954   4.191   4.319   9.635  0.5688  0.1338 -0.8181
  399MOL0     O54955   4.231   4.243   9.744 -0.4994  0.1617  0.4662
  399MOL0     C54956   4.369   4.227   9.768 -0.6738  0.3946  0.3877
  399MOL0     C54957   4.443   4.122   9.704  0.3365 -1.2945  0.0764
  399MOL0     C54958   4.585   4.109   9.711 -1.0963 -0.4358 -0.2691
  399MOL0     C54959   4.654   4.190   9.802 -0.8492  0.4910  0.8096
  399MOL0     O54960   4.782   4.163   9.839 -0.0000 -0.3844 -0.9661
  399MOL0     C54961   4.859   4.051   9.797 -0.7662 -0.5018 -0.0484
  399MOL0     C54962   4.997   4.088   9.859  0.3344 -0.3507  0.4609
  399MOL0     C54963   4.993   4.086  10.008  0.5049  0.0313 -0.6813
  399MOL0     C54964   5.055   3.956  10.056 -0.5020 -0.5060  0.2019
  399MOL0     C54965   5.054   3.947  10.205  0.1971 -0.4492 -0.1719
  399MOL0     C54966   5.090   3.804  10.242  0.6284 -0.3231  0.6339
  399MOL0     C54967   5.157   3.784  10.380  0.2955 -0.4099  0.8838
  399MOL0     C54968   5.057   3.788  10.490  0.1192 -0.9412 -0.3668
  399MOL0    Cl54969   4.947   3.649  10.512 -0.4996 -0.4279 -0.2085
  399MOL0     C54970   4.585   4.295   9.864 -0.6064  0.0199  1.3096
  399MOL0     C54971   4.441   4.312   9.848 -0.7226  0.4272  0.0497
  399MOL0     O54972   4.262   4.370   9.553 -0.0694  0.6830 -0.0034
  399MOL0     C54973   3.955   4.299   9.743 -0.1497 -0.1075 -0.4467
  399MOL0     C54974   3.814   4.323   9.738  0.2707  0.8401  0.7952
  399MOL0     N54975   3.110   4.684   9.561 -0.5462 -0.6422 -0.2526
  399MOL0     N54976   2.984   4.670   9.523 -0.4063  1.2876  0.2774
  399MOL0     C54977   1.886   4.839   9.307 -0.2878 -0.4313 -0.7318
  399MOL0     C54978   1.764   4.896   9.264 -0.7966 -0.9718  0.9567
  399MOL0     C54979   1.409   5.146   9.268 -0.5185  0.8345 -0.1524
  399MOL0     C54980   1.292   5.081   9.228  0.1653  0.0597  0.1150
  399MOL0     C54981   1.173   5.144   9.211  0.2596  0.3726 -0.0667
  399MOL0     C54982   1.162   5.280   9.247 -0.3416 -0.3194  0.1694
  399MOL0     O54983   1.048   5.355   9.249  0.0156  0.7313  0.1729
  399MOL0     C54984   0.945   5.324   9.158  1.1498  0.2845 -0.2814
  399MOL0     C54985   0.817   5.406   9.163 -0.2411 -0.1385  0.2387
  399MOL0     C54986   0.830   5.551   9.215  0.1097 -0.4801  0.0607
  399MOL0     C54987   0.700   5.610   9.203  0.6284 -0.4633  0.4459
  399MOL0     C54988   0.696   5.753   9.239  0.9984  0.0714 -0.6232
  399MOL0     C54989   0.669   5.866   9.268  0.5567  0.2131  1.4097
  399MOL0     C54990   1.276   5.346   9.282  0.0533  0.0021  0.0383
  399MOL0     C54991   1.401   5.284   9.302 -0.4884  0.5023 -0.3229
  399MOL0     C54992   1.513   5.368   9.361 -0.5745 -0.3902  0.4399
  399MOL0     H54993   1.559   4.751   9.489 -0.8235 -0.1363 -2.0623
  399MOL0     H54994   1.780   4.688   9.582  0.7457 -0.6769 -0.2708
  399MOL0     H54995   1.985   4.756   9.672 -0.0455  3.8265 -0.5431
  399MOL0     H54996   2.086   4.861   9.567 -0.1862 -0.7970 -2.9920
  399MOL0     H54997   2.277   4.758   9.584  0.7690 -0.6107 -0.5780
  399MOL0     H54998   2.215   4.726   9.738  5.4017 -2.3761 -1.3731
  399MOL0     H54999   2.114   4.520   9.660  0.0356  2.2069  2.0284
  399MOL0     H55000   2.221   4.528   9.514 -0.3283 -2.0786  0.1531
  399MOL0     H55001   2.327   4.531   9.804 -0.1509 -0.4376  0.1852
  399MOL0     H55002   2.337   4.397   9.692  0.0476 -0.2863  1.0108
  399MOL0     H55003   2.476   4.659   9.694  0.2442 -0.2284 -1.6314
  399MOL0     H55004   2.478   4.551   9.550  1.4412  1.0672 -0.5673
  399MOL0     H55005   2.544   4.437   9.820  1.2694 -1.3860 -0.0154
  399MOL0     H55006   2.588   4.374   9.659  2.8961  0.0757  0.6959
  399MOL0     H55007   2.778   4.499   9.806 -0.7837  0.2254  1.5619
  399MOL0     H55008   2.688   4.629   9.718 -1.6751 -0.5238  0.7435
  399MOL0     H55009   2.821   4.395   9.564  1.9871 -0.2139  0.4350
  399MOL0     H55010   2.756   4.534   9.498  0.5474  0.6503 -0.2335
  399MOL0     H55011   3.023   4.446   9.763 -2.7611 -0.4341  0.0083
  399MOL0     H55012   3.266   4.544   9.828  2.2382  0.3295 -0.1164
  399MOL0     H55013   3.282   4.711   9.792  0.3158 -0.2892 -0.9852
  399MOL0     H55014   3.394   4.683   9.589 -2.9767  2.6125  1.7577
  399MOL0     H55015   3.479   4.606   9.717  0.5456 -2.1141 -0.9129
  399MOL0     H55016   3.375   4.371   9.641 -2.5901  0.1993 -0.8367
  399MOL0     H55017   3.338   4.464   9.504 -2.3255  0.1512  2.4593
  399MOL0     H55018   3.547   4.384   9.445 -1.7559  0.5455 -0.6425
  399MOL0     H55019   3.595   4.542   9.525  0.9303 -0.8483  0.4571
  399MOL0     H55020   3.780   4.431   9.420 -0.2115 -0.4875  0.7024
  399MOL0     H55021   4.107   4.499   9.386 -0.1811 -1.1189  0.5050
  399MOL0     H55022   3.960   4.433   9.304 -0.1685 -0.0420  0.1654
  399MOL0     H55023   4.100   4.328   9.343 -0.8726 -0.8824 -0.5337
  399MOL0     H55024   4.385   4.058   9.638 -2.5312  0.3948  0.7903
  399MOL0     H55025   4.641   4.027   9.667  0.0151  0.9144 -1.5001
  399MOL0     H55026   4.829   3.956   9.842  2.1458 -0.6806  1.7604
  399MOL0     H55027   4.867   4.055   9.688 -1.2639 -0.9527 -0.1031
  399MOL0     H55028   5.072   4.016   9.825 -1.4398 -1.7246 -0.7678
  399MOL0     H55029   5.022   4.192   9.839  0.0001  0.1933  2.6274
  399MOL0     H55030   4.894   4.104  10.050  0.1197 -0.1071 -1.5086
  399MOL0     H55031   5.056   4.165  10.050 -1.9966  1.9586 -0.2554
  399MOL0     H55032   5.163   3.958  10.041 -0.7436 -3.2257 -2.8894
  399MOL0     H55033   5.029   3.867   9.998  0.4463 -1.6934  1.5388
  399MOL0     H55034   5.123   4.018  10.252 -0.4702  1.4908 -2.0003
  399MOL0     H55035   4.953   3.972  10.239  0.1967 -0.0156 -0.4848
  399MOL0     H55036   5.163   3.779  10.164  1.2319  0.1981  1.0106
  399MOL0     H55037   5.006   3.734  10.242 -0.1092  0.4286  3.4827
  399MOL0     H55038   5.236   3.856  10.404  0.9625  0.5431 -3.3487
  399MOL0     H55039   5.199   3.683  10.377  2.8539  0.5516  1.8155
  399MOL0     H55040   4.985   3.869  10.477 -1.2094 -0.5364  6.0515
  399MOL0     H55041   5.107   3.800  10.587 -0.4573 -1.2761 -0.0214
  399MOL0     H55042   4.644   4.361   9.927  1.9991  0.5197 -1.3893
  399MOL0     H55043   4.393   4.392   9.903 -2.5259 -0.0203 -0.8038
  399MOL0     H55044   4.011   4.262   9.828  1.3208  1.0670 -0.8560
  399MOL0     H55045   3.750   4.286   9.817 -2.3036  1.5878 -0.8307
  399MOL0     H55046   1.979   4.858   9.254  1.1978 -0.6204  1.6932
  399MOL0     H55047   1.775   4.959   9.177 -2.9741 -1.4003  0.3258
  399MOL0     H55048   1.275   4.987   9.177 -0.5821  0.4622 -0.3928
  399MOL0     H55049   1.090   5.089   9.168 -0.4918  1.5902 -0.2365
  399MOL0     H55050   0.979   5.304   9.056  2.2542  1.6850 -0.2214
  399MOL0     H55051   0.913   5.223   9.185 -2.3207  1.2945 -0.0937
  399MOL0     H55052   0.748   5.353   9.231  0.2596 -0.2698  0.6523
  399MOL0     H55053   0.770   5.392   9.065  0.2690 -1.6619  0.1781
  399MOL0     H55054   0.865   5.560   9.319  0.9332 -1.8175 -0.0706
  399MOL0     H55055   0.904   5.605   9.155 -2.6030  2.6709 -0.6663
  399MOL0     H55056   0.642   5.561   9.282  1.6543 -0.2254  1.3816
  399MOL0     H55057   0.659   5.593   9.103  0.4796  1.8851  0.0548
  399MOL0     H55058   0.639   5.966   9.293 -0.6069 -0.2625  1.9867
  399MOL0     H55059   1.257   5.451   9.303  1.8026  0.5635 -0.9733
  399MOL0     H55060   1.552   5.331   9.455  1.9237  2.2378  0.5699
  399MOL0     H55061   1.598   5.380   9.293 -0.9843  1.6397  0.2021
  399MOL0     H55062   1.479   5.470   9.382 -0.1984 -0.4754  1.4966
  400MOL0     O55063   4.770   5.945   6.276  0.0381 -0.3464 -0.5031
  400MOL0     C55064   4.663   5.892   6.261 -0.6200  0.3225  0.2311
  400MOL0     O55065   4.632   5.774   6.185 -0.0080 -0.0757  0.0514
  400MOL0     C55066   4.713   5.699   6.112  0.6846 -0.0644  0.4522
  400MOL0     C55067   4.652   5.587   6.045  0.5775 -0.5532 -0.6006
  400MOL0     C55068   4.731   5.501   5.967 -0.7801 -0.0202 -0.2936
  400MOL0     C55069   4.866   5.520   5.950 -0.9958 -0.4192  0.3447
  400MOL0     O55070   4.930   5.444   5.859 -0.4125  0.3653 -0.1041
  400MOL0     C55071   5.069   5.410   5.883  0.1210 -0.7723 -0.0451
  400MOL0     C55072   5.098   5.312   5.776  0.0891 -0.3064  0.8958
  400MOL0     C55073   5.250   5.258   5.772  0.1090  0.1268  0.1353
  400MOL0     C55074   5.276   5.159   5.883 -0.2111  0.2364  0.2715
  400MOL0     C55075   5.428   5.134   5.896 -0.2369  0.6544  0.2966
  400MOL0     C55076   5.449   5.027   6.010 -1.0585 -0.5689  0.4270
  400MOL0     C55077   5.593   4.979   6.023  0.1057  0.0710 -0.0617
  400MOL0     C55078   5.590   4.846   6.108  0.2760 -0.3468 -0.2903
  400MOL0     N55079   5.719   4.810   6.174  0.3015  0.1852 -0.3398
  400MOL0     C55080   5.745   4.812   6.310  0.3326 -0.2108  0.0470
  400MOL0     C55081   5.864   4.745   6.321  0.3467  0.0894 -0.1983
  400MOL0     C55082   5.938   4.697   6.446 -0.7372  0.6648  0.2840
  400MOL0     C55083   6.089   4.721   6.445  0.0218  0.1431  0.1612
  400MOL0     C55084   6.132   4.867   6.437  0.0503 -0.0492 -0.3450
  400MOL0     C55085   6.267   4.889   6.516 -0.2986 -1.0082  0.2620
  400MOL0     O55086   6.255   4.907   6.656  0.9179  0.4128 -0.2024
  400MOL0     C55087   6.363   4.929   6.737  0.1904 -0.2593 -1.4869
  400MOL0     C55088   6.479   4.994   6.702  0.3957  0.3930  0.2964
  400MOL0     C55089   6.581   5.007   6.790  0.5954 -0.4715  0.6148
  400MOL0     C55090   6.705   5.077   6.735  0.2355  0.4341 -0.3964
  400MOL0     C55091   6.568   4.963   6.933 -0.0670 -0.8863  0.8035
  400MOL0     C55092   6.675   4.976   7.032 -0.1491  0.4160 -0.4321
  400MOL0     O55093   6.622   4.999   7.156 -0.0429 -0.1088 -0.6026
  400MOL0     C55094   6.683   5.036   7.272  0.6129 -0.5199 -0.3437
  400MOL0     C55095   6.816   5.081   7.276 -0.9631  0.0243  0.6805
  400MOL0     C55096   6.875   5.131   7.400 -0.2343  0.2910 -0.4121
  400MOL0     C55097   6.805   5.143   7.521  0.1147  0.4152 -0.2679
  400MOL0     O55098   6.857   5.185   7.640 -0.5310 -0.8819  0.0837
  400MOL0     C55099   6.969   5.276   7.648 -0.7696 -0.9203  0.4201
  400MOL0     C55100   6.996   5.310   7.793  0.3382  0.4932 -0.3124
  400MOL0     C55101   7.061   5.209   7.874 -0.7213  0.2305  0.0912
  400MOL0     C55102   7.062   5.240   8.025 -0.4233 -0.4251 -0.6778
  400MOL0     C55103   7.163   5.355   8.058  0.4017  0.6001  0.6768
  400MOL0     C55104   7.163   5.402   8.207 -0.3323  0.2039  0.6927
  400MOL0     C55105   7.250   5.532   8.217 -0.2086 -0.2944  0.3463
  400MOL0     C55106   7.362   5.513   8.320  0.0939  0.6314 -0.2511
  400MOL0    Cl55107   7.484   5.652   8.350  0.2790  0.3181  0.1489
  400MOL0     C55108   6.674   5.100   7.506  0.2001 -0.1294 -0.1002
  400MOL0     C55109   6.613   5.040   7.394 -0.0233  0.4697  1.3445
  400MOL0     O55110   6.796   4.961   7.004 -0.2568 -0.0482 -0.1098
  400MOL0     C55111   6.444   4.902   6.963 -0.3741 -0.1027  0.3920
  400MOL0     C55112   6.346   4.881   6.871  0.3596 -0.1207 -0.2123
  400MOL0     N55113   5.901   4.703   6.194  0.0067  0.3572  0.7558
  400MOL0     N55114   5.811   4.741   6.115 -0.2170 -0.2504  0.3365
  400MOL0     C55115   4.922   5.625   6.024 -0.5616 -0.0042  0.3409
  400MOL0     C55116   4.847   5.719   6.102  0.9412 -0.1378 -0.8653
  400MOL0     C55117   4.555   5.962   6.331 -0.1029 -0.3923 -0.7229
  400MOL0     C55118   4.592   6.059   6.430  0.3359 -0.0699 -0.2650
  400MOL0     C55119   4.488   6.131   6.499  0.0840 -0.9241 -0.6252
  400MOL0     C55120   4.356   6.131   6.456 -0.6396 -0.6687 -0.0453
  400MOL0     O55121   4.275   6.221   6.517  0.6110 -0.7961 -0.6092
  400MOL0     C55122   4.139   6.228   6.464  0.1669 -0.9680  0.2748
  400MOL0     C55123   4.046   6.306   6.558  0.5241  0.4231  0.3538
  400MOL0     C55124   4.053   6.234   6.693  0.0048  1.0637 -0.1645
  400MOL0     C55125   3.974   6.323   6.801  0.4699 -0.7325  0.0939
  400MOL0     C55126   3.831   6.303   6.778  0.4221 -0.5557  0.4405
  400MOL0     C55127   3.705   6.296   6.771 -1.0684 -0.0405 -0.3917
  400MOL0     C55128   4.328   6.046   6.353 -0.1836  0.1781 -0.7878
  400MOL0     C55129   4.419   5.955   6.298  0.0007 -0.4812 -0.1208
  400MOL0     C55130   4.363   5.848   6.207 -0.3443  0.4102  0.2313
  400MOL0     H55131   4.547   5.575   6.071  0.8102 -0.7723  0.2901
  400MOL0     H55132   4.665   5.434   5.912 -1.9528  2.1818 -1.7506
  400MOL0     H55133   5.077   5.371   5.985  1.4392  2.8897  1.4205
  400MOL0     H55134   5.126   5.502   5.866 -1.8293  0.3519 -0.8639
  400MOL0     H55135   5.039   5.224   5.802 -2.8988  1.1609 -0.5123
  400MOL0     H55136   5.067   5.339   5.675 -0.5271  0.6778  1.3347
  400MOL0     H55137   5.272   5.202   5.680  0.4656  0.4707  0.0076
  400MOL0     H55138   5.317   5.345   5.782  1.6338 -1.1137  1.1541
  400MOL0     H55139   5.234   5.197   5.976  0.6620  0.6501  0.5117
  400MOL0     H55140   5.225   5.066   5.859 -0.0732  0.4506 -0.9512
  400MOL0     H55141   5.480   5.226   5.922 -1.3689  1.7028 -0.9784
  400MOL0     H55142   5.465   5.106   5.798 -1.0428  0.3524  0.0680
  400MOL0     H55143   5.419   5.073   6.104  0.6302  1.5959 -0.0000
  400MOL0     H55144   5.382   4.944   5.984 -1.4648 -0.2916  0.5791
  400MOL0     H55145   5.634   5.065   6.076 -0.7970  2.4981 -3.0607
  400MOL0     H55146   5.643   4.968   5.926 -0.2889  0.1742 -0.2801
  400MOL0     H55147   5.514   4.853   6.185 -1.1387 -1.3233 -1.5411
  400MOL0     H55148   5.556   4.765   6.043  0.2667 -0.2283 -0.4359
  400MOL0     H55149   5.687   4.862   6.386  1.8225  1.7442 -0.0229
  400MOL0     H55150   5.906   4.593   6.457 -0.5862  0.0532 -3.6818
  400MOL0     H55151   5.901   4.746   6.536  1.2383 -0.9008  2.0710
  400MOL0     H55152   6.144   4.660   6.517  2.9706 -1.1134 -2.8663
  400MOL0     H55153   6.117   4.683   6.346  0.9604  2.1913 -0.4005
  400MOL0     H55154   6.148   4.906   6.336 -1.6056  2.6745  0.3339
  400MOL0     H55155   6.059   4.933   6.484 -2.3633 -1.3667 -2.0213
  400MOL0     H55156   6.337   4.809   6.490 -2.2291 -1.8724 -2.7980
  400MOL0     H55157   6.297   4.989   6.483 -1.8241 -0.0057  1.7072
  400MOL0     H55158   6.496   5.026   6.599  0.5466 -3.8561 -1.2079
  400MOL0     H55159   6.682   5.140   6.649  2.3902  0.5738 -0.9370
  400MOL0     H55160   6.787   5.012   6.702  0.4149  0.3367  0.2362
  400MOL0     H55161   6.758   5.137   6.809  0.7666  0.3379 -0.6924
  400MOL0     H55162   6.876   5.072   7.186 -0.7301  2.8535  0.4642
  400MOL0     H55163   6.983   5.144   7.408  0.2354 -3.3846  1.5679
  400MOL0     H55164   7.069   5.244   7.617  0.8020  2.5169  1.5345
  400MOL0     H55165   6.944   5.366   7.591  2.1523 -0.9563 -1.1072
  400MOL0     H55166   7.062   5.398   7.792 -1.0034  1.6167  1.6328
  400MOL0     H55167   6.903   5.336   7.845  1.6067 -0.4565  2.6828
  400MOL0     H55168   7.164   5.196   7.842 -0.9269 -0.0232 -0.4797
  400MOL0     H55169   7.004   5.116   7.862  1.7980 -1.4142  0.3362
  400MOL0     H55170   7.086   5.141   8.064 -0.8504 -2.0979 -4.2750
  400MOL0     H55171   6.964   5.274   8.060 -0.3441 -1.4062  0.5365
  400MOL0     H55172   7.265   5.327   8.030  0.0210  0.2496 -0.3959
  400MOL0     H55173   7.132   5.444   8.003 -1.5744 -1.1068 -1.1228
  400MOL0     H55174   7.190   5.317   8.270 -0.8470 -1.3950 -1.1327
  400MOL0     H55175   7.062   5.435   8.235  0.2262  1.3248  1.4954
  400MOL0     H55176   7.192   5.614   8.261  0.7278  1.0586 -0.8637
  400MOL0     H55177   7.292   5.563   8.121  1.4669 -3.1785  0.0106
  400MOL0     H55178   7.422   5.424   8.299  1.0844  1.3861 -0.7023
  400MOL0     H55179   7.324   5.485   8.418  2.0165 -1.5285 -0.0425
  400MOL0     H55180   6.598   5.094   7.584  2.7657 -1.1529  2.4921
  400MOL0     H55181   6.507   5.018   7.391 -0.2177  1.4372  0.2504
  400MOL0     H55182   6.429   4.854   7.059 -3.1574 -3.2850 -1.4275
  400MOL0     H55183   6.261   4.822   6.901 -0.0113  1.1259  1.3091
  400MOL0     H55184   5.027   5.649   6.009 -0.3557  0.4438  2.2297
  400MOL0     H55185   4.889   5.796   6.166 -1.1277 -0.5642  1.1379
  400MOL0     H55186   4.696   6.054   6.461 -0.1393 -2.5126  1.2062
  400MOL0     H55187   4.522   6.201   6.576  0.0823 -1.6831  0.0846
  400MOL0     H55188   4.137   6.274   6.365 -1.3619  0.9437  1.1480
  400MOL0     H55189   4.095   6.128   6.451 -0.7601 -0.6612  0.9771
  400MOL0     H55190   3.943   6.297   6.523  0.7672 -0.7553 -0.1048
  400MOL0     H55191   4.068   6.412   6.565 -0.7789  0.8104 -0.8710
  400MOL0     H55192   4.008   6.134   6.689  1.6100  0.2259  1.2907
  400MOL0     H55193   4.157   6.221   6.725 -0.8247  0.4079  2.4823
  400MOL0     H55194   4.010   6.426   6.791 -0.9490 -0.4019 -2.5752
  400MOL0     H55195   3.998   6.280   6.899 -2.9774 -2.5817  0.2938
  400MOL0     H55196   3.599   6.303   6.761 -1.3146 -0.1931  1.6808
  400MOL0     H55197   4.228   6.049   6.309  0.4321  0.1111 -2.2353
  400MOL0     H55198   4.256   5.864   6.195 -0.6719 -2.5678 -1.8930
  400MOL0     H55199   4.400   5.859   6.105 -1.5578 -2.0589 -0.5512
  400MOL0     H55200   4.379   5.746   6.243  2.9633  1.1181  1.1747
  401MOL0     O55201   6.486  10.462   2.570 -0.4944 -0.2981  0.0046
  401MOL0     C55202   6.382  10.526   2.574 -0.2119 -0.1045  1.1740
  401MOL0     O55203   6.363  10.661   2.530  0.2447 -0.2652 -0.4903
  401MOL0     C55204   6.472  10.748   2.526  0.1124 -0.9840 -0.0172
  401MOL0     C55205   6.474  10.846   2.425  0.5541  0.6431 -0.0058
  401MOL0     C55206   6.578  10.937   2.415  0.4447 -0.3089  0.3117
  401MOL0     C55207   6.670  10.955   2.521  0.4561  0.2033  1.0436
  401MOL0     O55208   6.763  11.051   2.514 -0.4995 -0.7667  0.9213
  401MOL0     C55209   6.883  11.027   2.593 -0.5157 -0.1042  1.2859
  401MOL0     C55210   6.974  11.138   2.546  0.3452 -0.0021  0.5682
  401MOL0     C55211   7.111  11.110   2.606  0.1799 -0.5575 -0.2865
  401MOL0     C55212   7.202  11.229   2.565  0.7492  0.0105 -0.5392
  401MOL0     C55213   7.336  11.221   2.652  0.2761  0.6295 -0.2508
  401MOL0     C55214   7.444  11.324   2.596  0.0517  0.3316  0.3079
  401MOL0     C55215   7.576  11.324   2.688 -0.1602 -0.2775 -0.1110
  401MOL0     C55216   7.686  11.405   2.620 -0.1014  0.5458  0.4146
  401MOL0     N55217   7.810  11.409   2.693  0.3042  0.0553  0.4707
  401MOL0     C55218   7.834  11.461   2.811  0.9162 -0.3992 -0.9666
  401MOL0     C55219   7.970  11.471   2.815  0.1720  1.0388 -0.5191
  401MOL0     C55220   8.033  11.501   2.946 -0.9401 -0.3129 -1.4210
  401MOL0     C55221   8.144  11.600   2.926 -0.6618  0.2150  0.0818
  401MOL0     C55222   8.170  11.662   3.065  0.1431  0.1444 -0.6252
  401MOL0     C55223   8.320  11.703   3.075  0.1396 -0.6367 -0.5526
  401MOL0     O55224   8.340  11.766   3.202 -0.4215 -0.9106  0.3235
  401MOL0     C55225   8.471  11.790   3.238 -0.2440  0.0527  0.0173
  401MOL0     C55226   8.473  11.820   3.374 -0.5489  0.4541 -0.1359
  401MOL0     C55227   8.595  11.866   3.430  0.8866 -0.7421  0.1630
  401MOL0     C55228   8.597  11.886   3.582  0.1169 -0.1493  0.5160
  401MOL0     C55229   8.710  11.884   3.347 -0.6801  0.0951 -0.6338
  401MOL0     C55230   8.856  11.923   3.389  0.1840  0.6005 -0.5172
  401MOL0     O55231   8.954  11.971   3.296  0.2846  0.0135 -0.1937
  401MOL0     C55232   9.079  11.948   3.346 -0.1327  0.1751 -0.2198
  401MOL0     C55233   9.150  11.833   3.306  0.3787 -0.2721 -0.3053
  401MOL0     C55234   9.270  11.793   3.355  0.1599 -0.0485 -1.0437
  401MOL0     C55235   9.342  11.879   3.437  0.1801  0.0430 -0.1521
  401MOL0     O55236   9.462  11.838   3.474  0.0047 -0.3736 -0.3212
  401MOL0     C55237   9.564  11.930   3.528  0.7576 -0.3815 -0.1699
  401MOL0     C55238   9.687  11.844   3.551  1.2593 -0.1453  0.1266
  401MOL0     C55239   9.805  11.937   3.591  0.4505  0.0079 -0.2159
  401MOL0     C55240   9.942  11.870   3.578 -0.6357 -0.5213  0.2448
  401MOL0     C55241  10.065  11.970   3.601 -0.1651 -0.2877  0.6319
  401MOL0     C55242  10.197  11.892   3.590  0.2538 -0.5901  0.1773
  401MOL0     C55243  10.242  11.857   3.438 -0.1712 -0.3005 -0.1577
  401MOL0     C55244  10.376  11.775   3.449 -0.7826  0.0931 -0.1435
  401MOL0    Cl55245  10.464  11.779   3.291 -0.2964  0.0534  0.7067
  401MOL0     C55246   9.278  12.003   3.471  0.2614  0.2156 -0.1445
  401MOL0     C55247   9.147  12.035   3.431  1.4269 -0.1853  0.6701
  401MOL0     O55248   8.869  11.924   3.513  0.1436 -0.4789  0.1849
  401MOL0     C55249   8.701  11.858   3.203  0.1145 -0.6720  0.1303
  401MOL0     C55250   8.577  11.801   3.153  0.1282 -0.5519  0.5192
  401MOL0     N55251   8.030  11.447   2.694 -0.4511 -0.2249 -0.5236
  401MOL0     N55252   7.932  11.416   2.626 -0.8070 -0.6019 -0.9110
  401MOL0     C55253   6.649  10.880   2.643 -0.2800  0.5103 -0.2002
  401MOL0     C55254   6.558  10.771   2.635 -0.2108 -0.3547 -1.0957
  401MOL0     C55255   6.258  10.465   2.627 -0.1039 -0.3274 -0.7210
  401MOL0     C55256   6.139  10.482   2.557 -0.0572  0.0849  0.1541
  401MOL0     C55257   6.019  10.414   2.588 -0.2283 -0.0694  0.2196
  401MOL0     C55258   6.024  10.318   2.696 -0.1689 -0.2777  0.5830
  401MOL0     O55259   5.903  10.264   2.737  0.2944 -0.6479 -0.1578
  401MOL0     C55260   5.910  10.161   2.844 -0.1428  0.0182  0.6258
  401MOL0     C55261   5.772  10.122   2.892 -0.3278  0.8228  0.2060
  401MOL0     C55262   5.668  10.084   2.781 -0.4218 -0.3654 -0.2309
  401MOL0     C55263   5.534  10.031   2.837  1.7701  1.0636 -0.4057
  401MOL0     C55264   5.538   9.916   2.925  0.8240 -0.7418  0.5386
  401MOL0     C55265   5.521   9.842   3.025  0.1531 -0.3274  0.1795
  401MOL0     C55266   6.147  10.296   2.761 -0.1420 -0.3453 -0.4905
  401MOL0     C55267   6.262  10.374   2.736  0.4135  0.3729 -0.4318
  401MOL0     C55268   6.380  10.364   2.829 -0.3143  0.5240 -0.3370
  401MOL0     H55269   6.397  10.852   2.349  0.8330  0.4848 -0.3020
  401MOL0     H55270   6.572  11.006   2.332  0.3336 -1.8271 -1.0072
  401MOL0     H55271   6.930  10.929   2.587 -2.0951 -1.0944  3.6776
  401MOL0     H55272   6.864  11.034   2.700  0.9928  3.2162  1.4566
  401MOL0     H55273   6.971  11.148   2.437 -1.0691  1.4306  0.6891
  401MOL0     H55274   6.939  11.237   2.578 -1.5315  0.3937 -2.3682
  401MOL0     H55275   7.109  11.101   2.715  1.2631  1.6766 -0.0346
  401MOL0     H55276   7.151  11.011   2.585 -0.5934 -0.9694  0.1158
  401MOL0     H55277   7.222  11.203   2.461 -0.3704  0.3497 -0.8473
  401MOL0     H55278   7.156  11.327   2.577  0.3118 -0.3651  1.1955
  401MOL0     H55279   7.374  11.119   2.648 -2.6744 -0.5599 -0.3669
  401MOL0     H55280   7.324  11.240   2.759  2.2782 -2.5239  0.6655
  401MOL0     H55281   7.472  11.282   2.499  1.5471  1.2573  0.3195
  401MOL0     H55282   7.397  11.423   2.592 -0.8867 -0.1205 -0.6569
  401MOL0     H55283   7.603  11.218   2.688  0.4886 -0.1206  0.2380
  401MOL0     H55284   7.561  11.365   2.788 -0.4267 -2.6258  0.8769
  401MOL0     H55285   7.702  11.378   2.515  2.0201  0.8948  0.5918
  401MOL0     H55286   7.650  11.508   2.611  0.7926  0.9379  1.1670
  401MOL0     H55287   7.765  11.485   2.891  1.1921  1.8532 -1.3527
  401MOL0     H55288   8.066  11.409   2.994  1.1856  1.1582  0.0931
  401MOL0     H55289   7.955  11.535   3.015 -0.8606 -1.9309 -0.4818
  401MOL0     H55290   8.234  11.554   2.884 -0.6208  1.9828 -1.9078
  401MOL0     H55291   8.112  11.682   2.861  0.7921 -0.1975 -1.2324
  401MOL0     H55292   8.098  11.744   3.074  0.7784  0.4634  2.8418
  401MOL0     H55293   8.144  11.594   3.147 -2.5021  0.2178 -1.2977
  401MOL0     H55294   8.387  11.616   3.079 -0.8160 -1.3343  2.8191
  401MOL0     H55295   8.347  11.769   2.992 -0.0692 -0.0087 -0.1236
  401MOL0     H55296   8.387  11.798   3.436 -1.0867  2.4324 -0.1169
  401MOL0     H55297   8.665  11.811   3.625  1.5535  0.3781 -0.7311
  401MOL0     H55298   8.495  11.895   3.622 -1.3988  3.1061 -3.4097
  401MOL0     H55299   8.649  11.974   3.621 -0.1556 -0.5536  1.8701
  401MOL0     H55300   9.113  11.755   3.241  1.8790  0.3782 -2.0070
  401MOL0     H55301   9.303  11.696   3.318  0.6089  0.2837 -1.5407
  401MOL0     H55302   9.576  12.002   3.447  1.7352 -1.8266 -1.3816
  401MOL0     H55303   9.531  11.984   3.617  1.5274 -1.0305  0.5364
  401MOL0     H55304   9.661  11.770   3.628 -0.4508  0.4046  0.1196
  401MOL0     H55305   9.713  11.793   3.458  2.3557 -0.0534  0.3635
  401MOL0     H55306   9.783  11.974   3.692  0.1540 -0.1881 -0.2063
  401MOL0     H55307   9.795  12.022   3.522  3.0935  0.8234  0.3160
  401MOL0     H55308   9.944  11.822   3.480  0.4844 -0.7716  0.3885
  401MOL0     H55309   9.949  11.795   3.658 -2.0511 -2.6233 -1.5001
  401MOL0     H55310  10.055  12.055   3.532  1.4191 -2.0890 -1.9906
  401MOL0     H55311  10.063  12.024   3.696  3.6430  0.5704  0.3938
  401MOL0     H55312  10.203  11.804   3.655  0.7172  0.1643  1.1857
  401MOL0     H55313  10.273  11.958   3.633 -1.5132  0.8934  1.1561
  401MOL0     H55314  10.268  11.946   3.380  0.1163  0.6992  1.4443
  401MOL0     H55315  10.175  11.798   3.375  0.6212  0.7976 -2.1251
  401MOL0     H55316  10.362  11.671   3.477 -2.0126  0.6527  1.5009
  401MOL0     H55317  10.445  11.830   3.514 -2.4516 -0.9018  2.5966
  401MOL0     H55318   9.329  12.069   3.539  3.0793 -0.9779 -0.9792
  401MOL0     H55319   9.098  12.130   3.449  0.1018 -0.4640 -1.2041
  401MOL0     H55320   8.779  11.890   3.134  1.6803 -0.9890  1.6747
  401MOL0     H55321   8.569  11.783   3.047  0.2104 -0.3641  0.4811
  401MOL0     H55322   6.696  10.903   2.738  0.6690 -1.8688 -0.0262
  401MOL0     H55323   6.555  10.708   2.724 -3.5084 -1.6158 -1.9399
  401MOL0     H55324   6.124  10.558   2.481  0.6283  0.9970  0.9127
  401MOL0     H55325   5.928  10.443   2.537  1.1041  0.6155 -1.9025
  401MOL0     H55326   5.977  10.083   2.806 -0.7627  0.7581 -2.2241
  401MOL0     H55327   5.956  10.210   2.931 -0.9050  3.4287 -0.7137
  401MOL0     H55328   5.751  10.205   2.959  2.8195  2.3451 -0.4997
  401MOL0     H55329   5.777  10.028   2.948  0.9198  1.6652  1.5809
  401MOL0     H55330   5.650  10.167   2.712 -0.7867 -0.1534  0.1120
  401MOL0     H55331   5.715  10.005   2.722  4.3594  0.5209  1.9485
  401MOL0     H55332   5.469   9.997   2.755  0.7996 -0.7749  1.0467
  401MOL0     H55333   5.485  10.118   2.883 -0.1715 -0.1463 -0.0785
  401MOL0     H55334   5.518   9.774   3.108 -0.1940 -1.4318 -0.7014
  401MOL0     H55335   6.149  10.214   2.833  1.1525  0.2692  0.1938
  401MOL0     H55336   6.431  10.459   2.844 -0.1717  0.3565  0.2860
  401MOL0     H55337   6.346  10.318   2.922  1.3825 -0.3877 -0.1377
  401MOL0     H55338   6.447  10.289   2.787 -1.3185  0.7210 -2.4269
  402MOL0     O55339   1.693   5.343   2.322  0.1245 -0.3680 -0.3893
  402MOL0     C55340   1.657   5.308   2.430 -0.4407 -0.6472 -0.6493
  402MOL0     O55341   1.742   5.242   2.515  0.7130  0.3464  0.7131
  402MOL0     C55342   1.875   5.282   2.509 -0.2536 -0.3322  0.4177
  402MOL0     C55343   1.977   5.215   2.438  0.4212  0.5439 -0.5556
  402MOL0     C55344   2.111   5.263   2.450 -0.8148  0.0872  0.2777
  402MOL0     C55345   2.143   5.376   2.525 -0.4096 -0.7017 -0.1098
  402MOL0     O55346   2.278   5.421   2.542  0.7241  0.0034 -0.5120
  402MOL0     C55347   2.391   5.337   2.524  1.0726 -0.1188  0.5319
  402MOL0     C55348   2.526   5.407   2.527 -0.7883 -0.6506 -1.2308
  402MOL0     C55349   2.640   5.315   2.553 -0.3783  0.1514  0.6533
  402MOL0     C55350   2.773   5.388   2.542 -0.2492 -1.3860 -0.1412
  402MOL0     C55351   2.895   5.304   2.592  0.3737 -0.3788  0.5964
  402MOL0     C55352   2.873   5.276   2.744  0.2425 -0.0099 -0.0197
  402MOL0     C55353   3.003   5.314   2.815  0.0727 -1.0216 -0.1286
  402MOL0     C55354   3.005   5.282   2.969  0.0699 -0.3641 -0.6523
  402MOL0     N55355   2.984   5.141   3.001 -0.8524  0.4585  0.7326
  402MOL0     C55356   2.865   5.072   2.994 -0.8589  0.1717 -0.1990
  402MOL0     C55357   2.893   4.945   3.017 -0.2853 -0.5936  0.8311
  402MOL0     C55358   2.801   4.825   3.016 -0.3246 -0.0862 -0.3800
  402MOL0     C55359   2.653   4.848   3.039 -0.7561  0.0692  0.4640
  402MOL0     C55360   2.582   4.711   3.039  0.4579  0.1187 -0.7917
  402MOL0     C55361   2.428   4.713   3.082 -0.2455  0.0506 -0.6436
  402MOL0     O55362   2.347   4.768   2.975  0.0652  0.4031  0.3484
  402MOL0     C55363   2.207   4.752   2.991 -0.1023  0.3790  0.6489
  402MOL0     C55364   2.131   4.663   3.066 -0.1172 -0.5139  0.3129
  402MOL0     C55365   1.997   4.660   3.064 -1.2340 -0.6795 -0.0986
  402MOL0     C55366   1.940   4.553   3.148  0.4228 -0.1044 -0.4392
  402MOL0     C55367   1.933   4.752   2.976 -0.1992  0.6394 -0.4379
  402MOL0     C55368   1.787   4.732   2.943  0.6191  0.3635 -0.9851
  402MOL0     O55369   1.727   4.824   2.859 -0.3538  0.8755  0.4598
  402MOL0     C55370   1.600   4.816   2.815 -0.4332 -0.4471  0.0514
  402MOL0     C55371   1.528   4.699   2.778 -0.2243  0.6786  0.2792
  402MOL0     C55372   1.390   4.696   2.745 -0.5259  0.2120  0.3573
  402MOL0     C55373   1.322   4.815   2.737 -0.0468  0.9592  0.1795
  402MOL0     O55374   1.190   4.804   2.695 -0.4090 -0.3442  0.3980
  402MOL0     C55375   1.145   4.888   2.586 -0.3617 -0.9283 -0.1635
  402MOL0     C55376   0.987   4.891   2.567 -0.2992  0.3407 -0.2593
  402MOL0     C55377   0.935   4.992   2.474  0.5638 -0.2488 -0.4011
  402MOL0     C55378   0.797   4.967   2.427 -0.1741  0.6390 -0.1778
  402MOL0     C55379   0.765   5.065   2.310 -0.9987  0.2899 -0.3482
  402MOL0     C55380   0.619   5.069   2.272 -0.1999  0.1856  0.2268
  402MOL0     C55381   0.603   5.130   2.127 -0.0212  0.4320 -0.3490
  402MOL0     C55382   0.455   5.155   2.085  0.0579  0.4386 -0.2169
  402MOL0    Cl55383   0.475   5.250   1.934  0.1022  0.1753  0.0377
  402MOL0     C55384   1.394   4.937   2.755 -0.0960 -0.4816 -0.1205
  402MOL0     C55385   1.527   4.933   2.795  0.1460  0.0509  0.4223
  402MOL0     O55386   1.738   4.627   2.989  0.9812  0.1540  0.2349
  402MOL0     C55387   2.008   4.846   2.904  0.8903 -0.5330 -0.6065
  402MOL0     C55388   2.146   4.844   2.909 -0.2133  0.1366  0.1101
  402MOL0     N55389   3.027   4.925   3.025  0.1615  1.2310  0.7022
  402MOL0     N55390   3.077   5.042   3.017 -0.5171 -0.4560 -0.1191
  402MOL0     C55391   2.037   5.440   2.594  1.2673  0.9958  0.1483
  402MOL0     C55392   1.909   5.386   2.589 -0.3099 -0.1976  0.7119
  402MOL0     C55393   1.513   5.319   2.467  0.3849 -0.4149 -1.8869
  402MOL0     C55394   1.484   5.290   2.604  0.5147 -0.1360  0.0819
  402MOL0     C55395   1.357   5.291   2.656  0.3436 -0.2885 -0.3319
  402MOL0     C55396   1.249   5.324   2.571 -0.3076 -0.7869 -0.6146
  402MOL0     O55397   1.125   5.333   2.625 -0.5435  0.3530 -0.4508
  402MOL0     C55398   1.102   5.425   2.729 -0.3001  0.1491  0.2766
  402MOL0     C55399   0.952   5.444   2.739  0.5624  0.1596  0.0529
  402MOL0     C55400   0.900   5.358   2.853  1.3321  0.7054 -0.0755
  402MOL0     C55401   0.748   5.368   2.857 -0.5634 -0.5726  0.0614
  402MOL0     C55402   0.691   5.276   2.765  0.0295  0.6923 -0.6505
  402MOL0     C55403   0.643   5.191   2.694  0.1220  0.0176  1.1179
  402MOL0     C55404   1.268   5.329   2.431 -0.4877  0.1784  0.1065
  402MOL0     C55405   1.402   5.339   2.384 -1.0234 -0.4985  0.1450
  402MOL0     C55406   1.427   5.388   2.242  0.1025  0.2241  0.2296
  402MOL0     H55407   1.958   5.131   2.371 -2.4766  0.9235 -0.3368
  402MOL0     H55408   2.179   5.201   2.392 -1.1612  1.6578 -1.9085
  402MOL0     H55409   2.389   5.286   2.428  2.6007 -3.5447  2.1282
  402MOL0     H55410   2.389   5.259   2.601 -3.5709 -0.6123  0.1998
  402MOL0     H55411   2.551   5.466   2.439 -1.3524  1.1189 -0.2540
  402MOL0     H55412   2.532   5.477   2.611  0.8360 -2.6398  0.4512
  402MOL0     H55413   2.627   5.266   2.650  1.0178  0.8933  1.2432
  402MOL0     H55414   2.641   5.249   2.466 -2.1709 -0.5561  1.1279
  402MOL0     H55415   2.786   5.430   2.442 -0.7556  1.0863  0.7592
  402MOL0     H55416   2.769   5.476   2.606  0.0845 -1.4175 -0.0742
  402MOL0     H55417   2.983   5.364   2.570  0.7057 -1.0702  0.0146
  402MOL0     H55418   2.902   5.204   2.547 -0.8792 -0.0783 -0.3253
  402MOL0     H55419   2.788   5.324   2.792 -0.6429 -0.3628 -1.1803
  402MOL0     H55420   2.854   5.169   2.750  0.0969  0.0962  2.0382
  402MOL0     H55421   3.028   5.419   2.796  1.6981 -1.1870  0.9130
  402MOL0     H55422   3.081   5.251   2.771 -0.9169 -3.0993  0.9457
  402MOL0     H55423   3.105   5.314   3.001  0.7583 -1.4850 -1.6067
  402MOL0     H55424   2.938   5.345   3.028 -0.1770 -0.8167 -0.4475
  402MOL0     H55425   2.775   5.132   2.979  0.5935  2.5796  0.0740
  402MOL0     H55426   2.839   4.755   3.090 -0.5653  0.6102  0.4221
  402MOL0     H55427   2.812   4.765   2.926  0.4976  1.8226 -1.6330
  402MOL0     H55428   2.654   4.893   3.139 -0.6567  2.0601 -0.3730
  402MOL0     H55429   2.625   4.926   2.967 -0.1979  0.7991  1.0198
  402MOL0     H55430   2.579   4.672   2.936  0.9236 -0.2012 -0.6898
  402MOL0     H55431   2.648   4.648   3.100  2.8937  0.0491 -3.2478
  402MOL0     H55432   2.406   4.608   3.106  2.5087 -0.7133 -1.0956
  402MOL0     H55433   2.413   4.778   3.168  2.0438  2.6614 -2.0523
  402MOL0     H55434   2.188   4.587   3.118 -0.9199 -1.1478  0.2886
  402MOL0     H55435   2.012   4.528   3.227 -0.8770  1.4639  1.3395
  402MOL0     H55436   1.916   4.462   3.094  2.0425 -1.0127  0.2859
  402MOL0     H55437   1.849   4.586   3.200  0.2002 -0.6465 -0.4825
  402MOL0     H55438   1.581   4.605   2.781  1.7177  1.6960  3.4585
  402MOL0     H55439   1.336   4.602   2.738 -1.9651  1.0600 -0.3076
  402MOL0     H55440   1.179   4.988   2.612 -1.2626 -0.8344  0.7052
  402MOL0     H55441   1.198   4.852   2.497  2.0734 -1.5122  1.4167
  402MOL0     H55442   0.956   4.792   2.531  1.1039 -0.8059  1.5083
  402MOL0     H55443   0.951   4.887   2.670  0.9288 -1.4054  0.1403
  402MOL0     H55444   0.996   4.990   2.382  1.8286 -0.0231  0.4070
  402MOL0     H55445   0.934   5.092   2.519 -0.7363 -0.0370 -0.8674
  402MOL0     H55446   0.723   4.971   2.508 -0.3097  0.7672 -0.3053
  402MOL0     H55447   0.794   4.868   2.381 -0.9862  1.2987 -1.6433
  402MOL0     H55448   0.803   5.166   2.328  1.1360 -0.7476  1.4862
  402MOL0     H55449   0.811   5.025   2.220 -1.1072 -1.3685  0.2921
  402MOL0     H55450   0.559   5.134   2.337  0.9897  1.3438  0.1873
  402MOL0     H55451   0.570   4.972   2.286 -1.6083  0.8137 -0.1120
  402MOL0     H55452   0.649   5.062   2.055 -0.1614  0.0586 -0.0849
  402MOL0     H55453   0.648   5.230   2.135  2.0863 -0.5294  0.5850
  402MOL0     H55454   0.403   5.211   2.164  2.9530  2.6362  0.3022
  402MOL0     H55455   0.400   5.065   2.059 -2.1877  2.3900 -2.8203
  402MOL0     H55456   1.330   5.025   2.759  0.3959 -0.1485  2.0948
  402MOL0     H55457   1.589   5.015   2.827 -0.5234  0.7158  0.0395
  402MOL0     H55458   1.972   4.920   2.833  3.3857 -0.1950 -1.6127
  402MOL0     H55459   2.201   4.910   2.842 -0.8416  0.2418 -0.3135
  402MOL0     H55460   2.064   5.525   2.656 -0.8807  2.0179 -0.2378
  402MOL0     H55461   1.831   5.430   2.651 -2.1289 -0.0315 -1.5440
  402MOL0     H55462   1.567   5.253   2.663  2.0069  1.3417 -1.0310
  402MOL0     H55463   1.347   5.271   2.762  2.8047 -3.6780 -0.5763
  402MOL0     H55464   1.153   5.396   2.821  1.5554 -4.0108 -1.8046
  402MOL0     H55465   1.144   5.519   2.693 -0.6314  0.0932 -0.2633
  402MOL0     H55466   0.892   5.412   2.653 -1.2169  0.6099  1.0563
  402MOL0     H55467   0.929   5.548   2.766 -2.0986 -0.5550  0.8746
  402MOL0     H55468   0.921   5.255   2.821 -0.1836  1.1378 -2.7861
  402MOL0     H55469   0.942   5.397   2.946  0.6674  1.7748 -0.2045
  402MOL0     H55470   0.724   5.470   2.825  0.5640 -0.8635 -1.9222
  402MOL0     H55471   0.718   5.350   2.960  0.9381  4.0978  1.5642
  402MOL0     H55472   0.582   5.122   2.639  2.9991 -1.2334 -0.7568
  402MOL0     H55473   1.182   5.343   2.367 -1.6301  0.2787  1.6149
  402MOL0     H55474   1.340   5.412   2.181  1.8022  1.2498 -1.9067
  402MOL0     H55475   1.479   5.484   2.238  1.5970 -0.5503  0.0728
  402MOL0     H55476   1.491   5.313   2.193  0.2872 -0.2842  1.2163
  403MOL0     O55477   7.466   3.110  11.403  0.3194 -0.1111  0.1985
  403MOL0     C55478   7.396   3.157  11.317  0.3307  0.0664 -0.1284
  403MOL0     O55479   7.426   3.255  11.224  0.3129  0.0855  0.3044
  403MOL0     C55480   7.542   3.324  11.238 -0.1750 -0.4094 -0.7874
  403MOL0     C55481   7.564   3.410  11.126  0.0256 -0.8046  0.5219
  403MOL0     C55482   7.678   3.489  11.118 -0.2726 -0.9689  0.3945
  403MOL0     C55483   7.785   3.480  11.214  0.2693 -0.1273  0.3869
  403MOL0     O55484   7.900   3.555  11.197 -0.0575  0.3050 -0.2960
  403MOL0     C55485   7.890   3.682  11.268 -1.0538 -0.3176 -0.3749
  403MOL0     C55486   8.017   3.710  11.355  0.0675 -0.2869 -0.6408
  403MOL0     C55487   8.116   3.590  11.383  1.6251 -0.0476  0.5369
  403MOL0     C55488   8.252   3.632  11.436  0.5826 -0.7635  0.0530
  403MOL0     C55489   8.248   3.706  11.562 -0.1660 -0.4431 -0.0322
  403MOL0     C55490   8.386   3.760  11.612 -0.6351  0.2040  0.3806
  403MOL0     C55491   8.380   3.834  11.751  0.4317  0.0666 -0.4066
  403MOL0     C55492   8.499   3.930  11.766  0.4222 -0.4243 -0.1119
  403MOL0     N55493   8.635   3.867  11.751 -0.4753 -0.8153 -0.9178
  403MOL0     C55494   8.670   3.738  11.798  0.6027  0.4319  0.7530
  403MOL0     C55495   8.794   3.708  11.759 -0.0554  0.0702 -0.1053
  403MOL0     C55496   8.878   3.578  11.793  0.7327 -0.2738  0.2326
  403MOL0     C55497   8.857   3.472  11.679  0.3348  0.7059  0.6645
  403MOL0     C55498   8.917   3.510  11.545 -0.5500 -0.5796 -0.4081
  403MOL0     C55499   8.925   3.407  11.425  0.3062  1.1026 -0.8596
  403MOL0     O55500   8.950   3.479  11.311  0.0897 -0.1958 -0.4498
  403MOL0     C55501   9.081   3.529  11.311 -0.2551  1.6294 -0.2162
  403MOL0     C55502   9.102   3.635  11.227 -0.1936 -0.4616  0.5288
  403MOL0     C55503   9.230   3.677  11.197  0.2146  0.0324 -0.1651
  403MOL0     C55504   9.233   3.787  11.103  0.0688 -0.3890  0.1630
  403MOL0     C55505   9.338   3.619  11.271 -0.4010 -0.2628  0.1544
  403MOL0     C55506   9.471   3.679  11.252 -0.4028  0.2403  0.8549
  403MOL0     O55507   9.535   3.703  11.371 -0.7912  0.2383  0.0280
  403MOL0     C55508   9.666   3.747  11.381  0.4308  0.8597  0.1860
  403MOL0     C55509   9.694   3.856  11.462 -1.3180 -0.1507 -0.5414
  403MOL0     C55510   9.829   3.911  11.473  0.5728  0.4329  0.4481
  403MOL0     C55511   9.935   3.832  11.424  0.0196  0.7399 -1.2129
  403MOL0     O55512  10.067   3.877  11.442  0.4008  0.2212  0.0381
  403MOL0     C55513  10.174   3.780  11.457 -0.4557  0.3174 -1.0362
  403MOL0     C55514  10.182   3.722  11.600  0.2461 -0.7164 -0.1487
  403MOL0     C55515  10.220   3.830  11.703  0.5661  0.7202 -0.0528
  403MOL0     C55516  10.356   3.901  11.684 -0.3827 -0.3298  0.2694
  403MOL0     C55517  10.373   4.001  11.805  0.4127 -0.6250  0.2508
  403MOL0     C55518  10.506   4.078  11.802  0.4670  0.6774  0.2683
  403MOL0     C55519  10.540   4.165  11.924 -0.2444 -0.0269  0.6294
  403MOL0     C55520  10.420   4.241  11.975  0.3016 -0.5723 -0.2112
  403MOL0    Cl55521  10.471   4.361  12.103 -0.5111  0.0875  0.2122
  403MOL0     C55522   9.907   3.708  11.359  0.1455 -0.4504  0.4718
  403MOL0     C55523   9.771   3.670  11.332 -0.5171  0.5276 -0.4057
  403MOL0     O55524   9.516   3.699  11.141  0.1984 -0.4099 -0.6154
  403MOL0     C55525   9.315   3.519  11.358  0.6507  0.2485  0.1229
  403MOL0     C55526   9.187   3.470  11.380  0.2556  0.5997  0.4439
  403MOL0     N55527   8.835   3.824  11.687  0.4353 -0.1889  0.8442
  403MOL0     N55528   8.750   3.922  11.693 -0.6199 -0.4308  0.0111
  403MOL0     C55529   7.756   3.402  11.325  1.0608 -0.5992 -0.6118
  403MOL0     C55530   7.640   3.326  11.344  0.7387  0.0715 -0.8363
  403MOL0     C55531   7.254   3.099  11.312 -0.9346  1.1187 -1.0025
  403MOL0     C55532   7.189   3.071  11.195 -0.4618 -0.5942 -0.5305
  403MOL0     C55533   7.058   3.009  11.186 -0.1951 -0.0430  0.2139
  403MOL0     C55534   6.995   2.977  11.309 -0.3870 -0.7066  1.2732
  403MOL0     O55535   6.879   2.913  11.311  0.2555 -0.4144 -0.6016
  403MOL0     C55536   6.828   2.847  11.193  0.5046 -0.1614 -0.0205
  403MOL0     C55537   6.753   2.732  11.237 -0.5665  0.3577 -0.8888
  403MOL0     C55538   6.633   2.777  11.327  0.6525 -0.0390 -0.7134
  403MOL0     C55539   6.668   2.779  11.476  0.6132 -0.0907  0.8719
  403MOL0     C55540   6.560   2.748  11.566  0.1225 -0.0210  0.2520
  403MOL0     C55541   6.458   2.722  11.627 -0.5202 -0.5023  0.7399
  403MOL0     C55542   7.053   3.002  11.429 -0.2450 -0.7147  0.7954
  403MOL0     C55543   7.181   3.061  11.434 -0.2127  0.1070  0.4685
  403MOL0     C55544   7.229   3.074  11.577 -0.5454 -0.2671 -0.7808
  403MOL0     H55545   7.479   3.416  11.060 -1.0716 -2.1720  1.7441
  403MOL0     H55546   7.688   3.558  11.034 -1.8529  1.3185  1.9570
  403MOL0     H55547   7.798   3.682  11.327 -0.1730 -0.0716  1.0335
  403MOL0     H55548   7.883   3.766  11.199  0.9650 -1.0321 -1.5680
  403MOL0     H55549   8.075   3.783  11.297  0.6490  0.6066  0.9862
  403MOL0     H55550   7.984   3.757  11.447 -4.0806 -1.2653 -1.4458
  403MOL0     H55551   8.062   3.521  11.449  1.5186 -0.7905 -0.3008
  403MOL0     H55552   8.136   3.531  11.293  3.8480  0.1929  0.8139
  403MOL0     H55553   8.307   3.539  11.451 -0.9600 -1.5161  1.3525
  403MOL0     H55554   8.295   3.696  11.358 -2.4295  2.5934  0.8545
  403MOL0     H55555   8.189   3.647  11.633 -0.4754 -2.7767 -2.0749
  403MOL0     H55556   8.203   3.803  11.539  2.6746  0.8432 -0.5304
  403MOL0     H55557   8.466   3.686  11.617  0.0976  0.9761  0.3739
  403MOL0     H55558   8.422   3.831  11.537  0.1191 -0.2347  0.3120
  403MOL0     H55559   8.386   3.765  11.835  3.2772 -0.0353 -0.5995
  403MOL0     H55560   8.286   3.889  11.762  0.6483  0.1681  1.1944
  403MOL0     H55561   8.490   4.010  11.692 -1.1734  2.0354  2.5393
  403MOL0     H55562   8.493   3.976  11.865  1.4284  0.3667 -0.3936
  403MOL0     H55563   8.607   3.670  11.855  1.0788  0.7142  1.6439
  403MOL0     H55564   8.842   3.541  11.889 -0.0103 -2.8024 -0.9107
  403MOL0     H55565   8.982   3.611  11.791 -0.4109  4.0922 -1.8957
  403MOL0     H55566   8.903   3.381  11.719  0.1392  1.6439  3.1862
  403MOL0     H55567   8.754   3.434  11.672  0.6519 -0.0491 -0.0623
  403MOL0     H55568   8.853   3.594  11.517  0.3072  0.1974 -0.0675
  403MOL0     H55569   9.011   3.562  11.566 -0.6416 -1.0274  1.2198
  403MOL0     H55570   8.997   3.326  11.436  1.0532  2.0605  2.7042
  403MOL0     H55571   8.832   3.350  11.416  0.2132  1.0796  0.1591
  403MOL0     H55572   9.007   3.668  11.188 -0.2247 -2.6183 -1.4503
  403MOL0     H55573   9.267   3.883  11.143 -0.9547 -0.0494  0.2507
  403MOL0     H55574   9.132   3.811  11.070  0.1058  1.8409  1.4451
  403MOL0     H55575   9.294   3.749  11.020 -1.8568 -2.4479 -0.4054
  403MOL0     H55576   9.615   3.915  11.506  0.3883  1.2833  0.7297
  403MOL0     H55577   9.850   4.002  11.528 -3.0801  1.3531  0.5634
  403MOL0     H55578  10.175   3.695  11.388  0.8745  0.9616 -1.8344
  403MOL0     H55579  10.269   3.827  11.433  0.9135 -1.3269  0.7911
  403MOL0     H55580  10.084   3.674  11.601 -0.0421 -0.1296  1.2355
  403MOL0     H55581  10.259   3.645  11.606 -1.3697 -2.5104 -1.2107
  403MOL0     H55582  10.212   3.789  11.805 -2.4547  4.6844  1.5827
  403MOL0     H55583  10.148   3.912  11.698  4.0506  3.9632 -0.6730
  403MOL0     H55584  10.360   3.959  11.592  1.6211 -1.5380 -0.4607
  403MOL0     H55585  10.436   3.826  11.686  0.7114  0.7683  2.6578
  403MOL0     H55586  10.291   4.073  11.810  0.2366 -0.8844  1.2302
  403MOL0     H55587  10.379   3.938  11.894  3.2347 -1.1048 -0.1849
  403MOL0     H55588  10.504   4.144  11.715  0.0250  0.7507  0.3306
  403MOL0     H55589  10.589   4.008  11.786 -1.7559 -2.1736  0.4144
  403MOL0     H55590  10.609   4.244  11.892  0.1354 -0.9399 -0.9199
  403MOL0     H55591  10.584   4.101  12.001 -3.4364  0.2900  2.9289
  403MOL0     H55592  10.357   4.163  12.020  2.5881 -1.2489  2.0913
  403MOL0     H55593  10.381   4.293  11.888 -0.3595  1.2440  1.1071
  403MOL0     H55594   9.981   3.645  11.311  0.3496 -1.3417  1.8780
  403MOL0     H55595   9.770   3.574  11.281 -0.9998  0.7870 -0.8976
  403MOL0     H55596   9.392   3.484  11.426 -0.1393  0.5278  1.1947
  403MOL0     H55597   9.181   3.381  11.443  0.1597  0.9888  0.9894
  403MOL0     H55598   7.832   3.393  11.402  1.4170 -1.6241 -1.0655
  403MOL0     H55599   7.640   3.265  11.434  0.7742  2.5310  0.9353
  403MOL0     H55600   7.243   3.092  11.103 -2.6958 -3.6318 -2.7641
  403MOL0     H55601   7.017   2.985  11.089 -1.7376  1.0254  0.5650
  403MOL0     H55602   6.767   2.919  11.139 -1.4623 -0.6430  1.4545
  403MOL0     H55603   6.914   2.804  11.141  0.0518 -2.9270  1.3502
  403MOL0     H55604   6.821   2.676  11.301 -0.3204  1.5196 -0.1013
  403MOL0     H55605   6.718   2.666  11.157 -1.8502 -1.8834  1.3898
  403MOL0     H55606   6.592   2.874  11.295  0.5460 -0.6588 -2.5690
  403MOL0     H55607   6.551   2.705  11.317  0.8770 -0.2810 -0.8285
  403MOL0     H55608   6.711   2.876  11.503 -0.8503  0.6290  0.6988
  403MOL0     H55609   6.755   2.714  11.492 -1.0771 -2.9622 -0.7692
  403MOL0     H55610   6.362   2.699  11.670 -0.4406  2.0616  2.5465
  403MOL0     H55611   7.003   2.968  11.519 -0.2316 -4.7450 -0.5411
  403MOL0     H55612   7.292   3.163  11.575 -2.2948  1.3111 -6.7631
  403MOL0     H55613   7.153   3.090  11.655  0.9879  2.8928  0.2478
  403MOL0     H55614   7.293   2.989  11.600  0.9042  1.2568  1.2124
  404MOL0     O55615   8.433   1.816   5.007 -0.0633  0.3292 -1.3403
  404MOL0     C55616   8.321   1.759   5.022 -0.1538  1.0617 -0.8474
  404MOL0     O55617   8.307   1.623   5.047 -0.0920  0.5071 -0.0767
  404MOL0     C55618   8.419   1.543   5.035 -0.4719 -0.0764 -0.1965
  404MOL0     C55619   8.447   1.439   5.137 -0.2328 -0.7298 -0.3211
  404MOL0     C55620   8.554   1.353   5.129 -0.4882 -0.6849 -1.6697
  404MOL0     C55621   8.634   1.353   5.015 -0.2917  0.7386 -0.1142
  404MOL0     O55622   8.746   1.268   5.005  0.1066 -0.1859 -0.2983
  404MOL0     C55623   8.768   1.163   5.104 -0.3034  0.0798 -0.5498
  404MOL0     C55624   8.889   1.075   5.069  0.1838 -0.6446 -0.8856
  404MOL0     C55625   9.018   1.155   5.073  0.2033  0.1534 -0.6605
  404MOL0     C55626   9.132   1.063   5.062 -0.6219 -0.7517  0.5928
  404MOL0     C55627   9.266   1.134   5.051  0.9022 -0.3464  0.3762
  404MOL0     C55628   9.384   1.028   5.062  0.2237  1.3780  0.0915
  404MOL0     C55629   9.518   1.090   5.044  0.4544 -0.1737  0.0506
  404MOL0     C55630   9.626   0.993   5.086  0.3163  0.3563  0.0732
  404MOL0     N55631   9.758   1.051   5.049  0.6672  0.2585  0.2422
  404MOL0     C55632   9.870   0.975   5.008  0.0855 -0.2424 -0.1672
  404MOL0     C55633   9.959   1.075   4.972 -0.1042 -0.3484 -0.4008
  404MOL0     C55634  10.093   1.032   4.908 -0.1639  0.7505 -0.2457
  404MOL0     C55635  10.077   0.983   4.766  0.0163  0.1363 -0.3347
  404MOL0     C55636  10.048   1.090   4.658 -0.2451  0.0227 -0.0828
  404MOL0     C55637  10.172   1.175   4.623  0.1050  0.8875 -0.2244
  404MOL0     O55638  10.267   1.092   4.568  0.6908 -0.1022 -0.3078
  404MOL0     C55639  10.395   1.113   4.607  0.6162 -0.3340 -1.1274
  404MOL0     C55640  10.451   1.241   4.621 -0.6943 -0.2373  0.0379
  404MOL0     C55641  10.585   1.268   4.663 -0.0266 -0.0639 -0.6247
  404MOL0     C55642  10.617   1.411   4.673  0.0297 -0.1235 -0.2786
  404MOL0     C55643  10.655   1.148   4.712  0.3529  0.0712  0.1212
  404MOL0     C55644  10.785   1.149   4.781 -0.1061 -0.2966  0.3728
  404MOL0     O55645  10.876   1.232   4.737  0.0488 -0.1480 -0.1129
  404MOL0     C55646  11.008   1.238   4.781 -1.0722  0.6294  0.4673
  404MOL0     C55647  11.081   1.128   4.832  0.0147  0.0200  0.0930
  404MOL0     C55648  11.217   1.141   4.860 -1.2404  0.4259  0.4767
  404MOL0     C55649  11.280   1.265   4.840 -0.2602  0.8675 -0.0412
  404MOL0     O55650  11.415   1.291   4.864  0.2357  0.2079  0.2874
  404MOL0     C55651  11.504   1.182   4.898  0.6452  0.0372  0.2567
  404MOL0     C55652  11.646   1.245   4.939 -0.4327  0.3701  0.7552
  404MOL0     C55653  11.729   1.148   5.029  0.5163  0.4323 -0.0154
  404MOL0     C55654  11.679   1.130   5.176 -0.2858 -0.8156  0.4736
  404MOL0     C55655  11.758   1.039   5.262 -0.1426  0.2268  0.3512
  404MOL0     C55656  11.739   1.073   5.415 -0.5309  0.3407  0.0566
  404MOL0     C55657  11.864   1.141   5.469 -0.2192  1.0791 -0.6727
  404MOL0     C55658  11.830   1.186   5.615  1.0003 -0.2118 -0.0322
  404MOL0    Cl55659  11.953   1.284   5.697  0.0394  0.1430  0.0963
  404MOL0     C55660  11.207   1.368   4.785 -0.1253 -1.0114  0.4194
  404MOL0     C55661  11.074   1.360   4.755 -0.0832  0.1607  0.9067
  404MOL0     O55662  10.785   1.083   4.884  0.2450 -0.1932  0.2539
  404MOL0     C55663  10.601   1.022   4.690 -0.2094  0.0553  0.4345
  404MOL0     C55664  10.473   1.010   4.647  0.1778 -0.4366 -0.6033
  404MOL0     N55665   9.904   1.199   4.983  0.0071  0.0345 -0.0341
  404MOL0     N55666   9.781   1.190   5.022  0.4929 -1.1051  0.0632
  404MOL0     C55667   8.612   1.449   4.918 -0.0470  0.4961 -0.0293
  404MOL0     C55668   8.511   1.543   4.926  0.4374  0.0583  0.5650
  404MOL0     C55669   8.209   1.856   5.021  1.3021 -0.4963  0.5208
  404MOL0     C55670   8.247   1.995   5.022  0.3698  0.3438 -0.1568
  404MOL0     C55671   8.153   2.100   5.014 -0.1344 -0.0302  0.0294
  404MOL0     C55672   8.011   2.063   5.006 -0.1669  0.1354 -0.0226
  404MOL0     O55673   7.910   2.147   4.987 -0.5245 -0.8830 -0.0218
  404MOL0     C55674   7.953   2.284   4.952  0.5636  0.4052  0.4983
  404MOL0     C55675   7.830   2.366   4.904  0.6583  0.9160 -0.8109
  404MOL0     C55676   7.730   2.389   5.012  0.3813 -1.4002 -0.7316
  404MOL0     C55677   7.618   2.288   5.013  0.6877  0.0589  0.7811
  404MOL0     C55678   7.515   2.336   5.108 -1.1117 -0.6479  1.2361
  404MOL0     C55679   7.438   2.383   5.182 -0.1970 -0.5456 -0.0157
  404MOL0     C55680   7.976   1.925   5.008 -0.2885  0.0783  0.7314
  404MOL0     C55681   8.076   1.821   5.016  0.6134 -0.2094  0.8653
  404MOL0     C55682   8.015   1.684   5.026  0.0755  1.3438  0.0706
  404MOL0     H55683   8.388   1.441   5.228 -1.5225  1.0716 -1.1360
  404MOL0     H55684   8.573   1.297   5.220 -0.1823  2.4208  0.3041
  404MOL0     H55685   8.679   1.101   5.118 -0.4912  0.6506  0.9778
  404MOL0     H55686   8.782   1.202   5.205 -0.3694  0.3199 -0.6315
  404MOL0     H55687   8.900   0.991   5.138 -0.3730 -0.2754 -0.3361
  404MOL0     H55688   8.871   1.026   4.973 -0.9499 -0.0182 -1.0150
  404MOL0     H55689   9.016   1.229   4.992 -0.4404  0.5612 -0.2841
  404MOL0     H55690   9.032   1.212   5.165 -2.6670  0.0440 -0.0639
  404MOL0     H55691   9.121   1.000   5.150 -3.3144 -1.0490  0.1336
  404MOL0     H55692   9.121   1.001   4.973 -2.1033  1.4024 -0.8166
  404MOL0     H55693   9.270   1.207   5.132 -1.2046 -0.5030  0.6937
  404MOL0     H55694   9.251   1.190   4.958 -1.5367 -2.6875 -0.7998
  404MOL0     H55695   9.384   0.980   5.160 -0.0644  0.7348 -0.2160
  404MOL0     H55696   9.360   0.954   4.984  0.5382  0.6086  0.7086
  404MOL0     H55697   9.526   1.177   5.110  0.4971  0.0376 -0.2311
  404MOL0     H55698   9.512   1.129   4.942 -3.0649  0.1416  0.2308
  404MOL0     H55699   9.620   0.972   5.193  1.6449  0.6270  0.2083
  404MOL0     H55700   9.602   0.899   5.035 -1.6353  1.3011 -0.8747
  404MOL0     H55701   9.869   0.867   5.009  1.2733 -0.2606 -0.3285
  404MOL0     H55702  10.136   0.948   4.963  0.6565  0.2960 -1.5276
  404MOL0     H55703  10.166   1.113   4.905  0.1473  0.6052  1.8737
  404MOL0     H55704  10.161   0.918   4.737 -0.2573 -0.2785 -0.2130
  404MOL0     H55705   9.987   0.921   4.759  0.3810 -0.2759 -1.6692
  404MOL0     H55706  10.002   1.037   4.574 -2.0191 -1.5084  1.7819
  404MOL0     H55707   9.964   1.150   4.695 -1.7152 -1.5896 -0.6768
  404MOL0     H55708  10.149   1.253   4.550  1.8673  0.8607 -0.8381
  404MOL0     H55709  10.212   1.216   4.717  1.5589 -0.6027 -0.1604
  404MOL0     H55710  10.393   1.327   4.588  0.7230  0.8672  0.3706
  404MOL0     H55711  10.569   1.447   4.765  0.1426 -4.3038  1.6519
  404MOL0     H55712  10.596   1.485   4.595 -1.3499  1.0834  1.1673
  404MOL0     H55713  10.724   1.425   4.687  0.0077 -0.4819  0.2918
  404MOL0     H55714  11.044   1.027   4.841  2.2077 -0.8960 -0.4205
  404MOL0     H55715  11.258   1.042   4.876 -0.3084  0.4256 -1.5993
  404MOL0     H55716  11.462   1.122   4.980  0.0757  0.8102  0.5432
  404MOL0     H55717  11.518   1.117   4.811  3.7900  0.1929  0.5384
  404MOL0     H55718  11.695   1.267   4.844 -1.1529  0.4859  0.3987
  404MOL0     H55719  11.615   1.339   4.984 -0.9928  0.4095  0.3080
  404MOL0     H55720  11.831   1.185   5.025  1.2050 -1.2947  0.4969
  404MOL0     H55721  11.729   1.055   4.971  0.8185  1.6784 -2.1494
  404MOL0     H55722  11.577   1.091   5.167 -1.8826  3.0881 -0.7020
  404MOL0     H55723  11.679   1.232   5.214  2.1854 -1.2671  1.9004
  404MOL0     H55724  11.717   0.939   5.245  1.2418  0.0457 -2.6782
  404MOL0     H55725  11.864   1.042   5.235  0.3119  1.1744  2.0973
  404MOL0     H55726  11.730   0.974   5.462  1.6076  0.2058  0.2543
  404MOL0     H55727  11.641   1.122   5.427 -1.3498 -1.5298  1.6793
  404MOL0     H55728  11.893   1.224   5.404  1.6850  0.0330 -1.2394
  404MOL0     H55729  11.949   1.071   5.472  1.4942  2.8944 -2.9811
  404MOL0     H55730  11.798   1.098   5.672 -0.3175 -0.3092 -0.8746
  404MOL0     H55731  11.731   1.232   5.612  0.0707 -2.1637 -0.4249
  404MOL0     H55732  11.264   1.456   4.757  0.0031 -1.6140 -1.3233
  404MOL0     H55733  11.023   1.433   4.693  0.1981 -0.1694  0.2762
  404MOL0     H55734  10.663   0.939   4.723  0.3551  1.2466  2.6081
  404MOL0     H55735  10.440   0.906   4.650 -5.2593  1.0402  2.1229
  404MOL0     H55736   8.688   1.450   4.840  0.1857 -2.8464 -0.0079
  404MOL0     H55737   8.500   1.616   4.846 -0.4399 -2.7399 -2.0958
  404MOL0     H55738   8.347   2.031   5.041  0.8460 -0.7262 -0.5982
  404MOL0     H55739   8.207   2.194   5.013  0.6306 -0.4300  1.1872
  404MOL0     H55740   7.997   2.329   5.041 -0.4970 -0.5355  1.5365
  404MOL0     H55741   8.027   2.284   4.872 -0.4986  2.1380 -0.5498
  404MOL0     H55742   7.780   2.331   4.812 -1.9247  3.2078 -0.3969
  404MOL0     H55743   7.865   2.467   4.884 -0.7598  2.2517  2.7648
  404MOL0     H55744   7.783   2.408   5.105  2.1145  0.0352 -1.9353
  404MOL0     H55745   7.686   2.483   4.977 -1.7709 -1.2435  2.0164
  404MOL0     H55746   7.653   2.190   5.048  0.9353 -0.0086  0.3491
  404MOL0     H55747   7.573   2.280   4.914  1.8731 -0.9082  0.2952
  404MOL0     H55748   7.391   2.450   5.251  2.2252  1.2183  0.0798
  404MOL0     H55749   7.872   1.892   5.008 -0.1880 -0.2650 -0.1385
  404MOL0     H55750   8.076   1.616   4.966 -0.2540 -1.1168  2.3088
  404MOL0     H55751   8.010   1.645   5.128 -4.5664  4.0319  1.1748
  404MOL0     H55752   7.910   1.683   4.993 -0.4172 -0.3416  1.5510
  405MOL0     O55753   2.642   3.563   1.690 -0.4614 -0.5690  0.0920
  405MOL0     C55754   2.720   3.540   1.788 -0.4914  0.3555 -1.0182
  405MOL0     O55755   2.839   3.606   1.815 -0.4015  0.5052 -0.1746
  405MOL0     C55756   2.841   3.736   1.760  0.3646 -0.4640  0.1012
  405MOL0     C55757   2.905   3.752   1.636  0.6650  0.0170 -1.0565
  405MOL0     C55758   2.894   3.864   1.554 -0.2384  1.0640 -0.8017
  405MOL0     C55759   2.845   3.978   1.611  1.0496 -0.4075  0.8038
  405MOL0     O55760   2.840   4.106   1.557 -0.0428 -0.0022 -0.6937
  405MOL0     C55761   2.964   4.140   1.485  0.2372 -1.0802 -0.3601
  405MOL0     C55762   2.956   4.293   1.459  0.7089 -0.4864  0.1165
  405MOL0     C55763   3.088   4.361   1.429  0.2359 -0.0551 -0.0311
  405MOL0     C55764   3.179   4.365   1.549 -0.1416 -0.8135  0.6822
  405MOL0     C55765   3.305   4.448   1.510 -0.6540  1.3682 -0.0041
  405MOL0     C55766   3.414   4.352   1.461  0.1421  0.2082  0.4070
  405MOL0     C55767   3.549   4.434   1.442  0.2602 -0.0291 -0.1560
  405MOL0     C55768   3.652   4.342   1.391 -0.0727 -0.2962  0.4064
  405MOL0     N55769   3.783   4.408   1.382  0.3850 -0.5772 -0.5731
  405MOL0     C55770   3.811   4.518   1.303 -0.1068  0.3323 -0.3158
  405MOL0     C55771   3.943   4.545   1.323 -0.2412  0.0762  0.0888
  405MOL0     C55772   4.011   4.661   1.260  0.2418 -0.6146  0.7524
  405MOL0     C55773   4.011   4.785   1.351  0.9032 -0.0118 -0.6752
  405MOL0     C55774   4.017   4.906   1.257  0.1247  0.3356  0.6603
  405MOL0     C55775   3.875   4.962   1.223  0.0884 -0.2761  0.7496
  405MOL0     O55776   3.802   4.864   1.144 -0.1721 -0.3914 -0.2533
  405MOL0     C55777   3.665   4.884   1.136  0.0135  0.3200 -0.0547
  405MOL0     C55778   3.588   4.772   1.096 -0.0883 -0.3503 -0.2248
  405MOL0     C55779   3.450   4.779   1.087  0.3236  0.0423 -0.0228
  405MOL0     C55780   3.380   4.648   1.052 -0.1526 -1.0033  0.6419
  405MOL0     C55781   3.387   4.901   1.115 -0.4021  0.0574  0.6172
  405MOL0     C55782   3.243   4.925   1.104 -1.0685 -0.5644  0.2515
  405MOL0     O55783   3.185   5.005   1.195  0.6269  0.2407  0.2026
  405MOL0     C55784   3.057   5.055   1.186  0.1309  0.2251 -0.3090
  405MOL0     C55785   2.963   5.011   1.286 -0.0532 -0.7434 -1.0193
  405MOL0     C55786   2.837   5.069   1.292 -0.0586 -0.5867  0.3872
  405MOL0     C55787   2.803   5.166   1.198 -0.2419 -0.0524 -0.1205
  405MOL0     O55788   2.678   5.209   1.216 -0.4615  0.5465  0.7631
  405MOL0     C55789   2.626   5.325   1.151  0.2131 -1.6006  1.3746
  405MOL0     C55790   2.482   5.346   1.174  0.1140 -0.2113  0.8544
  405MOL0     C55791   2.381   5.233   1.135 -0.5907  0.2282 -0.3004
  405MOL0     C55792   2.235   5.240   1.189  0.1079 -0.4369  0.2510
  405MOL0     C55793   2.150   5.359   1.124 -0.7617  0.5229 -1.0935
  405MOL0     C55794   2.120   5.362   0.975  0.1481 -0.1471  0.1830
  405MOL0     C55795   2.093   5.514   0.942  0.5713 -0.3053 -0.5424
  405MOL0     C55796   2.224   5.585   0.910 -0.2107  0.0549 -0.7591
  405MOL0    Cl55797   2.203   5.760   0.942 -0.2787 -0.0693  0.1724
  405MOL0     C55798   2.889   5.200   1.092 -0.6912 -0.0122 -0.2329
  405MOL0     C55799   3.015   5.144   1.085  0.1354  1.3228 -0.0006
  405MOL0     O55800   3.194   4.873   1.004  0.2149  0.1474 -0.5409
  405MOL0     C55801   3.465   5.013   1.163 -0.2592 -0.7652 -0.2537
  405MOL0     C55802   3.604   4.999   1.172  0.1287 -0.5874 -0.8897
  405MOL0     N55803   3.990   4.446   1.413 -0.2078 -0.6297  0.0247
  405MOL0     N55804   3.895   4.361   1.439 -0.0193 -0.1962 -0.2671
  405MOL0     C55805   2.792   3.970   1.737 -0.2582 -0.5971  0.5241
  405MOL0     C55806   2.784   3.849   1.813  1.3294 -0.4406 -0.4635
  405MOL0     C55807   2.700   3.421   1.878  0.2238 -0.1180 -0.0459
  405MOL0     C55808   2.798   3.388   1.977  0.2599 -0.1009 -0.8748
  405MOL0     C55809   2.771   3.288   2.066 -0.1763  0.1344  0.0922
  405MOL0     C55810   2.653   3.217   2.072 -0.9958 -0.2367  0.5355
  405MOL0     O55811   2.660   3.124   2.172 -0.1664 -0.5794  0.7982
  405MOL0     C55812   2.560   3.024   2.182 -0.3004  0.2643 -0.2690
  405MOL0     C55813   2.610   2.916   2.267 -0.0656  0.8762  0.0448
  405MOL0     C55814   2.637   2.935   2.422 -0.7970  0.0493  0.4853
  405MOL0     C55815   2.691   2.793   2.465  0.9842  0.0649 -0.1900
  405MOL0     C55816   2.747   2.800   2.595 -0.2129  0.1032  0.0367
  405MOL0     C55817   2.807   2.798   2.703 -0.3140 -0.4023  0.4865
  405MOL0     C55818   2.550   3.250   1.974 -0.5503  0.0623 -0.7150
  405MOL0     C55819   2.566   3.360   1.891 -1.0771  0.5737 -0.2804
  405MOL0     C55820   2.438   3.399   1.813 -1.0630  0.7067 -0.1913
  405MOL0     H55821   2.961   3.669   1.596  0.9004 -1.2754  1.7121
  405MOL0     H55822   2.935   3.860   1.453 -0.2026 -3.0787 -0.7563
  405MOL0     H55823   2.981   4.083   1.393  2.4970  0.3827 -0.9214
  405MOL0     H55824   3.049   4.120   1.551  0.4395  0.7689 -0.0035
  405MOL0     H55825   2.882   4.327   1.387  0.3452  0.3868  0.8853
  405MOL0     H55826   2.935   4.342   1.555 -1.2364 -1.8597  0.4342
  405MOL0     H55827   3.124   4.300   1.346 -1.7375 -0.6970 -0.4679
  405MOL0     H55828   3.069   4.461   1.388 -1.0941 -0.9746 -1.8087
  405MOL0     H55829   3.127   4.421   1.628  0.3516  1.5550 -0.5686
  405MOL0     H55830   3.206   4.266   1.587  1.5583 -1.3031 -1.5596
  405MOL0     H55831   3.352   4.485   1.602  3.0103  0.7721 -1.4473
  405MOL0     H55832   3.291   4.531   1.440  1.1074  0.8203 -1.0872
  405MOL0     H55833   3.438   4.271   1.531 -0.5864 -1.5592 -1.3228
  405MOL0     H55834   3.393   4.311   1.362  1.3394  0.6557 -0.0563
  405MOL0     H55835   3.591   4.477   1.533  4.0568  0.5632 -1.9883
  405MOL0     H55836   3.529   4.516   1.372 -4.5006  0.2367  1.1432
  405MOL0     H55837   3.663   4.252   1.452 -1.4802 -0.2127  0.8190
  405MOL0     H55838   3.622   4.310   1.291  0.3254  1.8006 -0.4365
  405MOL0     H55839   3.748   4.570   1.231  0.9256  2.8604  0.5077
  405MOL0     H55840   3.963   4.683   1.165 -2.5167 -3.9955  1.1813
  405MOL0     H55841   4.114   4.629   1.243  0.4155  0.6316 -0.7203
  405MOL0     H55842   3.920   4.780   1.412  1.8435 -1.1749  0.6945
  405MOL0     H55843   4.104   4.780   1.408  1.5737  3.7860 -1.1656
  405MOL0     H55844   4.066   4.984   1.316  1.4160 -0.9081  1.2911
  405MOL0     H55845   4.081   4.883   1.172 -2.1098 -2.2241 -0.4944
  405MOL0     H55846   3.837   4.965   1.325 -0.7358 -2.5481  0.5778
  405MOL0     H55847   3.889   5.058   1.172  0.9345 -0.7420  0.0875
  405MOL0     H55848   3.636   4.679   1.066 -2.7025 -1.3655 -1.6382
  405MOL0     H55849   3.376   4.635   0.943 -2.1501  2.8899  0.0641
  405MOL0     H55850   3.274   4.648   1.077 -0.4100  1.3718 -0.2163
  405MOL0     H55851   3.437   4.572   1.106  0.1105 -2.5729 -1.6839
  405MOL0     H55852   3.009   4.929   1.339  1.7986  2.0469  2.0536
  405MOL0     H55853   2.765   5.046   1.370  1.0539  0.6257  1.8355
  405MOL0     H55854   2.681   5.411   1.190 -0.4489 -0.9749  0.9495
  405MOL0     H55855   2.633   5.316   1.042  1.5513 -1.5004  1.4396
  405MOL0     H55856   2.467   5.374   1.279  2.9866  2.5214  0.6831
  405MOL0     H55857   2.476   5.438   1.115  3.4305 -0.6003 -0.3210
  405MOL0     H55858   2.414   5.137   1.175  0.5854 -0.2106 -2.1602
  405MOL0     H55859   2.372   5.220   1.027 -0.4505 -0.2279 -0.2601
  405MOL0     H55860   2.226   5.248   1.298  0.5781 -0.9714  0.3355
  405MOL0     H55861   2.183   5.151   1.156  0.0484  0.3406 -1.8864
  405MOL0     H55862   2.060   5.344   1.183  1.2121 -3.3369  1.3174
  405MOL0     H55863   2.195   5.453   1.158  0.5335 -0.8001  1.1039
  405MOL0     H55864   2.037   5.296   0.945 -2.1216  1.3976  2.6425
  405MOL0     H55865   2.205   5.328   0.914 -1.6320  0.5337 -2.9306
  405MOL0     H55866   2.027   5.562   1.014  0.3519  1.8491 -2.0753
  405MOL0     H55867   2.024   5.520   0.857  0.2548 -2.1927 -0.4619
  405MOL0     H55868   2.253   5.575   0.805  2.4499  0.5823 -0.1356
  405MOL0     H55869   2.299   5.550   0.981 -1.3070 -1.0007 -0.0835
  405MOL0     H55870   2.869   5.279   1.020 -0.9927 -0.2631 -0.4253
  405MOL0     H55871   3.084   5.170   1.006 -1.4285  0.7601 -1.6166
  405MOL0     H55872   3.416   5.107   1.186 -0.8695 -1.2058  0.2873
  405MOL0     H55873   3.657   5.086   1.208 -0.1727 -0.5148 -0.6120
  405MOL0     H55874   2.743   4.061   1.771 -1.3333 -1.0271  0.1735
  405MOL0     H55875   2.726   3.844   1.905  4.1909  0.9448  1.5824
  405MOL0     H55876   2.895   3.436   1.979 -0.6072  1.7220 -0.4516
  405MOL0     H55877   2.860   3.268   2.125  0.3760 -1.2731 -1.1395
  405MOL0     H55878   2.471   3.068   2.227 -0.7042 -1.0558  0.2792
  405MOL0     H55879   2.525   2.987   2.086  1.0197 -0.0779 -0.6384
  405MOL0     H55880   2.706   2.891   2.220 -0.7257 -4.7627  0.9683
  405MOL0     H55881   2.566   2.820   2.238  0.4557 -0.0091  2.0158
  405MOL0     H55882   2.706   3.014   2.450 -0.0170  0.2937 -1.8719
  405MOL0     H55883   2.538   2.955   2.464 -0.8767  0.1601  0.2485
  405MOL0     H55884   2.775   2.768   2.400  0.9154 -0.1726 -0.1887
  405MOL0     H55885   2.605   2.725   2.467  0.0490  1.2148  0.0815
  405MOL0     H55886   2.850   2.817   2.800 -0.6119  3.1462  0.0655
  405MOL0     H55887   2.463   3.185   1.979 -1.4624  1.3880  2.6432
  405MOL0     H55888   2.419   3.350   1.717 -2.2505  1.6973 -0.4836
  405MOL0     H55889   2.357   3.368   1.879  1.1814 -3.2469  1.0427
  405MOL0     H55890   2.426   3.507   1.799  0.6964  1.3615  2.5305
  406MOL0     O55891   5.074   9.087   2.480 -0.0002 -0.5559 -0.4445
  406MOL0     C55892   5.057   9.201   2.457 -0.3650 -0.8347  0.7406
  406MOL0     O55893   5.166   9.291   2.444 -0.6474 -0.0264  0.2126
  406MOL0     C55894   5.287   9.240   2.427  0.1245  0.3393 -0.2743
  406MOL0     C55895   5.323   9.199   2.299  0.2007 -0.3736 -0.3834
  406MOL0     C55896   5.444   9.140   2.267 -0.4561  0.3669 -0.1031
  406MOL0     C55897   5.537   9.115   2.369  1.3384 -0.6169  0.8110
  406MOL0     O55898   5.648   9.056   2.342 -0.7033 -0.2544 -0.2574
  406MOL0     C55899   5.647   8.915   2.350  0.0564 -0.4141  0.1119
  406MOL0     C55900   5.637   8.860   2.493  0.6085 -0.1844  0.4825
  406MOL0     C55901   5.766   8.875   2.582  0.3823  0.2423 -0.7659
  406MOL0     C55902   5.904   8.863   2.501 -0.2959  0.3372 -0.3812
  406MOL0     C55903   6.023   8.896   2.603  0.5347 -0.2880 -0.6175
  406MOL0     C55904   6.155   8.931   2.530 -0.5136  0.1102  0.0732
  406MOL0     C55905   6.266   8.942   2.634  0.2512 -0.3160  0.4132
  406MOL0     C55906   6.386   9.013   2.570  1.1195 -1.0908  0.1029
  406MOL0     N55907   6.464   8.935   2.473  0.5908  0.0289  0.0439
  406MOL0     C55908   6.598   8.905   2.480 -0.1075  0.0645  0.8795
  406MOL0     C55909   6.605   8.812   2.382  0.0719 -0.2238  0.0001
  406MOL0     C55910   6.738   8.745   2.342 -0.3058  0.9634 -0.2071
  406MOL0     C55911   6.854   8.842   2.323  0.7568  0.3526  0.5979
  406MOL0     C55912   6.986   8.765   2.338  0.1292 -0.2129 -0.0182
  406MOL0     C55913   7.113   8.840   2.303  0.3614 -0.0053  0.3164
  406MOL0     O55914   7.213   8.738   2.275  0.1453 -0.4110 -0.1164
  406MOL0     C55915   7.320   8.730   2.354 -0.8975  0.0952  0.0095
  406MOL0     C55916   7.443   8.778   2.315 -0.5477 -0.0961  0.2953
  406MOL0     C55917   7.563   8.770   2.394  0.1258  0.1894 -0.0225
  406MOL0     C55918   7.692   8.830   2.334  0.6926 -0.1053 -0.2556
  406MOL0     C55919   7.550   8.743   2.533  0.4335 -0.5050  0.5816
  406MOL0     C55920   7.644   8.767   2.636 -0.5145  0.5319 -0.6559
  406MOL0     O55921   7.774   8.756   2.605 -0.5763 -0.1590 -0.2400
  406MOL0     C55922   7.874   8.803   2.687  1.3483 -0.3837  0.3300
  406MOL0     C55923   8.002   8.774   2.653 -0.2734  0.3712 -0.0405
  406MOL0     C55924   8.109   8.794   2.742 -1.0329 -0.7502  0.1642
  406MOL0     C55925   8.094   8.876   2.856 -0.2571  0.3097  0.3239
  406MOL0     O55926   8.189   8.900   2.956  0.5236  0.0696 -0.1033
  406MOL0     C55927   8.315   8.849   2.937  0.0491  0.5441 -0.3857
  406MOL0     C55928   8.395   8.942   2.842  0.2506 -0.0809 -0.9747
  406MOL0     C55929   8.416   9.086   2.909  0.1742 -0.0533 -0.5489
  406MOL0     C55930   8.501   9.166   2.803  0.9256  0.8968  0.5552
  406MOL0     C55931   8.511   9.316   2.838  0.3294 -0.0293  0.1404
  406MOL0     C55932   8.600   9.392   2.742 -0.9835 -0.4327 -0.2961
  406MOL0     C55933   8.637   9.540   2.781  0.1875  0.0448 -1.0033
  406MOL0     C55934   8.508   9.627   2.806  0.2499 -0.0142  0.5851
  406MOL0    Cl55935   8.558   9.798   2.851  0.2377  0.9195  0.1197
  406MOL0     C55936   7.960   8.908   2.887 -0.8489  0.3313 -0.1106
  406MOL0     C55937   7.854   8.876   2.807 -0.0034 -0.2656  0.8001
  406MOL0     O55938   7.599   8.790   2.748  0.4882  0.2059  0.3049
  406MOL0     C55939   7.415   8.695   2.573  0.3607  0.2642 -0.2427
  406MOL0     C55940   7.305   8.688   2.485  0.0122  0.6826  0.3109
  406MOL0     N55941   6.487   8.804   2.314  1.0815 -0.1564 -0.2961
  406MOL0     N55942   6.410   8.894   2.357 -0.3182 -0.3182  0.5048
  406MOL0     C55943   5.508   9.155   2.502 -1.0337 -0.3398  0.0760
  406MOL0     C55944   5.380   9.217   2.533 -0.4140 -0.4988  0.2996
  406MOL0     C55945   4.926   9.256   2.477 -0.4130  0.5096 -0.4978
  406MOL0     C55946   4.919   9.395   2.505 -0.6315  0.0448  0.5205
  406MOL0     C55947   4.805   9.466   2.524 -0.0512 -1.0440  0.2064
  406MOL0     C55948   4.684   9.399   2.513 -0.0924  0.5926  0.1305
  406MOL0     O55949   4.562   9.459   2.537  0.5007 -0.1331  0.1106
  406MOL0     C55950   4.543   9.596   2.485  0.1695  0.1993  1.1445
  406MOL0     C55951   4.584   9.627   2.336 -0.8984  1.0186 -0.2746
  406MOL0     C55952   4.502   9.536   2.240  0.4382 -0.6823  0.0599
  406MOL0     C55953   4.585   9.518   2.118 -0.4725 -1.2922 -0.2489
  406MOL0     C55954   4.513   9.456   2.005 -0.3268  0.6022 -0.2361
  406MOL0     C55955   4.472   9.397   1.906  0.3530  0.9308 -0.8989
  406MOL0     C55956   4.683   9.262   2.484  0.2825 -0.4860 -0.7988
  406MOL0     C55957   4.800   9.191   2.466 -0.6167  0.1911 -0.6306
  406MOL0     C55958   4.798   9.043   2.441  0.7169  0.2639 -0.2195
  406MOL0     H55959   5.238   9.200   2.233  0.1195 -1.0567 -0.2990
  406MOL0     H55960   5.459   9.107   2.165 -0.8100 -2.4371  0.6697
  406MOL0     H55961   5.733   8.890   2.287 -0.1812  3.1891 -1.9217
  406MOL0     H55962   5.559   8.874   2.299  0.2487 -2.2217  1.1552
  406MOL0     H55963   5.544   8.885   2.544 -0.0664 -3.6027  1.1904
  406MOL0     H55964   5.617   8.753   2.492 -0.1357 -0.1470  3.1713
  406MOL0     H55965   5.768   8.973   2.631  2.0317 -0.9079  1.6740
  406MOL0     H55966   5.764   8.804   2.665 -0.1393  0.1261 -0.8737
  406MOL0     H55967   5.916   8.765   2.454  2.2633  0.8261 -0.8797
  406MOL0     H55968   5.905   8.939   2.422  2.3704  2.0707  1.1850
  406MOL0     H55969   6.023   8.805   2.663 -2.3609  0.3414  0.4727
  406MOL0     H55970   6.007   8.975   2.677  1.3029 -3.5236  3.3781
  406MOL0     H55971   6.167   8.873   2.438 -0.9435  0.9605 -0.5345
  406MOL0     H55972   6.140   9.033   2.493 -2.0452  0.4793  1.6171
  406MOL0     H55973   6.299   8.848   2.679 -0.4949  0.5631  2.9538
  406MOL0     H55974   6.231   8.996   2.722  0.6191 -0.0263  0.3863
  406MOL0     H55975   6.342   9.100   2.520  1.3769  0.1312  1.9027
  406MOL0     H55976   6.459   9.066   2.632  0.6681 -1.0500  0.6047
  406MOL0     H55977   6.673   8.934   2.552 -0.0781 -0.5885  1.1235
  406MOL0     H55978   6.725   8.688   2.250  1.6823 -1.8109  1.0492
  406MOL0     H55979   6.751   8.667   2.419 -1.2164 -0.5649 -1.5316
  406MOL0     H55980   6.848   8.891   2.225  2.4225 -1.3163 -0.3983
  406MOL0     H55981   6.849   8.923   2.396  3.9169  1.1070  0.0939
  406MOL0     H55982   7.002   8.734   2.442 -4.1013 -1.1541  0.5291
  406MOL0     H55983   6.976   8.677   2.274 -2.2193 -0.6675  0.8600
  406MOL0     H55984   7.077   8.895   2.215 -1.8658 -1.2685  0.3603
  406MOL0     H55985   7.139   8.912   2.381 -0.9036  1.6284 -0.7198
  406MOL0     H55986   7.429   8.817   2.215 -1.8211 -1.4614 -0.1027
  406MOL0     H55987   7.761   8.867   2.410 -0.4019 -0.4772  0.9431
  406MOL0     H55988   7.662   8.924   2.287 -2.8210  0.7982  3.2777
  406MOL0     H55989   7.744   8.761   2.267  2.2011  0.7091  0.0181
  406MOL0     H55990   8.023   8.730   2.556 -3.5681 -1.9041  0.1227
  406MOL0     H55991   8.208   8.758   2.718  0.5276  2.8755  0.5357
  406MOL0     H55992   8.360   8.839   3.036 -2.3961 -1.7765  0.5947
  406MOL0     H55993   8.320   8.745   2.901 -0.0167 -0.4956  2.3551
  406MOL0     H55994   8.481   8.878   2.824 -0.7744 -1.1818 -2.1400
  406MOL0     H55995   8.340   8.963   2.749  0.1832 -0.8092 -1.1042
  406MOL0     H55996   8.461   9.071   3.008  1.8274  1.8590 -0.9397
  406MOL0     H55997   8.318   9.131   2.926  0.7918  0.9435  0.5205
  406MOL0     H55998   8.445   9.160   2.710 -0.7786  0.5590  1.5485
  406MOL0     H55999   8.599   9.117   2.793  0.0086 -0.8841 -0.0562
  406MOL0     H56000   8.410   9.355   2.825  0.6562  1.0791  0.7694
  406MOL0     H56001   8.545   9.333   2.941  3.4576 -1.2138 -0.5843
  406MOL0     H56002   8.559   9.378   2.641  0.7706 -0.9398 -0.9737
  406MOL0     H56003   8.698   9.346   2.731  0.8322  3.2836 -1.6220
  406MOL0     H56004   8.705   9.584   2.708 -0.7669  0.7880 -1.4621
  406MOL0     H56005   8.694   9.543   2.874  0.8141  3.2748 -1.3651
  406MOL0     H56006   8.448   9.579   2.884  0.5375 -0.7231  0.3737
  406MOL0     H56007   8.460   9.619   2.708 -1.0016  2.7510  0.8672
  406MOL0     H56008   7.941   8.962   2.979 -1.8155 -2.0730  1.1879
  406MOL0     H56009   7.754   8.902   2.839 -0.1070  2.5162 -1.4626
  406MOL0     H56010   7.411   8.672   2.679 -0.9669  0.8254 -0.1573
  406MOL0     H56011   7.215   8.640   2.521 -0.6157  2.1100  0.7220
  406MOL0     H56012   5.592   9.150   2.570 -0.7159  3.3479  0.1817
  406MOL0     H56013   5.356   9.247   2.634  1.8836 -0.6282  0.9560
  406MOL0     H56014   5.004   9.462   2.515 -2.4435  2.3164  1.6663
  406MOL0     H56015   4.792   9.569   2.555  0.5769 -1.1530  0.8545
  406MOL0     H56016   4.436   9.605   2.503  0.6150  2.1947  3.3315
  406MOL0     H56017   4.602   9.666   2.545  0.2400  1.6284 -0.5277
  406MOL0     H56018   4.691   9.607   2.325 -1.1121  0.1722 -0.9690
  406MOL0     H56019   4.564   9.731   2.311 -2.8927  0.3916 -1.5628
  406MOL0     H56020   4.471   9.438   2.278 -1.9182 -1.1243 -2.6385
  406MOL0     H56021   4.409   9.589   2.216 -0.6863 -4.3371 -5.4192
  406MOL0     H56022   4.678   9.468   2.148  0.6830  2.5214  3.4704
  406MOL0     H56023   4.627   9.614   2.086 -0.1337 -1.1307  0.6505
  406MOL0     H56024   4.437   9.343   1.821  2.3620  1.5335 -2.1845
  406MOL0     H56025   4.589   9.209   2.473  1.6864 -3.4745  0.4308
  406MOL0     H56026   4.702   8.993   2.429 -0.4112  2.4719 -0.9892
  406MOL0     H56027   4.851   9.017   2.349  1.2176 -3.0549  0.8787
  406MOL0     H56028   4.839   8.991   2.528 -0.3707  1.6851  1.1975
  407MOL0     O56029   4.436   8.834   1.461  1.0572 -0.3739  0.0589
  407MOL0     C56030   4.345   8.748   1.465  0.2844  0.0176 -0.2207
  407MOL0     O56031   4.326   8.668   1.578 -0.3612 -0.1986 -0.9108
  407MOL0     C56032   4.443   8.623   1.632 -0.6596 -0.4490 -0.4777
  407MOL0     C56033   4.470   8.689   1.750 -0.0439 -0.4808 -0.5442
  407MOL0     C56034   4.601   8.690   1.809 -0.1528  0.5915 -0.4598
  407MOL0     C56035   4.703   8.616   1.746  0.6182  1.0377 -0.2287
  407MOL0     O56036   4.824   8.605   1.808  0.2302 -0.7386  0.0183
  407MOL0     C56037   4.934   8.659   1.723  0.0099  1.2939 -0.6248
  407MOL0     C56038   5.075   8.622   1.776  0.2454  1.2945  0.4875
  407MOL0     C56039   5.092   8.469   1.767  0.3818 -0.7677  0.0857
  407MOL0     C56040   5.230   8.420   1.820  0.2277  0.3749  0.4765
  407MOL0     C56041   5.229   8.266   1.819 -0.2914  0.0771  0.5542
  407MOL0     C56042   5.358   8.198   1.855  0.4410 -1.5382 -0.9132
  407MOL0     C56043   5.383   8.186   2.011  0.7814  0.0538  0.0493
  407MOL0     C56044   5.523   8.127   2.042 -1.3357 -0.0186 -0.1780
  407MOL0     N56045   5.612   8.237   2.092  0.1158  0.9248 -0.2852
  407MOL0     C56046   5.729   8.271   2.042 -0.0470  0.4597 -0.2652
  407MOL0     C56047   5.770   8.377   2.114 -0.7056 -0.3222  0.2717
  407MOL0     C56048   5.895   8.456   2.085 -0.8968  0.5807  0.2405
  407MOL0     C56049   5.982   8.421   2.215 -0.7109  0.1129  0.6283
  407MOL0     C56050   6.063   8.298   2.186 -0.3488  0.8696 -0.1803
  407MOL0     C56051   6.121   8.225   2.308 -0.5789 -0.1663  0.2086
  407MOL0     O56052   6.186   8.106   2.262 -0.5269  0.6897 -0.3573
  407MOL0     C56053   6.318   8.120   2.243 -0.8694 -0.6974 -0.2798
  407MOL0     C56054   6.387   8.003   2.214 -0.2705  0.0642 -0.3002
  407MOL0     C56055   6.528   7.999   2.191  0.2460 -0.5321 -0.8307
  407MOL0     C56056   6.601   7.863   2.170  0.4633  0.0492 -0.4901
  407MOL0     C56057   6.597   8.125   2.184  0.7988  0.4341 -0.2935
  407MOL0     C56058   6.740   8.137   2.156 -0.3577  0.3093 -0.8310
  407MOL0     O56059   6.787   8.238   2.082 -0.8189 -0.2159 -0.1026
  407MOL0     C56060   6.922   8.256   2.097 -0.5585 -0.6330  0.0230
  407MOL0     C56061   7.015   8.170   2.034  0.6849 -0.1766 -0.1781
  407MOL0     C56062   7.152   8.200   2.026 -0.3988 -0.7675  0.2070
  407MOL0     C56063   7.203   8.308   2.090 -0.0082 -0.5097  0.7782
  407MOL0     O56064   7.341   8.339   2.094  0.1824 -0.6288  0.4285
  407MOL0     C56065   7.388   8.474   2.113  0.1647  0.2545  0.9127
  407MOL0     C56066   7.508   8.514   2.027 -0.1539 -0.5510  0.3457
  407MOL0     C56067   7.632   8.430   2.059 -0.1113  0.3592 -0.5047
  407MOL0     C56068   7.701   8.466   2.188  0.5093 -0.3249 -0.4636
  407MOL0     C56069   7.796   8.354   2.236  0.4944 -0.7180  0.4463
  407MOL0     C56070   7.855   8.380   2.381  0.3763  0.8459  1.2336
  407MOL0     C56071   7.975   8.474   2.374  0.2505  0.2666  0.7985
  407MOL0     C56072   8.107   8.398   2.318  0.3652 -0.3306  0.3269
  407MOL0    Cl56073   8.259   8.470   2.389  0.0050  0.3416 -0.1189
  407MOL0     C56074   7.118   8.388   2.161 -0.4765 -0.5920 -0.2144
  407MOL0     C56075   6.981   8.371   2.159  0.5709  0.3213 -1.0462
  407MOL0     O56076   6.813   8.049   2.214 -0.2260  0.4653  0.0934
  407MOL0     C56077   6.524   8.240   2.217  0.0681 -0.4820  0.3518
  407MOL0     C56078   6.392   8.239   2.243  0.4361 -0.1367 -0.4244
  407MOL0     N56079   5.689   8.384   2.221  0.1706 -0.1634 -0.6417
  407MOL0     N56080   5.597   8.298   2.211  0.5165  0.1048  0.3536
  407MOL0     C56081   4.674   8.537   1.636  0.3651 -0.5233  0.1534
  407MOL0     C56082   4.543   8.541   1.577 -0.1158 -0.6164  1.1165
  407MOL0     C56083   4.254   8.742   1.352  0.6172 -0.7990 -0.5700
  407MOL0     C56084   4.115   8.788   1.374 -0.3175 -0.2108  0.9677
  407MOL0     C56085   4.022   8.787   1.273  0.6046  0.0774  0.0533
  407MOL0     C56086   4.057   8.724   1.156  0.2884 -0.2701 -0.2780
  407MOL0     O56087   3.943   8.699   1.072  0.0688 -0.2401  0.9592
  407MOL0     C56088   3.963   8.654   0.938 -0.7522  0.7468  0.0702
  407MOL0     C56089   3.824   8.633   0.885  0.7700 -0.2736  0.4427
  407MOL0     C56090   3.745   8.764   0.880 -0.0530 -0.0078 -0.5838
  407MOL0     C56091   3.619   8.749   0.796  0.0068 -0.9256  0.4260
  407MOL0     C56092   3.563   8.885   0.768 -0.1377 -0.3594  0.8024
  407MOL0     C56093   3.533   9.001   0.760  0.2715  0.5443 -0.9506
  407MOL0     C56094   4.191   8.687   1.133  0.4596 -0.0577  0.2457
  407MOL0     C56095   4.287   8.685   1.225  0.2629  0.0749 -0.5967
  407MOL0     C56096   4.425   8.648   1.193 -0.0829  0.8016 -0.6196
  407MOL0     H56097   4.391   8.748   1.794  1.3808  4.6512 -4.0207
  407MOL0     H56098   4.619   8.755   1.894  0.4841  0.0223 -0.1595
  407MOL0     H56099   4.914   8.766   1.738 -1.3131  0.9160  0.5243
  407MOL0     H56100   4.920   8.627   1.619  1.4017  1.0927 -0.7726
  407MOL0     H56101   5.157   8.667   1.719 -0.7124 -0.2063 -2.1941
  407MOL0     H56102   5.072   8.656   1.880 -1.3997  1.8966  0.2783
  407MOL0     H56103   5.011   8.423   1.825 -1.8917  1.6359 -0.9427
  407MOL0     H56104   5.071   8.444   1.663  1.5350  0.3253 -0.4328
  407MOL0     H56105   5.300   8.456   1.744  1.8502 -0.2039  1.6241
  407MOL0     H56106   5.267   8.470   1.910  0.3645  1.0350  0.0538
  407MOL0     H56107   5.215   8.227   1.718 -1.5215  1.0207  0.3369
  407MOL0     H56108   5.138   8.229   1.868 -1.2788 -0.8210 -1.8295
  407MOL0     H56109   5.349   8.102   1.804 -2.8649 -1.0336 -1.4761
  407MOL0     H56110   5.435   8.265   1.816  1.1337  0.4555  3.2978
  407MOL0     H56111   5.303   8.117   2.041  0.4556  0.5504  0.3364
  407MOL0     H56112   5.380   8.282   2.062  2.4204  1.9099 -3.0444
  407MOL0     H56113   5.503   8.069   2.132  2.7263 -0.7167  0.4622
  407MOL0     H56114   5.567   8.057   1.970 -0.5169  0.0118  0.2812
  407MOL0     H56115   5.768   8.226   1.952 -0.7315 -2.0900  0.6074
  407MOL0     H56116   5.871   8.563   2.086  1.0069  1.0645 -1.0065
  407MOL0     H56117   5.939   8.429   1.989 -1.8452  1.2885 -0.4149
  407MOL0     H56118   6.059   8.492   2.246  1.0917 -1.9301  1.0745
  407MOL0     H56119   5.917   8.429   2.303  2.1971 -0.3550  2.9837
  407MOL0     H56120   5.994   8.224   2.145  0.6401 -0.7169  0.8901
  407MOL0     H56121   6.138   8.325   2.112 -2.1449  0.4169 -2.2675
  407MOL0     H56122   6.179   8.280   2.382 -1.1607  2.4263 -1.1436
  407MOL0     H56123   6.036   8.187   2.367  0.5360  0.3101  2.2056
  407MOL0     H56124   6.333   7.909   2.221  0.8307 -0.5099  0.9369
  407MOL0     H56125   6.688   7.856   2.236  1.6039  2.6098 -1.5536
  407MOL0     H56126   6.641   7.855   2.068  2.8595  5.1242 -0.2935
  407MOL0     H56127   6.534   7.781   2.193  0.9745  0.2327  1.8662
  407MOL0     H56128   6.979   8.077   1.992 -2.2012  0.2285  1.1071
  407MOL0     H56129   7.225   8.147   1.965 -0.3339  2.2953 -2.6513
  407MOL0     H56130   7.303   8.536   2.083  0.1277 -0.4488 -0.5139
  407MOL0     H56131   7.418   8.490   2.217 -0.3377 -3.1008  1.6624
  407MOL0     H56132   7.472   8.506   1.924 -3.7922 -0.0331  1.4415
  407MOL0     H56133   7.532   8.620   2.041 -0.9550 -0.6824  3.5008
  407MOL0     H56134   7.710   8.419   1.983  1.4618 -0.4867  1.1360
  407MOL0     H56135   7.603   8.326   2.077 -1.0291  0.9653  2.0663
  407MOL0     H56136   7.628   8.485   2.267  0.3844  1.5861 -1.0051
  407MOL0     H56137   7.770   8.551   2.184  1.7495 -1.3159 -1.0261
  407MOL0     H56138   7.725   8.270   2.236 -0.3964 -0.0259 -1.4277
  407MOL0     H56139   7.875   8.333   2.164  0.0774 -1.3906  0.1718
  407MOL0     H56140   7.894   8.289   2.429 -1.3826  0.4056  1.9161
  407MOL0     H56141   7.778   8.430   2.440 -0.1461  2.0337 -0.4063
  407MOL0     H56142   8.003   8.501   2.476 -0.4836 -0.0674  1.0985
  407MOL0     H56143   7.954   8.564   2.314 -1.6909  1.8790  3.6578
  407MOL0     H56144   8.114   8.400   2.209  2.3626 -1.1932  0.4087
  407MOL0     H56145   8.101   8.299   2.364  1.9372  0.2999  2.0111
  407MOL0     H56146   7.147   8.469   2.226  1.4477 -1.6110  0.2734
  407MOL0     H56147   6.918   8.440   2.214  0.3064 -0.6035 -0.1489
  407MOL0     H56148   6.581   8.332   2.228 -1.2992  0.7427 -1.9519
  407MOL0     H56149   6.355   8.340   2.260  0.5759 -0.0153 -0.8166
  407MOL0     H56150   4.756   8.479   1.596  1.5907  1.2632 -0.0617
  407MOL0     H56151   4.532   8.487   1.483  2.0504  0.1347  0.3646
  407MOL0     H56152   4.096   8.826   1.474  2.1850 -0.2213  1.5255
  407MOL0     H56153   3.920   8.821   1.287  0.3527  1.0973 -3.3391
  407MOL0     H56154   4.008   8.731   0.875 -1.0473  2.2587  1.6241
  407MOL0     H56155   4.024   8.563   0.941  0.5467  1.5395 -1.4250
  407MOL0     H56156   3.763   8.561   0.940 -3.9944  3.4806  0.7550
  407MOL0     H56157   3.815   8.589   0.785 -2.8291  2.9201 -0.9016
  407MOL0     H56158   3.719   8.802   0.980 -1.4080 -1.2694 -0.4340
  407MOL0     H56159   3.814   8.835   0.832 -0.1385 -0.2522 -1.0719
  407MOL0     H56160   3.541   8.690   0.845 -2.2577 -0.0419 -1.8830
  407MOL0     H56161   3.633   8.709   0.695  0.1129  1.3381 -0.5165
  407MOL0     H56162   3.493   9.101   0.758 -2.5333 -0.4943 -1.0310
  407MOL0     H56163   4.212   8.647   1.034 -0.4753 -1.0081  0.4091
  407MOL0     H56164   4.443   8.562   1.129  1.4520  1.3581 -0.9941
  407MOL0     H56165   4.480   8.736   1.157 -2.4474  3.6857  2.1863
  407MOL0     H56166   4.480   8.610   1.280  2.6129  1.6800 -1.8338
  408MOL0     O56167   8.114   8.115   5.905 -0.1750  0.6041  0.1130
  408MOL0     C56168   8.032   8.051   5.843  0.4136 -0.2955 -0.0084
  408MOL0     O56169   8.055   7.977   5.727 -0.2412 -0.1929 -1.3009
  408MOL0     C56170   8.187   7.982   5.680 -0.6140  0.6610  0.1550
  408MOL0     C56171   8.291   7.906   5.730  0.0459 -0.2873 -0.2008
  408MOL0     C56172   8.416   7.921   5.668 -0.3454 -0.2139  0.0177
  408MOL0     C56173   8.437   8.014   5.567  0.0924  0.1106 -0.1612
  408MOL0     O56174   8.549   8.037   5.496  0.3288  0.8310  0.2557
  408MOL0     C56175   8.634   7.925   5.466 -0.3088  0.0189 -0.3497
  408MOL0     C56176   8.722   7.946   5.347  0.6948 -1.1307  0.2301
  408MOL0     C56177   8.850   8.032   5.362  0.4541  0.8908 -0.0340
  408MOL0     C56178   8.818   8.178   5.366 -0.1537 -0.4197  0.0201
  408MOL0     C56179   8.944   8.249   5.331  0.7112 -0.2073 -0.1964
  408MOL0     C56180   8.937   8.396   5.379  0.6302 -0.3001 -0.4463
  408MOL0     C56181   9.051   8.483   5.330 -0.1214  0.7036  0.4023
  408MOL0     C56182   9.000   8.549   5.201 -0.3393  0.3463  0.5035
  408MOL0     N56183   9.105   8.619   5.121  0.1586  0.2142  0.0298
  408MOL0     C56184   9.241   8.586   5.105  0.3411 -0.2302  0.5928
  408MOL0     C56185   9.301   8.668   5.018  0.1731 -0.3690  0.4922
  408MOL0     C56186   9.438   8.660   4.951 -0.2413  0.6894  0.4316
  408MOL0     C56187   9.471   8.789   4.871  0.4424 -0.3427  0.0900
  408MOL0     C56188   9.580   8.777   4.761  0.4229 -0.1588 -0.1303
  408MOL0     C56189   9.569   8.895   4.671  0.7878 -0.5917 -0.4149
  408MOL0     O56190   9.689   8.902   4.594 -0.3365 -0.5675  0.1339
  408MOL0     C56191   9.712   9.003   4.507 -0.9310  1.1302 -0.1634
  408MOL0     C56192   9.633   9.113   4.488 -0.0244  0.3547 -0.8396
  408MOL0     C56193   9.670   9.193   4.384 -0.1787  0.1073  0.4340
  408MOL0     C56194   9.569   9.306   4.354 -0.6209 -0.1366 -0.2933
  408MOL0     C56195   9.788   9.175   4.305  0.2359 -0.3545 -0.9755
  408MOL0     C56196   9.818   9.250   4.191 -0.2593 -0.7030  0.4144
  408MOL0     O56197   9.744   9.364   4.161  0.0007 -0.1542  0.1987
  408MOL0     C56198   9.801   9.448   4.069 -0.3523 -0.4807 -0.0300
  408MOL0     C56199   9.757   9.431   3.945  0.1339  0.4551 -0.6835
  408MOL0     C56200   9.813   9.509   3.843  0.3823 -0.0727 -0.2635
  408MOL0     C56201   9.916   9.610   3.873  0.5405  0.2779 -0.0364
  408MOL0     O56202   9.975   9.696   3.785 -0.2090  0.3928  0.4271
  408MOL0     C56203   9.919   9.728   3.657  0.0621  0.1365 -0.7984
  408MOL0     C56204   9.996   9.838   3.606 -0.1435  0.0963  1.0283
  408MOL0     C56205   9.961   9.866   3.460 -0.1507  0.4256  0.5708
  408MOL0     C56206   9.837   9.957   3.453 -0.0213 -0.2127 -0.2396
  408MOL0     C56207   9.789   9.978   3.310 -0.8127 -0.7122  0.1093
  408MOL0     C56208   9.648   9.916   3.280  0.1270  0.8054  0.3827
  408MOL0     C56209   9.634   9.891   3.131  1.0884  0.1026 -0.5269
  408MOL0     C56210   9.525   9.800   3.080 -0.4982 -0.6848 -0.3894
  408MOL0    Cl56211   9.549   9.633   3.147 -0.1495 -0.0370 -0.0076
  408MOL0     C56212   9.950   9.624   4.007 -0.5146  0.0133  0.3695
  408MOL0     C56213   9.895   9.545   4.105 -0.3432 -0.2532  0.2287
  408MOL0     O56214   9.898   9.204   4.110 -0.2960 -0.2060 -0.3134
  408MOL0     C56215   9.870   9.066   4.342  0.2836 -0.0664  0.1473
  408MOL0     C56216   9.832   8.985   4.437  0.0206  1.2801  0.5015
  408MOL0     N56217   9.213   8.773   4.994 -0.1844 -0.0768  0.0857
  408MOL0     N56218   9.097   8.741   5.056 -0.1162 -0.5445 -0.0286
  408MOL0     C56219   8.331   8.088   5.527 -0.1459 -0.4263  0.3663
  408MOL0     C56220   8.206   8.075   5.584 -0.1097 -1.9520  0.5430
  408MOL0     C56221   7.888   8.064   5.902 -1.0233 -0.7137 -0.0157
  408MOL0     C56222   7.851   8.190   5.950 -0.6334  0.7237 -0.8337
  408MOL0     C56223   7.716   8.214   5.981  0.6769  0.1994 -0.8175
  408MOL0     C56224   7.613   8.119   5.972 -0.9114  0.6260  0.9020
  408MOL0     O56225   7.475   8.133   5.988 -0.2342 -0.2442  0.1520
  408MOL0     C56226   7.437   8.249   6.069  0.2373 -0.1410  0.1224
  408MOL0     C56227   7.306   8.220   6.148 -0.4912 -0.4696  0.4964
  408MOL0     C56228   7.179   8.195   6.058  0.0795  0.1618  0.3656
  408MOL0     C56229   7.054   8.170   6.144  0.1333  0.2798 -1.5909
  408MOL0     C56230   6.951   8.106   6.050 -0.0500  0.4982 -0.4105
  408MOL0     C56231   6.860   8.049   5.991  0.0107  0.3943  0.0873
  408MOL0     C56232   7.662   7.989   5.947 -0.7910 -0.4585 -0.1886
  408MOL0     C56233   7.796   7.958   5.909 -0.1395 -0.7364 -0.6858
  408MOL0     C56234   7.830   7.816   5.868 -0.2767 -0.3052  0.4518
  408MOL0     H56235   8.263   7.831   5.803 -0.9995 -1.9962 -2.2230
  408MOL0     H56236   8.504   7.859   5.680  0.8667  1.4201 -0.0552
  408MOL0     H56237   8.575   7.834   5.449 -1.1693 -0.4808  4.0663
  408MOL0     H56238   8.704   7.917   5.550 -2.1729 -1.6693  1.1354
  408MOL0     H56239   8.761   7.849   5.316 -0.6394 -1.7539  0.4380
  408MOL0     H56240   8.662   7.989   5.265  1.1087  0.4497  0.7188
  408MOL0     H56241   8.910   7.992   5.444 -0.3672 -0.7113 -0.1612
  408MOL0     H56242   8.916   8.001   5.280  1.2128  1.2129  0.4358
  408MOL0     H56243   8.736   8.210   5.302  0.2332 -2.9714 -1.9318
  408MOL0     H56244   8.793   8.209   5.468  1.5833  2.0532 -0.2065
  408MOL0     H56245   8.956   8.243   5.223  1.4085 -0.4434 -0.1122
  408MOL0     H56246   9.034   8.202   5.371  0.5769 -2.8590 -2.6828
  408MOL0     H56247   8.840   8.439   5.353  0.2587  0.0723  1.3768
  408MOL0     H56248   8.943   8.399   5.489  3.2047 -0.5200 -0.5334
  408MOL0     H56249   9.145   8.427   5.332 -0.9451 -0.7393  0.3165
  408MOL0     H56250   9.067   8.565   5.400 -0.4906  0.6320  0.5705
  408MOL0     H56251   8.944   8.479   5.139  1.5822 -0.1588 -0.7032
  408MOL0     H56252   8.926   8.624   5.233 -0.5283  0.5875 -0.4841
  408MOL0     H56253   9.283   8.496   5.148 -1.8293 -0.7241  1.8433
  408MOL0     H56254   9.446   8.566   4.895  0.1863  0.2280  1.2540
  408MOL0     H56255   9.517   8.649   5.026 -0.6437  0.8187  0.8770
  408MOL0     H56256   9.382   8.821   4.815  0.1179 -0.3725  0.5782
  408MOL0     H56257   9.498   8.861   4.948 -0.4448 -1.2243  1.2811
  408MOL0     H56258   9.684   8.774   4.796  0.8822  1.8935 -1.2144
  408MOL0     H56259   9.553   8.686   4.707  1.0960  0.0749 -0.8820
  408MOL0     H56260   9.476   8.893   4.613 -0.1010  1.1464  0.8473
  408MOL0     H56261   9.573   8.978   4.742  2.4734 -1.1073  0.1349
  408MOL0     H56262   9.547   9.135   4.551  1.2137 -0.4696  1.2526
  408MOL0     H56263   9.530   9.284   4.255  0.9089 -0.6148 -0.8104
  408MOL0     H56264   9.621   9.402   4.349 -0.4394 -0.0497  2.0744
  408MOL0     H56265   9.491   9.328   4.428  0.3732 -0.8447  1.0007
  408MOL0     H56266   9.684   9.356   3.917  0.5481  1.2278 -4.2509
  408MOL0     H56267   9.771   9.495   3.744 -2.5731 -0.7798  0.9755
  408MOL0     H56268   9.931   9.643   3.589  1.4953  0.6433 -1.2137
  408MOL0     H56269   9.815   9.748   3.682  0.2227 -1.5744  1.6370
  408MOL0     H56270   9.984   9.929   3.666 -1.9084  1.0446 -0.6660
  408MOL0     H56271  10.100   9.804   3.602  0.3620  1.7275 -1.6852
  408MOL0     H56272   9.947   9.775   3.401  3.3892  2.4830 -4.0938
  408MOL0     H56273  10.048   9.918   3.419  0.9229 -0.6270  1.4318
  408MOL0     H56274   9.861  10.046   3.512  0.4118 -1.0928  0.9596
  408MOL0     H56275   9.751   9.910   3.501 -0.8806  2.0025  0.5453
  408MOL0     H56276   9.792  10.086   3.295 -0.9102 -0.4538  1.7375
  408MOL0     H56277   9.867   9.934   3.247  2.5299  2.6440  1.5389
  408MOL0     H56278   9.567   9.976   3.322 -0.4429  1.2461 -1.2679
  408MOL0     H56279   9.637   9.822   3.334  0.8398  0.4221 -0.1185
  408MOL0     H56280   9.727   9.843   3.096  1.9683  0.3990  1.3012
  408MOL0     H56281   9.616   9.984   3.077  0.7365  0.0083 -0.5714
  408MOL0     H56282   9.523   9.794   2.971 -0.6229  0.2561 -0.4498
  408MOL0     H56283   9.423   9.832   3.107  0.6739  1.5582  1.7562
  408MOL0     H56284  10.027   9.699   4.019 -2.4174  2.0267  0.5756
  408MOL0     H56285   9.928   9.551   4.208  1.4135  0.9921 -0.3584
  408MOL0     H56286   9.959   9.035   4.289  0.5994  1.2101 -0.1077
  408MOL0     H56287   9.904   8.904   4.436 -1.0563  0.2996  0.5220
  408MOL0     H56288   8.333   8.157   5.443  0.5332 -1.8661 -0.8500
  408MOL0     H56289   8.129   8.137   5.539 -0.6759 -1.8072  1.6772
  408MOL0     H56290   7.921   8.272   5.945 -0.4236  0.5669 -0.5366
  408MOL0     H56291   7.689   8.310   6.024  2.1920  0.4205 -0.2844
  408MOL0     H56292   7.504   8.270   6.153  2.8219 -0.2099 -1.7636
  408MOL0     H56293   7.427   8.343   6.015  2.3729  2.4392  3.7535
  408MOL0     H56294   7.295   8.300   6.222  1.0383  0.3583 -0.1175
  408MOL0     H56295   7.312   8.128   6.206 -1.2154 -0.4954  0.5380
  408MOL0     H56296   7.161   8.287   6.002  1.2842 -1.2821 -2.6681
  408MOL0     H56297   7.195   8.117   5.982 -2.2965  0.5458 -0.6247
  408MOL0     H56298   7.024   8.265   6.190  3.4199  0.3971  0.7436
  408MOL0     H56299   7.078   8.103   6.228 -0.6516  1.0576 -0.7230
  408MOL0     H56300   6.773   8.008   5.943 -0.7640  2.4396 -0.3641
  408MOL0     H56301   7.600   7.900   5.951  0.5240 -1.6953 -3.6330
  408MOL0     H56302   7.932   7.794   5.903  0.6460 -0.7990 -2.3111
  408MOL0     H56303   7.757   7.737   5.884 -0.2046 -1.3852 -3.5065
  408MOL0     H56304   7.843   7.816   5.760 -3.2275  0.2593  0.0309
  409MOL0     O56305   7.218   0.194   7.857 -0.7574  0.2756 -0.7629
  409MOL0     C56306   7.181   0.225   7.743  0.4561 -1.2006  0.2635
  409MOL0     O56307   7.262   0.266   7.640  0.2055  0.1249  0.5837
  409MOL0     C56308   7.396   0.294   7.653  0.5939 -0.6920  0.5325
  409MOL0     C56309   7.482   0.248   7.752 -0.2226 -0.1375 -1.4586
  409MOL0     C56310   7.620   0.271   7.750  0.9302  0.3884  0.0407
  409MOL0     C56311   7.676   0.353   7.650 -0.3055 -0.2645  0.3078
  409MOL0     O56312   7.815   0.389   7.673 -0.2102 -0.5792 -0.1053
  409MOL0     C56313   7.852   0.513   7.622 -0.5036  0.1265  0.1667
  409MOL0     C56314   7.998   0.540   7.645 -0.8043 -0.3119 -0.8756
  409MOL0     C56315   8.066   0.638   7.542  0.0433  0.1785 -0.2927
  409MOL0     C56316   8.199   0.699   7.608  0.3504  0.2886  1.2749
  409MOL0     C56317   8.285   0.750   7.489  0.5018 -0.3480 -0.3924
  409MOL0     C56318   8.225   0.875   7.415  0.2675 -0.9327 -0.5502
  409MOL0     C56319   8.321   0.929   7.319 -0.7636 -0.6083 -0.5058
  409MOL0     C56320   8.266   1.029   7.226 -0.3602  0.0515  0.5434
  409MOL0     N56321   8.375   1.093   7.152  0.2136 -1.2615 -0.6863
  409MOL0     C56322   8.459   1.179   7.208  0.9661  0.4502  0.6606
  409MOL0     C56323   8.551   1.203   7.120 -0.5636  0.1015  0.9961
  409MOL0     C56324   8.654   1.307   7.144 -0.4498  0.2386 -0.0813
  409MOL0     C56325   8.720   1.369   7.018 -0.2101  0.5870  0.3398
  409MOL0     C56326   8.789   1.499   7.041 -0.2489 -0.6515  0.6606
  409MOL0     C56327   8.695   1.612   7.079  0.5213  0.4504  0.1229
  409MOL0     O56328   8.612   1.651   6.963 -0.1034 -0.0155 -0.3789
  409MOL0     C56329   8.669   1.744   6.881 -0.4380  0.9989 -0.3348
  409MOL0     C56330   8.665   1.879   6.905  0.3374 -0.0380 -0.3062
  409MOL0     C56331   8.704   1.983   6.823 -0.6228  1.1590  0.7856
  409MOL0     C56332   8.694   2.127   6.862  0.7735  0.3496  0.8411
  409MOL0     C56333   8.778   1.936   6.707 -0.3776  0.6851  0.6146
  409MOL0     C56334   8.862   2.020   6.624  0.5343 -1.0728  0.7121
  409MOL0     O56335   8.922   1.948   6.520  0.0991 -0.4180 -0.3432
  409MOL0     C56336   9.028   2.007   6.450 -0.6558 -0.3605  0.9965
  409MOL0     C56337   9.032   1.969   6.320 -0.8997 -0.1323 -0.9940
  409MOL0     C56338   9.129   2.019   6.233 -1.0133 -0.7831  0.4162
  409MOL0     C56339   9.228   2.105   6.279 -0.2678  0.1484 -0.4784
  409MOL0     O56340   9.323   2.140   6.182 -0.2059 -0.3535  0.0494
  409MOL0     C56341   9.411   2.248   6.224  0.7859 -0.3688  0.3240
  409MOL0     C56342   9.518   2.278   6.121  0.7230 -0.5714 -0.9542
  409MOL0     C56343   9.646   2.348   6.185  0.2146 -0.6726 -0.7967
  409MOL0     C56344   9.625   2.508   6.194 -0.0107 -0.5532  0.7707
  409MOL0     C56345   9.748   2.578   6.245 -0.7031 -0.1663 -0.0350
  409MOL0     C56346   9.746   2.737   6.235 -0.4475 -0.0781  0.3611
  409MOL0     C56347   9.623   2.783   6.314  0.3098 -0.0912  0.2054
  409MOL0     C56348   9.612   2.936   6.321 -0.1628  0.0858 -0.4751
  409MOL0    Cl56349   9.471   2.961   6.428  0.7283 -0.1281 -0.0633
  409MOL0     C56350   9.236   2.143   6.412 -0.1034 -0.2959  0.1558
  409MOL0     C56351   9.130   2.095   6.492 -0.0854 -0.3414 -0.4447
  409MOL0     O56352   8.862   2.145   6.639  0.4537  0.3695  0.4983
  409MOL0     C56353   8.776   1.797   6.665 -0.2357  0.1677  1.1612
  409MOL0     C56354   8.722   1.706   6.758  0.4818 -0.1291  0.0204
  409MOL0     N56355   8.527   1.125   7.008 -1.1107 -0.1693  0.9878
  409MOL0     N56356   8.412   1.056   7.026 -0.6045 -0.1528  0.2166
  409MOL0     C56357   7.596   0.406   7.554  0.6063  0.6786  0.1848
  409MOL0     C56358   7.455   0.372   7.555 -0.6920 -0.5242 -0.1788
  409MOL0     C56359   7.035   0.208   7.714 -0.2275  0.0957 -0.2214
  409MOL0     C56360   6.998   0.220   7.575  0.9226  0.8818  0.2187
  409MOL0     C56361   6.861   0.199   7.536 -0.9576 -0.2043 -0.2019
  409MOL0     C56362   6.775   0.166   7.632  0.2835 -0.4771 -1.2769
  409MOL0     O56363   6.638   0.160   7.608  0.9009 -0.9352  0.3130
  409MOL0     C56364   6.589   0.053   7.522  0.0561  0.5206 -0.1417
  409MOL0     C56365   6.524   0.114   7.401 -0.2677 -0.1134 -0.2182
  409MOL0     C56366   6.432   0.024   7.330 -0.4270 -0.4461 -0.5981
  409MOL0     C56367   6.360   0.091   7.212  0.1165  0.6789  0.1173
  409MOL0     C56368   6.266   0.193   7.257  0.1120  0.4244 -0.2870
  409MOL0     C56369   6.172   0.264   7.293 -0.7926 -0.2580  0.0100
  409MOL0     C56370   6.811   0.159   7.771  0.1627 -0.3104  0.4109
  409MOL0     C56371   6.938   0.189   7.814 -0.4731 -0.0122  0.5735
  409MOL0     C56372   6.959   0.173   7.961 -0.4932  0.8898  0.0052
  409MOL0     H56373   7.445   0.206   7.845  0.6792  3.9523  1.0308
  409MOL0     H56374   7.682   0.240   7.833 -2.5038  1.5800  3.3391
  409MOL0     H56375   7.791   0.592   7.665 -1.3328 -0.4541  0.0667
  409MOL0     H56376   7.847   0.533   7.514 -1.5514  2.6498  0.6275
  409MOL0     H56377   8.012   0.571   7.749  1.3978  0.6843 -1.4146
  409MOL0     H56378   8.048   0.446   7.621  0.1230  0.2968 -1.3687
  409MOL0     H56379   8.099   0.587   7.451  5.3784 -0.8951  1.9247
  409MOL0     H56380   7.994   0.720   7.527 -0.0929  0.2140  0.5373
  409MOL0     H56381   8.167   0.785   7.668 -2.4220  0.2418  0.0414
  409MOL0     H56382   8.253   0.627   7.670  0.3567  1.3230  2.5073
  409MOL0     H56383   8.295   0.664   7.422  0.5105 -0.8069  0.1826
  409MOL0     H56384   8.385   0.767   7.531  0.9809 -2.4215 -0.5645
  409MOL0     H56385   8.141   0.834   7.357 -0.8531 -0.4509  0.6751
  409MOL0     H56386   8.180   0.945   7.486 -1.2333 -2.9841  0.6530
  409MOL0     H56387   8.350   0.844   7.257  0.8534 -0.5724  0.1317
  409MOL0     H56388   8.411   0.962   7.371  0.0991 -1.8057 -1.1719
  409MOL0     H56389   8.196   0.975   7.161  0.9763  0.5581 -1.4066
  409MOL0     H56390   8.205   1.107   7.273 -0.6971 -0.6984  1.3653
  409MOL0     H56391   8.458   1.219   7.308  1.2933 -1.9131  1.6734
  409MOL0     H56392   8.737   1.259   7.197 -0.3829  0.9837  0.4866
  409MOL0     H56393   8.613   1.381   7.212  0.8865  1.3302 -0.4131
  409MOL0     H56394   8.794   1.304   6.970 -3.1476 -1.4019 -1.8901
  409MOL0     H56395   8.641   1.381   6.943  0.6655  2.0174 -0.4005
  409MOL0     H56396   8.869   1.490   7.116  0.4061 -0.1519  0.0356
  409MOL0     H56397   8.835   1.534   6.948  1.9251 -1.9144  1.1847
  409MOL0     H56398   8.627   1.581   7.159 -0.6674  0.9028 -0.6797
  409MOL0     H56399   8.746   1.695   7.127  0.8833 -0.4348  1.3031
  409MOL0     H56400   8.621   1.906   7.000  1.7673 -0.4165  0.4782
  409MOL0     H56401   8.639   2.185   6.788 -0.7643 -1.7218  0.2816
  409MOL0     H56402   8.792   2.169   6.890  0.3686  0.7755  1.6741
  409MOL0     H56403   8.640   2.133   6.957 -0.7168 -0.5882  0.0803
  409MOL0     H56404   8.961   1.894   6.286  0.3264 -2.8970  2.0160
  409MOL0     H56405   9.128   2.003   6.126 -2.6693  0.9945  0.1100
  409MOL0     H56406   9.352   2.339   6.218  0.5759 -0.5654 -0.8629
  409MOL0     H56407   9.453   2.236   6.325  0.3685 -0.9772  0.4310
  409MOL0     H56408   9.574   2.188   6.096  0.5376 -1.2242  0.8269
  409MOL0     H56409   9.476   2.333   6.035  1.2352  2.1212  0.4101
  409MOL0     H56410   9.735   2.331   6.123 -0.2258 -0.9611 -1.3551
  409MOL0     H56411   9.673   2.312   6.284  0.8602 -0.7468 -0.9939
  409MOL0     H56412   9.547   2.525   6.269  0.0902  0.7606  0.6051
  409MOL0     H56413   9.597   2.541   6.093  1.6205 -3.6997 -0.8572
  409MOL0     H56414   9.762   2.545   6.349  0.1187 -1.7381 -0.6088
  409MOL0     H56415   9.827   2.541   6.180 -0.7946  0.8420 -0.7395
  409MOL0     H56416   9.734   2.772   6.132 -0.5538  2.4503  1.1567
  409MOL0     H56417   9.841   2.782   6.267 -1.4745  2.5806 -0.0351
  409MOL0     H56418   9.640   2.743   6.414 -1.4334 -2.2215 -0.2658
  409MOL0     H56419   9.529   2.746   6.272  1.3225 -2.8386  0.1569
  409MOL0     H56420   9.586   2.964   6.219  0.3313  0.5639 -0.4721
  409MOL0     H56421   9.695   2.995   6.359  1.0667 -2.0498  0.3474
  409MOL0     H56422   9.299   2.210   6.469 -0.7588 -0.2417  0.8231
  409MOL0     H56423   9.119   2.130   6.594  0.0355 -3.2333  0.6681
  409MOL0     H56424   8.820   1.754   6.576  0.2310  1.3911  0.7864
  409MOL0     H56425   8.735   1.603   6.726 -0.4892  0.0530 -1.0277
  409MOL0     H56426   7.637   0.474   7.479  0.6764  1.6861  1.1040
  409MOL0     H56427   7.393   0.418   7.478  1.6106  2.2582 -0.5242
  409MOL0     H56428   7.071   0.243   7.498  1.4736 -0.4138  0.3276
  409MOL0     H56429   6.830   0.205   7.432 -2.2369  2.0724  0.2497
  409MOL0     H56430   6.670  -0.011   7.486  1.5047  1.8212  0.7093
  409MOL0     H56431   6.521  -0.014   7.576  1.4763 -1.3606 -0.5868
  409MOL0     H56432   6.605   0.134   7.331 -1.1018  0.1409 -1.1338
  409MOL0     H56433   6.473   0.206   7.431 -0.9345  0.1674 -2.1152
  409MOL0     H56434   6.489  -0.064   7.300  0.4359 -1.2109  2.8520
  409MOL0     H56435   6.369  -0.016   7.411 -0.4345  0.7441 -0.0041
  409MOL0     H56436   6.303   0.013   7.160  0.9056  0.2866 -0.1696
  409MOL0     H56437   6.432   0.126   7.137  0.9331  0.1097  0.6287
  409MOL0     H56438   6.090   0.323   7.327 -0.3742 -0.2002  0.9367
  409MOL0     H56439   6.745   0.109   7.840  2.2614 -2.8723  0.7182
  409MOL0     H56440   6.994   0.266   8.008 -0.0390 -0.5274  2.6518
  409MOL0     H56441   6.872   0.145   8.021  0.5125 -2.0206  0.2501
  409MOL0     H56442   7.030   0.091   7.975  0.0817  1.7361  2.6415
  410MOL0     O56443   7.765   1.700   4.769 -0.5219  0.2191  0.0916
  410MOL0     C56444   7.775   1.817   4.763  0.8610  0.0228  0.1487
  410MOL0     O56445   7.882   1.889   4.714  0.9924  0.0681  0.1543
  410MOL0     C56446   7.962   1.812   4.631 -0.2927  0.8183 -0.0761
  410MOL0     C56447   7.928   1.751   4.505  0.6744  0.3158 -0.1931
  410MOL0     C56448   8.019   1.686   4.422  0.7101  0.3350 -0.0637
  410MOL0     C56449   8.150   1.672   4.464  0.9041  0.2141 -0.2190
  410MOL0     O56450   8.246   1.622   4.386  0.0693  0.0801  0.0252
  410MOL0     C56451   8.213   1.653   4.244 -0.8082  0.1740 -0.0741
  410MOL0     C56452   8.332   1.652   4.150 -0.5325  0.3477 -0.0323
  410MOL0     C56453   8.310   1.742   4.020 -0.1837 -0.7737 -0.2085
  410MOL0     C56454   8.180   1.717   3.942 -0.0411 -0.4385 -0.1215
  410MOL0     C56455   8.169   1.767   3.800  0.5200  0.2333 -0.5262
  410MOL0     C56456   8.035   1.731   3.729  0.4651  0.0978 -0.0961
  410MOL0     C56457   8.040   1.768   3.578 -0.0989 -0.6499  0.1708
  410MOL0     C56458   7.908   1.752   3.501  0.2380 -0.3093  0.1666
  410MOL0     N56459   7.793   1.807   3.579  0.5206  0.4171 -0.0876
  410MOL0     C56460   7.711   1.722   3.641 -0.4896  0.1042  0.1031
  410MOL0     C56461   7.608   1.804   3.678  0.6198 -0.0347  0.2108
  410MOL0     C56462   7.484   1.772   3.765 -0.1388 -0.1339  0.0131
  410MOL0     C56463   7.365   1.740   3.674 -0.5298 -0.4558 -0.6209
  410MOL0     C56464   7.237   1.727   3.748  0.6304  0.4800 -1.3262
  410MOL0     C56465   7.180   1.856   3.788  0.2200 -1.0546  0.3951
  410MOL0     O56466   7.051   1.842   3.838  0.8276 -0.5091 -0.0014
  410MOL0     C56467   6.940   1.844   3.755  0.2474 -0.0292  0.1973
  410MOL0     C56468   6.943   1.875   3.612  0.2286  0.2777 -0.6607
  410MOL0     C56469   6.833   1.864   3.525  0.6525 -0.3947  0.8399
  410MOL0     C56470   6.858   1.907   3.384 -0.3772 -1.5055  0.3739
  410MOL0     C56471   6.707   1.820   3.572 -0.3297 -0.1048 -1.0146
  410MOL0     C56472   6.592   1.807   3.486  1.9326  0.4185  0.2204
  410MOL0     O56473   6.479   1.805   3.549  0.4751 -0.0138  0.2463
  410MOL0     C56474   6.356   1.772   3.494  0.6754 -0.5304 -0.7411
  410MOL0     C56475   6.246   1.789   3.577  0.0008 -0.8404  0.4494
  410MOL0     C56476   6.115   1.737   3.548 -0.7452 -1.1527  0.6542
  410MOL0     C56477   6.099   1.666   3.429 -0.8182 -0.1357 -0.3745
  410MOL0     O56478   5.983   1.607   3.398 -0.2950  0.2139  0.6329
  410MOL0     C56479   5.866   1.680   3.416  0.6953 -0.6102  0.2335
  410MOL0     C56480   5.748   1.610   3.348  0.1809 -0.9815  0.5648
  410MOL0     C56481   5.747   1.652   3.207  0.3058 -0.1072 -1.6523
  410MOL0     C56482   5.654   1.557   3.113 -0.5570 -0.8633 -0.5624
  410MOL0     C56483   5.505   1.584   3.142  0.1598  0.0305 -0.7389
  410MOL0     C56484   5.412   1.496   3.066  0.2709 -0.3126 -0.0962
  410MOL0     C56485   5.277   1.463   3.141 -0.9245 -0.6858  0.2271
  410MOL0     C56486   5.176   1.390   3.052 -0.6294  0.2320 -0.0020
  410MOL0    Cl56487   5.019   1.398   3.138 -0.4124  0.3944  0.2498
  410MOL0     C56488   6.212   1.634   3.358 -0.2702  0.3396  0.2633
  410MOL0     C56489   6.334   1.686   3.386  0.6115  1.2145  0.5291
  410MOL0     O56490   6.613   1.761   3.371 -0.4485 -0.2173  0.2965
  410MOL0     C56491   6.702   1.792   3.710 -0.6680 -0.0237 -0.3441
  410MOL0     C56492   6.809   1.803   3.802 -0.4282  0.0202  0.3560
  410MOL0     N56493   7.643   1.936   3.644  0.0936 -0.7580  0.2993
  410MOL0     N56494   7.751   1.937   3.570  0.1654 -0.0121  0.6010
  410MOL0     C56495   8.196   1.733   4.584  0.6746  0.3284  0.1194
  410MOL0     C56496   8.097   1.801   4.658  0.5869 -0.2587 -0.0212
  410MOL0     C56497   7.651   1.878   4.807 -0.1115 -0.3103  0.3492
  410MOL0     C56498   7.630   1.992   4.729 -0.5613 -0.0463 -0.1916
  410MOL0     C56499   7.508   2.061   4.744 -0.6885 -0.2026  0.2196
  410MOL0     C56500   7.416   2.025   4.838  0.2749  0.7239  0.6413
  410MOL0     O56501   7.295   2.080   4.867 -0.1644 -0.2273 -0.1320
  410MOL0     C56502   7.242   2.175   4.775  1.1655  0.2088  0.1488
  410MOL0     C56503   7.083   2.205   4.802  0.9849 -0.2124  0.3039
  410MOL0     C56504   7.039   2.215   4.953  0.3732  0.7438 -0.2376
  410MOL0     C56505   6.912   2.135   4.993 -0.4690  0.4631 -0.4971
  410MOL0     C56506   6.782   2.188   4.958 -0.0549  0.6427 -0.6389
  410MOL0     C56507   6.681   2.250   4.926 -0.4491  0.0642 -0.4476
  410MOL0     C56508   7.434   1.904   4.906 -0.0873 -0.0455 -0.6373
  410MOL0     C56509   7.552   1.827   4.891  0.5240 -0.1908  0.1933
  410MOL0     C56510   7.558   1.706   4.977  0.3604  0.1556 -0.0468
  410MOL0     H56511   7.829   1.758   4.460  0.6805  0.7309 -0.1494
  410MOL0     H56512   7.974   1.655   4.328 -0.5331  2.1392 -0.1156
  410MOL0     H56513   8.171   1.753   4.229 -0.0315  0.4098 -0.8122
  410MOL0     H56514   8.137   1.582   4.212  1.5440 -2.9512  0.7949
  410MOL0     H56515   8.420   1.697   4.196  2.5569 -1.7845 -3.2483
  410MOL0     H56516   8.360   1.548   4.129 -1.1974 -0.1214  1.3334
  410MOL0     H56517   8.312   1.849   4.044  0.6102 -0.7764 -0.2589
  410MOL0     H56518   8.397   1.715   3.960  1.1734 -0.3050  1.4660
  410MOL0     H56519   8.176   1.608   3.935  1.8199 -0.4600 -1.8225
  410MOL0     H56520   8.089   1.754   3.989  0.3438  2.1393 -1.2599
  410MOL0     H56521   8.238   1.715   3.733 -0.5353 -1.6067 -0.2551
  410MOL0     H56522   8.187   1.875   3.806  2.9218 -0.1779  1.4256
  410MOL0     H56523   7.994   1.632   3.751 -1.2080  1.3071  2.8286
  410MOL0     H56524   7.952   1.786   3.776 -0.9592 -0.4832 -1.8286
  410MOL0     H56525   8.114   1.708   3.525 -1.1490 -0.5700 -1.4250
  410MOL0     H56526   8.062   1.875   3.581 -1.0856 -0.4496  1.4142
  410MOL0     H56527   7.897   1.800   3.404  0.3558  1.6067  1.0641
  410MOL0     H56528   7.900   1.644   3.485 -1.9905 -1.1887  5.3113
  410MOL0     H56529   7.715   1.616   3.662 -0.5895  0.3690  1.5666
  410MOL0     H56530   7.456   1.856   3.829  0.4942 -0.6299  0.9614
  410MOL0     H56531   7.513   1.691   3.834 -3.5952 -0.4811  1.2432
  410MOL0     H56532   7.356   1.824   3.606  1.9851 -0.9087 -1.6460
  410MOL0     H56533   7.383   1.651   3.613  2.4306  0.6964 -1.6007
  410MOL0     H56534   7.179   1.669   3.675  1.0102 -1.5040 -0.1292
  410MOL0     H56535   7.243   1.669   3.840  0.1460 -0.7319 -2.0280
  410MOL0     H56536   7.231   1.911   3.868  0.3104 -0.5904  0.0279
  410MOL0     H56537   7.182   1.931   3.708  0.2299  0.3409  1.6527
  410MOL0     H56538   7.042   1.902   3.576  2.3402 -3.6167  1.4802
  410MOL0     H56539   6.901   1.827   3.323  1.1593 -0.3962 -0.0352
  410MOL0     H56540   6.932   1.987   3.388  0.2990 -2.1781  2.1941
  410MOL0     H56541   6.769   1.945   3.333 -1.7073 -0.8696  2.9949
  410MOL0     H56542   6.266   1.839   3.671  1.3695 -1.1093  0.3248
  410MOL0     H56543   6.028   1.742   3.612 -1.5861  0.0607 -0.5126
  410MOL0     H56544   5.837   1.690   3.521 -1.2053 -1.5397 -0.1559
  410MOL0     H56545   5.879   1.779   3.371  0.0571 -0.7389 -0.2435
  410MOL0     H56546   5.759   1.501   3.347  0.2751 -1.0085  2.0543
  410MOL0     H56547   5.656   1.640   3.400  0.6140  2.2879 -0.3627
  410MOL0     H56548   5.847   1.642   3.164  1.5346 -1.9495  1.3087
  410MOL0     H56549   5.719   1.757   3.206  2.8769  0.6349 -1.7043
  410MOL0     H56550   5.673   1.451   3.131  2.0080 -0.3249  0.1820
  410MOL0     H56551   5.673   1.581   3.008  2.4963  1.1052  0.3168
  410MOL0     H56552   5.489   1.558   3.247  4.0975 -1.2113 -0.2532
  410MOL0     H56553   5.490   1.689   3.118  1.8250  0.2294 -1.0168
  410MOL0     H56554   5.450   1.394   3.051 -3.0385 -1.5246 -0.9923
  410MOL0     H56555   5.391   1.538   2.967 -1.9734  0.0139  0.4799
  410MOL0     H56556   5.232   1.557   3.173 -2.6740 -1.9579  1.6504
  410MOL0     H56557   5.302   1.404   3.229 -0.3077  0.0878  0.5848
  410MOL0     H56558   5.204   1.284   3.045 -0.9902  0.2003 -1.1918
  410MOL0     H56559   5.164   1.419   2.947 -4.1026 -1.0179 -0.0895
  410MOL0     H56560   6.206   1.556   3.283  1.8749 -1.4886  1.8741
  410MOL0     H56561   6.413   1.652   3.321  0.9315  1.3824  0.8263
  410MOL0     H56562   6.603   1.764   3.745 -1.2235 -0.1873 -1.9797
  410MOL0     H56563   6.802   1.771   3.906 -1.1862 -0.7907  0.0743
  410MOL0     H56564   8.301   1.734   4.609  0.2236  2.8566  2.3377
  410MOL0     H56565   8.124   1.839   4.757  3.4733 -2.2623  0.0727
  410MOL0     H56566   7.693   2.024   4.647  1.1803 -1.1019  0.6721
  410MOL0     H56567   7.490   2.144   4.676 -0.5657 -1.5339 -1.5294
  410MOL0     H56568   7.288   2.273   4.794 -3.1760  2.6180 -0.3324
  410MOL0     H56569   7.255   2.139   4.673 -1.3876  0.0745 -0.1926
  410MOL0     H56570   7.021   2.124   4.761 -0.5021  0.5991  0.8839
  410MOL0     H56571   7.053   2.297   4.752  1.5016  0.6782  1.5847
  410MOL0     H56572   7.121   2.195   5.023  1.1742  0.3683 -1.2480
  410MOL0     H56573   7.010   2.317   4.978 -0.0482  0.5317  0.1427
  410MOL0     H56574   6.907   2.134   5.102 -5.1367  1.9531 -0.4727
  410MOL0     H56575   6.912   2.032   4.956 -0.8565  0.1949  0.2312
  410MOL0     H56576   6.588   2.298   4.900  0.3313  0.7252 -2.1757
  410MOL0     H56577   7.353   1.879   4.973 -0.3682  0.5162 -0.7596
  410MOL0     H56578   7.475   1.714   5.049  0.9036 -2.0343  0.9040
  410MOL0     H56579   7.543   1.618   4.913 -1.7197  0.5048 -0.1079
  410MOL0     H56580   7.644   1.685   5.040 -0.2368 -0.7266  0.5033
  411MOL0     O56581   1.498  10.648   2.737 -0.2191 -0.7451 -0.3433
  411MOL0     C56582   1.625  10.641   2.731 -0.0810  0.6520  0.1522
  411MOL0     O56583   1.703  10.723   2.807 -0.4764 -0.3631  0.0857
  411MOL0     C56584   1.635  10.801   2.900 -0.3372 -0.4471 -0.3716
  411MOL0     C56585   1.656  10.933   2.908 -0.3173 -0.1244 -0.3855
  411MOL0     C56586   1.584  11.020   3.006  1.2813  0.9673  0.6790
  411MOL0     C56587   1.484  10.965   3.089  0.4553 -0.5508 -0.5707
  411MOL0     O56588   1.410  11.031   3.187  0.4706 -1.0586  0.2526
  411MOL0     C56589   1.404  11.167   3.185 -0.6489 -0.2003  0.2442
  411MOL0     C56590   1.298  11.221   3.282  0.3152 -0.0575 -0.8527
  411MOL0     C56591   1.327  11.212   3.438  0.3312  0.1831 -0.7365
  411MOL0     C56592   1.297  11.352   3.505  0.3235  0.1755  0.0224
  411MOL0     C56593   1.305  11.343   3.652 -0.1612  0.4503 -0.4272
  411MOL0     C56594   1.325  11.478   3.703 -1.1620  0.0108 -0.3098
  411MOL0     C56595   1.467  11.554   3.667  0.6799  0.4128 -0.4073
  411MOL0     C56596   1.578  11.458   3.636  0.4088  0.4570  0.3326
  411MOL0     N56597   1.712  11.531   3.621  0.2983  0.5205  0.2663
  411MOL0     C56598   1.788  11.520   3.507 -0.4067 -0.1099  0.0301
  411MOL0     C56599   1.893  11.613   3.518  0.7521  0.1433 -0.6496
  411MOL0     C56600   2.012  11.648   3.429 -0.4757 -0.2318  0.9108
  411MOL0     C56601   2.065  11.548   3.326 -0.1936 -0.1411  0.0908
  411MOL0     C56602   2.140  11.425   3.390 -0.3320 -0.6837  0.8023
  411MOL0     C56603   2.052  11.319   3.468  1.2021  0.7817 -0.1125
  411MOL0     O56604   1.947  11.276   3.379  0.2183 -0.6629  0.1835
  411MOL0     C56605   1.850  11.191   3.426  0.7246  0.5147  0.4561
  411MOL0     C56606   1.800  11.187   3.552  0.9089 -0.5761  0.4103
  411MOL0     C56607   1.711  11.076   3.587  0.5443  0.3786 -0.9508
  411MOL0     C56608   1.679  11.056   3.739  0.1751  0.4681 -0.1616
  411MOL0     C56609   1.646  10.996   3.488 -0.7521 -0.0634 -0.0538
  411MOL0     C56610   1.526  10.906   3.507  0.4327 -0.2531  0.5007
  411MOL0     O56611   1.450  10.918   3.624  0.0951 -1.3969 -0.0375
  411MOL0     C56612   1.338  10.835   3.641  0.4250 -0.0427  0.3559
  411MOL0     C56613   1.323  10.701   3.593  0.1468 -0.3834  0.6669
  411MOL0     C56614   1.204  10.633   3.609  1.0694 -0.1274  0.1744
  411MOL0     C56615   1.092  10.695   3.670 -0.0596  0.2001  0.4977
  411MOL0     O56616   0.979  10.623   3.691  0.3550 -0.4110 -0.3259
  411MOL0     C56617   0.923  10.562   3.581  0.5054  0.2396  0.1165
  411MOL0     C56618   0.769  10.542   3.592 -0.5731 -0.0586 -0.1572
  411MOL0     C56619   0.703  10.675   3.631  0.1115 -0.0778 -0.8798
  411MOL0     C56620   0.552  10.655   3.655 -0.3751 -0.8459 -0.3403
  411MOL0     C56621   0.492  10.801   3.631  0.5739 -0.0252 -1.0599
  411MOL0     C56622   0.342  10.806   3.666  0.4319 -0.8838 -0.5236
  411MOL0     C56623   0.271  10.931   3.605 -0.6964 -0.1798 -0.2688
  411MOL0     C56624   0.132  10.899   3.561 -0.4961 -0.8971 -0.2944
  411MOL0    Cl56625   0.026  10.827   3.675  0.0616  0.0322  0.1188
  411MOL0     C56626   1.112  10.820   3.730  1.0439  0.0192 -0.1889
  411MOL0     C56627   1.229  10.887   3.716 -1.0527  0.3723  0.9925
  411MOL0     O56628   1.508  10.831   3.412  0.0822 -0.6683 -0.1639
  411MOL0     C56629   1.697  11.004   3.352 -0.1336  0.2135  1.0066
  411MOL0     C56630   1.801  11.092   3.334  0.0946  0.0273 -0.5289
  411MOL0     N56631   1.871  11.663   3.644 -1.1231  0.1853 -0.4109
  411MOL0     N56632   1.770  11.613   3.702  0.0250 -0.9129  0.1940
  411MOL0     C56633   1.471  10.828   3.079  0.8857 -0.0220  0.0106
  411MOL0     C56634   1.550  10.747   3.001 -0.0746  0.2105 -0.8532
  411MOL0     C56635   1.687  10.544   2.633 -0.1463 -1.1284 -0.1768
  411MOL0     C56636   1.599  10.465   2.555 -1.0683  0.2946  0.9646
  411MOL0     C56637   1.651  10.377   2.466 -0.0287  0.2597  0.4212
  411MOL0     C56638   1.792  10.371   2.440  0.9763  0.2551  0.8426
  411MOL0     O56639   1.855  10.292   2.346 -0.0811  0.5473  0.0396
  411MOL0     C56640   1.790  10.167   2.306 -0.5782  0.1492  1.0148
  411MOL0     C56641   1.849  10.116   2.176  1.0075 -0.6733  1.3129
  411MOL0     C56642   1.987  10.068   2.185 -0.9486 -0.3783 -0.1365
  411MOL0     C56643   2.011   9.978   2.060  0.3125  0.1449  0.3665
  411MOL0     C56644   2.153   9.957   2.028 -0.6950 -0.0517  0.6581
  411MOL0     C56645   2.268   9.922   2.010  0.5226 -0.0511  0.9455
  411MOL0     C56646   1.867  10.460   2.509 -0.1420  0.6491 -0.9758
  411MOL0     C56647   1.824  10.546   2.606  0.7915 -0.0953 -0.1061
  411MOL0     C56648   1.934  10.626   2.678  0.3686 -0.2471  0.8339
  411MOL0     H56649   1.724  10.973   2.834 -1.1961 -0.5209 -1.4339
  411MOL0     H56650   1.623  11.120   3.024  1.3134  0.8202  1.4751
  411MOL0     H56651   1.380  11.194   3.082  2.7097 -2.7164 -1.4007
  411MOL0     H56652   1.500  11.213   3.210 -1.4904  1.4835  0.5334
  411MOL0     H56653   1.305  11.329   3.265  0.2903  0.8881  3.8838
  411MOL0     H56654   1.198  11.182   3.259 -0.3796 -0.3080  2.1679
  411MOL0     H56655   1.268  11.137   3.491  0.9206  0.1777 -0.0745
  411MOL0     H56656   1.432  11.188   3.455 -0.1977 -1.2648  0.7361
  411MOL0     H56657   1.359  11.429   3.459 -0.3290  0.4288 -0.4520
  411MOL0     H56658   1.196  11.380   3.474 -0.4512 -1.8347  0.5840
  411MOL0     H56659   1.386  11.272   3.676 -2.1519 -1.2089  1.8241
  411MOL0     H56660   1.225  11.295   3.709  2.8495 -0.9691  3.0543
  411MOL0     H56661   1.239  11.541   3.683 -1.7214  0.3620  2.7245
  411MOL0     H56662   1.331  11.472   3.812 -0.3004  0.8298 -0.3000
  411MOL0     H56663   1.491  11.617   3.753 -4.1482  1.0731  0.7598
  411MOL0     H56664   1.436  11.613   3.580  1.2306 -1.5050 -1.9839
  411MOL0     H56665   1.587  11.398   3.727  1.1361 -1.2079 -0.7853
  411MOL0     H56666   1.558  11.397   3.548 -1.5381  0.0220  1.0183
  411MOL0     H56667   1.769  11.451   3.425 -2.0143 -1.8629  1.7677
  411MOL0     H56668   2.097  11.679   3.490 -0.2644  0.2468  0.3792
  411MOL0     H56669   1.979  11.739   3.377 -0.8188  1.1811  3.4394
  411MOL0     H56670   1.977  11.512   3.272 -1.0521  1.3836  0.4237
  411MOL0     H56671   2.126  11.591   3.246 -1.8718 -0.1537 -1.2716
  411MOL0     H56672   2.194  11.383   3.305  0.3934  2.1250 -0.2222
  411MOL0     H56673   2.209  11.473   3.460  4.6526 -1.6137 -2.9414
  411MOL0     H56674   2.124  11.245   3.504 -0.9860 -0.8674  1.0524
  411MOL0     H56675   2.010  11.358   3.561 -1.0043 -1.9862  0.1768
  411MOL0     H56676   1.823  11.250   3.637 -0.2824 -2.5602  2.2903
  411MOL0     H56677   1.759  11.101   3.798 -0.2619 -0.3309  1.0628
  411MOL0     H56678   1.678  10.952   3.771  1.5433  0.9102  1.4503
  411MOL0     H56679   1.578  11.095   3.757 -0.8288 -2.1851  0.4266
  411MOL0     H56680   1.403  10.649   3.541 -0.6827 -0.8965 -0.1111
  411MOL0     H56681   1.179  10.533   3.576 -2.9375  0.0172  2.0826
  411MOL0     H56682   0.947  10.620   3.491 -0.7468 -0.5518 -0.7742
  411MOL0     H56683   0.977  10.467   3.574 -0.0168 -0.0960  0.5735
  411MOL0     H56684   0.743  10.511   3.490  1.0933  0.6279 -0.8331
  411MOL0     H56685   0.744  10.463   3.663 -1.0431  0.5395  0.3596
  411MOL0     H56686   0.724  10.738   3.544  0.2962 -1.2706 -1.7174
  411MOL0     H56687   0.748  10.721   3.720 -1.7147 -0.3608  0.2419
  411MOL0     H56688   0.527  10.623   3.757 -1.4273 -0.5486 -0.4884
  411MOL0     H56689   0.508  10.584   3.585 -1.0855  0.2518 -1.0527
  411MOL0     H56690   0.555  10.859   3.699  2.0883 -3.0945  0.4001
  411MOL0     H56691   0.500  10.833   3.527  2.3414 -1.1150 -1.2963
  411MOL0     H56692   0.332  10.799   3.775  2.0656  1.2485 -0.1575
  411MOL0     H56693   0.285  10.723   3.624 -1.4805 -1.4566  2.8518
  411MOL0     H56694   0.323  10.967   3.515 -1.5226  2.9910  0.4194
  411MOL0     H56695   0.279  11.012   3.677 -0.8321 -2.1938  2.1344
  411MOL0     H56696   0.132  10.845   3.466  2.3766  0.1292 -0.9759
  411MOL0     H56697   0.091  10.997   3.534 -4.2432 -2.3313 -0.3599
  411MOL0     H56698   1.033  10.873   3.781  1.0853 -0.3124  0.2259
  411MOL0     H56699   1.233  10.988   3.755 -2.0970 -0.0902  2.3954
  411MOL0     H56700   1.662  10.946   3.267  2.8126 -0.3388  0.0460
  411MOL0     H56701   1.847  11.104   3.236  0.6573  1.8695 -0.0934
  411MOL0     H56702   1.392  10.793   3.144  0.2337  0.9870 -0.2051
  411MOL0     H56703   1.533  10.640   3.001 -2.7993  0.5775 -0.9008
  411MOL0     H56704   1.494  10.468   2.584 -1.2966 -1.5298  0.3972
  411MOL0     H56705   1.581  10.317   2.408 -0.2324 -0.6420  1.5621
  411MOL0     H56706   1.814  10.093   2.382  0.1254  0.0367  0.6880
  411MOL0     H56707   1.681  10.176   2.306 -0.5415  1.1339  3.1221
  411MOL0     H56708   1.828  10.194   2.102  0.6473 -0.0320  2.0777
  411MOL0     H56709   1.785  10.030   2.158  2.0843 -1.5539  1.5853
  411MOL0     H56710   2.070  10.139   2.185  0.4700 -1.8111 -3.8403
  411MOL0     H56711   2.006  10.009   2.275  3.1513  0.5095 -0.2026
  411MOL0     H56712   1.962  10.026   1.975 -1.1333 -0.0623  1.0599
  411MOL0     H56713   1.962   9.883   2.083 -2.9483  1.0800 -1.9651
  411MOL0     H56714   2.362   9.871   2.000  0.4809 -0.0329  0.4591
  411MOL0     H56715   1.973  10.453   2.487  0.1385 -0.9446  0.6452
  411MOL0     H56716   1.906  10.732   2.685 -0.4469 -0.3441 -0.6617
  411MOL0     H56717   1.928  10.585   2.779 -4.3320 -0.7779  0.5418
  411MOL0     H56718   2.034  10.607   2.638  0.1685 -1.5774  0.9349
  412MOL0     O56719   7.632   4.598   9.092 -0.3454  0.3326  0.2237
  412MOL0     C56720   7.544   4.633   9.012  0.8537  0.2496 -0.1852
  412MOL0     O56721   7.410   4.620   9.037  0.7151 -0.6187 -0.4802
  412MOL0     C56722   7.369   4.527   9.122 -0.2378 -0.4580 -0.6194
  412MOL0     C56723   7.276   4.574   9.212 -0.0357 -0.0417  0.6105
  412MOL0     C56724   7.208   4.492   9.305 -0.1462  0.6084 -0.5235
  412MOL0     C56725   7.239   4.352   9.310  0.6370 -0.7044 -0.1073
  412MOL0     O56726   7.167   4.271   9.391 -0.7737 -0.3304  0.5696
  412MOL0     C56727   7.204   4.135   9.402  0.2695 -0.0357  0.1156
  412MOL0     C56728   7.098   4.077   9.495 -0.4143 -0.0380  0.4413
  412MOL0     C56729   7.152   3.939   9.534  0.3502  0.7251  0.1655
  412MOL0     C56730   7.047   3.857   9.611  0.0148 -0.3859 -0.3910
  412MOL0     C56731   6.985   3.751   9.528 -0.6213  0.2609  0.1777
  412MOL0     C56732   6.897   3.802   9.410 -0.9279  0.3218 -0.4126
  412MOL0     C56733   6.850   3.685   9.330 -0.4987  0.4465 -0.7324
  412MOL0     C56734   6.946   3.592   9.247  1.1202  0.6558  0.2087
  412MOL0     N56735   6.854   3.510   9.167 -0.7441  1.4238 -0.3408
  412MOL0     C56736   6.889   3.380   9.130  0.5479 -0.0344 -0.1793
  412MOL0     C56737   6.809   3.359   9.024  0.3057 -0.4941  0.7068
  412MOL0     C56738   6.810   3.234   8.944 -0.0219 -0.4124  0.9869
  412MOL0     C56739   6.943   3.211   8.866  0.7355 -0.8866  0.7626
  412MOL0     C56740   6.919   3.088   8.775  0.1472  0.3288  0.1179
  412MOL0     C56741   7.027   3.079   8.668 -0.0492  0.2872  0.0205
  412MOL0     O56742   6.976   3.158   8.567  0.4015  0.6261  0.0072
  412MOL0     C56743   7.050   3.177   8.451 -0.4464  0.0041  0.7326
  412MOL0     C56744   7.175   3.121   8.430  0.1777  0.3502  0.3108
  412MOL0     C56745   7.255   3.133   8.312  0.6659 -0.0429  0.8067
  412MOL0     C56746   7.402   3.083   8.318  0.1146  0.2669  0.4047
  412MOL0     C56747   7.203   3.214   8.205  1.1935  0.3176  0.2248
  412MOL0     C56748   7.275   3.233   8.079  0.5389  0.4637  0.0383
  412MOL0     O56749   7.331   3.119   8.023 -0.6568  0.7454 -0.7866
  412MOL0     C56750   7.424   3.144   7.926 -0.2650 -0.0635 -0.4238
  412MOL0     C56751   7.395   3.188   7.795 -0.3052  0.9018  0.8225
  412MOL0     C56752   7.495   3.227   7.706  0.5807 -0.6288  0.0610
  412MOL0     C56753   7.625   3.216   7.741 -0.1189 -0.6499 -0.5260
  412MOL0     O56754   7.723   3.250   7.650 -0.7089 -0.0122 -0.7418
  412MOL0     C56755   7.853   3.198   7.680 -0.0295 -0.2528  0.0452
  412MOL0     C56756   7.927   3.187   7.556  0.4711 -0.0791 -0.4765
  412MOL0     C56757   8.077   3.172   7.580  0.2779 -0.3506 -0.1652
  412MOL0     C56758   8.135   3.153   7.443  0.2857 -0.3912 -0.6043
  412MOL0     C56759   8.273   3.079   7.448  1.1103  0.5185  0.4875
  412MOL0     C56760   8.314   3.043   7.302 -0.1401 -0.6056 -0.1438
  412MOL0     C56761   8.454   2.975   7.303 -0.1264  0.0996 -0.1992
  412MOL0     C56762   8.504   2.946   7.167 -0.4291 -0.5681 -0.5159
  412MOL0    Cl56763   8.563   3.113   7.099  0.2297  0.0364  0.0269
  412MOL0     C56764   7.658   3.180   7.871  0.4202 -0.4535 -0.9055
  412MOL0     C56765   7.564   3.143   7.967 -0.2998  0.1662  0.2478
  412MOL0     O56766   7.276   3.346   8.021  0.4405  0.3595 -0.6490
  412MOL0     C56767   7.079   3.280   8.228  0.4252  0.5716 -0.2945
  412MOL0     C56768   7.006   3.267   8.353  0.0710  0.0114  0.6825
  412MOL0     N56769   6.718   3.461   9.011  0.5000 -1.5672  0.0107
  412MOL0     N56770   6.758   3.556   9.082  0.4052 -0.5501 -0.0079
  412MOL0     C56771   7.350   4.310   9.234  0.2259  0.7459  0.0364
  412MOL0     C56772   7.411   4.392   9.141 -0.5234  0.1579 -0.6818
  412MOL0     C56773   7.593   4.708   8.893  0.6341 -0.2668 -0.7797
  412MOL0     C56774   7.521   4.820   8.854 -0.4681  0.1624 -0.1420
  412MOL0     C56775   7.560   4.902   8.751 -1.4215 -0.0568 -0.5886
  412MOL0     C56776   7.675   4.881   8.683 -0.0188  0.4069 -0.8641
  412MOL0     O56777   7.707   4.975   8.586  0.4180 -0.0428 -0.0591
  412MOL0     C56778   7.820   4.958   8.508 -0.2645  0.3181  0.1017
  412MOL0     C56779   7.941   5.033   8.568  0.1984  0.4967 -0.7683
  412MOL0     C56780   8.065   5.046   8.474 -0.3000 -0.1162 -1.1418
  412MOL0     C56781   8.182   5.111   8.541 -0.6820 -0.4112 -0.2563
  412MOL0     C56782   8.280   5.143   8.442 -0.5048 -0.2077  0.8284
  412MOL0     C56783   8.377   5.162   8.365 -0.0739  0.0990 -0.2750
  412MOL0     C56784   7.752   4.779   8.729 -0.3049 -0.3742  0.3785
  412MOL0     C56785   7.715   4.684   8.823 -0.4325 -0.5543 -0.0770
  412MOL0     C56786   7.811   4.567   8.830 -0.4770  0.0640 -0.1277
  412MOL0     H56787   7.244   4.677   9.214  0.4613  0.1811 -1.3905
  412MOL0     H56788   7.133   4.533   9.372 -1.7496 -0.1160 -1.8067
  412MOL0     H56789   7.302   4.112   9.445  0.3581 -2.2905 -1.1352
  412MOL0     H56790   7.194   4.079   9.308 -0.4112 -0.0648  0.2012
  412MOL0     H56791   7.081   4.155   9.569  1.8290  2.6390 -1.6404
  412MOL0     H56792   7.004   4.063   9.440 -1.4555  0.9548  1.9191
  412MOL0     H56793   7.197   3.880   9.454  0.5696 -1.5993  1.9011
  412MOL0     H56794   7.236   3.952   9.604  1.6691 -2.7197 -0.5998
  412MOL0     H56795   7.097   3.792   9.684 -1.9630 -1.1019  0.3929
  412MOL0     H56796   6.978   3.923   9.663  0.0946 -1.5152  1.2123
  412MOL0     H56797   6.929   3.687   9.597  1.2442 -1.5807  0.0673
  412MOL0     H56798   7.063   3.686   9.487 -0.2675  0.8347 -0.0730
  412MOL0     H56799   6.817   3.864   9.451 -0.2252  1.1340 -0.2123
  412MOL0     H56800   6.942   3.878   9.344  2.0586  0.1580  1.2684
  412MOL0     H56801   6.764   3.721   9.273  0.7471  3.1857 -1.0561
  412MOL0     H56802   6.814   3.617   9.408 -0.4921  0.1106 -1.0164
  412MOL0     H56803   6.994   3.650   9.168 -1.7912 -0.5363 -2.6790
  412MOL0     H56804   7.010   3.525   9.305  0.6177  0.1192  0.1632
  412MOL0     H56805   6.970   3.318   9.167  1.3804  2.2115  2.0601
  412MOL0     H56806   6.733   3.236   8.867  1.0757 -0.8045 -0.1622
  412MOL0     H56807   6.792   3.148   9.009  0.9832 -0.8730  0.6793
  412MOL0     H56808   6.973   3.289   8.796 -1.6439  0.8174  1.5126
  412MOL0     H56809   7.020   3.192   8.941 -0.1300  1.0391  2.2198
  412MOL0     H56810   6.919   3.000   8.841  1.1950 -0.3300 -0.7329
  412MOL0     H56811   6.824   3.080   8.722 -0.4284 -2.0334  1.3422
  412MOL0     H56812   7.118   3.124   8.708 -0.5519  0.9579  0.4390
  412MOL0     H56813   7.030   2.979   8.624  0.8271  0.4636 -0.3275
  412MOL0     H56814   7.212   3.045   8.498  0.0064  0.5730  0.6544
  412MOL0     H56815   7.419   3.015   8.234  0.4771  0.9474 -0.0857
  412MOL0     H56816   7.432   3.031   8.410 -0.6381  1.4223  1.3356
  412MOL0     H56817   7.474   3.166   8.313 -1.1414  1.3769  0.2407
  412MOL0     H56818   7.291   3.183   7.765 -0.3069  0.9755  0.8138
  412MOL0     H56819   7.479   3.249   7.601 -0.3280 -0.1676  0.2862
  412MOL0     H56820   7.892   3.268   7.754 -1.5299 -0.5637  1.1851
  412MOL0     H56821   7.858   3.096   7.718 -1.7884 -0.5536 -0.4219
  412MOL0     H56822   7.892   3.101   7.497  0.6977  0.6874 -1.7678
  412MOL0     H56823   7.903   3.277   7.500 -0.1514 -0.2874 -0.5462
  412MOL0     H56824   8.089   3.080   7.638  2.1325  1.0664  1.8623
  412MOL0     H56825   8.130   3.257   7.624 -2.3882  2.7836 -2.5238
  412MOL0     H56826   8.153   3.247   7.391 -1.3546  0.4488  0.2441
  412MOL0     H56827   8.082   3.082   7.379  0.5873 -1.3929  0.2116
  412MOL0     H56828   8.346   3.139   7.503 -2.0397  2.9531  2.4218
  412MOL0     H56829   8.269   2.988   7.508  1.0250  0.6354  0.6595
  412MOL0     H56830   8.312   3.134   7.241 -1.2399 -0.7455 -0.3257
  412MOL0     H56831   8.238   2.973   7.266  1.1287 -1.8562 -0.4580
  412MOL0     H56832   8.444   2.882   7.360  1.1338 -0.0120 -0.1181
  412MOL0     H56833   8.535   3.022   7.360  1.3877 -1.8930 -0.5851
  412MOL0     H56834   8.433   2.895   7.100 -1.6174  0.1797  0.1304
  412MOL0     H56835   8.596   2.888   7.172 -1.4382 -2.2118 -0.0471
  412MOL0     H56836   7.757   3.179   7.915  0.6609 -5.5393 -0.9804
  412MOL0     H56837   7.579   3.098   8.064 -2.6068 -1.1080  0.0838
  412MOL0     H56838   7.035   3.345   8.153  1.5721  0.7507 -0.8434
  412MOL0     H56839   6.912   3.316   8.375 -0.2487 -1.2208  2.2402
  412MOL0     H56840   7.376   4.206   9.247 -3.6092 -0.0479  3.4654
  412MOL0     H56841   7.493   4.359   9.078 -0.8618  1.4868 -1.8508
  412MOL0     H56842   7.425   4.828   8.904 -1.2110  0.4374 -1.5495
  412MOL0     H56843   7.500   4.989   8.725 -0.7605  1.8954  3.5103
  412MOL0     H56844   7.847   4.852   8.500  1.2008  0.6379  0.4686
  412MOL0     H56845   7.807   5.005   8.410  0.2684 -0.5322 -0.3966
  412MOL0     H56846   7.982   4.976   8.652 -1.1802  1.8591  0.9136
  412MOL0     H56847   7.908   5.132   8.603  3.4838  1.3631  0.1918
  412MOL0     H56848   8.094   4.945   8.444 -0.1083 -0.5182  0.3289
  412MOL0     H56849   8.027   5.096   8.384 -0.1199 -0.8501 -1.6304
  412MOL0     H56850   8.224   5.046   8.619 -0.9908  0.6371  0.8277
  412MOL0     H56851   8.158   5.206   8.589  0.3720 -0.8199  1.1479
  412MOL0     H56852   8.458   5.178   8.296  0.6357  3.4222  1.1167
  412MOL0     H56853   7.852   4.772   8.688 -0.7473 -1.2409 -0.6075
  412MOL0     H56854   7.774   4.481   8.887  1.9901 -0.4604  0.8228
  412MOL0     H56855   7.838   4.526   8.733 -2.4461 -2.8557  0.4541
  412MOL0     H56856   7.906   4.590   8.881 -0.4819  0.2297 -0.1939
  413MOL0     O56857   9.691   6.003   4.248 -0.4320  0.6838  0.2981
  413MOL0     C56858   9.688   5.962   4.134 -0.3784 -0.0652 -0.4403
  413MOL0     O56859   9.791   5.972   4.045 -0.3306  0.4117  0.0904
  413MOL0     C56860   9.900   6.032   4.101  1.7111 -0.1455 -0.8673
  413MOL0     C56861   9.924   6.164   4.088  0.1196 -0.8419  0.2398
  413MOL0     C56862  10.040   6.219   4.140  0.2819 -0.2087  0.9420
  413MOL0     C56863  10.131   6.140   4.211 -0.6164  0.6820 -0.2988
  413MOL0     O56864  10.247   6.188   4.269 -0.8130 -0.3160 -0.5658
  413MOL0     C56865  10.251   6.328   4.294  0.6578  0.3984  1.1473
  413MOL0     C56866  10.384   6.354   4.359 -0.6049 -0.3189  0.3425
  413MOL0     C56867  10.498   6.360   4.257 -0.8380  0.0167 -1.2203
  413MOL0     C56868  10.624   6.338   4.347 -0.9845  0.6772 -0.1194
  413MOL0     C56869  10.749   6.425   4.303  0.3222  0.8314  0.1250
  413MOL0     C56870  10.756   6.559   4.367 -0.5899  0.8101 -0.0038
  413MOL0     C56871  10.870   6.640   4.305 -0.3983  0.3638 -0.0848
  413MOL0     C56872  10.887   6.777   4.365  0.2215  0.3680 -0.6617
  413MOL0     N56873  11.002   6.848   4.303 -0.0633 -0.3353 -0.4735
  413MOL0     C56874  11.092   6.922   4.360  0.0057  0.2796 -0.9757
  413MOL0     C56875  11.155   6.980   4.263 -0.9029 -0.5082 -0.5088
  413MOL0     C56876  11.286   7.051   4.281  0.6453 -0.8353  0.5449
  413MOL0     C56877  11.396   6.952   4.315 -0.4732  0.1405  0.2891
  413MOL0     C56878  11.538   7.021   4.315  0.3348 -0.7632 -0.5175
  413MOL0     C56879  11.651   6.940   4.281 -1.4022 -0.0918 -0.1390
  413MOL0     O56880  11.664   6.819   4.356  0.3172  0.1586  0.2232
  413MOL0     C56881  11.785   6.759   4.361 -0.0920  0.0363 -0.0020
  413MOL0     C56882  11.894   6.770   4.275 -0.0061 -0.7610 -0.1070
  413MOL0     C56883  12.011   6.687   4.289  0.1420  0.1632 -1.0017
  413MOL0     C56884  12.138   6.727   4.215  0.6099 -0.3210 -0.2775
  413MOL0     C56885  12.012   6.581   4.384 -0.1410 -0.2230  0.4094
  413MOL0     C56886  12.121   6.486   4.403  0.9590  0.1459  0.0503
  413MOL0     O56887  12.146   6.464   4.538 -0.0579 -0.6431  0.7485
  413MOL0     C56888  12.215   6.348   4.580  0.2049 -0.3291  0.4060
  413MOL0     C56889  12.244   6.350   4.713  0.6823  0.6795 -0.6869
  413MOL0     C56890  12.305   6.242   4.773 -0.0887 -0.0853  0.3659
  413MOL0     C56891  12.318   6.124   4.706 -0.4842  0.3489 -0.4496
  413MOL0     O56892  12.391   6.024   4.770  0.0831 -0.0923 -0.7667
  413MOL0     C56893  12.379   5.879   4.719  0.3135 -0.5660 -0.1060
  413MOL0     C56894  12.483   5.791   4.789  0.2435 -0.2106  0.9706
  413MOL0     C56895  12.467   5.789   4.939  0.0945 -0.6131  0.3701
  413MOL0     C56896  12.358   5.693   4.993 -0.0585 -0.0653 -1.0209
  413MOL0     C56897  12.322   5.709   5.150 -0.5409 -0.3068 -0.1897
  413MOL0     C56898  12.220   5.602   5.207 -0.4321 -0.3211 -1.0550
  413MOL0     C56899  12.179   5.617   5.358  0.5860  0.3521 -0.1110
  413MOL0     C56900  12.142   5.485   5.425 -0.7743  0.3832  0.1158
  413MOL0    Cl56901  11.979   5.438   5.384 -0.3133 -0.0090 -0.2186
  413MOL0     C56902  12.265   6.118   4.577 -0.6129  0.5060  0.5513
  413MOL0     C56903  12.228   6.231   4.508  0.2239 -0.3279  0.0491
  413MOL0     O56904  12.180   6.437   4.310  0.1841  0.8643  0.5378
  413MOL0     C56905  11.894   6.567   4.465 -0.1352 -0.2378  0.0846
  413MOL0     C56906  11.790   6.660   4.463  0.5946  0.6695 -0.5612
  413MOL0     N56907  11.111   6.949   4.145 -0.3871  0.0477  0.3553
  413MOL0     N56908  11.013   6.868   4.169 -0.3520 -1.3024 -0.3157
  413MOL0     C56909  10.107   6.002   4.234 -0.7171 -0.0721  0.5111
  413MOL0     C56910   9.992   5.944   4.170  0.3258 -0.1026  0.0555
  413MOL0     C56911   9.567   5.895   4.079  0.9707 -0.5752 -0.1783
  413MOL0     C56912   9.581   5.831   3.958 -1.0192  0.1354  0.7016
  413MOL0     C56913   9.475   5.780   3.883  0.0499  0.9297 -0.8095
  413MOL0     C56914   9.350   5.765   3.949 -0.6177 -0.2034 -0.0309
  413MOL0     O56915   9.231   5.709   3.896  0.7939 -0.1313 -0.1423
  413MOL0     C56916   9.246   5.655   3.761 -0.4042  0.2615  0.0477
  413MOL0     C56917   9.116   5.606   3.723  0.2382  0.2372  0.0220
  413MOL0     C56918   9.121   5.526   3.596 -0.2339 -0.7286  0.9362
  413MOL0     C56919   9.003   5.439   3.575 -0.2836  0.1574  0.1234
  413MOL0     C56920   8.890   5.520   3.519 -0.3659 -0.3747  0.3590
  413MOL0     C56921   8.807   5.607   3.477 -0.0480  0.4175 -0.0539
  413MOL0     C56922   9.332   5.819   4.080  0.5681 -0.0342  0.0935
  413MOL0     C56923   9.442   5.872   4.145  0.0835 -0.2764 -0.2144
  413MOL0     C56924   9.424   5.903   4.295 -0.2780  0.2979  0.2228
  413MOL0     H56925   9.856   6.228   4.033  1.3874  2.4398  2.2352
  413MOL0     H56926  10.064   6.324   4.128 -2.3743  0.4794  1.0726
  413MOL0     H56927  10.166   6.357   4.357 -0.3259 -2.1970  1.1722
  413MOL0     H56928  10.254   6.384   4.200  3.1372 -0.2244  0.7981
  413MOL0     H56929  10.387   6.439   4.428  0.7916  1.3303 -1.6085
  413MOL0     H56930  10.402   6.268   4.425  1.1077 -0.0736  0.2586
  413MOL0     H56931  10.474   6.279   4.188 -3.2671 -1.0120  0.6664
  413MOL0     H56932  10.494   6.457   4.207  0.7362  0.5370 -0.4150
  413MOL0     H56933  10.608   6.366   4.452 -0.6278  0.5519 -0.0292
  413MOL0     H56934  10.653   6.233   4.332 -0.1029  0.8607  0.2159
  413MOL0     H56935  10.745   6.432   4.193  0.2328  0.1281  0.0763
  413MOL0     H56936  10.843   6.374   4.322 -0.3398 -0.1339  0.8750
  413MOL0     H56937  10.658   6.602   4.343 -0.8579 -0.8528 -2.1976
  413MOL0     H56938  10.771   6.549   4.475  2.9631 -0.9545 -0.4906
  413MOL0     H56939  10.847   6.648   4.198  0.1683 -2.3083 -0.4799
  413MOL0     H56940  10.958   6.577   4.321 -0.0883  0.6157 -0.7771
  413MOL0     H56941  10.795   6.833   4.344  0.9111  1.0733 -1.9168
  413MOL0     H56942  10.897   6.761   4.473 -1.4492 -1.9623 -0.7780
  413MOL0     H56943  11.104   6.915   4.468  1.5403 -1.4933 -1.2109
  413MOL0     H56944  11.283   7.132   4.355 -0.5086  0.4048 -0.7926
  413MOL0     H56945  11.304   7.107   4.188 -0.8788  1.3368  1.4856
  413MOL0     H56946  11.381   6.908   4.414 -0.3208 -1.6491 -0.4591
  413MOL0     H56947  11.388   6.868   4.246 -0.0969 -1.1415  1.7481
  413MOL0     H56948  11.536   7.110   4.251  1.6402  0.3699  0.9349
  413MOL0     H56949  11.553   7.069   4.412  3.3548  1.6898 -2.0080
  413MOL0     H56950  11.652   6.912   4.175 -2.7725  2.0043 -0.7745
  413MOL0     H56951  11.738   7.005   4.289  0.9313 -3.0388 -0.0544
  413MOL0     H56952  11.896   6.845   4.197 -1.0998  0.2383  0.7731
  413MOL0     H56953  12.120   6.782   4.122  1.3677  2.4519  1.1055
  413MOL0     H56954  12.200   6.639   4.201  0.6406 -0.3477  0.0370
  413MOL0     H56955  12.196   6.789   4.284 -0.5568 -0.0060  0.4444
  413MOL0     H56956  12.229   6.440   4.772 -0.6763 -1.0845  1.8455
  413MOL0     H56957  12.346   6.251   4.874  0.0213 -1.6046  0.4757
  413MOL0     H56958  12.281   5.843   4.750  1.1046 -1.1466  1.8371
  413MOL0     H56959  12.404   5.882   4.612  2.2257  5.2007  0.1515
  413MOL0     H56960  12.495   5.689   4.750  2.6062  0.9374 -1.6299
  413MOL0     H56961  12.577   5.842   4.767  0.4672 -0.3467  1.6108
  413MOL0     H56962  12.439   5.889   4.974  0.4818 -1.2905  2.8415
  413MOL0     H56963  12.551   5.748   4.995  0.7479  0.9263  0.5516
  413MOL0     H56964  12.393   5.590   4.979 -0.2124 -0.0449 -1.5858
  413MOL0     H56965  12.263   5.697   4.939 -1.9809  0.9676  2.1536
  413MOL0     H56966  12.417   5.699   5.203  1.8564  1.1721 -3.8454
  413MOL0     H56967  12.284   5.808   5.176  0.9440 -0.2154  1.9434
  413MOL0     H56968  12.265   5.503   5.188  1.9344  0.8375 -1.9231
  413MOL0     H56969  12.139   5.613   5.135  0.2036 -0.7596 -1.8538
  413MOL0     H56970  12.087   5.677   5.358  0.3991  0.1289  1.6155
  413MOL0     H56971  12.252   5.668   5.422  0.5305  5.5618 -3.5940
  413MOL0     H56972  12.151   5.507   5.532  3.1205  0.3238 -0.0735
  413MOL0     H56973  12.219   5.408   5.410  0.4014  1.0420  2.3429
  413MOL0     H56974  12.272   6.022   4.528 -1.9164 -0.5317  2.2862
  413MOL0     H56975  12.179   6.219   4.412  0.3266  1.5297 -0.2704
  413MOL0     H56976  11.889   6.472   4.517 -0.9452 -0.6077 -0.6439
  413MOL0     H56977  11.717   6.656   4.542 -1.0443 -1.2344 -2.0587
  413MOL0     H56978  10.160   5.924   4.289 -3.2121 -3.2306 -1.2046
  413MOL0     H56979   9.976   5.839   4.192 -0.5130  0.1566  0.7287
  413MOL0     H56980   9.682   5.817   3.919 -0.4115  2.4966  1.2547
  413MOL0     H56981   9.480   5.726   3.790  1.3355 -2.8350  1.2251
  413MOL0     H56982   9.275   5.728   3.685  2.8301 -1.2167 -0.2788
  413MOL0     H56983   9.325   5.580   3.761 -0.8660 -0.2489  1.0543
  413MOL0     H56984   9.055   5.694   3.702  3.3506  2.6706  0.4122
  413MOL0     H56985   9.072   5.544   3.803  1.4093  0.2033  0.6534
  413MOL0     H56986   9.139   5.593   3.511 -2.5123  0.1926  1.0915
  413MOL0     H56987   9.203   5.456   3.613  0.2002 -0.6123 -0.5319
  413MOL0     H56988   8.966   5.394   3.668  0.3678  2.2536  1.4543
  413MOL0     H56989   9.036   5.368   3.498 -0.0476  2.8438 -2.4305
  413MOL0     H56990   8.733   5.667   3.427 -1.3191 -1.4956 -0.5698
  413MOL0     H56991   9.236   5.800   4.127  0.7639 -0.5597  0.2839
  413MOL0     H56992   9.498   5.851   4.356 -0.8094 -1.2323 -0.3728
  413MOL0     H56993   9.421   6.009   4.322  1.2191 -0.1361  2.3163
  413MOL0     H56994   9.328   5.856   4.321  0.1411 -2.1047 -2.1168
  414MOL0     O56995   3.379  10.065   8.212  0.0343 -0.0072  0.1057
  414MOL0     C56996   3.269  10.109   8.173 -0.6099 -0.3065  0.7578
  414MOL0     O56997   3.150  10.060   8.208 -0.0675 -0.1263 -0.2948
  414MOL0     C56998   3.147   9.949   8.293 -0.2929 -0.3596 -0.5602
  414MOL0     C56999   3.220   9.833   8.272 -0.1448  0.2915  0.4422
  414MOL0     C57000   3.185   9.722   8.347 -0.0753  0.7687 -0.0286
  414MOL0     C57001   3.073   9.717   8.440 -0.3523 -0.0879  1.0688
  414MOL0     O57002   3.029   9.603   8.512 -0.6472 -0.5861 -0.0520
  414MOL0     C57003   2.995   9.622   8.648 -0.6621  0.5452 -0.3332
  414MOL0     C57004   3.021   9.490   8.717 -0.5395 -0.7402 -0.3067
  414MOL0     C57005   3.166   9.499   8.763  0.0787  1.0670  0.0346
  414MOL0     C57006   3.184   9.587   8.892 -0.0579  0.6437  0.3279
  414MOL0     C57007   3.323   9.571   8.963  0.5340  0.5889  0.3124
  414MOL0     C57008   3.319   9.612   9.117  0.4136 -0.4437 -0.1677
  414MOL0     C57009   3.277   9.756   9.138  0.0450 -0.1505  0.1485
  414MOL0     C57010   3.388   9.853   9.097 -1.2263 -0.1487  0.0260
  414MOL0     N57011   3.511   9.861   9.176 -0.1435 -0.1847  1.2732
  414MOL0     C57012   3.632   9.811   9.141  0.3170 -0.2910 -0.1414
  414MOL0     C57013   3.712   9.805   9.252  0.5240  0.5455  0.8651
  414MOL0     C57014   3.858   9.767   9.265 -0.7211  0.3922  0.6455
  414MOL0     C57015   3.951   9.877   9.210 -0.6789 -0.1039 -0.2967
  414MOL0     C57016   4.092   9.834   9.228  0.2318  0.0855 -0.0098
  414MOL0     C57017   4.185   9.956   9.243 -0.0873  0.3976  0.8441
  414MOL0     O57018   4.316   9.909   9.200 -0.1513 -0.8792  0.7061
  414MOL0     C57019   4.416  10.007   9.194 -0.3051  0.2235  0.4184
  414MOL0     C57020   4.408  10.133   9.255 -0.1963  0.0918 -0.3286
  414MOL0     C57021   4.513  10.229   9.255  0.0743  0.1778  1.3046
  414MOL0     C57022   4.484  10.363   9.320 -1.0253  0.0900 -0.3810
  414MOL0     C57023   4.631  10.191   9.185  0.5021 -0.0978  0.0801
  414MOL0     C57024   4.757  10.276   9.194  0.6889 -0.0553 -0.6088
  414MOL0     O57025   4.865  10.226   9.121  0.0986  0.4282  0.2193
  414MOL0     C57026   4.989  10.288   9.131  0.7329 -0.0939  0.5548
  414MOL0     C57027   5.049  10.346   9.013 -0.4297 -0.9443  0.0421
  414MOL0     C57028   5.173  10.400   9.026  0.0663 -0.9239 -0.1670
  414MOL0     C57029   5.237  10.415   9.149 -1.0876  0.7494 -0.0740
  414MOL0     O57030   5.377  10.461   9.156 -0.1377 -0.7289 -0.5876
  414MOL0     C57031   5.428  10.546   9.048 -1.0307 -0.2142  0.0596
  414MOL0     C57032   5.558  10.592   9.095 -0.0078 -0.2888  1.1231
  414MOL0     C57033   5.537  10.711   9.182 -0.6919  0.8549 -0.4617
  414MOL0     C57034   5.671  10.760   9.251 -0.3519  0.1876 -0.6083
  414MOL0     C57035   5.768  10.831   9.164 -0.1257  0.1779  0.2412
  414MOL0     C57036   5.912  10.829   9.223  0.5039  0.1443 -0.3460
  414MOL0     C57037   6.011  10.880   9.110 -0.7532 -0.3944  0.4194
  414MOL0     C57038   6.160  10.884   9.156 -0.2485  0.2167 -0.4283
  414MOL0    Cl57039   6.253  10.912   9.015 -0.2484 -0.0227  0.2619
  414MOL0     C57040   5.172  10.377   9.263  0.5474 -0.6626 -0.5350
  414MOL0     C57041   5.047  10.319   9.255 -0.2503  0.8667 -0.0201
  414MOL0     O57042   4.757  10.392   9.243 -0.0866 -0.6597 -0.4119
  414MOL0     C57043   4.632  10.066   9.113  0.0936 -0.1953 -0.0493
  414MOL0     C57044   4.532   9.979   9.120 -0.1890  0.7100 -0.0534
  414MOL0     N57045   3.639   9.862   9.355  0.5424  0.2177  0.5075
  414MOL0     N57046   3.524   9.899   9.307 -0.6316  0.3881 -0.1664
  414MOL0     C57047   2.996   9.838   8.448 -0.6715  0.4510  0.2668
  414MOL0     C57048   3.039   9.950   8.379  0.4849  0.3072  0.5295
  414MOL0     C57049   3.281  10.225   8.086 -0.9069 -0.0402  0.6292
  414MOL0     C57050   3.402  10.298   8.068  0.1912 -0.7747  0.5712
  414MOL0     C57051   3.423  10.397   7.977  0.1093  0.1030 -0.2291
  414MOL0     C57052   3.323  10.431   7.884  0.1731  0.0160 -0.9910
  414MOL0     O57053   3.359  10.524   7.790 -0.2753  0.0709  0.4245
  414MOL0     C57054   3.266  10.561   7.687 -0.4503 -0.0987  0.4841
  414MOL0     C57055   3.309  10.692   7.613 -0.0583 -0.0760 -0.9193
  414MOL0     C57056   3.194  10.789   7.557  0.1844 -0.5875  0.1727
  414MOL0     C57057   3.156  10.903   7.654 -0.2425 -0.2642 -0.0947
  414MOL0     C57058   3.262  10.992   7.684 -0.5040  0.5201  0.4776
  414MOL0     C57059   3.352  11.066   7.706 -0.4587  0.4441 -0.7208
  414MOL0     C57060   3.200  10.361   7.894 -0.6923 -0.3033 -0.1659
  414MOL0     C57061   3.178  10.256   7.986  0.2236  0.1626 -0.6518
  414MOL0     C57062   3.047  10.184   7.969 -0.2027  0.0095 -0.4908
  414MOL0     H57063   3.303   9.828   8.202 -0.5681 -1.3814  0.0255
  414MOL0     H57064   3.241   9.630   8.331 -1.4899 -0.4762  1.6775
  414MOL0     H57065   2.889   9.647   8.653 -1.0370 -1.2026  1.6395
  414MOL0     H57066   3.049   9.709   8.687 -2.4835  0.5459  2.4989
  414MOL0     H57067   2.963   9.477   8.809  0.2351 -0.0591  0.2924
  414MOL0     H57068   3.006   9.402   8.654 -0.2084 -1.5033  0.6566
  414MOL0     H57069   3.196   9.396   8.786  2.5032  1.5485 -0.7496
  414MOL0     H57070   3.232   9.525   8.680 -1.2281  0.2829 -1.3066
  414MOL0     H57071   3.180   9.693   8.868  2.2005  0.6559 -0.2317
  414MOL0     H57072   3.108   9.562   8.966 -0.6282 -3.7718 -1.4101
  414MOL0     H57073   3.396   9.631   8.906  2.1983 -2.5349 -1.1261
  414MOL0     H57074   3.363   9.471   8.947  0.8993  0.4642  1.8683
  414MOL0     H57075   3.245   9.549   9.166  0.0827 -0.0458 -0.1454
  414MOL0     H57076   3.410   9.588   9.172  1.1788 -0.7767 -1.5286
  414MOL0     H57077   3.252   9.774   9.242 -0.0615  2.1966 -0.2389
  414MOL0     H57078   3.184   9.775   9.082  0.1240  3.3054  0.9557
  414MOL0     H57079   3.403   9.853   8.989 -1.3640 -1.4083 -0.0038
  414MOL0     H57080   3.344   9.952   9.112  0.0815  0.5643 -0.6285
  414MOL0     H57081   3.655   9.776   9.040 -0.8626 -0.2826 -0.4322
  414MOL0     H57082   3.886   9.678   9.208 -2.1539  0.3792 -0.0847
  414MOL0     H57083   3.884   9.746   9.369 -1.8360 -3.1338  0.3299
  414MOL0     H57084   3.928   9.890   9.104 -0.9714 -3.1352 -0.6725
  414MOL0     H57085   3.921   9.967   9.265  1.0219 -0.4079  1.2170
  414MOL0     H57086   4.104   9.782   9.324 -0.7688 -1.2732 -0.5923
  414MOL0     H57087   4.115   9.760   9.150 -2.0394 -1.3252  0.5597
  414MOL0     H57088   4.156  10.043   9.183  0.0710 -1.6476 -2.4621
  414MOL0     H57089   4.184   9.978   9.350  0.2366  3.0025  0.3572
  414MOL0     H57090   4.314  10.159   9.303  1.5504  0.8003  3.0230
  414MOL0     H57091   4.525  10.443   9.258 -1.5489 -1.6596 -3.1724
  414MOL0     H57092   4.540  10.374   9.413 -1.0314  0.3321 -0.4072
  414MOL0     H57093   4.380  10.398   9.327  0.0561  3.3010  2.1693
  414MOL0     H57094   5.007  10.331   8.914  2.3415  0.1693 -1.3991
  414MOL0     H57095   5.223  10.440   8.938 -1.3055 -1.0570 -1.0364
  414MOL0     H57096   5.442  10.487   8.957 -0.7270  1.8168 -1.2827
  414MOL0     H57097   5.360  10.629   9.028 -2.3262 -1.1925  0.2716
  414MOL0     H57098   5.608  10.508   9.143  0.7781  1.8340  4.3036
  414MOL0     H57099   5.616  10.633   9.011  0.7581  2.3213  2.7932
  414MOL0     H57100   5.464  10.676   9.256  0.2864 -1.3173 -0.4238
  414MOL0     H57101   5.488  10.795   9.133 -0.8452  0.4669 -0.9806
  414MOL0     H57102   5.720  10.678   9.305 -0.8279 -2.4258 -3.8264
  414MOL0     H57103   5.635  10.822   9.334  1.1221 -1.4461  1.3572
  414MOL0     H57104   5.769  10.786   9.065  0.8912 -2.0205  1.1743
  414MOL0     H57105   5.732  10.933   9.148 -0.4649 -0.1358 -1.1581
  414MOL0     H57106   5.931  10.723   9.241 -0.3686  0.2849  1.6672
  414MOL0     H57107   5.926  10.890   9.313 -1.1159 -0.7345  0.5344
  414MOL0     H57108   5.994  10.986   9.086 -0.0350 -0.5656 -0.9454
  414MOL0     H57109   5.999  10.815   9.023  0.4705 -0.4620  0.2819
  414MOL0     H57110   6.189  10.783   9.184 -2.9668 -0.1382  1.5112
  414MOL0     H57111   6.174  10.960   9.234  0.6547 -0.5535  0.1810
  414MOL0     H57112   5.212  10.403   9.360 -0.7940 -0.6272  0.0354
  414MOL0     H57113   5.004  10.291   9.350  0.5673  2.1980  0.7663
  414MOL0     H57114   4.717  10.046   9.048  0.9001 -0.6042  1.0942
  414MOL0     H57115   4.533   9.883   9.069  0.2385  0.4387  0.4615
  414MOL0     H57116   2.913   9.844   8.517 -1.7380 -0.6349 -0.8579
  414MOL0     H57117   2.977  10.038   8.394 -2.5774 -1.3372 -1.4612
  414MOL0     H57118   3.475  10.269   8.143  0.9212 -1.2636 -0.3020
  414MOL0     H57119   3.519  10.447   7.972  0.3368 -0.4208 -1.6876
  414MOL0     H57120   3.257  10.479   7.614  0.2872 -1.3129  1.7038
  414MOL0     H57121   3.167  10.580   7.728 -0.1709 -0.3058  1.2635
  414MOL0     H57122   3.383  10.664   7.538 -0.0928  1.5743 -1.6078
  414MOL0     H57123   3.375  10.737   7.688  0.1392 -3.5445  1.2505
  414MOL0     H57124   3.238  10.845   7.474  0.1413 -0.3900  0.2831
  414MOL0     H57125   3.103  10.735   7.529  1.0530 -0.3533 -3.5889
  414MOL0     H57126   3.118  10.849   7.741  0.8350 -1.1145 -0.1287
  414MOL0     H57127   3.073  10.961   7.613 -0.5316 -0.6561 -0.0712
  414MOL0     H57128   3.435  11.129   7.730 -0.6089  0.4847 -0.3171
  414MOL0     H57129   3.118  10.403   7.836  1.4925  1.6754 -1.9962
  414MOL0     H57130   2.982  10.224   8.046 -0.3184 -0.5577 -0.2857
  414MOL0     H57131   2.997  10.196   7.872  2.2637  0.6440 -1.7687
  414MOL0     H57132   3.057  10.075   7.978 -0.5073 -0.0599 -0.9372
  415MOL0     O57133   5.773   8.095  10.170 -0.0656  0.2579 -0.2126
  415MOL0     C57134   5.685   8.132  10.093 -0.7461 -0.3619  0.1219
  415MOL0     O57135   5.586   8.049  10.042 -0.1135  0.7083 -0.1403
  415MOL0     C57136   5.593   7.909  10.060  0.7636  0.4924 -1.2776
  415MOL0     C57137   5.594   7.836  10.186 -0.8211 -0.5491 -0.3614
  415MOL0     C57138   5.582   7.693  10.196  0.0735 -0.6475  0.0750
  415MOL0     C57139   5.554   7.621  10.079  0.0868 -0.8315  0.7593
  415MOL0     O57140   5.527   7.487  10.084 -0.2524 -0.2759  0.1062
  415MOL0     C57141   5.640   7.404  10.044 -0.0858 -0.1454 -0.1526
  415MOL0     C57142   5.602   7.258  10.075 -0.8861  0.6741 -0.2855
  415MOL0     C57143   5.686   7.154  10.014  0.1246  0.8104  0.3134
  415MOL0     C57144   5.642   7.019  10.083  0.3219 -0.1263 -0.0283
  415MOL0     C57145   5.737   6.901  10.072  0.7927  0.1433  0.3219
  415MOL0     C57146   5.687   6.785  10.156 -0.0254  0.5804 -0.3406
  415MOL0     C57147   5.786   6.670  10.142  0.4694  0.2865  0.1924
  415MOL0     C57148   5.741   6.531  10.197 -0.6238 -0.2602  0.8945
  415MOL0     N57149   5.686   6.528  10.333  0.3907  0.3296  0.7045
  415MOL0     C57150   5.549   6.535  10.368  0.3169 -0.0456 -0.1445
  415MOL0     C57151   5.553   6.504  10.499 -0.6264 -0.6036 -0.0884
  415MOL0     C57152   5.430   6.485  10.583 -0.2961 -0.2900 -0.0064
  415MOL0     C57153   5.374   6.347  10.555 -0.3440 -0.9529 -0.0501
  415MOL0     C57154   5.249   6.311  10.637 -0.7440 -0.4269  0.2074
  415MOL0     C57155   5.130   6.394  10.589  0.3392 -0.4720 -0.2400
  415MOL0     O57156   5.079   6.347  10.460 -0.4406 -0.1690 -0.2178
  415MOL0     C57157   4.998   6.231  10.459 -0.1582 -0.8067 -0.2265
  415MOL0     C57158   4.975   6.146  10.572  0.3088 -0.4074 -0.0864
  415MOL0     C57159   4.898   6.033  10.556 -0.2308 -0.4855 -0.2928
  415MOL0     C57160   4.874   5.956  10.681  0.3649 -0.0418  0.1685
  415MOL0     C57161   4.843   6.003  10.432 -0.0726  0.1860 -0.4323
  415MOL0     C57162   4.757   5.881  10.414 -0.5657  0.2180  0.2949
  415MOL0     O57163   4.728   5.787  10.508  1.1614 -0.2174  0.5901
  415MOL0     C57164   4.626   5.701  10.488  0.0987  0.0952  0.7445
  415MOL0     C57165   4.645   5.586  10.402 -0.4511 -0.3766 -0.2517
  415MOL0     C57166   4.540   5.506  10.364  0.9110  0.4437  1.1798
  415MOL0     C57167   4.410   5.556  10.393  0.8257  0.4890 -0.0741
  415MOL0     O57168   4.300   5.500  10.342 -0.2748 -0.1175 -0.2600
  415MOL0     C57169   4.314   5.420  10.223  0.4480  0.3923 -0.1709
  415MOL0     C57170   4.175   5.363  10.184 -1.7220  0.7696 -0.4651
  415MOL0     C57171   4.080   5.473  10.123 -0.0725 -0.1296  0.2094
  415MOL0     C57172   3.938   5.412  10.099 -0.3649  0.1687 -0.4385
  415MOL0     C57173   3.853   5.505  10.012  0.9021  0.8406 -0.2172
  415MOL0     C57174   3.745   5.413   9.962  0.3479 -0.0310  0.5376
  415MOL0     C57175   3.661   5.488   9.855  0.5831  0.3020 -0.2859
  415MOL0     C57176   3.531   5.408   9.841 -0.3227  0.0234  0.0662
  415MOL0    Cl57177   3.444   5.482   9.699  0.3302 -0.4270 -0.0678
  415MOL0     C57178   4.388   5.666  10.473 -0.2351  0.0368 -0.2608
  415MOL0     C57179   4.494   5.736  10.522  0.4664  0.2805  0.2991
  415MOL0     O57180   4.708   5.874  10.296 -0.4393  0.0261  0.0523
  415MOL0     C57181   4.872   6.083  10.318 -0.3758  0.0118  0.0176
  415MOL0     C57182   4.954   6.191  10.331  0.2537  0.3048 -0.0856
  415MOL0     N57183   5.689   6.497  10.545  0.3024 -0.8364 -0.2715
  415MOL0     N57184   5.765   6.519  10.444  0.9571  0.3978  0.0805
  415MOL0     C57185   5.541   7.686   9.961  0.3327  0.3054  1.6302
  415MOL0     C57186   5.555   7.825   9.957  0.2262 -0.7981  0.0091
  415MOL0     C57187   5.684   8.273  10.043 -0.6892  1.0588 -0.2107
  415MOL0     C57188   5.617   8.375  10.112 -0.1419 -0.0238  1.2599
  415MOL0     C57189   5.621   8.503  10.062  0.4789 -0.3966  1.5482
  415MOL0     C57190   5.689   8.544   9.940 -0.9550 -0.3584 -1.0480
  415MOL0     O57191   5.690   8.673   9.891  0.4441  0.5043  0.5135
  415MOL0     C57192   5.575   8.709   9.808 -1.2422 -0.0931  0.9312
  415MOL0     C57193   5.514   8.858   9.847 -0.0817  0.7091  0.5983
  415MOL0     C57194   5.432   8.848   9.968  0.0683  1.1180  0.1426
  415MOL0     C57195   5.298   8.781   9.945  0.2338 -0.1680 -0.1855
  415MOL0     C57196   5.198   8.886   9.919  0.8713  1.0951 -0.2096
  415MOL0     C57197   5.123   8.976   9.908 -0.2592  1.0663 -0.2783
  415MOL0     C57198   5.766   8.443   9.884 -0.1518  0.0717  0.6209
  415MOL0     C57199   5.749   8.304   9.921 -0.0255 -0.9434  0.5663
  415MOL0     C57200   5.816   8.200   9.830  0.3034  0.1726 -0.9240
  415MOL0     H57201   5.607   7.903  10.271 -1.0444  0.9758 -1.4817
  415MOL0     H57202   5.582   7.635  10.287  0.3050 -1.9163 -0.7052
  415MOL0     H57203   5.734   7.437  10.091  1.1420 -0.4722 -2.2612
  415MOL0     H57204   5.647   7.407   9.935  0.7399  0.4227 -0.0903
  415MOL0     H57205   5.599   7.260  10.184  0.0928  0.3771 -0.2513
  415MOL0     H57206   5.503   7.247  10.030 -0.3722 -2.0824 -0.8927
  415MOL0     H57207   5.671   7.153   9.906  0.0984 -0.2099  0.3180
  415MOL0     H57208   5.785   7.175  10.055 -0.2842 -0.2566  1.9715
  415MOL0     H57209   5.631   7.044  10.189  1.4084 -0.4001  0.1646
  415MOL0     H57210   5.548   6.996  10.032  0.8267  0.9286 -1.5035
  415MOL0     H57211   5.831   6.932  10.119  1.1411 -0.1488 -0.1721
  415MOL0     H57212   5.746   6.867   9.969  0.7085 -1.6631  0.8642
  415MOL0     H57213   5.668   6.806  10.261 -3.9368 -3.0191 -0.0284
  415MOL0     H57214   5.592   6.763  10.107 -0.9060 -1.8516  2.1937
  415MOL0     H57215   5.883   6.707  10.177  2.2789 -1.5032 -2.4873
  415MOL0     H57216   5.798   6.650  10.035  4.0689 -1.0391  0.7079
  415MOL0     H57217   5.661   6.500  10.129 -1.1311  1.3468  0.7074
  415MOL0     H57218   5.823   6.462  10.183 -2.2008 -2.4791  1.9647
  415MOL0     H57219   5.467   6.523  10.298  0.1019 -2.3171  0.3945
  415MOL0     H57220   5.357   6.561  10.556 -1.9109 -1.9154 -0.4510
  415MOL0     H57221   5.441   6.493  10.692  1.5622  0.7885 -0.2408
  415MOL0     H57222   5.340   6.336  10.452 -0.9102 -0.4948  0.0855
  415MOL0     H57223   5.454   6.273  10.565 -0.4522 -0.9400  1.0402
  415MOL0     H57224   5.230   6.204  10.625 -1.2633 -0.5436  1.8779
  415MOL0     H57225   5.270   6.332  10.742 -0.4439 -2.6426  0.6295
  415MOL0     H57226   5.051   6.384  10.664 -1.7476  3.6419 -1.5861
  415MOL0     H57227   5.160   6.499  10.591  2.3214 -0.8802 -2.9354
  415MOL0     H57228   5.024   6.181  10.663 -0.1764 -0.3500  0.1571
  415MOL0     H57229   4.930   5.862  10.687 -0.7787 -0.6933  0.9889
  415MOL0     H57230   4.772   5.920  10.692  1.3689 -3.2197  0.1798
  415MOL0     H57231   4.901   5.997  10.779 -3.6696 -1.9669  2.3159
  415MOL0     H57232   4.749   5.562  10.383  1.3081  2.6955  4.0475
  415MOL0     H57233   4.556   5.414  10.308  0.2475  0.5575  0.7953
  415MOL0     H57234   4.371   5.476  10.148 -1.5596  1.7395 -0.7719
  415MOL0     H57235   4.379   5.335  10.245 -1.6355 -1.3097 -0.2879
  415MOL0     H57236   4.199   5.296  10.102  3.1121  1.4240  0.1185
  415MOL0     H57237   4.134   5.309  10.270  0.3671  0.7617  0.6072
  415MOL0     H57238   4.129   5.490  10.027 -2.1295 -2.7958 -1.4620
  415MOL0     H57239   4.084   5.567  10.179  0.2904  0.7805 -1.3054
  415MOL0     H57240   3.892   5.381  10.194 -1.3211 -3.1276 -1.8327
  415MOL0     H57241   3.956   5.321  10.041 -4.7303 -1.5371  0.5067
  415MOL0     H57242   3.821   5.589  10.074  2.3381  0.9227  0.4714
  415MOL0     H57243   3.915   5.550   9.934  1.5966 -1.0130 -0.8108
  415MOL0     H57244   3.674   5.380  10.038 -2.9556  3.1570 -0.8406
  415MOL0     H57245   3.793   5.327   9.913 -0.9111 -0.1230 -0.5730
  415MOL0     H57246   3.710   5.479   9.758 -1.9310  1.3954 -1.7261
  415MOL0     H57247   3.644   5.591   9.889  3.5565  0.3771  1.3543
  415MOL0     H57248   3.476   5.420   9.935 -1.0325  1.3564 -0.4894
  415MOL0     H57249   3.537   5.301   9.819 -1.0890 -0.9687  3.8423
  415MOL0     H57250   4.284   5.693  10.481  0.2825  1.7276  1.6381
  415MOL0     H57251   4.471   5.821  10.585 -0.6361 -0.4654  0.9272
  415MOL0     H57252   4.822   6.055  10.226  1.1582 -0.8773 -0.5844
  415MOL0     H57253   4.980   6.258  10.249  1.1572 -0.8742 -0.7856
  415MOL0     H57254   5.524   7.624   9.873 -2.3214  0.3537  2.0280
  415MOL0     H57255   5.554   7.876   9.861  0.8266 -3.4235 -1.5246
  415MOL0     H57256   5.566   8.358  10.206 -2.1841  4.0420  1.1056
  415MOL0     H57257   5.560   8.581  10.107 -1.3528 -0.5103 -0.5780
  415MOL0     H57258   5.623   8.708   9.709  0.4700 -0.1117  1.7134
  415MOL0     H57259   5.504   8.627   9.794 -2.3361  1.2594 -2.3605
  415MOL0     H57260   5.457   8.890   9.759 -0.3498 -4.0840 -1.3091
  415MOL0     H57261   5.596   8.930   9.850 -1.3549  2.1822  1.2856
  415MOL0     H57262   5.480   8.780  10.039 -2.4854 -2.4601 -1.2857
  415MOL0     H57263   5.421   8.950  10.007  0.5238  1.7489 -1.2890
  415MOL0     H57264   5.277   8.736  10.042  0.0697  2.7240  1.2434
  415MOL0     H57265   5.298   8.704   9.868 -0.8279 -0.8960  0.5240
  415MOL0     H57266   5.045   9.047   9.889  0.4613  2.1435  0.6629
  415MOL0     H57267   5.816   8.490   9.800 -0.7570 -1.4424 -0.6392
  415MOL0     H57268   5.916   8.229   9.798  2.1487 -4.0693  0.2361
  415MOL0     H57269   5.816   8.108   9.889 -3.9310  2.3288  3.0687
  415MOL0     H57270   5.760   8.185   9.737  0.3518 -0.3776 -0.8724
  416MOL0     O57271   9.543   8.931  10.356 -0.3401 -0.6214 -0.1943
  416MOL0     C57272   9.524   8.843  10.446 -0.2666  0.3491 -0.0880
  416MOL0     O57273   9.530   8.709  10.414  0.4542 -0.3434 -0.3189
  416MOL0     C57274   9.554   8.670  10.289  0.0550 -0.4053 -0.6414
  416MOL0     C57275   9.679   8.642  10.251 -0.9134 -0.3074 -0.3018
  416MOL0     C57276   9.705   8.612  10.113 -0.1135  0.5126  0.4209
  416MOL0     C57277   9.603   8.630  10.019  0.8910  0.1069  0.3306
  416MOL0     O57278   9.627   8.606   9.887  0.0182  0.1385 -0.3488
  416MOL0     C57279   9.523   8.527   9.819  0.0418  0.0921 -0.2232
  416MOL0     C57280   9.576   8.485   9.681  0.2890 -0.4701 -0.0897
  416MOL0     C57281   9.477   8.401   9.606  0.1498 -0.3628  0.8869
  416MOL0     C57282   9.534   8.352   9.466 -0.0540  0.2820  0.1324
  416MOL0     C57283   9.430   8.280   9.382 -0.2948 -0.2608  0.9335
  416MOL0     C57284   9.475   8.240   9.236 -0.8248  0.0380 -0.4633
  416MOL0     C57285   9.385   8.153   9.157  0.3365 -0.0425  0.4135
  416MOL0     C57286   9.255   8.216   9.121 -0.3487  0.0602 -0.4888
  416MOL0     N57287   9.194   8.141   9.008 -0.0938 -1.5147 -0.0605
  416MOL0     C57288   9.158   8.009   8.990  0.2343 -0.3223  0.2337
  416MOL0     C57289   9.097   8.003   8.865 -0.3673 -0.7286  0.0231
  416MOL0     C57290   9.049   7.866   8.819  0.7153  0.7704 -0.1366
  416MOL0     C57291   9.008   7.871   8.674 -0.3226  0.7000 -0.4398
  416MOL0     C57292   9.133   7.860   8.583  0.7618 -0.6602 -0.6225
  416MOL0     C57293   9.085   7.843   8.442  0.1076  0.3787 -0.5952
  416MOL0     O57294   9.000   7.953   8.408 -0.5775  0.5474 -0.0336
  416MOL0     C57295   8.912   7.946   8.304  0.3327 -0.1145 -0.0382
  416MOL0     C57296   8.933   7.860   8.195  0.0416  0.5532 -0.2961
  416MOL0     C57297   8.842   7.862   8.083  0.0556 -0.4202 -0.3652
  416MOL0     C57298   8.890   7.787   7.963  0.1403 -0.3132  0.4473
  416MOL0     C57299   8.718   7.935   8.100  0.3617  0.3739 -0.6968
  416MOL0     C57300   8.616   7.943   7.990 -0.4857  0.3619  0.6280
  416MOL0     O57301   8.627   7.850   7.887 -0.5965  0.1025 -0.4841
  416MOL0     C57302   8.535   7.838   7.785 -0.7520  0.6453  0.3319
  416MOL0     C57303   8.467   7.954   7.728  0.2629  0.5423  1.0042
  416MOL0     C57304   8.378   7.946   7.618 -0.5612  0.1591  0.3122
  416MOL0     C57305   8.350   7.819   7.560 -0.0376  0.4084 -0.7228
  416MOL0     O57306   8.244   7.803   7.474  0.3008  0.5889 -0.0825
  416MOL0     C57307   8.263   7.693   7.382  0.3528  0.7079  0.2984
  416MOL0     C57308   8.161   7.711   7.274 -0.3806  0.1520  0.1196
  416MOL0     C57309   8.174   7.852   7.202  0.8480 -0.1592 -0.4048
  416MOL0     C57310   8.284   7.843   7.104 -0.1689  1.3612  0.7548
  416MOL0     C57311   8.318   7.979   7.032  0.0162  0.4418 -0.6774
  416MOL0     C57312   8.199   8.040   6.954 -0.2003 -0.9443 -0.5008
  416MOL0     C57313   8.234   8.169   6.878 -0.8501 -0.6074 -0.9443
  416MOL0     C57314   8.135   8.279   6.849  0.0734 -0.3784  1.6504
  416MOL0    Cl57315   7.992   8.237   6.754 -0.0644 -0.2289  0.2459
  416MOL0     C57316   8.423   7.707   7.614  0.2876  0.1799 -0.8324
  416MOL0     C57317   8.506   7.715   7.726 -0.5844 -0.1617 -0.5717
  416MOL0     O57318   8.515   8.005   8.015 -0.1488 -0.0705  0.6274
  416MOL0     C57319   8.707   8.017   8.217  0.3044 -0.8192 -0.0815
  416MOL0     C57320   8.797   8.012   8.314  0.3646 -0.9877 -0.1536
  416MOL0     N57321   9.097   8.132   8.814 -0.8328  0.1152 -0.0167
  416MOL0     N57322   9.158   8.210   8.898  0.2000  0.4029 -0.0008
  416MOL0     C57323   9.471   8.661  10.057 -0.3992 -0.2082  0.2956
  416MOL0     C57324   9.452   8.690  10.197 -0.2863 -0.1201  0.9137
  416MOL0     C57325   9.493   8.886  10.582 -0.0622  0.9162 -0.2072
  416MOL0     C57326   9.537   9.019  10.616 -0.3276  0.3715  0.1537
  416MOL0     C57327   9.526   9.064  10.746  0.1881  0.4615  0.2828
  416MOL0     C57328   9.476   8.978  10.848 -0.1319  0.6755  0.4889
  416MOL0     O57329   9.481   9.012  10.982 -0.0545  0.1648  0.3724
  416MOL0     C57330   9.539   9.133  11.024 -0.0716 -0.2085 -0.4635
  416MOL0     C57331   9.693   9.137  11.019  0.5710 -0.9783  0.1942
  416MOL0     C57332   9.769   9.020  11.085  0.6736 -0.1014 -1.1509
  416MOL0     C57333   9.714   8.985  11.226 -0.3807  0.1538  0.5327
  416MOL0     C57334   9.803   8.883  11.268 -0.3624  0.0103  0.7414
  416MOL0     C57335   9.895   8.811  11.293 -0.7053 -0.2634 -0.4520
  416MOL0     C57336   9.429   8.852  10.814  0.7737 -0.4742  0.6141
  416MOL0     C57337   9.424   8.809  10.678 -0.6554 -0.0972  0.7062
  416MOL0     C57338   9.364   8.682  10.658  0.1442  0.0131 -0.0244
  416MOL0     H57339   9.757   8.648  10.326 -1.4174  1.7115  0.1410
  416MOL0     H57340   9.806   8.595  10.076  0.2279 -0.2609  1.6417
  416MOL0     H57341   9.433   8.584   9.797  1.7134  3.0687  0.1371
  416MOL0     H57342   9.508   8.435   9.876  1.7634  0.2624  0.5755
  416MOL0     H57343   9.586   8.572   9.615  1.5785  0.0578  0.7709
  416MOL0     H57344   9.667   8.426   9.689  1.6869  1.5147 -0.7286
  416MOL0     H57345   9.452   8.307   9.655 -0.1396 -2.2670 -2.5955
  416MOL0     H57346   9.382   8.448   9.581  0.0555 -1.5085 -1.1739
  416MOL0     H57347   9.565   8.438   9.406 -1.8300 -0.2749 -1.6799
  416MOL0     H57348   9.621   8.286   9.469 -0.0857  0.1275 -1.6381
  416MOL0     H57349   9.347   8.348   9.364  0.6298  0.8495  0.7019
  416MOL0     H57350   9.395   8.190   9.434  3.0526 -1.8978  0.6502
  416MOL0     H57351   9.514   8.327   9.183 -0.1042  0.9070  1.4040
  416MOL0     H57352   9.570   8.186   9.247 -0.4183  1.0533  1.6614
  416MOL0     H57353   9.380   8.054   9.202  2.6855  0.5617  2.2142
  416MOL0     H57354   9.443   8.149   9.064  2.3613 -1.6746  1.6759
  416MOL0     H57355   9.197   8.223   9.214  1.2289  0.4759  0.4941
  416MOL0     H57356   9.272   8.321   9.092 -1.0942  0.9053  1.8895
  416MOL0     H57357   9.158   7.925   9.059 -1.5653  0.3022  1.0572
  416MOL0     H57358   8.960   7.841   8.878  1.0508 -1.3212 -0.4713
  416MOL0     H57359   9.128   7.791   8.827  0.8671  0.7525 -1.5995
  416MOL0     H57360   8.938   7.790   8.652  0.8073 -0.8104  1.1855
  416MOL0     H57361   8.957   7.966   8.657 -2.1784 -0.1279  0.1979
  416MOL0     H57362   9.195   7.950   8.593 -0.8901  0.6709 -1.6605
  416MOL0     H57363   9.189   7.769   8.607 -2.6607 -2.6325  0.5403
  416MOL0     H57364   9.174   7.842   8.378  2.5518 -1.5644  2.5437
  416MOL0     H57365   9.027   7.753   8.420  0.7411 -0.1980  0.0470
  416MOL0     H57366   9.027   7.806   8.187  0.6720  1.6969 -1.0299
  416MOL0     H57367   8.815   7.715   7.929  0.4471 -1.1178  1.4163
  416MOL0     H57368   8.983   7.731   7.978  1.8305  1.1795 -3.2917
  416MOL0     H57369   8.903   7.858   7.881 -2.9176 -0.7959 -0.5556
  416MOL0     H57370   8.490   8.055   7.761  3.5555  0.3986 -0.4373
  416MOL0     H57371   8.329   8.039   7.592 -2.2810 -0.9213 -0.5063
  416MOL0     H57372   8.364   7.705   7.343  0.1052 -2.3069 -1.5787
  416MOL0     H57373   8.249   7.594   7.427  1.0343 -0.0239 -1.0338
  416MOL0     H57374   8.171   7.626   7.207  2.3693 -0.6890  1.4566
  416MOL0     H57375   8.064   7.689   7.321 -1.9087  0.6898 -2.5724
  416MOL0     H57376   8.188   7.938   7.268  1.0541  0.7503 -1.5962
  416MOL0     H57377   8.083   7.862   7.142  1.6140 -2.2310 -2.0438
  416MOL0     H57378   8.248   7.765   7.036 -0.7351  0.5419  1.9776
  416MOL0     H57379   8.375   7.811   7.156 -0.2888 -1.0403 -0.3210
  416MOL0     H57380   8.348   8.061   7.098  1.5544  0.6260 -1.5615
  416MOL0     H57381   8.409   7.963   6.972 -0.4407  1.0434 -1.5448
  416MOL0     H57382   8.134   8.071   7.036 -0.3550 -1.8352 -0.2755
  416MOL0     H57383   8.153   7.959   6.895  0.5382 -1.8661  0.1530
  416MOL0     H57384   8.268   8.134   6.779  4.0716 -1.7653  0.8543
  416MOL0     H57385   8.326   8.208   6.923 -0.1467 -2.4947 -0.6340
  416MOL0     H57386   8.190   8.357   6.797 -2.1061 -0.4351 -1.0466
  416MOL0     H57387   8.095   8.319   6.942  0.6940  0.8999  1.3871
  416MOL0     H57388   8.408   7.605   7.583 -0.9884  0.0392  0.1461
  416MOL0     H57389   8.566   7.630   7.756  0.6997  1.3130  1.2534
  416MOL0     H57390   8.616   8.062   8.256 -0.3463 -2.1833  0.0108
  416MOL0     H57391   8.793   8.061   8.411  1.0879 -2.6813  0.7642
  416MOL0     H57392   9.387   8.681   9.992 -1.5585 -1.0964  1.4742
  416MOL0     H57393   9.353   8.720  10.230 -1.1489 -0.6632 -1.0444
  416MOL0     H57394   9.569   9.090  10.540  2.2387  0.9280  1.6141
  416MOL0     H57395   9.552   9.166  10.771 -1.6208  0.8944  0.5318
  416MOL0     H57396   9.493   9.218  10.971  1.0839  1.2761  0.8038
  416MOL0     H57397   9.511   9.148  11.129 -1.4858 -0.3538 -0.7983
  416MOL0     H57398   9.726   9.232  11.062 -0.7315 -0.8235  0.9060
  416MOL0     H57399   9.710   9.130  10.911 -3.7885 -3.1435 -0.5540
  416MOL0     H57400   9.753   8.931  11.024 -0.2930  0.3313 -1.5522
  416MOL0     H57401   9.876   9.041  11.093  0.5502 -0.1485  2.2626
  416MOL0     H57402   9.613   8.943  11.220 -0.2381  0.0567 -3.4036
  416MOL0     H57403   9.721   9.075  11.287  3.7437  0.4681 -0.0894
  416MOL0     H57404   9.977   8.750  11.325  1.7798  2.1779 -1.7338
  416MOL0     H57405   9.376   8.805  10.897 -0.1852  1.3409  1.0707
  416MOL0     H57406   9.283   8.699  10.586  2.1340  1.4804 -2.0349
  416MOL0     H57407   9.432   8.606  10.617  0.5580  0.4786 -0.2145
  416MOL0     H57408   9.317   8.642  10.748  1.0841  0.6459  0.7767
  417MOL0     O57409   4.475   4.223   1.431  0.1747  0.6080  0.2418
  417MOL0     C57410   4.424   4.115   1.434 -0.0362  0.2816 -0.6651
  417MOL0     O57411   4.446   4.011   1.344  0.3194  0.8779  0.1155
  417MOL0     C57412   4.565   3.995   1.280 -0.0702 -0.0539  0.3694
  417MOL0     C57413   4.689   4.040   1.325  0.7256 -0.1831 -0.4559
  417MOL0     C57414   4.812   4.010   1.258  0.4764  0.2658 -0.3432
  417MOL0     C57415   4.815   3.930   1.140  0.6209  0.3844  0.2027
  417MOL0     O57416   4.924   3.895   1.056  0.0866 -0.1979  0.6655
  417MOL0     C57417   5.050   3.894   1.121 -0.7924  0.3030 -0.7438
  417MOL0     C57418   5.176   3.870   1.022  0.9100 -0.0356 -0.2249
  417MOL0     C57419   5.278   3.990   1.020 -0.4491 -0.5192  0.7675
  417MOL0     C57420   5.225   4.125   0.955  0.8957  0.5785 -0.1530
  417MOL0     C57421   5.331   4.234   0.977  0.1069  0.4764 -0.0047
  417MOL0     C57422   5.470   4.193   0.942 -0.3186  0.8020  0.5381
  417MOL0     C57423   5.483   4.123   0.800  0.0575 -0.0311 -0.7682
  417MOL0     C57424   5.459   4.223   0.690 -0.1003 -0.5715 -0.6442
  417MOL0     N57425   5.484   4.163   0.562  0.8350  0.3669 -0.2797
  417MOL0     C57426   5.578   4.212   0.478  0.7152  0.0843  0.6355
  417MOL0     C57427   5.613   4.119   0.388  0.1348  0.7831  0.5823
  417MOL0     C57428   5.714   4.117   0.277 -0.4120  0.1550  0.5781
  417MOL0     C57429   5.759   4.258   0.232 -0.9735  0.4984  0.0840
  417MOL0     C57430   5.860   4.258   0.114 -0.0060  0.4548  0.2827
  417MOL0     C57431   5.787   4.285  -0.017 -0.0874  0.3111 -0.0816
  417MOL0     O57432   5.742   4.422  -0.044  0.0060  0.6723  0.3114
  417MOL0     C57433   5.818   4.507  -0.115  0.3786  0.0431  0.0055
  417MOL0     C57434   5.764   4.634  -0.141 -0.1188  0.2204  0.4595
  417MOL0     C57435   5.818   4.729  -0.226 -0.4683  0.3689 -0.0049
  417MOL0     C57436   5.729   4.853  -0.260 -1.1217  0.0699  0.0644
  417MOL0     C57437   5.936   4.701  -0.292 -0.3577  0.6093  0.6161
  417MOL0     C57438   5.997   4.790  -0.403  0.0666 -1.5654 -0.1047
  417MOL0     O57439   6.133   4.799  -0.398  0.7338 -0.0658  0.2143
  417MOL0     C57440   6.188   4.916  -0.450  0.2478  0.7104  0.1683
  417MOL0     C57441   6.191   4.934  -0.585  0.0480  0.3400 -0.0256
  417MOL0     C57442   6.234   5.054  -0.646  0.4807 -0.1327 -0.3484
  417MOL0     C57443   6.270   5.162  -0.562 -0.9029  0.1851  0.1827
  417MOL0     O57444   6.310   5.279  -0.622  0.0626 -0.4914  0.3023
  417MOL0     C57445   6.300   5.392  -0.543 -0.0457  0.3649  0.4433
  417MOL0     C57446   6.304   5.512  -0.639 -0.0556 -0.4171  0.2292
  417MOL0     C57447   6.413   5.513  -0.744 -0.5416 -0.0313 -1.1185
  417MOL0     C57448   6.546   5.585  -0.691 -0.2373  0.3174 -0.1959
  417MOL0     C57449   6.637   5.642  -0.812  0.1149 -0.3102  0.4004
  417MOL0     C57450   6.774   5.687  -0.760  0.2238  0.4600 -0.1358
  417MOL0     C57451   6.855   5.753  -0.865 -0.2705 -1.0316  0.1603
  417MOL0     C57452   6.922   5.658  -0.970 -0.5092  0.4669 -0.0750
  417MOL0    Cl57453   7.054   5.583  -0.890 -0.3545  0.5197  0.0535
  417MOL0     C57454   6.278   5.140  -0.425 -0.5447  0.2022  0.5749
  417MOL0     C57455   6.232   5.019  -0.370 -0.4715 -0.0895 -0.0878
  417MOL0     O57456   5.923   4.876  -0.458 -0.7013  0.3810  0.4188
  417MOL0     C57457   6.002   4.574  -0.262  0.2861  0.6537 -0.3724
  417MOL0     C57458   5.942   4.479  -0.177 -0.2672 -0.7631 -0.6773
  417MOL0     N57459   5.536   4.002   0.426 -0.0612 -0.6009  0.7254
  417MOL0     N57460   5.463   4.032   0.526 -0.5508  0.5378  0.0820
  417MOL0     C57461   4.691   3.879   1.103  0.4821  0.1479  0.1692
  417MOL0     C57462   4.574   3.905   1.172 -0.0319 -0.0033  0.6673
  417MOL0     C57463   4.313   4.098   1.536  0.7153 -0.2877 -0.1232
  417MOL0     C57464   4.258   4.213   1.596 -0.4820 -0.7682  0.3297
  417MOL0     C57465   4.156   4.196   1.687 -0.0304  0.5768 -0.0920
  417MOL0     C57466   4.107   4.073   1.727 -0.5094  0.0123 -0.1209
  417MOL0     O57467   4.012   4.048   1.827  0.2097 -0.7717  0.7571
  417MOL0     C57468   3.950   4.161   1.886 -0.0418  0.4772  0.0828
  417MOL0     C57469   3.825   4.112   1.958 -0.6204  0.1189 -0.0727
  417MOL0     C57470   3.713   4.090   1.862  0.5228  0.3127  0.5410
  417MOL0     C57471   3.586   4.039   1.935  0.0601  0.5813  0.5301
  417MOL0     C57472   3.471   4.057   1.848  0.1859 -1.2234  0.2215
  417MOL0     C57473   3.379   4.071   1.766  0.5337  0.3363 -0.8530
  417MOL0     C57474   4.153   3.960   1.664 -0.8999  0.8471  0.6918
  417MOL0     C57475   4.252   3.970   1.566 -0.3595 -0.2780  1.0868
  417MOL0     C57476   4.301   3.838   1.518  0.1187  0.0814  0.6810
  417MOL0     H57477   4.698   4.110   1.408  3.2992  2.1345 -2.5126
  417MOL0     H57478   4.910   4.038   1.294  0.7377 -0.6817 -0.3000
  417MOL0     H57479   5.048   3.819   1.201 -0.7245  1.8622  0.7938
  417MOL0     H57480   5.068   3.993   1.165  0.7692  0.3301 -1.3511
  417MOL0     H57481   5.220   3.780   1.068 -1.5628 -3.5066 -3.9500
  417MOL0     H57482   5.140   3.842   0.922  1.4007  1.6207 -0.9013
  417MOL0     H57483   5.328   4.011   1.115  2.6745 -1.9238 -0.4193
  417MOL0     H57484   5.351   3.939   0.956 -2.8842 -4.1025  0.5348
  417MOL0     H57485   5.210   4.110   0.848 -3.9944  3.0714 -0.1136
  417MOL0     H57486   5.127   4.165   0.982  0.7805  2.2816 -2.7437
  417MOL0     H57487   5.343   4.271   1.080  3.9743  1.0499 -0.5176
  417MOL0     H57488   5.308   4.326   0.922  1.8450  0.2059 -1.2283
  417MOL0     H57489   5.530   4.285   0.934  2.4665 -1.0790 -2.7758
  417MOL0     H57490   5.505   4.120   1.015 -0.8049 -0.7257 -0.7215
  417MOL0     H57491   5.413   4.040   0.783 -0.9996  0.8719 -0.8638
  417MOL0     H57492   5.582   4.076   0.806 -0.6067 -1.2782  1.9434
  417MOL0     H57493   5.355   4.256   0.697  0.0661 -0.1851  0.1438
  417MOL0     H57494   5.528   4.303   0.718  1.9857 -1.8744 -1.7436
  417MOL0     H57495   5.613   4.314   0.471 -0.9495  0.6553  0.2090
  417MOL0     H57496   5.683   4.052   0.195 -0.1501  1.9086 -0.9845
  417MOL0     H57497   5.803   4.069   0.319  1.8846  3.8940  0.4483
  417MOL0     H57498   5.669   4.309   0.196 -1.2741 -0.5405 -0.6793
  417MOL0     H57499   5.805   4.317   0.312  1.1938 -0.1459 -0.6284
  417MOL0     H57500   5.937   4.335   0.119 -0.0691  0.6318 -1.1298
  417MOL0     H57501   5.912   4.162   0.112 -1.4575 -0.3483 -1.1478
  417MOL0     H57502   5.842   4.239  -0.100 -2.0933 -3.8445  0.6069
  417MOL0     H57503   5.701   4.217  -0.011  0.7587 -0.7875 -0.0901
  417MOL0     H57504   5.677   4.661  -0.083 -0.5943 -1.9212  0.8183
  417MOL0     H57505   5.683   4.859  -0.359 -1.4145  0.4934  0.2271
  417MOL0     H57506   5.789   4.943  -0.248 -1.1507  0.4490 -2.2152
  417MOL0     H57507   5.640   4.857  -0.196 -0.4556 -0.7824  1.0741
  417MOL0     H57508   6.173   4.847  -0.648  2.7111  0.8019 -1.5910
  417MOL0     H57509   6.232   5.073  -0.753  0.7740  3.5286  0.1454
  417MOL0     H57510   6.201   5.397  -0.495 -1.4080  1.6366 -2.3051
  417MOL0     H57511   6.373   5.389  -0.462  0.1771  0.4309  0.2430
  417MOL0     H57512   6.210   5.527  -0.692  0.1795  1.8455  0.3259
  417MOL0     H57513   6.303   5.604  -0.580 -0.6071 -1.2699  1.5727
  417MOL0     H57514   6.376   5.578  -0.823  1.7213  4.6521  1.2616
  417MOL0     H57515   6.436   5.410  -0.773 -0.9263 -0.5300  0.2461
  417MOL0     H57516   6.603   5.518  -0.625 -1.0819  1.8387  2.2309
  417MOL0     H57517   6.523   5.672  -0.628 -0.9302 -1.3135  1.9611
  417MOL0     H57518   6.648   5.563  -0.887  0.2330 -0.3196  0.4278
  417MOL0     H57519   6.592   5.724  -0.868  2.3971  0.8364  0.1511
  417MOL0     H57520   6.822   5.592  -0.736 -0.9838 -0.1463 -0.0097
  417MOL0     H57521   6.774   5.741  -0.665 -2.0502  0.2361  0.0473
  417MOL0     H57522   6.938   5.805  -0.816  0.8637 -1.8761 -0.8005
  417MOL0     H57523   6.790   5.828  -0.910 -1.4728 -0.7021  2.3027
  417MOL0     H57524   6.946   5.725  -1.052 -1.7537  1.9540  0.7175
  417MOL0     H57525   6.858   5.576  -1.003 -1.7224  0.0410  2.9289
  417MOL0     H57526   6.308   5.218  -0.356  1.3011 -0.2461  0.3311
  417MOL0     H57527   6.239   5.013  -0.262  0.8148  1.0529 -0.0832
  417MOL0     H57528   6.095   4.557  -0.315  0.2596  1.2432 -0.6184
  417MOL0     H57529   5.986   4.384  -0.148 -0.7354  0.2847  4.6583
  417MOL0     H57530   4.680   3.810   1.019 -0.8757 -0.4019  0.7647
  417MOL0     H57531   4.481   3.866   1.133  0.9147 -0.3421 -1.4255
  417MOL0     H57532   4.297   4.305   1.553  0.7354 -0.9812  0.9327
  417MOL0     H57533   4.129   4.291   1.733 -0.9881 -0.0057  0.5977
  417MOL0     H57534   4.024   4.195   1.958  0.8924 -2.2242  0.5130
  417MOL0     H57535   3.908   4.238   1.820 -4.5112 -1.9424 -0.3270
  417MOL0     H57536   3.790   4.192   2.024 -2.3156 -0.9971  0.4701
  417MOL0     H57537   3.842   4.020   2.015 -0.8416 -1.8072 -2.9194
  417MOL0     H57538   3.697   4.184   1.808  0.2361  1.0848  1.9199
  417MOL0     H57539   3.745   4.012   1.792  2.8630 -0.3504  2.2029
  417MOL0     H57540   3.565   4.091   2.029  1.7867  2.6521 -0.1443
  417MOL0     H57541   3.591   3.932   1.955 -1.2448  0.5483  0.7945
  417MOL0     H57542   3.299   4.073   1.694 -3.8927 -0.8165  3.5007
  417MOL0     H57543   4.108   3.863   1.683  2.8698 -1.2864 -0.1346
  417MOL0     H57544   4.309   3.818   1.411  1.9324  0.9294  0.6206
  417MOL0     H57545   4.401   3.825   1.561  0.1796  0.6204  0.7076
  417MOL0     H57546   4.230   3.763   1.553 -1.9655  2.4184  1.8296
  418MOL0     O57547   5.700   1.477   4.888  0.1249 -0.6334 -0.2435
  418MOL0     C57548   5.672   1.483   5.005 -0.0737  0.7133 -0.6809
  418MOL0     O57549   5.543   1.464   5.054  0.1641 -0.5231  0.3756
  418MOL0     C57550   5.435   1.480   4.968  0.0661  1.0339  0.9551
  418MOL0     C57551   5.399   1.385   4.864 -0.5950  0.1953 -0.7697
  418MOL0     C57552   5.270   1.397   4.808  0.6189  0.2991  0.7232
  418MOL0     C57553   5.189   1.510   4.836  0.3002  0.0351 -0.1878
  418MOL0     O57554   5.059   1.517   4.785  0.3564 -0.1732 -0.1809
  418MOL0     C57555   5.004   1.418   4.688 -0.2054  0.1911 -0.1483
  418MOL0     C57556   4.953   1.282   4.753 -0.7352 -0.0950  0.5938
  418MOL0     C57557   4.958   1.171   4.646  0.5015  0.2140  0.0931
  418MOL0     C57558   4.872   1.049   4.685 -0.7717 -0.2169  0.6694
  418MOL0     C57559   4.841   0.963   4.571  0.1922  0.3377 -0.0478
  418MOL0     C57560   4.785   0.832   4.622  0.4900 -0.5775 -0.1179
  418MOL0     C57561   4.902   0.725   4.635  0.1408 -0.3726 -0.3765
  418MOL0     C57562   4.855   0.587   4.670 -0.7583 -0.5172 -0.6107
  418MOL0     N57563   4.965   0.486   4.688  0.3904  0.7090 -1.3429
  418MOL0     C57564   4.940   0.359   4.732  1.0041 -0.1410  0.6803
  418MOL0     C57565   5.062   0.296   4.728  0.1255 -0.0020 -0.3366
  418MOL0     C57566   5.102   0.176   4.804  0.1703 -0.4635  0.4191
  418MOL0     C57567   5.072   0.049   4.725  0.3228 -0.3442  0.4748
  418MOL0     C57568   5.176   0.025   4.614 -0.0082 -0.3045 -0.9611
  418MOL0     C57569   5.313  -0.022   4.661  0.2933  0.0116 -0.0285
  418MOL0     O57570   5.309  -0.143   4.741 -0.3899  0.3497 -0.5213
  418MOL0     C57571   5.349  -0.254   4.668  0.7506  1.2299  0.0967
  418MOL0     C57572   5.255  -0.310   4.583  0.1565  0.0479  0.4826
  418MOL0     C57573   5.290  -0.421   4.500  0.3408 -0.2621 -0.3390
  418MOL0     C57574   5.181  -0.487   4.414 -0.4967 -0.1132  0.0348
  418MOL0     C57575   5.424  -0.475   4.516  0.0632  0.3706  0.1269
  418MOL0     C57576   5.477  -0.595   4.452 -0.0069 -0.3047  0.1526
  418MOL0     O57577   5.609  -0.611   4.458 -0.0344 -0.8856 -0.6906
  418MOL0     C57578   5.670  -0.712   4.386 -0.4398 -0.1978  0.3750
  418MOL0     C57579   5.673  -0.721   4.242  0.0491 -0.5136 -1.2021
  418MOL0     C57580   5.732  -0.830   4.181  0.2089 -0.4204  0.8191
  418MOL0     C57581   5.820  -0.915   4.262  0.7457 -0.1582  0.3804
  418MOL0     O57582   5.895  -1.021   4.216 -0.1433 -0.1881  0.2475
  418MOL0     C57583   5.901  -1.050   4.070  0.6646 -0.4485 -0.1714
  418MOL0     C57584   6.018  -1.120   4.019  0.1894  0.1733 -0.7209
  418MOL0     C57585   5.992  -1.179   3.880  1.0263  1.0369  0.7101
  418MOL0     C57586   6.116  -1.238   3.819 -0.3546 -0.3631  0.7441
  418MOL0     C57587   6.088  -1.276   3.669 -0.5528  0.5942  0.1293
  418MOL0     C57588   6.213  -1.306   3.584  0.4805 -0.2327  0.1983
  418MOL0     C57589   6.172  -1.375   3.450 -1.3461  0.7684 -0.1795
  418MOL0     C57590   6.125  -1.273   3.358  0.4272  0.2964  0.2075
  418MOL0    Cl57591   6.055  -1.358   3.219  0.1802  0.0541  0.1188
  418MOL0     C57592   5.838  -0.883   4.394  0.3712  0.8698  0.3232
  418MOL0     C57593   5.754  -0.792   4.464 -0.2251  0.1139  1.0418
  418MOL0     O57594   5.402  -0.672   4.397  0.3609 -0.1476 -0.3349
  418MOL0     C57595   5.515  -0.416   4.607 -0.0147 -1.0676  0.3228
  418MOL0     C57596   5.475  -0.307   4.685 -0.6683 -0.1651 -0.1604
  418MOL0     N57597   5.153   0.388   4.680 -0.5272  0.1498 -0.5147
  418MOL0     N57598   5.095   0.507   4.666 -0.1360 -0.0912  0.1709
  418MOL0     C57599   5.224   1.598   4.932  0.6876 -0.0013  0.3956
  418MOL0     C57600   5.344   1.586   4.993  0.1598 -0.6300 -0.7639
  418MOL0     C57601   5.789   1.509   5.104 -0.5646 -0.4764  0.0411
  418MOL0     C57602   5.921   1.515   5.052  1.0366 -1.0753 -0.1357
  418MOL0     C57603   6.036   1.537   5.129 -0.0470  0.0831  0.4043
  418MOL0     C57604   6.024   1.537   5.269  0.1850 -0.0720  1.1478
  418MOL0     O57605   6.128   1.551   5.347  0.0518 -0.1999 -0.7322
  418MOL0     C57606   6.250   1.485   5.322 -0.4155  0.6606  0.2843
  418MOL0     C57607   6.317   1.435   5.450  0.9311 -0.6389  0.6080
  418MOL0     C57608   6.427   1.325   5.419 -0.7154  0.1384 -0.3870
  418MOL0     C57609   6.508   1.293   5.542  0.2616 -0.2695 -0.1387
  418MOL0     C57610   6.581   1.413   5.592 -0.2737 -0.1721  0.3282
  418MOL0     C57611   6.648   1.494   5.645 -0.0873  0.4530 -0.0353
  418MOL0     C57612   5.893   1.526   5.327 -0.7555 -0.5526  0.9327
  418MOL0     C57613   5.776   1.511   5.246 -0.5869 -0.0927 -0.7515
  418MOL0     C57614   5.648   1.501   5.318  0.6045 -0.5116  0.6050
  418MOL0     H57615   5.473   1.309   4.838  0.7048  0.6945  1.2322
  418MOL0     H57616   5.246   1.325   4.731 -2.7425  1.2143  0.7447
  418MOL0     H57617   5.081   1.400   4.612  0.2332  2.7925 -0.4108
  418MOL0     H57618   4.910   1.452   4.645 -0.2934 -1.7587 -1.5946
  418MOL0     H57619   5.033   1.262   4.826  0.1919  2.0269  0.2331
  418MOL0     H57620   4.856   1.302   4.799 -1.2625  1.9278 -1.2306
  418MOL0     H57621   4.924   1.190   4.544 -0.0355 -2.3194 -0.2822
  418MOL0     H57622   5.059   1.136   4.624  0.9690  1.2117  0.6250
  418MOL0     H57623   4.927   0.995   4.763  1.2616 -3.7000 -2.7906
  418MOL0     H57624   4.775   1.068   4.731  0.8319  1.5981  3.6266
  418MOL0     H57625   4.924   0.936   4.505  1.6274  0.5226  1.6194
  418MOL0     H57626   4.762   1.015   4.515  1.2801  1.6339 -0.4274
  418MOL0     H57627   4.727   0.841   4.714  1.9368 -1.2328  0.9048
  418MOL0     H57628   4.732   0.791   4.535  1.7586 -1.6289 -0.4443
  418MOL0     H57629   4.961   0.757   4.722 -2.9313  0.9748  1.3960
  418MOL0     H57630   4.971   0.729   4.551  1.6534 -0.6855  0.8002
  418MOL0     H57631   4.788   0.581   4.756 -0.7535  1.1880 -0.4642
  418MOL0     H57632   4.796   0.559   4.582 -1.4191 -0.2193 -0.2636
  418MOL0     H57633   4.846   0.319   4.768  0.6046  0.5950  0.4599
  418MOL0     H57634   5.052   0.179   4.901  1.7253  1.0332  1.2266
  418MOL0     H57635   5.207   0.184   4.832  0.8952  0.0881 -2.1529
  418MOL0     H57636   5.077  -0.035   4.796  0.6521 -1.0395 -0.3603
  418MOL0     H57637   4.972   0.050   4.683  0.2820 -0.1596  0.5713
  418MOL0     H57638   5.131  -0.046   4.544 -4.6517  1.5262 -0.2060
  418MOL0     H57639   5.184   0.119   4.559  1.3833 -0.4903 -1.1287
  418MOL0     H57640   5.375  -0.032   4.572  1.5327  0.6397  0.7344
  418MOL0     H57641   5.356   0.054   4.727 -0.5388 -0.0241  0.5830
  418MOL0     H57642   5.157  -0.264   4.593  0.9212  1.3500  2.4336
  418MOL0     H57643   5.213  -0.492   4.309 -0.8640 -2.3011 -0.0130
  418MOL0     H57644   5.086  -0.432   4.406 -0.8447 -0.9271 -2.0320
  418MOL0     H57645   5.151  -0.584   4.454  1.0700 -0.8010 -0.3834
  418MOL0     H57646   5.605  -0.655   4.190  1.2223  2.0274  0.3179
  418MOL0     H57647   5.728  -0.855   4.076  0.3300 -3.8667  1.5183
  418MOL0     H57648   5.805  -1.101   4.055 -1.2200  2.3150  1.5592
  418MOL0     H57649   5.898  -0.961   4.006 -0.1735  0.3955  0.9876
  418MOL0     H57650   6.106  -1.054   4.019 -1.2968  2.2510  0.3004
  418MOL0     H57651   6.046  -1.206   4.081  3.6442 -1.5591 -4.2381
  418MOL0     H57652   5.960  -1.097   3.815  2.4021  0.8577 -0.2281
  418MOL0     H57653   5.918  -1.259   3.890  1.0385  0.5486 -2.2725
  418MOL0     H57654   6.155  -1.325   3.873 -1.6555 -0.6693  1.2182
  418MOL0     H57655   6.195  -1.161   3.817 -2.6805  2.1966 -2.0111
  418MOL0     H57656   6.034  -1.372   3.672  3.2680 -1.7413  1.9271
  418MOL0     H57657   6.030  -1.195   3.625 -2.1602  0.3601  1.7013
  418MOL0     H57658   6.276  -1.377   3.639  0.0795  0.1357  1.1533
  418MOL0     H57659   6.269  -1.214   3.564 -0.0330 -0.0968 -0.6439
  418MOL0     H57660   6.086  -1.440   3.468  0.2491 -0.8564  2.0650
  418MOL0     H57661   6.249  -1.435   3.400 -0.9448 -0.7703  2.1342
  418MOL0     H57662   6.210  -1.215   3.321 -2.5511  4.5315 -0.8178
  418MOL0     H57663   6.059  -1.193   3.394  0.2444  0.4513 -0.4534
  418MOL0     H57664   5.905  -0.950   4.448 -1.3756 -1.8774 -0.7117
  418MOL0     H57665   5.762  -0.772   4.570 -1.5170  1.1369  0.9751
  418MOL0     H57666   5.618  -0.446   4.620  0.4501 -0.8362 -2.3072
  418MOL0     H57667   5.538  -0.259   4.760 -1.8454 -0.5832  1.1514
  418MOL0     H57668   5.146   1.668   4.962 -0.5100  0.7712 -3.9073
  418MOL0     H57669   5.361   1.661   5.069 -0.7626 -0.2551 -0.9220
  418MOL0     H57670   5.926   1.511   4.943 -2.0070 -0.3877 -0.3706
  418MOL0     H57671   6.124   1.556   5.068 -1.2934 -1.6417 -2.1064
  418MOL0     H57672   6.224   1.397   5.262  1.4980  0.5481 -0.4348
  418MOL0     H57673   6.321   1.550   5.270 -2.1822  1.3008 -1.4645
  418MOL0     H57674   6.236   1.389   5.507 -1.1209 -0.5105 -1.9600
  418MOL0     H57675   6.353   1.524   5.503  1.6721 -1.2346  1.1158
  418MOL0     H57676   6.379   1.237   5.376 -0.4032 -1.1337  1.7022
  418MOL0     H57677   6.502   1.364   5.350 -0.3234  3.4622  1.6567
  418MOL0     H57678   6.580   1.211   5.529  0.2767 -0.3527  0.4224
  418MOL0     H57679   6.451   1.251   5.625  2.3738  2.0240  2.7033
  418MOL0     H57680   6.714   1.557   5.702  2.6299 -0.1514 -2.2925
  418MOL0     H57681   5.888   1.539   5.434 -1.0699  0.1290  0.8413
  418MOL0     H57682   5.600   1.405   5.296 -3.6627  2.0444 -2.8735
  418MOL0     H57683   5.659   1.510   5.426 -1.5425 -1.0053  0.9077
  418MOL0     H57684   5.578   1.576   5.281  1.5154 -0.1941 -0.5588
  419MOL0     O57685   0.043   8.773   6.818  0.2314 -0.2733 -0.1527
  419MOL0     C57686  -0.066   8.719   6.843  0.8870  0.4672  0.0259
  419MOL0     O57687  -0.129   8.715   6.962  0.1624 -0.6394 -0.5109
  419MOL0     C57688  -0.060   8.780   7.064  0.1163  0.2514 -0.5240
  419MOL0     C57689   0.020   8.704   7.152 -0.0162  0.0224 -0.0102
  419MOL0     C57690   0.079   8.763   7.262 -0.5687 -0.2872 -0.1190
  419MOL0     C57691   0.065   8.900   7.284 -0.4248  0.0404  0.5633
  419MOL0     O57692   0.135   8.962   7.391 -0.1263 -0.1322  0.0160
  419MOL0     C57693   0.103   9.109   7.406  0.3424  0.0012 -0.8497
  419MOL0     C57694   0.128   9.176   7.534  0.1648 -0.4108 -0.4026
  419MOL0     C57695   0.271   9.150   7.592 -0.2661 -0.1900 -0.2158
  419MOL0     C57696   0.270   9.163   7.748 -0.0007 -0.0735 -1.0655
  419MOL0     C57697   0.404   9.182   7.813 -0.1614  0.4152 -0.3143
  419MOL0     C57698   0.412   9.180   7.965  0.1433 -0.6830  0.5322
  419MOL0     C57699   0.557   9.170   8.010 -0.4072 -0.7579 -0.6103
  419MOL0     C57700   0.575   9.181   8.163  0.9392  0.5387  0.3112
  419MOL0     N57701   0.703   9.141   8.207  0.2578 -0.0598 -0.6773
  419MOL0     C57702   0.806   9.221   8.228 -0.5074 -0.0019  0.4805
  419MOL0     C57703   0.909   9.141   8.263 -0.9356 -0.4267  0.1428
  419MOL0     C57704   1.046   9.183   8.312  0.1751  0.2896 -0.1715
  419MOL0     C57705   1.164   9.194   8.209  0.0968 -0.0636 -0.1998
  419MOL0     C57706   1.189   9.058   8.138  0.0820  0.2273 -0.6944
  419MOL0     C57707   1.207   8.940   8.234 -0.4078 -0.0841 -0.3170
  419MOL0     O57708   1.275   8.828   8.172  0.1766  0.0059 -0.8340
  419MOL0     C57709   1.321   8.729   8.245  0.9226  0.5890  0.0458
  419MOL0     C57710   1.362   8.617   8.181  0.9627 -0.2356  0.5489
  419MOL0     C57711   1.392   8.496   8.249 -0.4877  1.1594 -0.6212
  419MOL0     C57712   1.436   8.376   8.167  0.8822 -0.0369 -0.1143
  419MOL0     C57713   1.388   8.492   8.394 -0.3820  0.0325  0.5016
  419MOL0     C57714   1.447   8.376   8.471 -0.7203  0.1186  0.2657
  419MOL0     O57715   1.520   8.397   8.574  0.0756 -0.2516 -0.7873
  419MOL0     C57716   1.582   8.303   8.647 -1.3286 -0.1388 -0.5656
  419MOL0     C57717   1.561   8.165   8.651  0.2945 -0.9727 -0.6126
  419MOL0     C57718   1.633   8.086   8.739 -0.4102  1.1661 -0.1152
  419MOL0     C57719   1.725   8.134   8.835  0.7878 -0.0261 -0.9915
  419MOL0     O57720   1.792   8.065   8.937 -0.0500  0.3145  0.3789
  419MOL0     C57721   1.808   7.912   8.932  1.0254  0.5060  0.1473
  419MOL0     C57722   1.898   7.843   9.035  0.2373 -0.0167  1.2971
  419MOL0     C57723   1.835   7.870   9.174 -0.4326  0.7648 -0.3399
  419MOL0     C57724   1.942   7.845   9.284  0.2407  0.1583  0.3933
  419MOL0     C57725   1.903   7.876   9.426 -0.1515 -0.6789 -0.6191
  419MOL0     C57726   1.862   8.020   9.459  0.8318 -0.8377  0.6790
  419MOL0     C57727   1.734   8.032   9.531  0.2569  0.1936  0.1523
  419MOL0     C57728   1.747   7.999   9.675  0.8646  0.2303 -0.4571
  419MOL0    Cl57729   1.632   8.109   9.754  0.1117 -0.3351  0.5189
  419MOL0     C57730   1.750   8.270   8.827  0.2415  0.5551 -0.0549
  419MOL0     C57731   1.673   8.351   8.741  1.0476  0.3030  0.8932
  419MOL0     O57732   1.416   8.262   8.431 -0.4696  0.0074  0.4660
  419MOL0     C57733   1.354   8.608   8.462  0.1745 -0.7817 -0.4879
  419MOL0     C57734   1.317   8.726   8.393  0.3591  0.4190  0.5790
  419MOL0     N57735   0.872   9.013   8.278  0.5710  0.1717 -0.3345
  419MOL0     N57736   0.749   9.010   8.233 -0.0176 -0.1013 -0.0909
  419MOL0     C57737  -0.016   8.973   7.192  0.2414 -0.2142  0.4258
  419MOL0     C57738  -0.070   8.914   7.080 -0.2031 -0.1455  0.1676
  419MOL0     C57739  -0.147   8.639   6.747 -0.9949 -0.7010 -0.4296
  419MOL0     C57740  -0.287   8.644   6.757  0.2771 -0.3394  0.5288
  419MOL0     C57741  -0.380   8.583   6.670  0.0973  0.9099 -0.2980
  419MOL0     C57742  -0.333   8.503   6.562  0.0603  0.2569  0.2727
  419MOL0     O57743  -0.406   8.448   6.455  0.1575  0.3109  0.3679
  419MOL0     C57744  -0.537   8.506   6.418 -0.5397  0.1999  0.7509
  419MOL0     C57745  -0.654   8.417   6.464  0.6932  0.8093 -0.3530
  419MOL0     C57746  -0.799   8.487   6.470 -0.5818 -1.3093 -0.0088
  419MOL0     C57747  -0.905   8.394   6.519 -0.0764 -0.1979 -0.4738
  419MOL0     C57748  -1.037   8.446   6.488  1.4908 -0.2409 -0.5889
  419MOL0     C57749  -1.150   8.495   6.457 -0.5585  0.0531  0.2125
  419MOL0     C57750  -0.193   8.490   6.554 -0.0646  0.0881 -0.2831
  419MOL0     C57751  -0.098   8.550   6.644  0.0208 -0.7766 -0.1853
  419MOL0     C57752   0.054   8.527   6.616  0.3111  0.2151 -0.0658
  419MOL0     H57753   0.043   8.601   7.128  1.2139  0.4725 -0.8689
  419MOL0     H57754   0.151   8.709   7.323  0.0280 -1.0009 -1.4231
  419MOL0     H57755  -0.005   9.126   7.400  0.4852  2.7958  1.8172
  419MOL0     H57756   0.152   9.166   7.327 -1.3840  1.8715 -0.6600
  419MOL0     H57757   0.122   9.285   7.529  2.1855 -0.2462 -0.0343
  419MOL0     H57758   0.053   9.136   7.601 -0.5062  0.8211 -0.3874
  419MOL0     H57759   0.301   9.051   7.556 -0.0273  0.1844 -1.0828
  419MOL0     H57760   0.338   9.226   7.552  1.8291 -1.0532  1.4741
  419MOL0     H57761   0.221   9.256   7.780  4.0590  0.6875  4.3248
  419MOL0     H57762   0.206   9.079   7.777 -0.7911  0.9192  0.2028
  419MOL0     H57763   0.445   9.269   7.761 -3.5152  0.8979 -2.5005
  419MOL0     H57764   0.464   9.096   7.781  2.6649  2.9401 -2.3163
  419MOL0     H57765   0.361   9.262   8.016 -0.8641 -0.8293 -0.2126
  419MOL0     H57766   0.370   9.084   7.998  1.0251 -1.4481 -0.5426
  419MOL0     H57767   0.611   9.253   7.963 -2.6929  1.1782 -0.0145
  419MOL0     H57768   0.606   9.077   7.979  0.9777 -0.2130 -0.1812
  419MOL0     H57769   0.555   9.283   8.196 -0.6545 -0.2995  2.0955
  419MOL0     H57770   0.521   9.114   8.230  3.2878 -2.3100 -0.4346
  419MOL0     H57771   0.812   9.325   8.198 -2.4412  0.0749  0.2682
  419MOL0     H57772   1.074   9.114   8.392  0.9203 -1.2972 -1.7411
  419MOL0     H57773   1.039   9.273   8.373  0.2165 -0.6288  1.2239
  419MOL0     H57774   1.140   9.271   8.134 -1.6513 -0.6682 -0.3197
  419MOL0     H57775   1.257   9.210   8.264  1.2649 -3.2371 -1.0520
  419MOL0     H57776   1.099   9.036   8.080 -1.7192  2.1196  1.1841
  419MOL0     H57777   1.285   9.068   8.087  1.0632 -0.1725  0.9969
  419MOL0     H57778   1.258   8.983   8.321 -0.3820  0.3118 -0.5221
  419MOL0     H57779   1.110   8.908   8.272  1.5186 -1.6750  3.9429
  419MOL0     H57780   1.354   8.630   8.073  4.2794  4.0514  0.5093
  419MOL0     H57781   1.545   8.364   8.177  0.7454 -1.5493 -0.2140
  419MOL0     H57782   1.418   8.389   8.060 -0.6525 -2.5785 -0.2295
  419MOL0     H57783   1.392   8.286   8.210  0.8611  1.2088  2.7070
  419MOL0     H57784   1.483   8.118   8.593  0.1182 -1.0885 -0.2834
  419MOL0     H57785   1.621   7.978   8.749  1.5492  0.6790 -2.1768
  419MOL0     H57786   1.712   7.861   8.942  1.7515 -0.4142  4.1768
  419MOL0     H57787   1.850   7.893   8.833 -2.8349  1.8137 -1.9878
  419MOL0     H57788   1.898   7.735   9.013 -1.0183  0.2229 -0.0811
  419MOL0     H57789   1.997   7.886   9.022  1.3664 -3.1037 -2.2277
  419MOL0     H57790   1.760   7.792   9.189 -0.1618  0.6289  0.3358
  419MOL0     H57791   1.789   7.969   9.177 -1.4690  0.2892  2.2303
  419MOL0     H57792   2.036   7.895   9.259  0.9927 -1.0527  0.7102
  419MOL0     H57793   1.968   7.739   9.280  2.1860  0.6232 -0.6396
  419MOL0     H57794   1.820   7.808   9.447 -3.0776  2.5774 -0.7401
  419MOL0     H57795   1.991   7.845   9.483 -1.9253 -2.8041  1.1555
  419MOL0     H57796   1.849   8.077   9.367  2.6439  1.6828  1.8504
  419MOL0     H57797   1.932   8.078   9.519 -1.5653 -0.6094  3.5093
  419MOL0     H57798   1.654   7.963   9.503  0.7339 -1.3221  2.2757
  419MOL0     H57799   1.708   8.138   9.530  2.1607  0.6856  0.0617
  419MOL0     H57800   1.848   8.025   9.707  1.1092 -0.3768 -0.7173
  419MOL0     H57801   1.726   7.895   9.700 -0.3495  0.1786 -1.5973
  419MOL0     H57802   1.818   8.316   8.898  1.7950  1.1572 -1.8442
  419MOL0     H57803   1.668   8.459   8.752  0.1269  0.3097  0.5419
  419MOL0     H57804   1.371   8.607   8.569  0.5679 -1.7120 -0.5499
  419MOL0     H57805   1.278   8.811   8.448 -0.1829  0.4408  0.1716
  419MOL0     H57806  -0.009   9.081   7.190 -0.7364 -0.1466 -0.7573
  419MOL0     H57807  -0.119   8.985   7.014 -2.2835  1.5058  3.2245
  419MOL0     H57808  -0.331   8.696   6.841 -5.9350 -2.2287 -1.0068
  419MOL0     H57809  -0.487   8.601   6.683  0.1943  1.7536 -0.6702
  419MOL0     H57810  -0.547   8.607   6.459  2.5126  1.4044 -1.1473
  419MOL0     H57811  -0.541   8.520   6.309  1.0231  2.5765  0.9271
  419MOL0     H57812  -0.633   8.376   6.563 -0.2406 -0.7790 -0.7730
  419MOL0     H57813  -0.660   8.332   6.395  3.0252  0.9464 -0.8351
  419MOL0     H57814  -0.789   8.566   6.545  0.4836 -3.5325  2.3520
  419MOL0     H57815  -0.818   8.529   6.370  3.3935 -0.7963 -0.7224
  419MOL0     H57816  -0.894   8.391   6.628  2.6368  1.4489 -0.6077
  419MOL0     H57817  -0.901   8.294   6.475  0.2990  0.0988 -1.1245
  419MOL0     H57818  -1.246   8.533   6.430 -0.4533 -0.3260 -0.7368
  419MOL0     H57819  -0.158   8.426   6.473  2.3771  2.4002 -1.2096
  419MOL0     H57820   0.105   8.465   6.691  2.3666  1.1942 -0.6046
  419MOL0     H57821   0.058   8.478   6.518  1.2835  2.0716 -0.9982
  419MOL0     H57822   0.104   8.624   6.619 -0.3331  0.6076 -1.4090
  420MOL0     O57823   6.690   1.570   0.742 -0.1562  0.0720  0.9361
  420MOL0     C57824   6.582   1.578   0.796 -0.0079  0.1756 -0.4872
  420MOL0     O57825   6.561   1.553   0.936  0.3112 -0.0585  0.9607
  420MOL0     C57826   6.639   1.468   1.008  0.1354  0.0044 -0.2190
  420MOL0     C57827   6.578   1.358   1.069 -0.1615 -1.1072  0.1006
  420MOL0     C57828   6.668   1.268   1.140  0.5058 -0.0995 -0.3666
  420MOL0     C57829   6.803   1.288   1.146 -0.5883  0.4149 -0.6590
  420MOL0     O57830   6.882   1.198   1.217  0.1883 -0.0544  0.3416
  420MOL0     C57831   7.017   1.190   1.183  0.1659 -0.0408 -0.1111
  420MOL0     C57832   7.057   1.046   1.228 -0.0646 -0.1498 -0.4838
  420MOL0     C57833   7.211   1.024   1.239 -0.9879 -0.1299  0.1788
  420MOL0     C57834   7.277   1.105   1.355 -0.2413 -0.3505  0.2412
  420MOL0     C57835   7.402   1.036   1.400 -1.1688  0.4889 -0.2924
  420MOL0     C57836   7.501   1.038   1.280 -1.3107  0.0597  0.7227
  420MOL0     C57837   7.580   1.172   1.272  0.4127  0.8700 -0.2300
  420MOL0     C57838   7.657   1.176   1.148  0.4559 -0.0655  0.3479
  420MOL0     N57839   7.765   1.274   1.140 -0.5647  0.5580  0.1629
  420MOL0     C57840   7.781   1.378   1.062  0.5269  0.1160  0.1821
  420MOL0     C57841   7.895   1.436   1.108  0.5853  0.6763  0.6872
  420MOL0     C57842   7.940   1.575   1.050 -0.3501 -0.3230  0.3965
  420MOL0     C57843   7.991   1.566   0.906 -0.0913  0.3185  0.2954
  420MOL0     C57844   8.021   1.693   0.817  0.7547 -0.4590  0.3547
  420MOL0     C57845   8.127   1.790   0.873 -0.3081  0.4525 -0.2818
  420MOL0     O57846   8.176   1.882   0.771  0.1469 -0.1570  0.6592
  420MOL0     C57847   8.287   1.954   0.796 -0.1373  0.7322 -0.0705
  420MOL0     C57848   8.407   1.887   0.829 -0.2784 -0.2656  0.2026
  420MOL0     C57849   8.517   1.961   0.873  0.0689 -0.8987 -0.5140
  420MOL0     C57850   8.640   1.878   0.908  0.3177  0.2149  0.5360
  420MOL0     C57851   8.513   2.107   0.887  0.0012 -0.4943  0.5036
  420MOL0     C57852   8.628   2.186   0.941  0.5231  0.0320  0.2896
  420MOL0     O57853   8.707   2.128   1.038 -0.0678  0.1664  0.1630
  420MOL0     C57854   8.830   2.181   1.073  0.5035 -0.2462 -0.1956
  420MOL0     C57855   8.920   2.238   0.982  0.1171 -0.2754  0.6197
  420MOL0     C57856   9.039   2.298   1.029  0.7393 -0.0025 -0.0181
  420MOL0     C57857   9.070   2.304   1.162 -0.5477  0.1833  0.5911
  420MOL0     O57858   9.201   2.347   1.195  0.6635 -0.3556  0.3834
  420MOL0     C57859   9.274   2.263   1.288  0.8748 -0.2975 -0.4712
  420MOL0     C57860   9.416   2.317   1.287  0.1124  0.4630  0.4755
  420MOL0     C57861   9.487   2.280   1.146 -0.1768 -0.7460  0.1161
  420MOL0     C57862   9.639   2.310   1.144 -1.0369 -0.0393  0.7138
  420MOL0     C57863   9.722   2.279   1.014  0.0375 -0.6480  0.6882
  420MOL0     C57864   9.745   2.125   0.986 -0.0791  0.1663  0.0657
  420MOL0     C57865   9.873   2.092   0.912  0.9642 -0.8298 -0.1257
  420MOL0     C57866   9.980   2.060   1.014 -0.2109  0.7732 -0.0312
  420MOL0    Cl57867  10.145   2.121   0.984 -0.4381 -0.0479  0.1843
  420MOL0     C57868   8.978   2.250   1.251 -0.2755 -0.3428 -0.4053
  420MOL0     C57869   8.864   2.181   1.206  0.3631 -0.1732  0.3570
  420MOL0     O57870   8.647   2.298   0.891  0.5514 -0.1873 -0.9132
  420MOL0     C57871   8.390   2.173   0.855  1.0651  0.4968 -0.0125
  420MOL0     C57872   8.278   2.094   0.814  0.0231 -0.0841  0.4386
  420MOL0     N57873   7.957   1.349   1.193  0.0423 -0.8586  0.8579
  420MOL0     N57874   7.878   1.248   1.209 -0.9093  0.3422  0.0931
  420MOL0     C57875   6.860   1.404   1.085  0.3105  0.5559  0.6676
  420MOL0     C57876   6.780   1.488   1.005  0.6528 -0.4800  0.8880
  420MOL0     C57877   6.462   1.633   0.723 -0.6593  0.7505 -0.2434
  420MOL0     C57878   6.478   1.734   0.625 -0.6298 -0.2773 -0.4983
  420MOL0     C57879   6.373   1.807   0.564 -0.2333 -0.4311  0.0412
  420MOL0     C57880   6.245   1.775   0.609  0.5200  0.1709 -0.5049
  420MOL0     O57881   6.141   1.859   0.559  0.4732 -0.3110 -0.3096
  420MOL0     C57882   6.035   1.893   0.647 -0.8636  0.2118  0.8058
  420MOL0     C57883   5.906   1.817   0.614  0.0329 -0.3421  0.3150
  420MOL0     C57884   5.797   1.917   0.636 -0.0169 -0.0253  0.2436
  420MOL0     C57885   5.664   1.848   0.592  0.8271  0.5478  0.2549
  420MOL0     C57886   5.631   1.837   0.445  0.9497  1.0132  0.2454
  420MOL0     C57887   5.601   1.847   0.330  0.4929  0.2773  0.3399
  420MOL0     C57888   6.220   1.671   0.704 -0.6201 -0.6548 -0.2788
  420MOL0     C57889   6.332   1.601   0.758 -0.1208  0.5722 -0.6596
  420MOL0     C57890   6.286   1.503   0.866  0.5155  0.2155 -0.3536
  420MOL0     H57891   6.473   1.334   1.062 -0.6909 -1.3228  5.2571
  420MOL0     H57892   6.618   1.184   1.187 -0.1478  1.2290  1.3940
  420MOL0     H57893   7.076   1.261   1.242  0.6299  0.8905 -1.6404
  420MOL0     H57894   7.048   1.201   1.079  1.5679  0.4320  0.3233
  420MOL0     H57895   7.013   1.035   1.328 -1.9056  0.5039 -1.1694
  420MOL0     H57896   7.008   0.978   1.158  1.6552 -1.2643 -0.6607
  420MOL0     H57897   7.229   0.917   1.255 -1.4609 -0.1305  0.7798
  420MOL0     H57898   7.256   1.053   1.144  1.0026 -3.4050 -0.0107
  420MOL0     H57899   7.295   1.208   1.325  0.6059 -1.1336 -2.1966
  420MOL0     H57900   7.212   1.112   1.443 -0.5384  2.0858 -0.1112
  420MOL0     H57901   7.378   0.930   1.414  2.6409 -0.9236 -2.7081
  420MOL0     H57902   7.434   1.075   1.497 -2.0554  0.1787  0.1330
  420MOL0     H57903   7.579   0.964   1.303 -0.1060  1.4849  1.4293
  420MOL0     H57904   7.450   1.014   1.186  1.0085 -2.1537 -0.1139
  420MOL0     H57905   7.642   1.169   1.362  3.8162 -4.6800 -2.2572
  420MOL0     H57906   7.517   1.261   1.272  0.9722  1.3448  2.4020
  420MOL0     H57907   7.696   1.075   1.133 -0.9974 -0.6377  0.2132
  420MOL0     H57908   7.583   1.198   1.070  1.0452  0.2718 -0.1241
  420MOL0     H57909   7.715   1.424   0.990 -1.0587  1.4650  2.3880
  420MOL0     H57910   8.024   1.605   1.114  0.6147  1.6289 -1.6480
  420MOL0     H57911   7.857   1.647   1.050 -1.2205 -1.3062  0.6583
  420MOL0     H57912   8.087   1.514   0.920  0.5744  1.9110  2.0857
  420MOL0     H57913   7.921   1.500   0.854  0.5676  0.8556 -1.3742
  420MOL0     H57914   8.051   1.655   0.719  1.6857 -2.3023  1.2889
  420MOL0     H57915   7.926   1.744   0.798  0.7744 -1.1182 -1.7323
  420MOL0     H57916   8.091   1.828   0.969 -0.2559 -0.0868 -0.0406
  420MOL0     H57917   8.217   1.732   0.897 -0.9073 -1.0101 -1.4543
  420MOL0     H57918   8.408   1.779   0.834 -4.0960 -0.3885  1.2535
  420MOL0     H57919   8.644   1.836   1.008 -0.7113 -1.3319 -0.0387
  420MOL0     H57920   8.729   1.932   0.874  1.0210 -1.5473 -0.5528
  420MOL0     H57921   8.637   1.791   0.841 -0.0401 -0.4090  1.3575
  420MOL0     H57922   8.890   2.227   0.878 -1.2753 -0.2928  1.0092
  420MOL0     H57923   9.116   2.338   0.963 -0.3517  0.0348 -1.3103
  420MOL0     H57924   9.230   2.277   1.387 -1.4019 -1.0658 -1.2904
  420MOL0     H57925   9.279   2.161   1.248 -1.0312 -1.7480  2.6196
  420MOL0     H57926   9.415   2.424   1.310  0.3061  0.3003  1.2899
  420MOL0     H57927   9.482   2.268   1.360 -2.2362 -1.4808  1.4369
  420MOL0     H57928   9.432   2.320   1.061 -0.2673 -0.7986  0.1497
  420MOL0     H57929   9.471   2.172   1.140 -1.8694 -0.6088  1.3939
  420MOL0     H57930   9.681   2.255   1.228 -1.0836 -1.9987 -0.5034
  420MOL0     H57931   9.654   2.418   1.160  1.4907 -0.1258 -0.6072
  420MOL0     H57932   9.681   2.339   0.932 -0.8581 -1.2563  0.6750
  420MOL0     H57933   9.821   2.312   1.048 -1.2065  0.4116  3.7287
  420MOL0     H57934   9.660   2.105   0.920  0.3331  0.4014 -0.5378
  420MOL0     H57935   9.728   2.066   1.076 -1.8715  1.7351  0.8368
  420MOL0     H57936   9.906   2.186   0.867  1.3691 -0.5852  0.6629
  420MOL0     H57937   9.853   2.019   0.834 -2.3309 -0.8747  0.6087
  420MOL0     H57938   9.994   1.952   1.027 -0.4872  0.4344 -2.1929
  420MOL0     H57939   9.947   2.097   1.111 -1.3500  0.3564 -0.2395
  420MOL0     H57940   9.001   2.232   1.356 -0.2200  1.7947 -0.0139
  420MOL0     H57941   8.804   2.126   1.277  2.0814 -0.5401  1.5958
  420MOL0     H57942   8.393   2.281   0.861  2.6867  0.5854 -1.4884
  420MOL0     H57943   8.183   2.142   0.793 -0.6178 -1.4015  0.1892
  420MOL0     H57944   6.968   1.404   1.088  0.3333 -1.3808  0.9051
  420MOL0     H57945   6.828   1.574   0.958 -1.7765  1.6582  2.0700
  420MOL0     H57946   6.583   1.752   0.602 -0.4039  1.1221  1.3557
  420MOL0     H57947   6.395   1.892   0.500 -3.1289  1.1645  0.9897
  420MOL0     H57948   6.065   1.878   0.751  1.1718 -0.2241  0.2017
  420MOL0     H57949   6.023   2.001   0.633  1.8368  0.4611 -0.3841
  420MOL0     H57950   5.903   1.727   0.677  1.4638  0.1019  1.0580
  420MOL0     H57951   5.913   1.776   0.512  3.1872 -0.4492  0.4548
  420MOL0     H57952   5.791   1.941   0.742  2.3113  2.7036 -0.1383
  420MOL0     H57953   5.817   2.000   0.568 -1.0904 -0.3775 -0.5444
  420MOL0     H57954   5.588   1.916   0.631  0.8853  1.6390 -1.4223
  420MOL0     H57955   5.655   1.752   0.643 -2.0745  0.2654 -0.6034
  420MOL0     H57956   5.580   1.852   0.225 -0.1408  1.1358  0.5015
  420MOL0     H57957   6.120   1.663   0.745 -0.7542 -1.3360 -0.7161
  420MOL0     H57958   6.180   1.483   0.880  0.9818 -2.2546  0.1723
  420MOL0     H57959   6.332   1.408   0.834 -1.4407 -0.3711 -1.6397
  420MOL0     H57960   6.314   1.547   0.962  1.3196  0.9807 -0.9284
  421MOL0     O57961   6.245   3.355   8.538  0.0607  0.5562  0.4390
  421MOL0     C57962   6.256   3.314   8.427 -0.2693  0.3479  0.6194
  421MOL0     O57963   6.176   3.354   8.312 -0.0844 -0.4590  0.5140
  421MOL0     C57964   6.067   3.437   8.331 -0.3956  0.1142  0.3115
  421MOL0     C57965   5.939   3.383   8.342  0.1417  0.3489 -0.6855
  421MOL0     C57966   5.831   3.462   8.372 -0.2035 -0.2185 -0.1110
  421MOL0     C57967   5.845   3.600   8.385  0.6956  0.3720 -0.0973
  421MOL0     O57968   5.734   3.681   8.403 -0.4374 -0.0326 -0.7356
  421MOL0     C57969   5.730   3.811   8.352  0.7418 -0.0179  0.3017
  421MOL0     C57970   5.599   3.870   8.380  0.0186 -0.7110  0.1103
  421MOL0     C57971   5.533   3.846   8.514  0.5857  0.8955 -0.1394
  421MOL0     C57972   5.415   3.954   8.524  0.3543  0.0042 -0.0338
  421MOL0     C57973   5.310   3.922   8.636 -0.6309 -0.0247  0.6909
  421MOL0     C57974   5.211   4.043   8.654  0.3608 -0.3820 -0.3909
  421MOL0     C57975   5.256   4.124   8.776  0.8655 -0.7559 -0.0658
  421MOL0     C57976   5.145   4.211   8.824  0.2951 -0.4710 -0.7284
  421MOL0     N57977   5.187   4.307   8.936  0.3905  0.6039  0.1716
  421MOL0     C57978   5.122   4.421   8.971 -0.2754 -0.2157 -0.0597
  421MOL0     C57979   5.198   4.468   9.071  0.4249  0.4673 -0.0772
  421MOL0     C57980   5.172   4.608   9.119  0.4847 -0.0695 -0.0145
  421MOL0     C57981   5.274   4.708   9.049  0.1217 -0.4977 -0.4481
  421MOL0     C57982   5.369   4.756   9.150 -0.0674 -0.9387  0.9060
  421MOL0     C57983   5.503   4.682   9.162  0.3938 -1.3890 -0.4246
  421MOL0     O57984   5.559   4.641   9.038  0.2224 -0.1661 -1.1790
  421MOL0     C57985   5.691   4.600   9.043 -0.8083  0.6467 -0.6097
  421MOL0     C57986   5.741   4.476   9.081 -0.2765 -0.0758  0.1046
  421MOL0     C57987   5.873   4.439   9.068  0.2733  1.1537 -0.3412
  421MOL0     C57988   5.900   4.295   9.099 -1.3166  0.7795 -0.4193
  421MOL0     C57989   5.961   4.539   9.032  0.0117  0.4126 -0.4051
  421MOL0     C57990   6.106   4.512   9.008 -0.5764 -0.5370  0.6546
  421MOL0     O57991   6.146   4.385   8.957  0.0758 -0.3054 -0.0399
  421MOL0     C57992   6.280   4.374   8.926 -0.1073  0.0910 -0.2674
  421MOL0     C57993   6.321   4.435   8.812 -0.5296  0.1752  0.7052
  421MOL0     C57994   6.463   4.438   8.776 -0.6951 -0.6663 -0.2547
  421MOL0     C57995   6.560   4.381   8.867  1.1510  0.6573 -0.0958
  421MOL0     O57996   6.694   4.376   8.840  0.6598 -0.3035  0.0181
  421MOL0     C57997   6.736   4.352   8.700  0.1205 -0.3005  0.0260
  421MOL0     C57998   6.823   4.224   8.698 -0.5574 -0.2787  0.8071
  421MOL0     C57999   6.861   4.186   8.547  0.1788 -0.5023 -0.7697
  421MOL0     C58000   6.741   4.183   8.449  0.8210 -0.6679 -0.1328
  421MOL0     C58001   6.767   4.136   8.310  0.9419  0.7589  1.0748
  421MOL0     C58002   6.873   4.213   8.233 -0.0609  0.3732  0.5811
  421MOL0     C58003   6.947   4.121   8.134 -0.0663 -0.5194  0.4727
  421MOL0     C58004   7.063   4.202   8.079 -0.1523 -0.0392  0.0161
  421MOL0    Cl58005   7.189   4.236   8.208 -0.3117  0.1993  0.0139
  421MOL0     C58006   6.512   4.305   8.983  0.6913  0.7514  1.0648
  421MOL0     C58007   6.375   4.312   9.007 -0.6194 -0.4837  0.1481
  421MOL0     O58008   6.184   4.601   9.040 -0.2426  0.2721  0.5392
  421MOL0     C58009   5.919   4.665   8.999  0.2180  1.1152  0.4848
  421MOL0     C58010   5.786   4.698   9.004  0.5192  0.5156  0.3031
  421MOL0     N58011   5.311   4.384   9.096  0.3867 -0.1967  0.0638
  421MOL0     N58012   5.304   4.295   9.002  0.4893 -0.6311  0.0997
  421MOL0     C58013   5.973   3.650   8.365  0.2257 -0.4654  0.3365
  421MOL0     C58014   6.088   3.572   8.335  0.1177  0.4605 -0.6404
  421MOL0     C58015   6.361   3.207   8.395 -0.6545  0.1440  0.9441
  421MOL0     C58016   6.354   3.139   8.269 -0.0479 -0.6282 -0.4421
  421MOL0     C58017   6.443   3.042   8.235 -0.5765 -0.0285  0.4042
  421MOL0     C58018   6.557   3.015   8.308 -0.8235 -0.3425  0.3462
  421MOL0     O58019   6.658   2.929   8.253  0.0814  0.2224 -0.3574
  421MOL0     C58020   6.792   2.966   8.280 -0.2022  0.7355 -0.6212
  421MOL0     C58021   6.891   2.874   8.211 -0.1352 -0.0046  0.8286
  421MOL0     C58022   6.868   2.723   8.240 -0.3692 -0.0863  0.7204
  421MOL0     C58023   6.964   2.633   8.160  0.9720 -0.9924  0.1324
  421MOL0     C58024   7.107   2.655   8.195 -0.8226 -0.0285  0.8238
  421MOL0     C58025   7.231   2.673   8.207 -0.1646 -0.7790  0.3766
  421MOL0     C58026   6.572   3.085   8.430 -0.3868 -0.1437 -0.3406
  421MOL0     C58027   6.478   3.181   8.469 -0.4915 -0.4469 -0.6821
  421MOL0     C58028   6.506   3.273   8.581 -1.1815  0.3017  0.5535
  421MOL0     H58029   5.928   3.275   8.342  2.1333  0.0410  2.0995
  421MOL0     H58030   5.740   3.403   8.376 -1.0306  1.0011 -0.5592
  421MOL0     H58031   5.741   3.818   8.244  0.5389  3.7836  0.4014
  421MOL0     H58032   5.817   3.865   8.391  0.4569  0.4183  0.3445
  421MOL0     H58033   5.603   3.980   8.376  0.9746 -0.6644  1.5293
  421MOL0     H58034   5.530   3.844   8.300  2.4543  0.9418 -2.7236
  421MOL0     H58035   5.497   3.745   8.535 -1.8144  1.8213  0.5929
  421MOL0     H58036   5.595   3.859   8.604 -0.8745 -0.7696  1.1939
  421MOL0     H58037   5.450   4.056   8.542 -1.1143  0.3735  0.9215
  421MOL0     H58038   5.359   3.966   8.431  1.2888  3.1300 -0.3113
  421MOL0     H58039   5.361   3.900   8.731 -0.0892 -0.0616  0.3983
  421MOL0     H58040   5.256   3.839   8.590 -0.4085  0.2744 -0.1363
  421MOL0     H58041   5.205   4.096   8.559 -1.4517 -4.0506 -2.5841
  421MOL0     H58042   5.115   3.992   8.668  1.0573 -2.2246 -1.7829
  421MOL0     H58043   5.351   4.175   8.755  0.0948  1.0914  0.7470
  421MOL0     H58044   5.275   4.056   8.860 -1.8190 -1.6884 -0.1333
  421MOL0     H58045   5.122   4.276   8.739 -1.7288 -2.3873 -1.7333
  421MOL0     H58046   5.052   4.161   8.852  0.6271 -1.2024 -0.8989
  421MOL0     H58047   5.029   4.465   8.935  0.5974 -0.8571 -3.4214
  421MOL0     H58048   5.174   4.610   9.228  0.5138  0.7893 -0.0266
  421MOL0     H58049   5.071   4.631   9.084  0.7307  1.4849  0.2486
  421MOL0     H58050   5.328   4.657   8.969  0.8387  0.7451 -0.7885
  421MOL0     H58051   5.217   4.794   9.013  0.3742 -1.1518 -2.5077
  421MOL0     H58052   5.393   4.860   9.123 -2.1624  0.4110  3.7913
  421MOL0     H58053   5.309   4.777   9.239 -0.3874  2.6976 -0.0032
  421MOL0     H58054   5.572   4.747   9.217 -0.6584 -0.2097 -0.4613
  421MOL0     H58055   5.483   4.591   9.219  1.3575 -2.1129 -1.2031
  421MOL0     H58056   5.663   4.412   9.121 -1.9836  1.2762 -0.8963
  421MOL0     H58057   5.816   4.244   9.146  0.6822 -1.7638  0.6292
  421MOL0     H58058   5.985   4.309   9.168 -1.8884 -2.9317  1.2417
  421MOL0     H58059   5.930   4.228   9.018  2.4255 -1.8011  2.6683
  421MOL0     H58060   6.246   4.483   8.751  1.6966  2.2114 -0.6141
  421MOL0     H58061   6.505   4.480   8.685  0.8955 -0.2952  0.6252
  421MOL0     H58062   6.661   4.316   8.629  1.6012 -3.7536  0.0266
  421MOL0     H58063   6.785   4.446   8.673  0.4878 -0.5150 -0.0617
  421MOL0     H58064   6.913   4.230   8.759 -0.0729  0.6901  0.0233
  421MOL0     H58065   6.759   4.142   8.731 -2.2800  0.7770  0.2263
  421MOL0     H58066   6.895   4.082   8.555  1.8933  0.0980  0.4197
  421MOL0     H58067   6.943   4.250   8.513  0.2486 -1.0298 -1.6299
  421MOL0     H58068   6.692   4.278   8.428 -0.8741 -1.3795  0.4734
  421MOL0     H58069   6.676   4.107   8.492 -0.2034  0.8973  1.2317
  421MOL0     H58070   6.798   4.031   8.316  0.9295  0.7535  1.0436
  421MOL0     H58071   6.675   4.134   8.251  1.6204  2.5159 -0.1112
  421MOL0     H58072   6.944   4.254   8.304  1.9444 -1.9238  0.0218
  421MOL0     H58073   6.820   4.292   8.179 -1.9143 -3.4007 -3.7986
  421MOL0     H58074   6.883   4.083   8.053 -0.9579  0.1954  0.8113
  421MOL0     H58075   6.990   4.033   8.182  6.2843  0.7969 -1.8572
  421MOL0     H58076   7.022   4.293   8.034  0.3818 -0.8171 -2.1447
  421MOL0     H58077   7.107   4.155   7.991 -5.3389 -1.7669 -2.0409
  421MOL0     H58078   6.580   4.235   9.030  0.6913  0.0664  0.0755
  421MOL0     H58079   6.351   4.269   9.104 -0.9686 -0.6954 -0.0328
  421MOL0     H58080   5.987   4.742   8.965  3.2513 -0.9674  1.4675
  421MOL0     H58081   5.755   4.796   8.967 -0.3949  0.5286  1.0709
  421MOL0     H58082   5.992   3.757   8.368 -0.5404 -0.3080 -0.0996
  421MOL0     H58083   6.184   3.623   8.338  0.1703  0.3456 -0.1236
  421MOL0     H58084   6.269   3.147   8.202 -1.0010  0.9265  0.8874
  421MOL0     H58085   6.440   2.988   8.141 -0.7577  3.0814 -1.5189
  421MOL0     H58086   6.822   3.065   8.245  4.5243 -0.5334 -0.8345
  421MOL0     H58087   6.804   2.967   8.389 -2.8422  0.5114 -0.2645
  421MOL0     H58088   6.992   2.892   8.248  0.5110 -0.5112 -0.6060
  421MOL0     H58089   6.894   2.892   8.103  5.4349 -0.5881  0.6103
  421MOL0     H58090   6.866   2.708   8.348 -1.0353  1.2625  0.9182
  421MOL0     H58091   6.770   2.693   8.201 -2.4880  1.8395  4.0976
  421MOL0     H58092   6.952   2.649   8.053  0.5730 -1.2590  0.1356
  421MOL0     H58093   6.943   2.526   8.173 -2.3404 -0.6520 -1.5712
  421MOL0     H58094   7.336   2.679   8.226 -0.3043 -0.2502  1.0406
  421MOL0     H58095   6.655   3.079   8.500 -2.5940  2.1250  2.7691
  421MOL0     H58096   6.448   3.246   8.670  0.4751  0.3273  1.6799
  421MOL0     H58097   6.612   3.285   8.603 -0.4439 -0.4180 -2.1685
  421MOL0     H58098   6.469   3.372   8.553 -0.2411  0.3706 -0.5205
  422MOL0     O58099   3.568   2.517   2.548 -0.5589 -0.4370 -0.1677
  422MOL0     C58100   3.576   2.578   2.438 -0.4373  0.0472  0.1047
  422MOL0     O58101   3.690   2.597   2.366 -0.2712  0.2893  0.7493
  422MOL0     C58102   3.817   2.586   2.414 -0.2509  0.2086 -0.0606
  422MOL0     C58103   3.847   2.578   2.546 -0.4391  0.3471 -0.9303
  422MOL0     C58104   3.976   2.577   2.600 -0.6790  1.4921 -0.4019
  422MOL0     C58105   4.083   2.588   2.509 -0.1884  0.3623 -0.3561
  422MOL0     O58106   4.212   2.562   2.565  0.3053  0.3035 -0.2672
  422MOL0     C58107   4.323   2.519   2.483 -0.7744  0.2178  0.5367
  422MOL0     C58108   4.449   2.546   2.573 -0.5492  0.1041 -0.0020
  422MOL0     C58109   4.573   2.515   2.501  0.5997  0.4190  0.8907
  422MOL0     C58110   4.681   2.504   2.603  0.1756  0.4570  0.9955
  422MOL0     C58111   4.807   2.450   2.524 -0.4841 -0.1401 -0.1063
  422MOL0     C58112   4.914   2.439   2.624 -0.2540 -1.1587 -0.0560
  422MOL0     C58113   5.048   2.391   2.571 -0.6632  0.2696  0.1716
  422MOL0     C58114   5.105   2.518   2.512 -1.0686  0.1751  0.3087
  422MOL0     N58115   5.251   2.506   2.477 -1.0250  0.0458 -0.6135
  422MOL0     C58116   5.341   2.466   2.573 -0.0090 -1.4787 -0.9415
  422MOL0     C58117   5.452   2.480   2.504 -0.0887 -0.1285  0.3376
  422MOL0     C58118   5.581   2.434   2.547 -0.9023  0.2264 -0.0182
  422MOL0     C58119   5.626   2.314   2.464  0.7429  0.5293 -0.4314
  422MOL0     C58120   5.589   2.184   2.553 -0.8287  0.0337  0.4966
  422MOL0     C58121   5.631   2.043   2.501 -1.2314 -0.0258  0.5580
  422MOL0     O58122   5.743   2.043   2.414 -0.0127  0.0719 -0.5031
  422MOL0     C58123   5.864   2.033   2.467 -0.5940  0.8752 -0.1165
  422MOL0     C58124   5.971   1.970   2.391 -0.0732 -0.6685 -0.3420
  422MOL0     C58125   6.094   1.955   2.445  0.5441 -0.0104 -0.5009
  422MOL0     C58126   6.192   1.876   2.364 -0.5184 -0.0011  0.4568
  422MOL0     C58127   6.136   2.005   2.573  0.5693  0.1359  1.3064
  422MOL0     C58128   6.268   1.983   2.634  0.6133  0.4379 -0.0320
  422MOL0     O58129   6.262   1.988   2.772 -0.1029 -0.2048  0.1730
  422MOL0     C58130   6.382   2.001   2.836 -0.2425 -0.1765 -1.1408
  422MOL0     C58131   6.434   2.128   2.874  0.2915  0.8969  1.2109
  422MOL0     C58132   6.554   2.144   2.944 -0.0022 -0.3854 -0.0804
  422MOL0     C58133   6.629   2.033   2.967  0.1741  0.4209  0.6647
  422MOL0     O58134   6.752   2.043   3.028  0.4796  0.7410  0.7660
  422MOL0     C58135   6.862   1.969   2.968 -0.2593  0.0446  0.1574
  422MOL0     C58136   7.001   2.043   2.996 -0.4312 -0.1318 -0.6272
  422MOL0     C58137   7.112   1.948   3.049 -0.6836 -0.4252  0.3115
  422MOL0     C58138   7.253   2.014   3.062 -0.1725 -0.0201 -0.6836
  422MOL0     C58139   7.349   1.954   3.164 -0.9975 -0.6558 -0.8161
  422MOL0     C58140   7.409   1.827   3.132  0.0492 -0.2824  0.3723
  422MOL0     C58141   7.520   1.798   3.242 -0.2512  0.0765 -0.5317
  422MOL0     C58142   7.456   1.728   3.361 -0.0953  0.1380  0.0712
  422MOL0    Cl58143   7.375   1.582   3.315  0.4405 -0.0406 -0.2601
  422MOL0     C58144   6.579   1.905   2.937  0.4463  0.0010 -0.5021
  422MOL0     C58145   6.457   1.892   2.882  0.0368  1.2943  0.5885
  422MOL0     O58146   6.365   1.964   2.565 -0.4406  0.6383 -0.2651
  422MOL0     C58147   6.042   2.090   2.640  0.2305  1.0476 -0.8340
  422MOL0     C58148   5.909   2.097   2.593  0.4752 -0.3697  0.5355
  422MOL0     N58149   5.423   2.537   2.379  0.7312 -0.0415  0.3490
  422MOL0     N58150   5.299   2.543   2.359  0.1860  0.3976  0.6307
  422MOL0     C58151   4.058   2.600   2.362 -0.0126 -0.3171  0.1958
  422MOL0     C58152   3.922   2.591   2.322  0.4985  0.8012 -0.1661
  422MOL0     C58153   3.443   2.628   2.372 -0.1719  0.6116  0.1024
  422MOL0     C58154   3.452   2.695   2.243  0.2378  0.3958  0.6027
  422MOL0     C58155   3.342   2.744   2.185  1.0363  0.4061  1.0476
  422MOL0     C58156   3.222   2.756   2.250 -0.2584 -0.6043 -0.3977
  422MOL0     O58157   3.123   2.838   2.184 -0.3231  0.6744 -0.3456
  422MOL0     C58158   3.038   2.909   2.268  1.0870  0.5665 -0.7982
  422MOL0     C58159   3.093   3.010   2.380 -0.2636  0.2966 -0.0995
  422MOL0     C58160   3.033   2.986   2.522  0.8036  0.1890 -0.2585
  422MOL0     C58161   3.112   3.059   2.625  0.3419 -0.9639  0.4949
  422MOL0     C58162   3.010   3.129   2.706 -0.5345 -0.5858 -0.2873
  422MOL0     C58163   2.923   3.171   2.777 -0.1782 -0.2334  0.0663
  422MOL0     C58164   3.209   2.695   2.375 -0.0327 -1.6068 -0.6078
  422MOL0     C58165   3.314   2.623   2.436  0.1073  0.5871  0.2771
  422MOL0     C58166   3.281   2.576   2.576  1.1963 -0.2914 -0.0826
  422MOL0     H58167   3.773   2.567   2.625 -2.6687 -1.3918 -3.0703
  422MOL0     H58168   3.988   2.566   2.707  0.5165  2.7426 -0.3845
  422MOL0     H58169   4.324   2.567   2.384 -2.1464 -2.1055 -0.7150
  422MOL0     H58170   4.316   2.414   2.453  2.1456  0.3930 -1.1724
  422MOL0     H58171   4.446   2.649   2.609 -2.1216 -0.3547  1.2653
  422MOL0     H58172   4.439   2.479   2.658 -1.3235  0.2554  0.0290
  422MOL0     H58173   4.571   2.419   2.449 -0.0062  1.3320 -0.8415
  422MOL0     H58174   4.594   2.596   2.432 -1.6876  0.9165  0.6729
  422MOL0     H58175   4.702   2.599   2.652  1.1062 -1.3817  4.5865
  422MOL0     H58176   4.674   2.427   2.681  4.0172 -0.3450  0.7796
  422MOL0     H58177   4.829   2.511   2.436 -0.9685  0.8300  0.4327
  422MOL0     H58178   4.789   2.353   2.475 -1.4166 -0.6262  1.1453
  422MOL0     H58179   4.934   2.538   2.666  0.3621 -1.6941  0.9642
  422MOL0     H58180   4.888   2.371   2.706  0.7253  1.0773  2.2605
  422MOL0     H58181   5.047   2.308   2.500  0.0756 -1.4482  2.0944
  422MOL0     H58182   5.105   2.362   2.659 -0.3425 -1.6049 -0.6179
  422MOL0     H58183   5.052   2.542   2.419 -0.7894  0.9180  0.3365
  422MOL0     H58184   5.103   2.594   2.590  3.0694 -1.6258  2.4867
  422MOL0     H58185   5.330   2.419   2.671 -1.4216  0.9109  0.1278
  422MOL0     H58186   5.570   2.420   2.655  2.0423  0.0545  0.3415
  422MOL0     H58187   5.652   2.514   2.528  0.5368 -1.1727 -0.7505
  422MOL0     H58188   5.579   2.313   2.365  1.5079 -1.8815 -0.8351
  422MOL0     H58189   5.736   2.317   2.460  0.8099 -1.3271 -0.6464
  422MOL0     H58190   5.632   2.195   2.653  3.4382  1.2770 -1.2177
  422MOL0     H58191   5.482   2.188   2.573 -1.3876 -2.4622 -1.3882
  422MOL0     H58192   5.634   1.963   2.575 -0.8147 -0.2776  0.2731
  422MOL0     H58193   5.549   2.010   2.437  1.2210 -0.3700 -2.7276
  422MOL0     H58194   5.949   1.927   2.294 -2.9677 -1.9871  0.7570
  422MOL0     H58195   6.138   1.827   2.283  0.3430 -1.4307  0.7170
  422MOL0     H58196   6.247   1.802   2.422 -1.5317  0.1019  1.5952
  422MOL0     H58197   6.263   1.950   2.325 -2.4100  0.6124 -2.1423
  422MOL0     H58198   6.360   2.202   2.846 -1.9714 -1.0806  1.6138
  422MOL0     H58199   6.582   2.246   2.971 -0.4396  0.0613 -1.2495
  422MOL0     H58200   6.868   1.870   3.012  1.8981 -0.4509 -1.0689
  422MOL0     H58201   6.839   1.934   2.867  0.9966 -0.5952  0.0765
  422MOL0     H58202   7.033   2.092   2.903 -2.0220 -0.3047 -1.3010
  422MOL0     H58203   6.987   2.125   3.066  1.5120 -0.2641 -0.0237
  422MOL0     H58204   7.116   1.858   2.987 -0.1929  0.8052 -1.5042
  422MOL0     H58205   7.085   1.914   3.149  4.2869 -0.8026  1.8211
  422MOL0     H58206   7.233   2.118   3.089 -2.4657 -0.8212  1.0376
  422MOL0     H58207   7.307   2.016   2.967  1.2561  3.3006  0.0567
  422MOL0     H58208   7.428   2.029   3.160 -1.3865 -0.2962 -3.5539
  422MOL0     H58209   7.297   1.948   3.260  0.7315 -0.6426  0.1659
  422MOL0     H58210   7.462   1.834   3.037  2.2782  1.6010  1.6354
  422MOL0     H58211   7.333   1.753   3.107  1.9496 -1.4309 -2.4950
  422MOL0     H58212   7.585   1.879   3.277 -1.9553  1.9896 -1.5870
  422MOL0     H58213   7.589   1.724   3.200  0.9973  1.0056 -0.1448
  422MOL0     H58214   7.376   1.789   3.404  0.2276 -0.8254  2.1654
  422MOL0     H58215   7.529   1.716   3.441 -0.1851  1.6275  0.4148
  422MOL0     H58216   6.634   1.820   2.977 -1.5401 -0.9959  0.2520
  422MOL0     H58217   6.425   1.789   2.866  3.7366  0.1575 -0.5887
  422MOL0     H58218   6.054   2.128   2.741 -0.6321 -1.6204  0.3715
  422MOL0     H58219   5.825   2.144   2.642  1.1800  1.2604  0.2853
  422MOL0     H58220   4.133   2.623   2.286 -1.6288 -0.9690 -1.6940
  422MOL0     H58221   3.903   2.586   2.215  2.1560 -0.5298 -0.4451
  422MOL0     H58222   3.550   2.706   2.198 -0.2505  1.2789 -0.2756
  422MOL0     H58223   3.359   2.790   2.088  0.6617 -2.9670 -0.7768
  422MOL0     H58224   2.983   2.965   2.192 -1.0348 -2.1904 -1.4727
  422MOL0     H58225   2.968   2.842   2.318 -0.2062  3.0004  0.8616
  422MOL0     H58226   3.068   3.114   2.359 -2.1082 -0.1895 -0.5005
  422MOL0     H58227   3.202   2.998   2.384 -0.4150 -1.0145  2.7234
  422MOL0     H58228   2.926   3.010   2.522  0.3265 -1.6573  1.2115
  422MOL0     H58229   3.025   2.878   2.541 -1.1202  0.2157 -0.6381
  422MOL0     H58230   3.179   3.124   2.569 -1.6669  0.0939 -0.8031
  422MOL0     H58231   3.167   2.990   2.690  0.7534 -1.8323 -0.7595
  422MOL0     H58232   2.830   3.193   2.826 -0.1921 -3.0540  1.5091
  422MOL0     H58233   3.114   2.702   2.427  1.2191  1.0028  1.5313
  422MOL0     H58234   3.332   2.652   2.637  0.5046  0.2075 -0.1202
  422MOL0     H58235   3.177   2.590   2.607  1.5116  2.0703  0.0738
  422MOL0     H58236   3.314   2.476   2.606  2.4452  0.1189 -0.0196
  423MOL0     O58237   9.945   0.692   7.172  0.1907  0.1066  0.4108
  423MOL0     C58238   9.962   0.794   7.107  1.4854 -0.2539  0.1475
  423MOL0     O58239  10.069   0.818   7.020  0.3454  0.4286 -0.3216
  423MOL0     C58240  10.152   0.720   6.997 -0.5715 -0.6857  1.1786
  423MOL0     C58241  10.277   0.706   7.062 -0.0635  0.3123 -0.4630
  423MOL0     C58242  10.371   0.620   7.010  0.0521  0.1772  0.0365
  423MOL0     C58243  10.346   0.542   6.898 -0.5240  1.9721  0.2890
  423MOL0     O58244  10.444   0.445   6.874  0.4631  0.3152  0.0739
  423MOL0     C58245  10.425   0.345   6.771 -0.4231 -0.2772  0.1874
  423MOL0     C58246  10.521   0.227   6.778  0.0858 -0.6576  0.4695
  423MOL0     C58247  10.578   0.191   6.902  0.1761  0.0632  0.8563
  423MOL0     C58248  10.676   0.077   6.895 -0.3587  0.4680  0.4806
  423MOL0     C58249  10.731   0.053   7.028 -0.0579  0.2424  0.3219
  423MOL0     C58250  10.809  -0.079   7.043 -0.3700 -0.3763 -0.8858
  423MOL0     C58251  10.902  -0.112   6.926  0.1807  1.1794  0.2372
  423MOL0     C58252  11.000  -0.216   6.948 -0.4003  0.2858 -0.8678
  423MOL0     N58253  11.139  -0.174   6.991  0.1751  0.0264  0.1396
  423MOL0     C58254  11.174  -0.122   7.108  1.2417 -0.3337 -0.3462
  423MOL0     C58255  11.306  -0.096   7.099 -0.1387 -0.4511  0.4826
  423MOL0     C58256  11.405  -0.055   7.205 -0.3793 -0.0323  0.1604
  423MOL0     C58257  11.487   0.073   7.161 -0.3887  0.5599 -0.1275
  423MOL0     C58258  11.550   0.158   7.282  0.7949 -0.0460 -0.6347
  423MOL0     C58259  11.642   0.265   7.222  0.3331 -0.4491 -0.3586
  423MOL0     O58260  11.758   0.213   7.151  0.4708  0.1245  0.7160
  423MOL0     C58261  11.853   0.150   7.227 -0.3371 -0.6653 -0.3718
  423MOL0     C58262  11.967   0.090   7.159 -0.2870 -0.7182  0.0980
  423MOL0     C58263  12.074   0.032   7.228  0.0806  0.8748 -0.2361
  423MOL0     C58264  12.183  -0.040   7.151  0.0315  0.1034 -0.3286
  423MOL0     C58265  12.072   0.030   7.370  0.1692  0.1508 -0.6566
  423MOL0     C58266  12.184  -0.025   7.453 -0.4700 -0.6539 -0.6428
  423MOL0     O58267  12.178   0.021   7.578 -0.0949  0.2758 -0.0228
  423MOL0     C58268  12.286   0.010   7.661 -0.1873 -0.0190  0.3846
  423MOL0     C58269  12.259   0.010   7.798 -0.6469 -0.0936 -0.8690
  423MOL0     C58270  12.350   0.006   7.903  0.5714 -0.5399  0.1545
  423MOL0     C58271  12.491  -0.006   7.873  0.0690 -0.6765 -0.2225
  423MOL0     O58272  12.589  -0.011   7.974  0.2148  0.1096 -0.5573
  423MOL0     C58273  12.654  -0.140   7.975  0.6429  0.4955 -0.2182
  423MOL0     C58274  12.625  -0.217   8.108  0.5681  0.3844 -0.4185
  423MOL0     C58275  12.711  -0.166   8.223 -0.1710  0.7304  0.4926
  423MOL0     C58276  12.700  -0.254   8.342 -0.5865 -0.3503 -1.5325
  423MOL0     C58277  12.779  -0.206   8.460  0.1309  0.3220 -0.1204
  423MOL0     C58278  12.929  -0.223   8.452 -0.9592 -1.0661 -0.7794
  423MOL0     C58279  12.987  -0.272   8.592  0.9728  0.4584 -0.5221
  423MOL0     C58280  13.142  -0.274   8.585 -0.0077 -0.3829 -1.0553
  423MOL0    Cl58281  13.191  -0.399   8.707 -0.2859  0.2149  0.3143
  423MOL0     C58282  12.521  -0.020   7.735 -0.4692 -0.0031  0.6040
  423MOL0     C58283  12.420  -0.014   7.629 -0.5366  0.3871 -0.3098
  423MOL0     O58284  12.257  -0.115   7.411 -0.2824  0.3029 -0.1002
  423MOL0     C58285  11.951   0.071   7.427  0.0992 -0.4768 -0.0626
  423MOL0     C58286  11.852   0.128   7.366 -0.4959 -0.8580  0.3167
  423MOL0     N58287  11.341  -0.112   6.968  0.4111 -1.0989 -0.3733
  423MOL0     N58288  11.243  -0.156   6.901  0.9668 -0.7603  0.0948
  423MOL0     C58289  10.224   0.552   6.832  0.8116  0.7591 -0.2661
  423MOL0     C58290  10.125   0.639   6.883 -0.8179 -0.2698  0.3525
  423MOL0     C58291   9.856   0.904   7.115  0.2959 -0.5315 -0.0352
  423MOL0     C58292   9.889   1.036   7.084 -0.7100  0.1037 -0.2727
  423MOL0     C58293   9.799   1.140   7.107 -1.2054 -0.2917  0.2622
  423MOL0     C58294   9.673   1.115   7.160  0.0310  0.0506  0.5844
  423MOL0     O58295   9.585   1.214   7.154 -0.2573 -0.4701 -0.3224
  423MOL0     C58296   9.485   1.232   7.255  0.0078 -0.1016 -0.1070
  423MOL0     C58297   9.468   1.384   7.290 -0.4958 -0.2599  0.7535
  423MOL0     C58298   9.594   1.428   7.369  1.1965  0.4390  0.3616
  423MOL0     C58299   9.578   1.394   7.518  0.6729  0.6796  0.2989
  423MOL0     C58300   9.484   1.476   7.598 -0.3592  0.3856 -0.0930
  423MOL0     C58301   9.413   1.555   7.661 -0.1548 -0.7439 -0.8506
  423MOL0     C58302   9.638   0.984   7.186 -0.0774 -0.2229 -1.0262
  423MOL0     C58303   9.725   0.877   7.161 -0.6473  0.2463  0.5471
  423MOL0     C58304   9.677   0.731   7.164 -0.2156 -0.5241 -0.1783
  423MOL0     H58305  10.284   0.758   7.157  1.8448  0.3345 -0.5864
  423MOL0     H58306  10.466   0.638   7.059 -0.2322 -0.4419  0.8452
  423MOL0     H58307  10.433   0.392   6.672 -0.9679  0.3106  0.4156
  423MOL0     H58308  10.327   0.297   6.780  0.0971 -1.3171  0.4717
  423MOL0     H58309  10.469   0.140   6.737 -1.1305  0.2372  0.0592
  423MOL0     H58310  10.611   0.255   6.722  0.3953 -0.0127  1.2629
  423MOL0     H58311  10.633   0.272   6.952  0.1139  1.2242 -0.8568
  423MOL0     H58312  10.490   0.179   6.965  0.6592  2.5985  2.1607
  423MOL0     H58313  10.627  -0.013   6.857 -0.4294  0.7026  0.0067
  423MOL0     H58314  10.761   0.104   6.832 -1.0548  0.4582 -0.4887
  423MOL0     H58315  10.648   0.041   7.099 -1.4792 -0.9599 -1.4555
  423MOL0     H58316  10.799   0.133   7.057  1.7177 -0.7511 -0.9484
  423MOL0     H58317  10.868  -0.079   7.136 -1.4149  0.2532 -0.1980
  423MOL0     H58318  10.736  -0.160   7.053 -1.4598  0.6669  0.0453
  423MOL0     H58319  10.946  -0.016   6.895  0.7692  0.5443 -0.9485
  423MOL0     H58320  10.850  -0.143   6.835 -1.9733  1.7269  1.2209
  423MOL0     H58321  10.944  -0.282   7.015 -0.0586  0.0450 -0.8162
  423MOL0     H58322  11.023  -0.274   6.858  1.3974 -1.7561  0.7874
  423MOL0     H58323  11.114  -0.118   7.198 -2.2250  1.3915 -2.5581
  423MOL0     H58324  11.475  -0.133   7.238 -0.0994 -0.0472 -0.4520
  423MOL0     H58325  11.344  -0.021   7.289  2.5698 -0.2625  2.5451
  423MOL0     H58326  11.575   0.043   7.103  0.4685  1.5592  0.6002
  423MOL0     H58327  11.426   0.150   7.112 -0.4718  0.3736 -0.3178
  423MOL0     H58328  11.471   0.211   7.335  2.0192  0.4779  0.7513
  423MOL0     H58329  11.593   0.083   7.349 -1.5533 -1.4698 -0.6216
  423MOL0     H58330  11.594   0.329   7.148 -2.4781 -0.2765  1.4915
  423MOL0     H58331  11.669   0.336   7.300 -1.8770  2.9925 -2.4562
  423MOL0     H58332  11.955   0.084   7.051 -0.8179 -3.6283  0.2375
  423MOL0     H58333  12.191  -0.144   7.182 -0.6263 -0.2387 -1.2481
  423MOL0     H58334  12.285  -0.004   7.162  2.0229 -4.5874 -1.1414
  423MOL0     H58335  12.159  -0.043   7.044 -0.2310  0.1558 -0.2713
  423MOL0     H58336  12.154   0.004   7.825 -0.5135 -1.9466 -0.5769
  423MOL0     H58337  12.324   0.030   8.006  0.6262  2.3362 -0.4389
  423MOL0     H58338  12.612  -0.209   7.901 -1.2731  0.6149  0.6950
  423MOL0     H58339  12.762  -0.139   7.965  0.5157  1.2204 -2.0373
  423MOL0     H58340  12.518  -0.197   8.125  0.7521 -0.3226  2.0832
  423MOL0     H58341  12.648  -0.322   8.086  0.5708  0.5770 -1.3310
  423MOL0     H58342  12.659  -0.074   8.250 -2.0552 -0.1113 -0.0435
  423MOL0     H58343  12.817  -0.151   8.203  0.0902 -1.6284 -0.2136
  423MOL0     H58344  12.740  -0.352   8.315  3.5007  0.6383  0.1846
  423MOL0     H58345  12.594  -0.264   8.367 -0.0378 -1.3403  0.5953
  423MOL0     H58346  12.746  -0.106   8.489 -1.3326  0.2429 -1.3872
  423MOL0     H58347  12.746  -0.265   8.547  1.0639  0.8765  0.6358
  423MOL0     H58348  12.970  -0.123   8.439 -1.4721 -0.6056  0.9929
  423MOL0     H58349  12.958  -0.288   8.369  1.2190 -1.1203 -0.0273
  423MOL0     H58350  12.957  -0.377   8.604  0.3878  0.5339 -1.2151
  423MOL0     H58351  12.954  -0.212   8.677 -0.9239 -0.6524 -0.4106
  423MOL0     H58352  13.184  -0.179   8.619  0.5595 -1.9441  3.2090
  423MOL0     H58353  13.173  -0.306   8.485  0.8548  2.3219 -1.7499
  423MOL0     H58354  12.626  -0.037   7.712  0.3438  1.7524  2.6818
  423MOL0     H58355  12.456  -0.016   7.526 -3.5341 -0.8824 -1.4216
  423MOL0     H58356  11.938   0.070   7.535 -1.7958  1.0340 -0.2217
  423MOL0     H58357  11.768   0.172   7.418 -0.9049  0.3627 -1.2985
  423MOL0     H58358  10.202   0.492   6.745 -0.3190  0.2879  0.3319
  423MOL0     H58359  10.039   0.660   6.820 -2.0491 -1.1237  1.6792
  423MOL0     H58360   9.984   1.059   7.036 -0.9559 -0.6068 -1.1282
  423MOL0     H58361   9.815   1.243   7.075  0.8921  0.2993  2.9033
  423MOL0     H58362   9.388   1.200   7.215 -0.9077  2.7764 -0.4194
  423MOL0     H58363   9.513   1.163   7.335 -0.3518  0.2477  0.3278
  423MOL0     H58364   9.373   1.399   7.342 -0.8908  0.3690 -0.1254
  423MOL0     H58365   9.442   1.441   7.201  0.4794  2.9254  2.3423
  423MOL0     H58366   9.678   1.371   7.329  1.8873  1.9979 -0.4742
  423MOL0     H58367   9.620   1.532   7.348  3.2148 -0.0937  0.0538
  423MOL0     H58368   9.679   1.402   7.557  0.1507  2.0504  1.4729
  423MOL0     H58369   9.555   1.287   7.527 -0.6942  1.0196  1.3312
  423MOL0     H58370   9.350   1.617   7.721  0.3363  0.4799 -1.5794
  423MOL0     H58371   9.534   0.969   7.210  0.1066  2.0440  1.7364
  423MOL0     H58372   9.694   0.694   7.063  0.0779  2.4867 -1.3490
  423MOL0     H58373   9.718   0.668   7.243  0.3265 -1.3723 -1.1066
  423MOL0     H58374   9.570   0.741   7.180 -0.2695 -0.7059 -0.4211
  424MOL0     O58375   9.396   4.061   3.063  0.5241 -0.0017 -0.4811
  424MOL0     C58376   9.496   4.119   3.105 -0.4396 -0.3559  0.5150
  424MOL0     O58377   9.614   4.119   3.036  0.7100  0.1353  0.0609
  424MOL0     C58378   9.611   4.041   2.923 -0.3597 -0.1123  0.3414
  424MOL0     C58379   9.586   4.092   2.795 -0.5895 -0.9097  0.0808
  424MOL0     C58380   9.598   4.017   2.680 -0.9716  0.2008  0.1410
  424MOL0     C58381   9.622   3.873   2.692 -0.9154 -2.0049 -0.9524
  424MOL0     O58382   9.626   3.781   2.587 -0.8232  0.0400 -0.6467
  424MOL0     C58383   9.523   3.788   2.485  0.1601  0.0680 -0.1635
  424MOL0     C58384   9.393   3.697   2.503  0.2923 -0.1954  0.6158
  424MOL0     C58385   9.296   3.745   2.610  0.2130 -0.6678  0.0634
  424MOL0     C58386   9.244   3.886   2.575  0.4095  0.0671 -0.9934
  424MOL0     C58387   9.159   3.954   2.685 -0.4122 -0.3558  0.3079
  424MOL0     C58388   9.097   4.078   2.631 -0.1431 -0.1937 -0.7769
  424MOL0     C58389   9.010   4.152   2.734  0.3386  0.1232 -0.4163
  424MOL0     C58390   8.958   4.283   2.686 -0.2951  0.0442 -0.1165
  424MOL0     N58391   8.845   4.344   2.767  0.3736  0.3756 -0.5901
  424MOL0     C58392   8.860   4.462   2.836 -0.2436 -0.7864 -0.0450
  424MOL0     C58393   8.745   4.471   2.911 -0.3573 -0.0244  0.6030
  424MOL0     C58394   8.724   4.568   3.021  0.3744  0.2460  0.4222
  424MOL0     C58395   8.677   4.707   2.979  0.3829 -0.5615 -0.6866
  424MOL0     C58396   8.536   4.697   2.936  0.3527 -0.0920 -1.0636
  424MOL0     C58397   8.492   4.816   2.842  0.7059 -0.3748 -0.4144
  424MOL0     O58398   8.548   4.942   2.893 -0.3162 -0.0714 -0.1910
  424MOL0     C58399   8.476   5.059   2.887  0.0217  0.0596  0.0609
  424MOL0     C58400   8.350   5.080   2.827  0.1240  0.7795  0.4186
  424MOL0     C58401   8.292   5.205   2.813  0.2560 -0.2406 -0.6031
  424MOL0     C58402   8.162   5.212   2.754 -0.2755 -0.1907 -0.0678
  424MOL0     C58403   8.339   5.307   2.900 -0.1360  0.3520  0.1785
  424MOL0     C58404   8.268   5.445   2.918 -0.3260 -0.3678  0.7054
  424MOL0     O58405   8.330   5.521   3.005  0.5713 -0.1305  0.2229
  424MOL0     C58406   8.266   5.639   3.031  0.2098 -0.8945  0.4630
  424MOL0     C58407   8.303   5.764   2.982  0.6710  0.4790 -0.0680
  424MOL0     C58408   8.248   5.887   3.018 -0.2503  0.5774 -0.8066
  424MOL0     C58409   8.135   5.883   3.096  0.4312  0.4067 -0.3418
  424MOL0     O58410   8.080   6.001   3.126 -0.1426  0.0076  0.0670
  424MOL0     C58411   8.037   6.013   3.265  0.7997  0.1338 -0.5685
  424MOL0     C58412   8.001   6.159   3.308  0.4876 -0.4445  0.3751
  424MOL0     C58413   7.877   6.214   3.226 -0.7844  0.2922 -0.4773
  424MOL0     C58414   7.843   6.357   3.286  0.0606 -0.0121  0.1593
  424MOL0     C58415   7.740   6.437   3.207  0.1652 -1.0003  0.6740
  424MOL0     C58416   7.606   6.358   3.222  0.4777 -0.0999 -1.2996
  424MOL0     C58417   7.480   6.433   3.182 -0.1396  0.7997  0.0987
  424MOL0     C58418   7.491   6.469   3.030 -0.2808 -0.3801 -0.7352
  424MOL0    Cl58419   7.510   6.321   2.934  0.0342  0.3910  0.3966
  424MOL0     C58420   8.082   5.762   3.143 -0.4461  0.1657  0.4170
  424MOL0     C58421   8.151   5.644   3.117 -0.3952  0.1541  0.0201
  424MOL0     O58422   8.174   5.485   2.843  0.3756  0.4443  0.6178
  424MOL0     C58423   8.458   5.284   2.972 -0.4261  0.3786  0.1384
  424MOL0     C58424   8.535   5.166   2.960  0.2891  0.7192  0.5663
  424MOL0     N58425   8.659   4.363   2.881 -0.4396 -0.3154  0.2450
  424MOL0     N58426   8.723   4.289   2.803 -0.4178 -0.0715 -0.5044
  424MOL0     C58427   9.646   3.823   2.819 -0.3521 -0.1378 -0.6308
  424MOL0     C58428   9.649   3.907   2.934 -0.2516 -0.1138  0.4549
  424MOL0     C58429   9.483   4.197   3.233  1.1301 -0.1105 -0.3234
  424MOL0     C58430   9.347   4.225   3.280 -0.0516  0.5025  0.1358
  424MOL0     C58431   9.323   4.301   3.395  0.1023 -0.2017 -0.1329
  424MOL0     C58432   9.433   4.346   3.476  0.4535  0.3727  0.2401
  424MOL0     O58433   9.400   4.418   3.594 -0.6557  0.1466 -0.6552
  424MOL0     C58434   9.458   4.363   3.713 -1.0111 -0.9589 -0.2762
  424MOL0     C58435   9.441   4.212   3.744 -0.9256 -0.3093 -0.4376
  424MOL0     C58436   9.529   4.156   3.850  0.6758 -0.1157  0.1285
  424MOL0     C58437   9.493   4.208   3.994 -0.6434 -0.1419 -0.4819
  424MOL0     C58438   9.345   4.219   4.018 -0.6915 -0.1075  0.1220
  424MOL0     C58439   9.231   4.216   4.046 -0.3596  0.7930 -0.5633
  424MOL0     C58440   9.568   4.308   3.439 -0.1908 -0.5295 -0.2832
  424MOL0     C58441   9.593   4.246   3.311  0.1800  0.5028  0.4828
  424MOL0     C58442   9.734   4.203   3.276 -0.3327 -0.1497 -0.9521
  424MOL0     H58443   9.570   4.198   2.778 -0.4380 -0.9730 -0.4696
  424MOL0     H58444   9.599   4.058   2.580 -1.5101 -2.3827 -1.0162
  424MOL0     H58445   9.576   3.762   2.392  1.1746  3.6815 -0.7443
  424MOL0     H58446   9.502   3.894   2.469  0.8114 -0.1439 -2.9515
  424MOL0     H58447   9.338   3.695   2.409  0.5142  0.7830  0.4540
  424MOL0     H58448   9.420   3.592   2.520 -2.5364 -1.2522 -0.7666
  424MOL0     H58449   9.219   3.666   2.615  0.6348 -1.1138 -0.3530
  424MOL0     H58450   9.347   3.749   2.706 -0.8672  3.0337  0.6463
  424MOL0     H58451   9.316   3.961   2.541  0.0128  0.8580 -0.1193
  424MOL0     H58452   9.174   3.863   2.494 -0.6591 -0.7266  0.1217
  424MOL0     H58453   9.219   3.976   2.774  1.6484 -2.6462 -0.4339
  424MOL0     H58454   9.083   3.895   2.739 -1.3757  2.2715  2.0728
  424MOL0     H58455   9.183   4.139   2.606  0.6848 -0.5265  1.0874
  424MOL0     H58456   9.036   4.055   2.544 -2.4461 -0.3854  0.7877
  424MOL0     H58457   9.064   4.164   2.828 -2.2062  1.6713  0.9665
  424MOL0     H58458   8.934   4.083   2.773 -0.9005  2.3333  1.3241
  424MOL0     H58459   9.044   4.350   2.688 -0.4519  0.2294  2.0068
  424MOL0     H58460   8.923   4.273   2.582  1.9639 -0.0433 -0.9225
  424MOL0     H58461   8.946   4.528   2.833  0.2186 -1.3947 -0.8955
  424MOL0     H58462   8.817   4.576   3.079  0.8543 -0.2044 -0.2622
  424MOL0     H58463   8.660   4.518   3.094  1.3419  0.3661  1.3808
  424MOL0     H58464   8.683   4.777   3.063  1.4801 -2.0205  0.5064
  424MOL0     H58465   8.737   4.742   2.895 -1.8300 -1.0659 -2.5710
  424MOL0     H58466   8.527   4.604   2.879  1.8822  1.0855 -3.4161
  424MOL0     H58467   8.473   4.702   3.024  0.3420  3.8660 -1.1192
  424MOL0     H58468   8.546   4.801   2.748  1.2370 -1.8593  0.0906
  424MOL0     H58469   8.383   4.814   2.834  0.6047  2.9698 -1.2966
  424MOL0     H58470   8.299   5.004   2.769 -1.6667  2.0980  0.1819
  424MOL0     H58471   8.139   5.117   2.704  0.5374  0.5047 -1.8630
  424MOL0     H58472   8.155   5.288   2.676  0.1942 -1.4929 -1.4390
  424MOL0     H58473   8.082   5.228   2.826  0.0004  0.9751 -0.0019
  424MOL0     H58474   8.392   5.769   2.919  2.0072 -0.5549  1.6200
  424MOL0     H58475   8.293   5.979   2.982 -0.4554  0.9855 -0.0476
  424MOL0     H58476   7.943   5.959   3.275 -0.3487  1.0209 -4.7030
  424MOL0     H58477   8.118   5.974   3.328  0.2543  0.4463  0.3414
  424MOL0     H58478   7.994   6.159   3.417  0.0458  2.0880  0.4115
  424MOL0     H58479   8.088   6.224   3.300  2.1898 -2.5911  0.7126
  424MOL0     H58480   7.790   6.148   3.237  1.7714 -3.5325 -1.3644
  424MOL0     H58481   7.906   6.214   3.121  2.1747  0.2220  0.2615
  424MOL0     H58482   7.929   6.424   3.298 -1.5911  2.4411 -0.9465
  424MOL0     H58483   7.812   6.337   3.388  0.2570 -0.7768  0.0819
  424MOL0     H58484   7.738   6.538   3.249 -1.7519 -0.1812 -1.1889
  424MOL0     H58485   7.751   6.445   3.099 -0.7156 -1.9895  0.4944
  424MOL0     H58486   7.579   6.320   3.321 -1.6221 -0.7263 -2.0623
  424MOL0     H58487   7.623   6.264   3.169 -1.7162 -0.3790 -1.6020
  424MOL0     H58488   7.489   6.524   3.243  1.7205 -0.0239  1.1311
  424MOL0     H58489   7.400   6.364   3.209 -0.1144  0.3438 -0.9380
  424MOL0     H58490   7.580   6.524   2.998  1.0230 -1.7041  0.4397
  424MOL0     H58491   7.397   6.516   3.000 -0.4791 -0.8653 -0.8764
  424MOL0     H58492   7.993   5.757   3.205 -1.6472  0.8483 -1.1601
  424MOL0     H58493   8.118   5.554   3.167 -3.6327  1.1647 -0.0667
  424MOL0     H58494   8.493   5.359   3.041 -0.7735  1.8588 -1.2327
  424MOL0     H58495   8.632   5.150   3.007  0.4305 -0.0126  0.0492
  424MOL0     H58496   9.654   3.716   2.836 -0.2715 -0.0392 -0.0321
  424MOL0     H58497   9.656   3.870   3.036  1.0214 -1.7532 -0.1696
  424MOL0     H58498   9.257   4.199   3.225  0.7673  2.8540 -2.5641
  424MOL0     H58499   9.221   4.310   3.431  0.8304  1.8258  1.6023
  424MOL0     H58500   9.567   4.370   3.709 -1.1172  0.9764 -0.4209
  424MOL0     H58501   9.422   4.430   3.791  1.3544  0.5803 -0.4181
  424MOL0     H58502   9.475   4.163   3.652 -3.2450 -0.5663 -1.2428
  424MOL0     H58503   9.336   4.185   3.757 -1.1634  0.3458 -0.8886
  424MOL0     H58504   9.515   4.047   3.850  0.9058 -0.2278 -3.0377
  424MOL0     H58505   9.635   4.160   3.823  0.5387  0.4077 -0.3365
  424MOL0     H58506   9.539   4.307   4.001 -1.7313  0.3318  0.1972
  424MOL0     H58507   9.550   4.146   4.063  2.8408  1.4828 -1.6477
  424MOL0     H58508   9.129   4.218   4.079 -0.7424 -3.6273 -0.9586
  424MOL0     H58509   9.654   4.340   3.497  0.4352 -1.8796 -0.4286
  424MOL0     H58510   9.802   4.245   3.350 -1.6075 -0.2571  0.3305
  424MOL0     H58511   9.745   4.095   3.272  2.5309 -0.0206  1.1594
  424MOL0     H58512   9.752   4.251   3.179  0.5737 -1.2131 -1.3245
  425MOL0     O58513   9.796   9.798   0.864  0.7848  0.1489 -0.3800
  425MOL0     C58514   9.747   9.687   0.881  0.0788 -0.2040  0.1207
  425MOL0     O58515   9.816   9.570   0.895  0.4261 -0.5324 -0.2422
  425MOL0     C58516   9.952   9.576   0.885 -0.2889 -0.8878  0.3064
  425MOL0     C58517  10.003   9.515   0.767  0.2507 -0.4122  0.2814
  425MOL0     C58518  10.139   9.520   0.745  0.2203 -0.6010 -0.3729
  425MOL0     C58519  10.227   9.585   0.832 -0.1127 -0.2038  0.4098
  425MOL0     O58520  10.362   9.581   0.801  0.2480  1.0605  0.2188
  425MOL0     C58521  10.461   9.662   0.867  0.9610 -0.2512 -0.1294
  425MOL0     C58522  10.589   9.655   0.774 -0.1089 -0.6647 -0.2409
  425MOL0     C58523  10.716   9.727   0.843  0.2084 -0.2558 -0.6044
  425MOL0     C58524  10.841   9.679   0.778  0.9050 -0.3353  0.4316
  425MOL0     C58525  10.950   9.784   0.800  0.2727 -1.0912  0.7162
  425MOL0     C58526  11.096   9.733   0.756  1.0052  0.1859 -0.0403
  425MOL0     C58527  11.216   9.831   0.766 -0.1213  0.0525 -0.5193
  425MOL0     C58528  11.287   9.838   0.911  0.2435  0.3654 -0.4269
  425MOL0     N58529  11.421   9.895   0.907  0.1461  0.2817 -0.6775
  425MOL0     C58530  11.532   9.822   0.933 -0.1248  0.2303  0.7026
  425MOL0     C58531  11.625   9.920   0.945  1.2006  1.1496 -0.1735
  425MOL0     C58532  11.773   9.914   0.960 -0.2466 -0.3556 -0.1814
  425MOL0     C58533  11.844  10.037   1.009  0.4161  1.0714  0.3457
  425MOL0     C58534  11.998  10.031   0.968 -0.4219  1.1019 -0.1257
  425MOL0     C58535  12.087  10.145   1.028 -0.1556  0.2448  0.2306
  425MOL0     O58536  12.035  10.272   0.981 -0.1724  0.7376 -0.5902
  425MOL0     C58537  12.116  10.383   1.002 -0.0890  1.3320  0.1580
  425MOL0     C58538  12.120  10.479   0.907 -0.7270 -0.0135 -0.2499
  425MOL0     C58539  12.199  10.599   0.933  0.2491  0.6352 -0.5652
  425MOL0     C58540  12.194  10.715   0.823  0.0826  0.5713 -0.2723
  425MOL0     C58541  12.287  10.605   1.046  0.6690  0.7135  1.1687
  425MOL0     C58542  12.389  10.704   1.072  0.6284 -0.2737 -0.6107
  425MOL0     O58543  12.450  10.696   1.196 -1.2092 -0.9200  0.2860
  425MOL0     C58544  12.541  10.791   1.244  0.5386 -1.3778  0.2476
  425MOL0     C58545  12.647  10.750   1.324  0.3517 -0.6847  0.5386
  425MOL0     C58546  12.741  10.835   1.378  0.0678 -0.5566  0.0352
  425MOL0     C58547  12.744  10.971   1.344  0.4121  0.9659  0.6703
  425MOL0     O58548  12.843  11.050   1.392 -0.1644  0.8350  0.6627
  425MOL0     C58549  12.817  11.187   1.414 -0.4676  0.8893  1.1138
  425MOL0     C58550  12.936  11.244   1.485  0.0578 -0.3784  0.4903
  425MOL0     C58551  13.039  11.273   1.377 -0.5724  0.2927 -0.1449
  425MOL0     C58552  13.177  11.298   1.453 -0.2848 -0.5298  0.1811
  425MOL0     C58553  13.308  11.242   1.374  0.0641 -0.1409  0.5263
  425MOL0     C58554  13.316  11.309   1.236  0.3397 -0.1973 -0.0780
  425MOL0     C58555  13.442  11.257   1.166 -0.0683  0.7664  0.3085
  425MOL0     C58556  13.553  11.366   1.170  0.4501  0.1485 -0.2387
  425MOL0    Cl58557  13.702  11.284   1.140  0.0716 -0.0712  0.3410
  425MOL0     C58558  12.647  11.013   1.250  1.2611  0.4121  0.6086
  425MOL0     C58559  12.539  10.923   1.209  0.6751 -0.4329 -0.8075
  425MOL0     O58560  12.411  10.785   0.983  0.4677 -0.4401  0.2852
  425MOL0     C58561  12.272  10.504   1.147  0.4651 -0.5874 -0.2569
  425MOL0     C58562  12.190  10.397   1.119 -0.2389  1.2223 -0.2237
  425MOL0     N58563  11.559  10.048   0.936  1.0286 -0.2703 -0.1158
  425MOL0     N58564  11.435  10.029   0.911 -0.0579 -0.6857  0.0164
  425MOL0     C58565  10.176   9.641   0.948  1.2058  1.0401 -1.2011
  425MOL0     C58566  10.038   9.642   0.974  0.3925  0.4059 -0.1845
  425MOL0     C58567   9.599   9.682   0.888 -0.3469 -0.0039  0.3762
  425MOL0     C58568   9.542   9.561   0.867 -0.4083 -0.1792  0.5838
  425MOL0     C58569   9.404   9.551   0.833 -1.1386  0.5944 -0.0959
  425MOL0     C58570   9.318   9.654   0.847  0.3563 -0.1599 -0.1710
  425MOL0     O58571   9.179   9.651   0.819  0.1285 -0.0697  0.1007
  425MOL0     C58572   9.106   9.541   0.760 -0.3148  0.9157  0.2632
  425MOL0     C58573   9.000   9.579   0.655 -0.2680  0.2069 -0.1690
  425MOL0     C58574   8.876   9.493   0.642  0.2800 -0.0738 -0.7898
  425MOL0     C58575   8.792   9.552   0.536 -0.2873 -0.2886 -0.0357
  425MOL0     C58576   8.726   9.669   0.595  1.2159  0.0138  0.6941
  425MOL0     C58577   8.673   9.754   0.668  1.1061 -0.3734 -0.3873
  425MOL0     C58578   9.375   9.780   0.874  0.0637  0.0279 -0.9314
  425MOL0     C58579   9.511   9.795   0.898 -0.3193  1.0142  0.5132
  425MOL0     C58580   9.559   9.941   0.895 -0.0152 -0.0130 -0.5980
  425MOL0     H58581   9.941   9.476   0.687  0.4761 -4.2834  1.7381
  425MOL0     H58582  10.182   9.479   0.654  0.0073 -3.1580  0.6165
  425MOL0     H58583  10.475   9.623   0.968 -2.5938 -0.0293  0.5998
  425MOL0     H58584  10.425   9.766   0.872 -0.1679 -0.6279 -0.2571
  425MOL0     H58585  10.598   9.553   0.737 -5.1950 -1.9619  1.2484
  425MOL0     H58586  10.548   9.711   0.689  1.3638 -0.6730 -0.9758
  425MOL0     H58587  10.704   9.836   0.841  1.4826 -0.0887 -0.0307
  425MOL0     H58588  10.745   9.698   0.944  3.1605  0.9980 -0.9773
  425MOL0     H58589  10.868   9.590   0.835 -1.7316 -0.1818  2.0761
  425MOL0     H58590  10.826   9.662   0.671  2.4573  2.8479 -0.3953
  425MOL0     H58591  10.949   9.804   0.908 -0.9577 -0.6785  0.6400
  425MOL0     H58592  10.940   9.877   0.743  1.0685 -1.4595 -0.0405
  425MOL0     H58593  11.111   9.659   0.836 -3.7042 -0.0216  0.9561
  425MOL0     H58594  11.088   9.693   0.654 -1.1257  0.8931 -0.2030
  425MOL0     H58595  11.198   9.933   0.732 -0.1387  0.6932  1.3158
  425MOL0     H58596  11.297   9.793   0.703  0.3425  0.9898 -0.5090
  425MOL0     H58597  11.225   9.885   0.987 -0.6564 -1.1210 -0.2111
  425MOL0     H58598  11.297   9.734   0.942 -2.2716  0.0282 -0.5813
  425MOL0     H58599  11.530   9.714   0.942  0.0901  0.2456  0.9603
  425MOL0     H58600  11.812   9.906   0.858 -1.2947  0.8077 -0.7039
  425MOL0     H58601  11.804   9.821   1.010  1.3828  0.0365 -0.4100
  425MOL0     H58602  11.803  10.122   0.954  0.8029  0.6522 -0.6082
  425MOL0     H58603  11.820  10.048   1.115 -4.5974  1.3344 -0.5939
  425MOL0     H58604  12.045   9.938   1.001 -0.9328  1.3568  1.3961
  425MOL0     H58605  12.003  10.024   0.859  2.1588  0.5860 -0.0355
  425MOL0     H58606  12.103  10.124   1.134  3.4352 -2.0521 -0.5740
  425MOL0     H58607  12.192  10.144   0.998 -0.3709  1.6484 -0.6561
  425MOL0     H58608  12.063  10.472   0.815 -2.5284  1.6191  0.6711
  425MOL0     H58609  12.293  10.715   0.777  1.3530 -1.2111  2.1853
  425MOL0     H58610  12.166  10.809   0.873  1.0003  1.9748 -2.2695
  425MOL0     H58611  12.115  10.695   0.751 -1.8234  1.5203  1.4362
  425MOL0     H58612  12.653  10.644   1.347 -1.3647 -0.9824 -0.2241
  425MOL0     H58613  12.815  10.780   1.436  0.6958  1.6902  1.4935
  425MOL0     H58614  12.813  11.232   1.315  3.4183 -2.4825 -0.8938
  425MOL0     H58615  12.724  11.206   1.468  0.0091  0.8086  1.9981
  425MOL0     H58616  12.912  11.339   1.533  0.1621 -0.6658  1.1242
  425MOL0     H58617  12.980  11.175   1.557  0.2960 -0.9735 -0.2137
  425MOL0     H58618  13.017  11.352   1.305  1.3379  0.6594 -0.3958
  425MOL0     H58619  13.055  11.182   1.317 -0.4754  2.2699 -3.3481
  425MOL0     H58620  13.176  11.236   1.544  0.3947 -0.2091  0.4158
  425MOL0     H58621  13.187  11.402   1.488  0.6580 -0.1818 -1.0575
  425MOL0     H58622  13.392  11.256   1.441  1.3847  1.9037 -1.4066
  425MOL0     H58623  13.296  11.135   1.351 -3.9473  0.1345  0.6269
  425MOL0     H58624  13.319  11.418   1.236  2.3571 -0.2177 -1.0860
  425MOL0     H58625  13.237  11.265   1.174 -1.8661 -0.5715  2.7401
  425MOL0     H58626  13.428  11.235   1.060  1.7659 -0.1171  0.2164
  425MOL0     H58627  13.475  11.170   1.224 -1.9761  0.3460  0.8461
  425MOL0     H58628  13.564  11.408   1.271 -0.7662  1.6618 -0.6928
  425MOL0     H58629  13.533  11.449   1.101  0.1231 -1.3150 -1.9589
  425MOL0     H58630  12.661  11.110   1.203  1.1929  0.6424  1.0522
  425MOL0     H58631  12.453  10.964   1.157  0.5576 -2.0472 -1.9314
  425MOL0     H58632  12.322  10.523   1.241 -0.3710  1.2939 -0.1622
  425MOL0     H58633  12.178  10.312   1.185  0.0208  0.1023 -1.5733
  425MOL0     H58634  10.232   9.692   1.026  1.7306 -3.2207  1.5882
  425MOL0     H58635  10.003   9.695   1.062  2.7578  0.7400  0.6367
  425MOL0     H58636   9.594   9.466   0.870 -0.4379 -0.3397 -2.1587
  425MOL0     H58637   9.371   9.447   0.826 -1.3533  0.7833 -3.1057
  425MOL0     H58638   9.171   9.462   0.721  0.2019  2.3712 -2.0343
  425MOL0     H58639   9.041   9.503   0.840 -3.3054  3.3112 -0.7950
  425MOL0     H58640   9.057   9.587   0.562  0.4126 -1.4121  0.0693
  425MOL0     H58641   8.968   9.682   0.677  1.3512  1.4562 -3.0839
  425MOL0     H58642   8.902   9.394   0.603 -1.3088 -0.5893 -0.6321
  425MOL0     H58643   8.829   9.489   0.741  1.5066  0.8794 -0.1443
  425MOL0     H58644   8.730   9.467   0.507  0.9276 -2.2991  2.8378
  425MOL0     H58645   8.853   9.597   0.458 -0.0476 -0.9242 -0.2157
  425MOL0     H58646   8.623   9.834   0.719  3.7043  0.4556  1.0270
  425MOL0     H58647   9.307   9.864   0.876 -0.2505 -0.2280 -0.5830
  425MOL0     H58648   9.474  10.009   0.881  1.7442  2.0736 -1.7104
  425MOL0     H58649   9.613   9.966   0.986 -0.7171  1.1679 -0.4816
  425MOL0     H58650   9.619   9.964   0.807 -1.5324 -0.1266 -1.7126
  426MOL0     O58651   4.297   5.800   3.216  0.2221 -0.1702  0.3262
  426MOL0     C58652   4.242   5.692   3.211  0.0206 -0.4105 -0.7791
  426MOL0     O58653   4.310   5.574   3.207  0.8648  0.4805  0.1065
  426MOL0     C58654   4.442   5.565   3.166 -0.4241 -0.4362 -0.4546
  426MOL0     C58655   4.480   5.618   3.045  0.8349 -0.3300  0.1003
  426MOL0     C58656   4.614   5.627   3.000  0.1196  0.2947  0.5780
  426MOL0     C58657   4.712   5.577   3.083 -0.6995 -0.8870  0.4945
  426MOL0     O58658   4.843   5.608   3.049 -0.3593  0.0935  0.0799
  426MOL0     C58659   4.907   5.711   3.129  0.6502 -0.3394  0.2402
  426MOL0     C58660   5.060   5.716   3.110  0.1960  0.4419  0.3695
  426MOL0     C58661   5.138   5.790   3.223 -0.4917 -0.5876  0.0823
  426MOL0     C58662   5.095   5.945   3.245 -0.3168  0.2770  1.2148
  426MOL0     C58663   5.150   6.002   3.374  0.1719  0.3669 -0.2088
  426MOL0     C58664   5.304   5.989   3.400 -0.6656 -1.3755 -0.1134
  426MOL0     C58665   5.343   6.054   3.534 -0.6571  0.6555 -0.3387
  426MOL0     C58666   5.299   5.972   3.655 -0.1668 -0.6087  0.2000
  426MOL0     N58667   5.389   5.856   3.675  0.2394  0.1907 -0.4619
  426MOL0     C58668   5.532   5.852   3.663  0.6600 -0.4382  0.0769
  426MOL0     C58669   5.553   5.717   3.673 -1.4374 -0.3546 -0.7599
  426MOL0     C58670   5.694   5.645   3.695 -0.2433 -0.4808  0.2679
  426MOL0     C58671   5.806   5.747   3.664  0.3801 -0.1679  0.8840
  426MOL0     C58672   5.936   5.669   3.652  0.1114 -0.1482  0.5423
  426MOL0     C58673   6.065   5.742   3.617  0.0716 -0.3010 -0.4658
  426MOL0     O58674   6.019   5.835   3.509  0.3425  0.3122  0.2207
  426MOL0     C58675   6.121   5.911   3.457  0.0049 -0.1492  0.0075
  426MOL0     C58676   6.258   5.904   3.488  0.3193 -0.2199 -0.0926
  426MOL0     C58677   6.345   5.985   3.420  0.1024  0.3300 -0.2210
  426MOL0     C58678   6.488   5.951   3.441  0.5179  0.8622  0.9395
  426MOL0     C58679   6.300   6.084   3.330 -0.1748  0.1694 -1.0050
  426MOL0     C58680   6.393   6.168   3.265  0.0845 -0.7893  0.2886
  426MOL0     O58681   6.354   6.193   3.141 -0.1915 -0.3989 -1.2615
  426MOL0     C58682   6.409   6.293   3.078 -0.5251 -0.1857  0.7232
  426MOL0     C58683   6.518   6.256   2.999 -0.7022 -0.1082 -0.2205
  426MOL0     C58684   6.595   6.351   2.929  1.1290  0.1041  0.6363
  426MOL0     C58685   6.555   6.480   2.938  1.0589 -0.6178 -0.4034
  426MOL0     O58686   6.617   6.592   2.889  0.5194  0.0785 -0.0277
  426MOL0     C58687   6.734   6.581   2.801 -0.4420  1.2062  0.2640
  426MOL0     C58688   6.742   6.698   2.712 -0.2494  0.1020  0.4756
  426MOL0     C58689   6.856   6.690   2.616 -0.0302  0.4101  0.4811
  426MOL0     C58690   6.998   6.661   2.666 -0.1968  0.0029 -0.2550
  426MOL0     C58691   7.061   6.778   2.750  0.9154 -0.0694  0.8110
  426MOL0     C58692   7.182   6.732   2.830 -0.6787 -0.5861 -0.9585
  426MOL0     C58693   7.242   6.846   2.918  0.4569 -0.9422 -0.9100
  426MOL0     C58694   7.311   6.791   3.041 -0.2812 -0.6108  0.1163
  426MOL0    Cl58695   7.187   6.691   3.133 -0.2943 -0.2999  0.1582
  426MOL0     C58696   6.445   6.519   3.020  0.0255  0.5163  0.5286
  426MOL0     C58697   6.373   6.431   3.102  0.5267 -0.5427 -0.0665
  426MOL0     O58698   6.492   6.215   3.322 -0.1635 -0.3858 -0.7303
  426MOL0     C58699   6.165   6.111   3.320 -0.3017 -0.1397 -0.1389
  426MOL0     C58700   6.074   6.024   3.379 -0.0787 -0.6194 -0.2707
  426MOL0     N58701   5.438   5.644   3.678  0.1426 -0.1925 -0.2047
  426MOL0     N58702   5.344   5.731   3.685  0.3890 -0.2276 -0.1601
  426MOL0     C58703   4.682   5.508   3.199  0.2067  0.8786  0.3735
  426MOL0     C58704   4.547   5.506   3.244 -0.3841 -0.3816  0.8307
  426MOL0     C58705   4.097   5.676   3.201 -0.7508  0.3518  0.3105
  426MOL0     C58706   4.019   5.787   3.155 -0.6643 -0.3978 -0.3073
  426MOL0     C58707   3.880   5.792   3.140 -0.1313 -0.6847 -1.4963
  426MOL0     C58708   3.809   5.679   3.172 -0.3449 -0.1309 -0.1747
  426MOL0     O58709   3.671   5.688   3.142  0.5135  0.1177  0.5477
  426MOL0     C58710   3.587   5.572   3.166 -0.7338  0.8212  0.7196
  426MOL0     C58711   3.448   5.571   3.108 -0.5928 -0.8004 -0.3308
  426MOL0     C58712   3.363   5.690   3.150 -0.3761  0.4095 -0.0669
  426MOL0     C58713   3.218   5.662   3.121  0.0622  0.5414  0.7347
  426MOL0     C58714   3.172   5.552   3.214 -0.6891 -0.1401 -0.4245
  426MOL0     C58715   3.128   5.469   3.284  0.6760 -0.6942 -0.9623
  426MOL0     C58716   3.878   5.581   3.243  0.0767  0.1520 -0.4093
  426MOL0     C58717   4.019   5.567   3.249 -0.3991  0.1464 -0.2326
  426MOL0     C58718   4.081   5.448   3.332  0.3964 -0.3860  0.1016
  426MOL0     H58719   4.396   5.645   2.982 -1.2409 -3.6444  1.2202
  426MOL0     H58720   4.622   5.661   2.897 -0.0365  0.4589  0.6181
  426MOL0     H58721   4.885   5.694   3.234  0.8911  0.4354  0.4199
  426MOL0     H58722   4.865   5.806   3.097  0.9010 -0.4297 -0.3755
  426MOL0     H58723   5.095   5.613   3.103  1.3295  0.6660  2.1859
  426MOL0     H58724   5.076   5.759   3.010 -0.3133  1.2459  0.6278
  426MOL0     H58725   5.127   5.755   3.326  0.7765  0.4848  0.6084
  426MOL0     H58726   5.239   5.782   3.185 -1.7246 -0.3164 -3.5906
  426MOL0     H58727   5.119   6.012   3.162  0.6326 -0.1079  1.1746
  426MOL0     H58728   4.987   5.931   3.256 -0.4625  0.8020  0.5714
  426MOL0     H58729   5.087   5.959   3.452 -1.2132  4.4161  1.1194
  426MOL0     H58730   5.139   6.110   3.373 -0.7598  0.2838  0.0774
  426MOL0     H58731   5.335   5.884   3.395  1.0708 -1.0181  1.8173
  426MOL0     H58732   5.347   6.041   3.314 -1.4439  0.4221  0.5341
  426MOL0     H58733   5.304   6.156   3.540 -2.5822 -0.0935  0.6823
  426MOL0     H58734   5.452   6.057   3.540 -0.5761 -1.4025 -0.1301
  426MOL0     H58735   5.307   6.032   3.747  1.4856 -4.2884  2.6840
  426MOL0     H58736   5.193   5.947   3.642 -0.1086 -0.5778 -0.3311
  426MOL0     H58737   5.602   5.934   3.651  0.6432 -0.4840 -0.3573
  426MOL0     H58738   5.701   5.553   3.638 -1.8229 -0.9089  0.6933
  426MOL0     H58739   5.698   5.619   3.802  0.8599  0.6760  0.5271
  426MOL0     H58740   5.787   5.784   3.563  3.5362 -0.2969  0.1230
  426MOL0     H58741   5.821   5.827   3.737 -1.0697 -1.6240  2.8637
  426MOL0     H58742   5.943   5.614   3.746  3.6387 -0.3121  0.3372
  426MOL0     H58743   5.921   5.591   3.577 -0.7436  1.0505 -0.5981
  426MOL0     H58744   6.103   5.806   3.697 -0.2917 -1.1827  0.4402
  426MOL0     H58745   6.138   5.663   3.596  0.5290 -0.3840  1.2957
  426MOL0     H58746   6.296   5.821   3.547  0.4712  1.0488  1.6792
  426MOL0     H58747   6.502   5.873   3.517 -0.2188  2.5167  2.8719
  426MOL0     H58748   6.553   6.031   3.475 -0.8371  1.8592  1.2626
  426MOL0     H58749   6.520   5.920   3.341 -3.2446  1.2911 -0.5839
  426MOL0     H58750   6.548   6.152   3.011  0.5215  0.3829  1.2457
  426MOL0     H58751   6.679   6.318   2.869  1.0071 -2.7502  1.8542
  426MOL0     H58752   6.826   6.579   2.860 -1.0728 -0.1389  1.2363
  426MOL0     H58753   6.732   6.490   2.740  2.0160  2.2106 -1.4961
  426MOL0     H58754   6.653   6.704   2.648  0.1338 -1.0958 -0.2081
  426MOL0     H58755   6.746   6.791   2.769  2.0313 -0.7445  1.8148
  426MOL0     H58756   6.861   6.782   2.556  4.5925  0.6309  0.8584
  426MOL0     H58757   6.832   6.609   2.546  1.9317 -2.5691  2.9735
  426MOL0     H58758   7.059   6.651   2.576  1.6986  0.4408  0.8997
  426MOL0     H58759   7.003   6.565   2.717 -0.2568  0.4582  0.6357
  426MOL0     H58760   7.069   6.861   2.679 -3.5865  1.8917  2.1978
  426MOL0     H58761   6.979   6.801   2.819 -0.5427 -0.0306 -0.8845
  426MOL0     H58762   7.253   6.699   2.754 -0.7576  0.7366 -1.6370
  426MOL0     H58763   7.141   6.648   2.888  2.2673  0.5011  3.1818
  426MOL0     H58764   7.159   6.910   2.951  0.6263 -1.0746 -0.2298
  426MOL0     H58765   7.310   6.910   2.861 -0.4024 -0.5692 -1.5541
  426MOL0     H58766   7.351   6.877   3.094 -0.0009  0.1971 -1.3461
  426MOL0     H58767   7.395   6.728   3.009  0.2840 -0.7558  1.7735
  426MOL0     H58768   6.424   6.625   3.035 -2.5342  0.0736  0.5415
  426MOL0     H58769   6.290   6.466   3.162 -1.0203  0.9245 -2.8803
  426MOL0     H58770   6.117   6.196   3.273 -1.9153 -0.4815  0.8071
  426MOL0     H58771   5.968   6.041   3.360  0.1511  1.1373 -0.1427
  426MOL0     H58772   4.767   5.476   3.259  2.3483  0.1741 -2.7493
  426MOL0     H58773   4.506   5.441   3.321 -3.5847  0.9028  0.3986
  426MOL0     H58774   4.067   5.875   3.113 -1.3667  0.2545  0.2128
  426MOL0     H58775   3.820   5.867   3.090 -1.0787 -3.1538 -4.4289
  426MOL0     H58776   3.644   5.485   3.131 -0.3528  1.5865 -0.6454
  426MOL0     H58777   3.592   5.550   3.273 -0.1549 -0.8434  0.3845
  426MOL0     H58778   3.412   5.479   3.155  0.9629 -0.7150  1.1292
  426MOL0     H58779   3.455   5.572   2.999 -1.4546  0.1686 -0.4031
  426MOL0     H58780   3.374   5.705   3.258  0.2951  0.8458 -0.1914
  426MOL0     H58781   3.403   5.776   3.096  0.7031 -0.4767 -0.7257
  426MOL0     H58782   3.193   5.634   3.018  1.1029 -0.4642  0.7348
  426MOL0     H58783   3.156   5.749   3.143 -1.0866  0.3178 -1.4075
  426MOL0     H58784   3.089   5.393   3.349  2.4816 -2.0115 -1.3559
  426MOL0     H58785   3.826   5.505   3.300  0.3936 -0.0980 -0.4505
  426MOL0     H58786   4.137   5.383   3.265 -0.0285 -0.4723 -0.1755
  426MOL0     H58787   4.143   5.491   3.411  0.2900 -0.5425  0.2705
  426MOL0     H58788   4.006   5.392   3.387  1.1489 -0.7206  0.8017
  427MOL0     O58789   7.889   8.120  10.378 -0.3096  1.0223  0.2999
  427MOL0     C58790   7.877   8.133  10.499  0.3565  0.5673 -0.5605
  427MOL0     O58791   7.759   8.126  10.562  0.7693 -0.2377 -0.1620
  427MOL0     C58792   7.642   8.082  10.487 -0.2264 -0.2719 -0.7299
  427MOL0     C58793   7.520   8.141  10.517  0.3622  0.3042 -0.4413
  427MOL0     C58794   7.402   8.107  10.452 -0.3843 -0.1594 -0.3562
  427MOL0     C58795   7.401   7.986  10.375  0.4622 -0.3932 -0.5627
  427MOL0     O58796   7.280   7.940  10.333 -0.8738 -0.3809  0.4440
  427MOL0     C58797   7.267   7.813  10.281  0.4444 -0.0575 -0.1715
  427MOL0     C58798   7.122   7.762  10.265 -0.3586 -0.1055 -0.5348
  427MOL0     C58799   7.052   7.850  10.169 -0.1314  0.5164  0.8157
  427MOL0     C58800   6.906   7.846  10.220 -0.1853 -0.4182  1.2926
  427MOL0     C58801   6.815   7.930  10.128  0.4751  0.4795  0.5876
  427MOL0     C58802   6.669   7.861  10.100  0.0728  0.0785 -0.0871
  427MOL0     C58803   6.576   7.967  10.019 -0.0541  0.2288  0.0933
  427MOL0     C58804   6.435   7.913   9.985 -0.7309  0.4970 -0.6075
  427MOL0     N58805   6.361   8.013   9.910 -0.0441 -0.1754 -0.8195
  427MOL0     C58806   6.393   8.042   9.783 -0.6050  0.0085  0.3632
  427MOL0     C58807   6.313   8.150   9.752 -0.0415 -0.1731  0.2331
  427MOL0     C58808   6.301   8.229   9.622  0.4960  0.4464 -0.4526
  427MOL0     C58809   6.169   8.199   9.540 -0.7530 -0.3445  0.0183
  427MOL0     C58810   6.186   8.239   9.397  0.3108  0.1326  0.0145
  427MOL0     C58811   6.279   8.149   9.316  0.1951  0.1964 -0.2818
  427MOL0     O58812   6.284   8.015   9.358  0.4176  0.5723 -0.0652
  427MOL0     C58813   6.182   7.934   9.323 -0.2913 -0.3209 -0.9153
  427MOL0     C58814   6.213   7.801   9.351 -0.5813  0.7769  0.1743
  427MOL0     C58815   6.128   7.695   9.323 -0.4703  0.5555 -0.9934
  427MOL0     C58816   6.169   7.553   9.365 -0.7036 -0.3457 -0.1588
  427MOL0     C58817   6.006   7.721   9.260 -0.1710  0.7070 -0.5609
  427MOL0     C58818   5.890   7.617   9.253  0.6153  0.3659 -0.0942
  427MOL0     O58819   5.781   7.662   9.197 -0.1308  0.2070 -0.5434
  427MOL0     C58820   5.699   7.567   9.144 -0.5813 -0.1280  1.1143
  427MOL0     C58821   5.696   7.535   9.002 -0.7470 -0.6749 -0.4301
  427MOL0     C58822   5.611   7.433   8.956  0.3724 -0.4817 -0.3456
  427MOL0     C58823   5.521   7.373   9.044 -0.2284  0.7539 -0.1861
  427MOL0     O58824   5.447   7.260   9.008 -0.1475  0.2899 -0.1088
  427MOL0     C58825   5.470   7.199   8.879 -0.0063  1.2358  0.2547
  427MOL0     C58826   5.404   7.062   8.862 -0.9657  0.0244 -0.2533
  427MOL0     C58827   5.249   7.074   8.843 -0.6932  0.3112 -0.5850
  427MOL0     C58828   5.193   6.939   8.857 -0.0041  0.9139 -0.5620
  427MOL0     C58829   5.047   6.935   8.809 -0.9314 -1.0905 -0.3879
  427MOL0     C58830   5.007   6.791   8.830 -0.1523 -0.0432  0.7764
  427MOL0     C58831   4.859   6.775   8.784  0.0964 -0.1389 -0.7012
  427MOL0     C58832   4.807   6.632   8.787  0.0789 -0.6498 -0.5847
  427MOL0    Cl58833   4.656   6.613   8.685 -0.1272 -0.1752 -0.0131
  427MOL0     C58834   5.518   7.406   9.178 -0.0583 -0.1692 -0.2969
  427MOL0     C58835   5.607   7.497   9.227  0.3796 -0.2874 -0.4969
  427MOL0     O58836   5.910   7.506   9.290  0.3467  0.8488 -0.0412
  427MOL0     C58837   5.974   7.857   9.224 -0.0839  0.4931 -0.2150
  427MOL0     C58838   6.058   7.963   9.258 -0.0251  0.4981  0.6350
  427MOL0     N58839   6.234   8.182   9.852  0.1712  0.5104 -0.1602
  427MOL0     N58840   6.261   8.102   9.952  0.4084  0.1814  0.2635
  427MOL0     C58841   7.522   7.920  10.351  0.3490  0.9020 -0.4811
  427MOL0     C58842   7.647   7.972  10.400  0.3994 -0.0608 -0.4903
  427MOL0     C58843   8.007   8.148  10.573 -0.3937 -0.5827 -0.7799
  427MOL0     C58844   8.112   8.222  10.518  0.2773 -0.7769  1.0667
  427MOL0     C58845   8.235   8.247  10.576 -0.0972  0.6508 -0.4195
  427MOL0     C58846   8.253   8.182  10.693 -0.0115 -0.7253 -0.4117
  427MOL0     O58847   8.376   8.193  10.752  0.1815  0.2125 -0.2125
  427MOL0     C58848   8.452   8.074  10.726 -0.2131 -0.0877 -0.2093
  427MOL0     C58849   8.586   8.101  10.801  0.3105  0.3066  0.0896
  427MOL0     C58850   8.647   8.238  10.765 -0.3433 -0.9244 -0.4701
  427MOL0     C58851   8.737   8.247  10.642 -0.6843 -0.5591 -1.2981
  427MOL0     C58852   8.663   8.227  10.523  0.4655 -0.1965 -0.1207
  427MOL0     C58853   8.579   8.204  10.439 -0.3088  0.0213  0.2472
  427MOL0     C58854   8.156   8.109  10.760 -0.0020  0.3368  0.5698
  427MOL0     C58855   8.028   8.091  10.704 -0.0505 -0.3882 -0.2879
  427MOL0     C58856   7.934   8.006  10.786 -0.1852 -0.3874 -0.3548
  427MOL0     H58857   7.521   8.219  10.593 -2.5707 -1.5261  1.7135
  427MOL0     H58858   7.309   8.161  10.462 -0.6296 -0.1655 -2.1755
  427MOL0     H58859   7.332   7.745  10.338 -0.7645 -1.4115 -0.3623
  427MOL0     H58860   7.305   7.808  10.179 -0.7668  0.9646 -0.6858
  427MOL0     H58861   7.112   7.657  10.236  1.7514 -1.3671  2.7895
  427MOL0     H58862   7.090   7.773  10.369 -0.1185 -0.0271 -0.4689
  427MOL0     H58863   7.084   7.954  10.182 -0.7560  0.8994 -0.4802
  427MOL0     H58864   7.062   7.805  10.070 -2.6674 -3.4680  2.1118
  427MOL0     H58865   6.886   7.738  10.221  2.6740 -1.0751 -0.7581
  427MOL0     H58866   6.905   7.884  10.322 -0.9661  1.5673  0.5902
  427MOL0     H58867   6.861   7.949  10.030  1.1275  2.2103  1.1849
  427MOL0     H58868   6.802   8.027  10.176 -1.6009  1.1595 -1.1903
  427MOL0     H58869   6.674   7.767  10.045  3.5041  0.5774 -0.8661
  427MOL0     H58870   6.633   7.838  10.201  0.6964 -0.2015  0.0747
  427MOL0     H58871   6.633   7.996   9.931 -1.5192  0.8177 -0.6932
  427MOL0     H58872   6.571   8.059  10.077  1.3231 -0.0288  0.6610
  427MOL0     H58873   6.429   7.817   9.934  1.8554  0.1863 -0.4621
  427MOL0     H58874   6.392   7.900  10.084  2.4487  1.3369  1.0465
  427MOL0     H58875   6.478   7.995   9.735 -0.4385  0.4801  0.2018
  427MOL0     H58876   6.390   8.206   9.563  0.7630  1.9250 -0.6687
  427MOL0     H58877   6.312   8.337   9.632  0.6519  0.4356 -0.4994
  427MOL0     H58878   6.143   8.093   9.554  0.8316 -0.6739  0.7087
  427MOL0     H58879   6.080   8.253   9.574 -1.3689  1.4185 -3.8854
  427MOL0     H58880   6.088   8.238   9.348  0.8169 -0.3088 -1.0191
  427MOL0     H58881   6.226   8.340   9.399 -0.4701  0.5439 -2.2833
  427MOL0     H58882   6.247   8.152   9.211  1.6184 -0.0358 -0.7505
  427MOL0     H58883   6.380   8.193   9.318 -0.8779  2.8731 -0.2264
  427MOL0     H58884   6.314   7.793   9.390 -0.1104  2.6449 -0.5439
  427MOL0     H58885   6.267   7.547   9.413 -2.0489  3.9018  3.8343
  427MOL0     H58886   6.161   7.486   9.278  0.3980 -1.1723  0.3501
  427MOL0     H58887   6.103   7.514   9.444  0.8249 -2.9491 -0.0662
  427MOL0     H58888   5.760   7.591   8.934  0.0535  2.1209  2.4287
  427MOL0     H58889   5.613   7.415   8.849 -1.5314  0.5458 -0.5932
  427MOL0     H58890   5.423   7.260   8.801 -0.8672 -0.1890 -0.3696
  427MOL0     H58891   5.576   7.192   8.853  0.4098  0.0295  2.0772
  427MOL0     H58892   5.458   6.998   8.791 -2.8561  0.5312 -2.2621
  427MOL0     H58893   5.415   7.010   8.957  0.3876 -0.5162 -0.6836
  427MOL0     H58894   5.216   7.108   8.745  0.1490  0.4664 -0.8217
  427MOL0     H58895   5.204   7.136   8.921  0.3976  2.0231 -1.2553
  427MOL0     H58896   5.194   6.909   8.963 -0.5341  0.8724 -0.5677
  427MOL0     H58897   5.249   6.859   8.807  1.8593  0.9499  1.3243
  427MOL0     H58898   4.986   7.003   8.870  0.4316 -0.2127  0.0532
  427MOL0     H58899   5.036   6.966   8.705  0.5227 -1.3315 -0.6329
  427MOL0     H58900   5.016   6.764   8.936 -0.0900  3.0185  1.6583
  427MOL0     H58901   5.067   6.734   8.759  0.0270  2.5835 -1.3271
  427MOL0     H58902   4.858   6.814   8.682 -0.1029  0.0719 -0.6197
  427MOL0     H58903   4.806   6.844   8.850  0.1840  1.0436 -1.8089
  427MOL0     H58904   4.786   6.602   8.889  0.9013  1.5110  0.2851
  427MOL0     H58905   4.892   6.575   8.748  2.3606  0.1598  2.7490
  427MOL0     H58906   5.459   7.367   9.261 -1.1552  2.0579  0.0505
  427MOL0     H58907   5.595   7.531   9.330  1.4925 -0.5734 -0.2621
  427MOL0     H58908   5.880   7.894   9.184 -1.6264  1.5863  3.8101
  427MOL0     H58909   6.039   8.066   9.228  4.8933  2.2926  2.6447
  427MOL0     H58910   7.520   7.835  10.284  1.7590 -1.2398  1.9766
  427MOL0     H58911   7.740   7.926  10.370 -0.0830 -1.4229  0.0042
  427MOL0     H58912   8.102   8.268  10.421  4.4360 -2.5755 -0.4325
  427MOL0     H58913   8.314   8.301  10.525 -0.5430 -0.8779 -2.8978
  427MOL0     H58914   8.406   7.987  10.774 -0.6330  2.1790  3.9878
  427MOL0     H58915   8.471   8.066  10.619  0.6355  3.1507 -0.4184
  427MOL0     H58916   8.652   8.020  10.768 -0.4806 -0.1775 -0.3291
  427MOL0     H58917   8.570   8.092  10.909  0.3113  0.8338  0.1405
  427MOL0     H58918   8.572   8.317  10.776 -0.8330 -1.7379  3.7821
  427MOL0     H58919   8.714   8.256  10.850 -0.5771  0.9139 -0.6355
  427MOL0     H58920   8.819   8.175  10.651 -0.8560 -0.5214  3.6163
  427MOL0     H58921   8.781   8.346  10.633 -0.8616 -0.2131  0.9769
  427MOL0     H58922   8.498   8.192  10.370  1.7304 -1.7361 -2.0376
  427MOL0     H58923   8.193   8.059  10.849 -1.5774 -0.4985  0.7852
  427MOL0     H58924   7.910   7.915  10.730  2.0110 -1.0594 -0.3202
  427MOL0     H58925   7.966   7.981  10.888  2.5818 -2.2193 -1.5175
  427MOL0     H58926   7.844   8.066  10.795  0.6574  0.8331  0.2370
  428MOL0     O58927   9.526   2.386   1.650 -0.5509 -0.7651  0.1571
  428MOL0     C58928   9.493   2.500   1.621 -0.1921  0.5717 -0.8688
  428MOL0     O58929   9.584   2.599   1.595 -0.7075 -0.4373 -0.0213
  428MOL0     C58930   9.713   2.580   1.542 -0.2301  0.0286 -0.6013
  428MOL0     C58931   9.814   2.666   1.573 -0.2357 -0.4453 -0.4098
  428MOL0     C58932   9.944   2.649   1.521  0.0946  0.5704  0.1872
  428MOL0     C58933   9.972   2.538   1.440 -0.6615  0.3814  0.3310
  428MOL0     O58934  10.099   2.524   1.392  0.8159  0.0640  0.0628
  428MOL0     C58935  10.138   2.419   1.322  0.0273  0.8712 -0.9653
  428MOL0     C58936  10.150   2.298   1.416  0.2356  0.1215 -0.1112
  428MOL0     C58937  10.220   2.180   1.351 -0.9723  1.1637  0.4510
  428MOL0     C58938  10.287   2.092   1.453 -0.6085 -0.3109  0.2289
  428MOL0     C58939  10.350   1.968   1.381  0.3651 -0.2829  0.3322
  428MOL0     C58940  10.447   2.003   1.260  0.0727 -0.3315  0.2002
  428MOL0     C58941  10.533   1.887   1.204 -0.3563  0.1314  0.5706
  428MOL0     C58942  10.633   1.944   1.104  0.4536  0.1646 -0.0189
  428MOL0     N58943  10.711   1.838   1.050 -0.4437  0.4507 -0.4064
  428MOL0     C58944  10.838   1.810   1.095 -0.8460  0.6568 -0.7475
  428MOL0     C58945  10.872   1.704   1.021 -0.1457 -0.2936  0.6418
  428MOL0     C58946  11.005   1.636   1.016  0.0591  0.6045  0.2256
  428MOL0     C58947  10.998   1.488   0.960  0.3027 -0.2905  0.8183
  428MOL0     C58948  11.142   1.434   0.925  0.7224  0.5284 -0.7735
  428MOL0     C58949  11.130   1.298   0.856  0.9379  0.1703  0.2027
  428MOL0     O58950  11.273   1.265   0.814  0.3334 -0.5068 -0.2101
  428MOL0     C58951  11.275   1.163   0.721  0.3212 -0.1588 -0.6604
  428MOL0     C58952  11.391   1.161   0.647 -0.5771 -0.3720  0.4824
  428MOL0     C58953  11.398   1.066   0.545 -0.0887  0.1484 -0.0703
  428MOL0     C58954  11.531   1.065   0.477 -0.7296 -1.4382 -0.2828
  428MOL0     C58955  11.299   0.971   0.525  0.9377  0.2279  0.2986
  428MOL0     C58956  11.310   0.864   0.430  0.0648  1.0493  0.2204
  428MOL0     O58957  11.270   0.735   0.465 -0.2120  0.0389  0.2326
  428MOL0     C58958  11.293   0.637   0.371 -0.6600  0.2361  0.1988
  428MOL0     C58959  11.226   0.624   0.247 -1.0803 -0.7481  0.0459
  428MOL0     C58960  11.239   0.514   0.173  0.5890  0.5473  0.2120
  428MOL0     C58961  11.328   0.402   0.215  0.0393 -0.1237 -0.1074
  428MOL0     O58962  11.342   0.295   0.134 -0.2602 -0.5394  0.0822
  428MOL0     C58963  11.476   0.253   0.098 -0.4455 -0.6214  1.0225
  428MOL0     C58964  11.467   0.104   0.091 -0.2454  0.8011  0.0992
  428MOL0     C58965  11.420   0.058   0.230  0.3165 -0.1454  0.4805
  428MOL0     C58966  11.426  -0.101   0.227 -0.1468 -0.2013 -0.2563
  428MOL0     C58967  11.304  -0.158   0.304 -0.6013  0.2441 -0.3440
  428MOL0     C58968  11.297  -0.133   0.454 -0.1628 -0.4921  1.0090
  428MOL0     C58969  11.433  -0.147   0.535  0.3402  0.4181  0.1154
  428MOL0     C58970  11.403  -0.125   0.690  0.0460  0.0049  0.4105
  428MOL0    Cl58971  11.546  -0.163   0.773  0.4916 -0.0793 -0.0269
  428MOL0     C58972  11.403   0.419   0.335  0.0758  0.2212 -0.9993
  428MOL0     C58973  11.379   0.534   0.415  0.0627  0.1562  0.7786
  428MOL0     O58974  11.350   0.895   0.317  0.3763 -0.1304  0.1582
  428MOL0     C58975  11.198   0.960   0.628 -1.1697 -0.0701  0.0880
  428MOL0     C58976  11.185   1.057   0.724  0.3605 -0.5531  0.1893
  428MOL0     N58977  10.771   1.676   0.934 -0.2993  0.0936 -0.4398
  428MOL0     N58978  10.679   1.759   0.944 -0.0207  0.4071 -0.7079
  428MOL0     C58979   9.868   2.448   1.406  0.2481 -0.1185  0.8427
  428MOL0     C58980   9.738   2.477   1.448  0.1854  0.7637 -0.8719
  428MOL0     C58981   9.347   2.527   1.592 -0.4062  0.2424 -0.0871
  428MOL0     C58982   9.328   2.602   1.473 -0.9544 -0.3417 -0.4839
  428MOL0     C58983   9.201   2.628   1.429  0.3192 -0.4575  0.0471
  428MOL0     C58984   9.088   2.576   1.498 -0.1926  0.3969  0.2816
  428MOL0     O58985   8.963   2.612   1.470 -0.2111 -0.2532 -0.2681
  428MOL0     C58986   8.943   2.677   1.348  0.5272  0.4337 -0.5104
  428MOL0     C58987   8.811   2.627   1.286  0.0432  0.1857 -0.0816
  428MOL0     C58988   8.761   2.722   1.172  0.2796 -0.3073  0.7140
  428MOL0     C58989   8.639   2.662   1.102  0.5000  0.1200 -0.4962
  428MOL0     C58990   8.583   2.764   1.010  0.6178 -0.4433 -0.2818
  428MOL0     C58991   8.550   2.836   0.918 -0.1879 -0.3583  0.6452
  428MOL0     C58992   9.118   2.489   1.602  1.0247 -0.7672 -0.0460
  428MOL0     C58993   9.249   2.459   1.646  0.8854 -1.4105  0.1222
  428MOL0     C58994   9.248   2.398   1.788 -0.2187  0.5276  0.6226
  428MOL0     H58995   9.800   2.748   1.642  2.5686  1.0928 -1.5049
  428MOL0     H58996  10.022   2.721   1.546  0.3229 -0.7288  3.7667
  428MOL0     H58997  10.239   2.444   1.288  1.5667 -0.0967  2.4518
  428MOL0     H58998  10.081   2.388   1.233 -0.6092  1.6636 -0.8383
  428MOL0     H58999  10.209   2.330   1.502  0.3039 -0.0369 -0.0981
  428MOL0     H59000  10.052   2.260   1.445  1.3464 -2.3059  0.7711
  428MOL0     H59001  10.145   2.119   1.300 -1.2126 -0.3511  2.4792
  428MOL0     H59002  10.293   2.217   1.278  2.5535 -0.7552  2.6995
  428MOL0     H59003  10.368   2.154   1.492  1.7640 -2.9464 -0.2068
  428MOL0     H59004  10.217   2.059   1.531 -1.2220  0.7697  0.1596
  428MOL0     H59005  10.268   1.903   1.348  0.0113 -0.1223  0.8740
  428MOL0     H59006  10.406   1.915   1.459  0.2163 -1.1168 -0.1206
  428MOL0     H59007  10.380   2.049   1.187 -0.5953 -0.6716  0.5920
  428MOL0     H59008  10.520   2.082   1.281  1.2955 -1.0519 -1.1572
  428MOL0     H59009  10.472   1.809   1.157 -1.6295 -0.0981  2.5212
  428MOL0     H59010  10.591   1.844   1.287 -0.1213 -1.0832 -0.1889
  428MOL0     H59011  10.568   1.985   1.026  0.5182  1.8051  0.7569
  428MOL0     H59012  10.689   2.025   1.151 -1.3073 -0.2102  2.9745
  428MOL0     H59013  10.902   1.858   1.168 -1.7618  0.1003  0.4343
  428MOL0     H59014  11.035   1.624   1.121  0.3802  0.4067  0.1128
  428MOL0     H59015  11.070   1.697   0.953  1.0919 -2.6821 -2.1378
  428MOL0     H59016  10.929   1.428   1.020 -1.6177  0.8800 -0.0932
  428MOL0     H59017  10.955   1.501   0.860 -1.0398  1.4650  1.5740
  428MOL0     H59018  11.191   1.504   0.856  3.0577  3.5358  3.4244
  428MOL0     H59019  11.205   1.433   1.014  2.5901  1.3542 -2.0202
  428MOL0     H59020  11.078   1.230   0.924 -0.3725  3.2759  2.5542
  428MOL0     H59021  11.071   1.309   0.764  0.3283  2.3405  0.7788
  428MOL0     H59022  11.475   1.229   0.661  0.7989 -1.7097 -0.8711
  428MOL0     H59023  11.547   0.987   0.401  0.7473  0.6463 -2.2295
  428MOL0     H59024  11.612   1.068   0.551 -0.9827  3.0208  0.0537
  428MOL0     H59025  11.537   1.157   0.418 -2.8823 -0.1189  1.3977
  428MOL0     H59026  11.173   0.718   0.231  1.9448  1.2366  0.7728
  428MOL0     H59027  11.179   0.498   0.083 -0.1335 -1.9892  1.0650
  428MOL0     H59028  11.510   0.287  -0.001 -0.7767 -2.8449  0.0843
  428MOL0     H59029  11.550   0.284   0.172  1.4214 -0.6727 -0.7245
  428MOL0     H59030  11.401   0.075   0.009  2.4207 -0.0018 -1.9102
  428MOL0     H59031  11.564   0.060   0.068 -0.0761  0.0456  2.1086
  428MOL0     H59032  11.313   0.077   0.232  0.6394  2.0606  3.2618
  428MOL0     H59033  11.459   0.092   0.327  0.1928 -0.1882  0.5453
  428MOL0     H59034  11.525  -0.122   0.267  0.3768  4.7790  1.7853
  428MOL0     H59035  11.420  -0.139   0.124 -0.9918 -1.7125  0.3176
  428MOL0     H59036  11.211  -0.128   0.255 -0.4922  1.7118  0.3016
  428MOL0     H59037  11.320  -0.266   0.293 -2.0692 -0.1615  1.1141
  428MOL0     H59038  11.221  -0.203   0.492  0.4908 -0.0214  3.3404
  428MOL0     H59039  11.260  -0.031   0.465 -0.0911 -0.4205  0.6011
  428MOL0     H59040  11.507  -0.070   0.513  1.7459 -0.4153  1.6413
  428MOL0     H59041  11.481  -0.244   0.521  2.7336  1.4994  0.3743
  428MOL0     H59042  11.321  -0.191   0.720 -0.2036  0.0842 -0.0843
  428MOL0     H59043  11.378  -0.019   0.706 -1.3678 -0.2852  0.2297
  428MOL0     H59044  11.467   0.341   0.374 -1.5629 -1.2629 -1.1856
  428MOL0     H59045  11.433   0.551   0.507 -1.4586  0.5755  1.6332
  428MOL0     H59046  11.126   0.879   0.626 -0.7287 -0.6521  2.8688
  428MOL0     H59047  11.103   1.053   0.796  1.9665 -1.6243  2.0440
  428MOL0     H59048   9.886   2.376   1.327  0.3385  1.8960 -1.0294
  428MOL0     H59049   9.667   2.414   1.396  2.2248 -1.2290 -1.4154
  428MOL0     H59050   9.416   2.644   1.426 -0.1217 -0.8153  0.6180
  428MOL0     H59051   9.188   2.698   1.347  0.6508 -0.5261 -0.0651
  428MOL0     H59052   8.954   2.784   1.368 -1.1452  0.4912  0.2677
  428MOL0     H59053   9.017   2.654   1.271 -0.2423  1.3643 -1.5582
  428MOL0     H59054   8.730   2.624   1.359  0.5794  1.6081  0.6109
  428MOL0     H59055   8.827   2.527   1.245 -1.9089 -1.3033  2.5337
  428MOL0     H59056   8.735   2.825   1.201  0.6219  0.8520 -2.6285
  428MOL0     H59057   8.835   2.733   1.093  0.1219  1.2504  0.7448
  428MOL0     H59058   8.559   2.647   1.174  1.8437  0.0611  1.0367
  428MOL0     H59059   8.668   2.562   1.068  0.0787 -0.3810  0.5753
  428MOL0     H59060   8.531   2.891   0.828  0.3729 -1.1969 -0.0085
  428MOL0     H59061   9.025   2.447   1.636  0.3218  0.6796 -0.1226
  428MOL0     H59062   9.332   2.434   1.848 -0.0234  0.5597  0.3314
  428MOL0     H59063   9.159   2.435   1.840 -0.0503  2.0575 -0.1290
  428MOL0     H59064   9.248   2.289   1.782  1.7575  0.5252  0.0001
  429MOL0     O59065   3.968   4.842  11.098  0.8131  0.4758  0.5824
  429MOL0     C59066   3.957   4.840  11.219 -0.9863 -0.3278  0.7243
  429MOL0     O59067   4.053   4.880  11.308  0.0468  0.3203  0.7110
  429MOL0     C59068   4.151   4.965  11.264 -0.2536 -0.0646 -0.3063
  429MOL0     C59069   4.179   5.078  11.337  0.0722  0.1391 -0.3151
  429MOL0     C59070   4.281   5.165  11.300  0.9194 -0.2606 -0.1449
  429MOL0     C59071   4.360   5.153  11.193 -0.7005  0.9766  0.5781
  429MOL0     O59072   4.458   5.249  11.175  0.7792 -0.1122  0.1216
  429MOL0     C59073   4.510   5.260  11.046 -0.3009 -0.3213 -0.1932
  429MOL0     C59074   4.605   5.383  11.052  0.5943 -0.5125 -0.0971
  429MOL0     C59075   4.651   5.416  10.915 -0.5326 -0.2506 -0.2429
  429MOL0     C59076   4.546   5.499  10.844 -0.1974 -0.2040  0.4866
  429MOL0     C59077   4.562   5.648  10.899 -0.3955  0.3934  0.7004
  429MOL0     C59078   4.419   5.710  10.885  0.0190  1.0006  0.1278
  429MOL0     C59079   4.446   5.858  10.867 -0.2780  0.3887  0.8834
  429MOL0     C59080   4.319   5.935  10.856  0.0426  0.5500  0.1546
  429MOL0     N59081   4.277   5.968  10.722  0.0643 -0.0479 -0.4545
  429MOL0     C59082   4.333   6.063  10.651  1.2473  0.7297  0.1590
  429MOL0     C59083   4.254   6.081  10.544 -0.4734 -0.3218 -0.2243
  429MOL0     C59084   4.263   6.197  10.442  0.1438  0.4797 -0.4586
  429MOL0     C59085   4.371   6.154  10.352  0.0938 -0.4699  0.7513
  429MOL0     C59086   4.514   6.186  10.380 -0.0646  1.0978 -0.6121
  429MOL0     C59087   4.545   6.324  10.435 -0.0597 -0.8608 -0.0873
  429MOL0     O59088   4.509   6.427  10.337 -0.8282 -0.5175  0.0795
  429MOL0     C59089   4.577   6.554  10.344  0.3255  0.3713 -0.6650
  429MOL0     C59090   4.498   6.669  10.338 -0.0938 -0.4767  0.4131
  429MOL0     C59091   4.546   6.794  10.352 -0.7182 -0.9578  0.0690
  429MOL0     C59092   4.446   6.910  10.341 -0.4459 -0.3076  0.0230
  429MOL0     C59093   4.689   6.804  10.378 -0.0260  0.7346 -0.2236
  429MOL0     C59094   4.748   6.938  10.408 -0.2993  0.1472  0.0544
  429MOL0     O59095   4.871   6.928  10.459  0.1547  0.3157 -1.2196
  429MOL0     C59096   4.937   7.031  10.526 -0.3370 -0.0513 -0.0345
  429MOL0     C59097   4.887   7.155  10.568  0.7683 -0.1017  1.3616
  429MOL0     C59098   4.966   7.237  10.655 -0.0856  0.0938 -0.3454
  429MOL0     C59099   5.090   7.199  10.704 -0.4934  0.0071  0.0260
  429MOL0     O59100   5.151   7.297  10.775  0.6206 -0.0269  0.2664
  429MOL0     C59101   5.297   7.306  10.774  1.7716  0.6220  0.5883
  429MOL0     C59102   5.346   7.356  10.914 -0.0526  0.3756  0.0890
  429MOL0     C59103   5.281   7.496  10.930 -0.6019 -0.7628 -0.0170
  429MOL0     C59104   5.294   7.541  11.077  0.0902 -0.4062 -0.0877
  429MOL0     C59105   5.235   7.687  11.085  0.0161 -0.4678  0.0507
  429MOL0     C59106   5.253   7.746  11.227  0.4754 -1.1681 -0.8196
  429MOL0     C59107   5.154   7.860  11.260 -0.5561 -0.3949 -0.9677
  429MOL0     C59108   5.159   7.924  11.400  0.5436  0.6989 -0.2296
  429MOL0    Cl59109   5.000   7.997  11.435 -0.1599  0.2768 -0.0077
  429MOL0     C59110   5.137   7.078  10.663 -0.1382  0.2478 -0.7933
  429MOL0     C59111   5.064   6.995  10.575 -0.2477  1.2085  0.0544
  429MOL0     O59112   4.692   7.036  10.354 -0.0437 -0.0158  0.0511
  429MOL0     C59113   4.765   6.690  10.390 -0.7092 -0.4069  0.0953
  429MOL0     C59114   4.713   6.563  10.375  0.0320 -0.0645  0.6520
  429MOL0     N59115   4.151   5.989  10.546 -0.2881 -0.1201 -0.9071
  429MOL0     N59116   4.162   5.925  10.655 -0.3509  0.7610 -0.8889
  429MOL0     C59117   4.340   5.039  11.116  1.0099  0.4562  0.8469
  429MOL0     C59118   4.226   4.952  11.145  0.0454 -0.5812 -0.5107
  429MOL0     C59119   3.844   4.772  11.278  0.2162  0.2519  0.9647
  429MOL0     C59120   3.877   4.695  11.394  1.0662  0.8948  0.4011
  429MOL0     C59121   3.770   4.631  11.463  0.6007  0.8776  0.7472
  429MOL0     C59122   3.637   4.625  11.414  0.8899  0.0953 -0.1664
  429MOL0     O59123   3.546   4.558  11.489 -0.2509  0.0369 -0.1166
  429MOL0     C59124   3.433   4.502  11.427  0.8689  0.0056  0.5483
  429MOL0     C59125   3.398   4.358  11.486 -0.5451 -0.2385  0.2672
  429MOL0     C59126   3.251   4.306  11.449  0.5168 -0.5071  0.6079
  429MOL0     C59127   3.206   4.182  11.514  0.1455  0.0567 -0.5189
  429MOL0     C59128   3.205   4.184  11.659 -0.2827 -0.0010 -0.0665
  429MOL0     C59129   3.216   4.176  11.782  0.4129 -0.3315  0.4587
  429MOL0     C59130   3.603   4.705  11.302  0.7657  0.6968  0.7246
  429MOL0     C59131   3.704   4.773  11.229 -0.9816 -0.0547  0.9916
  429MOL0     C59132   3.651   4.835  11.107  0.0621 -0.6563  0.0712
  429MOL0     H59133   4.122   5.092  11.428 -0.5560 -2.3783 -0.2359
  429MOL0     H59134   4.291   5.254  11.362  0.9006 -0.3300 -0.0435
  429MOL0     H59135   4.432   5.264  10.970  0.2422 -0.1543 -0.7458
  429MOL0     H59136   4.575   5.173  11.034  1.1395  0.2709  2.4737
  429MOL0     H59137   4.552   5.472  11.086  3.1806  1.0574  0.1051
  429MOL0     H59138   4.684   5.363  11.125 -0.3570  0.4866  1.2499
  429MOL0     H59139   4.752   5.459  10.920 -0.6816  0.3178 -1.5740
  429MOL0     H59140   4.666   5.330  10.850 -0.4133  1.1950 -2.2342
  429MOL0     H59141   4.568   5.512  10.738 -0.3679  2.9720  0.7665
  429MOL0     H59142   4.443   5.463  10.837 -0.0086 -0.3955 -3.1026
  429MOL0     H59143   4.637   5.695  10.835 -0.5704 -2.3278 -1.7040
  429MOL0     H59144   4.605   5.651  10.999 -1.6845 -1.4242  1.3585
  429MOL0     H59145   4.365   5.671  10.799 -0.1012 -1.8988  1.4155
  429MOL0     H59146   4.360   5.677  10.972 -1.4463  2.0923 -0.4015
  429MOL0     H59147   4.510   5.872  10.780 -0.0534 -0.9820  0.8001
  429MOL0     H59148   4.506   5.893  10.951  0.6714 -0.1019  0.4259
  429MOL0     H59149   4.252   5.870  10.912  2.3206 -2.6419 -0.5124
  429MOL0     H59150   4.337   6.026  10.915  2.6107 -0.5653  1.2822
  429MOL0     H59151   4.415   6.129  10.678  2.4985  0.4669 -2.5969
  429MOL0     H59152   4.281   6.299  10.479 -0.3511 -0.0500  1.3748
  429MOL0     H59153   4.170   6.201  10.385  0.4902  1.0393 -0.9995
  429MOL0     H59154   4.346   6.053  10.320 -5.5267  0.6321  0.6593
  429MOL0     H59155   4.363   6.221  10.266  1.3055 -0.5557  0.5460
  429MOL0     H59156   4.556   6.112  10.448 -0.1039 -0.8105 -2.5715
  429MOL0     H59157   4.569   6.176  10.286  1.7462  1.2854  0.3720
  429MOL0     H59158   4.498   6.349  10.531  2.4143 -1.5541  1.3895
  429MOL0     H59159   4.650   6.325  10.465  0.3973  4.6455 -0.8102
  429MOL0     H59160   4.397   6.666  10.300  0.0399 -0.7793  0.0748
  429MOL0     H59161   4.458   6.988  10.417 -0.2201 -0.8468  0.5464
  429MOL0     H59162   4.341   6.880  10.337 -0.6307 -0.0120  1.9790
  429MOL0     H59163   4.461   6.955  10.242 -1.7444  1.0968  0.4362
  429MOL0     H59164   4.787   7.191  10.551  1.1130 -0.0538 -0.8071
  429MOL0     H59165   4.947   7.341  10.680  3.1707  0.9079 -0.8581
  429MOL0     H59166   5.349   7.209  10.770  0.1008 -0.4119  2.1328
  429MOL0     H59167   5.338   7.370  10.696  1.1202  0.1287 -0.1766
  429MOL0     H59168   5.319   7.290  10.996  2.9450 -2.8300 -1.2805
  429MOL0     H59169   5.455   7.354  10.918 -0.0466 -2.9005  1.6034
  429MOL0     H59170   5.172   7.491  10.920 -1.0869  4.5136 -0.4549
  429MOL0     H59171   5.312   7.570  10.855  0.3743 -1.1774 -0.0418
  429MOL0     H59172   5.399   7.532  11.108 -0.6306 -1.0654  2.3659
  429MOL0     H59173   5.235   7.472  11.137  0.6288  1.1247  2.3806
  429MOL0     H59174   5.289   7.748  11.012  1.7866 -1.5392  0.4030
  429MOL0     H59175   5.129   7.680  11.058  0.3212  0.4625 -1.5242
  429MOL0     H59176   5.355   7.777  11.250 -0.0686 -0.0612  0.1889
  429MOL0     H59177   5.226   7.669  11.299 -2.2510  1.0410  0.6938
  429MOL0     H59178   5.051   7.824  11.258 -0.7651 -0.1886  1.7464
  429MOL0     H59179   5.154   7.935  11.181 -1.8483  0.5142 -0.1326
  429MOL0     H59180   5.242   7.997  11.401  0.2370  1.0830 -1.4694
  429MOL0     H59181   5.169   7.853  11.482 -0.4249  1.5931  0.7015
  429MOL0     H59182   5.241   7.047  10.672 -0.1770 -0.5757 -2.7418
  429MOL0     H59183   5.114   6.903  10.547  0.1555  2.0701 -2.2862
  429MOL0     H59184   4.869   6.699  10.417 -1.3663  0.5964  2.6001
  429MOL0     H59185   4.777   6.476  10.392  0.0802  0.1707  1.7636
  429MOL0     H59186   4.403   5.013  11.032 -1.9011 -0.7102 -1.1343
  429MOL0     H59187   4.223   4.866  11.080  1.4621 -0.5936 -0.6010
  429MOL0     H59188   3.979   4.690  11.430  1.0659 -1.5974  0.2411
  429MOL0     H59189   3.792   4.587  11.560 -1.7437  1.9372  1.8361
  429MOL0     H59190   3.349   4.569  11.447 -1.2142 -2.0526 -0.8169
  429MOL0     H59191   3.443   4.493  11.318  1.2456 -1.5013  0.6755
  429MOL0     H59192   3.393   4.364  11.595 -1.0667 -3.2061  0.4921
  429MOL0     H59193   3.468   4.281  11.453 -1.9132 -1.2557 -0.3319
  429MOL0     H59194   3.176   4.386  11.460 -0.8420 -1.2749 -2.0766
  429MOL0     H59195   3.241   4.279  11.344  1.7602 -2.1072  0.8773
  429MOL0     H59196   3.262   4.095  11.479  0.4442 -1.2951  2.8808
  429MOL0     H59197   3.102   4.163  11.488 -0.3463  0.2985  1.1361
  429MOL0     H59198   3.235   4.163  11.886  1.0851  0.5942  0.4665
  429MOL0     H59199   3.499   4.706  11.272  0.4199 -3.2058  1.3298
  429MOL0     H59200   3.629   4.765  11.026 -2.6323  2.5834 -2.3008
  429MOL0     H59201   3.560   4.892  11.129 -0.6864 -2.3022  1.4526
  429MOL0     H59202   3.720   4.911  11.068 -1.4024  0.4306 -0.5110
  430MOL0     O59203   1.323   7.341   4.793 -0.1773 -0.1337 -0.4512
  430MOL0     C59204   1.363   7.262   4.873 -0.0538  1.0686  0.9475
  430MOL0     O59205   1.489   7.233   4.889 -0.4946  0.5876  0.1462
  430MOL0     C59206   1.598   7.283   4.815  0.0201  0.1301 -0.5794
  430MOL0     C59207   1.605   7.354   4.695 -0.8149  0.1527  0.7086
  430MOL0     C59208   1.726   7.391   4.638 -0.2639  0.0182 -0.4777
  430MOL0     C59209   1.848   7.376   4.707 -0.2268  0.6926 -0.3516
  430MOL0     O59210   1.971   7.429   4.655 -0.5294  0.3071 -0.2303
  430MOL0     C59211   2.021   7.384   4.527  1.0102 -0.0588  0.2105
  430MOL0     C59212   2.172   7.355   4.544 -0.2914 -0.2891  0.1721
  430MOL0     C59213   2.242   7.477   4.479  0.6211  0.5809  0.5180
  430MOL0     C59214   2.385   7.474   4.518  0.1336 -0.5404  0.4641
  430MOL0     C59215   2.454   7.608   4.493 -0.7710 -1.1280 -0.5811
  430MOL0     C59216   2.597   7.624   4.561  0.4553  0.0024 -0.7107
  430MOL0     C59217   2.669   7.739   4.494 -0.1377  0.6905  0.0409
  430MOL0     C59218   2.821   7.738   4.528 -0.4427  0.3180  0.4511
  430MOL0     N59219   2.843   7.768   4.671  0.8649  0.1594 -0.2105
  430MOL0     C59220   2.870   7.685   4.776  0.7934  0.2894 -0.8837
  430MOL0     C59221   2.890   7.763   4.891 -0.6006  0.7087  0.8307
  430MOL0     C59222   2.958   7.722   5.019  0.2873  0.7398 -0.0683
  430MOL0     C59223   3.041   7.843   5.072  0.6101 -0.8276  0.2359
  430MOL0     C59224   3.122   7.823   5.198 -0.1476  0.6296 -0.2064
  430MOL0     C59225   3.186   7.953   5.245 -0.2007  0.3852 -0.6460
  430MOL0     O59226   3.233   7.931   5.374 -0.2301  0.4947  0.3201
  430MOL0     C59227   3.332   8.008   5.431  0.1499 -0.2963  0.2863
  430MOL0     C59228   3.398   8.107   5.366  0.7621 -0.1907 -0.4015
  430MOL0     C59229   3.507   8.177   5.424  0.3812 -1.1806 -0.7629
  430MOL0     C59230   3.580   8.273   5.332 -0.2442  0.3383  0.9681
  430MOL0     C59231   3.549   8.139   5.558  0.6149  0.6485  0.8357
  430MOL0     C59232   3.664   8.199   5.627  0.8248 -0.6747 -0.1302
  430MOL0     O59233   3.740   8.134   5.718 -0.3343  0.2919 -0.4730
  430MOL0     C59234   3.869   8.161   5.752  0.2465 -0.1012  0.0372
  430MOL0     C59235   3.909   8.167   5.883  0.4529  0.4823  0.4694
  430MOL0     C59236   4.031   8.218   5.923 -0.7446  0.1324  0.2930
  430MOL0     C59237   4.130   8.274   5.825  0.4989 -0.4434 -0.2186
  430MOL0     O59238   4.249   8.328   5.864  0.3797  0.1531 -0.3026
  430MOL0     C59239   4.300   8.303   5.996 -0.0678  0.3228  0.6066
  430MOL0     C59240   4.430   8.374   6.004 -0.6620 -0.3925  0.4776
  430MOL0     C59241   4.542   8.296   5.938 -0.7499  0.4928 -0.3265
  430MOL0     C59242   4.686   8.342   5.976  0.5691  0.2412  0.8652
  430MOL0     C59243   4.714   8.493   5.969  0.5310 -0.1347  0.0458
  430MOL0     C59244   4.861   8.537   5.966 -0.9221  0.0096  0.8723
  430MOL0     C59245   4.875   8.698   5.960 -0.5327  0.4616 -0.5860
  430MOL0     C59246   4.999   8.752   6.015  0.1021  0.2556 -0.0402
  430MOL0    Cl59247   5.000   8.926   6.000 -0.1225 -0.4666  0.2023
  430MOL0     C59248   4.084   8.274   5.695  0.5275 -1.0472 -0.3751
  430MOL0     C59249   3.960   8.220   5.660 -0.0570  0.2511 -0.4765
  430MOL0     O59250   3.687   8.317   5.594  0.1536  0.1657  0.1748
  430MOL0     C59251   3.475   8.041   5.623 -0.1222  0.3753 -0.6774
  430MOL0     C59252   3.368   7.972   5.557 -0.2212 -0.3491  0.4490
  430MOL0     N59253   2.868   7.896   4.854  0.1986  0.3351 -0.5346
  430MOL0     N59254   2.829   7.890   4.730 -0.9124  0.6469 -0.6701
  430MOL0     C59255   1.842   7.319   4.832  0.2917  0.4115  0.4353
  430MOL0     C59256   1.717   7.270   4.890 -0.4736 -0.1387 -0.0693
  430MOL0     C59257   1.266   7.194   4.963 -0.2975 -1.2845  0.3914
  430MOL0     C59258   1.314   7.149   5.085  0.5821  0.4540  0.4129
  430MOL0     C59259   1.227   7.101   5.177 -0.4446 -0.3318 -0.1704
  430MOL0     C59260   1.091   7.092   5.147 -0.5355 -0.1498  0.9299
  430MOL0     O59261   0.990   7.047   5.219 -0.0233  0.1722 -0.2215
  430MOL0     C59262   1.013   7.025   5.354  0.5835 -0.2718 -0.4013
  430MOL0     C59263   0.879   7.006   5.410 -0.8285 -0.7333  0.2377
  430MOL0     C59264   0.813   6.872   5.373 -0.4130  1.4754  0.3703
  430MOL0     C59265   0.663   6.883   5.387  0.0223 -0.1307 -0.0633
  430MOL0     C59266   0.625   6.926   5.525  0.3618  0.7272  0.2701
  430MOL0     C59267   0.581   6.948   5.636 -0.8386 -0.6227 -0.3172
  430MOL0     C59268   1.048   7.118   5.014  0.6849  0.5492 -0.4930
  430MOL0     C59269   1.129   7.178   4.928  0.3447 -0.5288  0.7615
  430MOL0     C59270   1.067   7.204   4.787  0.9555  0.6578  0.6455
  430MOL0     H59271   1.514   7.369   4.638 -0.4355  0.6707  0.2254
  430MOL0     H59272   1.731   7.439   4.541  1.7960 -0.5349 -0.6823
  430MOL0     H59273   2.002   7.455   4.446  3.5726 -2.2692 -2.5653
  430MOL0     H59274   1.965   7.294   4.499  2.2154 -0.7031 -0.2099
  430MOL0     H59275   2.207   7.344   4.647  1.5729 -0.6017 -0.4536
  430MOL0     H59276   2.205   7.261   4.498  0.3068 -2.1088  3.9181
  430MOL0     H59277   2.232   7.470   4.371  3.4201 -1.3604  0.2890
  430MOL0     H59278   2.191   7.570   4.508 -1.2074 -0.8956  2.3762
  430MOL0     H59279   2.397   7.446   4.624 -2.2171 -3.1135  0.1759
  430MOL0     H59280   2.449   7.410   4.457  1.7476 -0.0668  1.5921
  430MOL0     H59281   2.394   7.691   4.531 -2.9609 -2.1526 -1.5754
  430MOL0     H59282   2.462   7.620   4.384 -0.0126 -0.6736 -0.4843
  430MOL0     H59283   2.591   7.657   4.665  1.9405 -0.2204 -0.5442
  430MOL0     H59284   2.651   7.531   4.544  0.8519  0.6155 -3.2580
  430MOL0     H59285   2.612   7.827   4.525 -2.4873 -0.4900 -0.6673
  430MOL0     H59286   2.664   7.720   4.386 -0.4237 -1.9136  0.4452
  430MOL0     H59287   2.873   7.646   4.500  1.1229  1.2545  0.1284
  430MOL0     H59288   2.864   7.815   4.463  2.0770  2.2007  3.9893
  430MOL0     H59289   2.897   7.580   4.775 -1.8936 -0.4895 -2.5998
  430MOL0     H59290   3.009   7.628   5.002  0.3745  0.9842 -1.2822
  430MOL0     H59291   2.879   7.702   5.092 -0.3343 -0.3183 -1.0075
  430MOL0     H59292   3.114   7.875   4.997  0.0074  0.1162  0.0311
  430MOL0     H59293   2.968   7.924   5.085  0.4598  0.0513 -4.2261
  430MOL0     H59294   3.064   7.791   5.284  0.9029 -2.5611 -0.5628
  430MOL0     H59295   3.194   7.743   5.178 -1.0649  0.1657 -1.9002
  430MOL0     H59296   3.269   7.969   5.177  2.7090  1.1425  2.7931
  430MOL0     H59297   3.119   8.039   5.253  0.1405  0.6127 -0.2309
  430MOL0     H59298   3.372   8.134   5.264  0.6165  0.2547 -0.2503
  430MOL0     H59299   3.670   8.322   5.371 -0.1494  1.1781 -0.2527
  430MOL0     H59300   3.510   8.356   5.319  1.4232  1.7366  0.5121
  430MOL0     H59301   3.603   8.223   5.237  0.9591  0.5428  1.1301
  430MOL0     H59302   3.834   8.140   5.957  0.1775  0.4951  0.1964
  430MOL0     H59303   4.049   8.203   6.029 -1.2227 -0.1522  0.3344
  430MOL0     H59304   4.240   8.337   6.081  0.1223 -0.8800  1.2437
  430MOL0     H59305   4.310   8.194   6.000  1.0785  0.3902  0.0884
  430MOL0     H59306   4.412   8.468   5.950  0.9915  0.6721  1.7006
  430MOL0     H59307   4.452   8.388   6.110 -0.2080 -1.1382  0.4836
  430MOL0     H59308   4.534   8.312   5.830 -2.4841  1.1010 -0.1386
  430MOL0     H59309   4.525   8.191   5.963 -1.8875  0.9961  1.1552
  430MOL0     H59310   4.751   8.300   5.899  6.2597  2.2647  4.0014
  430MOL0     H59311   4.712   8.303   6.075 -0.1132 -0.1806  0.8827
  430MOL0     H59312   4.657   8.549   5.894 -0.5540  0.3302  1.1772
  430MOL0     H59313   4.659   8.535   6.054 -3.3811  1.7724 -3.1060
  430MOL0     H59314   4.917   8.486   5.887 -2.4994 -2.0695  1.0031
  430MOL0     H59315   4.904   8.499   6.060 -2.1972  1.4558  2.0895
  430MOL0     H59316   4.802   8.740   6.030  0.2534 -1.8334  1.7851
  430MOL0     H59317   4.863   8.730   5.857 -2.5905 -0.7243 -0.7678
  430MOL0     H59318   5.081   8.700   5.965 -0.5257 -0.9669  0.1465
  430MOL0     H59319   5.001   8.729   6.122 -1.0045  0.6445  0.0835
  430MOL0     H59320   4.142   8.329   5.621 -2.4423  0.8517 -1.4847
  430MOL0     H59321   3.920   8.247   5.562 -1.3591  0.0030 -0.0315
  430MOL0     H59322   3.492   8.015   5.727 -3.3407 -2.4620 -0.6920
  430MOL0     H59323   3.304   7.898   5.604 -1.6664  0.7107  0.2180
  430MOL0     H59324   1.940   7.322   4.878  1.1295  1.3794 -1.3013
  430MOL0     H59325   1.716   7.228   4.990 -0.8420 -1.8361 -0.7555
  430MOL0     H59326   1.421   7.150   5.104  1.2160  2.6075 -2.5002
  430MOL0     H59327   1.260   7.064   5.273  0.1672  0.0744 -0.2198
  430MOL0     H59328   1.076   6.939   5.381  1.5582  0.9326  1.4252
  430MOL0     H59329   1.051   7.115   5.403 -0.1923 -0.7035  1.0674
  430MOL0     H59330   0.822   7.096   5.387  0.7568  0.0558 -0.8568
  430MOL0     H59331   0.891   7.001   5.519 -2.9710 -1.5318  0.4807
  430MOL0     H59332   0.844   6.851   5.270  3.6049  2.5938  1.1656
  430MOL0     H59333   0.851   6.790   5.435  1.7806  1.5752 -0.7356
  430MOL0     H59334   0.613   6.789   5.363  1.4449 -1.2077  1.0369
  430MOL0     H59335   0.631   6.968   5.325 -0.7293 -0.8414 -0.6691
  430MOL0     H59336   0.535   6.971   5.730  0.0417  1.6465 -0.3661
  430MOL0     H59337   0.944   7.098   4.990  0.9845 -0.9192 -0.6244
  430MOL0     H59338   1.137   7.216   4.703 -2.8157 -1.7507 -3.2767
  430MOL0     H59339   1.002   7.121   4.758 -0.6017  0.8373  3.2968
  430MOL0     H59340   1.016   7.300   4.800  1.0326  0.5649  1.7394
  431MOL0     O59341   2.064  10.248   1.594  0.2586 -0.2228 -0.3267
  431MOL0     C59342   2.109  10.275   1.705  0.3446 -0.2389 -0.3705
  431MOL0     O59343   2.243  10.251   1.746 -1.2087  0.1260 -0.5510
  431MOL0     C59344   2.328  10.181   1.665 -0.6637  0.0374  0.0070
  431MOL0     C59345   2.404  10.083   1.720  0.2996  0.2485 -0.2035
  431MOL0     C59346   2.511  10.026   1.648 -0.1536 -0.5783  0.1590
  431MOL0     C59347   2.546  10.071   1.521  0.5444  0.2467 -0.0961
  431MOL0     O59348   2.653  10.019   1.454 -0.6908 -0.7690  1.0456
  431MOL0     C59349   2.654   9.999   1.311  0.3163 -0.4755 -0.4606
  431MOL0     C59350   2.759   9.888   1.277 -1.0927  0.5783  0.1010
  431MOL0     C59351   2.904   9.943   1.250 -0.3795 -0.0631 -0.5487
  431MOL0     C59352   2.998   9.831   1.181  0.5596 -0.2303  0.3975
  431MOL0     C59353   3.141   9.894   1.156 -0.2221  0.6205 -1.0285
  431MOL0     C59354   3.145   9.999   1.048 -0.8510  0.2112 -0.7184
  431MOL0     C59355   3.288  10.059   1.012 -0.1173 -0.2692  0.2144
  431MOL0     C59356   3.276  10.149   0.890 -0.3813 -0.8485  0.7738
  431MOL0     N59357   3.403  10.216   0.849  0.1258 -0.8997  0.4221
  431MOL0     C59358   3.439  10.335   0.897 -0.1629 -0.2391 -0.5794
  431MOL0     C59359   3.534  10.371   0.815 -0.5497 -0.0026 -0.7831
  431MOL0     C59360   3.622  10.486   0.815  0.7228 -0.0242 -0.4765
  431MOL0     C59361   3.738  10.465   0.898 -0.8179 -0.3470 -0.3421
  431MOL0     C59362   3.850  10.569   0.862  0.9607 -0.3102 -0.3728
  431MOL0     C59363   3.936  10.607   0.985 -0.5827  0.4233 -0.6570
  431MOL0     O59364   4.009  10.493   1.025  0.2791  1.0524 -0.7354
  431MOL0     C59365   4.136  10.470   0.974  0.4537  1.0645 -0.4479
  431MOL0     C59366   4.239  10.564   0.956 -0.7343 -0.0961  0.1733
  431MOL0     C59367   4.369  10.535   0.920 -0.2307 -0.1696  0.3619
  431MOL0     C59368   4.482  10.637   0.902 -0.5275 -0.7518 -0.3065
  431MOL0     C59369   4.395  10.398   0.896 -0.9970  0.1831 -0.2928
  431MOL0     C59370   4.529  10.350   0.853 -0.7947  0.0316  0.1425
  431MOL0     O59371   4.629  10.401   0.921  0.3957 -0.0844 -0.1661
  431MOL0     C59372   4.751  10.393   0.863 -0.6547  0.1962 -0.2678
  431MOL0     C59373   4.809  10.506   0.806  0.1957  0.0429 -0.6371
  431MOL0     C59374   4.947  10.508   0.754  0.0101 -0.6184  0.8878
  431MOL0     C59375   5.023  10.390   0.776 -0.3084  0.0373 -0.2932
  431MOL0     O59376   5.151  10.377   0.749 -0.3538 -0.7311  0.0202
  431MOL0     C59377   5.228  10.496   0.697  0.0397 -0.2356  0.1204
  431MOL0     C59378   5.373  10.459   0.706 -0.2977  0.3246  0.2068
  431MOL0     C59379   5.426  10.357   0.595 -0.7224  0.5289 -0.1403
  431MOL0     C59380   5.588  10.353   0.592  0.1682  0.2940 -0.4380
  431MOL0     C59381   5.658  10.281   0.710 -0.1726 -0.3182 -0.0463
  431MOL0     C59382   5.812  10.316   0.713 -0.0672  0.5820 -0.6326
  431MOL0     C59383   5.884  10.217   0.810 -0.3503  0.0522 -0.4251
  431MOL0     C59384   6.033  10.263   0.821  0.5078  1.0219 -0.2913
  431MOL0    Cl59385   6.049  10.388   0.949 -0.0995 -0.2449 -0.2745
  431MOL0     C59386   4.959  10.276   0.821 -0.2892  0.2164 -0.9059
  431MOL0     C59387   4.827  10.281   0.869  0.0822 -0.1154 -0.6711
  431MOL0     O59388   4.538  10.271   0.754  0.3749 -0.3020  0.4364
  431MOL0     C59389   4.295  10.305   0.893  0.8275  0.3943 -0.3178
  431MOL0     C59390   4.167  10.343   0.933  0.1148 -0.0488  0.0604
  431MOL0     N59391   3.554  10.279   0.716  0.5012 -0.1099  0.2496
  431MOL0     N59392   3.482  10.183   0.739  0.1311  0.4670  0.1072
  431MOL0     C59393   2.466  10.169   1.458  0.1223 -0.1320 -0.5603
  431MOL0     C59394   2.362  10.226   1.531 -0.5990 -0.5581 -0.1930
  431MOL0     C59395   2.016  10.346   1.808 -1.0475  0.7521 -0.0410
  431MOL0     C59396   1.882  10.372   1.765 -0.4526 -0.1454  0.7864
  431MOL0     C59397   1.788  10.428   1.849  0.7117  0.2092 -0.5831
  431MOL0     C59398   1.818  10.474   1.977  0.4216  0.0344 -0.1837
  431MOL0     O59399   1.715  10.530   2.051  0.3466  0.1074  0.0817
  431MOL0     C59400   1.738  10.622   2.157  0.0276 -0.4682  0.6421
  431MOL0     C59401   1.826  10.750   2.116  0.8863  0.4578  0.4973
  431MOL0     C59402   1.848  10.864   2.222  0.2984  0.6030 -0.2439
  431MOL0     C59403   1.913  10.804   2.347 -1.1499 -0.2401  0.0668
  431MOL0     C59404   2.048  10.752   2.333 -1.4885  0.3258  0.4428
  431MOL0     C59405   2.158  10.698   2.340 -0.3422 -0.2497 -0.3760
  431MOL0     C59406   1.946  10.454   2.030  0.0334 -0.1707 -0.1815
  431MOL0     C59407   2.044  10.388   1.944 -0.6477  1.5914  0.1679
  431MOL0     C59408   2.176  10.351   2.005  0.0678  0.2448 -0.1732
  431MOL0     H59409   2.389  10.059   1.825 -1.2091 -0.3253 -0.5379
  431MOL0     H59410   2.560   9.937   1.686 -1.9519 -0.8745  1.9599
  431MOL0     H59411   2.677  10.093   1.260  1.9643 -1.2416 -1.1925
  431MOL0     H59412   2.558   9.961   1.275  0.8647 -1.9688 -0.3977
  431MOL0     H59413   2.761   9.813   1.357  1.8764 -1.3024 -1.5555
  431MOL0     H59414   2.724   9.844   1.183 -1.0577 -0.3753  0.5149
  431MOL0     H59415   2.901  10.039   1.197  0.7071  1.5846  2.1621
  431MOL0     H59416   2.944   9.965   1.349 -0.7698 -4.8280  0.8993
  431MOL0     H59417   2.994   9.753   1.258 -0.9964  0.0060  0.5844
  431MOL0     H59418   2.954   9.793   1.089 -1.2303  0.3950  0.9495
  431MOL0     H59419   3.214   9.818   1.126  0.7180  1.7807 -1.8082
  431MOL0     H59420   3.180   9.935   1.250  1.8613 -1.0680 -1.0913
  431MOL0     H59421   3.098   9.964   0.955  1.2370 -0.5990 -1.5294
  431MOL0     H59422   3.091  10.092   1.070  0.1730  0.5701  0.3548
  431MOL0     H59423   3.363   9.984   0.989  0.0767  0.6430 -2.4983
  431MOL0     H59424   3.319  10.123   1.095  0.3254  1.7161 -1.4151
  431MOL0     H59425   3.233  10.096   0.804  0.6197  0.5805 -0.6679
  431MOL0     H59426   3.216  10.238   0.915  0.2187  0.2178 -1.3263
  431MOL0     H59427   3.380  10.392   0.969 -3.0439 -1.1345 -2.0536
  431MOL0     H59428   3.568  10.580   0.832 -2.2132 -1.6511 -0.3372
  431MOL0     H59429   3.653  10.490   0.710 -2.1586 -0.3052 -1.4277
  431MOL0     H59430   3.696  10.476   0.998 -2.0796 -3.7601 -0.3438
  431MOL0     H59431   3.772  10.361   0.888 -0.5963 -0.2454 -0.6821
  431MOL0     H59432   3.910  10.525   0.782  2.4032 -1.1815  1.1323
  431MOL0     H59433   3.799  10.657   0.821  0.4979  1.8410  4.1824
  431MOL0     H59434   4.008  10.683   0.954  0.3318 -0.8398 -1.7727
  431MOL0     H59435   3.870  10.645   1.064  1.4903 -1.6232  2.2669
  431MOL0     H59436   4.214  10.669   0.968 -1.0847  0.0804 -1.7833
  431MOL0     H59437   4.555  10.632   0.983 -2.4259  0.7451  1.5829
  431MOL0     H59438   4.434  10.735   0.902  0.8421 -0.0282  1.6714
  431MOL0     H59439   4.532  10.617   0.806  1.3102 -4.3057  1.1994
  431MOL0     H59440   4.767  10.603   0.830  1.6325  0.3435  0.8258
  431MOL0     H59441   4.992  10.591   0.700 -1.8157  1.0252  1.7643
  431MOL0     H59442   5.197  10.526   0.597  1.8446 -1.2172 -0.7977
  431MOL0     H59443   5.204  10.583   0.758  0.5017 -0.5420  0.7533
  431MOL0     H59444   5.417  10.557   0.687 -2.7888  1.2988 -1.0671
  431MOL0     H59445   5.394  10.425   0.808 -0.1529 -1.2505 -0.3225
  431MOL0     H59446   5.389  10.402   0.503 -2.2332 -1.1061 -0.3740
  431MOL0     H59447   5.390  10.254   0.598  1.8814 -0.4405  1.7391
  431MOL0     H59448   5.621  10.456   0.572  0.7218  0.1097 -0.4999
  431MOL0     H59449   5.599  10.302   0.496 -1.0021 -0.5916 -0.1236
  431MOL0     H59450   5.606  10.325   0.794  2.1477  0.3530  1.1352
  431MOL0     H59451   5.643  10.173   0.706  1.6402 -0.7362  2.3939
  431MOL0     H59452   5.827  10.419   0.746 -2.0861  0.4234  1.0503
  431MOL0     H59453   5.863  10.297   0.619  2.7070 -0.9601  1.0641
  431MOL0     H59454   5.877  10.121   0.759 -0.8760  0.5437 -1.3098
  431MOL0     H59455   5.827  10.202   0.902 -0.9733  0.1954 -0.7852
  431MOL0     H59456   6.082  10.296   0.729  1.4807 -0.3183 -0.2822
  431MOL0     H59457   6.090  10.175   0.855  0.5236  1.0959 -0.1276
  431MOL0     H59458   5.020  10.189   0.840  0.0823  0.8944  1.2700
  431MOL0     H59459   4.789  10.188   0.911 -0.6606  1.0069  1.2236
  431MOL0     H59460   4.315  10.200   0.871  1.2499  0.2019  0.9444
  431MOL0     H59461   4.087  10.270   0.925  0.3848 -0.2381 -1.1598
  431MOL0     H59462   2.476  10.197   1.354 -1.3556 -0.5098 -0.8290
  431MOL0     H59463   2.294  10.298   1.485 -0.2433  0.8765  1.3993
  431MOL0     H59464   1.840  10.333   1.673  1.0248  1.0286 -0.4244
  431MOL0     H59465   1.683  10.433   1.823  0.0444 -1.5961  1.5036
  431MOL0     H59466   1.645  10.658   2.202  1.5137  4.3689  0.4031
  431MOL0     H59467   1.775  10.567   2.244 -2.3955 -1.1020  1.3368
  431MOL0     H59468   1.778  10.806   2.035  0.2028 -0.0959  0.5105
  431MOL0     H59469   1.923  10.723   2.073  0.2221  0.0055 -0.7920
  431MOL0     H59470   1.914  10.938   2.176  2.1946 -0.9179 -0.0956
  431MOL0     H59471   1.748  10.903   2.245 -0.1760 -0.5595 -0.2633
  431MOL0     H59472   1.841  10.735   2.393 -2.3978 -0.7521 -2.4918
  431MOL0     H59473   1.919  10.894   2.408  1.2588 -1.2188  1.4167
  431MOL0     H59474   2.258  10.663   2.323 -1.0469 -1.6377 -1.9603
  431MOL0     H59475   1.961  10.472   2.136  0.1020 -0.0166 -0.2175
  431MOL0     H59476   2.188  10.400   2.102  2.1870 -0.8661  0.1991
  431MOL0     H59477   2.185  10.242   2.011 -1.1716  0.0918 -0.7638
  431MOL0     H59478   2.259  10.384   1.941  1.5809 -0.7208  1.1999
  432MOL0     O59479   7.373   2.745   0.447 -0.2016  0.0263  0.1249
  432MOL0     C59480   7.350   2.742   0.570  0.0288 -0.1970  0.1270
  432MOL0     O59481   7.418   2.665   0.661  0.4541 -0.8671 -0.0564
  432MOL0     C59482   7.543   2.617   0.629 -0.1812  1.4904  0.2886
  432MOL0     C59483   7.552   2.521   0.528  0.1740  0.4584 -0.2381
  432MOL0     C59484   7.678   2.464   0.510  0.1273  0.3606  0.0226
  432MOL0     C59485   7.794   2.498   0.590  0.3907 -0.2208 -0.3364
  432MOL0     O59486   7.929   2.463   0.567 -0.5076  0.4110 -0.1162
  432MOL0     C59487   7.952   2.379   0.450  1.1294 -0.7229 -0.9837
  432MOL0     C59488   8.097   2.360   0.411 -0.2146 -0.8105 -0.4605
  432MOL0     C59489   8.174   2.261   0.504 -0.2471  0.3414  0.0847
  432MOL0     C59490   8.333   2.277   0.490  1.3669  0.5650  0.2694
  432MOL0     C59491   8.401   2.403   0.554  0.4583  0.9402  0.0429
  432MOL0     C59492   8.549   2.386   0.552  0.4501 -0.7972 -0.1674
  432MOL0     C59493   8.633   2.498   0.618 -0.3997 -0.0945  0.2278
  432MOL0     C59494   8.786   2.462   0.611 -0.0154 -0.4068 -0.7158
  432MOL0     N59495   8.869   2.562   0.681 -0.0941  0.3034  0.5047
  432MOL0     C59496   8.909   2.557   0.811  0.1043  0.0160 -1.1399
  432MOL0     C59497   8.984   2.665   0.830 -0.3766 -0.2005  0.5351
  432MOL0     C59498   9.077   2.697   0.953  0.7728 -0.1935 -0.0585
  432MOL0     C59499   9.224   2.652   0.917  0.3296  0.5091 -0.2267
  432MOL0     C59500   9.317   2.688   1.030  0.4443  0.9677  1.2579
  432MOL0     C59501   9.463   2.644   0.988  0.7810 -0.7611  0.0526
  432MOL0     O59502   9.549   2.724   1.070  0.1560 -0.2509  0.0339
  432MOL0     C59503   9.682   2.698   1.054  0.1084 -0.9238 -0.0909
  432MOL0     C59504   9.732   2.653   0.936 -0.1719 -0.9658 -0.0150
  432MOL0     C59505   9.866   2.643   0.908  0.3571 -0.4672 -0.1208
  432MOL0     C59506   9.896   2.579   0.773  0.1514  0.4280  1.2865
  432MOL0     C59507   9.967   2.677   1.011  2.0115  0.0198  0.5404
  432MOL0     C59508  10.104   2.663   0.985 -0.5537  0.3802 -0.4138
  432MOL0     O59509  10.151   2.699   0.863  1.0328  0.3533  0.9591
  432MOL0     C59510  10.276   2.681   0.837 -0.0232  0.3508 -0.7847
  432MOL0     C59511  10.325   2.590   0.743 -0.3660 -0.3362 -0.7687
  432MOL0     C59512  10.468   2.578   0.717  0.2926  0.9547  0.6272
  432MOL0     C59513  10.555   2.673   0.769  0.2078 -0.5712  0.2290
  432MOL0     O59514  10.690   2.668   0.740  0.1397 -0.0345 -0.1952
  432MOL0     C59515  10.735   2.768   0.642  0.8229 -0.7744  0.3564
  432MOL0     C59516  10.889   2.753   0.621 -0.0470  0.1688  0.2377
  432MOL0     C59517  10.962   2.778   0.754  0.0633  0.5460  0.1358
  432MOL0     C59518  11.113   2.790   0.753  0.6605  0.3850 -0.7691
  432MOL0     C59519  11.160   2.816   0.900  0.4487  0.1338 -1.1237
  432MOL0     C59520  11.136   2.696   0.989  0.4439  0.2963  0.0526
  432MOL0     C59521  11.180   2.730   1.129  0.9358 -0.3224 -0.2331
  432MOL0     C59522  11.137   2.625   1.233  0.0751 -0.0559 -0.0841
  432MOL0    Cl59523  11.205   2.650   1.389  0.0933  0.1267 -0.2550
  432MOL0     C59524  10.503   2.768   0.854 -0.1267 -0.2406 -0.2071
  432MOL0     C59525  10.372   2.770   0.886 -0.4925  0.0412 -1.1469
  432MOL0     O59526  10.166   2.613   1.080 -1.0765  0.3727  0.0739
  432MOL0     C59527   9.915   2.715   1.141  0.3647  0.6197  0.2119
  432MOL0     C59528   9.780   2.732   1.157  0.0548 -0.2554  0.3000
  432MOL0     N59529   8.993   2.736   0.713  0.1355 -0.3231  0.7330
  432MOL0     N59530   8.916   2.687   0.632  0.4389  2.0108  0.1934
  432MOL0     C59531   7.776   2.584   0.700 -0.1044  0.2359  0.6022
  432MOL0     C59532   7.650   2.631   0.716 -0.5316  0.3419 -0.9747
  432MOL0     C59533   7.230   2.802   0.619  0.2688 -0.2109 -0.5890
  432MOL0     C59534   7.213   2.813   0.759 -0.2650 -0.2434 -0.8376
  432MOL0     C59535   7.096   2.877   0.822 -0.5205  0.5337  0.3571
  432MOL0     C59536   6.999   2.918   0.740  0.3305 -0.2786  0.2378
  432MOL0     O59537   6.880   2.957   0.770  0.1650  1.2618 -0.5384
  432MOL0     C59538   6.815   2.927   0.895 -0.8948 -1.2173 -0.0764
  432MOL0     C59539   6.778   2.778   0.892  0.6117  0.3633 -0.1229
  432MOL0     C59540   6.679   2.736   1.008  0.1374 -0.2202  0.8608
  432MOL0     C59541   6.680   2.578   1.011  0.4082  0.4615  0.3301
  432MOL0     C59542   6.605   2.528   1.119  0.1831  0.4389  0.5796
  432MOL0     C59543   6.527   2.494   1.203  1.2513  0.0012 -0.2215
  432MOL0     C59544   7.011   2.903   0.603 -0.2100  0.1434  0.0072
  432MOL0     C59545   7.126   2.851   0.541  0.4118 -0.4895  0.6262
  432MOL0     C59546   7.118   2.840   0.386 -0.6061  0.2740 -0.4750
  432MOL0     H59547   7.464   2.479   0.480  0.6259 -0.3974 -0.3498
  432MOL0     H59548   7.700   2.384   0.439 -2.5239 -0.0366 -0.4546
  432MOL0     H59549   7.893   2.430   0.373 -3.4398 -0.8225  2.1141
  432MOL0     H59550   7.913   2.279   0.467  2.4221 -1.0008  0.5819
  432MOL0     H59551   8.100   2.329   0.306 -1.4664 -0.0051 -0.7573
  432MOL0     H59552   8.143   2.459   0.421 -2.8755  0.3483  1.8158
  432MOL0     H59553   8.129   2.282   0.601  0.2858  0.7776  0.2423
  432MOL0     H59554   8.140   2.161   0.475  1.3956 -0.7216  1.5784
  432MOL0     H59555   8.365   2.184   0.537  1.0817 -0.7935 -2.0890
  432MOL0     H59556   8.368   2.267   0.387  0.6519  0.1081  0.0663
  432MOL0     H59557   8.377   2.419   0.660  2.2040  3.2961  0.1631
  432MOL0     H59558   8.374   2.496   0.504  1.9538 -0.4781 -3.7326
  432MOL0     H59559   8.584   2.287   0.580 -0.1539 -1.5526 -1.9452
  432MOL0     H59560   8.568   2.394   0.444 -3.2462 -2.0333 -1.0369
  432MOL0     H59561   8.609   2.501   0.725  0.0946  1.6306  0.3147
  432MOL0     H59562   8.610   2.596   0.574 -2.1663 -0.6886 -0.2716
  432MOL0     H59563   8.799   2.368   0.665  0.8575 -0.3637 -0.8409
  432MOL0     H59564   8.834   2.462   0.512  5.4706 -0.1864  1.5746
  432MOL0     H59565   8.889   2.473   0.877  0.6551  0.1228 -0.8274
  432MOL0     H59566   9.047   2.657   1.050 -1.5736  1.6396  0.0770
  432MOL0     H59567   9.072   2.807   0.954  0.9585 -0.1483 -1.5779
  432MOL0     H59568   9.236   2.544   0.903  2.5805  0.4289  1.6729
  432MOL0     H59569   9.252   2.701   0.824  1.7529  1.4034  0.6435
  432MOL0     H59570   9.300   2.794   1.052  2.4014  2.0334 -1.7899
  432MOL0     H59571   9.289   2.624   1.114  2.9898  1.0216  2.2143
  432MOL0     H59572   9.483   2.537   0.997 -0.2927 -1.0769 -0.9612
  432MOL0     H59573   9.462   2.679   0.884 -3.0730  0.6752  0.4035
  432MOL0     H59574   9.674   2.626   0.849  1.6732 -0.2027 -1.5598
  432MOL0     H59575   9.814   2.513   0.742 -1.4635  2.1111  1.7439
  432MOL0     H59576   9.985   2.516   0.778 -0.2311 -0.2657 -0.0607
  432MOL0     H59577   9.924   2.656   0.701  4.0109 -0.3198  1.7634
  432MOL0     H59578  10.259   2.518   0.695 -1.0707  1.0162 -1.9050
  432MOL0     H59579  10.499   2.507   0.640  0.7023  1.4930  0.2819
  432MOL0     H59580  10.683   2.740   0.550  0.1848 -1.6074  0.9567
  432MOL0     H59581  10.714   2.867   0.684  0.8962 -1.1847  1.3905
  432MOL0     H59582  10.913   2.653   0.583 -1.7134  0.2557 -1.1452
  432MOL0     H59583  10.923   2.822   0.543 -2.7738  1.9654  0.5339
  432MOL0     H59584  10.931   2.691   0.813 -2.1982  1.7242  0.7661
  432MOL0     H59585  10.917   2.865   0.803  0.1187 -0.2264  1.6333
  432MOL0     H59586  11.150   2.864   0.681 -0.9637 -0.4521 -2.5535
  432MOL0     H59587  11.166   2.696   0.733  1.1374  0.2951  0.7910
  432MOL0     H59588  11.268   2.836   0.897  0.4745  0.5106  0.8280
  432MOL0     H59589  11.109   2.902   0.945  1.0566 -1.1097  2.2188
  432MOL0     H59590  11.186   2.604   0.956 -0.8887 -2.1270  4.0229
  432MOL0     H59591  11.028   2.677   0.985  0.0682  2.4155 -1.7458
  432MOL0     H59592  11.141   2.824   1.169 -2.2549 -0.0459 -3.4765
  432MOL0     H59593  11.289   2.739   1.127  0.8411  1.9290  1.3398
  432MOL0     H59594  11.161   2.521   1.208 -2.1112 -0.3999 -1.0145
  432MOL0     H59595  11.028   2.620   1.224 -0.0521 -0.5914  1.3593
  432MOL0     H59596  10.570   2.840   0.899  0.3705 -1.7658  1.5859
  432MOL0     H59597  10.330   2.849   0.947 -3.2011 -1.0429 -1.4219
  432MOL0     H59598   9.994   2.727   1.215  1.1918  1.6431 -0.8035
  432MOL0     H59599   9.746   2.742   1.259 -1.1484 -1.1958  0.0167
  432MOL0     H59600   7.854   2.599   0.774  0.7430 -1.4219  0.0860
  432MOL0     H59601   7.653   2.696   0.803  1.2956 -0.6810 -0.2211
  432MOL0     H59602   7.284   2.770   0.829 -0.9279 -1.8733 -1.1161
  432MOL0     H59603   7.100   2.881   0.930  0.4280 -3.7156  0.6644
  432MOL0     H59604   6.869   2.948   0.988 -5.7497  4.9532  2.0085
  432MOL0     H59605   6.738   3.004   0.892 -0.3172 -0.5025  1.7168
  432MOL0     H59606   6.868   2.718   0.907  0.8189  1.1907  2.5507
  432MOL0     H59607   6.729   2.760   0.796 -2.0782  2.9806  0.5925
  432MOL0     H59608   6.705   2.777   1.106  1.9342 -0.7497  0.6346
  432MOL0     H59609   6.576   2.757   0.978  0.9526 -1.8337 -3.7961
  432MOL0     H59610   6.785   2.547   1.018  0.6896  1.3911  0.3365
  432MOL0     H59611   6.637   2.535   0.921  0.6436  0.6131  0.1432
  432MOL0     H59612   6.451   2.453   1.267  0.0064 -0.7170 -2.0575
  432MOL0     H59613   6.927   2.934   0.543 -1.5278 -3.8538 -0.4976
  432MOL0     H59614   7.097   2.735   0.362  1.1253 -0.1272 -0.3882
  432MOL0     H59615   7.038   2.902   0.345 -1.0242 -0.0632 -0.1814
  432MOL0     H59616   7.213   2.874   0.345  0.7646 -0.3189  1.9827
  433MOL0     O59617   7.767   4.346  10.029 -0.0069  0.6259 -0.0426
  433MOL0     C59618   7.662   4.277  10.021  0.8235 -0.0972 -0.5041
  433MOL0     O59619   7.655   4.150   9.970  0.5430  0.4366  0.0723
  433MOL0     C59620   7.765   4.081   9.922  0.0686 -0.4583  0.3499
  433MOL0     C59621   7.867   4.059  10.017 -1.1752 -0.3550 -0.0957
  433MOL0     C59622   7.978   3.989   9.980 -0.2557 -0.2591 -0.0248
  433MOL0     C59623   7.994   3.935   9.854 -0.2814  0.1784  0.0726
  433MOL0     O59624   8.110   3.863   9.827  0.0789  0.1238  1.1723
  433MOL0     C59625   8.115   3.764   9.712  0.4483  0.3864 -0.2780
  433MOL0     C59626   8.255   3.712   9.706  0.2321  0.0369 -0.1826
  433MOL0     C59627   8.334   3.689   9.842 -0.5405  0.3297 -0.2478
  433MOL0     C59628   8.267   3.590   9.944 -0.5942  0.4144  0.7660
  433MOL0     C59629   8.332   3.565  10.081  0.0378  0.4097  0.2218
  433MOL0     C59630   8.249   3.460  10.157  0.3656 -0.3363 -0.6184
  433MOL0     C59631   8.325   3.423  10.279 -0.0201 -0.2815 -0.2982
  433MOL0     C59632   8.269   3.319  10.370  0.9156 -0.3530  0.0511
  433MOL0     N59633   8.127   3.317  10.387 -0.0017 -1.0407 -0.2124
  433MOL0     C59634   8.037   3.275  10.298 -0.0127 -0.2302 -0.0567
  433MOL0     C59635   7.917   3.270  10.357  0.0825  0.0078  0.9053
  433MOL0     C59636   7.789   3.208  10.302 -0.3538  0.5266  0.3844
  433MOL0     C59637   7.798   3.104  10.188  0.9595 -0.4630 -0.3567
  433MOL0     C59638   7.801   2.959  10.247 -0.8088  0.2855 -0.7926
  433MOL0     C59639   7.946   2.907  10.275  0.2798 -0.7514 -0.4956
  433MOL0     O59640   8.030   2.919  10.163 -0.0660  0.2626  0.6913
  433MOL0     C59641   8.162   2.938  10.186  0.0698 -0.4135 -0.7700
  433MOL0     C59642   8.243   3.012  10.105  0.6129  0.0678  0.9257
  433MOL0     C59643   8.383   3.027  10.137  0.7337  0.3903  0.3517
  433MOL0     C59644   8.470   3.121  10.055 -0.1138  0.4308 -0.1721
  433MOL0     C59645   8.440   2.939  10.243  0.6352 -0.5827  0.4643
  433MOL0     C59646   8.592   2.927  10.260 -0.6477 -0.7893  0.6238
  433MOL0     O59647   8.628   2.843  10.363  0.3955  0.4512  0.3621
  433MOL0     C59648   8.747   2.825  10.409 -0.5022  0.3160 -0.9334
  433MOL0     C59649   8.766   2.714  10.495 -0.2413  0.0321 -0.4433
  433MOL0     C59650   8.871   2.708  10.593  0.4341 -0.7081 -1.3770
  433MOL0     C59651   8.965   2.820  10.595 -0.2546 -0.4285  0.1084
  433MOL0     O59652   9.052   2.823  10.704 -0.3831  0.7002  0.6035
  433MOL0     C59653   9.172   2.898  10.694 -0.2910  1.0655 -0.2830
  433MOL0     C59654   9.289   2.858  10.791  0.5159  0.1027 -0.1925
  433MOL0     C59655   9.322   2.706  10.791 -1.2434  0.0420 -0.1632
  433MOL0     C59656   9.468   2.682  10.845  0.8434  0.7716 -0.2478
  433MOL0     C59657   9.504   2.541  10.816  0.1196  0.5361  0.7806
  433MOL0     C59658   9.627   2.505  10.894  1.7081 -0.0147  0.6202
  433MOL0     C59659   9.664   2.369  10.847 -0.5627  0.2088 -0.4799
  433MOL0     C59660   9.742   2.304  10.962 -0.4137 -0.2219  0.4991
  433MOL0    Cl59661   9.903   2.364  10.981  0.1147 -0.0636 -0.0174
  433MOL0     C59662   8.952   2.925  10.510 -0.8106 -0.2043 -0.3619
  433MOL0     C59663   8.842   2.933  10.417 -0.1162  0.4113  1.5089
  433MOL0     O59664   8.673   2.986  10.188 -0.4056  0.0427 -0.2764
  433MOL0     C59665   8.356   2.852  10.306  1.1222  0.4044  0.3175
  433MOL0     C59666   8.217   2.845  10.278 -0.2657 -0.4786 -0.4112
  433MOL0     N59667   7.933   3.316  10.489 -1.1717 -0.6604 -0.4065
  433MOL0     N59668   8.060   3.333  10.508 -0.6382  0.8279  0.7654
  433MOL0     C59669   7.892   3.954   9.757  0.8014  0.2145 -0.8893
  433MOL0     C59670   7.778   4.032   9.790 -0.2560 -0.4441 -0.4075
  433MOL0     C59671   7.543   4.353  10.068 -0.4685  0.5467  0.2812
  433MOL0     C59672   7.558   4.481  10.111  0.0182  0.5556 -0.4524
  433MOL0     C59673   7.447   4.561  10.139 -1.1418  0.5647 -0.6885
  433MOL0     C59674   7.317   4.520  10.122 -0.6056  0.3618 -0.2355
  433MOL0     O59675   7.203   4.595  10.137  0.6999 -0.9267  0.7393
  433MOL0     C59676   7.207   4.728  10.202 -0.2827  0.3661  0.9286
  433MOL0     C59677   7.068   4.760  10.240  0.0927  0.4442  0.6275
  433MOL0     C59678   6.985   4.785  10.115 -0.4650 -0.9077  0.1964
  433MOL0     C59679   6.838   4.823  10.158 -0.3769 -0.4067  0.0340
  433MOL0     C59680   6.752   4.708  10.183 -0.1684 -0.7624  0.7666
  433MOL0     C59681   6.684   4.605  10.194 -0.0342 -0.1110  0.7328
  433MOL0     C59682   7.299   4.382  10.095 -0.0088  0.5035  0.4240
  433MOL0     C59683   7.409   4.294  10.071  1.3669 -0.2719  0.4361
  433MOL0     C59684   7.375   4.160  10.018 -0.8422 -0.3744 -0.0947
  433MOL0     H59685   7.864   4.097  10.119 -2.7883  1.5844 -0.8048
  433MOL0     H59686   8.061   3.969  10.047  1.6495  0.4601 -2.0331
  433MOL0     H59687   8.091   3.804   9.614 -0.9907 -0.7960 -0.4419
  433MOL0     H59688   8.042   3.684   9.730  2.4657 -1.1997  1.3950
  433MOL0     H59689   8.247   3.618   9.651 -3.3474  0.7243 -1.0596
  433MOL0     H59690   8.319   3.780   9.649 -0.0661  2.3290  2.0206
  433MOL0     H59691   8.428   3.651   9.801 -0.4271  0.0126  0.2857
  433MOL0     H59692   8.358   3.779   9.900  0.6645 -1.2071  1.7734
  433MOL0     H59693   8.161   3.612   9.961 -0.7760 -0.4630  0.8025
  433MOL0     H59694   8.260   3.497   9.887 -2.6176  1.5360 -0.9891
  433MOL0     H59695   8.335   3.660  10.136  1.5214  0.4144  0.1763
  433MOL0     H59696   8.436   3.531  10.081 -0.8065 -2.4095  0.3819
  433MOL0     H59697   8.151   3.502  10.179 -0.3313 -2.4310  0.4779
  433MOL0     H59698   8.229   3.367  10.103 -1.7197 -1.3936  1.8038
  433MOL0     H59699   8.349   3.515  10.333  3.0880 -0.8780 -0.4754
  433MOL0     H59700   8.415   3.378  10.235 -1.1236 -4.1436  0.9591
  433MOL0     H59701   8.296   3.218  10.339 -1.0286 -0.6097 -0.9328
  433MOL0     H59702   8.313   3.337  10.469 -1.9806  0.3472  1.2959
  433MOL0     H59703   8.040   3.246  10.193 -0.3843 -1.1097  0.1599
  433MOL0     H59704   7.720   3.283  10.264 -0.3031 -0.0621 -0.9144
  433MOL0     H59705   7.736   3.169  10.389 -3.3341 -0.4141 -1.6926
  433MOL0     H59706   7.697   3.107  10.146  0.8127  1.4488  0.0376
  433MOL0     H59707   7.873   3.122  10.111 -0.5117 -0.4712 -1.8412
  433MOL0     H59708   7.751   2.956  10.345  0.7022 -0.1045  0.0025
  433MOL0     H59709   7.746   2.894  10.179  2.9061  0.5499 -4.3916
  433MOL0     H59710   7.985   2.949  10.368  2.7751  0.8242 -2.1418
  433MOL0     H59711   7.931   2.799  10.286 -2.2361 -0.3830  0.5210
  433MOL0     H59712   8.204   3.064  10.019 -2.4176 -1.4000  1.2680
  433MOL0     H59713   8.411   3.184   9.988  0.8619  1.7345  0.1495
  433MOL0     H59714   8.548   3.062  10.005  0.3244  0.6050  0.3044
  433MOL0     H59715   8.526   3.193  10.114  1.2854  0.4535 -1.4572
  433MOL0     H59716   8.693   2.635  10.506  0.6700 -0.6697  0.7195
  433MOL0     H59717   8.890   2.639  10.675 -1.1722  0.9186  0.4686
  433MOL0     H59718   9.210   2.874  10.595  0.0012 -2.5770  0.5952
  433MOL0     H59719   9.141   3.002  10.708 -3.6860  0.2420 -0.9188
  433MOL0     H59720   9.379   2.917  10.768  1.4259 -0.1903  2.3537
  433MOL0     H59721   9.270   2.892  10.893 -0.1766  0.2986 -0.3818
  433MOL0     H59722   9.313   2.659  10.692 -0.1598 -1.2981  0.3410
  433MOL0     H59723   9.251   2.652  10.855 -2.7185  1.1475 -0.8108
  433MOL0     H59724   9.482   2.704  10.951  1.7879 -0.5840 -0.0635
  433MOL0     H59725   9.540   2.748  10.795  3.3848 -0.9858  0.8669
  433MOL0     H59726   9.426   2.465  10.823  0.4164 -0.1927 -2.2444
  433MOL0     H59727   9.519   2.534  10.708 -0.7597  0.9271  0.6250
  433MOL0     H59728   9.600   2.505  11.001 -0.6776  1.1725  0.0980
  433MOL0     H59729   9.710   2.574  10.873  1.2435  0.6746  0.9843
  433MOL0     H59730   9.723   2.376  10.755 -1.3823  1.3225 -0.9312
  433MOL0     H59731   9.579   2.304  10.827 -0.7119 -0.5322  2.0934
  433MOL0     H59732   9.751   2.198  10.938  1.2737  0.4542 -2.3317
  433MOL0     H59733   9.683   2.322  11.052 -4.5551  1.5868 -2.2281
  433MOL0     H59734   9.023   3.006  10.499 -0.3648 -0.7790 -2.1059
  433MOL0     H59735   8.831   3.026  10.361  0.9662  0.0987  0.7631
  433MOL0     H59736   8.397   2.783  10.380 -0.0565 -1.1967 -0.4765
  433MOL0     H59737   8.154   2.775  10.333 -0.5008  2.3112  3.3029
  433MOL0     H59738   7.896   3.924   9.652  0.0578 -1.3764 -0.5047
  433MOL0     H59739   7.705   4.070   9.720  0.4475  1.1481 -0.3301
  433MOL0     H59740   7.655   4.527  10.126  0.4489 -0.7592  0.9937
  433MOL0     H59741   7.464   4.661  10.177  0.1275 -0.4255  1.4947
  433MOL0     H59742   7.269   4.711  10.291  0.8081  0.8119  0.2806
  433MOL0     H59743   7.252   4.807  10.141 -1.7965 -0.3604 -1.2498
  433MOL0     H59744   7.076   4.855  10.293  0.2457  0.6484  0.2452
  433MOL0     H59745   7.020   4.686  10.305  0.1031 -1.0398 -0.9755
  433MOL0     H59746   7.035   4.867  10.062  2.1543 -0.8844  2.4547
  433MOL0     H59747   6.987   4.700  10.047 -1.1747 -0.8836  0.1402
  433MOL0     H59748   6.803   4.880  10.072  1.5945  0.1359 -0.4672
  433MOL0     H59749   6.838   4.894  10.241  3.5973  0.0188 -0.1245
  433MOL0     H59750   6.627   4.515  10.194 -1.4429  0.7409 -0.2367
  433MOL0     H59751   7.195   4.352  10.098 -0.6079  2.4605  1.0310
  433MOL0     H59752   7.417   4.094  10.094  0.9753  1.2647  0.3993
  433MOL0     H59753   7.268   4.134  10.019 -0.5034 -2.4037 -2.8788
  433MOL0     H59754   7.401   4.130   9.916 -0.3145 -1.4939  0.3559
  434MOL0     O59755   8.178   5.526   9.958  0.4988 -0.3058  0.0401
  434MOL0     C59756   8.168   5.439  10.051  0.4221 -0.5785  0.4409
  434MOL0     O59757   8.126   5.463  10.178 -0.0485  0.0113  0.3080
  434MOL0     C59758   8.112   5.595  10.220 -0.4165  0.0760 -0.4884
  434MOL0     C59759   8.183   5.711  10.172 -0.5696 -0.1405 -0.1224
  434MOL0     C59760   8.143   5.840  10.222 -0.0069 -0.1946 -0.1432
  434MOL0     C59761   8.035   5.852  10.309  0.1034  0.0420 -1.0008
  434MOL0     O59762   8.007   5.975  10.360  0.0675  0.3367 -0.2337
  434MOL0     C59763   7.915   5.992  10.469 -0.4675 -0.0925 -0.8936
  434MOL0     C59764   7.942   6.119  10.538 -0.0303 -0.0470 -0.6781
  434MOL0     C59765   8.086   6.122  10.595 -0.0547 -0.4636  0.1175
  434MOL0     C59766   8.106   6.264  10.631 -0.4679  0.0304  0.0195
  434MOL0     C59767   8.248   6.293  10.695 -0.7657 -0.8313  0.8227
  434MOL0     C59768   8.271   6.213  10.828  0.6023 -0.2155  0.8224
  434MOL0     C59769   8.387   6.274  10.901 -0.3868  0.6453 -0.5479
  434MOL0     C59770   8.427   6.191  11.029 -1.1244  0.3314 -0.2444
  434MOL0     N59771   8.554   6.253  11.071  0.3501 -0.7200  0.8614
  434MOL0     C59772   8.568   6.313  11.192 -0.5397  0.0043  0.1707
  434MOL0     C59773   8.701   6.348  11.199 -0.4933  0.6526 -0.0304
  434MOL0     C59774   8.756   6.415  11.321 -0.1832  0.0850 -0.1360
  434MOL0     C59775   8.711   6.560  11.331  0.6828 -0.4167 -0.4541
  434MOL0     C59776   8.753   6.648  11.212  0.9332  0.2018  0.2826
  434MOL0     C59777   8.898   6.664  11.178 -0.6464  0.9570 -0.3159
  434MOL0     O59778   8.976   6.691  11.300  0.4400  0.1039  0.2341
  434MOL0     C59779   9.115   6.693  11.290 -0.5864  0.2333 -0.2215
  434MOL0     C59780   9.187   6.681  11.175  0.3260 -0.5708  0.2875
  434MOL0     C59781   9.330   6.692  11.165 -0.2793  0.2440 -1.0297
  434MOL0     C59782   9.397   6.680  11.028 -0.9652 -1.1198  0.4784
  434MOL0     C59783   9.397   6.710  11.291 -0.0227  0.2527  0.0970
  434MOL0     C59784   9.545   6.718  11.298  1.4884  0.9984 -0.6344
  434MOL0     O59785   9.607   6.690  11.424  0.1293  0.5297 -0.7857
  434MOL0     C59786   9.740   6.666  11.425 -0.2750 -0.0705  0.7393
  434MOL0     C59787   9.837   6.776  11.421 -0.1949  0.0366  0.6590
  434MOL0     C59788   9.976   6.744  11.438 -0.3651  0.0967 -0.0034
  434MOL0     C59789  10.017   6.608  11.446  1.1076 -0.4239 -0.4081
  434MOL0     O59790  10.153   6.585  11.448 -0.0795 -0.3324  0.3161
  434MOL0     C59791  10.199   6.450  11.447 -0.6898  1.6085  0.6363
  434MOL0     C59792  10.355   6.434  11.465 -0.1620 -0.0818 -0.0896
  434MOL0     C59793  10.415   6.294  11.489  0.2739 -0.2482 -0.3240
  434MOL0     C59794  10.409   6.204  11.366  0.3447  0.9407  0.9396
  434MOL0     C59795  10.452   6.059  11.396  0.3971 -0.0323 -0.1588
  434MOL0     C59796  10.399   5.955  11.300  0.1832 -1.2071  0.6297
  434MOL0     C59797  10.458   5.811  11.306 -0.0474  0.2729  0.2574
  434MOL0     C59798  10.369   5.712  11.365  0.5190 -0.6402 -0.1242
  434MOL0    Cl59799  10.375   5.742  11.538  0.0286 -0.1061 -0.2096
  434MOL0     C59800   9.924   6.504  11.435  0.0716  0.5803 -0.3091
  434MOL0     C59801   9.787   6.533  11.420 -0.0177 -0.0818  0.0764
  434MOL0     O59802   9.608   6.759  11.205  0.1256 -0.2312  0.2406
  434MOL0     C59803   9.323   6.713  11.412  0.1876  0.9360 -0.4208
  434MOL0     C59804   9.185   6.700  11.413  0.0568 -0.5177  0.5364
  434MOL0     N59805   8.765   6.301  11.087 -0.6188  0.0807 -0.3145
  434MOL0     N59806   8.677   6.254  11.015 -0.5217 -0.0521  0.7768
  434MOL0     C59807   7.969   5.734  10.350  0.6275  0.5288  0.2121
  434MOL0     C59808   8.004   5.608  10.303  0.4370 -0.2431 -0.4165
  434MOL0     C59809   8.200   5.295  10.017 -0.2741 -0.7330 -0.4175
  434MOL0     C59810   8.153   5.193  10.105 -1.3473  0.1224  0.1014
  434MOL0     C59811   8.199   5.057  10.100  0.4022  0.2987  0.4808
  434MOL0     C59812   8.289   5.014   9.999 -0.4605 -0.6788  0.4212
  434MOL0     O59813   8.315   4.885   9.982 -0.7414  0.1644 -0.4235
  434MOL0     C59814   8.252   4.823   9.876 -0.7980 -0.3121  0.1353
  434MOL0     C59815   8.351   4.731   9.807 -0.7502 -0.0349 -0.7327
  434MOL0     C59816   8.435   4.659   9.906 -1.0487 -0.1629 -0.6603
  434MOL0     C59817   8.507   4.538   9.846  0.0349 -0.9780 -0.1647
  434MOL0     C59818   8.625   4.571   9.768 -0.2406 -0.1738 -0.3189
  434MOL0     C59819   8.729   4.602   9.701  0.7343  0.1168  0.6222
  434MOL0     C59820   8.317   5.113   9.903  0.7379 -1.2536  0.4826
  434MOL0     C59821   8.285   5.249   9.911  0.0997  0.4576  0.3611
  434MOL0     C59822   8.347   5.347   9.805  0.1129  0.3266 -0.0245
  434MOL0     H59823   8.273   5.697  10.114 -0.0152  0.1413  0.6487
  434MOL0     H59824   8.200   5.930  10.201  0.0958  0.5617  2.9321
  434MOL0     H59825   7.916   5.911  10.542 -2.9060 -0.4889 -1.2332
  434MOL0     H59826   7.808   5.985  10.450 -1.1810 -2.6733  2.9428
  434MOL0     H59827   7.924   6.200  10.467 -0.8732  0.6865  0.3489
  434MOL0     H59828   7.874   6.121  10.624  1.4656  3.0242  0.5725
  434MOL0     H59829   8.096   6.057  10.682  1.7876 -0.4335 -0.0333
  434MOL0     H59830   8.161   6.090  10.522 -0.8524 -1.5322 -0.2563
  434MOL0     H59831   8.090   6.334  10.548  1.6443 -0.3023 -0.7389
  434MOL0     H59832   8.030   6.286  10.706 -0.0960  0.8651  0.1654
  434MOL0     H59833   8.248   6.399  10.724  0.0079 -0.0517 -1.8081
  434MOL0     H59834   8.327   6.277  10.622 -2.0978  1.2496 -1.2227
  434MOL0     H59835   8.185   6.214  10.896  0.5838  0.6733  0.7993
  434MOL0     H59836   8.291   6.107  10.808 -0.6198 -1.0239  3.4511
  434MOL0     H59837   8.368   6.381  10.914  0.2177  0.5921  0.9920
  434MOL0     H59838   8.473   6.274  10.833 -0.2287 -0.1296 -0.3488
  434MOL0     H59839   8.347   6.191  11.104  0.7766  2.8325  1.9389
  434MOL0     H59840   8.449   6.086  11.008  1.7670  0.8145 -0.0256
  434MOL0     H59841   8.491   6.323  11.268  2.4968  1.3200  3.3648
  434MOL0     H59842   8.866   6.409  11.320  0.1204  3.5614 -1.0269
  434MOL0     H59843   8.717   6.357  11.406 -0.3406 -0.0782 -0.3194
  434MOL0     H59844   8.605   6.557  11.360  1.2297  0.1456  1.8157
  434MOL0     H59845   8.758   6.597  11.423  1.5827 -2.1085 -0.1978
  434MOL0     H59846   8.694   6.614  11.126 -1.6420  1.1035  1.6100
  434MOL0     H59847   8.707   6.746  11.227 -2.7718 -1.2092 -0.6966
  434MOL0     H59848   8.922   6.565  11.140 -2.6276  0.8331 -1.3898
  434MOL0     H59849   8.919   6.733  11.096  0.8470  0.3616 -0.4617
  434MOL0     H59850   9.144   6.659  11.077  0.0123  1.3103 -0.0218
  434MOL0     H59851   9.330   6.640  10.952 -0.6716 -0.1548 -0.3127
  434MOL0     H59852   9.491   6.625  11.036 -1.0409 -1.1672  1.1338
  434MOL0     H59853   9.427   6.780  10.993 -0.4840 -0.9164  1.4230
  434MOL0     H59854   9.805   6.879  11.430  2.9841  1.0572  1.6775
  434MOL0     H59855  10.049   6.823  11.456  1.7852 -1.5962 -0.8203
  434MOL0     H59856  10.159   6.395  11.533 -1.1561  1.9202  0.6181
  434MOL0     H59857  10.167   6.400  11.356 -0.3267 -0.9945  1.8476
  434MOL0     H59858  10.398   6.482  11.377 -0.2814 -0.6025 -0.4385
  434MOL0     H59859  10.389   6.483  11.556 -0.1938 -2.2508  1.1736
  434MOL0     H59860  10.374   6.236  11.573  0.2115  1.0602  0.5752
  434MOL0     H59861  10.518   6.312  11.520 -0.1247  1.1786  0.2393
  434MOL0     H59862  10.467   6.241  11.282 -1.6772  1.1687 -0.4285
  434MOL0     H59863  10.305   6.205  11.330  0.8722  3.6024 -0.7696
  434MOL0     H59864  10.561   6.058  11.384  0.1769 -1.3365 -2.6959
  434MOL0     H59865  10.428   6.032  11.500  2.4268 -1.1563  0.0635
  434MOL0     H59866  10.412   5.993  11.198 -3.8510 -2.2858 -0.4626
  434MOL0     H59867  10.290   5.952  11.311 -0.0500  0.6709 -0.7600
  434MOL0     H59868  10.554   5.807  11.358  2.1541  1.6872 -3.3361
  434MOL0     H59869  10.481   5.774  11.205 -3.0816  0.8579 -0.7391
  434MOL0     H59870  10.402   5.612  11.338  1.2030 -0.7076  0.8992
  434MOL0     H59871  10.267   5.727  11.329  1.5033 -0.0977 -2.9290
  434MOL0     H59872   9.948   6.399  11.427 -1.9940  0.0547 -0.2890
  434MOL0     H59873   9.713   6.455  11.408 -0.0945  0.4279 -4.0480
  434MOL0     H59874   9.368   6.724  11.510 -0.8116 -0.5519  0.2440
  434MOL0     H59875   9.127   6.728  11.501 -0.4749 -0.0943  0.0636
  434MOL0     H59876   7.879   5.741  10.412  0.1470  1.7318 -0.5808
  434MOL0     H59877   7.946   5.522  10.334  0.5597  0.5374  2.3090
  434MOL0     H59878   8.086   5.223  10.185 -0.1924  0.3715  1.0056
  434MOL0     H59879   8.171   4.983  10.175 -0.8566  1.0746  0.8032
  434MOL0     H59880   8.167   4.763   9.910 -0.5586 -0.6017  0.2377
  434MOL0     H59881   8.207   4.892   9.805  1.2866  2.7139  1.5443
  434MOL0     H59882   8.420   4.791   9.748 -1.0706 -1.3383 -2.5101
  434MOL0     H59883   8.288   4.666   9.745  0.8294 -1.2313 -1.1319
  434MOL0     H59884   8.506   4.728   9.953 -2.8211  2.5603 -1.8043
  434MOL0     H59885   8.381   4.618   9.992  1.1781 -2.4734 -0.2244
  434MOL0     H59886   8.441   4.481   9.779  0.1016  0.5285 -1.5860
  434MOL0     H59887   8.538   4.480   9.933 -0.6000  1.7399  2.0075
  434MOL0     H59888   8.812   4.626   9.637  2.5779 -0.1866  2.8047
  434MOL0     H59889   8.385   5.091   9.822  0.3976 -0.9006  0.1007
  434MOL0     H59890   8.433   5.307   9.749 -0.5677 -1.0585 -0.1318
  434MOL0     H59891   8.263   5.376   9.742 -1.0368 -0.7760  0.9382
  434MOL0     H59892   8.387   5.433   9.859  1.7990 -2.0807  2.8614
  435MOL0     O59893   1.036   9.004   9.319  0.1648  0.2246 -0.6475
  435MOL0     C59894   1.032   9.110   9.266  0.0056  0.1713 -0.0503
  435MOL0     O59895   1.086   9.226   9.312  0.4025  0.4269 -0.5095
  435MOL0     C59896   1.147   9.228   9.432  1.0239  0.2117 -0.0282
  435MOL0     C59897   1.077   9.219   9.546  0.3635  0.7393 -0.3032
  435MOL0     C59898   1.138   9.230   9.666 -1.0172 -0.7887  0.5994
  435MOL0     C59899   1.278   9.244   9.678  0.2436  0.2039 -0.1324
  435MOL0     O59900   1.343   9.256   9.797  0.1351  0.5934 -0.5789
  435MOL0     C59901   1.469   9.181   9.817 -0.0343 -0.0073 -0.8082
  435MOL0     C59902   1.470   9.150   9.970  0.6202 -0.2036 -0.2114
  435MOL0     C59903   1.601   9.083  10.015 -0.9136 -0.0723  1.0591
  435MOL0     C59904   1.601   8.930   9.969  0.4467 -0.4138 -0.3565
  435MOL0     C59905   1.737   8.871   9.974  0.6262 -0.5512 -0.7775
  435MOL0     C59906   1.751   8.738   9.894  0.0413 -0.2100  0.4340
  435MOL0     C59907   1.891   8.680   9.913  0.4295 -0.3186  0.2962
  435MOL0     C59908   1.894   8.525   9.877 -0.7454 -0.7261  0.2958
  435MOL0     N59909   1.863   8.508   9.737 -0.2587  0.3881  0.0346
  435MOL0     C59910   1.958   8.517   9.634  0.6376  0.0455  0.2432
  435MOL0     C59911   1.900   8.457   9.524  0.5414 -0.1883  0.1085
  435MOL0     C59912   1.960   8.454   9.381 -0.2170 -0.0331  0.3358
  435MOL0     C59913   1.929   8.327   9.293  0.2329  0.5527 -0.8791
  435MOL0     C59914   1.927   8.367   9.145  0.7314 -0.1074 -0.7413
  435MOL0     C59915   2.056   8.417   9.087  0.4756 -0.3783 -0.9556
  435MOL0     O59916   2.047   8.435   8.948 -0.0463 -0.2496  0.6458
  435MOL0     C59917   2.014   8.561   8.900 -0.0540 -0.1750 -0.4494
  435MOL0     C59918   1.949   8.660   8.974  0.3369 -0.8567  0.0620
  435MOL0     C59919   1.924   8.791   8.926  0.6926  0.6280  0.5893
  435MOL0     C59920   1.845   8.874   9.022 -0.1133 -1.3228 -0.3201
  435MOL0     C59921   1.961   8.818   8.790  0.3595 -0.0077 -0.5763
  435MOL0     C59922   1.916   8.935   8.712 -0.1267 -0.1918  0.6231
  435MOL0     O59923   1.928   8.915   8.570  0.2853  0.6665 -0.0773
  435MOL0     C59924   1.925   9.014   8.477 -0.1015 -0.2028 -1.3216
  435MOL0     C59925   1.847   9.132   8.492  0.8378  0.2818  0.1109
  435MOL0     C59926   1.850   9.228   8.383 -0.1824  0.7446 -0.0978
  435MOL0     C59927   1.933   9.205   8.274  0.1409  0.4033  0.1773
  435MOL0     O59928   1.962   9.317   8.187 -0.0234 -0.5864 -0.5162
  435MOL0     C59929   1.940   9.300   8.049 -0.0264 -0.5784 -0.4531
  435MOL0     C59930   2.016   9.413   7.969  0.6348 -0.7966 -0.4885
  435MOL0     C59931   1.972   9.561   7.994  0.3920  0.2721 -0.2618
  435MOL0     C59932   1.821   9.576   7.952  1.3976 -0.5201  0.6221
  435MOL0     C59933   1.759   9.702   7.999  0.8950 -0.3241 -0.3981
  435MOL0     C59934   1.808   9.816   7.912  0.5027  0.3012  0.2803
  435MOL0     C59935   1.737   9.946   7.961 -0.2802 -0.6556 -0.0151
  435MOL0     C59936   1.759  10.062   7.868  0.1924 -0.4760 -0.3531
  435MOL0    Cl59937   1.626  10.075   7.745 -0.5380 -0.3514 -0.3921
  435MOL0     C59938   1.989   9.081   8.260 -0.1108  0.8836  0.5219
  435MOL0     C59939   1.991   8.985   8.361 -0.0076  0.1691  0.6955
  435MOL0     O59940   1.862   9.032   8.771 -1.3151 -0.4160  0.6540
  435MOL0     C59941   2.034   8.723   8.716 -0.1409 -0.2145  0.3593
  435MOL0     C59942   2.063   8.598   8.770 -0.5295  0.4659 -0.2818
  435MOL0     N59943   1.782   8.402   9.560  0.6825  0.5887 -0.8084
  435MOL0     N59944   1.764   8.440   9.687  0.6047  0.9173 -0.0109
  435MOL0     C59945   1.346   9.237   9.558 -0.3942  0.1882 -1.6717
  435MOL0     C59946   1.281   9.237   9.436 -0.4267  0.1068  0.4715
  435MOL0     C59947   0.945   9.123   9.144 -0.4923  0.4487 -0.1378
  435MOL0     C59948   0.921   9.005   9.064 -0.4948  0.1396 -1.0979
  435MOL0     C59949   0.841   9.005   8.953  0.1990 -0.5959  0.5926
  435MOL0     C59950   0.786   9.123   8.902 -0.8409  0.3730 -0.0981
  435MOL0     O59951   0.715   9.140   8.789 -0.8155  0.4754  0.7369
  435MOL0     C59952   0.692   9.041   8.694  0.2095 -0.1412 -0.3174
  435MOL0     C59953   0.560   9.058   8.630 -0.5666  0.3713 -0.0630
  435MOL0     C59954   0.540   9.187   8.567 -0.0155 -0.1392  0.4162
  435MOL0     C59955   0.383   9.188   8.535  0.2738  0.3131 -0.4820
  435MOL0     C59956   0.358   9.307   8.456 -1.0104  0.8256 -0.2119
  435MOL0     C59957   0.333   9.402   8.383 -1.1375 -0.3435  0.1307
  435MOL0     C59958   0.819   9.239   8.967 -0.3904  0.1574 -0.7424
  435MOL0     C59959   0.891   9.249   9.092  0.5182 -0.1073  0.2548
  435MOL0     C59960   0.924   9.381   9.150 -0.3616 -0.2048  0.5350
  435MOL0     H59961   0.971   9.208   9.522  0.5466 -1.0550 -0.4146
  435MOL0     H59962   1.081   9.220   9.758 -1.8043 -2.1723 -0.0102
  435MOL0     H59963   1.557   9.245   9.803 -0.2062  0.2730 -0.6280
  435MOL0     H59964   1.475   9.084   9.769 -1.9634 -0.6088  0.0884
  435MOL0     H59965   1.453   9.247  10.017 -2.5258  0.2534 -2.0132
  435MOL0     H59966   1.380   9.090   9.984 -0.0735  0.6974 -0.7310
  435MOL0     H59967   1.677   9.143   9.964 -1.6693 -2.5208 -3.5792
  435MOL0     H59968   1.610   9.088  10.124  0.5914  3.2851  0.9134
  435MOL0     H59969   1.538   8.879  10.043 -3.4737  1.2672 -2.2079
  435MOL0     H59970   1.556   8.916   9.871 -2.9732 -0.7814  1.1010
  435MOL0     H59971   1.760   8.851  10.079 -1.6022 -0.2536 -0.1891
  435MOL0     H59972   1.808   8.943   9.931 -0.4334  1.7922  1.1376
  435MOL0     H59973   1.687   8.662   9.939 -0.5576  0.4133  0.6573
  435MOL0     H59974   1.731   8.745   9.786 -1.3847 -0.3892  0.6719
  435MOL0     H59975   1.918   8.674  10.019  0.2576 -0.7264  0.3169
  435MOL0     H59976   1.967   8.730   9.852  1.1428 -1.3544  0.3132
  435MOL0     H59977   1.989   8.480   9.908 -0.9062 -1.0555  0.3131
  435MOL0     H59978   1.824   8.475   9.945 -1.3867 -0.7695 -0.3845
  435MOL0     H59979   2.056   8.563   9.637  0.7018 -0.1230  1.2913
  435MOL0     H59980   2.068   8.461   9.391 -0.1315 -0.7685  0.0026
  435MOL0     H59981   1.915   8.542   9.334 -2.7828 -1.0932  0.6397
  435MOL0     H59982   1.995   8.243   9.318 -1.1303 -0.1336  0.5598
  435MOL0     H59983   1.827   8.291   9.304 -0.1695 -0.6216 -5.9498
  435MOL0     H59984   1.904   8.282   9.080 -1.2600  0.1864 -0.4929
  435MOL0     H59985   1.843   8.436   9.134  0.3700  0.5484  4.0926
  435MOL0     H59986   2.077   8.512   9.139  0.5467  0.0599 -1.7601
  435MOL0     H59987   2.128   8.342   9.119  1.2959 -0.3151 -2.5408
  435MOL0     H59988   1.919   8.642   9.077  0.3764  1.4281  0.5380
  435MOL0     H59989   1.902   8.966   9.040 -2.0821 -0.3274  1.1842
  435MOL0     H59990   1.824   8.830   9.120 -0.6454  2.6706  1.5446
  435MOL0     H59991   1.745   8.893   8.981  0.3153  0.0550 -0.7747
  435MOL0     H59992   1.781   9.153   8.575  0.2426 -2.9975  0.5881
  435MOL0     H59993   1.804   9.325   8.398 -0.8335  0.9767 -3.0769
  435MOL0     H59994   1.958   9.198   8.015  0.2341 -0.8861  0.5732
  435MOL0     H59995   1.832   9.308   8.034  0.0333 -0.4556 -0.8196
  435MOL0     H59996   2.124   9.417   7.988  0.5529 -0.4746 -0.0594
  435MOL0     H59997   1.999   9.388   7.865 -1.0110 -0.0024 -0.4405
  435MOL0     H59998   2.037   9.635   7.948 -1.7991  0.8853 -2.5611
  435MOL0     H59999   1.977   9.580   8.102  2.3616 -1.0072 -0.0633
  435MOL0     H60000   1.758   9.501   7.999 -0.7497  0.8676  0.1212
  435MOL0     H60001   1.830   9.577   7.843  4.2716 -0.9790  0.7594
  435MOL0     H60002   1.653   9.693   7.978  1.4174 -1.7193 -2.7650
  435MOL0     H60003   1.787   9.727   8.102  0.6862 -1.4428 -0.0599
  435MOL0     H60004   1.773   9.796   7.810  0.3676 -2.0765  0.7501
  435MOL0     H60005   1.917   9.825   7.907  0.6395 -1.3055  0.0376
  435MOL0     H60006   1.775   9.973   8.060 -0.7500 -1.6308  0.4360
  435MOL0     H60007   1.629   9.930   7.966 -1.0436  3.3240 -0.2209
  435MOL0     H60008   1.851  10.036   7.814  1.5449  2.2685  0.4816
  435MOL0     H60009   1.768  10.152   7.928  1.6867 -2.0264  1.9180
  435MOL0     H60010   2.054   9.069   8.174  0.5122  2.8628  0.6787
  435MOL0     H60011   2.037   8.886   8.359 -2.9967 -1.3543  0.7434
  435MOL0     H60012   2.072   8.716   8.615 -3.0833 -3.8955 -0.7386
  435MOL0     H60013   2.107   8.514   8.719 -0.1907 -0.5776  1.6196
  435MOL0     H60014   1.454   9.245   9.561 -0.3433 -0.6545 -0.3490
  435MOL0     H60015   1.337   9.257   9.345  0.0313  4.0110  1.4358
  435MOL0     H60016   0.965   8.917   9.109 -2.0212  0.8829  2.1246
  435MOL0     H60017   0.815   8.909   8.909 -0.8733 -0.7224  1.4522
  435MOL0     H60018   0.758   9.042   8.607 -2.1616 -0.8657 -2.2207
  435MOL0     H60019   0.689   8.941   8.739 -2.6657 -0.6000 -1.3294
  435MOL0     H60020   0.488   9.038   8.710 -0.1374 -3.0956 -0.3937
  435MOL0     H60021   0.551   8.983   8.551  3.4144  0.6225 -0.9469
  435MOL0     H60022   0.563   9.273   8.630 -0.5438 -1.2723  2.2086
  435MOL0     H60023   0.598   9.193   8.474 -1.3257  3.5554 -0.3411
  435MOL0     H60024   0.328   9.186   8.630  2.0503 -2.1220  0.6146
  435MOL0     H60025   0.350   9.096   8.486 -1.2940  0.6568 -0.1196
  435MOL0     H60026   0.311   9.486   8.321  1.6534  0.6450  0.2993
  435MOL0     H60027   0.776   9.331   8.927 -1.7376  0.2924  0.8789
  435MOL0     H60028   0.864   9.457   9.100 -0.1513 -0.0102  0.5771
  435MOL0     H60029   0.909   9.385   9.258 -0.3564  1.5252  0.5022
  435MOL0     H60030   1.028   9.407   9.127 -0.8806  1.4161 -0.1031
  436MOL0     O60031   6.563   9.548   9.314  0.1811  0.7569 -0.1828
  436MOL0     C60032   6.509   9.562   9.205  0.0413  0.3581 -0.3010
  436MOL0     O60033   6.567   9.629   9.096  0.3844 -0.0345  0.2013
  436MOL0     C60034   6.676   9.711   9.111 -0.8967  0.4546 -0.0383
  436MOL0     C60035   6.686   9.804   9.220  0.2591  0.5638 -0.5664
  436MOL0     C60036   6.811   9.870   9.241 -0.0411 -0.3873  1.3972
  436MOL0     C60037   6.916   9.858   9.149  0.2279 -0.3562  0.0820
  436MOL0     O60038   7.038   9.925   9.178  0.6160  0.4818  0.0346
  436MOL0     C60039   7.136   9.947   9.077 -0.0582 -0.3020  0.6499
  436MOL0     C60040   7.193  10.089   9.100 -0.5644 -0.8542  0.1568
  436MOL0     C60041   7.091  10.193   9.062 -0.6704  0.7773  0.2827
  436MOL0     C60042   7.144  10.327   9.110 -0.6249 -0.5626  0.6167
  436MOL0     C60043   7.255  10.382   9.022 -0.0731 -0.1505  0.1102
  436MOL0     C60044   7.306  10.517   9.070  0.1393 -0.6589 -0.3431
  436MOL0     C60045   7.404  10.580   8.970  0.1533  0.2628 -0.6090
  436MOL0     C60046   7.529  10.501   8.976 -0.0342 -0.2102  0.0041
  436MOL0     N60047   7.599  10.528   8.850 -0.1367  0.0636 -0.4029
  436MOL0     C60048   7.685  10.634   8.836 -0.2299 -0.0452  0.6257
  436MOL0     C60049   7.725  10.625   8.711  0.4310 -0.3036  0.5290
  436MOL0     C60050   7.825  10.721   8.670 -0.0904  0.1391  0.3380
  436MOL0     C60051   7.964  10.642   8.670 -0.0088 -0.4257 -0.6100
  436MOL0     C60052   8.071  10.737   8.615 -0.1485  0.5866 -0.3056
  436MOL0     C60053   8.211  10.698   8.652  0.0280 -0.1396 -0.4461
  436MOL0     O60054   8.266  10.610   8.557 -0.2127  0.7225 -0.2989
  436MOL0     C60055   8.394  10.575   8.568 -0.1136  0.4840 -1.1606
  436MOL0     C60056   8.486  10.606   8.678  1.0577 -0.3786 -0.1466
  436MOL0     C60057   8.620  10.559   8.686  0.4618 -0.2921 -0.4019
  436MOL0     C60058   8.698  10.598   8.809 -0.0420 -0.5264  1.4261
  436MOL0     C60059   8.682  10.483   8.584  0.7850 -0.9326 -0.9470
  436MOL0     C60060   8.829  10.446   8.576  0.5193 -0.5136  0.9988
  436MOL0     O60061   8.907  10.434   8.685  0.5109 -0.2930  0.3816
  436MOL0     C60062   9.030  10.380   8.673 -0.5424 -0.0356  0.1195
  436MOL0     C60063   9.129  10.456   8.612 -0.4360 -1.0107 -0.6265
  436MOL0     C60064   9.254  10.405   8.601  0.6045  0.0519  1.1536
  436MOL0     C60065   9.284  10.282   8.642  0.0056  0.4213 -0.5370
  436MOL0     O60066   9.414  10.237   8.635  0.3961  0.0487 -0.3451
  436MOL0     C60067   9.474  10.213   8.757  0.0517  0.7192 -0.4869
  436MOL0     C60068   9.591  10.112   8.729 -0.4004 -0.1218  0.0983
  436MOL0     C60069   9.546   9.969   8.712  0.5496  0.1166  0.6685
  436MOL0     C60070   9.670   9.874   8.715 -0.3432  0.3299 -0.1015
  436MOL0     C60071   9.749   9.854   8.584  0.3886 -0.5681 -0.5155
  436MOL0     C60072   9.850   9.740   8.576 -0.3451 -0.6926  1.1298
  436MOL0     C60073   9.887   9.712   8.431 -0.0968 -0.0497  0.4031
  436MOL0     C60074   9.906   9.837   8.342 -0.4806 -0.2485  1.0507
  436MOL0    Cl60075   9.943   9.775   8.185  0.3177 -0.6053 -0.0206
  436MOL0     C60076   9.190  10.209   8.706  0.2754 -0.1835 -0.4946
  436MOL0     C60077   9.057  10.254   8.725  0.0544  0.6728  0.4490
  436MOL0     O60078   8.869  10.434   8.461 -0.0301  0.2801 -0.2586
  436MOL0     C60079   8.595  10.456   8.475 -0.3313  0.2467 -0.8413
  436MOL0     C60080   8.457  10.494   8.464 -0.6115  0.3260 -0.7439
  436MOL0     N60081   7.659  10.517   8.651 -0.5840  0.2473  0.0828
  436MOL0     N60082   7.588  10.459   8.734  0.3355  0.7206 -0.9055
  436MOL0     C60083   6.900   9.765   9.040  0.4164  0.0338 -0.0721
  436MOL0     C60084   6.783   9.696   9.017 -0.0051  0.3440 -0.6259
  436MOL0     C60085   6.368   9.528   9.193 -0.2346 -0.4488 -0.2715
  436MOL0     C60086   6.321   9.492   9.063 -1.0035  0.2897 -0.2207
  436MOL0     C60087   6.193   9.459   9.029  0.3473 -0.5303  0.1172
  436MOL0     C60088   6.101   9.454   9.127 -0.5678  0.5367  0.1949
  436MOL0     O60089   5.968   9.430   9.103 -0.6474 -0.7985  0.0949
  436MOL0     C60090   5.867   9.462   9.196  0.6494 -0.2574 -1.2625
  436MOL0     C60091   5.734   9.473   9.119 -0.5318 -0.4031 -0.4592
  436MOL0     C60092   5.665   9.331   9.099 -0.1582 -0.4903 -0.0150
  436MOL0     C60093   5.531   9.343   9.025  0.8065  0.1894  0.7019
  436MOL0     C60094   5.468   9.208   9.025  0.3620 -0.5579  0.5581
  436MOL0     C60095   5.419   9.094   9.026  0.5797  1.0643  0.4349
  436MOL0     C60096   6.141   9.469   9.263  0.2753 -0.0791 -0.3497
  436MOL0     C60097   6.276   9.499   9.294 -0.3773 -0.0692 -0.2646
  436MOL0     C60098   6.316   9.511   9.437  0.7880  0.4693 -0.6896
  436MOL0     H60099   6.606   9.824   9.290  1.5938  4.8996  0.0002
  436MOL0     H60100   6.827   9.938   9.324  0.3304  1.3818 -0.0446
  436MOL0     H60101   7.092   9.946   8.977  1.1166  0.1616  0.1096
  436MOL0     H60102   7.214   9.870   9.079 -0.3948 -0.8410 -2.1891
  436MOL0     H60103   7.228  10.101   9.203 -0.7687  0.2650  0.1045
  436MOL0     H60104   7.282  10.100   9.036 -1.9757  1.3361 -1.5740
  436MOL0     H60105   7.079  10.193   8.953 -0.9265  1.6559  0.3032
  436MOL0     H60106   6.992  10.166   9.100  0.4499 -0.1544  2.7330
  436MOL0     H60107   7.071  10.408   9.113  1.4546  1.3764  1.7173
  436MOL0     H60108   7.188  10.315   9.210  0.4072 -2.0911  0.0107
  436MOL0     H60109   7.209  10.398   8.924 -0.9216 -1.8511  0.1826
  436MOL0     H60110   7.332  10.304   9.019  1.0930  1.0015 -0.7542
  436MOL0     H60111   7.221  10.586   9.073 -0.2512 -0.9883 -2.2596
  436MOL0     H60112   7.348  10.516   9.171 -1.8906 -1.9243  0.5346
  436MOL0     H60113   7.425  10.682   9.005 -0.9590  0.1887  0.3603
  436MOL0     H60114   7.354  10.585   8.873  2.1957 -0.6364 -1.7645
  436MOL0     H60115   7.595  10.535   9.057  2.8583 -0.5119 -2.0635
  436MOL0     H60116   7.526  10.392   8.970  0.0862 -0.1295 -2.6504
  436MOL0     H60117   7.702  10.713   8.909 -0.9296  1.0655 -0.3911
  436MOL0     H60118   7.824  10.805   8.739  0.6606  2.1433 -1.9408
  436MOL0     H60119   7.795  10.772   8.578  1.1981  1.6886  0.7286
  436MOL0     H60120   7.990  10.616   8.773  1.2227  1.6117 -0.3438
  436MOL0     H60121   7.964  10.553   8.606 -0.5591 -1.2915  0.5665
  436MOL0     H60122   8.068  10.729   8.506 -0.2211 -1.4084 -0.1842
  436MOL0     H60123   8.042  10.841   8.630 -1.8370 -0.0616  1.1663
  436MOL0     H60124   8.267  10.792   8.657  1.1455 -0.6792 -2.0995
  436MOL0     H60125   8.214  10.645   8.748  0.6833  1.3274  0.3870
  436MOL0     H60126   8.447  10.673   8.755 -2.2199  0.4589 -2.3384
  436MOL0     H60127   8.792  10.625   8.760 -1.0974  0.3279 -0.2214
  436MOL0     H60128   8.728  10.517   8.876  1.6843  0.9555  2.5292
  436MOL0     H60129   8.664  10.684   8.868 -1.4301 -0.3771  0.4429
  436MOL0     H60130   9.098  10.553   8.573  0.2890 -1.1745 -1.6382
  436MOL0     H60131   9.332  10.457   8.546  0.3028  0.8683  1.4850
  436MOL0     H60132   9.518  10.305   8.798  1.1910  0.6616 -1.5016
  436MOL0     H60133   9.396  10.167   8.818 -0.6680 -1.3423 -2.8135
  436MOL0     H60134   9.657  10.148   8.649 -1.3331 -0.4406 -0.8318
  436MOL0     H60135   9.654  10.119   8.818  1.5951 -0.4890 -1.1895
  436MOL0     H60136   9.499   9.962   8.613  2.9120  2.3244 -0.7291
  436MOL0     H60137   9.474   9.945   8.791 -0.5369 -0.5102 -0.4706
  436MOL0     H60138   9.636   9.775   8.746  1.8081  0.4429  3.0972
  436MOL0     H60139   9.742   9.903   8.793 -2.9138  3.2455  1.4000
  436MOL0     H60140   9.682   9.841   8.499 -1.1656  2.4378  0.1032
  436MOL0     H60141   9.804   9.948   8.570 -1.7106  1.2426  2.2347
  436MOL0     H60142   9.815   9.645   8.617  0.9954 -2.6775 -1.9146
  436MOL0     H60143   9.946   9.763   8.623  0.3072  0.6964 -0.7485
  436MOL0     H60144   9.810   9.650   8.385 -0.2268 -2.2252  3.2549
  436MOL0     H60145   9.982   9.659   8.432  0.8840  1.5697 -1.0273
  436MOL0     H60146   9.981   9.912   8.371 -0.8755  0.5411  0.1014
  436MOL0     H60147   9.813   9.894   8.336 -0.7080 -0.7762 -1.2994
  436MOL0     H60148   9.205  10.110   8.749 -1.9270 -1.8024 -3.0959
  436MOL0     H60149   8.977  10.201   8.775  1.7109 -1.2711  1.1830
  436MOL0     H60150   8.621  10.409   8.380  0.1583 -0.0961 -0.5409
  436MOL0     H60151   8.399  10.462   8.379  0.0194  2.8594 -2.2361
  436MOL0     H60152   6.981   9.756   8.969  1.7856  0.2053  1.4161
  436MOL0     H60153   6.774   9.634   8.929 -0.7825 -1.6823  0.8133
  436MOL0     H60154   6.398   9.496   8.987 -0.4024 -1.5410  0.2430
  436MOL0     H60155   6.157   9.429   8.931  0.2573  0.8128 -0.2901
  436MOL0     H60156   5.856   9.384   9.272 -2.3848  0.0078 -1.3100
  436MOL0     H60157   5.879   9.556   9.251 -1.6728 -1.1227  0.9464
  436MOL0     H60158   5.744   9.529   9.026 -1.0263  0.8253  0.2151
  436MOL0     H60159   5.666   9.540   9.172 -1.4984 -1.2425 -0.6094
  436MOL0     H60160   5.729   9.271   9.033 -1.1531  3.8869 -5.8523
  436MOL0     H60161   5.664   9.276   9.194  4.3129  0.0354  0.5387
  436MOL0     H60162   5.550   9.386   8.927 -2.2435  1.4416  0.5503
  436MOL0     H60163   5.462   9.413   9.073  0.0889 -0.3386  0.4498
  436MOL0     H60164   5.358   9.006   9.023  2.6050 -0.4375  1.1361
  436MOL0     H60165   6.072   9.450   9.344 -1.2098 -1.1626 -1.7995
  436MOL0     H60166   6.324   9.618   9.462 -2.5995  0.5585  0.6420
  436MOL0     H60167   6.243   9.468   9.506 -0.0066 -1.4761 -2.6533
  436MOL0     H60168   6.406   9.455   9.460 -0.2347 -1.3486 -0.9194
  437MOL0     O60169   5.718   0.381   1.063 -0.5520  0.7790  0.2579
  437MOL0     C60170   5.678   0.283   1.000  0.6626 -1.0262  0.6347
  437MOL0     O60171   5.723   0.238   0.880 -0.4940  0.4687 -0.3717
  437MOL0     C60172   5.825   0.306   0.822  0.3346  0.2597  0.9599
  437MOL0     C60173   5.807   0.361   0.693  0.2044 -0.4867 -0.5726
  437MOL0     C60174   5.909   0.441   0.630 -0.2519 -0.3478  0.0168
  437MOL0     C60175   6.032   0.467   0.696 -0.1269 -1.1415  0.3225
  437MOL0     O60176   6.131   0.546   0.643  0.0250 -1.4552 -1.1250
  437MOL0     C60177   6.156   0.536   0.498 -0.9373 -0.3274  0.8214
  437MOL0     C60178   6.195   0.397   0.441 -0.4986  0.2226 -0.0428
  437MOL0     C60179   6.271   0.427   0.313 -0.4708  0.6881 -0.1741
  437MOL0     C60180   6.316   0.299   0.236  0.0073  0.5429 -0.1519
  437MOL0     C60181   6.411   0.335   0.116  0.6138  0.0578 -0.1182
  437MOL0     C60182   6.557   0.357   0.164  0.2263  0.2445 -0.6483
  437MOL0     C60183   6.653   0.395   0.058 -0.8468 -0.6048  0.4016
  437MOL0     C60184   6.797   0.406   0.110  0.4810  0.1568 -1.0354
  437MOL0     N60185   6.846   0.269   0.146  0.1844  0.3091 -1.0466
  437MOL0     C60186   6.970   0.257   0.201 -0.7041  1.0611 -1.0025
  437MOL0     C60187   7.001   0.119   0.197  0.7088 -0.1449  0.9998
  437MOL0     C60188   7.121   0.050   0.247 -0.1776 -0.6990  0.4328
  437MOL0     C60189   7.128  -0.092   0.209 -0.7163  1.0625  0.4388
  437MOL0     C60190   7.190  -0.097   0.074 -0.3058 -0.0989 -0.0042
  437MOL0     C60191   7.203  -0.242   0.015  0.0863  0.4677 -0.1456
  437MOL0     O60192   7.293  -0.335   0.092  0.1211 -0.0191  0.3848
  437MOL0     C60193   7.431  -0.322   0.061 -0.2221  0.2906  0.2830
  437MOL0     C60194   7.511  -0.428   0.104  0.1258  0.3084  1.0639
  437MOL0     C60195   7.646  -0.435   0.072 -0.2094  0.7696  0.5376
  437MOL0     C60196   7.720  -0.558   0.119  0.8006  0.4881  0.1300
  437MOL0     C60197   7.702  -0.339  -0.010 -0.6313  0.5156 -0.6559
  437MOL0     C60198   7.852  -0.325  -0.042  0.0057 -0.2790 -0.3542
  437MOL0     O60199   7.888  -0.217  -0.123  0.3027  0.2161 -0.0395
  437MOL0     C60200   8.019  -0.193  -0.153 -0.1911 -0.3901 -0.3996
  437MOL0     C60201   8.127  -0.220  -0.066 -0.2015 -0.8285 -0.0242
  437MOL0     C60202   8.262  -0.194  -0.108 -0.5587  0.1972  0.2142
  437MOL0     C60203   8.292  -0.149  -0.239 -0.4691  0.7809  0.6507
  437MOL0     O60204   8.422  -0.140  -0.290  0.8605  0.3108 -1.0196
  437MOL0     C60205   8.526  -0.154  -0.206 -0.6795  0.6819 -0.1923
  437MOL0     C60206   8.664  -0.138  -0.271  0.2357  0.5810 -0.4787
  437MOL0     C60207   8.768  -0.164  -0.166  0.0374 -0.2050 -0.5696
  437MOL0     C60208   8.901  -0.098  -0.206  0.1081 -0.5758 -0.5741
  437MOL0     C60209   9.004  -0.134  -0.100  0.1122 -0.1409 -0.0616
  437MOL0     C60210   9.134  -0.064  -0.146 -0.4543  0.0398  0.2862
  437MOL0     C60211   9.251  -0.132  -0.071 -0.6196 -0.7926  0.4126
  437MOL0     C60212   9.396  -0.077  -0.104  1.2408  0.4157 -0.0591
  437MOL0    Cl60213   9.518  -0.173  -0.005  0.2071  0.0900 -0.4326
  437MOL0     C60214   8.187  -0.124  -0.324  0.0879 -0.5502 -0.1199
  437MOL0     C60215   8.055  -0.135  -0.281 -0.1731  0.4013 -0.1387
  437MOL0     O60216   7.921  -0.413  -0.003  0.0426  0.3495 -0.5571
  437MOL0     C60217   7.618  -0.234  -0.068 -0.2617  0.2407  0.8132
  437MOL0     C60218   7.488  -0.228  -0.026 -0.1537  0.0242 -0.6956
  437MOL0     N60219   6.895   0.063   0.131 -0.1811  0.4099  0.2074
  437MOL0     N60220   6.798   0.147   0.110 -0.2951  0.5841 -0.2393
  437MOL0     C60221   6.050   0.410   0.825  0.0988  0.3473 -0.4965
  437MOL0     C60222   5.949   0.334   0.882 -0.1912  0.8586 -0.0275
  437MOL0     C60223   5.566   0.203   1.054 -0.0919  0.3789 -0.0342
  437MOL0     C60224   5.568   0.064   1.016  0.5013 -0.3487 -0.0904
  437MOL0     C60225   5.481  -0.024   1.075  1.0226 -0.4789 -0.0251
  437MOL0     C60226   5.389   0.018   1.177 -0.2593 -0.5978  0.1368
  437MOL0     O60227   5.298  -0.064   1.250  0.4942 -0.9198  0.4832
  437MOL0     C60228   5.320  -0.202   1.256  0.2361 -0.4140 -0.2699
  437MOL0     C60229   5.206  -0.269   1.345  0.0761 -0.0988 -0.3443
  437MOL0     C60230   5.192  -0.422   1.309 -1.2075 -0.6205  0.1285
  437MOL0     C60231   5.114  -0.499   1.420  0.0822  0.2251  0.3164
  437MOL0     C60232   4.999  -0.579   1.368 -0.2386 -0.6807  0.0659
  437MOL0     C60233   4.901  -0.637   1.319  0.3425  0.9568 -0.3563
  437MOL0     C60234   5.404   0.151   1.213  0.8976 -0.1183  0.0701
  437MOL0     C60235   5.484   0.246   1.156 -0.1495  0.0208 -0.2649
  437MOL0     C60236   5.465   0.395   1.188  0.7936  0.7618  0.1236
  437MOL0     H60237   5.708   0.354   0.649  0.1981  0.0473 -0.6420
  437MOL0     H60238   5.883   0.493   0.539 -2.4524 -2.5496 -0.7101
  437MOL0     H60239   6.240   0.602   0.477 -0.6822 -0.8912  0.0239
  437MOL0     H60240   6.069   0.563   0.438  2.1942  1.2456 -3.5486
  437MOL0     H60241   6.261   0.336   0.504 -2.8871 -5.7008 -2.5539
  437MOL0     H60242   6.105   0.337   0.428 -0.7106  0.8955 -1.9189
  437MOL0     H60243   6.192   0.473   0.252  0.9823  1.6725 -1.3821
  437MOL0     H60244   6.346   0.504   0.332  0.1479 -0.0467  0.4133
  437MOL0     H60245   6.367   0.232   0.306  1.4090  1.1336 -0.5606
  437MOL0     H60246   6.225   0.248   0.202  0.8282  0.2544 -2.0725
  437MOL0     H60247   6.374   0.427   0.071  1.3665  1.0169  1.1447
  437MOL0     H60248   6.409   0.260   0.037  0.0423  0.0758 -0.1220
  437MOL0     H60249   6.568   0.436   0.240  1.7906  3.6595 -4.0939
  437MOL0     H60250   6.575   0.258   0.207 -1.7972 -0.2508 -0.8753
  437MOL0     H60251   6.616   0.492   0.022 -0.1894 -1.2202 -2.1737
  437MOL0     H60252   6.637   0.318  -0.019 -0.3279 -0.3859  0.0728
  437MOL0     H60253   6.851   0.454   0.028 -2.1134  4.5647 -0.5220
  437MOL0     H60254   6.809   0.474   0.195  1.3682 -0.2793 -0.8076
  437MOL0     H60255   7.050   0.322   0.235  0.6376 -0.8939 -0.2203
  437MOL0     H60256   7.120   0.065   0.356 -0.2412  0.4311  0.2862
  437MOL0     H60257   7.199   0.111   0.202 -1.5230  1.7209  1.1922
  437MOL0     H60258   7.194  -0.144   0.280  1.5334  1.4678 -1.2139
  437MOL0     H60259   7.031  -0.141   0.203 -1.8631  3.3982 -1.8416
  437MOL0     H60260   7.119  -0.052   0.004  1.0584  1.3734 -0.4950
  437MOL0     H60261   7.288  -0.048   0.069 -0.2445 -0.2309 -0.1430
  437MOL0     H60262   7.104  -0.287   0.023 -0.1961  1.3120  1.7337
  437MOL0     H60263   7.221  -0.239  -0.093  0.4723 -1.2533 -0.1544
  437MOL0     H60264   7.462  -0.514   0.147  1.4381 -0.4770  1.0357
  437MOL0     H60265   7.639  -0.623   0.152  1.4440  0.6187  2.1049
  437MOL0     H60266   7.785  -0.540   0.205  2.1119 -1.6385 -0.3536
  437MOL0     H60267   7.779  -0.601   0.038 -1.0826 -2.1727  0.0520
  437MOL0     H60268   8.106  -0.261   0.032 -0.3579 -0.7083 -0.0072
  437MOL0     H60269   8.344  -0.200  -0.038 -0.6382  3.1633  0.6775
  437MOL0     H60270   8.515  -0.076  -0.130  0.7621  1.4377 -0.7028
  437MOL0     H60271   8.517  -0.253  -0.161  1.8973  0.5595  0.2440
  437MOL0     H60272   8.682  -0.216  -0.346  1.9960 -1.1124  1.5417
  437MOL0     H60273   8.678  -0.037  -0.310 -0.9659  0.7254 -0.5626
  437MOL0     H60274   8.783  -0.270  -0.140 -1.5318 -0.7685 -1.7939
  437MOL0     H60275   8.732  -0.115  -0.075 -0.6981  0.0879 -1.0051
  437MOL0     H60276   8.892   0.011  -0.212  0.4808 -0.6255 -2.9432
  437MOL0     H60277   8.935  -0.128  -0.306  0.4395  4.8102 -2.4397
  437MOL0     H60278   8.971  -0.096  -0.004  1.9301 -1.2666  1.0737
  437MOL0     H60279   9.027  -0.241  -0.095  0.5371 -0.0956 -0.7858
  437MOL0     H60280   9.119   0.043  -0.129  1.2351  0.1094  1.6791
  437MOL0     H60281   9.147  -0.061  -0.254 -0.1493  2.9391  0.3413
  437MOL0     H60282   9.250  -0.239  -0.092 -0.2083 -0.4732 -1.5067
  437MOL0     H60283   9.235  -0.114   0.035 -0.1772 -2.4748  0.7790
  437MOL0     H60284   9.395   0.024  -0.062 -1.8294 -0.8639  3.4593
  437MOL0     H60285   9.424  -0.068  -0.209  0.5887  0.0118 -0.2760
  437MOL0     H60286   8.217  -0.084  -0.420  2.0688  0.2196  0.7532
  437MOL0     H60287   7.980  -0.102  -0.352 -0.0005 -0.5342 -0.7838
  437MOL0     H60288   7.651  -0.167  -0.147  3.3563 -1.9026  0.2511
  437MOL0     H60289   7.427  -0.149  -0.069 -2.4035 -0.6406  1.0790
  437MOL0     H60290   6.148   0.426   0.870  1.2652 -1.0164 -2.3918
  437MOL0     H60291   5.971   0.290   0.978 -2.4086  0.3300  0.3002
  437MOL0     H60292   5.637   0.023   0.943  1.1968 -0.5497  0.6676
  437MOL0     H60293   5.465  -0.128   1.050 -2.1103  0.3335 -1.9405
  437MOL0     H60294   5.322  -0.252   1.159  1.6762  0.9065 -0.9642
  437MOL0     H60295   5.421  -0.224   1.292  0.6409  1.3775 -0.2168
  437MOL0     H60296   5.111  -0.216   1.332  0.4184  0.7378  0.4516
  437MOL0     H60297   5.233  -0.251   1.449 -2.7850  3.5378 -0.0098
  437MOL0     H60298   5.146  -0.439   1.211  1.7190 -1.0008 -1.2695
  437MOL0     H60299   5.296  -0.454   1.314 -0.7290  1.0048  1.9533
  437MOL0     H60300   5.068  -0.423   1.484  1.4722  1.5977 -0.2361
  437MOL0     H60301   5.184  -0.561   1.477 -0.3797 -0.4570  0.1470
  437MOL0     H60302   4.813  -0.692   1.295  0.5602 -0.5434  1.9571
  437MOL0     H60303   5.331   0.182   1.287  1.5290 -2.8548  2.0342
  437MOL0     H60304   5.450   0.440   1.090  0.9159 -0.4605 -0.4757
  437MOL0     H60305   5.374   0.425   1.240  0.2033  1.1698 -1.1064
  437MOL0     H60306   5.558   0.438   1.227 -0.8491  2.9167  1.8496
  438MOL0     O60307   3.342   1.942   1.816  0.2441 -0.5442 -0.1325
  438MOL0     C60308   3.358   1.958   1.940 -0.3579  0.0350 -0.7158
  438MOL0     O60309   3.472   1.916   2.006 -0.2901  0.1137 -0.1659
  438MOL0     C60310   3.587   1.883   1.935  0.3844  0.3588  1.0938
  438MOL0     C60311   3.646   1.959   1.834  0.9371 -0.1627 -0.2048
  438MOL0     C60312   3.772   1.923   1.773  0.5244 -0.5413  0.2759
  438MOL0     C60313   3.833   1.803   1.805  0.6404  0.3045  0.3299
  438MOL0     O60314   3.961   1.766   1.755  0.2832 -0.3745  0.4932
  438MOL0     C60315   3.989   1.796   1.608 -0.4860 -0.6124 -0.1761
  438MOL0     C60316   4.128   1.749   1.570  0.3561 -0.5583 -0.4467
  438MOL0     C60317   4.175   1.752   1.427  0.5276 -0.1758 -0.3282
  438MOL0     C60318   4.328   1.726   1.424 -0.1690  0.3443  0.3219
  438MOL0     C60319   4.408   1.850   1.454 -0.2497  1.0481  0.7442
  438MOL0     C60320   4.558   1.830   1.430  0.5056  0.5497  0.5208
  438MOL0     C60321   4.633   1.953   1.463  0.6800  0.2715  0.7153
  438MOL0     C60322   4.779   1.953   1.408  0.3525  0.0860  0.6564
  438MOL0     N60323   4.881   1.863   1.465  0.5510 -0.3374 -0.5603
  438MOL0     C60324   5.011   1.899   1.492  0.5105 -0.6451 -0.8265
  438MOL0     C60325   5.071   1.783   1.536 -0.1179 -0.0607  0.3768
  438MOL0     C60326   5.213   1.791   1.588  0.5555  0.4049 -0.5081
  438MOL0     C60327   5.272   1.653   1.622 -0.1133 -0.0270  0.0185
  438MOL0     C60328   5.388   1.683   1.706 -1.1123 -0.3270  0.3133
  438MOL0     C60329   5.461   1.561   1.758  0.7521  0.5083  0.1550
  438MOL0     O60330   5.586   1.596   1.820  0.6635 -0.4635  0.1891
  438MOL0     C60331   5.624   1.514   1.928  1.3180 -0.3256  0.0553
  438MOL0     C60332   5.546   1.416   2.000 -0.4674 -0.5088  0.3318
  438MOL0     C60333   5.614   1.331   2.086  0.1238 -0.0735  0.6236
  438MOL0     C60334   5.541   1.236   2.178  0.9364 -0.4722  0.2360
  438MOL0     C60335   5.757   1.335   2.096  0.1561 -0.1329  0.0254
  438MOL0     C60336   5.834   1.242   2.187 -0.2506  0.4838 -0.3135
  438MOL0     O60337   5.903   1.300   2.294  0.4261  0.1939 -0.0327
  438MOL0     C60338   5.980   1.215   2.370 -0.4373 -0.2742 -0.3206
  438MOL0     C60339   5.932   1.183   2.493 -0.5600  0.7909  0.0091
  438MOL0     C60340   6.007   1.114   2.580 -0.3773  0.0996  0.2714
  438MOL0     C60341   6.138   1.083   2.559 -0.2981 -0.1915  0.3054
  438MOL0     O60342   6.210   1.024   2.665  0.3530  0.9378 -0.1806
  438MOL0     C60343   6.351   1.040   2.674 -0.0082 -0.1747  0.2117
  438MOL0     C60344   6.393   0.953   2.790  0.0971 -0.3157 -0.1576
  438MOL0     C60345   6.539   0.933   2.822 -0.8072  0.0853 -0.2750
  438MOL0     C60346   6.574   0.833   2.942  0.4692 -0.3831  0.0203
  438MOL0     C60347   6.719   0.843   2.976 -1.2693  0.3378 -0.5521
  438MOL0     C60348   6.751   0.748   3.090 -0.3263 -0.2499  0.0952
  438MOL0     C60349   6.910   0.759   3.114  0.0010  0.4083 -0.3653
  438MOL0     C60350   6.953   0.662   3.227  0.5975  0.7440  0.4374
  438MOL0    Cl60351   7.131   0.692   3.250 -0.1929 -0.3199  0.4773
  438MOL0     C60352   6.195   1.121   2.437 -0.2517  0.1939 -0.0371
  438MOL0     C60353   6.108   1.179   2.339 -0.4159  0.8077  0.0456
  438MOL0     O60354   5.815   1.119   2.169 -0.1776 -0.1627 -0.4175
  438MOL0     C60355   5.829   1.438   2.023 -0.2847 -0.1378 -0.1021
  438MOL0     C60356   5.766   1.523   1.937  0.1547  0.8254  0.3960
  438MOL0     N60357   4.979   1.683   1.538  0.0434  1.1777 -0.4021
  438MOL0     N60358   4.870   1.727   1.484 -0.2017 -0.0043 -0.2000
  438MOL0     C60359   3.775   1.726   1.902  0.4718 -0.4320  0.9490
  438MOL0     C60360   3.651   1.758   1.962  0.0843 -1.1588 -0.8054
  438MOL0     C60361   3.267   2.036   2.035 -0.3959 -0.6478  0.6003
  438MOL0     C60362   3.303   2.051   2.169 -0.8432 -0.4132 -0.5081
  438MOL0     C60363   3.241   2.151   2.250 -0.0257 -0.3718  0.2305
  438MOL0     C60364   3.138   2.228   2.204 -0.3322 -0.2688 -0.5766
  438MOL0     O60365   3.065   2.322   2.262  0.3519 -0.6089 -0.6152
  438MOL0     C60366   3.052   2.315   2.402  0.8124 -0.5864  0.5194
  438MOL0     C60367   2.919   2.380   2.449  0.3530 -0.0367 -0.1919
  438MOL0     C60368   2.787   2.314   2.397 -0.3842  0.0770  0.2942
  438MOL0     C60369   2.743   2.186   2.463  0.6704  0.3773  0.2447
  438MOL0     C60370   2.715   2.198   2.611  0.1665 -0.3668  0.2633
  438MOL0     C60371   2.680   2.216   2.729 -0.1557 -0.6416  0.6847
  438MOL0     C60372   3.089   2.196   2.078  0.8965 -0.0521  0.1399
  438MOL0     C60373   3.153   2.109   1.994 -0.9018  0.0606 -0.5361
  438MOL0     C60374   3.085   2.094   1.859  0.5036  0.2144  0.6014
  438MOL0     H60375   3.587   2.043   1.798 -0.7568 -1.7623 -1.3331
  438MOL0     H60376   3.810   1.996   1.702 -0.7152  0.8724  0.9999
  438MOL0     H60377   3.973   1.901   1.580 -1.8239 -0.5336  0.8065
  438MOL0     H60378   3.911   1.748   1.548  0.4708 -0.8451 -1.2808
  438MOL0     H60379   4.193   1.816   1.628  0.2045 -0.2271 -0.6525
  438MOL0     H60380   4.145   1.650   1.613  1.2467  0.2534  1.1878
  438MOL0     H60381   4.118   1.686   1.361 -0.4560 -1.2265  1.4913
  438MOL0     H60382   4.156   1.852   1.387  0.0402 -0.9190 -2.0284
  438MOL0     H60383   4.352   1.642   1.489 -1.0155 -1.0776 -1.1286
  438MOL0     H60384   4.349   1.701   1.320  1.3866 -0.9460  0.8967
  438MOL0     H60385   4.401   1.864   1.562  1.1867  1.7047  0.7707
  438MOL0     H60386   4.363   1.928   1.392  4.0348  2.4549 -0.9899
  438MOL0     H60387   4.596   1.756   1.500 -3.0265 -1.0959  0.9444
  438MOL0     H60388   4.577   1.803   1.325  2.6532 -2.0324  1.4625
  438MOL0     H60389   4.638   1.967   1.571 -0.4062 -0.1281  0.8276
  438MOL0     H60390   4.579   2.043   1.432 -0.5099 -0.8747 -0.6681
  438MOL0     H60391   4.753   1.927   1.304 -1.0958  1.5944  0.6086
  438MOL0     H60392   4.813   2.056   1.409 -1.0664  0.5774  1.7126
  438MOL0     H60393   5.055   1.998   1.487 -1.9878  0.5079 -1.6488
  438MOL0     H60394   5.217   1.856   1.676 -1.6524  1.1230 -0.8861
  438MOL0     H60395   5.274   1.841   1.513  0.5941  0.1181 -0.6704
  438MOL0     H60396   5.203   1.593   1.682  1.0801 -1.4668 -0.0109
  438MOL0     H60397   5.313   1.590   1.544  3.1240  1.1972  0.5784
  438MOL0     H60398   5.459   1.741   1.647 -1.6431 -1.6688 -1.7408
  438MOL0     H60399   5.350   1.741   1.791 -0.2926  0.6740  0.0156
  438MOL0     H60400   5.397   1.514   1.833  4.6732  1.1924  4.3756
  438MOL0     H60401   5.480   1.504   1.667  0.9874 -0.6867  0.9413
  438MOL0     H60402   5.438   1.414   2.000 -0.5989  2.3150  0.2814
  438MOL0     H60403   5.434   1.259   2.175  0.5234 -1.6849  2.7471
  438MOL0     H60404   5.580   1.230   2.280 -1.1320 -0.5352  1.0734
  438MOL0     H60405   5.552   1.134   2.142  0.2375  0.1453 -1.8923
  438MOL0     H60406   5.829   1.188   2.528 -0.6423 -1.1002  0.1489
  438MOL0     H60407   5.954   1.082   2.669  0.2733 -1.2466  0.2048
  438MOL0     H60408   6.408   1.003   2.588 -0.2052 -0.2915  0.1313
  438MOL0     H60409   6.378   1.146   2.685  1.3977 -0.5804  0.8813
  438MOL0     H60410   6.346   0.994   2.880  1.5751 -0.8424  0.8733
  438MOL0     H60411   6.356   0.851   2.774  1.0103 -0.5093 -1.1529
  438MOL0     H60412   6.592   1.024   2.851  0.5164 -0.7839  0.1394
  438MOL0     H60413   6.594   0.900   2.733  0.6786  2.6206 -0.3926
  438MOL0     H60414   6.543   0.733   2.910 -0.0211  0.5640 -2.6522
  438MOL0     H60415   6.521   0.861   3.034 -0.1660  0.5998 -0.6285
  438MOL0     H60416   6.788   0.824   2.894 -0.8231  0.7087 -0.2714
  438MOL0     H60417   6.747   0.946   3.004  0.5550  0.6932 -3.3159
  438MOL0     H60418   6.718   0.645   3.075  2.2899 -1.2710  0.6790
  438MOL0     H60419   6.692   0.795   3.170  1.7606 -0.4409  1.8345
  438MOL0     H60420   6.950   0.859   3.131  5.0972 -1.6759  1.8769
  438MOL0     H60421   6.963   0.729   3.023 -1.6412 -1.9289 -0.6646
  438MOL0     H60422   6.941   0.555   3.208  0.9563  0.6041  0.9558
  438MOL0     H60423   6.892   0.686   3.315 -1.6560 -1.3425 -0.4749
  438MOL0     H60424   6.298   1.100   2.414 -0.0266  1.2425 -0.0484
  438MOL0     H60425   6.141   1.198   2.238 -0.2549 -2.8903 -0.7218
  438MOL0     H60426   5.935   1.445   2.042 -0.3715  2.2312 -0.2133
  438MOL0     H60427   5.808   1.607   1.883  2.4357  0.1072  0.9531
  438MOL0     H60428   3.806   1.623   1.919  2.0005  0.2935  2.8124
  438MOL0     H60429   3.599   1.709   2.043 -0.3085  1.3526  0.5691
  438MOL0     H60430   3.392   1.999   2.204 -0.2400  0.4086 -0.7801
  438MOL0     H60431   3.295   2.167   2.343  2.0992 -2.6803 -0.4923
  438MOL0     H60432   3.046   2.209   2.425 -3.3330 -0.4350  0.9094
  438MOL0     H60433   3.138   2.349   2.461  1.9329 -4.3939  1.3074
  438MOL0     H60434   2.927   2.488   2.431 -0.6752  0.3214  1.2544
  438MOL0     H60435   2.916   2.363   2.557 -2.5046  0.5874 -0.0981
  438MOL0     H60436   2.713   2.394   2.411 -0.2761 -0.0596  1.8192
  438MOL0     H60437   2.800   2.309   2.288 -1.2414  0.0641  0.1848
  438MOL0     H60438   2.818   2.108   2.453  4.7388  3.8432  1.1023
  438MOL0     H60439   2.647   2.165   2.415 -0.3925  0.3115  2.2896
  438MOL0     H60440   2.643   2.225   2.829 -0.4670  2.0880  0.3979
  438MOL0     H60441   2.999   2.251   2.052  2.4881  2.7130  0.1680
  438MOL0     H60442   2.996   2.157   1.844  1.5478  1.4372 -0.7157
  438MOL0     H60443   3.161   2.128   1.789  0.1387 -1.7803 -0.8614
  438MOL0     H60444   3.068   1.991   1.828  1.7567  0.3816 -0.7295
  439MOL0     O60445   9.004   8.905   9.678 -0.1561 -0.3664  0.5665
  439MOL0     C60446   9.066   8.798   9.664  0.1190 -0.7195  0.1883
  439MOL0     O60447   9.149   8.740   9.756 -0.1163 -0.5044 -0.6303
  439MOL0     C60448   9.132   8.787   9.882  0.1320  0.3883 -0.1510
  439MOL0     C60449   9.041   8.727   9.964 -0.6070 -1.2327 -0.6319
  439MOL0     C60450   9.013   8.789  10.085  0.0067 -0.6631  0.7270
  439MOL0     C60451   9.085   8.900  10.130 -0.1247  0.3168 -0.4953
  439MOL0     O60452   9.046   8.948  10.257 -0.0338  0.5433  0.4770
  439MOL0     C60453   9.156   8.957  10.352  1.1164 -0.0745  0.4969
  439MOL0     C60454   9.111   9.030  10.478  0.5475 -0.5621 -0.2581
  439MOL0     C60455   9.102   9.172  10.452  1.0216 -0.7328 -0.1094
  439MOL0     C60456   9.226   9.255  10.486  0.0597 -0.1350 -0.8805
  439MOL0     C60457   9.184   9.377  10.574  0.2622  0.4507 -0.0591
  439MOL0     C60458   9.300   9.479  10.599 -0.0125  0.0302 -0.5975
  439MOL0     C60459   9.426   9.412  10.653 -0.2238 -1.1747 -0.9039
  439MOL0     C60460   9.526   9.513  10.724  0.1278  0.1794  0.4753
  439MOL0     N60461   9.641   9.445  10.788 -0.2914  1.0108 -0.6932
  439MOL0     C60462   9.689   9.498  10.919 -0.5623  0.1084 -0.2536
  439MOL0     C60463   9.808   9.437  10.927  0.8278 -0.4593 -0.6133
  439MOL0     C60464   9.911   9.475  11.036  0.5928 -0.6451 -0.4059
  439MOL0     C60465   9.939   9.625  11.049  0.8663  0.1822  0.2088
  439MOL0     C60466  10.005   9.685  10.924  1.0936  0.2089 -0.1574
  439MOL0     C60467  10.027   9.843  10.930  0.0691 -0.6788  0.4522
  439MOL0     O60468  10.134   9.893  11.010  0.9287 -0.8451 -0.3744
  439MOL0     C60469  10.181  10.023  10.988  0.5023 -0.1040  0.5385
  439MOL0     C60470  10.313  10.038  11.018  0.5443 -1.1550 -0.3381
  439MOL0     C60471  10.372  10.161  11.011 -0.2182 -0.4772  0.1168
  439MOL0     C60472  10.513  10.168  11.065  0.1271 -0.5123 -0.4518
  439MOL0     C60473  10.311  10.277  10.946  0.8928  0.6606 -0.3661
  439MOL0     C60474  10.381  10.393  10.897 -1.4229  0.7803 -0.0913
  439MOL0     O60475  10.510  10.422  10.954  0.0544  0.3179 -0.2723
  439MOL0     C60476  10.569  10.541  10.912 -0.6309  0.4844 -0.3612
  439MOL0     C60477  10.650  10.549  10.796 -0.1916 -0.7620 -0.6016
  439MOL0     C60478  10.719  10.668  10.759 -0.1220  0.0407 -0.3798
  439MOL0     C60479  10.693  10.780  10.838 -0.0016  0.0173  0.4145
  439MOL0     O60480  10.759  10.899  10.802 -0.0471  0.0602 -0.1745
  439MOL0     C60481  10.725  11.025  10.866 -0.3848 -0.9737  0.6705
  439MOL0     C60482  10.800  11.127  10.780 -0.3587 -0.3132 -1.1494
  439MOL0     C60483  10.765  11.272  10.814 -0.4875  0.6185 -0.2218
  439MOL0     C60484  10.765  11.295  10.964 -0.1372  0.2017  0.4296
  439MOL0     C60485  10.769  11.448  10.995  1.1934  0.1699  0.0025
  439MOL0     C60486  10.633  11.519  10.960 -0.2499  0.1919 -0.3498
  439MOL0     C60487  10.662  11.672  10.927  0.1498  0.2045 -0.2724
  439MOL0     C60488  10.530  11.752  10.891  0.1454 -0.5288  0.0782
  439MOL0    Cl60489  10.409  11.721  11.020 -0.0398 -0.4525  0.5034
  439MOL0     C60490  10.606  10.780  10.949  0.7230 -0.3024 -0.9321
  439MOL0     C60491  10.551  10.654  10.987 -0.1826  0.6261  0.2960
  439MOL0     O60492  10.332  10.462  10.812 -0.6644 -0.6461  0.8154
  439MOL0     C60493  10.170  10.259  10.915 -0.4190  0.1927 -0.3433
  439MOL0     C60494  10.107  10.131  10.938  0.0641 -0.3351 -0.0654
  439MOL0     N60495   9.835   9.355  10.822  0.6191  0.7737  0.3184
  439MOL0     N60496   9.739   9.373  10.733  0.9540 -0.0326 -0.3584
  439MOL0     C60497   9.189   8.956  10.052 -0.4216  0.1016 -0.6267
  439MOL0     C60498   9.209   8.896   9.927  0.1633  0.1311  0.3003
  439MOL0     C60499   9.051   8.727   9.532 -0.2629  0.1525  1.0560
  439MOL0     C60500   9.170   8.670   9.483  0.5047  0.1443  0.0247
  439MOL0     C60501   9.162   8.597   9.363  0.1967  0.0775  1.0386
  439MOL0     C60502   9.040   8.580   9.297 -0.7518 -0.5585 -0.0358
  439MOL0     O60503   9.060   8.508   9.185 -0.0761  0.4999  0.0278
  439MOL0     C60504   8.964   8.514   9.077 -0.2560  0.2177 -0.5944
  439MOL0     C60505   8.872   8.391   9.080 -0.1869  0.4916  0.2154
  439MOL0     C60506   8.720   8.420   9.053 -0.6216 -0.2901  0.3061
  439MOL0     C60507   8.632   8.299   9.068  0.9636  0.0454  0.4131
  439MOL0     C60508   8.680   8.194   8.972 -0.2386  0.6048  0.2164
  439MOL0     C60509   8.734   8.103   8.915  0.1387  0.6695  0.2520
  439MOL0     C60510   8.925   8.640   9.345  0.8153 -0.2367  0.8564
  439MOL0     C60511   8.927   8.709   9.466  1.3727 -1.5789 -0.2213
  439MOL0     C60512   8.797   8.771   9.516  0.2958  0.1577 -0.8209
  439MOL0     H60513   8.980   8.645   9.927 -0.5738 -1.0402 -1.1198
  439MOL0     H60514   8.929   8.746  10.140 -2.3823  0.5940 -1.6866
  439MOL0     H60515   9.241   9.008  10.304 -1.0271  1.6252 -1.7402
  439MOL0     H60516   9.191   8.862  10.394  2.3638 -0.0026 -0.3119
  439MOL0     H60517   9.012   8.995  10.507 -0.6510  2.6343 -0.0420
  439MOL0     H60518   9.176   9.009  10.563 -2.4710  1.7977  2.8944
  439MOL0     H60519   9.069   9.185  10.348  1.4320  0.0131 -0.1534
  439MOL0     H60520   9.020   9.207  10.515  0.3082  0.3394 -1.5599
  439MOL0     H60521   9.309   9.199  10.531 -0.0737  0.3936  0.0460
  439MOL0     H60522   9.252   9.294  10.386 -0.0106 -0.3557 -0.9855
  439MOL0     H60523   9.150   9.326  10.665 -0.1058  0.5812 -0.1208
  439MOL0     H60524   9.102   9.428  10.523  0.3131 -2.3338 -3.3019
  439MOL0     H60525   9.316   9.518  10.498 -1.2504 -1.4001 -1.3763
  439MOL0     H60526   9.257   9.551  10.669 -0.8507 -0.7998 -0.2386
  439MOL0     H60527   9.477   9.357  10.573 -1.5163 -1.7086 -1.3808
  439MOL0     H60528   9.400   9.337  10.729  0.0011 -2.8630 -2.4329
  439MOL0     H60529   9.558   9.580  10.643 -0.9746 -1.2204 -1.2144
  439MOL0     H60530   9.485   9.575  10.804  1.1375 -0.3774  1.4482
  439MOL0     H60531   9.646   9.567  10.990 -0.7355 -2.3175  2.1690
  439MOL0     H60532  10.002   9.417  11.016  0.8848 -0.5489  0.5717
  439MOL0     H60533   9.872   9.441  11.132 -0.4178 -2.0798 -1.2912
  439MOL0     H60534   9.853   9.684  11.081  0.3753 -0.2434 -0.3047
  439MOL0     H60535  10.019   9.643  11.121  2.7251  0.6481 -1.8515
  439MOL0     H60536  10.103   9.640  10.906  1.6146  0.4828  1.7427
  439MOL0     H60537   9.933   9.664  10.845  0.2676 -1.4283  0.9758
  439MOL0     H60538  10.041   9.882  10.828  1.1369  0.7808  1.1300
  439MOL0     H60539   9.928   9.884  10.952  0.4168  0.2782  0.2700
  439MOL0     H60540  10.384   9.957  11.036 -1.7088 -2.5183  3.7150
  439MOL0     H60541  10.525  10.210  11.166 -0.1232  0.9907 -1.0229
  439MOL0     H60542  10.587  10.210  10.997  0.9956 -2.2480 -0.6375
  439MOL0     H60543  10.556  10.070  11.089  1.8518  0.7458  2.0365
  439MOL0     H60544  10.663  10.463  10.731 -0.8860 -1.1609 -0.2204
  439MOL0     H60545  10.784  10.662  10.672 -1.3996 -0.4683 -1.3209
  439MOL0     H60546  10.619  11.053  10.862  0.5154  2.9050  0.4781
  439MOL0     H60547  10.753  11.030  10.972  1.1030 -0.6806  0.2827
  439MOL0     H60548  10.908  11.120  10.798 -0.9143  1.4164  5.3902
  439MOL0     H60549  10.771  11.108  10.676 -0.2277  1.2178 -1.4855
  439MOL0     H60550  10.664  11.283  10.773  0.3177 -1.2333 -2.9444
  439MOL0     H60551  10.827  11.345  10.761 -0.4085  1.8506  1.4601
  439MOL0     H60552  10.853  11.245  11.005  0.0505  0.0548 -0.1488
  439MOL0     H60553  10.681  11.248  11.015 -0.7064 -0.0527 -0.7187
  439MOL0     H60554  10.784  11.456  11.103  3.1775  0.3255 -0.2500
  439MOL0     H60555  10.844  11.500  10.935 -0.4120  4.3510  1.2663
  439MOL0     H60556  10.560  11.506  11.041 -0.0752 -4.3356 -0.6515
  439MOL0     H60557  10.589  11.471  10.872  0.2168 -2.1006  0.6076
  439MOL0     H60558  10.731  11.681  10.843 -1.6994  3.1376 -1.6334
  439MOL0     H60559  10.718  11.711  11.013  1.9589 -2.1767 -0.2846
  439MOL0     H60560  10.499  11.715  10.793 -0.9742 -0.0550  0.2418
  439MOL0     H60561  10.554  11.859  10.886  0.3152 -0.4194  2.1481
  439MOL0     H60562  10.575  10.864  11.010 -1.8734 -1.4339 -0.5629
  439MOL0     H60563  10.488  10.647  11.075  1.1880  0.1864  1.2761
  439MOL0     H60564  10.112  10.340  10.872 -0.9563  1.0609  1.8300
  439MOL0     H60565  10.004  10.112  10.910  0.1817 -0.4999 -0.3987
  439MOL0     H60566   9.257   9.034  10.085 -0.4882  0.0724 -0.4173
  439MOL0     H60567   9.282   8.952   9.870 -1.9603  2.2610 -0.5278
  439MOL0     H60568   9.262   8.684   9.539  1.2938  0.4670 -1.3201
  439MOL0     H60569   9.254   8.558   9.320 -0.2355 -1.3328  1.3718
  439MOL0     H60570   8.903   8.604   9.085 -1.5601 -0.6460 -0.4948
  439MOL0     H60571   9.020   8.525   8.984  1.3306 -3.0001 -0.1830
  439MOL0     H60572   8.875   8.336   9.174 -2.4805 -1.8532 -0.9540
  439MOL0     H60573   8.908   8.322   9.004  0.1078 -0.8639  1.5550
  439MOL0     H60574   8.689   8.494   9.127  1.8474  0.1395  0.9847
  439MOL0     H60575   8.707   8.460   8.952  1.1635 -1.5253 -0.4813
  439MOL0     H60576   8.527   8.326   9.055  1.1572  0.0872 -1.3153
  439MOL0     H60577   8.623   8.245   9.163 -0.0178 -4.3515 -1.9065
  439MOL0     H60578   8.780   8.017   8.873 -2.8726 -2.9521  3.5873
  439MOL0     H60579   8.835   8.635   9.284  0.2575  2.5604  1.3105
  439MOL0     H60580   8.795   8.799   9.622 -1.6186  0.6498 -0.9441
  439MOL0     H60581   8.775   8.866   9.468 -2.7820 -1.0442 -2.0814
  439MOL0     H60582   8.707   8.712   9.494 -1.5363  1.5681  2.1592
  440MOL0     O60583   4.817  11.254   3.140  0.7251 -0.6082  1.0170
  440MOL0     C60584   4.852  11.301   3.249 -0.0107  0.7277 -0.1377
  440MOL0     O60585   4.847  11.239   3.374  0.4012 -0.2493 -0.1950
  440MOL0     C60586   4.775  11.122   3.384  0.7571 -0.2649 -0.6884
  440MOL0     C60587   4.795  11.012   3.301  0.4922  0.5820 -0.4656
  440MOL0     C60588   4.738  10.887   3.333 -0.0452  0.3460 -0.1647
  440MOL0     C60589   4.644  10.870   3.440 -0.2069  0.2612 -0.7347
  440MOL0     O60590   4.586  10.753   3.469  0.1078  0.2992  0.0944
  440MOL0     C60591   4.561  10.710   3.608 -0.6615 -0.0109  0.7222
  440MOL0     C60592   4.433  10.619   3.596  0.2171  0.1929 -0.0723
  440MOL0     C60593   4.304  10.698   3.596 -0.8978 -0.2611 -0.3733
  440MOL0     C60594   4.286  10.781   3.464  0.4618 -0.0144 -0.2294
  440MOL0     C60595   4.264  10.691   3.343 -0.3531 -0.7927 -0.0243
  440MOL0     C60596   4.269  10.789   3.221  0.0824  0.4112  1.1249
  440MOL0     C60597   4.227  10.722   3.093 -0.4875  0.1807 -0.1675
  440MOL0     C60598   4.330  10.636   3.019  0.2505 -0.3456  0.8156
  440MOL0     N60599   4.451  10.716   2.990  0.4715  0.2691  0.5895
  440MOL0     C60600   4.456  10.823   2.897 -0.7969  0.3613  0.4371
  440MOL0     C60601   4.579  10.872   2.907 -0.4933  0.5870  0.4441
  440MOL0     C60602   4.655  10.964   2.808  0.4278 -0.0452 -0.3714
  440MOL0     C60603   4.576  11.088   2.781  0.5035 -0.0173  0.9302
  440MOL0     C60604   4.618  11.216   2.866 -0.5389  0.0986  0.4932
  440MOL0     C60605   4.543  11.210   3.005 -0.4312 -0.5136 -0.9417
  440MOL0     O60606   4.402  11.240   2.977  0.2185  0.5660 -0.2950
  440MOL0     C60607   4.310  11.215   3.081 -0.1273 -0.6116  0.2220
  440MOL0     C60608   4.177  11.256   3.086  0.5093 -0.3059 -0.3440
  440MOL0     C60609   4.094  11.241   3.201  0.1287 -0.2836 -0.4299
  440MOL0     C60610   3.946  11.278   3.181  0.2613  0.4240  0.0302
  440MOL0     C60611   4.138  11.192   3.324 -0.2867  1.1519 -0.4480
  440MOL0     C60612   4.065  11.179   3.452 -0.2432 -0.0604  0.1916
  440MOL0     O60613   3.971  11.283   3.474 -0.5199  0.0879 -0.2610
  440MOL0     C60614   3.897  11.282   3.586  0.4306  0.0051  0.2183
  440MOL0     C60615   3.946  11.301   3.719  0.6236  1.0146 -0.6005
  440MOL0     C60616   3.873  11.305   3.837  0.7555  0.1457 -0.0622
  440MOL0     C60617   3.732  11.308   3.818  0.5017 -0.3482 -0.1351
  440MOL0     O60618   3.635  11.327   3.910  0.3701  0.2593 -0.3499
  440MOL0     C60619   3.687  11.393   4.035  0.6342 -0.0951 -0.4667
  440MOL0     C60620   3.575  11.481   4.111  0.2853  0.1614 -0.6677
  440MOL0     C60621   3.608  11.488   4.260 -0.9634 -0.9747  0.2827
  440MOL0     C60622   3.549  11.612   4.325  0.4582 -0.2932  0.5868
  440MOL0     C60623   3.546  11.600   4.477  0.0137 -0.1163 -0.0920
  440MOL0     C60624   3.496  11.720   4.553  0.2934 -0.0119 -0.0357
  440MOL0     C60625   3.350  11.750   4.512  0.3549  0.9977 -0.6280
  440MOL0     C60626   3.265  11.818   4.611  0.3298  0.0141 -0.6758
  440MOL0    Cl60627   3.246  11.709   4.749 -0.0165 -0.4127 -0.0640
  440MOL0     C60628   3.675  11.300   3.685 -0.2524  0.0671 -0.1855
  440MOL0     C60629   3.758  11.283   3.576  0.3131 -1.3524  0.1220
  440MOL0     O60630   4.087  11.089   3.527  0.0047  0.4160 -0.7441
  440MOL0     C60631   4.272  11.146   3.317  0.7884 -0.0244 -0.0060
  440MOL0     C60632   4.358  11.163   3.207  0.2227 -0.4934  0.0970
  440MOL0     N60633   4.651  10.797   3.005  0.6838 -0.4378 -0.1285
  440MOL0     N60634   4.573  10.704   3.052 -0.6706 -0.1143  0.0369
  440MOL0     C60635   4.617  10.994   3.502 -0.2016 -0.0292 -0.5208
  440MOL0     C60636   4.676  11.113   3.469  1.2011 -0.2510  0.3515
  440MOL0     C60637   4.918  11.438   3.250 -0.5197 -0.8657  0.3416
  440MOL0     C60638   4.857  11.541   3.320  0.1613  0.6007  0.0446
  440MOL0     C60639   4.900  11.670   3.303  0.2175 -0.7188 -0.6555
  440MOL0     C60640   5.014  11.696   3.227  1.1732  0.6834  0.1949
  440MOL0     O60641   5.077  11.817   3.209 -0.0347 -0.4213 -0.1904
  440MOL0     C60642   5.046  11.922   3.303  0.4547  0.2644  0.2437
  440MOL0     C60643   5.088  12.051   3.231  0.1565  0.3117  0.1336
  440MOL0     C60644   5.025  12.060   3.091  0.6681 -0.5321  0.8099
  440MOL0     C60645   5.026  12.204   3.043 -0.1715  0.2987 -0.2180
  440MOL0     C60646   4.985  12.205   2.901 -0.4138  0.7547  0.6509
  440MOL0     C60647   4.956  12.235   2.784 -0.0313  0.0847  1.4085
  440MOL0     C60648   5.087  11.594   3.171  0.0425  0.2126  0.0186
  440MOL0     C60649   5.038  11.467   3.175 -0.4328 -0.4046  0.4812
  440MOL0     C60650   5.107  11.347   3.104  0.1593  0.0763 -0.2860
  440MOL0     H60651   4.876  11.020   3.230  1.4654  1.7176  0.7043
  440MOL0     H60652   4.756  10.797   3.274 -1.0147  1.7065 -2.6540
  440MOL0     H60653   4.558  10.781   3.690 -0.1226  0.2257  0.5426
  440MOL0     H60654   4.631  10.627   3.625 -0.6003 -0.1783 -0.2518
  440MOL0     H60655   4.436  10.554   3.509 -2.8440 -1.3160  0.8212
  440MOL0     H60656   4.434  10.557   3.686 -2.3414  0.2064  0.0407
  440MOL0     H60657   4.228  10.621   3.611 -1.6069  0.2162 -1.4637
  440MOL0     H60658   4.308  10.764   3.684  3.1320 -1.8064  0.8412
  440MOL0     H60659   4.198  10.844   3.476 -1.1558 -1.7227 -2.3539
  440MOL0     H60660   4.371  10.849   3.446  0.7201 -0.0184  0.9062
  440MOL0     H60661   4.169  10.636   3.338 -1.4706  1.0363 -0.3245
  440MOL0     H60662   4.324  10.600   3.339 -1.6975 -1.6759 -1.7295
  440MOL0     H60663   4.207  10.879   3.229 -2.3329 -0.7148 -2.5678
  440MOL0     H60664   4.373  10.825   3.217 -0.6865  3.2534  3.4489
  440MOL0     H60665   4.183  10.790   3.019 -1.6349  1.9264  1.9767
  440MOL0     H60666   4.142  10.660   3.123  0.8189 -1.1908  0.8680
  440MOL0     H60667   4.364  10.552   3.081  0.6277 -2.2572 -1.8493
  440MOL0     H60668   4.288  10.598   2.926  0.5532  0.2180  0.4426
  440MOL0     H60669   4.377  10.849   2.827  0.6581 -0.4273 -1.5756
  440MOL0     H60670   4.665  10.907   2.716  0.5098  1.2836 -1.2079
  440MOL0     H60671   4.752  10.980   2.857 -0.1169 -0.7757  1.0095
  440MOL0     H60672   4.592  11.113   2.675 -0.9655 -1.3618  0.3669
  440MOL0     H60673   4.469  11.069   2.777  0.9436 -2.8094  0.3575
  440MOL0     H60674   4.726  11.217   2.882 -0.7492 -3.4087  3.4330
  440MOL0     H60675   4.599  11.311   2.814  0.5480  1.6633  2.7669
  440MOL0     H60676   4.569  11.113   3.047 -0.2040 -0.7491 -1.6241
  440MOL0     H60677   4.582  11.282   3.078  1.0854 -2.3304  0.1248
  440MOL0     H60678   4.138  11.285   2.989  0.7978  0.5220 -0.2217
  440MOL0     H60679   3.917  11.271   3.075 -2.6991  2.8403  0.5279
  440MOL0     H60680   3.921  11.376   3.223 -1.8990  1.4130 -3.1277
  440MOL0     H60681   3.883  11.205   3.231 -0.0606  0.5839 -0.1372
  440MOL0     H60682   4.054  11.306   3.733  0.8089 -0.3555 -1.3030
  440MOL0     H60683   3.926  11.299   3.931  1.2594 -1.4685 -0.4125
  440MOL0     H60684   3.731  11.317   4.099  1.5172 -0.0278 -0.9642
  440MOL0     H60685   3.771  11.460   4.013  1.7268 -0.3514  2.4677
  440MOL0     H60686   3.568  11.583   4.073  3.8836  0.8114  0.0414
  440MOL0     H60687   3.486  11.419   4.099  0.6279 -0.2034 -1.3995
  440MOL0     H60688   3.717  11.492   4.268 -0.7822 -2.7605 -0.6321
  440MOL0     H60689   3.552  11.408   4.310 -3.0497 -0.2686 -0.8385
  440MOL0     H60690   3.446  11.635   4.294  0.7659 -0.9824 -1.0462
  440MOL0     H60691   3.602  11.702   4.293 -0.2940 -0.3106 -0.8029
  440MOL0     H60692   3.491  11.512   4.514  3.0461 -0.6750  3.7867
  440MOL0     H60693   3.647  11.573   4.508  1.7335  3.3744 -2.0856
  440MOL0     H60694   3.556  11.807   4.524 -1.4158  0.9455 -0.8485
  440MOL0     H60695   3.504  11.706   4.661  2.1332 -0.3405 -0.1727
  440MOL0     H60696   3.296  11.656   4.497 -2.0458  1.9912  1.0970
  440MOL0     H60697   3.340  11.810   4.421 -3.1346  4.4242  1.7359
  440MOL0     H60698   3.170  11.845   4.565 -0.3330  1.2490  1.2815
  440MOL0     H60699   3.305  11.918   4.632 -3.7093  1.7238 -0.3595
  440MOL0     H60700   3.569  11.313   3.665  0.0433 -0.2576 -2.1876
  440MOL0     H60701   3.720  11.271   3.475  0.1130 -2.8072  0.3498
  440MOL0     H60702   4.323  11.104   3.404 -0.7516 -2.6393 -0.2490
  440MOL0     H60703   4.459  11.130   3.226 -0.3545 -0.8588  3.0572
  440MOL0     H60704   4.546  10.999   3.584  1.5045  1.9764  0.9439
  440MOL0     H60705   4.641  11.200   3.523  3.5424  3.3381 -3.2701
  440MOL0     H60706   4.764  11.524   3.373  0.4393  0.9755  0.6733
  440MOL0     H60707   4.848  11.752   3.352  0.2361 -2.1803  1.9683
  440MOL0     H60708   4.937  11.929   3.312  0.5379 -0.2793  2.2363
  440MOL0     H60709   5.089  11.916   3.403 -1.3068 -1.2148  0.9605
  440MOL0     H60710   5.196  12.064   3.222  0.3773 -1.2089  0.2049
  440MOL0     H60711   5.054  12.127   3.302 -5.9074 -2.7042  1.1662
  440MOL0     H60712   5.087  12.004   3.021  0.6035 -0.3672  0.6215
  440MOL0     H60713   4.925  12.017   3.091  0.8467 -1.0541 -1.5885
  440MOL0     H60714   5.129  12.240   3.057  0.6588 -2.2954  1.1579
  440MOL0     H60715   4.963  12.274   3.098 -0.4121  1.1307 -1.5066
  440MOL0     H60716   4.932  12.254   2.681 -0.1168  2.0342  1.7430
  440MOL0     H60717   5.176  11.619   3.114 -1.0373  1.8627 -1.0100
  440MOL0     H60718   5.196  11.392   3.057  0.1722 -1.5636 -1.9531
  440MOL0     H60719   5.133  11.264   3.169  0.4884  2.6328  3.0997
  440MOL0     H60720   5.037  11.307   3.030  0.0512 -2.3120  1.0365
  441MOL0     O60721   3.105   0.111   3.333  0.3576  0.0039  0.4896
  441MOL0     C60722   3.034   0.013   3.369 -0.6917 -0.7304  0.0150
  441MOL0     O60723   2.927  -0.041   3.298 -0.5233  0.4527 -0.2579
  441MOL0     C60724   2.887   0.033   3.196 -0.1498  0.7031 -0.6895
  441MOL0     C60725   2.867   0.177   3.207 -0.3619  0.4241  0.9645
  441MOL0     C60726   2.804   0.239   3.091  0.2320  0.1884 -0.8694
  441MOL0     C60727   2.755   0.162   2.985  0.4766 -0.6273  0.4535
  441MOL0     O60728   2.704   0.245   2.889 -0.0390  0.2843 -0.1894
  441MOL0     C60729   2.676   0.182   2.765  0.1315 -0.5849  0.0225
  441MOL0     C60730   2.589   0.272   2.684 -0.3356  0.6607  0.7800
  441MOL0     C60731   2.646   0.396   2.620 -0.7044  0.0195  0.1120
  441MOL0     C60732   2.692   0.494   2.721 -0.2838 -0.9661 -0.0203
  441MOL0     C60733   2.726   0.635   2.656  0.0629  0.1136  0.2554
  441MOL0     C60734   2.782   0.740   2.762  0.7826 -0.1356  0.5906
  441MOL0     C60735   2.919   0.700   2.807 -0.2205 -0.5151 -0.1714
  441MOL0     C60736   3.035   0.709   2.706 -0.0520 -0.5816  0.2869
  441MOL0     N60737   3.165   0.693   2.766  0.3788 -0.0425  0.4349
  441MOL0     C60738   3.262   0.603   2.715 -0.1419  0.4013 -0.5518
  441MOL0     C60739   3.379   0.641   2.777  0.2714 -0.2394 -0.3169
  441MOL0     C60740   3.505   0.566   2.769  0.3823  0.3975 -0.7639
  441MOL0     C60741   3.604   0.630   2.672  0.1093  0.2053  0.5772
  441MOL0     C60742   3.542   0.648   2.539  0.4068 -0.5958  0.4632
  441MOL0     C60743   3.625   0.713   2.433 -0.0262 -0.0311  0.7423
  441MOL0     O60744   3.726   0.611   2.411 -0.1859  0.1958  0.4080
  441MOL0     C60745   3.838   0.656   2.344 -0.2243 -0.7893  0.6264
  441MOL0     C60746   3.842   0.728   2.219 -0.5125  0.3509 -0.4300
  441MOL0     C60747   3.966   0.779   2.182 -0.3996  0.3689  0.1499
  441MOL0     C60748   3.959   0.867   2.059 -0.1270 -0.4584  0.7624
  441MOL0     C60749   4.088   0.764   2.253  0.1662 -1.1661 -0.0309
  441MOL0     C60750   4.214   0.837   2.223  0.7564 -0.3038 -0.8168
  441MOL0     O60751   4.234   0.882   2.097  0.7554  0.9777  0.5063
  441MOL0     C60752   4.361   0.882   2.050  0.1430 -1.1875  0.0151
  441MOL0     C60753   4.445   0.770   2.069  0.1481 -0.2740 -0.3761
  441MOL0     C60754   4.579   0.788   2.036  0.4787 -0.1657 -0.2397
  441MOL0     C60755   4.635   0.906   1.982 -0.2813  0.5231  0.0333
  441MOL0     O60756   4.767   0.902   1.952  0.6673 -0.5854  0.1209
  441MOL0     C60757   4.826   1.022   1.899 -0.4241  0.4066  0.5666
  441MOL0     C60758   4.969   1.017   1.959 -0.2816  0.1557  0.6313
  441MOL0     C60759   5.061   1.114   1.881  0.4223 -0.0978 -0.4044
  441MOL0     C60760   5.202   1.093   1.931 -0.4320 -0.4591  0.5313
  441MOL0     C60761   5.306   1.187   1.860 -0.0283  0.4828 -0.3572
  441MOL0     C60762   5.339   1.134   1.719 -0.7375 -0.7281  0.5410
  441MOL0     C60763   5.438   1.015   1.730  0.2101 -1.1502 -1.3367
  441MOL0     C60764   5.465   0.936   1.602  0.4909  0.1479 -0.5066
  441MOL0    Cl60765   5.520   1.031   1.471 -0.3501  0.1828 -0.0381
  441MOL0     C60766   4.542   1.000   1.944 -0.0363 -0.2513  0.0831
  441MOL0     C60767   4.409   0.994   1.977 -0.3744  0.6001  0.2452
  441MOL0     O60768   4.293   0.846   2.311  0.5495 -0.0289 -0.2897
  441MOL0     C60769   4.086   0.687   2.374  0.7881 -0.2436 -0.0149
  441MOL0     C60770   3.962   0.637   2.414 -0.3449  0.3367  0.7847
  441MOL0     N60771   3.347   0.752   2.853 -0.3923 -0.2874 -0.5679
  441MOL0     N60772   3.220   0.777   2.849  0.1694 -0.2361 -0.2578
  441MOL0     C60773   2.785   0.021   2.982 -0.2708 -0.3031  0.0139
  441MOL0     C60774   2.846  -0.054   3.091 -0.1041  0.2717 -0.4800
  441MOL0     C60775   3.081  -0.042   3.493 -0.2839  0.4812 -1.2466
  441MOL0     C60776   3.003  -0.032   3.617  0.2616  0.5173  0.4948
  441MOL0     C60777   3.049  -0.081   3.740 -0.1955 -0.5670  0.1091
  441MOL0     C60778   3.176  -0.142   3.743 -0.2641  0.4139  0.2321
  441MOL0     O60779   3.230  -0.195   3.858  0.5066 -0.1562 -0.4945
  441MOL0     C60780   3.135  -0.274   3.940  0.2118 -0.4711  0.1739
  441MOL0     C60781   3.213  -0.358   4.043 -0.7798 -0.0926 -0.0642
  441MOL0     C60782   3.287  -0.273   4.153 -0.0823 -0.6756  0.0682
  441MOL0     C60783   3.436  -0.310   4.164 -0.9909  0.2495  0.1713
  441MOL0     C60784   3.477  -0.446   4.192  0.0997  0.4121 -1.3382
  441MOL0     C60785   3.512  -0.559   4.214 -0.6669 -0.2414 -0.5753
  441MOL0     C60786   3.242  -0.166   3.629 -0.6014  0.7130 -0.8740
  441MOL0     C60787   3.201  -0.114   3.503  0.1010  0.4033  0.2130
  441MOL0     C60788   3.285  -0.147   3.380  0.2552  0.0895 -0.1203
  441MOL0     H60789   2.904   0.235   3.291  3.2714  1.2485 -1.0051
  441MOL0     H60790   2.782   0.345   3.081  0.1323  0.1326 -1.2719
  441MOL0     H60791   2.618   0.090   2.779 -1.4071  0.2883 -0.3475
  441MOL0     H60792   2.776   0.164   2.726  1.7552  0.9777  3.1377
  441MOL0     H60793   2.565   0.202   2.603  1.8120 -2.4914  2.6641
  441MOL0     H60794   2.492   0.283   2.734 -0.8882 -2.0375  0.4754
  441MOL0     H60795   2.722   0.362   2.549 -1.5982 -0.6581 -0.5274
  441MOL0     H60796   2.575   0.454   2.561 -0.3137  0.0717 -0.3137
  441MOL0     H60797   2.613   0.512   2.794  0.9030  0.9630  0.8429
  441MOL0     H60798   2.783   0.459   2.771  0.3507 -1.4931 -1.4793
  441MOL0     H60799   2.628   0.668   2.619 -1.5643 -2.5782  1.8581
  441MOL0     H60800   2.797   0.626   2.573  0.0336  0.8208  0.1448
  441MOL0     H60801   2.784   0.839   2.715  0.3485 -0.1744  0.4852
  441MOL0     H60802   2.708   0.748   2.843 -0.8917  2.9924 -1.0277
  441MOL0     H60803   2.930   0.598   2.845 -0.5831 -0.6634 -0.4538
  441MOL0     H60804   2.945   0.768   2.889  0.5031 -0.7500 -0.2018
  441MOL0     H60805   3.015   0.635   2.628 -1.2951 -1.6777  1.6043
  441MOL0     H60806   3.037   0.805   2.652  2.0472 -0.9159 -0.3288
  441MOL0     H60807   3.239   0.512   2.660 -2.7392  0.6932 -0.0854
  441MOL0     H60808   3.484   0.465   2.733  3.9715 -0.5101 -0.7190
  441MOL0     H60809   3.567   0.554   2.858  0.8541 -0.0904 -1.1553
  441MOL0     H60810   3.632   0.729   2.709  1.7177  1.0156 -2.4766
  441MOL0     H60811   3.687   0.560   2.663 -0.2074 -0.5159  2.7456
  441MOL0     H60812   3.498   0.552   2.510 -1.1370 -0.2352  1.4571
  441MOL0     H60813   3.460   0.719   2.554  0.7927 -0.3239  1.3859
  441MOL0     H60814   3.577   0.717   2.335 -1.2119 -2.3007  1.1632
  441MOL0     H60815   3.670   0.811   2.446  2.1786 -0.4001 -2.7838
  441MOL0     H60816   3.756   0.747   2.157 -0.9118  2.8093  0.7476
  441MOL0     H60817   4.014   0.812   1.982 -3.0197 -2.6754  0.1262
  441MOL0     H60818   4.010   0.962   2.075 -2.3455  0.8000  0.7122
  441MOL0     H60819   3.857   0.885   2.023  0.7187 -2.7568 -3.4540
  441MOL0     H60820   4.420   0.673   2.110 -1.1806 -0.3420 -1.2628
  441MOL0     H60821   4.652   0.710   2.055 -1.1745 -1.8261 -0.4034
  441MOL0     H60822   4.816   1.022   1.790  4.2554  1.5588 -0.0807
  441MOL0     H60823   4.771   1.111   1.933 -0.5867 -0.2581  2.1324
  441MOL0     H60824   4.971   1.032   2.067  2.2003 -1.4393  0.8645
  441MOL0     H60825   5.003   0.917   1.933  0.4876  0.9721 -1.8095
  441MOL0     H60826   5.036   1.218   1.902  1.0419 -0.0963  0.3897
  441MOL0     H60827   5.049   1.092   1.775 -0.8048  0.8267 -0.4735
  441MOL0     H60828   5.241   0.991   1.920  0.7733  0.1835 -1.7008
  441MOL0     H60829   5.207   1.132   2.033  1.8227 -0.2201  0.3892
  441MOL0     H60830   5.254   1.283   1.852  1.5747  1.4571  0.5088
  441MOL0     H60831   5.402   1.198   1.910  2.6347  0.5798 -4.9477
  441MOL0     H60832   5.392   1.209   1.659 -2.2242  0.1240  0.2323
  441MOL0     H60833   5.248   1.102   1.666  1.6217 -1.9549 -3.1674
  441MOL0     H60834   5.400   0.952   1.810 -0.6560  1.9488  0.8933
  441MOL0     H60835   5.538   1.048   1.762  0.8938 -2.4272 -2.0714
  441MOL0     H60836   5.368   0.897   1.572  1.1681 -0.1010 -2.5537
  441MOL0     H60837   5.529   0.850   1.622 -0.4013 -0.1181  1.3083
  441MOL0     H60838   4.567   1.099   1.905  1.0766 -0.3603  0.4917
  441MOL0     H60839   4.341   1.074   1.950 -0.5551  0.3305 -0.1083
  441MOL0     H60840   4.174   0.670   2.435  0.9871 -1.1323 -0.5348
  441MOL0     H60841   3.966   0.576   2.504 -0.0535 -1.0452 -0.1427
  441MOL0     H60842   2.757  -0.050   2.904  0.5493 -1.0129  0.3452
  441MOL0     H60843   2.852  -0.161   3.101  1.4288  0.3195 -0.7341
  441MOL0     H60844   2.915   0.031   3.617  1.6321  2.7064 -2.9431
  441MOL0     H60845   2.997  -0.066   3.834 -2.6637  1.2933 -1.4053
  441MOL0     H60846   3.060  -0.211   3.990  0.1846 -1.8344  1.9683
  441MOL0     H60847   3.077  -0.345   3.881 -1.0077  1.4069 -0.9894
  441MOL0     H60848   3.287  -0.425   3.997 -0.8361 -0.4992  0.4247
  441MOL0     H60849   3.152  -0.429   4.100  0.0409 -0.1527  0.7717
  441MOL0     H60850   3.264  -0.168   4.136 -2.7579 -0.9080  1.5702
  441MOL0     H60851   3.248  -0.282   4.255  1.9418  0.3833  0.9935
  441MOL0     H60852   3.472  -0.244   4.244 -0.6935  0.5210 -0.1839
  441MOL0     H60853   3.477  -0.287   4.065  0.4679 -3.2429 -0.1697
  441MOL0     H60854   3.540  -0.661   4.231  3.1029  0.5455 -1.1203
  441MOL0     H60855   3.332  -0.228   3.632 -0.5098  0.8535 -0.7371
  441MOL0     H60856   3.261  -0.070   3.307  1.9323  1.4995  0.7448
  441MOL0     H60857   3.392  -0.163   3.401 -0.2043 -1.3414  1.3786
  441MOL0     H60858   3.243  -0.243   3.349  1.9467 -1.4598  2.0035
  442MOL0     O60859   8.722   6.624   4.192  1.0371 -0.2815 -0.1663
  442MOL0     C60860   8.643   6.608   4.286 -1.3418  0.3207 -0.2180
  442MOL0     O60861   8.673   6.599   4.424  0.4252  0.0625 -0.0077
  442MOL0     C60862   8.799   6.610   4.454 -0.4928  0.5224  0.1641
  442MOL0     C60863   8.883   6.504   4.471  0.1117 -0.1320  0.1355
  442MOL0     C60864   9.015   6.519   4.495  0.3127 -0.2751  0.1515
  442MOL0     C60865   9.070   6.644   4.511  0.2612  0.0002  0.6128
  442MOL0     O60866   9.203   6.662   4.528 -0.8671  0.4614 -0.6185
  442MOL0     C60867   9.260   6.790   4.501 -0.3483 -0.7782  0.4654
  442MOL0     C60868   9.409   6.789   4.476 -0.2799  0.5317 -0.4578
  442MOL0     C60869   9.492   6.788   4.604  1.0461 -1.4114 -0.1458
  442MOL0     C60870   9.622   6.718   4.615  0.5873 -0.0364  0.1078
  442MOL0     C60871   9.744   6.800   4.566  0.1781 -0.9567 -0.9702
  442MOL0     C60872   9.879   6.724   4.580  0.7049  0.0632  0.1101
  442MOL0     C60873  10.006   6.804   4.591 -0.7723 -0.0663  0.5060
  442MOL0     C60874  10.116   6.697   4.626  0.0312 -0.8819 -0.9393
  442MOL0     N60875  10.249   6.750   4.588  0.4910  0.8278  0.3627
  442MOL0     C60876  10.283   6.882   4.584  0.1809 -0.4263  0.1522
  442MOL0     C60877  10.414   6.873   4.585  0.7072 -1.0786  0.0417
  442MOL0     C60878  10.509   6.997   4.584  0.3912  0.9571  0.1428
  442MOL0     C60879  10.646   6.958   4.622 -1.3162 -0.9979  0.5809
  442MOL0     C60880  10.665   6.906   4.771 -0.1001 -0.3975  0.1604
  442MOL0     C60881  10.816   6.921   4.809 -0.0120 -0.4495 -0.0462
  442MOL0     O60882  10.892   6.831   4.726 -0.5455  0.6611  0.1391
  442MOL0     C60883  11.020   6.804   4.758 -0.5203  0.3602 -0.1843
  442MOL0     C60884  11.093   6.711   4.683 -0.1117  0.6477  0.5000
  442MOL0     C60885  11.223   6.691   4.705  0.8496 -0.4806 -0.9730
  442MOL0     C60886  11.279   6.581   4.635 -0.5908  0.3692 -0.2339
  442MOL0     C60887  11.300   6.770   4.803 -0.7839 -0.9442 -0.6230
  442MOL0     C60888  11.446   6.751   4.823 -0.2853 -0.5178 -0.5823
  442MOL0     O60889  11.481   6.805   4.952  0.6693 -0.5084 -0.3300
  442MOL0     C60890  11.615   6.837   4.973  0.3255 -0.0988  0.0639
  442MOL0     C60891  11.687   6.924   4.887  0.0705 -0.6522  1.3037
  442MOL0     C60892  11.822   6.947   4.909 -0.2250  0.5083  0.3991
  442MOL0     C60893  11.878   6.911   5.040 -0.1717 -0.6396 -0.1259
  442MOL0     O60894  12.001   6.943   5.095 -0.9106 -0.1823  0.0313
  442MOL0     C60895  12.080   7.045   5.025 -0.4937  0.0220  0.0042
  442MOL0     C60896  12.009   7.178   5.020 -0.7858  0.0032 -1.1499
  442MOL0     C60897  12.088   7.272   4.938 -0.2247  0.2706 -0.2018
  442MOL0     C60898  12.043   7.417   4.948  0.6454 -0.3070  0.8253
  442MOL0     C60899  12.087   7.487   4.823 -0.1594 -0.3183  0.1725
  442MOL0     C60900  12.236   7.500   4.802 -0.8146 -0.2917 -0.5398
  442MOL0     C60901  12.275   7.630   4.718  0.8238 -0.3357 -0.3846
  442MOL0     C60902  12.416   7.653   4.693 -0.0295  0.5060 -0.6119
  442MOL0    Cl60903  12.432   7.796   4.586 -0.3470  0.0543 -0.0298
  442MOL0     C60904  11.799   6.837   5.129  0.1637 -0.8963 -0.1940
  442MOL0     C60905  11.666   6.807   5.100  0.5594  0.6735 -0.1965
  442MOL0     O60906  11.522   6.722   4.736 -0.5436 -0.2156 -0.1232
  442MOL0     C60907  11.220   6.856   4.882 -0.9776 -0.3280  0.4197
  442MOL0     C60908  11.085   6.873   4.862  0.8528  0.2295  0.5980
  442MOL0     N60909  10.456   6.741   4.578  0.5486 -0.1731  0.0326
  442MOL0     N60910  10.356   6.662   4.589  0.1335 -1.0841 -0.3742
  442MOL0     C60911   8.984   6.754   4.491  1.0159  0.0427 -0.6155
  442MOL0     C60912   8.846   6.735   4.469  0.5128  0.3100 -0.3277
  442MOL0     C60913   8.498   6.637   4.261 -0.7954  0.2344 -0.7410
  442MOL0     C60914   8.418   6.699   4.360  0.4956 -0.2737 -0.8947
  442MOL0     C60915   8.291   6.741   4.332 -0.2870  0.5530 -1.2098
  442MOL0     C60916   8.222   6.702   4.219 -0.1117  0.0042 -0.5252
  442MOL0     O60917   8.088   6.734   4.202 -0.4110 -0.2800 -0.3195
  442MOL0     C60918   8.042   6.781   4.075 -0.1020 -0.1679 -0.5826
  442MOL0     C60919   7.888   6.830   4.093  0.1359  0.3614  0.0246
  442MOL0     C60920   7.880   6.927   4.211  0.8920 -0.6760  0.0862
  442MOL0     C60921   7.739   6.985   4.227  0.1668 -0.0366 -0.1350
  442MOL0     C60922   7.725   7.129   4.271  0.5128  0.3860  0.1341
  442MOL0     C60923   7.701   7.243   4.304 -0.0007 -0.0782  0.3630
  442MOL0     C60924   8.299   6.638   4.123 -0.4828  0.5226 -0.1051
  442MOL0     C60925   8.436   6.601   4.141 -0.3095  0.0916 -0.2805
  442MOL0     C60926   8.506   6.525   4.035  0.4402  0.1002 -0.6266
  442MOL0     H60927   8.850   6.402   4.452 -0.3658  0.2475 -1.1354
  442MOL0     H60928   9.087   6.439   4.485 -0.0468 -0.8540  1.8612
  442MOL0     H60929   9.224   6.868   4.570  1.8261 -2.6215  3.9979
  442MOL0     H60930   9.222   6.816   4.402  0.9357 -0.6860 -0.0188
  442MOL0     H60931   9.428   6.704   4.410  1.8562 -2.2216  3.3237
  442MOL0     H60932   9.442   6.882   4.430  1.4814 -0.5358 -1.4818
  442MOL0     H60933   9.525   6.889   4.632  1.9048 -1.0963 -2.1371
  442MOL0     H60934   9.434   6.760   4.692  2.3305 -0.6176  1.0023
  442MOL0     H60935   9.639   6.685   4.717  0.9405 -0.3124 -0.0363
  442MOL0     H60936   9.626   6.627   4.554  2.8772 -0.1555  0.3338
  442MOL0     H60937   9.750   6.890   4.627 -1.6855 -0.0463 -2.0593
  442MOL0     H60938   9.730   6.841   4.466 -0.4378 -1.4998 -1.1131
  442MOL0     H60939   9.864   6.647   4.656 -3.5205 -1.6485 -2.0828
  442MOL0     H60940   9.876   6.657   4.493 -1.8747  0.5104 -0.2555
  442MOL0     H60941  10.000   6.880   4.670 -0.8001  0.6691 -0.1969
  442MOL0     H60942  10.029   6.848   4.494 -2.7037  0.9274  0.4509
  442MOL0     H60943  10.103   6.656   4.727 -1.5856 -1.2669 -1.2758
  442MOL0     H60944  10.098   6.614   4.557  3.4620 -0.9618 -1.9350
  442MOL0     H60945  10.223   6.973   4.576  1.7508  0.5895 -0.5588
  442MOL0     H60946  10.471   7.088   4.633  2.2775  1.5395  0.5799
  442MOL0     H60947  10.494   7.036   4.483  0.7326  3.6239  1.0483
  442MOL0     H60948  10.693   6.892   4.548  0.8375  0.1027  0.8611
  442MOL0     H60949  10.690   7.057   4.604 -1.6603 -1.2512 -2.1038
  442MOL0     H60950  10.612   6.976   4.837  2.2203  1.4825  0.1464
  442MOL0     H60951  10.628   6.803   4.767  0.2202 -0.5234  0.4076
  442MOL0     H60952  10.853   7.024   4.802  1.3401 -0.7664  1.8632
  442MOL0     H60953  10.829   6.881   4.910 -0.5339 -3.9869 -1.2382
  442MOL0     H60954  11.042   6.658   4.603  0.4738 -1.1436  1.2728
  442MOL0     H60955  11.355   6.612   4.563 -0.6930 -1.1422 -1.0080
  442MOL0     H60956  11.202   6.533   4.575 -0.6153  2.2063 -1.7895
  442MOL0     H60957  11.318   6.514   4.712 -0.7935  0.3003 -0.1910
  442MOL0     H60958  11.646   6.966   4.796 -1.5621 -1.9849  1.3881
  442MOL0     H60959  11.875   7.003   4.833 -0.5368  0.1177 -0.1118
  442MOL0     H60960  12.172   7.054   5.083 -0.3898 -0.3908 -0.0899
  442MOL0     H60961  12.100   7.003   4.926  1.4691 -0.5748  0.6164
  442MOL0     H60962  11.904   7.176   4.988 -1.9461  2.1842  2.0354
  442MOL0     H60963  12.006   7.204   5.126 -4.0796 -0.9511 -0.8775
  442MOL0     H60964  12.085   7.248   4.831  0.0927  1.4903 -0.5057
  442MOL0     H60965  12.192   7.267   4.970  0.1376 -0.6909 -1.4438
  442MOL0     H60966  12.076   7.464   5.041 -1.3341 -1.3302  2.1283
  442MOL0     H60967  11.933   7.417   4.948  0.6445  0.2445  0.6553
  442MOL0     H60968  12.033   7.461   4.732 -2.7400  1.8312  0.9531
  442MOL0     H60969  12.054   7.590   4.843  1.8292  0.6608 -1.2217
  442MOL0     H60970  12.285   7.416   4.753  0.1599 -0.5846  0.8959
  442MOL0     H60971  12.285   7.500   4.899 -1.9607 -0.8170  0.0614
  442MOL0     H60972  12.245   7.724   4.764  2.4591 -1.1122  2.5092
  442MOL0     H60973  12.218   7.615   4.626 -1.9304  0.2053  1.1518
  442MOL0     H60974  12.469   7.568   4.650 -1.3359  0.3300 -1.9641
  442MOL0     H60975  12.461   7.668   4.791  0.0515 -0.3346 -0.5173
  442MOL0     H60976  11.844   6.819   5.226  0.1323  3.6578  0.8910
  442MOL0     H60977  11.611   6.742   5.167  0.6553 -0.1361 -0.8812
  442MOL0     H60978  11.246   6.926   4.960 -2.4069 -2.1588  2.6394
  442MOL0     H60979  11.034   6.944   4.926 -2.7505  0.3322 -2.0471
  442MOL0     H60980   9.012   6.858   4.503 -1.5738  0.7288  0.1368
  442MOL0     H60981   8.779   6.819   4.458 -1.8883 -1.0864  2.4269
  442MOL0     H60982   8.470   6.731   4.450  1.4271 -0.1587 -1.4564
  442MOL0     H60983   8.233   6.787   4.412 -1.9624 -0.2720 -1.8949
  442MOL0     H60984   8.098   6.863   4.029 -0.3258  1.0505  1.2088
  442MOL0     H60985   8.042   6.699   4.003  0.9282 -1.4764  0.8473
  442MOL0     H60986   7.826   6.742   4.113 -1.7038  1.6821  0.4017
  442MOL0     H60987   7.849   6.873   4.000 -2.0266 -0.6281  0.4077
  442MOL0     H60988   7.905   6.873   4.303  0.5304 -0.0917  0.5343
  442MOL0     H60989   7.945   7.013   4.191  0.6988 -0.6544 -0.4759
  442MOL0     H60990   7.689   6.913   4.291 -0.6562  1.0062  0.4317
  442MOL0     H60991   7.687   6.982   4.131  1.8323  2.1440 -1.2066
  442MOL0     H60992   7.678   7.339   4.346 -0.3967  0.5227 -1.1692
  442MOL0     H60993   8.260   6.614   4.024  0.6676  0.6163 -0.5949
  442MOL0     H60994   8.576   6.576   3.969 -0.1228  1.9489  0.1369
  442MOL0     H60995   8.558   6.439   4.079  1.8789  0.6335 -1.2151
  442MOL0     H60996   8.432   6.472   3.975 -1.8924 -2.3834  3.8458
  443MOL0     O60997   7.057  10.526   9.999 -0.7740  0.2419  0.0185
  443MOL0     C60998   6.993  10.619  10.055  0.3951  0.0759  0.2668
  443MOL0     O60999   7.026  10.750  10.035 -0.8236  0.2646 -0.0487
  443MOL0     C61000   7.127  10.782   9.946 -0.1736  0.1009 -0.0931
  443MOL0     C61001   7.251  10.727   9.948 -0.2909 -0.1682 -0.0002
  443MOL0     C61002   7.352  10.764   9.865 -0.0684  0.6204 -0.4453
  443MOL0     C61003   7.344  10.868   9.782 -0.1774 -0.8092 -0.3351
  443MOL0     O61004   7.462  10.903   9.717 -0.2238  0.1155  0.5516
  443MOL0     C61005   7.483  11.044   9.713  0.4298 -0.9172 -0.2505
  443MOL0     C61006   7.624  11.086   9.656 -0.8566  0.3865 -0.7736
  443MOL0     C61007   7.620  11.234   9.607  0.5439  1.3413 -0.3186
  443MOL0     C61008   7.755  11.302   9.598  0.0435  0.2717  0.2488
  443MOL0     C61009   7.750  11.432   9.522  0.0673  0.2067  0.5804
  443MOL0     C61010   7.886  11.499   9.539 -0.0796 -0.8192  0.1096
  443MOL0     C61011   7.878  11.654   9.513  0.2754 -0.7745 -0.2827
  443MOL0     C61012   8.020  11.714   9.512 -0.4200  0.2184  1.5693
  443MOL0     N61013   8.094  11.687   9.632 -0.2045 -0.8989 -0.7557
  443MOL0     C61014   8.083  11.756   9.751  0.0116  0.3129  0.1875
  443MOL0     C61015   8.168  11.696   9.833 -0.4849 -0.3697 -0.2373
  443MOL0     C61016   8.176  11.704   9.982 -0.6895  0.3472 -0.0508
  443MOL0     C61017   8.255  11.814  10.049 -0.7953 -0.8427  0.0805
  443MOL0     C61018   8.395  11.840   9.994  0.7171 -0.4513 -0.3587
  443MOL0     C61019   8.409  11.926   9.868  0.0762  0.2870 -0.4578
  443MOL0     O61020   8.542  11.932   9.818 -0.6263  0.7442  0.4026
  443MOL0     C61021   8.574  12.006   9.711  0.0411  0.7183 -0.9578
  443MOL0     C61022   8.699  11.979   9.668 -0.4961 -0.8780 -0.9280
  443MOL0     C61023   8.737  12.042   9.546  0.6781  0.1379  0.0578
  443MOL0     C61024   8.868  11.983   9.487 -0.3071  0.1018  0.2282
  443MOL0     C61025   8.653  12.145   9.482 -0.4147 -0.1650 -0.0700
  443MOL0     C61026   8.697  12.230   9.370  0.1971 -0.5382 -0.7812
  443MOL0     O61027   8.597  12.283   9.301 -0.0882  0.5786  0.1390
  443MOL0     C61028   8.623  12.334   9.179 -0.0317  0.1237  0.0679
  443MOL0     C61029   8.689  12.458   9.168 -0.3535  0.2705  1.1290
  443MOL0     C61030   8.749  12.507   9.048 -0.5166  0.1365  0.2766
  443MOL0     C61031   8.737  12.422   8.939  0.0766 -0.4077 -0.6813
  443MOL0     O61032   8.795  12.456   8.825 -0.2382  0.0768  0.1305
  443MOL0     C61033   8.757  12.396   8.697  0.9079 -0.4807 -0.5813
  443MOL0     C61034   8.830  12.267   8.678 -0.6557 -0.4290 -0.5709
  443MOL0     C61035   8.981  12.275   8.678  0.4113 -0.7142 -0.9281
  443MOL0     C61036   9.043  12.149   8.629  1.2548  0.4161 -0.6780
  443MOL0     C61037   9.187  12.182   8.580  0.7516 -0.2285 -0.0742
  443MOL0     C61038   9.269  12.053   8.534  0.3345  0.3198  0.9426
  443MOL0     C61039   9.408  12.090   8.476 -0.7044  0.9357  0.1696
  443MOL0     C61040   9.482  11.977   8.404 -0.1077 -0.2489  0.5010
  443MOL0    Cl61041   9.473  11.829   8.498  0.5579  0.1720  0.5053
  443MOL0     C61042   8.660  12.308   8.947  0.2421 -0.0122  0.2113
  443MOL0     C61043   8.611  12.263   9.067  0.1418  1.3639  0.3848
  443MOL0     O61044   8.817  12.265   9.371  0.1743  0.6607  0.2988
  443MOL0     C61045   8.530  12.171   9.536  0.3507  0.2375 -0.1137
  443MOL0     C61046   8.495  12.104   9.653  0.1604 -0.0167  0.2861
  443MOL0     N61047   8.234  11.593   9.765 -0.2801 -0.1373 -0.5272
  443MOL0     N61048   8.181  11.587   9.643  0.0613 -0.0349 -0.2668
  443MOL0     C61049   7.221  10.933   9.777  0.2563  0.0001 -0.3010
  443MOL0     C61050   7.114  10.887   9.855  0.5582 -0.1141  0.6596
  443MOL0     C61051   6.881  10.584  10.138 -0.2993 -0.1479  0.4449
  443MOL0     C61052   6.868  10.446  10.176 -0.1088 -0.1553  1.5258
  443MOL0     C61053   6.766  10.409  10.250  0.1234 -0.4897  0.1015
  443MOL0     C61054   6.674  10.496  10.300  0.2095 -0.5529 -0.1421
  443MOL0     O61055   6.581  10.453  10.390 -0.3385  0.5698 -0.0928
  443MOL0     C61056   6.483  10.553  10.441  1.1449  0.7695 -0.2670
  443MOL0     C61057   6.380  10.465  10.516  0.1023 -0.4651 -0.0070
  443MOL0     C61058   6.432  10.429  10.659  0.1026  0.1577 -0.2146
  443MOL0     C61059   6.311  10.371  10.740 -0.2149  0.8044  0.3948
  443MOL0     C61060   6.361  10.308  10.862 -0.9489 -0.9575  0.1342
  443MOL0     C61061   6.413  10.250  10.959 -0.1004 -0.2925 -0.2062
  443MOL0     C61062   6.678  10.627  10.251  0.8635  0.8386  0.9588
  443MOL0     C61063   6.773  10.672  10.159  0.2271  0.0691  0.0371
  443MOL0     C61064   6.760  10.819  10.119  0.1438 -0.9017  0.3390
  443MOL0     H61065   7.284  10.650  10.016  1.5673 -0.4258 -1.1295
  443MOL0     H61066   7.438  10.699   9.855  1.4488  2.0383  2.2801
  443MOL0     H61067   7.472  11.081   9.815 -0.9757 -2.3983  0.1807
  443MOL0     H61068   7.401  11.092   9.658 -0.1318 -1.4797  0.0735
  443MOL0     H61069   7.689  11.072   9.743 -4.2132 -2.5099  1.6180
  443MOL0     H61070   7.666  11.013   9.587 -0.5126  0.3325 -0.5078
  443MOL0     H61071   7.580  11.252   9.507  2.1508  1.6750 -0.9357
  443MOL0     H61072   7.558  11.289   9.678 -1.1471  0.2299 -0.8940
  443MOL0     H61073   7.784  11.325   9.701  0.2767  0.6054  0.1113
  443MOL0     H61074   7.830  11.229   9.568  1.0093  1.0966  0.5809
  443MOL0     H61075   7.678  11.493   9.576  1.5959  2.7646 -0.0893
  443MOL0     H61076   7.724  11.413   9.417  1.1548 -0.2736  0.3804
  443MOL0     H61077   7.925  11.478   9.639  0.6219 -0.4162 -0.0775
  443MOL0     H61078   7.950  11.457   9.461 -3.3110 -2.3919 -1.9604
  443MOL0     H61079   7.808  11.703   9.581  0.8988 -0.3755  0.0886
  443MOL0     H61080   7.837  11.671   9.413 -0.8656 -2.2840 -0.1026
  443MOL0     H61081   8.067  11.668   9.425 -0.2143 -0.3261  1.9609
  443MOL0     H61082   8.020  11.821   9.489 -3.0664 -0.0952 -0.3080
  443MOL0     H61083   8.015  11.833   9.784 -1.7530 -0.3959 -1.6455
  443MOL0     H61084   8.211  11.605  10.012  0.6781  1.4174  2.1677
  443MOL0     H61085   8.072  11.715  10.016 -0.0211  1.7766  1.6502
  443MOL0     H61086   8.199  11.908  10.050  0.2627 -0.1193 -2.0723
  443MOL0     H61087   8.276  11.779  10.151  0.1179 -0.2178  0.1208
  443MOL0     H61088   8.456  11.898  10.063  0.7070  0.9817 -1.5184
  443MOL0     H61089   8.455  11.749   9.986  0.9508 -0.5563  1.8983
  443MOL0     H61090   8.342  11.899   9.786  1.2360 -0.7520 -1.1016
  443MOL0     H61091   8.382  12.028   9.895 -4.2553 -0.7982  0.0841
  443MOL0     H61092   8.754  11.897   9.713  0.0019  0.5581  1.2066
  443MOL0     H61093   8.910  11.913   9.560 -0.9203 -2.7750 -1.9987
  443MOL0     H61094   8.943  12.062   9.473 -0.6651  0.1069 -2.2877
  443MOL0     H61095   8.854  11.928   9.393  2.3127  2.1172 -1.4871
  443MOL0     H61096   8.698  12.513   9.261  1.5001  1.6510  0.1996
  443MOL0     H61097   8.808  12.595   9.024 -0.8887  0.0376 -1.0797
  443MOL0     H61098   8.647  12.397   8.696  0.8890 -0.2648 -2.5743
  443MOL0     H61099   8.793  12.466   8.622  2.0096  4.4521  3.9344
  443MOL0     H61100   8.798  12.190   8.750  0.4444  0.8605  1.3959
  443MOL0     H61101   8.791  12.239   8.580  0.0096 -1.5103 -0.5459
  443MOL0     H61102   9.015  12.290   8.781  0.3124 -0.6380 -0.9066
  443MOL0     H61103   9.007  12.369   8.628 -2.1325 -0.0761 -1.2150
  443MOL0     H61104   8.993  12.113   8.539 -1.9686  3.6526 -0.3935
  443MOL0     H61105   9.034  12.070   8.705  0.2209  4.2555  3.6311
  443MOL0     H61106   9.183  12.261   8.504 -1.4065 -1.6214 -1.5073
  443MOL0     H61107   9.242  12.221   8.666  0.0763 -1.0394  0.7265
  443MOL0     H61108   9.215  12.018   8.445  1.1278  0.4568  0.3963
  443MOL0     H61109   9.276  11.975   8.610 -0.2009  0.7892  1.4865
  443MOL0     H61110   9.476  12.135   8.549  0.7040 -0.9221  0.0778
  443MOL0     H61111   9.388  12.164   8.398 -3.3336 -0.2869 -0.4192
  443MOL0     H61112   9.581  12.024   8.396 -0.8419  1.3934  0.5422
  443MOL0     H61113   9.440  11.958   8.305  0.8643  0.5795 -0.0908
  443MOL0     H61114   8.621  12.244   8.869 -0.2045 -3.2599  2.8520
  443MOL0     H61115   8.557  12.170   9.075  1.7915  0.3692  0.4048
  443MOL0     H61116   8.458  12.242   9.495 -0.4400  2.2108  4.1618
  443MOL0     H61117   8.408  12.132   9.712  0.0504  0.2099  0.0154
  443MOL0     H61118   7.203  11.023   9.719  1.4628  2.5967  3.0087
  443MOL0     H61119   7.019  10.937   9.869  0.6820  0.5839 -0.7427
  443MOL0     H61120   6.947  10.374  10.157  0.2561  1.2998 -4.8230
  443MOL0     H61121   6.755  10.310  10.292 -1.8175 -0.3935 -0.0875
  443MOL0     H61122   6.527  10.617  10.518 -0.7442  0.9326  0.7406
  443MOL0     H61123   6.428  10.613  10.367 -0.2697  1.0291  0.9424
  443MOL0     H61124   6.350  10.380  10.454 -1.6168  0.8000 -0.9835
  443MOL0     H61125   6.296  10.535  10.522  1.1449  0.7273  1.2755
  443MOL0     H61126   6.512  10.355  10.665  0.1777  0.3413  2.3833
  443MOL0     H61127   6.467  10.514  10.718 -0.0352  1.6013 -2.1225
  443MOL0     H61128   6.280  10.279  10.690  3.1813 -2.2681  3.4122
  443MOL0     H61129   6.235  10.448  10.757 -1.5733 -0.8213  2.1826
  443MOL0     H61130   6.476  10.244  11.046 -0.1163  2.8291  0.1272
  443MOL0     H61131   6.604  10.701  10.281 -0.6155 -0.7922  1.4838
  443MOL0     H61132   6.856  10.863  10.145 -0.3461 -0.6749  1.8653
  443MOL0     H61133   6.742  10.826  10.011  0.3265 -1.5645  0.2588
  443MOL0     H61134   6.672  10.867  10.163 -0.6417 -2.0463  0.0819
  444MOL0     O61135   5.394   6.294   7.822 -0.4096  0.2561  0.2578
  444MOL0     C61136   5.349   6.185   7.795  1.0074 -0.4046  1.1747
  444MOL0     O61137   5.220   6.157   7.746 -0.0821 -1.0375 -0.4877
  444MOL0     C61138   5.112   6.241   7.751  0.0167  0.0944 -0.4051
  444MOL0     C61139   5.106   6.379   7.784  0.0876 -0.1342 -0.3361
  444MOL0     C61140   4.993   6.455   7.778 -0.0670  0.5763 -0.5210
  444MOL0     C61141   4.876   6.384   7.750 -0.6974  1.4199  0.4742
  444MOL0     O61142   4.755   6.439   7.759 -0.0370  0.1616 -0.6975
  444MOL0     C61143   4.733   6.521   7.876  0.0798  0.2296 -0.1261
  444MOL0     C61144   4.582   6.553   7.881  0.7482  0.2327 -0.2884
  444MOL0     C61145   4.508   6.599   7.753  0.2646  0.4862 -0.4330
  444MOL0     C61146   4.554   6.738   7.720 -1.1068 -0.9052  0.5816
  444MOL0     C61147   4.444   6.812   7.647 -0.4060  0.1011  0.1968
  444MOL0     C61148   4.463   6.963   7.616 -0.6934 -0.3376 -0.0387
  444MOL0     C61149   4.342   7.017   7.539  0.0461 -0.1252 -0.3596
  444MOL0     C61150   4.366   7.165   7.486  0.4580  0.0937 -0.1440
  444MOL0     N61151   4.248   7.222   7.420 -0.1164 -0.0780 -0.4104
  444MOL0     C61152   4.190   7.342   7.451 -0.8352 -0.2217  0.2785
  444MOL0     C61153   4.070   7.354   7.376 -1.1215  0.2863  1.6215
  444MOL0     C61154   3.971   7.461   7.369 -0.1302 -0.3241 -0.3464
  444MOL0     C61155   3.859   7.447   7.262 -0.5061 -0.4251 -0.1244
  444MOL0     C61156   3.762   7.348   7.318 -0.7704 -0.1887 -0.2165
  444MOL0     C61157   3.622   7.351   7.256 -0.0026  0.8172 -0.5249
  444MOL0     O61158   3.546   7.470   7.233  0.2588 -0.2970 -0.1206
  444MOL0     C61159   3.432   7.476   7.152 -0.3152 -1.2210  0.3042
  444MOL0     C61160   3.355   7.595   7.144 -1.2078  0.5310 -0.3924
  444MOL0     C61161   3.237   7.601   7.070  0.2046 -0.2438  0.0939
  444MOL0     C61162   3.175   7.739   7.059 -0.5567  0.2075 -0.6064
  444MOL0     C61163   3.191   7.486   6.997 -0.6095 -0.4591 -0.9902
  444MOL0     C61164   3.074   7.481   6.904 -0.2233  0.0305 -0.1720
  444MOL0     O61165   3.086   7.394   6.803 -0.0187  0.5661 -0.4889
  444MOL0     C61166   2.996   7.392   6.696 -0.2476  0.0745 -0.3619
  444MOL0     C61167   2.983   7.503   6.611  0.1637  0.0361 -0.0144
  444MOL0     C61168   2.893   7.505   6.496 -0.1229  0.0916  0.6201
  444MOL0     C61169   2.813   7.393   6.476 -0.4130  0.5715 -0.0665
  444MOL0     O61170   2.725   7.380   6.372 -0.3105 -0.3025  0.2977
  444MOL0     C61171   2.727   7.467   6.258 -0.4594 -0.6978  0.6921
  444MOL0     C61172   2.614   7.424   6.171  0.1208  0.1014 -0.5190
  444MOL0     C61173   2.490   7.498   6.202 -0.2415  0.6949 -0.3740
  444MOL0     C61174   2.366   7.450   6.105 -0.1814 -0.0870 -0.6102
  444MOL0     C61175   2.240   7.500   6.180 -0.8688  0.5192  0.1434
  444MOL0     C61176   2.106   7.467   6.111 -0.6621  0.0876  0.4717
  444MOL0     C61177   2.083   7.539   5.975  1.1268  0.0165 -0.9745
  444MOL0     C61178   1.941   7.543   5.932 -0.6138  0.5155  0.9410
  444MOL0    Cl61179   1.835   7.622   6.046 -0.2061 -0.2719  0.4052
  444MOL0     C61180   2.823   7.281   6.568 -0.1182 -0.0384 -1.0156
  444MOL0     C61181   2.906   7.289   6.681  0.0839 -0.2156 -0.4478
  444MOL0     O61182   2.972   7.549   6.923 -0.6809 -0.3664 -0.9327
  444MOL0     C61183   3.269   7.366   7.009 -0.0723 -0.7343 -0.5594
  444MOL0     C61184   3.383   7.363   7.090  0.2724  0.2587 -0.2033
  444MOL0     N61185   4.064   7.241   7.302 -0.1590  0.6608 -0.0674
  444MOL0     N61186   4.164   7.160   7.327  0.4674  0.3964  0.7986
  444MOL0     C61187   4.877   6.249   7.711 -0.2267  0.3711  0.5138
  444MOL0     C61188   4.996   6.174   7.712 -0.0699 -0.5313  0.0095
  444MOL0     C61189   5.429   6.066   7.819 -0.6942 -0.1189  0.1787
  444MOL0     C61190   5.511   6.060   7.938  0.1039  0.1050  0.5467
  444MOL0     C61191   5.572   5.940   7.979  0.3522 -0.0172 -0.8238
  444MOL0     C61192   5.543   5.826   7.908  0.0482  0.0985 -0.0906
  444MOL0     O61193   5.584   5.717   7.986  0.4228  0.5078 -0.4453
  444MOL0     C61194   5.573   5.583   7.931  0.0193  0.1185 -0.2338
  444MOL0     C61195   5.438   5.532   7.935  0.2654  0.1545 -0.4808
  444MOL0     C61196   5.414   5.468   8.071  0.2528  0.0865 -0.2990
  444MOL0     C61197   5.263   5.463   8.100  0.2039 -0.0306 -0.0858
  444MOL0     C61198   5.191   5.390   7.995  0.2910  0.4950  1.0550
  444MOL0     C61199   5.128   5.333   7.905 -0.4840  0.1514 -0.4425
  444MOL0     C61200   5.487   5.832   7.779  0.7869 -0.5172  0.2071
  444MOL0     C61201   5.434   5.950   7.732  0.0250 -1.0133  0.2099
  444MOL0     C61202   5.378   5.950   7.592 -0.0008  0.5279 -0.4667
  444MOL0     H61203   5.200   6.425   7.814  0.8955 -0.8043 -1.6896
  444MOL0     H61204   5.015   6.558   7.807  0.2826  0.0368  1.2443
  444MOL0     H61205   4.777   6.621   7.864  0.9689 -0.0442  0.6610
  444MOL0     H61206   4.756   6.484   7.977  2.2977  4.0587  0.9879
  444MOL0     H61207   4.531   6.462   7.912  0.1325  1.1098  1.4544
  444MOL0     H61208   4.560   6.624   7.962 -1.7720  0.8836 -1.4385
  444MOL0     H61209   4.544   6.523   7.684  0.5016 -0.7531  0.9863
  444MOL0     H61210   4.400   6.587   7.765  0.5219 -1.2023  0.5689
  444MOL0     H61211   4.572   6.793   7.812  0.4875  1.7471 -1.1679
  444MOL0     H61212   4.641   6.734   7.653 -0.3706  1.3700  1.3130
  444MOL0     H61213   4.350   6.805   7.703  0.5501 -2.4621  1.6708
  444MOL0     H61214   4.431   6.746   7.560 -0.2741  2.5179 -1.7568
  444MOL0     H61215   4.483   7.018   7.708 -0.7326 -0.4351  0.0276
  444MOL0     H61216   4.547   6.995   7.552  0.6067  2.7996  2.9140
  444MOL0     H61217   4.245   7.007   7.589  0.4711 -0.4084  0.4161
  444MOL0     H61218   4.346   6.962   7.444  0.9918 -1.8354  0.6377
  444MOL0     H61219   4.401   7.230   7.566  0.9190 -0.3943  0.0596
  444MOL0     H61220   4.447   7.149   7.413  0.8608 -0.0021  0.3182
  444MOL0     H61221   4.240   7.407   7.522 -1.3559  0.7030 -0.1717
  444MOL0     H61222   4.029   7.549   7.338  1.0854  0.5355  3.7766
  444MOL0     H61223   3.935   7.471   7.472  0.4119  0.8849 -0.2496
  444MOL0     H61224   3.814   7.546   7.249  0.4825 -0.0081 -0.5327
  444MOL0     H61225   3.907   7.422   7.167 -0.0659 -3.0866  0.7248
  444MOL0     H61226   3.810   7.250   7.323  2.0687  1.0671 -0.5380
  444MOL0     H61227   3.750   7.377   7.423 -1.9363  0.4826 -0.5267
  444MOL0     H61228   3.648   7.313   7.156 -2.5475 -1.8491 -0.3351
  444MOL0     H61229   3.545   7.294   7.310  1.6840  0.5838  1.7790
  444MOL0     H61230   3.402   7.685   7.182 -2.3078  0.7521  0.5091
  444MOL0     H61231   3.144   7.758   6.956 -0.8162  1.0713 -0.3836
  444MOL0     H61232   3.244   7.818   7.092  0.3338 -0.2303 -1.3622
  444MOL0     H61233   3.092   7.737   7.129 -0.7448  1.3446 -0.7668
  444MOL0     H61234   3.043   7.589   6.639  1.0223 -0.8829  1.1086
  444MOL0     H61235   2.894   7.598   6.441  1.8488 -1.6547 -2.5709
  444MOL0     H61236   2.711   7.574   6.270 -1.3020 -0.7051 -0.2543
  444MOL0     H61237   2.824   7.454   6.209 -1.6990 -1.0030 -1.8410
  444MOL0     H61238   2.638   7.443   6.066  3.4328  1.0490  0.2847
  444MOL0     H61239   2.593   7.317   6.179  2.1281 -0.1889  3.0462
  444MOL0     H61240   2.518   7.603   6.185  0.4150  0.4204 -1.0267
  444MOL0     H61241   2.454   7.496   6.306 -1.0072  1.7487 -0.6022
  444MOL0     H61242   2.363   7.342   6.086 -0.1108 -0.0257 -0.9790
  444MOL0     H61243   2.383   7.505   6.012 -1.1370 -3.2422 -2.8525
  444MOL0     H61244   2.239   7.449   6.277 -1.6836 -0.0969 -0.1781
  444MOL0     H61245   2.240   7.609   6.191 -0.4753  0.4418  1.0107
  444MOL0     H61246   2.026   7.497   6.179  0.2167 -2.0031  2.5424
  444MOL0     H61247   2.099   7.364   6.076  0.8644 -0.1520  0.8043
  444MOL0     H61248   2.148   7.497   5.898 -0.0892 -1.4090 -1.2823
  444MOL0     H61249   2.105   7.645   5.989 -0.7415  0.2229  0.9005
  444MOL0     H61250   1.892   7.450   5.904 -0.6565  1.2924 -1.9256
  444MOL0     H61251   1.941   7.607   5.843  0.5122 -1.0655 -0.2503
  444MOL0     H61252   2.759   7.194   6.557 -0.4411 -0.0596  0.7082
  444MOL0     H61253   2.917   7.201   6.742  0.7372 -0.5751 -1.0661
  444MOL0     H61254   3.246   7.273   6.958 -0.7197 -1.6467  1.2955
  444MOL0     H61255   3.429   7.266   7.107 -0.2285  0.3931  2.1762
  444MOL0     H61256   4.783   6.204   7.680 -1.5573  1.2715  3.0101
  444MOL0     H61257   5.003   6.070   7.683  0.3374  0.1465 -2.5442
  444MOL0     H61258   5.527   6.152   7.994 -0.4291  0.5867 -0.0768
  444MOL0     H61259   5.627   5.936   8.072 -2.9217 -2.1072  1.2080
  444MOL0     H61260   5.597   5.580   7.824  1.1108  0.9021 -0.0327
  444MOL0     H61261   5.635   5.507   7.979 -0.1259 -0.9360 -1.6619
  444MOL0     H61262   5.414   5.465   7.851  1.2241  0.3716 -0.9505
  444MOL0     H61263   5.365   5.613   7.926 -0.5095 -0.6411 -1.7159
  444MOL0     H61264   5.459   5.370   8.087 -1.6102 -0.6671  0.5926
  444MOL0     H61265   5.462   5.529   8.147  0.3087 -1.0124  0.5682
  444MOL0     H61266   5.210   5.558   8.109  0.3879  0.0134  0.6213
  444MOL0     H61267   5.235   5.401   8.186  0.6522  0.0976  0.1553
  444MOL0     H61268   5.073   5.271   7.837 -1.9896 -1.2562  1.8882
  444MOL0     H61269   5.473   5.748   7.711  2.5064 -0.8685  0.2597
  444MOL0     H61270   5.353   6.048   7.552 -0.9569 -0.4922 -2.5474
  444MOL0     H61271   5.438   5.895   7.519  0.9539 -0.8507  1.2522
  444MOL0     H61272   5.283   5.895   7.601  1.2071 -1.4937  0.8026
  445MOL0     O61273  10.849   6.393   2.717  0.8253  0.3045  0.3085
  445MOL0     C61274  10.820   6.277   2.696 -0.3394  0.6162 -0.7732
  445MOL0     O61275  10.903   6.177   2.639 -0.5193 -0.4557 -0.0216
  445MOL0     C61276  11.033   6.227   2.599  0.2243  0.4145 -0.5238
  445MOL0     C61277  11.146   6.234   2.685  0.1178  0.6514 -0.4998
  445MOL0     C61278  11.263   6.303   2.643  0.0084  0.7357 -0.1085
  445MOL0     C61279  11.270   6.354   2.520 -0.3072 -0.8223  0.2960
  445MOL0     O61280  11.396   6.406   2.479  0.1734 -0.2906  0.4228
  445MOL0     C61281  11.439   6.402   2.351 -0.7591  0.2002 -1.0343
  445MOL0     C61282  11.574   6.477   2.360 -0.3892  0.1840  0.0102
  445MOL0     C61283  11.672   6.427   2.257  0.0895 -0.2708  0.5824
  445MOL0     C61284  11.741   6.298   2.309 -0.4727 -0.3455  0.4163
  445MOL0     C61285  11.838   6.227   2.219 -0.9518 -0.4461 -0.2473
  445MOL0     C61286  11.797   6.210   2.074  0.6506  0.4583 -0.1739
  445MOL0     C61287  11.668   6.141   2.048  1.1078  0.7936  0.0711
  445MOL0     C61288  11.652   6.085   1.906 -0.0528  0.8907  0.3111
  445MOL0     N61289  11.510   6.047   1.890 -0.9090  0.4214  0.7639
  445MOL0     C61290  11.405   6.116   1.845 -0.2443 -0.1445  0.5493
  445MOL0     C61291  11.303   6.024   1.818  0.0593 -0.1032 -0.0561
  445MOL0     C61292  11.166   6.065   1.767  0.0500 -0.8724 -0.9215
  445MOL0     C61293  11.125   6.009   1.631 -0.4091  0.0431  0.6201
  445MOL0     C61294  11.017   5.904   1.650  0.9783 -0.6262 -0.1155
  445MOL0     C61295  10.930   5.889   1.530  0.5598  0.7090 -0.7643
  445MOL0     O61296  10.859   6.012   1.504  0.2962  0.0451  0.0529
  445MOL0     C61297  10.736   5.990   1.439 -0.4188 -0.2840  0.3284
  445MOL0     C61298  10.647   6.097   1.442  0.7842 -0.3881 -0.1139
  445MOL0     C61299  10.522   6.094   1.386  0.8491 -0.1618  0.4007
  445MOL0     C61300  10.431   6.210   1.408  0.6722 -0.2161 -0.4465
  445MOL0     C61301  10.479   5.973   1.323 -0.8337 -0.0929  0.7732
  445MOL0     C61302  10.351   5.946   1.249 -0.2848 -0.3980  0.0565
  445MOL0     O61303  10.332   5.829   1.177  0.1851 -0.2256  0.5098
  445MOL0     C61304  10.209   5.801   1.126 -0.8839 -0.7699 -0.2512
  445MOL0     C61305  10.226   5.716   1.016 -0.8611  0.3462  0.3224
  445MOL0     C61306  10.115   5.673   0.948  0.0502 -0.8506  0.4051
  445MOL0     C61307   9.990   5.715   0.982  0.3884 -0.8535 -0.8732
  445MOL0     O61308   9.883   5.672   0.898 -0.0465 -0.3886  0.0066
  445MOL0     C61309   9.759   5.720   0.934 -0.3833  0.6199  0.2549
  445MOL0     C61310   9.646   5.659   0.849 -0.5613  0.5769 -1.5370
  445MOL0     C61311   9.559   5.564   0.931 -1.1861 -0.8435 -0.2866
  445MOL0     C61312   9.433   5.530   0.859  1.0068  0.5936  0.1688
  445MOL0     C61313   9.336   5.473   0.971 -0.3750 -0.3330  0.2736
  445MOL0     C61314   9.238   5.370   0.914 -0.0096  0.0501  1.4717
  445MOL0     C61315   9.137   5.341   1.026  0.3450 -0.1496  0.0794
  445MOL0     C61316   9.043   5.232   0.970 -0.0384 -0.0458 -0.0646
  445MOL0    Cl61317   8.916   5.309   0.863  0.0592 -0.0247 -0.2713
  445MOL0     C61318   9.973   5.808   1.090 -0.8230 -0.4262 -0.8776
  445MOL0     C61319  10.087   5.841   1.170  0.5496  0.0350  0.2805
  445MOL0     O61320  10.280   6.042   1.241  0.8044  0.0387  0.1910
  445MOL0     C61321  10.576   5.868   1.311 -0.2180 -0.3744 -0.0895
  445MOL0     C61322  10.703   5.888   1.356  0.2391 -0.5058 -0.1651
  445MOL0     N61323  11.360   5.899   1.858 -0.3801  0.2288 -0.2672
  445MOL0     N61324  11.481   5.913   1.902  0.5532 -0.4044 -0.3103
  445MOL0     C61325  11.162   6.346   2.431 -0.2815 -0.1412  0.4723
  445MOL0     C61326  11.045   6.273   2.469 -0.4250 -0.4105 -1.2633
  445MOL0     C61327  10.681   6.241   2.709  0.2667  0.4480  0.1188
  445MOL0     C61328  10.590   6.318   2.625 -0.7491 -0.6035 -0.9886
  445MOL0     C61329  10.463   6.285   2.626 -0.5344 -0.4364 -0.6842
  445MOL0     C61330  10.413   6.177   2.703 -0.7069  0.1435  0.5774
  445MOL0     O61331  10.282   6.147   2.724 -0.7897 -0.6125 -0.3601
  445MOL0     C61332  10.196   6.182   2.614 -0.6718 -0.1562 -0.6314
  445MOL0     C61333  10.056   6.119   2.635  0.1395  0.0658  0.2711
  445MOL0     C61334   9.954   6.161   2.529  0.5184 -0.4408  0.2435
  445MOL0     C61335   9.832   6.071   2.518 -0.1651  0.0262 -0.0874
  445MOL0     C61336   9.726   6.131   2.435 -0.6999 -1.3704  0.0814
  445MOL0     C61337   9.634   6.181   2.370  0.3198  0.1158 -0.7199
  445MOL0     C61338  10.496   6.113   2.791  0.2306 -0.1416 -0.1890
  445MOL0     C61339  10.634   6.136   2.785  0.1638  0.5194 -0.3858
  445MOL0     C61340  10.725   6.074   2.890  0.7480  0.0590  0.1550
  445MOL0     H61341  11.136   6.205   2.790  0.0725  0.1716 -0.6332
  445MOL0     H61342  11.351   6.307   2.707 -2.0559  0.6886  2.9099
  445MOL0     H61343  11.369   6.456   2.287  0.1124  2.4879 -0.1595
  445MOL0     H61344  11.456   6.298   2.319 -2.6976 -0.1072 -1.1704
  445MOL0     H61345  11.558   6.580   2.329 -3.3980 -0.3665 -0.5960
  445MOL0     H61346  11.615   6.476   2.461 -3.2884  2.9525  1.3719
  445MOL0     H61347  11.616   6.390   2.170  3.7240 -2.4521 -1.0757
  445MOL0     H61348  11.738   6.506   2.221 -0.8912  0.1212 -0.4137
  445MOL0     H61349  11.789   6.301   2.407 -1.7738 -1.1174  1.1066
  445MOL0     H61350  11.659   6.228   2.329  0.6236 -2.5896 -2.2140
  445MOL0     H61351  11.862   6.128   2.259 -0.7069 -0.3950 -0.2674
  445MOL0     H61352  11.934   6.279   2.215  0.1402 -2.4519 -1.6198
  445MOL0     H61353  11.799   6.312   2.034 -0.1048  0.5776  0.0793
  445MOL0     H61354  11.865   6.151   2.012  0.2920 -1.3397  1.0670
  445MOL0     H61355  11.579   6.203   2.060 -0.1192 -0.5357 -1.6319
  445MOL0     H61356  11.659   6.054   2.114 -0.7710 -1.2528 -2.6786
  445MOL0     H61357  11.682   6.164   1.836 -0.3284 -0.0204 -0.8781
  445MOL0     H61358  11.723   6.006   1.882 -1.7666 -0.4119 -0.7335
  445MOL0     H61359  11.408   6.220   1.815  3.3093 -0.8232 -2.0833
  445MOL0     H61360  11.162   6.174   1.764  1.9740 -0.6436  1.5911
  445MOL0     H61361  11.117   6.016   1.852 -0.4991 -0.8468 -1.2208
  445MOL0     H61362  11.106   6.095   1.567 -0.8400  1.1125  2.1272
  445MOL0     H61363  11.207   5.957   1.579 -0.8355  1.5098 -1.6824
  445MOL0     H61364  11.059   5.804   1.664  1.5408 -0.5742 -1.2605
  445MOL0     H61365  10.964   5.926   1.743  1.0530 -0.8365 -0.0223
  445MOL0     H61366  10.993   5.861   1.445 -1.3479 -5.3833 -0.5999
  445MOL0     H61367  10.865   5.804   1.552  1.9131  0.2031  1.7507
  445MOL0     H61368  10.687   6.187   1.489 -0.5682 -0.5918  1.5405
  445MOL0     H61369  10.337   6.179   1.455  0.0001 -2.9287 -3.2920
  445MOL0     H61370  10.418   6.277   1.322  1.2786  0.9488  0.3334
  445MOL0     H61371  10.479   6.282   1.476  1.4136 -1.9954  0.9912
  445MOL0     H61372  10.326   5.688   0.987 -0.2616  1.8166  0.8857
  445MOL0     H61373  10.130   5.604   0.865  0.0819 -2.7845  1.9415
  445MOL0     H61374   9.740   5.710   1.042  2.9212 -0.1342  0.8685
  445MOL0     H61375   9.749   5.825   0.904  2.7625  1.2481  1.0990
  445MOL0     H61376   9.579   5.736   0.808 -0.5339  1.5508  0.1755
  445MOL0     H61377   9.692   5.602   0.768  1.8273  1.3892 -0.8374
  445MOL0     H61378   9.540   5.607   1.030  0.0196 -1.4321  0.2180
  445MOL0     H61379   9.615   5.474   0.957 -0.6352 -0.8701 -1.4946
  445MOL0     H61380   9.453   5.467   0.772 -4.1213 -1.4680  0.1360
  445MOL0     H61381   9.393   5.624   0.821 -2.5912 -0.7342  0.3544
  445MOL0     H61382   9.382   5.421   1.056  1.9088 -0.7958 -1.1594
  445MOL0     H61383   9.277   5.556   1.011 -1.3216 -0.7291 -0.2742
  445MOL0     H61384   9.295   5.286   0.873 -1.0099 -0.5584  1.2862
  445MOL0     H61385   9.193   5.414   0.825 -0.1701  0.9308  1.9818
  445MOL0     H61386   9.073   5.424   1.055 -0.0050 -0.6136  0.6607
  445MOL0     H61387   9.186   5.308   1.118 -1.0748 -3.2926 -0.1572
  445MOL0     H61388   8.993   5.174   1.049 -1.0002 -0.7751 -1.1739
  445MOL0     H61389   9.091   5.166   0.897 -1.0053  0.8953 -1.5946
  445MOL0     H61390   9.879   5.846   1.127 -0.8634 -1.3183 -0.0385
  445MOL0     H61391  10.072   5.905   1.257 -0.6975 -0.0260  0.1347
  445MOL0     H61392  10.550   5.775   1.262 -3.0554  1.9511 -3.5305
  445MOL0     H61393  10.774   5.809   1.335  0.0350 -0.6761 -0.2151
  445MOL0     H61394  11.169   6.390   2.332  3.5966 -1.0684  0.1912
  445MOL0     H61395  10.955   6.249   2.413 -1.1454 -1.8746  0.4046
  445MOL0     H61396  10.621   6.402   2.563 -1.0350 -1.0566 -1.7493
  445MOL0     H61397  10.399   6.348   2.565  0.6023  0.3125 -1.1491
  445MOL0     H61398  10.191   6.291   2.604  0.5023 -0.1717 -1.5093
  445MOL0     H61399  10.239   6.163   2.516 -0.5398  2.2405 -1.1014
  445MOL0     H61400  10.023   6.137   2.738  0.1955  0.0019  0.2998
  445MOL0     H61401  10.066   6.010   2.635 -0.7774 -0.0696 -1.9911
  445MOL0     H61402   9.919   6.258   2.566  1.6200 -0.1265  0.5188
  445MOL0     H61403  10.005   6.168   2.433  1.3749 -0.4528  0.6792
  445MOL0     H61404   9.799   6.039   2.617 -2.9212  0.3553 -0.8282
  445MOL0     H61405   9.854   5.977   2.467 -2.9901 -0.6380 -0.2328
  445MOL0     H61406   9.552   6.231   2.323  0.5489 -0.0801 -1.3473
  445MOL0     H61407  10.451   6.033   2.849 -0.9369  0.4348 -0.2561
  445MOL0     H61408  10.790   5.999   2.844 -0.5203 -0.2984 -1.1285
  445MOL0     H61409  10.801   6.144   2.927  0.4723  0.5645 -0.2359
  445MOL0     H61410  10.656   6.024   2.959 -1.9393  0.3438 -2.1276
  446MOL0     O61411   1.644   9.072   8.145  0.1400 -1.2800 -0.1181
  446MOL0     C61412   1.580   9.139   8.220  0.3528  0.6224 -0.3681
  446MOL0     O61413   1.497   9.250   8.191  0.8571  0.8621 -0.5379
  446MOL0     C61414   1.496   9.326   8.071 -0.3744  0.8344  0.1104
  446MOL0     C61415   1.536   9.283   7.944 -0.6438  0.7109 -0.8686
  446MOL0     C61416   1.534   9.362   7.835 -1.1741  0.2035 -0.2632
  446MOL0     C61417   1.481   9.488   7.840 -0.1085 -0.2228 -0.0456
  446MOL0     O61418   1.508   9.565   7.729  0.7382 -0.1139  0.2338
  446MOL0     C61419   1.441   9.691   7.725  0.3174  0.1253 -1.1872
  446MOL0     C61420   1.468   9.763   7.597  0.5758  1.3208 -0.0622
  446MOL0     C61421   1.542   9.665   7.488 -0.0091  0.0257 -1.6753
  446MOL0     C61422   1.586   9.745   7.369 -0.3070  0.9699  1.1416
  446MOL0     C61423   1.662   9.666   7.265  0.0294 -0.4951  0.1224
  446MOL0     C61424   1.704   9.757   7.149  0.0881  0.3866  0.0965
  446MOL0     C61425   1.797   9.680   7.060  0.4278 -0.4342  0.2461
  446MOL0     C61426   1.933   9.641   7.108 -0.1837 -0.1670 -0.0486
  446MOL0     N61427   2.037   9.629   7.008 -0.0607  0.7421 -0.2927
  446MOL0     C61428   2.060   9.504   6.943 -0.0282  0.1793  0.4499
  446MOL0     C61429   2.187   9.525   6.898 -0.4439  0.3758  0.5107
  446MOL0     C61430   2.277   9.418   6.836  0.1380 -0.6738 -0.4809
  446MOL0     C61431   2.345   9.325   6.944  0.0808 -0.4052  0.1029
  446MOL0     C61432   2.480   9.380   7.002  0.2475 -0.5426  0.3399
  446MOL0     C61433   2.529   9.310   7.132 -0.3198 -0.3162 -0.4373
  446MOL0     O61434   2.564   9.171   7.105 -0.0003 -0.0507  0.2043
  446MOL0     C61435   2.696   9.148   7.077 -0.1512  1.2314  1.3400
  446MOL0     C61436   2.737   9.174   6.942 -0.4597  0.0778  0.3080
  446MOL0     C61437   2.873   9.157   6.901  0.9704  0.3316 -0.8400
  446MOL0     C61438   2.915   9.208   6.761  1.1016 -0.1700  0.6134
  446MOL0     C61439   2.958   9.099   6.992 -0.6336  0.1756  0.5658
  446MOL0     C61440   3.101   9.076   6.948  0.1296 -0.0985 -0.2418
  446MOL0     O61441   3.179   9.191   6.963  0.1955 -0.8427 -0.4542
  446MOL0     C61442   3.305   9.185   6.911 -0.1476  0.1778 -0.9858
  446MOL0     C61443   3.328   9.265   6.797  0.1143  0.4225 -0.3280
  446MOL0     C61444   3.462   9.283   6.752 -0.2051 -0.2752  0.0475
  446MOL0     C61445   3.565   9.231   6.826 -0.0705  0.1304 -0.6568
  446MOL0     O61446   3.688   9.263   6.786 -0.6668 -0.8115  0.2403
  446MOL0     C61447   3.812   9.199   6.823 -0.0349  0.0927  0.0599
  446MOL0     C61448   3.916   9.267   6.750 -0.0336  0.0221  0.2563
  446MOL0     C61449   4.058   9.243   6.798  0.7848  0.3553  0.2579
  446MOL0     C61450   4.158   9.309   6.708  0.2833 -0.3544  0.1766
  446MOL0     C61451   4.170   9.466   6.732 -0.5236 -0.0585 -0.5018
  446MOL0     C61452   4.258   9.528   6.624 -0.7983  0.2450  0.1235
  446MOL0     C61453   4.400   9.464   6.621 -0.2443  0.6832 -0.1074
  446MOL0     C61454   4.493   9.565   6.562  0.1438 -0.1181 -0.1896
  446MOL0    Cl61455   4.521   9.711   6.657 -0.6281  0.1049 -0.0572
  446MOL0     C61456   3.541   9.152   6.940 -0.6812  0.6822 -0.6564
  446MOL0     C61457   3.408   9.122   6.976  0.0647 -0.8238  1.0364
  446MOL0     O61458   3.138   8.971   6.897  0.6746  0.5340  0.0806
  446MOL0     C61459   2.916   9.069   7.124 -0.4994  0.6591  1.0320
  446MOL0     C61460   2.785   9.106   7.170 -0.8889  0.2681  0.7865
  446MOL0     N61461   2.225   9.655   6.924  0.7537 -0.8379 -0.8249
  446MOL0     N61462   2.140   9.708   7.008 -0.0566 -0.1695 -0.2276
  446MOL0     C61463   1.434   9.535   7.967  0.0181 -0.0569 -0.1300
  446MOL0     C61464   1.441   9.452   8.080  0.5078 -0.4622  0.2690
  446MOL0     C61465   1.571   9.085   8.358 -0.1449  1.4925 -0.5082
  446MOL0     C61466   1.513   9.162   8.460 -0.3324 -0.2556  0.7756
  446MOL0     C61467   1.500   9.125   8.591 -0.0172  0.0756 -0.3725
  446MOL0     C61468   1.541   8.993   8.623  1.1071 -0.6795  0.1820
  446MOL0     O61469   1.540   8.948   8.750 -0.3650  0.3140 -0.3864
  446MOL0     C61470   1.409   8.894   8.791  0.3583 -0.1028 -0.1587
  446MOL0     C61471   1.419   8.792   8.903 -0.0920 -0.8199 -1.1429
  446MOL0     C61472   1.506   8.679   8.880 -0.2743  0.3363  0.0254
  446MOL0     C61473   1.498   8.569   8.990 -0.2211  0.0499  0.1284
  446MOL0     C61474   1.565   8.613   9.113 -0.0540 -0.0274 -0.2488
  446MOL0     C61475   1.620   8.638   9.218  0.6610  0.3253  0.2285
  446MOL0     C61476   1.608   8.914   8.526  0.4441 -0.6101 -0.1542
  446MOL0     C61477   1.614   8.951   8.391  0.4067  0.5203  0.4676
  446MOL0     C61478   1.674   8.839   8.308  0.1177 -0.3379 -0.4300
  446MOL0     H61479   1.591   9.189   7.941  1.5496  1.9185 -3.4114
  446MOL0     H61480   1.587   9.335   7.744  0.3341  0.8826  0.3825
  446MOL0     H61481   1.475   9.754   7.808 -0.5640 -1.0468  0.0941
  446MOL0     H61482   1.334   9.671   7.728  0.2012  0.5610  2.4175
  446MOL0     H61483   1.373   9.805   7.563 -0.2741 -1.1243 -0.9287
  446MOL0     H61484   1.531   9.850   7.616  1.1542  0.9641 -0.3105
  446MOL0     H61485   1.627   9.610   7.528 -0.9857 -1.3613 -1.4462
  446MOL0     H61486   1.474   9.584   7.461  1.8012 -1.6161 -1.4841
  446MOL0     H61487   1.501   9.793   7.320  2.7414  2.8119 -3.0177
  446MOL0     H61488   1.651   9.823   7.408 -1.3268  1.1787  2.4852
  446MOL0     H61489   1.602   9.584   7.227  2.3122 -3.3817  2.2532
  446MOL0     H61490   1.738   9.609   7.320 -1.2893 -4.5153 -1.8787
  446MOL0     H61491   1.618   9.782   7.087 -0.2399 -3.2737 -1.1805
  446MOL0     H61492   1.747   9.852   7.182  1.7739 -0.1620 -0.4291
  446MOL0     H61493   1.822   9.746   6.976  0.3510  1.5720  1.7471
  446MOL0     H61494   1.741   9.590   7.033 -1.4827  0.6934  0.1980
  446MOL0     H61495   1.962   9.721   7.176  1.4611 -1.1880  0.5157
  446MOL0     H61496   1.936   9.553   7.172 -0.5219 -0.3277 -0.2488
  446MOL0     H61497   1.999   9.415   6.936  0.9316 -0.4035 -0.7676
  446MOL0     H61498   2.360   9.461   6.779 -0.2570 -0.3933 -0.8505
  446MOL0     H61499   2.217   9.361   6.764  1.1055  0.6685 -2.4397
  446MOL0     H61500   2.270   9.323   7.024  0.1356 -1.5564  0.1486
  446MOL0     H61501   2.360   9.220   6.916  0.1344 -0.3150 -0.2121
  446MOL0     H61502   2.561   9.382   6.928 -0.2592 -0.8007 -0.2302
  446MOL0     H61503   2.459   9.481   7.039  1.6172 -0.8017  1.9227
  446MOL0     H61504   2.617   9.366   7.166 -0.2260 -0.2876 -0.7217
  446MOL0     H61505   2.450   9.316   7.207  0.5740  1.7730  0.4191
  446MOL0     H61506   2.655   9.205   6.877 -2.3573 -2.4877  1.3218
  446MOL0     H61507   3.017   9.248   6.766  0.8625  0.3296  1.6766
  446MOL0     H61508   2.835   9.276   6.732 -0.0794 -1.7853 -0.0936
  446MOL0     H61509   2.901   9.116   6.702 -1.2993  0.2127  0.5131
  446MOL0     H61510   3.230   9.305   6.770 -2.2467 -2.3291  3.3172
  446MOL0     H61511   3.473   9.334   6.657 -2.2950 -0.6772 -0.4652
  446MOL0     H61512   3.851   9.212   6.925  2.3509 -1.4728 -0.5781
  446MOL0     H61513   3.811   9.092   6.804  0.4378 -0.3420  2.1689
  446MOL0     H61514   3.928   9.255   6.642  3.9744  2.1159  0.2702
  446MOL0     H61515   3.897   9.374   6.764  0.2520  0.1986 -0.6406
  446MOL0     H61516   4.071   9.140   6.833 -1.4701 -0.1912 -0.4072
  446MOL0     H61517   4.065   9.297   6.893 -2.5720  0.5698  0.5063
  446MOL0     H61518   4.146   9.296   6.600 -0.5893  3.3250 -0.3138
  446MOL0     H61519   4.255   9.266   6.735  0.7987  0.7221  0.1371
  446MOL0     H61520   4.072   9.515   6.729  0.4802  1.9835 -2.1738
  446MOL0     H61521   4.202   9.486   6.835  1.2899  0.5055 -1.1465
  446MOL0     H61522   4.266   9.635   6.647  1.4489 -0.0911  1.1361
  446MOL0     H61523   4.213   9.512   6.525 -1.6205 -1.8526  0.7887
  446MOL0     H61524   4.399   9.379   6.553  2.0004  1.9252 -1.8015
  446MOL0     H61525   4.441   9.436   6.719 -0.2061 -1.2202 -0.6189
  446MOL0     H61526   4.455   9.591   6.463 -3.4758  0.1868  1.1428
  446MOL0     H61527   4.590   9.519   6.539  0.2274 -0.5636  0.9637
  446MOL0     H61528   3.619   9.108   7.002 -1.7222 -0.9655 -0.4573
  446MOL0     H61529   3.384   9.061   7.062 -1.5556 -1.8558 -0.0919
  446MOL0     H61530   2.994   9.045   7.196  0.1008  1.7799  0.7835
  446MOL0     H61531   2.770   9.092   7.276 -0.8145 -2.3330  0.5222
  446MOL0     H61532   1.398   9.633   7.995  2.6577  0.4289  2.0355
  446MOL0     H61533   1.404   9.481   8.178  2.8696 -0.7289  1.2954
  446MOL0     H61534   1.465   9.259   8.448 -2.8394 -1.6394 -1.6246
  446MOL0     H61535   1.468   9.192   8.669 -2.3968  0.8448 -1.9045
  446MOL0     H61536   1.350   8.981   8.819 -0.7467  0.5069 -3.8678
  446MOL0     H61537   1.355   8.848   8.709 -2.1761  4.4125 -1.3547
  446MOL0     H61538   1.317   8.758   8.928  0.8101 -1.8413  1.5298
  446MOL0     H61539   1.459   8.836   8.995  0.1900 -3.2048 -0.0300
  446MOL0     H61540   1.465   8.631   8.791 -0.8667 -0.4531  0.6952
  446MOL0     H61541   1.610   8.707   8.864 -0.0584 -0.5984 -0.2772
  446MOL0     H61542   1.549   8.480   8.951 -1.8092  0.3624 -3.0122
  446MOL0     H61543   1.394   8.537   8.996  0.5359 -2.5326  0.8916
  446MOL0     H61544   1.669   8.651   9.312  0.1855 -0.3672  0.5822
  446MOL0     H61545   1.667   8.825   8.547  2.2343  0.0580 -2.0355
  446MOL0     H61546   1.722   8.759   8.365  0.4799  0.3689  0.2828
  446MOL0     H61547   1.597   8.784   8.253  1.4911 -3.1107  0.2348
  446MOL0     H61548   1.755   8.878   8.246  0.0696  0.8819  0.2309
  447MOL0     O61549   2.198   4.056   7.526 -0.0571 -0.2204  0.6175
  447MOL0     C61550   2.257   3.978   7.604  0.0184  0.4620 -0.0941
  447MOL0     O61551   2.200   3.869   7.657 -1.0120 -0.4263 -0.4795
  447MOL0     C61552   2.064   3.857   7.649  0.6071  0.3124  0.8765
  447MOL0     C61553   1.973   3.959   7.688 -1.5439  0.2696 -0.2472
  447MOL0     C61554   1.836   3.936   7.675 -0.6485 -0.2135  0.5168
  447MOL0     C61555   1.784   3.813   7.625 -0.8601 -0.2400  0.6985
  447MOL0     O61556   1.656   3.784   7.629  0.5584 -0.5386  0.2885
  447MOL0     C61557   1.616   3.653   7.654 -0.1025  0.2970  0.3621
  447MOL0     C61558   1.458   3.638   7.675 -0.1578 -0.4372  0.3727
  447MOL0     C61559   1.425   3.487   7.660  0.8460 -0.8171  0.0196
  447MOL0     C61560   1.285   3.453   7.707  0.5177 -0.1961 -0.5765
  447MOL0     C61561   1.261   3.302   7.722  0.4331 -0.4339  0.7497
  447MOL0     C61562   1.231   3.238   7.589  0.6550 -0.0366  0.6963
  447MOL0     C61563   1.177   3.098   7.602  0.1387  0.5536 -0.2317
  447MOL0     C61564   1.274   2.992   7.673  0.4203  1.0612  0.0562
  447MOL0     N61565   1.397   2.965   7.612 -0.4831  0.0463  0.0352
  447MOL0     C61566   1.514   3.027   7.636 -0.4814  0.7687  0.2049
  447MOL0     C61567   1.610   2.943   7.583 -0.0547 -0.6023  0.7517
  447MOL0     C61568   1.763   2.966   7.569  0.4613 -0.5848 -0.3416
  447MOL0     C61569   1.843   2.841   7.592  0.5241  0.4428  0.3171
  447MOL0     C61570   1.986   2.873   7.605 -0.1917  0.0689 -0.4503
  447MOL0     C61571   2.081   2.754   7.577  0.4429  0.2298  0.2819
  447MOL0     O61572   2.207   2.793   7.632 -0.3143 -0.4546 -0.1172
  447MOL0     C61573   2.320   2.703   7.618  1.0070  0.4640 -0.7717
  447MOL0     C61574   2.412   2.697   7.722  0.1881 -0.4171  0.0803
  447MOL0     C61575   2.518   2.602   7.730  0.3476  0.6449  0.3738
  447MOL0     C61576   2.610   2.626   7.852  0.7307  0.4124 -0.8558
  447MOL0     C61577   2.533   2.505   7.626 -1.0238  0.4278 -0.2726
  447MOL0     C61578   2.646   2.407   7.632  0.6819  0.3584 -0.3868
  447MOL0     O61579   2.706   2.378   7.749 -0.0625 -0.6559 -0.5947
  447MOL0     C61580   2.818   2.291   7.737  0.3101  0.3901  0.4324
  447MOL0     C61581   2.793   2.147   7.726  0.3972  0.8455 -0.5461
  447MOL0     C61582   2.900   2.066   7.705  0.2416  0.3993 -0.1022
  447MOL0     C61583   3.032   2.109   7.710  0.6023  0.4262  0.2044
  447MOL0     O61584   3.130   2.021   7.680  0.1016 -0.4594  0.7642
  447MOL0     C61585   3.154   1.999   7.537 -0.6898  0.2566  0.2413
  447MOL0     C61586   3.252   2.098   7.481  0.3087 -0.5561  0.7475
  447MOL0     C61587   3.342   2.021   7.387 -0.4401  0.4747  0.7593
  447MOL0     C61588   3.443   2.109   7.325 -0.3498 -0.0784  0.8192
  447MOL0     C61589   3.513   2.032   7.213  0.2345 -0.0512  0.0990
  447MOL0     C61590   3.599   2.117   7.131  0.4909  0.5915 -0.4533
  447MOL0     C61591   3.685   2.057   7.012 -0.9178 -0.2122 -0.1743
  447MOL0     C61592   3.760   2.181   6.950 -0.1872 -0.5718 -0.0852
  447MOL0    Cl61593   3.881   2.244   7.057 -0.0254 -0.0042  0.1936
  447MOL0     C61594   3.055   2.244   7.730 -0.8380  0.7021  1.1464
  447MOL0     C61595   2.943   2.332   7.743  0.4669 -0.5127 -0.1741
  447MOL0     O61596   2.691   2.368   7.526  0.0286 -0.8763 -0.0388
  447MOL0     C61597   2.447   2.515   7.517 -0.4106  0.4639 -0.3737
  447MOL0     C61598   2.344   2.609   7.516  0.1049 -0.3499  0.3903
  447MOL0     N61599   1.551   2.828   7.541 -0.0409  0.2840  0.1101
  447MOL0     N61600   1.424   2.846   7.559  0.2586  0.4462 -0.1678
  447MOL0     C61601   1.873   3.716   7.581  0.5685 -0.3442  0.4495
  447MOL0     C61602   2.008   3.742   7.587  0.1548  0.6723 -0.1835
  447MOL0     C61603   2.409   3.995   7.630 -0.1530 -0.0259  0.0923
  447MOL0     C61604   2.474   3.897   7.712  0.6360  0.2569  0.1930
  447MOL0     C61605   2.612   3.907   7.742 -0.9280  0.1965  0.7917
  447MOL0     C61606   2.685   4.015   7.694  0.2885 -0.2748  0.1856
  447MOL0     O61607   2.812   4.048   7.743 -0.0170  0.3951  0.4995
  447MOL0     C61608   2.855   3.972   7.854 -0.4383  0.4246 -0.0872
  447MOL0     C61609   2.992   4.019   7.902 -0.3701 -0.7582  0.1169
  447MOL0     C61610   3.111   3.974   7.811 -0.2935  0.3385  0.4554
  447MOL0     C61611   3.246   3.988   7.878  0.3413 -0.4740  0.4945
  447MOL0     C61612   3.364   3.987   7.790  0.8381  0.7288  0.7700
  447MOL0     C61613   3.465   4.005   7.724  0.1696 -0.3223 -0.2312
  447MOL0     C61614   2.618   4.118   7.626 -0.2081  0.7876 -0.1149
  447MOL0     C61615   2.485   4.106   7.579  0.1595 -0.0494  1.6385
  447MOL0     C61616   2.430   4.214   7.494 -0.4295  0.2577 -0.0242
  447MOL0     H61617   2.003   4.055   7.730  0.1228  0.3193 -1.4449
  447MOL0     H61618   1.765   4.016   7.695 -0.0610  0.4112  0.1565
  447MOL0     H61619   1.664   3.617   7.746 -2.0079 -2.5438  0.4066
  447MOL0     H61620   1.647   3.585   7.575  2.7782  0.7776  0.9919
  447MOL0     H61621   1.430   3.670   7.776 -3.1504  0.6684 -0.6982
  447MOL0     H61622   1.402   3.710   7.616  0.8703  1.3320  1.4670
  447MOL0     H61623   1.440   3.453   7.557 -2.1712 -1.5207 -0.2986
  447MOL0     H61624   1.490   3.428   7.725  0.5320  1.4513  2.5868
  447MOL0     H61625   1.267   3.499   7.805  0.4160 -2.8255  0.7299
  447MOL0     H61626   1.211   3.496   7.639  0.8340  1.1038 -0.1415
  447MOL0     H61627   1.182   3.283   7.795 -1.1303  1.6771 -0.2699
  447MOL0     H61628   1.352   3.257   7.763 -1.4677 -2.0079  3.5746
  447MOL0     H61629   1.160   3.297   7.531 -0.6132 -1.5708  0.6481
  447MOL0     H61630   1.318   3.243   7.523  0.8153 -0.0832  0.9019
  447MOL0     H61631   1.141   3.059   7.506 -1.9006 -0.8932  1.0226
  447MOL0     H61632   1.083   3.106   7.657  0.2874  1.3193 -0.0883
  447MOL0     H61633   1.295   3.032   7.772 -1.1562 -0.0171  0.8758
  447MOL0     H61634   1.222   2.896   7.682  0.3866  0.7443 -2.6647
  447MOL0     H61635   1.531   3.126   7.677  3.9811  0.2693  0.0417
  447MOL0     H61636   1.792   3.045   7.640 -1.7145 -1.2364  1.3960
  447MOL0     H61637   1.785   3.002   7.468  0.5751 -2.2744 -0.9419
  447MOL0     H61638   1.811   2.792   7.685 -1.0313  0.7041 -0.0476
  447MOL0     H61639   1.842   2.786   7.498  3.2335 -0.0958  0.5231
  447MOL0     H61640   2.015   2.956   7.540  0.9417 -0.6232 -0.8622
  447MOL0     H61641   2.008   2.899   7.709 -3.0440 -1.1023  0.5590
  447MOL0     H61642   2.048   2.662   7.626  2.2832 -1.0512 -0.7557
  447MOL0     H61643   2.074   2.725   7.472  0.8095  0.9086  0.0648
  447MOL0     H61644   2.378   2.769   7.795 -1.2725 -0.1441 -0.8325
  447MOL0     H61645   2.712   2.635   7.813  0.7531 -2.3482 -1.6756
  447MOL0     H61646   2.605   2.540   7.921  0.6070  0.2279 -1.0934
  447MOL0     H61647   2.584   2.716   7.908  1.8122 -0.1245  0.5983
  447MOL0     H61648   2.695   2.102   7.722  1.3682 -1.5327  0.6593
  447MOL0     H61649   2.885   1.958   7.703  2.7667 -0.0194  0.1575
  447MOL0     H61650   3.208   1.904   7.541  0.4724  0.9093  0.5334
  447MOL0     H61651   3.064   1.987   7.477 -0.1416 -1.1394 -0.3270
  447MOL0     H61652   3.195   2.174   7.426  3.7352  1.9556  0.2887
  447MOL0     H61653   3.304   2.145   7.565 -1.1277  0.8872  0.8815
  447MOL0     H61654   3.287   1.984   7.300  2.4291  3.6457 -2.7117
  447MOL0     H61655   3.396   1.944   7.444  0.5007  0.6776  0.1703
  447MOL0     H61656   3.520   2.138   7.396  1.6443  2.2663 -2.0192
  447MOL0     H61657   3.396   2.202   7.291  0.6279  0.4321  0.8092
  447MOL0     H61658   3.571   1.947   7.251  3.2704  1.8600  0.0782
  447MOL0     H61659   3.430   1.995   7.153 -1.3290  1.9622  0.9064
  447MOL0     H61660   3.658   2.177   7.201 -1.5499  1.4613  0.5810
  447MOL0     H61661   3.531   2.178   7.071 -0.2024  0.4752  0.2072
  447MOL0     H61662   3.621   2.006   6.939 -3.1536  2.3729 -0.2084
  447MOL0     H61663   3.770   1.997   7.045 -1.2830 -2.4565 -2.9598
  447MOL0     H61664   3.679   2.251   6.926  0.0610 -0.1218  0.3876
  447MOL0     H61665   3.809   2.159   6.854 -1.2954 -0.9764 -0.5799
  447MOL0     H61666   3.160   2.271   7.736 -0.4014 -0.9153  1.4993
  447MOL0     H61667   2.964   2.438   7.760 -1.1276 -0.2313  0.1874
  447MOL0     H61668   2.460   2.439   7.440  0.8104 -1.3808  1.5429
  447MOL0     H61669   2.280   2.604   7.429  2.8692 -1.9690 -1.6978
  447MOL0     H61670   1.842   3.621   7.540 -0.8432 -1.1680  3.1911
  447MOL0     H61671   2.079   3.669   7.551 -2.1345 -2.2527  0.7971
  447MOL0     H61672   2.424   3.819   7.767 -0.0834  0.5588 -0.0245
  447MOL0     H61673   2.652   3.831   7.809 -0.7749  1.7750  2.5937
  447MOL0     H61674   2.773   3.980   7.926 -1.6257 -2.9193 -0.8864
  447MOL0     H61675   2.871   3.865   7.840  0.6366  0.3876  1.1995
  447MOL0     H61676   3.012   3.967   7.997  2.2700 -1.7813 -0.9036
  447MOL0     H61677   2.997   4.128   7.906 -0.6047 -0.7283 -0.3340
  447MOL0     H61678   3.097   3.872   7.772 -1.2128  0.8979 -0.7566
  447MOL0     H61679   3.127   4.048   7.733  0.5842 -0.9483 -0.6462
  447MOL0     H61680   3.255   3.914   7.958 -0.7652 -1.5339 -0.3254
  447MOL0     H61681   3.243   4.085   7.928  0.5250 -0.4639  0.4878
  447MOL0     H61682   3.560   4.021   7.677  1.3327 -2.2400  1.3065
  447MOL0     H61683   2.685   4.202   7.620 -0.2169  1.0501  2.3908
  447MOL0     H61684   2.354   4.264   7.555 -1.9225 -0.7271 -0.9949
  447MOL0     H61685   2.509   4.281   7.460 -1.2842 -0.6478 -4.3342
  447MOL0     H61686   2.379   4.182   7.403  0.9973  0.6210 -0.9850
  448MOL0     O61687   2.457   7.444   1.569 -0.5542  0.3660  0.5735
  448MOL0     C61688   2.410   7.347   1.514  0.6407  0.1973 -0.8894
  448MOL0     O61689   2.485   7.239   1.471 -0.1841 -0.3695  0.1163
  448MOL0     C61690   2.596   7.205   1.545  0.8973 -0.3451 -0.3057
  448MOL0     C61691   2.591   7.201   1.687  0.3224  0.0178  0.1257
  448MOL0     C61692   2.700   7.151   1.767  0.0076 -0.1855  0.3942
  448MOL0     C61693   2.825   7.124   1.703 -0.4915  0.7235 -0.1403
  448MOL0     O61694   2.916   7.067   1.784 -0.2392 -0.1695  1.0194
  448MOL0     C61695   3.035   7.010   1.721 -0.4582 -0.3278 -0.2756
  448MOL0     C61696   3.108   6.939   1.842 -0.6532 -0.2237 -0.3107
  448MOL0     C61697   3.255   6.902   1.800  0.0659 -0.4339  0.6296
  448MOL0     C61698   3.354   7.017   1.756  1.0568 -0.6941 -0.4770
  448MOL0     C61699   3.496   6.961   1.764 -0.2530 -0.1901 -0.1069
  448MOL0     C61700   3.600   7.071   1.729  0.3503 -0.6585 -0.5579
  448MOL0     C61701   3.725   6.999   1.701 -0.6775  0.1817 -0.1170
  448MOL0     C61702   3.844   7.088   1.661  0.8796 -0.8621  0.7155
  448MOL0     N61703   3.967   7.015   1.653 -0.5863  0.4241 -0.2486
  448MOL0     C61704   4.025   6.946   1.757 -0.6601 -0.4090  0.5030
  448MOL0     C61705   4.118   6.868   1.692 -0.3902  0.5691 -0.1407
  448MOL0     C61706   4.188   6.750   1.753 -0.0657 -0.1038  1.0734
  448MOL0     C61707   4.341   6.775   1.708 -0.2170  0.5218 -0.5273
  448MOL0     C61708   4.437   6.662   1.740 -0.2460 -0.1302  0.9962
  448MOL0     C61709   4.574   6.710   1.695  0.2587  0.1226  0.6888
  448MOL0     O61710   4.613   6.801   1.796 -0.0430  0.3263 -0.2635
  448MOL0     C61711   4.744   6.823   1.830  0.4613  0.4744  0.3137
  448MOL0     C61712   4.770   6.903   1.940 -0.0823 -0.0614  0.5141
  448MOL0     C61713   4.904   6.925   1.979  0.1129  0.4560  0.0867
  448MOL0     C61714   4.924   6.992   2.116 -0.2112  0.3739  0.0565
  448MOL0     C61715   5.014   6.867   1.904  0.3659  0.2022  0.6720
  448MOL0     C61716   5.155   6.871   1.944 -0.3749 -0.4077  0.8256
  448MOL0     O61717   5.242   6.923   1.849 -0.2571 -0.3665 -0.5152
  448MOL0     C61718   5.377   6.930   1.877  0.8371  0.4084  0.3930
  448MOL0     C61719   5.446   7.046   1.898 -0.7017 -0.1763  0.6771
  448MOL0     C61720   5.580   7.046   1.923 -0.4801  0.9183  0.1877
  448MOL0     C61721   5.654   6.926   1.931  0.1745  0.6125  0.4370
  448MOL0     O61722   5.783   6.917   1.970  0.4347 -0.1568  0.5488
  448MOL0     C61723   5.835   7.012   2.064 -0.3478 -0.6575 -0.1029
  448MOL0     C61724   5.914   7.120   2.008 -0.1312 -0.3134 -0.3044
  448MOL0     C61725   5.947   7.224   2.120 -0.1243  0.6377  0.8919
  448MOL0     C61726   5.881   7.357   2.069 -0.0336 -0.0607 -0.1127
  448MOL0     C61727   5.917   7.475   2.170  0.0606  0.2893  0.2916
  448MOL0     C61728   5.858   7.605   2.117 -0.4958  0.0024  0.2907
  448MOL0     C61729   5.914   7.730   2.196 -1.0287  0.0586  0.1574
  448MOL0     C61730   5.872   7.866   2.158  0.5853  0.2227  1.1484
  448MOL0    Cl61731   5.946   7.939   2.009  0.1998  0.0892 -0.0595
  448MOL0     C61732   5.592   6.809   1.900 -0.8614 -0.4956  0.4335
  448MOL0     C61733   5.455   6.809   1.876 -0.8875  0.8778  0.2396
  448MOL0     O61734   5.189   6.810   2.045 -0.1542  0.2072 -0.5169
  448MOL0     C61735   4.981   6.780   1.803 -0.2156 -0.1667  0.1652
  448MOL0     C61736   4.849   6.769   1.755 -0.1815  0.7431 -0.7582
  448MOL0     N61737   4.109   6.885   1.557 -0.5905 -0.4946 -0.0315
  448MOL0     N61738   4.039   6.996   1.538 -0.3286 -0.6243  0.0687
  448MOL0     C61739   2.825   7.117   1.563 -0.8767 -0.0870  0.2799
  448MOL0     C61740   2.713   7.145   1.488 -0.1824  0.7458 -1.4144
  448MOL0     C61741   2.263   7.323   1.520 -0.3959  0.1787 -0.9597
  448MOL0     C61742   2.210   7.195   1.509 -0.0029  0.4718 -0.5532
  448MOL0     C61743   2.072   7.170   1.526 -0.6300  0.8888  0.5500
  448MOL0     C61744   1.987   7.273   1.539  0.8021  0.5264 -0.6926
  448MOL0     O61745   1.853   7.265   1.546  0.3308 -0.2144 -0.1692
  448MOL0     C61746   1.790   7.136   1.589 -1.0967 -0.5299 -0.5036
  448MOL0     C61747   1.636   7.128   1.590  0.4891 -0.3153 -0.2589
  448MOL0     C61748   1.572   7.210   1.705 -1.4740  0.5246  0.0411
  448MOL0     C61749   1.424   7.189   1.704 -0.3170 -0.3033  0.2820
  448MOL0     C61750   1.369   7.264   1.816 -0.2305 -0.6136  0.2103
  448MOL0     C61751   1.316   7.320   1.911  0.5515  0.5204 -0.1607
  448MOL0     C61752   2.034   7.399   1.549  0.3730  0.1550 -0.3783
  448MOL0     C61753   2.174   7.423   1.543 -0.1376 -0.3259  0.4488
  448MOL0     C61754   2.196   7.571   1.574 -0.1684  0.5524  0.3679
  448MOL0     H61755   2.504   7.234   1.743  0.2825 -0.1133  0.1417
  448MOL0     H61756   2.685   7.149   1.874 -1.1347 -0.3553  0.2446
  448MOL0     H61757   3.107   7.087   1.694 -1.9968  1.5130  0.6244
  448MOL0     H61758   3.016   6.926   1.653 -1.7204 -0.1496 -0.1589
  448MOL0     H61759   3.109   6.999   1.934  0.3492 -0.9735  0.1863
  448MOL0     H61760   3.060   6.843   1.860 -0.4692  0.0837  2.2688
  448MOL0     H61761   3.306   6.855   1.884  0.5055  1.1369  1.2678
  448MOL0     H61762   3.240   6.826   1.722 -0.4259 -0.3832  0.6675
  448MOL0     H61763   3.319   7.050   1.657 -1.5151  1.2346  0.9506
  448MOL0     H61764   3.351   7.102   1.824  0.1933 -0.7785 -0.3964
  448MOL0     H61765   3.503   6.869   1.705  2.6234 -0.7248  0.9208
  448MOL0     H61766   3.502   6.927   1.867 -1.8722  0.5919  0.2907
  448MOL0     H61767   3.568   7.125   1.639  1.0321 -2.6526 -2.0671
  448MOL0     H61768   3.610   7.137   1.815  1.4185  0.2167 -1.3265
  448MOL0     H61769   3.716   6.928   1.619 -0.5144  0.1158 -0.0781
  448MOL0     H61770   3.744   6.945   1.794 -0.3521  0.4913 -0.0007
  448MOL0     H61771   3.824   7.126   1.560 -2.4764  1.8668  2.2184
  448MOL0     H61772   3.853   7.176   1.724  2.4459 -1.8650  1.9567
  448MOL0     H61773   4.009   6.954   1.864 -2.0160 -0.2937  0.3112
  448MOL0     H61774   4.155   6.658   1.703  2.8326  0.2168 -1.7364
  448MOL0     H61775   4.174   6.749   1.861 -2.7586  0.2386  0.7989
  448MOL0     H61776   4.360   6.796   1.602  0.4733  1.5481 -0.2188
  448MOL0     H61777   4.368   6.861   1.770  0.2429 -1.9551  3.0262
  448MOL0     H61778   4.428   6.632   1.844 -1.9227 -1.7637  0.4388
  448MOL0     H61779   4.404   6.581   1.674  0.7901  0.1438  0.1009
  448MOL0     H61780   4.624   6.613   1.703 -0.0881  0.0039  1.4577
  448MOL0     H61781   4.571   6.755   1.595 -4.2182 -0.0555  0.5328
  448MOL0     H61782   4.691   6.944   2.001  1.3391 -1.0695  3.1619
  448MOL0     H61783   4.902   7.099   2.112 -1.8355  0.1007  0.8240
  448MOL0     H61784   5.027   6.981   2.149 -0.0973  0.2170 -0.3490
  448MOL0     H61785   4.863   6.953   2.197  0.7828  0.8602  1.0565
  448MOL0     H61786   5.385   7.135   1.889  1.0921  1.1592  1.2411
  448MOL0     H61787   5.636   7.137   1.941 -0.6318  1.1254 -0.3621
  448MOL0     H61788   5.763   7.058   2.133  0.7221 -0.9919  1.2714
  448MOL0     H61789   5.892   6.942   2.126 -0.3337 -1.2353 -0.7593
  448MOL0     H61790   6.001   7.082   1.953  0.6265 -0.0075  0.6680
  448MOL0     H61791   5.858   7.163   1.923  0.4788 -0.6897 -0.9082
  448MOL0     H61792   6.052   7.249   2.136  0.4904 -0.5108 -0.9965
  448MOL0     H61793   5.909   7.190   2.216 -3.2319 -0.3838 -0.5584
  448MOL0     H61794   5.774   7.335   2.063 -0.6411  2.2763  1.1549
  448MOL0     H61795   5.918   7.377   1.968  4.2979 -0.3664  1.2257
  448MOL0     H61796   5.874   7.447   2.266 -0.7142 -3.3243 -0.9334
  448MOL0     H61797   6.026   7.481   2.183 -0.0048  0.0591  0.9558
  448MOL0     H61798   5.750   7.604   2.136 -1.2379 -2.6743 -3.0866
  448MOL0     H61799   5.869   7.610   2.008 -1.4747  0.2064  0.1909
  448MOL0     H61800   6.023   7.731   2.185 -1.1619  1.3543 -1.3196
  448MOL0     H61801   5.879   7.723   2.300  1.7313  2.0284  1.3438
  448MOL0     H61802   5.879   7.929   2.247 -1.7749  0.7714  1.0205
  448MOL0     H61803   5.764   7.851   2.144  0.8006 -1.2928  0.9220
  448MOL0     H61804   5.654   6.719   1.904 -1.1550 -0.7250 -0.0882
  448MOL0     H61805   5.394   6.720   1.875 -2.5689  1.9761  0.7349
  448MOL0     H61806   5.042   6.732   1.728  1.0817  0.4747  0.7692
  448MOL0     H61807   4.825   6.710   1.668 -2.5814 -2.6467  1.9259
  448MOL0     H61808   2.907   7.067   1.512  0.8404 -0.9142  3.5494
  448MOL0     H61809   2.705   7.125   1.382 -1.2443 -0.9814 -1.0544
  448MOL0     H61810   2.275   7.111   1.486  2.2998  0.5022  4.3572
  448MOL0     H61811   2.043   7.066   1.516  1.6685  0.2490 -0.0819
  448MOL0     H61812   1.824   7.065   1.514  4.0597  0.8713  0.1376
  448MOL0     H61813   1.836   7.110   1.685 -1.3739  4.1824  1.2009
  448MOL0     H61814   1.610   7.022   1.606  2.8560 -0.8843  0.1861
  448MOL0     H61815   1.614   7.169   1.491  1.0651  2.9896  0.8689
  448MOL0     H61816   1.609   7.185   1.805 -1.0778 -2.0038 -0.6561
  448MOL0     H61817   1.598   7.316   1.701  0.6560  0.1610  1.9580
  448MOL0     H61818   1.387   7.087   1.708 -1.3942  0.0595 -0.0395
  448MOL0     H61819   1.383   7.231   1.612 -0.1122 -1.4611 -0.3536
  448MOL0     H61820   1.283   7.364   2.003 -0.6316  0.0942 -0.3617
  448MOL0     H61821   1.957   7.473   1.565 -2.9628 -3.0667 -0.1991
  448MOL0     H61822   2.223   7.592   1.678  1.4459 -1.1832  0.3652
  448MOL0     H61823   2.289   7.592   1.520 -0.8347 -0.0494 -1.0536
  448MOL0     H61824   2.106   7.619   1.536 -1.3568 -0.9913  1.1329
  449MOL0     O61825   4.903   2.159   3.579  0.8961  0.5116  0.8564
  449MOL0     C61826   4.880   2.280   3.565 -0.4843  0.1738 -0.2553
  449MOL0     O61827   4.952   2.376   3.626 -0.1792  0.3626  0.0913
  449MOL0     C61828   5.092   2.356   3.668  1.0775 -0.6550 -0.6225
  449MOL0     C61829   5.133   2.436   3.788 -0.3834 -0.4599  0.0055
  449MOL0     C61830   5.263   2.435   3.833 -1.4065 -0.1998 -0.1637
  449MOL0     C61831   5.352   2.346   3.769  0.1841  0.3425  0.3759
  449MOL0     O61832   5.480   2.343   3.816  0.1786  0.2545  0.2474
  449MOL0     C61833   5.565   2.452   3.792  0.0471 -0.6086 -0.5815
  449MOL0     C61834   5.703   2.410   3.780  0.0300 -0.6097  0.7194
  449MOL0     C61835   5.800   2.526   3.763 -0.4268  0.8954  0.1399
  449MOL0     C61836   5.939   2.484   3.713 -0.1691 -0.0336  0.6132
  449MOL0     C61837   6.034   2.609   3.707 -0.3687 -0.1305  0.2529
  449MOL0     C61838   6.173   2.570   3.665  0.2427  0.1148  0.0156
  449MOL0     C61839   6.269   2.683   3.656  0.0963  0.4358  0.1477
  449MOL0     C61840   6.225   2.782   3.540 -0.1600 -0.0475  0.4528
  449MOL0     N61841   6.329   2.883   3.509 -0.1542 -0.2353 -0.0251
  449MOL0     C61842   6.428   2.874   3.414  0.1516 -0.2059 -0.7157
  449MOL0     C61843   6.508   2.983   3.433  1.3770 -0.2090  0.3376
  449MOL0     C61844   6.627   3.037   3.346  0.7413 -0.5152  0.8537
  449MOL0     C61845   6.572   3.089   3.213  0.6404 -0.1628  0.5673
  449MOL0     C61846   6.594   2.986   3.104 -0.6850 -0.4488 -0.2475
  449MOL0     C61847   6.740   2.998   3.059  0.2223  0.0797 -0.7951
  449MOL0     O61848   6.775   2.889   2.967 -0.7862  0.0983  0.6057
  449MOL0     C61849   6.911   2.888   2.925  0.8073  0.0398  0.2339
  449MOL0     C61850   7.011   2.984   2.967  0.8759 -0.8235  0.1612
  449MOL0     C61851   7.147   2.976   2.921 -0.3916 -0.3511  0.0630
  449MOL0     C61852   7.238   3.066   2.991  0.3483  0.2498  0.0925
  449MOL0     C61853   7.175   2.891   2.815  0.4111  0.8766  0.2921
  449MOL0     C61854   7.295   2.893   2.734 -0.1074 -0.3512  0.2694
  449MOL0     O61855   7.283   2.833   2.615 -0.4546  0.4822 -0.2539
  449MOL0     C61856   7.385   2.816   2.524 -0.0080  0.1132  0.3242
  449MOL0     C61857   7.348   2.845   2.394 -0.5214  0.0028 -0.2702
  449MOL0     C61858   7.441   2.829   2.295  0.3903  0.4249  1.3958
  449MOL0     C61859   7.571   2.797   2.315 -0.4866 -0.3657 -0.2429
  449MOL0     O61860   7.655   2.799   2.205 -0.5280 -0.3237  0.2469
  449MOL0     C61861   7.793   2.758   2.228 -0.9800 -0.5844 -0.0382
  449MOL0     C61862   7.864   2.711   2.108  0.2124  1.1847 -0.0173
  449MOL0     C61863   7.916   2.817   2.012  0.4869 -0.2401  0.5801
  449MOL0     C61864   8.036   2.898   2.078  0.0572  0.8925 -0.4342
  449MOL0     C61865   8.127   2.956   1.974 -1.1333 -0.3104  0.4073
  449MOL0     C61866   8.051   3.049   1.874  0.0473 -0.4065  0.0869
  449MOL0     C61867   8.141   3.120   1.766  0.1272  0.8392 -0.8215
  449MOL0     C61868   8.226   3.232   1.825 -0.7935 -0.4446  0.2482
  449MOL0    Cl61869   8.370   3.164   1.906  0.1150  0.0792 -0.1114
  449MOL0     C61870   7.613   2.766   2.450  0.8320 -0.1246  0.1727
  449MOL0     C61871   7.515   2.777   2.550 -0.8968  0.5874 -0.0309
  449MOL0     O61872   7.401   2.942   2.779 -0.3284  0.6387 -0.2131
  449MOL0     C61873   7.071   2.803   2.765 -0.1469  0.5839  0.3740
  449MOL0     C61874   6.944   2.795   2.832  0.6188 -0.3455  1.0797
  449MOL0     N61875   6.446   3.063   3.529  0.1132 -0.0023 -0.1968
  449MOL0     N61876   6.340   3.007   3.567  0.4580  0.0138 -0.6854
  449MOL0     C61877   5.311   2.258   3.663  0.1787  0.3206  0.3054
  449MOL0     C61878   5.182   2.268   3.611  0.4019 -0.3366  0.2206
  449MOL0     C61879   4.756   2.319   3.499 -0.2650  0.5013  0.6638
  449MOL0     C61880   4.689   2.434   3.547  0.1521 -0.1765 -0.0031
  449MOL0     C61881   4.561   2.466   3.503  0.3760 -0.2643  0.5218
  449MOL0     C61882   4.510   2.402   3.396 -0.3386 -0.0322  0.2493
  449MOL0     O61883   4.410   2.461   3.315 -0.1138 -0.0118 -0.1108
  449MOL0     C61884   4.305   2.535   3.384  0.4476  1.2857  0.0055
  449MOL0     C61885   4.313   2.693   3.366 -0.3264  0.8964  0.4387
  449MOL0     C61886   4.175   2.742   3.394  0.9396  0.2584 -0.9077
  449MOL0     C61887   4.139   2.856   3.314  0.6398 -0.1227 -0.3282
  449MOL0     C61888   4.002   2.906   3.347  0.7905 -0.5324 -0.6867
  449MOL0     C61889   3.887   2.939   3.382  0.2324  0.4241 -0.0316
  449MOL0     C61890   4.579   2.295   3.328 -0.0303 -0.2345 -0.1566
  449MOL0     C61891   4.700   2.252   3.385  0.1835 -0.3698  0.2210
  449MOL0     C61892   4.766   2.124   3.325 -0.1737 -0.6451  0.1054
  449MOL0     H61893   5.073   2.513   3.836  0.7014 -1.2445  2.8304
  449MOL0     H61894   5.291   2.507   3.909 -2.3799  0.9216 -0.8385
  449MOL0     H61895   5.570   2.532   3.868 -1.4538  0.8401 -1.9255
  449MOL0     H61896   5.537   2.498   3.697  2.4471  2.2864 -0.0522
  449MOL0     H61897   5.742   2.355   3.866 -0.0762 -0.8876  0.5890
  449MOL0     H61898   5.704   2.339   3.697 -0.0258 -1.5085  1.4793
  449MOL0     H61899   5.757   2.609   3.706 -3.6414 -2.3640 -2.7038
  449MOL0     H61900   5.810   2.568   3.863 -1.3486  2.3943 -0.3612
  449MOL0     H61901   5.992   2.412   3.776  1.5629 -0.9185 -1.6866
  449MOL0     H61902   5.933   2.439   3.613 -1.1391  2.1799 -0.3878
  449MOL0     H61903   6.049   2.656   3.805  3.6901  1.5611 -1.0039
  449MOL0     H61904   5.989   2.684   3.641 -1.5023 -1.1013 -0.1236
  449MOL0     H61905   6.222   2.498   3.731  1.1265  1.1055  0.4658
  449MOL0     H61906   6.155   2.518   3.570 -2.9132 -1.3882  1.3128
  449MOL0     H61907   6.362   2.633   3.627 -0.8674 -1.9632  0.9018
  449MOL0     H61908   6.275   2.732   3.753  0.9939  0.2984  0.1687
  449MOL0     H61909   6.202   2.730   3.447 -2.2760  4.8626 -2.1126
  449MOL0     H61910   6.128   2.831   3.550  0.3668  1.7376 -2.1793
  449MOL0     H61911   6.441   2.800   3.336 -2.2084  0.8908 -2.2585
  449MOL0     H61912   6.708   2.966   3.332  0.5907 -0.6995  0.9127
  449MOL0     H61913   6.671   3.116   3.407 -0.4788  0.8452  0.0635
  449MOL0     H61914   6.463   3.096   3.209  0.4057 -2.7945  0.9452
  449MOL0     H61915   6.616   3.184   3.181  3.0332 -1.0373  1.0580
  449MOL0     H61916   6.567   2.886   3.142  1.8796 -1.5417 -1.0661
  449MOL0     H61917   6.524   2.996   3.021  2.2233 -0.0060 -2.8105
  449MOL0     H61918   6.752   3.097   3.015  1.4264  1.4843  2.3861
  449MOL0     H61919   6.809   3.004   3.144 -1.4880 -0.0178  0.6789
  449MOL0     H61920   6.991   3.056   3.045 -2.2736  2.8533 -3.6110
  449MOL0     H61921   7.334   3.014   2.997 -0.1387 -0.9684 -1.7002
  449MOL0     H61922   7.200   3.085   3.092 -1.0371 -2.0171  0.0722
  449MOL0     H61923   7.250   3.163   2.943 -0.1172  0.3511  0.1690
  449MOL0     H61924   7.248   2.872   2.364 -0.5926 -0.8494 -0.8207
  449MOL0     H61925   7.407   2.854   2.195  0.2677 -3.7443  0.2188
  449MOL0     H61926   7.847   2.840   2.277  1.5023 -1.7376 -0.6468
  449MOL0     H61927   7.784   2.661   2.278 -2.4063 -0.4310  0.0398
  449MOL0     H61928   7.956   2.662   2.142  1.1449  2.7740 -0.1873
  449MOL0     H61929   7.811   2.631   2.055  3.4479 -0.7772 -0.5345
  449MOL0     H61930   7.840   2.890   1.982 -0.1034 -0.7943  0.7088
  449MOL0     H61931   7.956   2.771   1.922  0.6962 -2.5918  1.7997
  449MOL0     H61932   8.097   2.833   2.142  0.4182  0.8876 -0.7815
  449MOL0     H61933   8.001   2.985   2.134 -0.4163  1.3739 -1.4672
  449MOL0     H61934   8.205   3.017   2.021  2.1559 -2.6147 -1.7140
  449MOL0     H61935   8.180   2.883   1.913  1.3280  0.1201  1.8974
  449MOL0     H61936   8.003   3.129   1.931  0.8499  1.4989 -1.7903
  449MOL0     H61937   7.976   2.993   1.819  0.6977 -1.9757  0.7340
  449MOL0     H61938   8.073   3.157   1.689 -1.5894 -1.9858 -0.7881
  449MOL0     H61939   8.208   3.042   1.730  2.8251  1.5558  2.1593
  449MOL0     H61940   8.178   3.277   1.913 -0.6506  1.7811 -0.7513
  449MOL0     H61941   8.250   3.313   1.755 -2.3514 -0.3899 -0.2490
  449MOL0     H61942   7.711   2.725   2.474  0.9395 -0.5440 -0.9163
  449MOL0     H61943   7.547   2.758   2.652 -1.6744 -1.4202 -0.1118
  449MOL0     H61944   7.086   2.727   2.688  2.6314 -0.1743  1.5331
  449MOL0     H61945   6.873   2.714   2.818  2.1585 -1.8458  1.6951
  449MOL0     H61946   5.391   2.197   3.623 -3.3173 -3.9533 -0.9748
  449MOL0     H61947   5.162   2.209   3.522  1.2942 -1.1169  0.5206
  449MOL0     H61948   4.732   2.481   3.635  2.5453 -2.8477  0.4338
  449MOL0     H61949   4.517   2.554   3.550  1.0532 -0.3298  1.3069
  449MOL0     H61950   4.210   2.497   3.346 -0.4470  0.1849  3.0221
  449MOL0     H61951   4.295   2.513   3.491 -2.0362 -0.2022 -0.4421
  449MOL0     H61952   4.337   2.735   3.268  2.1162 -0.9244  0.1572
  449MOL0     H61953   4.401   2.727   3.421  1.8047 -3.3314  0.0783
  449MOL0     H61954   4.099   2.666   3.376  0.5441  0.1482  1.0621
  449MOL0     H61955   4.180   2.777   3.498 -2.2673 -2.6268  0.4017
  449MOL0     H61956   4.129   2.834   3.207 -0.1891 -0.2397 -0.2329
  449MOL0     H61957   4.223   2.925   3.331  0.8441 -0.8314  1.7624
  449MOL0     H61958   3.787   2.952   3.418  0.3585 -1.7962  1.2930
  449MOL0     H61959   4.526   2.263   3.239 -1.0678  0.6103  0.1381
  449MOL0     H61960   4.870   2.144   3.297  0.0485 -0.0222  1.3338
  449MOL0     H61961   4.751   2.047   3.402 -1.2439 -0.4564  0.1008
  449MOL0     H61962   4.713   2.099   3.232  1.0750  2.0146 -1.4311
  450MOL0     O61963   3.391   4.479   9.191  0.3168  0.1929  0.3248
  450MOL0     C61964   3.337   4.587   9.170  0.5000 -0.4808 -0.2117
  450MOL0     O61965   3.404   4.700   9.139 -0.4011 -0.0963  0.5299
  450MOL0     C61966   3.544   4.709   9.176 -0.0154 -0.4318  0.8212
  450MOL0     C61967   3.583   4.794   9.279  0.2301 -0.6148 -0.6850
  450MOL0     C61968   3.712   4.802   9.323  0.4055  0.2108  0.2788
  450MOL0     C61969   3.811   4.724   9.265 -0.9518 -0.0880 -0.9224
  450MOL0     O61970   3.939   4.726   9.316 -0.2630 -0.2527 -0.1743
  450MOL0     C61971   3.999   4.841   9.362  0.5969 -0.2271 -0.7040
  450MOL0     C61972   4.143   4.820   9.392 -0.4856  0.4850  0.0624
  450MOL0     C61973   4.228   4.934   9.450  0.0608  0.1525 -0.3462
  450MOL0     C61974   4.251   5.051   9.354 -0.7243  0.5871 -0.2836
  450MOL0     C61975   4.355   5.148   9.411 -0.1793 -0.4209  0.1920
  450MOL0     C61976   4.495   5.093   9.409 -0.7736 -0.5294  0.7342
  450MOL0     C61977   4.600   5.204   9.418 -0.6645 -0.0628  0.0816
  450MOL0     C61978   4.604   5.252   9.565 -0.6533  0.3283  0.1536
  450MOL0     N61979   4.705   5.356   9.593 -0.1175 -0.3974 -2.2266
  450MOL0     C61980   4.841   5.333   9.615  0.1781  0.4203  1.1585
  450MOL0     C61981   4.884   5.451   9.662  0.0003 -0.2435  0.0254
  450MOL0     C61982   5.026   5.486   9.700  0.2284 -0.4069 -0.2857
  450MOL0     C61983   5.090   5.560   9.586  0.8256 -1.0808 -0.0488
  450MOL0     C61984   5.232   5.603   9.623  0.4983 -0.0153  0.3013
  450MOL0     C61985   5.302   5.678   9.511  0.1141  0.1529  0.7940
  450MOL0     O61986   5.435   5.710   9.552 -0.0540 -0.1186  0.3637
  450MOL0     C61987   5.467   5.842   9.577  0.0898  0.2573  0.6009
  450MOL0     C61988   5.594   5.878   9.551 -0.4420 -0.6670  0.9552
  450MOL0     C61989   5.650   6.006   9.592  0.5040  0.4463  0.9780
  450MOL0     C61990   5.794   6.028   9.586  0.2685  0.0534 -0.2433
  450MOL0     C61991   5.557   6.087   9.669 -0.2582 -0.6034 -0.6322
  450MOL0     C61992   5.592   6.223   9.715 -0.3499  0.2218  0.0372
  450MOL0     O61993   5.666   6.305   9.628 -0.1743  0.1262 -0.1979
  450MOL0     C61994   5.732   6.422   9.685  0.0981 -0.1941  0.4397
  450MOL0     C61995   5.841   6.408   9.769  0.1528  0.0051  0.2538
  450MOL0     C61996   5.909   6.520   9.816  1.1656  0.4521 -0.2439
  450MOL0     C61997   5.873   6.644   9.773  0.4739  0.2116  0.0025
  450MOL0     O61998   5.941   6.759   9.805 -0.0807 -0.2385 -0.1995
  450MOL0     C61999   6.005   6.827   9.704 -0.8636 -0.5007  0.1519
  450MOL0     C62000   6.011   6.974   9.756  0.1918 -0.3295  0.0850
  450MOL0     C62001   6.077   6.991   9.897  0.4718 -0.0569 -0.5965
  450MOL0     C62002   6.227   6.957   9.914 -0.1629 -0.0714 -0.3524
  450MOL0     C62003   6.281   7.000  10.054  0.2827 -0.4078  0.3569
  450MOL0     C62004   6.285   7.151  10.067  0.1765  0.2110  0.4384
  450MOL0     C62005   6.382   7.200  10.174 -0.9014 -0.5431 -1.2749
  450MOL0     C62006   6.530   7.180  10.135 -0.1602  0.6859 -0.8144
  450MOL0    Cl62007   6.628   7.230  10.285 -0.1316  0.2217 -0.1453
  450MOL0     C62008   5.764   6.662   9.679  0.1068 -0.3507  0.1733
  450MOL0     C62009   5.692   6.554   9.640 -0.4077  0.3568 -1.3931
  450MOL0     O62010   5.563   6.242   9.835  0.0067 -0.5029  0.0286
  450MOL0     C62011   5.422   6.059   9.686 -1.3009 -0.0815 -0.6397
  450MOL0     C62012   5.382   5.938   9.644  0.2534  0.2341 -0.3787
  450MOL0     N62013   4.785   5.546   9.643 -0.1337  1.0827  0.0845
  450MOL0     N62014   4.682   5.492   9.597  0.0031  0.8146  0.7217
  450MOL0     C62015   3.772   4.644   9.156  0.7118  0.5388 -0.1241
  450MOL0     C62016   3.643   4.623   9.112  0.4208  0.1279  0.3232
  450MOL0     C62017   3.184   4.583   9.179  0.5555  0.4946  0.8615
  450MOL0     C62018   3.128   4.469   9.244  0.2194 -0.1072  0.7444
  450MOL0     C62019   2.989   4.452   9.244  0.1617  0.2090  0.1897
  450MOL0     C62020   2.911   4.535   9.161 -0.5520 -0.1980 -0.4355
  450MOL0     O62021   2.778   4.516   9.157 -0.0518 -0.1333 -0.2105
  450MOL0     C62022   2.723   4.502   9.019 -0.0019  0.3265  0.2034
  450MOL0     C62023   2.738   4.352   8.992 -0.5270 -0.5052  0.1344
  450MOL0     C62024   2.632   4.299   8.899 -0.6700  0.4023  0.6701
  450MOL0     C62025   2.671   4.335   8.753 -0.2070  0.7875 -1.8113
  450MOL0     C62026   2.571   4.288   8.659 -0.1523  0.6662 -1.1632
  450MOL0     C62027   2.493   4.240   8.582 -0.0863  0.0943 -0.2142
  450MOL0     C62028   2.969   4.646   9.099  0.8566  0.0222 -0.2817
  450MOL0     C62029   3.102   4.683   9.107  0.9803 -0.1898 -0.1983
  450MOL0     C62030   3.149   4.799   9.037 -0.3329 -0.7718 -0.3239
  450MOL0     H62031   3.514   4.859   9.333  3.2023  1.3151  1.0380
  450MOL0     H62032   3.730   4.871   9.405  0.2959  1.8718 -1.0602
  450MOL0     H62033   3.952   4.869   9.457 -1.7159 -2.1605 -1.1844
  450MOL0     H62034   3.991   4.919   9.287  1.0249  0.5237  0.0175
  450MOL0     H62035   4.157   4.748   9.473  1.9988  2.5934  1.6887
  450MOL0     H62036   4.200   4.777   9.310  0.5740 -3.0047  2.4319
  450MOL0     H62037   4.194   4.977   9.545  0.0588 -0.0823 -0.2415
  450MOL0     H62038   4.325   4.890   9.475 -0.3476  0.9666  3.1406
  450MOL0     H62039   4.294   5.007   9.264  0.7386 -0.6960  0.9749
  450MOL0     H62040   4.159   5.107   9.336  0.0920  1.3822 -2.2133
  450MOL0     H62041   4.324   5.171   9.513  2.0294  0.6395  0.6779
  450MOL0     H62042   4.363   5.238   9.350  2.9021  0.6695  1.9743
  450MOL0     H62043   4.513   5.019   9.487  2.5921  0.0459  0.6300
  450MOL0     H62044   4.506   5.051   9.308 -4.3144 -4.0895  1.5689
  450MOL0     H62045   4.582   5.303   9.376  0.2614 -0.4232 -1.2449
  450MOL0     H62046   4.698   5.166   9.386  0.0946  0.1378  2.0327
  450MOL0     H62047   4.504   5.285   9.592 -1.9849 -0.9269 -2.7601
  450MOL0     H62048   4.633   5.166   9.626  1.3309  0.8392 -0.0046
  450MOL0     H62049   4.894   5.240   9.593 -0.5419  0.3119 -0.2163
  450MOL0     H62050   5.092   5.401   9.722  3.3878  2.4851  2.7981
  450MOL0     H62051   5.034   5.544   9.793 -0.6421  1.3318 -1.2476
  450MOL0     H62052   5.093   5.494   9.498 -3.9157 -3.4965  1.2600
  450MOL0     H62053   5.030   5.648   9.562  2.0964 -0.0602  0.4038
  450MOL0     H62054   5.239   5.654   9.719 -2.6348  0.7115  0.2590
  450MOL0     H62055   5.289   5.510   9.635  0.8500  0.4007  2.0752
  450MOL0     H62056   5.299   5.605   9.429 -0.3872  2.9262 -1.8815
  450MOL0     H62057   5.249   5.769   9.480  0.2237 -0.4179 -1.2444
  450MOL0     H62058   5.660   5.803   9.509 -0.0910 -0.8295  1.7826
  450MOL0     H62059   5.835   6.078   9.674  1.7007 -1.6110  0.0806
  450MOL0     H62060   5.788   6.079   9.490  1.8294 -1.3618 -1.1357
  450MOL0     H62061   5.847   5.933   9.574  0.3708  0.0389  0.2997
  450MOL0     H62062   5.884   6.314   9.804 -1.0822 -0.9455 -0.6844
  450MOL0     H62063   5.992   6.517   9.886  1.5772  1.4851 -0.6733
  450MOL0     H62064   6.110   6.798   9.697 -0.2168  0.2156  4.2807
  450MOL0     H62065   5.971   6.813   9.601  1.6279  1.2743 -1.0161
  450MOL0     H62066   6.068   7.037   9.687 -1.5192  0.4828 -0.6400
  450MOL0     H62067   5.908   7.008   9.755  0.8496  1.7989 -0.8793
  450MOL0     H62068   6.016   6.934   9.967  1.2145  1.9609  1.8493
  450MOL0     H62069   6.056   7.095   9.925 -1.3365 -0.8130  1.0780
  450MOL0     H62070   6.281   7.007   9.834 -0.5365  0.6589 -0.1564
  450MOL0     H62071   6.250   6.851   9.899  1.3382 -0.0075  1.1222
  450MOL0     H62072   6.217   6.969  10.138  0.5593  0.5186  0.9212
  450MOL0     H62073   6.375   6.948  10.077 -0.3105 -1.2315  1.0096
  450MOL0     H62074   6.184   7.189  10.086 -0.5283 -0.1037 -2.2035
  450MOL0     H62075   6.315   7.188   9.968  3.8729 -0.2854  1.2305
  450MOL0     H62076   6.380   7.134  10.262  1.9670  0.1095 -0.5924
  450MOL0     H62077   6.361   7.302  10.205  1.2136 -0.1252 -1.0633
  450MOL0     H62078   6.551   7.249  10.053 -0.7312 -0.1893 -1.7121
  450MOL0     H62079   6.548   7.074  10.116  0.0534  0.0237  2.4822
  450MOL0     H62080   5.739   6.766   9.660  0.2802 -0.3184  0.1213
  450MOL0     H62081   5.597   6.559   9.588 -3.2061  0.3784  3.1498
  450MOL0     H62082   5.343   6.117   9.733 -3.1331 -2.2725 -0.8363
  450MOL0     H62083   5.281   5.898   9.647  0.5864 -0.5654  1.1502
  450MOL0     H62084   3.840   4.568   9.117  0.3543 -0.9453  1.9325
  450MOL0     H62085   3.608   4.550   9.040 -0.2162  0.2337  0.5157
  450MOL0     H62086   3.187   4.394   9.296 -2.0909 -0.7514  2.5871
  450MOL0     H62087   2.945   4.371   9.301  0.1953  0.7745  1.0468
  450MOL0     H62088   2.619   4.534   9.019  0.1400  0.8013 -0.2073
  450MOL0     H62089   2.773   4.569   8.948 -0.5781  2.5765  1.8188
  450MOL0     H62090   2.733   4.300   9.089 -0.2244 -0.6434  0.0773
  450MOL0     H62091   2.836   4.342   8.945  0.6624  1.6745  1.9456
  450MOL0     H62092   2.617   4.191   8.907 -2.3316  0.3695 -2.0015
  450MOL0     H62093   2.542   4.348   8.939 -2.1948 -0.8770 -1.0636
  450MOL0     H62094   2.770   4.294   8.728  0.9045  1.1955  1.4935
  450MOL0     H62095   2.665   4.444   8.740 -1.5529  0.8119 -1.1120
  450MOL0     H62096   2.431   4.194   8.508  2.7438 -2.3142 -1.2672
  450MOL0     H62097   2.906   4.717   9.045  2.6001  1.5866 -0.3326
  450MOL0     H62098   3.058   4.836   8.989 -0.5262  1.0121  1.3274
  450MOL0     H62099   3.173   4.881   9.104  3.1755 -1.8523 -0.0482
  450MOL0     H62100   3.237   4.769   8.979 -0.6470 -1.0015 -0.6857
  451MOL0     O62101   4.663   0.288  10.936  0.2378 -0.1005 -0.0759
  451MOL0     C62102   4.590   0.196  10.897  0.2802 -0.5032  0.3785
  451MOL0     O62103   4.627   0.062  10.886  0.1263 -0.6040  0.2088
  451MOL0     C62104   4.755   0.024  10.926  0.0578  0.2108  0.3585
  451MOL0     C62105   4.800   0.051  11.049  0.2515 -0.2485 -0.3993
  451MOL0     C62106   4.918  -0.010  11.096  1.0485 -0.0656  0.4372
  451MOL0     C62107   4.986  -0.098  11.018 -0.0526  0.4598 -0.1395
  451MOL0     O62108   5.100  -0.156  11.055 -0.0918 -0.2952 -0.0965
  451MOL0     C62109   5.087  -0.288  11.104  0.4596  0.5685  0.4706
  451MOL0     C62110   5.210  -0.299  11.194  0.0220  0.3052 -0.0956
  451MOL0     C62111   5.223  -0.437  11.251 -0.1474  0.0611 -0.4442
  451MOL0     C62112   5.302  -0.414  11.381  0.2854 -0.5566  0.2703
  451MOL0     C62113   5.326  -0.534  11.461  0.4721 -0.0607  0.2587
  451MOL0     C62114   5.437  -0.628  11.442 -0.5010 -1.6188  0.0448
  451MOL0     C62115   5.572  -0.580  11.474 -0.9303  0.0874 -0.6896
  451MOL0     C62116   5.691  -0.685  11.449  0.1071  0.0067 -0.6014
  451MOL0     N62117   5.808  -0.594  11.440  0.3320 -0.0473 -0.3447
  451MOL0     C62118   5.929  -0.628  11.495 -0.2920  1.7010 -0.2740
  451MOL0     C62119   6.022  -0.542  11.441  0.6702  0.0569 -0.0596
  451MOL0     C62120   6.159  -0.528  11.493  0.2391  0.7141 -0.7164
  451MOL0     C62121   6.260  -0.497  11.382 -0.0346 -0.5612 -0.1698
  451MOL0     C62122   6.225  -0.600  11.260  0.4316  0.3067 -0.0808
  451MOL0     C62123   6.221  -0.753  11.286  0.3615 -0.1699 -0.1222
  451MOL0     O62124   6.225  -0.823  11.166 -0.3684 -0.0226  0.0023
  451MOL0     C62125   6.107  -0.852  11.102  1.0499  0.6502 -0.6773
  451MOL0     C62126   5.973  -0.790  11.120  0.0680  0.1073  0.1032
  451MOL0     C62127   5.859  -0.843  11.058  0.7210  0.8297 -0.8482
  451MOL0     C62128   5.723  -0.780  11.093  0.2856  0.3599  0.4196
  451MOL0     C62129   5.875  -0.952  10.964  0.5316 -0.2097  0.0279
  451MOL0     C62130   5.761  -1.024  10.895  0.5661  0.1201 -0.4883
  451MOL0     O62131   5.797  -1.152  10.840  0.6362  0.7522 -0.4288
  451MOL0     C62132   5.725  -1.221  10.753  0.5851 -0.1470  0.0853
  451MOL0     C62133   5.688  -1.357  10.773 -0.1851 -1.3148 -0.3174
  451MOL0     C62134   5.626  -1.432  10.681  0.0518 -0.9953  0.7689
  451MOL0     C62135   5.599  -1.374  10.558 -0.0192 -0.4206  0.7096
  451MOL0     O62136   5.534  -1.437  10.456 -0.1201 -0.5796  0.0837
  451MOL0     C62137   5.474  -1.566  10.478  0.4438 -0.4728  0.6980
  451MOL0     C62138   5.414  -1.606  10.343  0.4551  0.7771  0.3836
  451MOL0     C62139   5.339  -1.742  10.345 -0.3821 -0.1592  0.1312
  451MOL0     C62140   5.406  -1.869  10.342 -0.6114  0.0087 -0.1517
  451MOL0     C62141   5.328  -1.982  10.275 -0.8191 -0.4365 -1.1254
  451MOL0     C62142   5.423  -2.105  10.246  0.4703 -0.6435 -0.8545
  451MOL0     C62143   5.354  -2.221  10.169  0.1599 -0.6390 -0.3477
  451MOL0     C62144   5.324  -2.195  10.026  0.4026 -0.0943  2.1568
  451MOL0    Cl62145   5.188  -2.083   9.998  0.0663  0.3226  0.1303
  451MOL0     C62146   5.628  -1.238  10.537 -0.3023  0.5747 -0.1013
  451MOL0     C62147   5.695  -1.161  10.632  0.4476  0.1092  0.7084
  451MOL0     O62148   5.651  -0.971  10.876 -0.1520  0.5920  0.0191
  451MOL0     C62149   6.002  -1.003  10.940 -0.2365 -0.2014 -0.7839
  451MOL0     C62150   6.113  -0.950  11.014 -0.4100  0.5575  0.5828
  451MOL0     N62151   5.944  -0.446  11.364  0.2912  0.2391  0.0114
  451MOL0     N62152   5.824  -0.487  11.354 -0.3102  0.2505  0.6375
  451MOL0     C62153   4.933  -0.131  10.893 -0.2423  0.4224  0.4627
  451MOL0     C62154   4.814  -0.075  10.856  0.8687 -0.3022 -0.5549
  451MOL0     C62155   4.445   0.218  10.853 -0.0424 -0.4310  0.6531
  451MOL0     C62156   4.371   0.108  10.814 -0.4234 -0.4571  0.4388
  451MOL0     C62157   4.239   0.129  10.781  0.2668 -0.1444 -0.3571
  451MOL0     C62158   4.173   0.254  10.814  0.0411 -0.3675  0.0860
  451MOL0     O62159   4.043   0.261  10.781 -0.8812 -0.6606 -0.0112
  451MOL0     C62160   3.976   0.382  10.814 -0.8406 -0.5876  0.0944
  451MOL0     C62161   3.828   0.349  10.810  0.6592  0.6201  0.0963
  451MOL0     C62162   3.748   0.457  10.876 -0.2439  0.3204  0.3355
  451MOL0     C62163   3.605   0.446  10.823  0.0829  0.2386  0.5656
  451MOL0     C62164   3.501   0.480  10.920  0.0880  0.3997  0.7070
  451MOL0     C62165   3.399   0.468  10.986  0.1962 -1.0014 -0.3173
  451MOL0     C62166   4.252   0.361  10.863 -1.0521  0.4910  1.5004
  451MOL0     C62167   4.386   0.346  10.878  0.1626  0.5699 -0.7191
  451MOL0     C62168   4.454   0.475  10.923  0.2984  0.1080  0.0374
  451MOL0     H62169   4.729   0.115  11.101 -0.7997 -0.1025 -1.9598
  451MOL0     H62170   4.955   0.001  11.198  0.8152  1.2700  0.3919
  451MOL0     H62171   5.089  -0.373  11.036  1.7695 -0.3799  1.6342
  451MOL0     H62172   4.995  -0.297  11.163 -0.4234  0.6823 -0.8563
  451MOL0     H62173   5.300  -0.263  11.145  1.0138  2.2601  2.8849
  451MOL0     H62174   5.191  -0.225  11.272  0.6431  0.5233 -0.1457
  451MOL0     H62175   5.123  -0.473  11.276 -0.1505  1.5781  2.0616
  451MOL0     H62176   5.272  -0.503  11.178  1.7363 -0.4643  1.1776
  451MOL0     H62177   5.396  -0.363  11.358  0.2192 -0.1868  0.7847
  451MOL0     H62178   5.242  -0.353  11.450  1.0598 -1.3507  1.6867
  451MOL0     H62179   5.237  -0.596  11.446 -0.3832  1.2549 -0.2197
  451MOL0     H62180   5.336  -0.513  11.568  0.2211 -1.2263  0.5324
  451MOL0     H62181   5.424  -0.712  11.511  1.2401 -0.3262  2.0533
  451MOL0     H62182   5.446  -0.676  11.344  1.5476 -2.7819  0.7466
  451MOL0     H62183   5.564  -0.553  11.580  0.7736  1.1501 -0.7957
  451MOL0     H62184   5.584  -0.483  11.425 -0.7392 -0.7546 -2.3966
  451MOL0     H62185   5.685  -0.754  11.533 -3.3572  0.6786 -0.1225
  451MOL0     H62186   5.657  -0.737  11.359  4.3661  2.1720 -3.8173
  451MOL0     H62187   5.936  -0.709  11.567 -0.2061  0.9305 -1.1201
  451MOL0     H62188   6.191  -0.621  11.539  1.0776  1.0646 -0.5801
  451MOL0     H62189   6.170  -0.451  11.570  1.1310 -2.5066  2.5909
  451MOL0     H62190   6.266  -0.392  11.353  0.9472 -0.3589  0.6667
  451MOL0     H62191   6.359  -0.522  11.423  0.3011 -0.3104 -0.8132
  451MOL0     H62192   6.127  -0.580  11.215 -0.6487 -1.0138  1.5553
  451MOL0     H62193   6.306  -0.590  11.188  1.3987  0.3029  0.9895
  451MOL0     H62194   6.313  -0.766  11.345  0.4099 -0.8047 -0.3376
  451MOL0     H62195   6.139  -0.784  11.351 -0.0744 -2.0359 -1.4945
  451MOL0     H62196   5.954  -0.696  11.171 -3.7377 -0.4450 -0.0055
  451MOL0     H62197   5.687  -0.724  11.006 -0.1632 -3.6569 -2.2757
  451MOL0     H62198   5.719  -0.707  11.174 -0.4343  2.2007 -1.2144
  451MOL0     H62199   5.652  -0.861  11.112 -0.8117  1.1879 -0.0853
  451MOL0     H62200   5.727  -1.389  10.869  3.4774  1.1071 -0.7703
  451MOL0     H62201   5.620  -1.539  10.695  0.0527 -1.4644 -2.0690
  451MOL0     H62202   5.537  -1.645  10.519  0.3201 -0.5229  0.7910
  451MOL0     H62203   5.395  -1.541  10.549  1.2080  1.9359  0.7996
  451MOL0     H62204   5.344  -1.529  10.310  3.2004  3.1802 -0.3016
  451MOL0     H62205   5.496  -1.605  10.270 -1.6937  1.6681 -2.1936
  451MOL0     H62206   5.285  -1.755  10.251 -2.0277 -1.4920  1.2032
  451MOL0     H62207   5.265  -1.737  10.425  1.7728  1.9498  2.1446
  451MOL0     H62208   5.435  -1.891  10.445  2.0741 -0.8038 -0.9763
  451MOL0     H62209   5.499  -1.850  10.287 -0.3197  1.9516  0.9266
  451MOL0     H62210   5.237  -2.001  10.333 -1.4185  2.6033 -0.9201
  451MOL0     H62211   5.299  -1.953  10.174 -3.3451 -2.3505 -1.0541
  451MOL0     H62212   5.451  -2.142  10.345 -1.4681 -0.6726 -0.2697
  451MOL0     H62213   5.512  -2.077  10.189 -0.2975 -0.4762 -2.0083
  451MOL0     H62214   5.266  -2.251  10.226  1.4701  0.4765  2.4542
  451MOL0     H62215   5.422  -2.306  10.166  1.6942  0.4885  0.8349
  451MOL0     H62216   5.300  -2.298   9.997  0.4227  0.4242  0.1572
  451MOL0     H62217   5.411  -2.160   9.971 -0.6819  1.0189  1.0749
  451MOL0     H62218   5.603  -1.193  10.441  1.5636  0.1958 -0.7978
  451MOL0     H62219   5.709  -1.057  10.606 -0.4686  0.8545  2.9440
  451MOL0     H62220   6.014  -1.077  10.862  1.3236 -1.0887  0.2449
  451MOL0     H62221   6.208  -1.002  10.998  0.6413  2.9238 -1.6071
  451MOL0     H62222   4.967  -0.204  10.821 -4.7627 -0.7617 -0.8116
  451MOL0     H62223   4.755  -0.120  10.776 -0.2309 -0.4069  0.2918
  451MOL0     H62224   4.419   0.014  10.788 -1.5103 -0.4260 -2.0080
  451MOL0     H62225   4.167   0.057  10.744  0.8096 -0.4123 -0.9087
  451MOL0     H62226   4.000   0.419  10.914 -2.1802 -0.2531  0.3110
  451MOL0     H62227   3.989   0.468  10.747 -2.3987 -0.1797  0.2719
  451MOL0     H62228   3.795   0.252  10.849 -1.1519  1.6871  1.3808
  451MOL0     H62229   3.804   0.343  10.703  1.9766 -3.5731 -0.1477
  451MOL0     H62230   3.751   0.451  10.985  0.8341  0.7881  0.3445
  451MOL0     H62231   3.796   0.551  10.848  2.5125 -1.1770 -0.3007
  451MOL0     H62232   3.580   0.345  10.789  2.1438 -0.2244  0.2787
  451MOL0     H62233   3.590   0.510  10.735 -4.0345  0.0710  0.9476
  451MOL0     H62234   3.315   0.476  11.052  0.7746  0.9535  0.2524
  451MOL0     H62235   4.210   0.461  10.875 -2.4051 -0.0964  1.8719
  451MOL0     H62236   4.384   0.557  10.902  0.3900 -0.0066 -0.7741
  451MOL0     H62237   4.464   0.472  11.031 -5.0278  0.0164  0.8038
  451MOL0     H62238   4.546   0.507  10.874  0.7792  0.6165  1.2339
  452MOL0     O62239   4.015   3.260   0.862 -0.6401  0.3290 -0.2455
  452MOL0     C62240   3.947   3.305   0.781  1.0492  1.0095  0.2061
  452MOL0     O62241   3.967   3.311   0.646  0.0410  0.4476  0.6903
  452MOL0     C62242   4.093   3.314   0.594 -0.0147 -0.0524 -0.8305
  452MOL0     C62243   4.109   3.246   0.473  0.3248 -0.7940 -0.2131
  452MOL0     C62244   4.236   3.226   0.409 -0.2795 -0.9293  0.1458
  452MOL0     C62245   4.345   3.293   0.458 -0.1064  0.5131 -0.1102
  452MOL0     O62246   4.462   3.269   0.387  0.2474  0.6424  0.5643
  452MOL0     C62247   4.569   3.366   0.399  0.0168  0.7748  0.6006
  452MOL0     C62248   4.642   3.353   0.266 -0.0319  0.2619 -0.3306
  452MOL0     C62249   4.724   3.228   0.268  0.4014  0.2071 -0.2262
  452MOL0     C62250   4.869   3.251   0.294 -0.4224  0.9122  0.1899
  452MOL0     C62251   4.957   3.119   0.293  0.4919 -0.0794 -0.5345
  452MOL0     C62252   5.096   3.137   0.234  0.1860  0.1134 -0.5922
  452MOL0     C62253   5.194   3.027   0.267 -0.1581 -0.3028 -0.8339
  452MOL0     C62254   5.337   3.069   0.235  0.5033 -0.0100  0.7877
  452MOL0     N62255   5.424   2.950   0.266 -0.4778  0.0439 -0.3553
  452MOL0     C62256   5.452   2.839   0.196  0.1237  0.1057  0.4415
  452MOL0     C62257   5.528   2.769   0.276 -0.3398  0.0769  0.2394
  452MOL0     C62258   5.599   2.635   0.254  1.2484  0.4320 -0.5097
  452MOL0     C62259   5.710   2.645   0.144 -0.5899 -0.4343 -0.3475
  452MOL0     C62260   5.844   2.683   0.201 -0.8605  0.0683  0.2144
  452MOL0     C62261   5.957   2.694   0.094  0.3309 -0.2529  0.7865
  452MOL0     O62262   6.055   2.788   0.143 -0.3264 -0.0680 -0.5129
  452MOL0     C62263   6.142   2.847   0.053  0.5572  0.6788  0.6792
  452MOL0     C62264   6.153   2.823  -0.080 -0.0995  0.7040 -0.0875
  452MOL0     C62265   6.241   2.886  -0.161 -0.0922 -0.5458  0.0298
  452MOL0     C62266   6.231   2.844  -0.301 -0.1871  0.1483  0.0968
  452MOL0     C62267   6.328   2.982  -0.115  0.2016 -0.2535  0.0966
  452MOL0     C62268   6.427   3.066  -0.189 -0.3699 -0.4522 -0.8581
  452MOL0     O62269   6.512   3.130  -0.099  0.3770 -0.1555  0.3218
  452MOL0     C62270   6.616   3.212  -0.142  0.2354 -0.1864  0.1962
  452MOL0     C62271   6.605   3.313  -0.234 -0.5208 -0.8263  0.1853
  452MOL0     C62272   6.712   3.394  -0.268  0.1485 -0.5919 -0.0072
  452MOL0     C62273   6.833   3.382  -0.205 -0.0521  1.0777 -0.0455
  452MOL0     O62274   6.932   3.471  -0.241  0.5211  0.4128 -0.2560
  452MOL0     C62275   7.065   3.450  -0.192 -1.2671 -0.0034 -0.7126
  452MOL0     C62276   7.147   3.552  -0.266  0.0380 -0.0386 -0.2667
  452MOL0     C62277   7.279   3.597  -0.205 -0.2567 -0.9308 -0.8960
  452MOL0     C62278   7.243   3.677  -0.078 -0.1294 -0.4283  0.0705
  452MOL0     C62279   7.362   3.726   0.003 -0.2324 -0.5296 -0.2847
  452MOL0     C62280   7.433   3.843  -0.064  0.0688  0.1374  0.5528
  452MOL0     C62281   7.534   3.923   0.016 -0.8898 -0.1267 -0.4533
  452MOL0     C62282   7.576   4.057  -0.040  0.2675  0.9868  0.0649
  452MOL0    Cl62283   7.711   4.124   0.057 -0.0470 -0.2742 -0.1446
  452MOL0     C62284   6.842   3.281  -0.103  0.4465 -0.4992 -0.3459
  452MOL0     C62285   6.737   3.196  -0.073  0.9766 -0.2051  0.0370
  452MOL0     O62286   6.437   3.070  -0.312  0.7420  0.2788 -0.8664
  452MOL0     C62287   6.335   2.989   0.034 -0.2344  0.6506  0.9642
  452MOL0     C62288   6.239   2.918   0.110 -0.2597  0.4805  1.1400
  452MOL0     N62289   5.556   2.833   0.393 -0.1328 -0.1373 -0.4560
  452MOL0     N62290   5.500   2.946   0.382 -0.2701 -0.8237 -0.5018
  452MOL0     C62291   4.333   3.371   0.574  0.4741 -0.4480 -0.1147
  452MOL0     C62292   4.208   3.379   0.641  0.4776 -0.4938 -0.5665
  452MOL0     C62293   3.820   3.339   0.843  0.5758 -0.5160  0.5449
  452MOL0     C62294   3.711   3.323   0.757  0.5179 -0.3450  0.1205
  452MOL0     C62295   3.578   3.347   0.802  0.3230 -0.9619  0.2055
  452MOL0     C62296   3.551   3.376   0.937 -0.0808  0.3062  0.1847
  452MOL0     O62297   3.431   3.412   0.997 -0.0745  0.2094  0.3414
  452MOL0     C62298   3.312   3.440   0.918  0.2447 -0.0562  0.1840
  452MOL0     C62299   3.223   3.308   0.901 -0.0459 -0.0411  0.7565
  452MOL0     C62300   3.142   3.268   1.022  0.4841  0.0474  0.9519
  452MOL0     C62301   3.108   3.121   1.009  0.5126  0.8951  0.1106
  452MOL0     C62302   3.035   3.082   1.130 -0.1165  0.3131  1.0853
  452MOL0     C62303   2.964   3.049   1.219 -0.2810  0.6663 -0.3555
  452MOL0     C62304   3.665   3.391   1.019  0.5332  0.0125 -0.1682
  452MOL0     C62305   3.792   3.376   0.970 -0.1414 -0.6006 -0.6846
  452MOL0     C62306   3.905   3.398   1.066  0.1450 -0.1190  0.5115
  452MOL0     H62307   4.020   3.211   0.422  0.2693  2.2983 -2.5454
  452MOL0     H62308   4.245   3.172   0.315 -0.8654 -3.2180  1.3293
  452MOL0     H62309   4.635   3.352   0.485 -0.6307  1.2347  1.1795
  452MOL0     H62310   4.531   3.468   0.411  2.6033  1.5797  2.8542
  452MOL0     H62311   4.571   3.341   0.183 -1.5767 -0.7044  1.0720
  452MOL0     H62312   4.705   3.441   0.249 -2.1241  1.3812 -3.1016
  452MOL0     H62313   4.682   3.165   0.347 -1.4484  0.4032 -0.9854
  452MOL0     H62314   4.713   3.182   0.169 -1.4138 -0.9117  0.4445
  452MOL0     H62315   4.909   3.321   0.221  0.2107  1.1539  0.7526
  452MOL0     H62316   4.891   3.295   0.392  0.8353  0.8285 -0.0322
  452MOL0     H62317   4.901   3.047   0.232  0.2994  0.6886 -1.2951
  452MOL0     H62318   4.959   3.080   0.395  2.5697  0.1372 -0.4532
  452MOL0     H62319   5.077   3.116   0.128 -2.2399 -2.4763  0.2191
  452MOL0     H62320   5.135   3.236   0.258 -1.9755  0.5459  1.5337
  452MOL0     H62321   5.156   2.934   0.224 -1.2675  0.7577 -2.2435
  452MOL0     H62322   5.187   3.013   0.376 -0.1764  0.3783 -0.7428
  452MOL0     H62323   5.339   3.095   0.129 -1.9698  0.1036  0.6960
  452MOL0     H62324   5.353   3.155   0.301 -1.9407 -0.3139  1.9149
  452MOL0     H62325   5.425   2.818   0.093  0.7278  1.0712  0.0661
  452MOL0     H62326   5.524   2.559   0.227 -1.8404  2.4730  1.6348
  452MOL0     H62327   5.648   2.601   0.345  1.7941  1.2240 -0.4977
  452MOL0     H62328   5.737   2.547   0.102  1.8489  0.5193 -1.1939
  452MOL0     H62329   5.669   2.700   0.059 -3.8001 -0.7562  0.8484
  452MOL0     H62330   5.827   2.779   0.250 -1.1400  0.4277 -0.5746
  452MOL0     H62331   5.879   2.612   0.277  2.5814  0.0787 -1.1839
  452MOL0     H62332   6.009   2.601   0.069 -0.4501 -1.1616  2.3654
  452MOL0     H62333   5.907   2.737   0.007 -0.6140  1.4265  2.0947
  452MOL0     H62334   6.096   2.744  -0.127 -0.0654  1.4680 -1.4360
  452MOL0     H62335   6.205   2.739  -0.317 -2.0508  0.9611 -2.9056
  452MOL0     H62336   6.325   2.865  -0.353 -0.8103 -0.3244 -1.2744
  452MOL0     H62337   6.151   2.903  -0.345 -0.7610 -0.6951 -0.0096
  452MOL0     H62338   6.517   3.325  -0.297  0.8207 -0.0336 -1.6166
  452MOL0     H62339   6.690   3.454  -0.356 -2.1304 -1.5822 -0.1714
  452MOL0     H62340   7.071   3.455  -0.083 -0.1587 -0.2355 -0.7471
  452MOL0     H62341   7.112   3.355  -0.218  0.5637  1.1607 -1.9717
  452MOL0     H62342   7.167   3.509  -0.364 -0.4789 -0.2675 -0.2762
  452MOL0     H62343   7.077   3.636  -0.275 -2.5425 -1.6318  2.7679
  452MOL0     H62344   7.330   3.666  -0.272  2.2266 -1.6623  0.1418
  452MOL0     H62345   7.342   3.519  -0.161 -0.5936 -0.5769  0.2513
  452MOL0     H62346   7.189   3.623  -0.000 -2.1791 -0.0485 -1.0210
  452MOL0     H62347   7.186   3.767  -0.102  0.2050 -0.4355 -0.7782
  452MOL0     H62348   7.313   3.760   0.095 -2.7290 -1.4456 -1.1684
  452MOL0     H62349   7.420   3.636   0.026 -2.3093 -2.7240 -2.8680
  452MOL0     H62350   7.368   3.919  -0.109 -2.8341 -1.7215  1.3410
  452MOL0     H62351   7.489   3.803  -0.149 -0.5856  0.0435  0.1511
  452MOL0     H62352   7.630   3.872   0.030  0.4918  2.4857  0.4422
  452MOL0     H62353   7.498   3.946   0.117  1.2501  0.5131  0.2201
  452MOL0     H62354   7.496   4.130  -0.029 -1.1274 -0.6952  2.0162
  452MOL0     H62355   7.597   4.054  -0.147 -1.5615  2.6760 -0.3954
  452MOL0     H62356   6.939   3.286  -0.055  0.6343 -0.1752 -0.7429
  452MOL0     H62357   6.747   3.121   0.005 -0.6980  0.5252  1.0112
  452MOL0     H62358   6.413   3.041   0.089 -0.0421  0.3267  1.0001
  452MOL0     H62359   6.234   2.939   0.216 -1.1012  2.1985  0.7961
  452MOL0     H62360   4.425   3.402   0.621  0.7245 -1.4983  0.1139
  452MOL0     H62361   4.206   3.425   0.740  2.7123 -4.1633  1.4248
  452MOL0     H62362   3.725   3.294   0.653  1.0410  2.1845 -0.5820
  452MOL0     H62363   3.502   3.342   0.724  1.7858 -1.0076 -1.2936
  452MOL0     H62364   3.253   3.524   0.955  0.9147  1.4087 -1.9256
  452MOL0     H62365   3.345   3.461   0.816 -0.5322  2.5470  0.4040
  452MOL0     H62366   3.289   3.228   0.866 -0.5618  0.8720 -2.6375
  452MOL0     H62367   3.162   3.331   0.813  1.5405 -2.2316 -1.0378
  452MOL0     H62368   3.201   3.274   1.114  0.1950 -3.3097  1.4871
  452MOL0     H62369   3.058   3.337   1.035 -0.7669 -1.6860  2.5079
  452MOL0     H62370   3.201   3.068   0.987 -0.1013  0.7310 -2.4975
  452MOL0     H62371   3.045   3.101   0.922  1.1869  0.6907 -0.3436
  452MOL0     H62372   2.904   3.005   1.296  1.1333  1.4493  1.2522
  452MOL0     H62373   3.654   3.430   1.120  1.1035 -1.3469  0.4349
  452MOL0     H62374   3.873   3.448   1.158  0.5161  1.5989 -0.2404
  452MOL0     H62375   3.961   3.307   1.089 -0.3474 -1.4405 -2.9146
  452MOL0     H62376   3.962   3.474   1.011 -1.9600 -0.0834 -1.7776
  453MOL0     O62377   0.233  10.482   6.511  0.8405  0.1837 -0.0866
  453MOL0     C62378   0.200  10.428   6.404 -0.1226 -0.9592  0.4870
  453MOL0     O62379   0.288  10.372   6.312  1.2343 -0.0518 -0.3205
  453MOL0     C62380   0.417  10.359   6.347 -0.1769  0.1498  0.4967
  453MOL0     C62381   0.471  10.222   6.372  0.1901 -0.1084 -0.5332
  453MOL0     C62382   0.609  10.204   6.386  0.1622  0.5683  0.3130
  453MOL0     C62383   0.699  10.312   6.379 -0.0671  0.4043  0.3911
  453MOL0     O62384   0.831  10.294   6.383 -1.1388 -0.5416 -0.4090
  453MOL0     C62385   0.922  10.351   6.283 -0.7661  0.5879  0.5940
  453MOL0     C62386   1.046  10.256   6.286 -0.8109  0.2297 -0.6273
  453MOL0     C62387   1.017  10.126   6.215 -0.8429 -0.3983  0.7109
  453MOL0     C62388   1.143  10.044   6.201 -0.6934  1.0594 -0.7039
  453MOL0     C62389   1.189   9.980   6.336 -0.3208 -0.4223  0.7237
  453MOL0     C62390   1.092   9.882   6.402  0.0542 -0.1642 -0.6417
  453MOL0     C62391   1.159   9.823   6.531  0.1970  0.7214  0.2834
  453MOL0     C62392   1.057   9.778   6.638  0.1611  0.1030  0.2611
  453MOL0     N62393   1.122   9.730   6.758  0.1563  0.2281 -0.6400
  453MOL0     C62394   1.156   9.602   6.794 -0.0677  0.1806  0.2191
  453MOL0     C62395   1.195   9.608   6.917 -0.3277 -0.3145  0.1729
  453MOL0     C62396   1.239   9.485   6.989 -0.5065 -0.1993 -0.0830
  453MOL0     C62397   1.387   9.497   7.027 -0.3514  0.2435 -0.1283
  453MOL0     C62398   1.449   9.375   7.089 -0.5642  0.6834 -0.6977
  453MOL0     C62399   1.380   9.354   7.226 -0.0633 -0.5842 -0.4511
  453MOL0     O62400   1.410   9.223   7.283  0.5034  0.8401  0.2056
  453MOL0     C62401   1.533   9.200   7.348  0.5174  0.3640  0.4454
  453MOL0     C62402   1.630   9.295   7.380  0.5486  0.0623 -0.6241
  453MOL0     C62403   1.738   9.260   7.462  0.4413  0.0297 -0.5010
  453MOL0     C62404   1.840   9.372   7.481 -0.1135 -0.4190  0.0007
  453MOL0     C62405   1.748   9.130   7.514 -0.3538  0.1945 -0.1735
  453MOL0     C62406   1.851   9.095   7.609 -0.8978 -0.4694  0.4641
  453MOL0     O62407   1.851   8.961   7.641 -1.2207 -0.6297  0.0862
  453MOL0     C62408   1.947   8.928   7.743  0.0415  0.0567  0.5814
  453MOL0     C62409   2.081   8.901   7.727  0.3898  0.1387  0.3712
  453MOL0     C62410   2.165   8.864   7.833 -0.2083 -0.4135 -0.2401
  453MOL0     C62411   2.106   8.842   7.966  0.4995 -0.5958  0.7414
  453MOL0     O62412   2.188   8.796   8.066  0.1563 -0.0219 -0.1108
  453MOL0     C62413   2.317   8.743   8.034 -0.2403  0.2042 -0.4453
  453MOL0     C62414   2.349   8.636   8.148 -0.3644 -0.8013 -0.4459
  453MOL0     C62415   2.376   8.704   8.278  0.5777 -0.0626  0.1588
  453MOL0     C62416   2.441   8.596   8.374  0.5720  0.0186 -0.2592
  453MOL0     C62417   2.405   8.621   8.516 -0.1700  0.9467  0.1413
  453MOL0     C62418   2.493   8.524   8.603  0.0233 -1.1392  0.2243
  453MOL0     C62419   2.472   8.548   8.749 -0.0044 -0.2329 -0.1231
  453MOL0     C62420   2.593   8.502   8.836 -1.0672  1.0029 -0.0865
  453MOL0    Cl62421   2.745   8.596   8.809  0.0908 -0.0469  0.4748
  453MOL0     C62422   1.971   8.864   7.976  0.2702  0.2434 -0.7604
  453MOL0     C62423   1.892   8.909   7.870 -0.3853 -0.1379 -0.1808
  453MOL0     O62424   1.927   9.177   7.661 -0.6645  0.4758  0.5398
  453MOL0     C62425   1.644   9.041   7.494 -0.8772  0.4229  0.9212
  453MOL0     C62426   1.543   9.077   7.409  1.1316 -0.4237 -0.2651
  453MOL0     N62427   1.189   9.736   6.953 -0.3629 -0.2825 -0.1165
  453MOL0     N62428   1.155   9.815   6.858  0.0779  0.1252  0.1768
  453MOL0     C62429   0.646  10.434   6.351  0.1278 -0.9020  0.4189
  453MOL0     C62430   0.511  10.463   6.335 -0.3484  0.3847 -0.9759
  453MOL0     C62431   0.055  10.425   6.358 -0.1753  0.7018 -0.1640
  453MOL0     C62432  -0.008  10.539   6.407 -0.6840  0.4262  0.0030
  453MOL0     C62433  -0.139  10.549   6.383  0.7107 -0.4146  0.1877
  453MOL0     C62434  -0.215  10.458   6.313 -0.7108  0.3237  0.4377
  453MOL0     O62435  -0.356  10.485   6.300 -0.2330 -0.0839 -0.1462
  453MOL0     C62436  -0.435  10.380   6.250 -0.4409 -0.0670 -1.2037
  453MOL0     C62437  -0.583  10.400   6.290 -0.1505  0.3080 -0.3758
  453MOL0     C62438  -0.635  10.506   6.205  0.0645  0.3962 -0.3515
  453MOL0     C62439  -0.786  10.518   6.238 -0.8373  0.6532 -0.4178
  453MOL0     C62440  -0.832  10.651   6.196  0.1633 -0.2751 -0.0931
  453MOL0     C62441  -0.875  10.761   6.157 -0.7905 -0.7474  0.1280
  453MOL0     C62442  -0.153  10.344   6.258 -0.5526 -0.0497  0.2338
  453MOL0     C62443  -0.013  10.330   6.276 -0.3477  0.4818  1.0376
  453MOL0     C62444   0.056  10.209   6.216 -0.0317  0.7359  0.1445
  453MOL0     H62445   0.399  10.142   6.376  0.4591 -0.2987  1.5734
  453MOL0     H62446   0.647  10.107   6.417 -1.9530 -0.4675 -0.1123
  453MOL0     H62447   0.959  10.446   6.323  1.6015  0.7560 -1.7654
  453MOL0     H62448   0.883  10.368   6.182  2.2584  0.1424 -0.7471
  453MOL0     H62449   1.133  10.307   6.245  1.6761 -2.5592  0.7669
  453MOL0     H62450   1.065  10.228   6.390 -1.4930 -1.3172 -0.8885
  453MOL0     H62451   0.935  10.073   6.266  1.6388 -0.9417  4.4962
  453MOL0     H62452   0.978  10.151   6.116  1.7136  1.2594  0.0547
  453MOL0     H62453   1.115   9.960   6.136  0.4791  0.9351 -1.0765
  453MOL0     H62454   1.228  10.099   6.158  0.1009  0.7891  0.4831
  453MOL0     H62455   1.217  10.061   6.405  1.7527  0.1498 -0.6734
  453MOL0     H62456   1.284   9.929   6.314  1.4304  2.4576  1.0537
  453MOL0     H62457   1.002   9.937   6.432 -0.2929 -2.6280  3.5268
  453MOL0     H62458   1.061   9.806   6.329 -0.2414 -0.2844 -0.3937
  453MOL0     H62459   1.231   9.888   6.581  1.2724 -1.0775  1.2176
  453MOL0     H62460   1.218   9.736   6.501 -0.5483  0.2462  0.1584
  453MOL0     H62461   0.999   9.868   6.663  1.9133  0.6971  2.5530
  453MOL0     H62462   0.994   9.698   6.597  0.5773  0.2836 -0.7467
  453MOL0     H62463   1.151   9.516   6.728  1.7819 -0.9223  1.4223
  453MOL0     H62464   1.216   9.394   6.934  0.8850 -0.7693  0.2466
  453MOL0     H62465   1.186   9.503   7.083 -1.1229  1.7355 -0.7312
  453MOL0     H62466   1.444   9.526   6.939 -1.6369  3.7990  0.0169
  453MOL0     H62467   1.394   9.582   7.096  2.3003 -1.0707  1.3689
  453MOL0     H62468   1.436   9.291   7.021  2.4121 -0.8494  0.4531
  453MOL0     H62469   1.557   9.383   7.106 -0.8023 -0.8308  2.0801
  453MOL0     H62470   1.397   9.434   7.299 -1.4887 -0.6926  0.0392
  453MOL0     H62471   1.272   9.341   7.214  0.4361 -4.2426 -2.5712
  453MOL0     H62472   1.612   9.396   7.342  2.0304  0.5321 -0.1664
  453MOL0     H62473   1.878   9.392   7.582  2.4485 -1.5380 -0.6512
  453MOL0     H62474   1.800   9.467   7.445  1.4016  0.4886  0.6089
  453MOL0     H62475   1.935   9.354   7.430  0.2486  0.3426  0.3951
  453MOL0     H62476   2.121   8.905   7.627 -3.2637  2.3053 -1.2037
  453MOL0     H62477   2.273   8.858   7.826 -0.0899  1.5806 -0.6294
  453MOL0     H62478   2.316   8.686   7.941 -0.6155  2.3097 -1.8072
  453MOL0     H62479   2.391   8.824   8.028 -0.1588  0.0718 -1.3947
  453MOL0     H62480   2.272   8.559   8.157  0.9022 -2.0579  0.0901
  453MOL0     H62481   2.445   8.588   8.127 -0.9692 -2.6697  0.7469
  453MOL0     H62482   2.287   8.747   8.325 -0.4330 -1.9464  0.0564
  453MOL0     H62483   2.438   8.794   8.267 -2.4775  2.0031 -1.8770
  453MOL0     H62484   2.548   8.617   8.375  0.3349  1.3115  1.0849
  453MOL0     H62485   2.430   8.491   8.344 -0.8828  0.2903 -0.7975
  453MOL0     H62486   2.426   8.728   8.523  2.4955  0.5233 -0.2073
  453MOL0     H62487   2.300   8.597   8.535 -0.1155 -0.6701 -1.3476
  453MOL0     H62488   2.600   8.540   8.587  0.1894 -0.9607  1.4468
  453MOL0     H62489   2.471   8.421   8.574 -0.8477 -0.7025 -0.7081
  453MOL0     H62490   2.389   8.491   8.793 -0.6136  2.1088  1.9473
  453MOL0     H62491   2.461   8.655   8.767 -2.1911  0.0563 -2.5739
  453MOL0     H62492   2.623   8.401   8.806 -0.3836  1.0862  0.2890
  453MOL0     H62493   2.576   8.516   8.944  0.6154  0.3582  0.2875
  453MOL0     H62494   1.922   8.833   8.068  1.4624  1.3605  0.3048
  453MOL0     H62495   1.787   8.913   7.899  0.4947 -0.3971  3.6963
  453MOL0     H62496   1.642   8.946   7.547  0.5375 -0.7577 -0.9886
  453MOL0     H62497   1.455   9.014   7.395  1.8982 -1.0777 -2.5927
  453MOL0     H62498   0.715  10.517   6.348  2.0437 -2.0418  4.5880
  453MOL0     H62499   0.503  10.566   6.303 -0.5651  0.7259  0.1196
  453MOL0     H62500   0.041  10.613   6.469  1.9107  0.5946 -2.0874
  453MOL0     H62501  -0.196  10.634   6.421 -1.2698 -0.6736 -1.9127
  453MOL0     H62502  -0.421  10.364   6.143 -0.3338  1.2392 -1.4017
  453MOL0     H62503  -0.413  10.286   6.301  2.8645  0.5160 -1.3358
  453MOL0     H62504  -0.598  10.427   6.395 -1.6727  0.7432 -0.6867
  453MOL0     H62505  -0.648  10.313   6.284  1.9888 -1.5592  1.5837
  453MOL0     H62506  -0.583  10.599   6.231 -0.2903  0.1869  1.2277
  453MOL0     H62507  -0.619  10.476   6.101  0.7048 -0.5644  0.0160
  453MOL0     H62508  -0.811  10.511   6.345 -0.0664 -2.5902 -0.3383
  453MOL0     H62509  -0.845  10.444   6.182  1.5123  0.2720 -2.5891
  453MOL0     H62510  -0.892  10.865   6.138  1.3903 -0.3714 -0.0257
  453MOL0     H62511  -0.207  10.277   6.192 -4.3922  3.5085 -0.6495
  453MOL0     H62512  -0.000  10.163   6.135  2.3641  0.0279 -1.2253
  453MOL0     H62513   0.149  10.231   6.162  1.1482 -1.2184  1.2481
  453MOL0     H62514   0.066  10.125   6.286  0.4913  0.9471  0.3342
  454MOL0     O62515   4.529   9.738   9.648 -0.3943  0.3298  0.2813
  454MOL0     C62516   4.437   9.660   9.660  1.0829 -0.1114  0.7384
  454MOL0     O62517   4.448   9.529   9.695  0.1563 -0.2944  0.8918
  454MOL0     C62518   4.571   9.456   9.690  0.6544 -0.6968 -1.6535
  454MOL0     C62519   4.570   9.326   9.636 -0.1527  0.5726 -0.5454
  454MOL0     C62520   4.695   9.260   9.620  0.6619  1.0036  0.2797
  454MOL0     C62521   4.808   9.318   9.670 -0.2103  0.5517 -0.5818
  454MOL0     O62522   4.922   9.250   9.640  0.4869 -0.1368 -0.4638
  454MOL0     C62523   5.050   9.326   9.634 -0.0445 -0.9963 -0.7627
  454MOL0     C62524   5.158   9.227   9.600  0.2039 -0.0327 -0.0276
  454MOL0     C62525   5.295   9.297   9.594  0.4673  0.3790  0.9438
  454MOL0     C62526   5.339   9.317   9.450  0.1327  0.3114 -0.3563
  454MOL0     C62527   5.479   9.361   9.442 -0.6880 -0.0156 -0.4340
  454MOL0     C62528   5.518   9.487   9.519 -0.0214  0.5063  1.1323
  454MOL0     C62529   5.449   9.605   9.456 -0.4753 -0.0444  0.8693
  454MOL0     C62530   5.492   9.740   9.512  0.9643 -0.7376  0.1205
  454MOL0     N62531   5.639   9.773   9.487  0.5948  0.3218  0.1864
  454MOL0     C62532   5.728   9.774   9.590 -0.5845  0.6698 -0.2417
  454MOL0     C62533   5.850   9.765   9.527  1.0163  0.3316 -0.3769
  454MOL0     C62534   5.979   9.717   9.582 -0.0270  0.2212 -0.4354
  454MOL0     C62535   6.090   9.833   9.597 -0.3280  0.5200 -0.1946
  454MOL0     C62536   6.056   9.960   9.689 -0.2193 -0.2785  0.2457
  454MOL0     C62537   6.002   9.932   9.828  0.0180  0.2449  0.1557
  454MOL0     O62538   6.107   9.908   9.914 -0.5312  0.0382  0.5903
  454MOL0     C62539   6.086   9.853  10.031  0.0607  0.3050 -0.0513
  454MOL0     C62540   5.966   9.866  10.099  0.2483  0.4998 -0.1717
  454MOL0     C62541   5.939   9.810  10.220 -0.6569  0.3925  0.1157
  454MOL0     C62542   5.816   9.849  10.301  0.4481 -0.6931  0.1694
  454MOL0     C62543   6.035   9.722  10.277  0.7379 -1.1497  0.1049
  454MOL0     C62544   6.018   9.659  10.416 -0.7990  0.6468  0.2647
  454MOL0     O62545   6.134   9.648  10.496 -0.3532  0.5900 -0.4466
  454MOL0     C62546   6.129   9.566  10.605 -0.1808  0.7768  0.8801
  454MOL0     C62547   6.190   9.611  10.723 -0.1628  0.0429 -0.2656
  454MOL0     C62548   6.194   9.523  10.831 -0.3393  0.1841 -0.9036
  454MOL0     C62549   6.151   9.389  10.817  0.3315  0.3397 -0.3939
  454MOL0     O62550   6.166   9.320  10.939 -0.1382 -0.1806  0.0984
  454MOL0     C62551   6.071   9.214  10.960  0.2328 -0.2538  0.4154
  454MOL0     C62552   6.099   9.134  11.095  0.2001  0.4808  0.0333
  454MOL0     C62553   6.002   9.008  11.091 -0.5281 -0.3101 -0.4988
  454MOL0     C62554   5.851   9.051  11.114 -0.5477 -0.0815 -0.1820
  454MOL0     C62555   5.784   8.944  11.204  0.9815 -0.0399  0.3597
  454MOL0     C62556   5.629   8.953  11.210 -0.0960 -0.7346 -0.3584
  454MOL0     C62557   5.561   8.979  11.070  0.3057  0.2476 -0.4011
  454MOL0     C62558   5.411   8.959  11.070  0.3335  0.8889 -0.4119
  454MOL0    Cl62559   5.371   8.784  11.081 -0.3195 -0.3388 -0.3791
  454MOL0     C62560   6.099   9.339  10.695 -0.2271  0.1760 -0.6945
  454MOL0     C62561   6.084   9.435  10.594  0.8082 -0.0571  0.5507
  454MOL0     O62562   5.906   9.611  10.448  0.1752 -0.4043  0.3669
  454MOL0     C62563   6.156   9.703  10.215 -1.0793 -0.7164  0.5205
  454MOL0     C62564   6.178   9.763  10.091 -0.3126 -0.2239 -1.0132
  454MOL0     N62565   5.831   9.781   9.390 -0.7678  0.0346  1.1548
  454MOL0     N62566   5.709   9.779   9.367  0.0060  0.6035  0.0697
  454MOL0     C62567   4.803   9.437   9.728 -0.2317  0.2395 -0.0895
  454MOL0     C62568   4.689   9.518   9.732  0.6779  0.5895  0.5661
  454MOL0     C62569   4.300   9.720   9.652 -0.3401  0.7548  0.7508
  454MOL0     C62570   4.291   9.856   9.609  0.6525 -0.5143  0.1661
  454MOL0     C62571   4.166   9.921   9.594 -0.4736  0.4973  0.4323
  454MOL0     C62572   4.052   9.862   9.645  0.0047  0.4076  0.2773
  454MOL0     O62573   3.934   9.936   9.636 -0.1242  0.2835  0.0795
  454MOL0     C62574   3.829   9.920   9.732  0.6346 -0.2883 -0.5483
  454MOL0     C62575   3.714  10.008   9.698  0.7138 -0.8594 -0.0239
  454MOL0     C62576   3.584   9.959   9.757  0.0484 -0.2014 -0.5002
  454MOL0     C62577   3.463  10.023   9.692  1.2843  0.5375 -0.2494
  454MOL0     C62578   3.449  10.169   9.704 -1.0058  0.6802  0.4051
  454MOL0     C62579   3.445  10.290   9.722 -0.2688 -0.5049  0.0648
  454MOL0     C62580   4.061   9.725   9.688 -0.1747  0.0735 -0.1065
  454MOL0     C62581   4.180   9.652   9.697 -0.1675 -0.3403  0.5472
  454MOL0     C62582   4.188   9.508   9.749  0.3427  0.0193 -0.5138
  454MOL0     H62583   4.477   9.286   9.595 -0.5591 -1.5946  2.1584
  454MOL0     H62584   4.699   9.162   9.573 -1.2233  1.2943 -0.5876
  454MOL0     H62585   5.072   9.360   9.735 -1.8735  0.0128 -0.6519
  454MOL0     H62586   5.033   9.416   9.574 -1.1705  1.0844  2.4045
  454MOL0     H62587   5.149   9.165   9.689  1.5675  2.8124  2.2747
  454MOL0     H62588   5.145   9.173   9.506  1.9132  1.7935 -1.4126
  454MOL0     H62589   5.289   9.393   9.645 -0.5437  1.3320 -0.8566
  454MOL0     H62590   5.371   9.243   9.650 -0.0258 -1.0838  0.2740
  454MOL0     H62591   5.323   9.224   9.394 -0.1575 -0.0313  0.2948
  454MOL0     H62592   5.289   9.392   9.389 -0.0524 -1.8424 -3.0730
  454MOL0     H62593   5.506   9.370   9.337 -0.8475 -1.6422 -0.6452
  454MOL0     H62594   5.537   9.273   9.474 -2.3220 -0.0860  2.8185
  454MOL0     H62595   5.490   9.477   9.625 -1.4064 -1.8140  0.6161
  454MOL0     H62596   5.627   9.500   9.513  0.4704 -2.9605 -0.0134
  454MOL0     H62597   5.342   9.596   9.479  0.0613 -3.4952  2.7524
  454MOL0     H62598   5.469   9.600   9.349  0.5632 -0.8845  1.0872
  454MOL0     H62599   5.439   9.821   9.461  0.7342 -1.5498 -0.9727
  454MOL0     H62600   5.479   9.745   9.620  0.0376  0.6836 -0.0320
  454MOL0     H62601   5.698   9.763   9.694 -1.4846  0.7838 -0.4849
  454MOL0     H62602   6.020   9.645   9.510  1.5684  0.4384  0.2133
  454MOL0     H62603   5.957   9.671   9.678  1.3397 -0.9701 -0.6708
  454MOL0     H62604   6.175   9.787   9.649  1.5635  2.0216 -1.7649
  454MOL0     H62605   6.114   9.870   9.496  0.5049 -2.2432 -1.1000
  454MOL0     H62606   6.139  10.026   9.714  1.6981 -2.1820 -0.7693
  454MOL0     H62607   5.980  10.025   9.642 -1.6483 -0.0881  2.6526
  454MOL0     H62608   5.962  10.027   9.865  2.9843  1.8939 -0.5626
  454MOL0     H62609   5.925   9.854   9.832 -1.1953  1.4656  2.0260
  454MOL0     H62610   5.888   9.931  10.059  0.3710  1.5869  1.2784
  454MOL0     H62611   5.742   9.768  10.306 -0.3270  0.0654  2.7825
  454MOL0     H62612   5.767   9.944  10.277  0.5993 -0.5035  0.6053
  454MOL0     H62613   5.849   9.866  10.404 -0.1572 -1.4088  0.4987
  454MOL0     H62614   6.217   9.715  10.738  2.5343 -0.7406  1.0106
  454MOL0     H62615   6.245   9.557  10.920 -1.5582 -0.9327  0.2559
  454MOL0     H62616   5.970   9.257  10.952  0.4878  0.8636  2.5047
  454MOL0     H62617   6.076   9.149  10.872  0.2745  1.4467 -0.8965
  454MOL0     H62618   6.200   9.093  11.097 -1.2620 -3.6136 -1.1273
  454MOL0     H62619   6.077   9.193  11.185  1.3760 -0.3186  0.8693
  454MOL0     H62620   6.022   8.934  11.169 -0.6257  0.8088  0.6261
  454MOL0     H62621   6.010   8.966  10.991 -1.7802 -3.7568  0.6976
  454MOL0     H62622   5.810   9.057  11.013  1.0015  0.3684 -0.8150
  454MOL0     H62623   5.840   9.151  11.156 -1.8594 -0.7456  1.1467
  454MOL0     H62624   5.804   8.840  11.179  0.9143  0.1860 -0.7076
  454MOL0     H62625   5.826   8.968  11.301  1.1953 -0.2823  0.3274
  454MOL0     H62626   5.598   9.029  11.283  1.0680  0.3697 -0.9753
  454MOL0     H62627   5.604   8.853  11.245  0.5258 -0.8503 -0.2355
  454MOL0     H62628   5.610   8.914  10.996  0.9788  1.1120 -0.7404
  454MOL0     H62629   5.573   9.083  11.039 -0.4870  0.6300  0.5671
  454MOL0     H62630   5.359   8.997  10.981 -2.2298 -3.3514 -1.0016
  454MOL0     H62631   5.356   9.011  11.149 -1.8711 -1.1298 -0.5215
  454MOL0     H62632   6.050   9.242  10.696 -0.8026  0.4381 -1.8058
  454MOL0     H62633   6.042   9.414  10.497  1.7778  3.1680 -0.6995
  454MOL0     H62634   6.231   9.639  10.260 -2.0145 -0.7048  2.1565
  454MOL0     H62635   6.270   9.755  10.033  1.3259  2.2343  1.0094
  454MOL0     H62636   4.895   9.481   9.764  1.0731  0.1309 -3.0033
  454MOL0     H62637   4.694   9.617   9.776 -0.4006  1.3406 -0.9044
  454MOL0     H62638   4.383   9.905   9.580  0.9891 -1.0417  0.3264
  454MOL0     H62639   4.153  10.021   9.553  3.6544  0.0456 -2.6639
  454MOL0     H62640   3.800   9.815   9.726  1.4145 -0.6627  1.4037
  454MOL0     H62641   3.857   9.937   9.837 -2.0877  0.2289  0.1782
  454MOL0     H62642   3.698  10.009   9.590 -0.5190  1.1620  0.1318
  454MOL0     H62643   3.735  10.112   9.725  0.3264 -0.1201 -2.3940
  454MOL0     H62644   3.578   9.851   9.742  0.8883 -0.0973 -1.7294
  454MOL0     H62645   3.582   9.981   9.864 -0.2310  1.5134 -0.8168
  454MOL0     H62646   3.380   9.986   9.753  1.6921  1.9075  1.2082
  454MOL0     H62647   3.446   9.997   9.587 -0.9284 -0.9177  0.3874
  454MOL0     H62648   3.432  10.395   9.736  1.3100 -0.2529 -0.1684
  454MOL0     H62649   3.973   9.675   9.727  0.9109 -1.0976  0.9156
  454MOL0     H62650   4.248   9.503   9.840  1.2787 -0.3217 -1.1358
  454MOL0     H62651   4.086   9.480   9.776  0.7424 -0.6279  0.3859
  454MOL0     H62652   4.225   9.438   9.673 -1.3285  1.5406 -2.8688
  455MOL0     O62653   4.367   0.327   3.977  0.7584 -0.5000 -0.4807
  455MOL0     C62654   4.485   0.310   3.948 -0.6199  0.0630  0.1015
  455MOL0     O62655   4.559   0.201   3.980 -0.4544  0.6878  0.0917
  455MOL0     C62656   4.495   0.089   4.022 -0.5266 -0.2313 -0.4066
  455MOL0     C62657   4.370   0.042   3.976 -0.2541 -0.2335 -0.1763
  455MOL0     C62658   4.299  -0.053   4.044 -0.1479  0.4456  0.4128
  455MOL0     C62659   4.353  -0.118   4.159  0.3984  0.2926 -0.6414
  455MOL0     O62660   4.300  -0.219   4.234 -0.3585 -0.0926 -0.0355
  455MOL0     C62661   4.167  -0.266   4.196 -0.1133 -0.1222 -0.5450
  455MOL0     C62662   4.139  -0.383   4.282  0.3049  0.4511  0.9419
  455MOL0     C62663   4.180  -0.526   4.262 -0.3839 -0.5877 -0.3697
  455MOL0     C62664   4.324  -0.556   4.231 -0.0213 -0.1965  0.0193
  455MOL0     C62665   4.420  -0.545   4.363  0.0383  0.3757 -0.1791
  455MOL0     C62666   4.554  -0.586   4.317 -0.0607  0.0312 -1.2555
  455MOL0     C62667   4.646  -0.618   4.433 -0.1027 -0.0649 -0.1827
  455MOL0     C62668   4.622  -0.747   4.505  0.3883 -0.6179 -0.4647
  455MOL0     N62669   4.715  -0.765   4.610 -0.6325  0.3030  0.5850
  455MOL0     C62670   4.847  -0.781   4.576  0.7621  0.2196 -0.4090
  455MOL0     C62671   4.921  -0.765   4.694  0.1006 -0.0034 -0.0340
  455MOL0     C62672   5.070  -0.785   4.704  0.0362 -0.2997  0.5291
  455MOL0     C62673   5.141  -0.668   4.765 -0.3615 -0.0246 -0.0190
  455MOL0     C62674   5.116  -0.658   4.924  0.7879  0.4196  0.4038
  455MOL0     C62675   5.205  -0.549   4.998 -0.7886  0.0823  0.1508
  455MOL0     O62676   5.343  -0.584   4.999 -0.9442  0.3358 -0.4441
  455MOL0     C62677   5.435  -0.514   5.079 -0.1407 -1.1541  0.0683
  455MOL0     C62678   5.415  -0.390   5.149  0.1201  0.2046  0.2697
  455MOL0     C62679   5.516  -0.332   5.234 -0.7679  0.7184 -0.1186
  455MOL0     C62680   5.476  -0.216   5.316  0.1076 -0.1217 -0.1947
  455MOL0     C62681   5.651  -0.396   5.237  0.9047  0.4886  1.4853
  455MOL0     C62682   5.770  -0.346   5.302  0.5809 -0.4760 -0.5191
  455MOL0     O62683   5.886  -0.428   5.306  0.4937  0.4077 -0.3466
  455MOL0     C62684   6.000  -0.359   5.326  0.6935  0.8402  0.5126
  455MOL0     C62685   6.069  -0.369   5.442 -0.3309 -0.3893 -0.6613
  455MOL0     C62686   6.197  -0.317   5.445  0.1729 -0.0925 -0.3704
  455MOL0     C62687   6.249  -0.238   5.342  0.4311 -0.1493 -0.1753
  455MOL0     O62688   6.373  -0.187   5.365  0.2145 -0.2585 -0.0356
  455MOL0     C62689   6.448  -0.133   5.251 -0.0463  0.4015 -0.0131
  455MOL0     C62690   6.567  -0.064   5.313 -0.1636  0.0940  0.1908
  455MOL0     C62691   6.661  -0.168   5.377  0.2749 -0.9567 -0.4207
  455MOL0     C62692   6.777  -0.094   5.441  0.7941 -0.1311  0.0210
  455MOL0     C62693   6.875  -0.203   5.485  0.2554  0.1700 -0.8527
  455MOL0     C62694   6.978  -0.151   5.602 -0.7654  0.0115  0.7835
  455MOL0     C62695   7.097  -0.251   5.618 -0.5499  0.2012  0.2187
  455MOL0     C62696   7.188  -0.212   5.738  0.1153 -0.8407 -0.2523
  455MOL0    Cl62697   7.098  -0.205   5.896  0.1893 -0.1604 -0.1183
  455MOL0     C62698   6.178  -0.220   5.224  0.4605 -1.4067 -0.0325
  455MOL0     C62699   6.063  -0.287   5.220  0.6967 -0.2775 -0.2120
  455MOL0     O62700   5.755  -0.238   5.353 -0.5793 -0.9701  0.1032
  455MOL0     C62701   5.673  -0.505   5.157 -0.1533  0.9223 -0.8781
  455MOL0     C62702   5.561  -0.568   5.085 -0.4164 -0.6560  0.2868
  455MOL0     N62703   4.832  -0.732   4.793 -0.2530 -0.6295 -0.6040
  455MOL0     N62704   4.713  -0.720   4.738 -0.4502  0.1483 -0.2609
  455MOL0     C62705   4.475  -0.070   4.209 -0.4421 -0.6586  0.8188
  455MOL0     C62706   4.551   0.020   4.133  0.8714  0.2258  0.5389
  455MOL0     C62707   4.550   0.406   3.849 -0.3648 -0.1149  0.2215
  455MOL0     C62708   4.650   0.357   3.757  0.6516 -0.9389  0.1857
  455MOL0     C62709   4.703   0.439   3.655  0.8232  0.6774 -0.1298
  455MOL0     C62710   4.673   0.573   3.648  0.1304 -0.2473 -0.1034
  455MOL0     O62711   4.732   0.643   3.541 -0.0770  0.4338 -0.7339
  455MOL0     C62712   4.633   0.705   3.458 -0.1159 -0.7409 -0.1723
  455MOL0     C62713   4.702   0.786   3.345 -0.1656  0.0888 -0.0083
  455MOL0     C62714   4.706   0.931   3.375 -0.1551 -0.4730 -0.1275
  455MOL0     C62715   4.782   0.996   3.260  0.3313 -0.5662  0.8797
  455MOL0     C62716   4.699   0.985   3.130  0.6279  0.3394 -0.1529
  455MOL0     C62717   4.657   0.968   3.016  0.6112 -0.3125  0.7210
  455MOL0     C62718   4.589   0.627   3.747 -0.0319  0.2108  0.5797
  455MOL0     C62719   4.519   0.551   3.844 -0.0219  0.5098 -0.0759
  455MOL0     C62720   4.427   0.615   3.941  0.7882  0.2470 -0.3502
  455MOL0     H62721   4.334   0.077   3.880  0.6952  1.2936 -0.0096
  455MOL0     H62722   4.199  -0.088   4.021  0.8817 -2.1670 -0.5360
  455MOL0     H62723   4.159  -0.306   4.094  2.0925  1.1420 -1.2788
  455MOL0     H62724   4.099  -0.184   4.219  0.3018 -0.3524  1.6878
  455MOL0     H62725   4.147  -0.349   4.385  2.1016  0.5693  0.7977
  455MOL0     H62726   4.030  -0.380   4.270  0.1095  2.6458  2.5850
  455MOL0     H62727   4.167  -0.572   4.360 -2.1118  2.5931  1.0323
  455MOL0     H62728   4.113  -0.575   4.191 -1.3427 -0.8486  0.6837
  455MOL0     H62729   4.320  -0.660   4.198 -0.7357 -1.0695  2.5999
  455MOL0     H62730   4.366  -0.493   4.152  0.2496 -1.0092 -0.4920
  455MOL0     H62731   4.386  -0.620   4.435  1.0198  0.9858  0.9627
  455MOL0     H62732   4.413  -0.444   4.406  0.5366  0.1911  0.3344
  455MOL0     H62733   4.552  -0.670   4.247  2.0370 -1.0957 -0.0596
  455MOL0     H62734   4.591  -0.509   4.249 -1.6841  1.3193 -0.7547
  455MOL0     H62735   4.639  -0.533   4.501 -1.7532  0.1377 -0.5528
  455MOL0     H62736   4.751  -0.621   4.403  0.0346 -1.6264  0.3822
  455MOL0     H62737   4.518  -0.759   4.537 -0.2415 -0.0738 -2.2046
  455MOL0     H62738   4.628  -0.825   4.428  3.6077 -0.6447 -0.3250
  455MOL0     H62739   4.889  -0.803   4.478  0.1968 -0.2084 -0.5594
  455MOL0     H62740   5.116  -0.808   4.607  2.4181  1.0020  1.2686
  455MOL0     H62741   5.093  -0.864   4.776  3.0397  2.5543  3.0358
  455MOL0     H62742   5.250  -0.672   4.761 -0.3349  0.5505 -0.0891
  455MOL0     H62743   5.113  -0.574   4.716 -0.1890  0.8875  1.5383
  455MOL0     H62744   5.014  -0.623   4.942  0.5494  0.4822 -0.9642
  455MOL0     H62745   5.128  -0.758   4.966 -0.2724 -0.2513 -0.7991
  455MOL0     H62746   5.196  -0.454   4.945  1.7609 -0.6040 -1.7145
  455MOL0     H62747   5.166  -0.537   5.099 -2.2131 -0.5132 -0.3022
  455MOL0     H62748   5.316  -0.348   5.163  0.0377  0.7139 -1.5532
  455MOL0     H62749   5.514  -0.121   5.277 -0.9747  0.6821  0.6551
  455MOL0     H62750   5.505  -0.236   5.419 -0.9218 -0.1393  0.1015
  455MOL0     H62751   5.371  -0.189   5.324  0.4078  1.3751 -0.9909
  455MOL0     H62752   6.017  -0.422   5.522 -0.8664  1.1871  0.0821
  455MOL0     H62753   6.251  -0.310   5.539  0.8901  0.5222 -0.8153
  455MOL0     H62754   6.474  -0.216   5.185 -2.0261  2.5857 -3.9207
  455MOL0     H62755   6.403  -0.067   5.176  1.3500  1.2535 -0.1291
  455MOL0     H62756   6.630  -0.018   5.237  2.8543  1.0269  3.0437
  455MOL0     H62757   6.533   0.006   5.389  2.3481  1.4094  0.1822
  455MOL0     H62758   6.698  -0.230   5.296 -1.1287  1.8061 -3.4090
  455MOL0     H62759   6.604  -0.230   5.447  0.4379  0.3442  0.9199
  455MOL0     H62760   6.748  -0.032   5.526  0.4482  0.4985 -0.5430
  455MOL0     H62761   6.822  -0.015   5.380  0.3316  1.9406  2.1835
  455MOL0     H62762   6.815  -0.283   5.530  0.2564  1.8535  2.4297
  455MOL0     H62763   6.935  -0.240   5.401  2.4164  0.2464  0.5606
  455MOL0     H62764   6.918  -0.131   5.692 -2.0069  0.2199 -0.0581
  455MOL0     H62765   7.019  -0.055   5.570  2.7836 -2.0175 -1.2964
  455MOL0     H62766   7.149  -0.265   5.522 -1.2462 -0.6051 -0.0586
  455MOL0     H62767   7.056  -0.350   5.640 -2.5988  0.0472 -3.3895
  455MOL0     H62768   7.238  -0.116   5.718 -2.0174  0.7422  1.4730
  455MOL0     H62769   7.262  -0.290   5.759 -4.1371 -5.1096  0.4568
  455MOL0     H62770   6.205  -0.164   5.135 -1.4047  1.2882  0.9663
  455MOL0     H62771   6.016  -0.281   5.122 -3.3306  0.8207  1.5618
  455MOL0     H62772   5.768  -0.557   5.150 -0.5986 -0.0250 -0.0859
  455MOL0     H62773   5.581  -0.656   5.025 -1.2701  0.3770 -1.6360
  455MOL0     H62774   4.538  -0.111   4.286  4.3680  1.2413 -1.6724
  455MOL0     H62775   4.648   0.055   4.167 -0.0115 -0.4018  4.0856
  455MOL0     H62776   4.692   0.257   3.752 -1.1280 -1.6778 -1.1567
  455MOL0     H62777   4.772   0.386   3.589  0.1309 -2.0600  1.1648
  455MOL0     H62778   4.587   0.624   3.401  1.5074 -0.3407 -2.1804
  455MOL0     H62779   4.558   0.762   3.513  0.6256 -1.3000  1.4815
  455MOL0     H62780   4.650   0.775   3.250  0.2125 -0.6198 -0.1378
  455MOL0     H62781   4.800   0.743   3.322  0.8605  1.6169  1.2587
  455MOL0     H62782   4.611   0.985   3.371 -0.5099 -1.0426  0.3935
  455MOL0     H62783   4.753   0.959   3.470  0.8739 -1.6219 -0.2830
  455MOL0     H62784   4.879   0.946   3.253  2.0633  2.4860  1.2557
  455MOL0     H62785   4.799   1.102   3.277  0.9031  0.1634 -3.1135
  455MOL0     H62786   4.622   0.962   2.915 -0.1477  2.4810  0.7342
  455MOL0     H62787   4.591   0.734   3.765  1.3132  0.5986 -1.6204
  455MOL0     H62788   4.440   0.573   4.041  3.3077  2.9231  0.5877
  455MOL0     H62789   4.439   0.723   3.952  1.7848  0.2777 -1.5076
  455MOL0     H62790   4.327   0.592   3.904  0.6128  0.7334 -0.1881
  456MOL0     O62791   8.547   7.826   3.754  0.8532 -0.0353 -0.2430
  456MOL0     C62792   8.474   7.892   3.674 -0.0592 -0.0642 -0.6046
  456MOL0     O62793   8.499   7.930   3.547 -0.4698 -1.3191 -0.0391
  456MOL0     C62794   8.627   7.910   3.503 -0.1761  1.0270 -0.0216
  456MOL0     C62795   8.740   7.957   3.567 -0.1792  0.5573  0.3396
  456MOL0     C62796   8.870   7.923   3.535 -0.5305 -0.1379  1.0315
  456MOL0     C62797   8.883   7.857   3.413  0.4014 -0.4778  0.1201
  456MOL0     O62798   9.011   7.839   3.363 -0.2166  0.4329  0.4924
  456MOL0     C62799   9.118   7.833   3.454  0.7517  0.7747 -0.7932
  456MOL0     C62800   9.235   7.809   3.370 -0.0175  0.1442 -0.4073
  456MOL0     C62801   9.251   7.915   3.257  0.0068  0.3757  0.3693
  456MOL0     C62802   9.382   7.900   3.177 -0.2058  0.4421  0.0693
  456MOL0     C62803   9.415   8.024   3.087 -0.0092 -0.2381  0.9614
  456MOL0     C62804   9.531   7.994   2.990  0.1545 -0.4143  0.0585
  456MOL0     C62805   9.496   7.909   2.868 -0.0685  0.0386 -0.6617
  456MOL0     C62806   9.595   7.942   2.746 -0.5975  0.3149  0.3348
  456MOL0     N62807   9.736   7.923   2.790  0.1795 -0.6328 -0.5638
  456MOL0     C62808   9.785   7.813   2.852 -0.1264 -0.4149 -0.3349
  456MOL0     C62809   9.915   7.837   2.887  0.2312  0.5677 -1.3003
  456MOL0     C62810  10.021   7.759   2.965 -0.0484 -0.2083  0.0790
  456MOL0     C62811   9.984   7.751   3.117 -0.8380  0.5334  0.4803
  456MOL0     C62812   9.987   7.894   3.173 -0.0613  0.6725 -0.9629
  456MOL0     C62813   9.971   7.894   3.319 -0.1518  0.7009  0.3103
  456MOL0     O62814   9.846   7.836   3.360 -0.3799 -0.8041  0.0854
  456MOL0     C62815   9.739   7.915   3.404  0.6162  1.0969  0.6408
  456MOL0     C62816   9.682   7.867   3.521 -0.3885 -0.1707 -0.2736
  456MOL0     C62817   9.570   7.934   3.581 -0.0291 -0.6113 -0.3233
  456MOL0     C62818   9.516   7.880   3.713  1.0744 -0.2941  0.0548
  456MOL0     C62819   9.521   8.052   3.523 -0.5445 -0.8281  0.1690
  456MOL0     C62820   9.392   8.123   3.572 -0.5975 -0.2002  0.6747
  456MOL0     O62821   9.337   8.193   3.479 -1.1912 -0.4218 -0.2225
  456MOL0     C62822   9.283   8.309   3.520 -0.0033 -1.1447 -0.1159
  456MOL0     C62823   9.150   8.325   3.502  1.0705  0.0861  0.4998
  456MOL0     C62824   9.089   8.448   3.513  0.5448 -0.7728 -0.5920
  456MOL0     C62825   9.165   8.558   3.555 -0.2483  0.5208 -0.8189
  456MOL0     O62826   9.110   8.678   3.558 -0.3703  0.3589  0.0299
  456MOL0     C62827   9.008   8.683   3.654 -0.1786 -0.4287 -0.4150
  456MOL0     C62828   8.953   8.825   3.662 -0.1316 -0.1971 -0.1704
  456MOL0     C62829   8.847   8.841   3.770  0.2208 -0.3068 -0.2965
  456MOL0     C62830   8.831   8.984   3.829  0.3809 -0.2246 -0.0036
  456MOL0     C62831   8.802   9.098   3.722 -0.2520  0.3283  0.3048
  456MOL0     C62832   8.671   9.065   3.658 -0.3654  1.3540 -0.6450
  456MOL0     C62833   8.618   9.191   3.575  0.1981  0.4583  0.7574
  456MOL0     C62834   8.514   9.150   3.465  0.7584 -0.4668  0.5151
  456MOL0    Cl62835   8.373   9.075   3.543  0.2213 -0.8900  0.2731
  456MOL0     C62836   9.298   8.543   3.588 -0.9667  0.5967 -0.1745
  456MOL0     C62837   9.358   8.414   3.575  0.8970  0.0549  0.2708
  456MOL0     O62838   9.373   8.150   3.700 -0.3006  0.4116  0.4388
  456MOL0     C62839   9.584   8.089   3.400  0.0402  0.1333 -0.5098
  456MOL0     C62840   9.698   8.025   3.344 -0.3669  0.6266  0.1924
  456MOL0     N62841   9.941   7.967   2.846  0.1413  0.2451  1.0809
  456MOL0     N62842   9.838   8.018   2.781 -0.1398  0.4019 -0.9703
  456MOL0     C62843   8.777   7.818   3.338 -0.4233 -0.1951 -0.1583
  456MOL0     C62844   8.653   7.843   3.383  0.5712  0.4062 -0.3804
  456MOL0     C62845   8.343   7.934   3.723  1.2573  0.3761 -0.5077
  456MOL0     C62846   8.237   7.923   3.635 -0.1160  0.7499  0.1005
  456MOL0     C62847   8.103   7.949   3.663  0.3744  0.1474 -1.1769
  456MOL0     C62848   8.070   7.985   3.792 -0.3118  0.6977 -0.9453
  456MOL0     O62849   7.941   8.010   3.825 -0.4744  0.4485  0.4689
  456MOL0     C62850   7.833   7.974   3.732 -0.3174 -0.8163  0.6215
  456MOL0     C62851   7.697   8.000   3.799  0.9253  0.4367  0.1523
  456MOL0     C62852   7.661   7.874   3.884 -0.6668  0.6378 -0.4719
  456MOL0     C62853   7.517   7.896   3.946 -0.4156 -0.1684  1.2502
  456MOL0     C62854   7.521   7.953   4.088  0.0194 -0.3894  0.6845
  456MOL0     C62855   7.530   8.008   4.195  0.1870 -0.4414  1.2409
  456MOL0     C62856   8.176   8.005   3.886  0.8505  0.1797  0.2509
  456MOL0     C62857   8.305   7.983   3.850 -0.0356  0.7802  0.1120
  456MOL0     C62858   8.409   8.017   3.945  0.2948 -0.1419  0.9601
  456MOL0     H62859   8.718   8.011   3.658 -0.0494  0.0818  0.6540
  456MOL0     H62860   8.957   7.963   3.587  3.2309 -0.8694 -4.0209
  456MOL0     H62861   9.106   7.755   3.530 -1.3660  1.1870 -0.6359
  456MOL0     H62862   9.130   7.930   3.505 -1.1003  0.5952  0.0741
  456MOL0     H62863   9.319   7.818   3.439  1.4944  1.5361 -2.3114
  456MOL0     H62864   9.244   7.710   3.326  0.7690 -0.3184  0.7633
  456MOL0     H62865   9.167   7.909   3.187 -0.6756 -1.4708  1.2883
  456MOL0     H62866   9.245   8.018   3.293  0.0688  1.1656 -1.7300
  456MOL0     H62867   9.458   7.881   3.254 -0.3338 -0.8391 -0.0958
  456MOL0     H62868   9.378   7.812   3.113 -0.7889  1.4280 -1.2894
  456MOL0     H62869   9.447   8.111   3.146  1.3441  0.3571 -0.5745
  456MOL0     H62870   9.338   8.050   3.014  1.2480 -1.7873 -1.0076
  456MOL0     H62871   9.575   8.089   2.959  1.6208 -1.5768 -1.6318
  456MOL0     H62872   9.612   7.958   3.054 -1.8158 -1.1960  2.2512
  456MOL0     H62873   9.394   7.926   2.833  0.5324  2.2575 -1.5295
  456MOL0     H62874   9.498   7.800   2.880  0.9586 -0.1913 -2.5645
  456MOL0     H62875   9.572   7.881   2.658  1.3533 -2.4418  1.5942
  456MOL0     H62876   9.572   8.046   2.724 -2.7355  0.1433  1.4216
  456MOL0     H62877   9.729   7.730   2.895  0.4329  0.4200  2.1006
  456MOL0     H62878  10.120   7.804   2.960  0.6417 -1.5098  1.3630
  456MOL0     H62879  10.033   7.660   2.918  0.9352  0.1027 -0.3515
  456MOL0     H62880   9.884   7.708   3.127  0.4295 -2.4277  1.6936
  456MOL0     H62881  10.058   7.676   3.148 -1.0190  0.0326 -0.2863
  456MOL0     H62882  10.085   7.936   3.148  0.2291  2.9876  3.1099
  456MOL0     H62883   9.910   7.959   3.132  0.7220  3.6010  1.7828
  456MOL0     H62884  10.049   7.842   3.374 -0.1851  1.5722  1.2121
  456MOL0     H62885   9.974   7.997   3.356 -5.4179  1.1759  0.1537
  456MOL0     H62886   9.730   7.775   3.551  1.2419  0.0235 -2.1030
  456MOL0     H62887   9.577   7.798   3.752  2.1757  0.7758  0.6260
  456MOL0     H62888   9.411   7.850   3.712 -0.2448  3.1001  4.7191
  456MOL0     H62889   9.527   7.953   3.793 -2.0276 -0.6683  0.9386
  456MOL0     H62890   9.088   8.240   3.475  1.3211 -0.9209  2.7996
  456MOL0     H62891   8.984   8.437   3.489  0.8319 -3.1651 -1.0212
  456MOL0     H62892   8.919   8.629   3.621 -1.3264 -0.3670  2.3740
  456MOL0     H62893   9.041   8.647   3.752  0.9346 -1.8380 -1.2684
  456MOL0     H62894   9.040   8.890   3.678  0.1783 -0.1171 -1.9209
  456MOL0     H62895   8.913   8.869   3.569  1.0276  1.3821  0.0293
  456MOL0     H62896   8.875   8.778   3.855 -0.9834  2.2816  2.1944
  456MOL0     H62897   8.760   8.796   3.721  0.9602  1.8215 -3.9609
  456MOL0     H62898   8.931   9.012   3.864 -0.8124  1.7025  2.1356
  456MOL0     H62899   8.761   8.988   3.912 -2.6697 -1.8503 -2.2958
  456MOL0     H62900   8.781   9.192   3.773 -1.7901 -0.6213  1.5143
  456MOL0     H62901   8.882   9.099   3.647 -0.1429 -1.5961  0.3282
  456MOL0     H62902   8.595   9.031   3.728 -0.9043  2.4841 -0.6534
  456MOL0     H62903   8.687   8.980   3.591 -0.2160  0.0674  0.9577
  456MOL0     H62904   8.703   9.248   3.537 -0.8185  1.2744 -0.4024
  456MOL0     H62905   8.561   9.248   3.649 -0.0857  1.2840 -0.0739
  456MOL0     H62906   8.552   9.084   3.387 -2.7257 -0.0865 -1.7114
  456MOL0     H62907   8.476   9.242   3.420 -1.3295 -0.3274  2.3825
  456MOL0     H62908   9.358   8.628   3.620 -1.2153  1.1487 -1.1252
  456MOL0     H62909   9.462   8.387   3.589  0.7536 -1.2357 -0.9473
  456MOL0     H62910   9.551   8.179   3.349 -1.3022  1.1444  1.9891
  456MOL0     H62911   9.749   8.051   3.252 -0.8439 -2.8555 -1.2157
  456MOL0     H62912   8.769   7.758   3.247 -1.9536  0.6783 -0.6365
  456MOL0     H62913   8.563   7.820   3.326  0.4641  1.8423 -0.8163
  456MOL0     H62914   8.262   7.887   3.535  0.3496  1.3350  0.0013
  456MOL0     H62915   8.022   7.937   3.591 -2.5954  0.1820  1.9402
  456MOL0     H62916   7.845   8.036   3.643  0.9480 -4.1065 -1.7112
  456MOL0     H62917   7.841   7.869   3.700  1.9868 -0.2366 -0.9488
  456MOL0     H62918   7.622   8.024   3.722 -2.1083  2.6625  3.4768
  456MOL0     H62919   7.700   8.091   3.860  0.3308  0.0627  0.7639
  456MOL0     H62920   7.677   7.777   3.835  1.4759  1.0719 -0.7600
  456MOL0     H62921   7.730   7.871   3.970 -0.9180 -2.1530 -0.2733
  456MOL0     H62922   7.455   7.807   3.957  0.1625 -0.9725 -1.4109
  456MOL0     H62923   7.459   7.962   3.882  1.0612  1.7230  1.7552
  456MOL0     H62924   7.534   8.064   4.286  0.3837 -0.8707  1.5013
  456MOL0     H62925   8.154   8.015   3.992 -0.1604  0.5840  0.0252
  456MOL0     H62926   8.377   8.023   4.049  1.7186 -2.6671  1.6207
  456MOL0     H62927   8.484   7.938   3.949  3.1746  2.2822 -0.8344
  456MOL0     H62928   8.458   8.113   3.925  0.8614 -0.1222  2.3734
  457MOL0     O62929   0.638   1.668   6.616 -0.3210  0.1508  0.1237
  457MOL0     C62930   0.574   1.729   6.531 -0.3020 -0.2236  0.0790
  457MOL0     O62931   0.616   1.789   6.423 -0.4502  0.7367  0.1725
  457MOL0     C62932   0.759   1.792   6.411 -0.0874 -0.5779  0.0940
  457MOL0     C62933   0.825   1.694   6.326 -0.0798  0.0392  0.2977
  457MOL0     C62934   0.964   1.708   6.295 -1.2410  0.8578 -0.7474
  457MOL0     C62935   1.034   1.801   6.364 -0.4900 -0.2566  0.6159
  457MOL0     O62936   1.165   1.849   6.351  0.2581 -0.0642  0.0234
  457MOL0     C62937   1.226   1.804   6.227 -0.9225  0.0848  0.2474
  457MOL0     C62938   1.175   1.887   6.109  0.8509  0.1384  0.0163
  457MOL0     C62939   1.252   1.857   5.985 -0.6676 -0.4559 -0.6835
  457MOL0     C62940   1.190   1.931   5.864  0.2409 -0.1936 -0.0735
  457MOL0     C62941   1.076   1.860   5.797 -0.7568  0.0323  0.4475
  457MOL0     C62942   1.008   1.932   5.689 -0.5183 -0.2702  0.7101
  457MOL0     C62943   0.889   1.857   5.630 -0.2481 -0.6578 -0.4533
  457MOL0     C62944   0.831   1.942   5.509  0.1992  0.5952 -1.0665
  457MOL0     N62945   0.709   1.889   5.441 -0.0038  0.2106  0.2486
  457MOL0     C62946   0.607   1.827   5.498  0.0733 -0.8200 -0.1532
  457MOL0     C62947   0.522   1.794   5.402  0.2121  0.3287  0.5819
  457MOL0     C62948   0.378   1.753   5.432 -0.7025 -0.5092  0.5460
  457MOL0     C62949   0.373   1.597   5.470 -0.0428 -0.3732 -0.2627
  457MOL0     C62950   0.234   1.528   5.463  0.0888  0.4329 -0.2285
  457MOL0     C62951   0.135   1.587   5.564  0.5904 -0.0997 -0.5113
  457MOL0     O62952   0.025   1.504   5.557 -0.3620  1.3450  0.2375
  457MOL0     C62953  -0.100   1.553   5.587 -0.0599  0.4607  0.1096
  457MOL0     C62954  -0.135   1.669   5.656  0.3109  0.2464  0.1768
  457MOL0     C62955  -0.270   1.707   5.659 -0.1474 -0.2642 -0.4694
  457MOL0     C62956  -0.305   1.836   5.737  0.2686 -0.1183 -0.0935
  457MOL0     C62957  -0.373   1.627   5.605  0.7536 -0.5344  0.3833
  457MOL0     C62958  -0.508   1.668   5.586  0.9539 -0.6965 -0.3738
  457MOL0     O62959  -0.537   1.729   5.477 -0.2377 -0.7708  0.0569
  457MOL0     C62960  -0.673   1.758   5.453 -0.6620  0.1093  0.2846
  457MOL0     C62961  -0.773   1.669   5.411 -0.5210 -0.3037  0.1287
  457MOL0     C62962  -0.902   1.717   5.381 -0.5132  1.1913 -0.0686
  457MOL0     C62963  -0.937   1.846   5.365  0.4302 -0.7252  0.0560
  457MOL0     O62964  -1.066   1.885   5.328  0.2074  0.4627 -0.2551
  457MOL0     C62965  -1.095   2.023   5.293  0.5256  0.1065 -0.2741
  457MOL0     C62966  -1.217   2.025   5.203  0.4831  0.4297  0.1338
  457MOL0     C62967  -1.348   2.025   5.282  0.2945 -0.4465  0.6339
  457MOL0     C62968  -1.467   2.029   5.194 -0.0898  0.4215  0.4417
  457MOL0     C62969  -1.597   2.023   5.268 -0.4545  0.6165  0.2351
  457MOL0     C62970  -1.717   2.086   5.191  0.1782 -0.1814  0.1271
  457MOL0     C62971  -1.772   1.991   5.078  0.1532 -0.2911  0.1457
  457MOL0     C62972  -1.914   2.046   5.052 -0.3413 -0.1685 -1.0984
  457MOL0    Cl62973  -1.919   2.191   4.961  0.0307 -0.2723  0.0301
  457MOL0     C62974  -0.833   1.934   5.392 -0.0072  0.2240  0.3602
  457MOL0     C62975  -0.706   1.890   5.442  0.2729  0.2863  0.4274
  457MOL0     O62976  -0.586   1.647   5.682 -0.4525 -0.8426 -0.2019
  457MOL0     C62977  -0.338   1.506   5.532 -0.3878  0.0133  0.5374
  457MOL0     C62978  -0.200   1.468   5.528  0.4071  0.2103  0.5806
  457MOL0     N62979   0.576   1.836   5.281 -0.2259  0.0814  0.8125
  457MOL0     N62980   0.690   1.890   5.303 -0.0287  0.4546 -0.7003
  457MOL0     C62981   0.975   1.877   6.462  0.0015  0.8091  0.6558
  457MOL0     C62982   0.840   1.874   6.486  0.4395 -0.5252 -1.1113
  457MOL0     C62983   0.427   1.742   6.552  0.2197 -0.5753 -0.7325
  457MOL0     C62984   0.359   1.822   6.459  0.0065  0.7815 -0.1546
  457MOL0     C62985   0.228   1.855   6.477 -0.5256 -0.7503  0.2522
  457MOL0     C62986   0.158   1.813   6.590  0.2292 -0.1548  0.1481
  457MOL0     O62987   0.023   1.843   6.588  0.2456  0.2745 -0.2320
  457MOL0     C62988  -0.049   1.842   6.711  0.5332  0.2203  0.0207
  457MOL0     C62989  -0.178   1.910   6.664 -0.8543  0.5836 -0.9864
  457MOL0     C62990  -0.177   2.059   6.616 -0.9708 -0.2479  0.7701
  457MOL0     C62991  -0.299   2.081   6.530  0.0826 -1.1444 -0.2421
  457MOL0     C62992  -0.358   2.225   6.528 -0.8908 -0.5033 -0.3323
  457MOL0     C62993  -0.378   2.347   6.524 -0.6499  0.5231 -0.0559
  457MOL0     C62994   0.229   1.742   6.691 -0.4197  0.5928 -1.1398
  457MOL0     C62995   0.356   1.702   6.670 -0.1680 -0.0481 -0.9285
  457MOL0     C62996   0.410   1.624   6.784 -0.8804 -0.0802  0.0390
  457MOL0     H62997   0.757   1.627   6.274 -1.9517  1.3165  0.9801
  457MOL0     H62998   1.022   1.647   6.227 -0.4715  1.3827 -0.5667
  457MOL0     H62999   1.210   1.697   6.212 -1.1114  0.1073  0.2813
  457MOL0     H63000   1.334   1.818   6.234 -1.1199  0.7173  3.6789
  457MOL0     H63001   1.068   1.863   6.106  0.6128  1.1805 -0.2512
  457MOL0     H63002   1.181   1.993   6.135 -0.2012  0.0516  0.6461
  457MOL0     H63003   1.353   1.894   6.001 -0.2046 -1.4619 -1.2060
  457MOL0     H63004   1.271   1.750   5.976  1.8244 -0.1824  0.3992
  457MOL0     H63005   1.160   2.030   5.900 -2.6907 -0.7115 -0.8389
  457MOL0     H63006   1.269   1.947   5.791  0.1464  0.8679  0.0373
  457MOL0     H63007   1.000   1.837   5.873 -3.0359 -4.6803 -2.7961
  457MOL0     H63008   1.108   1.764   5.756 -3.1850 -0.5167 -0.3648
  457MOL0     H63009   0.974   2.025   5.735 -2.0582 -1.1789  1.4653
  457MOL0     H63010   1.074   1.960   5.606 -2.6365  0.2864 -0.8729
  457MOL0     H63011   0.812   1.848   5.708  1.0122 -0.5951  0.8194
  457MOL0     H63012   0.928   1.768   5.581  2.9682 -0.0951  0.8756
  457MOL0     H63013   0.802   2.035   5.558 -2.3278  0.1355 -1.5280
  457MOL0     H63014   0.909   1.960   5.435  0.7578 -0.2825 -0.7117
  457MOL0     H63015   0.581   1.818   5.603 -1.1638 -1.6772 -0.5122
  457MOL0     H63016   0.308   1.764   5.349 -2.1357  1.8789  1.9512
  457MOL0     H63017   0.348   1.819   5.514  2.2046  0.4106  0.9979
  457MOL0     H63018   0.433   1.555   5.388  0.3930  0.9729 -0.6610
  457MOL0     H63019   0.420   1.575   5.566 -2.4624 -2.0181  0.6484
  457MOL0     H63020   0.204   1.524   5.357 -1.5711 -1.0890  0.2417
  457MOL0     H63021   0.253   1.425   5.493  3.4774  1.3728  1.3013
  457MOL0     H63022   0.172   1.576   5.667  0.1922  2.8104  0.0338
  457MOL0     H63023   0.120   1.694   5.544 -0.2229  0.2772  1.8227
  457MOL0     H63024  -0.054   1.719   5.707  0.9969 -0.6974  0.0320
  457MOL0     H63025  -0.414   1.850   5.741  0.1797 -1.0493  1.3899
  457MOL0     H63026  -0.260   1.925   5.692  0.2691 -0.7592 -1.4055
  457MOL0     H63027  -0.265   1.821   5.837 -2.7785 -0.9566  1.1250
  457MOL0     H63028  -0.738   1.567   5.416 -0.7646 -0.3506  2.9073
  457MOL0     H63029  -0.978   1.642   5.357 -0.5301  0.9773  0.6194
  457MOL0     H63030  -1.120   2.078   5.385  0.3144  2.0475 -1.4289
  457MOL0     H63031  -1.015   2.077   5.242 -0.6344  2.6476  0.4385
  457MOL0     H63032  -1.217   2.105   5.128 -1.4489 -0.8115 -1.2967
  457MOL0     H63033  -1.214   1.932   5.145  1.2077 -0.5366  1.6434
  457MOL0     H63034  -1.368   2.111   5.346  0.2315 -0.3944  0.5454
  457MOL0     H63035  -1.349   1.930   5.337  2.9544 -1.3312 -0.6596
  457MOL0     H63036  -1.469   1.950   5.119 -0.9158  0.9546 -0.1141
  457MOL0     H63037  -1.468   2.126   5.144 -3.9837  0.2139 -0.2191
  457MOL0     H63038  -1.609   1.927   5.318 -1.5528  1.1853  1.1126
  457MOL0     H63039  -1.592   2.086   5.357 -0.2610  0.1989  0.5204
  457MOL0     H63040  -1.686   2.178   5.141 -1.1691 -0.6121 -1.5530
  457MOL0     H63041  -1.794   2.103   5.267 -0.5615 -0.1507 -0.6148
  457MOL0     H63042  -1.774   1.887   5.109  0.9296 -0.2677  0.3098
  457MOL0     H63043  -1.706   1.987   4.990  0.2838 -1.8125  0.3037
  457MOL0     H63044  -1.962   2.052   5.150  4.3497 -1.5175  1.5976
  457MOL0     H63045  -1.976   1.967   5.009  1.4909 -2.5810  0.4131
  457MOL0     H63046  -0.841   2.042   5.380 -1.1350  0.1516  0.3947
  457MOL0     H63047  -0.643   1.969   5.480 -0.2873  0.1661  1.6448
  457MOL0     H63048  -0.416   1.452   5.481 -1.5716  3.5276 -1.7577
  457MOL0     H63049  -0.172   1.384   5.467 -1.9451 -0.0598 -0.2477
  457MOL0     H63050   1.031   1.950   6.520  0.3898  1.5854 -0.6568
  457MOL0     H63051   0.785   1.945   6.548  1.5388  2.0479 -2.8899
  457MOL0     H63052   0.410   1.859   6.371  0.7799 -0.9655 -0.4715
  457MOL0     H63053   0.187   1.930   6.410 -0.1125 -0.8023 -0.0642
  457MOL0     H63054  -0.067   1.738   6.737  2.4337 -0.0483  0.4098
  457MOL0     H63055  -0.001   1.892   6.796 -1.8368  1.3310  0.7958
  457MOL0     H63056  -0.250   1.907   6.746  0.1195 -0.6971 -0.1492
  457MOL0     H63057  -0.208   1.844   6.582  1.3699 -2.1754  0.2919
  457MOL0     H63058  -0.175   2.124   6.704  1.5776 -0.3108  0.8385
  457MOL0     H63059  -0.096   2.080   6.546 -2.3432 -1.4473 -1.2820
  457MOL0     H63060  -0.385   2.014   6.532 -2.4544  1.5549 -4.4433
  457MOL0     H63061  -0.273   2.071   6.424 -1.1438 -1.5122 -0.5271
  457MOL0     H63062  -0.397   2.452   6.531  1.9447  1.0685 -0.2244
  457MOL0     H63063   0.181   1.708   6.782  0.0570  3.2305  0.1710
  457MOL0     H63064   0.507   1.664   6.815 -0.1285 -0.2526 -1.9492
  457MOL0     H63065   0.352   1.622   6.877 -1.2775  1.8389 -0.1386
  457MOL0     H63066   0.426   1.519   6.757 -2.0130 -0.2351 -0.0535
  458MOL0     O63067   0.056   0.975   7.825 -0.0264 -0.2599 -0.3243
  458MOL0     C63068   0.164   1.000   7.768  0.5123  0.1882  0.0890
  458MOL0     O63069   0.280   0.955   7.822  0.1416 -0.1487 -0.0647
  458MOL0     C63070   0.287   0.872   7.935 -0.2407  0.3963  0.5368
  458MOL0     C63071   0.277   0.733   7.916  0.9736  0.3964  0.4133
  458MOL0     C63072   0.286   0.655   8.030 -0.8769 -0.8233  0.5116
  458MOL0     C63073   0.297   0.706   8.154  0.6579 -0.6197 -0.8088
  458MOL0     O63074   0.312   0.617   8.253  0.0025  1.0784  0.2472
  458MOL0     C63075   0.409   0.635   8.355  0.2035  0.0319  0.1107
  458MOL0     C63076   0.443   0.501   8.423 -0.4823 -0.3086 -0.1266
  458MOL0     C63077   0.527   0.400   8.348  0.0276  0.1752  0.1078
  458MOL0     C63078   0.571   0.269   8.416 -0.5808 -0.5642  0.0990
  458MOL0     C63079   0.670   0.185   8.337  0.1369  0.7181  0.7807
  458MOL0     C63080   0.674   0.044   8.402  0.0217  0.0145  0.4988
  458MOL0     C63081   0.785  -0.049   8.343  0.3509  0.3875  0.0401
  458MOL0     C63082   0.925  -0.014   8.390 -0.2720  0.4634 -0.1557
  458MOL0     N63083   0.953  -0.073   8.522  0.1276  0.0486 -0.0128
  458MOL0     C63084   1.016  -0.008   8.628  0.3421 -0.2698  0.6569
  458MOL0     C63085   1.040  -0.104   8.719 -0.2665 -0.1286 -0.3436
  458MOL0     C63086   1.117  -0.092   8.854  0.0101  0.2046 -0.4464
  458MOL0     C63087   1.224  -0.205   8.860 -0.3131 -0.5225 -1.0920
  458MOL0     C63088   1.285  -0.229   9.000  0.9666  0.2679  0.3040
  458MOL0     C63089   1.380  -0.346   9.001 -0.6664  0.1638 -0.5987
  458MOL0     O63090   1.313  -0.469   8.977 -0.0140 -0.0069  0.2060
  458MOL0     C63091   1.374  -0.594   8.979  0.1542  0.5711 -0.1730
  458MOL0     C63092   1.306  -0.718   8.946 -0.2049  0.1253 -0.1445
  458MOL0     C63093   1.360  -0.849   8.974 -0.4245  0.3717 -0.0671
  458MOL0     C63094   1.277  -0.971   8.941 -0.2276 -0.9775 -0.9025
  458MOL0     C63095   1.499  -0.856   9.011  0.3474 -0.9046 -0.4830
  458MOL0     C63096   1.582  -0.984   9.031  0.6360  0.1160 -0.1200
  458MOL0     O63097   1.710  -0.973   8.983  0.7299 -0.1604 -0.1671
  458MOL0     C63098   1.794  -1.079   8.989 -0.7373  0.5840  0.1640
  458MOL0     C63099   1.858  -1.129   8.873 -0.2676 -0.7486 -0.1524
  458MOL0     C63100   1.953  -1.231   8.880  0.7637  0.2211 -0.9351
  458MOL0     C63101   1.997  -1.285   8.997  0.4388  0.1320 -1.6601
  458MOL0     O63102   2.085  -1.388   9.017 -0.1978 -0.4654  0.1865
  458MOL0     C63103   2.163  -1.427   8.900 -0.2970  0.0677 -0.1989
  458MOL0     C63104   2.282  -1.337   8.863  0.1136  0.2865  0.1426
  458MOL0     C63105   2.399  -1.348   8.959  0.6942 -0.3407  0.0195
  458MOL0     C63106   2.362  -1.326   9.106 -0.1942  0.4225 -0.0211
  458MOL0     C63107   2.480  -1.339   9.200  0.4103  0.3395  0.6947
  458MOL0     C63108   2.449  -1.326   9.345 -0.8392  0.7440 -0.3320
  458MOL0     C63109   2.571  -1.314   9.438  0.1139  0.0147 -0.1930
  458MOL0     C63110   2.661  -1.183   9.428 -0.0323  0.7783 -0.3080
  458MOL0    Cl63111   2.565  -1.025   9.432  0.1252  0.4498  0.6501
  458MOL0     C63112   1.934  -1.237   9.120 -0.1298  0.4593  0.2254
  458MOL0     C63113   1.832  -1.142   9.106 -0.2282 -0.1446  0.7588
  458MOL0     O63114   1.527  -1.091   9.069  0.0854  1.0124 -0.5268
  458MOL0     C63115   1.576  -0.732   9.017  0.5699  0.8735 -0.1423
  458MOL0     C63116   1.509  -0.609   9.009 -0.1733 -0.3942 -0.0084
  458MOL0     N63117   0.997  -0.229   8.665  0.2806 -0.5260 -0.7070
  458MOL0     N63118   0.956  -0.207   8.548  0.2160  0.0715 -0.3471
  458MOL0     C63119   0.304   0.845   8.181 -0.0723  0.2417  0.0737
  458MOL0     C63120   0.307   0.929   8.065  0.8583  0.0462  0.0005
  458MOL0     C63121   0.154   1.062   7.632  0.3127  0.4217  0.0618
  458MOL0     C63122   0.026   1.095   7.571  0.7236 -0.5939 -1.4818
  458MOL0     C63123   0.007   1.145   7.449  0.1526 -0.6690  0.7288
  458MOL0     C63124   0.118   1.172   7.371  0.2833 -0.4534  0.5178
  458MOL0     O63125   0.097   1.228   7.244 -0.2372 -0.4714 -0.2271
  458MOL0     C63126   0.203   1.275   7.168  0.3294 -0.3510 -0.5426
  458MOL0     C63127   0.142   1.281   7.034  0.0149  0.6970 -0.0567
  458MOL0     C63128   0.026   1.383   7.025 -0.2787  0.2464 -0.2299
  458MOL0     C63129   0.060   1.529   7.053  0.2183  0.6668 -0.5560
  458MOL0     C63130  -0.066   1.611   7.040 -0.7570 -0.1035  0.0379
  458MOL0     C63131  -0.156   1.686   7.023 -0.5740 -0.3116  0.5094
  458MOL0     C63132   0.245   1.151   7.422 -0.2297  0.2214  0.5107
  458MOL0     C63133   0.264   1.101   7.551  0.1811  0.3149  0.1653
  458MOL0     C63134   0.400   1.098   7.599  0.6002  0.2805 -0.2965
  458MOL0     H63135   0.281   0.683   7.820  0.8970  1.0713  0.0530
  458MOL0     H63136   0.283   0.547   8.018 -0.5174 -0.8355  0.4959
  458MOL0     H63137   0.382   0.702   8.437 -1.4748 -1.2632  0.6784
  458MOL0     H63138   0.498   0.681   8.310  0.2515  1.2955  1.4205
  458MOL0     H63139   0.506   0.509   8.513 -1.7613 -1.3466  0.9033
  458MOL0     H63140   0.359   0.443   8.463 -0.6399  0.5553  0.8469
  458MOL0     H63141   0.470   0.385   8.255 -1.8118  0.2722  1.1741
  458MOL0     H63142   0.620   0.449   8.317  0.6637 -0.7687  0.4608
  458MOL0     H63143   0.623   0.298   8.508 -1.1133  0.2016  0.1691
  458MOL0     H63144   0.482   0.212   8.443  0.7501 -2.4973  0.5886
  458MOL0     H63145   0.774   0.218   8.328  0.6690 -0.7381  1.2982
  458MOL0     H63146   0.638   0.171   8.233 -0.2268  0.9120  0.8686
  458MOL0     H63147   0.680   0.033   8.510  0.7311 -2.4811  0.2694
  458MOL0     H63148   0.577   0.005   8.368 -0.6881  1.6898  0.5057
  458MOL0     H63149   0.786  -0.041   8.234 -0.1133 -0.3468 -0.0208
  458MOL0     H63150   0.765  -0.156   8.352  1.8718  0.1919  1.8124
  458MOL0     H63151   0.993  -0.057   8.316 -0.2310  0.7675 -0.2968
  458MOL0     H63152   0.945   0.094   8.395  2.1967  0.0194  0.8595
  458MOL0     H63153   1.041   0.097   8.631 -1.2744  0.1728 -0.4399
  458MOL0     H63154   1.045  -0.113   8.933 -2.6292 -1.2067 -3.0340
  458MOL0     H63155   1.153   0.011   8.863 -1.5369  0.6205  1.5818
  458MOL0     H63156   1.181  -0.302   8.836 -0.6705 -1.2209  1.8985
  458MOL0     H63157   1.309  -0.180   8.796  0.8677 -2.8603 -0.5317
  458MOL0     H63158   1.346  -0.144   9.032  2.0879  0.1061 -1.3250
  458MOL0     H63159   1.211  -0.253   9.077 -0.0032 -0.4770 -0.8244
  458MOL0     H63160   1.455  -0.323   8.924 -0.0816  0.3379  0.0132
  458MOL0     H63161   1.439  -0.352   9.093  0.9016  1.7896 -1.4192
  458MOL0     H63162   1.202  -0.707   8.917 -0.5916  0.3693  1.2857
  458MOL0     H63163   1.249  -1.023   9.033 -3.5248  0.2871 -1.0785
  458MOL0     H63164   1.339  -1.029   8.872  2.2575 -0.2606  0.5982
  458MOL0     H63165   1.179  -0.945   8.900 -1.7287 -0.6805  2.5526
  458MOL0     H63166   1.827  -1.081   8.780 -1.1428 -2.2343 -0.6480
  458MOL0     H63167   1.984  -1.266   8.782 -0.4012 -3.7665 -0.0741
  458MOL0     H63168   2.198  -1.527   8.926 -0.2802  0.0572 -0.2623
  458MOL0     H63169   2.088  -1.435   8.821 -2.0241  2.5858  1.0461
  458MOL0     H63170   2.304  -1.359   8.758  0.7357 -2.9031  0.8333
  458MOL0     H63171   2.243  -1.235   8.862  2.2684  1.1823  1.3129
  458MOL0     H63172   2.473  -1.272   8.932  0.2488  0.0497 -0.0944
  458MOL0     H63173   2.451  -1.444   8.952  1.1361 -0.0488 -0.9099
  458MOL0     H63174   2.282  -1.391   9.140  0.5632 -0.6048 -0.1745
  458MOL0     H63175   2.319  -1.226   9.121 -2.6156 -0.6520  0.6522
  458MOL0     H63176   2.520  -1.438   9.174 -2.6733 -0.5352 -1.2494
  458MOL0     H63177   2.559  -1.268   9.174  0.6558 -0.5900 -1.2975
  458MOL0     H63178   2.384  -1.408   9.378  1.0962 -1.1085 -0.9518
  458MOL0     H63179   2.385  -1.237   9.345  0.4127  1.6796  0.0625
  458MOL0     H63180   2.638  -1.401   9.433 -0.0533 -0.1060 -0.3812
  458MOL0     H63181   2.524  -1.318   9.537  3.2484 -2.8151  1.4075
  458MOL0     H63182   2.710  -1.178   9.330  0.8446 -1.6351 -0.0462
  458MOL0     H63183   2.726  -1.186   9.515 -2.4045 -0.3737  1.5279
  458MOL0     H63184   1.953  -1.272   9.221  0.1913  1.9908  0.7172
  458MOL0     H63185   1.776  -1.112   9.194 -1.6780 -0.0442 -0.1711
  458MOL0     H63186   1.682  -0.738   9.041 -0.2535 -0.4486  3.9198
  458MOL0     H63187   1.566  -0.519   9.029 -0.0145 -0.3278 -0.7407
  458MOL0     H63188   0.303   0.887   8.281  0.3477  2.8851 -0.9623
  458MOL0     H63189   0.327   1.035   8.067 -1.0857  0.7734 -4.7862
  458MOL0     H63190  -0.062   1.063   7.626  2.0021 -3.1327 -0.7221
  458MOL0     H63191  -0.086   1.160   7.396  0.5063  1.0159  0.5318
  458MOL0     H63192   0.245   1.370   7.201  0.2370 -0.7140  0.6704
  458MOL0     H63193   0.294   1.216   7.155 -0.6514 -2.3667  1.0923
  458MOL0     H63194   0.101   1.184   7.005 -2.5372  1.7705 -0.3534
  458MOL0     H63195   0.210   1.306   6.952  0.5906  2.2877  0.8606
  458MOL0     H63196  -0.030   1.372   6.932 -2.0733  0.0182  0.8404
  458MOL0     H63197  -0.055   1.362   7.095 -0.1392 -0.5622 -0.3003
  458MOL0     H63198   0.128   1.560   6.973 -0.5747  2.7982 -0.4584
  458MOL0     H63199   0.099   1.539   7.155  1.0800 -1.0093 -0.6821
  458MOL0     H63200  -0.232   1.755   6.991 -0.3083  0.7226  2.0113
  458MOL0     H63201   0.337   1.169   7.368 -0.7585 -4.5938 -2.5483
  458MOL0     H63202   0.411   1.081   7.707  1.2011 -1.8983 -0.6495
  458MOL0     H63203   0.423   1.006   7.544 -0.2380 -0.0838 -0.0572
  458MOL0     H63204   0.464   1.181   7.567 -0.7416  1.5716  0.2921
  459MOL0     O63205   4.204   8.504   4.915  0.6964  0.1079 -0.2133
  459MOL0     C63206   4.106   8.560   4.863  0.1654 -0.6035 -0.3250
  459MOL0     O63207   4.089   8.703   4.868  0.1845  0.4621  0.1250
  459MOL0     C63208   4.203   8.779   4.886 -0.0722 -0.0011  0.1842
  459MOL0     C63209   4.216   8.856   5.004 -0.5083  0.7799 -0.0803
  459MOL0     C63210   4.316   8.949   5.017  0.1565  0.2726 -0.5613
  459MOL0     C63211   4.409   8.971   4.917 -0.3027  0.5751 -0.5168
  459MOL0     O63212   4.499   9.076   4.947 -0.0029 -0.9243 -0.4816
  459MOL0     C63213   4.612   9.078   4.858 -0.3063  0.2970 -0.7020
  459MOL0     C63214   4.680   9.212   4.888  0.2285 -0.0637 -0.3692
  459MOL0     C63215   4.808   9.227   4.812 -0.0041 -0.4544  0.0393
  459MOL0     C63216   4.926   9.184   4.905  0.6115  0.0716  0.6401
  459MOL0     C63217   5.060   9.170   4.834  0.3756 -0.3010  0.1499
  459MOL0     C63218   5.119   9.291   4.757 -0.0638 -0.4591  0.3467
  459MOL0     C63219   5.039   9.334   4.632 -0.0081  0.1548 -0.1758
  459MOL0     C63220   5.131   9.390   4.516 -0.6226  0.3931  0.1845
  459MOL0     N63221   5.214   9.295   4.443  0.5899  0.7518 -0.5024
  459MOL0     C63222   5.169   9.197   4.355  0.0388  0.8185 -0.2191
  459MOL0     C63223   5.285   9.126   4.324 -0.3155  0.0621 -0.8546
  459MOL0     C63224   5.287   9.004   4.235  0.1747 -0.3133  1.9479
  459MOL0     C63225   5.316   9.053   4.098 -0.3812  0.2576 -0.3192
  459MOL0     C63226   5.466   9.093   4.075  0.2794 -0.3052 -0.0763
  459MOL0     C63227   5.488   9.154   3.935 -0.5524 -0.5234 -0.1064
  459MOL0     O63228   5.450   9.076   3.825  0.1533  0.6782 -0.1655
  459MOL0     C63229   5.536   8.993   3.760 -0.2836 -0.2309  0.3035
  459MOL0     C63230   5.483   8.937   3.642  0.1223  0.5550  0.6184
  459MOL0     C63231   5.564   8.856   3.560 -0.0329 -0.3936 -1.6000
  459MOL0     C63232   5.486   8.793   3.445 -0.5331 -0.7003  0.1400
  459MOL0     C63233   5.699   8.828   3.592 -0.1650 -0.0001 -0.0471
  459MOL0     C63234   5.791   8.751   3.498 -0.4100 -0.2229  1.0673
  459MOL0     O63235   5.916   8.709   3.544  0.5710 -0.0902  0.6900
  459MOL0     C63236   6.005   8.633   3.474  0.3501 -0.7021  0.0713
  459MOL0     C63237   5.984   8.569   3.349 -0.2943 -0.0147 -0.1765
  459MOL0     C63238   6.094   8.507   3.282 -0.0483 -0.1852 -0.3184
  459MOL0     C63239   6.221   8.508   3.341  1.0917  0.6480  0.0663
  459MOL0     O63240   6.321   8.445   3.274  0.5071 -0.2009 -0.0013
  459MOL0     C63241   6.427   8.537   3.251 -1.7789 -0.3421 -0.5234
  459MOL0     C63242   6.537   8.463   3.181  0.1135 -0.0561  0.5082
  459MOL0     C63243   6.648   8.577   3.166  0.5952 -0.5622 -0.1254
  459MOL0     C63244   6.768   8.550   3.080 -0.1585 -0.0022  0.0537
  459MOL0     C63245   6.872   8.464   3.150 -0.3675  0.3701 -0.2326
  459MOL0     C63246   7.003   8.491   3.083 -0.1653 -0.1442  0.6730
  459MOL0     C63247   7.064   8.634   3.126  0.9178 -0.3391  0.2279
  459MOL0     C63248   7.191   8.663   3.041 -0.2770  0.1316  0.3245
  459MOL0    Cl63249   7.158   8.658   2.854 -0.0000  0.1944 -0.1763
  459MOL0     C63250   6.236   8.557   3.471  0.2344 -0.2492  0.4206
  459MOL0     C63251   6.131   8.620   3.534  0.0285  1.1845 -0.9936
  459MOL0     O63252   5.749   8.736   3.382 -0.4901  0.0618 -0.3246
  459MOL0     C63253   5.743   8.875   3.713 -0.5251  0.1787 -0.4768
  459MOL0     C63254   5.657   8.955   3.798  0.4427  1.0640 -0.0036
  459MOL0     N63255   5.391   9.182   4.394 -0.1154  0.2268 -0.0422
  459MOL0     N63256   5.349   9.272   4.466 -0.2076 -0.0057  0.0217
  459MOL0     C63257   4.398   8.891   4.804  0.0446  0.8329  0.1394
  459MOL0     C63258   4.296   8.793   4.787 -0.3557  0.0078  0.1524
  459MOL0     C63259   3.991   8.479   4.810 -0.9714  0.0690  0.1898
  459MOL0     C63260   3.920   8.550   4.713 -0.0091 -0.0616 -0.6034
  459MOL0     C63261   3.818   8.483   4.646  0.2176  0.8227 -0.2360
  459MOL0     C63262   3.786   8.347   4.665  1.0669  0.1421 -0.0151
  459MOL0     O63263   3.688   8.297   4.582  0.6126  0.2345 -0.1371
  459MOL0     C63264   3.663   8.157   4.576 -0.6586  0.2198  1.0837
  459MOL0     C63265   3.572   8.121   4.457 -0.0291 -0.2191 -0.0824
  459MOL0     C63266   3.426   8.098   4.507 -0.8672 -0.4182 -0.0939
  459MOL0     C63267   3.318   8.097   4.401 -0.6280  0.0215  0.4600
  459MOL0     C63268   3.180   8.068   4.449  0.1565  0.1984  0.1981
  459MOL0     C63269   3.064   8.040   4.488 -0.3093  0.5478 -0.0099
  459MOL0     C63270   3.862   8.278   4.765  0.4512  0.9956  0.4997
  459MOL0     C63271   3.962   8.342   4.837  0.8157 -0.1478 -0.6825
  459MOL0     C63272   4.028   8.250   4.941  0.5258 -0.2693  0.2828
  459MOL0     H63273   4.144   8.862   5.084  0.1621  2.9837  0.4219
  459MOL0     H63274   4.325   9.003   5.111 -0.8154  1.9149 -1.3783
  459MOL0     H63275   4.586   9.071   4.751 -0.2897  1.5974 -0.8024
  459MOL0     H63276   4.680   8.997   4.885 -2.1561 -0.9907  0.3245
  459MOL0     H63277   4.611   9.293   4.860 -2.5207 -2.2326 -0.3374
  459MOL0     H63278   4.701   9.213   4.996  0.4179 -2.5637 -0.3173
  459MOL0     H63279   4.813   9.158   4.727  3.2095  2.9877 -2.9195
  459MOL0     H63280   4.816   9.327   4.769 -0.8263  0.0147  0.9492
  459MOL0     H63281   4.933   9.269   4.973 -1.5475  0.8451 -0.0065
  459MOL0     H63282   4.901   9.090   4.956 -0.7352  0.4241  0.6728
  459MOL0     H63283   5.045   9.089   4.762 -3.4285  0.1781  0.2315
  459MOL0     H63284   5.132   9.133   4.908  1.9609  3.4380  0.7081
  459MOL0     H63285   5.139   9.373   4.826 -0.7682 -0.8310  1.0041
  459MOL0     H63286   5.213   9.248   4.722 -1.3247 -1.8026 -1.6321
  459MOL0     H63287   4.966   9.412   4.655 -2.1791 -1.5213 -0.9494
  459MOL0     H63288   4.988   9.246   4.591  2.7907 -1.8637  0.3687
  459MOL0     H63289   5.065   9.442   4.447  2.1147  2.4464 -1.0584
  459MOL0     H63290   5.206   9.457   4.560  1.0481 -0.5442 -1.0849
  459MOL0     H63291   5.066   9.170   4.337 -0.5927  2.1681  1.1145
  459MOL0     H63292   5.181   8.976   4.226 -0.0635  0.9274  0.6234
  459MOL0     H63293   5.352   8.924   4.271  0.9759 -0.0769  1.0848
  459MOL0     H63294   5.296   8.971   4.028 -0.6839 -0.4027  0.5375
  459MOL0     H63295   5.258   9.137   4.058  3.1690  2.5414 -1.1548
  459MOL0     H63296   5.481   9.181   4.138 -0.6225  1.3112 -2.0192
  459MOL0     H63297   5.537   9.010   4.083 -1.2765 -2.0155 -2.5214
  459MOL0     H63298   5.437   9.251   3.933 -0.0917 -0.1377  2.8755
  459MOL0     H63299   5.590   9.190   3.920 -0.0652 -1.7952  0.0807
  459MOL0     H63300   5.378   8.962   3.626  0.6768  3.2383  0.6915
  459MOL0     H63301   5.520   8.689   3.440  2.1029  0.1447 -2.8440
  459MOL0     H63302   5.516   8.830   3.347 -1.0786  1.8730  0.8806
  459MOL0     H63303   5.378   8.798   3.457 -0.7052 -0.7646 -1.3178
  459MOL0     H63304   5.882   8.550   3.316 -1.8754 -0.4574  4.2663
  459MOL0     H63305   6.077   8.464   3.184  2.5234 -0.3700 -0.7713
  459MOL0     H63306   6.391   8.620   3.191 -0.2872  3.5109  3.3928
  459MOL0     H63307   6.466   8.574   3.346  0.7470 -3.6720 -0.0533
  459MOL0     H63308   6.573   8.372   3.230 -1.8601 -2.6714 -2.5468
  459MOL0     H63309   6.499   8.431   3.084 -0.7493 -0.5907  1.0067
  459MOL0     H63310   6.684   8.593   3.268  1.3317  0.1246 -0.4815
  459MOL0     H63311   6.601   8.669   3.131  1.1627  1.0216  2.9782
  459MOL0     H63312   6.802   8.650   3.051  0.8005  1.1988  4.5969
  459MOL0     H63313   6.740   8.495   2.989  0.0561 -2.2684  1.2835
  459MOL0     H63314   6.877   8.505   3.251 -0.1425  0.8233 -0.4211
  459MOL0     H63315   6.845   8.359   3.136 -1.0057  0.7393 -1.9803
  459MOL0     H63316   6.990   8.491   2.974 -0.8229  4.8194  0.5113
  459MOL0     H63317   7.073   8.418   3.123  0.0743 -0.1928  0.1719
  459MOL0     H63318   7.079   8.638   3.234 -0.0800  1.3925  0.3428
  459MOL0     H63319   6.990   8.713   3.109  0.0234 -0.9433  1.1782
  459MOL0     H63320   7.263   8.587   3.073  1.3264  2.3265  2.2235
  459MOL0     H63321   7.228   8.759   3.078 -1.7352  1.1874 -0.8409
  459MOL0     H63322   6.328   8.549   3.528  0.2662 -0.4492  0.3429
  459MOL0     H63323   6.157   8.650   3.635  0.6685 -0.4359 -0.6424
  459MOL0     H63324   5.846   8.871   3.745 -1.2438  0.1384  2.0073
  459MOL0     H63325   5.702   8.998   3.887  1.2659 -2.1567  1.2854
  459MOL0     H63326   4.466   8.912   4.722 -1.0106 -0.2795 -1.0792
  459MOL0     H63327   4.276   8.740   4.694 -2.8962 -0.9270  1.1384
  459MOL0     H63328   3.941   8.654   4.690  0.6711 -0.6948 -3.0602
  459MOL0     H63329   3.750   8.528   4.575  1.1647  0.5471 -1.3398
  459MOL0     H63330   3.762   8.123   4.546 -1.3746  1.5261 -3.6446
  459MOL0     H63331   3.635   8.116   4.674  0.1622 -0.1968  1.1542
  459MOL0     H63332   3.618   8.037   4.404  0.4366  0.1966 -0.3489
  459MOL0     H63333   3.582   8.201   4.384  1.1640  0.0349  0.3259
  459MOL0     H63334   3.421   8.011   4.574  0.4553 -0.7581 -0.4064
  459MOL0     H63335   3.407   8.183   4.573  0.7960 -1.2641  1.5866
  459MOL0     H63336   3.359   8.033   4.322 -1.3298  0.0820  0.0388
  459MOL0     H63337   3.313   8.195   4.354  1.0121  0.3280  0.8713
  459MOL0     H63338   2.962   8.025   4.516  0.3985 -0.1031  2.4038
  459MOL0     H63339   3.846   8.172   4.781  2.5144  0.2548 -1.6614
  459MOL0     H63340   4.082   8.307   5.017 -0.0125  0.1844  0.3283
  459MOL0     H63341   3.953   8.192   4.994  0.4059 -1.1778 -0.8333
  459MOL0     H63342   4.102   8.180   4.900 -0.0102 -0.6787  0.0090
  460MOL0     O63343   5.478  10.106   7.025 -0.7616  0.8635  0.5225
  460MOL0     C63344   5.460  10.114   6.903  0.1363 -0.1670  0.4958
  460MOL0     O63345   5.531  10.186   6.813  0.0198  0.3311  0.2115
  460MOL0     C63346   5.656  10.217   6.852  0.2280 -0.4306  0.4011
  460MOL0     C63347   5.692  10.347   6.881  0.0587 -0.0438  0.0731
  460MOL0     C63348   5.828  10.383   6.925  0.4383 -0.5821  0.6608
  460MOL0     C63349   5.928  10.280   6.935 -0.0565  0.3129  0.1669
  460MOL0     O63350   6.049  10.288   7.001  0.3637  0.6637 -0.0238
  460MOL0     C63351   6.065  10.385   7.110  0.2277  0.5322 -1.0107
  460MOL0     C63352   6.186  10.479   7.079 -0.2996  0.3059  0.3657
  460MOL0     C63353   6.196  10.585   7.190  0.7796  0.1744  0.2392
  460MOL0     C63354   6.319  10.671   7.183 -0.6049 -0.3144 -0.1312
  460MOL0     C63355   6.343  10.742   7.321  0.8690  0.6399 -0.9164
  460MOL0     C63356   6.479  10.812   7.307  0.1392 -0.0271  1.2017
  460MOL0     C63357   6.527  10.879   7.428  0.2151  0.1716 -0.5831
  460MOL0     C63358   6.677  10.911   7.427 -0.8762  0.0307  0.0764
  460MOL0     N63359   6.686  11.032   7.335  0.4070  0.3001 -0.5550
  460MOL0     C63360   6.669  11.049   7.198  0.0572  0.0320 -0.3104
  460MOL0     C63361   6.680  11.181   7.185  0.0894 -0.4166 -0.0579
  460MOL0     C63362   6.674  11.264   7.056 -0.0073  0.9936 -0.8004
  460MOL0     C63363   6.808  11.317   7.008 -0.0284  0.2630 -0.1648
  460MOL0     C63364   6.800  11.454   6.952 -0.4302 -1.1090 -0.3422
  460MOL0     C63365   6.945  11.513   6.941 -0.8493  0.5417 -0.3721
  460MOL0     O63366   6.994  11.462   6.814  0.3267 -0.0634  0.6391
  460MOL0     C63367   7.121  11.492   6.771  0.3829  1.1907 -0.2454
  460MOL0     C63368   7.160  11.448   6.643  0.0307 -0.1988 -0.0233
  460MOL0     C63369   7.282  11.487   6.586 -0.1157  0.6446 -0.3574
  460MOL0     C63370   7.321  11.440   6.451  1.1760  0.5195 -0.5013
  460MOL0     C63371   7.367  11.569   6.667  0.6026  0.7917 -0.2958
  460MOL0     C63372   7.495  11.627   6.628 -0.5268 -0.4393  0.6288
  460MOL0     O63373   7.553  11.718   6.697  0.0901 -0.4072 -0.0212
  460MOL0     C63374   7.674  11.771   6.659 -0.6046 -0.2108 -0.2225
  460MOL0     C63375   7.783  11.762   6.753  0.1102  1.2024  1.0545
  460MOL0     C63376   7.900  11.830   6.716 -0.1215 -0.2662 -0.8635
  460MOL0     C63377   7.916  11.909   6.604  0.3623  0.2393 -0.6241
  460MOL0     O63378   8.043  11.958   6.587 -0.1623 -0.7288  0.2429
  460MOL0     C63379   8.063  12.022   6.461 -0.2340  0.4771 -0.7919
  460MOL0     C63380   8.208  12.074   6.473  0.5488  0.4030 -0.1813
  460MOL0     C63381   8.206  12.223   6.415  0.7581  0.3143 -0.1325
  460MOL0     C63382   8.345  12.286   6.405 -0.3892 -0.9165  0.4145
  460MOL0     C63383   8.333  12.439   6.370  0.1892 -0.0176 -0.6240
  460MOL0     C63384   8.454  12.518   6.335 -0.4198  0.3419  0.0622
  460MOL0     C63385   8.524  12.456   6.205  0.1348 -0.5347 -0.7225
  460MOL0     C63386   8.433  12.458   6.087  0.1122 -1.1557  0.2778
  460MOL0    Cl63387   8.528  12.458   5.931 -0.0032  0.2238 -0.0725
  460MOL0     C63388   7.804  11.909   6.512 -0.0800  0.2932  1.3558
  460MOL0     C63389   7.689  11.841   6.542  0.4780 -0.0446 -0.0906
  460MOL0     O63390   7.547  11.588   6.521  0.0387  0.3145  0.1463
  460MOL0     C63391   7.323  11.623   6.794  0.2783 -0.3209  0.3975
  460MOL0     C63392   7.205  11.569   6.847  0.1596 -0.1071  0.3810
  460MOL0     N63393   6.710  11.241   7.303  0.4631  0.0327 -0.2090
  460MOL0     N63394   6.708  11.149   7.394  0.6069  0.6041 -0.7668
  460MOL0     C63395   5.892  10.150   6.893  0.3522 -0.7258  0.0478
  460MOL0     C63396   5.759  10.120   6.856  0.1495 -0.1841 -0.6071
  460MOL0     C63397   5.322  10.071   6.856  0.3976  0.2626  0.5618
  460MOL0     C63398   5.229  10.035   6.957 -0.0183 -0.2003  0.6473
  460MOL0     C63399   5.098  10.018   6.925 -0.4451  0.4823  0.2721
  460MOL0     C63400   5.058  10.004   6.789  0.3444 -0.2484 -0.1384
  460MOL0     O63401   4.925   9.978   6.738 -0.0833  0.5587 -0.4027
  460MOL0     C63402   4.869   9.847   6.771 -1.1460 -0.5026 -0.0308
  460MOL0     C63403   4.871   9.751   6.645 -0.5068 -0.2579 -0.2544
  460MOL0     C63404   5.006   9.706   6.596  0.7911 -0.3090  0.0177
  460MOL0     C63405   5.083   9.628   6.710 -0.4666 -0.0599 -0.0667
  460MOL0     C63406   5.010   9.508   6.743  0.3122 -0.0027 -1.8024
  460MOL0     C63407   4.928   9.412   6.755  0.1357  0.9280 -0.2971
  460MOL0     C63408   5.160  10.009   6.691 -0.0049 -0.4208  0.0113
  460MOL0     C63409   5.290  10.039   6.720 -0.3821  1.1170  0.0741
  460MOL0     C63410   5.378  10.042   6.596  0.0202  1.1752 -0.2699
  460MOL0     H63411   5.622  10.427   6.861  2.2600  1.5913 -1.4603
  460MOL0     H63412   5.853  10.486   6.947 -2.1527  0.3772 -0.5156
  460MOL0     H63413   6.086  10.332   7.203  2.0921  4.6757  1.2057
  460MOL0     H63414   5.980  10.449   7.130 -1.5440 -1.2256 -2.4712
  460MOL0     H63415   6.279  10.422   7.075  1.5058  3.0884  0.1244
  460MOL0     H63416   6.171  10.530   6.983 -0.3963 -1.0513 -0.3641
  460MOL0     H63417   6.104  10.643   7.189 -0.0425 -1.0885  0.2841
  460MOL0     H63418   6.205  10.542   7.290  0.9671 -0.6349 -0.1191
  460MOL0     H63419   6.402  10.603   7.166  0.5745  0.6187  1.5758
  460MOL0     H63420   6.300  10.742   7.102 -2.4807 -1.1498 -0.4886
  460MOL0     H63421   6.348  10.665   7.398  0.6072 -1.8155 -3.2167
  460MOL0     H63422   6.260  10.807   7.352  1.3406  1.1409 -0.6921
  460MOL0     H63423   6.545  10.726   7.287 -0.4905 -0.3820  0.6100
  460MOL0     H63424   6.489  10.877   7.220 -0.3015 -0.9202  0.4661
  460MOL0     H63425   6.512  10.807   7.509  0.3271  0.3520 -0.4017
  460MOL0     H63426   6.473  10.970   7.455 -0.4150  0.9706 -4.0374
  460MOL0     H63427   6.706  10.940   7.528 -2.3365 -1.5016  0.9946
  460MOL0     H63428   6.741  10.825   7.405 -0.2978  0.0167  1.6896
  460MOL0     H63429   6.655  10.981   7.115  0.4256  1.1677 -1.3330
  460MOL0     H63430   6.606  11.344   7.087  0.0515  1.4412 -1.7987
  460MOL0     H63431   6.627  11.216   6.969  1.2034  0.7653 -1.3465
  460MOL0     H63432   6.871  11.331   7.097  0.4171  1.6119 -0.6631
  460MOL0     H63433   6.854  11.259   6.927 -0.7703  2.9779 -2.7069
  460MOL0     H63434   6.737  11.465   6.863 -0.3142 -1.2178 -0.4391
  460MOL0     H63435   6.756  11.517   7.029  0.2636 -1.5926  0.4735
  460MOL0     H63436   6.930  11.621   6.931 -1.3307  0.2753 -3.5037
  460MOL0     H63437   7.007  11.471   7.021  0.9191 -2.8142 -3.2303
  460MOL0     H63438   7.090  11.383   6.592 -0.2594  0.4455 -0.4552
  460MOL0     H63439   7.247  11.374   6.406 -0.2496  0.7807  1.3528
  460MOL0     H63440   7.421  11.395   6.453  1.7218  1.7237  0.3871
  460MOL0     H63441   7.322  11.527   6.384  0.0742 -0.5840 -2.0218
  460MOL0     H63442   7.760  11.696   6.837 -0.5213 -0.1385 -0.1277
  460MOL0     H63443   7.977  11.839   6.792  0.1222 -1.9114 -0.8900
  460MOL0     H63444   8.067  11.944   6.384 -0.3721 -0.6620  0.3122
  460MOL0     H63445   7.984  12.096   6.447 -0.5951  0.0838 -0.8631
  460MOL0     H63446   8.253  12.066   6.572  1.0914 -2.7888 -0.5908
  460MOL0     H63447   8.280  12.019   6.412  1.8473  0.7799  0.9535
  460MOL0     H63448   8.145  12.291   6.476 -1.6294  0.5201 -2.5398
  460MOL0     H63449   8.164  12.211   6.314  0.1123 -0.4196  0.2220
  460MOL0     H63450   8.400  12.233   6.326 -0.9131 -1.7201  0.5793
  460MOL0     H63451   8.403  12.281   6.497 -0.6749 -0.4311  0.6218
  460MOL0     H63452   8.260  12.459   6.291  0.2892 -1.0710 -1.0004
  460MOL0     H63453   8.301  12.473   6.469 -2.3293  0.1656 -1.4366
  460MOL0     H63454   8.528  12.515   6.416 -0.5847  3.2431  0.4320
  460MOL0     H63455   8.426  12.623   6.327 -0.5563  0.1363 -3.7056
  460MOL0     H63456   8.548  12.353   6.233 -1.4693 -0.6983  0.1465
  460MOL0     H63457   8.618  12.510   6.190 -0.5723 -0.0798 -4.5337
  460MOL0     H63458   8.371  12.548   6.088  1.7343  0.1372 -2.4070
  460MOL0     H63459   8.376  12.365   6.075 -0.7299 -0.2749 -4.6139
  460MOL0     H63460   7.809  11.961   6.417  1.9930  1.3755  1.9874
  460MOL0     H63461   7.598  11.837   6.481  0.6729  0.3848 -0.4131
  460MOL0     H63462   7.376  11.685   6.866 -1.0150 -0.7741  1.7878
  460MOL0     H63463   7.183  11.612   6.944 -1.8271  1.7580 -0.8069
  460MOL0     H63464   5.958  10.065   6.888  2.2625  0.7423 -1.3115
  460MOL0     H63465   5.733  10.020   6.822 -0.4718 -0.5856  0.9847
  460MOL0     H63466   5.269  10.026   7.058  0.5063  3.9877  1.0160
  460MOL0     H63467   5.023  10.018   7.004  0.6304 -1.3861  1.3664
  460MOL0     H63468   4.929   9.789   6.842  0.7459 -0.9819 -1.9489
  460MOL0     H63469   4.769   9.868   6.812 -1.4652  1.0249 -1.4952
  460MOL0     H63470   4.825   9.802   6.559  0.3311  0.3908 -0.3342
  460MOL0     H63471   4.796   9.675   6.669 -0.2354  0.4483  3.4309
  460MOL0     H63472   4.986   9.639   6.511  1.9844  1.1475 -1.4868
  460MOL0     H63473   5.053   9.797   6.557 -0.0301  2.3132  4.4995
  460MOL0     H63474   5.106   9.688   6.799  2.8639 -1.3546  0.1004
  460MOL0     H63475   5.183   9.596   6.676  0.9934  4.3233 -0.6175
  460MOL0     H63476   4.870   9.328   6.788  1.2620  0.5356  0.7993
  460MOL0     H63477   5.131  10.014   6.586 -2.8513  0.7077  0.7619
  460MOL0     H63478   5.339   9.983   6.513 -0.1320 -0.0953  0.6638
  460MOL0     H63479   5.393  10.144   6.560  1.0332  1.4297  0.8121
  460MOL0     H63480   5.470   9.989   6.620 -0.0378  0.9065 -0.6333
  461MOL0     O63481   0.469   8.833   6.019 -0.0706 -0.1799  0.4775
  461MOL0     C63482   0.436   8.928   5.943  0.4078 -0.3821  0.1987
  461MOL0     O63483   0.522   9.017   5.892 -0.0969 -0.2146 -0.7047
  461MOL0     C63484   0.655   9.030   5.927 -0.0043  0.2502 -1.0358
  461MOL0     C63485   0.754   8.939   5.874  0.4657 -0.7980 -0.1456
  461MOL0     C63486   0.893   8.962   5.906 -0.3450  0.6745  0.0924
  461MOL0     C63487   0.930   9.059   6.006  0.0542 -0.7592  0.2057
  461MOL0     O63488   1.058   9.065   6.054 -0.2987  0.2430 -0.3974
  461MOL0     C63489   1.135   9.176   6.017 -0.9667 -0.5593  0.6700
  461MOL0     C63490   1.209   9.133   5.893  0.1359  0.5374  0.4589
  461MOL0     C63491   1.325   9.037   5.927 -0.0983 -0.7333  0.2505
  461MOL0     C63492   1.417   9.018   5.811 -0.4772  0.7067  0.3629
  461MOL0     C63493   1.569   9.016   5.863  0.0922  0.7798 -0.0074
  461MOL0     C63494   1.666   8.965   5.743  0.0725 -0.1802 -0.2709
  461MOL0     C63495   1.814   8.947   5.793 -0.9686 -0.2431 -0.7006
  461MOL0     C63496   1.925   8.927   5.678  0.7593 -0.3611  0.0050
  461MOL0     N63497   1.963   9.044   5.602 -0.3422 -0.4104 -0.1505
  461MOL0     C63498   1.994   9.038   5.466  0.4167  0.2671  0.6685
  461MOL0     C63499   2.048   9.155   5.442 -0.4430 -0.9359  0.4978
  461MOL0     C63500   2.116   9.208   5.309 -0.3101 -0.0369  0.2068
  461MOL0     C63501   2.273   9.212   5.320  0.5568 -0.2333 -0.5389
  461MOL0     C63502   2.314   9.304   5.434  0.6392  0.0658 -0.5497
  461MOL0     C63503   2.466   9.317   5.427  0.0517 -0.9805  0.3402
  461MOL0     O63504   2.530   9.194   5.460  0.1057 -0.5821 -0.6441
  461MOL0     C63505   2.658   9.208   5.501 -0.4716 -0.3702  0.1609
  461MOL0     C63506   2.748   9.315   5.468 -0.5963  0.5638  0.5878
  461MOL0     C63507   2.885   9.314   5.508 -0.4293  0.0160  0.3087
  461MOL0     C63508   2.977   9.428   5.451 -0.3610  0.2345  0.8728
  461MOL0     C63509   2.927   9.215   5.592 -0.6918  1.2323  0.1763
  461MOL0     C63510   3.063   9.208   5.638 -0.2321 -0.0889 -0.2168
  461MOL0     O63511   3.089   9.292   5.749 -0.3972  0.0851  0.0604
  461MOL0     C63512   3.215   9.281   5.793  0.0798 -0.8382 -0.4998
  461MOL0     C63513   3.325   9.308   5.708  0.0144  0.4572 -0.0342
  461MOL0     C63514   3.456   9.328   5.757  0.1356 -0.1192  0.4216
  461MOL0     C63515   3.478   9.309   5.897 -1.4228 -0.4464  0.5771
  461MOL0     O63516   3.610   9.324   5.949 -0.1212  0.1556 -0.7542
  461MOL0     C63517   3.635   9.347   6.095 -0.4654  0.0150 -0.3536
  461MOL0     C63518   3.790   9.327   6.131 -1.0484 -0.3640 -0.1289
  461MOL0     C63519   3.814   9.345   6.281 -0.0630  0.2842 -0.4137
  461MOL0     C63520   3.790   9.486   6.337  0.8498 -0.7665  0.9682
  461MOL0     C63521   3.757   9.499   6.481 -0.2709 -0.0159  0.1263
  461MOL0     C63522   3.725   9.647   6.504  0.3265 -0.4000  0.7616
  461MOL0     C63523   3.634   9.665   6.631  0.4509  0.4350  0.2086
  461MOL0     C63524   3.684   9.623   6.766  0.1843 -1.4222 -0.0989
  461MOL0    Cl63525   3.855   9.705   6.788  0.3042 -0.2191  0.2347
  461MOL0     C63526   3.372   9.277   5.978  0.0519  0.1615  1.5443
  461MOL0     C63527   3.239   9.259   5.929 -0.4198  1.3458  0.6145
  461MOL0     O63528   3.135   9.124   5.589  0.1486 -0.6135  0.5636
  461MOL0     C63529   2.838   9.111   5.631 -0.2706 -0.1786  0.1201
  461MOL0     C63530   2.713   9.107   5.578  0.2461  0.3560 -1.0478
  461MOL0     N63531   2.039   9.241   5.551 -0.5020  0.2090 -0.8905
  461MOL0     N63532   1.986   9.170   5.654  0.0303  0.0424  0.4158
  461MOL0     C63533   0.829   9.140   6.054  0.6060 -0.5747 -0.1507
  461MOL0     C63534   0.692   9.123   6.024  0.7245  1.1459  0.2214
  461MOL0     C63535   0.293   8.963   5.928 -0.1895  0.1283 -0.4786
  461MOL0     C63536   0.259   9.095   5.914 -0.7586 -0.4115  0.0231
  461MOL0     C63537   0.126   9.139   5.906 -0.3903  0.4879  0.1589
  461MOL0     C63538   0.028   9.046   5.895  0.3414  0.0918 -0.5872
  461MOL0     O63539  -0.104   9.076   5.884 -0.1219  0.0460 -0.5500
  461MOL0     C63540  -0.151   9.211   5.879  0.5450 -0.5805 -0.2880
  461MOL0     C63541  -0.131   9.267   5.734 -0.1839 -0.0143  0.0772
  461MOL0     C63542  -0.208   9.394   5.717  0.3345 -0.4778 -0.5988
  461MOL0     C63543  -0.166   9.460   5.588  0.4721  0.0635 -0.0453
  461MOL0     C63544  -0.190   9.362   5.470  0.6653 -0.1754 -0.5314
  461MOL0     C63545  -0.194   9.310   5.359  0.5562 -0.3008 -1.0921
  461MOL0     C63546   0.058   8.909   5.903  0.0905 -0.2722  0.2592
  461MOL0     C63547   0.189   8.862   5.914 -0.1790 -0.5814 -0.0103
  461MOL0     C63548   0.214   8.709   5.903  0.9622  0.3663 -0.0146
  461MOL0     H63549   0.717   8.867   5.803  0.0315 -0.2903 -0.4389
  461MOL0     H63550   0.969   8.897   5.864 -1.0646  0.2581 -0.5895
  461MOL0     H63551   1.209   9.191   6.096  1.2077  1.8334 -1.6137
  461MOL0     H63552   1.070   9.261   5.992 -2.8120 -1.4974  2.0515
  461MOL0     H63553   1.138   9.103   5.816 -0.6358  3.6106 -0.1729
  461MOL0     H63554   1.250   9.225   5.850  0.8770  0.1132  0.2211
  461MOL0     H63555   1.383   9.072   6.014 -0.6735 -1.1529  0.8105
  461MOL0     H63556   1.292   8.940   5.965  4.9812 -2.6132  0.7380
  461MOL0     H63557   1.387   8.925   5.761  0.6353  0.0476  0.8737
  461MOL0     H63558   1.404   9.098   5.738 -3.6549  1.4396  1.5860
  461MOL0     H63559   1.578   8.946   5.946  1.7334 -0.5682 -1.2521
  461MOL0     H63560   1.602   9.110   5.909 -1.3760  0.0097  2.8298
  461MOL0     H63561   1.627   8.870   5.705 -3.3296  0.0039  2.3424
  461MOL0     H63562   1.658   9.040   5.663  3.2502 -0.3018 -0.8488
  461MOL0     H63563   1.818   8.860   5.859  0.7672  1.1558  1.2038
  461MOL0     H63564   1.841   9.037   5.850 -2.3309  0.6467 -1.4030
  461MOL0     H63565   2.013   8.887   5.730 -0.2187 -2.7775 -0.0705
  461MOL0     H63566   1.887   8.851   5.609 -0.6053 -0.8401  1.2285
  461MOL0     H63567   1.993   8.955   5.397 -0.5477  1.2968 -0.6189
  461MOL0     H63568   2.090   9.312   5.286 -4.3416 -0.7347  1.0297
  461MOL0     H63569   2.081   9.142   5.229 -4.9983  2.6886 -0.3149
  461MOL0     H63570   2.310   9.113   5.346  0.2267  0.3001  2.2490
  461MOL0     H63571   2.310   9.243   5.222  0.7041  1.4324  0.0073
  461MOL0     H63572   2.259   9.399   5.424 -0.2015 -0.0113  2.4299
  461MOL0     H63573   2.287   9.257   5.529  1.0783 -0.5534 -0.7261
  461MOL0     H63574   2.482   9.334   5.320 -0.1779 -3.5724 -0.1676
  461MOL0     H63575   2.497   9.400   5.491 -0.3902 -1.1245  0.7490
  461MOL0     H63576   2.710   9.396   5.406 -4.1659 -1.5690 -0.3240
  461MOL0     H63577   3.006   9.390   5.353 -0.7421 -1.3470  1.3370
  461MOL0     H63578   3.069   9.451   5.505  2.5608  3.0746 -4.4638
  461MOL0     H63579   2.933   9.527   5.440  1.1518  1.0071  1.5684
  461MOL0     H63580   3.313   9.333   5.603  0.6259  3.0364  0.4582
  461MOL0     H63581   3.540   9.355   5.693  1.1069  0.2008  1.7656
  461MOL0     H63582   3.592   9.439   6.136  2.0152  1.8620 -1.5964
  461MOL0     H63583   3.593   9.261   6.147 -0.8177  0.8504  0.7658
  461MOL0     H63584   3.824   9.226   6.107  3.1927  0.7039  0.5603
  461MOL0     H63585   3.851   9.393   6.069  0.3377 -0.3232  1.2386
  461MOL0     H63586   3.918   9.313   6.296  0.2637  0.1736 -2.5892
  461MOL0     H63587   3.746   9.274   6.330 -0.8126  2.3831  1.7894
  461MOL0     H63588   3.703   9.526   6.285 -0.7969 -4.0719  0.8776
  461MOL0     H63589   3.879   9.543   6.310  0.6073 -0.8757 -0.0817
  461MOL0     H63590   3.668   9.441   6.508  0.2764  0.3844  3.2304
  461MOL0     H63591   3.839   9.460   6.542  0.3295  2.0140  0.6996
  461MOL0     H63592   3.680   9.702   6.421  0.5218 -1.0037  0.2494
  461MOL0     H63593   3.826   9.689   6.514  0.1335  0.2144  0.1757
  461MOL0     H63594   3.534   9.626   6.610 -0.8135  2.9369  1.2593
  461MOL0     H63595   3.620   9.773   6.626  3.0533  0.8433  0.4286
  461MOL0     H63596   3.697   9.515   6.759 -0.8489 -1.7133  1.8393
  461MOL0     H63597   3.607   9.639   6.842  1.7564  1.6447  1.0073
  461MOL0     H63598   3.386   9.268   6.086  0.5616  0.3968  1.4966
  461MOL0     H63599   3.159   9.236   5.999  0.7328 -0.4033  1.4312
  461MOL0     H63600   2.863   9.024   5.691  0.7963 -0.1826 -0.3136
  461MOL0     H63601   2.649   9.028   5.616 -0.6099  1.5206  0.0399
  461MOL0     H63602   0.853   9.235   6.101  1.3993 -0.5633 -0.5594
  461MOL0     H63603   0.622   9.191   6.071  0.0237  0.9671 -0.5438
  461MOL0     H63604   0.328   9.179   5.914 -1.4126  0.1363 -0.0168
  461MOL0     H63605   0.098   9.244   5.900 -1.7314  0.1551  0.1491
  461MOL0     H63606  -0.258   9.214   5.902  0.2075 -2.1536 -1.5139
  461MOL0     H63607  -0.099   9.274   5.953 -0.0596 -2.0095  1.4359
  461MOL0     H63608  -0.165   9.185   5.669 -1.8264 -0.0332  0.9012
  461MOL0     H63609  -0.024   9.282   5.720  0.0372 -0.4331  1.2586
  461MOL0     H63610  -0.314   9.366   5.717  0.6402 -1.7533 -1.6687
  461MOL0     H63611  -0.186   9.463   5.799  2.6399 -2.4466  0.5733
  461MOL0     H63612  -0.058   9.480   5.594  0.3344  0.6570  0.6975
  461MOL0     H63613  -0.218   9.555   5.571  0.9216  0.5772  1.2542
  461MOL0     H63614  -0.201   9.246   5.273  3.7056 -1.8636 -0.3128
  461MOL0     H63615  -0.022   8.836   5.913 -1.1499  0.8845 -0.7607
  461MOL0     H63616   0.120   8.652   5.909  1.3251 -0.3345 -0.6927
  461MOL0     H63617   0.266   8.681   5.810 -1.6586 -2.7458 -0.7528
  461MOL0     H63618   0.279   8.683   5.987  1.0777 -0.6233 -0.3899
  462MOL0     O63619   6.767   7.686   5.066  0.2787  0.6307  0.5081
  462MOL0     C63620   6.666   7.742   5.025  0.4545 -0.7547 -0.2399
  462MOL0     O63621   6.672   7.854   4.947 -0.9782 -0.4523  0.6667
  462MOL0     C63622   6.789   7.890   4.895 -0.1921 -0.2534 -0.4280
  462MOL0     C63623   6.819   8.023   4.900  0.6094 -0.0520 -0.0564
  462MOL0     C63624   6.935   8.071   4.837  1.1217 -0.2225  0.4362
  462MOL0     C63625   7.001   7.980   4.752  0.0167  0.2273  0.3398
  462MOL0     O63626   7.119   8.020   4.698 -0.4340  0.2999  0.4867
  462MOL0     C63627   7.230   7.965   4.771  0.2584 -0.2613  0.7096
  462MOL0     C63628   7.343   8.044   4.716 -1.0133  0.6067 -0.5348
  462MOL0     C63629   7.465   8.007   4.808 -0.2802 -1.4532 -0.4057
  462MOL0     C63630   7.597   8.086   4.778 -0.2861  0.3359 -0.2251
  462MOL0     C63631   7.692   8.055   4.891  0.2292  0.1597  0.4561
  462MOL0     C63632   7.713   7.912   4.926  0.8229 -0.6759 -0.6980
  462MOL0     C63633   7.778   7.834   4.816  0.4240 -0.3677 -0.3225
  462MOL0     C63634   7.826   7.694   4.860 -0.2258  0.5306  0.2203
  462MOL0     N63635   7.738   7.632   4.952  0.3598 -0.1611 -0.6780
  462MOL0     C63636   7.773   7.557   5.054 -0.7468  0.0890 -1.1824
  462MOL0     C63637   7.668   7.471   5.066  0.1123 -0.0489 -0.5634
  462MOL0     C63638   7.646   7.387   5.186  0.5153 -0.5739  0.2673
  462MOL0     C63639   7.703   7.252   5.177  0.3746 -0.8637  0.1272
  462MOL0     C63640   7.823   7.216   5.265  0.0020  0.1728 -0.5298
  462MOL0     C63641   7.854   7.067   5.247 -0.3676 -0.6779  0.3880
  462MOL0     O63642   7.810   6.980   5.358 -0.3458  1.0089  0.5590
  462MOL0     C63643   7.674   6.971   5.382 -0.0957 -0.1698 -0.1087
  462MOL0     C63644   7.602   7.066   5.452 -0.4028 -0.0584  0.9204
  462MOL0     C63645   7.458   7.056   5.472  0.1129 -0.2357 -1.0435
  462MOL0     C63646   7.386   7.160   5.562  0.7114  0.4010 -0.0734
  462MOL0     C63647   7.399   6.940   5.416  0.1573  0.7678  0.3280
  462MOL0     C63648   7.259   6.904   5.444  0.7424 -0.3425 -0.1363
  462MOL0     O63649   7.193   6.825   5.356  0.5481 -0.2315 -0.1449
  462MOL0     C63650   7.069   6.764   5.365  1.3008 -0.1850 -0.9404
  462MOL0     C63651   7.024   6.684   5.256  0.0652  0.1061  0.1530
  462MOL0     C63652   6.885   6.651   5.252  0.7474 -0.1842  0.5264
  462MOL0     C63653   6.803   6.660   5.364 -0.2930 -0.1272 -0.3463
  462MOL0     O63654   6.675   6.625   5.345  0.4516  0.7559 -0.6981
  462MOL0     C63655   6.605   6.555   5.454  0.1610 -0.4928 -0.3376
  462MOL0     C63656   6.488   6.479   5.395  0.0868 -0.5398  0.4688
  462MOL0     C63657   6.442   6.362   5.486 -0.5045 -0.3372  1.1887
  462MOL0     C63658   6.286   6.352   5.493 -0.0359  1.4117 -0.5000
  462MOL0     C63659   6.247   6.221   5.563  0.0047 -0.8501  0.1073
  462MOL0     C63660   6.126   6.259   5.655  0.0175  0.0444 -0.5166
  462MOL0     C63661   5.999   6.285   5.575  0.2335 -0.8652  0.1503
  462MOL0     C63662   5.881   6.305   5.667 -0.5399 -0.5674  0.4180
  462MOL0    Cl63663   5.721   6.306   5.592  0.1798  0.5092 -0.0618
  462MOL0     C63664   6.856   6.732   5.474 -0.9266 -0.2670 -0.1167
  462MOL0     C63665   6.978   6.795   5.467 -0.6346  0.0617  0.3992
  462MOL0     O63666   7.218   6.920   5.561  0.6744  0.0244  0.1066
  462MOL0     C63667   7.473   6.839   5.351 -0.2322 -0.7176 -0.1044
  462MOL0     C63668   7.611   6.855   5.339  0.5636  0.0603  0.3046
  462MOL0     N63669   7.578   7.496   4.970  0.5013 -0.5027  0.5835
  462MOL0     N63670   7.618   7.590   4.902  0.5268  0.0786  0.3001
  462MOL0     C63671   6.962   7.846   4.743  0.2859  0.0548 -0.4062
  462MOL0     C63672   6.852   7.798   4.808 -0.3814 -0.2442 -0.2713
  462MOL0     C63673   6.533   7.698   5.081  0.3512 -0.5936  0.7588
  462MOL0     C63674   6.423   7.779   5.060 -0.5464  0.2304  0.5594
  462MOL0     C63675   6.295   7.746   5.095 -0.2068 -0.4606 -0.3622
  462MOL0     C63676   6.276   7.633   5.169  0.0144 -0.9608 -0.1092
  462MOL0     O63677   6.152   7.599   5.212  0.1557 -0.4181  0.3502
  462MOL0     C63678   6.126   7.672   5.339 -0.5805 -1.2006  0.6102
  462MOL0     C63679   5.975   7.696   5.365 -0.0302 -0.9580 -1.0829
  462MOL0     C63680   5.912   7.654   5.502  0.5067  0.8089 -0.6207
  462MOL0     C63681   5.792   7.747   5.544 -0.5060 -0.4266 -0.2554
  462MOL0     C63682   5.741   7.692   5.673 -0.8726 -0.5895  0.0595
  462MOL0     C63683   5.695   7.647   5.779 -0.4917 -0.2211 -0.5437
  462MOL0     C63684   6.382   7.546   5.191  0.5075  0.0744 -0.6117
  462MOL0     C63685   6.515   7.577   5.146  0.3066  0.3462 -0.5958
  462MOL0     C63686   6.612   7.468   5.164 -0.0681 -0.1088 -0.5754
  462MOL0     H63687   6.758   8.090   4.959 -1.8678 -0.8552 -1.5573
  462MOL0     H63688   6.978   8.171   4.838  6.9052 -2.2197 -3.0208
  462MOL0     H63689   7.241   7.860   4.745 -0.1171 -0.1067 -0.0931
  462MOL0     H63690   7.212   7.968   4.879 -0.1869 -2.6146  0.7403
  462MOL0     H63691   7.367   7.997   4.620 -0.2901 -4.2579  1.7120
  462MOL0     H63692   7.321   8.151   4.709 -1.4207  0.5645  0.0173
  462MOL0     H63693   7.432   8.024   4.911 -0.8639 -4.3244 -0.0432
  462MOL0     H63694   7.471   7.899   4.795 -3.7608 -1.5330 -2.9415
  462MOL0     H63695   7.639   8.061   4.681 -2.5203  1.2867 -1.5139
  462MOL0     H63696   7.589   8.195   4.781 -1.9166  0.2273  0.5142
  462MOL0     H63697   7.647   8.096   4.982 -2.1194  0.1301 -0.6179
  462MOL0     H63698   7.784   8.100   4.853  0.2121  0.3380  0.6292
  462MOL0     H63699   7.774   7.917   5.017  0.9856 -4.0837 -0.4838
  462MOL0     H63700   7.627   7.864   4.974  2.7921 -3.3435  0.4605
  462MOL0     H63701   7.864   7.896   4.789  0.0854  0.9774  1.5143
  462MOL0     H63702   7.708   7.824   4.732 -1.1891  0.9117  0.8107
  462MOL0     H63703   7.841   7.628   4.774  0.3033  0.7139  0.1667
  462MOL0     H63704   7.922   7.711   4.910  0.3701 -0.2516 -0.6043
  462MOL0     H63705   7.865   7.566   5.110 -1.6115  3.1414 -0.1030
  462MOL0     H63706   7.537   7.386   5.199  0.3292 -3.2277 -0.9504
  462MOL0     H63707   7.683   7.447   5.270  3.1602  0.4187 -1.4893
  462MOL0     H63708   7.626   7.183   5.214 -1.4169  1.3634  0.7307
  462MOL0     H63709   7.731   7.226   5.075 -1.1907  0.3219 -0.6503
  462MOL0     H63710   7.912   7.271   5.233 -1.2301  2.5831 -0.0298
  462MOL0     H63711   7.808   7.230   5.372  2.1753 -3.1680  0.3644
  462MOL0     H63712   7.811   7.019   5.158  2.1907 -0.8620 -0.8247
  462MOL0     H63713   7.958   7.062   5.215  0.0523  0.7088  1.4305
  462MOL0     H63714   7.652   7.147   5.503  0.9139 -1.3355  1.7427
  462MOL0     H63715   7.381   7.126   5.666 -2.2476  4.0940  1.1901
  462MOL0     H63716   7.290   7.184   5.517  1.2208  1.2569 -0.7197
  462MOL0     H63717   7.443   7.253   5.559  1.6888 -0.1999 -0.7537
  462MOL0     H63718   7.090   6.637   5.185 -1.7650 -1.0232 -0.8719
  462MOL0     H63719   6.847   6.596   5.166  1.0835 -3.6300  2.4034
  462MOL0     H63720   6.670   6.491   5.515  0.8217  1.9444  1.7295
  462MOL0     H63721   6.573   6.631   5.526  3.2745  0.8036 -0.1583
  462MOL0     H63722   6.414   6.554   5.366 -0.8513 -2.0632 -1.2557
  462MOL0     H63723   6.512   6.441   5.295 -2.4236  1.0888 -0.8584
  462MOL0     H63724   6.475   6.379   5.589 -0.3687 -0.8607  1.2389
  462MOL0     H63725   6.476   6.268   5.440 -0.5113 -0.6590  1.8305
  462MOL0     H63726   6.246   6.345   5.391  0.6852  1.2114 -0.7694
  462MOL0     H63727   6.241   6.440   5.541 -0.1477  0.4254  1.3015
  462MOL0     H63728   6.224   6.153   5.481  0.2799 -0.4577 -0.3011
  462MOL0     H63729   6.326   6.180   5.627 -1.9389 -3.4236  1.0173
  462MOL0     H63730   6.162   6.343   5.715  1.2512 -1.2815  0.6720
  462MOL0     H63731   6.111   6.175   5.722 -0.8055  1.9684  1.8512
  462MOL0     H63732   5.977   6.210   5.498 -3.7618  0.0053  0.2685
  462MOL0     H63733   6.009   6.382   5.525 -0.1877  0.5575  2.6984
  462MOL0     H63734   5.887   6.401   5.720 -2.9776 -1.3019  2.1705
  462MOL0     H63735   5.889   6.230   5.747  1.5322 -0.1574  0.6511
  462MOL0     H63736   6.793   6.752   5.559  0.6160  1.4401  0.6922
  462MOL0     H63737   7.000   6.871   5.541  1.7472  0.3544 -0.5287
  462MOL0     H63738   7.421   6.762   5.296 -0.7879  0.4301 -1.2364
  462MOL0     H63739   7.689   6.790   5.301  3.1421  2.9355  0.1894
  462MOL0     H63740   7.010   7.779   4.673 -0.5258  0.1578 -1.0756
  462MOL0     H63741   6.814   7.700   4.782 -1.1102 -0.0071 -0.1372
  462MOL0     H63742   6.424   7.869   5.000  0.1464  0.0202  0.2478
  462MOL0     H63743   6.212   7.806   5.059  0.0190 -0.1980 -0.4469
  462MOL0     H63744   6.169   7.618   5.425 -0.6182 -2.0823  0.0937
  462MOL0     H63745   6.169   7.772   5.336  0.3160 -1.5507 -3.1080
  462MOL0     H63746   5.916   7.632   5.299 -0.9802  0.5678 -1.7826
  462MOL0     H63747   5.954   7.802   5.344  0.1535 -0.9698 -1.3303
  462MOL0     H63748   5.880   7.551   5.486 -0.7861  0.9437  0.8591
  462MOL0     H63749   5.983   7.669   5.584 -0.5719  0.9619  0.3132
  462MOL0     H63750   5.711   7.738   5.471  1.1188 -2.6152 -1.9014
  462MOL0     H63751   5.828   7.850   5.557 -1.2464 -0.4725  3.1130
  462MOL0     H63752   5.638   7.606   5.860 -0.9840 -1.2967 -1.4209
  462MOL0     H63753   6.365   7.450   5.240 -3.1057  0.0832 -1.5837
  462MOL0     H63754   6.708   7.503   5.203  0.4338 -2.5845  0.5860
  462MOL0     H63755   6.573   7.393   5.234 -2.6309  1.0475 -0.6446
  462MOL0     H63756   6.644   7.418   5.073 -0.3749 -0.6692 -0.3774
  463MOL0     O63757  10.041   6.288   0.435  0.0528  0.0616 -0.7359
  463MOL0     C63758  10.084   6.211   0.348 -0.1279 -0.2436 -0.4719
  463MOL0     O63759  10.216   6.167   0.328  0.1559 -0.6305 -0.7608
  463MOL0     C63760  10.317   6.231   0.406  0.4389 -0.6106 -0.4340
  463MOL0     C63761  10.329   6.370   0.403  0.4340 -0.1155  0.1951
  463MOL0     C63762  10.441   6.428   0.470 -0.7339  0.3421  0.4927
  463MOL0     C63763  10.535   6.348   0.529  0.0967 -1.1105 -0.9562
  463MOL0     O63764  10.636   6.413   0.586  0.0622 -0.5715  0.2076
  463MOL0     C63765  10.764   6.388   0.534 -0.5888  0.1055 -0.2928
  463MOL0     C63766  10.870   6.480   0.594 -0.0140 -0.5562  0.6876
  463MOL0     C63767  11.009   6.445   0.544  0.6696 -0.2297  0.0689
  463MOL0     C63768  11.107   6.564   0.572 -0.5569  0.9503 -0.3423
  463MOL0     C63769  11.254   6.523   0.541  0.1850 -0.0308  0.5701
  463MOL0     C63770  11.345   6.637   0.584 -0.4412  0.0380 -0.9387
  463MOL0     C63771  11.493   6.589   0.569  0.2003 -0.2803  0.0054
  463MOL0     C63772  11.596   6.697   0.607  0.3926  0.3967 -0.3446
  463MOL0     N63773  11.652   6.768   0.505 -0.6293 -0.3605 -0.3632
  463MOL0     C63774  11.616   6.897   0.464 -0.7053 -0.6913  0.4565
  463MOL0     C63775  11.696   6.921   0.356 -0.5336 -0.2015 -1.1826
  463MOL0     C63776  11.703   7.049   0.271  0.0509 -0.0215 -0.4003
  463MOL0     C63777  11.836   7.107   0.247  0.2604  0.6066  0.1048
  463MOL0     C63778  11.897   7.098   0.103 -0.4191  0.2687  0.0710
  463MOL0     C63779  11.952   6.950   0.076  1.8032  0.9027 -0.0755
  463MOL0     O63780  11.984   6.937  -0.067  0.0409  0.4345 -0.0831
  463MOL0     C63781  12.069   6.838  -0.100  0.3287  0.1238  0.1330
  463MOL0     C63782  12.101   6.723  -0.026  0.7025  0.2272  0.2216
  463MOL0     C63783  12.193   6.626  -0.078  0.0974 -0.3543  0.0770
  463MOL0     C63784  12.199   6.498   0.000 -1.1243 -0.3141 -0.3412
  463MOL0     C63785  12.267   6.658  -0.192  0.8855 -0.3854 -0.0432
  463MOL0     C63786  12.396   6.581  -0.220 -0.6065 -0.5282 -0.1093
  463MOL0     O63787  12.443   6.597  -0.349 -0.7784 -0.0084 -0.3885
  463MOL0     C63788  12.544   6.509  -0.383 -0.1851 -0.5112 -0.4089
  463MOL0     C63789  12.671   6.515  -0.334  0.0121 -0.1168  0.1916
  463MOL0     C63790  12.773   6.426  -0.391 -0.3497 -0.4625 -0.6208
  463MOL0     C63791  12.738   6.332  -0.490 -0.0923  0.5960 -0.6675
  463MOL0     O63792  12.836   6.258  -0.548 -0.1672  0.4912 -0.4971
  463MOL0     C63793  12.827   6.263  -0.692 -0.7758 -0.0412  0.4712
  463MOL0     C63794  12.954   6.187  -0.737 -1.4226  0.0818  0.4330
  463MOL0     C63795  12.965   6.162  -0.890 -0.0030 -0.3895 -0.2227
  463MOL0     C63796  13.101   6.093  -0.930  0.6891 -0.3501  0.4476
  463MOL0     C63797  13.138   6.104  -1.081  0.6450  0.7262  0.4293
  463MOL0     C63798  13.279   6.040  -1.087 -0.2353  0.2537  0.1038
  463MOL0     C63799  13.307   6.041  -1.238 -0.0481  0.4528 -0.3600
  463MOL0     C63800  13.440   5.966  -1.273 -0.2443  0.1883  0.9653
  463MOL0    Cl63801  13.449   5.921  -1.441  0.1206 -0.0646  0.1800
  463MOL0     C63802  12.599   6.316  -0.517 -0.9932 -0.4265  0.6190
  463MOL0     C63803  12.510   6.405  -0.470  0.3823 -0.3895 -1.4893
  463MOL0     O63804  12.448   6.512  -0.132 -0.1113 -0.3778 -0.6222
  463MOL0     C63805  12.229   6.770  -0.265  0.8156  0.4316 -0.0954
  463MOL0     C63806  12.128   6.852  -0.225  0.8965 -0.5879 -0.1571
  463MOL0     N63807  11.773   6.814   0.336  0.2583  0.5852  0.6481
  463MOL0     N63808  11.747   6.725   0.424 -0.2557  0.4435 -0.1044
  463MOL0     C63809  10.511   6.207   0.540 -0.1040 -0.9158  0.5112
  463MOL0     C63810  10.406   6.152   0.473  0.6737 -0.1362  0.0458
  463MOL0     C63811   9.980   6.144   0.259 -0.2575 -0.7603  0.0471
  463MOL0     C63812   9.887   6.235   0.210  0.7761  0.2557  0.3391
  463MOL0     C63813   9.778   6.201   0.133 -0.4360 -0.8944  0.5982
  463MOL0     C63814   9.755   6.064   0.108  0.0244  0.4842  0.1363
  463MOL0     O63815   9.648   6.013   0.037 -0.4086  0.3420 -0.0445
  463MOL0     C63816   9.547   6.109  -0.007  0.4271  0.1337 -0.0734
  463MOL0     C63817   9.462   6.155   0.116  0.0878  0.4010  1.1526
  463MOL0     C63818   9.315   6.167   0.075 -0.4511 -0.8680 -0.0194
  463MOL0     C63819   9.285   6.307   0.016 -0.1801  0.5551  0.1404
  463MOL0     C63820   9.351   6.344  -0.115 -0.4210 -0.3165  0.0277
  463MOL0     C63821   9.404   6.368  -0.223 -0.5929 -0.0441  0.1544
  463MOL0     C63822   9.856   5.972   0.152  0.8284 -0.5738  0.3763
  463MOL0     C63823   9.974   6.008   0.211 -0.1760 -0.0111  0.5893
  463MOL0     C63824  10.072   5.905   0.246 -0.1038  1.5047 -0.0606
  463MOL0     H63825  10.263   6.428   0.339 -0.0119  0.3037  1.0213
  463MOL0     H63826  10.452   6.535   0.455  1.8547 -0.1005 -1.7028
  463MOL0     H63827  10.762   6.400   0.425  0.8295  0.1781 -0.3415
  463MOL0     H63828  10.789   6.286   0.565 -2.0288  0.1757  1.2154
  463MOL0     H63829  10.846   6.580   0.559  0.2521 -0.3630  1.0454
  463MOL0     H63830  10.863   6.470   0.703 -0.2881 -1.2725  0.6101
  463MOL0     H63831  11.045   6.354   0.592  1.5584 -0.9651 -1.9339
  463MOL0     H63832  11.010   6.428   0.436 -0.6728  1.8413 -0.3394
  463MOL0     H63833  11.073   6.652   0.516  0.3213  0.7774 -1.1686
  463MOL0     H63834  11.095   6.590   0.678  0.4707  1.2787 -0.2923
  463MOL0     H63835  11.273   6.504   0.435 -1.3358 -0.1704  0.3021
  463MOL0     H63836  11.267   6.427   0.590 -1.1455 -1.9570 -2.5140
  463MOL0     H63837  11.324   6.718   0.513  0.7070 -0.2753 -1.6480
  463MOL0     H63838  11.315   6.683   0.679  1.0722 -2.8998  1.0980
  463MOL0     H63839  11.506   6.559   0.464 -2.2248 -1.1291 -0.1193
  463MOL0     H63840  11.495   6.497   0.628 -0.6549 -0.4769 -0.2548
  463MOL0     H63841  11.548   6.757   0.685  0.4950  0.6235 -0.4531
  463MOL0     H63842  11.673   6.637   0.657 -1.2348  0.5639  2.5706
  463MOL0     H63843  11.552   6.969   0.515  0.8544  1.1512 -0.0534
  463MOL0     H63844  11.640   7.126   0.316  0.5307 -0.2950  0.7792
  463MOL0     H63845  11.654   7.017   0.179  0.1833  1.3560 -0.9682
  463MOL0     H63846  11.825   7.207   0.291 -3.4955 -1.6030  5.2270
  463MOL0     H63847  11.900   7.050   0.315 -2.3236  0.3737  2.5401
  463MOL0     H63848  11.820   7.121   0.028 -1.6675 -0.4485  1.0898
  463MOL0     H63849  11.977   7.172   0.109 -0.9159  0.6942  3.4097
  463MOL0     H63850  12.037   6.923   0.139  0.5685  0.6883  1.5648
  463MOL0     H63851  11.871   6.880   0.099  1.5467  0.9965 -0.6595
  463MOL0     H63852  12.074   6.707   0.078  2.1886 -0.4570  0.5215
  463MOL0     H63853  12.274   6.508   0.079 -4.0935  1.4096  2.5038
  463MOL0     H63854  12.213   6.407  -0.060 -2.9823 -1.4521  0.8516
  463MOL0     H63855  12.108   6.478   0.057  0.1041 -3.3974  0.7931
  463MOL0     H63856  12.695   6.588  -0.257 -0.3061 -1.6568  1.8270
  463MOL0     H63857  12.875   6.410  -0.357 -0.4005  0.6232  0.1040
  463MOL0     H63858  12.740   6.210  -0.732  0.2060 -1.0285 -0.4074
  463MOL0     H63859  12.821   6.365  -0.731  0.5119  1.0104  2.7743
  463MOL0     H63860  13.046   6.235  -0.702 -0.4886 -1.2373 -0.1452
  463MOL0     H63861  12.963   6.093  -0.682  1.5160  1.4609  2.5644
  463MOL0     H63862  12.946   6.249  -0.953  1.7640 -0.3491 -0.7380
  463MOL0     H63863  12.884   6.090  -0.906 -0.7912  0.3505  0.3350
  463MOL0     H63864  13.096   5.989  -0.896  1.6684 -1.6993 -3.0933
  463MOL0     H63865  13.177   6.141  -0.867  0.4944 -4.6568  4.6032
  463MOL0     H63866  13.067   6.045  -1.140 -1.2602  1.4726  1.8861
  463MOL0     H63867  13.135   6.208  -1.113 -4.9686 -0.2693 -3.9743
  463MOL0     H63868  13.288   5.942  -1.040  1.3499  1.4993  2.6831
  463MOL0     H63869  13.351   6.100  -1.031  5.1093 -1.7915 -3.7584
  463MOL0     H63870  13.307   6.144  -1.274  0.0779 -0.0921 -2.0116
  463MOL0     H63871  13.224   5.988  -1.286  0.2753 -1.9096  1.5186
  463MOL0     H63872  13.458   5.871  -1.222  2.5560 -0.1302 -0.4413
  463MOL0     H63873  13.524   6.034  -1.252  0.5416 -0.4547 -0.0397
  463MOL0     H63874  12.571   6.243  -0.593 -1.9807  1.1861 -0.6490
  463MOL0     H63875  12.403   6.391  -0.486 -0.1742  1.2129  0.3785
  463MOL0     H63876  12.270   6.796  -0.362  0.2059  1.2750 -0.1410
  463MOL0     H63877  12.099   6.932  -0.293  0.1778 -0.0558  0.7525
  463MOL0     H63878  10.589   6.148   0.587 -0.8831 -2.4330 -0.0669
  463MOL0     H63879  10.411   6.043   0.472 -1.3288 -0.2696  1.4763
  463MOL0     H63880   9.915   6.339   0.225  1.5854  0.6111 -2.7565
  463MOL0     H63881   9.727   6.287   0.089  1.5007 -0.6747 -1.4032
  463MOL0     H63882   9.588   6.198  -0.056 -1.4363  1.8000  1.1760
  463MOL0     H63883   9.486   6.052  -0.077  0.8381 -1.8868  1.1471
  463MOL0     H63884   9.499   6.253   0.145 -1.2176  1.3707 -0.2898
  463MOL0     H63885   9.468   6.082   0.198  2.5327 -1.5873 -0.6300
  463MOL0     H63886   9.284   6.094  -0.000  0.0434 -0.7821 -0.3042
  463MOL0     H63887   9.246   6.171   0.161 -0.7817  0.7318 -0.3355
  463MOL0     H63888   9.297   6.382   0.094 -0.3407  2.7923 -1.8820
  463MOL0     H63889   9.177   6.309   0.001 -0.2674  1.7705  0.8294
  463MOL0     H63890   9.440   6.383  -0.322  3.9667 -1.5977  1.3096
  463MOL0     H63891   9.841   5.869   0.122  1.5222 -0.6345  0.2356
  463MOL0     H63892  10.148   5.896   0.168  0.8205 -0.8491  1.0114
  463MOL0     H63893  10.119   5.933   0.341  0.6846 -1.6584  0.6023
  463MOL0     H63894  10.024   5.808   0.263 -1.2549  1.8337 -1.2584
  464MOL0     O63895   7.333   1.827   2.744  0.4661  0.2851  0.1620
  464MOL0     C63896   7.247   1.893   2.680  0.8405  0.1875  0.3936
  464MOL0     O63897   7.280   2.007   2.609  0.1579 -0.3491  0.6473
  464MOL0     C63898   7.393   2.073   2.651 -0.3349 -0.2166  0.2170
  464MOL0     C63899   7.507   2.063   2.572 -0.0375  0.1249  1.3789
  464MOL0     C63900   7.630   2.105   2.622 -0.4175 -0.2198  0.2558
  464MOL0     C63901   7.630   2.189   2.735  0.3537  0.9848  0.1298
  464MOL0     O63902   7.734   2.245   2.796 -0.0907 -0.2962 -0.1804
  464MOL0     C63903   7.832   2.150   2.828  0.7863 -0.0769  0.5030
  464MOL0     C63904   7.932   2.202   2.933 -0.5326 -0.0178 -0.3154
  464MOL0     C63905   8.029   2.308   2.872  0.0316  0.9270  0.4241
  464MOL0     C63906   8.112   2.264   2.751 -1.0037 -0.0109  0.4650
  464MOL0     C63907   8.207   2.373   2.709 -0.1326  0.3447 -0.1176
  464MOL0     C63908   8.145   2.494   2.651 -0.1728  0.0138  0.3407
  464MOL0     C63909   8.247   2.593   2.597 -0.3771  0.3936 -0.0002
  464MOL0     C63910   8.198   2.632   2.458 -0.3683 -0.6970  0.9283
  464MOL0     N63911   8.294   2.723   2.384 -0.6089  0.1267 -0.4428
  464MOL0     C63912   8.374   2.693   2.272  0.5291  0.4020  1.3459
  464MOL0     C63913   8.424   2.809   2.238 -0.4302 -0.6271 -0.7725
  464MOL0     C63914   8.524   2.830   2.131  0.3839  0.1359 -0.2807
  464MOL0     C63915   8.466   2.760   2.006  0.1493 -1.2452 -0.7005
  464MOL0     C63916   8.583   2.746   1.896  0.2695  0.4924  0.2351
  464MOL0     C63917   8.675   2.623   1.934 -0.2440  0.5088  1.0492
  464MOL0     O63918   8.781   2.679   2.011  0.3880  0.6698  0.5467
  464MOL0     C63919   8.885   2.600   2.045  1.0209  0.5602 -0.1034
  464MOL0     C63920   8.865   2.464   2.079  0.3784  0.0408  0.6700
  464MOL0     C63921   8.966   2.371   2.110  0.2781  0.3039 -0.1251
  464MOL0     C63922   8.916   2.244   2.160 -0.3074  0.0576 -0.0249
  464MOL0     C63923   9.098   2.408   2.105 -0.7855  0.8674 -0.0373
  464MOL0     C63924   9.214   2.318   2.120  0.1094 -1.1184 -1.0303
  464MOL0     O63925   9.336   2.383   2.134 -0.0525  0.4861 -0.3055
  464MOL0     C63926   9.445   2.316   2.133  0.3089  0.0029  0.2800
  464MOL0     C63927   9.554   2.342   2.055  0.8656  0.0080 -0.0283
  464MOL0     C63928   9.671   2.264   2.059  0.9661 -0.8144 -0.5187
  464MOL0     C63929   9.686   2.183   2.171 -0.3230  0.1938 -0.9735
  464MOL0     O63930   9.794   2.110   2.207  0.5152  0.7152  0.2546
  464MOL0     C63931   9.896   2.099   2.113  0.9494  0.0489 -0.7588
  464MOL0     C63932  10.000   1.999   2.162  0.5779  0.2673  0.0376
  464MOL0     C63933  10.137   1.992   2.099  0.2055  0.4308  0.4076
  464MOL0     C63934  10.228   1.901   2.172 -0.4764 -0.5674 -0.2804
  464MOL0     C63935  10.373   1.912   2.116 -0.4367  0.4264  0.6542
  464MOL0     C63936  10.462   1.808   2.185  0.4987  0.2954  0.6480
  464MOL0     C63937  10.604   1.848   2.177 -0.1075 -0.2226  0.4400
  464MOL0     C63938  10.692   1.724   2.179  0.9125  0.2844 -0.4260
  464MOL0    Cl63939  10.697   1.665   2.348 -0.0779  0.0433  0.1042
  464MOL0     C63940   9.583   2.173   2.266  0.3689 -0.6709 -0.7319
  464MOL0     C63941   9.465   2.240   2.248  0.7474  0.1682 -0.2251
  464MOL0     O63942   9.201   2.195   2.124 -0.4096  0.3835 -1.0288
  464MOL0     C63943   9.120   2.556   2.094  0.2363 -0.1569  0.3950
  464MOL0     C63944   9.011   2.642   2.059  0.0520 -0.5486  0.6486
  464MOL0     N63945   8.384   2.913   2.326 -0.0815  0.4414  0.9653
  464MOL0     N63946   8.316   2.855   2.420 -0.9412 -0.5292  0.8885
  464MOL0     C63947   7.509   2.211   2.800  1.0938 -0.1610  0.6703
  464MOL0     C63948   7.393   2.162   2.749  0.5605 -0.3773 -0.1835
  464MOL0     C63949   7.103   1.842   2.650 -0.0892  0.4291 -0.4104
  464MOL0     C63950   7.061   1.730   2.720  0.1622  0.4833  0.3642
  464MOL0     C63951   6.925   1.676   2.721 -0.5201 -1.2233  0.2774
  464MOL0     C63952   6.836   1.735   2.635 -0.8314 -0.4897 -0.2567
  464MOL0     O63953   6.706   1.692   2.648  0.5041  0.5021  0.3296
  464MOL0     C63954   6.595   1.749   2.581 -0.5178 -0.1661  0.6525
  464MOL0     C63955   6.485   1.635   2.566 -0.3662  0.3775 -0.6167
  464MOL0     C63956   6.527   1.531   2.460 -1.1633 -1.1857 -0.0685
  464MOL0     C63957   6.440   1.412   2.442 -0.0973  0.9595  0.6924
  464MOL0     C63958   6.489   1.330   2.333  0.3221  0.1324 -0.5844
  464MOL0     C63959   6.518   1.257   2.244  0.0886  0.4052  0.7019
  464MOL0     C63960   6.879   1.840   2.553 -0.0739  0.4557 -0.6088
  464MOL0     C63961   7.009   1.894   2.557 -0.2541  0.8009 -0.6336
  464MOL0     C63962   7.037   2.000   2.462 -0.4965 -1.4088  0.8266
  464MOL0     H63963   7.506   2.006   2.480 -0.4187 -0.9357  2.0188
  464MOL0     H63964   7.724   2.078   2.574 -2.1061  1.0159 -4.3295
  464MOL0     H63965   7.892   2.116   2.743  1.5517 -0.1698  1.0713
  464MOL0     H63966   7.782   2.065   2.876  1.0206  0.1304  1.1284
  464MOL0     H63967   7.873   2.246   3.013  1.5534  0.6272  0.9468
  464MOL0     H63968   7.994   2.119   2.969 -0.9979 -0.6905 -1.0256
  464MOL0     H63969   7.962   2.390   2.843  1.0170  2.1837  1.5753
  464MOL0     H63970   8.098   2.342   2.950  1.6946  1.1132 -1.0878
  464MOL0     H63971   8.178   2.179   2.772 -0.3316  0.1017 -1.0604
  464MOL0     H63972   8.053   2.228   2.666 -1.2075 -2.2610  1.4862
  464MOL0     H63973   8.270   2.329   2.630  0.7414  0.9953  0.2077
  464MOL0     H63974   8.278   2.402   2.787  1.6732 -1.4699 -0.9797
  464MOL0     H63975   8.073   2.465   2.574 -0.1615  0.3187  0.2157
  464MOL0     H63976   8.081   2.539   2.728  0.9685  1.2167  0.6289
  464MOL0     H63977   8.346   2.547   2.596 -0.3686  0.4166 -1.6698
  464MOL0     H63978   8.239   2.682   2.660 -2.4859  0.0533  0.3175
  464MOL0     H63979   8.202   2.537   2.404  0.9373  0.8721 -1.9437
  464MOL0     H63980   8.097   2.672   2.446 -0.5204 -1.0823  0.8903
  464MOL0     H63981   8.376   2.602   2.214  0.8754  0.7460  0.8194
  464MOL0     H63982   8.624   2.793   2.158  0.1882  0.2392  0.6097
  464MOL0     H63983   8.537   2.938   2.120  3.4064 -0.0697  0.3637
  464MOL0     H63984   8.427   2.658   2.008  0.8512 -1.5510 -1.9819
  464MOL0     H63985   8.387   2.827   1.972 -1.1153 -2.5417 -0.4391
  464MOL0     H63986   8.552   2.742   1.791  0.9950 -2.1017  0.0452
  464MOL0     H63987   8.644   2.837   1.894 -0.9650  1.4468  2.5230
  464MOL0     H63988   8.618   2.537   1.971 -0.4750 -0.4426 -1.3290
  464MOL0     H63989   8.725   2.594   1.842 -2.2687 -2.0706  0.6287
  464MOL0     H63990   8.764   2.423   2.074  0.0066  0.9451  0.3672
  464MOL0     H63991   8.934   2.162   2.091 -2.9690  2.2199 -3.6571
  464MOL0     H63992   8.807   2.249   2.174 -0.6166 -0.3359 -2.0578
  464MOL0     H63993   8.957   2.208   2.255  0.2517 -0.9775 -0.6469
  464MOL0     H63994   9.544   2.420   1.980 -4.1607  0.9544  1.2320
  464MOL0     H63995   9.755   2.283   1.993  1.5948 -0.4635  0.3585
  464MOL0     H63996   9.847   2.067   2.020  0.7409  2.8591 -1.6968
  464MOL0     H63997   9.947   2.195   2.108  1.4835 -0.1912 -0.0079
  464MOL0     H63998  10.016   2.018   2.268 -0.4898  0.6479  0.1494
  464MOL0     H63999   9.962   1.896   2.169 -0.2453 -0.0380 -5.1234
  464MOL0     H64000  10.184   2.091   2.102  2.8436 -0.7267  0.0242
  464MOL0     H64001  10.118   1.972   1.993  0.5097 -1.2740  0.6460
  464MOL0     H64002  10.203   1.795   2.175  1.7098 -1.1362 -0.5324
  464MOL0     H64003  10.234   1.942   2.273 -0.3821  1.6772 -1.1246
  464MOL0     H64004  10.365   1.885   2.010  0.9570  2.7670 -0.1181
  464MOL0     H64005  10.415   2.012   2.129  0.3339  0.9202 -3.9947
  464MOL0     H64006  10.437   1.711   2.139 -1.8179 -0.1782  2.7255
  464MOL0     H64007  10.429   1.785   2.286 -1.5417  4.4812  1.1118
  464MOL0     H64008  10.636   1.916   2.256 -2.2148  3.0608 -1.3402
  464MOL0     H64009  10.618   1.910   2.089 -0.3220 -0.4848  0.2184
  464MOL0     H64010  10.793   1.743   2.140  1.9537 -0.0836  1.8760
  464MOL0     H64011  10.649   1.644   2.119 -0.5110 -1.9447  3.2394
  464MOL0     H64012   9.584   2.123   2.363 -2.2621 -0.2061 -0.3672
  464MOL0     H64013   9.381   2.247   2.317  0.9052 -2.2442  0.2977
  464MOL0     H64014   9.222   2.593   2.099  0.4462 -0.4250 -1.2333
  464MOL0     H64015   9.037   2.748   2.053 -1.3823 -0.1215  1.5365
  464MOL0     H64016   7.514   2.274   2.888  1.4857 -0.1424  0.6340
  464MOL0     H64017   7.302   2.174   2.808  1.7767 -1.1642  1.9308
  464MOL0     H64018   7.138   1.684   2.783 -1.2920 -0.8528  1.2448
  464MOL0     H64019   6.896   1.592   2.784  1.8546 -1.0125  1.7863
  464MOL0     H64020   6.547   1.838   2.622 -3.1801 -0.5989 -1.2359
  464MOL0     H64021   6.619   1.784   2.480  0.0314 -1.5592  0.2603
  464MOL0     H64022   6.391   1.684   2.538  0.6780  1.4835 -2.3027
  464MOL0     H64023   6.468   1.579   2.659  1.0570 -0.4258 -0.8152
  464MOL0     H64024   6.548   1.572   2.361  1.7375  0.6179  1.1559
  464MOL0     H64025   6.621   1.499   2.506 -0.1101  0.5713 -0.9035
  464MOL0     H64026   6.334   1.432   2.420  0.1114  1.0735 -0.2566
  464MOL0     H64027   6.433   1.354   2.535 -1.7340 -2.8588 -1.5754
  464MOL0     H64028   6.541   1.181   2.172 -2.1241 -0.2583  0.6183
  464MOL0     H64029   6.797   1.890   2.502 -0.3131 -0.4322 -1.1047
  464MOL0     H64030   7.097   1.965   2.377 -4.2057 -0.5004 -2.4426
  464MOL0     H64031   6.945   2.046   2.426 -0.2758 -2.0451 -0.5904
  464MOL0     H64032   7.089   2.088   2.503  0.8225 -2.1018  0.7075
  465MOL0     O64033   1.771   0.476   7.440  0.0080 -0.1819 -0.2865
  465MOL0     C64034   1.768   0.430   7.321  0.0661  0.4117  0.4462
  465MOL0     O64035   1.724   0.506   7.214  0.7292 -0.6003 -0.1692
  465MOL0     C64036   1.666   0.633   7.237 -0.5471 -0.2436 -0.0740
  465MOL0     C64037   1.654   0.713   7.352  1.1125 -0.2369 -0.4914
  465MOL0     C64038   1.593   0.839   7.347 -0.1393  0.2240  0.1736
  465MOL0     C64039   1.560   0.901   7.230 -0.4054 -0.2990  0.4059
  465MOL0     O64040   1.513   1.034   7.218 -0.3868  0.3854 -1.1067
  465MOL0     C64041   1.494   1.103   7.344 -0.2193 -0.0969  0.5119
  465MOL0     C64042   1.442   1.245   7.320 -0.7149  0.2639  0.2805
  465MOL0     C64043   1.549   1.347   7.283  0.7010 -0.3284  0.6727
  465MOL0     C64044   1.616   1.312   7.154  0.3151 -0.4195  0.1459
  465MOL0     C64045   1.720   1.410   7.113 -0.6354  0.8071  0.5536
  465MOL0     C64046   1.815   1.350   7.008  0.1798  1.0503  0.3034
  465MOL0     C64047   1.950   1.430   6.987 -0.3081  0.3042 -0.4386
  465MOL0     C64048   1.919   1.568   6.929 -0.5527 -0.0578  0.1222
  465MOL0     N64049   2.047   1.642   6.906  0.7011 -0.4092 -0.3821
  465MOL0     C64050   2.124   1.621   6.790  0.7044  0.2528 -0.6716
  465MOL0     C64051   2.216   1.725   6.795  0.2211  0.5058 -0.3772
  465MOL0     C64052   2.327   1.749   6.691  0.7205  0.6469 -0.3005
  465MOL0     C64053   2.450   1.664   6.733 -0.2353  0.1603  0.5149
  465MOL0     C64054   2.516   1.709   6.862  0.6642  1.2590  0.0943
  465MOL0     C64055   2.666   1.738   6.856 -0.1389 -0.1371  0.2423
  465MOL0     O64056   2.727   1.701   6.977 -0.3834  0.7090 -0.1583
  465MOL0     C64057   2.865   1.712   6.984  0.3913 -0.2641 -0.2544
  465MOL0     C64058   2.921   1.674   7.104  0.2676 -0.5741  0.8491
  465MOL0     C64059   3.056   1.689   7.125 -0.5863  0.3673  0.4740
  465MOL0     C64060   3.107   1.690   7.273 -0.0447  0.6362  0.4314
  465MOL0     C64061   3.148   1.716   7.019  0.4164 -0.4654  0.2642
  465MOL0     C64062   3.294   1.730   7.030 -1.1293  0.1358  0.3054
  465MOL0     O64063   3.355   1.709   6.901 -0.0032  0.1868 -0.5183
  465MOL0     C64064   3.490   1.691   6.887  1.2637  0.4735 -0.7996
  465MOL0     C64065   3.555   1.750   6.780 -0.6297 -0.5402  0.1050
  465MOL0     C64066   3.694   1.738   6.758  0.5015  0.0150 -0.3933
  465MOL0     C64067   3.774   1.663   6.853 -0.4314  0.0001 -0.3189
  465MOL0     O64068   3.912   1.649   6.849 -0.3277  0.6853 -0.5990
  465MOL0     C64069   3.981   1.703   6.744 -0.3596 -0.4813  0.0928
  465MOL0     C64070   3.973   1.603   6.628 -0.3527  0.7690 -0.1221
  465MOL0     C64071   4.079   1.636   6.522 -0.0749  0.6159 -0.0833
  465MOL0     C64072   4.086   1.526   6.419 -0.5460  0.1479  0.7336
  465MOL0     C64073   4.188   1.551   6.319  0.3819 -0.6471 -0.5955
  465MOL0     C64074   4.122   1.615   6.198  0.0224 -0.3112 -0.8930
  465MOL0     C64075   4.220   1.663   6.096 -0.8543 -1.0145 -0.3484
  465MOL0     C64076   4.341   1.575   6.052 -0.2085 -0.5751  0.2772
  465MOL0    Cl64077   4.264   1.431   5.978 -0.2391 -0.4692  0.1615
  465MOL0     C64078   3.699   1.599   6.958  0.4789  0.1940 -0.2956
  465MOL0     C64079   3.565   1.619   6.980 -0.6068  0.4367 -1.2014
  465MOL0     O64080   3.353   1.733   7.143 -0.2723 -0.7996 -0.0675
  465MOL0     C64081   3.087   1.746   6.891 -0.5111  0.5122  0.2255
  465MOL0     C64082   2.949   1.746   6.876  0.0289 -0.1233  0.0471
  465MOL0     N64083   2.175   1.815   6.887 -0.8254  0.8907 -0.4629
  465MOL0     N64084   2.070   1.771   6.951  0.2445  0.1499  0.3163
  465MOL0     C64085   1.578   0.826   7.115  0.3680  0.2088 -0.2546
  465MOL0     C64086   1.629   0.697   7.118 -0.6688 -0.4101 -0.8149
  465MOL0     C64087   1.787   0.285   7.287 -0.0287 -0.0579 -0.5106
  465MOL0     C64088   1.715   0.227   7.175 -0.2094 -0.5155  0.1315
  465MOL0     C64089   1.721   0.090   7.147 -0.4340  0.4712 -0.4566
  465MOL0     C64090   1.796   0.004   7.233 -0.4304 -0.2769  0.0562
  465MOL0     O64091   1.819  -0.127   7.192  0.1108 -0.2756 -0.3856
  465MOL0     C64092   1.946  -0.189   7.228 -0.8175 -0.8488 -0.5944
  465MOL0     C64093   2.008  -0.258   7.109  0.6303  0.8303 -0.9379
  465MOL0     C64094   2.149  -0.306   7.146  0.1148  0.2327  0.0934
  465MOL0     C64095   2.209  -0.381   7.028 -0.2741 -0.7707 -0.1769
  465MOL0     C64096   2.290  -0.289   6.941  0.6159 -0.6503 -0.3502
  465MOL0     C64097   2.349  -0.204   6.881  0.4239  0.0474 -0.1308
  465MOL0     C64098   1.841   0.059   7.348 -0.3736 -0.3548 -0.5668
  465MOL0     C64099   1.842   0.194   7.381 -0.0122 -0.5584  0.5966
  465MOL0     C64100   1.908   0.232   7.506  0.9438  0.0201 -0.3050
  465MOL0     H64101   1.681   0.675   7.450 -1.3646 -1.3007 -0.1446
  465MOL0     H64102   1.600   0.898   7.438  2.3173 -0.7981  0.7162
  465MOL0     H64103   1.588   1.103   7.400 -0.3955 -1.8686  0.8742
  465MOL0     H64104   1.418   1.059   7.410 -0.1878 -0.2007  0.4787
  465MOL0     H64105   1.363   1.244   7.244  0.5943 -1.1148 -1.1173
  465MOL0     H64106   1.396   1.280   7.413  0.1480 -1.7907  1.5401
  465MOL0     H64107   1.500   1.444   7.268 -0.2455 -0.8801  0.0942
  465MOL0     H64108   1.605   1.363   7.375 -0.4955 -0.5296  1.4565
  465MOL0     H64109   1.664   1.214   7.166  2.0536  0.4807  0.8667
  465MOL0     H64110   1.543   1.293   7.075  1.8064 -2.0550 -0.9146
  465MOL0     H64111   1.796   1.438   7.187  0.3319  0.3190 -0.2238
  465MOL0     H64112   1.665   1.491   7.066  0.6097 -0.4969 -3.5066
  465MOL0     H64113   1.843   1.251   7.046 -2.0629  0.8633  1.6882
  465MOL0     H64114   1.759   1.349   6.914 -1.9366 -0.7947  1.4674
  465MOL0     H64115   2.022   1.377   6.925  1.5257  2.6299 -0.4017
  465MOL0     H64116   1.988   1.446   7.089 -1.1259 -1.1708  0.1416
  465MOL0     H64117   1.864   1.570   6.834 -0.4278  3.1037 -0.0025
  465MOL0     H64118   1.853   1.621   6.999  1.2767 -1.5887  3.2270
  465MOL0     H64119   2.119   1.534   6.725 -1.3309 -0.7520  0.7200
  465MOL0     H64120   2.357   1.854   6.692  1.6856  0.3889  0.3038
  465MOL0     H64121   2.285   1.726   6.593 -0.7164 -1.1373  0.6727
  465MOL0     H64122   2.400   1.568   6.747 -2.6028  1.2910  0.2873
  465MOL0     H64123   2.524   1.662   6.652 -1.1295 -5.5080 -0.5650
  465MOL0     H64124   2.459   1.782   6.920  1.2099  1.0655  0.8954
  465MOL0     H64125   2.500   1.622   6.926 -1.0148  0.9741 -0.6639
  465MOL0     H64126   2.722   1.699   6.771  1.0521  1.3429  0.3149
  465MOL0     H64127   2.685   1.845   6.853  0.2337 -0.1468  1.6568
  465MOL0     H64128   2.857   1.644   7.186 -0.7031  0.2923  0.4235
  465MOL0     H64129   3.179   1.608   7.286  1.0727  1.6122  0.5767
  465MOL0     H64130   3.031   1.662   7.346 -0.5679  0.2106 -0.2590
  465MOL0     H64131   3.155   1.786   7.293  0.3108  0.5949 -0.1802
  465MOL0     H64132   3.501   1.805   6.703  0.8410  0.5362 -0.1992
  465MOL0     H64133   3.740   1.775   6.667  1.3130 -3.2918 -1.4765
  465MOL0     H64134   3.940   1.801   6.719 -3.3948 -2.1366 -2.0487
  465MOL0     H64135   4.083   1.718   6.780 -1.0742  0.4560  1.8774
  465MOL0     H64136   3.993   1.498   6.655 -2.8434 -0.1318 -1.4301
  465MOL0     H64137   3.877   1.595   6.578  0.2004 -1.0172 -0.9801
  465MOL0     H64138   4.175   1.650   6.572 -0.3893  0.1369  0.6862
  465MOL0     H64139   4.058   1.734   6.479 -1.6097  0.0073 -0.8128
  465MOL0     H64140   3.985   1.517   6.379 -0.8447 -2.4699  1.8797
  465MOL0     H64141   4.091   1.428   6.467 -3.6363  0.2466  1.4277
  465MOL0     H64142   4.255   1.624   6.366 -1.5693  2.0710 -1.7784
  465MOL0     H64143   4.246   1.460   6.300  2.3064  0.0967  1.2457
  465MOL0     H64144   4.053   1.694   6.228  0.5675 -0.1868  0.0495
  465MOL0     H64145   4.062   1.538   6.148 -0.3375 -1.3311  1.0238
  465MOL0     H64146   4.266   1.753   6.135 -2.1130  0.2064 -1.5569
  465MOL0     H64147   4.172   1.689   6.001 -0.2865 -1.1648 -0.6794
  465MOL0     H64148   4.384   1.543   6.148  0.2927 -1.6817 -0.2942
  465MOL0     H64149   4.421   1.619   5.993 -2.7666  1.7415 -1.7210
  465MOL0     H64150   3.742   1.534   7.034  1.6956 -0.5830 -1.6004
  465MOL0     H64151   3.513   1.558   7.054  0.3794 -0.7553 -1.4680
  465MOL0     H64152   3.144   1.768   6.801 -4.1638  0.0538 -2.4246
  465MOL0     H64153   2.913   1.776   6.778  0.1863  1.0757  0.3381
  465MOL0     H64154   1.542   0.874   7.025  0.6008 -0.4219 -0.6850
  465MOL0     H64155   1.636   0.642   7.025  1.2272 -0.8858 -0.4212
  465MOL0     H64156   1.646   0.287   7.116 -1.6396 -0.1110  2.1195
  465MOL0     H64157   1.664   0.052   7.063  1.3610  0.9500 -1.9502
  465MOL0     H64158   2.015  -0.114   7.268 -2.1947 -0.4145  1.1267
  465MOL0     H64159   1.915  -0.264   7.302 -3.1215 -1.0148 -1.6383
  465MOL0     H64160   2.021  -0.182   7.032 -1.4682  0.3937 -1.7725
  465MOL0     H64161   1.938  -0.338   7.081 -0.6661  1.5421  0.1521
  465MOL0     H64162   2.202  -0.219   7.186  1.4547 -1.2784  1.7630
  465MOL0     H64163   2.137  -0.373   7.232 -3.0213  2.0825  1.2957
  465MOL0     H64164   2.129  -0.425   6.967 -0.2125  1.2489 -1.8418
  465MOL0     H64165   2.266  -0.464   7.070 -0.7365 -0.0363  1.9996
  465MOL0     H64166   2.414  -0.132   6.836 -0.7247  1.2122  0.0167
  465MOL0     H64167   1.870  -0.017   7.419 -0.5025  0.0581 -0.0632
  465MOL0     H64168   1.971   0.321   7.502  2.7205 -1.2176 -1.3133
  465MOL0     H64169   1.829   0.244   7.581 -0.1196 -0.9222 -1.2434
  465MOL0     H64170   1.971   0.148   7.539 -1.4857 -2.0036 -0.5549
  466MOL0     O64171   4.510   9.845  10.326 -0.8970  0.2965  0.0252
  466MOL0     C64172   4.457   9.863  10.221  0.1758  0.4765  0.2784
  466MOL0     O64173   4.513   9.875  10.101  0.8231  0.1348  0.0804
  466MOL0     C64174   4.641   9.913  10.112  0.1498 -0.2132 -0.0987
  466MOL0     C64175   4.753   9.828  10.102 -0.8058  0.2844 -0.8156
  466MOL0     C64176   4.882   9.875  10.112 -0.1206 -0.1756 -0.1622
  466MOL0     C64177   4.905  10.011  10.135  0.6291  0.3507 -0.2058
  466MOL0     O64178   5.037  10.040  10.162  0.1270 -0.1974 -0.2845
  466MOL0     C64179   5.075  10.176  10.152 -0.0256 -0.3339  0.0805
  466MOL0     C64180   5.226  10.183  10.182 -0.1744  0.2016 -0.0521
  466MOL0     C64181   5.295  10.323  10.146 -0.8507  0.2987 -0.3988
  466MOL0     C64182   5.434  10.336  10.216  0.5495 -0.1802 -0.3427
  466MOL0     C64183   5.506  10.469  10.180 -0.3537  0.5961 -1.0724
  466MOL0     C64184   5.645  10.482  10.246 -0.6108 -0.1903  0.5271
  466MOL0     C64185   5.735  10.584  10.167  0.3823  0.0911  0.7123
  466MOL0     C64186   5.666  10.721  10.126  0.3154  0.5256 -1.0493
  466MOL0     N64187   5.765  10.812  10.080  0.2890 -0.2388 -0.4052
  466MOL0     C64188   5.752  10.875   9.958  0.1217  0.1930 -0.8800
  466MOL0     C64189   5.869  10.949   9.940  1.5284  0.8215  0.7985
  466MOL0     C64190   5.896  11.053   9.830 -0.5100  0.7638 -1.1344
  466MOL0     C64191   5.891  11.194   9.893  0.0432  0.2033  0.4377
  466MOL0     C64192   5.751  11.217   9.961 -0.6453  0.1689  0.8935
  466MOL0     C64193   5.738  11.366   9.998  0.5279 -0.1139 -0.2119
  466MOL0     O64194   5.603  11.406  10.038  0.0959  0.3188  0.3577
  466MOL0     C64195   5.502  11.398   9.946 -0.5301 -0.5673  0.5095
  466MOL0     C64196   5.373  11.378   9.997  0.2190  0.2180  0.0448
  466MOL0     C64197   5.263  11.367   9.912 -0.3635  0.6624  0.2343
  466MOL0     C64198   5.128  11.350   9.977 -0.5415 -0.2345 -0.5455
  466MOL0     C64199   5.282  11.374   9.773  0.2639  0.0515  0.0578
  466MOL0     C64200   5.176  11.328   9.675  0.4060  0.2477 -0.0236
  466MOL0     O64201   5.179  11.366   9.542 -0.1149 -0.2273 -0.1120
  466MOL0     C64202   5.065  11.356   9.469 -0.0071 -0.6065 -0.4961
  466MOL0     C64203   5.071  11.280   9.354 -0.8467 -0.4148  0.0743
  466MOL0     C64204   4.959  11.271   9.265 -0.5652  0.0172  0.0845
  466MOL0     C64205   4.841  11.351   9.293  0.6004 -0.0701  0.2625
  466MOL0     O64206   4.723  11.338   9.219  0.6747  0.2128 -0.1004
  466MOL0     C64207   4.728  11.261   9.105  0.4476  0.5375  0.3091
  466MOL0     C64208   4.602  11.265   9.027  1.8416 -0.1719  0.7257
  466MOL0     C64209   4.477  11.231   9.097  1.0479  1.0032 -0.1000
  466MOL0     C64210   4.429  11.315   9.217 -0.4156  0.1373 -0.9407
  466MOL0     C64211   4.285  11.282   9.264 -0.7397  0.7883  0.2008
  466MOL0     C64212   4.248  11.352   9.402  0.0610  0.4795 -0.3042
  466MOL0     C64213   4.091  11.353   9.422 -0.7960  0.2161  0.1243
  466MOL0     C64214   4.048  11.442   9.536  0.0455  0.2477  0.3277
  466MOL0    Cl64215   4.176  11.462   9.666 -0.0608 -0.2975 -0.2436
  466MOL0     C64216   4.836  11.432   9.406  0.7752  0.1762  0.2752
  466MOL0     C64217   4.950  11.428   9.497 -0.2930 -0.6500 -0.8367
  466MOL0     O64218   5.080  11.250   9.712  0.6747 -0.1244 -0.8428
  466MOL0     C64219   5.405  11.401   9.723 -0.0184  0.1591  0.2408
  466MOL0     C64220   5.514  11.409   9.807  0.7345  0.1988  0.0278
  466MOL0     N64221   5.945  10.930  10.054 -0.0632 -0.3540  0.7975
  466MOL0     N64222   5.879  10.858  10.135 -0.5385 -0.2811 -0.4232
  466MOL0     C64223   4.794  10.094  10.144 -0.3920 -0.6155  0.2131
  466MOL0     C64224   4.664  10.052  10.125  0.5019 -0.0366  0.3412
  466MOL0     C64225   4.313   9.886  10.221 -0.8845 -0.7741 -0.0043
  466MOL0     C64226   4.257   9.975  10.315  0.1365  0.4504  0.2677
  466MOL0     C64227   4.119  10.004  10.320 -0.3278 -0.2111 -0.4092
  466MOL0     C64228   4.029   9.922  10.247  0.8584 -0.8458 -0.1147
  466MOL0     O64229   3.891   9.931  10.252  0.4304 -0.4157 -0.2957
  466MOL0     C64230   3.842   9.992  10.372 -0.6341  0.1953  0.0777
  466MOL0     C64231   3.697   9.983  10.385  0.3763  0.1753 -0.6731
  466MOL0     C64232   3.628  10.048  10.274  0.5466 -0.7648  0.8329
  466MOL0     C64233   3.480  10.047  10.287 -0.2304  1.0304 -0.6421
  466MOL0     C64234   3.438   9.909  10.272 -0.6216  0.1430  0.2655
  466MOL0     C64235   3.397   9.792  10.263  0.1056 -0.0799  0.6073
  466MOL0     C64236   4.081   9.841  10.151  0.2347  0.6075  0.4027
  466MOL0     C64237   4.222   9.820  10.136  0.4829  0.0373 -0.7537
  466MOL0     C64238   4.269   9.705  10.049 -0.4321 -0.7243 -0.6049
  466MOL0     H64239   4.739   9.723  10.075  0.9059  0.4196 -2.4758
  466MOL0     H64240   4.968   9.808  10.113  0.0947  0.0941 -0.4390
  466MOL0     H64241   5.033  10.228  10.238 -1.7198 -1.4055 -0.0444
  466MOL0     H64242   5.043  10.226  10.060 -2.3729 -0.9225  0.5025
  466MOL0     H64243   5.243  10.171  10.290 -0.4475  2.5599  0.3036
  466MOL0     H64244   5.288  10.117  10.121 -2.5984 -1.8187 -0.4969
  466MOL0     H64245   5.304  10.326  10.037  1.1477 -0.8971 -0.3108
  466MOL0     H64246   5.226  10.403  10.176 -1.2494 -0.2734  0.2583
  466MOL0     H64247   5.417  10.331  10.324  2.4251  1.0143  0.0557
  466MOL0     H64248   5.495  10.252  10.181  1.8919 -1.0904  3.6911
  466MOL0     H64249   5.441  10.550  10.213  2.3470  2.0556  1.0523
  466MOL0     H64250   5.523  10.478  10.073  3.7925  1.0881 -0.5307
  466MOL0     H64251   5.636  10.511  10.351  0.4956  1.5919  0.1853
  466MOL0     H64252   5.702  10.389  10.256 -1.1114 -0.5562  0.0043
  466MOL0     H64253   5.780  10.533  10.081 -1.4775 -2.6527  1.1968
  466MOL0     H64254   5.814  10.614  10.236 -0.0516  1.9337  0.4446
  466MOL0     H64255   5.582  10.706  10.058 -1.7005 -1.4555  1.6171
  466MOL0     H64256   5.629  10.759  10.222  0.3584 -2.6629  0.3766
  466MOL0     H64257   5.675  10.884   9.882  2.0739  1.8268 -2.7934
  466MOL0     H64258   5.822  11.052   9.749 -0.2366 -0.5593 -1.3944
  466MOL0     H64259   5.997  11.034   9.794  0.7325  1.2136  1.7842
  466MOL0     H64260   5.971  11.204   9.967 -0.7223 -1.4308  1.5391
  466MOL0     H64261   5.907  11.268   9.814  1.1968  0.4729  0.9065
  466MOL0     H64262   5.669  11.180   9.899  0.2664 -1.7653  0.7633
  466MOL0     H64263   5.749  11.157  10.053  1.3236  1.3883  1.8081
  466MOL0     H64264   5.801  11.385  10.085 -0.6242 -3.5813  1.5782
  466MOL0     H64265   5.767  11.429   9.913  0.7493 -0.6903 -0.5694
  466MOL0     H64266   5.369  11.368  10.105  1.5234  1.6682  0.2697
  466MOL0     H64267   5.055  11.425   9.944  1.0540  0.3566 -3.0498
  466MOL0     H64268   5.136  11.364  10.086 -1.2020 -0.1556 -0.5003
  466MOL0     H64269   5.085  11.252   9.954  1.1680 -1.0329 -0.4769
  466MOL0     H64270   5.167  11.233   9.333 -0.3863  0.6228 -0.2092
  466MOL0     H64271   4.964  11.201   9.182 -3.8400 -1.6766  1.1437
  466MOL0     H64272   4.799  11.301   9.032 -0.2760 -0.5030 -1.0062
  466MOL0     H64273   4.744  11.157   9.134 -0.7137  0.0381 -0.7477
  466MOL0     H64274   4.593  11.371   8.999 -0.1745  0.2226  2.6085
  466MOL0     H64275   4.596  11.199   8.940 -0.6424  1.2736 -0.3086
  466MOL0     H64276   4.483  11.128   9.133  0.7576  0.8941 -0.3521
  466MOL0     H64277   4.393  11.226   9.026  2.4225  1.6703 -1.8448
  466MOL0     H64278   4.430  11.423   9.197 -0.8740  0.3980  0.3078
  466MOL0     H64279   4.490  11.292   9.305 -4.2830 -1.9547  1.5268
  466MOL0     H64280   4.211  11.312   9.189 -0.8347 -0.8724 -0.4008
  466MOL0     H64281   4.274  11.174   9.279  0.8101  0.2696 -1.9696
  466MOL0     H64282   4.285  11.454   9.390  3.2027 -0.5374 -0.2838
  466MOL0     H64283   4.305  11.320   9.490 -1.3205 -0.2783  0.3609
  466MOL0     H64284   4.056  11.250   9.436  4.6122 -2.1327 -1.2086
  466MOL0     H64285   4.046  11.389   9.329  0.1113  0.4887 -0.2113
  466MOL0     H64286   3.974  11.389   9.596  0.3846 -2.8827 -1.7662
  466MOL0     H64287   4.004  11.531   9.492  3.0432  1.0877 -1.2504
  466MOL0     H64288   4.746  11.487   9.433  1.6710  0.9919  1.7592
  466MOL0     H64289   4.948  11.484   9.590  2.5808 -2.0476  0.1706
  466MOL0     H64290   5.417  11.420   9.617  1.5826 -1.5897  0.0584
  466MOL0     H64291   5.602  11.435   9.749 -0.5058 -2.8014 -3.6046
  466MOL0     H64292   4.813  10.196  10.176  0.3205 -1.2043  1.7983
  466MOL0     H64293   4.578  10.117  10.134  0.8413  0.2803  1.4582
  466MOL0     H64294   4.314  10.039  10.381 -0.3387  0.7388  0.4118
  466MOL0     H64295   4.070  10.078  10.382 -2.7662  0.7827 -3.3113
  466MOL0     H64296   3.885   9.935  10.455 -2.4596 -0.1819  0.8184
  466MOL0     H64297   3.864  10.099  10.375 -3.0612  0.8540 -2.1277
  466MOL0     H64298   3.672  10.030  10.481 -3.0902 -0.4570 -1.1294
  466MOL0     H64299   3.668   9.879  10.398  1.7632 -0.5673 -3.0410
  466MOL0     H64300   3.641  10.156  10.269 -4.6761  0.0966 -3.2996
  466MOL0     H64301   3.666  10.001  10.183  0.3440 -0.6587  0.6947
  466MOL0     H64302   3.434  10.112  10.212  1.0010  1.6386 -0.8976
  466MOL0     H64303   3.451  10.072  10.390  1.2300  1.2777 -0.2548
  466MOL0     H64304   3.363   9.693  10.238 -1.3281  0.4583  0.3134
  466MOL0     H64305   4.011   9.791  10.084  0.4143  3.1223 -1.8230
  466MOL0     H64306   4.342   9.636  10.093 -1.6172 -2.0806 -0.6964
  466MOL0     H64307   4.189   9.648  10.000 -1.3271  0.2529 -0.2987
  466MOL0     H64308   4.340   9.746   9.977  2.2177 -0.9877  1.6871
  467MOL0     O64309  10.405  10.434   4.921  0.0077  0.1625  0.6241
  467MOL0     C64310  10.405  10.409   4.802  0.1089  0.8355  0.6734
  467MOL0     O64311  10.498  10.446   4.719 -0.1556  0.1412  0.2531
  467MOL0     C64312  10.618  10.487   4.765 -0.4381 -0.1249  0.9305
  467MOL0     C64313  10.681  10.567   4.671  0.1663  0.3053 -0.4578
  467MOL0     C64314  10.815  10.613   4.701  0.8847 -0.2312 -0.1954
  467MOL0     C64315  10.881  10.581   4.818 -0.4331 -0.2597  0.7028
  467MOL0     O64316  11.005  10.636   4.838 -0.3970  0.1673  0.4626
  467MOL0     C64317  11.076  10.604   4.956 -0.1815  0.9526  0.6551
  467MOL0     C64318  11.212  10.677   4.974 -0.3204 -0.2267 -0.0681
  467MOL0     C64319  11.295  10.683   4.842  0.3500  0.0824  0.4045
  467MOL0     C64320  11.430  10.747   4.867 -0.0729 -0.0441  1.2861
  467MOL0     C64321  11.528  10.716   4.753  0.0879  0.1190  0.2314
  467MOL0     C64322  11.674  10.748   4.803  0.7763 -0.1126 -0.1222
  467MOL0     C64323  11.732  10.626   4.861  0.4149 -0.9872  0.8712
  467MOL0     C64324  11.869  10.644   4.919 -0.4083 -0.3694 -0.0272
  467MOL0     N64325  11.980  10.575   4.850  0.1790 -0.0421 -0.0969
  467MOL0     C64326  12.016  10.585   4.717  0.0471 -0.9133  0.9017
  467MOL0     C64327  12.111  10.492   4.702 -0.3103 -0.1635  0.4115
  467MOL0     C64328  12.192  10.461   4.575 -0.2255 -0.8519 -0.9366
  467MOL0     C64329  12.163  10.320   4.538  0.2401  0.1692 -0.0574
  467MOL0     C64330  12.242  10.273   4.410 -0.3135 -0.2954 -0.6941
  467MOL0     C64331  12.394  10.289   4.423 -0.2160 -0.1058 -0.0032
  467MOL0     O64332  12.439  10.235   4.549  0.3444 -0.2974 -0.0562
  467MOL0     C64333  12.550  10.163   4.565 -0.2259  0.4318 -0.2908
  467MOL0     C64334  12.573  10.091   4.681  0.2015 -0.1126 -0.0787
  467MOL0     C64335  12.695  10.015   4.705 -0.6112  0.7010  1.4372
  467MOL0     C64336  12.707   9.939   4.831 -0.1397 -0.5928 -0.1662
  467MOL0     C64337  12.802  10.025   4.603  0.5512 -0.5563 -0.6358
  467MOL0     C64338  12.944   9.971   4.613  1.0251 -0.4542 -0.3325
  467MOL0     O64339  13.022   9.990   4.511  0.0439 -0.0661  0.2821
  467MOL0     C64340  13.156  10.018   4.539  0.1755 -0.5302  0.0107
  467MOL0     C64341  13.187  10.153   4.552  0.0720 -0.5939  0.2834
  467MOL0     C64342  13.315  10.188   4.568  0.1195  0.0423  0.8823
  467MOL0     C64343  13.413  10.090   4.599 -0.4116 -0.5786  0.0194
  467MOL0     O64344  13.526  10.129   4.657 -0.1209  0.0466 -0.6428
  467MOL0     C64345  13.645  10.046   4.677  0.1441 -0.3547 -0.0483
  467MOL0     C64346  13.762  10.153   4.685 -0.0360 -0.3618 -0.2590
  467MOL0     C64347  13.887  10.093   4.742  0.2355  0.0340 -0.3084
  467MOL0     C64348  13.993  10.204   4.734 -1.0237 -0.4655 -0.1698
  467MOL0     C64349  14.103  10.166   4.832 -0.3064 -0.3649  0.0464
  467MOL0     C64350  14.233  10.248   4.830 -0.0480 -0.6089  0.4657
  467MOL0     C64351  14.334  10.239   4.722  0.7543 -0.2903 -0.4047
  467MOL0     C64352  14.446  10.334   4.751  0.8647 -0.3292 -0.3252
  467MOL0    Cl64353  14.577  10.342   4.637  0.4130 -0.0939 -0.2074
  467MOL0     C64354  13.381   9.954   4.595  0.2416  0.8244 -0.7067
  467MOL0     C64355  13.250   9.917   4.558 -0.8052  0.5910  0.0771
  467MOL0     O64356  12.978   9.913   4.719  0.7020  0.1371  0.6022
  467MOL0     C64357  12.778  10.103   4.493  0.0987 -1.1550  0.5924
  467MOL0     C64358  12.660  10.166   4.470  0.5738  0.4143  0.2073
  467MOL0     N64359  12.138  10.436   4.822 -0.0132  0.0359 -0.4297
  467MOL0     N64360  12.037  10.466   4.903 -0.2835  0.2417  0.7321
  467MOL0     C64361  10.813  10.499   4.913  0.3998 -0.1170 -0.1271
  467MOL0     C64362  10.688  10.445   4.884 -0.0098  0.2572  0.1774
  467MOL0     C64363  10.291  10.345   4.744 -0.2899 -0.3857  1.0918
  467MOL0     C64364  10.265  10.361   4.604 -0.6986 -0.0704  0.1872
  467MOL0     C64365  10.162  10.290   4.542 -0.5769 -0.5707 -0.3776
  467MOL0     C64366  10.075  10.220   4.615 -0.6356  0.1590  0.4464
  467MOL0     O64367   9.989  10.137   4.545 -0.4358 -0.1732  0.1666
  467MOL0     C64368   9.860  10.211   4.528  0.4139  0.3039 -0.4268
  467MOL0     C64369   9.797  10.173   4.397 -0.6497 -0.0772  0.3455
  467MOL0     C64370   9.654  10.219   4.397 -0.6923 -0.0460 -0.3396
  467MOL0     C64371   9.604  10.230   4.258 -0.4286 -0.1627 -0.1189
  467MOL0     C64372   9.459  10.281   4.265 -0.6521 -0.4976  0.1252
  467MOL0     C64373   9.352  10.340   4.260  1.2325 -0.1391  0.3411
  467MOL0     C64374  10.088  10.209   4.756  0.9002  0.3082  0.2697
  467MOL0     C64375  10.198  10.266   4.820 -0.6325  0.5151  0.0614
  467MOL0     C64376  10.193  10.235   4.967  0.7761  0.5072  0.4732
  467MOL0     H64377  10.646  10.584   4.570  2.0390  1.4784 -0.9539
  467MOL0     H64378  10.864  10.682   4.633  1.3329  0.0812  0.4443
  467MOL0     H64379  11.092  10.496   4.965 -0.4553  0.9296  0.8932
  467MOL0     H64380  11.018  10.634   5.044 -2.4977  2.2918 -1.2296
  467MOL0     H64381  11.199  10.780   5.007 -0.8340 -0.4251  0.3467
  467MOL0     H64382  11.272  10.618   5.043  0.3409  0.6574  0.1275
  467MOL0     H64383  11.310  10.578   4.816  0.3957  0.3310 -0.6267
  467MOL0     H64384  11.243  10.740   4.764  1.6608  1.8154  0.7303
  467MOL0     H64385  11.420  10.856   4.865  0.0744 -0.0239 -1.5890
  467MOL0     H64386  11.462  10.715   4.967 -2.0261 -1.9033  1.3814
  467MOL0     H64387  11.503  10.778   4.667 -3.0478  3.1593  3.0286
  467MOL0     H64388  11.521  10.612   4.717 -2.9727  1.0683 -2.3851
  467MOL0     H64389  11.739  10.771   4.719  1.4086 -0.6306  0.2146
  467MOL0     H64390  11.674  10.831   4.874 -1.4092 -0.1044 -0.0627
  467MOL0     H64391  11.731  10.548   4.785 -2.8618 -0.5619  0.3649
  467MOL0     H64392  11.673  10.585   4.943  0.8837 -2.1317  0.6531
  467MOL0     H64393  11.903  10.748   4.914  1.7069 -0.8210  2.5512
  467MOL0     H64394  11.865  10.605   5.021 -4.0315 -1.9136 -0.6108
  467MOL0     H64395  11.974  10.657   4.647 -0.2174 -1.0988  0.8659
  467MOL0     H64396  12.297  10.491   4.574  0.0795 -1.8022 -3.3377
  467MOL0     H64397  12.150  10.523   4.494  0.1935 -0.3258 -0.7549
  467MOL0     H64398  12.187  10.255   4.623  3.1458  1.3046  0.1133
  467MOL0     H64399  12.057  10.321   4.512  0.0956 -3.9106 -0.2313
  467MOL0     H64400  12.218  10.167   4.396 -1.4864  0.0173 -1.1210
  467MOL0     H64401  12.203  10.315   4.317 -2.3629  0.0738  0.2869
  467MOL0     H64402  12.442  10.241   4.337  2.7645  1.5798  0.6019
  467MOL0     H64403  12.416  10.396   4.424 -1.3973  0.1564 -0.0449
  467MOL0     H64404  12.499  10.093   4.760  0.0012  2.5354 -0.2421
  467MOL0     H64405  12.737   9.835   4.814 -0.2569 -0.5681 -0.5256
  467MOL0     H64406  12.603   9.930   4.866 -1.9305 -0.2315 -4.7276
  467MOL0     H64407  12.765   9.979   4.915 -0.3855 -0.7389  0.0786
  467MOL0     H64408  13.110  10.225   4.527  0.3355 -0.2106  0.5598
  467MOL0     H64409  13.342  10.293   4.565 -0.5019  0.1967 -0.8341
  467MOL0     H64410  13.641  10.008   4.779  0.0103  0.0994  0.1198
  467MOL0     H64411  13.670   9.975   4.598  0.1858  1.5039 -1.7973
  467MOL0     H64412  13.778  10.207   4.591  0.8648 -2.9616 -1.7166
  467MOL0     H64413  13.732  10.224   4.762  0.6406  0.2051 -0.5082
  467MOL0     H64414  13.915  10.004   4.686  2.9472  0.3679  0.3958
  467MOL0     H64415  13.861  10.074   4.847 -3.1114  1.3004 -0.7607
  467MOL0     H64416  13.943  10.296   4.766  0.9287  1.0351 -1.2328
  467MOL0     H64417  14.022  10.229   4.631 -0.9573  0.7846  0.1290
  467MOL0     H64418  14.066  10.179   4.935  1.1878  0.9143  0.4448
  467MOL0     H64419  14.139  10.064   4.813  1.1239 -0.3366  2.2244
  467MOL0     H64420  14.297  10.226   4.917  1.2201 -2.1169 -0.8035
  467MOL0     H64421  14.196  10.351   4.835  1.4841  0.0374 -0.6671
  467MOL0     H64422  14.287  10.268   4.628 -1.2341  1.6116  1.0669
  467MOL0     H64423  14.372  10.137   4.713 -0.5079 -1.0034  1.5558
  467MOL0     H64424  14.492  10.314   4.848  0.5302  0.0270 -0.0915
  467MOL0     H64425  14.405  10.435   4.754 -3.3024 -1.8013 -1.3422
  467MOL0     H64426  13.457   9.884   4.631 -2.5282 -1.3708  1.2810
  467MOL0     H64427  13.228   9.811   4.554 -1.4305  0.4122  4.3610
  467MOL0     H64428  12.846  10.122   4.409 -2.6850 -2.1053 -2.0639
  467MOL0     H64429  12.653  10.222   4.377 -0.7050 -0.6307 -0.3560
  467MOL0     H64430  10.860  10.477   5.009  2.9766  0.7959 -1.1069
  467MOL0     H64431  10.642  10.376   4.954 -1.5726 -0.2773 -1.3343
  467MOL0     H64432  10.333  10.416   4.539  1.1417 -1.3253  0.9366
  467MOL0     H64433  10.148  10.282   4.435 -0.1136 -0.0501 -0.4793
  467MOL0     H64434   9.796  10.193   4.614 -0.4191  0.9610 -0.8905
  467MOL0     H64435   9.875  10.320   4.527  2.5115  0.1199  1.5762
  467MOL0     H64436   9.807  10.067   4.372  1.0282  0.3503 -0.9676
  467MOL0     H64437   9.853  10.214   4.313 -1.5494  0.1021 -0.1785
  467MOL0     H64438   9.586  10.156   4.455 -1.0802  2.1241  1.7508
  467MOL0     H64439   9.651  10.318   4.444 -0.6985  0.5583 -1.5906
  467MOL0     H64440   9.611  10.137   4.202  0.6573  0.6019 -1.2961
  467MOL0     H64441   9.661  10.304   4.202 -0.3005  1.2074  1.7270
  467MOL0     H64442   9.255  10.383   4.244  1.4683  0.6297  0.9237
  467MOL0     H64443  10.021  10.153   4.820  1.9533  0.1534  1.2712
  467MOL0     H64444  10.216  10.322   5.029  1.1885  1.9643 -1.6115
  467MOL0     H64445  10.100  10.188   5.002  2.5899 -1.8195  2.5940
  467MOL0     H64446  10.267  10.157   4.991 -1.6262 -1.5085  1.9035
  468MOL0     O64447   0.178   9.316   9.631 -0.1582 -0.3403 -0.8239
  468MOL0     C64448   0.103   9.380   9.702 -0.2940 -0.0823 -0.0398
  468MOL0     O64449  -0.015   9.427   9.662  0.5035  0.1805  0.2837
  468MOL0     C64450  -0.042   9.448   9.529 -0.8598  0.0283 -0.6074
  468MOL0     C64451  -0.173   9.484   9.507  0.2472  0.0915  0.2606
  468MOL0     C64452  -0.221   9.519   9.382 -0.5869 -0.1323  0.9528
  468MOL0     C64453  -0.133   9.497   9.269  0.4238  0.0004  0.1303
  468MOL0     O64454  -0.175   9.512   9.132 -0.9450 -0.0006  0.1987
  468MOL0     C64455  -0.318   9.544   9.112 -0.4472 -0.7384  0.9551
  468MOL0     C64456  -0.355   9.587   8.963 -0.1079 -0.6670 -0.1199
  468MOL0     C64457  -0.492   9.649   8.954  0.4180  0.3324 -0.7458
  468MOL0     C64458  -0.539   9.667   8.812 -0.2651 -0.0538 -0.1209
  468MOL0     C64459  -0.673   9.749   8.793 -0.3357 -0.1499 -0.0449
  468MOL0     C64460  -0.791   9.696   8.872  0.2102 -0.5211  0.1048
  468MOL0     C64461  -0.917   9.774   8.854 -0.1643  0.0729 -0.2431
  468MOL0     C64462  -1.017   9.758   8.972  0.7433 -0.5751 -0.1095
  468MOL0     N64463  -1.156   9.798   8.937  0.4822  0.2643  0.0119
  468MOL0     C64464  -1.208   9.925   8.925  0.8796  0.3165 -1.0558
  468MOL0     C64465  -1.336   9.902   8.892 -0.1453 -0.2923  0.4471
  468MOL0     C64466  -1.431  10.012   8.882 -0.0927  0.6852 -0.8339
  468MOL0     C64467  -1.388  10.144   8.947 -0.1900 -0.3711 -0.7309
  468MOL0     C64468  -1.473  10.252   8.886  0.2891 -0.9038  0.9507
  468MOL0     C64469  -1.472  10.382   8.959 -0.8949  0.7862  1.2745
  468MOL0     O64470  -1.544  10.364   9.082 -0.2032  0.5867 -0.3283
  468MOL0     C64471  -1.682  10.348   9.077 -0.1160  0.0745  0.0409
  468MOL0     C64472  -1.739  10.227   9.088 -1.8752  0.3810 -0.3465
  468MOL0     C64473  -1.874  10.205   9.093  0.7631 -0.2119  0.0802
  468MOL0     C64474  -1.927  10.066   9.108 -0.0548 -0.0850  0.9976
  468MOL0     C64475  -1.960  10.317   9.090 -0.6128  2.1989  0.8242
  468MOL0     C64476  -2.109  10.310   9.098 -0.4165 -0.2660  0.5237
  468MOL0     O64477  -2.178  10.193   9.113 -0.5466 -0.1095 -0.0398
  468MOL0     C64478  -2.315  10.193   9.131  0.2829 -0.3971 -0.4768
  468MOL0     C64479  -2.384  10.286   9.223 -0.0073 -0.1189  0.0463
  468MOL0     C64480  -2.524  10.276   9.225  0.1782 -0.7987  0.4810
  468MOL0     C64481  -2.597  10.192   9.140 -0.0812 -0.3697 -1.4194
  468MOL0     O64482  -2.732  10.208   9.127  0.1624 -0.8010  0.0350
  468MOL0     C64483  -2.810  10.141   9.019 -0.5141 -0.0402 -0.5684
  468MOL0     C64484  -2.941  10.212   9.028  0.7627 -0.4887  0.6863
  468MOL0     C64485  -2.999  10.215   8.884 -0.4387  0.1299 -0.6532
  468MOL0     C64486  -3.142  10.276   8.895  0.1367  0.0264  0.7326
  468MOL0     C64487  -3.246  10.169   8.929  0.1558  0.1585 -0.8252
  468MOL0     C64488  -3.353  10.239   9.012 -0.0945  0.1922 -1.1435
  468MOL0     C64489  -3.449  10.326   8.936  0.1949 -0.1713 -1.0019
  468MOL0     C64490  -3.563  10.386   9.027 -0.7173 -0.4641 -0.2541
  468MOL0    Cl64491  -3.490  10.526   9.116  0.2411  0.0320 -0.1173
  468MOL0     C64492  -2.529  10.098   9.069 -0.3251 -0.4082  0.5778
  468MOL0     C64493  -2.390  10.097   9.058 -0.6141 -0.6956 -0.1395
  468MOL0     O64494  -2.170  10.406   9.063  0.1104 -0.2437  0.1005
  468MOL0     C64495  -1.902  10.443   9.080 -0.5818  0.4508 -0.8620
  468MOL0     C64496  -1.766  10.453   9.071  0.1299  0.5078 -0.2494
  468MOL0     N64497  -1.360   9.775   8.862  0.3483 -0.1102 -0.4986
  468MOL0     N64498  -1.251   9.711   8.891 -0.2850 -0.0485  0.3457
  468MOL0     C64499  -0.010   9.448   9.293 -1.1087  0.0931 -0.1961
  468MOL0     C64500   0.042   9.424   9.415  1.0816 -0.1631 -0.3024
  468MOL0     C64501   0.132   9.401   9.847  0.2235  0.0848  0.9857
  468MOL0     C64502   0.083   9.511   9.908 -0.0341 -0.1767 -0.1052
  468MOL0     C64503   0.102   9.547  10.041  0.4393 -0.5959 -0.7988
  468MOL0     C64504   0.151   9.452  10.133 -0.0303 -0.7376  0.4375
  468MOL0     O64505   0.150   9.494  10.262  0.1824  0.4296  0.7738
  468MOL0     C64506   0.168   9.396  10.367  0.2548 -0.6090 -0.1233
  468MOL0     C64507   0.150   9.467  10.500  0.9337 -0.5700  0.1397
  468MOL0     C64508   0.290   9.522  10.533  0.0467  0.7590  0.4538
  468MOL0     C64509   0.288   9.576  10.677 -0.0929 -0.0918 -0.1410
  468MOL0     C64510   0.280   9.720  10.694  0.1031  0.5883 -0.8910
  468MOL0     C64511   0.292   9.836  10.715 -0.6273  0.6929 -0.6014
  468MOL0     C64512   0.192   9.331  10.078  1.1389 -0.5667 -0.6922
  468MOL0     C64513   0.176   9.300   9.938  0.4561 -0.9245  0.2122
  468MOL0     C64514   0.232   9.169   9.877 -0.6077 -0.5854  0.0284
  468MOL0     H64515  -0.252   9.506   9.579 -3.3013 -2.2093 -2.6134
  468MOL0     H64516  -0.323   9.555   9.374  0.1861  2.0544  0.4961
  468MOL0     H64517  -0.356   9.624   9.176 -0.4809  0.0689 -0.0372
  468MOL0     H64518  -0.381   9.461   9.145  0.7224 -1.7407  0.7071
  468MOL0     H64519  -0.281   9.659   8.928 -1.4318 -0.0573 -1.8273
  468MOL0     H64520  -0.360   9.507   8.888  0.7087  1.2987 -2.3876
  468MOL0     H64521  -0.564   9.581   9.001 -0.1908  1.5032  0.0595
  468MOL0     H64522  -0.495   9.742   9.011 -0.7604 -0.4411  0.5146
  468MOL0     H64523  -0.456   9.716   8.760  0.9552 -1.6118  0.2521
  468MOL0     H64524  -0.551   9.569   8.763  0.0920 -0.3156  0.3021
  468MOL0     H64525  -0.688   9.744   8.685  1.7955  1.1351 -0.4643
  468MOL0     H64526  -0.668   9.853   8.826 -4.2660 -0.0718  0.7840
  468MOL0     H64527  -0.825   9.596   8.841  1.5553 -1.0590  0.3161
  468MOL0     H64528  -0.764   9.689   8.978  0.4114 -0.2272  0.0726
  468MOL0     H64529  -0.968   9.755   8.759  0.2189  2.2907 -0.9391
  468MOL0     H64530  -0.895   9.881   8.846 -0.1676  0.2215  1.3946
  468MOL0     H64531  -1.032   9.658   9.013 -1.5245  0.0108  0.6078
  468MOL0     H64532  -0.984   9.830   9.048 -2.2652  3.3331 -2.1283
  468MOL0     H64533  -1.152  10.013   8.954 -1.7266  2.0367 -0.8489
  468MOL0     H64534  -1.518   9.984   8.942  0.8548  0.5136  0.5094
  468MOL0     H64535  -1.460  10.025   8.778 -2.7439 -1.0339 -0.3866
  468MOL0     H64536  -1.383  10.137   9.056  1.3416 -2.0125 -0.8575
  468MOL0     H64537  -1.287  10.168   8.913  0.4811  1.6221  2.2386
  468MOL0     H64538  -1.432  10.275   8.788 -1.6048 -0.4345  0.2255
  468MOL0     H64539  -1.572  10.213   8.862  0.5372 -0.7787 -0.3406
  468MOL0     H64540  -1.365  10.398   8.978 -0.3142 -1.0491 -0.1293
  468MOL0     H64541  -1.495  10.467   8.893  1.4551  1.6205  1.4278
  468MOL0     H64542  -1.666  10.147   9.089 -1.2670  0.7795 -3.1456
  468MOL0     H64543  -1.847   9.991   9.099 -0.8580 -0.9170  0.6448
  468MOL0     H64544  -1.989  10.051   9.019 -1.8440  0.9472  2.0324
  468MOL0     H64545  -1.993  10.060   9.195 -0.5201  1.9798  0.8435
  468MOL0     H64546  -2.323  10.357   9.277  0.0950  1.3586 -1.9116
  468MOL0     H64547  -2.573  10.357   9.278  0.6767 -0.6542  0.7277
  468MOL0     H64548  -2.765  10.145   8.920  0.0036 -0.3692 -0.3491
  468MOL0     H64549  -2.835  10.039   9.047  2.7341 -1.3131 -1.7711
  468MOL0     H64550  -3.023  10.168   9.085  0.7315 -1.3453  0.0126
  468MOL0     H64551  -2.931  10.312   9.070  0.9425  0.4873 -1.5550
  468MOL0     H64552  -3.004  10.112   8.849  0.8244 -0.8882  1.9056
  468MOL0     H64553  -2.933  10.269   8.815  2.5850 -1.9204  0.3941
  468MOL0     H64554  -3.166  10.311   8.794  3.5902  0.9404  0.0724
  468MOL0     H64555  -3.132  10.363   8.960  1.0658 -1.1325  2.2033
  468MOL0     H64556  -3.293  10.128   8.839 -0.1861 -1.6408  0.1299
  468MOL0     H64557  -3.209  10.087   8.991 -0.0461  0.9474  0.3715
  468MOL0     H64558  -3.315  10.309   9.087  2.5455 -2.5550  0.3058
  468MOL0     H64559  -3.419  10.159   9.048 -2.7589  1.2582 -3.2636
  468MOL0     H64560  -3.489  10.262   8.857  3.9892 -2.1248 -1.6284
  468MOL0     H64561  -3.395  10.407   8.885  1.6498 -1.9515 -2.4347
  468MOL0     H64562  -3.605  10.308   9.091  1.9923  0.0750  2.4434
  468MOL0     H64563  -3.634  10.431   8.957  0.0580 -0.5594 -1.1112
  468MOL0     H64564  -2.581  10.028   9.004  0.2910 -0.9768  0.6815
  468MOL0     H64565  -2.336  10.023   9.000 -1.4454 -2.4508  1.2436
  468MOL0     H64566  -1.974  10.524   9.077 -0.8589  0.2248 -0.3854
  468MOL0     H64567  -1.723  10.553   9.062 -0.5630  0.8651  0.2896
  468MOL0     H64568   0.057   9.431   9.210  1.1242 -2.5510  1.9647
  468MOL0     H64569   0.137   9.373   9.412  3.3609  3.7734 -1.1474
  468MOL0     H64570   0.030   9.574   9.837  1.3042  0.4651 -0.5662
  468MOL0     H64571   0.083   9.642  10.088  1.7835 -0.5764 -0.2588
  468MOL0     H64572   0.090   9.319  10.371 -0.0268 -0.3445 -0.4803
  468MOL0     H64573   0.268   9.353  10.352  0.7935 -0.0782  1.6886
  468MOL0     H64574   0.113   9.392  10.571  0.0001  0.4899  0.7961
  468MOL0     H64575   0.077   9.548  10.495  0.4308 -1.0836 -0.9587
  468MOL0     H64576   0.364   9.442  10.536 -2.9962 -2.2362  1.1930
  468MOL0     H64577   0.323   9.596  10.459 -1.1716  3.0088  2.0079
  468MOL0     H64578   0.381   9.552  10.729 -0.3975  2.0074  1.5059
  468MOL0     H64579   0.207   9.526  10.731  0.7715  1.2588  2.5885
  468MOL0     H64580   0.313   9.938  10.741  3.4843  0.2153 -1.4338
  468MOL0     H64581   0.238   9.261  10.147  1.4827 -1.4165 -1.7509
  468MOL0     H64582   0.243   9.103   9.963 -2.8209  2.5395  2.9659
  468MOL0     H64583   0.166   9.124   9.801  2.1011 -1.0688 -2.1956
  468MOL0     H64584   0.321   9.199   9.821 -0.2842 -0.0816  0.7965
  469MOL0     O64585   7.818   0.017   8.406 -0.6689 -0.8771 -0.4373
  469MOL0     C64586   7.742   0.094   8.354 -0.2017  0.4185 -0.0294
  469MOL0     O64587   7.763   0.221   8.318  0.1892 -0.1762 -0.1946
  469MOL0     C64588   7.881   0.280   8.340 -0.0023 -0.9508  0.9524
  469MOL0     C64589   7.989   0.234   8.277  0.2405 -0.7897 -0.5619
  469MOL0     C64590   8.108   0.303   8.283 -0.6610 -0.4296  0.6658
  469MOL0     C64591   8.125   0.422   8.354  0.5256 -0.8793 -0.0300
  469MOL0     O64592   8.225   0.513   8.367  1.1869 -0.2295 -0.4238
  469MOL0     C64593   8.351   0.464   8.312 -0.0680 -1.2143  1.0598
  469MOL0     C64594   8.465   0.570   8.320  0.0515 -0.0448 -0.8146
  469MOL0     C64595   8.578   0.561   8.213  0.5777  0.1949 -0.7263
  469MOL0     C64596   8.685   0.452   8.243 -0.5556 -0.5621  0.5355
  469MOL0     C64597   8.794   0.420   8.134 -0.1056  0.3096 -0.0543
  469MOL0     C64598   8.886   0.297   8.168 -0.7860 -0.3993  0.5918
  469MOL0     C64599   9.004   0.278   8.086 -0.5954 -0.4333 -0.0455
  469MOL0     C64600   9.094   0.395   8.101 -0.3131  0.2171 -0.1815
  469MOL0     N64601   9.228   0.355   8.050  0.1071  0.8538  1.1299
  469MOL0     C64602   9.331   0.321   8.129 -0.0462 -0.0837 -0.1458
  469MOL0     C64603   9.445   0.324   8.043 -0.3776  0.3286 -0.5996
  469MOL0     C64604   9.594   0.325   8.084  0.0248 -0.8714 -0.2388
  469MOL0     C64605   9.687   0.281   7.982  0.2546 -0.4079  1.4591
  469MOL0     C64606   9.832   0.261   8.037 -0.7457  0.5933 -0.2014
  469MOL0     C64607   9.895   0.120   7.997  1.1620  0.5216  0.0245
  469MOL0     O64608  10.036   0.132   8.023  0.3139 -0.5025  0.0705
  469MOL0     C64609  10.111   0.128   7.916 -0.1430 -0.9043  0.3806
  469MOL0     C64610  10.177   0.015   7.868 -0.0873 -0.0381  0.5174
  469MOL0     C64611  10.281   0.034   7.766  0.2741  0.9403 -0.2074
  469MOL0     C64612  10.359  -0.092   7.737 -0.2340 -0.7625  0.3166
  469MOL0     C64613  10.303   0.158   7.705  0.5780  1.3071  0.0091
  469MOL0     C64614  10.406   0.184   7.612 -0.0669  0.1607 -0.0792
  469MOL0     O64615  10.385   0.272   7.519 -0.3935  0.0957  0.4761
  469MOL0     C64616  10.484   0.324   7.439  0.7003  0.4481 -0.6627
  469MOL0     C64617  10.463   0.312   7.305 -1.0628  0.3098  0.3729
  469MOL0     C64618  10.555   0.361   7.216  0.0709 -0.8086  0.4894
  469MOL0     C64619  10.671   0.419   7.265 -0.2573 -0.1533  0.1659
  469MOL0     O64620  10.756   0.464   7.174 -0.2443  0.0307  0.0699
  469MOL0     C64621  10.766   0.604   7.182 -0.4847 -0.6689 -0.1118
  469MOL0     C64622  10.891   0.653   7.112 -0.7029  0.4840  0.3137
  469MOL0     C64623  10.874   0.661   6.965  0.3156  0.2084  0.4515
  469MOL0     C64624  11.013   0.672   6.907 -0.8719 -0.0263  0.8523
  469MOL0     C64625  11.023   0.670   6.754  0.1259 -0.4158 -0.2041
  469MOL0     C64626  11.152   0.718   6.685 -0.3376  0.2009 -0.5529
  469MOL0     C64627  11.265   0.634   6.739  0.0937 -1.2450  0.1598
  469MOL0     C64628  11.394   0.653   6.659  0.8158 -0.0632  0.0149
  469MOL0    Cl64629  11.485   0.785   6.734  0.1580 -0.0650 -0.2654
  469MOL0     C64630  10.698   0.431   7.401  1.0886  0.0242  0.0622
  469MOL0     C64631  10.601   0.387   7.490 -0.0106  0.8087 -0.2350
  469MOL0     O64632  10.517   0.143   7.642 -0.6698 -0.2227 -0.0059
  469MOL0     C64633  10.228   0.266   7.757  0.7497  0.0715  0.2619
  469MOL0     C64634  10.136   0.253   7.856 -0.8636  0.1903 -0.2313
  469MOL0     N64635   9.394   0.340   7.914 -0.3260  0.7850 -0.2179
  469MOL0     N64636   9.269   0.367   7.921 -0.2100 -1.0425 -0.4189
  469MOL0     C64637   8.006   0.469   8.416  0.7950 -0.3238 -0.2396
  469MOL0     C64638   7.875   0.403   8.407  0.3169 -0.4843  0.3638
  469MOL0     C64639   7.616   0.055   8.302 -0.2559 -0.3359  0.1851
  469MOL0     C64640   7.590   0.083   8.165  0.3620 -0.6928  0.4872
  469MOL0     C64641   7.488   0.025   8.097  0.4376  0.3542  0.7835
  469MOL0     C64642   7.392  -0.054   8.167  0.3529  0.4240 -0.5937
  469MOL0     O64643   7.272  -0.104   8.124  0.8542  0.5570 -0.3088
  469MOL0     C64644   7.251  -0.127   7.979  0.7299 -0.4190  0.2538
  469MOL0     C64645   7.308  -0.265   7.934  0.6943 -0.7281  0.6290
  469MOL0     C64646   7.260  -0.377   8.014 -0.0404 -0.4579  0.3277
  469MOL0     C64647   7.346  -0.499   8.014 -0.1990  0.1962 -0.6411
  469MOL0     C64648   7.332  -0.569   7.890 -0.7863 -0.3026 -0.2389
  469MOL0     C64649   7.303  -0.625   7.792  0.1575  0.0483  1.4456
  469MOL0     C64650   7.417  -0.068   8.299  0.8531  0.3675 -0.0753
  469MOL0     C64651   7.528  -0.021   8.364  0.0127  0.7999  0.0788
  469MOL0     C64652   7.558  -0.069   8.504  0.3054 -0.5405 -0.0292
  469MOL0     H64653   7.990   0.134   8.234  1.4933 -1.2160  0.3798
  469MOL0     H64654   8.186   0.260   8.221  1.4711  4.0131 -0.0688
  469MOL0     H64655   8.334   0.439   8.208  2.6563 -0.0407  0.2261
  469MOL0     H64656   8.383   0.380   8.375  4.1020 -0.2306  0.5691
  469MOL0     H64657   8.410   0.663   8.303  0.1448 -0.0979 -1.4174
  469MOL0     H64658   8.502   0.578   8.422  1.3951 -0.5596 -1.2322
  469MOL0     H64659   8.539   0.546   8.112 -3.0619  0.7473  0.4477
  469MOL0     H64660   8.622   0.660   8.210 -2.3234  1.5904 -0.8290
  469MOL0     H64661   8.737   0.489   8.332 -3.9995  0.8293  2.1688
  469MOL0     H64662   8.630   0.359   8.263 -1.0117  0.0272  2.1601
  469MOL0     H64663   8.853   0.511   8.138  0.1254  0.1343  0.9424
  469MOL0     H64664   8.754   0.398   8.034 -0.2701 -2.1058  0.4662
  469MOL0     H64665   8.924   0.317   8.268  1.4112 -0.0179 -0.2579
  469MOL0     H64666   8.820   0.210   8.157 -4.0812  1.4400  3.5381
  469MOL0     H64667   8.984   0.264   7.979  2.1878 -0.8466 -0.5854
  469MOL0     H64668   9.050   0.186   8.120 -0.2166  0.4673  2.0096
  469MOL0     H64669   9.060   0.484   8.047 -1.9164  2.0705  3.5108
  469MOL0     H64670   9.112   0.430   8.203  3.0602  2.1449 -1.2676
  469MOL0     H64671   9.335   0.329   8.237  0.6652  2.6359 -0.3046
  469MOL0     H64672   9.597   0.266   8.177  3.6222  0.6596  0.7983
  469MOL0     H64673   9.616   0.430   8.107 -0.9113 -0.0620 -2.7198
  469MOL0     H64674   9.662   0.181   7.945  0.0352  0.5592 -1.2428
  469MOL0     H64675   9.688   0.346   7.894  2.6610  0.1741  1.8551
  469MOL0     H64676   9.892   0.339   7.989  2.4567 -2.7546 -2.2461
  469MOL0     H64677   9.840   0.263   8.146  0.7888 -2.9203 -0.0847
  469MOL0     H64678   9.854   0.041   8.060 -1.1766  0.7569 -1.0764
  469MOL0     H64679   9.866   0.094   7.894  1.0214  1.1472 -0.0981
  469MOL0     H64680  10.161  -0.086   7.904 -1.0535  0.3124  1.1228
  469MOL0     H64681  10.462  -0.056   7.741 -0.8111  0.9801  0.6189
  469MOL0     H64682  10.334  -0.139   7.642  0.9564  1.8273 -1.3948
  469MOL0     H64683  10.353  -0.157   7.824  3.7573  0.0508  1.4112
  469MOL0     H64684  10.379   0.256   7.263 -1.2197 -1.3935  2.7349
  469MOL0     H64685  10.546   0.361   7.108  0.7737 -0.8308  0.4275
  469MOL0     H64686  10.682   0.658   7.137  0.1809  0.6076  0.1020
  469MOL0     H64687  10.777   0.644   7.284  0.7823  1.5099 -1.0212
  469MOL0     H64688  10.931   0.750   7.143  2.7899  0.3123 -2.9169
  469MOL0     H64689  10.969   0.585   7.147 -1.1609  1.9240  4.7379
  469MOL0     H64690  10.814   0.747   6.935 -0.4752 -0.4304  0.1873
  469MOL0     H64691  10.821   0.571   6.934  0.3989 -0.2066  1.4733
  469MOL0     H64692  11.072   0.585   6.935  2.2798  0.4610 -3.2220
  469MOL0     H64693  11.060   0.767   6.935  0.0932 -0.0033 -0.7079
  469MOL0     H64694  10.996   0.573   6.713 -1.8560 -0.0886  0.2490
  469MOL0     H64695  10.946   0.738   6.717 -0.7999 -0.1882  1.9829
  469MOL0     H64696  11.176   0.821   6.716 -1.4040 -0.0843  1.3280
  469MOL0     H64697  11.133   0.733   6.578 -1.8381  1.9095 -0.1083
  469MOL0     H64698  11.227   0.532   6.740 -2.8911 -0.2686 -1.2735
  469MOL0     H64699  11.282   0.659   6.844  1.4250 -0.5205 -0.2026
  469MOL0     H64700  11.377   0.667   6.551  1.6922  0.6825 -0.0385
  469MOL0     H64701  11.454   0.562   6.673  2.9475  1.0050 -1.6192
  469MOL0     H64702  10.790   0.480   7.432  1.1353 -0.6113  0.9694
  469MOL0     H64703  10.619   0.404   7.596  0.4928 -1.6860  0.1414
  469MOL0     H64704  10.243   0.359   7.702  3.0226 -0.9806 -1.0469
  469MOL0     H64705  10.089   0.347   7.882  1.6470  1.9770 -1.6695
  469MOL0     H64706   8.019   0.561   8.472 -0.7543  0.0032 -0.3603
  469MOL0     H64707   7.782   0.448   8.441 -0.9613 -2.2822 -0.5995
  469MOL0     H64708   7.661   0.148   8.114 -2.5007  1.7582 -0.6613
  469MOL0     H64709   7.476   0.026   7.989  1.8841  4.5528  0.5143
  469MOL0     H64710   7.143  -0.137   7.965  0.6357  0.7549  0.0220
  469MOL0     H64711   7.292  -0.050   7.912 -2.3425  1.0518 -0.1036
  469MOL0     H64712   7.415  -0.262   7.957  0.7561  0.7383  0.2603
  469MOL0     H64713   7.302  -0.287   7.827  0.3365 -1.4853  0.8000
  469MOL0     H64714   7.253  -0.343   8.118  0.0838 -0.2293  0.2618
  469MOL0     H64715   7.159  -0.404   7.985 -1.6054  1.8993  3.0849
  469MOL0     H64716   7.315  -0.574   8.087 -0.9319  2.7855  1.9081
  469MOL0     H64717   7.449  -0.463   8.023 -1.2204  3.2319  0.2272
  469MOL0     H64718   7.301  -0.682   7.701 -0.0494  1.8653  0.2529
  469MOL0     H64719   7.358  -0.139   8.356 -0.3222  0.4921 -1.0685
  469MOL0     H64720   7.581   0.018   8.567 -3.2423 -1.5014  3.0167
  469MOL0     H64721   7.469  -0.116   8.547 -1.3327  2.0865 -0.3129
  469MOL0     H64722   7.646  -0.133   8.503  1.6087  1.0631 -3.6001
  470MOL0     O64723   3.702  10.865   0.922  0.0890 -0.0598 -0.6608
  470MOL0     C64724   3.583  10.902   0.917  0.3729  0.8926  0.5088
  470MOL0     O64725   3.537  11.025   0.851 -0.0197 -0.0580  0.2662
  470MOL0     C64726   3.638  11.116   0.823 -0.2474  0.3723 -0.2312
  470MOL0     C64727   3.622  11.243   0.870 -0.4116  0.0109 -0.7180
  470MOL0     C64728   3.726  11.337   0.864 -0.3386  0.5606 -0.0510
  470MOL0     C64729   3.851  11.290   0.828 -1.1544  0.1008  0.1555
  470MOL0     O64730   3.966  11.367   0.844  0.3162 -0.4052 -0.5047
  470MOL0     C64731   3.964  11.486   0.917  0.9814  0.0612  0.2797
  470MOL0     C64732   4.107  11.523   0.944  0.5073 -0.3846 -0.3251
  470MOL0     C64733   4.201  11.532   0.825 -0.1543  0.3207 -0.0797
  470MOL0     C64734   4.329  11.607   0.862 -0.1956  0.2730 -0.3883
  470MOL0     C64735   4.439  11.601   0.755 -0.0169  0.6570  0.7753
  470MOL0     C64736   4.395  11.644   0.617 -0.0851  0.5500  1.2503
  470MOL0     C64737   4.345  11.788   0.591 -0.2897 -0.4064 -0.7714
  470MOL0     C64738   4.341  11.817   0.437  0.3769  0.0233 -0.4859
  470MOL0     N64739   4.230  11.752   0.370  1.5520  0.0033 -0.6336
  470MOL0     C64740   4.242  11.628   0.314 -1.0501  0.0630 -0.1284
  470MOL0     C64741   4.116  11.595   0.283 -0.2558  1.2794  0.9930
  470MOL0     C64742   4.073  11.458   0.248 -0.2321 -0.3310 -0.2567
  470MOL0     C64743   4.096  11.356   0.361  0.3196  0.4853 -0.4112
  470MOL0     C64744   3.990  11.376   0.466  0.1600 -0.3651 -0.1342
  470MOL0     C64745   3.852  11.305   0.461  0.4425 -0.6758  0.2165
  470MOL0     O64746   3.777  11.329   0.347 -0.4237  0.3346  0.1585
  470MOL0     C64747   3.643  11.293   0.340 -0.6882  0.0932  0.1218
  470MOL0     C64748   3.588  11.271   0.217 -0.5681  0.6104 -0.1916
  470MOL0     C64749   3.462  11.228   0.207  0.3483  0.3595  0.4727
  470MOL0     C64750   3.396  11.213   0.072  0.1229 -0.7406 -0.4015
  470MOL0     C64751   3.383  11.205   0.328 -0.3441 -0.2414 -0.5052
  470MOL0     C64752   3.251  11.133   0.325 -0.3774 -0.6610 -1.0508
  470MOL0     O64753   3.241  11.033   0.236  0.4163 -0.1660 -0.2804
  470MOL0     C64754   3.130  10.959   0.247  0.3485  0.2163 -0.0880
  470MOL0     C64755   3.152  10.829   0.282  0.2389  0.1623  0.1107
  470MOL0     C64756   3.044  10.740   0.296 -0.1972 -0.0525  0.2453
  470MOL0     C64757   2.911  10.787   0.275  0.4036  0.3008  0.1857
  470MOL0     O64758   2.802  10.719   0.314  0.3274  0.9146 -0.0681
  470MOL0     C64759   2.822  10.599   0.387 -0.0333  0.4708  0.2902
  470MOL0     C64760   2.695  10.563   0.461 -0.1251  0.3708 -1.1760
  470MOL0     C64761   2.566  10.529   0.373 -0.6026  0.3287  0.0863
  470MOL0     C64762   2.456  10.476   0.472 -0.2862 -0.3032  0.2936
  470MOL0     C64763   2.382  10.582   0.560 -0.6335 -0.2654 -0.0074
  470MOL0     C64764   2.313  10.691   0.503 -0.4547 -0.8255  0.4766
  470MOL0     C64765   2.283  10.803   0.597  0.1696 -1.1942 -0.4409
  470MOL0     C64766   2.196  10.921   0.529 -0.1888  0.1525  0.2436
  470MOL0    Cl64767   2.299  10.996   0.396 -0.1546 -0.0558 -0.0555
  470MOL0     C64768   2.894  10.908   0.215  0.1108  0.2628 -0.2618
  470MOL0     C64769   2.997  10.995   0.201 -0.0060  0.3743 -0.2869
  470MOL0     O64770   3.164  11.176   0.398 -0.6127  0.0755  0.3006
  470MOL0     C64771   3.433  11.223   0.458 -1.0740 -0.5206 -0.0901
  470MOL0     C64772   3.570  11.266   0.456  0.7309  0.9058  0.7675
  470MOL0     N64773   4.030  11.684   0.332  0.0808  0.2637  0.2678
  470MOL0     N64774   4.100  11.784   0.383  0.1433  0.7016 -0.5210
  470MOL0     C64775   3.871  11.161   0.784 -0.2244 -0.3682  0.0442
  470MOL0     C64776   3.762  11.079   0.774 -1.3276  0.2917  0.2744
  470MOL0     C64777   3.485  10.814   0.984  0.1583 -0.2864  1.1557
  470MOL0     C64778   3.532  10.718   1.080  0.9995  0.2635  0.0656
  470MOL0     C64779   3.438  10.638   1.136  0.2553  0.0870  0.9915
  470MOL0     C64780   3.302  10.641   1.108 -0.6465  0.8016 -0.4911
  470MOL0     O64781   3.223  10.552   1.184  0.1255  0.3071 -0.4693
  470MOL0     C64782   3.084  10.565   1.162 -0.6178  0.6171 -0.4338
  470MOL0     C64783   3.007  10.452   1.221  0.4447 -0.4258 -0.2356
  470MOL0     C64784   2.859  10.486   1.203  0.8119  0.2895  0.4366
  470MOL0     C64785   2.788  10.391   1.298  0.2958  0.0107  0.3469
  470MOL0     C64786   2.788  10.431   1.441 -0.1998  0.0650 -0.1856
  470MOL0     C64787   2.777  10.467   1.559  0.1786  0.0689 -0.0042
  470MOL0     C64788   3.258  10.739   1.014  0.4660  1.0923  0.0682
  470MOL0     C64789   3.345  10.828   0.955 -0.4443  0.2333 -0.0834
  470MOL0     C64790   3.283  10.911   0.846 -0.1217  0.2954 -0.4922
  470MOL0     H64791   3.529  11.263   0.923  0.7011  0.4080  1.1609
  470MOL0     H64792   3.688  11.434   0.892 -3.1664  0.9182 -4.2669
  470MOL0     H64793   3.902  11.476   1.007  0.6560  3.8300  0.6309
  470MOL0     H64794   3.922  11.572   0.865 -0.9166  0.9222  2.9897
  470MOL0     H64795   4.108  11.612   1.006 -1.2611  1.2067 -2.4353
  470MOL0     H64796   4.149  11.439   1.001  0.2789 -0.0372  0.3611
  470MOL0     H64797   4.220  11.433   0.782 -1.7023  0.6964 -1.7371
  470MOL0     H64798   4.162  11.593   0.743 -0.2792  1.5857  0.8895
  470MOL0     H64799   4.311  11.713   0.883 -2.9604  0.3318 -2.5549
  470MOL0     H64800   4.364  11.545   0.946 -2.8126 -0.0075  0.5678
  470MOL0     H64801   4.461  11.494   0.746 -1.8856  0.3618 -1.1209
  470MOL0     H64802   4.528  11.655   0.789  0.9478 -0.5788  0.2895
  470MOL0     H64803   4.474  11.618   0.545 -0.5705  0.5111  0.7290
  470MOL0     H64804   4.313  11.581   0.583  0.4731  0.8313 -0.7324
  470MOL0     H64805   4.419  11.856   0.634 -0.0808 -0.5888 -0.8394
  470MOL0     H64806   4.253  11.800   0.648  1.5060  0.4692  2.2052
  470MOL0     H64807   4.324  11.923   0.421  1.3158 -0.0057 -1.9057
  470MOL0     H64808   4.434  11.792   0.384 -0.6268  1.0661 -2.9070
  470MOL0     H64809   4.325  11.559   0.309 -1.9198 -1.2015  1.8117
  470MOL0     H64810   4.134  11.417   0.166 -0.2774 -1.1016  0.0804
  470MOL0     H64811   3.970  11.456   0.214 -0.1904  1.4217 -0.5749
  470MOL0     H64812   4.092  11.256   0.317 -3.8665 -0.7797  2.2819
  470MOL0     H64813   4.196  11.367   0.405  0.3315  1.0463 -0.5705
  470MOL0     H64814   4.038  11.344   0.559  0.6189 -4.3354 -1.5368
  470MOL0     H64815   3.971  11.484   0.473 -0.4107 -0.5595  1.9749
  470MOL0     H64816   3.858  11.196   0.462 -0.6039 -0.7494 -0.6929
  470MOL0     H64817   3.799  11.330   0.553  0.0672  1.9132 -0.6156
  470MOL0     H64818   3.659  11.280   0.136  3.2462  2.6986  2.9886
  470MOL0     H64819   3.403  11.121   0.013  0.6379 -1.0820  0.1764
  470MOL0     H64820   3.412  11.300   0.007 -3.3677 -0.2821 -0.8559
  470MOL0     H64821   3.290  11.233   0.092 -0.4194  0.3178 -3.7330
  470MOL0     H64822   3.251  10.818   0.325  0.9584  2.0025 -0.9426
  470MOL0     H64823   3.061  10.643   0.341  0.7266 -0.2021 -0.3957
  470MOL0     H64824   2.844  10.526   0.309 -2.7644  0.7230 -0.8106
  470MOL0     H64825   2.899  10.613   0.464 -1.1363 -0.8769  1.7108
  470MOL0     H64826   2.727  10.486   0.532  0.5142  0.9495 -0.8342
  470MOL0     H64827   2.667  10.643   0.529  1.1537 -1.7194  2.0768
  470MOL0     H64828   2.601  10.447   0.310 -3.2928 -0.4271 -0.5362
  470MOL0     H64829   2.534  10.617   0.316 -1.7593  0.4415  0.8772
  470MOL0     H64830   2.510  10.417   0.546  4.9683  1.2075 -1.8733
  470MOL0     H64831   2.385  10.411   0.419 -0.2519 -1.3523  1.5005
  470MOL0     H64832   2.311  10.538   0.631 -1.8869  0.1463 -0.9600
  470MOL0     H64833   2.464  10.628   0.616  1.1958  0.3982 -2.9731
  470MOL0     H64834   2.214  10.664   0.465 -0.9403  1.0990  0.2437
  470MOL0     H64835   2.377  10.739   0.429 -0.4094 -0.9574  0.4321
  470MOL0     H64836   2.380  10.847   0.621  1.0591 -1.9883 -2.3768
  470MOL0     H64837   2.235  10.767   0.689 -1.3810  1.3400 -0.1506
  470MOL0     H64838   2.169  10.998   0.602  1.6934  1.1765 -0.0734
  470MOL0     H64839   2.110  10.874   0.480  0.9304 -1.7036 -0.0301
  470MOL0     H64840   2.798  10.947   0.181  0.3918  0.0782 -1.3107
  470MOL0     H64841   2.983  11.092   0.152 -1.7499 -0.1131 -0.8056
  470MOL0     H64842   3.386  11.184   0.547 -0.4555  2.8645  1.9013
  470MOL0     H64843   3.616  11.279   0.553 -0.5156  1.4372  1.3091
  470MOL0     H64844   3.968  11.126   0.752 -0.5110  0.5321 -1.9952
  470MOL0     H64845   3.773  10.978   0.735 -1.5052  0.1861  0.4911
  470MOL0     H64846   3.638  10.715   1.103  1.1427  1.5983 -0.3601
  470MOL0     H64847   3.466  10.575   1.221  2.2024 -0.1136  0.2588
  470MOL0     H64848   3.048  10.661   1.201 -4.0337 -1.2068  1.3979
  470MOL0     H64849   3.074  10.553   1.054  0.7943 -2.5405 -0.3037
  470MOL0     H64850   3.036  10.432   1.324 -0.3451  0.0928  0.0951
  470MOL0     H64851   3.029  10.362   1.162  3.4119  0.3356 -0.4813
  470MOL0     H64852   2.835  10.592   1.208  1.3290  0.9961 -5.0427
  470MOL0     H64853   2.833  10.469   1.098 -2.3098  4.1390  0.3441
  470MOL0     H64854   2.838  10.296   1.283  0.8694  0.4297 -0.4724
  470MOL0     H64855   2.682  10.385   1.271  0.0877 -0.5050  1.2552
  470MOL0     H64856   2.773  10.498   1.662  1.8390  0.3179  0.0199
  470MOL0     H64857   3.155  10.732   0.983  0.3527  0.3932  0.5769
  470MOL0     H64858   3.344  10.888   0.758  2.3366 -1.2633  1.4739
  470MOL0     H64859   3.179  10.880   0.829 -0.6642  1.9108 -0.2249
  470MOL0     H64860   3.277  11.016   0.875  2.6024  0.1748  0.8217
  471MOL0     O64861  10.647  10.028  11.308  0.0305 -0.9073  0.2811
  471MOL0     C64862  10.578   9.957  11.388  0.0404  0.6629  0.5823
  471MOL0     O64863  10.513   9.837  11.356  0.0751 -0.2551 -0.5575
  471MOL0     C64864  10.537   9.785  11.234  0.4472  0.4377 -0.5186
  471MOL0     C64865  10.425   9.726  11.179 -0.2338 -0.2305  0.6091
  471MOL0     C64866  10.425   9.671  11.054  0.1533 -0.0933  0.5088
  471MOL0     C64867  10.538   9.672  10.974  0.3413 -0.0204  0.5490
  471MOL0     O64868  10.531   9.632  10.845 -0.5227  0.2987 -0.0859
  471MOL0     C64869  10.638   9.630  10.758  0.6162 -0.5970  0.1332
  471MOL0     C64870  10.600   9.562  10.619  0.7496 -0.2589  0.1341
  471MOL0     C64871  10.580   9.414  10.653 -0.0702  0.3270  0.2453
  471MOL0     C64872  10.640   9.327  10.549  0.0059  1.7275  0.1783
  471MOL0     C64873  10.575   9.319  10.410 -0.0199  0.6000 -0.3955
  471MOL0     C64874  10.429   9.256  10.407  0.2040  0.3417 -1.4127
  471MOL0     C64875  10.366   9.246  10.261 -0.3191  0.1337 -0.7769
  471MOL0     C64876  10.432   9.153  10.160 -0.9990 -0.9989  0.2360
  471MOL0     N64877  10.342   9.131  10.049 -0.2836  0.9711  0.1785
  471MOL0     C64878  10.247   9.214   9.997  0.4644 -0.3772  0.2718
  471MOL0     C64879  10.187   9.133   9.909 -0.9036  0.3493 -0.3015
  471MOL0     C64880  10.051   9.158   9.853 -0.2695 -0.5988  0.6001
  471MOL0     C64881  10.061   9.192   9.701 -0.9435 -0.8037  0.0645
  471MOL0     C64882   9.920   9.177   9.642  0.3839  0.1704 -0.5432
  471MOL0     C64883   9.914   9.220   9.490 -0.4443 -0.3579 -0.0378
  471MOL0     O64884   9.776   9.212   9.457 -0.7322  0.2410  0.3100
  471MOL0     C64885   9.736   9.262   9.341  0.6990  0.6051 -0.0777
  471MOL0     C64886   9.822   9.340   9.255  0.3614 -0.3556 -0.0457
  471MOL0     C64887   9.778   9.396   9.136  0.5787  0.4101  0.8413
  471MOL0     C64888   9.869   9.475   9.051  0.0105 -0.4269  0.2675
  471MOL0     C64889   9.642   9.366   9.094 -0.2082 -0.5203  0.6016
  471MOL0     C64890   9.582   9.423   8.968  0.4472  0.2109  0.0231
  471MOL0     O64891   9.526   9.331   8.894  0.1440 -0.4794 -0.1574
  471MOL0     C64892   9.481   9.357   8.767 -0.0083 -0.0544 -0.0679
  471MOL0     C64893   9.560   9.403   8.659 -0.0895  0.0156 -0.8341
  471MOL0     C64894   9.508   9.411   8.533  0.9129 -0.1406  1.0997
  471MOL0     C64895   9.376   9.372   8.513  0.2565  0.4829  0.1773
  471MOL0     O64896   9.308   9.380   8.389 -0.6410  0.7534 -1.3161
  471MOL0     C64897   9.388   9.371   8.266 -0.2039  0.6049  0.4858
  471MOL0     C64898   9.288   9.366   8.149 -0.4867  0.1055 -0.2793
  471MOL0     C64899   9.343   9.312   8.017 -0.2282  0.1437 -0.2227
  471MOL0     C64900   9.456   9.395   7.966  0.2212  0.3480 -0.2669
  471MOL0     C64901   9.494   9.368   7.821  0.3993  0.0168  0.8253
  471MOL0     C64902   9.381   9.395   7.713 -0.4520  0.2998 -0.1072
  471MOL0     C64903   9.328   9.538   7.725  0.1346  0.1214  0.0196
  471MOL0     C64904   9.228   9.562   7.613  1.0593 -0.2949 -0.7246
  471MOL0    Cl64905   9.148   9.719   7.634 -0.3689  0.2544  0.0132
  471MOL0     C64906   9.294   9.345   8.620  0.4917 -0.2876 -0.0709
  471MOL0     C64907   9.346   9.329   8.752 -0.1231  0.5940 -0.2171
  471MOL0     O64908   9.592   9.545   8.941 -0.3955 -0.0377 -0.1781
  471MOL0     C64909   9.563   9.295   9.167 -0.1087  0.2385 -0.9935
  471MOL0     C64910   9.614   9.230   9.287  0.9645  0.8882  0.4314
  471MOL0     N64911  10.261   9.015   9.898  0.7630  0.1460  0.6585
  471MOL0     N64912  10.343   9.011   9.986  0.8988 -0.0983  0.7273
  471MOL0     C64913  10.659   9.714  11.034  0.5685 -0.2691 -0.2874
  471MOL0     C64914  10.657   9.775  11.157  0.3299  0.0234 -0.6379
  471MOL0     C64915  10.558  10.010  11.526  0.5267 -0.1201  0.1040
  471MOL0     C64916  10.654  10.097  11.578  0.9171  0.1708 -0.8986
  471MOL0     C64917  10.649  10.147  11.710 -0.2812  0.1995 -0.3441
  471MOL0     C64918  10.540  10.110  11.795  0.7618  0.1875 -0.1786
  471MOL0     O64919  10.533  10.172  11.919  0.4749  0.2593 -0.1040
  471MOL0     C64920  10.498  10.081  12.019 -0.1328 -0.8997 -0.1145
  471MOL0     C64921  10.569  10.143  12.135  0.1386 -0.1853  0.4784
  471MOL0     C64922  10.726  10.146  12.121 -0.5344  0.0963 -0.3112
  471MOL0     C64923  10.812  10.147  12.245 -0.4551  0.4017 -0.5551
  471MOL0     C64924  10.958  10.161  12.222 -0.4102  0.3527  1.1123
  471MOL0     C64925  11.082  10.170  12.223  0.2775 -0.3057  0.1636
  471MOL0     C64926  10.443  10.028  11.738  0.2886 -0.0171 -1.0462
  471MOL0     C64927  10.446   9.974  11.610 -0.7004 -0.0681 -0.9984
  471MOL0     C64928  10.325   9.888  11.557  0.6505 -0.8801 -0.3898
  471MOL0     H64929  10.331   9.729  11.234  1.0323 -2.4381  3.1127
  471MOL0     H64930  10.330   9.628  11.026 -0.2292  1.9003 -1.4875
  471MOL0     H64931  10.728   9.583  10.798  0.7821 -0.3340  0.0742
  471MOL0     H64932  10.653   9.735  10.732 -2.6013  0.2468  1.2509
  471MOL0     H64933  10.510   9.608  10.576  1.6968 -1.1317 -3.0834
  471MOL0     H64934  10.677   9.569  10.542  2.3581  0.0236  1.7134
  471MOL0     H64935  10.625   9.389  10.749 -1.2504 -0.7354  0.5458
  471MOL0     H64936  10.472   9.394  10.653  0.2079 -1.2874 -0.3758
  471MOL0     H64937  10.747   9.344  10.532  0.1797 -1.1625 -2.5948
  471MOL0     H64938  10.625   9.227  10.592 -3.2950  0.8871 -2.5118
  471MOL0     H64939  10.643   9.266  10.344  1.3084  2.0980 -0.2922
  471MOL0     H64940  10.568   9.424  10.380  0.6432  0.3135 -1.5977
  471MOL0     H64941  10.438   9.152  10.439  0.9017  0.6494 -0.5770
  471MOL0     H64942  10.358   9.313  10.467  1.0882  0.4157 -0.4126
  471MOL0     H64943  10.374   9.348  10.221 -1.5635  1.7158  2.5520
  471MOL0     H64944  10.261   9.222  10.277  0.5597 -2.7046  1.5880
  471MOL0     H64945  10.525   9.199  10.124 -1.3737 -0.7806 -0.4691
  471MOL0     H64946  10.445   9.051  10.198  0.8808 -1.0759 -0.5183
  471MOL0     H64947  10.230   9.320  10.016 -0.7366 -0.2619 -1.3004
  471MOL0     H64948  10.002   9.240   9.906  0.5191  0.6742 -0.5710
  471MOL0     H64949   9.993   9.066   9.866  0.2695 -1.1198 -0.5527
  471MOL0     H64950  10.093   9.296   9.689  0.7243 -1.2579  0.2564
  471MOL0     H64951  10.139   9.130   9.654 -0.9945 -0.8861  0.0888
  471MOL0     H64952   9.887   9.073   9.642  2.7061 -0.6361 -1.6434
  471MOL0     H64953   9.843   9.235   9.694  0.0278 -0.6276 -0.1635
  471MOL0     H64954   9.935   9.327   9.489  1.7547 -0.6642  2.2026
  471MOL0     H64955   9.984   9.156   9.435 -0.1183 -2.5166  2.6757
  471MOL0     H64956   9.923   9.365   9.287 -0.3446  1.0020  1.3173
  471MOL0     H64957   9.845   9.460   8.946  0.3488 -0.9665  0.2679
  471MOL0     H64958   9.973   9.450   9.074  0.5085  2.4929  1.7503
  471MOL0     H64959   9.847   9.579   9.077  1.3657 -0.5338  2.0577
  471MOL0     H64960   9.664   9.429   8.675 -0.1330 -1.0264  1.7460
  471MOL0     H64961   9.565   9.430   8.443  0.9379 -0.2039  1.1018
  471MOL0     H64962   9.449   9.461   8.257  0.0957  0.4149  0.6178
  471MOL0     H64963   9.453   9.283   8.267 -3.5171 -2.1478  3.0091
  471MOL0     H64964   9.200   9.309   8.181 -2.7514  2.7048 -1.4812
  471MOL0     H64965   9.244   9.462   8.123 -0.2652 -0.5377 -3.5086
  471MOL0     H64966   9.260   9.310   7.945 -0.6787  0.2491  0.2894
  471MOL0     H64967   9.365   9.206   8.033 -1.4248  0.3260  3.4554
  471MOL0     H64968   9.541   9.378   8.032  1.3589 -0.5602 -1.9126
  471MOL0     H64969   9.433   9.501   7.979 -2.3628 -0.3315  1.4479
  471MOL0     H64970   9.578   9.432   7.792  2.5270 -3.1835 -0.6029
  471MOL0     H64971   9.510   9.261   7.808 -3.3126 -0.4553 -1.5548
  471MOL0     H64972   9.300   9.322   7.722  0.0174 -0.1369  0.7796
  471MOL0     H64973   9.423   9.387   7.612  0.3259 -0.3878  0.2502
  471MOL0     H64974   9.405   9.615   7.733  1.2084 -0.9760  0.6687
  471MOL0     H64975   9.277   9.553   7.821  0.2709  5.4387 -0.4328
  471MOL0     H64976   9.152   9.483   7.605  1.5614 -0.8525 -0.0915
  471MOL0     H64977   9.287   9.556   7.520  1.0238 -0.8123 -0.7187
  471MOL0     H64978   9.188   9.321   8.610  0.9438 -2.5473 -0.0882
  471MOL0     H64979   9.286   9.291   8.835  0.9561 -1.9951 -0.5364
  471MOL0     H64980   9.461   9.271   9.141 -0.9474  1.0148  1.3169
  471MOL0     H64981   9.558   9.162   9.350  1.3663 -0.8955 -1.0575
  471MOL0     H64982  10.755   9.687  10.991  0.5545 -5.1701  2.0215
  471MOL0     H64983  10.747   9.817  11.199 -0.6879 -0.6224  2.4858
  471MOL0     H64984  10.743  10.122  11.520  1.1761 -1.4565 -1.2469
  471MOL0     H64985  10.711  10.222  11.758 -2.0222  3.4555 -2.7283
  471MOL0     H64986  10.392  10.067  12.040 -0.6806  1.8809 -0.6452
  471MOL0     H64987  10.535   9.979  12.005 -0.2350 -0.7202 -1.9295
  471MOL0     H64988  10.530  10.092  12.223 -3.4477  0.2271 -0.6976
  471MOL0     H64989  10.529  10.245  12.138 -3.2047 -1.3397 -0.8800
  471MOL0     H64990  10.740  10.051  12.070  1.9005  0.2795 -0.0853
  471MOL0     H64991  10.753  10.230  12.055 -0.0012 -0.2656 -0.5606
  471MOL0     H64992  10.793  10.061  12.310 -2.0902  1.3650  0.2985
  471MOL0     H64993  10.779  10.232  12.305 -0.7028 -0.3317  0.3748
  471MOL0     H64994  11.187  10.176  12.242  0.4903 -1.6078 -0.5134
  471MOL0     H64995  10.346  10.010  11.784 -0.8613  0.4128 -3.1676
  471MOL0     H64996  10.244   9.920  11.622  1.4547 -1.0379  0.7348
  471MOL0     H64997  10.302   9.906  11.452 -3.1423 -0.2134  0.4397
  471MOL0     H64998  10.351   9.783  11.575  0.1186 -1.2162 -1.4836
  472MOL0     O64999   9.262   1.266   5.698  0.6519 -0.2786 -0.5809
  472MOL0     C65000   9.218   1.308   5.592 -0.1877 -0.4066  0.3686
  472MOL0     O65001   9.296   1.343   5.487  0.3064  0.5030  0.4813
  472MOL0     C65002   9.436   1.332   5.507  1.0006  0.1396  0.3425
  472MOL0     C65003   9.505   1.379   5.622  0.6474 -1.1268  0.5208
  472MOL0     C65004   9.650   1.374   5.627  0.2235 -0.3101 -0.6542
  472MOL0     C65005   9.725   1.302   5.531 -0.6338  0.1103  0.4889
  472MOL0     O65006   9.857   1.280   5.551  0.0566  0.2606  0.1602
  472MOL0     C65007   9.928   1.204   5.455 -0.1529  0.5112  0.2537
  472MOL0     C65008  10.061   1.181   5.529 -0.6104  0.0938  0.5870
  472MOL0     C65009  10.158   1.095   5.450  0.4520 -0.6102  0.3207
  472MOL0     C65010  10.300   1.079   5.510 -0.3866 -0.4875 -0.2005
  472MOL0     C65011  10.386   0.969   5.447  0.0418 -0.5750 -0.9087
  472MOL0     C65012  10.526   0.946   5.521 -0.6507 -0.4353 -0.0338
  472MOL0     C65013  10.574   0.806   5.490  0.1089  0.8322  0.1172
  472MOL0     C65014  10.670   0.757   5.599  0.3758 -0.0179  0.0641
  472MOL0     N65015  10.707   0.622   5.551  1.0464 -1.0883 -0.4172
  472MOL0     C65016  10.798   0.595   5.446 -0.1989  0.6931 -0.8946
  472MOL0     C65017  10.847   0.475   5.474  0.8096  0.4612 -0.5957
  472MOL0     C65018  10.951   0.409   5.393 -0.0465 -0.0334  0.3434
  472MOL0     C65019  11.030   0.293   5.465 -0.0437 -0.1280 -0.6036
  472MOL0     C65020  11.147   0.258   5.378 -0.8122  0.1191 -0.2964
  472MOL0     C65021  11.209   0.123   5.427 -0.2722  0.2246 -0.2138
  472MOL0     O65022  11.324   0.092   5.346  0.2992 -0.4554 -0.3759
  472MOL0     C65023  11.451   0.139   5.373  0.1013 -1.1947  0.2128
  472MOL0     C65024  11.489   0.233   5.468  0.1330 -0.9009 -0.9867
  472MOL0     C65025  11.620   0.276   5.489 -0.0644 -0.9907  0.0768
  472MOL0     C65026  11.650   0.391   5.590 -0.2286  0.0062  0.2814
  472MOL0     C65027  11.727   0.228   5.408  0.9817 -0.5913 -0.2902
  472MOL0     C65028  11.869   0.261   5.410 -0.1759  0.9472 -0.0519
  472MOL0     O65029  11.946   0.285   5.305  1.5226  0.2053 -0.0531
  472MOL0     C65030  12.075   0.311   5.335  0.5770 -0.4955 -1.0876
  472MOL0     C65031  12.130   0.435   5.301 -0.2971 -1.1702  0.2621
  472MOL0     C65032  12.268   0.456   5.314  0.1001 -0.3877 -0.7638
  472MOL0     C65033  12.355   0.354   5.375  0.1701 -0.2926  0.3156
  472MOL0     O65034  12.487   0.368   5.399  0.7158 -0.3732  0.2299
  472MOL0     C65035  12.551   0.447   5.298 -0.2254  0.8255 -0.2774
  472MOL0     C65036  12.699   0.410   5.319 -0.1011 -0.5913 -0.5079
  472MOL0     C65037  12.782   0.485   5.209 -0.5287 -0.0945 -0.1070
  472MOL0     C65038  12.930   0.478   5.258 -0.0782  0.5562 -0.0291
  472MOL0     C65039  13.028   0.525   5.143 -0.1109 -0.0450  1.1797
  472MOL0     C65040  13.126   0.621   5.190  0.9147 -0.1876 -0.3450
  472MOL0     C65041  13.243   0.632   5.086 -0.3499 -0.2283  0.6244
  472MOL0     C65042  13.211   0.732   4.970  0.3791  0.6254 -1.2446
  472MOL0    Cl65043  13.317   0.677   4.829 -0.0357 -0.1054  0.1265
  472MOL0     C65044  12.295   0.241   5.418 -0.0422 -0.4163  0.6419
  472MOL0     C65045  12.162   0.212   5.383  0.2573 -0.1034 -0.5339
  472MOL0     O65046  11.908   0.266   5.530  0.1659  0.0849 -0.1010
  472MOL0     C65047  11.689   0.129   5.316 -0.6192 -0.2136 -0.0185
  472MOL0     C65048  11.554   0.084   5.300  0.8272 -0.0119 -0.6505
  472MOL0     N65049  10.781   0.419   5.585 -0.6433 -0.8274  0.1356
  472MOL0     N65050  10.699   0.518   5.633 -0.0279 -1.4149  0.8253
  472MOL0     C65051   9.649   1.252   5.421 -0.3959  0.2280  0.4635
  472MOL0     C65052   9.515   1.275   5.401 -0.2727 -0.4856  0.1902
  472MOL0     C65053   9.070   1.312   5.573  0.2563 -0.5872 -0.1824
  472MOL0     C65054   9.008   1.380   5.462 -1.1633  0.0924 -0.6001
  472MOL0     C65055   8.870   1.384   5.445 -0.3333  0.0785 -0.3829
  472MOL0     C65056   8.784   1.343   5.547  0.2883  0.5381  1.0416
  472MOL0     O65057   8.657   1.392   5.526 -0.4106  0.3561  0.5128
  472MOL0     C65058   8.553   1.380   5.630 -0.6198  0.5311  0.6332
  472MOL0     C65059   8.502   1.515   5.676  0.2489 -0.8788  0.5188
  472MOL0     C65060   8.622   1.579   5.746 -0.2267  0.5484  0.1360
  472MOL0     C65061   8.584   1.719   5.779 -0.8611 -0.1638  0.4548
  472MOL0     C65062   8.704   1.793   5.827 -0.0220  0.1402  0.7052
  472MOL0     C65063   8.799   1.866   5.858 -0.6378  0.9258 -0.1120
  472MOL0     C65064   8.835   1.279   5.662  0.4736  0.5102  0.8646
  472MOL0     C65065   8.979   1.249   5.671 -0.6494  0.0789 -0.0790
  472MOL0     C65066   9.028   1.158   5.790 -0.2395 -0.6156  0.4581
  472MOL0     H65067   9.449   1.433   5.698  0.2796 -1.9820  0.8654
  472MOL0     H65068   9.717   1.407   5.706  1.2253 -2.1049 -0.6895
  472MOL0     H65069   9.938   1.256   5.359 -0.0377 -0.6422 -0.3750
  472MOL0     H65070   9.887   1.107   5.426 -1.4850  1.0665  0.2200
  472MOL0     H65071  10.116   1.274   5.546  0.6146  0.1194 -2.6736
  472MOL0     H65072  10.047   1.136   5.627 -1.3798  0.7949  0.8113
  472MOL0     H65073  10.107   0.998   5.455 -0.5103 -0.2515 -1.8031
  472MOL0     H65074  10.166   1.128   5.346 -4.8754  2.0611  0.4578
  472MOL0     H65075  10.361   1.170   5.514 -1.7422  0.4126  0.8048
  472MOL0     H65076  10.297   1.058   5.617  0.7581  2.1518  0.4483
  472MOL0     H65077  10.418   1.013   5.353  1.2616  0.5499 -0.0067
  472MOL0     H65078  10.329   0.876   5.437  0.7437 -1.4347  1.9517
  472MOL0     H65079  10.594   1.023   5.485 -2.1029  0.2705 -1.3811
  472MOL0     H65080  10.518   0.958   5.630  1.8291 -0.0097  0.1673
  472MOL0     H65081  10.621   0.804   5.392  0.6622 -0.2059  0.3877
  472MOL0     H65082  10.489   0.737   5.487  0.8973 -0.2988  1.8891
  472MOL0     H65083  10.755   0.825   5.611  1.3302 -0.8101 -1.8608
  472MOL0     H65084  10.635   0.737   5.701  2.4213 -3.4516  0.2363
  472MOL0     H65085  10.826   0.660   5.364 -4.1932  1.0033 -2.2248
  472MOL0     H65086  11.016   0.493   5.369  0.0113 -0.3205 -0.5217
  472MOL0     H65087  10.921   0.377   5.293  1.2273  1.0438 -0.4118
  472MOL0     H65088  11.061   0.323   5.566  1.7944 -1.4892 -0.6983
  472MOL0     H65089  10.967   0.204   5.474  1.5112 -1.2670 -0.5838
  472MOL0     H65090  11.114   0.250   5.274 -2.2600  1.1825  0.0425
  472MOL0     H65091  11.229   0.331   5.384  0.6177 -1.4945  0.6755
  472MOL0     H65092  11.224   0.139   5.534 -0.8631 -1.1846  0.1156
  472MOL0     H65093  11.135   0.043   5.410  2.3048 -2.3387 -0.0591
  472MOL0     H65094  11.416   0.281   5.533  1.2832 -1.2265  0.6079
  472MOL0     H65095  11.745   0.441   5.568  0.2691 -1.3990 -0.8421
  472MOL0     H65096  11.667   0.345   5.688 -1.7692  0.0553  0.5965
  472MOL0     H65097  11.573   0.468   5.606  1.8197  1.8379  1.9582
  472MOL0     H65098  12.061   0.501   5.249 -0.1538 -0.8455  0.4766
  472MOL0     H65099  12.309   0.552   5.283 -0.5154  0.0337 -0.2871
  472MOL0     H65100  12.519   0.412   5.199 -1.2849 -1.3437  0.7685
  472MOL0     H65101  12.535   0.555   5.302  1.5345  1.2107 -1.9935
  472MOL0     H65102  12.711   0.458   5.416 -4.1865  0.9472 -0.5432
  472MOL0     H65103  12.717   0.303   5.324  4.5763  0.0148 -0.2395
  472MOL0     H65104  12.758   0.592   5.210  3.0339  0.8125 -0.0743
  472MOL0     H65105  12.760   0.438   5.113 -0.2032  1.2645 -0.8754
  472MOL0     H65106  12.948   0.374   5.288 -0.4169  0.0370 -1.5421
  472MOL0     H65107  12.945   0.546   5.342 -0.1425  0.0026  0.4383
  472MOL0     H65108  13.082   0.436   5.110 -0.6837  0.7620 -2.2481
  472MOL0     H65109  12.974   0.578   5.063  2.0959  1.1137  0.3823
  472MOL0     H65110  13.159   0.589   5.289  1.1834 -0.7017 -0.5998
  472MOL0     H65111  13.080   0.720   5.192 -0.7921 -0.9494  1.1344
  472MOL0     H65112  13.269   0.536   5.043  0.7772  0.0655  0.6316
  472MOL0     H65113  13.336   0.676   5.124  0.9926 -0.9450 -1.6481
  472MOL0     H65114  13.252   0.827   5.003  0.5357  0.1681 -0.0546
  472MOL0     H65115  13.106   0.738   4.938 -0.0463 -3.2512 -1.1378
  472MOL0     H65116  12.343   0.164   5.478 -0.6872 -0.9160  0.5325
  472MOL0     H65117  12.123   0.115   5.409  0.0666  0.0641 -0.1785
  472MOL0     H65118  11.768   0.096   5.250 -0.6449  1.0369 -0.7039
  472MOL0     H65119  11.523   0.020   5.218 -0.9556  1.1108 -0.9044
  472MOL0     H65120   9.703   1.205   5.339  1.0824  4.2395 -1.1292
  472MOL0     H65121   9.467   1.237   5.311 -0.8975 -1.5786  0.9509
  472MOL0     H65122   9.078   1.444   5.411  0.4339 -0.1759  1.1643
  472MOL0     H65123   8.848   1.444   5.357  2.9354 -1.2535 -2.3232
  472MOL0     H65124   8.468   1.334   5.580 -0.4251  0.5521  0.2740
  472MOL0     H65125   8.587   1.324   5.717 -0.7946 -2.4404 -1.1055
  472MOL0     H65126   8.422   1.501   5.749  0.1045  1.0995  0.7757
  472MOL0     H65127   8.469   1.576   5.591  3.1025  1.6905  1.0786
  472MOL0     H65128   8.651   1.520   5.833  2.5010  0.5540 -0.6721
  472MOL0     H65129   8.703   1.583   5.673 -0.4562 -2.5605 -0.4024
  472MOL0     H65130   8.508   1.721   5.859 -0.7193  0.1843  0.5820
  472MOL0     H65131   8.556   1.768   5.685  4.3727  1.5438 -0.5529
  472MOL0     H65132   8.885   1.927   5.872  0.2531  0.1811 -1.9739
  472MOL0     H65133   8.769   1.250   5.743 -2.2750  0.7615 -1.1600
  472MOL0     H65134   9.074   1.231   5.857 -1.0251 -0.5293  0.9238
  472MOL0     H65135   8.952   1.101   5.844  1.3226  0.4671  4.0834
  472MOL0     H65136   9.094   1.077   5.758 -0.0321  0.2499 -1.4451
  473MOL0     O65137   2.024   0.196   9.845 -0.0795  0.4225  0.7300
  473MOL0     C65138   1.992   0.088   9.777  0.2161 -0.4854 -0.1876
  473MOL0     O65139   1.861   0.050   9.763  0.5380 -0.6055 -0.0627
  473MOL0     C65140   1.764   0.125   9.827 -0.0261 -0.7326 -0.5692
  473MOL0     C65141   1.732   0.110   9.966 -0.4812 -0.9127 -0.3987
  473MOL0     C65142   1.630   0.188  10.026  0.3519 -0.3738 -0.9287
  473MOL0     C65143   1.562   0.281   9.944 -0.3572 -0.4678  0.1084
  473MOL0     O65144   1.459   0.350  10.006  0.1546  0.2719 -0.3902
  473MOL0     C65145   1.444   0.485   9.981 -0.5407  0.5662  0.3323
  473MOL0     C65146   1.340   0.550  10.072 -0.3301  0.6746 -0.9810
  473MOL0     C65147   1.314   0.696  10.047  0.0949 -0.5663  0.2334
  473MOL0     C65148   1.429   0.786  10.093 -0.0604 -0.3939 -0.5092
  473MOL0     C65149   1.398   0.938  10.080  0.2314 -0.5158 -0.3293
  473MOL0     C65150   1.512   1.032  10.101  0.7102  0.5388 -0.7578
  473MOL0     C65151   1.483   1.178  10.060  0.3448 -0.4165  0.4359
  473MOL0     C65152   1.584   1.275  10.113  0.3878  0.9797 -1.0287
  473MOL0     N65153   1.539   1.418  10.111 -0.4556 -0.0110 -0.4765
  473MOL0     C65154   1.512   1.499  10.222  0.9340  0.9044 -0.7906
  473MOL0     C65155   1.494   1.616  10.171  0.4187 -0.4961 -0.8066
  473MOL0     C65156   1.486   1.738  10.261  0.1922 -1.1659 -0.7588
  473MOL0     C65157   1.598   1.831  10.218  0.1031  0.6819  0.2505
  473MOL0     C65158   1.577   1.963  10.283  0.1201  0.7553 -0.3446
  473MOL0     C65159   1.673   2.065  10.222  0.3847 -0.0105 -0.5320
  473MOL0     O65160   1.649   2.194  10.282 -0.3281 -1.0805  0.5782
  473MOL0     C65161   1.696   2.310  10.221 -0.9304 -0.6359  1.2554
  473MOL0     C65162   1.631   2.435  10.244  0.1727  0.4723  0.6894
  473MOL0     C65163   1.651   2.557  10.178  0.8848  0.6728  0.4471
  473MOL0     C65164   1.564   2.673  10.217  0.1144 -0.2946  0.8107
  473MOL0     C65165   1.751   2.559  10.078  1.4962 -0.1835 -0.3353
  473MOL0     C65166   1.782   2.676   9.992 -0.2042 -0.4891  0.3795
  473MOL0     O65167   1.890   2.671   9.910 -0.0793  0.5045  0.4809
  473MOL0     C65168   1.920   2.764   9.810 -0.5101  0.4246 -0.0617
  473MOL0     C65169   1.827   2.815   9.722  0.0442 -0.3846 -0.5821
  473MOL0     C65170   1.858   2.906   9.627 -1.3791  0.0266  0.2405
  473MOL0     C65171   1.998   2.930   9.598  0.6184  0.1043  0.9074
  473MOL0     O65172   2.034   3.014   9.489  0.5172  0.2249  0.2535
  473MOL0     C65173   2.139   3.098   9.506 -0.5034 -0.1527  0.0689
  473MOL0     C65174   2.259   3.037   9.422 -0.6623  0.0750  0.7983
  473MOL0     C65175   2.392   3.117   9.405 -0.3365  1.0272 -0.1720
  473MOL0     C65176   2.489   3.096   9.521 -0.2446  0.6186 -0.1186
  473MOL0     C65177   2.633   3.140   9.484 -0.9306 -0.5777 -0.5662
  473MOL0     C65178   2.635   3.293   9.460  0.1899 -1.0350 -0.5756
  473MOL0     C65179   2.785   3.346   9.488  0.1140  0.5644  0.1423
  473MOL0     C65180   2.806   3.498   9.476 -0.9566  0.1246  0.4322
  473MOL0    Cl65181   2.980   3.527   9.466  0.1008  0.0743  0.3723
  473MOL0     C65182   2.097   2.860   9.673 -0.8167 -0.6141 -0.7493
  473MOL0     C65183   2.058   2.786   9.782 -0.1185  0.7339  0.7854
  473MOL0     O65184   1.699   2.769   9.993  0.0651  0.8586  0.6931
  473MOL0     C65185   1.824   2.436  10.048 -0.7050  0.4006 -0.7476
  473MOL0     C65186   1.797   2.324  10.125  0.0320 -0.0681 -0.0716
  473MOL0     N65187   1.512   1.614  10.034  0.1426 -0.9464 -0.3265
  473MOL0     N65188   1.523   1.492  10.001 -0.2054 -0.9888 -0.3464
  473MOL0     C65189   1.604   0.308   9.807 -0.1867  0.3021  1.1716
  473MOL0     C65190   1.697   0.225   9.750 -0.3674 -0.1578 -0.0543
  473MOL0     C65191   2.099   0.000   9.736 -0.4488  0.5630  1.0556
  473MOL0     C65192   2.050  -0.132   9.699  0.0567 -0.1150 -0.3484
  473MOL0     C65193   2.145  -0.220   9.649 -0.4610  0.5252 -1.0082
  473MOL0     C65194   2.284  -0.192   9.652  0.3253  0.4084 -0.7614
  473MOL0     O65195   2.380  -0.283   9.610  0.9563  0.2054  0.6227
  473MOL0     C65196   2.374  -0.423   9.663 -0.4527 -1.3814  0.4463
  473MOL0     C65197   2.508  -0.457   9.733  0.6137 -0.8284  0.5171
  473MOL0     C65198   2.542  -0.368   9.850  0.9732 -0.1306  0.1271
  473MOL0     C65199   2.674  -0.409   9.910 -0.9654  0.1412 -0.1674
  473MOL0     C65200   2.784  -0.366   9.829 -0.0539 -0.6954 -0.8509
  473MOL0     C65201   2.882  -0.324   9.775 -0.1632  0.3064  0.3758
  473MOL0     C65202   2.318  -0.063   9.685  1.0895 -1.0899  0.6813
  473MOL0     C65203   2.234   0.031   9.729  0.3804 -0.0769  0.3383
  473MOL0     C65204   2.297   0.157   9.774 -0.1557  0.6146 -1.0236
  473MOL0     H65205   1.796   0.049  10.029  2.2472  1.9553 -0.1570
  473MOL0     H65206   1.614   0.188  10.133 -0.0748 -0.1177 -0.9913
  473MOL0     H65207   1.428   0.501   9.874 -0.3767 -2.9999 -0.3465
  473MOL0     H65208   1.540   0.534   9.997 -0.6309  0.7829  0.2084
  473MOL0     H65209   1.241   0.503  10.060  1.5500 -3.9901 -0.4682
  473MOL0     H65210   1.364   0.526  10.176 -1.0108 -1.8837 -1.3415
  473MOL0     H65211   1.289   0.709   9.941  0.2020 -0.5201  0.2143
  473MOL0     H65212   1.216   0.719  10.090 -0.1134 -1.2885  0.1552
  473MOL0     H65213   1.477   0.772  10.191  0.3192  2.6639 -0.1768
  473MOL0     H65214   1.509   0.763  10.022  2.6459 -1.7670  2.6978
  473MOL0     H65215   1.317   0.967  10.148 -1.3794  1.8254 -3.0147
  473MOL0     H65216   1.368   0.960   9.977 -0.6262  1.1173  0.2196
  473MOL0     H65217   1.537   1.034  10.208 -1.5875  0.4562 -0.1564
  473MOL0     H65218   1.592   0.996  10.036 -0.4272 -3.4786 -0.1882
  473MOL0     H65219   1.383   1.213  10.089  1.4606  0.5353  3.5241
  473MOL0     H65220   1.489   1.188   9.952  3.3490 -1.7704  0.3732
  473MOL0     H65221   1.616   1.253  10.215 -0.7136  0.2480 -0.8280
  473MOL0     H65222   1.672   1.255  10.052  0.4079 -2.2964 -0.0832
  473MOL0     H65223   1.493   1.469  10.324 -2.2143  1.3824 -1.1528
  473MOL0     H65224   1.498   1.714  10.367 -1.1699 -0.2171 -0.3609
  473MOL0     H65225   1.389   1.786  10.244  0.2059  1.2623  4.1812
  473MOL0     H65226   1.701   1.800  10.233  0.5622  1.4851 -1.0313
  473MOL0     H65227   1.593   1.835  10.108 -1.4853  0.3248  0.2779
  473MOL0     H65228   1.478   2.008  10.265 -0.1887  1.5082  2.5725
  473MOL0     H65229   1.596   1.962  10.391 -3.3679  0.6065  0.3960
  473MOL0     H65230   1.778   2.035  10.233 -0.1870 -1.6290  1.0467
  473MOL0     H65231   1.651   2.069  10.115  0.7870  1.7119 -0.5803
  473MOL0     H65232   1.567   2.419  10.330 -0.9684 -0.4441 -0.2882
  473MOL0     H65233   1.631   2.755  10.245  0.9004 -0.9678  0.9726
  473MOL0     H65234   1.494   2.643  10.295 -1.7633 -0.2893 -0.8048
  473MOL0     H65235   1.503   2.706  10.133  0.5204 -0.0997  0.5885
  473MOL0     H65236   1.726   2.781   9.742  0.1742 -0.9282 -0.8248
  473MOL0     H65237   1.779   2.961   9.575 -1.7865 -0.5729  0.2223
  473MOL0     H65238   2.105   3.199   9.480 -1.1717 -0.6421 -1.0427
  473MOL0     H65239   2.166   3.099   9.612  2.6204 -2.5096 -0.5693
  473MOL0     H65240   2.290   2.941   9.465  3.2541  1.2643  0.9699
  473MOL0     H65241   2.227   3.001   9.324 -1.7147 -2.2542  1.9026
  473MOL0     H65242   2.367   3.224   9.399 -0.5474  0.8756 -3.1537
  473MOL0     H65243   2.431   3.091   9.307 -3.2374 -4.0091 -0.3026
  473MOL0     H65244   2.497   2.991   9.552 -0.5931  0.9427  1.1310
  473MOL0     H65245   2.467   3.141   9.618  1.3807 -1.0257  1.0904
  473MOL0     H65246   2.702   3.123   9.567 -2.1585  1.1100  0.8757
  473MOL0     H65247   2.671   3.084   9.398  2.1023  0.3088  0.0938
  473MOL0     H65248   2.564   3.344   9.525 -0.8309 -0.3682 -2.1405
  473MOL0     H65249   2.602   3.318   9.359 -1.6174  0.8729  0.4130
  473MOL0     H65250   2.852   3.297   9.416 -0.9564 -1.8337  0.6696
  473MOL0     H65251   2.817   3.312   9.587 -0.5878 -3.2976 -0.8122
  473MOL0     H65252   2.761   3.549   9.562 -0.0589  0.3570  0.7801
  473MOL0     H65253   2.756   3.535   9.387 -0.7574 -3.4553 -1.3438
  473MOL0     H65254   2.205   2.867   9.658 -0.8300 -0.5197 -0.8040
  473MOL0     H65255   2.137   2.750   9.846 -0.3098 -0.1377  0.5413
  473MOL0     H65256   1.899   2.421   9.971 -1.0594  1.0172 -1.2182
  473MOL0     H65257   1.843   2.228  10.105 -1.6842 -0.9400  0.0104
  473MOL0     H65258   1.590   0.397   9.748 -1.5158 -0.4977  0.2275
  473MOL0     H65259   1.729   0.229   9.646 -1.4358 -3.6881 -0.6588
  473MOL0     H65260   1.944  -0.154   9.702 -0.0347  0.2948 -0.5166
  473MOL0     H65261   2.116  -0.322   9.623  0.0112 -0.7515  2.9400
  473MOL0     H65262   2.291  -0.424   9.736 -0.5015  0.1599  0.4486
  473MOL0     H65263   2.359  -0.489   9.578 -2.7507 -0.4333  0.0265
  473MOL0     H65264   2.583  -0.456   9.654 -2.4073 -1.3970 -2.6178
  473MOL0     H65265   2.503  -0.561   9.767  1.8925 -0.9318  0.4392
  473MOL0     H65266   2.547  -0.262   9.821  1.9674 -0.1211  0.2792
  473MOL0     H65267   2.465  -0.378   9.927 -1.1312  0.9899 -1.7216
  473MOL0     H65268   2.670  -0.517   9.929 -4.9735  0.4983  2.1562
  473MOL0     H65269   2.687  -0.364  10.009  0.2353  2.8256 -1.4197
  473MOL0     H65270   2.973  -0.279   9.739 -1.1136  1.1254 -1.1012
  473MOL0     H65271   2.421  -0.036   9.665  1.7276 -2.3479  2.0411
  473MOL0     H65272   2.240   0.242   9.734 -0.7639  0.0377 -1.4012
  473MOL0     H65273   2.310   0.159   9.882  1.9630 -3.4481 -1.0238
  473MOL0     H65274   2.401   0.172   9.745  0.0042  0.0869 -0.7392
  474MOL0     O65275   1.387   8.858   1.991 -0.1843 -0.4196 -0.3814
  474MOL0     C65276   1.487   8.792   2.017  0.6237  0.4547  0.0233
  474MOL0     O65277   1.572   8.805   2.128 -0.2950  0.9861 -0.5113
  474MOL0     C65278   1.532   8.850   2.251  0.8997 -0.0358  1.1953
  474MOL0     C65279   1.630   8.900   2.335  0.5807 -0.4937  0.2635
  474MOL0     C65280   1.606   8.963   2.456 -0.0612  0.1816  0.4576
  474MOL0     C65281   1.469   8.972   2.490 -0.6260 -0.0807 -0.8107
  474MOL0     O65282   1.423   9.022   2.616 -0.0835 -0.1969 -0.0245
  474MOL0     C65283   1.509   9.096   2.704  0.7088 -0.6327 -0.7116
  474MOL0     C65284   1.426   9.185   2.803 -0.2242  0.5685  0.4567
  474MOL0     C65285   1.302   9.257   2.747  0.6756  1.2954  0.4869
  474MOL0     C65286   1.239   9.346   2.852  0.0681  0.1702 -0.6569
  474MOL0     C65287   1.129   9.426   2.802  0.0582 -0.1707 -0.1160
  474MOL0     C65288   1.177   9.551   2.714 -0.0259  0.0675  0.5478
  474MOL0     C65289   1.224   9.675   2.799 -0.1642  0.3773 -1.1731
  474MOL0     C65290   1.272   9.789   2.707 -0.3746 -0.2089  1.0260
  474MOL0     N65291   1.418   9.787   2.694 -0.6788  0.5797  0.7012
  474MOL0     C65292   1.495   9.742   2.588 -1.2534 -0.4994 -0.1076
  474MOL0     C65293   1.627   9.757   2.630 -1.2656  0.0483  0.0727
  474MOL0     C65294   1.750   9.719   2.551 -0.1279  0.4295 -0.4206
  474MOL0     C65295   1.771   9.790   2.424  0.7860  0.8447 -0.3871
  474MOL0     C65296   1.759   9.700   2.311  0.4968  0.5893 -0.9266
  474MOL0     C65297   1.860   9.588   2.292 -0.3965  0.3480  0.3557
  474MOL0     O65298   1.988   9.653   2.298  0.1027 -0.5906 -0.4095
  474MOL0     C65299   2.104   9.582   2.276 -0.0951 -0.2808 -0.4677
  474MOL0     C65300   2.113   9.444   2.278  0.0843  0.6004  0.2359
  474MOL0     C65301   2.227   9.371   2.259 -1.1436 -0.1943  0.5188
  474MOL0     C65302   2.228   9.226   2.272  0.1442  0.0941 -0.8343
  474MOL0     C65303   2.346   9.445   2.246  0.5367  0.8120 -0.2528
  474MOL0     C65304   2.488   9.393   2.227  0.3502 -0.0214  0.2447
  474MOL0     O65305   2.592   9.461   2.280  0.1030  0.4059  0.2115
  474MOL0     C65306   2.725   9.425   2.263 -0.8063  0.4250 -1.0613
  474MOL0     C65307   2.814   9.523   2.215 -0.8571  0.2398 -0.6248
  474MOL0     C65308   2.954   9.501   2.216  0.4700  0.9373  0.3971
  474MOL0     C65309   3.008   9.376   2.256  0.8150 -0.0990  0.6524
  474MOL0     O65310   3.136   9.330   2.238  0.1069 -0.3595 -0.2248
  474MOL0     C65311   3.236   9.426   2.201  0.3086 -0.0530 -0.4732
  474MOL0     C65312   3.380   9.368   2.195  0.7433 -0.7795 -0.4888
  474MOL0     C65313   3.468   9.479   2.148  0.0543 -0.2706  0.5011
  474MOL0     C65314   3.624   9.434   2.146  0.7201  0.7966 -0.7039
  474MOL0     C65315   3.711   9.535   2.079  0.0439  0.2039  1.1098
  474MOL0     C65316   3.858   9.486   2.082 -0.0655  0.0292 -0.6212
  474MOL0     C65317   3.963   9.582   2.018  0.0247  0.1904 -0.0580
  474MOL0     C65318   4.103   9.541   2.061  0.1836 -0.7025 -0.3434
  474MOL0    Cl65319   4.145   9.618   2.223 -0.1843  0.3723  0.0187
  474MOL0     C65320   2.917   9.280   2.307 -0.9946 -1.0385  0.4194
  474MOL0     C65321   2.780   9.299   2.306  0.9490 -0.7595  0.3944
  474MOL0     O65322   2.499   9.292   2.156  0.2735  0.3196  0.2257
  474MOL0     C65323   2.345   9.584   2.261 -0.3029  0.1606 -0.4222
  474MOL0     C65324   2.226   9.655   2.271  0.2156 -0.0692 -0.4409
  474MOL0     N65325   1.620   9.819   2.753 -0.5793  0.0145 -0.0270
  474MOL0     N65326   1.498   9.837   2.782  0.1911  0.1387 -0.2075
  474MOL0     C65327   1.364   8.922   2.415  0.7922  0.5645  0.0886
  474MOL0     C65328   1.395   8.857   2.293  0.0571  0.1460 -0.1412
  474MOL0     C65329   1.535   8.717   1.902 -0.2781 -0.1549  0.7592
  474MOL0     C65330   1.676   8.715   1.881  0.7862 -0.1662 -0.6228
  474MOL0     C65331   1.735   8.634   1.784 -0.0231  1.1499 -0.0148
  474MOL0     C65332   1.657   8.558   1.697  0.1439 -0.1950 -0.4327
  474MOL0     O65333   1.721   8.471   1.610 -0.5749 -0.0137 -0.2271
  474MOL0     C65334   1.785   8.521   1.494 -1.1321 -1.0676  0.6281
  474MOL0     C65335   1.932   8.474   1.487 -0.0950  0.0417 -0.0030
  474MOL0     C65336   1.999   8.490   1.350 -0.6884 -0.5421 -1.2642
  474MOL0     C65337   2.149   8.476   1.343 -0.1248  0.6488 -0.3181
  474MOL0     C65338   2.192   8.380   1.237  0.6829  0.0452 -0.0211
  474MOL0     C65339   2.234   8.304   1.147 -0.5178  0.2748  0.0950
  474MOL0     C65340   1.516   8.567   1.720 -0.2351 -0.2429  0.7375
  474MOL0     C65341   1.451   8.640   1.820  0.2032  0.8735  0.4217
  474MOL0     C65342   1.294   8.645   1.826 -0.6530 -0.7449 -0.0910
  474MOL0     H65343   1.735   8.903   2.308  1.1517  1.0317  2.3947
  474MOL0     H65344   1.681   9.004   2.523  0.9301 -0.5851 -0.1576
  474MOL0     H65345   1.571   9.163   2.644 -1.4738  2.0712 -0.1437
  474MOL0     H65346   1.572   9.034   2.768  0.6747 -0.8615 -0.8998
  474MOL0     H65347   1.393   9.124   2.887  0.5766  2.2091  2.0119
  474MOL0     H65348   1.492   9.265   2.837 -0.5162  1.1513 -0.3026
  474MOL0     H65349   1.327   9.321   2.661 -0.3833 -0.6806 -1.3809
  474MOL0     H65350   1.222   9.187   2.721  0.5725  1.8848 -0.8646
  474MOL0     H65351   1.193   9.287   2.932 -2.9666  0.8851 -1.7551
  474MOL0     H65352   1.317   9.404   2.903 -0.7949  1.4851 -0.7906
  474MOL0     H65353   1.077   9.462   2.892 -1.2014 -4.5677  1.1374
  474MOL0     H65354   1.060   9.356   2.754 -0.4895 -2.1534  3.2306
  474MOL0     H65355   1.262   9.523   2.651 -1.1388 -0.9097 -0.5817
  474MOL0     H65356   1.101   9.582   2.642  1.1855  2.3357  0.1664
  474MOL0     H65357   1.299   9.645   2.872 -0.4777 -2.5719 -1.9182
  474MOL0     H65358   1.145   9.720   2.859 -0.0102 -2.2070  1.1822
  474MOL0     H65359   1.230   9.780   2.606  0.8430 -3.0261  0.6691
  474MOL0     H65360   1.255   9.886   2.754 -0.0806 -0.6538  2.0716
  474MOL0     H65361   1.460   9.704   2.493 -1.3706  0.5805 -0.5069
  474MOL0     H65362   1.750   9.612   2.527  5.1775  1.0345 -5.3820
  474MOL0     H65363   1.838   9.737   2.614 -2.7952  1.0697  3.4474
  474MOL0     H65364   1.697   9.869   2.415 -0.3329 -0.3874 -2.7968
  474MOL0     H65365   1.871   9.834   2.421  1.9152 -1.3961  1.3440
  474MOL0     H65366   1.659   9.656   2.314  1.3086 -1.3365  1.2382
  474MOL0     H65367   1.754   9.765   2.224 -0.6400  0.8431 -0.6855
  474MOL0     H65368   1.861   9.500   2.356  0.9266 -0.1027 -0.2468
  474MOL0     H65369   1.859   9.556   2.187  0.4823  1.9425 -0.1798
  474MOL0     H65370   2.030   9.377   2.296 -0.9545  2.4709  3.0784
  474MOL0     H65371   2.275   9.183   2.182 -1.1925 -0.9671 -1.0455
  474MOL0     H65372   2.124   9.199   2.254  0.3313  0.7499 -3.3859
  474MOL0     H65373   2.273   9.197   2.367  0.1944 -0.7814 -1.1238
  474MOL0     H65374   2.787   9.622   2.181  1.3266  1.9492  2.0870
  474MOL0     H65375   3.006   9.584   2.171 -1.1866  1.6821 -0.2025
  474MOL0     H65376   3.202   9.468   2.106 -3.4607  1.5443  1.3668
  474MOL0     H65377   3.231   9.504   2.277 -2.0373 -1.2817  0.7839
  474MOL0     H65378   3.407   9.324   2.291 -0.5195  1.4551  0.9667
  474MOL0     H65379   3.392   9.286   2.123  0.3301 -1.6221  0.3952
  474MOL0     H65380   3.461   9.560   2.220  3.7325 -1.4700  2.4253
  474MOL0     H65381   3.436   9.519   2.051  0.4511  0.5076  0.6838
  474MOL0     H65382   3.636   9.338   2.096  1.8313 -0.5687  1.9761
  474MOL0     H65383   3.651   9.420   2.251  0.7763  0.9122 -0.7029
  474MOL0     H65384   3.689   9.550   1.973  1.0722 -0.2590  0.8148
  474MOL0     H65385   3.699   9.627   2.136 -0.8397 -1.3102  3.5327
  474MOL0     H65386   3.870   9.384   2.042 -2.2924  0.0740 -1.5253
  474MOL0     H65387   3.880   9.478   2.189 -1.0899 -0.0118 -0.4017
  474MOL0     H65388   3.943   9.687   2.038 -0.0620 -0.0296  1.0491
  474MOL0     H65389   3.953   9.573   1.909 -1.8877 -2.0063  0.2068
  474MOL0     H65390   4.174   9.589   1.993 -1.2968 -0.3555 -1.7056
  474MOL0     H65391   4.121   9.433   2.055  2.7726 -0.3290 -0.7061
  474MOL0     H65392   2.956   9.189   2.352  1.6376  0.4480  1.4269
  474MOL0     H65393   2.712   9.219   2.333  1.1029 -1.3902 -0.9773
  474MOL0     H65394   2.436   9.643   2.265 -0.0468 -0.1950 -0.9039
  474MOL0     H65395   2.229   9.763   2.280  1.4743 -0.0336 -1.1300
  474MOL0     H65396   1.260   8.932   2.443  0.6101 -0.7128 -0.1079
  474MOL0     H65397   1.316   8.811   2.235 -2.1443  2.0190  1.2062
  474MOL0     H65398   1.733   8.791   1.932 -2.0829  2.7005 -1.3732
  474MOL0     H65399   1.842   8.651   1.782  0.2975  0.0719  2.8455
  474MOL0     H65400   1.741   8.486   1.400  0.8460 -1.7336 -0.0942
  474MOL0     H65401   1.784   8.630   1.481  0.3443 -0.9345  1.3797
  474MOL0     H65402   1.951   8.374   1.527  0.1121 -0.4772 -1.3525
  474MOL0     H65403   2.000   8.528   1.554  1.7761 -0.6079 -1.2983
  474MOL0     H65404   1.946   8.422   1.283  0.5335 -1.7320 -1.0793
  474MOL0     H65405   1.977   8.593   1.320 -1.5770  0.3161  1.9535
  474MOL0     H65406   2.192   8.439   1.437 -2.0234  1.0132  0.7664
  474MOL0     H65407   2.199   8.573   1.330 -0.1300  0.5716 -0.9130
  474MOL0     H65408   2.263   8.234   1.071 -1.4560  0.5984 -0.5764
  474MOL0     H65409   1.456   8.507   1.652  2.3817 -5.1086  2.2308
  474MOL0     H65410   1.259   8.731   1.768 -1.6822 -0.1400  1.3631
  474MOL0     H65411   1.258   8.559   1.770 -1.6737  0.3676 -1.1914
  474MOL0     H65412   1.245   8.654   1.923  1.0414  1.2403  0.6642
  475MOL0     O65413   6.210   3.876   3.102  0.4365 -0.1239 -0.3625
  475MOL0     C65414   6.166   3.974   3.166 -0.4479  0.0070  0.7180
  475MOL0     O65415   6.222   4.042   3.261  0.8610  0.4630 -0.2123
  475MOL0     C65416   6.349   4.006   3.297  0.3025 -0.2738  0.0221
  475MOL0     C65417   6.363   3.899   3.388 -0.4732  0.1053 -0.6337
  475MOL0     C65418   6.491   3.833   3.404 -0.1230 -0.3768  0.1782
  475MOL0     C65419   6.603   3.898   3.350 -0.2209  0.0534  0.9348
  475MOL0     O65420   6.732   3.846   3.382  0.0067 -0.3641 -0.1011
  475MOL0     C65421   6.857   3.927   3.370 -0.4258 -0.2610  0.0749
  475MOL0     C65422   6.967   3.858   3.448  1.2072  0.6416  0.1834
  475MOL0     C65423   6.920   3.842   3.591  0.9150  0.2029  0.8074
  475MOL0     C65424   7.013   3.762   3.691 -0.9995  0.2201  0.1185
  475MOL0     C65425   6.995   3.812   3.835  0.2597 -0.3196  0.1611
  475MOL0     C65426   7.122   3.801   3.918  0.0023 -0.3352 -0.7971
  475MOL0     C65427   7.086   3.849   4.057 -0.2361  0.2822 -0.0921
  475MOL0     C65428   6.967   3.772   4.124  0.0071 -0.2047 -0.0778
  475MOL0     N65429   6.988   3.626   4.134  0.5149  0.0350 -0.1541
  475MOL0     C65430   7.103   3.569   4.192 -0.1506 -0.3140  0.8241
  475MOL0     C65431   7.090   3.437   4.156 -1.0232 -0.4373  0.0802
  475MOL0     C65432   7.186   3.329   4.179 -1.1550 -0.9707  0.4114
  475MOL0     C65433   7.337   3.363   4.194 -0.4645 -0.2731  1.1193
  475MOL0     C65434   7.435   3.235   4.195  0.2602 -0.5032 -0.2848
  475MOL0     C65435   7.582   3.272   4.212 -0.0039 -0.2554  0.0994
  475MOL0     O65436   7.634   3.174   4.300  0.2383 -0.4077 -0.0616
  475MOL0     C65437   7.757   3.207   4.342 -0.6128 -0.9808 -0.1389
  475MOL0     C65438   7.774   3.281   4.462 -0.2915  0.3138  0.2881
  475MOL0     C65439   7.897   3.292   4.527 -0.7229 -0.2236  0.0557
  475MOL0     C65440   7.914   3.356   4.666 -0.6287  0.3250 -0.3836
  475MOL0     C65441   8.012   3.245   4.462 -0.2461  0.1918 -0.3267
  475MOL0     C65442   8.156   3.257   4.495 -0.8083 -0.3396  0.1021
  475MOL0     O65443   8.252   3.170   4.434 -0.4245 -0.0498  0.4416
  475MOL0     C65444   8.382   3.172   4.477 -0.3259 -0.2607  0.1671
  475MOL0     C65445   8.426   3.119   4.600  0.4167 -0.5087  0.2077
  475MOL0     C65446   8.561   3.127   4.633 -0.1799 -0.0558 -0.8490
  475MOL0     C65447   8.658   3.177   4.549  0.6062 -0.2361  0.4110
  475MOL0     O65448   8.789   3.185   4.589 -0.3930 -0.8232  0.9080
  475MOL0     C65449   8.890   3.167   4.491 -0.1317  1.3353  0.9546
  475MOL0     C65450   8.925   3.011   4.485 -0.6100 -0.0610 -0.0727
  475MOL0     C65451   8.932   2.939   4.624 -0.5100 -0.3844 -0.4065
  475MOL0     C65452   9.074   2.966   4.691  0.8197  0.2602  1.4715
  475MOL0     C65453   9.089   2.931   4.841 -0.4317 -0.8927  0.2008
  475MOL0     C65454   9.088   2.771   4.865  0.0468 -0.5196 -0.0380
  475MOL0     C65455   9.020   2.740   5.001  0.5047 -0.3532 -1.0537
  475MOL0     C65456   8.931   2.620   4.998  0.4340  0.7084 -0.4300
  475MOL0    Cl65457   9.019   2.471   4.990  0.2379 -0.0722  0.6254
  475MOL0     C65458   8.608   3.247   4.432 -0.1320  0.3490 -0.6928
  475MOL0     C65459   8.474   3.236   4.396  0.7730 -0.7523  0.1417
  475MOL0     O65460   8.187   3.339   4.575 -0.8661 -0.3150 -0.3385
  475MOL0     C65461   7.988   3.172   4.343  0.3523 -0.3803 -0.1313
  475MOL0     C65462   7.861   3.152   4.284  0.4158 -0.9965 -0.1234
  475MOL0     N65463   6.977   3.416   4.086 -0.2715  0.2292 -0.5755
  475MOL0     N65464   6.921   3.530   4.061 -0.4250  0.6193 -0.2880
  475MOL0     C65465   6.589   4.026   3.275  0.4393 -0.5358  0.2925
  475MOL0     C65466   6.459   4.072   3.247  0.4057 -0.0773  0.1048
  475MOL0     C65467   6.025   4.022   3.127 -1.0173 -0.3665  0.3329
  475MOL0     C65468   5.955   4.106   3.217 -0.0259  0.4352 -0.9268
  475MOL0     C65469   5.827   4.159   3.202  0.6525 -0.5579  0.7004
  475MOL0     C65470   5.756   4.124   3.081 -0.1389 -0.4451  0.2316
  475MOL0     O65471   5.639   4.183   3.042  0.0508 -0.4364  0.0415
  475MOL0     C65472   5.585   4.285   3.127  0.5404  0.1965  0.3716
  475MOL0     C65473   5.433   4.292   3.090 -0.1654  0.6696  0.1078
  475MOL0     C65474   5.409   4.327   2.941  0.0016 -0.2062 -0.1026
  475MOL0     C65475   5.263   4.329   2.918  0.2880  0.1947  0.3728
  475MOL0     C65476   5.213   4.188   2.925  0.7717  0.1842 -0.1934
  475MOL0     C65477   5.179   4.070   2.943 -0.3428 -0.8198 -0.6226
  475MOL0     C65478   5.817   4.031   2.993 -0.6697  0.1661 -0.4123
  475MOL0     C65479   5.951   3.984   3.008  0.2893 -0.7176 -0.3947
  475MOL0     C65480   6.007   3.905   2.897 -0.7097  0.5393 -0.5289
  475MOL0     H65481   6.274   3.863   3.437 -0.1987  0.8977  0.4820
  475MOL0     H65482   6.502   3.736   3.451 -0.5417  0.0354  1.1451
  475MOL0     H65483   6.835   4.027   3.406 -4.0688 -1.4975  1.8449
  475MOL0     H65484   6.895   3.928   3.268 -0.4727 -0.1766  0.0584
  475MOL0     H65485   6.988   3.762   3.400 -0.7592  0.3906 -0.2683
  475MOL0     H65486   7.057   3.919   3.444  1.7844 -0.2489 -1.0375
  475MOL0     H65487   6.900   3.942   3.629  5.2820  1.7635 -0.3652
  475MOL0     H65488   6.820   3.798   3.593 -0.2721  2.6226 -1.0095
  475MOL0     H65489   6.987   3.656   3.679 -0.7979  0.4738 -3.8517
  475MOL0     H65490   7.118   3.773   3.664 -0.2067  1.4261  3.2219
  475MOL0     H65491   6.915   3.744   3.866  0.3328 -1.5251 -2.1098
  475MOL0     H65492   6.959   3.915   3.829  1.2580  0.2240  2.4237
  475MOL0     H65493   7.161   3.700   3.929 -0.8905 -0.5986  0.0662
  475MOL0     H65494   7.206   3.858   3.876  1.5015 -4.1690 -3.5839
  475MOL0     H65495   7.065   3.956   4.056  0.4200  0.4854  2.0934
  475MOL0     H65496   7.174   3.844   4.122 -0.6427  0.1872  0.4571
  475MOL0     H65497   6.960   3.808   4.227 -1.9110  1.3348 -0.6840
  475MOL0     H65498   6.876   3.792   4.066 -0.8264  0.4007  1.3858
  475MOL0     H65499   7.182   3.607   4.256  2.3575 -2.9549 -0.4744
  475MOL0     H65500   7.172   3.258   4.097  0.4091 -1.5900  0.6447
  475MOL0     H65501   7.158   3.281   4.273  1.0817 -1.0508  1.0910
  475MOL0     H65502   7.370   3.427   4.111 -1.1430 -0.6660  0.5344
  475MOL0     H65503   7.363   3.427   4.278  1.4622 -1.2220  1.3051
  475MOL0     H65504   7.400   3.171   4.277  0.5454  0.1133  0.3269
  475MOL0     H65505   7.420   3.184   4.099  1.1487  0.9452 -1.2370
  475MOL0     H65506   7.635   3.267   4.116  1.6236  0.2089  0.9396
  475MOL0     H65507   7.595   3.373   4.253 -0.9455 -0.9108  2.0972
  475MOL0     H65508   7.676   3.306   4.500 -0.1871  0.6138  0.3598
  475MOL0     H65509   7.818   3.391   4.705 -1.0062  0.8345 -1.6870
  475MOL0     H65510   7.981   3.441   4.655 -0.4964 -0.0308 -3.4326
  475MOL0     H65511   7.955   3.287   4.739 -2.6678 -1.5361 -0.8709
  475MOL0     H65512   8.356   3.073   4.669  1.3878  0.9458  2.2841
  475MOL0     H65513   8.605   3.096   4.727 -0.8207 -1.1937 -0.9046
  475MOL0     H65514   8.865   3.195   4.388 -0.5345  0.0531  0.6741
  475MOL0     H65515   8.984   3.219   4.511  0.6582  1.3528 -2.1679
  475MOL0     H65516   8.850   2.952   4.430  2.1291 -2.2559 -1.7138
  475MOL0     H65517   9.025   3.010   4.442  0.0477  0.1897  1.3758
  475MOL0     H65518   8.928   2.830   4.619 -0.5693 -0.5766  2.1897
  475MOL0     H65519   8.844   2.968   4.682 -0.4663  1.8135 -1.3620
  475MOL0     H65520   9.100   3.070   4.675 -0.2051  0.0774 -2.4096
  475MOL0     H65521   9.148   2.913   4.630 -1.4808  0.8056 -2.1388
  475MOL0     H65522   9.185   2.971   4.873 -0.4537  0.5876 -1.4650
  475MOL0     H65523   9.011   2.980   4.900  1.8822  1.4053  1.5907
  475MOL0     H65524   9.180   2.716   4.845 -1.2701 -2.7069 -0.3858
  475MOL0     H65525   9.014   2.736   4.793  0.2539 -1.0999  0.0265
  475MOL0     H65526   8.954   2.823   5.029  0.3623 -0.5790 -0.7155
  475MOL0     H65527   9.097   2.729   5.078 -2.1988  1.3751  2.1844
  475MOL0     H65528   8.862   2.622   4.913 -0.3145 -0.4527  0.1300
  475MOL0     H65529   8.868   2.611   5.086  0.3136 -1.8938 -0.7061
  475MOL0     H65530   8.678   3.285   4.358  0.1174 -0.5047 -0.9150
  475MOL0     H65531   8.434   3.272   4.301  1.3546 -1.3461 -0.3386
  475MOL0     H65532   8.070   3.131   4.286 -2.4377 -4.5708 -1.5991
  475MOL0     H65533   7.846   3.097   4.192  0.1497 -2.9592  1.0291
  475MOL0     H65534   6.670   4.083   3.231 -1.7524  1.8222 -0.9548
  475MOL0     H65535   6.441   4.161   3.187  0.4149 -0.0800  0.0976
  475MOL0     H65536   5.986   4.127   3.319  0.7904  0.3956 -1.1552
  475MOL0     H65537   5.793   4.227   3.280 -1.4067 -2.3933  1.5044
  475MOL0     H65538   5.592   4.267   3.235  0.8121 -1.6123  0.0759
  475MOL0     H65539   5.642   4.377   3.108  0.1911  0.2435 -0.5059
  475MOL0     H65540   5.381   4.361   3.157 -1.8914  2.4009 -2.7964
  475MOL0     H65541   5.403   4.189   3.107  0.3312  0.8895  2.6438
  475MOL0     H65542   5.450   4.428   2.933 -1.0139  0.4656  2.1818
  475MOL0     H65543   5.451   4.247   2.879  1.1832  0.0416  0.3644
  475MOL0     H65544   5.240   4.359   2.815  1.2818 -0.7317 -0.1392
  475MOL0     H65545   5.203   4.394   2.982  1.9541  1.2816  0.8948
  475MOL0     H65546   5.138   3.973   2.960 -2.7581  0.0168 -1.1675
  475MOL0     H65547   5.765   4.008   2.901  0.1967 -2.1127 -0.4004
  475MOL0     H65548   5.935   3.886   2.816 -1.1999 -2.1552  0.4200
  475MOL0     H65549   6.098   3.957   2.866 -1.0457  1.5417  0.1125
  475MOL0     H65550   6.038   3.805   2.928 -1.0561  0.1236 -1.4791
  476MOL0     O65551   6.789   6.944   8.201  0.7686  0.3672  0.0785
  476MOL0     C65552   6.734   6.842   8.225 -0.0334 -0.2385  0.3337
  476MOL0     O65553   6.797   6.725   8.229 -0.2813 -0.3849  0.4119
  476MOL0     C65554   6.933   6.736   8.198 -0.0714  0.9954  0.0224
  476MOL0     C65555   6.974   6.700   8.066 -0.9331  0.6179  1.3919
  476MOL0     C65556   7.111   6.700   8.033 -0.1926 -0.1003  0.4991
  476MOL0     C65557   7.203   6.758   8.115 -1.2582  0.4544  0.7842
  476MOL0     O65558   7.340   6.780   8.080  0.8139 -0.0648 -0.2245
  476MOL0     C65559   7.377   6.745   7.948 -0.7398 -0.1401 -0.6566
  476MOL0     C65560   7.385   6.596   7.905  0.0177  0.5184 -0.4892
  476MOL0     C65561   7.384   6.493   8.022 -0.3432  0.5668  0.2771
  476MOL0     C65562   7.524   6.493   8.093  0.1744  0.9822  0.0697
  476MOL0     C65563   7.515   6.448   8.245 -1.2447 -0.3438 -0.3766
  476MOL0     C65564   7.437   6.547   8.327 -0.0746  0.0883 -0.4844
  476MOL0     C65565   7.411   6.513   8.475 -0.2648 -0.2652 -0.6026
  476MOL0     C65566   7.302   6.414   8.497 -0.4850 -0.1643 -0.0504
  476MOL0     N65567   7.281   6.397   8.641  0.7133  0.2482  0.8768
  476MOL0     C65568   7.301   6.283   8.715 -0.8610 -0.0294  0.5362
  476MOL0     C65569   7.267   6.307   8.841 -0.4520 -0.1997 -0.1360
  476MOL0     C65570   7.262   6.211   8.959  0.0146  0.5898  0.0082
  476MOL0     C65571   7.186   6.077   8.928  0.0513 -0.2359  0.6460
  476MOL0     C65572   7.032   6.103   8.920 -0.6174  0.6478 -0.9156
  476MOL0     C65573   6.989   6.067   8.781 -0.5463 -0.0390  0.6162
  476MOL0     O65574   6.854   6.066   8.790  0.3711  0.4615  0.5701
  476MOL0     C65575   6.781   6.054   8.668 -0.0700 -0.2726 -0.4259
  476MOL0     C65576   6.817   5.969   8.562  0.0290  0.2438 -0.7383
  476MOL0     C65577   6.733   5.950   8.449 -0.2367  0.0168  0.8900
  476MOL0     C65578   6.771   5.881   8.315  0.0565 -0.5538  0.7711
  476MOL0     C65579   6.613   6.033   8.439  0.2941  0.4090 -0.0753
  476MOL0     C65580   6.537   6.057   8.322 -0.1788  1.3562  0.4637
  476MOL0     O65581   6.534   6.186   8.285  0.4204  0.1458  0.8734
  476MOL0     C65582   6.441   6.243   8.197 -0.8571  0.2030 -0.6727
  476MOL0     C65583   6.307   6.203   8.176 -1.3554  0.6441 -0.3650
  476MOL0     C65584   6.219   6.269   8.088 -0.0929  0.8844 -0.3306
  476MOL0     C65585   6.266   6.375   8.014 -0.8621 -0.1200  0.5350
  476MOL0     O65586   6.163   6.446   7.948 -0.5568  0.2745 -0.0367
  476MOL0     C65587   6.182   6.585   7.914  0.1605  1.2630  0.1539
  476MOL0     C65588   6.173   6.676   8.038 -0.0017 -0.3094 -0.7631
  476MOL0     C65589   6.175   6.830   7.990 -0.1583  0.0965 -0.1279
  476MOL0     C65590   6.102   6.875   7.870 -0.6239 -0.5418  1.2417
  476MOL0     C65591   6.109   7.031   7.869 -0.1337  0.9956  0.1853
  476MOL0     C65592   6.033   7.078   7.734 -0.1739  0.6393  0.6299
  476MOL0     C65593   6.018   7.227   7.741 -0.1600  0.5608 -0.6087
  476MOL0     C65594   5.972   7.277   7.599  0.4042 -0.2478 -0.2032
  476MOL0    Cl65595   5.814   7.196   7.559 -0.2268  0.2968 -0.0034
  476MOL0     C65596   6.396   6.422   8.031 -0.0491  0.2286 -0.4231
  476MOL0     C65597   6.478   6.351   8.122 -0.0776 -0.4422  0.1591
  476MOL0     O65598   6.470   5.967   8.281  0.2651 -0.7161  0.3139
  476MOL0     C65599   6.567   6.094   8.559  0.0441 -0.4593 -0.0056
  476MOL0     C65600   6.655   6.108   8.669  0.8264  0.7175  0.5175
  476MOL0     N65601   7.227   6.439   8.849  0.2188 -0.2834  0.2647
  476MOL0     N65602   7.223   6.487   8.730  0.5039 -0.1917  0.4388
  476MOL0     C65603   7.170   6.795   8.239  0.4638 -0.5551 -0.2351
  476MOL0     C65604   7.035   6.792   8.279  0.5163  0.9244 -0.6347
  476MOL0     C65605   6.589   6.845   8.270  0.3394 -0.0034 -0.4776
  476MOL0     C65606   6.526   6.721   8.282  0.1284 -0.2542  0.1790
  476MOL0     C65607   6.397   6.724   8.334  0.3710  1.1809 -0.0918
  476MOL0     C65608   6.327   6.834   8.385 -1.1466 -0.1104  0.0737
  476MOL0     O65609   6.198   6.827   8.434 -0.3572 -1.1397 -0.2113
  476MOL0     C65610   6.127   6.693   8.446  0.0938  0.1434 -0.0495
  476MOL0     C65611   6.175   6.603   8.567 -0.5743  0.0725 -0.5024
  476MOL0     C65612   6.140   6.454   8.552 -0.4531  0.3594 -0.0166
  476MOL0     C65613   6.208   6.382   8.670 -0.8900 -0.2234 -0.2796
  476MOL0     C65614   6.198   6.240   8.673 -0.2473 -0.3256 -0.2256
  476MOL0     C65615   6.193   6.116   8.677 -0.5380 -0.4141 -0.9397
  476MOL0     C65616   6.398   6.955   8.382 -0.2171 -0.1469 -0.2679
  476MOL0     C65617   6.522   6.966   8.327 -0.2610  0.1285 -0.0446
  476MOL0     C65618   6.597   7.096   8.341  0.2458 -0.3987 -0.4837
  476MOL0     H65619   6.897   6.663   8.000 -1.8918  0.6131  2.4826
  476MOL0     H65620   7.120   6.660   7.932 -2.7001 -1.7424  0.8323
  476MOL0     H65621   7.476   6.791   7.942 -0.3594 -0.9209 -0.4186
  476MOL0     H65622   7.322   6.805   7.875 -2.3871  0.1139  0.7317
  476MOL0     H65623   7.299   6.580   7.839 -0.2545  1.1283 -0.2941
  476MOL0     H65624   7.477   6.586   7.846  1.4543  0.0341  1.6872
  476MOL0     H65625   7.304   6.514   8.093 -0.2355 -1.8838  1.2191
  476MOL0     H65626   7.371   6.395   7.976  0.2081  1.0357 -0.9263
  476MOL0     H65627   7.586   6.424   8.035  1.5145  3.5655 -1.7876
  476MOL0     H65628   7.571   6.591   8.082 -0.2849  1.3832  1.4965
  476MOL0     H65629   7.610   6.432   8.297 -0.2484  2.5869 -1.0941
  476MOL0     H65630   7.452   6.359   8.240 -2.0375  0.1590  0.4671
  476MOL0     H65631   7.495   6.640   8.325  1.1632 -0.6670 -2.2440
  476MOL0     H65632   7.337   6.558   8.283  1.4225  0.6639 -4.0814
  476MOL0     H65633   7.385   6.607   8.524 -1.4836 -1.1394  0.4779
  476MOL0     H65634   7.500   6.478   8.526  0.2425  0.5982 -0.8727
  476MOL0     H65635   7.211   6.440   8.443 -0.8446 -0.9369  0.1599
  476MOL0     H65636   7.337   6.323   8.449  0.2914 -0.9191  1.8293
  476MOL0     H65637   7.333   6.188   8.674 -0.8419 -0.5569  1.7142
  476MOL0     H65638   7.216   6.247   9.051 -0.1772 -0.4506  0.3364
  476MOL0     H65639   7.366   6.197   8.991 -0.6340 -0.1190  1.9209
  476MOL0     H65640   7.217   6.037   8.831  0.4703  3.1149 -0.7294
  476MOL0     H65641   7.211   6.002   9.004  1.5315 -1.0623 -0.5951
  476MOL0     H65642   6.979   6.049   8.999  0.4152  1.5823  0.4592
  476MOL0     H65643   7.005   6.209   8.932 -2.4009  0.2151 -0.7470
  476MOL0     H65644   7.024   6.138   8.705 -2.1629  2.7813  2.3616
  476MOL0     H65645   7.018   5.964   8.755 -1.1896 -0.0802  0.0297
  476MOL0     H65646   6.903   5.906   8.581 -0.7609  0.1882  3.4563
  476MOL0     H65647   6.832   5.954   8.262  0.8853 -1.8188 -0.0610
  476MOL0     H65648   6.683   5.859   8.254  1.1654  0.8095 -1.4436
  476MOL0     H65649   6.819   5.783   8.326  0.1327 -0.2985  3.4224
  476MOL0     H65650   6.279   6.105   8.215  0.0280  0.6315  0.6373
  476MOL0     H65651   6.115   6.238   8.092  0.8700 -2.7601  0.5831
  476MOL0     H65652   6.276   6.599   7.859  1.5158 -1.8896  1.4031
  476MOL0     H65653   6.104   6.611   7.842 -3.8979 -1.8590  2.9858
  476MOL0     H65654   6.086   6.648   8.097  0.9431 -0.7669  0.4357
  476MOL0     H65655   6.254   6.668   8.110 -2.3299  4.7510  3.0315
  476MOL0     H65656   6.282   6.853   7.985 -0.1396  0.1435  0.3504
  476MOL0     H65657   6.144   6.893   8.075 -1.0568  0.2835 -0.5888
  476MOL0     H65658   6.000   6.838   7.858  0.6324 -3.3280 -2.5546
  476MOL0     H65659   6.158   6.850   7.780 -1.1025  0.0108  0.7782
  476MOL0     H65660   6.065   7.072   7.960 -1.0453  1.9465 -0.6558
  476MOL0     H65661   6.212   7.067   7.866  0.9882 -1.9885 -0.1315
  476MOL0     H65662   5.936   7.029   7.725  1.3094 -2.3551 -0.4464
  476MOL0     H65663   6.104   7.057   7.654 -1.1762 -1.4980  0.2390
  476MOL0     H65664   6.118   7.269   7.756  1.0294 -2.4128  0.4047
  476MOL0     H65665   5.953   7.260   7.823 -2.9012 -1.1165 -1.9724
  476MOL0     H65666   6.056   7.253   7.534  0.5604 -0.6497  0.1391
  476MOL0     H65667   5.964   7.386   7.595  0.3698 -0.2672 -0.7330
  476MOL0     H65668   6.436   6.510   7.981  1.1237  0.3868  0.7317
  476MOL0     H65669   6.578   6.390   8.138 -0.2271  1.9956 -3.5304
  476MOL0     H65670   6.472   6.146   8.569  0.9443  1.1494  0.4515
  476MOL0     H65671   6.629   6.169   8.755  2.5286 -2.5691  3.6260
  476MOL0     H65672   7.247   6.846   8.296 -0.8932  2.2805 -0.8177
  476MOL0     H65673   7.026   6.820   8.384 -0.7555  1.1046 -0.7755
  476MOL0     H65674   6.578   6.633   8.246  0.7723  0.5682 -0.9306
  476MOL0     H65675   6.364   6.621   8.343 -0.0901  1.2282 -1.1196
  476MOL0     H65676   6.018   6.691   8.451  0.0708 -0.6952 -0.6262
  476MOL0     H65677   6.150   6.641   8.353  1.3622  4.1093 -2.1687
  476MOL0     H65678   6.128   6.639   8.660  0.0851 -1.3555  0.4205
  476MOL0     H65679   6.283   6.618   8.572 -0.5988  0.2504 -0.4759
  476MOL0     H65680   6.031   6.444   8.550 -0.4181  0.0738 -0.5312
  476MOL0     H65681   6.184   6.413   8.461  2.5175  0.5731  1.2136
  476MOL0     H65682   6.171   6.424   8.764  0.7152  1.9539 -0.5380
  476MOL0     H65683   6.312   6.410   8.654 -1.5099  2.3153 -0.3063
  476MOL0     H65684   6.189   6.013   8.706 -1.9395 -0.3286 -0.7442
  476MOL0     H65685   6.343   7.043   8.414 -4.1259 -2.2864 -0.3676
  476MOL0     H65686   6.529   7.174   8.378  2.5275  1.8155 -0.7259
  476MOL0     H65687   6.671   7.084   8.421 -2.9490 -0.2671  2.7429
  476MOL0     H65688   6.643   7.122   8.246 -0.0344  1.5275 -0.1330
  477MOL0     O65689   8.306   8.855   2.140 -0.4609 -0.6731  0.2206
  477MOL0     C65690   8.318   8.732   2.146  0.3712 -0.4311 -0.1149
  477MOL0     O65691   8.421   8.660   2.207 -0.6953  0.1848  0.5474
  477MOL0     C65692   8.524   8.735   2.261  0.3420 -0.5996  0.8705
  477MOL0     C65693   8.652   8.742   2.194  0.4383  0.9634  0.2238
  477MOL0     C65694   8.747   8.828   2.251  0.3748 -1.1631  0.1894
  477MOL0     C65695   8.719   8.906   2.366 -0.1794  0.2406 -0.2169
  477MOL0     O65696   8.812   9.000   2.411  0.6551  0.8444  1.1387
  477MOL0     C65697   8.846   8.950   2.540 -0.2230  0.2876  0.9602
  477MOL0     C65698   8.977   9.042   2.571  0.1363 -0.3566  0.4231
  477MOL0     C65699   9.062   8.982   2.685  0.3174  1.1076 -0.0476
  477MOL0     C65700   9.208   9.037   2.695  0.0986  0.7115  0.2434
  477MOL0     C65701   9.291   8.978   2.817 -0.0962 -0.2920  0.3341
  477MOL0     C65702   9.395   9.088   2.858 -0.3574  0.0854  0.0086
  477MOL0     C65703   9.430   9.068   3.006  0.0135  0.2955 -0.2302
  477MOL0     C65704   9.525   8.938   3.021 -0.4350 -0.1264 -0.1923
  477MOL0     N65705   9.654   8.974   2.974  0.1619  0.9485 -0.4355
  477MOL0     C65706   9.730   8.898   2.888 -0.1362 -0.5153  0.1938
  477MOL0     C65707   9.845   8.965   2.873  0.3613  0.3445  0.2250
  477MOL0     C65708   9.971   8.892   2.832 -0.2967 -0.8681  0.7270
  477MOL0     C65709  10.051   8.851   2.958 -0.3392 -0.3592  0.0068
  477MOL0     C65710  10.203   8.863   2.912 -0.2015 -0.0093  0.8173
  477MOL0     C65711  10.295   8.821   3.025 -0.0625 -0.7116  0.4120
  477MOL0     O65712  10.285   8.677   3.041  0.5283 -0.1263  0.0831
  477MOL0     C65713  10.388   8.593   3.007 -0.6746 -0.1586  0.1810
  477MOL0     C65714  10.361   8.462   3.037 -0.6364 -0.4117  0.4614
  477MOL0     C65715  10.454   8.365   3.009 -0.1344 -0.7790 -0.4014
  477MOL0     C65716  10.424   8.235   3.056  1.3438  0.4586 -0.4108
  477MOL0     C65717  10.575   8.402   2.940  0.0995 -0.1366  0.4223
  477MOL0     C65718  10.692   8.310   2.912  1.0641 -0.3900  0.2316
  477MOL0     O65719  10.686   8.196   2.980 -0.0960 -0.0341  0.6457
  477MOL0     C65720  10.799   8.120   2.954 -0.3939  0.5589 -0.1139
  477MOL0     C65721  10.786   8.021   2.853  0.8337 -0.5353 -0.7085
  477MOL0     C65722  10.889   7.926   2.833  0.5586 -0.0658 -0.7465
  477MOL0     C65723  11.007   7.931   2.903  0.6487  0.5379  0.1129
  477MOL0     O65724  11.085   7.831   2.874 -0.4665 -0.0866  0.0803
  477MOL0     C65725  11.158   7.783   2.981 -0.7458  0.4004 -0.2837
  477MOL0     C65726  11.180   7.632   2.971 -0.5386 -0.7875  0.2286
  477MOL0     C65727  11.265   7.574   3.089 -0.4355  0.2206  0.0147
  477MOL0     C65728  11.194   7.464   3.175 -0.0580 -0.7717  0.1727
  477MOL0     C65729  11.296   7.368   3.240 -0.4536  0.4502 -0.1419
  477MOL0     C65730  11.384   7.433   3.347  0.2834  0.4164 -0.5437
  477MOL0     C65731  11.494   7.330   3.395  0.2280  0.4303  0.0041
  477MOL0     C65732  11.538   7.368   3.533 -0.1664  0.1051 -0.3035
  477MOL0    Cl65733  11.674   7.256   3.570 -0.1485  0.2105  0.2845
  477MOL0     C65734  11.030   8.031   2.988 -0.2549 -0.3858 -0.0357
  477MOL0     C65735  10.930   8.123   3.023  0.2332  0.9820  1.0575
  477MOL0     O65736  10.760   8.341   2.816  0.5842  0.2946  0.1928
  477MOL0     C65737  10.593   8.528   2.886  0.4478  0.2966 -0.0097
  477MOL0     C65738  10.505   8.628   2.928  0.0131 -0.4284  0.1325
  477MOL0     N65739   9.844   9.079   2.957  0.5956 -0.2212  0.0188
  477MOL0     N65740   9.734   9.073   3.016 -0.2436  0.3588 -0.3161
  477MOL0     C65741   8.596   8.897   2.427  0.1927 -1.6431 -0.7308
  477MOL0     C65742   8.500   8.814   2.381 -0.0024 -0.8384  0.4319
  477MOL0     C65743   8.229   8.657   2.064  0.4289 -0.3442  0.0224
  477MOL0     C65744   8.270   8.534   2.015  0.2173  0.3018 -0.1617
  477MOL0     C65745   8.194   8.456   1.929 -0.8105 -0.7454  0.6426
  477MOL0     C65746   8.055   8.485   1.907 -0.8690  0.6562  0.6055
  477MOL0     O65747   7.961   8.409   1.838 -0.1847  1.0017 -0.5067
  477MOL0     C65748   8.006   8.296   1.751  0.0574  0.0869  0.1353
  477MOL0     C65749   7.882   8.228   1.706  0.8113  0.7308  0.5304
  477MOL0     C65750   7.827   8.120   1.809 -0.5062  0.4798 -0.2837
  477MOL0     C65751   7.685   8.084   1.786 -0.5609  0.3165  0.5143
  477MOL0     C65752   7.588   8.189   1.777  0.7623  0.1085 -0.6563
  477MOL0     C65753   7.500   8.271   1.793  0.3827 -0.0514  0.1060
  477MOL0     C65754   8.010   8.600   1.962  0.4276  0.4521 -0.1571
  477MOL0     C65755   8.091   8.686   2.033 -0.0471 -0.8921 -0.9176
  477MOL0     C65756   8.022   8.810   2.087  0.8409 -0.8858  0.2008
  477MOL0     H65757   8.675   8.681   2.107  1.8907  0.7279  0.7485
  477MOL0     H65758   8.845   8.846   2.210  0.7465 -0.1252  1.4904
  477MOL0     H65759   8.881   8.846   2.550 -0.3504  0.1633  0.1706
  477MOL0     H65760   8.776   8.968   2.622  1.2384  1.6519  1.9653
  477MOL0     H65761   9.049   9.057   2.490 -0.9367  3.2851 -0.0531
  477MOL0     H65762   8.953   9.145   2.601 -1.0711 -0.7344  0.8216
  477MOL0     H65763   9.001   8.996   2.774 -0.4014  3.1468 -0.8065
  477MOL0     H65764   9.073   8.876   2.658  0.0736  1.0362  0.1290
  477MOL0     H65765   9.265   9.012   2.605  1.6773 -0.1672  1.4377
  477MOL0     H65766   9.197   9.146   2.702 -0.4088  0.9185 -2.5107
  477MOL0     H65767   9.327   8.880   2.787 -3.0078 -0.7644 -2.1094
  477MOL0     H65768   9.222   8.972   2.902  0.8719  1.4103  1.3129
  477MOL0     H65769   9.480   9.085   2.789  0.3627 -1.9427  0.9080
  477MOL0     H65770   9.356   9.191   2.856  1.2616  0.7451  0.7320
  477MOL0     H65771   9.334   9.064   3.058 -1.3018 -1.4450 -2.5370
  477MOL0     H65772   9.477   9.158   3.046  0.0937  0.7280 -1.2644
  477MOL0     H65773   9.536   8.906   3.125 -1.8645  2.5360  0.8738
  477MOL0     H65774   9.494   8.852   2.961  1.8748 -0.3169 -1.2559
  477MOL0     H65775   9.710   8.796   2.855  0.1017 -1.1619  1.9375
  477MOL0     H65776  10.029   8.962   2.773 -3.7995 -0.5148 -2.6922
  477MOL0     H65777   9.931   8.814   2.767 -1.3583  0.1938  0.0742
  477MOL0     H65778  10.043   8.914   3.047 -0.1794 -3.4918  2.4074
  477MOL0     H65779  10.016   8.753   2.989  0.7518 -0.3082  1.4645
  477MOL0     H65780  10.227   8.794   2.830 -0.2607 -0.8700  1.5067
  477MOL0     H65781  10.231   8.966   2.887  2.2038 -1.0632 -1.3472
  477MOL0     H65782  10.398   8.845   2.995 -0.7707 -0.5672 -2.1858
  477MOL0     H65783  10.263   8.874   3.115 -0.1489 -1.1849  0.6622
  477MOL0     H65784  10.262   8.443   3.079 -1.4167 -0.9240 -1.4956
  477MOL0     H65785  10.505   8.189   3.114 -1.3918 -0.4160  3.0745
  477MOL0     H65786  10.422   8.172   2.966  2.8007  0.1590 -0.2606
  477MOL0     H65787  10.330   8.226   3.110 -0.0564 -1.1353 -2.9060
  477MOL0     H65788  10.690   8.003   2.806  1.3680  0.2478 -2.1439
  477MOL0     H65789  10.861   7.840   2.773 -0.8489 -0.2913  0.1905
  477MOL0     H65790  11.259   7.824   2.983 -0.1012 -0.9240 -2.4336
  477MOL0     H65791  11.121   7.806   3.081  3.2304 -1.9296  1.9802
  477MOL0     H65792  11.086   7.578   2.955 -1.1143  0.8742 -2.5191
  477MOL0     H65793  11.235   7.616   2.879 -2.3696  1.2654 -1.3286
  477MOL0     H65794  11.291   7.648   3.166 -0.2134  0.1053  0.0487
  477MOL0     H65795  11.354   7.524   3.050 -1.4204 -1.3361 -0.3291
  477MOL0     H65796  11.129   7.398   3.118 -1.5393  1.0145 -0.3218
  477MOL0     H65797  11.124   7.515   3.242  1.2570  0.6563  0.5201
  477MOL0     H65798  11.249   7.277   3.279  1.3266 -0.9977 -1.1709
  477MOL0     H65799  11.366   7.323   3.168 -2.9191 -2.7289 -0.7768
  477MOL0     H65800  11.319   7.460   3.430 -2.7408 -1.7051 -2.0350
  477MOL0     H65801  11.429   7.524   3.307 -0.1788  0.9196  0.0666
  477MOL0     H65802  11.589   7.336   3.342  0.2410 -1.9603 -0.3713
  477MOL0     H65803  11.463   7.226   3.384 -1.8993  0.8823  1.0878
  477MOL0     H65804  11.462   7.343   3.608  1.8793 -3.0414  0.9013
  477MOL0     H65805  11.566   7.473   3.546 -0.3073  0.2979 -1.3970
  477MOL0     H65806  11.124   8.045   3.042 -1.2372 -1.0349  1.9181
  477MOL0     H65807  10.945   8.207   3.090 -0.3475  1.4779  0.5892
  477MOL0     H65808  10.670   8.555   2.815  0.0643  2.1592  0.2152
  477MOL0     H65809  10.518   8.723   2.878  0.6847 -0.2191  0.6954
  477MOL0     H65810   8.577   8.971   2.504  0.4656 -0.4442 -1.7700
  477MOL0     H65811   8.399   8.819   2.419 -0.0452 -0.7526  0.3092
  477MOL0     H65812   8.372   8.500   2.030  0.8907  0.9134 -2.8792
  477MOL0     H65813   8.240   8.370   1.882  1.1519 -0.1793  1.4441
  477MOL0     H65814   8.046   8.341   1.659 -2.6245  0.7083 -0.8362
  477MOL0     H65815   8.073   8.226   1.801 -1.0637 -1.4029 -0.3787
  477MOL0     H65816   7.901   8.177   1.611 -0.4089 -0.3504  0.8392
  477MOL0     H65817   7.812   8.310   1.686  1.2070  0.6079 -1.6326
  477MOL0     H65818   7.887   8.029   1.795 -1.1766  0.2013 -1.5677
  477MOL0     H65819   7.829   8.148   1.914 -4.9414 -0.1358  0.1658
  477MOL0     H65820   7.654   8.005   1.855  0.8992 -1.1122 -0.3792
  477MOL0     H65821   7.684   8.024   1.695 -1.4400 -0.3409  0.9474
  477MOL0     H65822   7.415   8.337   1.791  0.9651  0.7191 -1.4164
  477MOL0     H65823   7.904   8.615   1.941  0.2955 -1.1124 -0.7426
  477MOL0     H65824   8.021   8.810   2.196 -1.0985 -2.1525  0.2370
  477MOL0     H65825   8.076   8.904   2.069  1.6732 -1.1319  1.3283
  477MOL0     H65826   7.918   8.811   2.051  0.5033  2.3512  0.9097
  478MOL0     O65827   6.591   3.483   5.611 -0.0309 -0.9001  0.3482
  478MOL0     C65828   6.583   3.401   5.518  0.4679 -0.1334  0.2604
  478MOL0     O65829   6.668   3.392   5.413  0.0708  0.3262 -0.1723
  478MOL0     C65830   6.784   3.464   5.421  0.0962  0.4902  0.6502
  478MOL0     C65831   6.904   3.401   5.462  0.0201  0.5687 -0.0367
  478MOL0     C65832   7.022   3.474   5.467 -1.1646  0.4565  0.6358
  478MOL0     C65833   7.031   3.605   5.431 -0.3609  0.0619  0.3951
  478MOL0     O65834   7.153   3.674   5.431  0.2147 -0.1579 -0.2302
  478MOL0     C65835   7.162   3.801   5.362 -0.1402  0.0603 -0.3159
  478MOL0     C65836   7.313   3.842   5.349  0.3663 -0.2488 -0.2654
  478MOL0     C65837   7.319   3.984   5.269 -0.7757  0.8376  0.4837
  478MOL0     C65838   7.468   4.015   5.253  0.4735 -0.0820 -0.3959
  478MOL0     C65839   7.493   4.141   5.169  0.4215  0.9293  0.3912
  478MOL0     C65840   7.637   4.147   5.124 -0.1447 -0.3427  0.0744
  478MOL0     C65841   7.666   4.272   5.038 -0.3002  0.2140 -0.4963
  478MOL0     C65842   7.817   4.286   4.986  0.1708 -1.4429 -0.7720
  478MOL0     N65843   7.841   4.416   4.916 -0.8845  0.2819 -0.0341
  478MOL0     C65844   7.865   4.529   4.975  0.4636  0.1412  0.0348
  478MOL0     C65845   7.848   4.627   4.885 -0.1893  0.3862 -0.0370
  478MOL0     C65846   7.880   4.764   4.915 -0.2681  0.2347  0.4945
  478MOL0     C65847   7.880   4.800   5.060  0.4061  0.0612 -0.6764
  478MOL0     C65848   7.910   4.954   5.077  0.2069 -0.4629 -0.7798
  478MOL0     C65849   8.056   4.985   5.081 -0.1029  0.0155 -0.2065
  478MOL0     O65850   8.050   5.122   5.129  0.2514 -0.9218 -0.0078
  478MOL0     C65851   8.148   5.214   5.101 -0.0665  0.7130  0.5680
  478MOL0     C65852   8.120   5.342   5.116  0.4259 -0.2017  0.4254
  478MOL0     C65853   8.217   5.450   5.109  0.0055  0.4124  0.9511
  478MOL0     C65854   8.188   5.592   5.129 -0.0262  0.3087  0.1094
  478MOL0     C65855   8.340   5.410   5.061 -0.0740  0.2376  1.0781
  478MOL0     C65856   8.456   5.499   5.054  0.3169 -0.4372  0.0164
  478MOL0     O65857   8.488   5.570   5.164 -0.0821  0.5084  0.2961
  478MOL0     C65858   8.590   5.662   5.158 -0.7786 -0.6375  0.4111
  478MOL0     C65859   8.658   5.662   5.275  0.2711  0.3943 -0.3230
  478MOL0     C65860   8.776   5.739   5.285 -0.7415  0.3699 -0.5215
  478MOL0     C65861   8.829   5.821   5.180 -0.6099  0.4948 -0.0214
  478MOL0     O65862   8.950   5.877   5.190  0.1768  0.5392 -0.2934
  478MOL0     C65863   8.954   5.999   5.116 -0.4986 -0.2948  0.8756
  478MOL0     C65864   9.038   6.112   5.185 -0.1626  1.1777  0.2230
  478MOL0     C65865   9.176   6.123   5.134 -0.2897 -0.4442 -0.2924
  478MOL0     C65866   9.285   6.112   5.239 -0.2169  0.0360 -0.2232
  478MOL0     C65867   9.416   6.059   5.178 -0.7136  0.4294  0.0182
  478MOL0     C65868   9.507   6.027   5.304 -0.5549 -0.7124 -0.3451
  478MOL0     C65869   9.651   6.005   5.272 -0.2722 -0.1406  0.0109
  478MOL0     C65870   9.736   5.946   5.386 -0.0952 -0.0946 -1.1062
  478MOL0    Cl65871   9.706   6.037   5.533  0.5690 -0.0960  0.1375
  478MOL0     C65872   8.747   5.825   5.066  0.3003 -0.7266  0.1785
  478MOL0     C65873   8.627   5.754   5.053  0.9845 -0.0734 -0.7219
  478MOL0     O65874   8.525   5.493   4.955 -0.5561  0.0179 -1.1969
  478MOL0     C65875   8.364   5.277   5.035 -1.0267  0.3782 -0.0545
  478MOL0     C65876   8.274   5.175   5.061 -0.1961  0.0216 -0.5852
  478MOL0     N65877   7.827   4.568   4.757  0.3865 -0.9568 -0.0478
  478MOL0     N65878   7.815   4.445   4.785  0.0301 -0.6079 -0.8794
  478MOL0     C65879   6.915   3.664   5.371 -0.7627 -0.0394 -0.3021
  478MOL0     C65880   6.794   3.597   5.368 -0.8847  0.2090 -0.4792
  478MOL0     C65881   6.473   3.295   5.524  0.6818 -0.2462 -0.2166
  478MOL0     C65882   6.480   3.188   5.431  0.2026  0.1665 -0.1082
  478MOL0     C65883   6.384   3.086   5.433 -0.1229 -0.6176 -0.3701
  478MOL0     C65884   6.273   3.087   5.514 -0.4148  0.0163 -0.0792
  478MOL0     O65885   6.172   3.004   5.521 -0.2291  0.8681 -0.2031
  478MOL0     C65886   6.167   2.904   5.413  0.2290 -0.2731 -0.1536
  478MOL0     C65887   6.051   2.805   5.427 -0.8764 -0.0676  0.0825
  478MOL0     C65888   6.001   2.806   5.568 -0.2423 -0.4151  0.5706
  478MOL0     C65889   5.894   2.711   5.613 -0.5389 -0.5313 -0.2982
  478MOL0     C65890   5.769   2.733   5.541 -0.5842  0.4908  0.8467
  478MOL0     C65891   5.665   2.750   5.485  0.3793  0.8844 -0.1037
  478MOL0     C65892   6.269   3.179   5.610 -0.6081 -0.5420 -0.2936
  478MOL0     C65893   6.372   3.290   5.621  0.8173 -0.5337 -1.1967
  478MOL0     C65894   6.354   3.373   5.746 -0.3048 -0.5092 -0.7159
  478MOL0     H65895   6.894   3.298   5.493 -1.1467  1.2219  1.9376
  478MOL0     H65896   7.111   3.421   5.501 -0.8837 -1.2272 -2.3833
  478MOL0     H65897   7.111   3.882   5.416 -0.9714 -0.4569 -0.2946
  478MOL0     H65898   7.137   3.782   5.257 -0.0925  4.5569 -1.3204
  478MOL0     H65899   7.360   3.860   5.446  0.2642 -2.5717  0.2629
  478MOL0     H65900   7.362   3.768   5.284 -2.1294  0.1387 -2.7839
  478MOL0     H65901   7.267   3.984   5.172 -0.8328  0.2467  0.5073
  478MOL0     H65902   7.274   4.064   5.328  0.1460  1.3203  0.5414
  478MOL0     H65903   7.526   4.024   5.346  0.1805 -1.0743 -0.1017
  478MOL0     H65904   7.509   3.929   5.200 -0.5274 -1.6935  1.3087
  478MOL0     H65905   7.482   4.236   5.222  0.5379  1.0820  0.1456
  478MOL0     H65906   7.423   4.133   5.085 -1.9426 -0.1353  2.3382
  478MOL0     H65907   7.709   4.125   5.204 -1.0138  0.4264  1.0987
  478MOL0     H65908   7.650   4.069   5.049 -1.4092 -0.9219  0.4355
  478MOL0     H65909   7.642   4.355   5.104  1.7920  1.5835 -1.3529
  478MOL0     H65910   7.601   4.274   4.950  0.8888  0.8210 -1.3819
  478MOL0     H65911   7.891   4.275   5.066 -2.2062 -1.2888  1.5668
  478MOL0     H65912   7.846   4.207   4.915 -0.3518  0.9220 -3.8089
  478MOL0     H65913   7.885   4.539   5.082  2.6698 -1.0077 -0.2153
  478MOL0     H65914   7.819   4.836   4.858 -0.1683 -0.4609 -0.5240
  478MOL0     H65915   7.981   4.783   4.879  1.1168 -1.4258  3.2343
  478MOL0     H65916   7.784   4.761   5.095  0.2837 -1.0241 -2.1512
  478MOL0     H65917   7.957   4.738   5.108 -0.0943  0.2503  0.4047
  478MOL0     H65918   7.854   5.012   5.003 -1.5867 -1.8551 -0.5758
  478MOL0     H65919   7.862   4.973   5.173 -0.1774 -3.7049 -0.2133
  478MOL0     H65920   8.117   4.924   5.149  1.7404  1.1852 -0.7248
  478MOL0     H65921   8.093   4.961   4.981 -1.8298 -0.6279 -0.7300
  478MOL0     H65922   8.022   5.374   5.150  1.0725  1.7895  0.5884
  478MOL0     H65923   8.222   5.652   5.044  0.3456  0.0010  0.0332
  478MOL0     H65924   8.247   5.619   5.217  1.5341  0.0518 -0.8065
  478MOL0     H65925   8.084   5.621   5.145  0.0580  1.2148 -0.9008
  478MOL0     H65926   8.621   5.606   5.360  0.4380  1.1675  0.2722
  478MOL0     H65927   8.838   5.738   5.375 -1.3411 -0.7014 -0.0990
  478MOL0     H65928   8.970   5.983   5.009  0.1820 -1.9533  1.1933
  478MOL0     H65929   8.854   6.043   5.112 -0.8981 -1.2340  0.3343
  478MOL0     H65930   8.986   6.207   5.171 -1.3534  0.6249  0.7702
  478MOL0     H65931   9.044   6.089   5.292  2.8442 -1.3815 -0.3302
  478MOL0     H65932   9.178   6.219   5.083  1.3144  0.3442  1.1416
  478MOL0     H65933   9.202   6.051   5.056  2.1832 -1.4134  1.2710
  478MOL0     H65934   9.254   6.027   5.301  1.2123  1.9030  3.3270
  478MOL0     H65935   9.305   6.205   5.293  0.4861 -0.5347  0.5124
  478MOL0     H65936   9.401   5.969   5.118  0.8638  1.0100 -1.3387
  478MOL0     H65937   9.449   6.144   5.117  0.4031  0.7428  1.0258
  478MOL0     H65938   9.470   5.930   5.339 -0.8885 -0.9944 -1.4489
  478MOL0     H65939   9.489   6.097   5.386 -3.6022  1.7114 -2.8263
  478MOL0     H65940   9.690   6.106   5.255 -0.6233  0.2982  1.5772
  478MOL0     H65941   9.658   5.954   5.176  0.4807  2.0478 -1.1474
  478MOL0     H65942   9.841   5.963   5.360 -0.7664  4.2711 -1.7290
  478MOL0     H65943   9.700   5.842   5.393 -2.1848  0.6207 -0.3139
  478MOL0     H65944   8.776   5.862   4.968 -0.4487  0.4655  0.3752
  478MOL0     H65945   8.569   5.755   4.962 -1.9984 -0.1406  1.0633
  478MOL0     H65946   8.458   5.260   4.984 -1.5678 -2.1161 -0.3129
  478MOL0     H65947   8.291   5.070   5.037 -2.6376 -0.3625 -0.9029
  478MOL0     H65948   6.916   3.769   5.341  1.3033  0.0945  0.0436
  478MOL0     H65949   6.707   3.647   5.326 -0.0566  0.0191 -2.5253
  478MOL0     H65950   6.559   3.177   5.357 -0.0898 -0.6415 -0.3105
  478MOL0     H65951   6.400   3.014   5.353  0.8483 -1.4176  0.5088
  478MOL0     H65952   6.152   2.953   5.316 -1.2779 -0.4272 -0.0234
  478MOL0     H65953   6.264   2.856   5.403  0.2924 -0.5787  1.5929
  478MOL0     H65954   6.079   2.701   5.405 -1.2422 -0.0982 -0.2462
  478MOL0     H65955   5.966   2.830   5.363 -2.2993 -1.1770  1.4504
  478MOL0     H65956   6.093   2.796   5.626  0.5893  2.1150 -0.1976
  478MOL0     H65957   5.953   2.903   5.588 -1.7657 -0.6955 -1.5066
  478MOL0     H65958   5.869   2.735   5.717 -2.8455  3.0444 -1.4658
  478MOL0     H65959   5.928   2.607   5.604  1.2356 -0.3236  2.6218
  478MOL0     H65960   5.568   2.782   5.453 -0.0366 -0.2604 -0.0324
  478MOL0     H65961   6.192   3.175   5.687  0.7098  4.0155  1.6322
  478MOL0     H65962   6.302   3.468   5.733 -0.4962 -0.1953  1.8733
  478MOL0     H65963   6.310   3.317   5.830  1.0741 -0.5597 -0.0090
  478MOL0     H65964   6.451   3.406   5.784 -1.3203 -0.3893  2.0014
  479MOL0     O65965   6.236   7.226   5.414 -0.1922 -0.3830  0.7376
  479MOL0     C65966   6.177   7.123   5.381 -0.2651 -0.3027 -0.1942
  479MOL0     O65967   6.236   7.028   5.314 -0.9884  0.6655 -0.2952
  479MOL0     C65968   6.350   7.034   5.237  1.0011 -0.0148  0.1708
  479MOL0     C65969   6.384   7.144   5.158  0.3114  0.3126  0.8923
  479MOL0     C65970   6.511   7.136   5.096  0.0611  0.1058  0.0619
  479MOL0     C65971   6.591   7.026   5.097  0.3646  1.3367  0.1650
  479MOL0     O65972   6.698   7.029   5.010 -0.4693  0.0480 -0.2160
  479MOL0     C65973   6.801   6.925   5.015  0.0654 -0.4317 -0.2241
  479MOL0     C65974   6.899   6.924   4.906 -0.8834 -0.0315 -0.1368
  479MOL0     C65975   7.018   6.830   4.924  0.1095  0.5252 -0.3220
  479MOL0     C65976   7.135   6.852   4.833  0.8107  0.5377  0.9022
  479MOL0     C65977   7.251   6.770   4.890 -0.6745 -0.3825  0.5886
  479MOL0     C65978   7.356   6.729   4.791  0.1738 -0.1859 -0.1639
  479MOL0     C65979   7.453   6.638   4.850  0.0116 -0.4807 -0.2272
  479MOL0     C65980   7.553   6.690   4.965 -0.0486  0.8703  0.0520
  479MOL0     N65981   7.667   6.601   4.980 -0.3208 -1.3215  0.0673
  479MOL0     C65982   7.765   6.581   4.887  0.7718 -0.1850  0.2172
  479MOL0     C65983   7.845   6.484   4.931 -0.1634 -0.0015  1.1943
  479MOL0     C65984   7.957   6.436   4.848  0.1717  0.4149  0.2584
  479MOL0     C65985   7.970   6.285   4.854 -0.7023 -0.6393 -0.1542
  479MOL0     C65986   8.096   6.225   4.788  0.1326 -0.2078  0.2615
  479MOL0     C65987   8.227   6.254   4.845 -0.6006 -0.9719 -0.9226
  479MOL0     O65988   8.297   6.364   4.784  0.2478  0.2353 -0.3678
  479MOL0     C65989   8.427   6.394   4.820 -0.0077 -0.7761  0.3827
  479MOL0     C65990   8.510   6.325   4.904 -0.3360 -0.9005 -0.0733
  479MOL0     C65991   8.631   6.371   4.953 -1.2314  0.0375  0.4796
  479MOL0     C65992   8.695   6.300   5.065  0.0236  1.0175 -0.2737
  479MOL0     C65993   8.683   6.492   4.899  0.2303  0.4236  0.0962
  479MOL0     C65994   8.816   6.561   4.944 -0.0033 -0.0157 -0.2922
  479MOL0     O65995   8.909   6.473   4.991  0.2328  0.1569 -0.2563
  479MOL0     C65996   9.039   6.504   4.975  0.7685  0.5518  0.6125
  479MOL0     C65997   9.110   6.496   4.852 -0.4124 -1.4448  0.8697
  479MOL0     C65998   9.245   6.520   4.841 -0.7084 -0.7431 -0.5558
  479MOL0     C65999   9.318   6.544   4.964  0.1924  0.6774  0.1852
  479MOL0     O66000   9.448   6.543   4.986  0.0555 -0.1108 -0.4473
  479MOL0     C66001   9.507   6.424   4.944  0.6466 -0.3816 -0.1608
  479MOL0     C66002   9.648   6.427   5.004  0.9168 -0.5605  0.8830
  479MOL0     C66003   9.643   6.405   5.156 -0.3711 -0.7169  0.1200
  479MOL0     C66004   9.784   6.431   5.229  1.1883 -0.3086  1.2703
  479MOL0     C66005   9.773   6.408   5.374  0.5043  0.7671 -0.0062
  479MOL0     C66006   9.901   6.336   5.407 -0.4806  0.1284 -0.3674
  479MOL0     C66007   9.948   6.353   5.550  0.0273 -0.0592  0.7824
  479MOL0     C66008  10.019   6.489   5.574 -0.3590 -0.4494  0.5622
  479MOL0    Cl66009  10.067   6.504   5.737  0.4728 -0.1486 -0.1510
  479MOL0     C66010   9.246   6.554   5.082  0.1430 -0.5833  0.6337
  479MOL0     C66011   9.107   6.531   5.090 -0.1591 -0.0373  0.3231
  479MOL0     O66012   8.844   6.674   4.905  0.1478  0.4162  0.4225
  479MOL0     C66013   8.607   6.556   4.797  0.0029 -0.1311 -0.4673
  479MOL0     C66014   8.479   6.508   4.756 -0.4390  0.2012 -0.0040
  479MOL0     N66015   7.783   6.427   5.038 -0.4142  0.0539  0.6548
  479MOL0     N66016   7.678   6.496   5.070 -0.3233 -0.1979  0.5415
  479MOL0     C66017   6.559   6.911   5.183 -0.6180 -0.5233  0.1365
  479MOL0     C66018   6.431   6.924   5.248 -0.1156 -0.1015  0.2049
  479MOL0     C66019   6.040   7.124   5.405  0.6061 -0.0831 -0.0487
  479MOL0     C66020   5.981   7.015   5.468 -0.4892  0.4302 -0.2703
  479MOL0     C66021   5.845   7.005   5.495  0.0180  0.7217 -0.4853
  479MOL0     C66022   5.757   7.096   5.456  0.8221 -0.6707  0.5336
  479MOL0     O66023   5.622   7.079   5.489 -0.3988  0.3149  0.0404
  479MOL0     C66024   5.564   7.192   5.549  0.4544  0.0021  0.9603
  479MOL0     C66025   5.443   7.240   5.462  0.3618  0.2396  0.5230
  479MOL0     C66026   5.379   7.365   5.529  0.4998 -0.4719  0.2297
  479MOL0     C66027   5.447   7.493   5.478 -0.2761 -0.0266 -0.1139
  479MOL0     C66028   5.409   7.512   5.340  0.2700 -0.6269  0.6420
  479MOL0     C66029   5.399   7.519   5.215  0.4329  0.4381  0.4540
  479MOL0     C66030   5.812   7.211   5.390  0.5699  1.0751  0.1472
  479MOL0     C66031   5.950   7.228   5.368 -0.0528  0.2810  0.8909
  479MOL0     C66032   6.003   7.341   5.279  0.0581 -0.2440 -0.4722
  479MOL0     H66033   6.320   7.231   5.151 -0.5423 -0.4204 -1.0673
  479MOL0     H66034   6.549   7.206   5.022 -2.5367  1.2795 -0.2880
  479MOL0     H66035   6.755   6.826   5.014  1.4285 -1.0947 -0.8131
  479MOL0     H66036   6.854   6.947   5.108 -0.5784  2.0052 -0.3804
  479MOL0     H66037   6.845   6.887   4.818 -0.7627 -3.6337  1.1280
  479MOL0     H66038   6.921   7.029   4.886  0.1879  0.0276  1.2385
  479MOL0     H66039   7.052   6.828   5.028  0.1056  0.0544 -0.3292
  479MOL0     H66040   6.986   6.727   4.906 -0.2397  0.3882  0.9546
  479MOL0     H66041   7.115   6.815   4.732 -1.3373 -1.9079  2.1026
  479MOL0     H66042   7.150   6.960   4.821 -1.1335  0.5615 -2.3679
  479MOL0     H66043   7.218   6.679   4.941  0.4733 -1.3017 -0.2426
  479MOL0     H66044   7.300   6.834   4.964  1.7488  3.2367 -3.6376
  479MOL0     H66045   7.308   6.672   4.711 -1.1758  0.9086 -0.1755
  479MOL0     H66046   7.413   6.812   4.749 -1.4857  2.3064  2.1362
  479MOL0     H66047   7.522   6.607   4.771  0.2211  1.6170 -0.9481
  479MOL0     H66048   7.400   6.547   4.878 -0.2621  0.2399  1.7098
  479MOL0     H66049   7.597   6.784   4.929 -1.4027  1.0801 -1.1057
  479MOL0     H66050   7.502   6.698   5.062  0.1229 -2.0193  0.4535
  479MOL0     H66051   7.778   6.644   4.799 -0.7027  2.3910  1.7299
  479MOL0     H66052   8.052   6.486   4.872 -0.8433  3.3878 -1.3822
  479MOL0     H66053   7.932   6.470   4.747  0.7175 -1.7673 -0.6659
  479MOL0     H66054   7.972   6.253   4.959 -1.2196 -0.8514 -0.2044
  479MOL0     H66055   7.879   6.237   4.818 -1.0136 -0.1122 -0.0789
  479MOL0     H66056   8.071   6.119   4.785  0.1920 -0.2179  0.1334
  479MOL0     H66057   8.091   6.252   4.682 -2.6082 -2.6770 -0.3903
  479MOL0     H66058   8.210   6.268   4.952 -0.7904  1.1801 -1.1916
  479MOL0     H66059   8.293   6.167   4.837 -0.3251 -0.6734 -2.1323
  479MOL0     H66060   8.461   6.237   4.943 -2.6890  0.8431  1.2292
  479MOL0     H66061   8.697   6.362   5.155 -1.2128  3.0334 -1.5588
  479MOL0     H66062   8.799   6.266   5.052 -0.1766 -0.4288  1.5376
  479MOL0     H66063   8.634   6.216   5.100  1.4581  0.9596  2.3413
  479MOL0     H66064   9.058   6.476   4.758  0.3794  0.7301 -0.0918
  479MOL0     H66065   9.291   6.503   4.744 -0.6010 -1.1159 -0.4405
  479MOL0     H66066   9.444   6.344   4.985 -1.1085 -1.5840 -4.5779
  479MOL0     H66067   9.513   6.419   4.835  1.0049  0.3511 -0.1742
  479MOL0     H66068   9.712   6.354   4.954  4.9828 -0.1891  4.8270
  479MOL0     H66069   9.692   6.526   4.996  1.0137 -0.6611  0.1401
  479MOL0     H66070   9.611   6.301   5.167 -1.9661 -0.0641  2.3413
  479MOL0     H66071   9.572   6.475   5.200 -0.9207 -1.8957  1.1691
  479MOL0     H66072   9.812   6.535   5.206  2.4751 -0.7746  0.6489
  479MOL0     H66073   9.860   6.372   5.177 -0.6802  0.2415 -2.4099
  479MOL0     H66074   9.761   6.508   5.416  0.9634  0.3861  1.0616
  479MOL0     H66075   9.686   6.354   5.410  0.4245  1.6891  1.2407
  479MOL0     H66076   9.983   6.379   5.349  0.8587 -0.4766  1.0118
  479MOL0     H66077   9.903   6.229   5.383 -0.5128  0.5821 -2.6747
  479MOL0     H66078  10.029   6.281   5.567  2.6915  1.5883 -3.4200
  479MOL0     H66079   9.863   6.325   5.613 -1.6794 -2.7996 -2.3542
  479MOL0     H66080   9.940   6.564   5.559  0.7933  0.3171 -2.3691
  479MOL0     H66081  10.102   6.497   5.503  1.0366  0.0991  2.2201
  479MOL0     H66082   9.295   6.575   5.176 -0.7751  0.1460  0.9749
  479MOL0     H66083   9.063   6.545   5.188 -1.7426 -0.8604 -0.2451
  479MOL0     H66084   8.640   6.650   4.753  0.1295  0.3672  0.6725
  479MOL0     H66085   8.435   6.559   4.671 -0.0916  0.2745 -0.1406
  479MOL0     H66086   6.623   6.823   5.186  0.5164  0.3060  1.7552
  479MOL0     H66087   6.395   6.842   5.309  3.4693 -0.4221  2.1478
  479MOL0     H66088   6.048   6.941   5.510  0.7179  2.1546  0.9976
  479MOL0     H66089   5.811   6.919   5.551 -0.3854  0.3323 -1.3119
  479MOL0     H66090   5.528   7.163   5.648 -0.2744 -0.4660  0.5623
  479MOL0     H66091   5.630   7.279   5.554  1.4223 -0.4951 -1.6140
  479MOL0     H66092   5.359   7.169   5.468 -1.3021  1.9809 -0.6742
  479MOL0     H66093   5.475   7.246   5.358  1.0797 -0.9448  0.6519
  479MOL0     H66094   5.270   7.364   5.514  0.3583 -1.9231  1.1124
  479MOL0     H66095   5.381   7.366   5.638 -3.0515  2.1875  0.4408
  479MOL0     H66096   5.556   7.493   5.486 -0.3158  0.2706  0.4997
  479MOL0     H66097   5.409   7.580   5.534 -2.5154  0.3660 -2.0582
  479MOL0     H66098   5.377   7.514   5.111 -0.8149 -0.4663  0.7407
  479MOL0     H66099   5.745   7.284   5.344  0.5319  1.4379  0.7608
  479MOL0     H66100   6.074   7.307   5.203  1.7578  2.6071 -0.2954
  479MOL0     H66101   5.923   7.386   5.220 -0.0151  2.9297  1.7869
  479MOL0     H66102   6.045   7.417   5.346  3.3480 -1.7825 -0.5535
  480MOL0     O66103   6.675   4.610   0.709 -0.5771  0.0813 -0.0070
  480MOL0     C66104   6.596   4.619   0.802  0.2031 -0.2484  0.5833
  480MOL0     O66105   6.468   4.664   0.780  0.0839  0.0869 -0.5275
  480MOL0     C66106   6.431   4.728   0.668  0.5010 -0.3542 -0.2818
  480MOL0     C66107   6.387   4.862   0.691 -0.7642  1.0256 -0.8060
  480MOL0     C66108   6.349   4.933   0.576 -0.8827  0.6412 -0.4544
  480MOL0     C66109   6.359   4.874   0.448  0.7198 -0.0959 -0.2041
  480MOL0     O66110   6.309   4.944   0.346 -0.3165  0.3364  0.2441
  480MOL0     C66111   6.402   4.963   0.239 -0.3129 -0.5882 -0.3403
  480MOL0     C66112   6.367   5.093   0.175  0.5402  0.0546 -0.1179
  480MOL0     C66113   6.380   5.096   0.024 -0.2498 -0.5146  0.6857
  480MOL0     C66114   6.525   5.109  -0.022  0.2697  0.3442 -0.0156
  480MOL0     C66115   6.536   5.088  -0.174 -1.3625  0.5350 -0.7344
  480MOL0     C66116   6.684   5.100  -0.230 -0.5740 -0.6256 -0.0761
  480MOL0     C66117   6.738   5.238  -0.182  0.1153  0.4679 -0.1357
  480MOL0     C66118   6.872   5.281  -0.229 -0.3550  0.7149  1.1829
  480MOL0     N66119   6.980   5.192  -0.180 -0.1042  0.0929  0.3482
  480MOL0     C66120   7.004   5.065  -0.224 -0.6147  0.0289 -0.6884
  480MOL0     C66121   7.092   5.015  -0.131  0.5273 -0.3014 -0.5009
  480MOL0     C66122   7.141   4.874  -0.144  0.0980  0.6230 -0.2985
  480MOL0     C66123   7.280   4.855  -0.210 -0.3750  1.4485 -0.5391
  480MOL0     C66124   7.393   4.951  -0.146  0.2603 -0.0986  1.2892
  480MOL0     C66125   7.424   4.907  -0.006  0.5678  0.0506 -0.9118
  480MOL0     O66126   7.550   4.968   0.031  0.2616  0.2393  0.2036
  480MOL0     C66127   7.604   4.951   0.155 -0.4895  0.3144  0.1926
  480MOL0     C66128   7.722   5.007   0.187 -0.8045 -0.0243 -0.2428
  480MOL0     C66129   7.793   5.001   0.314  0.5870  0.3539 -0.8738
  480MOL0     C66130   7.921   5.084   0.332  0.1484 -0.2165 -0.1146
  480MOL0     C66131   7.731   4.913   0.413  0.2373 -0.2048 -0.0003
  480MOL0     C66132   7.794   4.857   0.537  0.5330  0.1223 -0.3742
  480MOL0     O66133   7.727   4.759   0.611  0.5825  0.1153  0.0739
  480MOL0     C66134   7.757   4.746   0.743 -0.2069 -0.1440  0.9945
  480MOL0     C66135   7.740   4.843   0.836  0.3123 -0.2622  0.3113
  480MOL0     C66136   7.754   4.815   0.974 -0.1028 -0.3611 -0.0045
  480MOL0     C66137   7.792   4.690   1.021 -0.2181  0.1015 -0.1795
  480MOL0     O66138   7.833   4.659   1.147 -0.3890 -0.3956  0.6844
  480MOL0     C66139   7.832   4.766   1.241  0.0143  0.4182 -0.4841
  480MOL0     C66140   7.876   4.719   1.381  0.1533  0.0847 -0.5469
  480MOL0     C66141   7.780   4.615   1.437 -0.0936  0.1443  0.4866
  480MOL0     C66142   7.647   4.669   1.488 -0.1723 -0.7602  0.0694
  480MOL0     C66143   7.543   4.571   1.474  0.4315  0.4585  0.1939
  480MOL0     C66144   7.480   4.588   1.334 -0.4830  0.5763 -0.0666
  480MOL0     C66145   7.352   4.666   1.346 -0.5056  0.5754 -0.4794
  480MOL0     C66146   7.289   4.686   1.214  0.0735  0.0543  0.4106
  480MOL0    Cl66147   7.265   4.543   1.124 -0.0222  0.2702 -0.7253
  480MOL0     C66148   7.812   4.583   0.928  0.0656 -0.1636 -0.0097
  480MOL0     C66149   7.790   4.613   0.789 -0.3963  0.0567 -0.5159
  480MOL0     O66150   7.913   4.891   0.550 -0.0572  0.1001 -0.7905
  480MOL0     C66151   7.608   4.847   0.381  0.2792  0.6444  0.0845
  480MOL0     C66152   7.539   4.877   0.256 -0.3074 -0.4924  0.7750
  480MOL0     N66153   7.122   5.120  -0.039 -0.6113 -0.1713  0.3898
  480MOL0     N66154   7.055   5.223  -0.076  0.5711  0.2821  0.5853
  480MOL0     C66155   6.406   4.740   0.431  0.1091 -0.1667  0.2048
  480MOL0     C66156   6.431   4.660   0.544  0.1357 -0.1272 -0.8791
  480MOL0     C66157   6.616   4.551   0.935 -0.5309 -0.0874 -1.2503
  480MOL0     C66158   6.510   4.542   1.022  0.2173  0.3815  0.5654
  480MOL0     C66159   6.507   4.452   1.131  0.1044  0.3355 -0.5424
  480MOL0     C66160   6.626   4.380   1.157 -0.0081  0.1152 -0.0485
  480MOL0     O66161   6.650   4.294   1.262 -0.0491  1.0021 -0.5887
  480MOL0     C66162   6.542   4.263   1.349  0.2472  0.4075 -0.6982
  480MOL0     C66163   6.461   4.148   1.286 -0.0648  0.4646 -0.2735
  480MOL0     C66164   6.540   4.013   1.277 -0.6971 -0.7173  0.3292
  480MOL0     C66165   6.557   3.929   1.406  0.0421  0.0023  0.0528
  480MOL0     C66166   6.624   3.806   1.378  0.0345 -0.3854 -0.0726
  480MOL0     C66167   6.677   3.702   1.364 -0.1297 -0.3929 -0.4812
  480MOL0     C66168   6.738   4.406   1.089 -0.8674 -0.0786  0.7278
  480MOL0     C66169   6.733   4.483   0.971  0.0433 -0.2287 -0.3871
  480MOL0     C66170   6.869   4.479   0.901  0.6285 -0.3542 -0.5216
  480MOL0     H66171   6.397   4.903   0.791  1.3353  0.2158 -0.6191
  480MOL0     H66172   6.303   5.031   0.582 -1.9706  0.0845  0.8077
  480MOL0     H66173   6.400   4.875   0.174 -2.7579 -1.8271  1.2923
  480MOL0     H66174   6.507   4.982   0.263 -0.2130  2.3700 -2.4461
  480MOL0     H66175   6.261   5.111   0.196  0.6296 -0.2445  0.6505
  480MOL0     H66176   6.414   5.179   0.224 -0.2212  1.9845 -2.5508
  480MOL0     H66177   6.328   5.009  -0.017 -1.1117  0.6356 -0.7520
  480MOL0     H66178   6.316   5.179  -0.005 -0.9203 -0.6853  1.6452
  480MOL0     H66179   6.558   5.210   0.006  2.5154  0.1680 -1.7986
  480MOL0     H66180   6.585   5.029   0.021 -0.6029  0.7021  1.9836
  480MOL0     H66181   6.460   5.146  -0.227 -1.8816  1.0639  0.5428
  480MOL0     H66182   6.504   4.986  -0.194 -3.1626  0.1936  3.0393
  480MOL0     H66183   6.739   5.013  -0.192  0.2637  1.0436  2.8788
  480MOL0     H66184   6.686   5.086  -0.338 -1.2807 -3.2749  0.1645
  480MOL0     H66185   6.748   5.233  -0.074 -2.7641 -0.0105  0.1969
  480MOL0     H66186   6.673   5.321  -0.212  2.9597  2.5327 -0.9648
  480MOL0     H66187   6.886   5.289  -0.337 -1.2951  0.1349  1.0097
  480MOL0     H66188   6.883   5.384  -0.193  0.2901  1.2574 -0.4908
  480MOL0     H66189   6.961   5.012  -0.309  0.4328 -0.6991 -0.7712
  480MOL0     H66190   7.063   4.821  -0.200 -0.4811  1.7772 -0.6203
  480MOL0     H66191   7.142   4.828  -0.045 -0.4208 -3.4928 -2.0330
  480MOL0     H66192   7.312   4.751  -0.211  0.0331  1.5573  0.1860
  480MOL0     H66193   7.270   4.881  -0.316 -1.4111  0.2328 -0.7579
  480MOL0     H66194   7.483   4.939  -0.207 -1.1890  1.1738 -1.2833
  480MOL0     H66195   7.377   5.059  -0.141  2.0566  0.2919 -0.1214
  480MOL0     H66196   7.346   4.942   0.062  1.6704  0.5362  0.1327
  480MOL0     H66197   7.426   4.798  -0.015  2.3750  0.0733 -1.2428
  480MOL0     H66198   7.753   5.076   0.109  1.4902  1.1257  1.5832
  480MOL0     H66199   7.939   5.118   0.434  1.0388  0.0757 -0.3618
  480MOL0     H66200   7.921   5.165   0.260 -0.9751  0.0171  0.1223
  480MOL0     H66201   8.004   5.016   0.309 -1.1991 -1.7337 -0.6719
  480MOL0     H66202   7.716   4.942   0.799  2.1167  1.1590  2.6292
  480MOL0     H66203   7.754   4.901   1.041  1.7540  0.0972 -0.5323
  480MOL0     H66204   7.895   4.847   1.203  2.5376 -1.6806 -1.0628
  480MOL0     H66205   7.728   4.802   1.247  0.1993  1.2011 -1.5686
  480MOL0     H66206   7.978   4.684   1.364  0.1900  1.0586 -2.6281
  480MOL0     H66207   7.878   4.812   1.437  0.8016 -0.6081  0.6201
  480MOL0     H66208   7.831   4.569   1.523 -1.6718  2.1303  2.6195
  480MOL0     H66209   7.772   4.534   1.364  1.0132 -0.5273  1.0742
  480MOL0     H66210   7.629   4.768   1.444  2.1494 -0.0197  0.6474
  480MOL0     H66211   7.654   4.686   1.596 -2.0072  0.7770  0.0204
  480MOL0     H66212   7.581   4.469   1.490 -1.4839 -0.2194  0.6510
  480MOL0     H66213   7.461   4.593   1.543 -0.8419  3.8787 -2.1327
  480MOL0     H66214   7.459   4.490   1.289 -1.6569  0.6869  0.2149
  480MOL0     H66215   7.549   4.630   1.260 -0.6854 -2.5008 -2.1910
  480MOL0     H66216   7.371   4.762   1.394 -0.8512  0.5381 -0.2584
  480MOL0     H66217   7.289   4.600   1.407 -0.0974 -0.0215 -0.6959
  480MOL0     H66218   7.347   4.752   1.149  0.2978 -0.9440 -0.4128
  480MOL0     H66219   7.191   4.733   1.226 -0.4364 -1.0762  0.7804
  480MOL0     H66220   7.852   4.489   0.966 -0.2556 -1.2724 -2.2348
  480MOL0     H66221   7.805   4.526   0.725  0.2565 -0.5033  0.3864
  480MOL0     H66222   7.568   4.775   0.451  1.7697  1.4269  1.8338
  480MOL0     H66223   7.436   4.846   0.249 -0.2630 -0.6799  0.9320
  480MOL0     H66224   6.397   4.689   0.336 -0.0308  1.6722 -0.8253
  480MOL0     H66225   6.445   4.552   0.548  0.0076 -0.1053  1.7400
  480MOL0     H66226   6.418   4.598   1.018 -1.2829 -1.8049  2.0184
  480MOL0     H66227   6.418   4.443   1.192  0.9938  1.8944  1.0981
  480MOL0     H66228   6.580   4.224   1.444 -1.0108  1.2621  0.1954
  480MOL0     H66229   6.479   4.350   1.368 -0.7087  0.4833 -3.7022
  480MOL0     H66230   6.438   4.176   1.183  1.9288 -3.7853 -2.1346
  480MOL0     H66231   6.370   4.130   1.344  0.0732  0.7199  0.0206
  480MOL0     H66232   6.474   3.953   1.212 -0.9335  0.2112 -0.3056
  480MOL0     H66233   6.639   4.022   1.232 -1.3180  1.4929 -0.7403
  480MOL0     H66234   6.462   3.899   1.451 -0.7675  0.8202 -1.0469
  480MOL0     H66235   6.619   3.992   1.471  1.0373 -0.4852 -0.4119
  480MOL0     H66236   6.711   3.602   1.343 -2.3811 -0.9063 -2.1447
  480MOL0     H66237   6.834   4.361   1.112 -1.6598 -0.5948  3.3588
  480MOL0     H66238   6.870   4.389   0.839  0.9601  0.0311 -1.0916
  480MOL0     H66239   6.888   4.566   0.837 -1.5115  0.3117 -0.3310
  480MOL0     H66240   6.954   4.482   0.970  0.8224 -0.0927 -0.7646
  481MOL0     O66241   4.748   8.371   4.340 -0.1205  1.0066  0.5991
  481MOL0     C66242   4.792   8.296   4.253 -0.0975  0.5696  0.5777
  481MOL0     O66243   4.919   8.287   4.216 -0.5641 -0.3501  0.4239
  481MOL0     C66244   5.022   8.307   4.309  0.0091 -0.3269 -0.1196
  481MOL0     C66245   5.012   8.246   4.436 -0.1463  0.1805 -1.6100
  481MOL0     C66246   5.120   8.275   4.529 -0.3610  0.5264  0.2909
  481MOL0     C66247   5.217   8.358   4.492 -0.4196 -0.5328  0.0079
  481MOL0     O66248   5.321   8.387   4.581 -0.1010  0.8044 -0.4833
  481MOL0     C66249   5.296   8.472   4.681 -0.2216 -0.7192 -0.7041
  481MOL0     C66250   5.420   8.559   4.709 -0.1408 -0.2804 -0.2979
  481MOL0     C66251   5.472   8.653   4.596  0.2093  0.2472  0.1138
  481MOL0     C66252   5.600   8.732   4.628 -0.9341 -0.0819  0.4209
  481MOL0     C66253   5.643   8.813   4.506  0.0680 -0.2814 -0.9974
  481MOL0     C66254   5.772   8.889   4.525 -1.0230  0.5256 -1.0739
  481MOL0     C66255   5.811   8.993   4.417 -0.1226 -0.1416  0.3757
  481MOL0     C66256   5.784   8.946   4.283  0.5380  1.2147 -0.5945
  481MOL0     N66257   5.864   9.014   4.186  0.0387 -0.2521  0.0655
  481MOL0     C66258   5.984   8.970   4.129  0.1238  0.0894  0.7483
  481MOL0     C66259   6.008   9.065   4.033 -0.1136  0.0757  0.4121
  481MOL0     C66260   6.127   9.063   3.940 -0.1334  0.8547  0.4413
  481MOL0     C66261   6.151   9.197   3.867 -0.4114  0.9215  0.7502
  481MOL0     C66262   6.214   9.295   3.971  0.5519  0.2526 -0.2690
  481MOL0     C66263   6.280   9.413   3.900  0.0511 -0.9854 -0.7551
  481MOL0     O66264   6.391   9.358   3.833  0.3402 -0.7504  0.2737
  481MOL0     C66265   6.492   9.449   3.797  0.1317  0.0133  0.1989
  481MOL0     C66266   6.485   9.590   3.788 -0.5287  0.1500  0.2161
  481MOL0     C66267   6.586   9.669   3.755  0.3816  0.6406  0.2303
  481MOL0     C66268   6.567   9.812   3.754 -0.3212  0.2686 -0.2708
  481MOL0     C66269   6.712   9.607   3.716  0.6414 -0.5799 -0.0355
  481MOL0     C66270   6.833   9.685   3.672 -0.3191  1.1395  0.5460
  481MOL0     O66271   6.941   9.609   3.659 -0.6075  0.7607  0.1111
  481MOL0     C66272   7.042   9.651   3.573  0.0583 -0.3446  0.5815
  481MOL0     C66273   7.041   9.603   3.446 -0.6871  0.0782 -0.2398
  481MOL0     C66274   7.140   9.635   3.353 -0.4450 -0.0463 -0.3566
  481MOL0     C66275   7.236   9.734   3.396 -0.8033  1.1491  0.3557
  481MOL0     O66276   7.329   9.769   3.293  0.5746 -0.8764 -0.6942
  481MOL0     C66277   7.415   9.878   3.330 -0.0483 -0.0844 -0.6616
  481MOL0     C66278   7.522   9.883   3.228  0.0802 -0.8062  0.3495
  481MOL0     C66279   7.638   9.966   3.266 -0.3545 -0.0293 -0.2031
  481MOL0     C66280   7.748   9.992   3.156  0.0738  0.4617  0.4428
  481MOL0     C66281   7.687  10.074   3.032  0.3123 -0.6680  0.2093
  481MOL0     C66282   7.792  10.153   2.948  0.8063  0.0498 -0.4069
  481MOL0     C66283   7.737  10.258   2.840  0.2227  0.0975 -0.3805
  481MOL0     C66284   7.847  10.344   2.784 -0.1385  0.1338 -0.2294
  481MOL0    Cl66285   7.964  10.227   2.709  0.7309 -0.2897 -0.2026
  481MOL0     C66286   7.230   9.780   3.526 -0.3110 -0.3726  0.3547
  481MOL0     C66287   7.145   9.730   3.621 -0.0269 -0.1524 -0.7094
  481MOL0     O66288   6.825   9.796   3.646 -0.3512  0.0533 -0.0552
  481MOL0     C66289   6.713   9.466   3.699  0.2616 -0.1312 -0.5541
  481MOL0     C66290   6.606   9.385   3.744  0.9242 -0.1282  0.5505
  481MOL0     N66291   5.914   9.156   4.035  0.3600  0.6896 -0.1052
  481MOL0     N66292   5.833   9.130   4.126  0.6117 -0.3852 -0.2320
  481MOL0     C66293   5.223   8.416   4.362 -0.0698 -0.4994  0.4711
  481MOL0     C66294   5.131   8.387   4.269 -0.2097  0.8070 -0.5474
  481MOL0     C66295   4.686   8.214   4.175  0.5331  0.2571 -0.0450
  481MOL0     C66296   4.693   8.216   4.039  0.2628 -0.1006 -0.0639
  481MOL0     C66297   4.611   8.144   3.950 -0.2445  0.2560 -0.3088
  481MOL0     C66298   4.514   8.067   4.001 -0.1447  0.7855 -0.1073
  481MOL0     O66299   4.458   7.986   3.906 -0.0183 -0.2004 -0.6408
  481MOL0     C66300   4.321   7.940   3.931  0.2953 -0.6831  0.0854
  481MOL0     C66301   4.236   7.973   3.806  0.7471 -0.5422 -0.1425
  481MOL0     C66302   4.267   7.884   3.685  0.9638  0.1452 -0.2946
  481MOL0     C66303   4.217   7.958   3.562  0.2845 -0.0143 -0.2151
  481MOL0     C66304   4.218   7.876   3.440 -0.2205  1.3476  0.0344
  481MOL0     C66305   4.236   7.820   3.329  0.2636  0.2568  0.3667
  481MOL0     C66306   4.495   8.066   4.132  0.0299 -0.2162  0.4002
  481MOL0     C66307   4.580   8.136   4.223  0.2742  0.2781  1.0973
  481MOL0     C66308   4.561   8.111   4.368  0.1164 -0.5193 -0.7035
  481MOL0     H66309   4.927   8.181   4.456  0.0357  0.8138  1.6998
  481MOL0     H66310   5.128   8.230   4.628  1.7952 -1.1972 -0.5842
  481MOL0     H66311   5.297   8.406   4.768  1.5266 -1.5830 -1.3231
  481MOL0     H66312   5.209   8.537   4.666 -0.5097 -0.2143  2.4357
  481MOL0     H66313   5.397   8.625   4.792 -2.0103 -0.3138 -0.7393
  481MOL0     H66314   5.506   8.501   4.744 -0.1776 -0.4003 -0.4061
  481MOL0     H66315   5.490   8.583   4.513  3.5129  1.7562 -0.6029
  481MOL0     H66316   5.394   8.725   4.570  2.5597  3.2150  0.7507
  481MOL0     H66317   5.575   8.798   4.713  3.0934  1.1931  0.8131
  481MOL0     H66318   5.682   8.667   4.658  0.5659  1.3535 -0.4330
  481MOL0     H66319   5.558   8.879   4.485  0.9896  1.7261  1.1329
  481MOL0     H66320   5.658   8.743   4.423  1.3348 -0.4590 -0.6448
  481MOL0     H66321   5.785   8.930   4.626  0.9624  0.1408 -1.1320
  481MOL0     H66322   5.855   8.818   4.516 -0.6397  0.8263 -0.0267
  481MOL0     H66323   5.915   9.022   4.434 -0.4636  0.6731  1.1671
  481MOL0     H66324   5.755   9.087   4.423  0.7505  0.8559 -3.8853
  481MOL0     H66325   5.787   8.837   4.274 -1.8615  0.8886  1.4908
  481MOL0     H66326   5.680   8.973   4.261  1.0960  2.3697 -2.0206
  481MOL0     H66327   6.037   8.879   4.150 -2.7656 -1.2213  3.0654
  481MOL0     H66328   6.109   8.981   3.871  2.3270 -1.4206  2.2759
  481MOL0     H66329   6.228   9.036   3.974  0.4532 -0.5074 -2.1238
  481MOL0     H66330   6.210   9.184   3.776 -0.3229  1.1148  0.7804
  481MOL0     H66331   6.058   9.235   3.823 -0.4979 -0.3358 -0.2226
  481MOL0     H66332   6.132   9.333   4.032 -1.2425  2.1187 -3.5735
  481MOL0     H66333   6.289   9.249   4.036 -0.0720  0.0387  0.2984
  481MOL0     H66334   6.209   9.463   3.834 -0.6023 -3.0752 -1.7045
  481MOL0     H66335   6.312   9.483   3.978 -2.1646  0.4828 -1.0772
  481MOL0     H66336   6.402   9.643   3.833 -0.1198 -0.2078  1.4305
  481MOL0     H66337   6.470   9.857   3.776  0.6261  3.7847 -2.4126
  481MOL0     H66338   6.570   9.856   3.654 -1.6494  2.0607  0.4166
  481MOL0     H66339   6.639   9.870   3.813  1.7335  0.5902 -2.9074
  481MOL0     H66340   6.948   9.560   3.410 -0.9533 -0.8823  1.5018
  481MOL0     H66341   7.130   9.593   3.254  2.3185 -3.6355  0.6801
  481MOL0     H66342   7.352   9.966   3.343  0.2194  0.3596 -2.1398
  481MOL0     H66343   7.471   9.870   3.423 -0.2355  1.1933 -0.4091
  481MOL0     H66344   7.559   9.781   3.217  2.6449 -0.2190  2.5645
  481MOL0     H66345   7.481   9.918   3.132  1.1920  1.3230  0.5840
  481MOL0     H66346   7.684   9.906   3.345  0.6413 -0.4371 -1.0706
  481MOL0     H66347   7.606  10.062   3.307 -2.1551 -0.1591 -1.1697
  481MOL0     H66348   7.773   9.893   3.117 -3.9931 -0.6020  0.0618
  481MOL0     H66349   7.835  10.043   3.200  1.4578  0.4424 -2.1268
  481MOL0     H66350   7.625  10.008   2.970 -2.7430  1.4302  0.8193
  481MOL0     H66351   7.623  10.147   3.082 -0.7980 -1.4451 -0.0349
  481MOL0     H66352   7.867  10.084   2.908  3.4014  2.4383 -0.0233
  481MOL0     H66353   7.841  10.214   3.025  1.1745  0.7114 -1.1539
  481MOL0     H66354   7.650  10.317   2.870  0.7193  0.4719  0.3521
  481MOL0     H66355   7.686  10.197   2.765 -1.4405 -1.1418  1.6219
  481MOL0     H66356   7.897  10.413   2.853  2.1208 -1.1854 -0.4533
  481MOL0     H66357   7.808  10.402   2.700 -0.3742 -2.8008 -2.2942
  481MOL0     H66358   7.298   9.850   3.574 -2.4360  0.6423  2.1119
  481MOL0     H66359   7.143   9.752   3.727  0.5384  0.2006 -0.7710
  481MOL0     H66360   6.794   9.408   3.655 -1.2432 -3.7399  1.0778
  481MOL0     H66361   6.613   9.278   3.762 -1.0559  0.0978  3.1993
  481MOL0     H66362   5.310   8.479   4.345 -1.1127  1.0086  0.4753
  481MOL0     H66363   5.139   8.438   4.173  1.6637  1.9968  0.1720
  481MOL0     H66364   4.760   8.290   3.996 -0.9361  1.8115  1.2021
  481MOL0     H66365   4.635   8.139   3.844  2.0844 -2.2712  0.2181
  481MOL0     H66366   4.316   7.831   3.943  1.3969 -0.7447  0.0655
  481MOL0     H66367   4.271   7.988   4.015 -2.2506  0.7307 -2.1061
  481MOL0     H66368   4.258   8.074   3.772  0.2099 -0.1216  0.7438
  481MOL0     H66369   4.129   7.961   3.822  0.7505 -0.2085  0.1148
  481MOL0     H66370   4.371   7.866   3.658  0.9331 -0.8087  0.1880
  481MOL0     H66371   4.222   7.786   3.702 -0.2539  0.6380 -0.5531
  481MOL0     H66372   4.280   8.043   3.536 -0.3267  0.0532 -1.5695
  481MOL0     H66373   4.113   7.992   3.571 -0.1394 -0.7002 -1.9421
  481MOL0     H66374   4.251   7.775   3.233 -1.0659 -3.0985  1.5957
  481MOL0     H66375   4.416   8.001   4.168 -2.1020  2.6102  1.1776
  481MOL0     H66376   4.660   8.118   4.416  0.7132 -0.3183 -1.9332
  481MOL0     H66377   4.503   8.194   4.410 -0.5550 -0.6180 -1.4216
  481MOL0     H66378   4.511   8.018   4.395 -1.6352 -0.0198 -2.0402
  482MOL0     O66379   2.082   9.031  11.143 -0.4792 -0.5490  0.6462
  482MOL0     C66380   2.040   9.077  11.255 -0.9761 -0.0179 -0.1720
  482MOL0     O66381   2.110   9.159  11.332 -1.1254  0.2440 -0.3797
  482MOL0     C66382   2.230   9.208  11.286 -0.4170 -0.3395  0.4400
  482MOL0     C66383   2.253   9.348  11.279 -0.1458  0.2851  0.3278
  482MOL0     C66384   2.368   9.398  11.216  0.1961 -0.5308 -1.4408
  482MOL0     C66385   2.457   9.312  11.158  1.0547  0.3243  0.4609
  482MOL0     O66386   2.563   9.364  11.093  0.0481  0.3158 -0.0085
  482MOL0     C66387   2.547   9.481  11.017 -0.6077 -0.0228 -0.6841
  482MOL0     C66388   2.658   9.488  10.915 -0.2681 -0.1146 -0.1178
  482MOL0     C66389   2.660   9.629  10.856 -0.9502  0.0937 -0.1545
  482MOL0     C66390   2.791   9.654  10.779  0.8073  0.6227 -0.0988
  482MOL0     C66391   2.793   9.795  10.714  0.2733  0.0012  0.3468
  482MOL0     C66392   2.922   9.827  10.637 -0.3800 -0.2104 -0.1949
  482MOL0     C66393   2.926   9.749  10.507  0.0183 -0.6714 -0.9938
  482MOL0     C66394   3.064   9.773  10.438  0.0504  0.4059  0.1884
  482MOL0     N66395   3.082   9.918  10.408  0.0672  0.3421  0.2147
  482MOL0     C66396   3.035   9.966  10.293 -0.3769  1.1782  0.8862
  482MOL0     C66397   3.086  10.090  10.280 -0.0102  0.1375 -0.1255
  482MOL0     C66398   3.042  10.186  10.174 -0.2880 -0.7508 -0.6476
  482MOL0     C66399   3.158  10.286  10.140  0.2979  0.3911 -0.0936
  482MOL0     C66400   3.107  10.407  10.067  0.6187  0.1090 -0.2466
  482MOL0     C66401   3.215  10.482   9.998  0.3176 -0.3437  1.0688
  482MOL0     O66402   3.260  10.581  10.086  0.8274  1.0470 -0.7579
  482MOL0     C66403   3.380  10.559  10.152 -0.2986 -0.1728 -0.1049
  482MOL0     C66404   3.407  10.647  10.259 -0.5779 -0.2436 -0.7692
  482MOL0     C66405   3.530  10.653  10.329  0.6214  0.2759  0.9067
  482MOL0     C66406   3.540  10.744  10.447 -0.1413 -0.1060  0.3994
  482MOL0     C66407   3.628  10.555  10.304 -0.2460  0.0291 -0.3895
  482MOL0     C66408   3.771  10.546  10.361 -0.0352  0.1354  1.0338
  482MOL0     O66409   3.813  10.632  10.445 -0.1071 -0.2970 -0.2391
  482MOL0     C66410   3.944  10.662  10.463  0.6145  0.2861  0.4319
  482MOL0     C66411   3.999  10.649  10.594 -0.2462  0.4233  1.1923
  482MOL0     C66412   4.132  10.679  10.603 -0.3026 -0.0298 -0.1178
  482MOL0     C66413   4.206  10.728  10.497 -0.7634  0.2045 -0.4744
  482MOL0     O66414   4.334  10.786  10.516 -0.5365  0.5145  0.3091
  482MOL0     C66415   4.425  10.721  10.600  0.0032  0.1225 -0.2195
  482MOL0     C66416   4.568  10.771  10.567 -0.6151  0.9765 -0.3251
  482MOL0     C66417   4.669  10.690  10.652 -0.2515 -0.1523 -0.0205
  482MOL0     C66418   4.816  10.721  10.617  0.8203  0.0449 -0.1979
  482MOL0     C66419   4.911  10.663  10.713  0.2731 -0.0219  0.3253
  482MOL0     C66420   5.060  10.692  10.677  0.2487  0.2373 -0.1201
  482MOL0     C66421   5.111  10.826  10.666  0.3243 -0.1379  0.5094
  482MOL0     C66422   5.116  10.899  10.795 -0.6355  0.6727 -0.5996
  482MOL0    Cl66423   5.248  10.854  10.903 -0.0835 -0.1915 -0.0559
  482MOL0     C66424   4.156  10.728  10.369 -0.5592  0.4284 -0.2198
  482MOL0     C66425   4.025  10.687  10.351 -0.3262  0.2396  0.1772
  482MOL0     O66426   3.836  10.451  10.316  0.3717  0.4418 -1.2198
  482MOL0     C66427   3.588  10.455  10.215 -0.4276  0.3592  0.1868
  482MOL0     C66428   3.472  10.448  10.141  0.0234 -0.4136  0.6501
  482MOL0     N66429   3.152  10.122  10.402  0.7752  0.0740 -0.3807
  482MOL0     N66430   3.149  10.016  10.482  0.9964 -0.4651  0.2890
  482MOL0     C66431   2.447   9.176  11.165 -0.2760 -0.4505  0.0862
  482MOL0     C66432   2.325   9.127  11.220  0.6066 -0.0014 -0.5376
  482MOL0     C66433   1.911   9.025  11.313 -0.4308 -0.6177  0.7071
  482MOL0     C66434   1.881   9.066  11.450  0.5393  0.3248  0.4159
  482MOL0     C66435   1.758   9.022  11.518 -0.3010  0.0461 -0.7989
  482MOL0     C66436   1.668   8.940  11.452  0.1931  0.1470  0.0089
  482MOL0     O66437   1.562   8.894  11.521 -0.0950 -0.3690 -0.2519
  482MOL0     C66438   1.490   8.781  11.486  0.1865  0.3056  0.1547
  482MOL0     C66439   1.508   8.693  11.607 -0.2819  0.9653  0.1856
  482MOL0     C66440   1.428   8.560  11.599  0.5695 -0.1781 -0.5098
  482MOL0     C66441   1.503   8.453  11.687  0.7902  0.1764 -0.5114
  482MOL0     C66442   1.413   8.361  11.755  0.4761 -0.1401 -0.3518
  482MOL0     C66443   1.325   8.285  11.790  0.4326 -0.4532 -0.2060
  482MOL0     C66444   1.693   8.916  11.314 -0.9447  0.0529  0.5235
  482MOL0     C66445   1.812   8.952  11.248  0.6194 -0.2999  0.1241
  482MOL0     C66446   1.835   8.896  11.109  0.2971  0.7563  0.3743
  482MOL0     H66447   2.182   9.418  11.323 -0.0044  0.3442  0.4594
  482MOL0     H66448   2.361   9.506  11.205 -2.5224 -0.2306  1.7616
  482MOL0     H66449   2.534   9.570  11.079 -0.0099 -1.6591  1.9063
  482MOL0     H66450   2.450   9.473  10.966 -1.1957 -0.0335  0.4072
  482MOL0     H66451   2.750   9.457  10.964  0.6469  0.8639 -1.1340
  482MOL0     H66452   2.630   9.417  10.836 -0.7721 -1.5313  1.2868
  482MOL0     H66453   2.574   9.641  10.790 -2.2337 -2.1442  1.0100
  482MOL0     H66454   2.643   9.703  10.934 -0.9965  1.0870 -1.0776
  482MOL0     H66455   2.883   9.639  10.838  1.0135  1.4370 -0.1971
  482MOL0     H66456   2.786   9.571  10.708  0.4013 -0.2640  0.9362
  482MOL0     H66457   2.769   9.865  10.794 -0.1872  1.0108 -0.6505
  482MOL0     H66458   2.718   9.791  10.634  0.2399 -0.1180  0.3837
  482MOL0     H66459   2.924   9.935  10.623  1.6131 -0.0765  0.8707
  482MOL0     H66460   3.014   9.802  10.689 -0.0673 -1.3666 -1.2513
  482MOL0     H66461   2.841   9.790  10.452 -2.0792 -1.3958  1.5116
  482MOL0     H66462   2.913   9.643  10.529  0.6306 -0.6237 -0.3673
  482MOL0     H66463   3.149   9.747  10.501  1.3437 -2.8272 -2.5913
  482MOL0     H66464   3.073   9.722  10.341  1.3872  0.9628 -0.0037
  482MOL0     H66465   2.971   9.921  10.218  1.1871  2.9425 -1.6796
  482MOL0     H66466   2.955  10.234  10.221 -1.5069 -3.5047  0.1303
  482MOL0     H66467   3.007  10.137  10.083 -0.1933 -0.7750 -0.6701
  482MOL0     H66468   3.207  10.306  10.235  5.6657 -2.5166 -1.8209
  482MOL0     H66469   3.236  10.233  10.085  2.7310 -0.3083  3.6632
  482MOL0     H66470   3.034  10.383   9.989  1.8242  1.7766 -1.9841
  482MOL0     H66471   3.068  10.474  10.144  0.4151 -1.5514  1.1595
  482MOL0     H66472   3.290  10.414   9.956  0.1949  0.1597  0.0095
  482MOL0     H66473   3.163  10.539   9.920 -1.4086 -1.0953  1.6278
  482MOL0     H66474   3.330  10.719  10.283 -0.1980  0.1456 -0.7245
  482MOL0     H66475   3.604  10.709  10.529  1.0883  2.9730  0.9052
  482MOL0     H66476   3.443  10.760  10.494 -0.0857  0.7147  0.2460
  482MOL0     H66477   3.577  10.834  10.397 -1.6677  0.0861 -0.4147
  482MOL0     H66478   3.929  10.629  10.675 -1.0259  1.2629  0.7509
  482MOL0     H66479   4.186  10.675  10.697  1.0829 -0.5343 -0.9060
  482MOL0     H66480   4.404  10.757  10.701 -2.1410  0.0329 -0.5834
  482MOL0     H66481   4.405  10.613  10.588  0.2644 -0.2458  2.2549
  482MOL0     H66482   4.588  10.754  10.461 -0.4136  1.5762 -0.3875
  482MOL0     H66483   4.587  10.879  10.576 -1.1225  1.1848 -1.4597
  482MOL0     H66484   4.662  10.585  10.622  1.9982 -0.5612  0.6936
  482MOL0     H66485   4.641  10.702  10.757  1.3769  0.1824  0.4017
  482MOL0     H66486   4.830  10.829  10.606  0.2099  0.1791  0.2896
  482MOL0     H66487   4.837  10.666  10.524  2.7731 -3.1176  1.9038
  482MOL0     H66488   4.891  10.697  10.815  3.0330 -1.1005  1.3049
  482MOL0     H66489   4.902  10.554  10.719  0.2519  0.0144  1.1560
  482MOL0     H66490   5.078  10.621  10.596 -1.4949 -2.2818  1.5657
  482MOL0     H66491   5.109  10.647  10.764 -1.9249 -2.2381 -0.0272
  482MOL0     H66492   5.058  10.887  10.593  1.7493  1.5383  0.8026
  482MOL0     H66493   5.217  10.823  10.639  0.9964  2.8540  2.2788
  482MOL0     H66494   5.018  10.889  10.844  0.1015 -0.7124  0.6827
  482MOL0     H66495   5.127  11.008  10.787 -0.4815  0.9493  2.2070
  482MOL0     H66496   4.221  10.749  10.285  1.4177  0.6736  1.3152
  482MOL0     H66497   3.970  10.678  10.258 -1.9313  0.8943  1.0310
  482MOL0     H66498   3.650  10.366  10.208 -0.7424 -0.2247  3.4500
  482MOL0     H66499   3.449  10.370  10.069 -4.0409  1.7758 -0.7634
  482MOL0     H66500   2.510   9.106  11.111 -0.4115 -1.2849  0.9758
  482MOL0     H66501   2.301   9.022  11.203  1.6335 -0.4279  0.5144
  482MOL0     H66502   1.958   9.123  11.501  2.7759 -1.3277 -0.9885
  482MOL0     H66503   1.744   9.055  11.621  2.7114 -0.1813 -0.2441
  482MOL0     H66504   1.386   8.812  11.478  0.6233  1.3562 -3.2870
  482MOL0     H66505   1.521   8.730  11.394  0.2946 -0.9086  0.8473
  482MOL0     H66506   1.466   8.749  11.692  2.9949  2.8212  0.7555
  482MOL0     H66507   1.615   8.669  11.606 -0.5008 -0.1760 -2.2121
  482MOL0     H66508   1.323   8.581  11.625  1.0655  0.0168  1.5276
  482MOL0     H66509   1.422   8.533  11.493  0.1290  1.2597 -0.8692
  482MOL0     H66510   1.562   8.494  11.770  3.0937  1.4166 -2.6212
  482MOL0     H66511   1.568   8.397  11.620 -1.7534 -0.3865 -2.7065
  482MOL0     H66512   1.248   8.225  11.834 -0.7172  1.5504  0.6805
  482MOL0     H66513   1.623   8.872  11.244 -3.2948  3.1574  0.6978
  482MOL0     H66514   1.856   8.974  11.035  1.4486  1.2864  1.2359
  482MOL0     H66515   1.920   8.829  11.127 -0.2441 -0.9926 -2.7848
  482MOL0     H66516   1.753   8.834  11.071  1.7418  0.0733 -1.8033
  483MOL0     O66517   1.339   7.092   1.360  0.8254 -0.4663  0.1698
  483MOL0     C66518   1.294   7.009   1.284 -0.9072  0.7779 -0.3342
  483MOL0     O66519   1.372   6.908   1.236 -0.0045  0.4187  0.9827
  483MOL0     C66520   1.494   6.884   1.293  0.5705 -0.2825 -0.1096
  483MOL0     C66521   1.517   6.797   1.402  0.6761  0.2564  0.3041
  483MOL0     C66522   1.644   6.773   1.460 -0.0937  0.0724  0.0918
  483MOL0     C66523   1.751   6.833   1.394 -0.1049  0.2537  0.2230
  483MOL0     O66524   1.883   6.817   1.418 -0.0665 -0.2366 -0.3512
  483MOL0     C66525   1.927   6.720   1.507 -0.1209  0.6008 -0.5502
  483MOL0     C66526   2.042   6.642   1.441  0.9342 -0.4973  0.2834
  483MOL0     C66527   2.076   6.510   1.516  0.5476  0.0160 -0.6520
  483MOL0     C66528   2.172   6.428   1.430 -0.2627  0.1987  0.3331
  483MOL0     C66529   2.249   6.330   1.494  0.7686 -0.3707  0.5101
  483MOL0     C66530   2.356   6.273   1.400  0.0396 -0.1078  0.2292
  483MOL0     C66531   2.443   6.152   1.442 -0.4844 -0.6142  0.2525
  483MOL0     C66532   2.483   6.165   1.586 -0.0388  0.2136 -0.2226
  483MOL0     N66533   2.570   6.061   1.634 -0.7010  0.3672  0.3680
  483MOL0     C66534   2.698   6.076   1.685  0.3864 -0.0999  0.3921
  483MOL0     C66535   2.733   5.949   1.719 -0.7304  0.2739 -1.5402
  483MOL0     C66536   2.862   5.911   1.782 -0.5549  0.0813 -0.5524
  483MOL0     C66537   2.977   5.919   1.681  0.3724 -0.5314  0.8528
  483MOL0     C66538   3.000   6.068   1.628  0.4470  0.1942  0.1861
  483MOL0     C66539   3.119   6.082   1.531 -0.0178 -0.3370  0.1050
  483MOL0     O66540   3.233   6.003   1.579  0.3468  0.0077  0.1900
  483MOL0     C66541   3.347   6.003   1.500  0.7591 -0.5382  0.3142
  483MOL0     C66542   3.382   6.092   1.397  0.3738  0.3743 -0.5566
  483MOL0     C66543   3.507   6.073   1.336  1.3581  0.7420 -0.1792
  483MOL0     C66544   3.534   6.170   1.227  0.0008 -0.6333  0.7066
  483MOL0     C66545   3.598   5.971   1.384 -0.7924 -0.0030  0.7047
  483MOL0     C66546   3.729   5.952   1.326  0.0997  0.5756 -0.1015
  483MOL0     O66547   3.769   5.828   1.317  0.3117  0.0956 -0.0708
  483MOL0     C66548   3.906   5.807   1.303  0.0896 -0.1387 -0.3509
  483MOL0     C66549   3.956   5.734   1.194  0.6797 -1.6811 -0.0007
  483MOL0     C66550   4.090   5.724   1.178  0.6084  0.0978 -0.2541
  483MOL0     C66551   4.181   5.763   1.277 -0.7049  0.2287  0.1604
  483MOL0     O66552   4.321   5.762   1.250  0.1738 -0.4390 -0.4171
  483MOL0     C66553   4.362   5.736   1.116  0.4182 -0.0649  0.1478
  483MOL0     C66554   4.520   5.733   1.113  0.4273  0.9351  0.2529
  483MOL0     C66555   4.580   5.872   1.154 -0.4612 -0.1937  0.3731
  483MOL0     C66556   4.732   5.863   1.130 -0.5611  0.8217  0.7712
  483MOL0     C66557   4.809   5.995   1.127  0.3442 -0.1885  0.4369
  483MOL0     C66558   4.954   5.994   1.171 -1.1336 -0.3889  0.2173
  483MOL0     C66559   4.968   5.983   1.323  0.7408  0.5086  0.3723
  483MOL0     C66560   5.114   5.939   1.357 -0.0566  0.1449  0.1907
  483MOL0    Cl66561   5.243   6.030   1.274  0.1808  0.2376  0.2464
  483MOL0     C66562   4.136   5.819   1.390  0.4142 -0.1623 -0.1048
  483MOL0     C66563   4.000   5.853   1.402 -0.1710 -0.4208 -0.2046
  483MOL0     O66564   3.797   6.055   1.306 -0.3664 -0.1335 -0.3427
  483MOL0     C66565   3.562   5.888   1.485 -0.0329  0.8960 -0.4173
  483MOL0     C66566   3.438   5.902   1.547  1.0283 -0.3176  1.0287
  483MOL0     N66567   2.633   5.863   1.690  0.6600  0.4004  0.3895
  483MOL0     N66568   2.534   5.928   1.633 -0.0369 -0.3672 -0.0562
  483MOL0     C66569   1.730   6.910   1.279  0.7566 -0.2905 -0.5894
  483MOL0     C66570   1.602   6.934   1.222  0.1889 -0.3754 -0.4668
  483MOL0     C66571   1.146   7.014   1.242  0.4190  0.3185 -0.5204
  483MOL0     C66572   1.099   6.909   1.172  0.0838  0.3742  0.1808
  483MOL0     C66573   0.976   6.903   1.118 -0.5213  0.5276  0.2549
  483MOL0     C66574   0.891   7.014   1.126 -1.6096  1.1336 -0.3480
  483MOL0     O66575   0.756   7.005   1.100 -0.5321 -0.1642 -0.5889
  483MOL0     C66576   0.698   6.892   1.034 -0.0536  0.5509  1.3231
  483MOL0     C66577   0.568   6.930   0.979 -0.1029  0.2938 -0.5487
  483MOL0     C66578   0.470   6.970   1.089 -0.6045  0.3228  0.6488
  483MOL0     C66579   0.403   6.851   1.162 -0.5036 -0.4642  0.2280
  483MOL0     C66580   0.282   6.894   1.231  0.0785  0.0228 -0.4644
  483MOL0     C66581   0.177   6.907   1.293 -0.7729  0.0305 -0.3185
  483MOL0     C66582   0.930   7.123   1.198  0.7090 -0.4024 -0.1949
  483MOL0     C66583   1.058   7.127   1.258  0.4164 -0.2139 -0.0792
  483MOL0     C66584   1.101   7.261   1.323 -0.1208  0.1309  0.1689
  483MOL0     H66585   1.431   6.752   1.451  2.2126 -2.3582  0.7650
  483MOL0     H66586   1.654   6.703   1.542  2.0807 -3.4101 -2.8504
  483MOL0     H66587   1.846   6.650   1.531  0.4261 -0.2043 -1.0252
  483MOL0     H66588   1.957   6.764   1.603  2.2396 -0.8518 -0.5539
  483MOL0     H66589   2.034   6.622   1.334  1.8188  1.9330 -0.2977
  483MOL0     H66590   2.129   6.705   1.463 -1.5719  2.1901  3.7228
  483MOL0     H66591   2.129   6.529   1.610  0.2069 -0.8929 -0.2553
  483MOL0     H66592   1.984   6.452   1.533  1.7666 -1.5561  1.0364
  483MOL0     H66593   2.105   6.368   1.368 -2.3790 -1.2361  3.7339
  483MOL0     H66594   2.228   6.496   1.365 -0.2376  0.7017  0.8734
  483MOL0     H66595   2.181   6.255   1.535 -0.9034  0.5710 -0.4091
  483MOL0     H66596   2.296   6.371   1.584  0.8458  0.3366  0.1507
  483MOL0     H66597   2.315   6.255   1.301  0.1490  2.9677 -0.4586
  483MOL0     H66598   2.425   6.352   1.367  1.1067 -0.6077  1.1763
  483MOL0     H66599   2.532   6.143   1.379  0.4366  2.5247  0.8987
  483MOL0     H66600   2.386   6.060   1.428  2.2910 -2.5332  0.8268
  483MOL0     H66601   2.546   6.254   1.598 -1.0853  0.8604  0.6436
  483MOL0     H66602   2.397   6.182   1.651  1.0658  1.9621  0.8673
  483MOL0     H66603   2.746   6.171   1.708 -1.5594  0.8392  0.7235
  483MOL0     H66604   2.850   5.820   1.843 -0.5460 -0.1916 -0.9526
  483MOL0     H66605   2.890   5.983   1.859  0.4688  1.9618 -2.5940
  483MOL0     H66606   3.073   5.883   1.719  1.2789  1.1230  0.2444
  483MOL0     H66607   2.952   5.849   1.601 -1.4605  1.2279 -0.2093
  483MOL0     H66608   2.912   6.106   1.573  1.5229  2.4016 -0.1234
  483MOL0     H66609   3.019   6.124   1.719  1.9624 -0.4172  0.2647
  483MOL0     H66610   3.101   6.059   1.426  0.5777  3.7370 -1.0909
  483MOL0     H66611   3.141   6.189   1.521 -0.2949 -0.4238 -1.8137
  483MOL0     H66612   3.327   6.183   1.377 -0.2301  0.0358 -0.4424
  483MOL0     H66613   3.622   6.140   1.169 -1.5096 -1.1261 -1.4687
  483MOL0     H66614   3.533   6.274   1.260  0.1744 -0.5019  0.3036
  483MOL0     H66615   3.460   6.153   1.149  1.1282 -1.0677 -0.3133
  483MOL0     H66616   3.897   5.687   1.116  1.2976  0.6002 -1.9451
  483MOL0     H66617   4.119   5.687   1.080  0.6792 -0.3554 -0.0649
  483MOL0     H66618   4.323   5.645   1.070  3.7177 -0.4955 -2.1732
  483MOL0     H66619   4.314   5.810   1.050 -0.2335 -1.5434 -1.1032
  483MOL0     H66620   4.553   5.647   1.172 -0.3801 -0.5588 -1.3686
  483MOL0     H66621   4.554   5.706   1.013  1.1815 -0.6410  0.8926
  483MOL0     H66622   4.559   5.905   1.256  1.9976  2.1876  0.2070
  483MOL0     H66623   4.540   5.950   1.089 -0.2880 -0.6115 -0.2442
  483MOL0     H66624   4.766   5.793   1.054 -1.5220  1.2263 -0.0465
  483MOL0     H66625   4.765   5.815   1.223  1.0956 -1.1943 -0.7837
  483MOL0     H66626   4.804   6.029   1.023  0.8678 -2.7937 -0.5136
  483MOL0     H66627   4.754   6.072   1.183 -1.1274 -0.8033 -0.1052
  483MOL0     H66628   4.988   6.094   1.146 -2.9354  0.4188  0.8335
  483MOL0     H66629   4.999   5.921   1.102 -1.8879  0.7151 -1.5007
  483MOL0     H66630   4.898   5.905   1.356  0.0012  0.8826 -0.2611
  483MOL0     H66631   4.934   6.075   1.372 -0.9784 -0.1545  0.5034
  483MOL0     H66632   5.120   5.837   1.318  2.3674  0.3971 -0.2580
  483MOL0     H66633   5.140   5.933   1.463 -0.7739 -3.9358  0.2758
  483MOL0     H66634   4.211   5.836   1.467  0.2851  3.5051 -0.6381
  483MOL0     H66635   3.971   5.908   1.491  0.4636  0.6844 -0.6691
  483MOL0     H66636   3.632   5.818   1.530 -0.0305  0.6389 -0.8086
  483MOL0     H66637   3.394   5.843   1.628 -1.0669 -2.4336 -1.4659
  483MOL0     H66638   1.820   6.961   1.248  0.5637 -0.8586 -2.1415
  483MOL0     H66639   1.601   7.011   1.146  1.0297  1.6222  1.4312
  483MOL0     H66640   1.161   6.823   1.149  0.7617  0.3082  2.0435
  483MOL0     H66641   0.951   6.818   1.055  3.6187 -0.6106 -0.1356
  483MOL0     H66642   0.757   6.842   0.957 -1.6394 -1.2308  1.2086
  483MOL0     H66643   0.684   6.824   1.118  0.0780 -1.6210 -0.3360
  483MOL0     H66644   0.524   6.848   0.922  0.2144  0.6924 -1.3879
  483MOL0     H66645   0.578   7.014   0.910  0.8392  0.0606 -0.7173
  483MOL0     H66646   0.527   7.029   1.160  1.4999 -0.7479 -0.0761
  483MOL0     H66647   0.393   7.031   1.041 -0.9376 -0.6746 -0.1543
  483MOL0     H66648   0.484   6.816   1.227 -1.7023 -2.1667  0.8817
  483MOL0     H66649   0.374   6.766   1.099 -0.3187 -2.6579  2.8734
  483MOL0     H66650   0.090   6.916   1.354 -0.3613 -0.2870  0.3339
  483MOL0     H66651   0.851   7.195   1.218  0.1655 -0.9912 -0.1836
  483MOL0     H66652   1.021   7.334   1.335  0.5676  0.7809  0.9867
  483MOL0     H66653   1.129   7.239   1.427  5.4468  2.8002 -0.3921
  483MOL0     H66654   1.187   7.301   1.269  0.9522 -0.4973  1.3399
  484MOL0     O66655  10.181   3.775   7.655 -0.0146 -0.1839 -0.8879
  484MOL0     C66656  10.123   3.670   7.640 -0.1912 -0.3657 -0.2813
  484MOL0     O66657  10.183   3.550   7.664 -0.0421 -0.0911 -0.1908
  484MOL0     C66658  10.304   3.528   7.725  0.5053 -0.4564 -0.5964
  484MOL0     C66659  10.339   3.593   7.840 -0.9857  0.7169  0.3310
  484MOL0     C66660  10.461   3.554   7.908  0.0004 -0.4427  0.2634
  484MOL0     C66661  10.537   3.453   7.862 -0.9666  0.1816  0.1069
  484MOL0     O66662  10.644   3.429   7.943 -0.7570  0.5143  0.3226
  484MOL0     C66663  10.709   3.299   7.936  0.4650  0.3078 -0.1900
  484MOL0     C66664  10.834   3.296   8.032  0.1894 -0.2541 -0.1045
  484MOL0     C66665  10.907   3.164   8.024 -0.6506  0.2555  0.4514
  484MOL0     C66666  10.951   3.115   7.883  0.7584 -0.3756  0.1961
  484MOL0     C66667  11.067   3.198   7.836 -0.4394 -0.3860  0.9770
  484MOL0     C66668  11.126   3.133   7.712 -0.3098 -0.3908  0.7083
  484MOL0     C66669  11.235   3.213   7.660 -0.4588  0.1797 -0.7468
  484MOL0     C66670  11.321   3.133   7.565  0.3034 -0.0328 -0.6859
  484MOL0     N66671  11.410   3.223   7.491 -0.3549 -0.0116  0.5655
  484MOL0     C66672  11.546   3.204   7.504 -0.0219  0.3093  0.5579
  484MOL0     C66673  11.601   3.288   7.411  0.1349 -0.4283 -0.2855
  484MOL0     C66674  11.751   3.308   7.391  0.2822 -0.3194 -0.6169
  484MOL0     C66675  11.797   3.449   7.415  0.7052  0.5401  0.0251
  484MOL0     C66676  11.953   3.448   7.420  0.3138 -0.3694  0.1821
  484MOL0     C66677  12.015   3.420   7.554  0.7839  0.1498 -0.5532
  484MOL0     O66678  12.148   3.471   7.554  0.2352 -0.5712  0.8418
  484MOL0     C66679  12.246   3.429   7.465  0.5138  0.3956 -0.3025
  484MOL0     C66680  12.340   3.524   7.428  0.1174 -0.0795  0.2807
  484MOL0     C66681  12.448   3.485   7.345  0.0603  0.2847  0.3539
  484MOL0     C66682  12.558   3.587   7.327 -0.0448  0.6785 -0.5870
  484MOL0     C66683  12.442   3.359   7.280 -0.0890 -0.0423 -0.1311
  484MOL0     C66684  12.532   3.331   7.168 -0.7548 -0.0736  0.7594
  484MOL0     O66685  12.600   3.208   7.167 -0.1823  0.1444  0.2825
  484MOL0     C66686  12.713   3.162   7.099 -1.2349  0.7710  0.8188
  484MOL0     C66687  12.786   3.043   7.138 -0.3018  0.7271 -0.1161
  484MOL0     C66688  12.901   3.004   7.072 -0.0418 -0.8187 -0.7550
  484MOL0     C66689  12.955   3.079   6.961  1.0909 -0.4989 -0.3838
  484MOL0     O66690  13.066   3.046   6.891  0.2238  0.1213  0.6701
  484MOL0     C66691  13.045   2.936   6.808 -0.5510  0.9141  0.0420
  484MOL0     C66692  13.172   2.927   6.729  0.9952  0.0028 -0.0005
  484MOL0     C66693  13.163   2.826   6.619 -0.4388  0.0289  0.2396
  484MOL0     C66694  13.289   2.816   6.528 -0.1422 -0.5873 -0.5126
  484MOL0     C66695  13.308   2.682   6.457  0.5360  0.0031  0.3927
  484MOL0     C66696  13.173   2.647   6.376  0.4366 -0.9205  0.3404
  484MOL0     C66697  13.171   2.526   6.282 -0.8177  0.1591 -0.2903
  484MOL0     C66698  13.222   2.398   6.349 -0.1722 -0.2994 -0.5219
  484MOL0    Cl66699  13.099   2.338   6.461 -0.0868  0.1907 -0.3001
  484MOL0     C66700  12.891   3.196   6.930 -0.2227 -0.5384  1.2533
  484MOL0     C66701  12.775   3.238   6.991  0.0410  0.4938 -0.7461
  484MOL0     O66702  12.557   3.429   7.096 -0.1293 -0.0055  0.1224
  484MOL0     C66703  12.346   3.261   7.316 -0.8418  1.6003 -0.2541
  484MOL0     C66704  12.249   3.295   7.411 -0.8001  0.4296  0.1707
  484MOL0     N66705  11.499   3.365   7.353 -0.2493  0.3849  0.2618
  484MOL0     N66706  11.388   3.321   7.396 -0.4159  1.1971  0.1092
  484MOL0     C66707  10.501   3.384   7.750  0.5693 -0.2757  0.3942
  484MOL0     C66708  10.391   3.423   7.674 -0.3004  0.3806 -0.6486
  484MOL0     C66709   9.978   3.659   7.600  0.1317  1.1665  0.2231
  484MOL0     C66710   9.936   3.522   7.597  0.5465  0.8243  0.1743
  484MOL0     C66711   9.807   3.494   7.549 -0.0904  0.1976  1.0481
  484MOL0     C66712   9.734   3.598   7.493  1.1112  0.5157 -0.5705
  484MOL0     O66713   9.616   3.564   7.423 -0.3356 -0.4738 -0.7459
  484MOL0     C66714   9.635   3.567   7.282 -0.0867  0.7610  0.4180
  484MOL0     C66715   9.665   3.436   7.210 -0.4371 -0.2472  0.1419
  484MOL0     C66716   9.589   3.313   7.261 -0.6711  0.3237  0.8073
  484MOL0     C66717   9.437   3.324   7.276  0.0231  0.4450  0.9452
  484MOL0     C66718   9.362   3.319   7.155  0.5528 -0.2606 -0.6531
  484MOL0     C66719   9.296   3.294   7.049 -0.9672  0.0642 -0.0859
  484MOL0     C66720   9.775   3.727   7.505  0.4468 -0.2852 -0.3771
  484MOL0     C66721   9.893   3.768   7.560 -0.4731 -0.5677  0.4404
  484MOL0     C66722   9.933   3.917   7.551 -0.0407  0.2574 -0.0068
  484MOL0     H66723  10.271   3.667   7.881 -0.6383  0.8795  0.6248
  484MOL0     H66724  10.489   3.615   7.993  1.5386  1.3916 -1.4636
  484MOL0     H66725  10.746   3.287   7.834 -3.2620 -0.8159 -1.5813
  484MOL0     H66726  10.647   3.210   7.949 -0.5419  1.0884  0.4771
  484MOL0     H66727  10.900   3.375   7.997 -0.9111  1.6938  1.9437
  484MOL0     H66728  10.799   3.315   8.134  2.4073  1.3805  0.4284
  484MOL0     H66729  10.998   3.176   8.083  0.0068  1.2501 -0.7101
  484MOL0     H66730  10.843   3.087   8.069 -0.9351 -0.1671 -0.6409
  484MOL0     H66731  10.978   3.009   7.877  4.4772  0.4604 -0.6953
  484MOL0     H66732  10.864   3.129   7.818  1.0579  0.7640  0.0180
  484MOL0     H66733  11.144   3.212   7.913  0.1776 -2.5568  0.8023
  484MOL0     H66734  11.032   3.299   7.811  0.1718 -0.0572  1.3991
  484MOL0     H66735  11.159   3.031   7.734  0.0537 -0.0160  1.9587
  484MOL0     H66736  11.054   3.119   7.631  3.1087 -1.0071 -2.5176
  484MOL0     H66737  11.297   3.255   7.740 -2.3263 -1.7094  1.8742
  484MOL0     H66738  11.179   3.295   7.614 -0.3746 -0.2966 -1.7270
  484MOL0     H66739  11.374   3.055   7.620 -0.3516  0.5740  0.8799
  484MOL0     H66740  11.254   3.082   7.496  1.0524 -0.4154 -1.1308
  484MOL0     H66741  11.608   3.131   7.553  1.3728  0.4321 -0.9300
  484MOL0     H66742  11.778   3.276   7.290  1.1229  2.8561 -1.5201
  484MOL0     H66743  11.805   3.243   7.461 -1.6609 -6.8608 -4.2946
  484MOL0     H66744  11.777   3.508   7.325  0.4773  1.1403  0.4589
  484MOL0     H66745  11.745   3.500   7.497 -1.4094 -0.5985 -0.5122
  484MOL0     H66746  11.994   3.379   7.345 -0.7289  0.9070 -1.6670
  484MOL0     H66747  11.978   3.550   7.390  0.6370 -0.3264  0.5906
  484MOL0     H66748  11.952   3.452   7.637  1.0848  0.8317 -0.5796
  484MOL0     H66749  12.022   3.311   7.555 -2.5751 -0.1440 -0.0812
  484MOL0     H66750  12.341   3.624   7.472 -0.9168  0.1816 -0.2595
  484MOL0     H66751  12.580   3.654   7.410  0.3891  0.4275 -0.4939
  484MOL0     H66752  12.531   3.661   7.251 -1.2625  1.4090  0.5206
  484MOL0     H66753  12.654   3.544   7.297  0.1604  1.1658 -0.6382
  484MOL0     H66754  12.747   2.991   7.225  1.1761  1.6585  1.1563
  484MOL0     H66755  12.959   2.915   7.097  0.3784 -0.7293 -1.3929
  484MOL0     H66756  13.036   2.841   6.862  1.1589  0.2940 -0.6772
  484MOL0     H66757  12.956   2.955   6.748 -1.8958 -0.4651  1.4898
  484MOL0     H66758  13.195   3.028   6.694  1.1016  0.4985  1.4323
  484MOL0     H66759  13.249   2.898   6.802 -2.5290 -4.0420  2.6016
  484MOL0     H66760  13.074   2.844   6.558 -0.2832  0.4677  0.1413
  484MOL0     H66761  13.147   2.730   6.670 -1.0631  0.5290  1.0027
  484MOL0     H66762  13.381   2.837   6.584 -0.8561 -1.1114  0.9247
  484MOL0     H66763  13.275   2.894   6.453 -0.8026 -1.3537 -1.2121
  484MOL0     H66764  13.401   2.685   6.399  1.6016 -0.0739  2.0410
  484MOL0     H66765  13.313   2.606   6.535 -1.0398 -1.3326 -0.7364
  484MOL0     H66766  13.145   2.729   6.309  2.2779 -0.7380 -0.2564
  484MOL0     H66767  13.093   2.634   6.450 -0.5610 -0.1764 -0.5716
  484MOL0     H66768  13.233   2.559   6.198 -1.1515  3.0241  0.4577
  484MOL0     H66769  13.073   2.505   6.239 -0.7385  0.4672 -0.6270
  484MOL0     H66770  13.322   2.403   6.393  0.3600  1.1525 -1.7894
  484MOL0     H66771  13.220   2.323   6.270 -1.6727 -0.4991 -0.3320
  484MOL0     H66772  12.938   3.257   6.854  1.6910 -1.8987  1.2692
  484MOL0     H66773  12.720   3.327   6.962  2.5480  2.2292 -0.4589
  484MOL0     H66774  12.340   3.161   7.273 -1.5325  1.7595 -0.5420
  484MOL0     H66775  12.182   3.224   7.458  0.0329  0.9857  2.3525
  484MOL0     H66776  10.550   3.305   7.695 -0.8182 -0.5420 -0.5091
  484MOL0     H66777  10.365   3.374   7.580 -1.8936 -0.4380  0.1767
  484MOL0     H66778   9.998   3.435   7.617  1.8305  1.5512 -0.5301
  484MOL0     H66779   9.768   3.394   7.534 -1.6463  0.5139  2.5711
  484MOL0     H66780   9.542   3.599   7.234  0.7351 -2.3407 -3.6974
  484MOL0     H66781   9.703   3.646   7.250 -0.3441  0.7114 -0.2609
  484MOL0     H66782   9.773   3.423   7.205 -0.3110  0.9915 -0.8162
  484MOL0     H66783   9.629   3.438   7.107  0.1615 -0.8402 -0.0825
  484MOL0     H66784   9.608   3.238   7.184 -0.1429  1.4280 -0.1597
  484MOL0     H66785   9.641   3.291   7.355 -1.1402 -0.4974  0.8812
  484MOL0     H66786   9.418   3.414   7.334  1.0923  0.4799  1.2670
  484MOL0     H66787   9.408   3.244   7.344  0.2757 -1.3963 -0.9974
  484MOL0     H66788   9.246   3.271   6.958  0.7915  1.3431 -1.4309
  484MOL0     H66789   9.716   3.809   7.466 -1.2314 -0.9856  0.5767
  484MOL0     H66790  10.038   3.939   7.532  0.1355  3.1768  3.2380
  484MOL0     H66791   9.867   3.971   7.483  0.5163  2.8339  1.3696
  484MOL0     H66792   9.917   3.961   7.650  1.2005 -1.9779  1.2726
  485MOL0     O66793   5.328   6.056   4.517  0.2690 -0.3197 -0.2304
  485MOL0     C66794   5.327   6.089   4.633  0.2534 -0.1851 -0.5600
  485MOL0     O66795   5.442   6.122   4.708  0.3292 -0.7320 -0.7746
  485MOL0     C66796   5.560   6.103   4.651  0.3583 -0.6749 -0.1795
  485MOL0     C66797   5.626   5.984   4.660  0.8311 -0.3959  0.4084
  485MOL0     C66798   5.743   5.961   4.596 -0.7166  0.1294  1.4443
  485MOL0     C66799   5.808   6.067   4.528 -0.9836  0.2982 -0.2226
  485MOL0     O66800   5.932   6.059   4.467  0.6185 -0.5595  0.7342
  485MOL0     C66801   6.001   5.931   4.488 -0.3116 -0.1709  0.1517
  485MOL0     C66802   6.138   5.941   4.444  0.4008 -0.3594  0.4557
  485MOL0     C66803   6.208   6.049   4.541 -0.7176  0.3270  0.4391
  485MOL0     C66804   6.358   6.062   4.499  0.2969  0.0524 -0.1018
  485MOL0     C66805   6.444   6.138   4.611  0.2301  0.2753 -0.0899
  485MOL0     C66806   6.599   6.148   4.580 -0.2627  0.8629 -0.1943
  485MOL0     C66807   6.661   6.008   4.565 -1.2368 -1.2300  0.6895
  485MOL0     C66808   6.810   5.996   4.533  0.1719 -0.2585 -0.1532
  485MOL0     N66809   6.856   6.079   4.422 -0.1992 -0.2644  0.1502
  485MOL0     C66810   6.795   6.121   4.310  0.6461 -0.2719  0.4143
  485MOL0     C66811   6.884   6.204   4.240  0.6516 -0.0635 -0.7704
  485MOL0     C66812   6.851   6.288   4.118 -0.5777  0.0697  0.1553
  485MOL0     C66813   6.949   6.403   4.092 -0.1475 -0.2573 -0.4765
  485MOL0     C66814   7.003   6.429   3.946  0.7279 -0.0876  0.8328
  485MOL0     C66815   7.090   6.550   3.939 -0.4053 -0.9488 -0.5527
  485MOL0     O66816   7.180   6.551   4.051 -0.9996 -0.2335 -0.4832
  485MOL0     C66817   7.308   6.554   4.016 -0.1962  0.3021  0.4861
  485MOL0     C66818   7.371   6.671   3.974 -0.5425 -0.0774  0.5783
  485MOL0     C66819   7.500   6.673   3.922 -0.2535 -0.1826 -0.3423
  485MOL0     C66820   7.539   6.812   3.879  0.4308  1.0885 -0.4262
  485MOL0     C66821   7.574   6.554   3.926  0.0824  0.1405  0.0283
  485MOL0     C66822   7.712   6.548   3.876  0.4974  0.0068  0.1148
  485MOL0     O66823   7.781   6.425   3.886  0.7529 -0.1386  0.2501
  485MOL0     C66824   7.902   6.430   3.829 -0.5088 -0.1975 -0.9013
  485MOL0     C66825   7.918   6.435   3.690 -0.2448 -0.0915 -0.0694
  485MOL0     C66826   8.041   6.406   3.636 -0.2995 -0.4834  1.0636
  485MOL0     C66827   8.153   6.384   3.714  0.1901 -0.9909 -0.2521
  485MOL0     O66828   8.284   6.376   3.657 -0.5990  0.6846 -0.0226
  485MOL0     C66829   8.302   6.365   3.522  0.3533 -0.9885 -0.6614
  485MOL0     C66830   8.455   6.347   3.498 -0.6150 -0.8305  0.0136
  485MOL0     C66831   8.499   6.341   3.362 -0.4735  0.3146 -0.1571
  485MOL0     C66832   8.646   6.309   3.369 -0.0607  0.3274  0.0438
  485MOL0     C66833   8.723   6.301   3.234  0.8418 -0.2350  0.5661
  485MOL0     C66834   8.683   6.189   3.135 -0.6927  0.4709  1.1781
  485MOL0     C66835   8.773   6.193   3.005 -0.6791 -1.4482 -0.3779
  485MOL0     C66836   8.758   6.066   2.937  0.0466 -0.6695  0.3986
  485MOL0    Cl66837   8.618   6.028   2.843  0.1779 -0.0278 -0.1184
  485MOL0     C66838   8.137   6.379   3.850  0.6906 -0.0315 -0.2088
  485MOL0     C66839   8.011   6.403   3.906 -0.3597 -0.0259  0.4074
  485MOL0     O66840   7.752   6.646   3.815  0.7049  0.1772 -0.4054
  485MOL0     C66841   7.509   6.431   3.979  0.1218 -0.9685  0.2074
  485MOL0     C66842   7.377   6.436   4.017 -0.0382 -0.1157  0.1700
  485MOL0     N66843   6.997   6.201   4.319  0.0621 -0.5001 -0.4847
  485MOL0     N66844   6.985   6.122   4.425  0.2104  0.1720 -0.0490
  485MOL0     C66845   5.742   6.193   4.528  0.4250  0.2392 -0.3156
  485MOL0     C66846   5.615   6.206   4.580  0.3387 -0.2017 -0.0338
  485MOL0     C66847   5.198   6.074   4.718 -0.3902  0.4644  1.0162
  485MOL0     C66848   5.214   6.033   4.851 -0.3619  0.0864 -0.1973
  485MOL0     C66849   5.106   6.008   4.937 -0.4472  0.4610  0.8262
  485MOL0     C66850   4.982   6.011   4.885 -0.5004 -0.4806 -0.7397
  485MOL0     O66851   4.865   5.974   4.952  0.1063  0.8932  0.4430
  485MOL0     C66852   4.879   5.893   5.074 -0.1644  0.1942  0.1695
  485MOL0     C66853   4.746   5.826   5.117 -0.5930  0.4906 -0.4225
  485MOL0     C66854   4.717   5.709   5.021 -0.1306 -0.3844 -0.1738
  485MOL0     C66855   4.574   5.690   5.012  0.0437 -0.1711  0.9283
  485MOL0     C66856   4.526   5.621   4.900  0.0363  0.1541  0.8916
  485MOL0     C66857   4.498   5.569   4.795  0.1236 -0.6053  0.2402
  485MOL0     C66858   4.965   6.049   4.752 -0.3114 -0.0768  0.0285
  485MOL0     C66859   5.067   6.082   4.667 -0.5530  0.1746  0.8098
  485MOL0     C66860   5.050   6.135   4.528  0.6206  0.4865  0.0653
  485MOL0     H66861   5.593   5.905   4.727 -3.9797 -0.1404 -1.3128
  485MOL0     H66862   5.779   5.859   4.591 -1.5632 -0.1116 -1.3572
  485MOL0     H66863   5.955   5.850   4.430  0.2314  0.3592 -1.0742
  485MOL0     H66864   6.000   5.919   4.596 -0.7198  0.9333  0.2824
  485MOL0     H66865   6.182   5.842   4.457  1.5683  0.2925  1.8071
  485MOL0     H66866   6.138   5.974   4.339  0.9490  0.9005  0.8244
  485MOL0     H66867   6.169   6.150   4.526 -0.6904 -0.0025 -2.4388
  485MOL0     H66868   6.197   6.021   4.646  0.1765 -0.8418  0.2366
  485MOL0     H66869   6.408   5.967   4.481  1.1588  0.4064  0.3504
  485MOL0     H66870   6.363   6.114   4.403 -0.9235  2.2639  0.9417
  485MOL0     H66871   6.413   6.089   4.703 -1.7057  2.9281  0.8098
  485MOL0     H66872   6.406   6.241   4.612  3.9911  1.9530  3.8191
  485MOL0     H66873   6.612   6.199   4.484 -3.4041 -0.8685 -1.6979
  485MOL0     H66874   6.642   6.215   4.654 -1.4916  0.7639  0.6482
  485MOL0     H66875   6.622   5.957   4.476  1.5237 -1.0365 -0.7216
  485MOL0     H66876   6.642   5.949   4.655 -0.1344 -2.4460  0.1654
  485MOL0     H66877   6.870   6.023   4.621  0.7105 -0.8704 -0.3274
  485MOL0     H66878   6.830   5.891   4.510 -0.0999 -0.7109  1.5379
  485MOL0     H66879   6.691   6.117   4.278 -0.4585  2.6031  3.0688
  485MOL0     H66880   6.757   6.338   4.143  1.0137  3.6227 -0.3940
  485MOL0     H66881   6.825   6.224   4.032 -1.6674 -0.7026  1.0289
  485MOL0     H66882   6.897   6.492   4.131  0.2607 -0.7165  1.2023
  485MOL0     H66883   7.029   6.383   4.165 -1.2280 -0.1256  0.7907
  485MOL0     H66884   7.065   6.343   3.917  1.1877  0.7585 -0.8328
  485MOL0     H66885   6.925   6.439   3.869  1.4383 -3.3945 -0.4908
  485MOL0     H66886   7.145   6.557   3.844  0.0323  1.0128 -0.2048
  485MOL0     H66887   7.035   6.645   3.940  1.3741  0.1598 -2.0525
  485MOL0     H66888   7.309   6.760   3.973  0.5866  0.7335 -0.4908
  485MOL0     H66889   7.535   6.875   3.969 -2.3484  1.0836 -0.4633
  485MOL0     H66890   7.467   6.861   3.812 -3.4010 -0.0604  2.5035
  485MOL0     H66891   7.638   6.832   3.838  0.8707 -2.4865 -1.4767
  485MOL0     H66892   7.836   6.441   3.618 -1.7905 -0.5176  1.5675
  485MOL0     H66893   8.039   6.399   3.528 -2.5741 -0.8285  1.0798
  485MOL0     H66894   8.231   6.295   3.477 -0.7013 -1.2163  1.2774
  485MOL0     H66895   8.282   6.468   3.491  3.5535  0.5650  1.8257
  485MOL0     H66896   8.513   6.425   3.550  1.6133  0.1200 -3.5059
  485MOL0     H66897   8.476   6.253   3.549 -1.3128 -1.8304 -1.5016
  485MOL0     H66898   8.475   6.437   3.317 -1.2078  0.7916  1.1902
  485MOL0     H66899   8.453   6.254   3.313 -1.0497 -1.0055  2.5590
  485MOL0     H66900   8.648   6.210   3.414  0.4718 -0.6567 -2.0530
  485MOL0     H66901   8.695   6.383   3.434 -0.2437  0.8817 -0.4401
  485MOL0     H66902   8.702   6.398   3.188 -0.7657  0.2974  2.3087
  485MOL0     H66903   8.828   6.288   3.260  0.4025 -0.0068  2.5611
  485MOL0     H66904   8.579   6.199   3.105 -1.1191 -2.7618  1.2033
  485MOL0     H66905   8.681   6.095   3.192 -0.2569  1.1398  2.3344
  485MOL0     H66906   8.879   6.204   3.032  0.1229  0.3470 -3.7551
  485MOL0     H66907   8.735   6.283   2.956  1.6202  0.0288  0.3993
  485MOL0     H66908   8.784   5.986   3.007  1.9706  0.8122  1.4831
  485MOL0     H66909   8.842   6.066   2.866  2.4639  0.3463  3.0620
  485MOL0     H66910   8.225   6.358   3.911  0.4238 -2.4697 -0.5347
  485MOL0     H66911   7.994   6.404   4.014  0.5804  3.6792  0.6734
  485MOL0     H66912   7.556   6.333   3.975 -0.2720 -1.1348 -0.6690
  485MOL0     H66913   7.338   6.337   4.040  1.3899 -1.4048 -2.3984
  485MOL0     H66914   5.780   6.275   4.467 -2.4106  0.5548 -1.8099
  485MOL0     H66915   5.561   6.301   4.582 -0.3406 -0.5296  3.7188
  485MOL0     H66916   5.315   6.021   4.890 -0.8492  1.3835  1.5627
  485MOL0     H66917   5.126   5.988   5.041  1.1000 -2.3453  0.0935
  485MOL0     H66918   4.937   5.803   5.050 -2.8109 -2.2630  2.2202
  485MOL0     H66919   4.923   5.954   5.154 -0.5855  1.1584 -0.3192
  485MOL0     H66920   4.665   5.899   5.109 -1.2404 -0.4147 -3.0171
  485MOL0     H66921   4.757   5.792   5.220 -0.3077  0.3717 -0.4933
  485MOL0     H66922   4.763   5.707   4.922  2.0986 -0.5997  0.7968
  485MOL0     H66923   4.756   5.616   5.065 -1.6682 -1.1152 -0.2951
  485MOL0     H66924   4.520   5.785   5.005  1.1530  0.3590 -0.9196
  485MOL0     H66925   4.531   5.643   5.101 -2.0346  1.6804  1.0082
  485MOL0     H66926   4.493   5.525   4.697  1.2872 -1.0603  0.3684
  485MOL0     H66927   4.865   6.040   4.711 -0.0166 -3.9017 -0.2260
  485MOL0     H66928   5.091   6.235   4.514  3.0414 -0.4359  0.0239
  485MOL0     H66929   5.090   6.065   4.453  1.8741 -3.4708  4.0006
  485MOL0     H66930   4.943   6.136   4.506  0.5701 -1.7414 -0.0740
  486MOL0     O66931   6.651   3.841   8.631  0.1800  0.3470  0.2145
  486MOL0     C66932   6.562   3.755   8.614 -0.7156 -0.9229 -1.0583
  486MOL0     O66933   6.601   3.631   8.579 -0.0100  0.2637 -0.2871
  486MOL0     C66934   6.733   3.595   8.598 -0.5420 -0.1598  0.5176
  486MOL0     C66935   6.821   3.583   8.490  0.7216  0.5345 -0.5225
  486MOL0     C66936   6.957   3.563   8.513 -0.7583  0.4073  0.4531
  486MOL0     C66937   7.022   3.549   8.639  0.8666  0.1064 -0.2160
  486MOL0     O66938   7.156   3.492   8.652  0.3568 -0.4028 -0.0380
  486MOL0     C66939   7.251   3.505   8.545 -0.7439  0.2894  1.1811
  486MOL0     C66940   7.393   3.443   8.577  0.0396  0.1321  0.2367
  486MOL0     C66941   7.400   3.305   8.636 -0.1392  0.5529 -0.0977
  486MOL0     C66942   7.538   3.297   8.701  0.4524 -0.1916 -0.2414
  486MOL0     C66943   7.562   3.164   8.778 -0.0625  0.1892  0.8855
  486MOL0     C66944   7.696   3.156   8.854 -0.6693 -0.2203 -0.8157
  486MOL0     C66945   7.707   3.036   8.956  0.1624  0.4018  0.5873
  486MOL0     C66946   7.684   2.889   8.901 -0.0633 -0.5738  0.4219
  486MOL0     N66947   7.760   2.885   8.775 -0.0875 -0.5423  0.3963
  486MOL0     C66948   7.896   2.907   8.772  0.2684 -0.4415  0.5217
  486MOL0     C66949   7.925   2.911   8.641  0.2870  0.1639  0.9156
  486MOL0     C66950   8.063   2.945   8.592  0.0089  0.0139  0.4114
  486MOL0     C66951   8.138   3.059   8.664 -0.7721 -0.1938  0.2820
  486MOL0     C66952   8.075   3.197   8.640 -0.9066 -0.9712  0.4581
  486MOL0     C66953   8.155   3.312   8.700 -0.4035  0.7647 -0.2078
  486MOL0     O66954   8.147   3.292   8.846  0.2061 -0.7871 -0.6044
  486MOL0     C66955   8.053   3.356   8.921  0.5683 -0.8717 -0.2483
  486MOL0     C66956   7.946   3.436   8.879 -0.0899 -0.4490 -0.1601
  486MOL0     C66957   7.844   3.474   8.970  0.0532  0.0396 -1.2264
  486MOL0     C66958   7.733   3.563   8.925  0.2354 -0.4369 -0.7498
  486MOL0     C66959   7.869   3.452   9.115  0.6959  0.4326 -0.4795
  486MOL0     C66960   7.776   3.502   9.225 -0.2713 -0.6322  0.1554
  486MOL0     O66961   7.782   3.452   9.348 -0.1988 -0.1813  0.0409
  486MOL0     C66962   7.700   3.514   9.444  0.1589 -0.4277  0.5829
  486MOL0     C66963   7.577   3.458   9.495 -0.9297  0.9237 -0.6228
  486MOL0     C66964   7.492   3.532   9.579 -0.5070  0.0486  0.7732
  486MOL0     C66965   7.528   3.669   9.604  0.2028  0.5819 -0.3503
  486MOL0     O66966   7.441   3.753   9.680 -0.1160 -0.6720  0.3950
  486MOL0     C66967   7.496   3.792   9.813 -0.3069 -0.2361  0.2105
  486MOL0     C66968   7.388   3.833   9.901  0.2935 -0.6381  0.3798
  486MOL0     C66969   7.308   3.703   9.951  0.1433  0.4994 -0.9264
  486MOL0     C66970   7.203   3.743  10.052 -0.4052 -0.7954 -0.5250
  486MOL0     C66971   7.157   3.627  10.136  0.2372 -0.3948  0.7241
  486MOL0     C66972   7.085   3.665  10.253 -0.9255 -0.4350  0.0272
  486MOL0     C66973   7.055   3.549  10.341  0.1356  0.2352 -0.7348
  486MOL0     C66974   6.999   3.608  10.473 -0.3524  0.5420 -0.2984
  486MOL0    Cl66975   6.847   3.713  10.455 -0.0498  0.0906  0.0399
  486MOL0     C66976   7.647   3.719   9.553 -0.5720 -0.3630 -1.1151
  486MOL0     C66977   7.737   3.642   9.480 -1.0448  0.4467  0.9364
  486MOL0     O66978   7.719   3.610   9.193  0.3920 -0.5305  1.2174
  486MOL0     C66979   7.982   3.379   9.150 -0.3087 -0.9828 -0.1268
  486MOL0     C66980   8.068   3.335   9.058  0.1805  0.4798 -0.1277
  486MOL0     N66981   7.811   2.871   8.569  0.7518 -0.3703  0.0339
  486MOL0     N66982   7.709   2.853   8.647 -0.4378 -0.3794 -0.3102
  486MOL0     C66983   6.932   3.567   8.745 -0.3435  0.7691  0.1745
  486MOL0     C66984   6.792   3.591   8.724  0.1659 -0.2149 -0.7548
  486MOL0     C66985   6.417   3.801   8.637 -0.4884 -0.6124  0.1402
  486MOL0     C66986   6.313   3.708   8.616  0.1803  0.2736  0.1297
  486MOL0     C66987   6.176   3.721   8.643 -1.1512  0.7216 -0.3839
  486MOL0     C66988   6.138   3.846   8.691  0.4140 -0.3024  0.1687
  486MOL0     O66989   6.015   3.881   8.732  0.1664 -0.3688  0.1056
  486MOL0     C66990   5.905   3.790   8.737 -0.1947  0.2566 -0.4821
  486MOL0     C66991   5.809   3.838   8.838  1.3970  0.4560  0.5388
  486MOL0     C66992   5.860   3.818   8.984  0.1215  0.1538  0.2998
  486MOL0     C66993   5.757   3.858   9.093  0.3014  0.3714  0.1664
  486MOL0     C66994   5.681   3.986   9.070  0.5122 -0.4282  0.0646
  486MOL0     C66995   5.622   4.089   9.041 -0.7345  0.3232 -0.6245
  486MOL0     C66996   6.236   3.944   8.716  0.5042 -0.1478 -0.5434
  486MOL0     C66997   6.376   3.929   8.683  0.3574  0.1572  0.2352
  486MOL0     C66998   6.463   4.040   8.722 -0.2881 -0.2627  0.2221
  486MOL0     H66999   6.781   3.593   8.389 -2.2392 -1.6788  0.2880
  486MOL0     H67000   7.016   3.568   8.422  1.3506 -0.0530  1.7487
  486MOL0     H67001   7.266   3.610   8.519 -1.2911 -0.2349 -1.6395
  486MOL0     H67002   7.218   3.458   8.452  1.6165 -0.0115  0.4432
  486MOL0     H67003   7.458   3.456   8.490 -1.8315 -1.5245 -1.4914
  486MOL0     H67004   7.442   3.515   8.643 -1.0156 -0.2997  1.5342
  486MOL0     H67005   7.321   3.280   8.709 -1.3088 -1.4848 -1.9358
  486MOL0     H67006   7.395   3.229   8.557  4.4819 -0.1952  0.0921
  486MOL0     H67007   7.614   3.311   8.623  0.3261 -3.2809 -1.0490
  486MOL0     H67008   7.537   3.376   8.776  2.1821  0.3162 -0.7001
  486MOL0     H67009   7.551   3.080   8.710  1.6916 -2.0777  3.2083
  486MOL0     H67010   7.480   3.157   8.851 -0.2720  2.9101  1.0409
  486MOL0     H67011   7.783   3.153   8.787  0.1757  0.3093  0.2210
  486MOL0     H67012   7.708   3.248   8.912 -0.5490  0.9276 -2.5702
  486MOL0     H67013   7.632   3.054   9.034  0.6215  0.2461  1.0726
  486MOL0     H67014   7.800   3.057   9.010  0.7385  1.5265 -0.7664
  486MOL0     H67015   7.726   2.813   8.968 -1.4031 -1.3761  0.3793
  486MOL0     H67016   7.577   2.872   8.885  0.0045 -1.1182  0.5156
  486MOL0     H67017   7.961   2.930   8.856 -0.7524 -1.3065  1.6003
  486MOL0     H67018   8.060   2.964   8.484  1.0674 -1.3739  0.1009
  486MOL0     H67019   8.134   2.862   8.596 -2.6720 -2.6414 -1.9399
  486MOL0     H67020   8.157   3.053   8.772 -2.1865  1.9418  0.7350
  486MOL0     H67021   8.232   3.067   8.609 -2.9763 -0.2770 -3.9162
  486MOL0     H67022   8.066   3.223   8.534  2.0073  0.8809  0.5605
  486MOL0     H67023   7.974   3.196   8.683 -0.5117 -0.1310  1.4235
  486MOL0     H67024   8.250   3.321   8.646 -1.3504 -2.6476 -2.7215
  486MOL0     H67025   8.103   3.403   8.670 -0.3934  0.2826 -1.7729
  486MOL0     H67026   7.938   3.468   8.776 -1.9481 -2.3261 -0.6599
  486MOL0     H67027   7.635   3.526   8.955 -0.1579 -1.6054 -3.1918
  486MOL0     H67028   7.724   3.568   8.816  1.0244  0.2590 -0.7954
  486MOL0     H67029   7.743   3.662   8.969 -2.4968 -0.5707  0.3549
  486MOL0     H67030   7.559   3.353   9.476  0.1424 -0.3135  3.9227
  486MOL0     H67031   7.403   3.476   9.606 -0.4251 -1.0150 -0.9688
  486MOL0     H67032   7.558   3.712   9.855 -1.0932 -0.9585  0.0172
  486MOL0     H67033   7.562   3.879   9.811 -1.4692  0.6613 -0.3565
  486MOL0     H67034   7.436   3.880   9.987  2.4410  1.5798 -1.8705
  486MOL0     H67035   7.309   3.894   9.856  2.1626  1.7408  0.1203
  486MOL0     H67036   7.379   3.637  10.002 -1.4176  1.6675  3.1686
  486MOL0     H67037   7.261   3.641   9.874 -0.1722  1.2134 -1.3267
  486MOL0     H67038   7.117   3.792  10.005  0.2078  0.8359 -0.0109
  486MOL0     H67039   7.260   3.816  10.110  0.6554  0.2792 -2.8128
  486MOL0     H67040   7.098   3.560  10.074 -0.4812  0.1934  0.7544
  486MOL0     H67041   7.244   3.571  10.172  1.6697  0.4055 -1.3160
  486MOL0     H67042   6.989   3.714  10.235 -0.6896  0.6031  1.4418
  486MOL0     H67043   7.146   3.743  10.298  3.7337 -2.1898 -2.6068
  486MOL0     H67044   7.148   3.492  10.355  0.4029  1.0368  1.0607
  486MOL0     H67045   6.984   3.479  10.297 -0.6716  0.4263  0.2195
  486MOL0     H67046   7.077   3.670  10.518  0.3006 -1.4757  1.4881
  486MOL0     H67047   6.984   3.521  10.536 -3.2776 -0.3769 -2.0582
  486MOL0     H67048   7.665   3.822   9.583 -1.1479  0.0228 -2.0419
  486MOL0     H67049   7.832   3.678   9.442 -0.2454 -0.7740  1.7051
  486MOL0     H67050   7.997   3.352   9.254 -1.2586  0.6111  0.4561
  486MOL0     H67051   8.162   3.291   9.091  0.3828  0.5771 -0.5628
  486MOL0     H67052   6.956   3.567   8.851 -0.1089  0.0210  0.1217
  486MOL0     H67053   6.729   3.604   8.811 -1.1785 -1.4323 -1.4946
  486MOL0     H67054   6.349   3.612   8.579  3.8242  1.8545 -0.8396
  486MOL0     H67055   6.105   3.642   8.622 -0.4638  0.1507 -0.5736
  486MOL0     H67056   5.862   3.771   8.638 -0.4525  1.4853 -0.6133
  486MOL0     H67057   5.928   3.688   8.770 -1.0735  0.8718  2.3142
  486MOL0     H67058   5.718   3.778   8.829  1.0584  0.9615  0.5063
  486MOL0     H67059   5.789   3.945   8.827 -0.8560  0.3271  2.4780
  486MOL0     H67060   5.874   3.710   8.996 -2.0265 -0.2151 -0.0641
  486MOL0     H67061   5.957   3.868   8.993 -0.5108  1.1186  2.5482
  486MOL0     H67062   5.803   3.838   9.190 -0.8653 -0.7739  0.5163
  486MOL0     H67063   5.680   3.781   9.081 -2.1337  2.7852 -0.7351
  486MOL0     H67064   5.583   4.188   9.041 -1.9852 -0.1038  1.1282
  486MOL0     H67065   6.206   4.025   8.782 -1.6070 -2.5116  1.6174
  486MOL0     H67066   6.486   4.107   8.638 -1.0915  1.0938  1.0396
  486MOL0     H67067   6.411   4.115   8.783  0.3733 -0.2261  0.7508
  486MOL0     H67068   6.556   4.010   8.772 -1.8975  0.8631  4.3397
  487MOL0     O67069   2.198   7.025   3.233 -0.5867 -0.0654  0.0989
  487MOL0     C67070   2.264   6.954   3.312 -0.4115  0.0825  0.3723
  487MOL0     O67071   2.395   6.917   3.294 -1.0205  0.1929 -0.2151
  487MOL0     C67072   2.422   6.784   3.314 -0.0083  0.1366  0.0222
  487MOL0     C67073   2.329   6.677   3.297 -0.3455 -0.2599  0.2413
  487MOL0     C67074   2.363   6.540   3.325 -0.2594  0.0641 -1.1440
  487MOL0     C67075   2.490   6.512   3.363 -0.1594  0.5403  0.6843
  487MOL0     O67076   2.511   6.383   3.385  0.3084 -0.1699  0.4243
  487MOL0     C67077   2.518   6.303   3.263 -0.1706  0.6714 -0.9278
  487MOL0     C67078   2.580   6.163   3.297  0.2574  0.4937  0.3315
  487MOL0     C67079   2.624   6.079   3.180  0.6478 -0.0874 -0.3585
  487MOL0     C67080   2.715   6.150   3.077 -0.4994  0.0335  0.0335
  487MOL0     C67081   2.865   6.134   3.131 -0.6409 -0.8304 -0.1555
  487MOL0     C67082   2.895   6.261   3.218 -1.0422  0.3497 -0.9368
  487MOL0     C67083   3.053   6.280   3.226  0.4073  0.0568 -0.6007
  487MOL0     C67084   3.079   6.391   3.329  0.6754  0.0137 -0.1192
  487MOL0     N67085   3.222   6.412   3.352 -0.2505 -0.8114 -0.5823
  487MOL0     C67086   3.285   6.411   3.476  0.4312 -0.3259 -0.4275
  487MOL0     C67087   3.415   6.429   3.449  0.4045 -0.3552  0.1490
  487MOL0     C67088   3.517   6.429   3.553 -0.1984 -0.2792 -0.4755
  487MOL0     C67089   3.664   6.421   3.506  0.6590  0.9145 -0.0875
  487MOL0     C67090   3.748   6.457   3.619  0.7100 -0.1828 -0.6837
  487MOL0     C67091   3.898   6.453   3.588 -0.5010 -0.2933  0.4375
  487MOL0     O67092   3.966   6.486   3.713 -0.7261 -0.2628 -0.4881
  487MOL0     C67093   4.105   6.465   3.708  0.3423  0.9155  0.1500
  487MOL0     C67094   4.180   6.434   3.825 -0.2051  0.0704  0.1086
  487MOL0     C67095   4.321   6.424   3.827  0.4188 -0.1966 -0.0412
  487MOL0     C67096   4.391   6.392   3.955 -0.0208  0.6792 -0.1910
  487MOL0     C67097   4.400   6.463   3.704  0.1970  1.0427  0.0174
  487MOL0     C67098   4.547   6.479   3.688 -0.1560  0.2303  0.2065
  487MOL0     O67099   4.607   6.485   3.562 -0.0118  0.1880  0.0754
  487MOL0     C67100   4.746   6.466   3.542  0.6837  0.0142  0.1925
  487MOL0     C67101   4.796   6.504   3.416 -0.0507 -0.6829 -0.2907
  487MOL0     C67102   4.933   6.492   3.375  0.4396 -0.0840  0.6963
  487MOL0     C67103   5.015   6.430   3.459  0.0403  0.0855 -0.0453
  487MOL0     O67104   5.149   6.415   3.433 -0.5318  0.5247  0.0670
  487MOL0     C67105   5.217   6.394   3.304 -1.3686  0.2942 -0.1218
  487MOL0     C67106   5.374   6.410   3.320  0.4449 -0.2107 -0.2265
  487MOL0     C67107   5.433   6.528   3.398 -0.8745  0.1423  1.4370
  487MOL0     C67108   5.583   6.546   3.409 -1.5313 -0.3654  0.2089
  487MOL0     C67109   5.650   6.415   3.433  0.3844  0.8398  0.1857
  487MOL0     C67110   5.777   6.421   3.514 -0.3660 -0.3215 -0.4753
  487MOL0     C67111   5.853   6.292   3.520 -0.7480  0.4774  0.0244
  487MOL0     C67112   5.780   6.158   3.555 -0.2000 -0.8854  0.8179
  487MOL0    Cl67113   5.703   6.183   3.708 -0.4477 -0.0778 -0.2047
  487MOL0     C67114   4.962   6.376   3.582 -0.9047  1.0679  0.4660
  487MOL0     C67115   4.833   6.396   3.621  0.3489  0.4924 -0.6099
  487MOL0     O67116   4.614   6.489   3.795  0.2016  0.6864  0.6525
  487MOL0     C67117   4.322   6.500   3.593  0.0760  0.4281 -0.4187
  487MOL0     C67118   4.182   6.496   3.596 -0.0701 -0.7773  0.7075
  487MOL0     N67119   3.431   6.462   3.315  0.2857  0.4078  0.5863
  487MOL0     N67120   3.314   6.454   3.259 -0.7504 -0.3795 -0.0898
  487MOL0     C67121   2.591   6.615   3.378  0.4532  0.0666 -0.0451
  487MOL0     C67122   2.557   6.750   3.346 -0.0845  0.0914  0.5137
  487MOL0     C67123   2.222   6.938   3.458 -0.8243 -0.6936 -0.0507
  487MOL0     C67124   2.307   6.969   3.569  0.0672  0.0065 -0.0617
  487MOL0     C67125   2.255   6.962   3.695 -0.8191 -0.0834  1.1366
  487MOL0     C67126   2.123   6.942   3.727  0.5181 -0.3944  0.7543
  487MOL0     O67127   2.098   6.948   3.865 -0.4030 -0.1902  0.6290
  487MOL0     C67128   1.963   6.927   3.903 -0.1226 -0.9001 -0.2824
  487MOL0     C67129   1.944   6.977   4.054 -0.2705 -0.4508 -0.7620
  487MOL0     C67130   2.047   6.908   4.149 -0.4630 -0.1473 -0.3043
  487MOL0     C67131   2.067   6.991   4.283  0.1482 -0.0445 -0.2352
  487MOL0     C67132   2.116   7.131   4.250  0.0481  0.1506  0.9120
  487MOL0     C67133   2.162   7.241   4.234  0.7088 -0.1822 -0.3679
  487MOL0     C67134   2.029   6.910   3.623  0.1664  0.0262 -0.5899
  487MOL0     C67135   2.083   6.900   3.485 -0.0295  0.3363  0.4285
  487MOL0     C67136   1.997   6.842   3.372  0.7045  0.1798  0.0828
  487MOL0     H67137   2.228   6.704   3.266 -0.7624  1.2670  2.6201
  487MOL0     H67138   2.294   6.460   3.300 -1.2928  1.0163 -1.4601
  487MOL0     H67139   2.585   6.358   3.196  0.2554 -0.4537 -1.4629
  487MOL0     H67140   2.420   6.291   3.217 -0.0045 -0.0618 -1.1156
  487MOL0     H67141   2.659   6.175   3.371  0.5389  1.8447 -0.1550
  487MOL0     H67142   2.493   6.115   3.342 -1.9831  1.7724 -2.3258
  487MOL0     H67143   2.677   5.989   3.214  0.1128  1.1886  4.4260
  487MOL0     H67144   2.539   6.037   3.126  1.7922  0.8858 -3.1258
  487MOL0     H67145   2.706   6.095   2.982 -0.5008 -0.3601  0.2619
  487MOL0     H67146   2.702   6.257   3.057  0.7053  0.7396  2.6454
  487MOL0     H67147   2.933   6.152   3.048 -1.3438  1.8199 -0.2430
  487MOL0     H67148   2.888   6.037   3.177  1.9709 -0.0403  0.3904
  487MOL0     H67149   2.853   6.357   3.188 -0.5978  0.1093 -2.3987
  487MOL0     H67150   2.846   6.244   3.315 -2.7086 -0.4892 -1.8856
  487MOL0     H67151   3.098   6.303   3.129  2.6665 -1.1242  0.0967
  487MOL0     H67152   3.115   6.192   3.251  0.5180  0.4539  0.6166
  487MOL0     H67153   3.028   6.481   3.293  0.5207  0.5290  1.3346
  487MOL0     H67154   3.049   6.359   3.429  1.8470 -0.3231  0.1463
  487MOL0     H67155   3.233   6.399   3.571  2.2593 -0.1717  0.6374
  487MOL0     H67156   3.499   6.340   3.614  5.2483  0.2433  2.6000
  487MOL0     H67157   3.509   6.520   3.614  1.7238 -0.1957 -0.2866
  487MOL0     H67158   3.672   6.316   3.477 -1.4148  0.2474  1.4747
  487MOL0     H67159   3.685   6.481   3.417  0.9286  1.6005  0.4318
  487MOL0     H67160   3.721   6.559   3.644  3.6936  0.5447  0.0195
  487MOL0     H67161   3.728   6.397   3.709  1.6592  0.5871  0.0725
  487MOL0     H67162   3.936   6.359   3.547  1.8609 -0.1971  2.2103
  487MOL0     H67163   3.916   6.523   3.507 -3.3457 -0.2879 -0.3057
  487MOL0     H67164   4.132   6.410   3.919  1.2942  0.2936  0.9658
  487MOL0     H67165   4.434   6.480   4.004  1.5461  1.2964 -2.4572
  487MOL0     H67166   4.480   6.329   3.942 -0.3520  0.3288 -0.8485
  487MOL0     H67167   4.325   6.343   4.027 -0.9467  0.2365 -1.2975
  487MOL0     H67168   4.722   6.552   3.352 -0.5514  0.3888  1.0301
  487MOL0     H67169   4.966   6.511   3.274 -2.3439 -0.0808 -0.2983
  487MOL0     H67170   5.197   6.297   3.256  1.4347 -0.9283  0.9386
  487MOL0     H67171   5.193   6.477   3.236  1.3995 -0.0596 -1.7277
  487MOL0     H67172   5.409   6.314   3.358  0.0562  0.1320  1.0222
  487MOL0     H67173   5.403   6.404   3.214 -0.3056 -2.4370 -0.3714
  487MOL0     H67174   5.392   6.527   3.500 -3.4884 -0.5340  0.4762
  487MOL0     H67175   5.394   6.623   3.360  2.1731  0.9365 -0.0067
  487MOL0     H67176   5.604   6.608   3.496 -1.6476  0.7792 -0.5612
  487MOL0     H67177   5.626   6.594   3.321  0.1356 -1.3873  0.4277
  487MOL0     H67178   5.582   6.351   3.490 -0.4467  2.2409  0.8548
  487MOL0     H67179   5.678   6.374   3.336 -0.8983  3.2079 -1.2958
  487MOL0     H67180   5.757   6.453   3.617 -0.4552  1.7353 -1.0855
  487MOL0     H67181   5.840   6.506   3.485 -1.3562  1.5686  2.4140
  487MOL0     H67182   5.935   6.303   3.591  0.5256 -1.5712 -1.0500
  487MOL0     H67183   5.898   6.291   3.421  0.4620 -0.5788  0.5575
  487MOL0     H67184   5.848   6.073   3.568 -0.5734 -1.7456 -2.1826
  487MOL0     H67185   5.701   6.137   3.483 -1.4230  0.6352  1.6661
  487MOL0     H67186   5.030   6.324   3.650  3.2462  3.1269 -1.6820
  487MOL0     H67187   4.798   6.351   3.713 -0.7493  0.6009 -0.9542
  487MOL0     H67188   4.363   6.526   3.495  0.9944 -1.2327 -0.5174
  487MOL0     H67189   4.128   6.532   3.508 -0.7734  0.5916  1.6651
  487MOL0     H67190   2.693   6.597   3.412  0.1785 -0.6166  0.4397
  487MOL0     H67191   2.628   6.830   3.363  1.2716 -1.2433  1.4297
  487MOL0     H67192   2.408   7.008   3.560 -0.6535  2.0610  0.2752
  487MOL0     H67193   2.322   6.985   3.777  0.2768  1.3828 -0.1089
  487MOL0     H67194   1.883   6.968   3.841  0.2830  0.6925  0.1996
  487MOL0     H67195   1.951   6.819   3.892  2.2206 -1.1465 -1.1357
  487MOL0     H67196   1.840   6.967   4.086  0.0379  2.4107  1.4819
  487MOL0     H67197   1.961   7.085   4.057 -0.1574 -0.5019  1.5997
  487MOL0     H67198   2.016   6.805   4.166  1.8753 -1.1554 -1.7439
  487MOL0     H67199   2.147   6.911   4.104  0.6796  3.3304  2.0435
  487MOL0     H67200   2.150   6.959   4.346  0.1934 -0.4705 -0.5069
  487MOL0     H67201   1.971   6.997   4.335  1.8052  3.2725  2.9941
  487MOL0     H67202   2.186   7.345   4.233 -2.6567  0.7540  0.2572
  487MOL0     H67203   1.924   6.889   3.638  0.3925 -1.5937 -1.0672
  487MOL0     H67204   1.974   6.737   3.389  0.5489 -0.1600 -1.9678
  487MOL0     H67205   1.900   6.892   3.368  0.5160 -0.1717  0.2397
  487MOL0     H67206   2.039   6.856   3.271  1.1439  1.7520  0.4467
  488MOL0     O67207   7.333   0.612  10.448 -0.0025 -0.3166 -0.3774
  488MOL0     C67208   7.296   0.684  10.539 -0.5414  0.0611  0.7811
  488MOL0     O67209   7.374   0.772  10.602  0.1557 -0.1114  0.0162
  488MOL0     C67210   7.500   0.784  10.564 -0.3419  0.1845 -0.6023
  488MOL0     C67211   7.596   0.682  10.590  0.4341  0.1237 -0.5315
  488MOL0     C67212   7.727   0.695  10.546  0.0991  1.1130 -0.6998
  488MOL0     C67213   7.773   0.808  10.485  0.4048  0.2046 -0.0388
  488MOL0     O67214   7.907   0.824  10.442  0.2366 -0.0643 -0.7982
  488MOL0     C67215   8.006   0.723  10.460  0.3456  0.6343 -0.7018
  488MOL0     C67216   8.134   0.753  10.395  0.6761 -0.3415 -0.3462
  488MOL0     C67217   8.117   0.763  10.238  0.7043 -0.3546 -0.0877
  488MOL0     C67218   8.245   0.810  10.173  0.3094  1.3978 -0.3776
  488MOL0     C67219   8.291   0.947  10.235  1.0508 -0.4250  1.0854
  488MOL0     C67220   8.358   1.028  10.115  0.3945  0.2196 -0.1494
  488MOL0     C67221   8.412   1.163  10.163 -0.1154 -0.3194 -0.4356
  488MOL0     C67222   8.525   1.159  10.260 -0.5409 -0.9266 -0.0880
  488MOL0     N67223   8.635   1.077  10.227 -0.7711 -0.1187  0.1067
  488MOL0     C67224   8.664   0.944  10.280 -0.4167  0.0622  0.0022
  488MOL0     C67225   8.772   0.900  10.217 -0.4425  0.6774 -0.3847
  488MOL0     C67226   8.838   0.763  10.236 -0.4374  0.1331 -0.8698
  488MOL0     C67227   8.766   0.645  10.168 -0.3839 -0.0489 -0.0471
  488MOL0     C67228   8.756   0.657  10.015  0.7174 -0.2828 -0.3553
  488MOL0     C67229   8.882   0.687   9.937 -0.1410  0.1503  1.2053
  488MOL0     O67230   8.989   0.594   9.956  1.1206  0.2835 -0.7525
  488MOL0     C67231   9.122   0.643   9.972 -0.1997  0.5218 -0.1700
  488MOL0     C67232   9.213   0.557  10.041  0.0728  0.8201 -0.2648
  488MOL0     C67233   9.350   0.575  10.046  0.1448  0.6042 -0.4678
  488MOL0     C67234   9.423   0.468  10.128 -0.0407 -0.5068 -0.0966
  488MOL0     C67235   9.411   0.676   9.975  1.2108  0.4005  0.5686
  488MOL0     C67236   9.545   0.726   9.982 -0.4140  0.8806 -1.3295
  488MOL0     O67237   9.612   0.674  10.093  0.1877 -0.5399 -0.1925
  488MOL0     C67238   9.735   0.734  10.110 -0.2398  0.5696 -0.5992
  488MOL0     C67239   9.763   0.827  10.207 -1.1435 -0.4477  0.1203
  488MOL0     C67240   9.896   0.891  10.212  0.4266 -0.2806  0.1253
  488MOL0     C67241   9.994   0.852  10.123 -0.3337  0.4329  0.7712
  488MOL0     O67242  10.117   0.916  10.134 -0.2335  0.3089 -0.3369
  488MOL0     C67243  10.231   0.866  10.060 -0.0229 -0.8030 -0.5148
  488MOL0     C67244  10.225   0.911   9.913  0.3210 -0.5044 -0.2118
  488MOL0     C67245  10.204   1.068   9.900 -0.1700  0.4686 -0.2775
  488MOL0     C67246  10.267   1.134   9.765  0.9297  0.2631 -0.0938
  488MOL0     C67247  10.178   1.256   9.729 -0.4497  0.1100  1.0750
  488MOL0     C67248  10.247   1.344   9.625  0.3420  0.2943  0.5796
  488MOL0     C67249  10.181   1.478   9.612 -0.0635  0.3928  1.1093
  488MOL0     C67250  10.226   1.571   9.493 -0.2806  0.0121  0.4989
  488MOL0    Cl67251  10.212   1.473   9.338 -0.3617  0.2302  0.0706
  488MOL0     C67252   9.963   0.746  10.031 -0.2039  1.2099 -0.2750
  488MOL0     C67253   9.838   0.691  10.029  0.2129 -0.2110  0.7288
  488MOL0     O67254   9.597   0.801   9.893 -0.1302 -0.3917  0.6560
  488MOL0     C67255   9.322   0.770   9.907 -0.8566 -0.3161  0.8232
  488MOL0     C67256   9.182   0.749   9.901 -0.0565  0.0372 -0.1059
  488MOL0     N67257   8.806   1.002  10.118  0.0559  0.6145 -0.0467
  488MOL0     N67258   8.724   1.103  10.131 -0.5970  0.3260 -0.0617
  488MOL0     C67259   7.679   0.911  10.463 -0.3410 -0.1410  0.3754
  488MOL0     C67260   7.550   0.902  10.503  0.5366 -0.2660 -0.3886
  488MOL0     C67261   7.167   0.654  10.597  0.5947 -0.6144  0.2601
  488MOL0     C67262   7.094   0.766  10.649  0.1119 -0.2885  0.0342
  488MOL0     C67263   6.966   0.767  10.694  0.4995  0.1498 -1.4344
  488MOL0     C67264   6.894   0.647  10.687 -0.5064 -0.4224 -0.1024
  488MOL0     O67265   6.758   0.642  10.728 -0.3302 -0.3180 -0.1477
  488MOL0     C67266   6.669   0.535  10.670 -1.4753 -0.0959 -0.0299
  488MOL0     C67267   6.525   0.555  10.712  0.5517 -1.7564  0.3643
  488MOL0     C67268   6.465   0.684  10.647  0.0675  0.1277 -1.2514
  488MOL0     C67269   6.321   0.691  10.673  0.5513 -0.6371 -1.0820
  488MOL0     C67270   6.300   0.762  10.809  0.4187  1.1761  1.3088
  488MOL0     C67271   6.293   0.793  10.922  0.3085  0.2118 -0.4351
  488MOL0     C67272   6.962   0.528  10.639 -0.2376  0.5084  0.1824
  488MOL0     C67273   7.092   0.536  10.592  0.5704  0.0049  0.3770
  488MOL0     C67274   7.159   0.404  10.570 -0.1169 -0.5380  0.4862
  488MOL0     H67275   7.567   0.589  10.637 -0.6439  2.1815  3.3322
  488MOL0     H67276   7.776   0.599  10.535 -3.0730 -0.5193 -1.9898
  488MOL0     H67277   7.983   0.626  10.417  1.3604 -0.4439  1.0417
  488MOL0     H67278   8.012   0.696  10.566 -2.8364  0.1428 -0.5483
  488MOL0     H67279   8.174   0.841  10.447 -0.1769  0.5402 -1.1594
  488MOL0     H67280   8.195   0.667  10.426 -1.3927 -1.9213 -0.5003
  488MOL0     H67281   8.088   0.666  10.197 -3.2278 -0.5113  2.5450
  488MOL0     H67282   8.026   0.819  10.217 -0.1055 -1.2193  0.9914
  488MOL0     H67283   8.321   0.731  10.184 -0.1128  0.4925 -3.1634
  488MOL0     H67284   8.230   0.822  10.065  2.7693  1.4538 -0.7717
  488MOL0     H67285   8.360   0.932  10.318 -0.3818 -1.5929  2.1116
  488MOL0     H67286   8.207   1.005  10.274  2.2970  1.4808  1.0872
  488MOL0     H67287   8.440   0.974  10.067 -0.4392 -1.4359  0.2003
  488MOL0     H67288   8.280   1.058  10.045  1.0021  2.3418  0.0326
  488MOL0     H67289   8.334   1.230  10.199  0.9552  0.6751  0.0682
  488MOL0     H67290   8.444   1.213  10.071 -0.4510  0.8940  0.0979
  488MOL0     H67291   8.563   1.259  10.283 -1.6653 -0.6118  0.4445
  488MOL0     H67292   8.493   1.125  10.359 -0.7647  1.9636  0.9335
  488MOL0     H67293   8.598   0.883  10.342  0.4620 -2.2140 -1.1826
  488MOL0     H67294   8.849   0.731  10.341  2.1351 -1.5498 -1.5460
  488MOL0     H67295   8.940   0.773  10.197  0.1855  1.2474  0.8990
  488MOL0     H67296   8.818   0.551  10.193  0.6604  0.9417  1.6842
  488MOL0     H67297   8.665   0.630  10.209 -1.1808  0.8849 -1.6144
  488MOL0     H67298   8.698   0.569   9.984  0.9177  0.0361 -1.6919
  488MOL0     H67299   8.684   0.734   9.985  0.4497 -0.6933 -0.7851
  488MOL0     H67300   8.866   0.688   9.828  0.6842  0.6307  1.0804
  488MOL0     H67301   8.917   0.787   9.964 -1.3574  0.9314  0.0420
  488MOL0     H67302   9.179   0.464  10.086  4.3347 -1.2678 -0.8804
  488MOL0     H67303   9.519   0.434  10.088 -1.2321 -0.2578 -3.4636
  488MOL0     H67304   9.370   0.379  10.162  0.7282  0.1696  3.1610
  488MOL0     H67305   9.448   0.514  10.224 -1.5174  0.0813  0.0416
  488MOL0     H67306   9.688   0.843  10.283 -1.1159  1.4620 -0.2204
  488MOL0     H67307   9.909   0.968  10.287 -3.2997  0.3089  0.3568
  488MOL0     H67308  10.315   0.916  10.109  0.7419 -3.9461  1.7468
  488MOL0     H67309  10.252   0.760  10.080 -2.0218 -0.8036  1.9463
  488MOL0     H67310  10.314   0.885   9.856 -0.5621 -1.3181 -1.2657
  488MOL0     H67311  10.133   0.869   9.871 -0.9209  1.5668  0.2516
  488MOL0     H67312  10.234   1.127   9.987  1.0774 -0.1828 -0.2568
  488MOL0     H67313  10.096   1.086   9.899 -0.2246  0.1498 -0.1315
  488MOL0     H67314  10.268   1.057   9.688 -2.8760  0.6707 -0.7565
  488MOL0     H67315  10.373   1.156   9.783  0.8639 -1.4000  2.9300
  488MOL0     H67316  10.077   1.226   9.700  0.7030 -2.5325 -0.4710
  488MOL0     H67317  10.175   1.312   9.823 -0.0448  2.7169 -0.3503
  488MOL0     H67318  10.262   1.287   9.533 -1.6863 -2.4058  1.7780
  488MOL0     H67319  10.350   1.352   9.660  0.7468  1.2707 -0.7787
  488MOL0     H67320  10.209   1.539   9.698  2.6697  1.8658 -0.6905
  488MOL0     H67321  10.072   1.470   9.619  0.0675 -0.3531  2.8544
  488MOL0     H67322  10.330   1.599   9.508 -0.9977  5.2220 -2.1265
  488MOL0     H67323  10.165   1.660   9.475 -0.5715 -0.3228 -0.1936
  488MOL0     H67324  10.044   0.704   9.971  0.9652  0.4130  1.7546
  488MOL0     H67325   9.814   0.618   9.952 -3.0354  0.1891  1.2351
  488MOL0     H67326   9.361   0.859   9.859  0.2083 -1.0932  0.2053
  488MOL0     H67327   9.115   0.820   9.854 -2.0998 -0.3298  2.0426
  488MOL0     H67328   7.714   1.003  10.417  1.2985 -0.2849  1.2452
  488MOL0     H67329   7.487   0.989  10.491  1.4197  0.8097  2.1308
  488MOL0     H67330   7.136   0.866  10.652  1.6534 -0.9216  1.7160
  488MOL0     H67331   6.922   0.860  10.727  0.6931 -0.4140  0.5570
  488MOL0     H67332   6.670   0.529  10.561  0.3303 -0.9206 -0.0084
  488MOL0     H67333   6.702   0.433  10.694  0.7537  0.7102  0.5417
  488MOL0     H67334   6.512   0.571  10.819  0.0619 -0.2610  0.0958
  488MOL0     H67335   6.473   0.461  10.693 -1.6338 -0.1979 -1.9282
  488MOL0     H67336   6.519   0.773  10.679  2.4983 -1.8305  0.5171
  488MOL0     H67337   6.478   0.670  10.539  0.0925 -1.1470 -1.0976
  488MOL0     H67338   6.263   0.599  10.668 -1.3835  0.3250  1.4171
  488MOL0     H67339   6.272   0.767  10.612  0.3088  1.4555  1.5500
  488MOL0     H67340   6.260   0.811  11.023 -1.8101 -2.8328 -0.4268
  488MOL0     H67341   6.917   0.431  10.622  1.2065 -0.8051  3.3208
  488MOL0     H67342   7.268   0.410  10.578 -0.1807  3.8510  0.4350
  488MOL0     H67343   7.117   0.328  10.636  1.7163 -0.3671  1.9032
  488MOL0     H67344   7.145   0.371  10.466  0.3551 -2.3757  0.9773
  489MOL0     O67345   1.291   7.966   7.950 -0.2216  0.4743 -0.5527
  489MOL0     C67346   1.305   8.025   8.051 -0.2305 -0.1154 -0.5656
  489MOL0     O67347   1.213   8.104   8.115 -0.8147  0.2698  0.0323
  489MOL0     C67348   1.080   8.104   8.088  0.5882 -0.3734 -0.1116
  489MOL0     C67349   1.043   8.129   7.958 -0.3399  0.0909  0.3048
  489MOL0     C67350   0.909   8.152   7.918 -0.4678 -0.6095 -0.4751
  489MOL0     C67351   0.816   8.148   8.021 -0.4209  0.7393  0.5832
  489MOL0     O67352   0.686   8.161   7.991 -0.1249  0.0459  0.2515
  489MOL0     C67353   0.653   8.272   7.911 -0.6560  0.0427  0.0460
  489MOL0     C67354   0.512   8.309   7.927 -0.0183 -0.5778  0.2707
  489MOL0     C67355   0.483   8.458   7.891  0.3931 -0.6034  0.0104
  489MOL0     C67356   0.473   8.494   7.741 -0.1301  0.3040 -0.3223
  489MOL0     C67357   0.459   8.644   7.720 -0.8138  0.5521 -0.2598
  489MOL0     C67358   0.336   8.702   7.773  0.5982 -0.7940 -0.1084
  489MOL0     C67359   0.207   8.622   7.745  0.2874 -0.2465  0.6023
  489MOL0     C67360   0.168   8.646   7.593  1.3428  0.0833  0.1163
  489MOL0     N67361   0.033   8.577   7.557  0.2173 -0.0328  0.2097
  489MOL0     C67362  -0.085   8.592   7.632 -0.6810  0.1544  0.7442
  489MOL0     C67363  -0.156   8.477   7.594  0.2103 -0.3526  0.2851
  489MOL0     C67364  -0.296   8.449   7.633 -0.4944  1.1150  0.6030
  489MOL0     C67365  -0.310   8.315   7.704  0.7652 -0.2078  0.4756
  489MOL0     C67366  -0.447   8.256   7.695 -0.1734  0.2619 -0.8240
  489MOL0     C67367  -0.557   8.320   7.788 -0.2770 -1.1555 -0.8851
  489MOL0     O67368  -0.549   8.265   7.924  0.1880  0.9192 -0.4914
  489MOL0     C67369  -0.547   8.128   7.953  0.1460 -0.0992 -0.5569
  489MOL0     C67370  -0.640   8.057   7.884 -0.2338  0.1708 -0.2315
  489MOL0     C67371  -0.647   7.924   7.916  1.9396  0.6407  0.1048
  489MOL0     C67372  -0.748   7.849   7.823 -0.1399  0.3751  0.7461
  489MOL0     C67373  -0.578   7.862   8.022 -0.6326  0.8948  0.1569
  489MOL0     C67374  -0.590   7.718   8.065 -0.5924 -0.4902  0.1029
  489MOL0     O67375  -0.495   7.681   8.162  0.0504  0.2447 -0.3991
  489MOL0     C67376  -0.463   7.549   8.202 -0.1235 -0.5119  0.4898
  489MOL0     C67377  -0.342   7.555   8.270  0.1037  0.7190  0.3749
  489MOL0     C67378  -0.274   7.442   8.311  0.2543  0.7008 -0.3647
  489MOL0     C67379  -0.342   7.314   8.297 -1.0917  0.4732  0.6681
  489MOL0     O67380  -0.249   7.214   8.314  1.1398 -0.4279 -0.2460
  489MOL0     C67381  -0.304   7.105   8.390 -0.1054  0.2359 -0.0537
  489MOL0     C67382  -0.197   6.993   8.385  0.4868  0.4676  0.5592
  489MOL0     C67383  -0.073   7.037   8.455  0.2167  0.1519 -1.0020
  489MOL0     C67384  -0.095   7.045   8.608 -0.0445  0.5308  0.1711
  489MOL0     C67385  -0.007   7.151   8.669 -0.0871  0.4580  0.0084
  489MOL0     C67386  -0.067   7.290   8.665  0.6995 -0.4354 -0.3066
  489MOL0     C67387   0.024   7.400   8.730  0.8053 -0.2080  0.9664
  489MOL0     C67388  -0.023   7.545   8.702  0.5167  0.1113  0.1913
  489MOL0    Cl67389   0.000   7.578   8.526  0.0451 -0.4452 -0.1296
  489MOL0     C67390  -0.464   7.307   8.230  0.1566 -0.0724  0.8309
  489MOL0     C67391  -0.531   7.427   8.185 -0.6005  0.1768  0.0873
  489MOL0     O67392  -0.675   7.646   8.021  0.5175 -0.1687 -0.1757
  489MOL0     C67393  -0.492   7.942   8.104 -0.3167  0.6978 -0.0971
  489MOL0     C67394  -0.476   8.078   8.065  0.2073  0.6776  0.4671
  489MOL0     N67395  -0.090   8.419   7.487 -0.9073 -0.1893  0.3931
  489MOL0     N67396   0.022   8.474   7.472 -0.1161 -0.0456 -0.3442
  489MOL0     C67397   0.845   8.123   8.150  0.2172 -0.1193  0.3164
  489MOL0     C67398   0.982   8.101   8.188  0.1418  0.0938 -0.3832
  489MOL0     C67399   1.447   8.037   8.102  0.4661  0.2129 -0.4956
  489MOL0     C67400   1.458   8.023   8.245  0.4177 -1.1033 -0.2976
  489MOL0     C67401   1.584   8.004   8.300  0.3477 -0.5690  0.1453
  489MOL0     C67402   1.692   8.000   8.219  0.6221  0.6484 -1.2035
  489MOL0     O67403   1.816   8.012   8.269  0.4494  0.4075  0.1296
  489MOL0     C67404   1.894   7.894   8.240 -0.3179 -0.0090  0.0782
  489MOL0     C67405   1.855   7.768   8.315 -0.1091  0.0501 -0.0296
  489MOL0     C67406   1.877   7.789   8.472  0.1239 -0.5019  0.1393
  489MOL0     C67407   1.823   7.679   8.558 -0.0041  1.1735  0.2733
  489MOL0     C67408   1.678   7.699   8.579 -0.2876  0.4599 -0.5613
  489MOL0     C67409   1.568   7.735   8.606  0.0854 -0.0089  0.0041
  489MOL0     C67410   1.685   8.015   8.081  0.0527  0.4908  0.5498
  489MOL0     C67411   1.557   8.038   8.017 -1.0189 -0.6954  0.3523
  489MOL0     C67412   1.567   8.062   7.861  0.6630 -0.2429  0.5273
  489MOL0     H67413   1.130   8.143   7.895 -0.1263 -2.6642 -0.1408
  489MOL0     H67414   0.893   8.150   7.810 -1.0314  0.6576 -0.4355
  489MOL0     H67415   0.682   8.238   7.810 -0.2308 -3.9132  1.3365
  489MOL0     H67416   0.712   8.358   7.945  0.6517 -0.1016 -1.6912
  489MOL0     H67417   0.454   8.248   7.858  0.0622 -0.1361 -0.1986
  489MOL0     H67418   0.486   8.286   8.031 -2.7413 -4.7475 -1.0958
  489MOL0     H67419   0.386   8.485   7.934  0.0845 -0.0962 -0.9853
  489MOL0     H67420   0.549   8.529   7.942 -2.4059  1.5183  0.9515
  489MOL0     H67421   0.567   8.461   7.694 -0.5175 -0.9235 -0.2940
  489MOL0     H67422   0.387   8.443   7.696 -0.0757  0.5299 -0.6908
  489MOL0     H67423   0.461   8.671   7.614 -4.2725  0.1280 -0.5299
  489MOL0     H67424   0.546   8.693   7.764 -0.1339  2.7666 -3.6435
  489MOL0     H67425   0.350   8.716   7.880  2.7845  0.9032 -0.5326
  489MOL0     H67426   0.326   8.802   7.728  0.4634 -0.8065 -0.1058
  489MOL0     H67427   0.127   8.649   7.815 -3.5601  0.5494 -3.5975
  489MOL0     H67428   0.211   8.513   7.750 -2.8760 -1.1059 -5.5333
  489MOL0     H67429   0.144   8.752   7.581 -0.1335 -0.1587  0.7935
  489MOL0     H67430   0.259   8.629   7.534  1.0609  1.6666 -0.8518
  489MOL0     H67431  -0.118   8.665   7.705  2.0479  1.5410  0.7156
  489MOL0     H67432  -0.352   8.447   7.538  0.2351  0.4076  0.1750
  489MOL0     H67433  -0.340   8.522   7.701 -0.4915 -0.0407  1.8800
  489MOL0     H67434  -0.233   8.249   7.664  0.4303 -0.8682  0.9068
  489MOL0     H67435  -0.291   8.335   7.810  0.1297  0.3762  0.4904
  489MOL0     H67436  -0.479   8.256   7.591  1.5732  0.4469 -1.3880
  489MOL0     H67437  -0.422   8.155   7.729  1.0354  1.4670  2.2945
  489MOL0     H67438  -0.536   8.427   7.792  1.6767 -1.4340 -2.1163
  489MOL0     H67439  -0.660   8.317   7.752 -1.3689 -1.9549  1.9903
  489MOL0     H67440  -0.703   8.100   7.807  0.3639  0.5993 -0.4894
  489MOL0     H67441  -0.706   7.755   7.785  1.3047  1.6460 -0.9234
  489MOL0     H67442  -0.756   7.905   7.730 -3.5407 -1.2584 -0.0929
  489MOL0     H67443  -0.846   7.831   7.868 -0.3895 -0.5566 -0.1352
  489MOL0     H67444  -0.286   7.647   8.283 -1.1451  1.2218  2.5213
  489MOL0     H67445  -0.172   7.455   8.347 -0.3983  2.0921  1.0862
  489MOL0     H67446  -0.306   7.137   8.494  0.5432 -0.6632  0.2472
  489MOL0     H67447  -0.403   7.069   8.361 -0.6847  1.7952 -0.0504
  489MOL0     H67448  -0.234   6.909   8.445  0.5997 -0.5177 -0.7071
  489MOL0     H67449  -0.185   6.969   8.279 -2.9431  0.1689  0.1063
  489MOL0     H67450  -0.035   7.132   8.418  1.8659  0.8041  2.0181
  489MOL0     H67451   0.006   6.965   8.430 -0.8966 -1.4926 -0.0079
  489MOL0     H67452  -0.073   6.948   8.654 -0.4278  1.3147  2.1193
  489MOL0     H67453  -0.201   7.053   8.632 -0.3927 -0.7009 -0.8163
  489MOL0     H67454   0.022   7.132   8.773  0.5156  0.0859 -0.2200
  489MOL0     H67455   0.090   7.148   8.617 -0.8773 -2.4630 -1.4813
  489MOL0     H67456  -0.167   7.289   8.708  0.5854 -0.2498 -0.5676
  489MOL0     H67457  -0.076   7.329   8.563 -0.0696  1.4718  0.4504
  489MOL0     H67458   0.119   7.389   8.676  1.0205 -1.3111  1.5367
  489MOL0     H67459   0.046   7.358   8.829 -0.8902 -2.5552  0.4508
  489MOL0     H67460   0.040   7.605   8.768  1.4558 -0.2146 -0.3950
  489MOL0     H67461  -0.127   7.554   8.735  0.6178  0.4296  0.4219
  489MOL0     H67462  -0.518   7.216   8.205 -0.0733  1.1030 -3.7940
  489MOL0     H67463  -0.623   7.430   8.127  0.3215  0.0341 -1.4472
  489MOL0     H67464  -0.452   7.910   8.199 -0.5556 -1.4429 -0.6795
  489MOL0     H67465  -0.405   8.152   8.102 -0.4428  0.9529  1.2010
  489MOL0     H67466   0.773   8.112   8.231 -0.9516 -2.6176 -0.9579
  489MOL0     H67467   1.018   8.090   8.290  0.3275  0.9198 -0.3556
  489MOL0     H67468   1.368   8.020   8.306 -0.9705 -0.7136 -2.2218
  489MOL0     H67469   1.598   8.000   8.408  0.0601 -1.1234  0.1642
  489MOL0     H67470   1.881   7.868   8.134  0.3723  1.9729 -0.5228
  489MOL0     H67471   1.998   7.923   8.258 -0.6006  3.8608 -3.1721
  489MOL0     H67472   1.920   7.690   8.275 -1.9023 -0.6432 -1.7677
  489MOL0     H67473   1.750   7.744   8.296  0.1185 -0.3333 -0.8312
  489MOL0     H67474   1.984   7.802   8.487  0.2438 -1.3448  0.1065
  489MOL0     H67475   1.834   7.886   8.498  2.4066  0.4569  0.5903
  489MOL0     H67476   1.876   7.669   8.653  1.1078 -0.5717 -0.4785
  489MOL0     H67477   1.837   7.583   8.507  3.0534  1.8577 -0.3711
  489MOL0     H67478   1.469   7.771   8.625  0.7291  0.7643  2.2733
  489MOL0     H67479   1.774   8.014   8.019 -1.2361 -0.9293 -1.3541
  489MOL0     H67480   1.670   8.058   7.824  1.6545 -0.7172  3.1534
  489MOL0     H67481   1.510   7.989   7.803 -0.0501  0.8522 -0.1965
  489MOL0     H67482   1.534   8.162   7.830 -2.6198 -1.4846 -0.3347
  490MOL0     O67483   3.405   7.131   2.810  0.2515  0.3759  0.1175
  490MOL0     C67484   3.298   7.081   2.780  0.1638 -0.1363 -0.3345
  490MOL0     O67485   3.265   6.943   2.796  0.2721 -0.0890 -0.7219
  490MOL0     C67486   3.368   6.855   2.832 -0.1744 -0.0291  0.4925
  490MOL0     C67487   3.502   6.862   2.787  0.8348  0.2544 -0.1997
  490MOL0     C67488   3.590   6.760   2.827  0.8092 -0.2238  0.1676
  490MOL0     C67489   3.545   6.648   2.909 -0.0383  0.9255 -0.2837
  490MOL0     O67490   3.636   6.548   2.946 -0.2400  0.7650  0.3233
  490MOL0     C67491   3.599   6.456   3.051  0.0421  0.0070  0.6075
  490MOL0     C67492   3.708   6.350   3.087  0.6613  0.6394 -0.3637
  490MOL0     C67493   3.833   6.413   3.137 -0.3066 -0.1202 -0.3483
  490MOL0     C67494   3.931   6.299   3.171  0.8664 -0.3186  0.3516
  490MOL0     C67495   4.065   6.370   3.211  0.7779  0.2507 -0.6429
  490MOL0     C67496   4.152   6.269   3.302  1.2686 -0.8698  0.7194
  490MOL0     C67497   4.192   6.137   3.240  0.3733  0.2094 -0.0941
  490MOL0     C67498   4.255   6.159   3.095 -0.3197  0.5556  0.2836
  490MOL0     N67499   4.394   6.192   3.107 -0.1368 -0.6646 -0.9046
  490MOL0     C67500   4.505   6.110   3.090 -0.4723 -0.0673 -0.0618
  490MOL0     C67501   4.611   6.191   3.109 -0.5186 -0.7450 -0.0806
  490MOL0     C67502   4.755   6.149   3.109  0.1797  0.2830 -0.4625
  490MOL0     C67503   4.845   6.232   3.014  0.6285 -0.0579  0.2167
  490MOL0     C67504   4.801   6.206   2.871  0.3750 -0.2681 -0.2690
  490MOL0     C67505   4.892   6.267   2.763  0.2821 -0.3847  1.0564
  490MOL0     O67506   5.012   6.198   2.767 -0.8154 -0.7829  0.1456
  490MOL0     C67507   5.118   6.234   2.691 -0.5922  0.0781  0.4645
  490MOL0     C67508   5.249   6.199   2.730  0.6195  0.5551 -0.3738
  490MOL0     C67509   5.354   6.201   2.649 -0.2362  0.7248  0.7958
  490MOL0     C67510   5.479   6.127   2.689  0.4104 -0.4088  0.3870
  490MOL0     C67511   5.335   6.253   2.515  0.1335  0.1261 -0.4383
  490MOL0     C67512   5.443   6.241   2.408  0.7482  0.1864 -0.2394
  490MOL0     O67513   5.397   6.265   2.281 -0.3233 -0.6686  0.6443
  490MOL0     C67514   5.477   6.299   2.172  0.6292  0.2520 -0.1296
  490MOL0     C67515   5.599   6.366   2.187 -0.2996 -0.0819  0.8676
  490MOL0     C67516   5.670   6.393   2.069  0.3011 -0.1943  0.8592
  490MOL0     C67517   5.621   6.365   1.940  0.2954  0.6325 -0.7938
  490MOL0     O67518   5.710   6.383   1.834  0.3969  0.2367 -0.3503
  490MOL0     C67519   5.690   6.305   1.717  0.2546 -0.5550  0.2634
  490MOL0     C67520   5.786   6.337   1.599  0.5427  0.3947 -0.8531
  490MOL0     C67521   5.758   6.476   1.543  0.1305  0.5893 -1.2253
  490MOL0     C67522   5.892   6.525   1.481  0.0976 -0.5651 -0.4440
  490MOL0     C67523   5.894   6.675   1.448 -0.7473 -0.8114  0.5272
  490MOL0     C67524   5.861   6.774   1.564 -0.0638  0.2232  0.5264
  490MOL0     C67525   5.902   6.914   1.535 -0.3741 -0.0380 -0.2864
  490MOL0     C67526   5.890   6.993   1.669 -0.1031 -0.2866 -0.3875
  490MOL0    Cl67527   5.927   7.152   1.634  0.0321 -0.3053  0.4488
  490MOL0     C67528   5.494   6.297   1.926 -0.3191  0.4981 -0.9212
  490MOL0     C67529   5.423   6.268   2.047  0.3548 -0.1389 -0.1466
  490MOL0     O67530   5.563   6.239   2.444  0.3594 -1.1608  0.5589
  490MOL0     C67531   5.205   6.286   2.474 -0.1371  0.1785 -0.4265
  490MOL0     C67532   5.098   6.280   2.559 -0.3246  0.3875 -0.0085
  490MOL0     N67533   4.568   6.320   3.128  0.0046  0.6435 -0.1911
  490MOL0     N67534   4.439   6.319   3.128  0.2017  0.2289  1.1625
  490MOL0     C67535   3.412   6.653   2.957 -0.2782 -0.0675 -0.7542
  490MOL0     C67536   3.328   6.752   2.912 -0.6469  0.2544  0.4193
  490MOL0     C67537   3.181   7.179   2.753  0.3096  0.3486 -1.2714
  490MOL0     C67538   3.049   7.120   2.764  0.5715  1.0667  0.6098
  490MOL0     C67539   2.944   7.199   2.756  0.9369  0.3858 -0.2826
  490MOL0     C67540   2.942   7.335   2.731  0.1297  0.8684 -0.2260
  490MOL0     O67541   2.822   7.394   2.695 -0.0247 -0.3440  0.2616
  490MOL0     C67542   2.824   7.506   2.609  0.4002  0.2283 -0.0109
  490MOL0     C67543   2.679   7.548   2.588 -0.1760 -0.0180  0.0689
  490MOL0     C67544   2.582   7.476   2.496 -0.3606  0.0797  0.8442
  490MOL0     C67545   2.453   7.445   2.558 -0.6989  0.5582 -0.8574
  490MOL0     C67546   2.376   7.568   2.571 -0.5688 -0.4460  0.5115
  490MOL0     C67547   2.307   7.663   2.595  0.1826  0.3324  0.1798
  490MOL0     C67548   3.071   7.400   2.721  0.4481 -0.0869  0.0123
  490MOL0     C67549   3.191   7.319   2.739  0.1895 -0.1190 -0.5947
  490MOL0     C67550   3.332   7.394   2.731  0.2586 -0.2517  0.2743
  490MOL0     H67551   3.516   6.951   2.726  0.5734  0.7712  0.4757
  490MOL0     H67552   3.695   6.769   2.802  0.4608 -0.3626 -1.4121
  490MOL0     H67553   3.508   6.402   3.021 -0.9971  3.1821 -2.7367
  490MOL0     H67554   3.585   6.517   3.141  3.3349 -2.5397  3.1033
  490MOL0     H67555   3.656   6.285   3.158  2.7870 -0.1827  0.5177
  490MOL0     H67556   3.730   6.281   3.005 -0.2962 -3.3182  2.4223
  490MOL0     H67557   3.873   6.473   3.055 -2.2473 -1.4210 -2.3632
  490MOL0     H67558   3.819   6.486   3.218 -3.0536  1.3060 -1.9222
  490MOL0     H67559   3.884   6.227   3.239 -1.7744  0.8520 -0.1080
  490MOL0     H67560   3.951   6.242   3.080  0.5856 -1.6491  1.1022
  490MOL0     H67561   4.048   6.458   3.273 -2.3657 -0.6625 -0.0110
  490MOL0     H67562   4.123   6.399   3.123  0.7035 -0.1155 -0.8139
  490MOL0     H67563   4.243   6.328   3.321 -0.9436  2.5155  1.7505
  490MOL0     H67564   4.093   6.261   3.394  0.9656  0.1406  0.6195
  490MOL0     H67565   4.106   6.070   3.249 -0.6678  1.5896  0.6217
  490MOL0     H67566   4.272   6.084   3.292  0.0048  2.6070  3.1952
  490MOL0     H67567   4.245   6.069   3.034 -2.3792  1.4295 -0.7768
  490MOL0     H67568   4.204   6.239   3.041  0.4883  0.5401 -0.5240
  490MOL0     H67569   4.510   6.009   3.049 -2.2390  0.2389 -1.1459
  490MOL0     H67570   4.749   6.043   3.083  0.5729 -0.5151  2.3817
  490MOL0     H67571   4.788   6.154   3.213 -2.8200 -1.0472  0.6734
  490MOL0     H67572   4.839   6.335   3.049  3.3138 -0.4186  1.9965
  490MOL0     H67573   4.948   6.205   3.037  0.8066  1.5498  1.4372
  490MOL0     H67574   4.805   6.098   2.853 -1.1780 -0.6130  1.1646
  490MOL0     H67575   4.695   6.231   2.858  0.2642 -1.0659 -1.1010
  490MOL0     H67576   4.843   6.257   2.666  0.0455 -1.2444  1.2523
  490MOL0     H67577   4.890   6.374   2.784 -0.4843  0.3969 -2.3959
  490MOL0     H67578   5.251   6.150   2.827 -0.7791 -1.3770 -1.2623
  490MOL0     H67579   5.555   6.200   2.719  1.4417 -0.4735 -1.9190
  490MOL0     H67580   5.505   6.061   2.606  3.8625 -1.3962  2.1108
  490MOL0     H67581   5.456   6.067   2.778  0.4260  1.2077  1.5386
  490MOL0     H67582   5.636   6.398   2.284  2.3918  1.1634 -0.4622
  490MOL0     H67583   5.762   6.450   2.073 -0.3987  0.9652  0.8748
  490MOL0     H67584   5.710   6.202   1.747  4.7521 -0.4209 -1.4744
  490MOL0     H67585   5.585   6.316   1.687 -0.5173  0.6926  3.1000
  490MOL0     H67586   5.882   6.329   1.652 -0.2746  0.6121  0.7031
  490MOL0     H67587   5.766   6.277   1.510 -1.2956  1.2374 -1.0538
  490MOL0     H67588   5.736   6.541   1.629 -1.2779  1.0255 -1.8793
  490MOL0     H67589   5.668   6.499   1.486 -0.9454  0.2080  0.2497
  490MOL0     H67590   5.912   6.467   1.390 -2.1369 -3.5047  0.7715
  490MOL0     H67591   5.974   6.502   1.550  0.5775 -0.2178 -0.8873
  490MOL0     H67592   5.996   6.705   1.424 -0.8645  0.1980  1.2426
  490MOL0     H67593   5.814   6.686   1.374 -0.5723 -0.9183  0.3207
  490MOL0     H67594   5.929   6.739   1.642  0.2607 -2.7563 -0.9438
  490MOL0     H67595   5.757   6.774   1.595  0.3775  3.0518  2.3050
  490MOL0     H67596   5.828   6.953   1.464  0.7913  0.9280 -1.0092
  490MOL0     H67597   6.002   6.916   1.490  0.0364 -1.1185  0.5309
  490MOL0     H67598   5.958   6.948   1.743 -2.7583 -3.6095  0.3159
  490MOL0     H67599   5.791   6.966   1.708  1.6377 -1.2196  4.0513
  490MOL0     H67600   5.457   6.263   1.829 -0.4527 -1.0430 -0.3592
  490MOL0     H67601   5.330   6.214   2.038  0.7745 -0.9320  0.1797
  490MOL0     H67602   5.181   6.307   2.371  0.0649 -1.7591 -0.9215
  490MOL0     H67603   4.999   6.301   2.519  0.5960  0.9357 -2.0967
  490MOL0     H67604   3.363   6.577   3.016  1.8618 -1.7536 -1.0122
  490MOL0     H67605   3.223   6.754   2.941 -0.3782  1.5115  1.3942
  490MOL0     H67606   3.026   7.014   2.762 -2.0994  1.5972 -0.1561
  490MOL0     H67607   2.842   7.164   2.746  0.1420  2.4056  0.2422
  490MOL0     H67608   2.879   7.587   2.657 -0.2495  1.0254 -0.6040
  490MOL0     H67609   2.877   7.481   2.516  0.9418 -0.9841  0.5917
  490MOL0     H67610   2.695   7.649   2.548  2.1613 -0.4424 -0.1923
  490MOL0     H67611   2.636   7.570   2.686 -0.7125  0.9874 -0.3774
  490MOL0     H67612   2.558   7.518   2.398  1.4654 -2.6511 -0.8981
  490MOL0     H67613   2.638   7.391   2.457  0.2633  1.7147 -2.1918
  490MOL0     H67614   2.468   7.396   2.654 -0.8967  0.3702 -0.9200
  490MOL0     H67615   2.394   7.375   2.498 -0.7282  0.7056 -1.0030
  490MOL0     H67616   2.246   7.750   2.615 -1.8904 -1.7578  4.2055
  490MOL0     H67617   3.057   7.508   2.720 -2.3897 -0.3441  0.7758
  490MOL0     H67618   3.320   7.503   2.729  0.9770 -0.1501 -2.2935
  490MOL0     H67619   3.381   7.378   2.828  1.8821  0.0522 -0.4684
  490MOL0     H67620   3.395   7.360   2.649  3.8297  0.5885  2.4298
  491MOL0     O67621   8.692  10.261   6.556  0.2821 -0.1224  0.4590
  491MOL0     C67622   8.740  10.193   6.643 -0.8060 -0.2766 -0.8365
  491MOL0     O67623   8.877  10.174   6.667 -0.3294  0.3450 -0.2492
  491MOL0     C67624   8.963  10.237   6.581 -0.0987  0.1569 -0.1347
  491MOL0     C67625   8.978  10.181   6.452  0.5990 -0.0872 -0.4268
  491MOL0     C67626   9.064  10.231   6.357 -0.3432 -0.4406  0.0497
  491MOL0     C67627   9.156  10.336   6.390 -0.2266  1.4818 -0.1746
  491MOL0     O67628   9.262  10.364   6.309  0.3234  0.3438  0.0238
  491MOL0     C67629   9.390  10.372   6.377  0.1543  1.2625  0.8269
  491MOL0     C67630   9.504  10.406   6.276  0.4380  0.5906 -0.2096
  491MOL0     C67631   9.504  10.325   6.148  0.2787 -0.2015  0.7524
  491MOL0     C67632   9.540  10.180   6.167  0.1117 -0.0425  0.1419
  491MOL0     C67633   9.524  10.109   6.030 -0.0293 -0.0634  0.5814
  491MOL0     C67634   9.536   9.963   6.038 -0.4462 -0.1187 -0.2450
  491MOL0     C67635   9.497   9.876   5.915 -1.0404 -0.2174 -0.0123
  491MOL0     C67636   9.583   9.911   5.790 -0.0118  0.2333  0.4934
  491MOL0     N67637   9.713   9.858   5.804 -0.2507 -0.3897  0.6691
  491MOL0     C67638   9.817   9.927   5.855  0.9027 -0.0228  0.1880
  491MOL0     C67639   9.929   9.862   5.802 -0.9354 -1.0972  0.2853
  491MOL0     C67640  10.078   9.868   5.830 -0.2549 -0.7403  0.2860
  491MOL0     C67641  10.157   9.897   5.711 -0.1585 -0.3629  0.1390
  491MOL0     C67642  10.308   9.891   5.746  0.6299  0.2431  0.0235
  491MOL0     C67643  10.392   9.935   5.631  0.7287 -0.0791  0.0797
  491MOL0     O67644  10.376   9.847   5.515  0.4121  0.7694 -0.2460
  491MOL0     C67645  10.479   9.828   5.426  0.2256  0.9239  0.1540
  491MOL0     C67646  10.446   9.742   5.313 -0.4170 -0.6103 -0.2518
  491MOL0     C67647  10.544   9.693   5.224 -0.1823 -0.9676  0.5119
  491MOL0     C67648  10.512   9.597   5.115 -0.0918  0.6418 -0.8044
  491MOL0     C67649  10.680   9.749   5.237  0.1829  0.0979  0.2166
  491MOL0     C67650  10.796   9.723   5.145 -0.3067  0.1980 -0.4034
  491MOL0     O67651  10.910   9.778   5.176 -0.0311 -0.0470 -0.1949
  491MOL0     C67652  11.017   9.764   5.093  0.7046  0.8804  0.1014
  491MOL0     C67653  11.075   9.638   5.088  0.0193 -0.0418 -0.3825
  491MOL0     C67654  11.192   9.625   5.010  0.5416 -0.1028 -0.0466
  491MOL0     C67655  11.245   9.739   4.942  0.1121  0.6607  0.2652
  491MOL0     O67656  11.353   9.731   4.858  0.0665  0.3662 -0.1427
  491MOL0     C67657  11.464   9.646   4.908  0.0820 -1.0541  0.1253
  491MOL0     C67658  11.593   9.734   4.905  0.0301  0.1731 -0.1138
  491MOL0     C67659  11.717   9.650   4.939 -0.5352 -0.3941 -0.5708
  491MOL0     C67660  11.848   9.724   4.936 -0.5784  0.0943  0.2347
  491MOL0     C67661  11.907   9.751   4.795 -0.2682  0.1233 -0.5582
  491MOL0     C67662  12.020   9.844   4.810  0.0793  0.0613 -0.2581
  491MOL0     C67663  12.067   9.889   4.668  0.3279 -0.2768  0.3442
  491MOL0     C67664  12.182   9.984   4.675  1.2525 -0.1894 -0.6263
  491MOL0    Cl67665  12.326   9.893   4.734 -0.1356  0.1186 -0.2718
  491MOL0     C67666  11.186   9.861   4.951  0.4131 -0.1309  0.0154
  491MOL0     C67667  11.072   9.872   5.029 -0.5942 -0.2485  0.0115
  491MOL0     O67668  10.782   9.648   5.053  0.1154  0.0667  0.7492
  491MOL0     C67669  10.709   9.835   5.348 -0.4427  0.9702  0.1015
  491MOL0     C67670  10.611   9.871   5.441  0.1206 -0.4480  0.2995
  491MOL0     N67671   9.876   9.764   5.718  0.1868 -0.6330 -0.7553
  491MOL0     N67672   9.750   9.755   5.723 -0.2288 -0.0203  0.2444
  491MOL0     C67673   9.139  10.392   6.517  0.8073  0.4096 -0.7300
  491MOL0     C67674   9.039  10.350   6.608  0.1047  0.1573  0.0713
  491MOL0     C67675   8.648  10.124   6.739 -0.1721 -0.8282 -0.0413
  491MOL0     C67676   8.698  10.084   6.863  0.2096 -0.0020  0.6400
  491MOL0     C67677   8.619  10.021   6.963  0.5434  0.4753 -1.1257
  491MOL0     C67678   8.481   9.993   6.937 -0.0225 -0.0966  0.1978
  491MOL0     O67679   8.396   9.921   7.019 -0.2580 -0.1919  0.0787
  491MOL0     C67680   8.447   9.878   7.145  0.4726 -0.6067 -0.0469
  491MOL0     C67681   8.520   9.744   7.159 -0.0672  0.2119 -0.4483
  491MOL0     C67682   8.568   9.713   7.307 -0.5882 -0.1792 -0.5771
  491MOL0     C67683   8.647   9.829   7.365  0.2714 -0.8464  0.5438
  491MOL0     C67684   8.718   9.789   7.484  1.4874 -0.1915 -0.4590
  491MOL0     C67685   8.772   9.756   7.587  0.0195  0.7477 -0.0396
  491MOL0     C67686   8.424  10.042   6.818  0.2593 -0.3420 -0.8309
  491MOL0     C67687   8.505  10.102   6.718 -0.7306  0.5159 -0.4959
  491MOL0     C67688   8.438  10.154   6.601 -0.1239  1.0765  0.3187
  491MOL0     H67689   8.919  10.096   6.422  2.2669 -1.0636 -1.0880
  491MOL0     H67690   9.077  10.186   6.259 -0.9149  0.8003 -0.6244
  491MOL0     H67691   9.410  10.278   6.430  2.8214  1.6477  0.6122
  491MOL0     H67692   9.387  10.453   6.451  1.5725 -0.2240  2.5958
  491MOL0     H67693   9.504  10.512   6.248 -0.0338 -0.1383 -3.2530
  491MOL0     H67694   9.597  10.401   6.335 -0.5110  2.3832  1.5406
  491MOL0     H67695   9.411  10.331   6.090  1.3165  0.5980 -0.8941
  491MOL0     H67696   9.579  10.371   6.084 -2.6062  2.0161 -1.3230
  491MOL0     H67697   9.640  10.167   6.209 -0.9143  0.3920  2.9810
  491MOL0     H67698   9.465  10.144   6.239 -0.9671  0.7177 -0.5574
  491MOL0     H67699   9.600  10.152   5.965  0.2270 -1.0631  0.1988
  491MOL0     H67700   9.433  10.140   5.979  0.3548  1.9206  1.0160
  491MOL0     H67701   9.626   9.923   6.086 -0.5097 -0.1057 -0.1140
  491MOL0     H67702   9.457   9.940   6.111  1.1972 -0.1929  1.6099
  491MOL0     H67703   9.396   9.908   5.887 -0.3414  0.3347 -2.1560
  491MOL0     H67704   9.497   9.770   5.944  2.6932 -0.1548  0.6852
  491MOL0     H67705   9.539   9.856   5.705  0.8254 -0.3493  0.4276
  491MOL0     H67706   9.574  10.015   5.757 -0.7617  0.4798  1.4230
  491MOL0     H67707   9.818  10.009   5.926 -0.4272  0.1153  0.0595
  491MOL0     H67708  10.123   9.779   5.875  0.0212 -1.3240 -1.1125
  491MOL0     H67709  10.092   9.950   5.902 -1.7681  1.0479 -1.3446
  491MOL0     H67710  10.125   9.820   5.640 -1.2189 -1.2120  1.4965
  491MOL0     H67711  10.129   9.999   5.683  1.0807  0.3170  1.2639
  491MOL0     H67712  10.325   9.954   5.834  0.0366  0.2001  0.1744
  491MOL0     H67713  10.339   9.788   5.769 -1.1331 -0.3465 -0.1473
  491MOL0     H67714  10.362  10.035   5.600 -0.2905  0.7228  3.2934
  491MOL0     H67715  10.495   9.939   5.669  0.3030  0.2750  1.2312
  491MOL0     H67716  10.348   9.696   5.308  0.3285 -2.1540 -1.4279
  491MOL0     H67717  10.557   9.502   5.147 -0.3074  0.9142  0.3722
  491MOL0     H67718  10.555   9.634   5.021  0.4245  2.0478 -0.0436
  491MOL0     H67719  10.406   9.581   5.097  0.2497 -3.2027 -0.3543
  491MOL0     H67720  11.038   9.551   5.142  3.9413 -1.9204 -0.3333
  491MOL0     H67721  11.235   9.526   5.005 -1.8243 -1.1460 -2.1792
  491MOL0     H67722  11.450   9.621   5.013 -0.9730 -2.5949 -0.3447
  491MOL0     H67723  11.478   9.561   4.841 -0.9212  0.3020 -1.9045
  491MOL0     H67724  11.606   9.782   4.808  1.3159  0.5988  0.2592
  491MOL0     H67725  11.579   9.817   4.975 -1.8575 -0.1895  0.0108
  491MOL0     H67726  11.736   9.569   4.868 -0.1633 -0.8263  0.0119
  491MOL0     H67727  11.692   9.607   5.036 -1.0289 -0.0263 -0.5324
  491MOL0     H67728  11.911   9.666   5.005 -2.3651  1.3066  3.0494
  491MOL0     H67729  11.841   9.818   4.992  1.5119  0.0143  0.7409
  491MOL0     H67730  11.936   9.658   4.744  0.0892  1.1028 -2.1984
  491MOL0     H67731  11.824   9.792   4.738 -4.7971 -3.1659  2.9731
  491MOL0     H67732  12.093   9.801   4.879 -0.4084  2.8508  2.1882
  491MOL0     H67733  11.976   9.931   4.860  3.2694  1.5290  0.2234
  491MOL0     H67734  11.986   9.938   4.614  0.9269 -1.4827 -1.7907
  491MOL0     H67735  12.102   9.806   4.605 -2.7075 -0.7480 -0.9056
  491MOL0     H67736  12.166  10.069   4.742  2.6464 -0.1931 -0.2538
  491MOL0     H67737  12.202  10.024   4.576  0.7203 -0.5988 -0.9009
  491MOL0     H67738  11.225   9.943   4.891  3.0199 -0.8246  0.6108
  491MOL0     H67739  11.039   9.971   5.059  2.5801  0.2469  2.4683
  491MOL0     H67740  10.807   9.868   5.381 -1.4795  1.6513  2.8120
  491MOL0     H67741  10.642   9.936   5.522 -0.3018  0.6621 -0.4063
  491MOL0     H67742   9.192  10.476   6.561 -1.4460  1.9516 -0.7400
  491MOL0     H67743   9.025  10.388   6.709 -2.4703 -0.1731 -0.0910
  491MOL0     H67744   8.805  10.091   6.876  0.5656 -3.3172  0.3851
  491MOL0     H67745   8.679   9.970   7.039  0.9023 -0.6871 -2.1511
  491MOL0     H67746   8.503   9.958   7.194 -1.4528 -0.6897  2.4851
  491MOL0     H67747   8.360   9.875   7.211  0.8753 -0.0328  0.5314
  491MOL0     H67748   8.611   9.735   7.099 -0.6585 -1.2614 -1.1686
  491MOL0     H67749   8.455   9.663   7.125 -1.5491 -0.0963  2.7404
  491MOL0     H67750   8.478   9.691   7.367  0.2149  1.7062  1.4213
  491MOL0     H67751   8.630   9.623   7.310  1.4366  1.1385 -1.0854
  491MOL0     H67752   8.571   9.903   7.392  2.0252  0.4200  2.3150
  491MOL0     H67753   8.725   9.869   7.299 -0.5284 -0.4849 -0.1964
  491MOL0     H67754   8.797   9.719   7.684 -2.8463 -2.1472 -0.2408
  491MOL0     H67755   8.328   9.999   6.790 -0.1405  2.1110 -3.7483
  491MOL0     H67756   8.337  10.111   6.601 -0.1643  1.1157 -1.3665
  491MOL0     H67757   8.431  10.262   6.592  0.6433  1.0731 -0.4115
  491MOL0     H67758   8.497  10.124   6.514  2.9295 -0.6868  2.7796
  492MOL0     O67759   6.097   9.283   0.522 -0.1836 -0.6322 -0.0391
  492MOL0     C67760   6.046   9.365   0.446  0.2123  0.1025  0.4811
  492MOL0     O67761   6.105   9.467   0.376  0.6832  0.2237 -0.1540
  492MOL0     C67762   6.237   9.468   0.367  0.8357  0.6209 -0.4869
  492MOL0     C67763   6.318   9.552   0.443 -0.4342 -0.2521  0.7929
  492MOL0     C67764   6.458   9.550   0.437 -0.3840  0.4887 -0.2294
  492MOL0     C67765   6.523   9.467   0.344 -0.7719 -0.1653 -0.7065
  492MOL0     O67766   6.656   9.491   0.320  0.5748 -0.8807  0.8871
  492MOL0     C67767   6.667   9.542   0.189  0.5766 -0.4384  1.2266
  492MOL0     C67768   6.808   9.599   0.170 -0.8695  0.5513 -1.1329
  492MOL0     C67769   6.827   9.663   0.030 -1.0957 -0.1322  0.1541
  492MOL0     C67770   6.969   9.634  -0.015 -0.1843  0.6702  0.1769
  492MOL0     C67771   7.014   9.717  -0.123  1.1614 -0.3943  0.1306
  492MOL0     C67772   7.031   9.862  -0.087  0.1494 -0.2790  0.0317
  492MOL0     C67773   7.034   9.957  -0.209  0.2536  0.7868  0.2499
  492MOL0     C67774   7.004  10.102  -0.176  0.5202 -0.1540  0.3879
  492MOL0     N67775   6.999  10.179  -0.308 -0.2423  1.0015  0.0390
  492MOL0     C67776   6.876  10.200  -0.365 -0.5060 -0.6418  0.4276
  492MOL0     C67777   6.904  10.293  -0.467 -0.9292 -1.3580  0.6096
  492MOL0     C67778   6.811  10.369  -0.559  0.5389 -0.2826  0.1324
  492MOL0     C67779   6.892  10.438  -0.663  0.6885 -1.0972  0.3985
  492MOL0     C67780   6.808  10.488  -0.769  0.1906 -0.2261  0.3868
  492MOL0     C67781   6.870  10.606  -0.850  0.6004 -0.4851 -0.1250
  492MOL0     O67782   6.979  10.535  -0.911  0.3797  0.7586  0.0049
  492MOL0     C67783   7.074  10.601  -0.977 -0.4410 -0.3170 -0.0203
  492MOL0     C67784   7.091  10.737  -1.005 -0.5247  1.5280 -0.1556
  492MOL0     C67785   7.201  10.802  -1.068  0.0172  0.2568  0.3720
  492MOL0     C67786   7.194  10.945  -1.115 -0.5618 -0.6291 -0.6939
  492MOL0     C67787   7.308  10.722  -1.107  0.1253  0.7208 -0.1532
  492MOL0     C67788   7.436  10.779  -1.150 -0.4188 -0.7453  0.1859
  492MOL0     O67789   7.530  10.703  -1.213 -0.3699 -0.4223  0.3504
  492MOL0     C67790   7.642  10.757  -1.270  0.4814  0.1787 -0.8777
  492MOL0     C67791   7.624  10.865  -1.353 -0.4015 -0.5857  0.0486
  492MOL0     C67792   7.742  10.939  -1.395 -0.0344  0.3170 -0.4478
  492MOL0     C67793   7.871  10.896  -1.358  0.3765  0.9340  0.0329
  492MOL0     O67794   7.976  10.970  -1.404  0.1741  0.0271  0.1237
  492MOL0     C67795   8.107  10.920  -1.379 -0.9358  0.2922 -0.2725
  492MOL0     C67796   8.212  10.994  -1.463 -0.2731 -0.1582 -0.0355
  492MOL0     C67797   8.258  11.124  -1.388  0.3001  0.4498  0.1435
  492MOL0     C67798   8.371  11.201  -1.466 -0.2531  0.2863 -0.2458
  492MOL0     C67799   8.433  11.316  -1.395  0.6732 -0.1822  0.5795
  492MOL0     C67800   8.568  11.369  -1.457  1.1056 -0.2658 -0.0407
  492MOL0     C67801   8.649  11.457  -1.360 -0.0049 -0.4008 -0.1077
  492MOL0     C67802   8.767  11.537  -1.413  0.5039 -0.0890 -0.9214
  492MOL0    Cl67803   8.714  11.674  -1.517  0.2717 -0.0482  0.2361
  492MOL0     C67804   7.884  10.777  -1.276 -0.4010 -0.0179 -0.2197
  492MOL0     C67805   7.771  10.711  -1.231 -0.6559 -0.9244  0.4978
  492MOL0     O67806   7.461  10.890  -1.101  0.4180  0.5564  0.4659
  492MOL0     C67807   7.299  10.585  -1.079 -0.0934 -0.0307 -0.0396
  492MOL0     C67808   7.176  10.527  -1.019 -1.5432 -0.5648 -0.3127
  492MOL0     N67809   7.043  10.322  -0.461  1.2722  0.1140  0.0379
  492MOL0     N67810   7.093  10.252  -0.362 -0.2989  0.1718  0.2197
  492MOL0     C67811   6.444   9.387   0.262 -0.0739 -0.0179  0.6016
  492MOL0     C67812   6.301   9.392   0.271 -0.3215  0.0052 -0.7054
  492MOL0     C67813   5.902   9.353   0.435 -0.0012  0.8420 -0.7514
  492MOL0     C67814   5.831   9.476   0.440  0.9954  0.8522  0.6844
  492MOL0     C67815   5.690   9.475   0.437 -0.8507  0.6560 -0.2297
  492MOL0     C67816   5.624   9.360   0.413 -0.2234  0.3520 -0.1939
  492MOL0     O67817   5.491   9.363   0.367  0.0881  0.0194 -0.0480
  492MOL0     C67818   5.463   9.308   0.237 -0.3931 -0.2830  0.0938
  492MOL0     C67819   5.347   9.221   0.262 -0.8709 -0.4533  0.0281
  492MOL0     C67820   5.215   9.292   0.298  0.8811 -0.4903 -0.9174
  492MOL0     C67821   5.107   9.196   0.306  0.8439 -0.0255  0.3674
  492MOL0     C67822   4.972   9.261   0.318 -0.3128  1.0759  0.0799
  492MOL0     C67823   4.858   9.302   0.323 -0.1681 -1.1614 -1.3222
  492MOL0     C67824   5.689   9.241   0.421 -0.6743 -0.2625  0.2295
  492MOL0     C67825   5.832   9.233   0.441  0.4502 -0.1954 -0.8971
  492MOL0     C67826   5.890   9.106   0.409  1.6324  0.6450 -0.3126
  492MOL0     H67827   6.256   9.611   0.510 -0.5300  1.9797 -1.1329
  492MOL0     H67828   6.510   9.627   0.493 -2.4185  1.0999  0.9031
  492MOL0     H67829   6.599   9.625   0.172  2.8081  1.6439  1.9160
  492MOL0     H67830   6.656   9.463   0.114  1.0582  0.2533  0.4131
  492MOL0     H67831   6.824   9.670   0.252 -3.4518 -0.5122  0.4560
  492MOL0     H67832   6.878   9.518   0.190 -0.1240  1.8266  2.0790
  492MOL0     H67833   6.763   9.613  -0.043  0.3769 -1.4825 -0.2577
  492MOL0     H67834   6.807   9.771   0.033 -3.0605 -0.4501 -0.3698
  492MOL0     H67835   7.025   9.660   0.076 -1.4924 -0.5843  1.3848
  492MOL0     H67836   6.981   9.531  -0.049  0.0452  0.3116  1.2842
  492MOL0     H67837   6.956   9.705  -0.214  1.5125 -2.2656  0.0982
  492MOL0     H67838   7.108   9.672  -0.158 -0.3607 -4.1530  0.4078
  492MOL0     H67839   6.949   9.893  -0.020 -1.4553 -4.3995  0.2306
  492MOL0     H67840   7.123   9.869  -0.028  0.0319  0.4520  0.1409
  492MOL0     H67841   6.968   9.920  -0.287 -0.0909  0.9012  0.4825
  492MOL0     H67842   7.131   9.954  -0.258 -1.4585  1.0965 -3.4888
  492MOL0     H67843   6.915  10.128  -0.119 -0.2781  0.2109 -0.9810
  492MOL0     H67844   7.079  10.143  -0.108  3.0617 -2.5299 -0.7521
  492MOL0     H67845   6.784  10.152  -0.335 -1.6772  0.6404 -0.9707
  492MOL0     H67846   6.761  10.449  -0.504  1.2180  0.3584 -0.1563
  492MOL0     H67847   6.739  10.300  -0.603  0.6532 -1.8607  2.2280
  492MOL0     H67848   6.956  10.517  -0.622 -0.7906 -0.2093  1.0796
  492MOL0     H67849   6.956  10.357  -0.697  1.1420 -1.0359  1.0930
  492MOL0     H67850   6.778  10.415  -0.844  1.5882 -2.2639  1.7244
  492MOL0     H67851   6.716  10.535  -0.732  1.7450  2.7251  0.8632
  492MOL0     H67852   6.806  10.654  -0.925  3.1618 -1.8647 -3.4078
  492MOL0     H67853   6.916  10.680  -0.784  1.6483 -2.1898  1.1346
  492MOL0     H67854   7.009  10.805  -0.982 -0.8924  0.7679  0.8716
  492MOL0     H67855   7.089  10.963  -1.143  0.3820  2.2150 -2.8208
  492MOL0     H67856   7.246  10.960  -1.209 -2.3407 -0.8587 -1.7715
  492MOL0     H67857   7.226  11.010  -1.033 -1.2535 -0.9901 -0.1196
  492MOL0     H67858   7.536  10.918  -1.387  2.2810  3.2181 -1.6568
  492MOL0     H67859   7.728  11.025  -1.459 -1.8132  1.4638  1.3551
  492MOL0     H67860   8.141  10.926  -1.275  1.5550 -0.2229 -0.9883
  492MOL0     H67861   8.115  10.814  -1.404  0.9222 -0.2479  2.2067
  492MOL0     H67862   8.286  10.918  -1.490 -0.2643 -0.4381  0.7463
  492MOL0     H67863   8.164  11.017  -1.559 -1.9898 -0.9332  0.5945
  492MOL0     H67864   8.290  11.090  -1.289  2.0329  0.3404 -0.4174
  492MOL0     H67865   8.174  11.192  -1.380 -0.8556 -0.8222 -0.7867
  492MOL0     H67866   8.338  11.239  -1.563  2.3170 -1.4816 -1.9397
  492MOL0     H67867   8.453  11.130  -1.483  0.7826  1.3896  0.0166
  492MOL0     H67868   8.357  11.394  -1.388 -0.3853 -1.2162  1.0576
  492MOL0     H67869   8.444  11.288  -1.289  1.1136  0.8015  0.7995
  492MOL0     H67870   8.542  11.432  -1.542  0.8096 -1.5127 -0.8965
  492MOL0     H67871   8.622  11.277  -1.480 -0.5506 -2.3025  3.2950
  492MOL0     H67872   8.690  11.394  -1.281 -0.1216 -1.7690 -1.1042
  492MOL0     H67873   8.584  11.526  -1.305  3.4188  1.7251  1.6243
  492MOL0     H67874   8.825  11.464  -1.470 -1.7997 -3.2541  0.4634
  492MOL0     H67875   8.831  11.577  -1.334  0.6524 -0.4721 -0.8469
  492MOL0     H67876   7.982  10.732  -1.260  0.1147 -0.0317 -2.8503
  492MOL0     H67877   7.773  10.618  -1.176 -0.3592 -1.6614 -0.7064
  492MOL0     H67878   7.383  10.521  -1.107 -0.2446  0.3789 -1.4788
  492MOL0     H67879   7.162  10.419  -1.021  0.7388 -0.9039 -0.9047
  492MOL0     H67880   6.479   9.314   0.189 -3.0718 -1.3405  0.3310
  492MOL0     H67881   6.249   9.349   0.186  0.3107 -0.3700 -0.9061
  492MOL0     H67882   5.899   9.559   0.453  1.0921  0.9176 -0.2075
  492MOL0     H67883   5.647   9.575   0.445 -0.0714  0.9901 -0.2006
  492MOL0     H67884   5.447   9.384   0.161 -1.1305 -1.7186 -1.2556
  492MOL0     H67885   5.549   9.253   0.198  1.1689  2.2514 -0.2445
  492MOL0     H67886   5.382   9.147   0.336  2.6514  0.2931 -0.6944
  492MOL0     H67887   5.336   9.161   0.172  0.3310 -1.9955  0.8353
  492MOL0     H67888   5.222   9.341   0.396  0.0432  1.7191 -1.8881
  492MOL0     H67889   5.190   9.373   0.229  3.3353  0.8143 -0.4059
  492MOL0     H67890   5.125   9.138   0.397  1.0313  0.7034  0.7944
  492MOL0     H67891   5.104   9.123   0.224  3.7918  0.2750 -0.1257
  492MOL0     H67892   4.759   9.340   0.336  0.2798  0.8226 -3.0559
  492MOL0     H67893   5.624   9.155   0.419 -1.4944  0.0605  4.5258
  492MOL0     H67894   5.983   9.081   0.460  2.2976  0.0908 -1.7376
  492MOL0     H67895   5.823   9.020   0.411  2.1070  0.1955 -2.1603
  492MOL0     H67896   5.923   9.114   0.305  2.2006  2.6507 -0.0191
  493MOL0     O67897   8.933   9.439   3.317  0.0783  0.1152  0.1170
  493MOL0     C67898   8.835   9.489   3.251 -0.0346  0.1000  0.3522
  493MOL0     O67899   8.838   9.530   3.124  0.2535  0.0381  0.2544
  493MOL0     C67900   8.950   9.495   3.052 -0.0144  0.3397  0.0190
  493MOL0     C67901   9.038   9.605   3.020  1.2152  0.0360  0.2687
  493MOL0     C67902   9.144   9.576   2.941 -0.1828  0.3599  0.8321
  493MOL0     C67903   9.165   9.447   2.885  0.3983  0.1963 -0.4464
  493MOL0     O67904   9.276   9.409   2.804  0.1771  0.5293 -0.1522
  493MOL0     C67905   9.405   9.474   2.810  0.0782  0.6087  1.3368
  493MOL0     C67906   9.500   9.388   2.709 -0.2317  0.6064 -0.3219
  493MOL0     C67907   9.630   9.459   2.701 -0.5904  0.2191 -1.0406
  493MOL0     C67908   9.702   9.459   2.832  0.3270  0.1751  0.2277
  493MOL0     C67909   9.851   9.499   2.815 -0.4244  0.2864 -0.7346
  493MOL0     C67910   9.927   9.469   2.942 -0.3399 -0.2363  0.5196
  493MOL0     C67911  10.061   9.550   2.944 -0.3748 -0.0461 -0.4065
  493MOL0     C67912  10.171   9.469   2.873 -0.1316 -0.2916 -0.5640
  493MOL0     N67913  10.271   9.564   2.822 -0.2118 -0.0070  0.3956
  493MOL0     C67914  10.270   9.627   2.700  0.3402 -0.6598  0.1393
  493MOL0     C67915  10.371   9.713   2.695  0.6694 -0.7064 -1.4531
  493MOL0     C67916  10.425   9.817   2.594 -0.7709  0.9557 -0.9183
  493MOL0     C67917  10.427   9.762   2.453  0.0613 -0.3500  0.7873
  493MOL0     C67918  10.554   9.817   2.374 -0.1923  0.1123  0.6283
  493MOL0     C67919  10.696   9.766   2.412  0.9771 -0.3515 -0.5452
  493MOL0     O67920  10.740   9.799   2.545 -0.1256 -0.2961  0.2793
  493MOL0     C67921  10.880   9.789   2.565  0.8378 -0.1754 -0.6035
  493MOL0     C67922  10.969   9.748   2.469  0.1113  0.1610 -0.9170
  493MOL0     C67923  11.109   9.765   2.489  0.6762  0.1242 -0.0164
  493MOL0     C67924  11.205   9.719   2.377  0.0428 -0.6287  0.3696
  493MOL0     C67925  11.158   9.815   2.610  0.4081  0.0858 -0.2618
  493MOL0     C67926  11.308   9.846   2.633  0.7542  0.3232  0.3480
  493MOL0     O67927  11.339   9.856   2.760 -0.4413 -0.0229 -0.2694
  493MOL0     C67928  11.466   9.846   2.818  1.0834 -0.3288  0.0771
  493MOL0     C67929  11.461   9.848   2.955  0.0602 -0.1765 -0.1769
  493MOL0     C67930  11.580   9.819   3.028  1.2414 -1.3868 -0.2701
  493MOL0     C67931  11.707   9.810   2.966  0.6023  0.6981  0.0126
  493MOL0     O67932  11.828   9.793   3.031  0.6077  0.7329 -0.4372
  493MOL0     C67933  11.824   9.839   3.168  0.6032  0.5291 -0.1224
  493MOL0     C67934  11.961   9.815   3.229  0.1355  0.1351  0.0331
  493MOL0     C67935  11.968   9.846   3.380 -0.1701 -0.9189  0.2730
  493MOL0     C67936  12.106   9.800   3.432  0.3965  0.1781  0.0523
  493MOL0     C67937  12.121   9.837   3.576  1.3250  0.3676 -1.0745
  493MOL0     C67938  12.261   9.797   3.627 -0.0860 -0.5495  0.2839
  493MOL0     C67939  12.262   9.814   3.767 -0.2891  0.0427  0.4171
  493MOL0     C67940  12.386   9.747   3.840 -0.0748 -0.7039  0.7867
  493MOL0    Cl67941  12.337   9.584   3.875  0.0224 -0.0546 -0.3679
  493MOL0     C67942  11.713   9.807   2.825  0.8578  0.6843  0.5665
  493MOL0     C67943  11.589   9.817   2.756  0.5250  0.1959 -0.1456
  493MOL0     O67944  11.388   9.839   2.541 -0.0893 -0.1705 -0.6004
  493MOL0     C67945  11.070   9.841   2.713  0.8756 -0.9266  0.0644
  493MOL0     C67946  10.928   9.833   2.689 -0.5283  0.6137 -0.6819
  493MOL0     N67947  10.423   9.707   2.820 -0.8269  0.0707 -0.3341
  493MOL0     N67948  10.379   9.613   2.884 -0.0432  0.7133  0.4413
  493MOL0     C67949   9.079   9.338   2.920  0.5309 -0.4310 -0.0038
  493MOL0     C67950   8.970   9.369   2.998  0.1640  1.2187  0.2364
  493MOL0     C67951   8.713   9.513   3.319  0.5605  0.3874  0.8175
  493MOL0     C67952   8.595   9.466   3.262  0.8122 -0.1790  0.3989
  493MOL0     C67953   8.469   9.497   3.322  0.6504  0.1270  0.3021
  493MOL0     C67954   8.462   9.582   3.432  0.0007  1.0389  0.3343
  493MOL0     O67955   8.340   9.631   3.477  0.1891 -0.3481 -0.2363
  493MOL0     C67956   8.263   9.534   3.552  0.6829  0.3079 -0.6333
  493MOL0     C67957   8.343   9.453   3.664 -0.1055  0.4318  0.6253
  493MOL0     C67958   8.249   9.400   3.770 -0.3685 -0.7244  0.1861
  493MOL0     C67959   8.155   9.289   3.717 -0.4606  0.1695  0.1523
  493MOL0     C67960   8.072   9.248   3.834  0.6146  0.1785 -1.1260
  493MOL0     C67961   7.995   9.214   3.923 -0.4460 -0.6417  0.0669
  493MOL0     C67962   8.578   9.623   3.493 -0.9436  0.4279 -0.2301
  493MOL0     C67963   8.707   9.583   3.443  0.1989  1.3321  0.8444
  493MOL0     C67964   8.826   9.653   3.506 -0.7352 -0.0185 -0.4712
  493MOL0     H67965   9.027   9.709   3.051 -2.8043  0.0507 -0.5443
  493MOL0     H67966   9.225   9.647   2.928  3.5746 -3.1342  2.9343
  493MOL0     H67967   9.443   9.464   2.912  1.3862  0.9705  0.9016
  493MOL0     H67968   9.404   9.578   2.775  1.8231  0.2333  0.0278
  493MOL0     H67969   9.510   9.287   2.749  0.3133 -0.3552 -2.6957
  493MOL0     H67970   9.465   9.376   2.606  0.0141 -2.3006 -0.1417
  493MOL0     H67971   9.698   9.405   2.636 -0.8135 -2.4890  0.8293
  493MOL0     H67972   9.619   9.564   2.672  4.9266  0.5517 -3.1137
  493MOL0     H67973   9.658   9.512   2.917 -0.9374 -2.0505  1.0388
  493MOL0     H67974   9.706   9.353   2.857 -1.1821 -0.4400 -1.8126
  493MOL0     H67975   9.865   9.605   2.794 -0.6553  1.2409  3.1537
  493MOL0     H67976   9.895   9.437   2.737  1.3138 -2.2208  2.0120
  493MOL0     H67977   9.874   9.497   3.034  1.5389 -1.1865  1.9721
  493MOL0     H67978   9.923   9.362   2.968 -1.6419  0.0310  1.5306
  493MOL0     H67979  10.089   9.573   3.047 -0.2902 -3.9333  0.6164
  493MOL0     H67980  10.042   9.644   2.892 -1.1387 -0.7951 -1.5515
  493MOL0     H67981  10.215   9.394   2.939 -0.2676 -1.6516 -1.9506
  493MOL0     H67982  10.120   9.413   2.793 -1.8686 -1.1877  1.0746
  493MOL0     H67983  10.201   9.598   2.622 -0.2518 -3.8862  1.7006
  493MOL0     H67984  10.520   9.855   2.632  0.6457 -2.0682 -1.1555
  493MOL0     H67985  10.360   9.905   2.597  0.3209  1.7762  0.3217
  493MOL0     H67986  10.421   9.653   2.459  0.3987 -0.3856  0.4866
  493MOL0     H67987  10.339   9.807   2.407  0.3818 -1.0154 -0.5247
  493MOL0     H67988  10.533   9.785   2.271  0.7956  0.9928  0.1377
  493MOL0     H67989  10.552   9.926   2.363  0.6981  0.0123 -0.8392
  493MOL0     H67990  10.678   9.659   2.402 -4.1845  0.2764 -0.7605
  493MOL0     H67991  10.770   9.800   2.339  0.6701  0.6183 -0.4243
  493MOL0     H67992  10.945   9.679   2.389  1.1069 -0.8965 -0.3251
  493MOL0     H67993  11.153   9.673   2.293 -1.6861 -0.2740  1.1922
  493MOL0     H67994  11.274   9.641   2.412 -2.0951 -2.0928  1.5426
  493MOL0     H67995  11.276   9.796   2.346  2.4864 -2.9697 -0.2682
  493MOL0     H67996  11.362   9.855   3.000 -0.7443 -3.1059 -1.2956
  493MOL0     H67997  11.568   9.826   3.135  1.0527 -0.2852 -0.3537
  493MOL0     H67998  11.797   9.945   3.170  0.2568  0.4381  1.0505
  493MOL0     H67999  11.757   9.789   3.238 -1.0721  1.1792 -1.1951
  493MOL0     H68000  11.989   9.710   3.211 -0.2799  0.4936 -3.1723
  493MOL0     H68001  12.038   9.876   3.181  0.1441 -0.7803 -1.1772
  493MOL0     H68002  11.885   9.809   3.442 -0.9618  1.1373  0.5226
  493MOL0     H68003  11.958   9.954   3.390 -1.6669 -0.9490 -0.5017
  493MOL0     H68004  12.185   9.843   3.369  0.0065 -1.4201 -1.6257
  493MOL0     H68005  12.110   9.691   3.427  0.2134  0.2259 -1.7401
  493MOL0     H68006  12.096   9.942   3.592 -2.2268 -0.1725 -2.2919
  493MOL0     H68007  12.044   9.772   3.617  2.2639  0.0537  0.2634
  493MOL0     H68008  12.333   9.865   3.581 -0.1152 -0.9490 -0.3735
  493MOL0     H68009  12.285   9.697   3.589  1.8943 -0.3378  0.8560
  493MOL0     H68010  12.169   9.774   3.807 -0.0214 -0.4862  0.5271
  493MOL0     H68011  12.264   9.923   3.775  0.0564  0.0683  0.0646
  493MOL0     H68012  12.399   9.801   3.934 -2.2088  0.5571  0.4316
  493MOL0     H68013  12.476   9.746   3.777  0.1352 -1.8498  1.0812
  493MOL0     H68014  11.809   9.798   2.775  0.5627  0.4515  0.0427
  493MOL0     H68015  11.586   9.784   2.653 -2.0621  2.6150 -0.9628
  493MOL0     H68016  11.108   9.877   2.808  1.6132  2.2085 -1.2779
  493MOL0     H68017  10.855   9.860   2.764  1.3585  0.4367  1.3398
  493MOL0     H68018   9.093   9.246   2.864  2.3829 -0.1664 -0.0247
  493MOL0     H68019   8.891   9.298   3.020  0.9590  0.2604  0.0607
  493MOL0     H68020   8.592   9.407   3.171 -0.7610  0.9085 -0.2881
  493MOL0     H68021   8.377   9.470   3.271  1.2360 -1.3017 -0.0334
  493MOL0     H68022   8.182   9.593   3.596 -0.2972 -2.9121  2.3672
  493MOL0     H68023   8.226   9.469   3.473 -0.9173  0.7034 -0.2519
  493MOL0     H68024   8.420   9.516   3.709 -0.3330  0.7308  0.5990
  493MOL0     H68025   8.395   9.368   3.618 -0.4058  0.2315  0.6588
  493MOL0     H68026   8.307   9.373   3.859  0.4311  1.9256  0.5703
  493MOL0     H68027   8.181   9.482   3.795 -1.5143 -1.0745 -1.6589
  493MOL0     H68028   8.200   9.199   3.675 -1.1613  1.3094 -3.3838
  493MOL0     H68029   8.089   9.332   3.641  2.5649  1.7705 -1.7223
  493MOL0     H68030   7.932   9.193   4.008  0.8883 -1.2316  0.9310
  493MOL0     H68031   8.569   9.693   3.575 -1.0160  2.3050 -1.7587
  493MOL0     H68032   8.873   9.725   3.438 -1.1606 -0.7232 -1.5351
  493MOL0     H68033   8.795   9.705   3.597 -3.6136 -2.1046 -0.1168
  493MOL0     H68034   8.902   9.583   3.540  0.7175  1.0262 -1.4554
  494MOL0     O68035   8.619   4.343   5.781 -1.1990 -0.4844 -0.6010
  494MOL0     C68036   8.688   4.289   5.870 -0.6293 -0.7411  0.1803
  494MOL0     O68037   8.824   4.305   5.896 -0.7001  0.1982 -0.0175
  494MOL0     C68038   8.904   4.300   5.783  0.5611 -0.5443  0.8486
  494MOL0     C68039   8.899   4.420   5.699  0.5893 -0.0328 -0.2420
  494MOL0     C68040   8.970   4.418   5.577 -0.6410  0.5394  0.0112
  494MOL0     C68041   9.046   4.311   5.536  0.4017  0.2429  0.6552
  494MOL0     O68042   9.118   4.312   5.418  0.5574  0.1575  0.7664
  494MOL0     C68043   9.119   4.422   5.326  0.1176 -0.0032 -0.7887
  494MOL0     C68044   9.221   4.413   5.210  0.5451  0.4682 -0.7566
  494MOL0     C68045   9.188   4.317   5.093  0.5790 -0.2020 -0.3169
  494MOL0     C68046   9.308   4.302   4.991  0.2231  0.4814 -0.0713
  494MOL0     C68047   9.277   4.213   4.863  0.1365  0.2578  0.2243
  494MOL0     C68048   9.390   4.208   4.766  0.7097 -0.2728 -0.0992
  494MOL0     C68049   9.370   4.100   4.671 -0.3383  1.3985  0.6330
  494MOL0     C68050   9.506   4.043   4.604 -0.1233 -0.4308 -0.4323
  494MOL0     N68051   9.470   3.949   4.493  0.1313 -0.1040 -0.2125
  494MOL0     C68052   9.429   3.985   4.365  0.5786  0.3370 -0.6011
  494MOL0     C68053   9.387   3.872   4.307 -0.4557 -0.3404  0.4159
  494MOL0     C68054   9.316   3.858   4.185  0.0079  0.2851 -0.8681
  494MOL0     C68055   9.405   3.832   4.057  0.1571  0.3223 -0.6270
  494MOL0     C68056   9.333   3.860   3.926 -0.0287  0.3652 -0.3193
  494MOL0     C68057   9.202   3.777   3.904  0.2436  0.0261 -0.5410
  494MOL0     O68058   9.089   3.817   3.993 -0.6480 -0.4359  0.1394
  494MOL0     C68059   8.976   3.757   3.970  0.0434  0.0725  0.5869
  494MOL0     C68060   8.951   3.620   3.978  0.2996 -0.5220 -0.1482
  494MOL0     C68061   8.834   3.566   3.940  0.8425 -0.6095  0.7623
  494MOL0     C68062   8.817   3.421   3.946  0.1361 -0.2987 -1.6928
  494MOL0     C68063   8.724   3.647   3.887 -0.5172 -1.6293 -1.3916
  494MOL0     C68064   8.584   3.600   3.862 -1.3104  0.2846  0.1810
  494MOL0     O68065   8.513   3.693   3.798  0.5932 -0.7251 -0.5831
  494MOL0     C68066   8.383   3.663   3.757 -0.4450 -0.6458 -0.1447
  494MOL0     C68067   8.280   3.621   3.840 -0.7900 -0.3233  0.3225
  494MOL0     C68068   8.155   3.601   3.799  0.1060 -0.1587  1.1552
  494MOL0     C68069   8.112   3.642   3.670  0.1761 -0.3687 -0.2276
  494MOL0     O68070   7.979   3.639   3.628 -0.0580 -0.2733  0.3494
  494MOL0     C68071   7.955   3.671   3.492  1.4550 -0.0801 -1.1734
  494MOL0     C68072   7.805   3.658   3.462  0.0607  0.5520  0.3403
  494MOL0     C68073   7.752   3.510   3.435 -0.9493 -0.2098 -0.8290
  494MOL0     C68074   7.605   3.505   3.410 -0.3803 -0.4373 -0.2378
  494MOL0     C68075   7.566   3.376   3.337  0.4667 -0.1780 -0.5333
  494MOL0     C68076   7.586   3.238   3.399 -0.8416 -0.4421  0.9555
  494MOL0     C68077   7.579   3.144   3.275 -0.1774 -0.1551 -0.6541
  494MOL0     C68078   7.576   2.997   3.331  1.2525 -0.0978  0.3695
  494MOL0    Cl68079   7.549   2.892   3.187  0.3909  0.0824  0.1423
  494MOL0     C68080   8.215   3.692   3.587 -0.8619  0.4555 -0.0269
  494MOL0     C68081   8.350   3.695   3.629  0.5570  0.2375  0.2896
  494MOL0     O68082   8.537   3.487   3.901  0.1271 -0.9181  0.2228
  494MOL0     C68083   8.753   3.784   3.884 -0.2369  0.1864  0.3235
  494MOL0     C68084   8.872   3.838   3.922 -0.3449  0.3475 -0.8155
  494MOL0     N68085   9.420   3.764   4.397  0.2331  0.2410  0.0189
  494MOL0     N68086   9.471   3.814   4.508 -0.2185 -0.0040 -0.6117
  494MOL0     C68087   9.050   4.200   5.621  0.9153  0.4870 -0.5206
  494MOL0     C68088   8.981   4.190   5.741 -0.6306  0.0520  0.0627
  494MOL0     C68089   8.625   4.198   5.966 -1.0483 -0.2640 -0.4563
  494MOL0     C68090   8.678   4.188   6.097 -0.5689 -0.0453  0.0782
  494MOL0     C68091   8.626   4.096   6.190 -0.2074 -1.0813  0.7466
  494MOL0     C68092   8.513   4.016   6.160  0.1330 -0.0822  1.1326
  494MOL0     O68093   8.442   3.930   6.243 -0.0916  0.0280  0.7679
  494MOL0     C68094   8.477   3.938   6.382  0.5287 -0.0676 -0.6309
  494MOL0     C68095   8.534   3.808   6.430 -0.3194 -0.0984  0.6781
  494MOL0     C68096   8.446   3.691   6.388  0.5067  0.3697  0.9017
  494MOL0     C68097   8.307   3.679   6.461 -0.2685  0.2499  1.1056
  494MOL0     C68098   8.315   3.706   6.611 -0.2761 -0.5605  0.0454
  494MOL0     C68099   8.275   3.694   6.727  0.2248  0.0487 -0.0296
  494MOL0     C68100   8.465   4.026   6.028 -0.3136 -0.5439 -0.2783
  494MOL0     C68101   8.519   4.106   5.928  0.3206 -1.1360  0.6161
  494MOL0     C68102   8.469   4.092   5.783 -0.1244  0.4344 -0.1481
  494MOL0     H68103   8.851   4.510   5.736  3.4067  2.1072 -1.4240
  494MOL0     H68104   8.969   4.506   5.514  0.3997  1.6427  1.4379
  494MOL0     H68105   9.163   4.497   5.392  2.8097 -1.5752 -0.6136
  494MOL0     H68106   9.018   4.445   5.290 -0.3657 -1.6194 -0.5336
  494MOL0     H68107   9.238   4.514   5.172 -0.9436  1.1036  0.2148
  494MOL0     H68108   9.312   4.372   5.256 -0.3068  1.5188  2.0398
  494MOL0     H68109   9.161   4.226   5.148 -2.4656  1.1976  0.7314
  494MOL0     H68110   9.095   4.341   5.042  0.2298 -1.6081 -0.3912
  494MOL0     H68111   9.335   4.406   4.966  0.4706  0.2933 -0.6058
  494MOL0     H68112   9.384   4.257   5.056 -1.8826 -2.3113  0.6238
  494MOL0     H68113   9.187   4.258   4.820 -0.0806  0.5595  0.9712
  494MOL0     H68114   9.261   4.111   4.897  3.8472  0.0765  1.8898
  494MOL0     H68115   9.384   4.306   4.718 -0.9507 -0.2510  0.0916
  494MOL0     H68116   9.483   4.186   4.819  0.2968  0.3220  0.9018
  494MOL0     H68117   9.300   4.137   4.596 -2.2341  1.1678  2.2058
  494MOL0     H68118   9.332   4.010   4.720 -0.9083  0.0072 -2.1330
  494MOL0     H68119   9.567   4.122   4.558  1.3247 -0.9520  0.5297
  494MOL0     H68120   9.563   4.001   4.687  2.5026  0.8040 -1.4958
  494MOL0     H68121   9.424   4.087   4.327 -0.9136  0.1105 -1.0970
  494MOL0     H68122   9.272   3.957   4.169 -0.4158  0.6035  1.8039
  494MOL0     H68123   9.236   3.784   4.189  0.1832  0.0881 -0.9806
  494MOL0     H68124   9.492   3.898   4.061  0.2616  0.1514  2.1634
  494MOL0     H68125   9.430   3.725   4.051  0.2432  0.3548 -0.8405
  494MOL0     H68126   9.301   3.964   3.916  0.4996  0.5710  0.1056
  494MOL0     H68127   9.380   3.840   3.829 -0.2361  2.1725 -0.8211
  494MOL0     H68128   9.165   3.799   3.803 -0.5916 -0.1301 -0.2807
  494MOL0     H68129   9.216   3.670   3.922 -0.0213  0.2336  1.0327
  494MOL0     H68130   9.029   3.557   4.019 -2.3869 -2.4869  2.3437
  494MOL0     H68131   8.897   3.380   4.009 -0.2399  0.2376 -0.8434
  494MOL0     H68132   8.803   3.365   3.853 -0.1972  0.4405 -2.0964
  494MOL0     H68133   8.725   3.398   4.001  0.7853 -0.4459 -0.6418
  494MOL0     H68134   8.291   3.601   3.946 -0.8536 -0.8482  0.2331
  494MOL0     H68135   8.085   3.550   3.865 -0.6670 -1.7275 -0.7986
  494MOL0     H68136   7.977   3.777   3.473 -1.0881  0.6153 -0.7639
  494MOL0     H68137   8.001   3.603   3.421  0.5880 -1.1168 -0.7703
  494MOL0     H68138   7.753   3.708   3.545 -2.0880  1.1336 -1.2806
  494MOL0     H68139   7.780   3.707   3.368 -2.2647  1.2700  1.2579
  494MOL0     H68140   7.779   3.452   3.524  3.5834  0.3069 -1.6285
  494MOL0     H68141   7.807   3.463   3.353 -0.1915 -0.6243 -0.0973
  494MOL0     H68142   7.575   3.588   3.345 -3.1291 -1.9175 -1.0392
  494MOL0     H68143   7.554   3.521   3.506 -1.9014 -2.2004 -0.6841
  494MOL0     H68144   7.460   3.393   3.314  0.0427 -1.3665  0.4409
  494MOL0     H68145   7.611   3.372   3.237  1.9607  2.7021 -0.0785
  494MOL0     H68146   7.511   3.216   3.474  0.0865  0.9603  2.3571
  494MOL0     H68147   7.685   3.214   3.439  0.7706 -0.5403 -2.7144
  494MOL0     H68148   7.663   3.153   3.205 -1.9748 -0.1984 -2.9564
  494MOL0     H68149   7.492   3.168   3.214 -2.7640 -1.8941  2.1072
  494MOL0     H68150   7.491   2.979   3.397 -0.3402  0.4386 -1.4175
  494MOL0     H68151   7.669   2.973   3.384  0.8743  0.6486  1.3880
  494MOL0     H68152   8.198   3.722   3.484  0.6925  2.0319  0.1170
  494MOL0     H68153   8.433   3.712   3.562  1.9026 -0.8981  1.6129
  494MOL0     H68154   8.672   3.852   3.858  0.5655  2.1600  2.6547
  494MOL0     H68155   8.897   3.944   3.917 -0.0067  0.2693 -0.8584
  494MOL0     H68156   9.106   4.112   5.592  1.3852 -0.2080  2.2684
  494MOL0     H68157   9.001   4.099   5.795  0.1442  0.3367  0.2670
  494MOL0     H68158   8.757   4.251   6.138  1.4707 -2.2455 -0.2372
  494MOL0     H68159   8.673   4.096   6.287  2.5472  3.0413 -0.3572
  494MOL0     H68160   8.542   4.017   6.420 -0.6494 -1.0904  4.2097
  494MOL0     H68161   8.380   3.945   6.433  0.3892  0.7654 -0.9821
  494MOL0     H68162   8.557   3.809   6.537  0.6691 -0.8921  0.4922
  494MOL0     H68163   8.631   3.795   6.381 -0.0378  1.0519  0.9035
  494MOL0     H68164   8.429   3.684   6.280 -1.9301  2.0252  1.0938
  494MOL0     H68165   8.502   3.604   6.423  2.2190  1.0936  0.0979
  494MOL0     H68166   8.262   3.580   6.444 -0.6317  0.6277 -0.2913
  494MOL0     H68167   8.229   3.741   6.415  0.1862 -1.1697 -1.8157
  494MOL0     H68168   8.236   3.690   6.826 -2.1477  0.4313 -0.8898
  494MOL0     H68169   8.382   3.962   6.000  0.1480 -0.9661 -0.7068
  494MOL0     H68170   8.551   4.109   5.713  0.3256  1.4734  0.6091
  494MOL0     H68171   8.427   3.992   5.771 -0.5827  0.5014  0.8083
  494MOL0     H68172   8.386   4.161   5.760 -0.5555  0.0124  0.1179
  495MOL0     O68173   8.577   1.971   6.122  0.7116  0.4459 -0.4690
  495MOL0     C68174   8.558   2.037   6.225  0.0404  0.3446 -0.0305
  495MOL0     O68175   8.624   2.146   6.262 -0.1530 -0.0272  1.0840
  495MOL0     C68176   8.731   2.198   6.179 -0.4078  0.8070 -0.0653
  495MOL0     C68177   8.730   2.199   6.037 -0.3131 -0.4891 -0.3957
  495MOL0     C68178   8.844   2.247   5.977 -1.2692 -0.3969  0.6799
  495MOL0     C68179   8.956   2.295   6.045  0.7095 -0.2618  0.5626
  495MOL0     O68180   9.059   2.355   5.979 -0.0820 -0.0653  0.6607
  495MOL0     C68181   9.077   2.488   6.034  0.6325 -1.2093 -0.1042
  495MOL0     C68182   9.211   2.544   5.978 -0.0489 -0.0635 -0.6545
  495MOL0     C68183   9.246   2.689   6.029  0.9642  0.0493 -0.0594
  495MOL0     C68184   9.362   2.754   5.957  0.0607  0.1853 -0.1866
  495MOL0     C68185   9.369   2.906   5.987  0.1175 -0.2769 -0.2614
  495MOL0     C68186   9.461   2.981   5.887  0.1836  0.6611 -0.1460
  495MOL0     C68187   9.482   3.133   5.933  0.3607  0.3861 -0.5671
  495MOL0     C68188   9.554   3.204   5.826 -1.0406 -0.5125  0.1180
  495MOL0     N68189   9.530   3.355   5.843  0.3818  0.0157 -0.5763
  495MOL0     C68190   9.570   3.430   5.956  0.4222  0.1326  0.8570
  495MOL0     C68191   9.505   3.546   5.942  0.2201 -0.0720 -0.2331
  495MOL0     C68192   9.535   3.673   6.031  0.0367  0.3409 -0.1256
  495MOL0     C68193   9.574   3.802   5.966  0.4411  0.1736 -0.6886
  495MOL0     C68194   9.628   3.809   5.823 -0.1970 -0.3000  0.7433
  495MOL0     C68195   9.724   3.700   5.770  0.0393 -0.1168 -0.7679
  495MOL0     O68196   9.839   3.698   5.863  0.5739  1.0336  0.8393
  495MOL0     C68197   9.937   3.603   5.854  0.5276  0.1476 -0.6800
  495MOL0     C68198  10.045   3.612   5.933  0.0596  0.2505  0.1746
  495MOL0     C68199  10.150   3.522   5.930 -0.5621 -0.2358 -0.4822
  495MOL0     C68200  10.280   3.567   5.993  0.6014 -0.1958 -0.5225
  495MOL0     C68201  10.141   3.424   5.831  0.6012  0.3040  0.3824
  495MOL0     C68202  10.253   3.333   5.811  0.1436 -0.4505  0.0905
  495MOL0     O68203  10.285   3.316   5.680  0.0754 -0.3005 -0.1764
  495MOL0     C68204  10.405   3.246   5.648  0.2128  0.2119 -0.1815
  495MOL0     C68205  10.507   3.310   5.574  0.0360 -0.5352  0.9129
  495MOL0     C68206  10.629   3.239   5.551 -0.0100  0.4208  0.0375
  495MOL0     C68207  10.653   3.106   5.590 -0.4533 -0.4698  0.0307
  495MOL0     O68208  10.784   3.067   5.566  0.0522  0.1061 -0.6606
  495MOL0     C68209  10.833   2.962   5.652 -0.1171 -0.0302  0.3972
  495MOL0     C68210  10.973   2.928   5.608  1.0776  0.2505 -0.5210
  495MOL0     C68211  11.070   3.035   5.664  0.0230  0.4895 -0.4337
  495MOL0     C68212  11.202   3.038   5.594  0.3426 -0.9421 -0.1034
  495MOL0     C68213  11.219   3.129   5.476 -0.5082 -0.3720 -0.2063
  495MOL0     C68214  11.231   3.278   5.510  0.8579 -0.5516  0.5621
  495MOL0     C68215  11.278   3.365   5.384  0.9417  0.1377 -0.2676
  495MOL0     C68216  11.290   3.513   5.416 -0.5363  0.5794  0.2320
  495MOL0    Cl68217  11.292   3.616   5.264  0.1399 -0.0005 -0.2235
  495MOL0     C68218  10.546   3.040   5.654 -0.4825 -0.5582 -0.7814
  495MOL0     C68219  10.429   3.111   5.681  1.3944 -0.4976  0.5237
  495MOL0     O68220  10.308   3.281   5.903 -0.1327 -0.9787 -0.1001
  495MOL0     C68221  10.023   3.408   5.759 -0.4011  0.7962  0.5276
  495MOL0     C68222   9.923   3.499   5.768  0.0953 -1.2941  0.2805
  495MOL0     N68223   9.425   3.539   5.828  0.4164 -0.6772 -0.1903
  495MOL0     N68224   9.440   3.424   5.767  1.1689  0.0585 -0.6239
  495MOL0     C68225   8.957   2.285   6.181 -0.1762  0.7268 -0.3253
  495MOL0     C68226   8.841   2.243   6.255  0.0771  0.7003 -0.7318
  495MOL0     C68227   8.468   1.988   6.319  0.5127  0.6165 -1.0733
  495MOL0     C68228   8.515   1.992   6.454  0.1743  0.6954  0.2023
  495MOL0     C68229   8.449   1.930   6.557  0.0642 -0.6279 -0.0054
  495MOL0     C68230   8.326   1.867   6.536 -0.5230 -0.0237 -0.8828
  495MOL0     O68231   8.246   1.802   6.622  0.0722 -0.6040  0.4739
  495MOL0     C68232   8.314   1.780   6.745  0.0741  0.0677 -0.4937
  495MOL0     C68233   8.217   1.697   6.826 -1.4508  0.0149  0.8399
  495MOL0     C68234   8.275   1.667   6.962 -0.1283  0.4156 -0.2161
  495MOL0     C68235   8.273   1.519   6.989  0.7635  0.2851  0.0581
  495MOL0     C68236   8.318   1.481   7.125 -0.0945  1.1420 -0.7770
  495MOL0     C68237   8.320   1.462   7.248  0.9734 -0.4302  0.2081
  495MOL0     C68238   8.274   1.879   6.409 -0.1710  0.4751  0.3764
  495MOL0     C68239   8.347   1.928   6.300 -0.0917  0.3203 -0.3903
  495MOL0     C68240   8.282   1.917   6.160  0.2083 -0.0477 -0.4806
  495MOL0     H68241   8.653   2.153   5.977  2.5978 -2.7967 -2.7174
  495MOL0     H68242   8.849   2.282   5.875  2.3056  4.1077  2.0084
  495MOL0     H68243   9.087   2.490   6.143  1.5584 -0.3301 -0.1889
  495MOL0     H68244   9.008   2.565   5.998  1.5176 -0.5820 -0.4907
  495MOL0     H68245   9.297   2.483   6.008  2.8917  3.8363 -0.4044
  495MOL0     H68246   9.206   2.546   5.869 -1.9234 -2.0138 -0.6710
  495MOL0     H68247   9.157   2.752   6.035  1.9904  1.5207  0.5237
  495MOL0     H68248   9.264   2.683   6.137 -1.8763  2.6129  0.6863
  495MOL0     H68249   9.452   2.693   5.972  1.6848  2.2023 -1.2363
  495MOL0     H68250   9.342   2.740   5.851  0.8204 -1.2392 -0.1688
  495MOL0     H68251   9.423   2.924   6.081  1.6413 -1.8115 -0.7852
  495MOL0     H68252   9.265   2.941   5.988 -1.0267 -3.3246 -0.7906
  495MOL0     H68253   9.561   2.939   5.879 -0.4009 -0.6600 -0.7712
  495MOL0     H68254   9.410   2.978   5.790  1.8589  0.8117 -1.0525
  495MOL0     H68255   9.538   3.143   6.026 -1.6832 -1.4913  0.9655
  495MOL0     H68256   9.383   3.178   5.947 -0.3311 -1.0993 -0.4174
  495MOL0     H68257   9.658   3.170   5.823 -0.1564  1.8336  1.5418
  495MOL0     H68258   9.510   3.167   5.732  0.3101 -2.0298  0.0285
  495MOL0     H68259   9.624   3.399   6.045  2.4906  2.3191  0.4516
  495MOL0     H68260   9.622   3.640   6.088 -0.9173  1.6568  2.2194
  495MOL0     H68261   9.456   3.689   6.106 -1.1071  3.4013 -1.7636
  495MOL0     H68262   9.480   3.857   5.962 -0.3678 -1.0657  0.4589
  495MOL0     H68263   9.643   3.850   6.036 -0.2985 -3.2391  2.7101
  495MOL0     H68264   9.535   3.805   5.765  2.0810 -0.2443 -3.3035
  495MOL0     H68265   9.672   3.908   5.803 -1.8926  0.9002  2.5378
  495MOL0     H68266   9.672   3.606   5.752 -0.4369  0.2082 -1.0849
  495MOL0     H68267   9.762   3.730   5.672 -1.6943 -0.4833 -1.5875
  495MOL0     H68268  10.042   3.697   6.001  1.3245 -0.2852  0.9396
  495MOL0     H68269  10.343   3.482   6.021  0.0601 -1.1574 -2.1340
  495MOL0     H68270  10.261   3.621   6.086 -2.0915  0.4320 -1.3602
  495MOL0     H68271  10.335   3.632   5.924 -2.2921  0.2967 -2.5266
  495MOL0     H68272  10.509   3.415   5.546  0.3559 -0.9056 -0.5123
  495MOL0     H68273  10.709   3.292   5.499 -1.0093  0.0226 -1.9945
  495MOL0     H68274  10.842   2.995   5.756  0.7554  3.4930 -0.6698
  495MOL0     H68275  10.773   2.871   5.645  1.8717 -1.3498 -0.6447
  495MOL0     H68276  11.000   2.829   5.644 -1.4858 -0.0237  0.9025
  495MOL0     H68277  10.981   2.931   5.499  0.4906  0.1508 -0.5680
  495MOL0     H68278  11.088   3.031   5.771  1.0210  1.1656 -0.5670
  495MOL0     H68279  11.020   3.133   5.657 -0.4744  0.6582  3.4854
  495MOL0     H68280  11.224   2.933   5.577  0.1254 -1.0712  0.3835
  495MOL0     H68281  11.270   3.072   5.673 -1.7982  1.6458  0.7968
  495MOL0     H68282  11.317   3.097   5.440 -0.3580  0.4057 -0.5027
  495MOL0     H68283  11.140   3.111   5.402  1.8079 -1.0279 -2.6777
  495MOL0     H68284  11.310   3.298   5.583  4.1779  0.6022 -2.9731
  495MOL0     H68285  11.139   3.330   5.536  0.8516  1.2368 -2.5590
  495MOL0     H68286  11.217   3.337   5.297  0.6473 -0.9432  0.2598
  495MOL0     H68287  11.379   3.329   5.366  1.5773  1.3013  0.8278
  495MOL0     H68288  11.379   3.525   5.480 -0.3862 -1.7085  0.5282
  495MOL0     H68289  11.208   3.555   5.476 -0.4749 -2.7985  2.9680
  495MOL0     H68290  10.541   2.936   5.684 -1.9910 -0.2795  0.0401
  495MOL0     H68291  10.340   3.059   5.713  0.6701  0.9864  1.0406
  495MOL0     H68292  10.019   3.325   5.689 -0.2845  0.6211  0.7310
  495MOL0     H68293   9.823   3.480   5.731 -0.0972 -1.4334  0.8470
  495MOL0     H68294   9.058   2.308   6.216 -0.7963  2.9615  0.1728
  495MOL0     H68295   8.845   2.233   6.363 -0.4981  1.0937 -0.6689
  495MOL0     H68296   8.607   2.034   6.496 -0.6190  1.7847  0.9152
  495MOL0     H68297   8.507   1.909   6.646 -0.4822 -1.7343  0.1151
  495MOL0     H68298   8.405   1.724   6.725 -0.2731 -0.1496 -1.5768
  495MOL0     H68299   8.317   1.875   6.798 -0.6278 -1.6027  2.7937
  495MOL0     H68300   8.184   1.608   6.772 -2.1954  0.3268  0.7723
  495MOL0     H68301   8.127   1.759   6.830 -0.6025  1.2046  2.2828
  495MOL0     H68302   8.382   1.689   6.974 -0.0025 -0.1598 -0.2826
  495MOL0     H68303   8.223   1.726   7.038  0.5917  0.4935  0.2339
  495MOL0     H68304   8.341   1.475   6.915  1.7168  1.8324 -0.0410
  495MOL0     H68305   8.168   1.491   6.979  0.3811  1.8779 -0.7220
  495MOL0     H68306   8.346   1.442   7.350  0.7672  0.1415  0.3780
  495MOL0     H68307   8.181   1.823   6.405  0.6161 -0.8045 -0.7795
  495MOL0     H68308   8.294   2.013   6.109  2.1545  1.5647  2.6718
  495MOL0     H68309   8.327   1.836   6.103  2.7074  2.0248 -1.6981
  495MOL0     H68310   8.175   1.895   6.156  0.4281 -1.0363 -1.0748
  496MOL0     O68311   6.475   0.330   4.027  0.4700 -0.4840  0.4650
  496MOL0     C68312   6.545   0.296   4.123 -0.2014  0.6876  1.1580
  496MOL0     O68313   6.537   0.166   4.177 -0.3755 -0.0660 -0.1857
  496MOL0     C68314   6.462   0.076   4.106  0.6202  0.4331 -0.1362
  496MOL0     C68315   6.519  -0.030   4.036 -0.1100 -0.8163  0.6593
  496MOL0     C68316   6.440  -0.111   3.955 -0.1662  0.7187  0.5800
  496MOL0     C68317   6.308  -0.103   3.958  0.4539 -0.1271  0.5450
  496MOL0     O68318   6.237  -0.185   3.869 -0.2691  0.0787 -0.3483
  496MOL0     C68319   6.096  -0.179   3.854  0.9159 -0.1060 -0.2718
  496MOL0     C68320   6.044  -0.296   3.756  0.6873 -0.4485 -1.3959
  496MOL0     C68321   6.127  -0.309   3.620  0.8038  0.1409 -1.1102
  496MOL0     C68322   6.094  -0.427   3.525 -0.2559 -0.6031  0.3588
  496MOL0     C68323   5.941  -0.460   3.524  0.0165 -0.0369 -0.4425
  496MOL0     C68324   5.906  -0.541   3.401 -0.2333 -0.0446 -0.2873
  496MOL0     C68325   5.773  -0.599   3.413 -0.1690 -1.0688 -0.6176
  496MOL0     C68326   5.718  -0.677   3.293 -0.6882 -0.0732  0.2555
  496MOL0     N68327   5.802  -0.789   3.254 -0.0065  0.3472  0.1852
  496MOL0     C68328   5.884  -0.796   3.143 -0.2037 -0.2708  0.2947
  496MOL0     C68329   5.963  -0.909   3.154 -0.1509  0.6358  0.0874
  496MOL0     C68330   6.094  -0.951   3.077  1.3151  0.7398 -0.2081
  496MOL0     C68331   6.206  -0.851   3.093 -0.0304  0.4074  0.0854
  496MOL0     C68332   6.251  -0.840   3.245  0.0199  0.3099  0.7550
  496MOL0     C68333   6.364  -0.731   3.254  0.8791 -0.6391 -1.0680
  496MOL0     O68334   6.403  -0.727   3.393 -0.2846 -0.1337 -0.1996
  496MOL0     C68335   6.508  -0.641   3.411 -0.5183  0.1692 -0.3177
  496MOL0     C68336   6.481  -0.510   3.439 -0.1303 -1.0219 -0.3677
  496MOL0     C68337   6.587  -0.420   3.464 -0.0428  0.4914 -0.8510
  496MOL0     C68338   6.558  -0.279   3.489 -0.8271 -0.6202 -0.8565
  496MOL0     C68339   6.717  -0.465   3.458  0.0035 -0.3950  0.2148
  496MOL0     C68340   6.841  -0.386   3.491 -1.1307  0.2590 -0.2116
  496MOL0     O68341   6.957  -0.444   3.446  0.2865 -0.1457 -0.0163
  496MOL0     C68342   7.078  -0.386   3.468 -0.0282  0.3265  0.3363
  496MOL0     C68343   7.118  -0.322   3.588  0.0006  0.7486 -0.5171
  496MOL0     C68344   7.252  -0.273   3.605 -0.7118 -0.6870  0.3816
  496MOL0     C68345   7.346  -0.276   3.506 -0.0265  1.2580  0.9342
  496MOL0     O68346   7.465  -0.225   3.540 -0.6099  0.1140  0.2728
  496MOL0     C68347   7.568  -0.229   3.438  0.0471  0.4154 -1.1615
  496MOL0     C68348   7.686  -0.135   3.471  1.0643 -0.4100 -0.1010
  496MOL0     C68349   7.765  -0.165   3.599 -0.7634  0.0220  0.6057
  496MOL0     C68350   7.831  -0.303   3.607 -0.0688 -0.4625 -0.0480
  496MOL0     C68351   7.956  -0.310   3.694  0.5822 -0.3658  0.6364
  496MOL0     C68352   7.941  -0.293   3.842 -0.8046  0.0430  0.2069
  496MOL0     C68353   8.077  -0.310   3.911  0.3708 -0.4570 -0.2359
  496MOL0     C68354   8.087  -0.261   4.057  0.2525 -0.8884  0.4600
  496MOL0    Cl68355   8.261  -0.301   4.111  0.1075 -0.1423 -0.0647
  496MOL0     C68356   7.312  -0.345   3.387  0.0462 -0.5299  0.2280
  496MOL0     C68357   7.183  -0.401   3.377 -0.1021  0.0197  0.0757
  496MOL0     O68358   6.835  -0.279   3.555  0.0191 -0.4065  0.4613
  496MOL0     C68359   6.746  -0.596   3.432  0.1004 -0.6070  0.0140
  496MOL0     C68360   6.629  -0.685   3.417 -0.8373  0.1044 -0.1684
  496MOL0     N68361   5.921  -0.968   3.273  0.2952 -0.1805 -0.4890
  496MOL0     N68362   5.824  -0.904   3.323  0.1942 -0.1800 -0.2591
  496MOL0     C68363   6.239   0.008   4.017 -0.7809  0.4781 -1.7942
  496MOL0     C68364   6.322   0.099   4.097  0.5156 -0.1601  0.3030
  496MOL0     C68365   6.645   0.379   4.189  0.0904 -0.4004 -0.0735
  496MOL0     C68366   6.769   0.325   4.237  0.1881  1.0804 -0.1795
  496MOL0     C68367   6.863   0.407   4.303 -0.6448 -0.4452 -1.1186
  496MOL0     C68368   6.845   0.545   4.310  0.4553 -0.2798  0.7492
  496MOL0     O68369   6.922   0.635   4.376  0.3667  0.2754 -0.3392
  496MOL0     C68370   7.050   0.591   4.421  0.3591 -0.7863  0.2050
  496MOL0     C68371   7.129   0.725   4.465 -0.0375 -0.1107 -0.6910
  496MOL0     C68372   7.057   0.814   4.552 -0.4439 -0.6146 -0.7481
  496MOL0     C68373   7.104   0.962   4.547  0.3840 -0.0792  0.4629
  496MOL0     C68374   7.243   0.975   4.601 -0.0108 -0.6966  0.1264
  496MOL0     C68375   7.358   0.966   4.635  0.0917  0.6242 -0.0124
  496MOL0     C68376   6.733   0.605   4.247 -0.4806 -0.6467  0.1839
  496MOL0     C68377   6.629   0.522   4.190 -1.4290  0.5096  0.1366
  496MOL0     C68378   6.512   0.593   4.142  1.4285 -0.1592  0.2725
  496MOL0     H68379   6.625  -0.052   4.047 -0.2640 -0.6075  3.2985
  496MOL0     H68380   6.497  -0.186   3.900  2.7095  2.4256  1.0210
  496MOL0     H68381   6.057  -0.085   3.813  0.6509  0.2344  0.7291
  496MOL0     H68382   6.046  -0.185   3.951  3.0067  0.0096  0.8661
  496MOL0     H68383   6.052  -0.384   3.821 -3.2076  0.4539  0.6753
  496MOL0     H68384   5.940  -0.269   3.734  0.7184  0.6367 -0.3404
  496MOL0     H68385   6.103  -0.222   3.558 -1.6106  0.3155 -0.0500
  496MOL0     H68386   6.233  -0.323   3.643  0.4996  0.1044  0.3668
  496MOL0     H68387   6.129  -0.403   3.424  1.6636  0.8807  1.3088
  496MOL0     H68388   6.157  -0.513   3.550  1.1463 -0.1316 -1.3313
  496MOL0     H68389   5.889  -0.364   3.529  1.4252  0.8360 -1.5748
  496MOL0     H68390   5.913  -0.514   3.615 -3.5873  1.8657 -0.2403
  496MOL0     H68391   5.915  -0.491   3.305 -0.0536 -4.3145 -2.7304
  496MOL0     H68392   5.971  -0.629   3.390 -1.2047 -1.1059  1.7623
  496MOL0     H68393   5.697  -0.524   3.438 -0.3593 -2.2351  2.7121
  496MOL0     H68394   5.781  -0.672   3.494  2.1495 -1.2080 -0.9087
  496MOL0     H68395   5.614  -0.711   3.305 -1.6381  1.0787 -3.5606
  496MOL0     H68396   5.709  -0.605   3.212 -0.4380  2.5022  2.3672
  496MOL0     H68397   5.902  -0.707   3.083  0.5396  0.2904  1.3138
  496MOL0     H68398   6.068  -0.960   2.971 -0.7782 -2.3570  0.4265
  496MOL0     H68399   6.139  -1.046   3.107  1.4692  1.3022  1.4811
  496MOL0     H68400   6.288  -0.884   3.029 -0.7820 -2.0472  0.2985
  496MOL0     H68401   6.173  -0.750   3.065 -1.4018 -0.2222 -0.6651
  496MOL0     H68402   6.155  -0.814   3.291 -2.0846  0.0649 -3.1487
  496MOL0     H68403   6.290  -0.924   3.304  1.4978  3.2608  4.3855
  496MOL0     H68404   6.448  -0.761   3.190 -0.2461 -4.6600 -0.9700
  496MOL0     H68405   6.327  -0.633   3.225 -5.4873 -2.1794  0.3131
  496MOL0     H68406   6.380  -0.473   3.426 -0.9357 -2.4205  1.3888
  496MOL0     H68407   6.458  -0.259   3.450 -0.3718 -0.5367 -2.0071
  496MOL0     H68408   6.625  -0.215   3.431  1.9221  1.0699  3.6795
  496MOL0     H68409   6.564  -0.249   3.594 -0.5921  0.9037 -1.2812
  496MOL0     H68410   7.049  -0.309   3.671 -2.1253  1.2028 -2.2703
  496MOL0     H68411   7.273  -0.236   3.705 -1.9406  0.0011  0.4078
  496MOL0     H68412   7.608  -0.328   3.416  2.2679  1.5579 -2.8252
  496MOL0     H68413   7.516  -0.189   3.351 -0.3990  2.9066  0.1417
  496MOL0     H68414   7.746  -0.137   3.380  2.9006  0.2012  1.0449
  496MOL0     H68415   7.644  -0.034   3.479  0.7084 -0.5484 -0.2287
  496MOL0     H68416   7.697  -0.140   3.680  1.0978  0.1718  2.1982
  496MOL0     H68417   7.843  -0.088   3.604 -1.4260  0.6444  1.8810
  496MOL0     H68418   7.867  -0.320   3.505 -0.7605 -1.4544 -0.1426
  496MOL0     H68419   7.759  -0.383   3.627  0.9711 -1.8517 -1.5446
  496MOL0     H68420   7.998  -0.409   3.673 -0.2022 -1.3999  3.5104
  496MOL0     H68421   8.033  -0.241   3.658 -0.4987  1.1598  1.1526
  496MOL0     H68422   7.865  -0.363   3.878  1.4682 -1.6724  2.0342
  496MOL0     H68423   7.911  -0.189   3.859 -0.7337  0.2192 -0.7003
  496MOL0     H68424   8.155  -0.252   3.861 -0.0282  1.3658  1.1656
  496MOL0     H68425   8.102  -0.416   3.899  2.6213  0.0053 -0.1188
  496MOL0     H68426   8.015  -0.301   4.128  0.3152  3.6522  3.5138
  496MOL0     H68427   8.059  -0.155   4.062  2.9929 -0.0151 -0.5223
  496MOL0     H68428   7.373  -0.360   3.299 -0.6835 -2.8998  0.0543
  496MOL0     H68429   7.147  -0.451   3.287  0.1395  0.5717 -0.3333
  496MOL0     H68430   6.847  -0.636   3.434 -0.1820 -1.3208  0.1654
  496MOL0     H68431   6.656  -0.788   3.399  0.0848  0.3606 -0.2861
  496MOL0     H68432   6.131   0.016   4.012 -1.3821 -2.8704  1.4531
  496MOL0     H68433   6.273   0.186   4.141  2.6357  1.9590 -1.3127
  496MOL0     H68434   6.780   0.217   4.238  1.9073  1.2343  0.2329
  496MOL0     H68435   6.949   0.358   4.349 -0.4155  1.8489  1.1660
  496MOL0     H68436   7.048   0.523   4.507 -2.0357  0.8309  1.5502
  496MOL0     H68437   7.100   0.537   4.341 -1.7371 -1.2269 -0.8878
  496MOL0     H68438   7.152   0.785   4.376 -0.2824  1.7731  0.4669
  496MOL0     H68439   7.222   0.692   4.512 -0.5658 -0.0076  0.4575
  496MOL0     H68440   6.949   0.823   4.532 -0.2519 -3.2720 -3.5924
  496MOL0     H68441   7.076   0.783   4.656  0.9788 -0.6646 -1.0032
  496MOL0     H68442   7.037   1.030   4.601  0.5367  2.1337 -1.9343
  496MOL0     H68443   7.099   0.994   4.443 -1.8335  0.3937  0.6620
  496MOL0     H68444   7.462   0.967   4.664 -0.6062  0.8531  2.7237
  496MOL0     H68445   6.732   0.713   4.250 -0.6149 -0.6560  0.4961
  496MOL0     H68446   6.453   0.558   4.057  0.2328  0.0649  0.9977
  496MOL0     H68447   6.445   0.580   4.228  0.4531  1.0318 -0.2880
  496MOL0     H68448   6.536   0.698   4.127  0.0556  0.3699  1.6213
  497MOL0     O68449   7.148   8.520   8.260 -0.2300 -0.0743 -0.6828
  497MOL0     C68450   7.095   8.418   8.304 -0.2150 -0.3934  0.6021
  497MOL0     O68451   7.149   8.319   8.382 -0.6333  1.0706  0.3940
  497MOL0     C68452   7.284   8.322   8.422  0.2320  0.8032 -0.0022
  497MOL0     C68453   7.361   8.210   8.397 -0.3011 -0.4964  0.0620
  497MOL0     C68454   7.494   8.211   8.440  0.2169  0.0703  0.4846
  497MOL0     C68455   7.562   8.321   8.487  0.9258  0.0183 -0.9344
  497MOL0     O68456   7.694   8.304   8.521  0.3072 -0.4504  0.0036
  497MOL0     C68457   7.762   8.414   8.582 -0.7834  0.2669 -1.0055
  497MOL0     C68458   7.905   8.359   8.616  0.0512  0.1481 -1.6801
  497MOL0     C68459   7.962   8.274   8.514 -0.5734 -0.1046 -0.6390
  497MOL0     C68460   7.961   8.344   8.378  0.9906 -0.2394 -0.1472
  497MOL0     C68461   8.028   8.258   8.273 -0.1232  0.9788  0.2838
  497MOL0     C68462   8.045   8.346   8.155 -0.2049 -0.3728  1.8215
  497MOL0     C68463   8.094   8.272   8.035  0.5569 -0.0039  0.5157
  497MOL0     C68464   8.232   8.206   8.028 -0.1495  0.4303  0.9150
  497MOL0     N68465   8.328   8.316   8.056  0.5031 -0.3335  0.7474
  497MOL0     C68466   8.375   8.350   8.178 -0.4402  0.5590 -0.6549
  497MOL0     C68467   8.462   8.452   8.153  0.1497  0.4655 -0.8439
  497MOL0     C68468   8.539   8.523   8.270  0.5179  0.8235  0.1769
  497MOL0     C68469   8.691   8.510   8.267 -0.3540  0.2597 -0.3813
  497MOL0     C68470   8.740   8.366   8.247 -0.3019 -0.9597  0.0970
  497MOL0     C68471   8.888   8.351   8.266  0.7728 -0.3785  0.2509
  497MOL0     O68472   8.910   8.363   8.407 -0.3778  0.6681 -0.3308
  497MOL0     C68473   9.033   8.383   8.451 -0.0971 -0.7796 -0.1699
  497MOL0     C68474   9.149   8.413   8.376 -0.1889  0.4709  0.0371
  497MOL0     C68475   9.280   8.434   8.427  0.1060  0.0718 -0.8614
  497MOL0     C68476   9.399   8.427   8.339  0.1171 -0.0334  0.3905
  497MOL0     C68477   9.291   8.459   8.564  0.4466  0.5092 -0.7224
  497MOL0     C68478   9.421   8.468   8.630  0.1127 -0.6474 -0.6528
  497MOL0     O68479   9.447   8.388   8.734 -0.2728  0.0522  0.0404
  497MOL0     C68480   9.566   8.399   8.804  0.1309 -0.1928  0.0505
  497MOL0     C68481   9.610   8.281   8.858 -0.3909  0.4078 -0.3595
  497MOL0     C68482   9.730   8.266   8.940  0.3930 -0.0179  0.1294
  497MOL0     C68483   9.795   8.382   8.978 -0.3585 -0.4442 -0.1069
  497MOL0     O68484   9.903   8.364   9.062  0.4287 -0.5217 -0.6764
  497MOL0     C68485   9.935   8.468   9.159 -0.0705 -0.2365 -0.8505
  497MOL0     C68486  10.070   8.424   9.233  1.0253 -0.8812  0.1061
  497MOL0     C68487  10.052   8.301   9.319 -0.3981  0.0628 -0.2128
  497MOL0     C68488   9.961   8.324   9.442  0.1031 -1.0456  0.2967
  497MOL0     C68489   9.956   8.207   9.548 -0.3994 -1.3874  0.1696
  497MOL0     C68490  10.094   8.159   9.596  0.1792 -0.2487  0.0020
  497MOL0     C68491  10.079   8.054   9.702 -0.2532  1.3537  0.8822
  497MOL0     C68492  10.212   8.020   9.779  0.4636 -0.4925 -0.0361
  497MOL0    Cl68493  10.152   7.947   9.934  0.2622 -0.7088 -0.4389
  497MOL0     C68494   9.757   8.508   8.929 -0.1006 -0.3523 -0.3898
  497MOL0     C68495   9.637   8.514   8.850 -0.5259 -0.7940  0.1854
  497MOL0     O68496   9.500   8.552   8.587 -0.3543  0.7157  0.2689
  497MOL0     C68497   9.170   8.443   8.642  0.2347  0.7929 -0.5856
  497MOL0     C68498   9.052   8.399   8.587 -0.1688  0.3842 -0.3939
  497MOL0     N68499   8.467   8.474   8.017  0.1941  0.3486  0.6793
  497MOL0     N68500   8.383   8.392   7.960 -0.0624 -0.3548 -0.3782
  497MOL0     C68501   7.486   8.435   8.510 -0.2551  0.7805 -0.2234
  497MOL0     C68502   7.344   8.436   8.476 -0.3017  0.1089 -0.3246
  497MOL0     C68503   6.953   8.391   8.249 -0.4482 -0.2245 -0.1799
  497MOL0     C68504   6.888   8.285   8.303  0.4555 -0.3402 -0.6941
  497MOL0     C68505   6.752   8.251   8.266 -0.0725  0.0784 -0.5939
  497MOL0     C68506   6.686   8.317   8.165 -0.5723  0.8646 -0.4673
  497MOL0     O68507   6.561   8.278   8.126 -0.1071  1.1693  0.1215
  497MOL0     C68508   6.490   8.351   8.025  0.6026  0.5112  0.2655
  497MOL0     C68509   6.379   8.258   7.966  0.1212  0.5734 -0.0087
  497MOL0     C68510   6.271   8.219   8.065  0.2561 -0.2186  0.6535
  497MOL0     C68511   6.179   8.118   7.993  0.4318  0.3635  0.5320
  497MOL0     C68512   6.080   8.183   7.904  0.0190 -0.0126  0.3540
  497MOL0     C68513   6.003   8.237   7.825  0.8712  0.0408  0.2131
  497MOL0     C68514   6.752   8.426   8.109  0.0518  0.1529 -0.7549
  497MOL0     C68515   6.882   8.458   8.141  0.0665 -0.5698 -0.6973
  497MOL0     C68516   6.941   8.574   8.075 -0.6519 -0.1462  0.3577
  497MOL0     H68517   7.322   8.121   8.350 -1.0395 -0.0238 -0.2300
  497MOL0     H68518   7.539   8.113   8.428  1.0271  0.1625  2.4669
  497MOL0     H68519   7.728   8.447   8.681  1.7355 -0.2904  0.1245
  497MOL0     H68520   7.769   8.499   8.513 -0.8823  1.0539 -0.0631
  497MOL0     H68521   7.962   8.451   8.632 -0.4989  0.1968  0.1921
  497MOL0     H68522   7.907   8.299   8.707  1.3988  0.2525 -1.6210
  497MOL0     H68523   8.067   8.255   8.539 -1.0627 -0.4822  1.3315
  497MOL0     H68524   7.928   8.170   8.509  1.8150 -0.8902 -1.9351
  497MOL0     H68525   7.856   8.363   8.355  1.1426  0.7941 -0.0254
  497MOL0     H68526   8.007   8.443   8.379  0.2122  0.1365  0.8340
  497MOL0     H68527   7.962   8.173   8.255  0.9375  0.1206  0.3610
  497MOL0     H68528   8.121   8.212   8.306 -1.6281 -2.0205  0.6518
  497MOL0     H68529   7.946   8.388   8.137  0.8283  1.5729  0.2402
  497MOL0     H68530   8.113   8.429   8.174  0.6798 -1.2974  2.8516
  497MOL0     H68531   8.087   8.335   7.946 -2.0089 -0.2061  0.5036
  497MOL0     H68532   8.017   8.196   8.018  0.6789 -0.2755  1.1689
  497MOL0     H68533   8.243   8.123   8.097 -0.7258 -2.4323 -2.1617
  497MOL0     H68534   8.245   8.159   7.929  0.1670  1.6986  0.3339
  497MOL0     H68535   8.352   8.308   8.275 -0.7821 -1.2981 -1.4812
  497MOL0     H68536   8.492   8.487   8.363 -0.1889 -0.0665 -0.5023
  497MOL0     H68537   8.511   8.628   8.259 -3.6416 -0.2080 -1.0411
  497MOL0     H68538   8.727   8.581   8.191  1.2057 -0.2201 -0.1102
  497MOL0     H68539   8.724   8.547   8.364  1.4626 -2.0132 -0.0619
  497MOL0     H68540   8.688   8.299   8.315  0.5905 -1.9184 -0.1355
  497MOL0     H68541   8.719   8.328   8.147 -3.0809  1.1786 -0.2452
  497MOL0     H68542   8.917   8.251   8.234  1.8871 -1.0869  3.1178
  497MOL0     H68543   8.944   8.418   8.199  0.5635 -1.5201 -1.1121
  497MOL0     H68544   9.140   8.395   8.269 -0.2371  0.9918 -0.0509
  497MOL0     H68545   9.486   8.376   8.382 -0.3606  1.2635  3.0515
  497MOL0     H68546   9.443   8.525   8.319  0.9583 -0.5912 -0.6222
  497MOL0     H68547   9.371   8.383   8.243  1.5063 -0.7498  0.2738
  497MOL0     H68548   9.562   8.185   8.840 -0.0505  0.4444 -1.5562
  497MOL0     H68549   9.764   8.166   8.967 -0.4301 -0.4253 -0.3046
  497MOL0     H68550   9.954   8.566   9.113  2.9695  1.5989  3.6208
  497MOL0     H68551   9.858   8.482   9.235  0.3402 -0.8611 -0.3155
  497MOL0     H68552  10.138   8.402   9.149  0.3756 -1.5522 -0.2485
  497MOL0     H68553  10.106   8.515   9.283 -0.2157 -0.4661  0.2826
  497MOL0     H68554  10.153   8.274   9.352 -1.2367 -0.3242  2.2337
  497MOL0     H68555  10.024   8.219   9.253 -0.4702  1.2509 -1.7246
  497MOL0     H68556   9.858   8.341   9.408  0.8330 -1.2121 -2.1563
  497MOL0     H68557   9.987   8.416   9.496  2.5533 -1.6560  0.2544
  497MOL0     H68558   9.894   8.234   9.635 -1.6085  0.1150 -1.0938
  497MOL0     H68559   9.903   8.130   9.492 -1.2710 -0.1818 -0.7307
  497MOL0     H68560  10.141   8.246   9.641 -1.0436  1.0472 -1.1386
  497MOL0     H68561  10.161   8.115   9.522  0.9602  2.1330 -0.7995
  497MOL0     H68562  10.039   7.960   9.662 -2.8251  1.9072  1.9750
  497MOL0     H68563  10.002   8.075   9.776 -1.0256  0.1099  0.4727
  497MOL0     H68564  10.268   8.112   9.797 -1.3329  0.7302 -0.4384
  497MOL0     H68565  10.289   7.970   9.720  0.4698 -1.1867  0.5375
  497MOL0     H68566   9.811   8.599   8.952  1.6410 -1.7035  1.1958
  497MOL0     H68567   9.610   8.612   8.815  2.7533  1.1036  2.4006
  497MOL0     H68568   9.177   8.432   8.750 -1.6734  2.4045 -0.2584
  497MOL0     H68569   8.972   8.376   8.657 -1.2287  0.0395 -1.6924
  497MOL0     H68570   7.544   8.517   8.550  0.4947  0.3369 -0.3717
  497MOL0     H68571   7.281   8.521   8.503  0.3448 -0.0599  1.9120
  497MOL0     H68572   6.921   8.224   8.387  0.2176 -0.1442 -0.4605
  497MOL0     H68573   6.698   8.167   8.309 -2.1416  1.5533 -0.1389
  497MOL0     H68574   6.430   8.435   8.063 -2.1471 -1.4090  0.5364
  497MOL0     H68575   6.546   8.383   7.938 -2.0377  1.3312 -1.2518
  497MOL0     H68576   6.431   8.170   7.927  1.1297  1.0075  0.3228
  497MOL0     H68577   6.331   8.305   7.881  1.7072  1.5753 -0.4010
  497MOL0     H68578   6.318   8.170   8.151 -1.7002 -1.0620  1.2780
  497MOL0     H68579   6.216   8.307   8.099  0.8347  0.5705 -0.3826
  497MOL0     H68580   6.110   8.060   8.055 -3.2398 -0.5280 -3.8370
  497MOL0     H68581   6.237   8.045   7.936 -1.8116 -0.2659 -1.0809
  497MOL0     H68582   5.931   8.297   7.774 -0.6345 -0.0446  2.1242
  497MOL0     H68583   6.716   8.477   8.020  2.8100  1.7152 -1.0752
  497MOL0     H68584   7.042   8.548   8.044 -0.8003  0.6957 -0.9289
  497MOL0     H68585   6.891   8.598   7.980  2.3830 -1.4674 -1.7092
  497MOL0     H68586   6.935   8.665   8.136  0.5305  0.5047 -0.4592
  498MOL0     O68587   6.132   5.298   3.660 -0.6404  1.0217  1.0682
  498MOL0     C68588   6.162   5.201   3.593 -0.1060 -0.2010  0.7468
  498MOL0     O68589   6.268   5.198   3.502 -0.5685 -0.0418  0.0261
  498MOL0     C68590   6.336   5.311   3.475  0.2618 -0.2800 -0.2050
  498MOL0     C68591   6.353   5.358   3.342 -0.0095 -0.0967 -0.0274
  498MOL0     C68592   6.439   5.462   3.311 -0.0954 -0.1415  0.6652
  498MOL0     C68593   6.508   5.534   3.416 -0.3175  0.5513  0.6552
  498MOL0     O68594   6.598   5.632   3.377 -0.3863 -0.5213 -0.1366
  498MOL0     C68595   6.716   5.594   3.306 -0.5783  0.4830 -0.5475
  498MOL0     C68596   6.835   5.671   3.352  0.5499  0.2809 -0.0803
  498MOL0     C68597   6.823   5.810   3.290 -0.1291 -0.4626 -0.5062
  498MOL0     C68598   6.955   5.877   3.314 -0.2139  0.2340 -0.5698
  498MOL0     C68599   7.074   5.832   3.231  0.1281 -0.4742 -0.3444
  498MOL0     C68600   7.057   5.834   3.072  0.2995  0.5030 -0.4685
  498MOL0     C68601   7.189   5.842   2.999 -0.7895  0.5032  1.2857
  498MOL0     C68602   7.282   5.965   3.035 -0.1116  0.0663 -0.6664
  498MOL0     N68603   7.199   6.079   3.030  0.0433 -0.4785 -0.2098
  498MOL0     C68604   7.179   6.166   3.143 -0.1132 -0.1444 -0.3245
  498MOL0     C68605   7.106   6.259   3.093 -0.1468 -0.3669  0.5804
  498MOL0     C68606   7.061   6.371   3.169  0.5512 -0.2829  0.0953
  498MOL0     C68607   6.917   6.364   3.205  0.4403 -0.0595  0.3902
  498MOL0     C68608   6.871   6.490   3.282 -0.2119 -0.4029 -0.2875
  498MOL0     C68609   6.719   6.502   3.326  0.3561  0.1377 -0.1451
  498MOL0     O68610   6.677   6.630   3.389 -0.4047  0.2793 -0.2133
  498MOL0     C68611   6.557   6.639   3.459 -0.0769  0.5722  0.5936
  498MOL0     C68612   6.456   6.540   3.456  0.0402  0.1417  0.4705
  498MOL0     C68613   6.339   6.561   3.525  0.3739  0.8547  0.0078
  498MOL0     C68614   6.239   6.438   3.505 -0.0222 -0.0437 -0.8667
  498MOL0     C68615   6.330   6.669   3.621  0.5536  0.0674  0.4714
  498MOL0     C68616   6.216   6.685   3.714  0.2384 -0.1663  0.1463
  498MOL0     O68617   6.099   6.616   3.684 -0.6026  0.9520  0.3752
  498MOL0     C68618   5.995   6.626   3.768 -0.1179  0.2425 -0.3924
  498MOL0     C68619   5.967   6.504   3.840 -0.1772 -0.8755  0.9740
  498MOL0     C68620   5.861   6.505   3.931  1.1329 -0.5680 -0.0227
  498MOL0     C68621   5.767   6.606   3.934 -0.4585  0.2100 -0.2523
  498MOL0     O68622   5.653   6.606   4.003 -0.0536  0.1254 -0.6227
  498MOL0     C68623   5.548   6.534   3.936  0.1977  0.8659 -0.8293
  498MOL0     C68624   5.475   6.633   3.843  0.2849  0.2522  0.0162
  498MOL0     C68625   5.327   6.597   3.798  0.1353 -0.1920  0.5399
  498MOL0     C68626   5.244   6.719   3.740  0.2555  0.1974 -0.0813
  498MOL0     C68627   5.109   6.669   3.691  0.5728  0.4350 -0.2941
  498MOL0     C68628   5.000   6.630   3.808  0.4058  0.6153 -0.3652
  498MOL0     C68629   4.971   6.745   3.917 -0.3125  0.3903  0.3930
  498MOL0     C68630   5.040   6.736   4.053  0.2100  0.3302 -0.2291
  498MOL0    Cl68631   5.045   6.567   4.101  0.3376  0.6826  0.4491
  498MOL0     C68632   5.787   6.714   3.847  0.1191  0.0926 -0.3577
  498MOL0     C68633   5.907   6.734   3.767 -0.0739  1.0289 -0.1118
  498MOL0     O68634   6.230   6.759   3.814 -0.4632  0.5601  0.4030
  498MOL0     C68635   6.438   6.757   3.631  0.3839 -0.4306  0.1462
  498MOL0     C68636   6.553   6.739   3.552 -1.5426 -0.2189  1.1511
  498MOL0     N68637   7.074   6.233   2.960  0.4433  0.3379 -0.1600
  498MOL0     N68638   7.133   6.123   2.921 -0.8025 -1.4387 -0.3316
  498MOL0     C68639   6.495   5.492   3.543  1.1927 -0.5544  0.0874
  498MOL0     C68640   6.402   5.389   3.576  0.2841  0.1096 -0.1007
  498MOL0     C68641   6.086   5.076   3.611 -0.7956  0.0650 -0.0982
  498MOL0     C68642   5.992   5.072   3.718  0.3911  0.5151 -0.1772
  498MOL0     C68643   5.925   4.951   3.750  0.7094  0.5042  0.1243
  498MOL0     C68644   5.922   4.836   3.665 -0.6840 -0.3498 -0.1674
  498MOL0     O68645   5.848   4.722   3.689 -1.0164 -1.0351  0.8237
  498MOL0     C68646   5.757   4.711   3.799  0.5514  0.0992  0.4998
  498MOL0     C68647   5.628   4.790   3.772  0.0666  0.0837  0.4390
  498MOL0     C68648   5.544   4.798   3.897  0.1792 -0.1226  0.3691
  498MOL0     C68649   5.424   4.897   3.861 -0.1211  0.4985 -0.0691
  498MOL0     C68650   5.363   4.923   3.994 -0.7306  0.1563 -0.2141
  498MOL0     C68651   5.318   4.919   4.113  0.0523 -0.0577 -0.7336
  498MOL0     C68652   6.006   4.844   3.554  0.0470 -0.2978 -0.2395
  498MOL0     C68653   6.091   4.956   3.523  0.4593  0.1060 -0.0894
  498MOL0     C68654   6.155   4.948   3.381  0.1781 -0.2495 -0.7724
  498MOL0     H68655   6.306   5.304   3.260  0.5451  1.6934 -1.5896
  498MOL0     H68656   6.468   5.503   3.215  2.8317  2.7780  2.5611
  498MOL0     H68657   6.692   5.609   3.201 -1.1442  3.4472 -0.0927
  498MOL0     H68658   6.731   5.489   3.335 -1.5184  0.1833 -1.0812
  498MOL0     H68659   6.850   5.680   3.460  2.3459 -0.5013 -0.2350
  498MOL0     H68660   6.925   5.621   3.315 -1.1268 -1.5053 -2.0646
  498MOL0     H68661   6.806   5.814   3.182  2.3379  2.8747 -0.9322
  498MOL0     H68662   6.743   5.862   3.343  0.6333  0.0692  0.1584
  498MOL0     H68663   6.944   5.982   3.285  0.7617  0.0877 -1.5264
  498MOL0     H68664   6.984   5.860   3.418  2.2734 -0.6113 -1.3273
  498MOL0     H68665   7.106   5.730   3.254  1.1418 -0.0111  0.3608
  498MOL0     H68666   7.150   5.907   3.256 -1.5273  1.0180  0.4627
  498MOL0     H68667   6.997   5.747   3.044 -2.2732  1.0545  2.6682
  498MOL0     H68668   6.997   5.924   3.055  0.0904  1.0537  2.5281
  498MOL0     H68669   7.172   5.832   2.891 -0.9625 -0.7753  1.4159
  498MOL0     H68670   7.248   5.755   3.028 -0.4064  0.3255  0.0497
  498MOL0     H68671   7.326   5.953   3.134  1.0223 -1.5155 -1.3380
  498MOL0     H68672   7.368   5.969   2.968 -0.1753 -0.8935 -0.8120
  498MOL0     H68673   7.220   6.149   3.241 -0.2091 -0.5831 -0.3602
  498MOL0     H68674   7.071   6.457   3.102 -4.1957 -1.6670 -2.8658
  498MOL0     H68675   7.126   6.386   3.256 -0.1078 -2.6906  1.0813
  498MOL0     H68676   6.855   6.352   3.116  1.7650  0.8111 -0.6781
  498MOL0     H68677   6.903   6.275   3.268 -2.4715  0.3381  0.4366
  498MOL0     H68678   6.933   6.498   3.371  1.9106  1.4396 -1.8108
  498MOL0     H68679   6.885   6.564   3.202  2.1927 -2.1981 -1.6747
  498MOL0     H68680   6.664   6.478   3.234 -0.3323  0.9995  0.0352
  498MOL0     H68681   6.699   6.423   3.398  0.1925  0.3087 -0.0032
  498MOL0     H68682   6.471   6.445   3.404 -3.0025 -1.3734  2.0927
  498MOL0     H68683   6.228   6.392   3.604  0.2287  0.9229 -0.3766
  498MOL0     H68684   6.276   6.368   3.429  3.2394  0.9252 -0.2999
  498MOL0     H68685   6.138   6.457   3.466 -1.1933 -3.4270  0.1025
  498MOL0     H68686   6.021   6.410   3.834 -0.8860 -1.3061  1.1874
  498MOL0     H68687   5.848   6.414   3.988 -0.2145  0.1564  0.8791
  498MOL0     H68688   5.585   6.446   3.882 -0.2591  0.1575 -0.0196
  498MOL0     H68689   5.474   6.495   4.008  0.6535 -0.3038 -0.9660
  498MOL0     H68690   5.475   6.729   3.897 -0.0358  0.5133 -0.4364
  498MOL0     H68691   5.547   6.668   3.769  0.9386 -2.5835 -0.7991
  498MOL0     H68692   5.277   6.571   3.892 -0.7969  0.4351  0.2321
  498MOL0     H68693   5.314   6.507   3.738 -2.4875 -0.7762  1.8319
  498MOL0     H68694   5.293   6.780   3.663  1.2469 -2.3428 -1.5753
  498MOL0     H68695   5.235   6.792   3.821 -1.3915 -1.0343  0.9043
  498MOL0     H68696   5.072   6.735   3.612 -2.1696 -0.7741 -0.1369
  498MOL0     H68697   5.121   6.575   3.637  0.4836  1.2066 -1.7198
  498MOL0     H68698   5.032   6.536   3.854  0.1407  0.4749 -0.4656
  498MOL0     H68699   4.904   6.606   3.763 -1.4522  0.7395  3.2261
  498MOL0     H68700   4.863   6.735   3.933 -0.7233 -2.3190 -3.0812
  498MOL0     H68701   4.997   6.836   3.863  2.4369 -0.3091  0.4333
  498MOL0     H68702   4.982   6.795   4.124  2.2213  0.2477  1.5895
  498MOL0     H68703   5.140   6.782   4.046  2.6905 -4.0719  2.2506
  498MOL0     H68704   5.713   6.792   3.834  0.3025  0.1428 -1.1816
  498MOL0     H68705   5.920   6.819   3.701 -2.7310 -0.7371 -3.1774
  498MOL0     H68706   6.436   6.825   3.715 -1.9519 -1.1756  0.7993
  498MOL0     H68707   6.640   6.804   3.551 -0.0269 -2.1094 -1.3210
  498MOL0     H68708   6.559   5.542   3.616  1.0072  0.9827 -0.7600
  498MOL0     H68709   6.396   5.362   3.681 -0.3160  2.1739  0.4336
  498MOL0     H68710   5.977   5.158   3.782  5.0792  0.3647  1.4819
  498MOL0     H68711   5.858   4.957   3.835 -0.2923 -2.3556 -0.3255
  498MOL0     H68712   5.728   4.609   3.827  1.9065  0.6163  4.2851
  498MOL0     H68713   5.813   4.751   3.884 -1.3620  3.3424  0.3716
  498MOL0     H68714   5.569   4.749   3.690 -0.8525 -0.7955  1.4972
  498MOL0     H68715   5.656   4.888   3.732  0.8701 -0.0670  0.6191
  498MOL0     H68716   5.500   4.700   3.919 -1.1611  0.7374  1.7439
  498MOL0     H68717   5.603   4.823   3.986 -0.4053 -1.9190  1.3209
  498MOL0     H68718   5.347   4.860   3.793 -0.9868  0.6539  0.8148
  498MOL0     H68719   5.453   4.998   3.831 -3.4864  2.4246  2.5222
  498MOL0     H68720   5.293   4.922   4.217  1.1976  1.7525 -0.4659
  498MOL0     H68721   6.012   4.773   3.472  3.4239  1.6465 -1.9179
  498MOL0     H68722   6.102   5.015   3.313 -3.3531 -2.1768 -0.1716
  498MOL0     H68723   6.257   4.987   3.385  0.1620 -0.2328 -0.4757
  498MOL0     H68724   6.164   4.847   3.340  0.4222 -1.2515  1.5892
  499MOL0     O68725   8.246   4.171   7.702 -0.2409  0.6792  0.5339
  499MOL0     C68726   8.153   4.250   7.708 -0.0740  0.3767 -0.2003
  499MOL0     O68727   8.161   4.386   7.710 -0.1790  0.0373 -0.3355
  499MOL0     C68728   8.287   4.448   7.729 -0.4139  0.7175 -0.2430
  499MOL0     C68729   8.349   4.424   7.852 -0.1889  0.4608  0.1318
  499MOL0     C68730   8.476   4.479   7.886 -0.4142 -0.4493  0.3999
  499MOL0     C68731   8.535   4.560   7.790  0.5606 -0.0557 -0.4492
  499MOL0     O68732   8.660   4.606   7.823  0.5500  0.5534  0.7036
  499MOL0     C68733   8.743   4.675   7.719  0.7045  0.6719 -0.1048
  499MOL0     C68734   8.880   4.693   7.779  0.3915 -0.3554  0.2153
  499MOL0     C68735   8.988   4.693   7.671  0.0987 -0.5350  0.1508
  499MOL0     C68736   9.122   4.721   7.746 -0.5699 -0.3513 -0.3392
  499MOL0     C68737   9.234   4.677   7.655 -0.5385  0.2424 -0.7720
  499MOL0     C68738   9.377   4.709   7.694 -0.1063  0.1978  0.4927
  499MOL0     C68739   9.408   4.861   7.668 -0.5737  0.0018 -0.1239
  499MOL0     C68740   9.552   4.895   7.701 -0.2276 -0.5349  0.2348
  499MOL0     N68741   9.650   4.830   7.617 -0.4710  0.7803 -0.6023
  499MOL0     C68742   9.755   4.756   7.673 -0.6591 -0.4220  0.6283
  499MOL0     C68743   9.845   4.734   7.572 -0.1424  0.1846 -0.3297
  499MOL0     C68744   9.958   4.646   7.571 -0.1293  0.6887 -0.1212
  499MOL0     C68745  10.079   4.720   7.618 -0.6704  0.7045 -0.9236
  499MOL0     C68746  10.205   4.630   7.639 -0.3281 -0.4015 -0.2611
  499MOL0     C68747  10.287   4.613   7.510  0.3971 -0.1296 -0.5658
  499MOL0     O68748  10.404   4.553   7.550 -0.0932 -0.4731 -0.3693
  499MOL0     C68749  10.516   4.629   7.535 -0.1472  1.0195  0.0206
  499MOL0     C68750  10.550   4.703   7.418 -0.4874  1.0043 -0.5676
  499MOL0     C68751  10.679   4.755   7.399 -0.2153 -0.3852  0.8428
  499MOL0     C68752  10.713   4.800   7.265  0.3716 -0.3980 -0.2707
  499MOL0     C68753  10.771   4.744   7.509  0.2579 -0.3712 -1.1595
  499MOL0     C68754  10.904   4.794   7.508  0.1325  0.3141  0.6072
  499MOL0     O68755  10.957   4.844   7.624  0.6100  0.3794 -0.3840
  499MOL0     C68756  11.093   4.865   7.636 -0.8595  0.8555 -0.0924
  499MOL0     C68757  11.142   4.837   7.764  0.6908  0.5167 -0.3148
  499MOL0     C68758  11.280   4.881   7.794 -0.3835 -0.2237  0.6063
  499MOL0     C68759  11.362   4.937   7.698  0.1922 -0.7169  1.4740
  499MOL0     O68760  11.489   4.955   7.728  0.0196  0.0594  0.1151
  499MOL0     C68761  11.574   4.980   7.612 -0.2023 -1.0705 -0.3146
  499MOL0     C68762  11.719   4.968   7.659  0.7314  0.1455 -0.0377
  499MOL0     C68763  11.761   4.828   7.703  1.1710 -0.2937  0.0258
  499MOL0     C68764  11.704   4.704   7.628  0.0205 -0.5575  0.2073
  499MOL0     C68765  11.718   4.567   7.700  0.9318  0.3291  0.6055
  499MOL0     C68766  11.606   4.544   7.805 -1.6285 -0.1266 -0.2111
  499MOL0     C68767  11.661   4.564   7.947 -0.0570  0.9265 -0.4259
  499MOL0     C68768  11.544   4.532   8.038  1.3443  0.1393  0.5174
  499MOL0    Cl68769  11.603   4.527   8.212 -0.0300 -0.2807 -0.9144
  499MOL0     C68770  11.303   4.953   7.568 -0.4744  0.2298 -0.6333
  499MOL0     C68771  11.177   4.922   7.541 -0.6696  0.6160  0.0214
  499MOL0     O68772  10.963   4.774   7.402 -0.6542  0.6400  0.2112
  499MOL0     C68773  10.732   4.673   7.626  0.7023  0.3827  0.0269
  499MOL0     C68774  10.610   4.611   7.631  0.8746 -0.4798 -0.1946
  499MOL0     N68775   9.794   4.788   7.450  1.0734 -0.0806 -0.2103
  499MOL0     N68776   9.683   4.848   7.486  0.1650 -0.8107  0.0136
  499MOL0     C68777   8.467   4.598   7.676  0.5902 -0.3948  1.5001
  499MOL0     C68778   8.341   4.533   7.638 -0.6691  0.6576  0.7976
  499MOL0     C68779   8.015   4.191   7.708  0.1779 -0.2172 -0.6211
  499MOL0     C68780   7.913   4.250   7.791 -0.4301  0.4955 -0.7951
  499MOL0     C68781   7.792   4.188   7.812  0.1310 -0.1000 -1.1810
  499MOL0     C68782   7.769   4.062   7.748  0.2796 -0.2363 -0.5757
  499MOL0     O68783   7.645   3.997   7.758  0.3135  0.1986  0.3599
  499MOL0     C68784   7.565   4.015   7.641 -0.4414 -0.4695 -0.0968
  499MOL0     C68785   7.527   4.164   7.602  0.6505  0.3908 -0.0781
  499MOL0     C68786   7.440   4.242   7.701  0.0600 -0.6217  0.1908
  499MOL0     C68787   7.335   4.170   7.789  0.2523  0.0589  0.0564
  499MOL0     C68788   7.235   4.094   7.710  0.0858  1.1670 -0.1374
  499MOL0     C68789   7.132   4.034   7.670 -0.2818 -0.2756  0.2681
  499MOL0     C68790   7.866   3.998   7.677 -1.0301  0.0095  0.0129
  499MOL0     C68791   7.987   4.058   7.646  0.4130  0.2154  0.3094
  499MOL0     C68792   8.081   3.981   7.559  0.6408 -0.3393 -0.0363
  499MOL0     H68793   8.301   4.360   7.926  0.4882 -0.0383  0.1545
  499MOL0     H68794   8.531   4.457   7.977  2.5986 -2.4984 -1.7170
  499MOL0     H68795   8.702   4.772   7.687 -2.1821 -0.3043  0.3228
  499MOL0     H68796   8.761   4.614   7.630 -3.7110  1.6730 -1.9580
  499MOL0     H68797   8.865   4.792   7.824  0.7505  0.8531 -2.1599
  499MOL0     H68798   8.916   4.616   7.847 -0.8462 -1.0138  0.1429
  499MOL0     H68799   8.991   4.603   7.610 -1.7104 -0.4031 -0.2138
  499MOL0     H68800   8.969   4.777   7.603 -0.4341 -0.9737 -0.2532
  499MOL0     H68801   9.131   4.828   7.764 -0.0112 -0.5686  0.7384
  499MOL0     H68802   9.135   4.668   7.841 -1.0467  1.5280  0.8400
  499MOL0     H68803   9.206   4.713   7.555 -2.5726 -1.3692 -0.8649
  499MOL0     H68804   9.237   4.568   7.648  3.8127  0.1925 -0.4824
  499MOL0     H68805   9.396   4.684   7.799  0.0088  1.7692  0.8610
  499MOL0     H68806   9.448   4.644   7.641 -1.8808 -0.2058 -1.5048
  499MOL0     H68807   9.337   4.926   7.720 -0.3865  0.9773 -1.0353
  499MOL0     H68808   9.394   4.875   7.560 -0.0589 -0.4191 -0.2511
  499MOL0     H68809   9.568   5.002   7.688  2.6409 -0.9699 -0.5462
  499MOL0     H68810   9.566   4.883   7.809  0.1812  0.4028  0.3012
  499MOL0     H68811   9.753   4.711   7.772  2.5650 -1.8599  0.1894
  499MOL0     H68812   9.992   4.612   7.473 -1.5247  1.3614 -0.8668
  499MOL0     H68813   9.932   4.557   7.628 -0.8437  0.5363 -0.6685
  499MOL0     H68814  10.110   4.805   7.557  0.4817  0.2635 -0.9927
  499MOL0     H68815  10.060   4.760   7.718  0.8551 -0.1946 -0.2281
  499MOL0     H68816  10.267   4.672   7.719 -0.3407  0.9026 -0.9093
  499MOL0     H68817  10.170   4.532   7.673  2.9534 -0.3823  4.0744
  499MOL0     H68818  10.221   4.555   7.444 -1.1745 -0.5661  1.2819
  499MOL0     H68819  10.299   4.707   7.457 -0.9392  0.0248 -0.6322
  499MOL0     H68820  10.485   4.692   7.332 -2.2685  0.1898  0.8008
  499MOL0     H68821  10.769   4.724   7.208  1.1342  1.2500 -1.8267
  499MOL0     H68822  10.772   4.892   7.268  0.1319 -0.1407 -2.2963
  499MOL0     H68823  10.623   4.810   7.204 -0.2042 -2.9947  0.0218
  499MOL0     H68824  11.079   4.783   7.834  0.8068 -0.9666 -1.3053
  499MOL0     H68825  11.314   4.869   7.897  0.3536 -0.7002  0.3160
  499MOL0     H68826  11.559   4.916   7.525  1.9063 -1.0360 -0.7510
  499MOL0     H68827  11.564   5.078   7.564  1.0324 -2.3861 -3.5793
  499MOL0     H68828  11.795   5.003   7.588 -0.0750 -3.2583 -2.8589
  499MOL0     H68829  11.750   5.017   7.752  1.1868 -0.3434  0.0705
  499MOL0     H68830  11.713   4.811   7.800 -2.1712 -0.4250 -1.5049
  499MOL0     H68831  11.870   4.835   7.708  0.9827  3.6629  2.4901
  499MOL0     H68832  11.742   4.697   7.525 -4.5493  3.1529 -2.1243
  499MOL0     H68833  11.597   4.710   7.605  0.2802  0.2198 -0.8797
  499MOL0     H68834  11.694   4.497   7.620  1.4916  2.1522 -1.2504
  499MOL0     H68835  11.818   4.550   7.741  0.9892  2.7868  1.6864
  499MOL0     H68836  11.597   4.436   7.798  1.2595 -0.6784  2.4441
  499MOL0     H68837  11.517   4.603   7.781 -0.2090  3.3454  2.1620
  499MOL0     H68838  11.695   4.666   7.967 -4.6264  2.7117 -0.4576
  499MOL0     H68839  11.731   4.486   7.976 -0.6122  1.3339  2.2508
  499MOL0     H68840  11.501   4.436   8.007  2.2921  0.0744 -0.6876
  499MOL0     H68841  11.470   4.611   8.020  1.3000 -0.0926 -0.4134
  499MOL0     H68842  11.350   5.008   7.487 -0.5509 -1.6774 -2.0458
  499MOL0     H68843  11.135   4.934   7.441 -1.0203  0.2860  0.1238
  499MOL0     H68844  10.801   4.674   7.710 -1.1072 -0.9481  1.6025
  499MOL0     H68845  10.593   4.548   7.718 -0.6562 -0.4795 -0.4593
  499MOL0     H68846   8.506   4.672   7.607  0.5108 -1.3512  0.4056
  499MOL0     H68847   8.298   4.543   7.538 -0.7604 -1.5348  0.5787
  499MOL0     H68848   7.927   4.349   7.833  0.5873  0.3192 -0.6901
  499MOL0     H68849   7.714   4.229   7.876  0.9303 -1.0439  0.4606
  499MOL0     H68850   7.627   3.978   7.560 -0.9865  1.1006 -1.2895
  499MOL0     H68851   7.475   3.952   7.643 -2.2669  1.9097 -1.4196
  499MOL0     H68852   7.463   4.161   7.514  2.1572  1.9872 -1.2890
  499MOL0     H68853   7.611   4.229   7.576 -0.6083  1.6780 -1.0644
  499MOL0     H68854   7.507   4.288   7.775 -2.6070 -1.5099  3.4362
  499MOL0     H68855   7.375   4.314   7.651 -0.9159 -1.0132  0.8515
  499MOL0     H68856   7.278   4.244   7.847 -1.2845  3.5384 -5.1779
  499MOL0     H68857   7.390   4.100   7.853 -0.0691  1.0562  1.4722
  499MOL0     H68858   7.047   3.979   7.635  0.0052 -0.4848 -0.1047
  499MOL0     H68859   7.848   3.895   7.650  0.7257 -0.4248  0.3658
  499MOL0     H68860   8.025   3.911   7.497  1.1996 -2.6741  1.8998
  499MOL0     H68861   8.127   4.044   7.483 -2.2174 -1.7256 -3.1412
  499MOL0     H68862   8.148   3.924   7.624 -2.2611 -1.8557  1.8294
  500MOL0     O68863   6.323   2.761   1.216  0.4128  0.3633 -0.0007
  500MOL0     C68864   6.198   2.744   1.226 -0.5993  0.0984 -0.3949
  500MOL0     O68865   6.120   2.720   1.117  0.1265 -0.0932 -0.1468
  500MOL0     C68866   6.172   2.718   0.986  0.0140  0.2441 -0.5143
  500MOL0     C68867   6.296   2.654   0.957  0.5555 -0.3641 -0.1384
  500MOL0     C68868   6.338   2.671   0.821  0.0647 -1.0023  0.1764
  500MOL0     C68869   6.261   2.722   0.717  0.0280 -0.5454 -0.0955
  500MOL0     O68870   6.299   2.743   0.586 -0.3640 -0.5588 -0.3939
  500MOL0     C68871   6.380   2.650   0.524  0.5336 -0.5554  0.2988
  500MOL0     C68872   6.523   2.688   0.522  0.8529 -0.0910 -0.1022
  500MOL0     C68873   6.618   2.580   0.462  0.2724  1.1767 -0.8978
  500MOL0     C68874   6.759   2.640   0.461 -0.7182  0.2298 -0.1470
  500MOL0     C68875   6.867   2.532   0.414 -0.3694  0.2662  0.6725
  500MOL0     C68876   6.910   2.439   0.518 -0.6916 -0.2684  0.3504
  500MOL0     C68877   7.003   2.511   0.613 -0.7004  0.6478 -0.1651
  500MOL0     C68878   7.017   2.410   0.734 -0.1635  0.4482 -0.3922
  500MOL0     N68879   7.110   2.470   0.836 -0.0147  0.8280 -0.9958
  500MOL0     C68880   7.250   2.469   0.843 -0.1895  0.5336 -0.2661
  500MOL0     C68881   7.291   2.543   0.951  0.4344  0.2796  0.7550
  500MOL0     C68882   7.428   2.575   0.999 -0.6536 -0.0470  0.3068
  500MOL0     C68883   7.432   2.558   1.146 -0.5928  0.0453 -1.4842
  500MOL0     C68884   7.568   2.550   1.205 -0.1301 -0.9656 -0.0331
  500MOL0     C68885   7.564   2.532   1.360 -0.8879  0.5742  0.2033
  500MOL0     O68886   7.507   2.405   1.386 -0.0209  0.0659 -0.0635
  500MOL0     C68887   7.549   2.350   1.503 -0.5332  0.3802  0.0455
  500MOL0     C68888   7.550   2.424   1.623 -0.6690  0.8126  0.8191
  500MOL0     C68889   7.560   2.353   1.740 -0.3075  0.0745  0.0780
  500MOL0     C68890   7.569   2.438   1.861 -0.0619 -0.2692  0.3111
  500MOL0     C68891   7.560   2.209   1.746 -0.6329  0.9167  0.3345
  500MOL0     C68892   7.551   2.128   1.875  0.1310  0.1127 -1.1645
  500MOL0     O68893   7.532   1.990   1.868 -0.3101  0.3045  0.1031
  500MOL0     C68894   7.509   1.927   1.993 -0.7456 -0.5493  0.7707
  500MOL0     C68895   7.381   1.933   2.045  0.1396  0.5921 -0.1137
  500MOL0     C68896   7.351   1.853   2.157  0.9511 -0.6549 -0.4188
  500MOL0     C68897   7.444   1.755   2.196 -0.4654  0.4239  0.0633
  500MOL0     O68898   7.436   1.668   2.300  0.1771 -0.0211 -0.2668
  500MOL0     C68899   7.307   1.659   2.357  0.1540  0.7897 -0.1913
  500MOL0     C68900   7.210   1.581   2.262  0.3330  0.0125 -0.6881
  500MOL0     C68901   7.066   1.554   2.321  0.0220  0.1704  0.3604
  500MOL0     C68902   7.073   1.424   2.399  0.7971 -0.5278  0.7804
  500MOL0     C68903   6.930   1.397   2.449  1.2827 -0.4550  0.4229
  500MOL0     C68904   6.919   1.255   2.510  0.1002  0.3319  0.1683
  500MOL0     C68905   6.849   1.263   2.650  0.2012 -0.1286  1.0545
  500MOL0     C68906   6.862   1.133   2.730 -0.6011 -0.5102  0.7228
  500MOL0    Cl68907   7.025   1.066   2.773  0.0439 -0.0126  0.3290
  500MOL0     C68908   7.572   1.743   2.134 -0.4101  0.0529  0.4688
  500MOL0     C68909   7.599   1.832   2.031 -0.3313  0.0917  0.7588
  500MOL0     O68910   7.557   2.193   1.976  0.1804 -0.2188 -0.9681
  500MOL0     C68911   7.572   2.137   1.623  0.2698 -0.5023  0.7664
  500MOL0     C68912   7.569   2.213   1.503  0.6136  0.0455 -0.3930
  500MOL0     N68913   7.172   2.584   1.012 -0.4483 -0.8062 -0.9667
  500MOL0     N68914   7.077   2.537   0.951  0.1138 -0.3615  0.5413
  500MOL0     C68915   6.139   2.788   0.756 -1.0808 -0.2314  0.8425
  500MOL0     C68916   6.090   2.781   0.889 -0.8311 -0.5875 -0.4948
  500MOL0     C68917   6.138   2.756   1.362 -0.7116  0.7912 -0.1500
  500MOL0     C68918   6.213   2.792   1.471 -0.8877  0.5086 -0.7173
  500MOL0     C68919   6.169   2.836   1.593  0.9209 -0.0122 -0.3268
  500MOL0     C68920   6.028   2.840   1.613  0.0421  0.4699  0.0324
  500MOL0     O68921   5.973   2.872   1.734 -0.1803 -0.6160 -0.1915
  500MOL0     C68922   5.835   2.832   1.762 -0.9275 -1.2742 -0.2443
  500MOL0     C68923   5.731   2.937   1.722  0.4376 -0.5914 -0.4235
  500MOL0     C68924   5.663   2.986   1.857  0.1366  0.3044 -1.1589
  500MOL0     C68925   5.535   3.074   1.842 -0.5556 -0.0565  0.2295
  500MOL0     C68926   5.572   3.191   1.755 -0.0175  0.5347  0.1694
  500MOL0     C68927   5.585   3.267   1.666  0.1113 -0.2941 -0.9190
  500MOL0     C68928   5.947   2.787   1.502 -0.5655 -1.4893 -0.4420
  500MOL0     C68929   5.999   2.745   1.380  0.7061  0.7206 -0.3394
  500MOL0     C68930   5.890   2.707   1.276 -0.4160 -0.0605 -0.8814
  500MOL0     H68931   6.359   2.606   1.030 -0.4572  1.2174  1.8755
  500MOL0     H68932   6.440   2.636   0.808 -0.3440 -2.3331  0.4604
  500MOL0     H68933   6.343   2.645   0.421 -1.3550  2.5920  0.6564
  500MOL0     H68934   6.362   2.556   0.577  0.0544  0.6038  2.3056
  500MOL0     H68935   6.530   2.784   0.469  0.6572  0.2878  0.5491
  500MOL0     H68936   6.556   2.704   0.625 -1.4265  2.2424  0.3545
  500MOL0     H68937   6.624   2.493   0.527  1.7359  1.6313 -0.3862
  500MOL0     H68938   6.585   2.547   0.362 -0.3211  0.7040 -0.5538
  500MOL0     H68939   6.756   2.727   0.394 -1.6535 -0.1161 -0.5588
  500MOL0     H68940   6.787   2.683   0.557  0.5258  4.8141 -2.2857
  500MOL0     H68941   6.954   2.589   0.382 -0.4991  0.7133  1.0999
  500MOL0     H68942   6.830   2.473   0.330 -0.7399  4.0787 -2.0990
  500MOL0     H68943   6.821   2.397   0.566 -2.0211  1.5394 -0.4053
  500MOL0     H68944   6.972   2.356   0.483  2.5325  1.6634  1.0212
  500MOL0     H68945   6.978   2.613   0.642  2.2369  1.0255  1.3816
  500MOL0     H68946   7.107   2.525   0.582  0.1888 -2.2993  1.1493
  500MOL0     H68947   6.925   2.387   0.789  1.4632 -1.5368  1.6398
  500MOL0     H68948   7.064   2.320   0.693  0.3475  1.1689 -1.4194
  500MOL0     H68949   7.318   2.409   0.785  3.1266 -1.0959  4.7035
  500MOL0     H68950   7.461   2.676   0.976  3.0436 -1.3913 -1.0219
  500MOL0     H68951   7.500   2.505   0.954 -0.4010  1.4146 -1.6691
  500MOL0     H68952   7.390   2.653   1.181  2.1059  1.2928 -1.4215
  500MOL0     H68953   7.367   2.483   1.192 -0.4485  2.4663  3.3518
  500MOL0     H68954   7.637   2.478   1.160  1.6926 -0.4365  1.7153
  500MOL0     H68955   7.615   2.648   1.193  1.1624 -1.3774  1.3324
  500MOL0     H68956   7.667   2.534   1.398 -1.3006 -1.5555  1.6026
  500MOL0     H68957   7.512   2.613   1.413 -0.3630 -1.0301  3.4238
  500MOL0     H68958   7.542   2.532   1.625  0.1655  0.8659  1.7354
  500MOL0     H68959   7.664   2.421   1.913  0.4373  0.9362 -0.1788
  500MOL0     H68960   7.488   2.403   1.927 -0.0851 -1.2111 -0.1922
  500MOL0     H68961   7.547   2.543   1.843 -0.3582 -0.0981  1.5282
  500MOL0     H68962   7.306   2.002   2.007  0.7265  2.2463  1.5749
  500MOL0     H68963   7.249   1.863   2.194 -0.5154 -2.0711 -3.6431
  500MOL0     H68964   7.312   1.594   2.444 -1.6335  0.6698 -0.1356
  500MOL0     H68965   7.268   1.756   2.391  0.5659  0.2762  1.8339
  500MOL0     H68966   7.201   1.637   2.168  0.3029 -0.5179 -1.0043
  500MOL0     H68967   7.262   1.486   2.244 -0.8667 -0.8776  0.3974
  500MOL0     H68968   6.999   1.533   2.238  0.4953 -0.4673  0.1288
  500MOL0     H68969   7.041   1.646   2.374  3.2617  1.2152  0.3119
  500MOL0     H68970   7.130   1.449   2.489  0.7185  3.3361 -0.1039
  500MOL0     H68971   7.122   1.335   2.358  4.2112  0.8822  1.4496
  500MOL0     H68972   6.910   1.471   2.527  3.2408  1.3265 -0.6778
  500MOL0     H68973   6.853   1.402   2.371  0.2912  1.2140  1.4360
  500MOL0     H68974   7.016   1.207   2.520 -2.1536 -4.9606 -0.0437
  500MOL0     H68975   6.858   1.195   2.442  0.6139 -2.1814  1.7796
  500MOL0     H68976   6.744   1.295   2.648  0.7966  3.0869  5.6529
  500MOL0     H68977   6.910   1.334   2.705  3.8751 -1.1705 -1.3169
  500MOL0     H68978   6.807   1.054   2.678  0.8083 -3.8420  3.8258
  500MOL0     H68979   6.819   1.150   2.829  5.4871  1.2483  3.5503
  500MOL0     H68980   7.643   1.676   2.182 -0.6760 -0.1996  0.5141
  500MOL0     H68981   7.698   1.823   1.987 -1.4849 -0.8029 -1.9093
  500MOL0     H68982   7.570   2.028   1.618 -0.1449 -0.4556 -0.2507
  500MOL0     H68983   7.576   2.167   1.405 -0.4476 -0.5091 -0.2219
  500MOL0     H68984   6.074   2.836   0.684 -2.5800 -0.1339  2.2001
  500MOL0     H68985   5.996   2.826   0.918 -1.4221 -1.1634 -1.4626
  500MOL0     H68986   6.321   2.785   1.463 -0.8931 -0.6436  0.0685
  500MOL0     H68987   6.235   2.853   1.678 -1.6085 -2.6798  2.4130
  500MOL0     H68988   5.815   2.740   1.706 -1.9196  0.1331 -2.3374
  500MOL0     H68989   5.830   2.831   1.871  1.4660  3.0701  0.1250
  500MOL0     H68990   5.657   2.912   1.645  0.6220  0.1278 -0.8486
  500MOL0     H68991   5.779   3.027   1.683  0.1488 -0.3448 -0.2094
  500MOL0     H68992   5.627   2.904   1.920 -0.4415  2.1309  1.0095
  500MOL0     H68993   5.728   3.033   1.932 -0.4641  0.4026 -0.6905
  500MOL0     H68994   5.495   3.103   1.939  0.8657  0.0737  0.7998
  500MOL0     H68995   5.459   3.009   1.799  0.0510 -0.5251 -0.1499
  500MOL0     H68996   5.599   3.336   1.586  0.2023 -0.4828 -1.0671
  500MOL0     H68997   5.838   2.783   1.508 -0.4665 -2.2062  1.5037
  500MOL0     H68998   5.804   2.658   1.323 -0.6378 -0.6768 -1.9078
  500MOL0     H68999   5.858   2.801   1.230  2.4987  0.7484 -1.4722
  500MOL0     H69000   5.922   2.625   1.212 -1.5713 -0.6656 -0.7027
  501MOL0     O69001   0.739   0.449   6.908 -0.0665 -1.2862 -0.2062
  501MOL0     C69002   0.630   0.499   6.921  0.1528 -0.1189  0.0346
  501MOL0     O69003   0.607   0.635   6.956  0.1331  0.1866  0.5258
  501MOL0     C69004   0.715   0.721   6.987  0.4358  0.0795  0.2806
  501MOL0     C69005   0.689   0.853   6.962  0.4224 -0.6495  0.8362
  501MOL0     C69006   0.782   0.960   6.981  0.5237 -0.0072  0.5852
  501MOL0     C69007   0.906   0.929   7.030 -0.2735 -0.3092 -0.9980
  501MOL0     O69008   1.011   1.019   7.061 -0.2345 -0.2929 -0.0299
  501MOL0     C69009   0.992   1.161   7.034  0.8440  0.3181 -0.2257
  501MOL0     C69010   1.110   1.251   7.052 -0.0938  0.3853  0.7836
  501MOL0     C69011   1.236   1.210   6.978  0.7696  0.0171 -0.8713
  501MOL0     C69012   1.218   1.181   6.831 -0.1994  0.1647 -0.2344
  501MOL0     C69013   1.220   1.039   6.797 -0.6864 -0.0933  0.5341
  501MOL0     C69014   1.345   0.958   6.806  0.3288  1.0418  0.6110
  501MOL0     C69015   1.312   0.802   6.806 -0.3612 -0.4984  0.0129
  501MOL0     C69016   1.259   0.749   6.942  0.0216  0.6845  0.0836
  501MOL0     N69017   1.253   0.601   6.950 -1.3458  0.3338  0.0523
  501MOL0     C69018   1.148   0.521   6.950  0.3503 -0.6420  0.4349
  501MOL0     C69019   1.196   0.394   6.969  0.3102  0.6221 -0.3485
  501MOL0     C69020   1.109   0.274   6.961  0.1390 -0.2911  0.1722
  501MOL0     C69021   1.006   0.272   7.075 -0.5410  0.3417  0.1402
  501MOL0     C69022   1.055   0.221   7.210 -1.0836  0.5207 -1.2497
  501MOL0     C69023   0.945   0.248   7.313  0.2051  0.2060 -0.5874
  501MOL0     O69024   0.940   0.388   7.341 -0.0865  0.5050  0.2001
  501MOL0     C69025   0.820   0.461   7.336 -0.4710 -0.7239  0.1554
  501MOL0     C69026   0.824   0.589   7.386 -0.1990  0.1468 -0.7381
  501MOL0     C69027   0.726   0.681   7.368 -0.1780 -0.0862 -0.1746
  501MOL0     C69028   0.764   0.824   7.411 -0.3685  0.0016  0.7530
  501MOL0     C69029   0.610   0.639   7.301  0.6689  1.4928  0.6609
  501MOL0     C69030   0.483   0.721   7.284 -0.0650  0.0257  0.2358
  501MOL0     O69031   0.376   0.656   7.235 -0.1001 -0.3264 -1.0688
  501MOL0     C69032   0.265   0.740   7.219 -1.1430 -0.1039  0.8626
  501MOL0     C69033   0.186   0.767   7.327  0.7693  0.2832 -0.6052
  501MOL0     C69034   0.069   0.842   7.318 -0.0379 -0.3011 -0.2314
  501MOL0     C69035   0.032   0.906   7.198  0.1484 -0.8121  1.0096
  501MOL0     O69036  -0.082   0.974   7.180  0.3599 -0.4386 -0.4381
  501MOL0     C69037  -0.146   0.983   7.052  0.3056 -0.3368 -0.4757
  501MOL0     C69038  -0.300   0.986   7.062 -1.2754 -0.0871  0.3419
  501MOL0     C69039  -0.347   1.123   7.114  0.1958  0.2437 -0.1537
  501MOL0     C69040  -0.504   1.106   7.126  0.5776  0.2847  0.6561
  501MOL0     C69041  -0.558   1.202   7.241 -0.2786 -0.9657  0.4394
  501MOL0     C69042  -0.694   1.253   7.219  0.2913 -0.3604  0.3898
  501MOL0     C69043  -0.743   1.379   7.300 -0.5018  0.5699  0.2105
  501MOL0     C69044  -0.664   1.387   7.428  0.7284 -0.7819 -0.9575
  501MOL0    Cl69045  -0.740   1.514   7.533  0.5283 -0.0360 -0.1435
  501MOL0     C69046   0.119   0.891   7.082  0.0112 -0.4276 -0.7028
  501MOL0     C69047   0.233   0.806   7.096  0.5144 -0.2417 -0.5227
  501MOL0     O69048   0.497   0.839   7.315 -0.5727  0.0275  0.1590
  501MOL0     C69049   0.604   0.510   7.247  0.4770 -0.0375 -0.1000
  501MOL0     C69050   0.711   0.421   7.265  0.7476  0.6003  0.2465
  501MOL0     N69051   1.332   0.410   6.983  0.4092  0.5156 -0.2155
  501MOL0     N69052   1.368   0.535   6.971 -0.4037  0.1332 -0.2416
  501MOL0     C69053   0.927   0.798   7.077  0.2523 -0.3997  0.0701
  501MOL0     C69054   0.839   0.696   7.047  0.1398  0.4204 -0.0804
  501MOL0     C69055   0.506   0.414   6.898  0.1764  0.1396  0.2679
  501MOL0     C69056   0.381   0.485   6.910 -0.4469  0.0604 -0.5965
  501MOL0     C69057   0.261   0.431   6.873 -1.1040 -0.3822  0.4555
  501MOL0     C69058   0.252   0.301   6.820 -0.1379  0.7466 -0.1710
  501MOL0     O69059   0.130   0.252   6.788  0.5329  0.7648 -0.3026
  501MOL0     C69060   0.120   0.165   6.681 -0.1312 -0.3296  0.5448
  501MOL0     C69061  -0.005   0.211   6.602  0.2270  0.5295  0.0169
  501MOL0     C69062  -0.128   0.266   6.682  0.0130 -0.1099  0.6679
  501MOL0     C69063  -0.186   0.155   6.774 -0.1109 -0.3951  0.7704
  501MOL0     C69064  -0.316   0.190   6.829  0.1566  0.6668 -0.0814
  501MOL0     C69065  -0.434   0.231   6.862 -0.1096 -0.0725  0.0324
  501MOL0     C69066   0.369   0.231   6.808 -0.0432  0.3514 -0.3029
  501MOL0     C69067   0.489   0.284   6.850 -0.1304  0.4381  0.0962
  501MOL0     C69068   0.612   0.190   6.831 -0.6349 -0.3549  0.0448
  501MOL0     H69069   0.589   0.871   6.925  0.8495 -0.8341 -0.4530
  501MOL0     H69070   0.751   1.059   6.949  1.5470 -0.6850 -2.9262
  501MOL0     H69071   0.923   1.189   7.115  0.7740 -0.2056 -0.1036
  501MOL0     H69072   0.934   1.180   6.943  0.8339  1.9238  0.0843
  501MOL0     H69073   1.062   1.347   7.033 -2.0236 -0.5981  0.4043
  501MOL0     H69074   1.148   1.249   7.155 -1.2284  3.0229  1.3345
  501MOL0     H69075   1.307   1.291   6.998 -1.0116  1.8231 -1.5909
  501MOL0     H69076   1.261   1.112   7.021 -0.3909 -1.0630 -2.5025
  501MOL0     H69077   1.122   1.225   6.803  0.7863  1.1188 -2.3122
  501MOL0     H69078   1.305   1.228   6.785  0.9069 -0.5801  1.0315
  501MOL0     H69079   1.180   1.029   6.696  1.3932 -0.8470 -0.2566
  501MOL0     H69080   1.149   1.001   6.871  1.2247  0.2536  2.6380
  501MOL0     H69081   1.419   0.972   6.727  0.8341 -1.7552  0.4777
  501MOL0     H69082   1.397   0.984   6.899  1.2867  0.6293  0.2049
  501MOL0     H69083   1.405   0.754   6.774 -0.3985 -0.6317  0.1038
  501MOL0     H69084   1.229   0.778   6.739 -0.1713 -2.4978  0.4280
  501MOL0     H69085   1.315   0.777   7.032  0.4866  1.9265 -0.5688
  501MOL0     H69086   1.156   0.781   6.956  0.2329  0.7700  1.6481
  501MOL0     H69087   1.050   0.563   6.929  0.9086 -0.3030 -1.6902
  501MOL0     H69088   1.179   0.191   6.966 -0.2649 -0.7483 -1.3093
  501MOL0     H69089   1.058   0.274   6.864 -0.0147 -1.1721  0.2498
  501MOL0     H69090   0.971   0.376   7.080  0.8170  0.8049  0.5186
  501MOL0     H69091   0.918   0.217   7.041  0.6306 -0.7379 -1.2530
  501MOL0     H69092   1.089   0.117   7.197  0.8680  0.9709 -0.0422
  501MOL0     H69093   1.142   0.279   7.242  0.3268  0.0472 -3.9002
  501MOL0     H69094   0.851   0.204   7.280 -0.3067 -1.0816  2.3013
  501MOL0     H69095   0.968   0.199   7.408 -2.4171 -0.1616 -0.0727
  501MOL0     H69096   0.919   0.619   7.429 -0.0780  2.9662 -2.7308
  501MOL0     H69097   0.849   0.824   7.479 -0.1045  1.9246  0.4694
  501MOL0     H69098   0.684   0.873   7.467  1.5474  0.1109  3.6141
  501MOL0     H69099   0.799   0.894   7.335  0.9076 -0.1713  1.1707
  501MOL0     H69100   0.205   0.728   7.426  1.6563  3.8756  0.8081
  501MOL0     H69101   0.010   0.860   7.407 -0.3824 -2.4366  0.0213
  501MOL0     H69102  -0.111   1.076   7.008 -1.5123 -0.4508 -2.3205
  501MOL0     H69103  -0.115   0.899   6.989  2.1687 -1.3257  1.6400
  501MOL0     H69104  -0.327   0.968   6.957 -0.0037 -0.2168  0.0109
  501MOL0     H69105  -0.338   0.905   7.125  0.6552 -1.9625 -0.7599
  501MOL0     H69106  -0.318   1.212   7.057  3.4989 -0.2639  0.5780
  501MOL0     H69107  -0.307   1.143   7.214 -0.2072 -2.1298  0.5531
  501MOL0     H69108  -0.531   1.003   7.152  2.2421 -0.3166  0.1147
  501MOL0     H69109  -0.550   1.130   7.029  0.3019  0.9094  0.9385
  501MOL0     H69110  -0.562   1.144   7.334  0.1465 -2.3748 -0.3908
  501MOL0     H69111  -0.482   1.281   7.239  0.3307 -1.4974  1.5798
  501MOL0     H69112  -0.754   1.163   7.236 -0.2054 -0.2728 -0.7881
  501MOL0     H69113  -0.724   1.288   7.119 -3.8634 -1.7477  0.9639
  501MOL0     H69114  -0.851   1.377   7.316 -1.2719  3.2502 -3.5169
  501MOL0     H69115  -0.723   1.469   7.242  2.9338 -0.1771 -0.0182
  501MOL0     H69116  -0.562   1.427   7.419  0.4444  0.0412 -0.5597
  501MOL0     H69117  -0.652   1.293   7.484  0.0344 -0.1081  0.3456
  501MOL0     H69118   0.103   0.961   7.000 -0.4706 -0.1207 -0.3555
  501MOL0     H69119   0.310   0.781   7.024  1.8392  0.1162  0.7352
  501MOL0     H69120   0.507   0.481   7.207 -0.5620  2.9435  0.0673
  501MOL0     H69121   0.690   0.318   7.237  1.0258  0.2819  1.1603
  501MOL0     H69122   1.022   0.767   7.119 -0.6135 -2.7962  0.4106
  501MOL0     H69123   0.869   0.594   7.071  3.0613  0.4824 -2.8485
  501MOL0     H69124   0.378   0.585   6.952  1.2020 -0.2776  0.4006
  501MOL0     H69125   0.166   0.483   6.882  0.5923  2.9081  1.1867
  501MOL0     H69126   0.209   0.180   6.619 -1.3608  0.6687 -1.0464
  501MOL0     H69127   0.114   0.059   6.710 -0.3404 -0.9480 -1.6045
  501MOL0     H69128  -0.045   0.133   6.536 -1.4475 -0.6655  2.2992
  501MOL0     H69129   0.024   0.281   6.524 -1.3526 -0.4203 -1.4921
  501MOL0     H69130  -0.103   0.359   6.734  2.1067  0.9244 -1.9540
  501MOL0     H69131  -0.206   0.285   6.608  1.1411 -2.4186 -1.2556
  501MOL0     H69132  -0.110   0.126   6.847  0.0840 -0.7804  0.4212
  501MOL0     H69133  -0.206   0.063   6.718  1.6858  1.0829 -2.6383
  501MOL0     H69134  -0.524   0.283   6.890  0.4960  0.5372  0.8891
  501MOL0     H69135   0.350   0.127   6.783  0.0005 -1.1824  4.7948
  501MOL0     H69136   0.669   0.187   6.924  0.7624 -2.2368 -0.8214
  501MOL0     H69137   0.600   0.084   6.809 -1.1041 -0.9450  2.7324
  501MOL0     H69138   0.669   0.234   6.749 -0.8953 -2.0483 -1.1034
  502MOL0     O69139   7.035   5.715   8.950  0.3724  0.6470  0.2547
  502MOL0     C69140   7.076   5.641   8.866  0.3529  0.1129  0.2133
  502MOL0     O69141   7.198   5.577   8.866 -0.6124  0.3318 -0.4896
  502MOL0     C69142   7.295   5.619   8.953 -0.3543 -0.2051 -0.7486
  502MOL0     C69143   7.354   5.741   8.926 -0.1825  0.5753 -0.1345
  502MOL0     C69144   7.441   5.803   9.018 -0.1968  0.3221 -0.0333
  502MOL0     C69145   7.471   5.729   9.138  0.1519  0.5116 -0.1517
  502MOL0     O69146   7.569   5.766   9.225  0.7283 -0.2917 -0.1121
  502MOL0     C69147   7.668   5.861   9.188 -0.2439 -0.1656  0.8356
  502MOL0     C69148   7.805   5.799   9.196  0.6153  0.5864 -0.1187
  502MOL0     C69149   7.837   5.779   9.344  1.0525 -0.2084 -0.1500
  502MOL0     C69150   7.765   5.667   9.412  0.4733  1.0952  0.6588
  502MOL0     C69151   7.842   5.613   9.532 -0.7179  0.0215 -0.7304
  502MOL0     C69152   7.864   5.728   9.639 -0.8290 -0.7374  0.6142
  502MOL0     C69153   7.940   5.662   9.758  0.5985 -0.0051  0.3171
  502MOL0     C69154   7.962   5.762   9.867 -0.2540 -0.6660 -0.4692
  502MOL0     N69155   8.068   5.866   9.821 -0.2189  0.4482  0.0496
  502MOL0     C69156   8.201   5.853   9.826 -1.0493 -0.5752  0.8088
  502MOL0     C69157   8.256   5.972   9.787 -0.2730 -0.4365 -0.1041
  502MOL0     C69158   8.407   5.979   9.764  0.1058 -0.7951  0.1837
  502MOL0     C69159   8.462   5.995   9.904  0.4565  0.6373 -0.5939
  502MOL0     C69160   8.601   5.943   9.936 -0.3339 -0.0470  0.7792
  502MOL0     C69161   8.627   5.787   9.940 -0.8788 -0.5760  0.0443
  502MOL0     O69162   8.560   5.729  10.052  0.1332  0.3334 -0.3278
  502MOL0     C69163   8.564   5.590  10.069  0.2141 -0.6421 -1.1008
  502MOL0     C69164   8.626   5.501   9.986  0.2986 -1.0289 -0.2918
  502MOL0     C69165   8.624   5.365  10.012 -0.6392 -0.3712 -0.6630
  502MOL0     C69166   8.681   5.283   9.897 -0.5319 -0.1242 -1.4457
  502MOL0     C69167   8.569   5.313  10.135  0.2780 -0.5702  0.2561
  502MOL0     C69168   8.571   5.170  10.175 -0.0554 -0.6481 -0.6500
  502MOL0     O69169   8.533   5.137  10.307 -0.2468 -0.5211  0.6367
  502MOL0     C69170   8.552   5.011  10.349 -0.1261  0.2500  0.1435
  502MOL0     C69171   8.492   4.893  10.299  0.0591 -0.8270 -0.4389
  502MOL0     C69172   8.507   4.768  10.368  0.1060 -0.7828  0.7118
  502MOL0     C69173   8.599   4.749  10.475 -0.3073 -0.1747  0.6822
  502MOL0     O69174   8.624   4.629  10.542 -0.8309 -0.1998  0.1400
  502MOL0     C69175   8.527   4.529  10.534  1.2768  0.5093  0.9767
  502MOL0     C69176   8.540   4.440  10.658 -0.6774  0.5969  0.1662
  502MOL0     C69177   8.499   4.504  10.790 -0.0072 -0.6412 -0.2302
  502MOL0     C69178   8.416   4.398  10.863  0.5588 -0.5555  0.0103
  502MOL0     C69179   8.375   4.461  10.999 -0.0724  0.5297  0.2587
  502MOL0     C69180   8.281   4.359  11.061  0.0888 -0.1619 -0.3676
  502MOL0     C69181   8.271   4.383  11.213 -0.0110 -0.1152 -1.1835
  502MOL0     C69182   8.136   4.434  11.268  1.3150  0.6926  0.2922
  502MOL0    Cl69183   7.996   4.334  11.196 -0.2114  0.0396  0.2937
  502MOL0     C69184   8.674   4.867  10.513 -0.3128 -0.1142 -0.3439
  502MOL0     C69185   8.644   4.991  10.456  0.7519 -0.7700 -0.4164
  502MOL0     O69186   8.600   5.089  10.090  0.0473 -0.1165  0.3209
  502MOL0     C69187   8.504   5.401  10.213 -0.4047 -0.5137 -0.2574
  502MOL0     C69188   8.497   5.540  10.187 -0.2439  0.0358  0.2261
  502MOL0     N69189   8.155   6.052   9.749 -0.0253 -0.0227  0.3833
  502MOL0     N69190   8.041   5.990   9.773 -0.6072 -0.1654 -0.4798
  502MOL0     C69191   7.407   5.613   9.170  0.2190 -0.2930  0.1197
  502MOL0     C69192   7.309   5.559   9.086  0.7408  0.1247  0.4551
  502MOL0     C69193   6.979   5.614   8.759 -0.5341  0.4925 -0.2832
  502MOL0     C69194   7.035   5.560   8.638  0.3545 -0.0347 -0.6501
  502MOL0     C69195   6.952   5.544   8.529 -0.6566  0.6087  0.2446
  502MOL0     C69196   6.814   5.557   8.528 -0.4932  0.7046 -0.3976
  502MOL0     O69197   6.738   5.527   8.413 -0.4110 -0.2607 -0.4251
  502MOL0     C69198   6.602   5.498   8.442  0.1655  1.0183  0.8653
  502MOL0     C69199   6.569   5.410   8.317 -0.6571  0.0913 -0.0396
  502MOL0     C69200   6.424   5.373   8.324  0.3451  0.1184  0.3704
  502MOL0     C69201   6.417   5.215   8.324  0.2943  0.5283  0.7646
  502MOL0     C69202   6.289   5.161   8.300 -0.5329 -0.8216 -0.2488
  502MOL0     C69203   6.172   5.137   8.289 -0.1941  0.1240  0.3652
  502MOL0     C69204   6.758   5.603   8.646  0.4710 -0.6213  0.2956
  502MOL0     C69205   6.837   5.628   8.766 -0.2690 -0.8962  0.0646
  502MOL0     C69206   6.749   5.652   8.894 -0.5601 -1.4387 -0.3852
  502MOL0     H69207   7.327   5.792   8.834  2.5194  1.0499 -0.7607
  502MOL0     H69208   7.494   5.894   8.994  1.3072 -0.2209  1.0791
  502MOL0     H69209   7.661   5.948   9.255  0.0869 -1.4953  2.6923
  502MOL0     H69210   7.663   5.897   9.085  1.1379  1.4149  1.2668
  502MOL0     H69211   7.815   5.706   9.140 -0.4310  2.7564 -4.2983
  502MOL0     H69212   7.878   5.866   9.148 -0.4739  1.1280 -1.0686
  502MOL0     H69213   7.945   5.763   9.356  1.0665 -0.2228 -0.2934
  502MOL0     H69214   7.823   5.868   9.406  1.2868 -0.7231  0.6496
  502MOL0     H69215   7.670   5.703   9.452  0.5492 -0.9165  2.8581
  502MOL0     H69216   7.754   5.586   9.338 -0.2737  0.2351  1.6738
  502MOL0     H69217   7.936   5.572   9.495 -0.3143  0.3278 -0.0645
  502MOL0     H69218   7.791   5.528   9.579  2.9956 -0.2821  3.4333
  502MOL0     H69219   7.913   5.816   9.597 -1.3039  0.1917  1.9291
  502MOL0     H69220   7.772   5.772   9.679 -0.5955  0.7515 -0.4070
  502MOL0     H69221   8.035   5.622   9.722  1.8014 -1.1024  4.2811
  502MOL0     H69222   7.882   5.577   9.795  1.6795 -0.8988  0.0125
  502MOL0     H69223   7.872   5.816   9.898 -0.4390  0.2245 -2.3779
  502MOL0     H69224   7.995   5.714   9.959 -3.0304 -0.4489  0.7506
  502MOL0     H69225   8.251   5.758   9.842  0.4212  0.0932  0.3878
  502MOL0     H69226   8.432   6.071   9.710  0.9855 -0.4713  1.1178
  502MOL0     H69227   8.454   5.891   9.719  0.5943  0.5061 -1.9951
  502MOL0     H69228   8.461   6.103   9.916  0.9172  0.9950 -3.0936
  502MOL0     H69229   8.398   5.952   9.981  1.7555  1.2239  0.8463
  502MOL0     H69230   8.672   5.992   9.869 -0.5393  1.6262  1.7488
  502MOL0     H69231   8.617   5.987  10.034  0.7743 -2.0578  1.5616
  502MOL0     H69232   8.595   5.744   9.844 -1.3423  1.0539 -0.5587
  502MOL0     H69233   8.733   5.771   9.960 -0.8359 -0.8896 -0.4178
  502MOL0     H69234   8.656   5.539   9.889 -1.5022  3.6109  0.6943
  502MOL0     H69235   8.689   5.339   9.803 -1.3316  3.5502  0.4869
  502MOL0     H69236   8.611   5.204   9.867 -0.8624  0.2523 -1.6705
  502MOL0     H69237   8.782   5.248   9.921 -0.6725  0.1207 -0.4635
  502MOL0     H69238   8.428   4.896  10.212  0.0486 -0.3366 -0.4196
  502MOL0     H69239   8.455   4.684  10.322  1.8050  0.0691 -3.1557
  502MOL0     H69240   8.425   4.567  10.542  0.9003 -0.4057  0.5335
  502MOL0     H69241   8.523   4.475  10.439 -0.2225  2.0653  0.0978
  502MOL0     H69242   8.490   4.344  10.639  1.2580 -0.1788 -1.3430
  502MOL0     H69243   8.647   4.418  10.662 -0.6404  0.8385  0.5792
  502MOL0     H69244   8.432   4.590  10.779  0.4883 -0.0752  0.9980
  502MOL0     H69245   8.591   4.535  10.841 -0.4246  0.0189  0.1281
  502MOL0     H69246   8.470   4.306  10.887 -0.0811 -0.5157  1.6903
  502MOL0     H69247   8.324   4.374  10.810  0.9092  0.2950 -1.0352
  502MOL0     H69248   8.472   4.471  11.050  1.0760 -1.8345 -1.2673
  502MOL0     H69249   8.329   4.559  10.987  0.0988  0.6800  0.7781
  502MOL0     H69250   8.312   4.254  11.055 -2.0034 -0.9165  1.0597
  502MOL0     H69251   8.187   4.375  11.008  0.5662  0.9628 -0.9021
  502MOL0     H69252   8.352   4.439  11.261  0.2947 -1.9739  0.5804
  502MOL0     H69253   8.289   4.288  11.263  0.4026  0.4586 -0.2172
  502MOL0     H69254   8.129   4.541  11.246  0.4141  1.0008  1.9154
  502MOL0     H69255   8.128   4.435  11.377  2.1562  2.4980  0.3625
  502MOL0     H69256   8.745   4.852  10.594 -0.4682 -1.2505 -0.3896
  502MOL0     H69257   8.690   5.078  10.502  1.7654 -0.5134 -1.8650
  502MOL0     H69258   8.458   5.368  10.305 -0.3983 -1.2495 -0.5098
  502MOL0     H69259   8.448   5.598  10.264 -0.1686  1.3063 -0.6481
  502MOL0     H69260   7.432   5.557   9.259 -2.0758  0.3212  1.2423
  502MOL0     H69261   7.273   5.459   9.106  1.9577 -0.2473  0.8582
  502MOL0     H69262   7.142   5.541   8.628  0.1037 -2.6138  0.8277
  502MOL0     H69263   7.001   5.510   8.439 -2.3494 -1.7090  0.0890
  502MOL0     H69264   6.582   5.450   8.539  1.3169 -0.2558  0.5156
  502MOL0     H69265   6.532   5.581   8.443  0.2891  1.1380  2.5635
  502MOL0     H69266   6.631   5.320   8.315 -0.3396  0.3187 -1.0819
  502MOL0     H69267   6.588   5.460   8.221 -1.1513 -0.6819 -0.5439
  502MOL0     H69268   6.372   5.429   8.402 -1.2279 -0.6101 -0.1106
  502MOL0     H69269   6.370   5.413   8.238  2.0832  2.9307  0.4523
  502MOL0     H69270   6.453   5.181   8.421 -2.0502  2.2927  2.3631
  502MOL0     H69271   6.480   5.172   8.246 -1.0722 -0.6969  0.2870
  502MOL0     H69272   6.067   5.120   8.277 -0.1955  1.2950 -1.8596
  502MOL0     H69273   6.652   5.627   8.653  0.8977  0.9707  2.9839
  502MOL0     H69274   6.774   5.744   8.949 -1.1687 -1.2412 -0.4228
  502MOL0     H69275   6.641   5.652   8.878 -0.6643  0.9005 -0.1236
  502MOL0     H69276   6.772   5.572   8.965  0.2549 -0.8156  0.0721
  503MOL0     O69277   5.195   0.342  11.097 -0.2481  0.0674 -0.4276
  503MOL0     C69278   5.157   0.353  11.213  0.0839 -0.5063 -0.1422
  503MOL0     O69279   5.210   0.292  11.321  0.4360  0.2087 -0.0995
  503MOL0     C69280   5.334   0.244  11.309  0.1827  0.7504  0.0066
  503MOL0     C69281   5.356   0.123  11.236  0.3754  0.4367 -0.8524
  503MOL0     C69282   5.481   0.070  11.226 -0.1367  0.6199  0.1798
  503MOL0     C69283   5.586   0.127  11.299  0.4145 -0.0850  0.0127
  503MOL0     O69284   5.712   0.064  11.288  0.0710 -0.3351 -0.2895
  503MOL0     C69285   5.818   0.148  11.308 -0.0609 -0.0692 -0.0937
  503MOL0     C69286   5.936   0.056  11.279  0.0543  0.0003  0.9892
  503MOL0     C69287   6.070   0.111  11.338 -0.4055 -0.2590 -1.0241
  503MOL0     C69288   6.178   0.011  11.307 -0.4806 -0.6371 -0.0698
  503MOL0     C69289   6.301   0.029  11.384 -0.6077 -0.0422 -0.4290
  503MOL0     C69290   6.407  -0.085  11.384 -0.2659  0.0924  0.7923
  503MOL0     C69291   6.550  -0.028  11.408 -0.1097 -0.1149 -0.1666
  503MOL0     C69292   6.646  -0.115  11.326  0.3524  0.6028  1.1213
  503MOL0     N69293   6.685  -0.236  11.406  0.2726 -0.3028 -0.3822
  503MOL0     C69294   6.731  -0.248  11.539 -0.0482 -0.8768 -0.1610
  503MOL0     C69295   6.731  -0.382  11.567 -0.4048 -0.4412 -0.1001
  503MOL0     C69296   6.777  -0.445  11.699 -0.3699 -0.0015  0.1717
  503MOL0     C69297   6.931  -0.430  11.707 -0.2347 -0.1598  0.2904
  503MOL0     C69298   6.989  -0.493  11.829 -0.3106  0.0940 -0.7521
  503MOL0     C69299   7.141  -0.479  11.831 -0.2295  0.1443 -0.8208
  503MOL0     O69300   7.183  -0.492  11.971 -0.0350 -0.3394 -0.3140
  503MOL0     C69301   7.316  -0.458  12.001  0.3836 -0.3792 -0.3145
  503MOL0     C69302   7.364  -0.463  12.128 -0.5396 -0.7657  0.5373
  503MOL0     C69303   7.503  -0.462  12.153  0.4373 -0.1757 -0.9872
  503MOL0     C69304   7.546  -0.491  12.295 -0.3262  0.9389  0.4083
  503MOL0     C69305   7.593  -0.436  12.054 -0.1607 -0.4066 -0.3503
  503MOL0     C69306   7.738  -0.427  12.075 -0.6075 -0.1495  0.4725
  503MOL0     O69307   7.819  -0.447  11.964 -0.1407  0.1012 -0.3388
  503MOL0     C69308   7.955  -0.465  11.962 -0.0963 -0.0453  0.3002
  503MOL0     C69309   8.051  -0.406  12.053  0.0492  0.2422 -0.1780
  503MOL0     C69310   8.188  -0.433  12.038 -0.0059 -0.1017  0.0882
  503MOL0     C69311   8.244  -0.518  11.941  0.2467  0.4648 -0.5580
  503MOL0     O69312   8.375  -0.559  11.958 -0.4282 -0.8351  0.4037
  503MOL0     C69313   8.390  -0.701  11.952  0.3227  0.9200  0.4985
  503MOL0     C69314   8.516  -0.733  12.035 -0.3306  0.4763 -0.3712
  503MOL0     C69315   8.487  -0.695  12.176  0.0356  0.2092  0.4908
  503MOL0     C69316   8.605  -0.741  12.268 -0.1473  0.2283 -0.0036
  503MOL0     C69317   8.574  -0.729  12.413  0.9938 -0.0378 -0.4465
  503MOL0     C69318   8.589  -0.584  12.452  0.1437  0.3454 -0.3697
  503MOL0     C69319   8.534  -0.577  12.598  0.3081  0.0911  0.4494
  503MOL0     C69320   8.572  -0.444  12.672 -0.5849  0.3650  0.7544
  503MOL0    Cl69321   8.545  -0.455  12.844 -0.1172  0.5842 -1.1215
  503MOL0     C69322   8.152  -0.571  11.847 -0.2438 -0.2083 -0.1174
  503MOL0     C69323   8.011  -0.547  11.861  0.3696 -0.4423  0.3244
  503MOL0     O69324   7.791  -0.393  12.180  0.1734 -0.1785  0.0080
  503MOL0     C69325   7.538  -0.399  11.928 -0.4767  0.0535 -0.1210
  503MOL0     C69326   7.405  -0.426  11.902  0.4375 -0.8503  1.4026
  503MOL0     N69327   6.676  -0.442  11.461 -0.2759 -0.2179 -0.0752
  503MOL0     N69328   6.653  -0.358  11.369  0.1576 -0.6174  0.6676
  503MOL0     C69329   5.559   0.250  11.363 -0.3703  1.0735 -0.4084
  503MOL0     C69330   5.436   0.304  11.374 -0.4359  0.8812  0.4855
  503MOL0     C69331   5.036   0.433  11.227 -0.4820  0.1859 -0.4267
  503MOL0     C69332   4.943   0.424  11.114 -0.0342  0.5137 -0.1151
  503MOL0     C69333   4.826   0.499  11.123  0.1569  0.4571 -0.5583
  503MOL0     C69334   4.805   0.584  11.228 -0.4613  0.7995 -0.0042
  503MOL0     O69335   4.688   0.652  11.217 -0.0476  0.1875  0.0070
  503MOL0     C69336   4.636   0.730  11.326  0.4479  0.0778  0.1627
  503MOL0     C69337   4.570   0.643  11.434  0.0663  0.5853 -0.8440
  503MOL0     C69338   4.460   0.551  11.377  1.4011 -0.1084 -0.7485
  503MOL0     C69339   4.362   0.514  11.488 -0.0496 -0.4685  0.3520
  503MOL0     C69340   4.258   0.627  11.496  0.7115 -0.7152  0.0843
  503MOL0     C69341   4.151   0.687  11.506  0.3128 -0.5952  0.2882
  503MOL0     C69342   4.895   0.587  11.337 -0.6150  0.4740 -0.5253
  503MOL0     C69343   5.007   0.510  11.340  0.8432  0.3212 -0.2465
  503MOL0     C69344   5.103   0.532  11.453  0.0481 -0.2911  0.6336
  503MOL0     H69345   5.266   0.082  11.191  0.1552  0.4650 -0.4430
  503MOL0     H69346   5.492  -0.022  11.170 -0.9430 -0.1006  1.1667
  503MOL0     H69347   5.818   0.201  11.404 -1.5970  1.6564 -0.9834
  503MOL0     H69348   5.822   0.220  11.226 -0.3170 -0.1287 -0.1564
  503MOL0     H69349   5.919  -0.048  11.308  0.7144 -0.2575  0.4739
  503MOL0     H69350   5.945   0.064  11.171 -0.3795 -1.1381  0.8526
  503MOL0     H69351   6.090   0.212  11.303  1.4063 -0.2272 -0.0540
  503MOL0     H69352   6.048   0.118  11.445 -1.1967 -0.4084 -1.1748
  503MOL0     H69353   6.139  -0.078  11.357 -2.9930  0.0515 -0.6589
  503MOL0     H69354   6.199   0.009  11.200  1.1786  0.0069  0.2130
  503MOL0     H69355   6.274   0.046  11.489 -1.0207 -0.9628 -0.3750
  503MOL0     H69356   6.345   0.122  11.346  1.0766 -0.7307 -0.2536
  503MOL0     H69357   6.382  -0.169  11.450  0.6377 -1.2003 -0.4763
  503MOL0     H69358   6.402  -0.134  11.287  5.6664  0.0458  0.1534
  503MOL0     H69359   6.575  -0.012  11.513 -3.7768 -0.0910  0.8528
  503MOL0     H69360   6.550   0.075  11.371 -2.3067  0.9784  2.5585
  503MOL0     H69361   6.601  -0.146  11.231  2.6850  1.5607 -0.3845
  503MOL0     H69362   6.740  -0.064  11.303 -0.3321  1.2907 -0.2596
  503MOL0     H69363   6.773  -0.166  11.596 -0.2825 -1.7996  1.4121
  503MOL0     H69364   6.750  -0.551  11.702 -2.0205  0.3966  0.7804
  503MOL0     H69365   6.730  -0.399  11.787 -1.8466 -1.2645  0.0953
  503MOL0     H69366   6.980  -0.474  11.620 -0.7381 -0.5851  0.2208
  503MOL0     H69367   6.957  -0.323  11.709 -0.3440  0.0043 -2.5491
  503MOL0     H69368   6.952  -0.441  11.918  1.5507 -1.3797  0.9672
  503MOL0     H69369   6.956  -0.596  11.843  1.1411 -0.3189 -0.2825
  503MOL0     H69370   7.192  -0.569  11.796 -1.8338 -1.2708  0.3420
  503MOL0     H69371   7.170  -0.387  11.779  2.1822  0.3929  0.7909
  503MOL0     H69372   7.294  -0.488  12.208  1.5523 -1.7270  2.1712
  503MOL0     H69373   7.607  -0.410  12.337 -1.8180  2.8736 -0.9263
  503MOL0     H69374   7.600  -0.585  12.307 -0.3357  0.7712 -0.7937
  503MOL0     H69375   7.458  -0.500  12.360  1.2328 -1.1226  2.3961
  503MOL0     H69376   8.013  -0.333  12.123  0.2774  1.8052 -1.6220
  503MOL0     H69377   8.267  -0.388  12.099 -0.5834 -0.9954  1.5486
  503MOL0     H69378   8.300  -0.740  12.001 -0.0010  1.7812  0.6090
  503MOL0     H69379   8.393  -0.744  11.852 -1.0616 -2.2594  1.7084
  503MOL0     H69380   8.521  -0.842  12.037 -2.8089  0.2958  2.4283
  503MOL0     H69381   8.604  -0.685  11.990 -0.6720  1.0934 -0.4020
  503MOL0     H69382   8.397  -0.746  12.213 -1.6617  2.8837  0.3801
  503MOL0     H69383   8.464  -0.588  12.178 -1.2905 -0.0472  0.2355
  503MOL0     H69384   8.690  -0.676  12.249 -1.5386  1.4778 -2.4012
  503MOL0     H69385   8.628  -0.844  12.241 -0.9775 -0.1585  0.6860
  503MOL0     H69386   8.476  -0.761  12.449  2.1676 -0.3667  2.7782
  503MOL0     H69387   8.647  -0.790  12.467  1.1672 -0.7967 -1.5046
  503MOL0     H69388   8.526  -0.525  12.385 -0.8620  0.7582  0.9053
  503MOL0     H69389   8.691  -0.545  12.448  0.3972 -0.2926 -0.2551
  503MOL0     H69390   8.575  -0.660  12.656  0.7495  0.0479  0.0781
  503MOL0     H69391   8.427  -0.599  12.599  0.5254 -2.2742 -4.1118
  503MOL0     H69392   8.520  -0.361  12.623  1.0907  2.4107  2.2763
  503MOL0     H69393   8.680  -0.427  12.664 -0.5661  0.7806  1.7726
  503MOL0     H69394   8.171  -0.649  11.775 -0.2012 -3.8130  3.4681
  503MOL0     H69395   7.939  -0.588  11.791  0.4022  0.5744 -0.3311
  503MOL0     H69396   7.603  -0.369  11.847 -1.0211 -1.0508 -0.9872
  503MOL0     H69397   7.382  -0.410  11.797  0.9806 -1.7799  1.1293
  503MOL0     H69398   5.641   0.310  11.403 -0.0918  0.6010 -0.2562
  503MOL0     H69399   5.441   0.407  11.410 -1.7888  1.0375  0.2827
  503MOL0     H69400   4.961   0.360  11.028 -1.8951 -1.4706  0.8718
  503MOL0     H69401   4.751   0.501  11.045 -2.1250 -0.6437  1.4625
  503MOL0     H69402   4.712   0.784  11.385 -0.5460  1.3888  0.2774
  503MOL0     H69403   4.569   0.802  11.279  0.9668  2.0778  2.2898
  503MOL0     H69404   4.521   0.698  11.515  1.0989 -3.0189  2.5514
  503MOL0     H69405   4.647   0.588  11.487  2.2515  1.6571 -2.7248
  503MOL0     H69406   4.407   0.598  11.293 -2.4948  0.8542  1.9927
  503MOL0     H69407   4.501   0.458  11.337  0.4686 -1.8716  2.1517
  503MOL0     H69408   4.412   0.515  11.585  1.1798  1.5305 -0.2389
  503MOL0     H69409   4.308   0.422  11.465 -0.7250  0.1291 -0.5504
  503MOL0     H69410   4.059   0.742  11.514  1.4531  1.6282 -0.8859
  503MOL0     H69411   4.879   0.640  11.430  0.0994 -0.1386 -0.0388
  503MOL0     H69412   5.089   0.460  11.535  0.0302 -0.6106  0.3503
  503MOL0     H69413   5.200   0.526  11.403 -0.4697  0.1801 -0.4472
  503MOL0     H69414   5.090   0.631  11.497 -1.5719 -1.3934  2.8700
  504MOL0     O69415   1.681  10.090   1.511 -0.2554  0.0363 -0.1607
  504MOL0     C69416   1.642  10.014   1.598 -0.3225 -0.4983 -1.1553
  504MOL0     O69417   1.693   9.888   1.620  0.1941 -0.4179 -0.6575
  504MOL0     C69418   1.821   9.855   1.598  0.1603 -0.1613 -0.3681
  504MOL0     C69419   1.927   9.941   1.600  0.3539  0.4289 -0.6349
  504MOL0     C69420   2.059   9.897   1.570 -0.1552 -0.3106  0.3520
  504MOL0     C69421   2.084   9.765   1.523 -0.0595 -0.1690 -0.3786
  504MOL0     O69422   2.195   9.707   1.462 -0.4590  0.4508 -0.1982
  504MOL0     C69423   2.309   9.790   1.455  0.1731  0.3283 -0.2283
  504MOL0     C69424   2.440   9.723   1.430 -0.1087  0.5667 -0.7656
  504MOL0     C69425   2.449   9.656   1.289  0.1056  0.4489 -0.2868
  504MOL0     C69426   2.426   9.504   1.300  0.1255 -0.1241 -0.0972
  504MOL0     C69427   2.555   9.420   1.312 -0.1561  0.1766  0.4445
  504MOL0     C69428   2.626   9.435   1.450 -0.6814  0.1607 -0.0919
  504MOL0     C69429   2.739   9.333   1.470  0.3589 -0.6708  0.4133
  504MOL0     C69430   2.823   9.314   1.341  0.0025  0.4838 -0.9354
  504MOL0     N69431   2.942   9.242   1.375  0.5607 -0.1244 -0.8351
  504MOL0     C69432   3.052   9.280   1.448 -0.5381  1.2888 -0.3487
  504MOL0     C69433   3.139   9.177   1.425 -0.4628 -1.5993  0.1602
  504MOL0     C69434   3.279   9.173   1.491  0.3255 -0.5884  0.3199
  504MOL0     C69435   3.395   9.169   1.392  1.0028  0.3305  0.1411
  504MOL0     C69436   3.407   9.302   1.313  0.1558  0.1711 -0.3443
  504MOL0     C69437   3.525   9.302   1.203 -0.2550 -0.2486  0.0058
  504MOL0     O69438   3.634   9.226   1.247 -0.7607 -0.6010 -0.4743
  504MOL0     C69439   3.732   9.204   1.155 -1.2071 -0.2054 -0.1137
  504MOL0     C69440   3.733   9.250   1.020 -0.0840  0.0719 -0.7371
  504MOL0     C69441   3.833   9.202   0.933 -0.4530 -0.3464 -0.3848
  504MOL0     C69442   3.830   9.253   0.791  0.2953 -0.5920 -0.7180
  504MOL0     C69443   3.932   9.114   0.976  0.3340  0.4638 -0.0414
  504MOL0     C69444   4.049   9.071   0.898  0.1738  1.0234 -0.5975
  504MOL0     O69445   4.171   9.068   0.963  0.1890 -0.3450 -0.7936
  504MOL0     C69446   4.275   8.998   0.917  0.0420 -0.0466 -1.0121
  504MOL0     C69447   4.285   8.898   0.825 -0.6822  0.6306  0.2025
  504MOL0     C69448   4.396   8.818   0.799 -0.3675  0.4963 -0.3775
  504MOL0     C69449   4.511   8.845   0.878  0.1020  0.1038  1.1363
  504MOL0     O69450   4.624   8.773   0.860 -0.5925 -0.2641  0.0578
  504MOL0     C69451   4.650   8.691   0.747 -0.1176  0.0839 -0.8306
  504MOL0     C69452   4.586   8.557   0.756  0.0355  0.0550  0.5322
  504MOL0     C69453   4.621   8.462   0.632 -0.4416 -0.1979  0.5586
  504MOL0     C69454   4.766   8.443   0.574 -1.0947 -0.8799 -0.1774
  504MOL0     C69455   4.810   8.299   0.534 -0.1048 -0.0765  0.0583
  504MOL0     C69456   4.949   8.291   0.458  0.2350 -0.0237  0.7676
  504MOL0     C69457   4.964   8.148   0.400  0.1460  0.6644  0.7996
  504MOL0     C69458   5.088   8.143   0.311  0.2834 -0.3342 -0.1761
  504MOL0    Cl69459   5.236   8.216   0.368 -0.5072 -0.1404 -0.3698
  504MOL0     C69460   4.509   8.947   0.972  0.3428 -0.4152 -1.1352
  504MOL0     C69461   4.391   9.024   0.993  0.2282  0.6440  0.6672
  504MOL0     O69462   4.026   9.030   0.781 -0.1351  0.2603 -0.5275
  504MOL0     C69463   3.924   9.062   1.106  0.1876  0.2435 -0.4957
  504MOL0     C69464   3.833   9.113   1.198 -0.1466 -0.4057  0.9843
  504MOL0     N69465   3.081   9.084   1.344  0.4529  0.2383  0.1259
  504MOL0     N69466   2.962   9.124   1.313  0.4133 -0.1885 -0.0098
  504MOL0     C69467   1.974   9.679   1.535 -0.2505 -0.0708  0.4188
  504MOL0     C69468   1.842   9.723   1.562  0.8471 -0.3433 -0.0491
  504MOL0     C69469   1.514  10.052   1.679 -0.8977 -0.7794 -0.3924
  504MOL0     C69470   1.450   9.953   1.753 -0.3352 -0.6318  0.2137
  504MOL0     C69471   1.333   9.972   1.825 -1.0446 -0.6334 -0.1665
  504MOL0     C69472   1.278  10.101   1.827  0.0269 -0.4837 -0.7565
  504MOL0     O69473   1.181  10.162   1.902  0.0532  0.2488  0.5680
  504MOL0     C69474   1.104  10.095   1.997  0.1121  0.0016  0.3230
  504MOL0     C69475   1.017  10.212   2.057 -1.0214 -0.1965  0.6495
  504MOL0     C69476   0.914  10.147   2.144  0.3753  0.0514  0.1575
  504MOL0     C69477   0.806  10.236   2.212 -0.8680 -0.1176  0.2528
  504MOL0     C69478   0.842  10.371   2.253  1.2027 -0.1149 -0.1610
  504MOL0     C69479   0.875  10.486   2.268 -0.4563  0.1848 -0.0677
  504MOL0     C69480   1.340  10.200   1.751  0.3540 -0.7540 -0.5740
  504MOL0     C69481   1.452  10.178   1.677  0.1550 -0.2567  0.6723
  504MOL0     C69482   1.504  10.303   1.606 -0.5770  0.9605 -0.2175
  504MOL0     H69483   1.915  10.042   1.639 -0.8456  0.8806 -2.0736
  504MOL0     H69484   2.134   9.971   1.546  0.0598 -0.8869 -0.8217
  504MOL0     H69485   2.321   9.834   1.554  0.6548 -1.9054  0.7758
  504MOL0     H69486   2.288   9.867   1.380 -0.2806  1.4583  1.0159
  504MOL0     H69487   2.521   9.797   1.436  0.2133  0.1094  0.7281
  504MOL0     H69488   2.461   9.648   1.506 -1.4210  0.0069 -0.9230
  504MOL0     H69489   2.374   9.707   1.229 -0.6460  0.2193  0.4332
  504MOL0     H69490   2.545   9.679   1.241  0.7656 -1.7397 -0.1399
  504MOL0     H69491   2.373   9.479   1.393  2.5684 -1.4289  1.0393
  504MOL0     H69492   2.370   9.463   1.216 -1.4359 -0.5414  1.0964
  504MOL0     H69493   2.621   9.457   1.233 -0.4406  1.4258  0.7752
  504MOL0     H69494   2.542   9.313   1.292  0.8240  0.2809 -0.9482
  504MOL0     H69495   2.669   9.535   1.441  1.6728 -0.3847  3.3711
  504MOL0     H69496   2.564   9.441   1.540 -0.5810 -1.1131  0.0730
  504MOL0     H69497   2.694   9.237   1.495 -2.8747  0.3216 -1.0428
  504MOL0     H69498   2.805   9.373   1.548  1.2771 -1.0695 -0.1413
  504MOL0     H69499   2.769   9.272   1.256  0.9539  2.6319 -2.6915
  504MOL0     H69500   2.849   9.416   1.315 -2.4167  1.5043  0.3240
  504MOL0     H69501   3.060   9.373   1.502  0.3129  0.4445  1.0375
  504MOL0     H69502   3.293   9.099   1.570  2.1946  0.5280  1.0897
  504MOL0     H69503   3.283   9.270   1.541 -0.4692  1.0026 -2.4643
  504MOL0     H69504   3.479   9.151   1.460  1.4655  1.0145 -0.2495
  504MOL0     H69505   3.382   9.083   1.325  1.4034  1.1687 -1.0413
  504MOL0     H69506   3.316   9.333   1.260  0.6356 -2.0061 -2.6372
  504MOL0     H69507   3.435   9.378   1.386 -1.4393 -1.9229  2.6236
  504MOL0     H69508   3.484   9.264   1.109 -0.4318 -0.7829  0.3010
  504MOL0     H69509   3.558   9.406   1.191 -2.7816  0.5325 -0.9045
  504MOL0     H69510   3.663   9.320   0.975  0.1831  1.0225  0.2890
  504MOL0     H69511   3.749   9.325   0.781  0.2687 -0.6384 -0.8405
  504MOL0     H69512   3.830   9.176   0.713  2.6251 -1.7434  0.3159
  504MOL0     H69513   3.918   9.315   0.771 -0.8397  0.5701 -2.3095
  504MOL0     H69514   4.190   8.883   0.775 -1.1879  1.6064  0.8533
  504MOL0     H69515   4.384   8.748   0.717 -0.0470 -2.0869  1.6623
  504MOL0     H69516   4.620   8.746   0.657 -1.2457 -0.4260 -0.7739
  504MOL0     H69517   4.757   8.667   0.737 -0.0201  0.8915 -1.9900
  504MOL0     H69518   4.619   8.516   0.852  2.8528  0.0248 -0.3314
  504MOL0     H69519   4.477   8.562   0.755 -0.2302 -2.9196 -2.0059
  504MOL0     H69520   4.553   8.488   0.550  0.0823 -0.8508 -0.0920
  504MOL0     H69521   4.587   8.363   0.664  1.7127 -0.6799  1.4999
  504MOL0     H69522   4.835   8.473   0.654 -0.2630  1.6682 -1.7301
  504MOL0     H69523   4.768   8.513   0.491 -0.6436 -0.9703 -0.2431
  504MOL0     H69524   4.809   8.249   0.631 -0.6690  0.2577  0.2311
  504MOL0     H69525   4.741   8.245   0.469  1.6165 -1.8469 -0.3838
  504MOL0     H69526   5.025   8.314   0.533  1.6456 -1.5575 -0.1043
  504MOL0     H69527   4.950   8.369   0.382  1.4066  0.5657  1.3610
  504MOL0     H69528   4.869   8.118   0.353  0.1240 -1.7070  2.2126
  504MOL0     H69529   4.979   8.071   0.476  2.3646  1.0100  0.7675
  504MOL0     H69530   5.060   8.175   0.210 -1.9270  0.2315  0.5751
  504MOL0     H69531   5.120   8.040   0.291  1.0967 -0.2443  0.5952
  504MOL0     H69532   4.580   8.958   1.053 -1.0761 -0.1578  0.1264
  504MOL0     H69533   4.394   9.103   1.067 -1.3916 -1.4292  3.1547
  504MOL0     H69534   3.994   8.994   1.154 -0.5033  0.3107  0.6469
  504MOL0     H69535   3.834   9.078   1.300  1.7967 -1.5435  0.6134
  504MOL0     H69536   2.004   9.578   1.506 -1.3991 -1.0115  2.2937
  504MOL0     H69537   1.767   9.644   1.566  1.1634 -0.6514 -0.1182
  504MOL0     H69538   1.500   9.858   1.738 -0.3777 -0.5979 -0.1559
  504MOL0     H69539   1.282   9.893   1.879 -3.2067 -0.3286 -1.6058
  504MOL0     H69540   1.045  10.016   1.950 -1.3677  0.6617  1.0091
  504MOL0     H69541   1.166  10.053   2.077  0.4488  2.2866  1.3486
  504MOL0     H69542   0.964  10.267   1.978  1.1165  2.5101  0.9134
  504MOL0     H69543   1.086  10.273   2.117 -1.1865  1.0670 -0.3946
  504MOL0     H69544   0.873  10.062   2.088  0.3188  0.7467 -0.8761
  504MOL0     H69545   0.975  10.094   2.218 -0.7314 -1.5408 -0.0155
  504MOL0     H69546   0.785  10.184   2.306  1.4182 -1.3732  0.1159
  504MOL0     H69547   0.712  10.233   2.155 -1.3227 -1.7868  1.0152
  504MOL0     H69548   0.892  10.591   2.278 -2.2484  0.6830 -1.6493
  504MOL0     H69549   1.296  10.299   1.761 -0.7183 -1.3488  0.9456
  504MOL0     H69550   1.506  10.284   1.498 -2.9941 -1.0949 -0.0084
  504MOL0     H69551   1.450  10.396   1.628  0.2756  0.9886  2.0513
  504MOL0     H69552   1.606  10.331   1.633 -0.4577  2.0631 -1.7005
  505MOL0     O69553   9.934   1.809   6.954 -0.9688 -0.3948 -0.2080
  505MOL0     C69554   9.838   1.730   6.965 -0.2438 -0.1901 -0.0814
  505MOL0     O69555   9.841   1.606   7.014  0.9852 -0.4012 -0.2775
  505MOL0     C69556   9.960   1.559   7.048  0.4798 -0.0685  0.3201
  505MOL0     C69557  10.031   1.603   7.165 -0.6107  0.5824 -0.0226
  505MOL0     C69558  10.151   1.545   7.193  0.0706 -0.4067  0.1054
  505MOL0     C69559  10.217   1.460   7.102 -0.4380 -0.5216  1.4472
  505MOL0     O69560  10.332   1.399   7.134  0.2196  0.1204  0.3300
  505MOL0     C69561  10.329   1.326   7.261  0.3644  0.4517  0.4713
  505MOL0     C69562  10.386   1.187   7.245 -0.1046 -0.3999 -0.4224
  505MOL0     C69563  10.315   1.112   7.355 -1.0040 -0.1966 -0.0276
  505MOL0     C69564  10.373   0.974   7.375 -0.0059 -0.2209  0.2672
  505MOL0     C69565  10.286   0.873   7.451  0.9137  0.5636  0.0300
  505MOL0     C69566  10.347   0.730   7.446  0.0552  0.8771 -0.1388
  505MOL0     C69567  10.246   0.637   7.519 -0.1623 -0.1594 -0.6478
  505MOL0     C69568  10.131   0.625   7.424 -1.1034 -0.9311  0.4408
  505MOL0     N69569  10.031   0.535   7.485  0.3102 -0.1120 -0.2625
  505MOL0     C69570  10.043   0.397   7.494 -1.1098  0.1881  0.2575
  505MOL0     C69571   9.924   0.355   7.538 -0.1705  1.1905  0.0614
  505MOL0     C69572   9.871   0.214   7.550  0.3200  0.1277 -1.2105
  505MOL0     C69573   9.715   0.225   7.568 -0.4552 -0.0592 -0.6558
  505MOL0     C69574   9.676   0.090   7.622 -0.3572  0.5633  0.8755
  505MOL0     C69575   9.525   0.079   7.646 -0.5811  0.1407 -0.1325
  505MOL0     O69576   9.453   0.120   7.536  0.2794 -0.2589 -0.1138
  505MOL0     C69577   9.314   0.104   7.521 -0.4245  0.0895  0.0931
  505MOL0     C69578   9.230   0.071   7.635  0.3114 -0.4273  1.0170
  505MOL0     C69579   9.091   0.070   7.621  0.0636  0.4203 -0.9935
  505MOL0     C69580   9.011   0.045   7.743  0.9821  0.7852 -0.5039
  505MOL0     C69581   9.034   0.101   7.494 -1.0578  0.5546  1.2347
  505MOL0     C69582   8.891   0.104   7.461  0.2314 -0.5374  0.2690
  505MOL0     O69583   8.807   0.105   7.566  0.0997  0.6433  0.6166
  505MOL0     C69584   8.681   0.060   7.541 -0.2026  0.5227 -0.2007
  505MOL0     C69585   8.623   0.002   7.428 -0.2465 -0.5101 -0.0966
  505MOL0     C69586   8.485  -0.023   7.422  0.4499  0.3592 -0.2797
  505MOL0     C69587   8.403  -0.015   7.532 -1.0580 -1.2720 -0.6148
  505MOL0     O69588   8.265  -0.041   7.533 -0.2858  0.8460  0.6023
  505MOL0     C69589   8.219  -0.122   7.429  0.4523 -0.5546 -0.1540
  505MOL0     C69590   8.069  -0.147   7.452  0.7420 -0.2215  0.3196
  505MOL0     C69591   8.006  -0.208   7.331 -0.4131 -0.1786  0.2906
  505MOL0     C69592   7.881  -0.289   7.352  0.0182  0.4014 -0.4580
  505MOL0     C69593   7.824  -0.352   7.224 -1.2022  0.3484 -0.4073
  505MOL0     C69594   7.748  -0.485   7.233 -0.0187 -0.3108  0.4983
  505MOL0     C69595   7.719  -0.543   7.095 -0.1643 -0.5129 -0.3980
  505MOL0     C69596   7.659  -0.682   7.105 -0.3850  0.6034 -0.3516
  505MOL0    Cl69597   7.517  -0.698   7.214 -0.0853  0.3449  0.6895
  505MOL0     C69598   8.458   0.042   7.648 -0.1159  0.1724  1.0639
  505MOL0     C69599   8.597   0.074   7.648 -0.0480  0.4240  0.0592
  505MOL0     O69600   8.853   0.137   7.348  0.1199  0.2940  0.5741
  505MOL0     C69601   9.118   0.126   7.386 -0.7386 -0.0028 -0.1776
  505MOL0     C69602   9.260   0.126   7.398  0.5587 -0.1141  0.7959
  505MOL0     N69603   9.836   0.459   7.550  0.3410 -0.3574  0.2094
  505MOL0     N69604   9.900   0.566   7.513  0.1552  0.0156 -0.3430
  505MOL0     C69605  10.151   1.415   6.988  0.3972  0.1132 -0.5369
  505MOL0     C69606  10.020   1.457   6.964  0.1029 -0.1111  0.4121
  505MOL0     C69607   9.705   1.787   6.919 -0.7409  0.0197  0.4808
  505MOL0     C69608   9.696   1.914   6.853  0.6373 -0.0684 -0.2658
  505MOL0     C69609   9.572   1.970   6.817  0.9137  0.0427  0.8755
  505MOL0     C69610   9.453   1.897   6.835 -0.6245  0.5078 -0.0771
  505MOL0     O69611   9.337   1.960   6.799  0.6508 -0.0484  0.3782
  505MOL0     C69612   9.215   1.876   6.784 -0.1853 -0.1093  0.2834
  505MOL0     C69613   9.139   1.876   6.921 -0.0895 -0.4175 -0.5768
  505MOL0     C69614   9.071   2.019   6.946 -0.2571  0.5055 -0.4503
  505MOL0     C69615   9.001   2.016   7.085 -0.1307  0.8300 -0.5835
  505MOL0     C69616   9.004   2.156   7.140 -0.6141  0.1254  0.5298
  505MOL0     C69617   9.018   2.265   7.192 -0.6458  0.4636  0.9001
  505MOL0     C69618   9.459   1.770   6.889  0.3868  1.3080 -0.0250
  505MOL0     C69619   9.580   1.717   6.940  0.6184  0.0515  0.1230
  505MOL0     C69620   9.580   1.578   7.002  0.4928 -0.1079  0.9917
  505MOL0     H69621   9.994   1.681   7.231 -0.0403  1.0927 -0.2884
  505MOL0     H69622  10.185   1.578   7.291 -0.9571  1.2623 -0.0724
  505MOL0     H69623  10.224   1.325   7.293 -0.4568  0.1697 -1.9827
  505MOL0     H69624  10.385   1.376   7.340  3.2457  1.2369 -1.8865
  505MOL0     H69625  10.369   1.142   7.147 -1.0160  0.9350 -0.9022
  505MOL0     H69626  10.491   1.180   7.276 -0.5645 -3.1007  0.7827
  505MOL0     H69627  10.309   1.170   7.447 -0.0942  0.1618 -0.1844
  505MOL0     H69628  10.208   1.106   7.333 -1.2217 -0.3076  1.0208
  505MOL0     H69629  10.384   0.933   7.275 -0.2333 -1.0305  0.5641
  505MOL0     H69630  10.477   0.971   7.407  0.1126 -2.5786 -0.1654
  505MOL0     H69631  10.190   0.872   7.398  1.3686 -2.4239 -0.9543
  505MOL0     H69632  10.270   0.911   7.553 -1.9494  0.7891 -0.4132
  505MOL0     H69633  10.368   0.698   7.344 -1.0213  2.2559 -0.8199
  505MOL0     H69634  10.446   0.729   7.493 -1.1828  0.6890  2.7197
  505MOL0     H69635  10.212   0.685   7.611  0.4128 -1.2284  0.1417
  505MOL0     H69636  10.289   0.539   7.540 -2.8766 -1.3559 -0.3163
  505MOL0     H69637  10.077   0.720   7.413 -2.0948 -1.5833 -0.5785
  505MOL0     H69638  10.171   0.623   7.322  1.6454  4.9282  0.9835
  505MOL0     H69639  10.123   0.326   7.476 -0.4841  0.8815  0.2500
  505MOL0     H69640   9.917   0.171   7.640 -0.9809  0.4217 -0.3768
  505MOL0     H69641   9.887   0.156   7.458  0.5647 -0.5825 -0.7341
  505MOL0     H69642   9.703   0.295   7.652  2.8090 -1.7122  1.3956
  505MOL0     H69643   9.663   0.259   7.478 -0.1049 -2.4251 -1.8120
  505MOL0     H69644   9.715   0.016   7.552  4.4739  1.6046  2.1281
  505MOL0     H69645   9.718   0.070   7.721 -1.7716 -0.8598  1.2288
  505MOL0     H69646   9.506  -0.026   7.670  0.6842  0.1970  1.2727
  505MOL0     H69647   9.501   0.143   7.731 -0.0477 -0.3713  0.4149
  505MOL0     H69648   9.281   0.057   7.730  2.8734  2.1382  0.1510
  505MOL0     H69649   8.951   0.133   7.766 -2.7255 -2.1353  2.0281
  505MOL0     H69650   9.075   0.031   7.831 -1.4494  2.0629  1.5909
  505MOL0     H69651   8.940  -0.037   7.730  1.3614  0.4235 -0.3105
  505MOL0     H69652   8.684  -0.015   7.340 -0.4377  1.4196 -0.6580
  505MOL0     H69653   8.446  -0.055   7.326  1.0551 -2.4405  0.3278
  505MOL0     H69654   8.228  -0.055   7.343 -0.3961 -2.9803 -2.2852
  505MOL0     H69655   8.283  -0.211   7.417  1.5889  0.2911 -0.5881
  505MOL0     H69656   8.065  -0.220   7.533 -0.7274  0.0741  0.5505
  505MOL0     H69657   8.015  -0.058   7.486  3.4765  0.2811  3.9522
  505MOL0     H69658   8.082  -0.279   7.296  0.3602  0.1425  1.2685
  505MOL0     H69659   8.000  -0.131   7.255  0.1788  0.1881  0.6096
  505MOL0     H69660   7.802  -0.232   7.403 -0.8720 -0.4108 -0.8863
  505MOL0     H69661   7.910  -0.365   7.425  4.8769  1.1057 -1.3567
  505MOL0     H69662   7.774  -0.280   7.158 -0.8586  0.6056 -0.3860
  505MOL0     H69663   7.918  -0.378   7.174 -0.6512  1.1354  0.1994
  505MOL0     H69664   7.660  -0.467   7.296  0.1561  2.4719  0.0637
  505MOL0     H69665   7.810  -0.559   7.285 -1.1070 -1.1966  0.5988
  505MOL0     H69666   7.812  -0.548   7.038  1.0067 -2.9686  1.4931
  505MOL0     H69667   7.659  -0.473   7.036  1.7498  2.6955  1.2026
  505MOL0     H69668   7.737  -0.748   7.145  1.0368  1.4398 -1.6305
  505MOL0     H69669   7.640  -0.703   6.999  0.4533 -0.7154 -0.2716
  505MOL0     H69670   8.400   0.053   7.739 -0.9372  2.9254  0.3051
  505MOL0     H69671   8.640   0.127   7.732  0.2799  1.5658 -0.8071
  505MOL0     H69672   9.078   0.154   7.289  0.7503  0.0450 -0.8067
  505MOL0     H69673   9.333   0.146   7.320  1.2651 -0.8697  1.2573
  505MOL0     H69674  10.179   1.329   6.928  1.1891 -0.7867  1.0506
  505MOL0     H69675   9.960   1.414   6.885  0.7131 -2.1777  0.9887
  505MOL0     H69676   9.777   1.978   6.819 -0.5216  0.4215 -2.2577
  505MOL0     H69677   9.558   2.068   6.773  0.5259 -0.3504  0.1068
  505MOL0     H69678   9.146   1.916   6.709  2.2843  1.8983 -1.1016
  505MOL0     H69679   9.226   1.769   6.765 -7.8052 -1.3083 -0.4527
  505MOL0     H69680   9.205   1.852   7.005 -0.5115  3.3248  1.0185
  505MOL0     H69681   9.057   1.805   6.907  1.3029 -2.0882 -0.6281
  505MOL0     H69682   9.144   2.099   6.937 -1.1415  1.4207  0.3105
  505MOL0     H69683   8.987   2.026   6.876 -1.5279 -4.4412  0.1965
  505MOL0     H69684   9.063   1.962   7.157 -1.6840  1.5456  1.4032
  505MOL0     H69685   8.903   1.966   7.089  0.5183 -0.4020  0.9125
  505MOL0     H69686   9.043   2.354   7.245 -3.0020  1.3042  0.7331
  505MOL0     H69687   9.375   1.702   6.901 -1.2183  3.3572  1.0492
  505MOL0     H69688   9.483   1.531   7.019  0.9809 -1.6550 -0.2669
  505MOL0     H69689   9.627   1.505   6.936 -1.4674  1.4097 -2.3635
  505MOL0     H69690   9.612   1.588   7.106 -0.4432  3.5019  1.0801
  506MOL0     O69691   3.607   9.788   7.155 -0.3813  0.7299 -0.2840
  506MOL0     C69692   3.524   9.703   7.133  0.3892  0.6801  0.4550
  506MOL0     O69693   3.554   9.570   7.090  0.1554 -0.2238  0.2872
  506MOL0     C69694   3.684   9.512   7.114  0.1117 -0.4520 -0.3136
  506MOL0     C69695   3.805   9.582   7.097 -0.3127  0.8910 -0.2140
  506MOL0     C69696   3.920   9.510   7.130  0.2144 -0.3018  0.1714
  506MOL0     C69697   3.917   9.378   7.184  0.0247 -0.3078 -0.1410
  506MOL0     O69698   4.042   9.321   7.223  0.0698 -0.7863 -0.3767
  506MOL0     C69699   4.048   9.178   7.231 -0.2921 -0.5924  0.1631
  506MOL0     C69700   4.200   9.145   7.231  0.3466  0.6518 -0.9725
  506MOL0     C69701   4.272   9.152   7.092 -0.7638 -0.0418  0.0989
  506MOL0     C69702   4.329   9.289   7.056 -0.6922  0.8343  0.0402
  506MOL0     C69703   4.446   9.336   7.144  0.2891 -0.2792 -0.0854
  506MOL0     C69704   4.495   9.475   7.085  0.3488  0.4953 -0.7222
  506MOL0     C69705   4.632   9.529   7.146 -0.5492 -0.3412 -0.0339
  506MOL0     C69706   4.683   9.654   7.058 -0.9427 -0.4356 -0.1912
  506MOL0     N69707   4.803   9.706   7.121  1.1273  0.1706 -0.1957
  506MOL0     C69708   4.805   9.815   7.212  0.0128 -0.4531  0.1344
  506MOL0     C69709   4.943   9.824   7.243  0.5651 -0.0672  0.6312
  506MOL0     C69710   4.998   9.932   7.347  0.5037 -0.4835  0.4372
  506MOL0     C69711   5.134   9.978   7.314 -0.5732  0.4211  0.3980
  506MOL0     C69712   5.202  10.051   7.422 -0.1319  0.0168  0.4781
  506MOL0     C69713   5.309  10.140   7.368 -0.1973 -0.0223  0.3762
  506MOL0     O69714   5.350  10.214   7.480 -0.0519 -0.1064  0.8257
  506MOL0     C69715   5.447  10.318   7.482 -0.5533  0.4164  0.0093
  506MOL0     C69716   5.489  10.372   7.365  0.2907 -0.2052 -0.3146
  506MOL0     C69717   5.603  10.460   7.362 -0.0104  0.4271 -0.3890
  506MOL0     C69718   5.645  10.524   7.229 -0.2987  0.3539 -0.6312
  506MOL0     C69719   5.680  10.482   7.478  0.7871  0.1252 -1.2076
  506MOL0     C69720   5.807  10.569   7.481  0.4633  0.1821  0.0162
  506MOL0     O69721   5.823  10.618   7.607  0.3496 -0.2676  0.4538
  506MOL0     C69722   5.922  10.703   7.649 -1.4825 -0.7182  0.8173
  506MOL0     C69723   5.890  10.788   7.763 -0.4502  0.3229 -0.0194
  506MOL0     C69724   5.975  10.883   7.812  0.0439  0.2262  0.0387
  506MOL0     C69725   6.101  10.897   7.754 -0.7816 -0.4091 -0.0148
  506MOL0     O69726   6.190  10.988   7.813 -0.3131  0.2411 -0.2505
  506MOL0     C69727   6.327  10.998   7.785  0.1775  0.2138 -0.0815
  506MOL0     C69728   6.390  11.112   7.856 -0.3679  0.2922  0.3793
  506MOL0     C69729   6.539  11.115   7.825  0.3102  0.1186  0.8469
  506MOL0     C69730   6.612  11.245   7.874  0.4558 -0.2383 -0.0025
  506MOL0     C69731   6.769  11.241   7.877 -0.1191 -0.5166 -0.4843
  506MOL0     C69732   6.822  11.194   7.742  0.5782 -0.0243 -0.0079
  506MOL0     C69733   6.975  11.169   7.728  0.7007 -0.3510  0.0506
  506MOL0     C69734   7.018  11.208   7.592  0.1680  0.8461 -0.5082
  506MOL0    Cl69735   7.061  11.390   7.579  0.0552 -0.1038 -0.1103
  506MOL0     C69736   6.139  10.803   7.655 -0.9666 -0.3568  0.1018
  506MOL0     C69737   6.053  10.713   7.596  0.3936  0.0542  0.5710
  506MOL0     O69738   5.875  10.603   7.386 -0.2540 -0.4040 -0.3866
  506MOL0     C69739   5.636  10.421   7.600  0.7233  0.2481 -0.3788
  506MOL0     C69740   5.517  10.351   7.602  0.1109  0.1481  0.6523
  506MOL0     N69741   5.010   9.719   7.176  0.1324 -0.1136 -0.1543
  506MOL0     N69742   4.927   9.668   7.089 -0.4466 -0.0343 -0.3257
  506MOL0     C69743   3.799   9.310   7.195 -0.4177 -0.2286 -0.3801
  506MOL0     C69744   3.680   9.377   7.161 -0.3227  0.8208  0.4102
  506MOL0     C69745   3.381   9.753   7.134  1.8106 -0.0448 -0.1145
  506MOL0     C69746   3.355   9.877   7.206  0.1947 -0.1748  1.1325
  506MOL0     C69747   3.227   9.932   7.206  0.2134 -0.0055 -0.2207
  506MOL0     C69748   3.120   9.861   7.154  0.4438  0.9625  0.7967
  506MOL0     O69749   2.981   9.894   7.149  0.1985  0.6831  0.1136
  506MOL0     C69750   2.937  10.006   7.225 -0.1860  0.6447 -0.9863
  506MOL0     C69751   2.789  10.039   7.203  0.0841 -0.4570 -0.1849
  506MOL0     C69752   2.738  10.167   7.265  0.4616 -0.4865 -0.4246
  506MOL0     C69753   2.689  10.152   7.412 -1.5105 -0.2512 -0.6717
  506MOL0     C69754   2.784  10.109   7.512  0.3685  0.3730  0.5998
  506MOL0     C69755   2.876  10.074   7.590 -0.5016  0.0351 -0.7521
  506MOL0     C69756   3.144   9.741   7.087  0.0108  0.2889  0.3398
  506MOL0     C69757   3.263   9.673   7.099  0.5270 -0.2519  0.5975
  506MOL0     C69758   3.276   9.536   7.039 -0.3459 -0.1035  0.0742
  506MOL0     H69759   3.812   9.685   7.063  0.9958  0.1555 -2.3891
  506MOL0     H69760   4.016   9.556   7.108  1.0583 -2.3313 -0.6370
  506MOL0     H69761   3.989   9.130   7.153  2.4544 -1.1500 -1.7058
  506MOL0     H69762   4.005   9.149   7.328  0.8463  1.7581  1.4455
  506MOL0     H69763   4.253   9.202   7.307  0.8082  2.1054 -2.3306
  506MOL0     H69764   4.195   9.037   7.247  2.6680  0.3741 -1.6977
  506MOL0     H69765   4.360   9.088   7.105  0.3281  1.4603  0.3485
  506MOL0     H69766   4.213   9.115   7.007  2.9221 -0.2917 -2.6234
  506MOL0     H69767   4.375   9.295   6.957 -3.0523 -0.4200 -1.2373
  506MOL0     H69768   4.253   9.367   7.064 -0.3721  0.9826  2.1461
  506MOL0     H69769   4.533   9.270   7.135  2.5079  2.5260 -0.7236
  506MOL0     H69770   4.417   9.347   7.249 -0.9530 -0.6931 -0.3680
  506MOL0     H69771   4.507   9.463   6.977 -1.4167  3.7547 -1.4296
  506MOL0     H69772   4.411   9.545   7.095 -1.7029 -1.8148 -0.7617
  506MOL0     H69773   4.709   9.452   7.157 -0.0957 -0.1639 -1.6530
  506MOL0     H69774   4.606   9.565   7.246 -1.7056  1.2953 -0.8794
  506MOL0     H69775   4.705   9.626   6.954  1.4958  0.2317  0.0824
  506MOL0     H69776   4.607   9.732   7.061 -1.3352 -0.6480 -2.5235
  506MOL0     H69777   4.729   9.882   7.251  0.5089  1.1502 -1.5204
  506MOL0     H69778   4.998   9.895   7.450 -2.1930  1.3606  1.1938
  506MOL0     H69779   4.944  10.026   7.333  1.1631 -0.1953 -0.2698
  506MOL0     H69780   5.195   9.891   7.288  0.3772  0.4368  2.3636
  506MOL0     H69781   5.118  10.033   7.222  0.5916 -0.0461 -0.1124
  506MOL0     H69782   5.132  10.114   7.479  0.3397 -1.6805  3.0982
  506MOL0     H69783   5.240   9.975   7.491 -0.7385 -0.3321  0.4328
  506MOL0     H69784   5.384  10.072   7.327  1.7277  2.3798 -0.3237
  506MOL0     H69785   5.289  10.201   7.280  0.6891  0.1239  0.2732
  506MOL0     H69786   5.451  10.339   7.269  1.4084 -1.0113 -0.5026
  506MOL0     H69787   5.649  10.632   7.243 -0.7486  0.2907 -0.0147
  506MOL0     H69788   5.572  10.503   7.150  1.3996  1.8504 -2.7367
  506MOL0     H69789   5.740  10.489   7.187  0.2624  3.6080 -2.4106
  506MOL0     H69790   5.789  10.797   7.800 -1.2217  1.3415 -2.2002
  506MOL0     H69791   5.956  10.957   7.890 -2.0106 -0.5246  0.3046
  506MOL0     H69792   6.381  10.905   7.808 -0.1129  0.1792  0.4808
  506MOL0     H69793   6.337  11.014   7.678  2.8893  1.7383  0.3167
  506MOL0     H69794   6.354  11.204   7.808  2.3639  0.5740 -1.3648
  506MOL0     H69795   6.363  11.106   7.962 -3.5859  0.0115 -0.3449
  506MOL0     H69796   6.549  11.098   7.718 -0.6325 -0.4435  0.8283
  506MOL0     H69797   6.579  11.021   7.866 -0.4139  0.4179  2.3149
  506MOL0     H69798   6.567  11.277   7.968 -0.9738 -2.2555  0.0509
  506MOL0     H69799   6.587  11.317   7.796 -2.0791 -0.5355  0.4685
  506MOL0     H69800   6.798  11.345   7.892  2.3439 -0.9372 -1.7956
  506MOL0     H69801   6.795  11.169   7.956 -1.3137  0.4295  0.8255
  506MOL0     H69802   6.801  11.277   7.674 -0.3475  1.6001  2.1400
  506MOL0     H69803   6.772  11.106   7.700  1.1549 -0.1070 -0.5436
  506MOL0     H69804   7.000  11.064   7.749  1.6325 -0.0587  0.4144
  506MOL0     H69805   7.019  11.240   7.798  0.3892  0.4089 -0.5028
  506MOL0     H69806   6.940  11.177   7.522 -0.7009 -1.7776  1.4643
  506MOL0     H69807   7.106  11.151   7.561  0.0932 -0.1587  1.0133
  506MOL0     H69808   6.237  10.810   7.609 -0.3212 -0.1523  1.4591
  506MOL0     H69809   6.082  10.656   7.508  1.7727  0.2405  0.8829
  506MOL0     H69810   5.701  10.429   7.686 -0.0689  0.6372  0.1949
  506MOL0     H69811   5.489  10.305   7.696 -2.5834 -1.1056 -0.6603
  506MOL0     H69812   3.794   9.212   7.242 -3.9215  0.7067  1.5408
  506MOL0     H69813   3.580   9.338   7.169  0.0171 -0.4734 -1.2282
  506MOL0     H69814   3.444   9.930   7.237  1.3461 -0.1770 -1.8461
  506MOL0     H69815   3.211  10.028   7.253 -0.1449 -1.5944  3.1594
  506MOL0     H69816   2.958   9.991   7.331 -1.3266  0.9033 -0.7104
  506MOL0     H69817   3.000  10.093   7.203  0.4299  0.3688 -0.3499
  506MOL0     H69818   2.730   9.952   7.233  1.8867 -1.6709 -0.0167
  506MOL0     H69819   2.784  10.060   7.095  1.4606  4.1410  0.3989
  506MOL0     H69820   2.815  10.244   7.254  0.7403 -0.6986  0.0076
  506MOL0     H69821   2.650  10.203   7.210  0.1355 -0.0642  0.3464
  506MOL0     H69822   2.604  10.083   7.419 -2.3453  0.7502 -0.6105
  506MOL0     H69823   2.665  10.251   7.451 -0.4106 -0.4256  0.5192
  506MOL0     H69824   2.943  10.040   7.666  0.7972  2.0378 -0.9449
  506MOL0     H69825   3.061   9.685   7.043  0.1998  0.4032 -0.1721
  506MOL0     H69826   3.182   9.488   7.010 -1.3693  1.3431  0.8758
  506MOL0     H69827   3.327   9.548   6.943 -4.7364  1.9907 -2.2848
  506MOL0     H69828   3.338   9.469   7.100  4.7437  2.5018 -1.5910
  507MOL0     O69829   4.013   8.700   3.191 -0.2617  0.3456  0.0712
  507MOL0     C69830   4.006   8.819   3.164 -0.4886 -0.1857  0.6446
  507MOL0     O69831   4.106   8.908   3.169  0.2929  0.0231 -0.0493
  507MOL0     C69832   4.225   8.853   3.213 -0.1032  1.3891  0.6454
  507MOL0     C69833   4.339   8.860   3.123 -0.6118  0.4603  0.2527
  507MOL0     C69834   4.460   8.812   3.169  0.1258 -0.3389  0.2838
  507MOL0     C69835   4.470   8.757   3.300 -0.3555  0.0517  0.3144
  507MOL0     O69836   4.590   8.705   3.355  0.1121 -0.0805 -0.4877
  507MOL0     C69837   4.720   8.733   3.295  0.2062  0.5928  0.2830
  507MOL0     C69838   4.824   8.653   3.381 -0.1707 -0.7722  0.3303
  507MOL0     C69839   4.922   8.749   3.457 -0.5069 -0.7045 -0.7398
  507MOL0     C69840   4.979   8.667   3.574 -0.0353  0.4313 -0.8537
  507MOL0     C69841   5.100   8.730   3.639  0.2047 -0.5184  0.6590
  507MOL0     C69842   5.153   8.627   3.738  1.2489  0.3883  0.3013
  507MOL0     C69843   5.287   8.671   3.801  0.4410 -0.5236 -0.0169
  507MOL0     C69844   5.316   8.594   3.929  0.4816 -0.0930  0.7457
  507MOL0     N69845   5.452   8.620   3.985  0.1724  0.1277  0.8844
  507MOL0     C69846   5.562   8.544   3.967 -0.3640 -0.3221 -0.3661
  507MOL0     C69847   5.670   8.622   4.004 -0.1444 -0.5554  0.6551
  507MOL0     C69848   5.817   8.600   4.031 -0.0137 -0.4175 -0.1607
  507MOL0     C69849   5.888   8.553   3.901 -0.3287 -0.1915 -0.3771
  507MOL0     C69850   6.025   8.488   3.932 -0.5270 -0.1475 -0.0939
  507MOL0     C69851   6.124   8.600   3.973  0.9961 -0.9959 -0.1068
  507MOL0     O69852   6.178   8.679   3.870 -0.6853 -1.0266 -0.3690
  507MOL0     C69853   6.291   8.759   3.904 -0.2970  0.3843 -0.0563
  507MOL0     C69854   6.318   8.800   4.038 -0.6213 -0.5183  0.0493
  507MOL0     C69855   6.425   8.881   4.064 -0.0637 -0.8841  0.2730
  507MOL0     C69856   6.444   8.934   4.198  0.2203  0.2367 -0.3088
  507MOL0     C69857   6.519   8.916   3.958 -0.5514  0.0800  0.1732
  507MOL0     C69858   6.655   8.982   3.969  0.7212 -0.0702 -0.6343
  507MOL0     O69859   6.721   9.017   3.858  0.1252 -0.3136  0.3093
  507MOL0     C69860   6.847   9.076   3.841 -0.0167  0.5978  0.3210
  507MOL0     C69861   6.905   9.083   3.712 -0.5212 -0.2876 -0.3953
  507MOL0     C69862   7.037   9.142   3.696 -1.2103  0.0486  0.4908
  507MOL0     C69863   7.116   9.176   3.806 -0.1873  0.1297 -0.4294
  507MOL0     O69864   7.243   9.232   3.798  0.0329  0.1203  0.1106
  507MOL0     C69865   7.320   9.228   3.676 -0.2347 -0.7399  0.4426
  507MOL0     C69866   7.292   9.334   3.572  0.1497 -0.4341  0.4950
  507MOL0     C69867   7.409   9.424   3.542 -1.0125 -0.2328 -0.1888
  507MOL0     C69868   7.526   9.369   3.466  0.0183  0.8125  0.1404
  507MOL0     C69869   7.664   9.442   3.480  0.1632 -0.8145 -0.2567
  507MOL0     C69870   7.669   9.566   3.390 -0.9598  0.5134 -0.2917
  507MOL0     C69871   7.751   9.545   3.264 -0.7913 -0.5492  0.0386
  507MOL0     C69872   7.897   9.494   3.278 -0.5717  0.4446  0.2884
  507MOL0    Cl69873   7.979   9.592   3.405  0.1776  0.1878  0.5856
  507MOL0     C69874   7.062   9.157   3.931 -0.3269 -0.2539 -0.0919
  507MOL0     C69875   6.928   9.109   3.946  0.0230 -0.1598  0.1087
  507MOL0     O69876   6.701   8.997   4.081  0.0352  0.2111  0.0727
  507MOL0     C69877   6.488   8.872   3.827 -0.3247  0.5905 -0.8882
  507MOL0     C69878   6.378   8.792   3.805  0.0528  0.3026 -0.8427
  507MOL0     N69879   5.606   8.742   4.053 -0.1038  0.1363  0.1329
  507MOL0     N69880   5.479   8.743   4.031 -0.4068 -0.4170  0.0176
  507MOL0     C69881   4.362   8.759   3.388 -0.1176 -0.5474 -0.1609
  507MOL0     C69882   4.235   8.794   3.343 -0.5501  0.0572 -0.6675
  507MOL0     C69883   3.878   8.870   3.120 -0.6879  0.1811 -0.0557
  507MOL0     C69884   3.820   8.795   3.019 -0.0303 -0.1178 -0.3823
  507MOL0     C69885   3.700   8.819   2.958  0.7567  0.8424  0.3416
  507MOL0     C69886   3.620   8.927   2.998 -0.3727 -0.0110 -1.0153
  507MOL0     O69887   3.497   8.965   2.944  0.6252  0.6085  0.0538
  507MOL0     C69888   3.377   8.925   3.021 -0.2352 -0.9598 -0.1021
  507MOL0     C69889   3.362   8.773   3.030 -0.5643 -0.2349  0.4185
  507MOL0     C69890   3.411   8.724   3.175 -0.6036  0.4776 -0.8148
  507MOL0     C69891   3.418   8.569   3.180  0.5925 -0.0536 -0.1466
  507MOL0     C69892   3.560   8.521   3.170  0.2645  0.9681 -0.6472
  507MOL0     C69893   3.671   8.481   3.160 -0.7838  0.1639  0.0887
  507MOL0     C69894   3.682   9.009   3.093  0.5730 -0.1625  0.1509
  507MOL0     C69895   3.796   8.985   3.162 -0.0844  0.1044 -0.2753
  507MOL0     C69896   3.830   9.074   3.281  0.9224 -0.0182 -0.2996
  507MOL0     H69897   4.324   8.915   3.030 -1.7848  1.4101  0.9724
  507MOL0     H69898   4.543   8.817   3.099  2.0774  2.6729  2.4997
  507MOL0     H69899   4.733   8.841   3.295  1.1217  0.4984 -0.2823
  507MOL0     H69900   4.718   8.687   3.195 -0.7714 -1.5622  1.2229
  507MOL0     H69901   4.783   8.580   3.451  1.1918 -3.1417 -1.1909
  507MOL0     H69902   4.891   8.604   3.309  1.6385  2.3499 -0.2663
  507MOL0     H69903   5.002   8.786   3.393  2.7648 -2.7264  1.8534
  507MOL0     H69904   4.864   8.835   3.491  0.5582  0.1421 -1.0147
  507MOL0     H69905   4.898   8.637   3.642  1.2480 -0.4288  0.3353
  507MOL0     H69906   5.009   8.573   3.528 -0.0020 -0.8076  1.5150
  507MOL0     H69907   5.072   8.832   3.666 -1.0873 -0.2377 -1.5029
  507MOL0     H69908   5.167   8.747   3.554 -0.9802  0.5334 -0.1012
  507MOL0     H69909   5.077   8.618   3.816  1.2978 -1.5197  0.1644
  507MOL0     H69910   5.151   8.529   3.690  0.2405  1.6778 -2.5071
  507MOL0     H69911   5.283   8.778   3.819 -0.6202 -0.6856  0.8455
  507MOL0     H69912   5.368   8.662   3.728  0.8123  2.6243 -0.1104
  507MOL0     H69913   5.237   8.624   3.999  0.3090 -2.1279  1.4984
  507MOL0     H69914   5.293   8.490   3.902  1.2818 -0.2835  0.7635
  507MOL0     H69915   5.568   8.444   3.925  1.7957  0.0978 -1.2215
  507MOL0     H69916   5.837   8.521   4.104 -1.2466  2.4459  3.6575
  507MOL0     H69917   5.860   8.687   4.081  1.1375 -0.7266 -0.5907
  507MOL0     H69918   5.824   8.478   3.853  0.3676 -0.3286 -1.1058
  507MOL0     H69919   5.903   8.640   3.837  1.1023 -1.1176 -1.3454
  507MOL0     H69920   6.023   8.408   4.007  1.6097  0.1521  0.3304
  507MOL0     H69921   6.065   8.440   3.842  1.7740  0.0836  0.7544
  507MOL0     H69922   6.078   8.656   4.055  1.5249 -1.5223  0.5579
  507MOL0     H69923   6.197   8.537   4.025  0.3394 -0.9655  0.8944
  507MOL0     H69924   6.266   8.763   4.126 -0.9803 -0.4606 -0.1367
  507MOL0     H69925   6.473   9.039   4.189 -1.5361  0.7346 -0.5627
  507MOL0     H69926   6.532   8.885   4.240 -0.8105 -1.3554  0.1147
  507MOL0     H69927   6.361   8.924   4.269  0.9524 -1.6399  0.3626
  507MOL0     H69928   6.844   9.043   3.632 -0.5503 -0.6652 -0.1838
  507MOL0     H69929   7.081   9.160   3.598  0.1488  0.5286  1.1693
  507MOL0     H69930   7.422   9.233   3.714 -1.0030  0.3973  2.4906
  507MOL0     H69931   7.310   9.131   3.626 -1.0878 -1.1026  1.2841
  507MOL0     H69932   7.263   9.290   3.476  1.0415  1.9059 -0.9404
  507MOL0     H69933   7.206   9.388   3.613 -0.2616 -1.3440  0.8434
  507MOL0     H69934   7.438   9.465   3.640 -2.2592  1.1626 -0.3676
  507MOL0     H69935   7.362   9.511   3.495  2.0022  2.0942  0.8327
  507MOL0     H69936   7.492   9.365   3.362  0.6503 -0.1725 -0.0364
  507MOL0     H69937   7.547   9.268   3.500  0.2996 -0.4997 -3.4529
  507MOL0     H69938   7.681   9.475   3.583  1.6136 -0.3968 -0.6055
  507MOL0     H69939   7.742   9.368   3.459 -0.5340 -1.8098  0.5034
  507MOL0     H69940   7.702   9.649   3.453 -0.4383 -0.6052  0.9580
  507MOL0     H69941   7.565   9.589   3.365 -3.0920 -4.7576  2.2840
  507MOL0     H69942   7.768   9.641   3.215 -0.7060 -0.1356  0.8682
  507MOL0     H69943   7.694   9.477   3.200 -3.2071  0.0210  1.4743
  507MOL0     H69944   7.948   9.494   3.181  2.0674  0.1362  1.5974
  507MOL0     H69945   7.900   9.388   3.304 -1.5466  0.5380  0.8594
  507MOL0     H69946   7.120   9.191   4.016  0.5130  2.5847 -1.6811
  507MOL0     H69947   6.885   9.102   4.045  0.2569 -1.3061  0.1417
  507MOL0     H69948   6.553   8.892   3.742  1.3407  4.3752  1.0537
  507MOL0     H69949   6.374   8.745   3.708  1.2241 -1.0615 -0.2632
  507MOL0     H69950   4.383   8.723   3.488  2.3991  0.7804 -0.1358
  507MOL0     H69951   4.151   8.784   3.411 -0.5998  1.1038 -0.5456
  507MOL0     H69952   3.874   8.704   2.994 -0.0532 -0.4782  0.8163
  507MOL0     H69953   3.664   8.746   2.885 -1.1175  0.3644  1.6682
  507MOL0     H69954   3.384   8.975   3.118  0.4151  3.1193 -2.0370
  507MOL0     H69955   3.283   8.951   2.971  0.0508 -0.9154 -0.6137
  507MOL0     H69956   3.431   8.732   2.956 -2.8577 -0.4027 -1.7574
  507MOL0     H69957   3.257   8.751   3.012 -0.7397  0.8207  0.0456
  507MOL0     H69958   3.510   8.757   3.207  0.0790 -0.1219 -2.2072
  507MOL0     H69959   3.342   8.752   3.255  0.4893 -0.0359  0.3326
  507MOL0     H69960   3.361   8.524   3.097 -0.6007 -0.9596  1.1200
  507MOL0     H69961   3.365   8.545   3.272 -1.9658  2.6088 -0.7557
  507MOL0     H69962   3.776   8.461   3.155 -0.9259 -1.0357  1.3313
  507MOL0     H69963   3.630   9.101   3.120 -1.1034 -0.9281 -0.3589
  507MOL0     H69964   3.841   9.018   3.375  0.5861  0.6466  0.1401
  507MOL0     H69965   3.923   9.129   3.266  1.2619 -0.4464  0.1915
  507MOL0     H69966   3.752   9.148   3.302  1.7202  1.0086 -0.8624
  508MOL0     O69967   9.563   9.516   1.306 -0.7654  0.9106  1.0302
  508MOL0     C69968   9.495   9.445   1.233  1.0023 -0.1340 -0.8035
  508MOL0     O69969   9.529   9.329   1.167  0.3261 -0.1376 -0.3098
  508MOL0     C69970   9.663   9.300   1.184  0.7387 -0.1972 -0.5064
  508MOL0     C69971   9.687   9.174   1.236 -1.0950 -0.2752 -0.4750
  508MOL0     C69972   9.824   9.151   1.274  0.0072  0.1158 -0.3929
  508MOL0     C69973   9.932   9.241   1.242  0.1099  0.2173  0.7949
  508MOL0     O69974  10.064   9.230   1.278  0.2654 -0.1968  0.2023
  508MOL0     C69975  10.100   9.120   1.360  0.3922 -0.2134  0.1088
  508MOL0     C69976  10.242   9.141   1.419  0.3274  0.7387  0.3038
  508MOL0     C69977  10.262   9.262   1.520 -1.2708 -0.5168 -0.0589
  508MOL0     C69978  10.410   9.259   1.566 -0.6179 -0.3552 -0.0061
  508MOL0     C69979  10.436   9.371   1.666  0.0285 -1.2993 -0.2095
  508MOL0     C69980  10.578   9.350   1.725  0.7150 -0.0090 -0.0761
  508MOL0     C69981  10.701   9.314   1.642  0.0040  0.2419 -0.3419
  508MOL0     C69982  10.742   9.426   1.549 -0.0785 -0.0816  0.2771
  508MOL0     N69983  10.776   9.552   1.619  0.1635 -0.3191 -1.6721
  508MOL0     C69984  10.681   9.640   1.671  0.7652 -0.5785  0.0749
  508MOL0     C69985  10.754   9.742   1.729  0.2038  1.1026 -0.2945
  508MOL0     C69986  10.694   9.863   1.789 -0.5849 -0.1725  0.3488
  508MOL0     C69987  10.756   9.887   1.922  0.4661  0.5313  0.3156
  508MOL0     C69988  10.673  10.003   1.989 -0.5691 -0.3518  0.2077
  508MOL0     C69989  10.748  10.065   2.106  0.8799 -1.0135 -0.3269
  508MOL0     O69990  10.657  10.133   2.202  0.0314  0.4597 -0.5928
  508MOL0     C69991  10.719  10.162   2.321  0.0775 -0.1744 -0.0234
  508MOL0     C69992  10.681  10.274   2.399  0.6627  0.1323  1.1856
  508MOL0     C69993  10.736  10.308   2.528  1.0275 -0.7354 -0.3238
  508MOL0     C69994  10.679  10.425   2.610  0.7082 -0.4380  0.9387
  508MOL0     C69995  10.841  10.231   2.582 -0.0955 -0.0961  0.3720
  508MOL0     C69996  10.916  10.253   2.709 -0.3721 -0.2057  0.1634
  508MOL0     O69997  11.039  10.189   2.719 -0.4923 -0.8041  0.1941
  508MOL0     C69998  11.105  10.182   2.842 -0.3056 -0.3922  0.4702
  508MOL0     C69999  11.061  10.144   2.959  0.6310  0.4295 -0.3028
  508MOL0     C70000  11.146  10.132   3.068 -0.8077  0.3420  0.2429
  508MOL0     C70001  11.288  10.160   3.064 -0.2470  0.9601 -0.1977
  508MOL0     O70002  11.380  10.135   3.169 -0.3581 -0.9726  0.0701
  508MOL0     C70003  11.333  10.073   3.289 -0.0133  0.2847  1.2057
  508MOL0     C70004  11.453  10.046   3.370  0.2683  0.4646  0.2943
  508MOL0     C70005  11.436   9.938   3.482  0.3596  0.5654 -0.4643
  508MOL0     C70006  11.568   9.898   3.536 -0.2394 -0.4697 -0.5747
  508MOL0     C70007  11.577   9.821   3.664  0.8513  0.6639 -0.5463
  508MOL0     C70008  11.565   9.933   3.779  0.4746  0.1185  0.1064
  508MOL0     C70009  11.585   9.857   3.916 -0.9262 -0.3150 -0.5361
  508MOL0     C70010  11.720   9.787   3.945  0.4365  0.3820  1.3736
  508MOL0    Cl70011  11.864   9.886   3.906 -0.1947 -0.1634 -0.1424
  508MOL0     C70012  11.333  10.190   2.939 -0.5039  0.4946 -0.4334
  508MOL0     C70013  11.240  10.198   2.827 -0.3614 -0.3074 -1.2757
  508MOL0     O70014  10.856  10.310   2.801 -0.0753 -0.5803  0.4509
  508MOL0     C70015  10.883  10.124   2.501 -0.4025  1.0801  0.2000
  508MOL0     C70016  10.822  10.085   2.389 -0.3544 -0.6845 -0.1004
  508MOL0     N70017  10.890   9.714   1.708 -0.2653  0.7818 -0.2256
  508MOL0     N70018  10.896   9.595   1.654  0.9392  0.3463 -0.1411
  508MOL0     C70019   9.902   9.357   1.170 -0.6190 -0.0094  0.6364
  508MOL0     C70020   9.765   9.385   1.145 -0.1479 -0.7154 -0.1942
  508MOL0     C70021   9.347   9.486   1.210 -0.7325  0.7969 -0.0413
  508MOL0     C70022   9.250   9.392   1.202 -0.8135 -0.3045  0.6209
  508MOL0     C70023   9.118   9.423   1.182 -0.5099  0.1566  0.2142
  508MOL0     C70024   9.076   9.547   1.171 -0.9049 -0.0430  0.9251
  508MOL0     O70025   8.941   9.558   1.158  0.1180 -0.4663  0.3644
  508MOL0     C70026   8.885   9.695   1.147 -0.2968  0.2028  0.6015
  508MOL0     C70027   8.737   9.697   1.130 -0.2369 -0.4896 -0.4088
  508MOL0     C70028   8.699   9.598   1.014 -1.2967 -0.0768 -0.8799
  508MOL0     C70029   8.561   9.616   0.955  0.6611  0.2661 -0.5552
  508MOL0     C70030   8.459   9.586   1.061 -0.4344 -0.3273 -0.6394
  508MOL0     C70031   8.385   9.557   1.156  0.4336 -0.3158  1.2878
  508MOL0     C70032   9.172   9.654   1.184 -0.1396 -0.1365  0.4551
  508MOL0     C70033   9.308   9.619   1.205  0.1688  0.9142  0.3521
  508MOL0     C70034   9.400   9.744   1.214 -0.1583  0.0038  0.6873
  508MOL0     H70035   9.611   9.114   1.285 -0.0301  0.5838  2.4716
  508MOL0     H70036   9.825   9.059   1.331 -1.4828  0.8428  0.8714
  508MOL0     H70037  10.094   9.034   1.292 -0.9903  0.5346 -0.7579
  508MOL0     H70038  10.026   9.101   1.438  2.2072  0.0130  1.9698
  508MOL0     H70039  10.270   9.056   1.481  1.2963  0.1667 -0.8853
  508MOL0     H70040  10.308   9.149   1.333 -3.1166  0.2955 -2.6201
  508MOL0     H70041  10.246   9.350   1.457  0.7352 -0.8768 -1.1775
  508MOL0     H70042  10.196   9.254   1.606 -0.8700 -0.6781  0.2372
  508MOL0     H70043  10.433   9.164   1.615  1.5778  0.7907  1.3369
  508MOL0     H70044  10.483   9.281   1.488  0.8237 -2.6370  0.5909
  508MOL0     H70045  10.368   9.361   1.751  0.1211 -2.2817 -0.2357
  508MOL0     H70046  10.433   9.471   1.623  0.9133 -0.2740  2.0150
  508MOL0     H70047  10.598   9.437   1.786  0.6294 -0.0084 -0.0488
  508MOL0     H70048  10.570   9.267   1.796  2.2103 -0.1852 -0.0967
  508MOL0     H70049  10.683   9.224   1.582  1.1132 -2.4747  3.0332
  508MOL0     H70050  10.781   9.298   1.715  2.0224  2.2351 -2.0045
  508MOL0     H70051  10.826   9.402   1.482 -0.6775  1.6646 -1.1903
  508MOL0     H70052  10.656   9.448   1.485 -0.8711  1.5072  1.7801
  508MOL0     H70053  10.574   9.639   1.654  0.9634  1.3454 -1.7054
  508MOL0     H70054  10.586   9.849   1.796 -0.2182 -3.3619  1.2512
  508MOL0     H70055  10.719   9.954   1.732  0.8809 -1.5529 -1.3518
  508MOL0     H70056  10.754   9.798   1.987  3.4400  0.6596  0.7211
  508MOL0     H70057  10.860   9.917   1.910  0.6297 -0.8253 -2.0522
  508MOL0     H70058  10.665  10.088   1.921  0.2081 -0.5335 -0.1192
  508MOL0     H70059  10.571   9.981   2.020  0.3552 -0.6488  3.3614
  508MOL0     H70060  10.808   9.987   2.155  3.4929  1.7815  1.3144
  508MOL0     H70061  10.826  10.134   2.070  2.6637 -1.8933  1.6262
  508MOL0     H70062  10.601  10.331   2.355  0.8986 -0.4517 -0.0646
  508MOL0     H70063  10.609  10.388   2.685 -0.3456  1.0447  0.7358
  508MOL0     H70064  10.614  10.486   2.545 -2.7692 -2.2150  2.4787
  508MOL0     H70065  10.766  10.479   2.649  0.6020 -0.8846  1.8187
  508MOL0     H70066  10.961  10.106   2.974  0.6385  0.6975  0.4774
  508MOL0     H70067  11.105  10.081   3.154 -0.2588  0.5364  0.6281
  508MOL0     H70068  11.263  10.133   3.347 -0.2409  3.4211 -1.9994
  508MOL0     H70069  11.274   9.985   3.263 -0.6819  0.5368  1.8157
  508MOL0     H70070  11.524  10.000   3.300 -0.1947 -0.0369  0.1459
  508MOL0     H70071  11.494  10.135   3.419  2.2081 -0.2579  0.1050
  508MOL0     H70072  11.382   9.851   3.444  1.7725 -0.7092  0.3442
  508MOL0     H70073  11.384   9.988   3.564  3.4350  1.2705  1.2438
  508MOL0     H70074  11.635   9.985   3.535 -0.8596  0.0353  0.2903
  508MOL0     H70075  11.606   9.829   3.460 -2.6621  1.2368 -3.6223
  508MOL0     H70076  11.496   9.748   3.661 -0.3330  1.9718 -1.3830
  508MOL0     H70077  11.676   9.773   3.664  0.8099  0.4720 -3.0062
  508MOL0     H70078  11.464   9.974   3.789 -0.2316 -1.3244 -0.7549
  508MOL0     H70079  11.637  10.015   3.766 -1.2795  1.8056  0.4868
  508MOL0     H70080  11.516   9.775   3.932 -0.2283 -0.6311  1.0736
  508MOL0     H70081  11.569   9.930   3.997 -1.0879 -0.6971 -0.2219
  508MOL0     H70082  11.735   9.708   3.871  0.1308  0.7288  0.9301
  508MOL0     H70083  11.713   9.740   4.044 -1.7393 -1.0631  0.6249
  508MOL0     H70084  11.441  10.188   2.925 -0.5290 -1.9969 -0.8145
  508MOL0     H70085  11.282  10.225   2.731 -0.8452 -0.6143 -1.5742
  508MOL0     H70086  10.958  10.058   2.543 -1.2929  0.0062  0.1432
  508MOL0     H70087  10.857   9.994   2.342  0.8491  0.3190 -1.2297
  508MOL0     H70088   9.976   9.429   1.136  1.2567 -2.6517 -1.2666
  508MOL0     H70089   9.751   9.482   1.098  1.7298 -0.8025 -1.0280
  508MOL0     H70090   9.262   9.284   1.205 -0.6758 -0.5089 -3.0668
  508MOL0     H70091   9.048   9.340   1.180  1.0168 -1.1918  0.3048
  508MOL0     H70092   8.916   9.766   1.224  2.5081  0.6607 -0.8124
  508MOL0     H70093   8.923   9.736   1.053 -0.2454 -0.9625  0.0926
  508MOL0     H70094   8.701   9.797   1.106 -1.9803 -1.1402 -0.7035
  508MOL0     H70095   8.693   9.668   1.226 -0.1611  0.4642 -0.0745
  508MOL0     H70096   8.768   9.618   0.931  0.3609 -1.5006  0.0698
  508MOL0     H70097   8.723   9.495   1.041 -2.3601 -0.0048  0.4320
  508MOL0     H70098   8.544   9.548   0.871  0.9248 -0.1142 -0.3067
  508MOL0     H70099   8.544   9.719   0.924 -2.1639 -0.0001 -0.1602
  508MOL0     H70100   8.323   9.543   1.242  1.0857  1.6741  2.1504
  508MOL0     H70101   9.143   9.759   1.182 -3.2713 -0.8948  0.7404
  508MOL0     H70102   9.396   9.775   1.319 -0.4933 -0.7756  0.9107
  508MOL0     H70103   9.502   9.716   1.186  0.3282 -0.1983  2.5598
  508MOL0     H70104   9.365   9.822   1.146  1.0983  0.5551  0.6471
  509MOL0     O70105   8.523   9.988   8.446 -0.1510 -0.3285  0.0185
  509MOL0     C70106   8.496   9.991   8.565 -0.1057  0.2143 -1.2915
  509MOL0     O70107   8.375  10.005   8.619 -0.4567  0.5556  0.6376
  509MOL0     C70108   8.286  10.058   8.534 -0.2085 -0.4446 -0.0834
  509MOL0     C70109   8.205   9.978   8.455 -1.3586  0.2762  0.8950
  509MOL0     C70110   8.092  10.030   8.391 -0.7116  0.2334  0.7033
  509MOL0     C70111   8.050  10.163   8.408  0.9874  0.2920 -0.4855
  509MOL0     O70112   7.942  10.220   8.339 -0.1107  0.5777 -0.6827
  509MOL0     C70113   7.837  10.266   8.435 -0.2121  0.0288  0.0720
  509MOL0     C70114   7.685  10.265   8.369 -0.6596  0.9983  0.2673
  509MOL0     C70115   7.682  10.359   8.242  0.6638  0.2951 -0.0262
  509MOL0     C70116   7.533  10.383   8.206 -0.0565  1.0997  0.5409
  509MOL0     C70117   7.523  10.487   8.092 -0.4983 -0.1958  0.0060
  509MOL0     C70118   7.386  10.556   8.077 -0.3712  0.1062 -0.0897
  509MOL0     C70119   7.273  10.453   8.049 -0.1716  0.1783  0.0435
  509MOL0     C70120   7.155  10.542   8.011  0.1210 -0.3892 -1.0313
  509MOL0     N70121   7.039  10.452   8.015  1.3352  0.8443 -0.4604
  509MOL0     C70122   6.959  10.432   8.125 -0.7858 -0.2806  0.9762
  509MOL0     C70123   6.848  10.362   8.087 -0.4248  0.8172 -0.7677
  509MOL0     C70124   6.741  10.313   8.177 -0.7432  0.0687  0.4298
  509MOL0     C70125   6.634  10.427   8.198  0.2630 -0.0251 -0.5325
  509MOL0     C70126   6.528  10.371   8.301  0.1638 -0.4497  0.5384
  509MOL0     C70127   6.423  10.490   8.321 -0.8940 -0.6723  0.3551
  509MOL0     O70128   6.317  10.453   8.406  0.5242 -0.7369  0.3702
  509MOL0     C70129   6.245  10.548   8.474  0.5929  0.3825 -0.7605
  509MOL0     C70130   6.148  10.520   8.573  0.1293  1.2029  0.2763
  509MOL0     C70131   6.068  10.611   8.649 -0.2170 -0.4792  1.3772
  509MOL0     C70132   5.981  10.550   8.758  0.8033  0.5942  0.5158
  509MOL0     C70133   6.074  10.745   8.610 -1.1425  0.2587  0.7581
  509MOL0     C70134   5.999  10.855   8.685  0.3114 -0.2936  0.1620
  509MOL0     O70135   5.884  10.813   8.751  0.0808 -0.3727  0.1012
  509MOL0     C70136   5.771  10.878   8.777  0.0180 -0.2135 -1.0979
  509MOL0     C70137   5.666  10.793   8.813  0.0076  0.7883 -0.1817
  509MOL0     C70138   5.533  10.837   8.842 -0.1483  0.2074  0.3972
  509MOL0     C70139   5.513  10.978   8.839  0.2440 -0.2450 -0.3519
  509MOL0     O70140   5.379  11.010   8.860 -0.3531  0.3879  0.1069
  509MOL0     C70141   5.323  11.131   8.835 -0.1136 -0.3728  0.2612
  509MOL0     C70142   5.168  11.122   8.867  0.9084 -0.3325  1.2953
  509MOL0     C70143   5.110  11.271   8.850  0.7523 -0.1652  0.0279
  509MOL0     C70144   5.170  11.367   8.943  0.7189  0.3619  0.3109
  509MOL0     C70145   5.090  11.493   8.966 -0.0109  0.1747  1.2824
  509MOL0     C70146   5.123  11.557   9.102  0.4226  1.0147 -0.5569
  509MOL0     C70147   5.255  11.636   9.090  0.3084  0.8221 -0.3617
  509MOL0     C70148   5.301  11.690   9.224  0.4510 -0.2776 -0.1908
  509MOL0    Cl70149   5.311  11.567   9.359 -0.2391  0.6632 -0.0438
  509MOL0     C70150   5.620  11.062   8.818  0.2176 -0.5199 -0.5038
  509MOL0     C70151   5.749  11.020   8.784 -0.3717  0.7523 -0.3209
  509MOL0     O70152   6.036  10.973   8.680  0.0166 -0.1592 -0.3999
  509MOL0     C70153   6.158  10.779   8.504  0.1113 -0.4377  0.3394
  509MOL0     C70154   6.247  10.682   8.444 -0.5477 -0.6209 -0.0638
  509MOL0     N70155   6.869  10.322   7.959 -0.1135  0.5980 -0.9932
  509MOL0     N70156   6.983  10.378   7.918  0.0609  0.2128 -0.1132
  509MOL0     C70157   8.137  10.250   8.488 -0.5491  0.4706 -0.0791
  509MOL0     C70158   8.256  10.194   8.542 -0.1554 -0.6478 -0.4626
  509MOL0     C70159   8.620   9.976   8.646  0.0621  0.6736 -0.5243
  509MOL0     C70160   8.606   9.890   8.752  0.5557  0.1582  0.1820
  509MOL0     C70161   8.717   9.836   8.820 -0.5090 -0.5556  0.1927
  509MOL0     C70162   8.847   9.865   8.769 -1.2086  0.5208  0.0931
  509MOL0     O70163   8.952   9.781   8.806  0.4611 -0.0149 -0.4323
  509MOL0     C70164   9.072   9.765   8.723  0.6537 -0.6618 -0.4615
  509MOL0     C70165   9.168   9.669   8.798 -0.4974 -0.0809  0.7401
  509MOL0     C70166   9.189   9.717   8.948  0.0695  0.2254  0.3783
  509MOL0     C70167   9.094   9.636   9.035 -0.3896  0.0114  0.9200
  509MOL0     C70168   9.123   9.497   9.028 -0.5592 -0.8326 -0.0267
  509MOL0     C70169   9.147   9.383   9.031 -0.4178 -0.2960 -0.3882
  509MOL0     C70170   8.863   9.970   8.680 -0.5736 -0.1959 -0.4498
  509MOL0     C70171   8.749  10.023   8.613 -0.3151  0.2802  0.5567
  509MOL0     C70172   8.768  10.118   8.498  0.3643 -0.2643 -0.1955
  509MOL0     H70173   8.230   9.875   8.435 -2.8981 -0.1091  0.8205
  509MOL0     H70174   8.050   9.971   8.309 -1.3146  0.1649  1.0504
  509MOL0     H70175   7.872  10.364   8.467  1.2175 -0.8162  1.2401
  509MOL0     H70176   7.834  10.192   8.515 -0.2947 -0.5702 -0.4745
  509MOL0     H70177   7.651  10.166   8.339 -2.6071  0.4642  3.7013
  509MOL0     H70178   7.614  10.295   8.447 -2.3428  1.9198 -1.5571
  509MOL0     H70179   7.728  10.454   8.269  0.1597 -0.0013  2.0508
  509MOL0     H70180   7.730  10.314   8.154 -1.2539  0.1488 -1.0533
  509MOL0     H70181   7.475  10.299   8.168 -1.0884  0.6689  2.9041
  509MOL0     H70182   7.472  10.414   8.292 -2.8013 -1.7517 -0.2053
  509MOL0     H70183   7.565  10.446   7.999  1.1023  2.1143 -0.3766
  509MOL0     H70184   7.587  10.573   8.115  0.5567 -1.2528  1.1551
  509MOL0     H70185   7.359  10.609   8.169  2.3424  0.7726  0.4028
  509MOL0     H70186   7.386  10.622   7.990 -2.0505 -0.9167 -0.9315
  509MOL0     H70187   7.252  10.390   8.136 -0.7491  2.2703  1.5079
  509MOL0     H70188   7.294  10.385   7.966 -1.7425  0.5901 -0.7107
  509MOL0     H70189   7.149  10.623   8.084 -0.9577 -0.7473 -0.7149
  509MOL0     H70190   7.171  10.568   7.906 -0.4040 -2.1901 -1.5778
  509MOL0     H70191   6.980  10.484   8.217 -1.6698  0.9763  0.4869
  509MOL0     H70192   6.786  10.283   8.272 -2.4899 -0.8042  1.0209
  509MOL0     H70193   6.695  10.229   8.124 -1.0981  1.3364 -1.3279
  509MOL0     H70194   6.667  10.525   8.233 -2.2575 -0.2069  2.8505
  509MOL0     H70195   6.570  10.443   8.110  1.1426  3.8625 -0.6527
  509MOL0     H70196   6.479  10.284   8.257 -1.8265  0.1353  1.4685
  509MOL0     H70197   6.584  10.340   8.389 -0.0208  0.3304  0.9388
  509MOL0     H70198   6.479  10.568   8.373 -0.0932 -2.3196  2.0543
  509MOL0     H70199   6.392  10.519   8.220 -1.5898 -1.0223  0.4657
  509MOL0     H70200   6.152  10.413   8.593 -2.0385  0.5404 -2.1042
  509MOL0     H70201   5.996  10.442   8.745 -2.1730  0.2443 -0.7047
  509MOL0     H70202   5.876  10.579   8.752  1.1960  2.2433  1.1219
  509MOL0     H70203   6.008  10.577   8.860 -1.1737  3.0415  0.4981
  509MOL0     H70204   5.676  10.685   8.803 -3.0612  0.4196 -0.1086
  509MOL0     H70205   5.450  10.768   8.856  0.1000 -0.4081 -1.0447
  509MOL0     H70206   5.370  11.208   8.897 -1.0309  0.8499 -0.5169
  509MOL0     H70207   5.345  11.159   8.732 -1.1857 -1.0412 -0.1661
  509MOL0     H70208   5.108  11.069   8.793 -1.8370  3.3549  0.6147
  509MOL0     H70209   5.152  11.079   8.966 -1.4495  0.7420  1.4471
  509MOL0     H70210   5.002  11.268   8.866  0.8415 -1.2759  0.4984
  509MOL0     H70211   5.131  11.308   8.749  1.5979 -1.1306 -0.1789
  509MOL0     H70212   5.270  11.395   8.907  1.4099 -0.6167  1.4261
  509MOL0     H70213   5.200  11.311   9.032  1.2898  0.2589  0.0626
  509MOL0     H70214   5.111  11.567   8.888  1.3840  0.2313  1.6916
  509MOL0     H70215   4.983  11.471   8.962  0.2847 -1.1804 -0.1545
  509MOL0     H70216   5.108  11.491   9.188 -1.9147  2.1032 -0.0263
  509MOL0     H70217   5.044  11.630   9.123  0.6474  1.3466 -0.8655
  509MOL0     H70218   5.250  11.709   9.009 -0.7420  2.0322  0.7483
  509MOL0     H70219   5.333  11.564   9.062  1.5964  1.6403  0.9266
  509MOL0     H70220   5.227  11.765   9.253 -2.0169 -3.3325  2.0053
  509MOL0     H70221   5.398  11.737   9.207 -0.1016  0.0565 -2.9965
  509MOL0     H70222   5.601  11.169   8.820 -0.3866 -0.6192  1.6692
  509MOL0     H70223   5.835  11.084   8.768 -0.5742  0.7169 -1.6586
  509MOL0     H70224   6.172  10.883   8.474  4.2447 -0.9192  0.0579
  509MOL0     H70225   6.315  10.709   8.363 -0.5758  2.2803  0.7949
  509MOL0     H70226   8.107  10.354   8.494 -1.1227  0.2696  0.5428
  509MOL0     H70227   8.326  10.258   8.594 -0.5898  0.3903 -1.1415
  509MOL0     H70228   8.509   9.844   8.769 -1.4957  3.6918 -0.8409
  509MOL0     H70229   8.698   9.759   8.895 -1.1480  1.4572  2.2268
  509MOL0     H70230   9.047   9.731   8.622 -0.2600 -2.0194  0.1821
  509MOL0     H70231   9.117   9.864   8.718 -1.3631  0.4612  1.6150
  509MOL0     H70232   9.267   9.652   8.755  0.1864 -0.7149  2.4715
  509MOL0     H70233   9.124   9.570   8.786  2.6801 -1.8788  2.4134
  509MOL0     H70234   9.290   9.704   8.986 -0.2524  2.2253  2.1096
  509MOL0     H70235   9.176   9.825   8.955  3.3384  0.8089 -0.9626
  509MOL0     H70236   8.990   9.651   9.004  0.0972 -1.2130 -1.5961
  509MOL0     H70237   9.105   9.673   9.137 -1.8721  3.3708 -0.0069
  509MOL0     H70238   9.184   9.285   9.054  0.7100  0.2799  0.3853
  509MOL0     H70239   8.958  10.005   8.641 -0.1161  1.0593  1.5927
  509MOL0     H70240   8.760  10.076   8.397 -1.7564  1.7623 -0.9689
  509MOL0     H70241   8.692  10.196   8.503  0.3946 -0.1207 -1.5743
  509MOL0     H70242   8.859  10.177   8.509  0.9695 -1.5075  2.1509
  510MOL0     O70243   0.860   7.032   3.839 -0.7031 -0.6511 -0.0558
  510MOL0     C70244   0.816   7.035   3.949 -0.3460 -0.1151 -0.5247
  510MOL0     O70245   0.889   7.072   4.066 -0.1778  0.2073 -0.5821
  510MOL0     C70246   1.024   7.101   4.038  0.1499 -0.2602 -0.6390
  510MOL0     C70247   1.120   7.000   4.023  0.3609 -0.1020 -0.2203
  510MOL0     C70248   1.253   7.041   4.003 -0.0499  0.1838 -0.4517
  510MOL0     C70249   1.287   7.180   4.001 -0.4511 -0.0597 -0.5818
  510MOL0     O70250   1.413   7.227   3.968  0.1503  0.1989  0.4070
  510MOL0     C70251   1.524   7.136   3.958 -0.0713  0.0480  0.2895
  510MOL0     C70252   1.650   7.208   3.892  0.6688 -0.4626 -0.8890
  510MOL0     C70253   1.701   7.329   3.970 -0.4256 -0.7977  0.1316
  510MOL0     C70254   1.741   7.293   4.110 -0.0350 -0.7774 -0.0928
  510MOL0     C70255   1.745   7.409   4.202  0.0915 -0.6070  0.2625
  510MOL0     C70256   1.829   7.530   4.148 -0.4912 -0.0611  0.1564
  510MOL0     C70257   1.796   7.655   4.230 -0.7719 -0.6343 -0.4080
  510MOL0     C70258   1.860   7.780   4.169  0.6906 -0.4466  0.5102
  510MOL0     N70259   2.004   7.785   4.188 -0.4088  1.2658  0.5475
  510MOL0     C70260   2.098   7.833   4.107 -0.4648  0.3302 -0.8562
  510MOL0     C70261   2.218   7.815   4.173  0.4104  0.3095  0.0364
  510MOL0     C70262   2.351   7.833   4.116 -0.2341 -0.9905  0.1362
  510MOL0     C70263   2.410   7.969   4.125  0.4186 -0.5162 -0.8920
  510MOL0     C70264   2.517   7.967   4.240  0.3016  0.5223  0.0612
  510MOL0     C70265   2.581   8.100   4.247 -0.9032 -0.3720 -0.0708
  510MOL0     O70266   2.654   8.147   4.129 -0.0357  0.2454  0.5309
  510MOL0     C70267   2.772   8.223   4.143  0.6768  0.2383 -0.8641
  510MOL0     C70268   2.832   8.261   4.024  0.4704  0.5861 -0.6202
  510MOL0     C70269   2.962   8.331   4.030  0.1005 -1.0016 -0.7366
  510MOL0     C70270   3.044   8.370   3.903  0.2659  0.0241 -0.2268
  510MOL0     C70271   3.023   8.360   4.154 -0.0736 -0.5487  0.0547
  510MOL0     C70272   3.147   8.428   4.161  0.2197  0.0761 -0.2067
  510MOL0     O70273   3.257   8.362   4.137 -0.3692 -0.5501 -0.0115
  510MOL0     C70274   3.369   8.427   4.128 -0.1013 -0.9818 -1.9155
  510MOL0     C70275   3.442   8.438   4.007 -0.1125 -0.3049 -0.2708
  510MOL0     C70276   3.570   8.496   3.997 -0.2716 -0.8963  0.1140
  510MOL0     C70277   3.640   8.543   4.109  0.1089  0.1913 -0.6202
  510MOL0     O70278   3.773   8.575   4.112 -0.1031 -0.1459 -0.1996
  510MOL0     C70279   3.823   8.642   3.999  0.5217 -1.1038 -0.8203
  510MOL0     C70280   3.956   8.693   4.025  0.5266  0.5578 -0.6104
  510MOL0     C70281   3.957   8.804   4.131  0.6777  0.1610  0.0328
  510MOL0     C70282   4.067   8.898   4.101  0.2085  0.0071  0.0961
  510MOL0     C70283   4.200   8.842   4.154 -0.2807 -0.6946 -0.5344
  510MOL0     C70284   4.310   8.935   4.112  0.0617 -0.3850  0.0689
  510MOL0     C70285   4.354   8.934   3.961 -0.3469  0.3149 -0.1731
  510MOL0     C70286   4.452   9.043   3.935  0.0276 -0.5831 -0.0493
  510MOL0    Cl70287   4.601   9.048   4.038 -0.5166 -0.0163 -0.1031
  510MOL0     C70288   3.571   8.530   4.240  0.5192 -0.3684  1.1349
  510MOL0     C70289   3.438   8.476   4.242 -0.4817 -0.0531 -0.8347
  510MOL0     O70290   3.132   8.552   4.158 -0.3041 -0.2599  0.3425
  510MOL0     C70291   2.946   8.327   4.263  1.2659  0.9530 -0.6112
  510MOL0     C70292   2.824   8.263   4.263 -0.4794 -0.2208 -0.7261
  510MOL0     N70293   2.181   7.755   4.296  0.2277  0.3269 -0.4138
  510MOL0     N70294   2.059   7.741   4.309  0.3489  0.2401  0.0919
  510MOL0     C70295   1.186   7.277   4.021 -0.1523  0.1457 -0.0505
  510MOL0     C70296   1.060   7.237   4.039  0.1896 -0.2836 -0.8918
  510MOL0     C70297   0.669   7.016   3.956  1.2552  0.0437 -0.6170
  510MOL0     C70298   0.619   6.915   3.878  0.0645  0.2143 -0.5911
  510MOL0     C70299   0.487   6.877   3.864 -0.6537  0.8867 -0.2672
  510MOL0     C70300   0.388   6.953   3.933 -0.2421 -0.3127  0.9758
  510MOL0     O70301   0.253   6.942   3.905  0.1721 -1.0473  0.0315
  510MOL0     C70302   0.211   6.984   3.773 -0.1405 -0.6714 -0.4702
  510MOL0     C70303   0.072   6.942   3.724  0.7988 -0.2027 -0.4920
  510MOL0     C70304  -0.039   6.984   3.826  0.3630 -0.0216  0.1979
  510MOL0     C70305  -0.044   7.140   3.843  0.1609 -0.8869 -0.4870
  510MOL0     C70306   0.036   7.192   3.945  0.3898  1.1704 -0.2729
  510MOL0     C70307   0.118   7.242   4.029 -0.3318 -0.5104 -0.2927
  510MOL0     C70308   0.443   7.062   4.012  0.0853  0.3012 -0.9848
  510MOL0     C70309   0.574   7.091   4.032 -0.3940 -0.6573  0.3357
  510MOL0     C70310   0.630   7.199   4.124 -0.1106 -0.2030 -0.8647
  510MOL0     H70311   1.087   6.896   4.018 -0.8193  0.2467  0.0749
  510MOL0     H70312   1.323   6.958   3.995 -0.6891 -0.2514 -1.9300
  510MOL0     H70313   1.490   7.051   3.899 -1.9228  1.0133 -0.1513
  510MOL0     H70314   1.551   7.102   4.058  2.3518  0.0888 -0.2907
  510MOL0     H70315   1.740   7.147   3.876  0.8676 -0.9935  1.7904
  510MOL0     H70316   1.619   7.231   3.789  0.6813  0.0263 -0.7839
  510MOL0     H70317   1.783   7.369   3.909 -1.5235  0.7745 -0.3681
  510MOL0     H70318   1.631   7.412   3.961 -1.2381 -1.3328  1.2858
  510MOL0     H70319   1.672   7.228   4.165 -0.6407  0.3580  0.5308
  510MOL0     H70320   1.840   7.247   4.113  1.2374  1.8323  1.3640
  510MOL0     H70321   1.795   7.394   4.298 -0.4123 -1.2523  0.4261
  510MOL0     H70322   1.642   7.438   4.228  0.1905  1.8350 -1.6496
  510MOL0     H70323   1.936   7.506   4.141  0.4262  3.8802 -3.4071
  510MOL0     H70324   1.806   7.542   4.042 -1.6249 -2.1628  0.1078
  510MOL0     H70325   1.822   7.632   4.333  1.2847 -3.3029 -1.3986
  510MOL0     H70326   1.690   7.679   4.224 -0.1612  2.4311 -0.6208
  510MOL0     H70327   1.837   7.786   4.062  2.3687 -0.6447  0.1030
  510MOL0     H70328   1.838   7.878   4.211  2.5442  0.1243  0.2639
  510MOL0     H70329   2.076   7.863   4.005 -0.5466 -1.7033 -1.4793
  510MOL0     H70330   2.344   7.799   4.013 -1.5919  1.9544 -0.8568
  510MOL0     H70331   2.423   7.764   4.161  0.3246  0.0509  0.9049
  510MOL0     H70332   2.456   8.008   4.034  1.2496  1.2270  0.2400
  510MOL0     H70333   2.325   8.033   4.151  2.6708  1.3985  2.4338
  510MOL0     H70334   2.483   7.934   4.338 -0.5447  1.3362  0.0571
  510MOL0     H70335   2.584   7.893   4.197 -0.4653  1.4471 -2.9326
  510MOL0     H70336   2.513   8.183   4.269  1.4658  2.1825 -1.7417
  510MOL0     H70337   2.644   8.094   4.336  0.5082  2.0456 -0.8336
  510MOL0     H70338   2.805   8.226   3.925 -3.2129 -2.9425  1.3633
  510MOL0     H70339   2.974   8.399   3.824 -3.2295 -0.7043  2.3708
  510MOL0     H70340   3.109   8.287   3.874  1.0779  1.1185 -1.6219
  510MOL0     H70341   3.101   8.459   3.928  0.7554 -0.2573 -0.3227
  510MOL0     H70342   3.399   8.396   3.917 -2.6504  1.1197  0.1719
  510MOL0     H70343   3.610   8.518   3.899  1.5650  2.1326  1.4078
  510MOL0     H70344   3.824   8.576   3.912 -1.3651 -1.9038 -0.3015
  510MOL0     H70345   3.762   8.728   3.970 -1.2617 -2.7565 -2.2363
  510MOL0     H70346   4.016   8.606   4.052 -3.0667 -2.0788 -0.3668
  510MOL0     H70347   3.992   8.718   3.925 -0.9193 -0.5237 -1.4495
  510MOL0     H70348   3.958   8.764   4.233 -2.9302  0.2967  0.2484
  510MOL0     H70349   3.873   8.872   4.119 -0.1591 -0.8920 -0.2434
  510MOL0     H70350   4.054   8.988   4.161 -3.2555 -1.2953  1.5495
  510MOL0     H70351   4.061   8.935   3.998 -0.8414 -1.0245 -0.2411
  510MOL0     H70352   4.185   8.826   4.261  0.3903 -0.7519 -0.4421
  510MOL0     H70353   4.218   8.740   4.120 -1.4856 -0.6901 -1.2288
  510MOL0     H70354   4.398   8.922   4.175 -0.2666  0.5826  0.7459
  510MOL0     H70355   4.276   9.038   4.127 -0.1996 -0.4789  0.1325
  510MOL0     H70356   4.260   8.947   3.907 -1.4747 -0.7323  1.4436
  510MOL0     H70357   4.394   8.834   3.943  0.3766  0.3356  1.1627
  510MOL0     H70358   4.405   9.140   3.947  1.0554 -0.0172 -0.4837
  510MOL0     H70359   4.490   9.041   3.832  1.2114 -1.9964  0.3664
  510MOL0     H70360   3.617   8.576   4.327 -1.9855  2.9769  0.8851
  510MOL0     H70361   3.390   8.466   4.338  0.3275  0.0652 -0.4136
  510MOL0     H70362   3.000   8.327   4.358 -1.4330  1.4077  1.0190
  510MOL0     H70363   2.766   8.249   4.354 -1.7073  1.0274 -1.2783
  510MOL0     H70364   1.210   7.383   4.014 -0.5174  0.2522  0.2898
  510MOL0     H70365   0.979   7.309   4.042  0.0400 -0.3510 -2.5312
  510MOL0     H70366   0.699   6.864   3.825  0.6802 -0.1467  0.6542
  510MOL0     H70367   0.455   6.790   3.808  0.0737  0.2833  0.2568
  510MOL0     H70368   0.219   7.092   3.786  0.0691 -0.8631  1.1938
  510MOL0     H70369   0.277   6.946   3.694  0.3515 -0.0526 -0.3680
  510MOL0     H70370   0.078   6.833   3.711 -2.4677 -1.0344  3.2415
  510MOL0     H70371   0.049   6.995   3.631 -0.6510  1.5704  0.8103
  510MOL0     H70372  -0.138   6.955   3.790 -1.3096 -0.7509  4.7382
  510MOL0     H70373  -0.039   6.936   3.925 -4.0552 -0.9848 -0.0394
  510MOL0     H70374  -0.149   7.151   3.874  0.3079 -4.5517  1.9299
  510MOL0     H70375  -0.017   7.175   3.742  0.0010 -0.4221 -0.3720
  510MOL0     H70376   0.172   7.291   4.107 -1.0640 -0.3755  0.1382
  510MOL0     H70377   0.364   7.128   4.048  0.6977  0.2547  0.5010
  510MOL0     H70378   0.689   7.155   4.206  0.9007  1.7629 -0.4512
  510MOL0     H70379   0.702   7.266   4.075 -2.1353  1.1244 -2.1905
  510MOL0     H70380   0.558   7.267   4.170 -0.1685  0.7325 -2.2828
  511MOL0     O70381   5.847   2.035   7.055 -0.2218 -0.1595  0.0886
  511MOL0     C70382   5.793   1.947   6.994  0.6295  0.3029 -0.2880
  511MOL0     O70383   5.835   1.897   6.873 -0.0780 -0.1636  0.1757
  511MOL0     C70384   5.959   1.931   6.834  0.2323  0.1744  0.2670
  511MOL0     C70385   5.972   1.992   6.713  0.3485 -0.5670 -0.0098
  511MOL0     C70386   6.087   2.031   6.665 -1.4934 -0.7520  0.6511
  511MOL0     C70387   6.206   2.002   6.730  0.4309  0.9286 -0.1779
  511MOL0     O70388   6.319   2.046   6.671  0.4158  0.1507  0.0070
  511MOL0     C70389   6.432   2.058   6.759  0.3277  0.0646 -0.5368
  511MOL0     C70390   6.565   2.109   6.696  0.8777 -0.5667 -0.4928
  511MOL0     C70391   6.548   2.251   6.636  0.0928 -0.0800 -0.6553
  511MOL0     C70392   6.496   2.348   6.738 -0.1088 -0.5712  0.3377
  511MOL0     C70393   6.520   2.490   6.683  0.1318  0.1816 -0.3981
  511MOL0     C70394   6.476   2.598   6.788 -0.2359  0.1480 -0.1855
  511MOL0     C70395   6.328   2.591   6.813  0.8732  0.0566 -0.2305
  511MOL0     C70396   6.278   2.713   6.884  0.4489 -0.1233  0.0041
  511MOL0     N70397   6.133   2.690   6.906 -0.6926 -0.6019  0.3746
  511MOL0     C70398   6.032   2.700   6.813 -0.5351  0.9777  0.0373
  511MOL0     C70399   5.919   2.698   6.880 -0.4393  0.4130 -0.2164
  511MOL0     C70400   5.780   2.710   6.820 -0.4163  0.3465 -0.8247
  511MOL0     C70401   5.733   2.863   6.829 -0.4931  1.2939  0.0293
  511MOL0     C70402   5.646   2.897   6.950  0.5572  0.1037  0.4282
  511MOL0     C70403   5.521   2.818   6.958  0.4058 -0.8517 -0.2890
  511MOL0     O70404   5.495   2.782   7.091  0.1655  0.0074 -0.6551
  511MOL0     C70405   5.367   2.761   7.125 -0.2499 -0.0264 -0.3550
  511MOL0     C70406   5.254   2.762   7.040  0.0899  0.2822  0.2334
  511MOL0     C70407   5.123   2.744   7.092  0.4956  0.4362  0.8107
  511MOL0     C70408   5.006   2.753   7.002 -0.7118 -0.3761 -0.4855
  511MOL0     C70409   5.103   2.706   7.226  0.7752 -0.2334 -0.4058
  511MOL0     C70410   4.966   2.678   7.291 -0.3118 -0.8322  0.3381
  511MOL0     O70411   4.867   2.774   7.279  0.5515 -0.2224  0.0827
  511MOL0     C70412   4.752   2.772   7.355  0.4511  0.6159 -0.6775
  511MOL0     C70413   4.760   2.775   7.492  0.7369 -0.2147 -0.9027
  511MOL0     C70414   4.640   2.769   7.569 -0.2395 -0.3549 -0.0145
  511MOL0     C70415   4.518   2.765   7.498 -0.3774  0.2688 -0.9568
  511MOL0     O70416   4.399   2.764   7.566 -0.1776 -1.0815 -0.3495
  511MOL0     C70417   4.385   2.715   7.698 -0.2478  0.3458  0.7072
  511MOL0     C70418   4.246   2.646   7.719  0.3207  0.3665 -0.2249
  511MOL0     C70419   4.132   2.747   7.706 -0.0376 -0.3724  0.2369
  511MOL0     C70420   4.095   2.830   7.838 -0.3776  0.2922 -0.1421
  511MOL0     C70421   3.998   2.950   7.818 -0.0018 -0.1281 -0.2312
  511MOL0     C70422   3.976   3.043   7.929 -1.1924 -0.2362  0.6884
  511MOL0     C70423   3.960   2.989   8.065 -1.9067  0.8578  0.3889
  511MOL0     C70424   3.967   3.105   8.164  0.5174  0.3621 -0.3896
  511MOL0    Cl70425   4.139   3.157   8.198  0.2788  0.3561  0.0490
  511MOL0     C70426   4.512   2.763   7.360  0.3506 -0.4666  0.3101
  511MOL0     C70427   4.633   2.760   7.292 -0.1571 -0.1922 -0.8150
  511MOL0     O70428   4.956   2.579   7.357  0.1187 -0.6836 -0.1661
  511MOL0     C70429   5.214   2.708   7.309  1.2303  0.1276  0.7124
  511MOL0     C70430   5.339   2.747   7.259 -0.4569  0.1225 -0.7889
  511MOL0     N70431   5.954   2.697   7.018  0.4584 -0.5658  0.1480
  511MOL0     N70432   6.078   2.692   7.028  0.3585 -0.1196  0.2713
  511MOL0     C70433   6.205   1.929   6.852  0.5272  0.4220 -0.2080
  511MOL0     C70434   6.078   1.892   6.900 -0.2907  0.0985  0.5508
  511MOL0     C70435   5.653   1.913   7.043  0.1244  0.2288 -0.9309
  511MOL0     C70436   5.566   1.874   6.940 -0.1216  0.1005 -0.2955
  511MOL0     C70437   5.430   1.852   6.969  0.5774  0.1118  0.0972
  511MOL0     C70438   5.396   1.838   7.100  0.2884  0.0998 -0.4203
  511MOL0     O70439   5.271   1.800   7.122  0.1897 -0.6227 -0.2296
  511MOL0     C70440   5.191   1.911   7.180  0.1157  0.0372 -0.1132
  511MOL0     C70441   5.044   1.874   7.150 -0.0348 -0.4932  0.2660
  511MOL0     C70442   5.010   1.723   7.171  0.2892 -0.0730  0.3069
  511MOL0     C70443   5.063   1.676   7.304  0.8095 -0.4386  0.1076
  511MOL0     C70444   5.025   1.538   7.328 -0.0267  0.9050 -0.4591
  511MOL0     C70445   5.023   1.414   7.348  0.3144  0.1611  0.9132
  511MOL0     C70446   5.484   1.859   7.210 -0.2970 -0.3136  0.2942
  511MOL0     C70447   5.612   1.908   7.179 -0.8950  0.5194  0.3033
  511MOL0     C70448   5.702   1.933   7.292 -0.4416 -0.8158 -0.3030
  511MOL0     H70449   5.878   2.014   6.663 -0.3947 -2.8119  0.3157
  511MOL0     H70450   6.095   2.094   6.577  0.1444 -0.3125  1.0772
  511MOL0     H70451   6.463   1.967   6.810  0.4627  0.9962  1.1132
  511MOL0     H70452   6.391   2.122   6.839  0.4841  0.4915 -0.7954
  511MOL0     H70453   6.650   2.117   6.764 -0.1439  0.8955  0.6746
  511MOL0     H70454   6.582   2.037   6.616  1.5329 -0.8356 -0.1143
  511MOL0     H70455   6.651   2.280   6.614  0.3829 -1.2669 -0.9133
  511MOL0     H70456   6.485   2.250   6.547  1.6261  2.3037 -1.8784
  511MOL0     H70457   6.389   2.332   6.754 -0.1707  0.0572  0.5518
  511MOL0     H70458   6.547   2.336   6.833  0.0286 -0.7238  0.2457
  511MOL0     H70459   6.463   2.505   6.590 -0.7795 -0.1684  0.0889
  511MOL0     H70460   6.628   2.493   6.670  0.3750 -1.1874  1.0258
  511MOL0     H70461   6.532   2.598   6.882  0.0962  1.1189 -0.3610
  511MOL0     H70462   6.495   2.695   6.740 -1.0858  0.7781  0.7096
  511MOL0     H70463   6.306   2.496   6.864  0.3432 -0.1220 -0.7787
  511MOL0     H70464   6.272   2.580   6.720 -2.7817 -0.9147  1.9013
  511MOL0     H70465   6.328   2.741   6.977  0.4759  0.8798 -0.3009
  511MOL0     H70466   6.282   2.794   6.810 -0.6447 -1.3604 -1.4749
  511MOL0     H70467   6.037   2.711   6.705 -2.3706  0.0985 -0.1800
  511MOL0     H70468   5.713   2.646   6.879  0.6784  0.4965  0.6376
  511MOL0     H70469   5.768   2.670   6.719  2.6426 -2.5409 -0.2131
  511MOL0     H70470   5.821   2.929   6.828  0.0007  0.7670  2.2824
  511MOL0     H70471   5.688   2.895   6.735  0.7172 -0.8630 -1.3717
  511MOL0     H70472   5.701   2.877   7.042  0.0659 -0.0745  0.6885
  511MOL0     H70473   5.629   3.005   6.954 -0.3654 -0.0548  0.8700
  511MOL0     H70474   5.446   2.888   6.919 -1.1065 -1.4742  1.3900
  511MOL0     H70475   5.523   2.727   6.898 -1.8249 -0.7758 -0.5568
  511MOL0     H70476   5.250   2.787   6.935 -1.1392  0.3144  0.2836
  511MOL0     H70477   4.941   2.838   7.025  1.8328  1.2713  1.2296
  511MOL0     H70478   4.942   2.665   7.010 -1.3968  0.1729  0.1513
  511MOL0     H70479   5.039   2.763   6.898 -0.4688  0.6543 -0.3272
  511MOL0     H70480   4.854   2.793   7.544 -2.1290  1.6768  4.4152
  511MOL0     H70481   4.638   2.761   7.678  2.1088  0.2782  0.1408
  511MOL0     H70482   4.462   2.640   7.717  1.3924  1.1860 -2.1624
  511MOL0     H70483   4.389   2.800   7.767 -0.3399  0.7444  0.2259
  511MOL0     H70484   4.232   2.575   7.637 -0.1538 -0.0122  0.1754
  511MOL0     H70485   4.237   2.599   7.817 -1.0740  0.7416 -0.1558
  511MOL0     H70486   4.045   2.683   7.688  1.0867 -2.0957  0.8073
  511MOL0     H70487   4.129   2.816   7.620 -0.4630 -1.5694 -0.7363
  511MOL0     H70488   4.186   2.868   7.885 -0.3776  1.9344 -1.3561
  511MOL0     H70489   4.063   2.755   7.911  2.0299 -1.8504 -1.1071
  511MOL0     H70490   4.033   2.996   7.724 -0.6330  0.2924 -0.2645
  511MOL0     H70491   3.900   2.903   7.807  1.2627 -2.6050 -2.1415
  511MOL0     H70492   3.904   3.118   7.893  2.3722  2.2063 -2.0637
  511MOL0     H70493   4.073   3.093   7.937 -1.1216  0.2991 -2.4704
  511MOL0     H70494   4.046   2.922   8.077 -3.2869 -1.1294 -0.3875
  511MOL0     H70495   3.864   2.941   8.087 -1.5634 -0.4730 -0.8790
  511MOL0     H70496   3.920   3.061   8.253 -0.2339  2.0525  0.0899
  511MOL0     H70497   3.901   3.187   8.136 -2.3925 -1.5741  0.3031
  511MOL0     H70498   4.409   2.768   7.324  0.7414 -0.4331 -0.8490
  511MOL0     H70499   4.628   2.767   7.184  1.0923 -0.6739 -0.9173
  511MOL0     H70500   5.201   2.676   7.412  2.8211  0.2792  0.9955
  511MOL0     H70501   5.426   2.741   7.324  1.8879  1.1445 -3.6184
  511MOL0     H70502   6.287   1.920   6.922 -1.6616  1.2098  2.6434
  511MOL0     H70503   6.071   1.850   7.000  1.4101 -0.5179  0.4463
  511MOL0     H70504   5.593   1.872   6.835 -0.9973  1.0589 -0.5579
  511MOL0     H70505   5.350   1.832   6.898 -2.0533  4.4032  1.5070
  511MOL0     H70506   5.218   1.928   7.284 -2.4578 -3.2747  1.2627
  511MOL0     H70507   5.215   2.003   7.126  0.3430 -0.6398 -1.1928
  511MOL0     H70508   5.035   1.896   7.043  1.7928 -0.3669  0.1220
  511MOL0     H70509   4.963   1.929   7.199 -1.2440 -0.7138 -1.3921
  511MOL0     H70510   4.902   1.707   7.165  0.3336 -0.8849  1.2849
  511MOL0     H70511   5.069   1.668   7.096  2.4006  1.9069  0.3952
  511MOL0     H70512   5.030   1.746   7.382 -1.6063 -0.6799 -0.6215
  511MOL0     H70513   5.173   1.684   7.302  0.7458  0.3614 -0.5708
  511MOL0     H70514   5.017   1.308   7.363 -1.2030  0.3201  1.6363
  511MOL0     H70515   5.439   1.842   7.307 -3.1517 -1.4443 -1.0966
  511MOL0     H70516   5.712   1.835   7.341 -0.6115 -0.7010 -0.0392
  511MOL0     H70517   5.807   1.959   7.273 -0.1785 -2.5294 -1.4450
  511MOL0     H70518   5.655   2.004   7.361 -1.0799  1.7391 -3.1727
  512MOL0     O70519   6.673   6.002   0.053 -1.1377 -0.0563 -0.2015
  512MOL0     C70520   6.621   5.990   0.165  0.7221 -0.0969 -1.2728
  512MOL0     O70521   6.686   5.997   0.288 -0.4508 -0.5385 -0.3546
  512MOL0     C70522   6.822   5.987   0.275  0.9820 -0.3130 -0.2742
  512MOL0     C70523   6.901   6.105   0.298  0.1638 -1.0734  0.5997
  512MOL0     C70524   7.041   6.103   0.292  0.5335  0.6281  0.0242
  512MOL0     C70525   7.109   5.991   0.262 -0.7690  0.3148  0.3477
  512MOL0     O70526   7.247   5.962   0.266  0.1428  0.3842  0.1941
  512MOL0     C70527   7.331   6.055   0.335 -0.6772 -0.5484 -0.1544
  512MOL0     C70528   7.468   5.997   0.362  0.5193  0.4442  0.5693
  512MOL0     C70529   7.478   5.904   0.479 -1.1558  0.9049  0.0590
  512MOL0     C70530   7.623   5.848   0.504  0.2727  0.4645  0.0780
  512MOL0     C70531   7.613   5.765   0.627 -0.6054 -0.0691 -1.3101
  512MOL0     C70532   7.586   5.846   0.760  0.0574 -0.5010 -0.2049
  512MOL0     C70533   7.607   5.754   0.886 -0.1930 -0.2076 -0.2444
  512MOL0     C70534   7.754   5.750   0.923 -0.6822 -0.1606  0.4673
  512MOL0     N70535   7.803   5.878   0.974  0.1712 -0.5411 -0.3653
  512MOL0     C70536   7.778   5.923   1.101  0.2208  1.1672  0.1873
  512MOL0     C70537   7.840   6.039   1.112  0.4982  0.1150  0.1224
  512MOL0     C70538   7.835   6.113   1.245 -0.0887  0.1603  0.4937
  512MOL0     C70539   7.719   6.210   1.241  0.4833 -0.1947 -0.0825
  512MOL0     C70540   7.679   6.233   1.391  0.2955 -0.0754 -0.0878
  512MOL0     C70541   7.575   6.341   1.403  0.2166 -0.4142 -0.6077
  512MOL0     O70542   7.447   6.300   1.341 -0.3609  0.2381  0.3463
  512MOL0     C70543   7.328   6.364   1.366  0.9940 -0.7388 -0.6045
  512MOL0     C70544   7.305   6.473   1.460 -0.2483 -0.6877 -0.4408
  512MOL0     C70545   7.180   6.526   1.489  0.4630 -0.3075  0.0951
  512MOL0     C70546   7.174   6.634   1.592  0.2459 -0.9659 -0.4268
  512MOL0     C70547   7.061   6.480   1.414  0.4884  0.2047  0.3156
  512MOL0     C70548   6.924   6.546   1.416  0.4002 -0.0061  0.0253
  512MOL0     O70549   6.821   6.486   1.347 -0.3550 -0.4695 -0.6260
  512MOL0     C70550   6.709   6.562   1.333  1.1027  0.8739  0.0165
  512MOL0     C70551   6.623   6.579   1.443 -0.0579 -0.3106  0.3534
  512MOL0     C70552   6.503   6.651   1.426  0.6026 -0.3169 -1.5888
  512MOL0     C70553   6.464   6.699   1.302  1.1148 -0.0941  0.7158
  512MOL0     O70554   6.348   6.764   1.272 -0.6559  0.0596 -0.3631
  512MOL0     C70555   6.354   6.886   1.196  0.1360  0.1329 -0.6189
  512MOL0     C70556   6.225   6.949   1.203 -0.0580  0.2824 -0.6807
  512MOL0     C70557   6.110   6.897   1.108  0.2151 -0.4390  0.3432
  512MOL0     C70558   5.987   6.975   1.148 -0.1262 -1.6112 -0.1290
  512MOL0     C70559   5.853   6.914   1.096 -0.9969  0.3959 -0.0831
  512MOL0     C70560   5.743   7.007   1.122  0.6033  0.4510  0.1797
  512MOL0     C70561   5.605   6.948   1.078 -0.0279  1.2015  0.0071
  512MOL0     C70562   5.490   7.052   1.071  0.5793  0.0619 -0.0654
  512MOL0    Cl70563   5.333   6.971   1.089  0.1478 -0.1665 -0.2992
  512MOL0     C70564   6.550   6.682   1.194 -0.3461 -0.9926 -0.0463
  512MOL0     C70565   6.673   6.620   1.213 -0.6419  0.5623 -0.2864
  512MOL0     O70566   6.915   6.654   1.476  0.5246 -0.0338  0.0422
  512MOL0     C70567   7.083   6.375   1.320 -0.2742  0.4737  0.2200
  512MOL0     C70568   7.211   6.317   1.304 -0.8763 -0.1033 -0.0168
  512MOL0     N70569   7.913   6.065   0.991  0.2737 -0.2658  0.2939
  512MOL0     N70570   7.887   5.964   0.914 -0.5055  0.2397 -0.6330
  512MOL0     C70571   7.029   5.879   0.234 -0.1732  0.6042  0.3057
  512MOL0     C70572   6.886   5.866   0.248 -0.7749  0.2363 -0.0813
  512MOL0     C70573   6.474   5.965   0.160 -0.2673  0.6691  0.0609
  512MOL0     C70574   6.422   5.877   0.058 -0.3125 -0.0575 -0.0248
  512MOL0     C70575   6.286   5.836   0.060  0.4367 -0.3180  0.7450
  512MOL0     C70576   6.200   5.892   0.154  0.3376 -0.0327 -0.2564
  512MOL0     O70577   6.063   5.853   0.175 -0.9838 -0.5377 -0.3472
  512MOL0     C70578   5.988   5.876   0.056  0.8687  0.3494 -0.1622
  512MOL0     C70579   5.944   6.016   0.064  0.4049  0.7312  0.3158
  512MOL0     C70580   5.857   6.037   0.193  0.0487 -0.6331  0.3860
  512MOL0     C70581   5.802   6.178   0.184  0.7228  0.4663  0.2227
  512MOL0     C70582   5.696   6.192   0.283  0.5186 -0.2048  0.6128
  512MOL0     C70583   5.596   6.219   0.349 -0.9198 -0.1034 -0.5230
  512MOL0     C70584   6.246   5.979   0.252 -0.2981 -0.0795 -0.6194
  512MOL0     C70585   6.386   6.016   0.256 -0.0745 -0.0531  0.4790
  512MOL0     C70586   6.437   6.102   0.370 -0.1468 -0.1131 -0.6537
  512MOL0     H70587   6.842   6.192   0.327  0.2179 -0.6171 -0.6200
  512MOL0     H70588   7.103   6.185   0.327  0.0488  0.2137  1.9769
  512MOL0     H70589   7.292   6.087   0.432 -1.9556 -0.8220 -0.5642
  512MOL0     H70590   7.342   6.148   0.278 -1.9697 -0.8686 -0.9790
  512MOL0     H70591   7.502   5.951   0.269 -1.5792 -0.4708  0.1932
  512MOL0     H70592   7.538   6.080   0.378  0.0941  1.3871 -2.0250
  512MOL0     H70593   7.435   5.959   0.563 -0.8360 -0.2017  0.9782
  512MOL0     H70594   7.415   5.816   0.462  0.9629 -0.4935 -1.0348
  512MOL0     H70595   7.648   5.785   0.419 -1.5207 -1.4548  0.8717
  512MOL0     H70596   7.690   5.934   0.512  0.3449  0.3006  1.5774
  512MOL0     H70597   7.710   5.717   0.640 -1.2547 -1.3327 -0.9232
  512MOL0     H70598   7.543   5.681   0.627  1.3405 -1.8592  1.4242
  512MOL0     H70599   7.670   5.916   0.757  0.5935 -1.1620 -2.3883
  512MOL0     H70600   7.495   5.908   0.766  1.2115  1.6785 -2.9339
  512MOL0     H70601   7.573   5.651   0.874  0.7710 -0.6187  0.4096
  512MOL0     H70602   7.545   5.794   0.966  0.8658  0.1182  0.4322
  512MOL0     H70603   7.767   5.674   1.001 -1.9796 -5.1160 -3.6094
  512MOL0     H70604   7.816   5.704   0.845  1.0579  2.3404  0.2745
  512MOL0     H70605   7.712   5.882   1.176  1.0882 -0.3688  0.1546
  512MOL0     H70606   7.928   6.168   1.258  0.3719 -0.7838  1.3517
  512MOL0     H70607   7.821   6.042   1.328 -1.8241  1.5477  1.4539
  512MOL0     H70608   7.753   6.303   1.195 -1.8447  0.9996  0.4508
  512MOL0     H70609   7.637   6.172   1.179 -0.2729  1.5225 -0.1984
  512MOL0     H70610   7.637   6.148   1.445  0.3684  0.4501  0.8149
  512MOL0     H70611   7.768   6.258   1.449  1.9031  0.0400 -2.4673
  512MOL0     H70612   7.566   6.356   1.511  0.0740 -2.1425 -0.3524
  512MOL0     H70613   7.621   6.434   1.368 -3.8556  1.2344 -2.1792
  512MOL0     H70614   7.396   6.506   1.510 -0.3631 -0.6738 -0.2374
  512MOL0     H70615   7.171   6.738   1.557 -0.9230 -0.1033  1.9735
  512MOL0     H70616   7.260   6.622   1.659  0.7373  2.3320 -0.2785
  512MOL0     H70617   7.079   6.622   1.645 -1.5617 -1.8674 -3.6683
  512MOL0     H70618   6.661   6.543   1.538 -0.0515 -2.4326 -0.4056
  512MOL0     H70619   6.427   6.661   1.503  1.2091  2.7510 -1.2550
  512MOL0     H70620   6.423   6.959   1.240 -2.8716  0.7017  3.7800
  512MOL0     H70621   6.365   6.883   1.087  0.2120  3.0919 -0.7813
  512MOL0     H70622   6.198   6.953   1.309  2.1039  0.8605 -0.1088
  512MOL0     H70623   6.242   7.053   1.174 -3.9854  1.3774  0.2186
  512MOL0     H70624   6.090   6.791   1.120  0.9294 -0.9211 -2.1189
  512MOL0     H70625   6.134   6.913   1.003  0.1812  0.7412  0.4980
  512MOL0     H70626   5.999   7.077   1.109 -1.5746 -1.2137  0.4054
  512MOL0     H70627   5.977   6.992   1.255 -0.0480  3.5695 -0.6967
  512MOL0     H70628   5.853   6.899   0.987 -1.1438  0.8298 -0.1455
  512MOL0     H70629   5.838   6.822   1.153 -1.0594  0.2139 -0.3887
  512MOL0     H70630   5.767   7.103   1.076 -0.3470  0.1655 -0.9813
  512MOL0     H70631   5.736   7.021   1.230  1.2927 -0.6585  0.3879
  512MOL0     H70632   5.580   6.882   1.161  1.4343  4.3019  3.1220
  512MOL0     H70633   5.611   6.895   0.982  2.2819  0.0272  0.7277
  512MOL0     H70634   5.499   7.097   0.972  0.7073 -1.3824 -0.7361
  512MOL0     H70635   5.504   7.130   1.147  1.5262  1.1526 -1.3089
  512MOL0     H70636   6.531   6.730   1.098  0.3490 -3.0134 -1.2500
  512MOL0     H70637   6.733   6.625   1.123 -0.5830  0.6623 -0.2408
  512MOL0     H70638   6.992   6.353   1.265 -0.8463  2.3238  0.3745
  512MOL0     H70639   7.223   6.231   1.239 -1.5544 -1.5752  1.7210
  512MOL0     H70640   7.088   5.792   0.208 -0.2423  0.8434 -0.6849
  512MOL0     H70641   6.828   5.774   0.241 -1.0572  0.2430  1.6821
  512MOL0     H70642   6.487   5.825  -0.011  1.8645 -3.6829  4.2633
  512MOL0     H70643   6.246   5.763  -0.009  1.9879  1.2794 -2.0433
  512MOL0     H70644   6.049   5.868  -0.034  1.8363  2.1945  0.2847
  512MOL0     H70645   5.903   5.806   0.052 -0.5134  1.9938 -0.8312
  512MOL0     H70646   5.888   6.039  -0.027  1.0652 -2.7735 -1.1186
  512MOL0     H70647   6.034   6.079   0.068  2.0324 -1.0094 -3.5632
  512MOL0     H70648   5.782   5.957   0.186 -1.2935  0.7305 -2.9454
  512MOL0     H70649   5.922   6.022   0.280  0.0365 -0.0916  0.4915
  512MOL0     H70650   5.749   6.201   0.091  0.4228 -0.5225  0.1413
  512MOL0     H70651   5.875   6.258   0.193 -0.7284  1.7934  0.7442
  512MOL0     H70652   5.516   6.262   0.405 -0.7430  0.2872 -0.5696
  512MOL0     H70653   6.179   6.015   0.329 -0.5111  1.2345 -1.4009
  512MOL0     H70654   6.361   6.147   0.435 -0.3581 -2.2642  0.6678
  512MOL0     H70655   6.505   6.049   0.437  0.1638  1.2989  0.1996
  512MOL0     H70656   6.487   6.189   0.326 -0.3810  0.3442 -0.0415
  513MOL0     O70657   0.212   4.212   6.556  0.3604  0.1899  0.0236
  513MOL0     C70658   0.188   4.319   6.509 -0.7007 -0.7663 -0.6538
  513MOL0     O70659   0.285   4.418   6.501  0.2205  0.1423  0.2057
  513MOL0     C70660   0.420   4.386   6.521 -0.2006  0.3424 -0.6190
  513MOL0     C70661   0.482   4.261   6.507 -0.1020  0.6721  0.1853
  513MOL0     C70662   0.623   4.254   6.525 -0.6411  0.0492 -0.6252
  513MOL0     C70663   0.702   4.361   6.558  0.6418 -1.2161  0.0776
  513MOL0     O70664   0.840   4.353   6.548 -0.1081  1.0741  0.0514
  513MOL0     C70665   0.918   4.463   6.517  1.3991 -0.0882 -0.2886
  513MOL0     C70666   1.067   4.421   6.506  0.0339  0.2265 -0.3787
  513MOL0     C70667   1.163   4.521   6.490 -0.4794 -0.3245  0.8334
  513MOL0     C70668   1.167   4.578   6.345 -0.1540  0.4130 -0.5576
  513MOL0     C70669   1.281   4.683   6.328  0.5622  0.0708 -0.2715
  513MOL0     C70670   1.418   4.620   6.318  0.3123  0.4009 -0.5513
  513MOL0     C70671   1.534   4.718   6.292  0.5779  0.0655 -0.4090
  513MOL0     C70672   1.584   4.776   6.423 -0.7082 -0.0496 -0.3086
  513MOL0     N70673   1.696   4.870   6.389 -0.6439  0.3604 -0.0526
  513MOL0     C70674   1.825   4.822   6.358 -0.2521 -0.5431  0.1000
  513MOL0     C70675   1.887   4.938   6.319  0.0729  0.0309  0.2246
  513MOL0     C70676   2.031   4.940   6.279 -0.3108 -0.0530  0.1725
  513MOL0     C70677   2.132   4.903   6.389  0.2016  0.4447  0.6416
  513MOL0     C70678   2.124   5.017   6.495 -0.1621  0.6939  0.0968
  513MOL0     C70679   2.218   4.984   6.615 -0.0757  0.1180 -0.7541
  513MOL0     O70680   2.360   4.969   6.576  0.7104 -0.6843 -0.4087
  513MOL0     C70681   2.455   4.899   6.649  0.7849 -0.7112  0.6464
  513MOL0     C70682   2.570   4.873   6.574  0.0242 -0.2713  0.3195
  513MOL0     C70683   2.670   4.789   6.632  0.9257 -0.8808 -0.9031
  513MOL0     C70684   2.811   4.782   6.576  0.0152  0.3566  0.4123
  513MOL0     C70685   2.641   4.728   6.757  0.2602 -0.0027  0.3463
  513MOL0     C70686   2.739   4.630   6.819  0.8896  0.5634 -0.1818
  513MOL0     O70687   2.756   4.635   6.952  0.0817  0.6113 -0.7793
  513MOL0     C70688   2.846   4.550   7.009 -0.1902  0.1920  0.4611
  513MOL0     C70689   2.956   4.601   7.078 -0.3497  0.9624  0.4267
  513MOL0     C70690   3.056   4.508   7.126 -0.5486  0.1082 -0.4480
  513MOL0     C70691   3.045   4.368   7.131  0.1220  1.2465 -0.0330
  513MOL0     O70692   3.150   4.291   7.180 -0.0041  0.2261 -0.2829
  513MOL0     C70693   3.161   4.303   7.328  0.3744 -0.3346  0.7599
  513MOL0     C70694   3.215   4.170   7.394  0.4469  0.4452 -0.8765
  513MOL0     C70695   3.367   4.148   7.381  0.5804  1.2257 -0.0883
  513MOL0     C70696   3.460   4.265   7.329  0.5553 -1.3363 -0.8070
  513MOL0     C70697   3.605   4.233   7.320 -0.3003  0.4376 -0.6944
  513MOL0     C70698   3.675   4.210   7.459 -1.1564 -0.4408 -0.5235
  513MOL0     C70699   3.828   4.196   7.442 -0.8935  0.3390 -0.9585
  513MOL0     C70700   3.912   4.171   7.577  0.5753  0.6053 -0.6660
  513MOL0    Cl70701   3.816   4.114   7.707  0.1156  0.1623  0.0574
  513MOL0     C70702   2.934   4.319   7.069  0.4420  0.0483 -0.7373
  513MOL0     C70703   2.838   4.406   7.011 -0.7665 -0.8020  0.5325
  513MOL0     O70704   2.791   4.551   6.745 -0.1049  0.3363  0.2796
  513MOL0     C70705   2.525   4.761   6.828  0.9185  0.2347 -0.2555
  513MOL0     C70706   2.433   4.851   6.775  0.8033  0.4969  0.4101
  513MOL0     N70707   1.810   5.051   6.348  0.1579 -0.4070 -0.4046
  513MOL0     N70708   1.694   5.008   6.393 -0.0064  0.2277 -0.2913
  513MOL0     C70709   0.642   4.485   6.565  0.7806  0.1266  0.3506
  513MOL0     C70710   0.500   4.500   6.551 -0.0629  0.0190 -0.9097
  513MOL0     C70711   0.044   4.371   6.498 -0.7794 -0.7220  0.4926
  513MOL0     C70712   0.021   4.510   6.482 -0.0049  0.1269  0.3934
  513MOL0     C70713  -0.105   4.558   6.456  0.2046  0.2326 -0.2161
  513MOL0     C70714  -0.216   4.475   6.469  0.1787  0.2691  0.8912
  513MOL0     O70715  -0.333   4.542   6.486 -0.0085 -0.4227  0.5921
  513MOL0     C70716  -0.454   4.467   6.479  0.7637 -0.4731 -1.0766
  513MOL0     C70717  -0.570   4.559   6.501 -0.0832 -0.4673 -0.7948
  513MOL0     C70718  -0.712   4.507   6.475 -0.6265 -0.1216 -0.7317
  513MOL0     C70719  -0.730   4.365   6.534  1.1058  0.6217  0.8769
  513MOL0     C70720  -0.691   4.338   6.673  0.3434 -0.3166  0.2876
  513MOL0     C70721  -0.649   4.324   6.788  0.2307  1.3846 -0.1694
  513MOL0     C70722  -0.205   4.340   6.464 -0.0622  0.4857 -0.7241
  513MOL0     C70723  -0.071   4.285   6.476 -0.8178 -0.8901  0.0004
  513MOL0     C70724  -0.068   4.135   6.450  0.1052  0.8688  0.8300
  513MOL0     H70725   0.430   4.175   6.466  1.2862 -0.0038 -0.1910
  513MOL0     H70726   0.660   4.155   6.500 -0.3541 -0.1697  0.6130
  513MOL0     H70727   0.907   4.545   6.589 -0.1858 -0.6079  0.0994
  513MOL0     H70728   0.888   4.509   6.422  1.8411 -1.9905 -1.3986
  513MOL0     H70729   1.094   4.367   6.597 -0.4600  0.2396 -0.2224
  513MOL0     H70730   1.090   4.356   6.421 -0.0820 -2.0252  1.2128
  513MOL0     H70731   1.140   4.602   6.561  0.5439  0.2036  0.5836
  513MOL0     H70732   1.263   4.484   6.513  1.1468  1.6297 -2.3982
  513MOL0     H70733   1.172   4.504   6.265 -1.0813  0.2065 -0.4338
  513MOL0     H70734   1.072   4.629   6.324 -1.3798 -0.1729  2.9335
  513MOL0     H70735   1.287   4.758   6.408  0.1297  0.7466 -0.8704
  513MOL0     H70736   1.261   4.743   6.239  0.6399  1.6862  0.7519
  513MOL0     H70737   1.444   4.563   6.408  2.8103  1.3490 -0.6133
  513MOL0     H70738   1.422   4.539   6.245  0.0027  1.0713 -1.3297
  513MOL0     H70739   1.506   4.788   6.213  0.1534 -0.3875 -0.6647
  513MOL0     H70740   1.615   4.653   6.257 -1.2152 -2.6982  0.2472
  513MOL0     H70741   1.515   4.834   6.486 -0.5120 -1.7849  1.5810
  513MOL0     H70742   1.625   4.704   6.494  0.1171  3.0280  2.6301
  513MOL0     H70743   1.848   4.716   6.356 -0.1393 -0.5254  0.4403
  513MOL0     H70744   2.055   5.040   6.241 -0.1510 -0.9869 -2.4101
  513MOL0     H70745   2.046   4.868   6.198 -0.7431  1.8602 -1.6918
  513MOL0     H70746   2.117   4.804   6.435  0.5033 -0.4528 -1.0802
  513MOL0     H70747   2.234   4.884   6.355 -0.4871  0.7509 -1.7621
  513MOL0     H70748   2.152   5.107   6.440 -1.5130 -0.5924 -2.9359
  513MOL0     H70749   2.026   5.041   6.537 -1.1462  0.8392 -2.1403
  513MOL0     H70750   2.204   5.052   6.700 -0.7106  0.6368 -1.2625
  513MOL0     H70751   2.187   4.890   6.662 -1.8002  0.6992 -0.6559
  513MOL0     H70752   2.574   4.910   6.472 -1.7580 -0.9764 -0.0563
  513MOL0     H70753   2.821   4.854   6.494  1.0346  1.4704  1.4834
  513MOL0     H70754   2.829   4.678   6.547 -1.5406 -0.5816  2.5233
  513MOL0     H70755   2.890   4.804   6.648  0.9126 -2.1037  0.2717
  513MOL0     H70756   2.958   4.708   7.093 -0.3694  1.6333 -3.4229
  513MOL0     H70757   3.154   4.544   7.154 -0.6293  1.5271 -1.8845
  513MOL0     H70758   3.218   4.391   7.359 -0.7459  0.9170 -0.5473
  513MOL0     H70759   3.059   4.307   7.368  0.3548 -0.8889  0.7709
  513MOL0     H70760   3.193   4.187   7.500 -0.1780  3.5281 -1.4213
  513MOL0     H70761   3.155   4.087   7.355 -0.1008 -0.2376  1.2838
  513MOL0     H70762   3.382   4.054   7.326 -2.1356  0.7310 -0.1498
  513MOL0     H70763   3.400   4.122   7.482  1.0032  0.6046 -0.3782
  513MOL0     H70764   3.452   4.350   7.397  1.4415 -2.1143  0.3085
  513MOL0     H70765   3.431   4.291   7.227  1.3917 -1.1540 -1.0053
  513MOL0     H70766   3.609   4.147   7.253  0.3369  1.5000 -2.0816
  513MOL0     H70767   3.662   4.314   7.274 -0.9863  0.5589 -1.3345
  513MOL0     H70768   3.623   4.123   7.501  1.8355 -1.4761  1.3589
  513MOL0     H70769   3.656   4.298   7.520 -0.8497  0.1014 -1.1983
  513MOL0     H70770   3.867   4.286   7.393 -2.7334 -0.1636 -3.6114
  513MOL0     H70771   3.851   4.113   7.374  2.3924 -0.6096  1.0971
  513MOL0     H70772   3.945   4.270   7.608 -0.8285  0.5604  1.1630
  513MOL0     H70773   4.000   4.107   7.563  2.0283  2.0865  1.2174
  513MOL0     H70774   2.932   4.212   7.051  2.8902 -0.7163  2.5390
  513MOL0     H70775   2.751   4.362   6.962 -0.2426 -0.5829 -0.6040
  513MOL0     H70776   2.512   4.705   6.920 -0.7109  1.5765  0.3702
  513MOL0     H70777   2.338   4.884   6.816  0.5450  0.4855 -0.1617
  513MOL0     H70778   0.696   4.576   6.591 -0.7139  1.4170 -0.9253
  513MOL0     H70779   0.446   4.587   6.589 -1.9331 -2.4400  2.6319
  513MOL0     H70780   0.099   4.585   6.483 -1.4433  1.6935 -0.3121
  513MOL0     H70781  -0.132   4.663   6.454 -0.6554  0.0020 -1.2902
  513MOL0     H70782  -0.470   4.407   6.389  5.0573 -1.0695 -1.6925
  513MOL0     H70783  -0.458   4.385   6.551  0.5868 -1.0275 -1.7049
  513MOL0     H70784  -0.560   4.650   6.441 -0.9867  1.3467  1.6377
  513MOL0     H70785  -0.570   4.591   6.606 -1.8786  1.8645 -1.4147
  513MOL0     H70786  -0.786   4.578   6.513 -0.0580  0.9702 -1.6068
  513MOL0     H70787  -0.736   4.498   6.369 -1.5143  2.3648 -0.8302
  513MOL0     H70788  -0.677   4.299   6.464  1.1631 -0.6054  2.0324
  513MOL0     H70789  -0.836   4.338   6.535  1.6926 -2.0919 -0.5894
  513MOL0     H70790  -0.614   4.311   6.888  2.5252  1.7602 -0.8688
  513MOL0     H70791  -0.296   4.281   6.455  0.9019 -1.3388  0.8555
  513MOL0     H70792  -0.156   4.106   6.391  1.1654 -0.2242 -0.2662
  513MOL0     H70793   0.021   4.100   6.397 -0.1987  0.3019  0.6811
  513MOL0     H70794  -0.065   4.078   6.543 -3.7423 -3.3112 -1.2106
  514MOL0     O70795   6.985   3.142   5.690  0.3499 -0.7367  0.4710
  514MOL0     C70796   6.989   3.148   5.813  0.2323  0.9125  0.1464
  514MOL0     O70797   7.096   3.213   5.878  0.2822  0.3903 -0.2320
  514MOL0     C70798   7.191   3.250   5.791 -0.8846  0.9174 -0.0219
  514MOL0     C70799   7.285   3.162   5.735  0.2789  0.1328  0.6928
  514MOL0     C70800   7.375   3.209   5.647 -0.2301  1.3099 -0.0833
  514MOL0     C70801   7.389   3.341   5.612 -0.1128  0.6133  0.1357
  514MOL0     O70802   7.505   3.370   5.543 -0.4242 -0.1363  0.2411
  514MOL0     C70803   7.519   3.496   5.467 -0.0330 -0.5393  0.2737
  514MOL0     C70804   7.525   3.456   5.320 -0.0981  0.3643 -0.3715
  514MOL0     C70805   7.397   3.414   5.272  0.4514  0.7691  0.0334
  514MOL0     C70806   7.401   3.293   5.168 -0.2131 -0.8068  0.0457
  514MOL0     C70807   7.270   3.225   5.138  0.3189 -0.7637  0.1620
  514MOL0     C70808   7.307   3.088   5.089  1.3793 -0.2708 -0.1518
  514MOL0     C70809   7.184   3.012   5.061 -0.0128 -0.5835 -0.1008
  514MOL0     C70810   7.098   2.980   5.176 -0.1325  0.0869 -0.1067
  514MOL0     N70811   7.150   2.886   5.275 -0.0243  0.0196  0.3115
  514MOL0     C70812   7.178   2.924   5.396  0.3620  1.0054 -1.2931
  514MOL0     C70813   7.192   2.810   5.469 -0.4772 -0.7221 -0.1110
  514MOL0     C70814   7.208   2.781   5.612 -0.7371 -0.4082 -0.3612
  514MOL0     C70815   7.061   2.759   5.664  0.4646 -0.0863  0.7508
  514MOL0     C70816   7.049   2.759   5.814 -0.1313  0.9605 -0.4383
  514MOL0     C70817   6.914   2.726   5.853  0.9893  1.2930 -0.3582
  514MOL0     O70818   6.883   2.583   5.825  0.0535  0.1828 -0.1598
  514MOL0     C70819   6.781   2.514   5.891  0.3558  0.8086 -0.2602
  514MOL0     C70820   6.684   2.589   5.966 -0.2141 -0.0103 -0.7392
  514MOL0     C70821   6.569   2.518   6.021 -0.4053 -0.0014  0.1401
  514MOL0     C70822   6.485   2.595   6.121  0.1492 -0.1431  0.7863
  514MOL0     C70823   6.557   2.374   6.007 -0.6191  0.0550  0.1406
  514MOL0     C70824   6.442   2.285   6.059  0.4028 -0.4412 -0.1831
  514MOL0     O70825   6.466   2.145   6.061  0.0161 -0.0157 -0.2589
  514MOL0     C70826   6.365   2.060   6.088  0.9103 -0.6696 -0.5907
  514MOL0     C70827   6.294   2.000   5.978 -0.6327 -0.9922  0.2968
  514MOL0     C70828   6.184   1.914   6.005 -1.6261 -0.4569  0.2505
  514MOL0     C70829   6.156   1.883   6.138  0.0176 -0.5221  0.1450
  514MOL0     O70830   6.076   1.786   6.161 -0.5669  0.2618  0.1907
  514MOL0     C70831   6.097   1.654   6.099 -0.7501 -0.4304  0.1863
  514MOL0     C70832   6.035   1.549   6.174  0.3394  0.9015  0.3899
  514MOL0     C70833   5.892   1.573   6.224 -0.2529 -0.3787  0.3034
  514MOL0     C70834   5.833   1.450   6.278 -0.1102 -0.1798  0.0517
  514MOL0     C70835   5.689   1.480   6.313 -0.6503  0.2296 -0.2050
  514MOL0     C70836   5.682   1.553   6.452 -0.1572  1.2163  0.2371
  514MOL0     C70837   5.532   1.586   6.477 -0.6455 -0.3831 -0.0719
  514MOL0     C70838   5.510   1.656   6.609 -0.0179  0.0254 -0.0762
  514MOL0    Cl70839   5.337   1.622   6.673  0.8113 -0.0679 -0.2607
  514MOL0     C70840   6.221   1.934   6.250 -0.3014  0.1167  1.3674
  514MOL0     C70841   6.319   2.033   6.223 -0.4912  0.0081 -0.3467
  514MOL0     O70842   6.343   2.345   6.089 -0.0993  0.2853  0.2757
  514MOL0     C70843   6.661   2.311   5.931 -0.5323  0.5468 -0.8673
  514MOL0     C70844   6.767   2.377   5.871 -0.4019 -0.7167 -0.3595
  514MOL0     N70845   7.181   2.709   5.372  0.2621 -0.3964 -0.1929
  514MOL0     N70846   7.156   2.755   5.254 -0.1343  0.0602 -0.1172
  514MOL0     C70847   7.302   3.435   5.671  0.5272  0.5145  0.6646
  514MOL0     C70848   7.201   3.389   5.762 -0.6156 -1.1891  0.4334
  514MOL0     C70849   6.878   3.090   5.902  0.6839 -0.0607 -0.7938
  514MOL0     C70850   6.907   3.098   6.034  1.4004 -0.8401 -0.3641
  514MOL0     C70851   6.810   3.044   6.124  0.1051 -0.0222 -0.5496
  514MOL0     C70852   6.680   3.008   6.083 -0.7883 -0.5476 -0.0368
  514MOL0     O70853   6.577   2.961   6.153  0.5572  0.4307 -0.2465
  514MOL0     C70854   6.580   2.953   6.294 -0.2021 -0.5483  0.5277
  514MOL0     C70855   6.426   2.924   6.322 -0.4351  0.0588  0.2539
  514MOL0     C70856   6.408   2.893   6.466 -0.3384 -0.6974 -0.0524
  514MOL0     C70857   6.267   2.849   6.488 -0.0059 -0.3830 -0.8316
  514MOL0     C70858   6.235   2.719   6.430 -0.1868  0.0941 -0.4247
  514MOL0     C70859   6.212   2.610   6.389 -0.0820  0.2889  0.2502
  514MOL0     C70860   6.665   3.011   5.943  0.7848  0.2123 -1.0631
  514MOL0     C70861   6.760   3.044   5.851  0.2723  0.0755  0.0446
  514MOL0     C70862   6.730   3.033   5.707 -0.4384 -0.4937 -0.6606
  514MOL0     H70863   7.281   3.060   5.769 -1.3001  0.0894  0.4688
  514MOL0     H70864   7.451   3.141   5.610  1.7976  2.0034  2.4921
  514MOL0     H70865   7.613   3.544   5.497 -1.6843  3.2392  0.0288
  514MOL0     H70866   7.436   3.568   5.478 -1.5440 -2.0625 -0.5895
  514MOL0     H70867   7.565   3.541   5.264  2.2193  0.2865  1.0545
  514MOL0     H70868   7.600   3.378   5.300 -1.5223 -2.2315  3.2146
  514MOL0     H70869   7.333   3.369   5.348  1.0853 -0.1585  0.0304
  514MOL0     H70870   7.348   3.500   5.226 -0.6592 -0.0399 -0.3456
  514MOL0     H70871   7.456   3.326   5.080  1.8206 -2.6947  0.5271
  514MOL0     H70872   7.466   3.215   5.209 -2.3916 -2.5616  0.4162
  514MOL0     H70873   7.217   3.282   5.061 -2.5682 -1.9260  1.1386
  514MOL0     H70874   7.203   3.222   5.224 -0.3748 -0.3959 -0.3609
  514MOL0     H70875   7.365   3.090   4.997 -0.1394  1.5261 -1.1437
  514MOL0     H70876   7.363   3.035   5.167 -0.5795  0.1006  1.6004
  514MOL0     H70877   7.222   2.922   5.012  0.7781  0.6625 -1.8686
  514MOL0     H70878   7.125   3.061   4.983  1.0538 -2.1125 -1.9628
  514MOL0     H70879   7.052   3.072   5.215  0.3377  0.4733 -0.4521
  514MOL0     H70880   7.015   2.921   5.134 -0.0970 -0.5858  0.7444
  514MOL0     H70881   7.170   3.023   5.440  0.8411 -0.4828  2.4297
  514MOL0     H70882   7.261   2.857   5.670 -0.1064 -1.3744  0.3562
  514MOL0     H70883   7.262   2.689   5.635  3.2555  1.6286 -0.7328
  514MOL0     H70884   6.999   2.847   5.645  2.8486  1.7975  1.2336
  514MOL0     H70885   7.014   2.670   5.623 -0.9095  0.9571 -0.0464
  514MOL0     H70886   7.104   2.676   5.858 -2.5029 -1.4348 -1.7211
  514MOL0     H70887   7.083   2.857   5.850  1.1567  0.7467 -1.0058
  514MOL0     H70888   6.892   2.749   5.958 -0.9323 -1.4663 -0.0286
  514MOL0     H70889   6.848   2.788   5.792 -1.5465  1.7504  2.5715
  514MOL0     H70890   6.679   2.697   5.980  1.9993  0.3614 -2.3931
  514MOL0     H70891   6.392   2.624   6.073 -1.1268 -2.6277  1.5960
  514MOL0     H70892   6.552   2.675   6.154  3.3157 -0.0667 -4.5792
  514MOL0     H70893   6.453   2.539   6.209 -0.9696 -2.2035 -0.8299
  514MOL0     H70894   6.320   2.023   5.875  0.8748 -1.8606  0.4500
  514MOL0     H70895   6.132   1.877   5.917  0.3109  4.9520 -3.6896
  514MOL0     H70896   6.053   1.656   6.000 -1.5404 -1.8959  0.4762
  514MOL0     H70897   6.203   1.626   6.099 -0.8103 -1.4704  4.4592
  514MOL0     H70898   6.042   1.451   6.125  1.0115  1.2486 -0.2137
  514MOL0     H70899   6.092   1.542   6.267 -0.5177 -0.9283  0.8310
  514MOL0     H70900   5.834   1.613   6.140  0.9440  1.6274  0.3688
  514MOL0     H70901   5.887   1.653   6.298  0.1827 -0.1740  0.1148
  514MOL0     H70902   5.884   1.416   6.369  0.1894 -2.1554 -0.8002
  514MOL0     H70903   5.837   1.370   6.203  1.7411  0.7584 -0.9139
  514MOL0     H70904   5.646   1.555   6.245  1.2971 -0.3414 -2.1872
  514MOL0     H70905   5.623   1.393   6.309 -2.1547  1.3157  0.1624
  514MOL0     H70906   5.742   1.644   6.453 -0.7419  1.6838  3.0435
  514MOL0     H70907   5.721   1.486   6.530  1.3579 -0.0484 -1.5439
  514MOL0     H70908   5.473   1.495   6.460  1.8000 -1.5344 -3.4978
  514MOL0     H70909   5.495   1.661   6.407 -0.6524 -0.6248 -0.3279
  514MOL0     H70910   5.530   1.764   6.610  3.1101 -0.4595  0.1849
  514MOL0     H70911   5.576   1.611   6.684  0.6817  0.2030 -0.5834
  514MOL0     H70912   6.195   1.897   6.349  1.6713 -0.6905  1.6334
  514MOL0     H70913   6.365   2.086   6.306 -0.8480 -0.7951  0.3663
  514MOL0     H70914   6.657   2.208   5.896  1.5251  0.5150 -1.1133
  514MOL0     H70915   6.844   2.324   5.815 -0.2945 -2.3674  1.2488
  514MOL0     H70916   7.295   3.542   5.652  2.3356  0.4881 -0.3022
  514MOL0     H70917   7.125   3.454   5.804 -1.1473 -1.4238 -0.1447
  514MOL0     H70918   7.003   3.130   6.075  1.5941 -1.0390 -0.6590
  514MOL0     H70919   6.822   3.062   6.231  0.0177  1.0014 -0.6976
  514MOL0     H70920   6.649   2.869   6.308  1.1039  0.7694  2.6206
  514MOL0     H70921   6.612   3.045   6.344 -3.0943  1.4770 -1.0072
  514MOL0     H70922   6.390   2.847   6.253 -2.4248  0.3348  0.9376
  514MOL0     H70923   6.376   3.018   6.296  2.2716  0.9437 -2.3236
  514MOL0     H70924   6.473   2.813   6.502  1.9340  1.4278  0.8419
  514MOL0     H70925   6.421   2.982   6.527  0.0622 -3.0243  3.5214
  514MOL0     H70926   6.204   2.911   6.423  0.7967  1.8707  0.4198
  514MOL0     H70927   6.235   2.851   6.593 -1.2240  4.9490 -0.9966
  514MOL0     H70928   6.190   2.516   6.342  2.4883  0.2646 -1.0692
  514MOL0     H70929   6.572   2.982   5.895  0.8108  1.9865 -2.2870
  514MOL0     H70930   6.630   2.989   5.693  0.6958 -3.5046 -0.1921
  514MOL0     H70931   6.737   3.132   5.661  0.5188 -1.8998 -3.8051
  514MOL0     H70932   6.805   2.970   5.658  1.2232  1.7923 -1.2240
  515MOL0     O70933   2.702   0.899   8.096 -0.5868  0.5699  0.6051
  515MOL0     C70934   2.638   0.884   7.997  0.5686 -0.3901  0.3404
  515MOL0     O70935   2.679   0.806   7.890 -0.0521  0.6207  0.6057
  515MOL0     C70936   2.801   0.745   7.884 -0.5741  0.2682 -0.0272
  515MOL0     C70937   2.870   0.747   7.760 -0.3459 -0.0142  0.0180
  515MOL0     C70938   2.998   0.693   7.746 -0.8393  0.2339 -1.4372
  515MOL0     C70939   3.058   0.636   7.862 -0.6846 -0.0970 -0.5822
  515MOL0     O70940   3.185   0.572   7.846  0.2383  0.3277 -0.0350
  515MOL0     C70941   3.223   0.463   7.941  0.7386 -0.4872  0.1504
  515MOL0     C70942   3.338   0.391   7.882 -0.3131 -0.1277  0.3706
  515MOL0     C70943   3.457   0.488   7.868 -0.5055 -0.2544 -0.0122
  515MOL0     C70944   3.582   0.432   7.796 -0.8824 -0.0075 -0.3878
  515MOL0     C70945   3.692   0.538   7.780  0.6725  0.2495  1.6153
  515MOL0     C70946   3.788   0.509   7.666 -0.2380 -0.2087  0.3985
  515MOL0     C70947   3.845   0.364   7.655  0.2902 -0.7065 -0.1040
  515MOL0     C70948   3.943   0.331   7.764  0.2595  0.1415 -1.0360
  515MOL0     N70949   4.012   0.206   7.769 -0.1644 -0.5444  0.4031
  515MOL0     C70950   3.973   0.095   7.702 -0.0765  0.4238 -0.3148
  515MOL0     C70951   4.067   0.005   7.742 -0.3317 -0.3513  0.2348
  515MOL0     C70952   4.069  -0.133   7.680 -0.9437 -0.3378 -0.1872
  515MOL0     C70953   4.109  -0.234   7.795  0.5261  1.0158 -0.5944
  515MOL0     C70954   4.178  -0.366   7.745 -0.3124  0.3782  0.0594
  515MOL0     C70955   4.327  -0.345   7.712  0.5001 -0.3340  0.3202
  515MOL0     O70956   4.405  -0.307   7.825 -0.1502  0.4116 -0.5297
  515MOL0     C70957   4.536  -0.281   7.805  0.8988  0.0766 -0.3923
  515MOL0     C70958   4.611  -0.363   7.732 -1.0787 -0.7250 -0.4344
  515MOL0     C70959   4.744  -0.325   7.705 -0.6074 -0.6295 -0.3162
  515MOL0     C70960   4.822  -0.408   7.604  0.4803 -0.5367 -0.1838
  515MOL0     C70961   4.802  -0.210   7.765  0.0326  0.0208  0.2550
  515MOL0     C70962   4.950  -0.173   7.753  0.2639 -0.1973 -0.0916
  515MOL0     O70963   5.035  -0.243   7.678  0.8559  0.0288  0.2935
  515MOL0     C70964   5.152  -0.191   7.621 -0.6818 -0.9280  0.0578
  515MOL0     C70965   5.246  -0.279   7.559 -0.3737  0.1683  0.3280
  515MOL0     C70966   5.362  -0.232   7.502 -0.1228 -1.1467  0.7138
  515MOL0     C70967   5.387  -0.095   7.498 -0.0139  0.1794  0.4618
  515MOL0     O70968   5.481  -0.032   7.414 -0.3285  0.2410 -0.5977
  515MOL0     C70969   5.550  -0.119   7.325  0.2899 -0.1238  0.5514
  515MOL0     C70970   5.648  -0.034   7.248  1.1346  0.3050 -0.0061
  515MOL0     C70971   5.713  -0.116   7.145 -0.8321  0.3931  0.7027
  515MOL0     C70972   5.824  -0.040   7.069  0.4374 -0.9008 -0.4254
  515MOL0     C70973   5.883  -0.128   6.961  0.6951 -0.3905 -0.7466
  515MOL0     C70974   6.002  -0.051   6.897  0.5060  0.8589  0.4232
  515MOL0     C70975   6.063  -0.127   6.782 -0.3452 -0.0967 -0.2622
  515MOL0     C70976   6.198  -0.069   6.742  0.5042 -0.0174 -0.5054
  515MOL0    Cl70977   6.332  -0.108   6.864  0.2557 -0.1504  0.1857
  515MOL0     C70978   5.302  -0.015   7.563 -0.5452  0.5494  0.0857
  515MOL0     C70979   5.194  -0.053   7.627  0.1084  0.7698  0.0904
  515MOL0     O70980   4.984  -0.087   7.833 -0.1807  0.5868 -0.6202
  515MOL0     C70981   4.718  -0.129   7.837  0.5210 -0.1162 -0.1709
  515MOL0     C70982   4.582  -0.160   7.859  0.2720 -0.2324  0.0509
  515MOL0     N70983   4.170   0.074   7.806  0.2188 -0.2108  0.1291
  515MOL0     N70984   4.132   0.192   7.828 -0.2553 -0.3325  0.8172
  515MOL0     C70985   2.985   0.626   7.981 -0.6739  0.6546 -0.2469
  515MOL0     C70986   2.862   0.679   7.988  0.3451  0.8081 -0.8924
  515MOL0     C70987   2.501   0.937   7.979 -0.0292 -0.2582  0.7480
  515MOL0     C70988   2.453   0.957   7.842 -0.1112  0.5703 -0.3741
  515MOL0     C70989   2.331   1.028   7.821  1.3038  0.1447 -0.0569
  515MOL0     C70990   2.253   1.075   7.932 -0.6128 -0.2863  0.2507
  515MOL0     O70991   2.143   1.146   7.906  0.1508 -0.0784 -0.0931
  515MOL0     C70992   2.068   1.223   8.008  0.4837 -0.2223  0.2922
  515MOL0     C70993   1.956   1.313   7.950 -0.1274 -0.3634  0.5252
  515MOL0     C70994   2.014   1.400   7.837 -1.3191  0.4518 -0.0715
  515MOL0     C70995   2.134   1.487   7.875 -0.1393 -0.7021  0.2589
  515MOL0     C70996   2.092   1.578   7.977  0.9498 -0.8500  0.2393
  515MOL0     C70997   2.058   1.653   8.065  0.7053  0.3019 -0.1573
  515MOL0     C70998   2.291   1.028   8.063 -0.6600 -0.6397  0.1469
  515MOL0     C70999   2.412   0.967   8.083 -1.2218 -0.5174 -0.3387
  515MOL0     C71000   2.445   0.939   8.234  0.3679  0.9673  0.0672
  515MOL0     H71001   2.821   0.796   7.677  0.5407 -1.2249 -1.2564
  515MOL0     H71002   3.057   0.706   7.656  1.2669  2.3688  0.1215
  515MOL0     H71003   3.142   0.390   7.944  0.1788  0.1437  1.5170
  515MOL0     H71004   3.265   0.507   8.032  0.8753  0.4027 -0.3338
  515MOL0     H71005   3.370   0.309   7.946  0.0339 -0.3860 -0.1223
  515MOL0     H71006   3.318   0.351   7.782  0.1104  2.3653 -0.7947
  515MOL0     H71007   3.423   0.570   7.805  0.3246 -0.0522 -0.2115
  515MOL0     H71008   3.483   0.523   7.969  1.2617  2.7236 -1.3712
  515MOL0     H71009   3.624   0.349   7.855  1.1174 -1.3584 -3.4441
  515MOL0     H71010   3.557   0.376   7.705 -2.7347 -1.4455  0.9206
  515MOL0     H71011   3.748   0.558   7.872 -3.6671  1.9739  4.1761
  515MOL0     H71012   3.642   0.635   7.770  2.4012  1.1977  1.7534
  515MOL0     H71013   3.732   0.532   7.575 -0.2068 -2.4897 -0.2435
  515MOL0     H71014   3.873   0.578   7.678  1.3825 -2.1476  0.6870
  515MOL0     H71015   3.885   0.353   7.554  0.5491 -0.0600 -0.0792
  515MOL0     H71016   3.764   0.292   7.667  1.4811 -1.6141  4.2043
  515MOL0     H71017   4.016   0.412   7.751  0.2718  0.4239  0.5643
  515MOL0     H71018   3.904   0.361   7.862  1.0845  1.9787 -1.2104
  515MOL0     H71019   3.891   0.076   7.633  1.8823 -1.9356 -2.1674
  515MOL0     H71020   4.140  -0.131   7.597 -1.5052 -0.2802 -0.6763
  515MOL0     H71021   3.971  -0.159   7.639 -0.2993 -2.6408 -0.3564
  515MOL0     H71022   4.180  -0.192   7.866 -1.1807  1.8720  0.6937
  515MOL0     H71023   4.017  -0.253   7.851  0.1301 -1.1918 -1.8580
  515MOL0     H71024   4.176  -0.446   7.820  0.0369  1.4582  1.2484
  515MOL0     H71025   4.117  -0.394   7.659 -0.7384 -0.7466  0.6984
  515MOL0     H71026   4.357  -0.448   7.688 -1.9677 -0.9803 -0.2934
  515MOL0     H71027   4.337  -0.269   7.634  4.0239  0.2457  1.1449
  515MOL0     H71028   4.592  -0.463   7.695 -1.3165 -1.0421  0.5230
  515MOL0     H71029   4.852  -0.330   7.534 -1.2880 -0.2616 -0.6944
  515MOL0     H71030   4.743  -0.456   7.544  1.8616 -0.1348 -2.4287
  515MOL0     H71031   4.900  -0.481   7.625 -0.0304 -1.3515 -1.0051
  515MOL0     H71032   5.225  -0.386   7.552 -1.3433  0.2965  1.1046
  515MOL0     H71033   5.425  -0.309   7.458 -0.6505 -1.9443  1.3193
  515MOL0     H71034   5.602  -0.196   7.383  2.6447 -0.5778 -1.9678
  515MOL0     H71035   5.471  -0.158   7.260  1.0850  0.5114 -0.8188
  515MOL0     H71036   5.604   0.049   7.191  0.6502 -0.2624 -0.4690
  515MOL0     H71037   5.722  -0.001   7.321  1.7112 -3.5788  1.3862
  515MOL0     H71038   5.643  -0.153   7.070 -0.1993  0.1845  0.2028
  515MOL0     H71039   5.758  -0.203   7.195  1.7642  0.0853 -1.8873
  515MOL0     H71040   5.898   0.006   7.136  0.2984 -1.0046 -0.2008
  515MOL0     H71041   5.780   0.043   7.013  0.5269 -1.3274 -1.1331
  515MOL0     H71042   5.921  -0.218   7.011  0.4185  0.8357  1.8286
  515MOL0     H71043   5.814  -0.162   6.884  1.3757  1.9484 -2.4823
  515MOL0     H71044   6.064  -0.019   6.982 -0.9190  3.8836  0.4345
  515MOL0     H71045   5.965   0.042   6.854 -0.5025  0.1551 -0.2892
  515MOL0     H71046   5.999  -0.118   6.693 -0.4186  2.1126 -0.0443
  515MOL0     H71047   6.069  -0.235   6.801  0.4678 -0.0069  0.0115
  515MOL0     H71048   6.178   0.039   6.734  1.0733  0.0852 -0.5651
  515MOL0     H71049   6.230  -0.098   6.641  0.2776 -1.1397 -0.2681
  515MOL0     H71050   5.311   0.093   7.563 -1.5274  0.6515  0.9222
  515MOL0     H71051   5.114   0.002   7.675 -1.3860 -1.5398  0.4210
  515MOL0     H71052   4.747  -0.032   7.878 -0.1082  0.0227 -0.0398
  515MOL0     H71053   4.514  -0.104   7.923 -1.1564  0.2380 -1.7892
  515MOL0     H71054   3.044   0.584   8.062  2.1454  3.5790 -0.5703
  515MOL0     H71055   2.809   0.674   8.083 -2.8337  0.1679 -2.5692
  515MOL0     H71056   2.523   0.952   7.760 -0.8861  2.6488 -1.2369
  515MOL0     H71057   2.309   1.063   7.721 -1.1834  4.4043  1.7174
  515MOL0     H71058   2.003   1.156   8.065 -1.4021 -1.5344 -3.1518
  515MOL0     H71059   2.141   1.277   8.070  0.6438  3.0104 -2.4682
  515MOL0     H71060   1.914   1.368   8.035  1.2398  0.8425  0.4605
  515MOL0     H71061   1.885   1.250   7.898  2.1875 -0.2091 -3.1575
  515MOL0     H71062   2.044   1.356   7.741 -0.4397  2.5825 -0.8439
  515MOL0     H71063   1.928   1.458   7.802 -1.5592 -1.2634 -2.5986
  515MOL0     H71064   2.164   1.540   7.785  0.8595  1.1687  1.6155
  515MOL0     H71065   2.219   1.426   7.907  0.8992  1.4030  1.7818
  515MOL0     H71066   2.026   1.724   8.139 -1.7856 -3.2484  2.5093
  515MOL0     H71067   2.225   1.061   8.143 -1.2650  0.2213 -0.6904
  515MOL0     H71068   2.531   1.004   8.254  2.9010 -1.3747 -2.2174
  515MOL0     H71069   2.359   0.958   8.299  2.3267  1.2265  2.7501
  515MOL0     H71070   2.473   0.833   8.233 -1.4902  0.3252 -3.7946
  516MOL0     O71071   3.210   1.610   0.972  0.3574 -0.0974 -0.3205
  516MOL0     C71072   3.152   1.510   1.023 -0.3806 -0.4566  0.7094
  516MOL0     O71073   3.222   1.405   1.065 -0.0876  0.3102  0.3420
  516MOL0     C71074   3.360   1.394   1.066  0.1190 -0.2445  0.1309
  516MOL0     C71075   3.430   1.350   0.955  0.4337  0.4754  0.5515
  516MOL0     C71076   3.566   1.324   0.972 -0.0950  0.3426  0.2150
  516MOL0     C71077   3.629   1.341   1.100 -0.1470 -1.2723  0.2703
  516MOL0     O71078   3.763   1.307   1.113  0.5674  0.3686 -0.7084
  516MOL0     C71079   3.819   1.301   1.246 -0.7244 -0.2166  0.3231
  516MOL0     C71080   3.959   1.226   1.251  0.4227  0.0716 -0.1796
  516MOL0     C71081   4.074   1.324   1.212  0.2367 -0.3197  0.6169
  516MOL0     C71082   4.208   1.278   1.261  0.3762  0.0561 -0.3196
  516MOL0     C71083   4.329   1.372   1.217 -0.4772  0.2515  0.2505
  516MOL0     C71084   4.469   1.346   1.289  0.0451 -0.1815 -0.0875
  516MOL0     C71085   4.572   1.461   1.289  0.5471  0.5947 -0.9202
  516MOL0     C71086   4.621   1.523   1.162 -0.0624 -0.0612 -0.0245
  516MOL0     N71087   4.763   1.508   1.139  0.1137 -0.4247  0.2464
  516MOL0     C71088   4.847   1.612   1.173 -0.5241 -0.1080  0.4828
  516MOL0     C71089   4.971   1.562   1.157  0.0034  0.1565 -0.0901
  516MOL0     C71090   5.088   1.644   1.169 -0.0023 -0.0563  0.1521
  516MOL0     C71091   5.121   1.724   1.041 -1.2846 -0.5548  0.4971
  516MOL0     C71092   5.259   1.791   1.049  0.5582  0.0363  0.6191
  516MOL0     C71093   5.296   1.860   0.914  0.4319  0.3016  0.0868
  516MOL0     O71094   5.406   1.948   0.941 -0.4543 -0.2186  0.5030
  516MOL0     C71095   5.529   1.895   0.962 -0.5531  0.2998  0.2651
  516MOL0     C71096   5.570   1.771   0.918  0.6026  0.1138  0.0633
  516MOL0     C71097   5.704   1.729   0.949  0.2516 -0.7834  0.7462
  516MOL0     C71098   5.743   1.586   0.895  0.0372 -0.7236 -0.2222
  516MOL0     C71099   5.801   1.809   1.020  0.1715 -0.2061  0.6667
  516MOL0     C71100   5.944   1.778   1.043  0.7275 -0.0769 -0.3954
  516MOL0     O71101   6.016   1.871   1.121  0.3101  0.0792 -0.3983
  516MOL0     C71102   6.113   1.813   1.200  0.5142  0.4476  0.1745
  516MOL0     C71103   6.098   1.813   1.342  0.3673  0.1469  0.1964
  516MOL0     C71104   6.194   1.748   1.429  0.4139  0.0751  0.3864
  516MOL0     C71105   6.309   1.701   1.365  0.5688  1.0032 -0.0055
  516MOL0     O71106   6.401   1.652   1.445 -0.4058  0.4579  0.1582
  516MOL0     C71107   6.546   1.675   1.423  0.0676 -0.5830  0.4517
  516MOL0     C71108   6.597   1.805   1.471 -0.4054  0.3978 -0.3744
  516MOL0     C71109   6.562   1.820   1.619  0.1626  0.2223  0.2686
  516MOL0     C71110   6.634   1.950   1.674  0.1622 -0.4601  0.3305
  516MOL0     C71111   6.581   2.015   1.802  0.2433  0.4002 -0.0490
  516MOL0     C71112   6.603   1.925   1.921  0.1697 -0.8711  0.0612
  516MOL0     C71113   6.553   2.000   2.045  0.1875 -0.0603 -0.0237
  516MOL0     C71114   6.594   1.917   2.176 -0.3123  0.3734 -0.0700
  516MOL0    Cl71115   6.769   1.887   2.209  0.2304  0.2406  0.7047
  516MOL0     C71116   6.327   1.703   1.227  0.8653 -0.3271 -0.4275
  516MOL0     C71117   6.228   1.750   1.143 -0.0340 -0.3456  0.3623
  516MOL0     O71118   5.995   1.680   0.987 -0.1882  0.3379  0.6500
  516MOL0     C71119   5.753   1.934   1.078  0.1432 -0.2272  0.1134
  516MOL0     C71120   5.621   1.971   1.038  0.5135  0.1977 -0.3208
  516MOL0     N71121   4.956   1.439   1.098 -0.1095 -0.1507 -0.0740
  516MOL0     N71122   4.836   1.397   1.091 -0.0128  0.0443 -0.1732
  516MOL0     C71123   3.555   1.373   1.212  0.4818 -0.1272 -0.4521
  516MOL0     C71124   3.420   1.405   1.194 -0.5081 -0.3826  0.3570
  516MOL0     C71125   3.002   1.493   1.014 -0.3905 -0.4250 -0.6594
  516MOL0     C71126   2.926   1.603   0.966 -0.9301  0.0395  0.2645
  516MOL0     C71127   2.787   1.617   0.987 -0.2268  0.5761  0.6876
  516MOL0     C71128   2.715   1.510   1.049  0.1581  0.3135 -0.2367
  516MOL0     O71129   2.580   1.502   1.067 -0.0668  0.4746 -0.1543
  516MOL0     C71130   2.493   1.621   1.054 -0.0424  0.4628 -0.3681
  516MOL0     C71131   2.348   1.582   1.085  0.1300 -0.2100 -0.7052
  516MOL0     C71132   2.299   1.556   1.225 -0.1520  0.0830 -0.7213
  516MOL0     C71133   2.176   1.466   1.234 -0.4730  0.7801  0.3532
  516MOL0     C71134   2.058   1.546   1.250  0.2866 -1.4261 -0.3061
  516MOL0     C71135   1.962   1.633   1.241 -1.0337 -1.1613  0.4166
  516MOL0     C71136   2.785   1.395   1.084 -0.7658  0.1269  0.1007
  516MOL0     C71137   2.925   1.385   1.058 -0.1385  0.3691 -0.7609
  516MOL0     C71138   2.982   1.256   1.108 -0.8144 -0.4043  0.9197
  516MOL0     H71139   3.368   1.331   0.869 -1.7497  2.2772  1.6103
  516MOL0     H71140   3.625   1.281   0.892  0.3617 -0.6085  1.0405
  516MOL0     H71141   3.755   1.250   1.319  1.6427 -2.0998  1.2054
  516MOL0     H71142   3.818   1.405   1.280 -0.6823  0.3528 -1.3500
  516MOL0     H71143   3.984   1.197   1.353  1.6770  1.3510 -0.0990
  516MOL0     H71144   3.963   1.136   1.189 -0.4795 -0.2881  0.2596
  516MOL0     H71145   4.075   1.354   1.107  1.0702  1.5623  1.1179
  516MOL0     H71146   4.055   1.413   1.273  0.4211 -0.6946  1.2308
  516MOL0     H71147   4.215   1.277   1.370 -0.9080  1.6587 -0.1952
  516MOL0     H71148   4.240   1.179   1.226 -0.8193 -2.2611  4.3460
  516MOL0     H71149   4.301   1.475   1.241  0.6600  0.2712  1.6040
  516MOL0     H71150   4.340   1.374   1.108 -0.6152  3.1031  0.2046
  516MOL0     H71151   4.448   1.323   1.394 -0.3960  1.0649  0.1163
  516MOL0     H71152   4.521   1.260   1.247  0.4541  0.1631 -0.2866
  516MOL0     H71153   4.658   1.420   1.342  0.2639 -1.6135 -2.0551
  516MOL0     H71154   4.534   1.542   1.353 -2.0713 -1.7579  0.7773
  516MOL0     H71155   4.570   1.475   1.077  1.3917  0.6412 -1.3367
  516MOL0     H71156   4.586   1.627   1.161 -2.9403 -0.9319 -0.5643
  516MOL0     H71157   4.824   1.712   1.207  1.1358 -0.0281  1.4626
  516MOL0     H71158   5.164   1.572   1.200 -1.4188 -0.1275  3.9612
  516MOL0     H71159   5.063   1.703   1.258  2.5505 -0.7144  1.4218
  516MOL0     H71160   5.130   1.651   0.959 -0.3677  0.0706  0.0259
  516MOL0     H71161   5.038   1.789   1.012 -0.0946  1.1387  0.7829
  516MOL0     H71162   5.256   1.874   1.121 -0.9219  3.7534 -3.2943
  516MOL0     H71163   5.340   1.725   1.078  2.0354  1.3146 -0.4139
  516MOL0     H71164   5.319   1.792   0.832  0.5521 -0.2502  0.5698
  516MOL0     H71165   5.212   1.922   0.883  0.7655  0.9406  0.4355
  516MOL0     H71166   5.504   1.705   0.862 -0.4783 -0.0736  1.5083
  516MOL0     H71167   5.804   1.590   0.804  0.7620 -0.9323  0.2403
  516MOL0     H71168   5.659   1.520   0.871  0.1176 -1.3028  0.9992
  516MOL0     H71169   5.798   1.527   0.970  0.5903 -0.1888 -0.2015
  516MOL0     H71170   6.019   1.873   1.386  0.1626  1.1862 -1.5108
  516MOL0     H71171   6.185   1.751   1.538 -0.5374 -0.9319  0.3520
  516MOL0     H71172   6.598   1.597   1.478  0.2640 -0.1023  0.9553
  516MOL0     H71173   6.582   1.657   1.321  1.1233  1.6789  0.3482
  516MOL0     H71174   6.706   1.803   1.459 -0.5401 -1.5332 -1.8189
  516MOL0     H71175   6.560   1.894   1.419  2.2957  1.4467 -0.6715
  516MOL0     H71176   6.567   1.723   1.669 -0.7528 -0.0639 -0.1899
  516MOL0     H71177   6.455   1.842   1.622 -0.6720 -3.3148 -0.0090
  516MOL0     H71178   6.623   2.027   1.597 -0.7852 -0.2880  0.6303
  516MOL0     H71179   6.739   1.925   1.690  0.3940  0.2019 -0.0955
  516MOL0     H71180   6.607   2.120   1.820 -0.3032  0.7406 -1.1814
  516MOL0     H71181   6.474   2.030   1.786 -0.6332 -2.5952  2.0519
  516MOL0     H71182   6.710   1.905   1.925  0.8904  0.7927 -4.6680
  516MOL0     H71183   6.553   1.828   1.913 -2.2948  0.2989  0.1809
  516MOL0     H71184   6.447   2.017   2.026  0.2490  2.3169  1.4288
  516MOL0     H71185   6.602   2.097   2.055 -4.5542  2.5721  0.2800
  516MOL0     H71186   6.539   1.825   2.155 -0.3406  0.5168 -0.6408
  516MOL0     H71187   6.537   1.961   2.258 -0.4391  0.7486 -0.3548
  516MOL0     H71188   6.422   1.677   1.182 -0.3885 -1.9729 -2.3236
  516MOL0     H71189   6.251   1.757   1.037  1.4670 -2.8721  0.4392
  516MOL0     H71190   5.809   2.007   1.135 -2.3893  1.8490  0.1080
  516MOL0     H71191   5.586   2.062   1.085  0.1393  1.3111 -2.6099
  516MOL0     H71192   3.584   1.375   1.316 -2.2970 -0.1959  0.4124
  516MOL0     H71193   3.358   1.435   1.278 -0.7557 -0.8696  0.3562
  516MOL0     H71194   2.985   1.680   0.917 -0.0552 -2.6597 -3.3568
  516MOL0     H71195   2.733   1.709   0.964 -0.1918  0.8599  1.7287
  516MOL0     H71196   2.524   1.698   1.125  0.9392  0.8543 -1.2010
  516MOL0     H71197   2.499   1.659   0.951  1.6075  1.9445  0.2259
  516MOL0     H71198   2.323   1.501   1.015 -0.1076  0.8227 -1.8434
  516MOL0     H71199   2.297   1.671   1.048 -2.7439 -0.6345  1.8524
  516MOL0     H71200   2.385   1.507   1.271 -0.1476  2.6972  2.4696
  516MOL0     H71201   2.275   1.644   1.285 -0.7065 -0.2898 -0.3862
  516MOL0     H71202   2.191   1.396   1.317  3.3273  1.5621  0.4867
  516MOL0     H71203   2.161   1.406   1.144 -0.0433 -1.4208  1.6840
  516MOL0     H71204   1.889   1.711   1.244 -3.5262 -3.3837  0.3913
  516MOL0     H71205   2.727   1.317   1.131 -1.2763 -0.0889 -0.8698
  516MOL0     H71206   2.908   1.175   1.113  0.2969 -1.3727  2.8734
  516MOL0     H71207   3.048   1.217   1.030 -0.5056 -0.5047  1.2275
  516MOL0     H71208   3.029   1.247   1.206  0.4345 -1.2566  0.2672
  517MOL0     O71209   1.998   3.552  11.399 -0.8353  0.1953 -0.0743
  517MOL0     C71210   1.893   3.515  11.354 -0.5675 -0.6942 -0.0337
  517MOL0     O71211   1.788   3.598  11.327 -0.6390 -0.5367 -0.1157
  517MOL0     C71212   1.799   3.732  11.320 -0.3208  0.2468  0.6708
  517MOL0     C71213   1.679   3.795  11.318  0.8402  0.0918  0.4298
  517MOL0     C71214   1.662   3.936  11.301  0.3014  0.3717  0.8735
  517MOL0     C71215   1.779   4.016  11.279 -0.5319  0.3422 -1.6229
  517MOL0     O71216   1.750   4.150  11.260  0.1390 -0.2223  0.2892
  517MOL0     C71217   1.851   4.247  11.260  0.0866 -0.8891 -0.1961
  517MOL0     C71218   1.770   4.376  11.230 -0.1179 -0.0080 -0.3355
  517MOL0     C71219   1.865   4.493  11.198  0.1847 -1.2789 -0.1853
  517MOL0     C71220   1.919   4.485  11.059  0.2531 -0.2344 -0.6804
  517MOL0     C71221   2.001   4.602  11.019 -0.0738 -0.2627  0.5194
  517MOL0     C71222   1.997   4.606  10.862 -0.1991  0.2068 -0.2779
  517MOL0     C71223   2.077   4.726  10.803  0.1865  0.3877 -0.1918
  517MOL0     C71224   2.196   4.785  10.887  0.4089 -0.0347  1.3099
  517MOL0     N71225   2.323   4.716  10.874  0.0603 -0.0601  0.1604
  517MOL0     C71226   2.350   4.581  10.899 -0.3552 -0.6406 -0.1996
  517MOL0     C71227   2.474   4.565  10.866  0.4165 -1.0098 -0.2840
  517MOL0     C71228   2.545   4.437  10.836 -0.1530 -0.4421  0.3354
  517MOL0     C71229   2.450   4.349  10.759  0.1423  1.0134  0.2076
  517MOL0     C71230   2.527   4.220  10.716 -0.6025  0.3056  0.0218
  517MOL0     C71231   2.484   4.092  10.791 -0.4705 -0.1325 -0.5033
  517MOL0     O71232   2.536   4.096  10.918 -0.6375 -0.0289 -0.5824
  517MOL0     C71233   2.669   4.090  10.947 -0.0974 -0.3222  0.3212
  517MOL0     C71234   2.776   4.074  10.857  0.7120 -0.3103 -0.0503
  517MOL0     C71235   2.912   4.094  10.903 -0.0378 -0.1146 -0.4852
  517MOL0     C71236   3.014   4.085  10.791  0.6448  0.3836  0.0277
  517MOL0     C71237   2.931   4.111  11.048 -0.1050  0.2040  0.0528
  517MOL0     C71238   3.059   4.115  11.109 -0.2362 -0.6026 -0.1854
  517MOL0     O71239   3.173   4.057  11.051  0.1780 -0.9800  0.2689
  517MOL0     C71240   3.293   4.117  11.086  1.6148 -0.8555  0.1464
  517MOL0     C71241   3.312   4.255  11.055  0.3927  0.4772  0.6388
  517MOL0     C71242   3.428   4.321  11.087 -0.7698 -0.5138  0.0488
  517MOL0     C71243   3.533   4.249  11.138 -0.7414  0.6734 -0.6278
  517MOL0     O71244   3.651   4.318  11.157 -0.1668 -0.2978  0.5530
  517MOL0     C71245   3.752   4.296  11.051  0.0843  0.1213 -0.0318
  517MOL0     C71246   3.892   4.255  11.112  0.5751  0.7589  0.6310
  517MOL0     C71247   3.938   4.367  11.209  0.0334  0.0528  0.2284
  517MOL0     C71248   4.022   4.478  11.139 -0.0670 -0.3209 -0.4528
  517MOL0     C71249   4.164   4.439  11.115 -0.1746  0.4165 -0.0847
  517MOL0     C71250   4.251   4.536  11.031 -0.2453  0.6751 -0.2961
  517MOL0     C71251   4.399   4.501  11.058 -0.0452 -0.1512  0.2847
  517MOL0     C71252   4.498   4.573  10.970  0.9328  0.3295 -0.2076
  517MOL0    Cl71253   4.497   4.757  10.983  0.1749 -0.0958 -0.1250
  517MOL0     C71254   3.511   4.115  11.185  0.4422 -0.3481  0.8659
  517MOL0     C71255   3.388   4.050  11.150 -0.3667 -0.0949 -0.3524
  517MOL0     O71256   3.058   4.175  11.218 -0.0339 -0.3596  0.0774
  517MOL0     C71257   2.822   4.120  11.137  0.2225  0.1106  0.3157
  517MOL0     C71258   2.688   4.115  11.079 -0.8781 -0.3997 -1.4456
  517MOL0     N71259   2.533   4.689  10.835  0.7600  0.3311 -0.5163
  517MOL0     N71260   2.444   4.777  10.848  1.3585  0.6298  0.5274
  517MOL0     C71261   1.896   3.954  11.285  0.1549  0.4532  0.2719
  517MOL0     C71262   1.911   3.812  11.301  0.6475  0.1905 -0.3064
  517MOL0     C71263   1.867   3.376  11.333  0.0550 -0.2704 -1.6401
  517MOL0     C71264   1.732   3.341  11.321  0.6538 -0.5321  0.1289
  517MOL0     C71265   1.702   3.207  11.296  0.0041  0.0499  0.0886
  517MOL0     C71266   1.803   3.112  11.306  0.1588 -0.3934  0.2152
  517MOL0     O71267   1.790   2.975  11.275  0.3618  0.2943  0.3283
  517MOL0     C71268   1.671   2.917  11.225 -0.3983  0.7272  0.0846
  517MOL0     C71269   1.727   2.792  11.157  0.0099  0.2765  0.0604
  517MOL0     C71270   1.790   2.690  11.256  0.5907  0.2362 -0.2757
  517MOL0     C71271   1.687   2.605  11.331  0.0767 -0.4738  0.1075
  517MOL0     C71272   1.649   2.503  11.237 -0.5661  0.2264  0.4211
  517MOL0     C71273   1.609   2.413  11.165  0.4284  0.1701 -0.7064
  517MOL0     C71274   1.935   3.144  11.333  0.0511  0.4111 -0.5609
  517MOL0     C71275   1.970   3.280  11.345  0.3872 -0.4727 -0.0934
  517MOL0     C71276   2.112   3.305  11.373  0.1975 -0.3446  0.2963
  517MOL0     H71277   1.596   3.726  11.331  1.4104 -0.4072  1.5698
  517MOL0     H71278   1.563   3.979  11.291  0.6497  0.9479 -0.2962
  517MOL0     H71279   1.928   4.229  11.184 -1.7634 -1.9867 -1.8854
  517MOL0     H71280   1.904   4.253  11.356  1.2345  0.0767 -0.8600
  517MOL0     H71281   1.702   4.370  11.146 -1.8169  0.8147  0.9258
  517MOL0     H71282   1.709   4.398  11.318  0.4959 -1.9329  0.6211
  517MOL0     H71283   1.804   4.583  11.211 -1.3355 -2.1441 -1.0402
  517MOL0     H71284   1.942   4.502  11.275 -1.4398  0.8694  1.2889
  517MOL0     H71285   1.975   4.392  11.042 -0.3964 -1.0429  1.2664
  517MOL0     H71286   1.836   4.475  10.987  0.5008 -2.4225 -0.7510
  517MOL0     H71287   2.102   4.598  11.063  0.1230  1.3040  0.2700
  517MOL0     H71288   1.960   4.693  11.064  1.3336  1.7947 -2.0751
  517MOL0     H71289   2.041   4.517  10.817  3.1460  1.0709  0.9555
  517MOL0     H71290   1.895   4.617  10.826  0.3228  4.0754 -1.1332
  517MOL0     H71291   2.000   4.803  10.797 -0.1250 -0.0291 -2.5869
  517MOL0     H71292   2.106   4.692  10.703 -1.5438 -4.9388  0.7936
  517MOL0     H71293   2.216   4.886  10.849  1.1469 -0.2672  1.0556
  517MOL0     H71294   2.168   4.794  10.992 -1.0467  3.2342  0.7786
  517MOL0     H71295   2.281   4.498  10.905 -0.6103 -0.7346 -3.0169
  517MOL0     H71296   2.562   4.383  10.930  2.3950 -2.4405 -1.1591
  517MOL0     H71297   2.637   4.462  10.783 -0.3995  0.6694  0.4013
  517MOL0     H71298   2.359   4.329  10.816 -0.6502  0.6637 -1.1420
  517MOL0     H71299   2.423   4.388  10.660 -2.4257  0.1207  0.4839
  517MOL0     H71300   2.510   4.196  10.611 -0.9767  0.9985 -0.0815
  517MOL0     H71301   2.636   4.229  10.728 -0.6143 -1.7445  2.4337
  517MOL0     H71302   2.375   4.085  10.803 -0.3070  1.2775  3.6665
  517MOL0     H71303   2.514   3.998  10.745 -2.9661 -1.2163 -0.1191
  517MOL0     H71304   2.754   4.053  10.753 -0.0008 -0.6051  0.1516
  517MOL0     H71305   3.057   3.984  10.785 -0.1833  0.0372 -0.1578
  517MOL0     H71306   3.089   4.164  10.801 -0.1622  1.1248  0.3254
  517MOL0     H71307   2.974   4.098  10.690  1.1340  0.5008 -0.1567
  517MOL0     H71308   3.225   4.300  11.008 -0.4033 -0.7645  0.8800
  517MOL0     H71309   3.434   4.430  11.081 -1.1096 -0.5332 -0.7273
  517MOL0     H71310   3.716   4.209  10.996  0.0184  0.4012 -0.4342
  517MOL0     H71311   3.765   4.386  10.990  0.1848  1.0134  1.2671
  517MOL0     H71312   3.879   4.166  11.175  1.2176  0.4137  0.2907
  517MOL0     H71313   3.964   4.244  11.031  0.6828 -0.7315  0.9074
  517MOL0     H71314   3.999   4.322  11.288 -0.3700  0.4998  0.7948
  517MOL0     H71315   3.850   4.418  11.249 -1.4765 -0.1704 -2.4865
  517MOL0     H71316   4.023   4.561  11.209 -3.4298  0.8933 -1.6512
  517MOL0     H71317   3.975   4.513  11.047 -2.8400  0.7439  1.2473
  517MOL0     H71318   4.212   4.432  11.213  2.8385 -2.8204 -1.5380
  517MOL0     H71319   4.172   4.344  11.061 -0.1756  0.3946 -0.0469
  517MOL0     H71320   4.213   4.635  11.058 -1.3742 -0.4056  2.4798
  517MOL0     H71321   4.229   4.522  10.925 -0.1557 -0.1859 -0.2050
  517MOL0     H71322   4.409   4.392  11.063  0.0764 -0.0995  1.3556
  517MOL0     H71323   4.418   4.538  11.159 -0.1330  0.2183  0.1670
  517MOL0     H71324   4.476   4.554  10.864  1.0764  2.9547 -0.7865
  517MOL0     H71325   4.600   4.538  10.987  0.6045  0.0923  1.3822
  517MOL0     H71326   3.585   4.051  11.232  0.9469 -1.6411 -1.5293
  517MOL0     H71327   3.352   3.951  11.173 -1.7092  0.3507 -0.4577
  517MOL0     H71328   2.841   4.140  11.242  2.1546  1.7217 -0.2536
  517MOL0     H71329   2.604   4.125  11.147  1.0966 -3.0340  1.6689
  517MOL0     H71330   1.988   4.012  11.281 -0.0525  0.8156  0.7231
  517MOL0     H71331   2.015   3.781  11.297  0.2813 -1.3616  1.1395
  517MOL0     H71332   1.649   3.412  11.318  1.5487  0.5101 -0.8267
  517MOL0     H71333   1.601   3.173  11.276 -0.6600  1.5695  0.6497
  517MOL0     H71334   1.597   2.889  11.300 -0.4091 -1.5783 -0.6947
  517MOL0     H71335   1.633   2.972  11.138  0.1418 -0.0662 -0.6687
  517MOL0     H71336   1.806   2.821  11.088  0.1176 -1.5735 -0.6558
  517MOL0     H71337   1.649   2.753  11.090  1.7670 -3.4818 -0.0600
  517MOL0     H71338   1.861   2.617  11.214 -0.9067 -1.0716 -0.6486
  517MOL0     H71339   1.848   2.750  11.326  0.3106  0.6933 -0.4328
  517MOL0     H71340   1.591   2.656  11.344  1.2089  1.7120  0.3671
  517MOL0     H71341   1.722   2.557  11.422 -1.8525 -0.3201  0.9722
  517MOL0     H71342   1.573   2.323  11.119  0.2442 -0.9426  1.5054
  517MOL0     H71343   2.003   3.060  11.351 -2.2952 -1.5003 -0.1220
  517MOL0     H71344   2.145   3.381  11.301 -1.9695  1.1196  0.7525
  517MOL0     H71345   2.118   3.334  11.478 -0.5740 -3.1854  1.2198
  517MOL0     H71346   2.185   3.226  11.356  2.0773  1.2958  0.4899
  518MOL0     O71347   5.869   2.178   0.828 -0.2911  0.7317 -0.0784
  518MOL0     C71348   5.865   2.236   0.932 -0.3304 -0.4171 -0.5035
  518MOL0     O71349   5.970   2.255   1.016 -0.5866 -0.2627  0.6818
  518MOL0     C71350   6.101   2.234   0.978  0.2588 -0.3758 -1.3883
  518MOL0     C71351   6.193   2.338   0.996  0.5855  0.2806  0.7729
  518MOL0     C71352   6.320   2.321   0.941  0.3742 -0.1550  0.5643
  518MOL0     C71353   6.364   2.207   0.874 -0.8950 -0.3091 -0.4614
  518MOL0     O71354   6.489   2.211   0.824  0.4966 -0.3730 -0.0329
  518MOL0     C71355   6.539   2.084   0.786 -0.3337 -0.0030 -0.1025
  518MOL0     C71356   6.702   2.094   0.774  0.2595  0.3269  0.9196
  518MOL0     C71357   6.763   2.098   0.915  0.0963  0.1965 -0.6309
  518MOL0     C71358   6.907   2.044   0.925 -0.4310 -0.0610 -0.3555
  518MOL0     C71359   6.905   1.890   0.942 -0.3679  0.1583  0.1403
  518MOL0     C71360   7.040   1.824   0.912  0.1161  0.3620 -0.3478
  518MOL0     C71361   7.152   1.855   1.009  0.7871 -0.2703 -0.2713
  518MOL0     C71362   7.273   1.772   0.981 -0.6205  0.6962 -0.3770
  518MOL0     N71363   7.260   1.661   1.073 -0.0609 -0.1156  0.2895
  518MOL0     C71364   7.282   1.682   1.204 -0.3689  0.0202  1.0756
  518MOL0     C71365   7.278   1.555   1.261 -0.3366 -0.0483  0.1051
  518MOL0     C71366   7.288   1.532   1.403  0.2181 -0.6522 -0.6205
  518MOL0     C71367   7.146   1.524   1.461  0.2844 -0.9561 -0.2685
  518MOL0     C71368   7.056   1.645   1.473  0.3891 -0.6380 -0.1022
  518MOL0     C71369   7.103   1.775   1.542 -0.9902 -0.3565  0.3535
  518MOL0     O71370   7.076   1.790   1.680  0.8078  0.2068  0.4248
  518MOL0     C71371   7.090   1.917   1.724 -0.3864 -0.0270 -0.1395
  518MOL0     C71372   7.010   1.962   1.825 -0.3277  0.0527 -0.8614
  518MOL0     C71373   7.018   2.091   1.885  0.9639 -0.6770  0.0476
  518MOL0     C71374   6.920   2.119   1.995  0.0394 -0.0673 -0.0760
  518MOL0     C71375   7.106   2.184   1.838  0.5065  0.0666  0.3101
  518MOL0     C71376   7.106   2.321   1.877  1.0824  0.7064 -0.4165
  518MOL0     O71377   7.204   2.399   1.817 -0.0163 -0.2971  0.1597
  518MOL0     C71378   7.234   2.528   1.866 -0.2929 -0.2784  0.6576
  518MOL0     C71379   7.230   2.568   1.999 -0.4644 -0.5598  1.0362
  518MOL0     C71380   7.272   2.698   2.025 -0.2538  0.0643  0.3564
  518MOL0     C71381   7.313   2.790   1.929 -0.7616  0.8113 -0.0699
  518MOL0     O71382   7.371   2.909   1.970  0.1104  0.2629 -0.4232
  518MOL0     C71383   7.453   2.981   1.874 -0.7391 -0.0772  0.0642
  518MOL0     C71384   7.509   3.122   1.927  0.6507  0.2874  0.0462
  518MOL0     C71385   7.648   3.122   1.987 -0.6888 -0.7711 -0.6287
  518MOL0     C71386   7.701   3.271   1.998 -1.2975  0.1562 -0.3255
  518MOL0     C71387   7.792   3.288   2.123 -0.1869 -0.2050  0.9818
  518MOL0     C71388   7.838   3.432   2.139 -0.3818 -0.3698 -0.7351
  518MOL0     C71389   7.933   3.457   2.272 -0.0871 -0.0524  0.3422
  518MOL0     C71390   8.060   3.372   2.272 -0.6811 -0.7486 -0.3334
  518MOL0    Cl71391   8.180   3.427   2.150 -0.2499  0.0367 -0.2598
  518MOL0     C71392   7.318   2.745   1.792 -0.0891  0.1253 -0.2648
  518MOL0     C71393   7.293   2.614   1.768  0.5329 -0.5392  0.2891
  518MOL0     O71394   7.031   2.367   1.964 -0.0718  0.5597  0.3902
  518MOL0     C71395   7.205   2.135   1.742 -0.7527  0.3774 -0.0506
  518MOL0     C71396   7.187   2.008   1.681 -0.9615  0.4883  0.1399
  518MOL0     N71397   7.248   1.464   1.158 -0.2700 -0.3624  0.2798
  518MOL0     N71398   7.239   1.530   1.048 -0.4589 -0.7466 -0.6980
  518MOL0     C71399   6.273   2.096   0.862 -0.0900 -0.8641 -0.8208
  518MOL0     C71400   6.142   2.111   0.924 -0.4046 -0.7834  1.4426
  518MOL0     C71401   5.734   2.287   0.975  0.0460  0.0212  0.0474
  518MOL0     C71402   5.623   2.290   0.882  0.5166 -0.2585 -0.0286
  518MOL0     C71403   5.491   2.328   0.918 -1.2316 -0.2430  0.6745
  518MOL0     C71404   5.469   2.379   1.046  0.3196  0.2102 -0.2971
  518MOL0     O71405   5.351   2.439   1.085  0.2832  0.0626  0.6362
  518MOL0     C71406   5.267   2.498   0.984 -0.3906 -0.1076  0.2663
  518MOL0     C71407   5.334   2.602   0.901  0.1844 -0.3024  1.0591
  518MOL0     C71408   5.393   2.712   0.982 -0.3284 -0.1012  0.2563
  518MOL0     C71409   5.455   2.821   0.886 -0.5731  0.0582  0.0727
  518MOL0     C71410   5.592   2.792   0.835  0.4006  0.5955 -0.3974
  518MOL0     C71411   5.702   2.748   0.811  0.1687 -0.9994  0.4013
  518MOL0     C71412   5.574   2.380   1.138 -0.3653 -0.3459 -0.3110
  518MOL0     C71413   5.709   2.344   1.106 -0.1660 -0.3254  0.5597
  518MOL0     C71414   5.798   2.330   1.230  0.2377 -0.4217  0.6499
  518MOL0     H71415   6.156   2.425   1.049 -0.0530 -1.7336  3.8839
  518MOL0     H71416   6.384   2.408   0.943 -2.3013  1.9290  0.5843
  518MOL0     H71417   6.495   2.049   0.692 -2.3932 -1.6234  1.3500
  518MOL0     H71418   6.523   2.002   0.856 -0.9745 -1.0391 -1.4039
  518MOL0     H71419   6.756   2.014   0.721 -1.5704 -0.4780  0.1678
  518MOL0     H71420   6.717   2.189   0.723  0.4627  0.5820  1.4533
  518MOL0     H71421   6.779   2.198   0.956  1.1398 -0.2041 -0.0171
  518MOL0     H71422   6.702   2.055   0.994 -1.2068 -1.5827 -2.5031
  518MOL0     H71423   6.962   2.065   0.833 -2.4274 -4.0590 -2.7493
  518MOL0     H71424   6.956   2.090   1.011 -1.5305 -0.1933  0.3617
  518MOL0     H71425   6.833   1.852   0.869  1.3715  1.9035 -2.6299
  518MOL0     H71426   6.886   1.869   1.048 -2.0984  1.2493  0.0815
  518MOL0     H71427   7.015   1.720   0.888  0.4036  0.0915  0.4778
  518MOL0     H71428   7.068   1.875   0.819 -1.8736  1.0580 -0.6147
  518MOL0     H71429   7.114   1.848   1.112  0.5282 -2.8317 -0.4796
  518MOL0     H71430   7.164   1.961   0.986 -1.1451  0.4282  1.5426
  518MOL0     H71431   7.277   1.737   0.878 -1.4190  1.3752 -0.6526
  518MOL0     H71432   7.358   1.839   1.000  0.4415 -0.6455 -0.2675
  518MOL0     H71433   7.302   1.780   1.246 -1.0168  1.4958 -1.7870
  518MOL0     H71434   7.364   1.595   1.450  2.1955 -1.7980 -2.1691
  518MOL0     H71435   7.338   1.439   1.432  1.2500  0.8703  3.1068
  518MOL0     H71436   7.084   1.459   1.399  0.0570 -0.5819 -0.4424
  518MOL0     H71437   7.159   1.474   1.557 -2.6829 -0.0773  0.7188
  518MOL0     H71438   7.030   1.669   1.370 -0.8965 -2.6434 -0.3049
  518MOL0     H71439   6.961   1.617   1.521 -0.7392 -1.1832 -2.4914
  518MOL0     H71440   7.209   1.797   1.529 -1.5356  3.3426  1.1008
  518MOL0     H71441   7.050   1.856   1.489 -2.8387 -1.5018  0.3692
  518MOL0     H71442   6.942   1.892   1.871  0.8789 -0.8994 -0.4776
  518MOL0     H71443   6.856   2.034   2.019 -2.0193  1.7695  1.2208
  518MOL0     H71444   6.858   2.206   1.975 -0.5367  0.8346  4.5006
  518MOL0     H71445   6.982   2.137   2.083  0.3637  0.9058 -0.4827
  518MOL0     H71446   7.199   2.496   2.074  0.5727 -0.3669  1.6702
  518MOL0     H71447   7.266   2.734   2.127  0.2816  0.7999  0.1394
  518MOL0     H71448   7.539   2.925   1.835  1.0988  1.4656  1.7180
  518MOL0     H71449   7.382   3.007   1.795 -2.2195 -1.6091  0.8227
  518MOL0     H71450   7.498   3.201   1.852 -4.0186 -1.2889 -1.2457
  518MOL0     H71451   7.440   3.160   2.002  1.3453 -1.3276  1.5631
  518MOL0     H71452   7.722   3.076   1.921  0.6667  1.2774 -0.6110
  518MOL0     H71453   7.642   3.079   2.087 -1.4950 -0.4864 -0.5492
  518MOL0     H71454   7.621   3.342   2.019  0.4210  2.2766 -0.6048
  518MOL0     H71455   7.746   3.312   1.907 -1.8553  0.1769 -0.5953
  518MOL0     H71456   7.753   3.253   2.220 -0.8174  1.2564  1.2690
  518MOL0     H71457   7.870   3.214   2.099 -0.2934 -0.0389  0.1265
  518MOL0     H71458   7.744   3.477   2.169 -0.5300 -2.1957  1.9156
  518MOL0     H71459   7.898   3.475   2.058 -0.3045 -0.7426 -0.8802
  518MOL0     H71460   7.876   3.433   2.362  0.4791  2.2727  1.3873
  518MOL0     H71461   7.964   3.561   2.284 -0.3235 -0.2444  3.3132
  518MOL0     H71462   8.030   3.269   2.248  0.0930 -0.1711 -4.5393
  518MOL0     H71463   8.110   3.392   2.367  1.7931  1.3686 -1.9837
  518MOL0     H71464   7.347   2.813   1.713  0.0359 -0.3014 -0.5891
  518MOL0     H71465   7.286   2.569   1.669 -0.9606 -0.3018  0.2715
  518MOL0     H71466   7.286   2.192   1.698  0.6822 -1.1157  0.5744
  518MOL0     H71467   7.264   1.985   1.608 -0.3979 -0.7050  1.0821
  518MOL0     H71468   6.304   2.018   0.793  2.6361  1.2377 -2.1509
  518MOL0     H71469   6.071   2.029   0.927  0.0623 -1.1820  1.7428
  518MOL0     H71470   5.643   2.257   0.781  0.9643 -2.7169  0.7941
  518MOL0     H71471   5.425   2.334   0.833 -2.1771  2.4163  1.5086
  518MOL0     H71472   5.239   2.414   0.920 -1.3367 -1.2300  2.0610
  518MOL0     H71473   5.175   2.540   1.025  0.6005  2.5430 -0.0361
  518MOL0     H71474   5.262   2.643   0.830 -0.5982 -1.2580  1.2835
  518MOL0     H71475   5.415   2.562   0.839  0.1463  1.0603  0.0936
  518MOL0     H71476   5.308   2.757   1.034 -0.8834  1.4329 -1.8246
  518MOL0     H71477   5.472   2.664   1.041  2.2669  1.1395 -1.9911
  518MOL0     H71478   5.478   2.915   0.938 -0.5427  1.2813 -2.0530
  518MOL0     H71479   5.399   2.841   0.794  1.9176  0.2556 -1.4924
  518MOL0     H71480   5.807   2.731   0.797  0.3505 -0.1552  0.6916
  518MOL0     H71481   5.549   2.425   1.234 -0.7852  0.2557 -0.6931
  518MOL0     H71482   5.760   2.398   1.306 -0.1139  2.5641 -1.9796
  518MOL0     H71483   5.783   2.228   1.266 -1.3343 -0.4971 -0.1653
  518MOL0     H71484   5.901   2.360   1.209  0.1283 -0.5911 -0.1846
  519MOL0     O71485  11.349   0.463   4.134  1.3585 -0.5084  0.7100
  519MOL0     C71486  11.254   0.475   4.044 -0.4007  0.7981 -0.6545
  519MOL0     O71487  11.249   0.562   3.949 -0.0548  0.5625 -0.0398
  519MOL0     C71488  11.350   0.655   3.944 -0.9935  1.4871  0.2056
  519MOL0     C71489  11.368   0.754   4.050 -0.0388 -0.2776 -0.1661
  519MOL0     C71490  11.477   0.847   4.038  0.2961  0.1897 -0.5258
  519MOL0     C71491  11.553   0.842   3.924 -0.1636 -0.6642  0.5880
  519MOL0     O71492  11.650   0.937   3.924 -0.7293 -0.9229  0.4414
  519MOL0     C71493  11.776   0.901   3.857  0.5064  0.5117 -0.0319
  519MOL0     C71494  11.883   0.968   3.939  0.7930  0.3046  0.0105
  519MOL0     C71495  11.879   1.117   3.944  0.9062 -0.3359  0.2359
  519MOL0     C71496  11.952   1.169   3.822 -0.0716  0.2336  0.4987
  519MOL0     C71497  12.102   1.169   3.847 -0.2771  0.4291 -0.4205
  519MOL0     C71498  12.176   1.134   3.718  0.5699 -0.0032 -0.1242
  519MOL0     C71499  12.154   1.244   3.617  0.6362  0.3922 -0.0611
  519MOL0     C71500  12.245   1.230   3.488  1.3680 -0.3273  0.0452
  519MOL0     N71501  12.377   1.270   3.525  0.5110 -0.8347  0.6995
  519MOL0     C71502  12.414   1.383   3.591  0.4392  0.2298  0.0406
  519MOL0     C71503  12.543   1.365   3.617  0.4147  0.9545  0.8777
  519MOL0     C71504  12.627   1.442   3.711  0.7427 -0.1876 -0.7642
  519MOL0     C71505  12.616   1.386   3.858  0.7971 -0.4979  0.4195
  519MOL0     C71506  12.673   1.477   3.967  0.9816  0.3989  0.3957
  519MOL0     C71507  12.819   1.522   3.945 -0.4768  0.3148 -0.2432
  519MOL0     O71508  12.868   1.587   4.061 -1.0108 -0.5575  0.3557
  519MOL0     C71509  13.001   1.626   4.066  0.1125  0.1762  0.2357
  519MOL0     C71510  13.053   1.669   4.185  0.3142  0.3393  0.1463
  519MOL0     C71511  13.184   1.722   4.205  0.2693 -0.0787 -0.1542
  519MOL0     C71512  13.219   1.772   4.345 -0.0701  0.4244 -0.2654
  519MOL0     C71513  13.269   1.723   4.094 -0.0658  0.4799  1.1165
  519MOL0     C71514  13.416   1.763   4.102  0.6298  0.0565  0.4477
  519MOL0     O71515  13.482   1.696   4.204 -0.2401 -0.1574  0.3795
  519MOL0     C71516  13.620   1.704   4.226  0.5802 -0.1240  0.2524
  519MOL0     C71517  13.656   1.772   4.337 -0.5068 -0.4552 -0.2102
  519MOL0     C71518  13.786   1.783   4.374 -0.5642  0.3201  1.0005
  519MOL0     C71519  13.890   1.727   4.299 -0.1022 -0.2051  0.5452
  519MOL0     O71520  14.023   1.739   4.348  0.0265  0.7438 -0.6121
  519MOL0     C71521  14.129   1.666   4.290 -0.1115  0.0227  0.5677
  519MOL0     C71522  14.177   1.751   4.166 -0.9272  0.1204 -0.7947
  519MOL0     C71523  14.211   1.653   4.044  0.0988  0.3987 -0.8843
  519MOL0     C71524  14.334   1.565   4.069 -1.0698  0.8731  0.3763
  519MOL0     C71525  14.373   1.470   3.956 -0.0259  0.8995  0.4495
  519MOL0     C71526  14.486   1.372   4.002 -0.4309 -0.6447 -0.1271
  519MOL0     C71527  14.506   1.259   3.906  0.9381  0.4703 -0.2412
  519MOL0     C71528  14.613   1.311   3.810  0.7181  0.0055  1.1827
  519MOL0    Cl71529  14.711   1.179   3.743 -0.3701  0.0282 -0.3423
  519MOL0     C71530  13.854   1.660   4.177  0.3377 -0.2286 -0.9210
  519MOL0     C71531  13.718   1.644   4.143  0.1977  0.4560 -0.2792
  519MOL0     O71532  13.466   1.835   4.018 -0.1341 -0.3885 -0.4107
  519MOL0     C71533  13.218   1.680   3.973  0.1045  0.3869  1.0948
  519MOL0     C71534  13.089   1.631   3.954  0.3613  1.3161 -0.3130
  519MOL0     N71535  12.588   1.259   3.551  0.5190 -0.8246  0.1018
  519MOL0     N71536  12.486   1.191   3.507  0.2504 -0.7032  0.4988
  519MOL0     C71537  11.537   0.750   3.823  0.7158  0.1063 -0.2087
  519MOL0     C71538  11.439   0.652   3.840  1.0093 -0.1732  1.1142
  519MOL0     C71539  11.137   0.390   4.077  0.0665 -0.4628 -0.0726
  519MOL0     C71540  11.154   0.281   4.164 -0.4080 -0.3961  0.3304
  519MOL0     C71541  11.050   0.189   4.180 -0.2815  0.4767 -0.4409
  519MOL0     C71542  10.934   0.191   4.109 -0.4100 -0.5770 -0.5277
  519MOL0     O71543  10.829   0.106   4.112 -0.0783  0.7356  0.1346
  519MOL0     C71544  10.826   0.019   4.222  0.3467 -0.7083 -0.8204
  519MOL0     C71545  10.675  -0.008   4.258 -0.5856  0.4954  0.0449
  519MOL0     C71546  10.599   0.114   4.298 -0.1266 -0.2621  0.3186
  519MOL0     C71547  10.451   0.074   4.344 -0.4892  0.5024  0.7594
  519MOL0     C71548  10.457   0.044   4.492 -0.4749 -0.6224  1.0154
  519MOL0     C71549  10.470   0.001   4.602  0.9196  0.0322 -0.6064
  519MOL0     C71550  10.912   0.295   4.020  0.1523  0.7230 -0.1335
  519MOL0     C71551  11.012   0.396   3.997 -0.0156  0.2797  0.1457
  519MOL0     C71552  10.987   0.504   3.891  0.1021  0.2365  0.3207
  519MOL0     H71553  11.309   0.753   4.141 -1.5567  3.4907 -0.9652
  519MOL0     H71554  11.498   0.915   4.120 -0.0404 -0.7253  0.3483
  519MOL0     H71555  11.792   0.926   3.752  0.9126  2.2566  0.4067
  519MOL0     H71556  11.797   0.794   3.863 -1.4293  0.1658  1.5090
  519MOL0     H71557  11.863   0.927   4.038  0.6703 -2.2875 -1.0292
  519MOL0     H71558  11.975   0.924   3.899  0.9203  1.0807 -0.5934
  519MOL0     H71559  11.779   1.161   3.940  0.5695 -1.1516 -1.6531
  519MOL0     H71560  11.927   1.160   4.032  1.7602 -1.1158  0.1694
  519MOL0     H71561  11.930   1.111   3.732 -1.4645  2.9968 -1.0988
  519MOL0     H71562  11.911   1.268   3.798 -1.9709 -0.7318 -0.4550
  519MOL0     H71563  12.125   1.084   3.913  1.7638  1.8051  0.7534
  519MOL0     H71564  12.139   1.268   3.875 -2.5454  1.4445 -0.8162
  519MOL0     H71565  12.281   1.109   3.740  0.2516 -1.0151  0.2788
  519MOL0     H71566  12.140   1.042   3.672  2.0375  0.9315 -3.4979
  519MOL0     H71567  12.159   1.340   3.669  0.3494  1.2424 -1.5595
  519MOL0     H71568  12.052   1.228   3.580  2.1063 -0.7351 -4.0494
  519MOL0     H71569  12.245   1.129   3.448 -1.7143  0.3252 -1.9543
  519MOL0     H71570  12.206   1.289   3.405 -0.0970 -0.1002  0.8657
  519MOL0     H71571  12.349   1.458   3.634  0.6080  0.7511 -0.5865
  519MOL0     H71572  12.589   1.544   3.703 -1.3466 -1.0697 -3.4354
  519MOL0     H71573  12.726   1.434   3.667  0.4229  3.0174 -2.3258
  519MOL0     H71574  12.511   1.366   3.882  0.7098  1.5175  2.0186
  519MOL0     H71575  12.675   1.294   3.859  1.6205  0.0129 -0.4142
  519MOL0     H71576  12.606   1.562   3.980 -0.7744 -0.5795 -1.6653
  519MOL0     H71577  12.671   1.419   4.060 -1.2857 -0.1774  0.0352
  519MOL0     H71578  12.874   1.433   3.913  1.4349  1.5053 -0.3681
  519MOL0     H71579  12.829   1.599   3.868  0.7630  0.4660  0.0593
  519MOL0     H71580  12.979   1.675   4.264 -0.5357 -1.2172 -0.4874
  519MOL0     H71581  13.203   1.880   4.355  0.0267  0.3614  0.6562
  519MOL0     H71582  13.321   1.748   4.377 -0.4038 -2.7697 -1.2653
  519MOL0     H71583  13.147   1.739   4.421  0.6807  3.4094  1.9658
  519MOL0     H71584  13.588   1.830   4.398 -1.7830 -1.1672 -0.8905
  519MOL0     H71585  13.816   1.830   4.467  1.6262  1.8082 -0.3699
  519MOL0     H71586  14.212   1.649   4.359 -0.4107 -2.0868  0.4489
  519MOL0     H71587  14.085   1.572   4.257 -0.8398  0.9263 -1.1744
  519MOL0     H71588  14.105   1.828   4.137  0.1191  2.6829  2.8027
  519MOL0     H71589  14.265   1.803   4.203 -1.1163  0.9152 -1.4336
  519MOL0     H71590  14.227   1.709   3.952  2.4655  2.5627  0.7238
  519MOL0     H71591  14.128   1.583   4.031  0.6244  0.0646 -2.7531
  519MOL0     H71592  14.321   1.495   4.152 -1.2539  1.3311  0.7419
  519MOL0     H71593  14.419   1.628   4.099 -1.3270  2.1084 -1.3700
  519MOL0     H71594  14.290   1.412   3.915  1.3491  1.2803 -3.3561
  519MOL0     H71595  14.400   1.540   3.876  1.3148 -0.8639 -0.7233
  519MOL0     H71596  14.455   1.328   4.097  3.3631 -3.1557  0.1734
  519MOL0     H71597  14.573   1.436   4.023 -2.3037  1.1981  2.5857
  519MOL0     H71598  14.420   1.223   3.849  0.2251 -0.0438  1.1136
  519MOL0     H71599  14.549   1.177   3.963  0.0385 -0.1223 -0.3994
  519MOL0     H71600  14.683   1.380   3.858 -1.3068  0.7373  3.2652
  519MOL0     H71601  14.560   1.365   3.730  3.0464  2.4385  1.1536
  519MOL0     H71602  13.922   1.608   4.109 -2.2350 -1.4068 -2.7680
  519MOL0     H71603  13.691   1.585   4.057 -0.2445  2.0339 -1.2694
  519MOL0     H71604  13.291   1.690   3.894 -0.3192  3.0098  0.9345
  519MOL0     H71605  13.047   1.602   3.858  0.2496  1.6884 -0.3767
  519MOL0     H71606  11.597   0.763   3.734 -1.0801  2.0090 -1.2270
  519MOL0     H71607  11.433   0.567   3.773  0.4808  0.1341  0.7655
  519MOL0     H71608  11.250   0.258   4.208  0.3697 -0.6102 -1.3832
  519MOL0     H71609  11.075   0.105   4.244 -0.6718  1.0162  0.4391
  519MOL0     H71610  10.875  -0.076   4.197 -0.2291 -1.7138  1.5973
  519MOL0     H71611  10.877   0.064   4.308 -2.4549  0.5518  0.3134
  519MOL0     H71612  10.673  -0.084   4.337 -2.3237  2.7025  2.3082
  519MOL0     H71613  10.628  -0.053   4.170 -5.2377  3.6056  0.6153
  519MOL0     H71614  10.647   0.163   4.384  1.5895 -1.6504  0.2051
  519MOL0     H71615  10.604   0.182   4.213 -1.0843 -2.6175 -1.7465
  519MOL0     H71616  10.426  -0.017   4.289  0.1522 -1.6249  3.7350
  519MOL0     H71617  10.382   0.151   4.309 -0.3150 -0.6970 -2.6558
  519MOL0     H71618  10.465  -0.034   4.703  1.5984  2.4750  0.3437
  519MOL0     H71619  10.824   0.300   3.957  1.0896  1.6732 -1.4091
  519MOL0     H71620  11.036   0.480   3.796 -1.4977  0.6817 -0.6682
  519MOL0     H71621  10.880   0.511   3.869  0.1366  3.0556  0.7529
  519MOL0     H71622  11.016   0.600   3.935 -2.5493  0.5696  1.5579
  520MOL0     O71623   3.500   9.849   4.024  0.4263 -0.0940 -0.1037
  520MOL0     C71624   3.531   9.728   4.014 -0.3595 -0.7250 -0.1829
  520MOL0     O71625   3.643   9.667   3.957 -0.8548 -0.1889  0.3023
  520MOL0     C71626   3.757   9.739   3.941  0.0390 -0.1757  0.2055
  520MOL0     C71627   3.805   9.771   3.806 -0.4618 -0.3236 -0.1936
  520MOL0     C71628   3.940   9.813   3.793 -0.1423  0.1982  0.6709
  520MOL0     C71629   4.022   9.845   3.909 -0.5740  0.1808  0.1054
  520MOL0     O71630   4.148   9.893   3.907  0.2280  0.4605 -0.2654
  520MOL0     C71631   4.243   9.837   3.816 -0.8971 -0.2317 -0.2410
  520MOL0     C71632   4.380   9.890   3.856 -0.0946  0.3464  0.5026
  520MOL0     C71633   4.435   9.804   3.976 -0.3043  0.8376  0.3864
  520MOL0     C71634   4.582   9.829   4.014  0.4728  0.9837 -1.1638
  520MOL0     C71635   4.615   9.743   4.138  0.1453  0.1649  0.3706
  520MOL0     C71636   4.766   9.758   4.173 -0.2125  1.3926 -0.1080
  520MOL0     C71637   4.789   9.891   4.245 -0.5706 -0.8142  0.0808
  520MOL0     C71638   4.939   9.913   4.260  0.0477 -0.1960  0.0971
  520MOL0     N71639   4.957  10.028   4.343  0.2449 -0.3989 -0.3212
  520MOL0     C71640   4.998  10.019   4.475 -0.6248 -0.6876 -0.7046
  520MOL0     C71641   5.030  10.143   4.509 -0.6834 -0.4386  0.8127
  520MOL0     C71642   5.087  10.180   4.645  0.4581  0.0050  0.0093
  520MOL0     C71643   5.146  10.320   4.644 -0.6007  0.2623 -0.2240
  520MOL0     C71644   5.279  10.329   4.561  0.5219 -0.1460  0.4857
  520MOL0     C71645   5.320  10.470   4.545  0.5326 -0.1148 -0.0001
  520MOL0     O71646   5.343  10.542   4.665  0.4766  0.2003 -0.3825
  520MOL0     C71647   5.454  10.512   4.734 -0.8693 -0.9423  0.0038
  520MOL0     C71648   5.565  10.441   4.680 -0.7021  0.6892 -0.2232
  520MOL0     C71649   5.675  10.400   4.762  0.2923 -0.3481  0.2433
  520MOL0     C71650   5.789  10.323   4.698  0.2533 -0.5325 -0.6301
  520MOL0     C71651   5.678  10.442   4.897 -0.5961  0.1908 -1.0396
  520MOL0     C71652   5.788  10.410   5.002 -0.1655 -0.0560 -0.5196
  520MOL0     O71653   5.892  10.334   4.963 -0.6584 -0.7706  0.2594
  520MOL0     C71654   5.971  10.271   5.054 -0.7375  0.0327 -0.0439
  520MOL0     C71655   5.927  10.228   5.176  0.0771  0.1493  0.4869
  520MOL0     C71656   6.027  10.190   5.264  0.1633  1.2131 -0.4781
  520MOL0     C71657   6.163  10.176   5.235  0.2297  0.1131  0.0663
  520MOL0     O71658   6.267  10.119   5.308  0.4615  0.5968 -0.4697
  520MOL0     C71659   6.259   9.976   5.327 -0.1425 -0.8199 -0.7315
  520MOL0     C71660   6.145   9.927   5.423 -0.1598 -0.4931  0.4489
  520MOL0     C71661   6.170   9.781   5.454  0.4256  0.3251 -0.8184
  520MOL0     C71662   6.255   9.769   5.574  0.2920 -0.6244  0.9454
  520MOL0     C71663   6.294   9.627   5.590  1.3539  0.7230  0.7294
  520MOL0     C71664   6.352   9.601   5.725  0.3046  0.9047  0.1691
  520MOL0     C71665   6.427   9.469   5.734 -0.7005  0.9393  1.2980
  520MOL0     C71666   6.495   9.449   5.868  0.8644 -1.2072  0.4361
  520MOL0    Cl71667   6.614   9.569   5.914  0.3683 -0.0863 -0.5015
  520MOL0     C71668   6.201  10.220   5.108  0.4233 -0.4862 -0.2712
  520MOL0     C71669   6.104  10.263   5.014 -0.3292  0.1679 -0.0900
  520MOL0     O71670   5.773  10.455   5.118 -0.0877  0.3281  0.0186
  520MOL0     C71671   5.576  10.522   4.938  1.4555  1.3182  0.7929
  520MOL0     C71672   5.456  10.550   4.867  0.9959  0.0539  0.2683
  520MOL0     N71673   5.013  10.225   4.398  0.1801 -0.6242  0.4376
  520MOL0     N71674   4.973  10.156   4.294 -0.7673  0.4540 -0.2873
  520MOL0     C71675   3.973   9.808   4.034 -0.1775  0.7244 -0.1314
  520MOL0     C71676   3.845   9.753   4.052 -0.1159  0.1144  0.3063
  520MOL0     C71677   3.434   9.646   4.067 -0.4706  0.2451  0.3839
  520MOL0     C71678   3.366   9.563   3.971 -0.4141  0.5105 -0.6384
  520MOL0     C71679   3.260   9.478   4.021  0.0488 -0.0642 -0.6599
  520MOL0     C71680   3.230   9.476   4.160 -1.1156  0.4728 -0.7067
  520MOL0     O71681   3.132   9.387   4.212  0.6070 -0.3774  0.2580
  520MOL0     C71682   3.017   9.450   4.263  0.7376 -0.5243 -0.5161
  520MOL0     C71683   2.898   9.404   4.169 -0.1552  0.3278 -0.6918
  520MOL0     C71684   2.773   9.431   4.254 -0.0499  0.6122 -1.1271
  520MOL0     C71685   2.652   9.474   4.171  0.3010  0.0404 -0.0575
  520MOL0     C71686   2.662   9.607   4.109 -0.0443  0.6052 -0.3656
  520MOL0     C71687   2.686   9.710   4.054 -0.2038  0.3260 -0.6230
  520MOL0     C71688   3.312   9.548   4.255 -0.1892  0.3987 -0.0801
  520MOL0     C71689   3.410   9.642   4.214 -0.8013  0.2633 -0.0066
  520MOL0     C71690   3.493   9.735   4.314  0.3549 -0.4323  0.0327
  520MOL0     H71691   3.742   9.766   3.718 -2.6155  3.1416  0.9712
  520MOL0     H71692   3.975   9.818   3.690 -5.2503  0.3829 -1.3475
  520MOL0     H71693   4.227   9.866   3.712 -0.6922 -1.6924 -0.7088
  520MOL0     H71694   4.237   9.728   3.820 -1.2553 -0.1768  2.6960
  520MOL0     H71695   4.452   9.877   3.775 -0.4419  1.7889 -0.0459
  520MOL0     H71696   4.381   9.994   3.890  3.0304  1.5702 -2.7579
  520MOL0     H71697   4.372   9.836   4.060  1.0180  0.3065  1.6204
  520MOL0     H71698   4.418   9.700   3.945  0.5023  0.5688  0.8269
  520MOL0     H71699   4.645   9.799   3.930 -0.5761  0.7756 -1.8980
  520MOL0     H71700   4.596   9.934   4.039 -0.5205  1.2613 -1.7412
  520MOL0     H71701   4.585   9.639   4.122  1.9886 -0.1194 -1.9708
  520MOL0     H71702   4.557   9.779   4.223 -1.0668 -0.4082 -0.1986
  520MOL0     H71703   4.790   9.678   4.244  0.1600  2.4848  1.0528
  520MOL0     H71704   4.833   9.750   4.087 -0.3728  2.1732 -0.3166
  520MOL0     H71705   4.732   9.893   4.338  0.4256 -4.3122  0.9018
  520MOL0     H71706   4.741   9.979   4.201 -2.5111  0.1247  3.6410
  520MOL0     H71707   4.982   9.832   4.320 -1.4343  0.3552  2.0294
  520MOL0     H71708   4.971   9.926   4.157 -4.2124  0.4658 -1.3195
  520MOL0     H71709   5.001   9.928   4.535  3.3925 -2.5815 -3.3126
  520MOL0     H71710   5.150  10.108   4.698 -0.6807  0.5070  2.1512
  520MOL0     H71711   4.994  10.193   4.701  0.6108  2.7695 -0.2037
  520MOL0     H71712   5.069  10.391   4.611 -0.5606  0.0888 -0.7044
  520MOL0     H71713   5.183  10.344   4.744 -1.3050  3.4773 -0.6368
  520MOL0     H71714   5.351  10.274   4.621  0.5288 -2.1140 -1.2103
  520MOL0     H71715   5.259  10.278   4.466  0.0597 -0.3247  0.6723
  520MOL0     H71716   5.408  10.470   4.480 -0.3274 -2.5911 -1.2993
  520MOL0     H71717   5.249  10.528   4.486 -0.5758  0.4442  1.8038
  520MOL0     H71718   5.580  10.409   4.578  2.5143 -0.3138  0.4338
  520MOL0     H71719   5.767  10.297   4.594  0.4927  2.1914 -1.4498
  520MOL0     H71720   5.791  10.225   4.747 -1.0228 -1.0800 -1.6193
  520MOL0     H71721   5.881  10.382   4.706  1.3092 -2.3635  2.7879
  520MOL0     H71722   5.824  10.220   5.209 -0.0941  2.3708  0.6386
  520MOL0     H71723   5.997  10.163   5.365  1.2675 -1.4326 -0.7627
  520MOL0     H71724   6.246   9.925   5.231 -0.5188  0.1265 -1.1994
  520MOL0     H71725   6.354   9.942   5.370 -0.9749 -2.3027  0.0344
  520MOL0     H71726   6.153   9.990   5.512  0.6244  0.3191 -0.1800
  520MOL0     H71727   6.048   9.938   5.376  0.8298  1.3477 -1.3002
  520MOL0     H71728   6.213   9.725   5.371 -3.0802 -2.2852 -1.0980
  520MOL0     H71729   6.074   9.740   5.485  1.2861  0.6958  2.8393
  520MOL0     H71730   6.202   9.802   5.663 -0.9753  2.3199 -0.7440
  520MOL0     H71731   6.343   9.832   5.559 -0.5401 -0.1889 -4.2127
  520MOL0     H71732   6.209   9.560   5.572  0.1777  1.6235  2.5951
  520MOL0     H71733   6.364   9.611   5.507 -0.1881 -0.6802 -0.3584
  520MOL0     H71734   6.272   9.588   5.799  1.4966 -2.8529  0.9926
  520MOL0     H71735   6.419   9.679   5.762 -1.3854  0.1720  5.6611
  520MOL0     H71736   6.504   9.460   5.657 -0.7544  0.4128  1.3037
  520MOL0     H71737   6.362   9.381   5.742  0.5054  0.0464  1.6458
  520MOL0     H71738   6.538   9.349   5.882 -3.0083 -2.9880  0.8748
  520MOL0     H71739   6.417   9.438   5.944 -0.5460 -2.3230 -1.0835
  520MOL0     H71740   6.299  10.205   5.063  0.3019 -0.3601 -0.5788
  520MOL0     H71741   6.133  10.297   4.915 -3.0444  2.1179 -0.3293
  520MOL0     H71742   5.578  10.545   5.044 -1.4083  0.9827  0.9823
  520MOL0     H71743   5.370  10.597   4.914  0.3296  0.8236 -1.6543
  520MOL0     H71744   4.030   9.804   4.126 -0.7596  2.2630  0.3303
  520MOL0     H71745   3.816   9.717   4.150 -3.5284 -1.0744 -0.9960
  520MOL0     H71746   3.393   9.553   3.866 -0.2419 -3.2208 -0.3969
  520MOL0     H71747   3.201   9.410   3.961 -1.2025  0.9410 -0.6192
  520MOL0     H71748   2.994   9.411   4.362 -0.2747 -2.5303 -1.4676
  520MOL0     H71749   3.015   9.560   4.265 -0.7651 -0.4943 -1.4987
  520MOL0     H71750   2.899   9.301   4.132  2.2046  0.1964 -0.4309
  520MOL0     H71751   2.886   9.469   4.082 -0.5016 -1.0443 -1.7136
  520MOL0     H71752   2.748   9.344   4.316  0.9830  1.8586  1.1740
  520MOL0     H71753   2.792   9.511   4.326 -2.2234 -0.1576  0.4165
  520MOL0     H71754   2.566   9.481   4.237  0.5702  2.9139  0.1367
  520MOL0     H71755   2.626   9.405   4.090  2.5896 -2.7952  1.4324
  520MOL0     H71756   2.701   9.795   3.991 -0.6977  0.4873 -0.5303
  520MOL0     H71757   3.281   9.542   4.359  0.0596  1.8186  0.1038
  520MOL0     H71758   3.477   9.704   4.418 -0.5116 -2.4420 -0.6493
  520MOL0     H71759   3.595   9.728   4.276 -0.1735  0.2305 -1.5812
  520MOL0     H71760   3.457   9.838   4.306  1.9555  0.1681  0.2319
  521MOL0     O71761   0.409  10.795   7.994  0.3755 -0.1574 -0.1045
  521MOL0     C71762   0.366  10.761   7.884  1.1466 -0.0329  0.3097
  521MOL0     O71763   0.438  10.693   7.789  0.5443 -0.6129 -0.0038
  521MOL0     C71764   0.566  10.653   7.822 -0.0465 -0.3764 -0.2066
  521MOL0     C71765   0.656  10.738   7.888  0.6637  0.0951  0.0212
  521MOL0     C71766   0.780  10.702   7.935 -0.2051  0.2611 -0.3701
  521MOL0     C71767   0.816  10.571   7.928  0.5371  1.3696  0.1349
  521MOL0     O71768   0.929  10.527   7.992 -0.1908 -0.5318  0.8212
  521MOL0     C71769   0.915  10.404   8.064 -0.1924  0.0857 -0.6436
  521MOL0     C71770   1.038  10.382   8.165  0.2042 -0.7584  0.3835
  521MOL0     C71771   1.048  10.493   8.259  0.6882  0.1150 -0.2693
  521MOL0     C71772   1.179  10.486   8.354  0.6335 -0.0643 -1.1338
  521MOL0     C71773   1.159  10.389   8.473 -0.4498 -0.7391  0.0833
  521MOL0     C71774   1.276  10.393   8.571 -0.7143 -0.1970 -0.5616
  521MOL0     C71775   1.395  10.307   8.520  0.1103 -0.4113  0.1375
  521MOL0     C71776   1.508  10.321   8.616  0.2201  0.0093  0.2644
  521MOL0     N71777   1.547  10.183   8.674  0.6446 -0.6391 -0.4026
  521MOL0     C71778   1.501  10.141   8.792  0.4371  0.0252  0.2308
  521MOL0     C71779   1.589  10.045   8.829 -0.1859 -0.0744 -0.4243
  521MOL0     C71780   1.585   9.970   8.962 -1.0494 -0.4124  0.5702
  521MOL0     C71781   1.730   9.923   8.996  0.0274  0.1867 -0.4847
  521MOL0     C71782   1.739   9.865   9.130 -0.4240 -0.9903  0.5986
  521MOL0     C71783   1.873   9.810   9.150  0.1367  0.5298  0.0800
  521MOL0     O71784   1.901   9.688   9.076  0.3778 -0.3648  0.9437
  521MOL0     C71785   2.032   9.644   9.065 -0.0848  0.5515 -0.6319
  521MOL0     C71786   2.153   9.713   9.093 -0.2134  0.5561  1.0075
  521MOL0     C71787   2.277   9.648   9.092  0.4642 -0.5683 -0.0029
  521MOL0     C71788   2.401   9.727   9.155  0.4432 -0.5976  0.3862
  521MOL0     C71789   2.292   9.518   9.038  1.5726 -0.1553 -0.2763
  521MOL0     C71790   2.419   9.452   9.022 -0.3339 -0.5709 -1.2235
  521MOL0     O71791   2.418   9.344   8.936 -0.4528 -0.0095  0.5574
  521MOL0     C71792   2.542   9.293   8.913 -0.2491 -0.1411  0.4102
  521MOL0     C71793   2.626   9.337   8.809  0.2268  0.4398 -0.1905
  521MOL0     C71794   2.748   9.269   8.775  0.0018  0.0878 -0.8861
  521MOL0     C71795   2.793   9.165   8.852 -0.0997  0.2061  0.0982
  521MOL0     O71796   2.897   9.097   8.805  0.6715  0.4114 -0.5415
  521MOL0     C71797   2.939   8.978   8.880 -0.1464 -0.0714  0.2597
  521MOL0     C71798   3.054   8.925   8.795  0.2605  0.5501 -0.4286
  521MOL0     C71799   3.086   8.778   8.821  0.8162 -0.2101 -0.3695
  521MOL0     C71800   3.183   8.714   8.727 -0.4128  0.2647 -0.6082
  521MOL0     C71801   3.126   8.620   8.624  0.0782  0.3606  0.8640
  521MOL0     C71802   3.032   8.701   8.538 -0.3934  0.0428 -0.4554
  521MOL0     C71803   3.010   8.630   8.400 -0.3697 -0.6714 -0.0753
  521MOL0     C71804   2.978   8.741   8.300 -0.2799  0.1456  0.7485
  521MOL0    Cl71805   2.838   8.851   8.357  0.2447 -0.3072 -0.1553
  521MOL0     C71806   2.713   9.120   8.957 -0.3035 -0.1372 -0.2634
  521MOL0     C71807   2.591   9.187   8.990 -0.0499 -0.6575 -0.8438
  521MOL0     O71808   2.512   9.495   9.082 -0.7180 -0.0688  0.2371
  521MOL0     C71809   2.174   9.454   8.994 -0.1352  0.1175 -0.7385
  521MOL0     C71810   2.049   9.520   9.006 -0.2792  0.4320 -0.5038
  521MOL0     N71811   1.686  10.046   8.729 -0.4083 -0.3618  0.2964
  521MOL0     N71812   1.658  10.121   8.634 -0.4710 -0.5040 -0.6767
  521MOL0     C71813   0.727  10.480   7.871 -0.7102 -0.1785 -0.2887
  521MOL0     C71814   0.603  10.519   7.815 -0.5931 -0.6506  0.9979
  521MOL0     C71815   0.225  10.791   7.846  0.6076 -0.7931  0.2301
  521MOL0     C71816   0.176  10.733   7.721  0.2626  0.6175  0.2650
  521MOL0     C71817   0.039  10.757   7.682  0.7882 -0.0207 -0.1738
  521MOL0     C71818  -0.052  10.824   7.763  0.3900  0.1273  0.0954
  521MOL0     O71819  -0.179  10.847   7.719  0.2080  0.5481 -0.3517
  521MOL0     C71820  -0.271  10.745   7.745 -0.4874  0.2098  0.1515
  521MOL0     C71821  -0.312  10.761   7.890  0.2246  0.4972 -0.8496
  521MOL0     C71822  -0.451  10.712   7.913 -0.2046 -0.2095 -0.1636
  521MOL0     C71823  -0.474  10.567   7.848 -0.6968  0.1767  0.5269
  521MOL0     C71824  -0.612  10.529   7.876 -0.0847 -0.0402  0.3363
  521MOL0     C71825  -0.727  10.498   7.905  0.0181 -0.5118 -0.5426
  521MOL0     C71826  -0.000  10.873   7.886  0.3123  0.0496 -0.1779
  521MOL0     C71827   0.134  10.865   7.927  0.4794  0.8624  0.3422
  521MOL0     C71828   0.173  10.938   8.055 -0.2038 -0.5113 -0.2202
  521MOL0     H71829   0.630  10.844   7.880  0.5978 -0.0336 -1.9317
  521MOL0     H71830   0.840  10.776   7.987  0.3597 -1.4623  1.5424
  521MOL0     H71831   0.925  10.315   8.001  2.4662 -0.0209 -0.1958
  521MOL0     H71832   0.827  10.394   8.128 -1.5871 -0.1176 -2.4947
  521MOL0     H71833   1.018  10.283   8.207 -0.9585 -1.1574 -1.0361
  521MOL0     H71834   1.124  10.370   8.098 -0.1080  0.2030 -0.2083
  521MOL0     H71835   1.063  10.583   8.199 -1.8161 -0.1696 -1.4526
  521MOL0     H71836   0.948  10.493   8.304  0.8571 -3.0971  0.3405
  521MOL0     H71837   1.267  10.455   8.297  0.6593 -1.7863 -0.2371
  521MOL0     H71838   1.208  10.585   8.390  0.9618 -0.3382 -0.6262
  521MOL0     H71839   1.131  10.292   8.431 -2.1342  0.3844 -1.5446
  521MOL0     H71840   1.075  10.432   8.529  0.5770  0.0077  1.0810
  521MOL0     H71841   1.304  10.499   8.571  0.2891 -0.4494  0.7082
  521MOL0     H71842   1.249  10.364   8.673  2.6006 -1.5044  0.0658
  521MOL0     H71843   1.418  10.342   8.419 -1.0915  1.7810  0.5694
  521MOL0     H71844   1.364  10.204   8.502  1.4973 -1.2327  2.0685
  521MOL0     H71845   1.603  10.358   8.578  2.2101  0.4288  4.9007
  521MOL0     H71846   1.482  10.389   8.698  2.3485 -0.6526  1.5681
  521MOL0     H71847   1.408  10.167   8.841 -0.0604 -0.5406 -0.3916
  521MOL0     H71848   1.526   9.878   8.961 -0.7436 -0.7200  3.4152
  521MOL0     H71849   1.543  10.030   9.043 -0.3534  2.2467 -0.8797
  521MOL0     H71850   1.770   9.851   8.925  0.8981 -1.9069  1.9463
  521MOL0     H71851   1.781  10.020   8.988  3.7432 -1.6931 -1.3452
  521MOL0     H71852   1.724   9.945   9.203  0.7861  0.6259 -0.8345
  521MOL0     H71853   1.661   9.791   9.150 -1.0280 -0.4601  0.2644
  521MOL0     H71854   1.937   9.894   9.121 -2.5245  2.6589 -0.0102
  521MOL0     H71855   1.895   9.792   9.256 -1.1873 -0.2870  0.2370
  521MOL0     H71856   2.139   9.811   9.136 -3.1759 -0.1130  1.7883
  521MOL0     H71857   2.436   9.674   9.244  0.5485  0.3379  0.9156
  521MOL0     H71858   2.364   9.822   9.194 -1.3154  0.0864 -2.6173
  521MOL0     H71859   2.486   9.750   9.091 -0.4427 -1.1748 -1.0465
  521MOL0     H71860   2.575   9.393   8.731 -1.8086 -0.9773  0.0368
  521MOL0     H71861   2.795   9.294   8.680 -0.8334 -2.6649 -2.1165
  521MOL0     H71862   2.966   8.992   8.985 -3.1870  3.8168  0.7751
  521MOL0     H71863   2.859   8.904   8.872  0.3438 -0.5946  0.1797
  521MOL0     H71864   3.037   8.932   8.688  4.3524  1.3651 -1.1898
  521MOL0     H71865   3.142   8.986   8.818  1.1686 -0.2315 -1.7430
  521MOL0     H71866   2.999   8.711   8.824  2.7273 -2.8242  0.3395
  521MOL0     H71867   3.131   8.781   8.921  1.4067  2.3504 -0.6511
  521MOL0     H71868   3.247   8.655   8.793 -0.3538  0.1419 -0.7754
  521MOL0     H71869   3.255   8.777   8.674 -1.5458  0.8852 -1.4652
  521MOL0     H71870   3.201   8.575   8.558 -1.3576 -1.2015  0.2378
  521MOL0     H71871   3.084   8.535   8.680 -0.7728 -0.6430 -1.1899
  521MOL0     H71872   3.082   8.797   8.523  0.2899 -0.3333 -0.6186
  521MOL0     H71873   2.935   8.727   8.581 -0.8055 -1.9563 -0.0953
  521MOL0     H71874   2.921   8.567   8.388  0.7941 -2.1914 -1.0573
  521MOL0     H71875   3.102   8.579   8.371  0.4636  1.6630 -1.7841
  521MOL0     H71876   2.961   8.708   8.197 -0.2853  0.2852  0.7035
  521MOL0     H71877   3.070   8.801   8.296  0.4910 -0.6363  3.8283
  521MOL0     H71878   2.745   9.038   9.021 -2.4070  0.9840  2.4141
  521MOL0     H71879   2.532   9.154   9.076  3.0330 -0.3939  1.5553
  521MOL0     H71880   2.187   9.355   8.951  1.6399  0.2990 -0.7307
  521MOL0     H71881   1.969   9.469   8.954  0.7745 -1.7139 -0.1207
  521MOL0     H71882   0.745  10.373   7.864 -0.0816  0.0013 -1.6433
  521MOL0     H71883   0.545  10.452   7.753  1.4264 -1.8758  0.3476
  521MOL0     H71884   0.232  10.683   7.643 -0.2320  1.3035 -0.5430
  521MOL0     H71885   0.003  10.709   7.591  0.8844  0.5028 -0.4925
  521MOL0     H71886  -0.359  10.747   7.679 -2.0301 -4.2994  1.6859
  521MOL0     H71887  -0.224  10.647   7.736  3.0907  1.7792  0.0891
  521MOL0     H71888  -0.301  10.866   7.921  2.7344  0.4549 -1.4050
  521MOL0     H71889  -0.238  10.710   7.952 -3.5535 -1.6170  2.3547
  521MOL0     H71890  -0.467  10.709   8.021 -0.1896  0.7529 -0.1309
  521MOL0     H71891  -0.519  10.784   7.867  2.6017  2.5207 -0.3590
  521MOL0     H71892  -0.407  10.497   7.899 -0.0989  1.1047  1.0347
  521MOL0     H71893  -0.453  10.575   7.741 -2.4647 -0.4117  0.0946
  521MOL0     H71894  -0.825  10.477   7.943 -0.0169 -2.2898 -1.4763
  521MOL0     H71895  -0.068  10.939   7.940 -1.3749 -1.5692 -0.2201
  521MOL0     H71896   0.216  10.869   8.128 -0.0282 -1.4078 -1.1412
  521MOL0     H71897   0.251  11.008   8.022  0.4534 -0.8683  0.5390
  521MOL0     H71898   0.087  10.982   8.106  0.9956  2.7714 -0.7795
  522MOL0     O71899   4.368   3.823   6.326 -0.5858 -0.4274 -0.1263
  522MOL0     C71900   4.409   3.890   6.417 -0.4731  0.3523 -0.4393
  522MOL0     O71901   4.324   3.946   6.511 -0.6702  0.8246  0.0932
  522MOL0     C71902   4.191   3.980   6.486  0.1909 -0.0070 -0.3903
  522MOL0     C71903   4.147   4.031   6.364 -0.3332 -0.2088  0.4874
  522MOL0     C71904   4.010   4.073   6.351 -0.9423  0.8814  0.4721
  522MOL0     C71905   3.914   4.039   6.450 -0.4856  0.1882 -0.0195
  522MOL0     O71906   3.776   4.042   6.446 -0.0647  0.5380  0.5340
  522MOL0     C71907   3.725   4.064   6.308  0.7281 -0.7735 -0.1265
  522MOL0     C71908   3.583   4.140   6.328  0.6345 -0.0368 -0.4173
  522MOL0     C71909   3.480   4.093   6.230  0.0465  0.7578 -0.9794
  522MOL0     C71910   3.365   4.190   6.231 -0.6913  0.0972  0.5883
  522MOL0     C71911   3.246   4.120   6.165  0.3573  0.6621 -0.4105
  522MOL0     C71912   3.162   4.213   6.090  0.3954 -1.0815  0.2645
  522MOL0     C71913   3.034   4.142   6.044  0.3146 -0.6096  0.7548
  522MOL0     C71914   2.927   4.242   6.003 -0.0679  0.2711  0.3578
  522MOL0     N71915   2.820   4.175   5.933  0.2992  0.3062 -0.2826
  522MOL0     C71916   2.822   4.133   5.804 -0.4484  0.2148  0.3162
  522MOL0     C71917   2.702   4.068   5.779 -0.0249 -0.0849  0.0748
  522MOL0     C71918   2.670   4.018   5.646  0.1023 -0.4835 -0.9773
  522MOL0     C71919   2.731   3.890   5.610  0.0371  0.8009  0.2123
  522MOL0     C71920   2.701   3.773   5.712 -0.3741  0.3785 -0.0691
  522MOL0     C71921   2.561   3.726   5.737 -0.3218 -0.4331 -0.6205
  522MOL0     O71922   2.495   3.816   5.826 -0.3929 -0.5925  0.5658
  522MOL0     C71923   2.362   3.803   5.848  0.1626 -0.7965 -0.2950
  522MOL0     C71924   2.305   3.888   5.942  0.6926  0.5510 -0.1861
  522MOL0     C71925   2.169   3.875   5.983 -0.5296  0.4569  0.2107
  522MOL0     C71926   2.126   3.963   6.097 -0.0166  0.4931  0.1738
  522MOL0     C71927   2.098   3.764   5.933 -0.2866 -0.0796 -1.1258
  522MOL0     C71928   1.966   3.732   5.991  0.2661  0.5153 -0.7148
  522MOL0     O71929   1.870   3.679   5.903 -0.5487  0.8024 -0.1116
  522MOL0     C71930   1.740   3.661   5.951 -0.2343  0.5000 -0.8185
  522MOL0     C71931   1.676   3.540   5.932 -0.2594 -0.2267 -0.6465
  522MOL0     C71932   1.541   3.531   5.963  0.6448 -0.4127  0.8254
  522MOL0     C71933   1.462   3.639   5.998  0.7507  0.0958  0.3524
  522MOL0     O71934   1.332   3.640   6.031  0.3041  0.0430 -0.5858
  522MOL0     C71935   1.285   3.544   6.124 -0.3815 -0.7537 -0.2278
  522MOL0     C71936   1.146   3.541   6.071 -0.2855 -0.5561 -0.3799
  522MOL0     C71937   1.051   3.471   6.169 -0.2121  0.4064 -0.5489
  522MOL0     C71938   0.997   3.558   6.289 -0.5328  0.6120 -0.7954
  522MOL0     C71939   1.027   3.492   6.425  0.0091  0.0761 -1.0252
  522MOL0     C71940   0.995   3.566   6.553 -0.5634  0.4663  0.5789
  522MOL0     C71941   1.027   3.503   6.692  0.2766  0.0268  0.4461
  522MOL0     C71942   1.177   3.508   6.703 -0.0775  0.4692  0.3342
  522MOL0    Cl71943   1.264   3.377   6.622 -0.2319  0.1413 -0.2791
  522MOL0     C71944   1.522   3.759   6.002 -0.2675  0.2330  0.0564
  522MOL0     C71945   1.662   3.769   5.984 -0.4040 -0.1401  0.0481
  522MOL0     O71946   1.957   3.722   6.111 -0.0236  0.3856  0.1235
  522MOL0     C71947   2.156   3.676   5.842  0.1351  0.3911  0.1612
  522MOL0     C71948   2.284   3.697   5.798 -0.2206 -0.6958  0.3275
  522MOL0     N71949   2.624   4.074   5.895 -0.8077  0.0757 -0.5589
  522MOL0     N71950   2.694   4.151   5.982  0.3352 -0.5450 -0.0438
  522MOL0     C71951   3.960   3.982   6.569  0.9618 -0.0626  1.0031
  522MOL0     C71952   4.093   3.958   6.591 -0.5070  0.9671  0.8079
  522MOL0     C71953   4.550   3.876   6.460  1.1667 -0.4184  0.3840
  522MOL0     C71954   4.593   3.923   6.587 -0.5687  0.3544 -0.3975
  522MOL0     C71955   4.736   3.921   6.621  0.6471  0.3029  0.2346
  522MOL0     C71956   4.823   3.847   6.539 -0.1298 -0.3203  0.3699
  522MOL0     O71957   4.956   3.829   6.552 -0.4180  0.5200 -0.0519
  522MOL0     C71958   5.026   3.920   6.633  0.2192  0.0694 -0.7461
  522MOL0     C71959   5.033   4.053   6.568  0.2963  0.5767  0.1294
  522MOL0     C71960   5.053   4.033   6.419  0.3349  0.0883 -0.7824
  522MOL0     C71961   5.109   4.157   6.355 -0.3919 -0.1685  0.1686
  522MOL0     C71962   5.259   4.145   6.339 -0.0056 -0.0316 -0.1149
  522MOL0     C71963   5.376   4.134   6.343 -0.2467  0.6582  1.3421
  522MOL0     C71964   4.770   3.785   6.428 -0.1058  1.0374 -0.2985
  522MOL0     C71965   4.641   3.805   6.376  0.2297  0.0760 -1.3821
  522MOL0     C71966   4.620   3.740   6.242  0.2940 -0.3417  0.1592
  522MOL0     H71967   4.220   4.049   6.286  0.8577  0.4111  1.7056
  522MOL0     H71968   3.986   4.115   6.253  0.1936 -0.4874 -0.4376
  522MOL0     H71969   3.716   3.963   6.267 -2.2997 -2.7168  4.5618
  522MOL0     H71970   3.779   4.125   6.235  0.1692 -0.9506 -0.7002
  522MOL0     H71971   3.543   4.130   6.429 -0.7462  0.6080 -0.8743
  522MOL0     H71972   3.610   4.243   6.303 -0.5172  0.8629  1.7923
  522MOL0     H71973   3.512   4.077   6.127  0.2915  1.4377 -1.0194
  522MOL0     H71974   3.448   3.991   6.252 -1.2620  0.9946 -1.6958
  522MOL0     H71975   3.353   4.214   6.337  4.4511  1.3116  1.1398
  522MOL0     H71976   3.388   4.279   6.172 -1.8287 -0.8158 -1.3552
  522MOL0     H71977   3.174   4.072   6.231 -1.0881  0.0223 -2.3808
  522MOL0     H71978   3.284   4.045   6.096  2.3905  0.0952  1.2240
  522MOL0     H71979   3.148   4.292   6.164  2.0052  0.4896 -1.0115
  522MOL0     H71980   3.211   4.266   6.007 -0.3792  0.5335  0.8170
  522MOL0     H71981   2.985   4.083   6.121 -0.2801 -0.9675  0.1172
  522MOL0     H71982   3.067   4.078   5.961  1.9394  2.7236 -1.4066
  522MOL0     H71983   2.894   4.295   6.093 -0.6353 -0.8175  0.8021
  522MOL0     H71984   2.973   4.327   5.952 -1.8890  0.9513 -0.2547
  522MOL0     H71985   2.906   4.127   5.736 -2.0779  1.0306 -1.9042
  522MOL0     H71986   2.705   4.093   5.575 -4.1595  1.0361 -1.7896
  522MOL0     H71987   2.561   4.014   5.631 -0.4283 -0.8036  2.1916
  522MOL0     H71988   2.700   3.859   5.510 -0.4846  0.7067  0.3984
  522MOL0     H71989   2.840   3.901   5.604  0.3896 -0.1695  3.0150
  522MOL0     H71990   2.753   3.692   5.660  1.2477  2.9289 -2.7445
  522MOL0     H71991   2.744   3.793   5.811 -1.9686 -1.5247  1.0954
  522MOL0     H71992   2.505   3.726   5.643 -3.3794  0.3263  1.0834
  522MOL0     H71993   2.555   3.625   5.780  0.7039 -0.0044  0.5457
  522MOL0     H71994   2.360   3.972   5.984  2.7985 -1.1251  0.5542
  522MOL0     H71995   2.144   3.905   6.188  1.7725 -1.6608 -1.4161
  522MOL0     H71996   2.017   3.971   6.102 -0.2079 -2.0168  3.0010
  522MOL0     H71997   2.185   4.054   6.110  2.6541 -1.2213  0.8572
  522MOL0     H71998   1.730   3.455   5.892  1.0697  0.0090  0.5415
  522MOL0     H71999   1.497   3.432   5.955 -0.3222  0.0790 -0.3053
  522MOL0     H72000   1.328   3.443   6.122  0.3752 -0.4275 -0.5933
  522MOL0     H72001   1.284   3.580   6.228 -3.8122  0.6955 -0.6083
  522MOL0     H72002   1.108   3.641   6.051  1.2132 -0.3831 -2.8509
  522MOL0     H72003   1.137   3.493   5.973 -2.5500 -1.2385  0.1075
  522MOL0     H72004   1.106   3.380   6.195  3.0552  2.7602  1.5464
  522MOL0     H72005   0.960   3.439   6.118  0.8657 -2.1362 -1.0117
  522MOL0     H72006   0.893   3.589   6.276 -1.7890 -2.7168  0.2458
  522MOL0     H72007   1.051   3.653   6.287  1.0405 -0.2204 -0.1337
  522MOL0     H72008   0.974   3.397   6.429 -0.3249  0.3069  1.7061
  522MOL0     H72009   1.131   3.460   6.419  0.1047  0.0013  0.7181
  522MOL0     H72010   0.892   3.604   6.557 -0.2568  1.6136 -1.0008
  522MOL0     H72011   1.043   3.664   6.556 -0.4574  0.3810  2.0895
  522MOL0     H72012   0.974   3.408   6.701 -0.8295  0.2838 -2.3928
  522MOL0     H72013   0.984   3.568   6.768  1.7705  2.3257 -0.5728
  522MOL0     H72014   1.197   3.499   6.810 -1.6775  1.0441  0.7144
  522MOL0     H72015   1.217   3.599   6.657  1.2733 -0.5356 -0.5627
  522MOL0     H72016   1.449   3.837   6.023  0.4040  0.0392  3.7561
  522MOL0     H72017   1.701   3.868   6.007 -1.4022  0.2464  0.1499
  522MOL0     H72018   2.106   3.581   5.826  2.6182 -1.0617  0.4717
  522MOL0     H72019   2.316   3.629   5.719 -1.4684  3.2853 -4.0266
  522MOL0     H72020   3.882   3.968   6.644 -2.7978  0.6557 -2.4286
  522MOL0     H72021   4.139   3.907   6.676  1.7334  0.6266 -0.5344
  522MOL0     H72022   4.531   3.975   6.659  3.1512  0.8162  2.8289
  522MOL0     H72023   4.774   3.966   6.713 -1.2266  1.8581  0.3126
  522MOL0     H72024   4.972   3.930   6.727 -0.8158 -0.8143 -1.2179
  522MOL0     H72025   5.128   3.885   6.652  0.9293  1.6201 -1.4879
  522MOL0     H72026   5.110   4.113   6.617 -0.9419  2.4452 -0.1015
  522MOL0     H72027   4.945   4.115   6.583  0.7764  1.2047  0.3849
  522MOL0     H72028   5.104   3.938   6.405 -0.5965 -0.9721  2.2187
  522MOL0     H72029   4.955   4.011   6.375  0.5157 -0.7311 -0.7866
  522MOL0     H72030   5.099   4.236   6.431 -2.8840 -1.0322  0.8448
  522MOL0     H72031   5.054   4.176   6.263  0.6096  1.8328 -0.0736
  522MOL0     H72032   5.482   4.140   6.351  0.1795 -0.6092 -1.8419
  522MOL0     H72033   4.847   3.736   6.369 -0.1110  0.3115  0.2858
  522MOL0     H72034   4.540   3.668   6.264 -1.3207  1.2530 -0.1979
  522MOL0     H72035   4.573   3.817   6.179 -0.8006  1.3198  2.8239
  522MOL0     H72036   4.706   3.693   6.194  0.0654 -1.4465  0.8107
  523MOL0     O72037   1.415  11.325   5.278  0.4202  0.8825 -0.5279
  523MOL0     C72038   1.390  11.357   5.394  0.2118 -0.9122  0.0439
  523MOL0     O72039   1.479  11.411   5.484  0.6609 -0.1664 -0.2756
  523MOL0     C72040   1.603  11.455   5.440 -0.6371  0.1387  0.2003
  523MOL0     C72041   1.605  11.563   5.351  0.7339 -0.7016  0.0794
  523MOL0     C72042   1.725  11.613   5.305  0.1717  0.5260 -0.5132
  523MOL0     C72043   1.851  11.567   5.356  0.2289 -0.2698  0.2872
  523MOL0     O72044   1.977  11.618   5.326  0.1634  0.1617 -0.2134
  523MOL0     C72045   1.985  11.721   5.223  0.5012 -0.5766 -0.7908
  523MOL0     C72046   2.135  11.766   5.213  0.4532  0.9500  0.8691
  523MOL0     C72047   2.175  11.867   5.313 -0.4417 -1.1422  0.9533
  523MOL0     C72048   2.324  11.917   5.283  0.9026 -0.2910  0.0648
  523MOL0     C72049   2.353  12.047   5.370 -0.0603  0.8393 -0.0066
  523MOL0     C72050   2.496  12.106   5.322  0.1726 -0.6563 -1.0111
  523MOL0     C72051   2.521  12.220   5.424 -0.6928 -0.4401  0.7245
  523MOL0     C72052   2.644  12.310   5.400 -0.6272 -0.5896 -0.2990
  523MOL0     N72053   2.768  12.244   5.431  0.0002 -0.6428 -0.6288
  523MOL0     C72054   2.852  12.284   5.534 -0.1592 -0.3422  1.2558
  523MOL0     C72055   2.958  12.202   5.526 -0.3677  0.2418 -0.0701
  523MOL0     C72056   3.074  12.217   5.612 -0.1803  0.6527 -0.9005
  523MOL0     C72057   3.167  12.314   5.555 -0.0260  0.2049 -0.4043
  523MOL0     C72058   3.286  12.316   5.658  0.2854  0.7874 -0.5475
  523MOL0     C72059   3.390  12.402   5.605 -0.4975 -0.4243  0.4519
  523MOL0     O72060   3.449  12.345   5.490  0.2999  0.6676 -0.3967
  523MOL0     C72061   3.546  12.243   5.502  0.2880  0.5736 -0.3831
  523MOL0     C72062   3.630  12.216   5.616 -0.5841  0.7733  0.0995
  523MOL0     C72063   3.733  12.113   5.599  0.2784 -0.5152  0.1173
  523MOL0     C72064   3.798  12.080   5.734  0.2041  0.5487  0.3812
  523MOL0     C72065   3.761  12.056   5.474 -0.5200  0.2529  0.7113
  523MOL0     C72066   3.885  11.975   5.436  0.2475 -1.1248  0.6599
  523MOL0     O72067   3.879  11.904   5.326 -0.2228  0.0721  0.6334
  523MOL0     C72068   3.983  11.805   5.311  0.0475  0.2142  0.1666
  523MOL0     C72069   4.097  11.866   5.279 -0.8575 -0.1169 -0.1380
  523MOL0     C72070   4.213  11.789   5.271  0.1390 -0.3376 -0.5204
  523MOL0     C72071   4.216  11.654   5.294  1.1036  0.7665 -0.0443
  523MOL0     O72072   4.341  11.605   5.309 -0.2467 -0.7659  0.2054
  523MOL0     C72073   4.352  11.493   5.401  0.2390  0.7768  0.9724
  523MOL0     C72074   4.352  11.357   5.325 -0.6116 -1.2422  0.3143
  523MOL0     C72075   4.434  11.345   5.203 -0.6297  0.1925  1.3245
  523MOL0     C72076   4.584  11.396   5.236  0.1285 -0.5740 -0.1474
  523MOL0     C72077   4.682  11.337   5.144  0.1932 -0.6373  0.6526
  523MOL0     C72078   4.826  11.348   5.173  0.4264 -1.0647  0.5294
  523MOL0     C72079   4.922  11.301   5.062 -0.0436 -0.6168  0.6787
  523MOL0     C72080   5.075  11.303   5.088  0.3517 -0.3599  0.3460
  523MOL0    Cl72081   5.100  11.230   5.250 -0.3721 -0.0499  0.0320
  523MOL0     C72082   4.094  11.586   5.310  0.2822  0.3011 -0.4822
  523MOL0     C72083   3.975  11.666   5.313 -0.5303 -0.1189  0.2600
  523MOL0     O72084   3.980  11.990   5.509  0.0485 -0.0015  0.4351
  523MOL0     C72085   3.672  12.087   5.367  0.3137  0.3458  0.6254
  523MOL0     C72086   3.572  12.186   5.383  0.2081 -0.2563  1.0160
  523MOL0     N72087   2.937  12.122   5.413  0.2075  0.5220  0.4728
  523MOL0     N72088   2.825  12.147   5.361 -0.6608 -0.6902  0.0909
  523MOL0     C72089   1.850  11.449   5.435 -0.7416 -0.2572  0.5595
  523MOL0     C72090   1.726  11.396   5.476 -0.0302  0.0466 -0.2661
  523MOL0     C72091   1.249  11.354   5.443  1.2797 -0.3834 -0.1350
  523MOL0     C72092   1.211  11.414   5.571 -0.0888 -0.7856  0.1400
  523MOL0     C72093   1.077  11.422   5.619  0.2387  0.1132  0.0038
  523MOL0     C72094   0.969  11.359   5.546 -0.2116  0.1467 -0.0769
  523MOL0     O72095   0.842  11.341   5.587 -0.1012 -0.6311 -0.2528
  523MOL0     C72096   0.798  11.388   5.715 -0.1179  0.4529  0.2546
  523MOL0     C72097   0.651  11.434   5.699 -0.2394 -0.7206 -0.3377
  523MOL0     C72098   0.543  11.329   5.670  1.0523  0.1838  0.7583
  523MOL0     C72099   0.534  11.211   5.759  0.4385 -0.3817  0.3619
  523MOL0     C72100   0.489  11.237   5.899 -0.3677 -0.0962  1.1932
  523MOL0     C72101   0.445  11.232   6.013  0.3745  0.4233  0.1545
  523MOL0     C72102   0.998  11.306   5.425  0.1333 -0.1514 -0.1658
  523MOL0     C72103   1.131  11.295   5.377 -1.0818 -0.6069  0.4539
  523MOL0     C72104   1.151  11.207   5.254 -0.3708 -0.5778  0.0951
  523MOL0     H72105   1.511  11.610   5.325  0.2945 -0.0007  2.6479
  523MOL0     H72106   1.711  11.695   5.236 -2.4752  1.7309  1.2772
  523MOL0     H72107   1.916  11.803   5.245 -2.5284 -3.7579  2.9848
  523MOL0     H72108   1.951  11.682   5.127  0.0645  1.3880 -1.4880
  523MOL0     H72109   2.205  11.685   5.237 -0.2434  0.9172  2.9271
  523MOL0     H72110   2.161  11.799   5.112  0.7198 -0.0043  0.6191
  523MOL0     H72111   2.111  11.956   5.304  1.8499  0.6067  0.9326
  523MOL0     H72112   2.165  11.833   5.416 -2.5963 -3.1631  0.1567
  523MOL0     H72113   2.406  11.846   5.299 -0.0829 -1.3546  0.6072
  523MOL0     H72114   2.325  11.955   5.180 -1.1075 -1.0149 -0.2733
  523MOL0     H72115   2.351  12.006   5.471 -1.3870  0.4660 -0.1577
  523MOL0     H72116   2.264  12.111   5.365 -0.7345 -0.1387 -1.0357
  523MOL0     H72117   2.568  12.024   5.331 -1.2036 -2.2768 -3.2997
  523MOL0     H72118   2.491  12.136   5.216  0.6332 -0.9917 -1.1323
  523MOL0     H72119   2.538  12.179   5.524 -0.7314 -0.8741  0.5577
  523MOL0     H72120   2.431  12.281   5.413 -1.3156 -1.7611 -4.0123
  523MOL0     H72121   2.644  12.342   5.295 -2.3351  0.8885  0.0857
  523MOL0     H72122   2.634  12.397   5.465 -1.2051 -0.5429 -0.4399
  523MOL0     H72123   2.836  12.373   5.595  0.1631  0.8139 -0.2747
  523MOL0     H72124   3.122  12.119   5.611  0.7475  1.0506  0.6817
  523MOL0     H72125   3.041  12.246   5.713  0.0159 -0.0221 -0.6388
  523MOL0     H72126   3.195  12.286   5.453  0.4482 -0.5499 -0.0760
  523MOL0     H72127   3.120  12.413   5.554 -3.9311 -1.4417  0.8673
  523MOL0     H72128   3.264  12.336   5.763  1.4116  3.6200 -0.7498
  523MOL0     H72129   3.319  12.212   5.657  0.0096  0.7016 -0.9369
  523MOL0     H72130   3.352  12.501   5.576  0.3037 -0.5938 -1.2946
  523MOL0     H72131   3.461  12.425   5.685 -0.5434  0.8474  0.1614
  523MOL0     H72132   3.623  12.263   5.714 -3.1283  1.2805 -0.2543
  523MOL0     H72133   3.870  11.998   5.727  0.5791  0.9323 -0.3543
  523MOL0     H72134   3.722  12.053   5.808  1.2862 -0.1958  1.2688
  523MOL0     H72135   3.855  12.166   5.770 -1.0025  1.3856  0.3384
  523MOL0     H72136   4.096  11.974   5.288  2.6748 -0.1191  2.3311
  523MOL0     H72137   4.304  11.844   5.291 -1.0167  1.6593 -0.4318
  523MOL0     H72138   4.451  11.491   5.448 -0.5889 -3.5410  3.0357
  523MOL0     H72139   4.281  11.497   5.485 -1.7561 -3.0856 -0.2814
  523MOL0     H72140   4.380  11.283   5.401  0.6195  0.8716  2.0623
  523MOL0     H72141   4.249  11.329   5.302 -0.7939  1.5350 -3.1279
  523MOL0     H72142   4.391  11.418   5.135  0.6059  0.9485  1.3164
  523MOL0     H72143   4.435  11.248   5.153  3.7321  2.4349 -3.9778
  523MOL0     H72144   4.611  11.360   5.335 -0.9783  2.8397  1.5606
  523MOL0     H72145   4.588  11.504   5.253 -4.1640 -0.5746  2.5311
  523MOL0     H72146   4.667  11.230   5.131  2.6925 -1.4657  3.6544
  523MOL0     H72147   4.666  11.383   5.046 -0.0446 -2.5029 -0.2283
  523MOL0     H72148   4.834  11.285   5.262 -0.8461 -2.5340 -0.3396
  523MOL0     H72149   4.856  11.450   5.198 -1.2178 -1.1419  3.2679
  523MOL0     H72150   4.900  11.336   4.960 -0.4135 -3.2607 -0.2477
  523MOL0     H72151   4.893  11.197   5.040 -0.1485 -0.6300  0.8759
  523MOL0     H72152   5.114  11.404   5.075  2.7329 -1.3212 -0.6171
  523MOL0     H72153   5.118  11.245   5.006  1.0934 -0.3467  0.7168
  523MOL0     H72154   4.091  11.479   5.330 -1.5289 -0.0276 -2.1535
  523MOL0     H72155   3.881  11.614   5.326 -0.8954  0.4951  0.1279
  523MOL0     H72156   3.692  12.056   5.265 -4.3615  3.7328 -1.6447
  523MOL0     H72157   3.516  12.224   5.299 -1.8927  1.8906  3.2112
  523MOL0     H72158   1.944  11.398   5.455 -0.3226  0.2177 -0.1425
  523MOL0     H72159   1.720  11.305   5.535 -3.6998 -0.2061 -0.8480
  523MOL0     H72160   1.279  11.470   5.635 -1.4788 -1.4370  2.3069
  523MOL0     H72161   1.058  11.465   5.717  0.0187  0.6533 -0.2709
  523MOL0     H72162   0.805  11.311   5.792  1.8177 -1.3478 -1.6087
  523MOL0     H72163   0.847  11.478   5.752  0.5531  0.4028 -0.5082
  523MOL0     H72164   0.651  11.502   5.613  2.1130  0.5595  0.5886
  523MOL0     H72165   0.626  11.481   5.795 -2.3909 -0.4104 -0.9971
  523MOL0     H72166   0.445  11.378   5.666  1.5844  1.2476 -2.4784
  523MOL0     H72167   0.561  11.290   5.569  0.7270  2.5423 -0.2821
  523MOL0     H72168   0.628  11.155   5.769  0.0857 -0.7130  2.3815
  523MOL0     H72169   0.459  11.146   5.713  1.2788 -0.0874 -1.4910
  523MOL0     H72170   0.424  11.227   6.118  0.2597 -0.8518  0.0863
  523MOL0     H72171   0.915  11.255   5.377 -0.6623  1.9239 -1.0828
  523MOL0     H72172   1.180  11.266   5.166 -2.4068 -1.5648 -1.3256
  523MOL0     H72173   1.232  11.138   5.277 -1.0768 -1.0604  1.2028
  523MOL0     H72174   1.056  11.160   5.226  0.6613 -3.7336  1.4996
  524MOL0     O72175   2.399   1.216   9.311  0.5209 -0.4427  0.8014
  524MOL0     C72176   2.437   1.318   9.368 -0.3376 -0.0282 -0.0162
  524MOL0     O72177   2.565   1.330   9.428 -0.2250  0.1191 -0.4526
  524MOL0     C72178   2.650   1.221   9.417 -0.3063  1.1227  0.3709
  524MOL0     C72179   2.700   1.177   9.294 -0.3869 -0.1786 -0.3995
  524MOL0     C72180   2.782   1.066   9.303 -0.2657 -0.5725  1.0150
  524MOL0     C72181   2.818   1.005   9.419 -0.5628  0.8245 -0.3573
  524MOL0     O72182   2.904   0.892   9.426 -0.1014 -0.3142 -0.1248
  524MOL0     C72183   2.990   0.860   9.538  0.2276 -0.2754  0.5446
  524MOL0     C72184   3.142   0.871   9.507 -0.7551 -0.2595 -0.7333
  524MOL0     C72185   3.179   0.987   9.407 -0.5402  0.0835 -0.9204
  524MOL0     C72186   3.174   1.128   9.478 -0.5138 -0.8259  1.0961
  524MOL0     C72187   3.232   1.237   9.400 -0.2893 -0.1707  0.2099
  524MOL0     C72188   3.256   1.357   9.482 -0.3347  0.3519 -0.5928
  524MOL0     C72189   3.357   1.356   9.606 -0.1717  0.5072  1.5888
  524MOL0     C72190   3.495   1.298   9.568  0.3019 -0.4368  0.2439
  524MOL0     N72191   3.519   1.155   9.580  0.2487  0.4137 -0.2475
  524MOL0     C72192   3.536   1.096   9.702 -0.0249 -0.4098  0.8796
  524MOL0     C72193   3.507   0.970   9.680  0.6429 -0.6260 -0.5234
  524MOL0     C72194   3.494   0.859   9.785 -0.7907  0.1851  0.1296
  524MOL0     C72195   3.623   0.771   9.779 -0.0745 -0.7052 -0.2000
  524MOL0     C72196   3.746   0.832   9.853 -0.1946  0.7640  0.5161
  524MOL0     C72197   3.728   0.818  10.006 -0.0220 -0.9157  0.6348
  524MOL0     O72198   3.770   0.691  10.058 -0.5742 -0.0112  0.7659
  524MOL0     C72199   3.904   0.658  10.072  0.0292  0.9469  1.1816
  524MOL0     C72200   3.929   0.522  10.107 -0.1293 -0.8621  0.1943
  524MOL0     C72201   4.063   0.475  10.114  0.4935 -0.2591  0.5787
  524MOL0     C72202   4.081   0.339  10.158 -0.1342  0.7411  0.3004
  524MOL0     C72203   4.168   0.560  10.066 -0.3082  0.2888  0.9416
  524MOL0     C72204   4.311   0.517  10.050  0.6179  1.0603 -0.1680
  524MOL0     O72205   4.398   0.619  10.063  0.5745  0.4071 -0.3061
  524MOL0     C72206   4.525   0.605  10.013  0.4570  0.0302  0.0330
  524MOL0     C72207   4.568   0.528   9.897  0.8373  0.3445  0.7932
  524MOL0     C72208   4.700   0.539   9.858 -0.0976  0.6512 -0.9689
  524MOL0     C72209   4.789   0.619   9.917  0.9578 -1.2614  1.1885
  524MOL0     O72210   4.916   0.623   9.854  0.2148  0.0464  0.4121
  524MOL0     C72211   5.027   0.683   9.913 -0.6702 -0.0261  0.6468
  524MOL0     C72212   5.144   0.691   9.812  0.8711 -0.0508  0.3581
  524MOL0     C72213   5.278   0.735   9.881  0.0871 -0.0005 -1.0084
  524MOL0     C72214   5.397   0.698   9.792 -0.0510  0.6472  0.4104
  524MOL0     C72215   5.530   0.765   9.846 -0.6093  0.1167  0.3918
  524MOL0     C72216   5.657   0.715   9.784  0.3001  0.4207 -0.5595
  524MOL0     C72217   5.660   0.773   9.640 -0.0825  0.9912  0.1049
  524MOL0     C72218   5.786   0.742   9.554  0.1129 -0.4581 -0.3348
  524MOL0    Cl72219   5.854   0.583   9.596 -0.3594 -0.0116 -0.1060
  524MOL0     C72220   4.751   0.686  10.030 -0.0279 -0.1931 -0.0618
  524MOL0     C72221   4.620   0.685  10.073  0.3987 -0.2422  0.7814
  524MOL0     O72222   4.343   0.404  10.029  1.0644 -0.2591 -0.5566
  524MOL0     C72223   4.141   0.691  10.048  0.2712  1.0394 -0.4188
  524MOL0     C72224   4.016   0.742  10.051  0.2303 -0.2125 -0.3197
  524MOL0     N72225   3.493   0.949   9.544  0.6194  0.2620  0.8793
  524MOL0     N72226   3.518   1.061   9.481 -0.0094  0.0417 -0.6624
  524MOL0     C72227   2.770   1.055   9.540  0.3524  0.2056  0.1431
  524MOL0     C72228   2.682   1.160   9.544  0.4058 -0.5469  0.5500
  524MOL0     C72229   2.331   1.417   9.406 -0.4364 -0.3731  0.3822
  524MOL0     C72230   2.195   1.379   9.394 -0.5020 -1.5794  1.7762
  524MOL0     C72231   2.086   1.465   9.440 -0.2879  0.0176 -0.4679
  524MOL0     C72232   2.124   1.590   9.478  0.1818 -0.6816  0.6765
  524MOL0     O72233   2.023   1.669   9.528 -0.6672  0.0970  0.6453
  524MOL0     C72234   2.030   1.819   9.511  0.1419  0.3150 -0.1315
  524MOL0     C72235   2.049   1.863   9.367  0.2426 -0.2136  0.7560
  524MOL0     C72236   2.044   2.015   9.365  0.2527 -0.3575  0.0102
  524MOL0     C72237   2.177   2.074   9.411  0.4089 -0.3620 -0.3084
  524MOL0     C72238   2.182   2.221   9.392 -1.1111  0.1482 -0.4809
  524MOL0     C72239   2.186   2.333   9.370  0.0463 -0.1996 -0.3464
  524MOL0     C72240   2.253   1.632   9.475  0.1199 -0.6375 -0.0583
  524MOL0     C72241   2.362   1.546   9.455  0.3200  0.0360 -1.2210
  524MOL0     C72242   2.502   1.599   9.470  0.7571  0.0816 -0.7578
  524MOL0     H72243   2.674   1.226   9.200 -1.3025  1.4795  0.6665
  524MOL0     H72244   2.817   1.020   9.211  0.2855  2.5068 -0.4693
  524MOL0     H72245   2.957   0.758   9.561 -3.0753 -0.3451 -3.3169
  524MOL0     H72246   2.976   0.925   9.625 -1.1135 -0.9114  0.8352
  524MOL0     H72247   3.186   0.900   9.603 -0.3186  2.5131 -1.6726
  524MOL0     H72248   3.184   0.780   9.463  2.7295  1.6417 -1.7137
  524MOL0     H72249   3.282   0.968   9.374 -0.3767 -1.2536  0.2796
  524MOL0     H72250   3.118   0.974   9.317 -1.0316  0.4892 -0.6516
  524MOL0     H72251   3.067   1.146   9.496 -0.5583 -0.6675  0.6733
  524MOL0     H72252   3.237   1.118   9.568  3.4691 -1.6397 -1.5421
  524MOL0     H72253   3.160   1.262   9.321 -1.1936 -1.5174  0.5814
  524MOL0     H72254   3.322   1.196   9.353 -0.0689 -0.6487  1.0473
  524MOL0     H72255   3.286   1.438   9.416  0.7508  0.8287  0.4484
  524MOL0     H72256   3.159   1.381   9.526 -0.8572 -1.5451 -0.6070
  524MOL0     H72257   3.312   1.296   9.686 -2.7175 -0.1830 -0.2569
  524MOL0     H72258   3.382   1.455   9.645  1.4386  0.5971  0.4365
  524MOL0     H72259   3.517   1.329   9.465  0.8446  1.7661  0.9707
  524MOL0     H72260   3.563   1.352   9.634 -2.8098  1.6935  1.9914
  524MOL0     H72261   3.542   1.143   9.800  1.9409  1.4674 -0.0707
  524MOL0     H72262   3.402   0.802   9.766 -1.5188  1.2655  0.3201
  524MOL0     H72263   3.480   0.908   9.882  1.1229 -1.5685  1.3900
  524MOL0     H72264   3.592   0.672   9.814  0.3066 -0.5757  0.5224
  524MOL0     H72265   3.656   0.750   9.677  0.8160  0.0268 -0.0762
  524MOL0     H72266   3.830   0.773   9.814 -1.8122 -0.7838 -0.8380
  524MOL0     H72267   3.753   0.935   9.817 -0.6336  0.7169  0.2821
  524MOL0     H72268   3.784   0.902  10.049 -0.3511 -0.3304 -0.0564
  524MOL0     H72269   3.625   0.832  10.040  0.3065  0.8794  0.9790
  524MOL0     H72270   3.837   0.467  10.121  0.7517 -2.6675 -0.7591
  524MOL0     H72271   3.988   0.302  10.204 -0.3565  2.0396  0.9499
  524MOL0     H72272   4.157   0.332  10.237 -0.9667 -0.0503  1.0609
  524MOL0     H72273   4.116   0.281  10.072  1.2070  1.8266  0.0863
  524MOL0     H72274   4.501   0.476   9.829 -0.0888  0.8198  1.3184
  524MOL0     H72275   4.728   0.475   9.775 -1.7232 -3.0540  1.1091
  524MOL0     H72276   4.985   0.782   9.931 -1.9429 -0.4889  0.3290
  524MOL0     H72277   5.056   0.634  10.007  0.7208 -0.2979  0.0980
  524MOL0     H72278   5.153   0.584   9.792  1.2703 -0.2069  1.3269
  524MOL0     H72279   5.106   0.756   9.733 -1.2137  0.0441  1.3767
  524MOL0     H72280   5.292   0.694   9.981 -0.9245 -1.8244 -1.5779
  524MOL0     H72281   5.279   0.843   9.899  2.7039 -0.0402 -0.5315
  524MOL0     H72282   5.384   0.718   9.685 -1.0306 -2.0935 -0.0622
  524MOL0     H72283   5.399   0.589   9.784 -3.7715  0.4021  1.1096
  524MOL0     H72284   5.530   0.874   9.832  0.4809  0.3463  1.9222
  524MOL0     H72285   5.536   0.734   9.950 -0.8326 -0.3024  0.2802
  524MOL0     H72286   5.662   0.607   9.802 -1.3793  0.0936 -1.7752
  524MOL0     H72287   5.743   0.765   9.829  1.3384 -1.2796 -0.5491
  524MOL0     H72288   5.642   0.880   9.627 -1.8497  0.7457  0.3499
  524MOL0     H72289   5.579   0.720   9.590  0.8281 -0.0409 -0.3072
  524MOL0     H72290   5.859   0.820   9.573  0.9263 -1.4462  0.7433
  524MOL0     H72291   5.750   0.748   9.451  0.8538 -1.4189 -0.6579
  524MOL0     H72292   4.829   0.744  10.080  0.1054  0.6127 -1.1774
  524MOL0     H72293   4.596   0.746  10.159  1.5431 -1.0893  1.7416
  524MOL0     H72294   4.219   0.753  10.005  0.1969  0.4757 -1.3888
  524MOL0     H72295   4.004   0.845  10.020 -2.3492  0.6899  3.0900
  524MOL0     H72296   2.774   1.014   9.640 -2.2717  1.2181  0.7510
  524MOL0     H72297   2.637   1.201   9.634  1.3376  3.6015 -0.6482
  524MOL0     H72298   2.165   1.278   9.368 -1.2191 -1.3968  1.8790
  524MOL0     H72299   1.986   1.422   9.431  1.1587 -3.2058 -3.8948
  524MOL0     H72300   1.935   1.848   9.556 -0.8802 -0.5870 -1.6011
  524MOL0     H72301   2.118   1.848   9.569  1.1534 -1.9069 -0.4380
  524MOL0     H72302   1.968   1.822   9.305  1.1929 -0.9952  0.0101
  524MOL0     H72303   2.138   1.822   9.320  0.5818 -1.6870  2.5704
  524MOL0     H72304   2.041   2.043   9.260  0.7487 -0.4993 -0.0438
  524MOL0     H72305   1.958   2.048   9.424 -0.1422 -3.7897  1.6696
  524MOL0     H72306   2.263   2.033   9.357 -0.9596 -0.0705 -2.8584
  524MOL0     H72307   2.188   2.048   9.517 -0.2915 -1.0220 -0.3902
  524MOL0     H72308   2.202   2.439   9.365 -1.4523  0.1112  0.5693
  524MOL0     H72309   2.271   1.732   9.513  0.9931 -0.9525  0.3972
  524MOL0     H72310   2.545   1.592   9.370 -0.1241  1.7786 -1.3100
  524MOL0     H72311   2.513   1.705   9.496 -1.2452  0.2325 -0.3425
  524MOL0     H72312   2.555   1.545   9.548 -0.9100  2.1012  1.9587
  525MOL0     O72313   7.768  10.744   3.542 -0.2343 -0.3362 -0.4644
  525MOL0     C72314   7.778  10.634   3.596  0.3260 -1.0548 -0.7208
  525MOL0     O72315   7.898  10.570   3.644  0.2994  0.3082  1.1952
  525MOL0     C72316   8.011  10.640   3.613 -0.2266 -0.5593  0.2406
  525MOL0     C72317   8.078  10.643   3.487  0.3266 -0.7236 -0.5661
  525MOL0     C72318   8.197  10.720   3.461  0.1715 -0.6811 -0.4192
  525MOL0     C72319   8.251  10.802   3.564  0.0473  0.5507 -0.2502
  525MOL0     O72320   8.358  10.893   3.552 -0.7255  0.3362  0.6092
  525MOL0     C72321   8.414  10.921   3.427 -0.0239  0.0256 -0.6004
  525MOL0     C72322   8.507  11.044   3.439  0.2067  0.0345 -0.4382
  525MOL0     C72323   8.449  11.161   3.520 -0.5323 -0.3146  0.1038
  525MOL0     C72324   8.317  11.205   3.466  0.0506  0.1849  0.2145
  525MOL0     C72325   8.271  11.343   3.514 -0.8200  0.2637 -0.4478
  525MOL0     C72326   8.140  11.399   3.453 -0.1962  0.1859 -0.5781
  525MOL0     C72327   8.123  11.542   3.477  0.2506 -1.4329  0.1035
  525MOL0     C72328   7.979  11.581   3.439  0.3047 -0.6016 -0.4617
  525MOL0     N72329   7.953  11.722   3.460 -0.4527 -0.0735  0.0691
  525MOL0     C72330   8.028  11.831   3.408 -0.2885  0.5425  0.1765
  525MOL0     C72331   7.986  11.938   3.464  0.0987  0.9142 -0.5382
  525MOL0     C72332   8.034  12.071   3.427  0.3606 -0.0356  0.0680
  525MOL0     C72333   8.182  12.094   3.462 -0.1801  0.0210 -0.1358
  525MOL0     C72334   8.252  12.195   3.363 -0.7650 -0.0123  0.1200
  525MOL0     C72335   8.401  12.212   3.384  0.6048  0.1535  0.0466
  525MOL0     O72336   8.422  12.239   3.518 -0.0848  0.2211  0.6499
  525MOL0     C72337   8.548  12.261   3.568 -0.0035 -0.0230 -0.9465
  525MOL0     C72338   8.558  12.343   3.687 -0.3166  0.4528  0.1365
  525MOL0     C72339   8.676  12.362   3.758  0.4126 -0.5578  0.6886
  525MOL0     C72340   8.664  12.442   3.890  0.0702 -0.2359 -0.1225
  525MOL0     C72341   8.795  12.309   3.709 -0.3138 -0.7062 -0.2274
  525MOL0     C72342   8.933  12.316   3.769 -0.2821  0.7403  0.7666
  525MOL0     O72343   9.032  12.248   3.692 -0.0898 -0.5440  0.1527
  525MOL0     C72344   9.162  12.243   3.747 -0.0969  0.5640 -0.4347
  525MOL0     C72345   9.261  12.317   3.675  0.5256 -0.2193  0.6455
  525MOL0     C72346   9.396  12.317   3.714 -0.0548  0.5414 -0.1435
  525MOL0     C72347   9.428  12.256   3.836  0.0038  0.4386 -0.6732
  525MOL0     O72348   9.557  12.251   3.872 -0.2237  0.6688 -0.7136
  525MOL0     C72349   9.615  12.127   3.891  0.0478 -0.0513  0.4569
  525MOL0     C72350   9.750  12.145   3.948  0.4361 -0.5276 -0.0984
  525MOL0     C72351   9.779  12.019   4.027  0.3905 -0.3903 -0.0319
  525MOL0     C72352   9.921  12.015   4.085 -0.0317 -0.3275 -0.3029
  525MOL0     C72353  10.030  12.018   3.980  0.5277 -0.3925  1.0393
  525MOL0     C72354  10.163  11.993   4.043  0.1732  0.0960 -0.6213
  525MOL0     C72355  10.267  11.976   3.934 -0.1329 -0.0942 -0.4676
  525MOL0     C72356  10.414  12.009   3.973  0.4151 -0.4469  1.0222
  525MOL0    Cl72357  10.524  11.976   3.826 -0.4821  0.1618 -0.5219
  525MOL0     C72358   9.328  12.211   3.922 -0.1594 -0.0022  0.3545
  525MOL0     C72359   9.200  12.202   3.878 -0.8341  0.6763 -0.5473
  525MOL0     O72360   8.942  12.388   3.862 -0.3448  0.4740 -0.1088
  525MOL0     C72361   8.788  12.227   3.595 -0.8664 -0.8331 -0.3754
  525MOL0     C72362   8.669  12.206   3.523  0.4460 -0.0846  0.3670
  525MOL0     N72363   7.899  11.906   3.562  0.8819 -0.1486  0.1445
  525MOL0     N72364   7.889  11.782   3.562  0.2821 -0.1460 -0.1281
  525MOL0     C72365   8.177  10.808   3.687 -0.4526 -0.2856  0.0271
  525MOL0     C72366   8.058  10.731   3.711  0.8149  0.1783  0.3934
  525MOL0     C72367   7.656  10.546   3.609 -0.5927 -0.8301  0.0510
  525MOL0     C72368   7.536  10.614   3.642  0.1203  0.3844  0.7310
  525MOL0     C72369   7.418  10.542   3.667  1.1729 -0.3934 -0.1092
  525MOL0     C72370   7.405  10.410   3.633 -0.1414  0.1695 -0.8706
  525MOL0     O72371   7.305  10.319   3.645  0.7131  0.0899  0.1112
  525MOL0     C72372   7.178  10.369   3.710 -0.3406 -0.1242 -0.6515
  525MOL0     C72373   7.078  10.452   3.626 -0.0102  0.5602 -0.2784
  525MOL0     C72374   6.981  10.359   3.552  0.1750  0.7045 -0.3085
  525MOL0     C72375   7.033  10.295   3.420 -0.6971  0.2219 -0.5737
  525MOL0     C72376   6.988  10.153   3.412  1.1773  0.6669  0.1056
  525MOL0     C72377   6.942  10.039   3.417 -0.1559 -0.0865 -0.0765
  525MOL0     C72378   7.518  10.353   3.581  0.3869 -0.4400 -0.3693
  525MOL0     C72379   7.643  10.415   3.577 -0.2757 -0.6042 -0.7038
  525MOL0     C72380   7.751  10.332   3.512  0.3271 -0.0049  0.0250
  525MOL0     H72381   8.029  10.597   3.402 -2.8844  1.6532 -0.1702
  525MOL0     H72382   8.244  10.728   3.364  1.3207 -2.0721 -0.0258
  525MOL0     H72383   8.337  10.942   3.352 -0.9376  1.1795  0.6084
  525MOL0     H72384   8.478  10.838   3.395 -2.1376 -1.5658 -0.8663
  525MOL0     H72385   8.590  11.014   3.503 -0.9253 -0.9990  0.5927
  525MOL0     H72386   8.554  11.070   3.343  3.2052  1.8612  1.3920
  525MOL0     H72387   8.439  11.128   3.624 -1.1486  0.4798  0.3024
  525MOL0     H72388   8.524  11.241   3.519 -0.7359 -0.1279 -0.1779
  525MOL0     H72389   8.317  11.203   3.356 -3.0326 -0.9658  0.1314
  525MOL0     H72390   8.238  11.134   3.490 -0.4743 -0.0788 -2.0576
  525MOL0     H72391   8.341  11.421   3.480  0.8039 -1.6203 -1.6259
  525MOL0     H72392   8.271  11.342   3.623 -0.2554 -1.4424 -0.4415
  525MOL0     H72393   8.133  11.385   3.345  0.6526 -1.4805 -0.4492
  525MOL0     H72394   8.052  11.350   3.498  0.3455 -1.3070 -1.0796
  525MOL0     H72395   8.200  11.601   3.427 -0.3242  0.2351  1.1287
  525MOL0     H72396   8.143  11.554   3.584 -2.9769 -1.4948  0.7958
  525MOL0     H72397   7.970  11.566   3.331  2.9126  0.9384 -0.9728
  525MOL0     H72398   7.914  11.512   3.495 -2.7792  1.3583 -1.3754
  525MOL0     H72399   8.106  11.826   3.333  0.8952  2.0745  1.2513
  525MOL0     H72400   7.957  12.132   3.474  0.5700 -0.3932  0.8880
  525MOL0     H72401   8.013  12.082   3.320 -1.7287 -4.2514 -0.1539
  525MOL0     H72402   8.187  12.142   3.560 -1.3534 -0.2717  0.0795
  525MOL0     H72403   8.230  11.997   3.460 -2.2540 -1.1130 -3.0637
  525MOL0     H72404   8.250  12.163   3.258  1.3788 -2.1168  0.6289
  525MOL0     H72405   8.191  12.285   3.378  1.0390  1.6884 -2.0817
  525MOL0     H72406   8.450  12.119   3.352 -1.6430 -0.4189 -2.0295
  525MOL0     H72407   8.434  12.298   3.325 -0.5351 -0.6491 -1.8572
  525MOL0     H72408   8.470  12.396   3.721 -0.3640  0.8245 -0.5406
  525MOL0     H72409   8.705  12.544   3.885  2.2392 -1.1163 -2.4028
  525MOL0     H72410   8.712  12.385   3.970 -2.3430 -4.7512 -1.5891
  525MOL0     H72411   8.563  12.455   3.931  0.8204 -0.9354  2.0660
  525MOL0     H72412   9.226  12.358   3.580  2.6844  0.5179  0.0993
  525MOL0     H72413   9.474  12.363   3.655  0.2021  2.1117  1.3561
  525MOL0     H72414   9.557  12.058   3.954  1.9458 -1.7844  0.4080
  525MOL0     H72415   9.618  12.072   3.797  2.6440 -2.6185  1.8793
  525MOL0     H72416   9.822  12.162   3.867 -0.3344  0.3816 -0.6079
  525MOL0     H72417   9.761  12.232   4.013  2.4203 -0.8250  0.0245
  525MOL0     H72418   9.757  11.937   3.958 -1.7756  0.9145 -1.0071
  525MOL0     H72419   9.715  12.019   4.116 -2.7879 -0.9685 -2.1810
  525MOL0     H72420   9.933  11.922   4.142  1.3672  0.2160  0.3278
  525MOL0     H72421   9.937  12.101   4.150 -2.4073 -0.8908  1.1637
  525MOL0     H72422  10.001  11.941   3.908 -2.6185  2.0431 -0.5724
  525MOL0     H72423  10.034  12.115   3.930  1.5183 -2.8190 -4.2929
  525MOL0     H72424  10.150  11.907   4.109  1.5670  0.8256  0.6833
  525MOL0     H72425  10.180  12.078   4.111  1.6262 -2.2434  2.1658
  525MOL0     H72426  10.239  12.042   3.851 -0.9724  1.5792  1.0678
  525MOL0     H72427  10.270  11.875   3.894  0.6297  0.1195 -0.9595
  525MOL0     H72428  10.451  11.937   4.047 -0.1081 -0.9357  0.8199
  525MOL0     H72429  10.419  12.112   4.010 -0.3271  0.1555 -0.4580
  525MOL0     H72430   9.358  12.191   4.025  1.1046  0.7057  0.1443
  525MOL0     H72431   9.119  12.168   3.942 -0.2941  3.0259  1.5631
  525MOL0     H72432   8.873  12.174   3.552 -0.1954 -2.9636  3.1897
  525MOL0     H72433   8.670  12.142   3.435  0.1422 -0.5190  0.6712
  525MOL0     H72434   8.216  10.874   3.764 -0.2485  0.3641 -0.6238
  525MOL0     H72435   8.007  10.736   3.806  1.0314  2.3403  0.4368
  525MOL0     H72436   7.532  10.721   3.657  0.1973  0.8961 -2.3360
  525MOL0     H72437   7.335  10.593   3.714 -0.4610 -1.3436 -1.7976
  525MOL0     H72438   7.122  10.287   3.756  1.4209 -1.5619 -0.9666
  525MOL0     H72439   7.210  10.430   3.796  1.3721  0.0553 -1.3757
  525MOL0     H72440   7.127  10.523   3.558  0.1071  0.5153 -0.2395
  525MOL0     H72441   7.015  10.508   3.696  0.0325 -1.6722  1.6591
  525MOL0     H72442   6.962  10.271   3.615 -1.8276  2.4646  1.7271
  525MOL0     H72443   6.888  10.415   3.540 -0.6357 -0.4170  0.4934
  525MOL0     H72444   7.143  10.293   3.417 -0.5334 -0.6859  2.6610
  525MOL0     H72445   7.003  10.350   3.330  2.1984 -0.9628 -2.4162
  525MOL0     H72446   6.906   9.938   3.410 -0.4948  0.0196  0.1473
  525MOL0     H72447   7.502  10.253   3.543 -0.0973 -0.7322  0.5723
  525MOL0     H72448   7.711  10.250   3.452  1.5917  0.2499 -1.2193
  525MOL0     H72449   7.829  10.385   3.456  1.1961 -1.5501 -0.2883
  525MOL0     H72450   7.808  10.283   3.592 -1.0313  1.2318  1.8445
  526MOL0     O72451   2.308   2.635  11.449 -0.2325 -1.0414  0.3407
  526MOL0     C72452   2.295   2.726  11.538  0.8435  0.1452 -0.3473
  526MOL0     O72453   2.332   2.853  11.533 -0.5197  0.1541  0.1041
  526MOL0     C72454   2.404   2.895  11.424  0.2898  0.1404  1.0491
  526MOL0     C72455   2.540   2.918  11.434  0.2285  0.1224  0.2899
  526MOL0     C72456   2.616   2.994  11.349 -0.0235 -0.7245  0.4882
  526MOL0     C72457   2.552   3.035  11.232 -0.1877  0.9781 -0.3684
  526MOL0     O72458   2.635   3.103  11.139 -0.4992 -0.5554 -0.4774
  526MOL0     C72459   2.579   3.150  11.016  0.3329  0.5235 -0.2430
  526MOL0     C72460   2.663   3.262  10.968  0.0080  0.0633  0.0858
  526MOL0     C72461   2.671   3.384  11.055  0.1686 -0.8510 -0.2396
  526MOL0     C72462   2.528   3.448  11.049 -0.7634 -0.0881  0.6466
  526MOL0     C72463   2.546   3.592  11.101  0.3260 -0.9123 -0.7327
  526MOL0     C72464   2.416   3.668  11.090  0.4181  0.3977 -0.2529
  526MOL0     C72465   2.430   3.818  11.115  0.6342  0.1320  0.5420
  526MOL0     C72466   2.299   3.896  11.097  0.3007 -0.0363  0.3756
  526MOL0     N72467   2.305   4.044  11.140  0.2979  0.1458  0.0813
  526MOL0     C72468   2.315   4.097  11.270 -0.8710 -0.5457  0.4244
  526MOL0     C72469   2.271   4.223  11.259  0.1068  0.4761 -0.0777
  526MOL0     C72470   2.275   4.324  11.372 -0.4926  0.3463 -0.1881
  526MOL0     C72471   2.372   4.440  11.345 -0.8220 -0.1844  0.0962
  526MOL0     C72472   2.518   4.381  11.357  0.0648  0.3925  0.2864
  526MOL0     C72473   2.614   4.492  11.329 -0.5338 -0.2999  0.0704
  526MOL0     O72474   2.736   4.435  11.360 -0.5506 -0.1573 -0.0562
  526MOL0     C72475   2.844   4.498  11.301  0.1496  0.1011  0.6619
  526MOL0     C72476   2.928   4.580  11.379  1.0388  1.0484 -0.2448
  526MOL0     C72477   3.043   4.641  11.325  0.7531 -0.5887 -0.5794
  526MOL0     C72478   3.113   4.746  11.418 -0.0828  0.2898  0.1089
  526MOL0     C72479   3.085   4.611  11.194  0.2297 -0.8299 -0.5017
  526MOL0     C72480   3.194   4.669  11.128 -0.2277  0.2489  0.0142
  526MOL0     O72481   3.198   4.638  10.989  0.3906 -0.2608 -0.7381
  526MOL0     C72482   3.303   4.681  10.921  0.9294  0.0786  0.1734
  526MOL0     C72483   3.377   4.590  10.850  0.4962 -0.2803  0.3106
  526MOL0     C72484   3.498   4.616  10.793  1.2059 -0.7946  1.1827
  526MOL0     C72485   3.533   4.753  10.777 -0.1582  1.0758  0.3200
  526MOL0     O72486   3.646   4.806  10.717  0.5453  0.0827  1.0402
  526MOL0     C72487   3.744   4.714  10.660 -0.5799 -0.6408  0.5346
  526MOL0     C72488   3.842   4.653  10.773  0.3982  0.1186  0.3766
  526MOL0     C72489   3.987   4.623  10.730 -0.2946  0.7452 -0.0754
  526MOL0     C72490   3.976   4.514  10.623  0.5801 -0.5906 -0.5133
  526MOL0     C72491   4.117   4.468  10.590 -0.7115 -0.0462  1.0875
  526MOL0     C72492   4.122   4.378  10.462 -0.7021 -0.4535 -0.1439
  526MOL0     C72493   4.270   4.375  10.412 -0.4121 -0.1058 -1.3025
  526MOL0     C72494   4.275   4.302  10.276 -0.1687 -0.4726  0.0526
  526MOL0    Cl72495   4.448   4.329  10.205  0.3484 -0.1087 -0.2393
  526MOL0     C72496   3.452   4.850  10.827 -0.0800 -0.4114 -0.4544
  526MOL0     C72497   3.331   4.820  10.903  0.4710  0.2934  0.2120
  526MOL0     O72498   3.286   4.722  11.185 -0.3694 -0.1784 -0.5403
  526MOL0     C72499   2.998   4.533  11.116  0.0512 -0.6066 -0.4025
  526MOL0     C72500   2.883   4.478  11.166  0.2718 -0.0083 -0.5505
  526MOL0     N72501   2.238   4.255  11.130 -0.0862  0.2788  0.7928
  526MOL0     N72502   2.262   4.147  11.060  0.2152 -0.7784 -0.1225
  526MOL0     C72503   2.410   3.024  11.222  0.6085 -1.0223 -0.4152
  526MOL0     C72504   2.342   2.950  11.310 -0.2097  0.1361 -0.1129
  526MOL0     C72505   2.222   2.696  11.661 -0.2584  0.0055  0.7239
  526MOL0     C72506   2.295   2.724  11.773 -0.6298  0.0490  0.5956
  526MOL0     C72507   2.236   2.709  11.901  0.6068  0.3953  0.4649
  526MOL0     C72508   2.105   2.659  11.915 -0.0389 -0.9996 -0.3269
  526MOL0     O72509   2.062   2.640  12.046 -0.5775  0.2200 -0.0916
  526MOL0     C72510   1.921   2.617  12.073  0.3637 -0.5683  0.2025
  526MOL0     C72511   1.821   2.740  12.057 -0.1356 -0.0480 -1.3921
  526MOL0     C72512   1.842   2.839  12.174 -0.0358 -0.4650 -0.4048
  526MOL0     C72513   1.740   2.950  12.185  0.4859 -0.6888 -0.1408
  526MOL0     C72514   1.764   3.027  12.309  1.2552  0.1643 -1.2509
  526MOL0     C72515   1.762   3.114  12.396 -0.2701 -0.5248 -0.1181
  526MOL0     C72516   2.036   2.620  11.800 -0.2902  0.9262 -0.2442
  526MOL0     C72517   2.086   2.646  11.677 -0.5258  1.1554 -0.1023
  526MOL0     C72518   2.006   2.598  11.562 -0.5247  0.4495  0.4940
  526MOL0     H72519   2.595   2.894  11.525  0.0492  0.6493  0.5409
  526MOL0     H72520   2.723   3.003  11.360  0.3363 -2.2433 -1.3638
  526MOL0     H72521   2.471   3.171  11.014  0.3185  0.4528 -0.2246
  526MOL0     H72522   2.587   3.061  10.953 -1.1542 -1.7685  2.5607
  526MOL0     H72523   2.766   3.223  10.963 -0.8261 -2.0835 -1.6984
  526MOL0     H72524   2.634   3.290  10.867  0.4857 -3.7163 -1.2446
  526MOL0     H72525   2.700   3.362  11.159 -3.7122  1.1964  1.4708
  526MOL0     H72526   2.736   3.461  11.013 -2.4802  0.6402 -1.8372
  526MOL0     H72527   2.502   3.456  10.943 -0.0118 -0.2385  0.4453
  526MOL0     H72528   2.460   3.389  11.110  1.2116 -2.1293  0.9931
  526MOL0     H72529   2.625   3.643  11.044 -1.0930 -1.1020 -2.9997
  526MOL0     H72530   2.580   3.598  11.205  2.0266 -0.4634 -1.2818
  526MOL0     H72531   2.379   3.648  10.990  0.8731  0.1110 -0.3646
  526MOL0     H72532   2.340   3.622  11.153 -1.4829  1.8915 -1.3319
  526MOL0     H72533   2.497   3.854  11.037  1.2295 -1.8085  0.1132
  526MOL0     H72534   2.468   3.833  11.217  0.2397  1.3049  0.5379
  526MOL0     H72535   2.257   3.893  10.996  0.2384  1.8355  0.3059
  526MOL0     H72536   2.232   3.845  11.166  1.0382  0.7666  1.7241
  526MOL0     H72537   2.335   4.051  11.367 -1.9594  2.3426  2.1313
  526MOL0     H72538   2.287   4.265  11.464 -1.2579  0.3993 -0.0438
  526MOL0     H72539   2.171   4.356  11.383 -1.9225 -2.8978 -2.6424
  526MOL0     H72540   2.364   4.491  11.248  0.2416  2.9716  1.5145
  526MOL0     H72541   2.364   4.515  11.424  3.6997  2.2463 -1.3648
  526MOL0     H72542   2.528   4.336  11.456  2.4433  0.8751  0.3211
  526MOL0     H72543   2.533   4.297  11.288 -0.3162  0.6555 -0.1272
  526MOL0     H72544   2.600   4.519  11.224 -2.1298  0.3162  0.4186
  526MOL0     H72545   2.596   4.583  11.387 -1.9464 -0.9345  0.6856
  526MOL0     H72546   2.907   4.585  11.485 -1.3270 -0.6982 -0.5649
  526MOL0     H72547   3.213   4.712  11.447  0.1228  0.5832 -0.2388
  526MOL0     H72548   3.065   4.769  11.513 -0.0082  2.6611 -0.3681
  526MOL0     H72549   3.109   4.841  11.364 -1.8080 -0.4735 -1.2221
  526MOL0     H72550   3.346   4.487  10.832 -1.2519  0.4530 -1.0599
  526MOL0     H72551   3.566   4.543  10.749  1.4579  0.8118 -1.3322
  526MOL0     H72552   3.701   4.637  10.595 -2.0703  0.6701 -0.0927
  526MOL0     H72553   3.818   4.761  10.595  0.7294 -2.8007  0.3369
  526MOL0     H72554   3.860   4.731  10.848 -0.3827  2.5744 -1.8274
  526MOL0     H72555   3.796   4.564  10.816 -0.9707  0.9224  0.6302
  526MOL0     H72556   4.051   4.585  10.810 -0.8073  2.1399  1.0507
  526MOL0     H72557   4.033   4.710  10.683  1.6693  0.0006  0.3946
  526MOL0     H72558   3.933   4.557  10.533 -0.6428 -2.9677 -1.1531
  526MOL0     H72559   3.909   4.434  10.654  1.5679 -2.4281 -2.8563
  526MOL0     H72560   4.181   4.553  10.567 -0.0661 -0.9135 -0.4744
  526MOL0     H72561   4.166   4.430  10.680 -0.3124  0.7354  1.2056
  526MOL0     H72562   4.053   4.412  10.384 -0.9126 -0.2989  0.1060
  526MOL0     H72563   4.088   4.280  10.498  0.3658 -2.7751 -4.6869
  526MOL0     H72564   4.326   4.311  10.481 -0.1200 -0.1471 -1.5779
  526MOL0     H72565   4.317   4.474  10.420  2.8087 -1.5771 -0.2051
  526MOL0     H72566   4.203   4.354  10.213  1.5517  4.3312  1.5677
  526MOL0     H72567   4.254   4.195  10.283  0.1317 -0.5399 -0.0646
  526MOL0     H72568   3.475   4.954  10.805 -0.7568 -0.5114 -1.7618
  526MOL0     H72569   3.263   4.898  10.937 -1.5812 -1.4166  0.2643
  526MOL0     H72570   3.032   4.505  11.017  2.0257 -0.0103  0.0648
  526MOL0     H72571   2.820   4.418  11.101 -0.8710 -0.1139  0.6112
  526MOL0     H72572   2.362   3.064  11.134  0.7782  2.8636  1.0649
  526MOL0     H72573   2.241   2.913  11.293  0.2191 -1.0676 -0.1372
  526MOL0     H72574   2.400   2.751  11.773 -0.2189 -1.4015 -1.0246
  526MOL0     H72575   2.279   2.745  11.993 -1.4365  0.4823  1.4303
  526MOL0     H72576   1.876   2.546  12.003  0.3602 -2.5384  2.0885
  526MOL0     H72577   1.913   2.563  12.168 -2.0928 -3.8969 -1.6780
  526MOL0     H72578   1.724   2.691  12.060  1.6239 -3.9713  2.9316
  526MOL0     H72579   1.832   2.790  11.960  0.2879  1.1447 -0.7410
  526MOL0     H72580   1.854   2.777  12.263  1.0747  1.5911  0.9611
  526MOL0     H72581   1.939   2.889  12.163 -1.3495  1.7667 -3.0036
  526MOL0     H72582   1.638   2.912  12.185 -0.6182  2.0691 -0.7941
  526MOL0     H72583   1.747   3.031  12.112  4.8583 -0.0103  0.7408
  526MOL0     H72584   1.748   3.186  12.474 -0.0444 -0.3163 -0.2695
  526MOL0     H72585   1.942   2.567  11.795  0.9008 -1.4019  0.7509
  526MOL0     H72586   2.035   2.665  11.480  0.0009  0.3202  0.5661
  526MOL0     H72587   2.016   2.492  11.538  0.6155  0.6717 -0.0822
  526MOL0     H72588   1.900   2.620  11.576 -0.4281  1.1934  0.0969
  527MOL0     O72589   8.740   2.188  11.402 -0.8942  0.4548 -0.2439
  527MOL0     C72590   8.676   2.236  11.489  0.4407 -0.4021  0.2408
  527MOL0     O72591   8.718   2.345  11.567  0.4463 -0.0199  1.0297
  527MOL0     C72592   8.852   2.377  11.564  0.9098 -0.5977 -0.5788
  527MOL0     C72593   8.941   2.313  11.651  0.7875 -1.0065 -0.3035
  527MOL0     C72594   9.076   2.361  11.653 -0.9458  0.5341 -0.8325
  527MOL0     C72595   9.125   2.448  11.556 -0.2462  0.6164  0.4254
  527MOL0     O72596   9.256   2.486  11.573 -0.2852 -0.1169  0.7948
  527MOL0     C72597   9.305   2.602  11.490  0.3679  0.7675 -0.7775
  527MOL0     C72598   9.406   2.543  11.390  0.1200  0.8584  0.1799
  527MOL0     C72599   9.550   2.523  11.447 -0.6105 -0.4613  0.1606
  527MOL0     C72600   9.643   2.434  11.355  0.0006 -0.0841 -0.3816
  527MOL0     C72601   9.780   2.436  11.413 -0.5100  0.1783  0.2760
  527MOL0     C72602   9.881   2.356  11.338  0.2302 -0.4304  0.1315
  527MOL0     C72603  10.020   2.345  11.397  0.3547  0.0867 -0.0086
  527MOL0     C72604  10.118   2.281  11.295 -1.0026 -0.1721 -0.2591
  527MOL0     N72605  10.251   2.262  11.351  0.0574 -0.2624  0.5893
  527MOL0     C72606  10.342   2.368  11.354  0.1151 -0.6340 -0.0548
  527MOL0     C72607  10.456   2.310  11.395  0.1128  0.4573  0.2042
  527MOL0     C72608  10.584   2.373  11.433 -0.0496 -0.6969  0.0542
  527MOL0     C72609  10.699   2.302  11.387  0.7429  0.1259  0.0015
  527MOL0     C72610  10.759   2.190  11.483 -0.1611 -0.5589 -0.7245
  527MOL0     C72611  10.878   2.113  11.423 -0.0922  0.5476 -0.6952
  527MOL0     O72612  10.996   2.188  11.393 -0.1358  0.1428 -0.3092
  527MOL0     C72613  11.116   2.118  11.370 -0.1962  1.1269 -0.5706
  527MOL0     C72614  11.129   1.980  11.342  0.8108  0.6119 -0.1358
  527MOL0     C72615  11.248   1.923  11.292 -0.0575 -0.5922 -0.5969
  527MOL0     C72616  11.244   1.790  11.233  1.4327  0.7473 -0.4747
  527MOL0     C72617  11.364   2.003  11.313  0.3498 -0.0541  0.1257
  527MOL0     C72618  11.508   1.962  11.270  0.1514  0.1766  0.5221
  527MOL0     O72619  11.619   2.043  11.297 -0.0846  0.0814  0.9153
  527MOL0     C72620  11.745   1.996  11.273  0.0350  0.1543  0.6753
  527MOL0     C72621  11.789   1.911  11.164  0.9487 -0.3046 -0.1596
  527MOL0     C72622  11.927   1.880  11.159 -0.7416  0.5421 -0.1736
  527MOL0     C72623  12.021   1.932  11.253 -0.5024 -0.5336  1.1676
  527MOL0     O72624  12.148   1.887  11.234 -0.0466  0.5304 -0.3790
  527MOL0     C72625  12.230   1.880  11.353  0.3315 -1.0591 -0.5424
  527MOL0     C72626  12.362   1.815  11.311  0.8193 -0.4397 -0.8605
  527MOL0     C72627  12.434   1.888  11.205  0.4414 -0.1505 -0.3140
  527MOL0     C72628  12.450   2.051  11.231 -1.5600 -0.0356 -0.1401
  527MOL0     C72629  12.535   2.090  11.358  0.1829  0.1094  0.5778
  527MOL0     C72630  12.674   2.038  11.352  0.0561 -0.3293 -1.2305
  527MOL0     C72631  12.755   2.045  11.492  0.3499  0.5478 -0.2103
  527MOL0     C72632  12.804   2.191  11.518 -0.1775 -0.2594 -0.1220
  527MOL0    Cl72633  12.933   2.219  11.403  0.0264  0.0694 -0.1833
  527MOL0     C72634  11.976   2.015  11.361  0.1294  0.3368  0.0304
  527MOL0     C72635  11.841   2.042  11.364 -0.0070 -0.6439  0.6695
  527MOL0     O72636  11.514   1.852  11.220 -0.0808 -0.5949 -0.2089
  527MOL0     C72637  11.352   2.136  11.364 -0.4053  0.8580  1.2281
  527MOL0     C72638  11.227   2.192  11.385  1.0094  0.0751 -0.5254
  527MOL0     N72639  10.441   2.169  11.394 -0.5116 -0.5132  0.4698
  527MOL0     N72640  10.314   2.144  11.374  0.3824  0.5556 -0.3285
  527MOL0     C72641   9.031   2.519  11.477  0.2212 -0.5254  0.6604
  527MOL0     C72642   8.896   2.484  11.492  0.1977 -0.4961 -0.1545
  527MOL0     C72643   8.543   2.177  11.514 -0.2330  0.5457  0.0271
  527MOL0     C72644   8.448   2.270  11.554 -0.5880 -0.1028  1.1043
  527MOL0     C72645   8.314   2.226  11.566  0.1484  0.0508 -1.1625
  527MOL0     C72646   8.282   2.089  11.536  0.0263 -0.6219 -0.2392
  527MOL0     O72647   8.149   2.073  11.563  0.3545  0.1754 -0.2697
  527MOL0     C72648   8.107   1.937  11.557  0.0040  0.1806  0.3662
  527MOL0     C72649   7.965   1.920  11.600  0.0416  0.6584 -0.0043
  527MOL0     C72650   7.952   1.934  11.750  0.1370  0.4104  0.0780
  527MOL0     C72651   7.799   1.940  11.791 -0.3034  0.5677 -0.3231
  527MOL0     C72652   7.788   1.916  11.936  0.5238 -0.0415  0.1979
  527MOL0     C72653   7.775   1.890  12.050 -0.3543  0.0626 -0.6136
  527MOL0     C72654   8.384   1.999  11.490 -0.4292  0.0251 -0.1431
  527MOL0     C72655   8.516   2.034  11.490 -1.1170 -0.4432 -0.2009
  527MOL0     C72656   8.624   1.920  11.463  0.0056 -1.4193  0.3152
  527MOL0     H72657   8.899   2.240  11.720 -2.7220 -1.1156 -2.3096
  527MOL0     H72658   9.148   2.325  11.726 -1.1023  0.4683 -0.7087
  527MOL0     H72659   9.358   2.667  11.561  1.0105  1.7722 -2.1305
  527MOL0     H72660   9.234   2.654  11.425 -0.6116 -0.7925 -1.0053
  527MOL0     H72661   9.367   2.445  11.362  0.4936  0.0040  2.4202
  527MOL0     H72662   9.413   2.599  11.296  1.1509 -0.2887 -0.4639
  527MOL0     H72663   9.604   2.617  11.461 -1.2164 -0.4546  3.1687
  527MOL0     H72664   9.543   2.483  11.549  1.6432 -0.3123  0.4306
  527MOL0     H72665   9.608   2.331  11.359  2.5802 -1.0026  0.9511
  527MOL0     H72666   9.650   2.474  11.254  1.6773 -0.2422 -0.3522
  527MOL0     H72667   9.780   2.400  11.517  1.2034 -0.3651  0.1281
  527MOL0     H72668   9.813   2.539  11.397  0.6257 -0.2018  0.0531
  527MOL0     H72669   9.833   2.259  11.327 -2.9544  1.0933 -0.3065
  527MOL0     H72670   9.899   2.388  11.235  1.6205 -0.3460  0.3796
  527MOL0     H72671  10.029   2.277  11.483 -0.8408  0.5890  0.5399
  527MOL0     H72672  10.049   2.447  11.424  0.5633 -0.0433  0.2674
  527MOL0     H72673  10.086   2.186  11.250  0.1433  0.0286 -1.5693
  527MOL0     H72674  10.130   2.344  11.206  0.9882  0.9012  0.7201
  527MOL0     H72675  10.328   2.475  11.345  2.0627 -0.4374 -1.0620
  527MOL0     H72676  10.586   2.391  11.541  1.2268  2.9816 -0.4180
  527MOL0     H72677  10.573   2.475  11.395  3.4301  1.0262  3.1168
  527MOL0     H72678  10.691   2.262  11.285 -0.4968  3.6572 -1.4177
  527MOL0     H72679  10.780   2.375  11.382  2.4343 -1.3608  3.0665
  527MOL0     H72680  10.803   2.228  11.576 -1.7533 -1.2101  0.3286
  527MOL0     H72681  10.686   2.118  11.519  0.4185  1.0581  4.5353
  527MOL0     H72682  10.894   2.018  11.474 -0.8899  0.6377 -0.2676
  527MOL0     H72683  10.847   2.081  11.322 -1.5057  2.8796 -1.0736
  527MOL0     H72684  11.043   1.920  11.313  0.9224 -0.5095  1.7091
  527MOL0     H72685  11.319   1.725  11.278  0.1285 -0.5671 -0.1368
  527MOL0     H72686  11.265   1.790  11.126  0.4259 -1.3231 -0.7091
  527MOL0     H72687  11.141   1.753  11.243  0.7275  2.3837 -1.2711
  527MOL0     H72688  11.723   1.889  11.081  0.8227  2.3838 -0.8726
  527MOL0     H72689  11.974   1.817  11.084 -0.0493 -1.5245  1.8708
  527MOL0     H72690  12.243   1.977  11.402  0.1783 -1.9508  1.3700
  527MOL0     H72691  12.182   1.815  11.427 -0.2750  1.5045  1.4805
  527MOL0     H72692  12.431   1.806  11.395  3.4101  1.3815 -2.6374
  527MOL0     H72693  12.336   1.712  11.285 -0.8352  0.3426 -2.5496
  527MOL0     H72694  12.394   1.870  11.105  1.7818  0.0899 -0.9210
  527MOL0     H72695  12.536   1.850  11.197  0.6339  0.2712  0.0442
  527MOL0     H72696  12.351   2.097  11.234 -0.5607  2.2953 -0.5772
  527MOL0     H72697  12.512   2.093  11.152 -0.7359  1.2317  1.1190
  527MOL0     H72698  12.532   2.198  11.376  1.4288  0.3125 -0.3487
  527MOL0     H72699  12.478   2.044  11.439 -0.6139 -0.5502 -0.3368
  527MOL0     H72700  12.726   2.103  11.282  0.0655  0.8623 -0.1598
  527MOL0     H72701  12.675   1.936  11.313  1.2729  0.3366 -3.0539
  527MOL0     H72702  12.834   1.970  11.502 -1.5444 -1.2759  3.3036
  527MOL0     H72703  12.678   2.017  11.565 -0.2920 -2.3639 -1.8331
  527MOL0     H72704  12.846   2.203  11.618  1.9166  4.6953 -1.2982
  527MOL0     H72705  12.726   2.268  11.506  0.7499  0.4717 -1.7874
  527MOL0     H72706  12.037   2.049  11.445  0.5027  0.7347 -0.3955
  527MOL0     H72707  11.796   2.098  11.446 -0.3047 -0.3360  0.3024
  527MOL0     H72708  11.436   2.200  11.389 -0.3185  1.1253  0.2657
  527MOL0     H72709  11.215   2.292  11.424  0.2917  0.5338 -1.8696
  527MOL0     H72710   9.047   2.601  11.409 -2.7775 -0.8089 -0.5339
  527MOL0     H72711   8.822   2.533  11.430 -0.7357  0.2688  1.4963
  527MOL0     H72712   8.474   2.375  11.551 -3.5934  0.7201 -1.4121
  527MOL0     H72713   8.238   2.303  11.580 -0.1160 -0.5405  0.9634
  527MOL0     H72714   8.115   1.901  11.454  0.9699  1.6864 -0.1115
  527MOL0     H72715   8.175   1.874  11.616  1.4912  1.4177  0.0289
  527MOL0     H72716   7.935   1.822  11.563 -1.0589  1.9836 -2.9246
  527MOL0     H72717   7.894   1.983  11.546 -1.6849 -0.0554  1.3326
  527MOL0     H72718   7.998   1.845  11.796 -3.6662 -1.9343 -0.2419
  527MOL0     H72719   7.998   2.031  11.771 -1.4828  1.7084 -2.1029
  527MOL0     H72720   7.742   1.863  11.738  2.0122 -1.0645 -0.6385
  527MOL0     H72721   7.762   2.042  11.776  2.0593  1.3588 -1.2991
  527MOL0     H72722   7.775   1.878  12.157  2.6375  0.0728 -0.5167
  527MOL0     H72723   8.355   1.901  11.454 -2.4001  0.5429 -0.1212
  527MOL0     H72724   8.573   1.824  11.476 -4.0942  0.6199  0.8877
  527MOL0     H72725   8.675   1.923  11.366  0.0692  1.4817  0.3279
  527MOL0     H72726   8.705   1.932  11.535  0.2645  2.5097 -0.3935
  528MOL0     O72727   4.021   7.886   1.820 -0.5606 -0.7715 -0.6849
  528MOL0     C72728   4.075   7.849   1.716 -0.9757 -0.3479  0.1347
  528MOL0     O72729   4.018   7.852   1.591 -0.7552 -0.2599  0.8368
  528MOL0     C72730   3.900   7.929   1.592  0.1980  0.9335 -0.8532
  528MOL0     C72731   3.781   7.872   1.624 -0.0843  0.2559  0.1184
  528MOL0     C72732   3.650   7.939   1.617 -0.2047  0.5485 -0.5710
  528MOL0     C72733   3.646   8.069   1.556  0.0695  0.7864 -0.5365
  528MOL0     O72734   3.527   8.133   1.548 -0.4631 -0.4668 -0.0647
  528MOL0     C72735   3.524   8.280   1.539 -0.0117 -0.0039  0.6415
  528MOL0     C72736   3.382   8.317   1.553  0.8223 -0.2253  0.0781
  528MOL0     C72737   3.371   8.479   1.520  0.5380  0.0529 -0.0865
  528MOL0     C72738   3.237   8.541   1.474 -0.1611  0.0373  0.6182
  528MOL0     C72739   3.113   8.487   1.541 -0.5612  0.8666 -0.7541
  528MOL0     C72740   3.105   8.506   1.692  0.1860 -0.1375 -0.8224
  528MOL0     C72741   2.975   8.464   1.760 -0.2834 -0.0491 -0.5768
  528MOL0     C72742   2.852   8.556   1.725  0.3957  0.3697 -0.1034
  528MOL0     N72743   2.853   8.703   1.757 -0.7403 -0.1287  0.0757
  528MOL0     C72744   2.912   8.799   1.675 -0.6850  0.2278 -0.0597
  528MOL0     C72745   2.907   8.903   1.759  0.2359 -0.6837  0.3941
  528MOL0     C72746   2.913   9.043   1.708  0.3917 -0.4111 -0.1098
  528MOL0     C72747   2.941   9.151   1.795 -0.1296 -0.2457 -0.1710
  528MOL0     C72748   3.091   9.144   1.851  0.8353 -0.6666 -0.1569
  528MOL0     C72749   3.106   9.272   1.932  0.3801 -0.4396 -1.0526
  528MOL0     O72750   3.121   9.386   1.847  0.5872 -0.4926  0.2371
  528MOL0     C72751   3.240   9.415   1.790 -0.6980 -0.0288 -0.0586
  528MOL0     C72752   3.238   9.504   1.684 -0.0074 -0.1342 -0.2180
  528MOL0     C72753   3.352   9.547   1.613 -0.3652 -0.2564  0.7465
  528MOL0     C72754   3.350   9.646   1.501  0.9600 -0.8933  0.5546
  528MOL0     C72755   3.471   9.478   1.650  0.1142  0.3192  0.3121
  528MOL0     C72756   3.605   9.506   1.591 -0.6076 -0.4512  0.1258
  528MOL0     O72757   3.609   9.549   1.466  0.2103 -0.0074  0.1723
  528MOL0     C72758   3.731   9.576   1.406 -0.6046  0.0551  0.2259
  528MOL0     C72759   3.821   9.472   1.388 -0.9410 -1.1957 -0.0094
  528MOL0     C72760   3.945   9.493   1.324 -0.4398 -0.9015 -0.2129
  528MOL0     C72761   3.973   9.613   1.262 -0.4529  0.4955  0.1546
  528MOL0     O72762   4.085   9.647   1.193  0.0850  1.2278  0.2260
  528MOL0     C72763   4.189   9.545   1.169  0.5919 -0.5858  0.6022
  528MOL0     C72764   4.153   9.450   1.051 -0.1433  0.1059  0.3306
  528MOL0     C72765   4.184   9.517   0.919 -0.3564 -0.1567  0.3241
  528MOL0     C72766   4.239   9.408   0.822 -0.0134  0.2281 -0.1024
  528MOL0     C72767   4.247   9.438   0.671  0.2363 -0.0775  0.0884
  528MOL0     C72768   4.108   9.475   0.615  0.4793  1.5424  0.1109
  528MOL0     C72769   4.139   9.546   0.479  0.2044 -0.1375 -0.4950
  528MOL0     C72770   4.023   9.571   0.392 -0.5716 -0.0118  0.6364
  528MOL0    Cl72771   3.894   9.664   0.477 -0.1458 -0.5784 -0.1614
  528MOL0     C72772   3.877   9.721   1.273  0.2866  0.4120  0.5750
  528MOL0     C72773   3.764   9.701   1.357  0.0642 -0.4623  0.3812
  528MOL0     O72774   3.701   9.498   1.672  0.3626  0.1014  0.2106
  528MOL0     C72775   3.474   9.388   1.757  0.1817  0.4471  0.6587
  528MOL0     C72776   3.359   9.355   1.828 -0.0553  0.5560  0.1853
  528MOL0     N72777   2.859   8.872   1.886 -0.3622 -0.8181  0.3944
  528MOL0     N72778   2.825   8.748   1.884 -0.0585  0.3055 -0.5759
  528MOL0     C72779   3.764   8.114   1.500  0.9900 -0.0840 -0.0108
  528MOL0     C72780   3.883   8.053   1.530 -0.3205  0.6271 -0.3231
  528MOL0     C72781   4.219   7.799   1.729 -0.0103  0.2268 -0.4205
  528MOL0     C72782   4.300   7.796   1.612 -0.5550 -0.8058 -0.1486
  528MOL0     C72783   4.436   7.765   1.618 -0.2630  0.1551 -0.2752
  528MOL0     C72784   4.496   7.732   1.741 -0.7227  0.8847 -0.5042
  528MOL0     O72785   4.626   7.687   1.756  0.1481 -0.6571 -0.1353
  528MOL0     C72786   4.703   7.672   1.636 -0.2455  0.6615 -0.4920
  528MOL0     C72787   4.750   7.789   1.559  0.0826  0.1802 -0.0449
  528MOL0     C72788   4.901   7.833   1.584  0.6477  0.0756  0.1856
  528MOL0     C72789   4.928   7.919   1.712  0.2772  1.0805  0.3594
  528MOL0     C72790   4.891   8.061   1.695  0.1243  0.4474 -0.8885
  528MOL0     C72791   4.875   8.180   1.692  0.1151 -0.2625  0.0649
  528MOL0     C72792   4.419   7.746   1.858 -0.3042  0.3578 -0.1534
  528MOL0     C72793   4.283   7.776   1.861 -0.2692 -0.4382 -0.5249
  528MOL0     C72794   4.218   7.792   1.994  0.0870  0.7020  0.6136
  528MOL0     H72795   3.795   7.767   1.650  0.8663  0.0913 -0.9623
  528MOL0     H72796   3.564   7.889   1.663  0.7994 -1.6414 -0.9597
  528MOL0     H72797   3.559   8.310   1.440  1.1154 -1.7201  0.4816
  528MOL0     H72798   3.587   8.327   1.616 -1.3178 -3.5031  4.1774
  528MOL0     H72799   3.311   8.262   1.491 -1.6410  0.6495  1.9497
  528MOL0     H72800   3.362   8.282   1.654 -1.3303 -1.1766 -0.6246
  528MOL0     H72801   3.405   8.537   1.606 -1.7289  0.5728  0.5388
  528MOL0     H72802   3.447   8.493   1.442 -0.5883  1.1513 -1.0429
  528MOL0     H72803   3.240   8.649   1.485  0.9062  0.1050 -0.1595
  528MOL0     H72804   3.223   8.520   1.367 -0.3296  0.3227  0.5844
  528MOL0     H72805   3.098   8.382   1.515  3.7115  0.2922 -1.6647
  528MOL0     H72806   3.024   8.534   1.498  0.1654  1.7565 -1.3168
  528MOL0     H72807   3.193   8.465   1.743 -0.0781 -0.4631 -0.6247
  528MOL0     H72808   3.120   8.613   1.709 -0.7709 -0.3192  1.5007
  528MOL0     H72809   2.987   8.464   1.869  3.0560  2.1650 -0.7923
  528MOL0     H72810   2.938   8.364   1.736 -3.9143  1.2435 -0.9618
  528MOL0     H72811   2.843   8.548   1.616  0.5791 -0.6098 -0.0536
  528MOL0     H72812   2.753   8.529   1.765  0.2850  2.2054  0.9656
  528MOL0     H72813   2.947   8.780   1.574 -1.7262 -0.1951 -0.3563
  528MOL0     H72814   2.811   9.060   1.671 -0.4223 -3.4153  0.4953
  528MOL0     H72815   2.981   9.049   1.623 -0.6954 -0.4662 -1.0063
  528MOL0     H72816   2.931   9.244   1.739 -0.4254  1.1481  2.0839
  528MOL0     H72817   2.864   9.137   1.872  0.6324  3.1052  1.3812
  528MOL0     H72818   3.105   9.062   1.922  2.8293 -0.7786 -0.6293
  528MOL0     H72819   3.167   9.132   1.773  0.6618 -1.3919 -0.2266
  528MOL0     H72820   3.023   9.279   2.003  1.0012 -2.0923 -0.1175
  528MOL0     H72821   3.196   9.260   1.993 -0.2221 -1.4165 -0.3109
  528MOL0     H72822   3.145   9.560   1.671  1.2939  2.1931 -0.1315
  528MOL0     H72823   3.427   9.724   1.503 -0.3236  0.4115  1.8294
  528MOL0     H72824   3.248   9.684   1.500  0.0849 -2.8478  2.9866
  528MOL0     H72825   3.361   9.595   1.405 -0.3023  0.0810 -0.1385
  528MOL0     H72826   3.795   9.376   1.432 -0.6173 -0.6784  1.3650
  528MOL0     H72827   4.029   9.425   1.326  1.0113  0.7712 -0.9405
  528MOL0     H72828   4.287   9.586   1.142  0.8547 -2.4597 -1.5367
  528MOL0     H72829   4.205   9.483   1.258 -0.3928 -0.3938  0.9275
  528MOL0     H72830   4.208   9.357   1.062 -3.2591 -2.0528 -0.8866
  528MOL0     H72831   4.047   9.424   1.060 -0.3620  1.3765  1.9486
  528MOL0     H72832   4.240   9.611   0.922 -2.5219  1.2361 -0.1080
  528MOL0     H72833   4.088   9.553   0.880 -0.5337  0.8339  1.5829
  528MOL0     H72834   4.179   9.318   0.833  0.1936 -0.0050 -0.8383
  528MOL0     H72835   4.344   9.393   0.847 -0.2152  0.6179  1.0437
  528MOL0     H72836   4.323   9.514   0.651 -1.0287  0.5253 -3.0680
  528MOL0     H72837   4.284   9.350   0.617  0.3071  0.9427 -1.6143
  528MOL0     H72838   4.044   9.546   0.668 -2.2538 -0.3745 -0.3966
  528MOL0     H72839   4.039   9.391   0.600  1.4414  1.1108 -2.4909
  528MOL0     H72840   4.205   9.482   0.420  0.2962 -1.5769  1.0839
  528MOL0     H72841   4.194   9.638   0.503 -0.6477 -0.4753  3.4778
  528MOL0     H72842   3.978   9.476   0.361  0.9162  0.2535 -2.9174
  528MOL0     H72843   4.063   9.621   0.303  0.3433  0.3091  1.2143
  528MOL0     H72844   3.884   9.819   1.228 -2.1417  0.6612  0.6166
  528MOL0     H72845   3.691   9.777   1.381 -1.2668 -1.8941  1.0776
  528MOL0     H72846   3.569   9.350   1.791  0.9540  2.0467  0.3876
  528MOL0     H72847   3.366   9.273   1.898 -3.0582 -0.5093 -0.6164
  528MOL0     H72848   3.768   8.198   1.431  0.6955  0.1285  0.2290
  528MOL0     H72849   3.973   8.090   1.481 -0.4084 -1.2119 -1.9919
  528MOL0     H72850   4.258   7.815   1.514 -1.9635  0.6397  0.6746
  528MOL0     H72851   4.488   7.775   1.524 -1.5090  2.4072 -0.8157
  528MOL0     H72852   4.794   7.621   1.668  0.3510  2.1570  0.2964
  528MOL0     H72853   4.646   7.601   1.575 -0.3869  1.0151 -0.7789
  528MOL0     H72854   4.681   7.873   1.571 -1.2810 -0.6304 -1.6691
  528MOL0     H72855   4.748   7.748   1.458 -3.7790 -2.2392  0.8018
  528MOL0     H72856   4.957   7.739   1.591 -3.2014 -2.3888  1.2570
  528MOL0     H72857   4.934   7.880   1.491 -2.0629  2.8762  0.4567
  528MOL0     H72858   5.033   7.912   1.742  0.4664  3.4547  0.5097
  528MOL0     H72859   4.863   7.874   1.787 -1.9337  0.0217 -2.0527
  528MOL0     H72860   4.854   8.285   1.689  0.5309 -0.1748  0.1544
  528MOL0     H72861   4.479   7.727   1.946  1.3411 -1.2178 -1.5192
  528MOL0     H72862   4.183   7.893   2.020  0.2919  0.8945  0.1648
  528MOL0     H72863   4.130   7.727   1.989  1.7067 -1.5471 -0.4900
  528MOL0     H72864   4.279   7.753   2.075  0.3033 -0.8068 -0.2424
  529MOL0     O72865   0.311   1.953   8.460  0.3165  0.2676 -0.2119
  529MOL0     C72866   0.264   1.913   8.567 -0.7928 -0.2158  0.0757
  529MOL0     O72867   0.169   1.977   8.644 -0.0926 -0.3833 -0.4225
  529MOL0     C72868   0.126   2.103   8.622  1.2772  1.0256  0.4371
  529MOL0     C72869   0.112   2.167   8.493 -0.8176 -0.2434  0.2016
  529MOL0     C72870   0.076   2.308   8.484  0.1322 -1.1670  0.4984
  529MOL0     C72871   0.049   2.380   8.604 -0.0406 -0.3194 -0.1815
  529MOL0     O72872  -0.009   2.502   8.597  0.9402 -1.2154 -0.3589
  529MOL0     C72873  -0.144   2.501   8.554  0.1314 -0.0951 -0.0841
  529MOL0     C72874  -0.249   2.444   8.649 -0.1864 -0.6335 -0.0297
  529MOL0     C72875  -0.257   2.520   8.785 -0.7856  0.6967  0.0799
  529MOL0     C72876  -0.375   2.476   8.871 -0.6913 -0.2234  0.4387
  529MOL0     C72877  -0.343   2.526   9.012  0.6653  0.1663  0.4435
  529MOL0     C72878  -0.391   2.674   9.021 -0.4366 -0.0362  0.0834
  529MOL0     C72879  -0.541   2.687   9.050  0.1232 -0.2574  0.1001
  529MOL0     C72880  -0.587   2.836   9.070  0.9736 -0.5924 -0.5521
  529MOL0     N72881  -0.500   2.930   9.141 -0.3449  0.2267 -0.1147
  529MOL0     C72882  -0.381   2.974   9.098 -0.0381 -0.2573  0.2167
  529MOL0     C72883  -0.342   3.073   9.183  0.4807  0.1885  0.4353
  529MOL0     C72884  -0.224   3.162   9.171 -1.2064 -0.9507  0.1230
  529MOL0     C72885  -0.103   3.098   9.236 -0.1167 -0.0774  0.3204
  529MOL0     C72886   0.001   3.067   9.137  0.5278  0.5877 -0.1530
  529MOL0     C72887   0.122   2.979   9.193  0.0643 -0.4750 -0.4468
  529MOL0     O72888   0.241   3.012   9.123  0.4032  0.6792  0.2725
  529MOL0     C72889   0.360   2.940   9.128  0.2679 -0.2962 -0.2472
  529MOL0     C72890   0.477   2.995   9.074  0.9293 -0.6387 -1.2200
  529MOL0     C72891   0.598   2.942   9.102  0.1543  0.1528 -0.0863
  529MOL0     C72892   0.712   3.014   9.030  1.3105 -0.1859  0.5314
  529MOL0     C72893   0.614   2.827   9.187  0.6862 -0.5068 -0.1026
  529MOL0     C72894   0.743   2.767   9.229 -0.6695 -0.9377  0.2846
  529MOL0     O72895   0.732   2.661   9.313  0.3233 -0.0539  0.6476
  529MOL0     C72896   0.838   2.591   9.366 -0.7365 -0.1208 -0.7126
  529MOL0     C72897   0.849   2.574   9.506 -0.1681 -1.0163  0.2561
  529MOL0     C72898   0.929   2.475   9.557 -0.1040  0.8033 -0.4259
  529MOL0     C72899   1.018   2.397   9.479  0.5346 -0.0111  0.4812
  529MOL0     O72900   1.086   2.310   9.557 -0.2716  0.1553  0.1613
  529MOL0     C72901   1.055   2.172   9.530  0.7189 -0.9315 -0.4242
  529MOL0     C72902   1.160   2.108   9.444  0.3636 -0.3312  0.3832
  529MOL0     C72903   1.094   1.993   9.359 -0.0472  0.4051  1.2508
  529MOL0     C72904   1.206   1.908   9.299 -0.2988 -0.9873 -0.0354
  529MOL0     C72905   1.178   1.768   9.241 -0.1736 -0.0149  0.8700
  529MOL0     C72906   1.028   1.745   9.213 -0.1224 -0.0425 -0.3457
  529MOL0     C72907   1.004   1.618   9.128 -0.8248 -0.2227 -0.4428
  529MOL0     C72908   0.878   1.612   9.055 -0.4226 -0.0768  0.0469
  529MOL0    Cl72909   0.737   1.670   9.161 -0.2100  0.6781  0.5338
  529MOL0     C72910   1.015   2.413   9.345  1.7080  0.3472 -0.5504
  529MOL0     C72911   0.922   2.510   9.283  0.1812 -0.1746  0.4029
  529MOL0     O72912   0.849   2.820   9.209  0.2890 -0.0284 -0.2274
  529MOL0     C72913   0.490   2.775   9.246  0.8623  0.2580  0.1209
  529MOL0     C72914   0.371   2.837   9.219  0.1373 -0.0224  0.7831
  529MOL0     N72915  -0.451   3.093   9.268  0.0602  0.1061 -0.8577
  529MOL0     N72916  -0.538   3.001   9.248  0.4392 -0.4322 -0.4556
  529MOL0     C72917   0.051   2.315   8.716 -0.2068  0.3014  0.4394
  529MOL0     C72918   0.084   2.179   8.724 -0.1542  0.2978 -0.0018
  529MOL0     C72919   0.322   1.790   8.635 -0.0312 -1.0410 -0.2193
  529MOL0     C72920   0.316   1.782   8.774  0.0580 -0.0777 -0.8311
  529MOL0     C72921   0.363   1.675   8.850 -0.2579 -0.5181  0.2938
  529MOL0     C72922   0.438   1.574   8.790  0.1867 -0.4482 -0.7310
  529MOL0     O72923   0.477   1.466   8.873  0.1397 -0.0904  0.2884
  529MOL0     C72924   0.577   1.379   8.815  1.0815  0.8656  0.2983
  529MOL0     C72925   0.641   1.288   8.926 -0.2732 -0.3216 -0.1174
  529MOL0     C72926   0.771   1.227   8.870  0.7855  1.2315 -0.1832
  529MOL0     C72927   0.747   1.107   8.770 -0.6739  0.5383 -0.3653
  529MOL0     C72928   0.867   1.039   8.709  1.3675  0.4566 -0.1322
  529MOL0     C72929   0.964   0.981   8.663  0.3065 -0.3308  0.4798
  529MOL0     C72930   0.444   1.573   8.653 -0.7681 -0.7116 -0.2415
  529MOL0     C72931   0.394   1.680   8.578  0.0011  0.1726  0.9333
  529MOL0     C72932   0.409   1.658   8.421 -0.5869  0.3831  0.0168
  529MOL0     H72933   0.136   2.120   8.398 -0.2670  0.0450  0.1962
  529MOL0     H72934   0.071   2.355   8.386 -1.0620 -1.6955  0.2997
  529MOL0     H72935  -0.141   2.448   8.458 -0.6404  1.5514 -1.0552
  529MOL0     H72936  -0.180   2.602   8.532  0.9543  0.1486 -0.3531
  529MOL0     H72937  -0.339   2.458   8.589 -0.4768 -2.6670 -0.1374
  529MOL0     H72938  -0.241   2.337   8.668  2.1089 -0.6300 -0.6668
  529MOL0     H72939  -0.163   2.520   8.841 -0.8060  0.6466  0.1125
  529MOL0     H72940  -0.262   2.628   8.764 -3.7396  1.2475  2.8241
  529MOL0     H72941  -0.465   2.523   8.830 -0.0746 -0.2274 -0.9769
  529MOL0     H72942  -0.396   2.369   8.868  0.5144 -0.4510 -1.9509
  529MOL0     H72943  -0.242   2.506   9.048  0.4852 -1.9457 -0.1054
  529MOL0     H72944  -0.405   2.472   9.084  2.3035 -0.9208  1.0842
  529MOL0     H72945  -0.333   2.722   9.100  3.0429  1.0444 -2.8076
  529MOL0     H72946  -0.363   2.724   8.928 -3.0497  0.1182 -0.6959
  529MOL0     H72947  -0.552   2.639   9.147 -1.9182  0.3903  0.2441
  529MOL0     H72948  -0.600   2.648   8.966  0.3610  0.0437 -0.2114
  529MOL0     H72949  -0.615   2.881   8.974 -0.9908  0.1828  0.3454
  529MOL0     H72950  -0.678   2.830   9.131  0.2166 -0.4023 -1.6290
  529MOL0     H72951  -0.315   2.937   9.020 -0.3072 -2.3615  0.9299
  529MOL0     H72952  -0.243   3.255   9.227  1.7027 -1.0716  1.4689
  529MOL0     H72953  -0.212   3.181   9.064 -1.5305  2.4356  0.5704
  529MOL0     H72954  -0.055   3.167   9.306  2.5938  0.8689 -2.2259
  529MOL0     H72955  -0.135   3.011   9.295  1.0612 -2.0258 -1.7316
  529MOL0     H72956  -0.048   3.007   9.059 -2.1480  0.5886  1.4092
  529MOL0     H72957   0.037   3.163   9.098  2.0615  0.8333  1.7396
  529MOL0     H72958   0.131   3.005   9.299 -1.5676 -0.3738 -0.3072
  529MOL0     H72959   0.105   2.870   9.191 -0.1871 -0.4289 -2.3716
  529MOL0     H72960   0.465   3.087   9.017 -3.2452 -0.4985 -0.4219
  529MOL0     H72961   0.684   3.089   8.956  0.4552  0.9032  1.9103
  529MOL0     H72962   0.768   2.935   8.979 -1.2469 -0.2692 -2.4887
  529MOL0     H72963   0.776   3.074   9.095  0.2357  2.2481 -0.5270
  529MOL0     H72964   0.788   2.620   9.583  3.1251  1.6577  1.5302
  529MOL0     H72965   0.914   2.457   9.663 -1.8412  0.3893 -0.7104
  529MOL0     H72966   1.047   2.113   9.622 -2.5806  1.4576  0.9785
  529MOL0     H72967   0.955   2.170   9.486  0.0657  1.2884  0.8626
  529MOL0     H72968   1.197   2.188   9.378 -1.7404  3.9646  3.8642
  529MOL0     H72969   1.240   2.069   9.506  2.8202  1.6417 -1.3425
  529MOL0     H72970   1.034   2.038   9.280  1.5720  0.3482 -0.0630
  529MOL0     H72971   1.037   1.925   9.423  1.0132 -0.3199  1.4592
  529MOL0     H72972   1.284   1.895   9.374 -1.7240  0.3088  1.7694
  529MOL0     H72973   1.258   1.965   9.221  0.3294 -0.2838  0.8863
  529MOL0     H72974   1.243   1.783   9.154 -2.8372  2.0461 -0.9095
  529MOL0     H72975   1.200   1.679   9.302  0.5462 -1.8675 -1.9000
  529MOL0     H72976   0.979   1.828   9.161 -0.5572  2.4932  3.6242
  529MOL0     H72977   0.986   1.749   9.314  2.6307  1.9495  0.8610
  529MOL0     H72978   1.000   1.533   9.198 -1.7529  1.2272  1.3613
  529MOL0     H72979   1.089   1.612   9.060 -0.6333  3.1356 -0.6571
  529MOL0     H72980   0.856   1.516   9.007  2.1980  0.0169 -1.4931
  529MOL0     H72981   0.879   1.685   8.973  2.8272 -0.3149 -0.2354
  529MOL0     H72982   1.070   2.360   9.268  0.3281  2.1192 -2.8800
  529MOL0     H72983   0.912   2.514   9.175 -0.8090 -1.2746  0.4359
  529MOL0     H72984   0.496   2.689   9.311  4.1645  1.3953  1.5512
  529MOL0     H72985   0.285   2.819   9.284 -0.8346  0.6862 -0.2581
  529MOL0     H72986   0.008   2.359   8.805 -0.2821 -1.5380  1.3596
  529MOL0     H72987   0.081   2.132   8.822  1.2528 -1.2277 -0.6324
  529MOL0     H72988   0.277   1.867   8.829  3.5924  1.2840 -0.1979
  529MOL0     H72989   0.355   1.672   8.958  0.7458 -3.6924  0.3891
  529MOL0     H72990   0.532   1.315   8.739 -0.1039 -1.1130  2.5124
  529MOL0     H72991   0.657   1.442   8.774  1.8156  1.0051  1.8331
  529MOL0     H72992   0.571   1.207   8.949  0.3001 -1.0161 -0.7595
  529MOL0     H72993   0.672   1.343   9.015 -1.3877  2.2197 -1.2113
  529MOL0     H72994   0.837   1.293   8.813  0.2973  0.8420 -1.2377
  529MOL0     H72995   0.825   1.189   8.957  0.4079  0.7348 -0.1567
  529MOL0     H72996   0.687   1.154   8.692 -2.5965  4.3322  3.0275
  529MOL0     H72997   0.678   1.032   8.810 -0.2299  0.0535 -0.4967
  529MOL0     H72998   1.057   0.940   8.630  0.8144  0.1925  1.2308
  529MOL0     H72999   0.493   1.485   8.612  2.4538  0.1980  1.3320
  529MOL0     H73000   0.319   1.685   8.366 -1.6051  0.3409  1.5928
  529MOL0     H73001   0.491   1.724   8.391 -0.2559 -0.3259 -0.6527
  529MOL0     H73002   0.439   1.557   8.392 -0.1220  0.5171  0.0074
  530MOL0     O73003  10.202   9.533   5.205  0.2055  0.1517  0.3940
  530MOL0     C73004  10.108   9.455   5.188  0.5022  0.0402 -0.3894
  530MOL0     O73005  10.121   9.343   5.098  0.1758 -0.8006 -0.3932
  530MOL0     C73006  10.218   9.348   5.007  0.0520 -0.4926 -0.1692
  530MOL0     C73007  10.230   9.451   4.912  0.3627  0.0878  0.3438
  530MOL0     C73008  10.340   9.459   4.831  0.1872  0.0414  0.2715
  530MOL0     C73009  10.437   9.362   4.837 -0.0720 -0.5682  0.1256
  530MOL0     O73010  10.556   9.386   4.773 -0.7211  0.0589 -0.1239
  530MOL0     C73011  10.553   9.434   4.641  0.2915 -0.4808  0.0899
  530MOL0     C73012  10.674   9.395   4.554 -0.6960  0.1119 -0.6147
  530MOL0     C73013  10.660   9.403   4.407 -0.0936 -0.6124 -0.4203
  530MOL0     C73014  10.777   9.322   4.343 -0.1273  0.5015 -0.4573
  530MOL0     C73015  10.794   9.347   4.197  0.1254  0.0129 -0.0888
  530MOL0     C73016  10.697   9.260   4.120 -0.1247  0.0262 -0.9207
  530MOL0     C73017  10.744   9.219   3.979  1.3240  0.2775 -0.2172
  530MOL0     C73018  10.630   9.138   3.909 -0.3817 -0.2545 -0.1558
  530MOL0     N73019  10.675   9.065   3.789 -0.3330 -0.2920  0.6384
  530MOL0     C73020  10.780   9.098   3.705  0.4642  0.2680  0.7643
  530MOL0     C73021  10.792   8.990   3.619  0.9300  0.0658 -1.3115
  530MOL0     C73022  10.878   8.977   3.503  0.0138 -0.4227  0.2190
  530MOL0     C73023  10.839   9.090   3.404  0.3762  0.1382  0.3704
  530MOL0     C73024  10.890   9.068   3.265  0.2985 -0.7201 -0.7794
  530MOL0     C73025  11.035   9.094   3.257 -0.1001  0.3336 -0.4347
  530MOL0     O73026  11.068   9.226   3.299  0.9598  0.2558 -0.0467
  530MOL0     C73027  11.197   9.265   3.292 -0.0980  0.1472  0.6341
  530MOL0     C73028  11.229   9.406   3.308  0.1930  0.5411  0.7778
  530MOL0     C73029  11.366   9.457   3.308  0.3696  0.6414  0.5904
  530MOL0     C73030  11.400   9.604   3.327 -0.0964 -0.1880 -0.4877
  530MOL0     C73031  11.471   9.365   3.298  0.1205  0.1545 -1.2764
  530MOL0     C73032  11.609   9.389   3.346  0.4950 -0.2300  1.1966
  530MOL0     O73033  11.702   9.306   3.285  0.7874 -0.0284  0.1014
  530MOL0     C73034  11.828   9.313   3.334 -0.2926 -0.0738 -0.0579
  530MOL0     C73035  11.902   9.422   3.288 -0.6376 -0.5475  0.5821
  530MOL0     C73036  12.036   9.430   3.329 -0.5176 -0.1701 -0.5499
  530MOL0     C73037  12.089   9.333   3.412 -0.7256 -0.5904 -0.1644
  530MOL0     O73038  12.222   9.354   3.432 -0.0018 -0.6983  0.4362
  530MOL0     C73039  12.276   9.310   3.558 -0.4581 -0.0649  0.8939
  530MOL0     C73040  12.424   9.362   3.573  0.3430  0.1807 -0.8695
  530MOL0     C73041  12.490   9.300   3.689 -0.5375 -0.9666 -0.4475
  530MOL0     C73042  12.631   9.360   3.713 -0.6437  0.2841  0.9700
  530MOL0     C73043  12.697   9.293   3.832  0.3371  0.8854 -0.2691
  530MOL0     C73044  12.765   9.160   3.784 -0.0671 -0.6761  0.3246
  530MOL0     C73045  12.883   9.132   3.873  0.1007  0.0363  0.0249
  530MOL0     C73046  12.972   9.031   3.796 -0.1469  0.0190  0.6059
  530MOL0    Cl73047  13.117   9.009   3.907  0.0867 -0.1616  0.1439
  530MOL0     C73048  12.020   9.229   3.456  1.0405  0.0113  0.5835
  530MOL0     C73049  11.882   9.219   3.430 -1.0665  0.5060  0.4431
  530MOL0     O73050  11.625   9.472   3.436  0.1935  0.2809 -0.3315
  530MOL0     C73051  11.434   9.225   3.276 -0.5254 -0.4148  0.3747
  530MOL0     C73052  11.306   9.185   3.263  0.1982  0.4441 -0.4361
  530MOL0     N73053  10.688   8.902   3.653 -0.4998  0.7389 -0.3096
  530MOL0     N73054  10.629   8.939   3.760  0.3831  0.3981 -0.1515
  530MOL0     C73055  10.419   9.253   4.930 -0.4845  0.1180  0.7994
  530MOL0     C73056  10.313   9.244   5.012 -0.1531 -0.6943 -0.0894
  530MOL0     C73057   9.988   9.473   5.271  0.0434 -0.6950  0.1537
  530MOL0     C73058   9.896   9.364   5.258 -0.3108 -0.0023 -0.4739
  530MOL0     C73059   9.771   9.370   5.325  1.2902 -0.3800 -0.3499
  530MOL0     C73060   9.729   9.479   5.399 -0.0700 -0.4573 -0.2874
  530MOL0     O73061   9.603   9.486   5.457  0.3574  0.3542  0.7053
  530MOL0     C73062   9.564   9.592   5.535  0.6074  0.0341 -0.2533
  530MOL0     C73063   9.411   9.608   5.543 -0.6803 -0.0817 -0.3317
  530MOL0     C73064   9.340   9.488   5.600 -0.5112 -0.6067  0.2785
  530MOL0     C73065   9.393   9.421   5.724 -0.4701  0.1665 -0.1194
  530MOL0     C73066   9.307   9.309   5.768  0.5663  0.7141 -0.2822
  530MOL0     C73067   9.238   9.238   5.841 -1.2645 -0.4871 -0.7442
  530MOL0     C73068   9.829   9.581   5.422  0.5188  0.0539  0.4915
  530MOL0     C73069   9.954   9.585   5.357  0.0390  0.6456 -0.8783
  530MOL0     C73070  10.036   9.709   5.390  0.1930  0.6115 -0.1925
  530MOL0     H73071  10.149   9.523   4.908 -1.3383 -1.7746 -0.6755
  530MOL0     H73072  10.342   9.531   4.750  3.7811 -0.7533 -0.5386
  530MOL0     H73073  10.551   9.543   4.638 -0.0691 -0.4811  0.2149
  530MOL0     H73074  10.468   9.386   4.591  0.4164 -0.1221 -0.4708
  530MOL0     H73075  10.764   9.451   4.581 -2.2058  1.4456  2.1601
  530MOL0     H73076  10.688   9.291   4.583  3.2376  0.5304 -0.5059
  530MOL0     H73077  10.558   9.385   4.371 -0.4992  1.2406 -0.2877
  530MOL0     H73078  10.677   9.509   4.386 -0.3224 -0.2894  0.8951
  530MOL0     H73079  10.871   9.354   4.389  1.3450  0.3818 -3.1394
  530MOL0     H73080  10.767   9.216   4.366  1.7100  0.7460  2.0132
  530MOL0     H73081  10.899   9.327   4.175  0.0014  1.6342 -2.5224
  530MOL0     H73082  10.766   9.451   4.177 -0.2632 -0.3933 -1.8138
  530MOL0     H73083  10.660   9.177   4.181  0.2454 -2.4218 -3.7692
  530MOL0     H73084  10.606   9.320   4.115 -0.1001 -0.0068 -2.4766
  530MOL0     H73085  10.834   9.157   3.980  2.2071  1.5125  1.3395
  530MOL0     H73086  10.776   9.314   3.937  1.8839  1.3725  2.5170
  530MOL0     H73087  10.596   9.058   3.976  0.0173 -0.7820 -0.5648
  530MOL0     H73088  10.557   9.217   3.891 -0.7336 -0.1662  1.4880
  530MOL0     H73089  10.813   9.201   3.696 -1.5798  1.1173  2.2861
  530MOL0     H73090  10.851   8.887   3.448 -1.7343 -0.4248  1.0132
  530MOL0     H73091  10.985   8.995   3.522 -0.4440  2.0993  0.8487
  530MOL0     H73092  10.730   9.087   3.397  0.2781  1.6047  0.9421
  530MOL0     H73093  10.862   9.192   3.438 -0.3198  0.3727  0.1679
  530MOL0     H73094  10.867   8.966   3.233  0.7533 -1.3311  0.7778
  530MOL0     H73095  10.837   9.133   3.195 -0.2109 -1.5055 -1.1429
  530MOL0     H73096  11.092   9.017   3.309 -3.5212 -3.2353 -1.4587
  530MOL0     H73097  11.057   9.086   3.151  0.0991 -0.2714 -0.3525
  530MOL0     H73098  11.139   9.467   3.313 -1.9897 -2.5436  2.9012
  530MOL0     H73099  11.493   9.635   3.277 -0.1113  3.5325  1.4514
  530MOL0     H73100  11.426   9.623   3.431  3.5170 -0.8844 -1.0973
  530MOL0     H73101  11.321   9.671   3.292  1.1385  2.9875  2.2617
  530MOL0     H73102  11.850   9.490   3.221  0.9319  0.7726  0.6336
  530MOL0     H73103  12.096   9.507   3.282 -1.7662  2.5551  2.0423
  530MOL0     H73104  12.214   9.353   3.637  1.2520  1.6726  1.3686
  530MOL0     H73105  12.271   9.201   3.557 -0.0261 -0.1580 -2.3384
  530MOL0     H73106  12.464   9.314   3.483 -0.2468 -2.1449  0.0157
  530MOL0     H73107  12.421   9.471   3.571  0.4164  0.1804 -3.1258
  530MOL0     H73108  12.503   9.193   3.668  0.3522 -0.4554 -2.8586
  530MOL0     H73109  12.426   9.321   3.775  1.6861 -2.3370  1.6636
  530MOL0     H73110  12.618   9.465   3.740 -0.8491  0.1244  1.4956
  530MOL0     H73111  12.692   9.361   3.623 -1.3779  0.1853  0.4629
  530MOL0     H73112  12.781   9.350   3.873  4.0629 -0.4074 -5.2178
  530MOL0     H73113  12.616   9.277   3.904 -4.0745 -0.1005 -4.8515
  530MOL0     H73114  12.796   9.175   3.680 -0.0799 -0.1634  0.3908
  530MOL0     H73115  12.689   9.083   3.788  0.5919 -1.2906  1.9968
  530MOL0     H73116  12.849   9.083   3.965  0.0552 -0.2334 -0.1363
  530MOL0     H73117  12.939   9.223   3.897 -0.5280  0.6939 -0.9047
  530MOL0     H73118  12.994   9.076   3.699  2.0044 -0.1798  0.9541
  530MOL0     H73119  12.932   8.932   3.773 -0.0605  0.0015  0.5353
  530MOL0     H73120  12.058   9.146   3.513 -1.4164 -2.3646 -0.9985
  530MOL0     H73121  11.837   9.131   3.475  0.8265  0.9081  3.4301
  530MOL0     H73122  11.515   9.154   3.275  0.3775  0.5969 -0.4426
  530MOL0     H73123  11.292   9.080   3.238  0.1036  0.3516 -0.0142
  530MOL0     H73124  10.508   9.190   4.930 -0.6906 -0.2440 -1.1491
  530MOL0     H73125  10.310   9.175   5.095  0.4096  2.4309  2.7673
  530MOL0     H73126   9.915   9.283   5.189  1.8239 -0.5530  0.6713
  530MOL0     H73127   9.705   9.285   5.314 -0.8265  1.0616  0.6279
  530MOL0     H73128   9.613   9.577   5.632 -2.3424  1.6906  1.6522
  530MOL0     H73129   9.597   9.682   5.481 -1.0922 -1.3386 -3.8869
  530MOL0     H73130   9.370   9.620   5.443 -1.6263 -3.1078 -0.4071
  530MOL0     H73131   9.391   9.689   5.614  0.8944  0.7256 -0.7688
  530MOL0     H73132   9.236   9.519   5.611 -1.4588 -2.1290 -3.0046
  530MOL0     H73133   9.338   9.417   5.517 -2.0378  0.4384 -0.6138
  530MOL0     H73134   9.411   9.497   5.801 -0.9450 -0.2110  0.3712
  530MOL0     H73135   9.496   9.388   5.705 -0.7522  0.7062 -3.1400
  530MOL0     H73136   9.178   9.197   5.919 -0.8040  0.4032  0.1065
  530MOL0     H73137   9.820   9.663   5.492  0.6046 -0.1121  0.6978
  530MOL0     H73138   9.998   9.744   5.487 -1.7081 -1.7220  0.0040
  530MOL0     H73139  10.143   9.687   5.394  0.2590  1.0438  2.7826
  530MOL0     H73140  10.021   9.789   5.317  1.6394  1.2372  0.1526
  531MOL0     O73141   6.738   1.232   9.920 -1.0128 -0.8144 -0.7592
  531MOL0     C73142   6.828   1.148   9.915 -0.0410 -0.0341  0.0407
  531MOL0     O73143   6.804   1.031   9.841 -0.0345 -0.6811 -0.8215
  531MOL0     C73144   6.680   0.966   9.848 -0.0048 -0.4229 -0.2823
  531MOL0     C73145   6.665   0.857   9.760 -0.3336  0.5065  1.2638
  531MOL0     C73146   6.537   0.787   9.751 -0.3054 -0.1089  0.4609
  531MOL0     C73147   6.434   0.809   9.842  0.2172 -0.3712  0.3436
  531MOL0     O73148   6.328   0.722   9.832  0.1146  0.2211 -0.7224
  531MOL0     C73149   6.249   0.703   9.951 -0.3868  0.8417  1.1842
  531MOL0     C73150   6.110   0.674   9.898 -0.5546 -0.1779 -0.4637
  531MOL0     C73151   6.040   0.799   9.828  0.5801 -0.2111 -0.4114
  531MOL0     C73152   5.997   0.912   9.933 -0.6500  0.1373 -0.3167
  531MOL0     C73153   5.908   1.021   9.867  0.3127  0.9321  0.5659
  531MOL0     C73154   5.831   1.100   9.975 -0.1298  0.2022 -0.3823
  531MOL0     C73155   5.776   1.229   9.910  0.5987  0.3458 -0.0665
  531MOL0     C73156   5.728   1.320  10.020 -0.3627  0.2227 -0.8214
  531MOL0     N73157   5.840   1.368  10.102  0.0598 -0.3041 -0.1609
  531MOL0     C73158   5.937   1.454  10.057  0.1535  0.3164  0.6555
  531MOL0     C73159   6.020   1.464  10.158 -0.2361 -0.0607  0.4523
  531MOL0     C73160   6.137   1.564  10.157 -0.4380 -1.0012 -0.4871
  531MOL0     C73161   6.082   1.704  10.165  0.9674  0.3295  1.5403
  531MOL0     C73162   6.184   1.810  10.197  0.4812 -0.7475 -0.2693
  531MOL0     C73163   6.321   1.796  10.134 -0.2671  0.1920  0.7337
  531MOL0     O73164   6.323   1.755   9.991 -0.0814 -0.3991 -0.2904
  531MOL0     C73165   6.440   1.720   9.929 -0.4146  0.9421 -0.3589
  531MOL0     C73166   6.423   1.641   9.816 -0.8646  0.0115 -0.0135
  531MOL0     C73167   6.529   1.584   9.742  0.6162  0.1363  0.5317
  531MOL0     C73168   6.508   1.506   9.612  0.2162  0.3288  0.1299
  531MOL0     C73169   6.666   1.608   9.794  0.1777 -0.3094  0.0912
  531MOL0     C73170   6.792   1.571   9.727 -0.0932 -0.3251 -0.3574
  531MOL0     O73171   6.890   1.535   9.817 -0.3430  0.4265 -0.1303
  531MOL0     C73172   7.003   1.465   9.767 -0.7659  0.1119  0.1047
  531MOL0     C73173   7.122   1.508   9.816 -0.5106  0.8267  0.8600
  531MOL0     C73174   7.239   1.436   9.782 -0.4865  0.0166 -0.1817
  531MOL0     C73175   7.232   1.328   9.690 -0.8434 -0.0517  0.3136
  531MOL0     O73176   7.335   1.240   9.661  0.1469 -0.0730 -0.5209
  531MOL0     C73177   7.462   1.269   9.718  0.4155  0.1625 -0.0781
  531MOL0     C73178   7.557   1.161   9.684  0.6227 -0.8778 -0.2506
  531MOL0     C73179   7.586   1.150   9.528  0.3204 -0.3111 -0.1862
  531MOL0     C73180   7.694   1.048   9.512 -0.2716 -0.3992  0.3881
  531MOL0     C73181   7.747   1.047   9.365 -0.3118  0.6762  0.3266
  531MOL0     C73182   7.833   1.165   9.336 -0.1809 -0.6990 -0.2487
  531MOL0     C73183   7.930   1.142   9.228 -0.8505 -0.0236 -0.1480
  531MOL0     C73184   7.983   1.273   9.168  0.4599 -0.4143  0.5835
  531MOL0    Cl73185   8.071   1.374   9.274 -0.3805 -0.0566  0.1909
  531MOL0     C73186   7.108   1.285   9.642 -0.1240  0.4537  0.6118
  531MOL0     C73187   6.985   1.351   9.674 -0.0201 -0.0448 -0.6863
  531MOL0     O73188   6.803   1.583   9.612 -0.1497 -0.0465 -0.2962
  531MOL0     C73189   6.677   1.682   9.914  0.3163 -0.5164  0.5646
  531MOL0     C73190   6.562   1.732   9.985 -0.0361  0.9007 -0.3381
  531MOL0     N73191   5.991   1.381  10.259 -0.6181 -0.2265  0.1720
  531MOL0     N73192   5.879   1.323  10.227 -0.3752  0.5943 -0.3273
  531MOL0     C73193   6.452   0.916   9.937  0.1637  0.0428 -0.5384
  531MOL0     C73194   6.582   0.983   9.948  0.7705 -0.5666 -0.3407
  531MOL0     C73195   6.957   1.179   9.985 -0.4569 -0.1124  0.4926
  531MOL0     C73196   6.948   1.281  10.083 -0.0612 -0.4464 -0.7241
  531MOL0     C73197   7.063   1.331  10.143 -0.0266  0.1061  0.3365
  531MOL0     C73198   7.192   1.270  10.114  0.1981  0.3616 -0.2592
  531MOL0     O73199   7.315   1.312  10.156  0.5299 -0.8576  0.1316
  531MOL0     C73200   7.315   1.359  10.295  0.2672 -0.4161  0.8994
  531MOL0     C73201   7.455   1.347  10.329  0.0311  0.2232 -0.9618
  531MOL0     C73202   7.487   1.426  10.456 -0.0131  0.4628 -0.1734
  531MOL0     C73203   7.621   1.380  10.519 -0.6014 -0.4378 -0.5124
  531MOL0     C73204   7.723   1.334  10.429  0.0617 -0.3886 -0.4810
  531MOL0     C73205   7.809   1.320  10.343  0.5155 -0.0621 -0.7679
  531MOL0     C73206   7.199   1.158  10.022 -0.2509 -1.0421 -0.4666
  531MOL0     C73207   7.088   1.113   9.960  0.1558  0.4703  0.3255
  531MOL0     C73208   7.106   1.003   9.860 -0.4821 -1.1356 -0.1766
  531MOL0     H73209   6.741   0.837   9.684  0.7995  1.1540  2.1874
  531MOL0     H73210   6.526   0.702   9.685 -1.4544 -0.2360  0.7928
  531MOL0     H73211   6.242   0.787  10.022  2.0742  1.5872  0.6411
  531MOL0     H73212   6.298   0.621  10.003 -0.2956  0.2131  0.1368
  531MOL0     H73213   6.116   0.590   9.828 -2.1990  0.2789 -1.1960
  531MOL0     H73214   6.041   0.641   9.976 -0.1673 -3.3373 -1.3155
  531MOL0     H73215   6.090   0.849   9.744  1.0084 -1.7297 -1.0976
  531MOL0     H73216   5.943   0.766   9.792 -0.0570 -0.7493  1.6955
  531MOL0     H73217   5.946   0.875  10.022  0.7737  0.7484  0.7975
  531MOL0     H73218   6.094   0.944   9.972 -0.6797 -1.9938  1.7259
  531MOL0     H73219   5.834   0.978   9.799  1.1195 -0.5426  0.5860
  531MOL0     H73220   5.978   1.073   9.801  0.3724  1.2673  0.8898
  531MOL0     H73221   5.755   1.043  10.030 -3.3683  2.8374 -1.7380
  531MOL0     H73222   5.907   1.129  10.047  0.1545  0.5746 -0.8227
  531MOL0     H73223   5.700   1.222   9.831  2.4733 -1.6648 -1.8367
  531MOL0     H73224   5.859   1.274   9.855  1.1926  0.2329  0.7274
  531MOL0     H73225   5.671   1.407   9.989  1.7590  1.8933 -0.2981
  531MOL0     H73226   5.668   1.265  10.093  4.0506  0.7818  3.7718
  531MOL0     H73227   5.946   1.513   9.967  1.7097  0.0010  0.5714
  531MOL0     H73228   6.194   1.546  10.066 -1.4370 -0.9943 -1.1326
  531MOL0     H73229   6.206   1.541  10.238  1.9473 -3.6432 -3.0604
  531MOL0     H73230   6.043   1.714  10.064 -0.8249 -2.9451  1.7755
  531MOL0     H73231   5.999   1.712  10.235 -1.6759 -3.3030 -0.8335
  531MOL0     H73232   6.149   1.907  10.162  3.1630 -0.0938 -1.4207
  531MOL0     H73233   6.186   1.830  10.305 -1.6849  0.3110 -0.3706
  531MOL0     H73234   6.359   1.899  10.135 -1.6846  0.7558  0.1371
  531MOL0     H73235   6.394   1.738  10.190  1.5202  1.1347 -0.5121
  531MOL0     H73236   6.324   1.638   9.772 -0.8311  2.5703 -0.4002
  531MOL0     H73237   6.404   1.517   9.579  0.4603  1.1990 -0.3944
  531MOL0     H73238   6.534   1.401   9.628 -0.2062  0.6433  3.6497
  531MOL0     H73239   6.568   1.552   9.533 -0.7745  2.7039  0.6581
  531MOL0     H73240   7.114   1.592   9.884  3.1106 -1.2443  4.2243
  531MOL0     H73241   7.337   1.470   9.815 -0.6572  0.8272 -0.4947
  531MOL0     H73242   7.493   1.369   9.688 -1.2116  1.3792  2.0605
  531MOL0     H73243   7.461   1.271   9.827  1.3811 -0.8055 -0.0298
  531MOL0     H73244   7.646   1.163   9.748 -0.7404 -3.7454  1.9511
  531MOL0     H73245   7.527   1.065   9.726 -2.6405  0.9597  2.0937
  531MOL0     H73246   7.605   1.248   9.483 -1.8507  0.7239  0.9909
  531MOL0     H73247   7.500   1.108   9.476  1.2640 -3.2588  0.4705
  531MOL0     H73248   7.647   0.952   9.535  0.4938 -0.5639  1.3312
  531MOL0     H73249   7.776   1.069   9.581 -1.7585  0.3283  2.0055
  531MOL0     H73250   7.813   0.960   9.363 -0.6618  0.3041  2.4171
  531MOL0     H73251   7.671   1.046   9.286 -0.9864  1.6805  0.9310
  531MOL0     H73252   7.877   1.208   9.426  0.3092 -0.0123 -0.7971
  531MOL0     H73253   7.774   1.247   9.292 -1.6190 -1.1827  0.6850
  531MOL0     H73254   7.875   1.083   9.154 -1.7159 -1.4342  1.5433
  531MOL0     H73255   8.019   1.086   9.261 -1.3113 -2.3391 -2.4860
  531MOL0     H73256   7.897   1.329   9.132 -0.0489 -2.0552 -0.9157
  531MOL0     H73257   8.039   1.249   9.077 -2.7117 -0.7600 -1.4087
  531MOL0     H73258   7.100   1.201   9.574  2.7998  0.6341 -0.0544
  531MOL0     H73259   6.890   1.317   9.637 -0.4622  1.4682 -1.0041
  531MOL0     H73260   6.776   1.716   9.942  0.6984  0.8185 -2.0462
  531MOL0     H73261   6.579   1.776  10.082 -1.4414 -1.5567  1.1216
  531MOL0     H73262   6.374   0.951  10.004  1.0625  0.9194  0.0641
  531MOL0     H73263   6.596   1.056  10.028  0.1727  0.1236 -0.8523
  531MOL0     H73264   6.854   1.329  10.107  0.1902  0.9500 -2.3500
  531MOL0     H73265   7.057   1.426  10.195  2.4999  1.1688 -1.1221
  531MOL0     H73266   7.281   1.460  10.316  2.2903  0.0863  1.9927
  531MOL0     H73267   7.255   1.285  10.349  1.2991 -2.4987 -0.6223
  531MOL0     H73268   7.525   1.390  10.257  0.1704  1.9228  0.1088
  531MOL0     H73269   7.473   1.240  10.343 -0.8809  0.2994  1.1873
  531MOL0     H73270   7.494   1.534  10.448 -1.4365  1.0199  3.8811
  531MOL0     H73271   7.404   1.408  10.525  0.2917  2.2846  0.7308
  531MOL0     H73272   7.596   1.294  10.581 -1.2402 -1.5739 -2.2655
  531MOL0     H73273   7.665   1.463  10.576  3.1369 -0.8857 -2.4517
  531MOL0     H73274   7.885   1.314  10.267  1.5344  1.3989  0.0705
  531MOL0     H73275   7.292   1.112   9.992 -0.3994 -0.3593 -2.0631
  531MOL0     H73276   7.053   0.912   9.890  1.5898 -3.2510 -2.4292
  531MOL0     H73277   7.050   1.036   9.772 -2.0471  0.9621  1.4775
  531MOL0     H73278   7.211   0.993   9.833  0.2350  2.5757  0.6591
  532MOL0     O73279   2.200  11.376   2.665 -0.5081 -0.1596  0.8995
  532MOL0     C73280   2.184  11.261   2.632  0.6739  0.1878  0.3298
  532MOL0     O73281   2.073  11.192   2.677  0.3727 -0.3707  0.1262
  532MOL0     C73282   1.990  11.240   2.782 -0.5152 -0.2869  0.4390
  532MOL0     C73283   1.847  11.234   2.773 -0.9027  0.8575  0.7183
  532MOL0     C73284   1.773  11.290   2.878  0.0640 -0.1329 -0.1430
  532MOL0     C73285   1.829  11.341   2.994  0.6978 -0.8941 -0.2590
  532MOL0     O73286   1.748  11.385   3.096 -0.3907 -0.4286 -0.1168
  532MOL0     C73287   1.738  11.531   3.088 -0.1455  0.3677 -0.1816
  532MOL0     C73288   1.613  11.572   3.160 -0.5155 -0.4915  0.0160
  532MOL0     C73289   1.478  11.524   3.094 -0.7047 -0.6681 -0.4605
  532MOL0     C73290   1.392  11.624   3.006  0.3226 -0.2823  0.2806
  532MOL0     C73291   1.299  11.722   3.075  0.3555 -0.3317 -0.7194
  532MOL0     C73292   1.386  11.836   3.135  0.8685 -0.7378 -0.5265
  532MOL0     C73293   1.299  11.966   3.166  0.3266 -0.0825 -0.7171
  532MOL0     C73294   1.215  11.951   3.298  0.8547  0.6790 -0.6138
  532MOL0     N73295   1.291  11.949   3.424 -0.3199  0.2324 -0.5752
  532MOL0     C73296   1.423  11.999   3.459  0.8224 -1.0540  0.1318
  532MOL0     C73297   1.436  11.970   3.585 -0.6661 -0.9919 -0.8615
  532MOL0     C73298   1.551  12.018   3.672 -0.3111 -0.1642  1.0106
  532MOL0     C73299   1.519  12.042   3.817  0.5092 -0.2085  0.6111
  532MOL0     C73300   1.529  11.907   3.892 -0.3020  0.1513  0.6903
  532MOL0     C73301   1.516  11.921   4.038  0.3098 -1.0117 -1.2571
  532MOL0     O73302   1.410  12.019   4.074  0.1194  0.4918 -0.2242
  532MOL0     C73303   1.324  11.960   4.165 -0.3331 -0.0480  0.2771
  532MOL0     C73304   1.354  11.934   4.295  0.5348  0.1707 -0.8253
  532MOL0     C73305   1.260  11.894   4.393  0.2146 -0.6144 -0.2462
  532MOL0     C73306   1.304  11.884   4.538  0.5375  0.4951  0.2738
  532MOL0     C73307   1.125  11.864   4.351 -0.5683  0.7137 -0.3351
  532MOL0     C73308   1.003  11.838   4.438  0.4328  0.0739  1.0580
  532MOL0     O73309   0.889  11.785   4.380  0.1173  0.1974 -0.4304
  532MOL0     C73310   0.801  11.721   4.458 -0.9673  0.3866 -0.3891
  532MOL0     C73311   0.846  11.604   4.530  0.2638  0.3113 -0.2214
  532MOL0     C73312   0.748  11.537   4.606  0.9626  0.4967  0.2248
  532MOL0     C73313   0.614  11.584   4.611 -0.5255  0.0728  0.0227
  532MOL0     O73314   0.527  11.517   4.692  0.7083  0.5379  0.8730
  532MOL0     C73315   0.394  11.564   4.706 -0.0341  0.2435  0.2214
  532MOL0     C73316   0.335  11.473   4.813 -0.1344 -0.0952  0.2415
  532MOL0     C73317   0.247  11.544   4.901 -0.4889 -0.1740  0.0843
  532MOL0     C73318   0.120  11.590   4.828  0.5138  0.2038  0.3398
  532MOL0     C73319   0.009  11.647   4.918 -0.5917 -0.9428 -0.3021
  532MOL0     C73320  -0.087  11.545   4.976 -0.0992 -0.2602 -0.2943
  532MOL0     C73321  -0.197  11.624   5.042 -0.6284 -0.6080 -0.0563
  532MOL0     C73322  -0.294  11.687   4.945  0.4337 -0.4814 -0.1803
  532MOL0    Cl73323  -0.445  11.738   5.033  0.1622  0.4992 -0.2669
  532MOL0     C73324   0.582  11.709   4.551 -0.9110  0.4768  0.0976
  532MOL0     C73325   0.675  11.760   4.465  0.4236 -0.9077  0.4039
  532MOL0     O73326   1.011  11.865   4.558 -0.1162 -0.9060 -0.3166
  532MOL0     C73327   1.099  11.875   4.213  0.0392  0.2741  0.2762
  532MOL0     C73328   1.190  11.931   4.118  0.7940  1.1649 -0.1165
  532MOL0     N73329   1.331  11.897   3.628 -0.7615  0.3504 -0.3791
  532MOL0     N73330   1.243  11.886   3.534 -0.0294  0.6232  0.1883
  532MOL0     C73331   1.966  11.348   3.006 -0.3065  1.2898 -0.1138
  532MOL0     C73332   2.047  11.288   2.901  0.7136 -0.1549  0.0349
  532MOL0     C73333   2.280  11.188   2.544 -0.2079 -0.2324  1.0405
  532MOL0     C73334   2.235  11.063   2.492 -0.1692  0.1214  0.2040
  532MOL0     C73335   2.321  10.995   2.407 -0.0947  0.5648  0.1135
  532MOL0     C73336   2.449  11.044   2.363  0.6612  0.2369 -0.6578
  532MOL0     O73337   2.543  10.983   2.281  0.8348  0.5299 -0.1687
  532MOL0     C73338   2.523  10.862   2.220 -0.1987  0.5163 -0.2209
  532MOL0     C73339   2.538  10.737   2.320 -0.1902 -0.1603  0.9106
  532MOL0     C73340   2.681  10.719   2.380 -0.5386  0.7136  0.6932
  532MOL0     C73341   2.793  10.684   2.280  0.1152 -0.5656 -0.0607
  532MOL0     C73342   2.928  10.723   2.335  0.6832  0.0711  0.7065
  532MOL0     C73343   3.046  10.762   2.346 -0.1171 -0.3190 -0.1591
  532MOL0     C73344   2.478  11.172   2.397 -0.2368 -0.6035 -0.5470
  532MOL0     C73345   2.406  11.243   2.497  0.1276 -0.7959 -1.3848
  532MOL0     C73346   2.462  11.372   2.548  0.1462 -0.1972 -0.2909
  532MOL0     H73347   1.785  11.186   2.697 -0.1628 -1.8441  1.7053
  532MOL0     H73348   1.667  11.291   2.853  0.1760  1.0357 -0.6335
  532MOL0     H73349   1.746  11.567   2.985  2.2486  2.3412  0.5793
  532MOL0     H73350   1.830  11.560   3.140 -0.1333 -1.3840  0.8278
  532MOL0     H73351   1.613  11.525   3.259 -1.8198 -3.7647 -1.3970
  532MOL0     H73352   1.620  11.680   3.176  1.9400 -0.1963 -2.2607
  532MOL0     H73353   1.510  11.441   3.030 -0.5119  0.3726 -1.7392
  532MOL0     H73354   1.422  11.491   3.182  0.8036 -1.9116  0.0984
  532MOL0     H73355   1.451  11.681   2.934  1.6474 -1.4443  0.4026
  532MOL0     H73356   1.333  11.562   2.938  1.2646 -2.0708  1.0366
  532MOL0     H73357   1.243  11.674   3.155 -0.1917  0.9876 -0.2789
  532MOL0     H73358   1.228  11.759   3.001 -3.2416 -1.1761  2.0196
  532MOL0     H73359   1.445  11.798   3.219  2.3243  0.1341 -1.1180
  532MOL0     H73360   1.471  11.863   3.072  4.0744  0.2412  3.7429
  532MOL0     H73361   1.228  11.976   3.083  1.6798 -0.7879 -2.0156
  532MOL0     H73362   1.356  12.059   3.177 -2.3555  1.3905  2.0014
  532MOL0     H73363   1.146  12.035   3.305 -1.0084 -0.9479  3.8322
  532MOL0     H73364   1.149  11.865   3.287  1.4787 -0.0916  1.3522
  532MOL0     H73365   1.475  12.071   3.396 -2.7348  0.7223 -1.0782
  532MOL0     H73366   1.574  12.111   3.618 -2.4840 -2.0606 -3.7560
  532MOL0     H73367   1.630  11.943   3.666 -0.7034 -0.5744  0.9328
  532MOL0     H73368   1.596  12.107   3.860  1.7094  2.5713 -4.8346
  532MOL0     H73369   1.416  12.076   3.811  1.2147  1.7639 -3.3036
  532MOL0     H73370   1.438  11.855   3.862  1.6706 -1.8601 -2.3416
  532MOL0     H73371   1.617  11.848   3.865 -1.1652 -0.6371 -0.5226
  532MOL0     H73372   1.511  11.818   4.076 -0.8534 -0.0747  1.3003
  532MOL0     H73373   1.602  11.968   4.086 -2.1016  0.2492  2.1741
  532MOL0     H73374   1.457  11.949   4.324  1.0469 -1.8530 -1.4235
  532MOL0     H73375   1.273  11.790   4.584  2.5015  1.0255  2.8630
  532MOL0     H73376   1.263  11.968   4.594 -0.1371  2.6266 -3.0799
  532MOL0     H73377   1.412  11.879   4.552  0.5191 -2.5253  0.0265
  532MOL0     H73378   0.945  11.560   4.531  0.6522  1.1574  0.7210
  532MOL0     H73379   0.768  11.443   4.657 -1.8084 -1.3511 -1.8304
  532MOL0     H73380   0.396  11.673   4.717 -1.2595  0.6326 -2.4275
  532MOL0     H73381   0.331  11.555   4.617  0.7560  3.1144 -0.7615
  532MOL0     H73382   0.277  11.391   4.770 -3.6607  1.1122  2.2927
  532MOL0     H73383   0.417  11.436   4.876 -0.1480 -3.5056 -1.4869
  532MOL0     H73384   0.296  11.637   4.934  1.1830 -1.4071  1.2561
  532MOL0     H73385   0.210  11.488   4.987 -3.5108  2.6342  0.8005
  532MOL0     H73386   0.073  11.501   4.783  1.9554 -1.2269  1.5738
  532MOL0     H73387   0.151  11.662   4.751 -0.5221  0.3028 -0.0095
  532MOL0     H73388   0.057  11.704   4.999  0.1878  0.2703 -1.5664
  532MOL0     H73389  -0.060  11.711   4.863 -2.3275 -2.3432  0.1557
  532MOL0     H73390  -0.036  11.481   5.048  1.3280 -1.4571 -2.2604
  532MOL0     H73391  -0.122  11.481   4.894  2.1620 -0.0254 -1.5409
  532MOL0     H73392  -0.149  11.701   5.104  0.7850 -0.9003 -0.7466
  532MOL0     H73393  -0.240  11.552   5.113  2.9226  2.1202  5.6331
  532MOL0     H73394  -0.329  11.614   4.871 -0.5418 -0.9564  0.7176
  532MOL0     H73395  -0.268  11.780   4.894 -5.0327  1.0663 -0.8587
  532MOL0     H73396   0.480  11.746   4.548 -1.7735 -1.7906 -0.4510
  532MOL0     H73397   0.641  11.846   4.407 -0.4883 -1.8270 -0.4469
  532MOL0     H73398   0.999  11.855   4.174 -0.9975  1.5720  2.0776
  532MOL0     H73399   1.179  11.941   4.010  1.7893 -0.6456 -0.4349
  532MOL0     H73400   2.012  11.396   3.092  0.3684 -0.6061  0.6160
  532MOL0     H73401   2.153  11.277   2.925  1.2341 -1.2421 -2.4163
  532MOL0     H73402   2.142  11.026   2.534 -1.1091  0.8146 -1.2234
  532MOL0     H73403   2.302  10.892   2.381  1.5927  0.5586 -1.2610
  532MOL0     H73404   2.425  10.845   2.173 -0.0466 -3.1459  0.4365
  532MOL0     H73405   2.594  10.867   2.137  1.6414  4.6094  1.3371
  532MOL0     H73406   2.517  10.646   2.263  1.4474  0.1462 -0.2403
  532MOL0     H73407   2.469  10.751   2.404  0.4987  2.5746  1.1109
  532MOL0     H73408   2.704  10.809   2.438 -3.3041  2.6994 -1.0278
  532MOL0     H73409   2.667  10.641   2.455 -4.3904 -1.2276 -1.7020
  532MOL0     H73410   2.785  10.749   2.193 -0.0781  0.0965  0.4382
  532MOL0     H73411   2.789  10.583   2.239 -0.1878 -0.4025 -0.4283
  532MOL0     H73412   3.143  10.795   2.377 -0.2262  1.4047 -1.5256
  532MOL0     H73413   2.570  11.217   2.360  0.2149  2.1251  3.2549
  532MOL0     H73414   2.406  11.455   2.505  0.5873  1.2635  1.7530
  532MOL0     H73415   2.449  11.393   2.655  0.9352 -0.4157 -0.1403
  532MOL0     H73416   2.570  11.382   2.531  0.1603  1.0329  0.4022
  533MOL0     O73417   2.151  10.113   3.684  0.0964 -0.5489  0.6437
  533MOL0     C73418   2.163  10.003   3.623  0.3787  0.3045 -0.9109
  533MOL0     O73419   2.279   9.932   3.588  0.2996 -0.1638  0.2996
  533MOL0     C73420   2.389  10.005   3.569 -1.0694 -0.7037 -0.3886
  533MOL0     C73421   2.437  10.055   3.446  0.6504 -0.2905  0.3908
  533MOL0     C73422   2.556  10.127   3.425  0.0806  0.0454  0.6063
  533MOL0     C73423   2.637  10.159   3.536 -0.7620  0.2533  0.2623
  533MOL0     O73424   2.758  10.231   3.526  0.9574  0.1040  0.3464
  533MOL0     C73425   2.804  10.282   3.399 -0.5056  0.5138 -0.3820
  533MOL0     C73426   2.950  10.329   3.404  0.1162 -0.1620 -0.1730
  533MOL0     C73427   2.997  10.364   3.256 -0.9366  0.4133 -0.3962
  533MOL0     C73428   3.134  10.425   3.246 -0.0626 -0.2823 -0.7967
  533MOL0     C73429   3.175  10.441   3.103  0.2480 -0.8691  0.2385
  533MOL0     C73430   3.321  10.486   3.105 -0.3489  0.4972  0.3016
  533MOL0     C73431   3.375  10.466   2.958  0.2169 -0.4622 -0.7295
  533MOL0     C73432   3.310  10.575   2.865  0.2228 -0.1581  0.0361
  533MOL0     N73433   3.393  10.603   2.746 -0.3634  1.0114  0.2916
  533MOL0     C73434   3.380  10.526   2.631 -0.4142 -0.9055 -0.3196
  533MOL0     C73435   3.426  10.610   2.532  0.1233 -0.6767  0.7889
  533MOL0     C73436   3.434  10.582   2.383 -0.6747 -0.3547 -0.2315
  533MOL0     C73437   3.577  10.588   2.345  0.0588 -0.5903 -0.1910
  533MOL0     C73438   3.662  10.464   2.385 -0.1194 -0.1191 -0.5431
  533MOL0     C73439   3.800  10.466   2.322 -0.9767 -0.1531  0.6874
  533MOL0     O73440   3.880  10.360   2.369  0.1038 -0.3500 -0.4085
  533MOL0     C73441   4.015  10.355   2.350 -0.4988  0.6204  0.3706
  533MOL0     C73442   4.084  10.420   2.249  0.5746 -0.3389 -0.1085
  533MOL0     C73443   4.218  10.388   2.225  0.5306 -1.0863  0.4350
  533MOL0     C73444   4.282  10.464   2.105  0.2280  0.4105 -1.0288
  533MOL0     C73445   4.291  10.302   2.317  0.1065 -0.5240 -0.7189
  533MOL0     C73446   4.429  10.261   2.307 -1.0604 -0.1847 -1.4060
  533MOL0     O73447   4.473  10.186   2.412  0.1321  0.6069 -0.4731
  533MOL0     C73448   4.590  10.124   2.430 -0.2028  0.3286  0.0361
  533MOL0     C73449   4.613  10.050   2.545  0.5106 -0.0487 -0.1981
  533MOL0     C73450   4.731   9.981   2.578  0.0307 -0.1672  0.6659
  533MOL0     C73451   4.831   9.988   2.487 -0.3371  0.5029  0.3596
  533MOL0     O73452   4.945   9.914   2.523  0.1521  0.1554  0.6505
  533MOL0     C73453   5.000   9.824   2.424 -0.5937  0.2739 -0.4050
  533MOL0     C73454   5.114   9.738   2.487  0.3582  0.5845 -0.6908
  533MOL0     C73455   5.208   9.669   2.393 -0.6055  0.0197  0.3076
  533MOL0     C73456   5.312   9.572   2.459 -0.4467  0.3314  0.2146
  533MOL0     C73457   5.425   9.641   2.539  0.1451 -0.4683  0.3013
  533MOL0     C73458   5.531   9.545   2.605  0.0342 -0.0278  0.2431
  533MOL0     C73459   5.634   9.620   2.693  0.2297 -0.8370  0.3584
  533MOL0     C73460   5.707   9.522   2.778 -0.0103 -0.1325  0.5823
  533MOL0    Cl73461   5.825   9.605   2.880 -0.0570  0.3576  0.1374
  533MOL0     C73462   4.817  10.053   2.367 -0.9013  0.0019 -0.3179
  533MOL0     C73463   4.697  10.121   2.334 -0.2855  0.0049 -0.0416
  533MOL0     O73464   4.502  10.310   2.219  0.4812 -0.6531  0.3749
  533MOL0     C73465   4.214  10.242   2.421  0.3266 -0.2867  0.5680
  533MOL0     C73466   4.079  10.266   2.436  0.4289  0.0311  0.4916
  533MOL0     N73467   3.458  10.734   2.582 -0.0073 -0.5502  0.1758
  533MOL0     N73468   3.442  10.723   2.712  0.6404  0.4102  0.0584
  533MOL0     C73469   2.582  10.121   3.667  0.1597  0.8490  0.7022
  533MOL0     C73470   2.468  10.042   3.682 -0.5841 -0.5016  0.4598
  533MOL0     C73471   2.033   9.935   3.622 -0.3488 -0.5259  0.5825
  533MOL0     C73472   2.002   9.843   3.718 -0.2194  0.2126 -0.6018
  533MOL0     C73473   1.869   9.800   3.724 -0.2871  0.5006 -0.1430
  533MOL0     C73474   1.770   9.853   3.648 -0.8872 -0.9803  0.4111
  533MOL0     O73475   1.639   9.820   3.658  0.0705 -0.5251  0.6472
  533MOL0     C73476   1.593   9.766   3.777  0.5552 -0.6621  0.1168
  533MOL0     C73477   1.454   9.824   3.813  0.2240  0.5600  0.4185
  533MOL0     C73478   1.425   9.749   3.951 -0.0143 -0.2501  0.5132
  533MOL0     C73479   1.271   9.772   3.994 -0.6063  0.0271  0.5375
  533MOL0     C73480   1.250   9.909   4.038 -0.1569  0.5383 -0.0432
  533MOL0     C73481   1.233  10.028   4.063 -0.1076  0.3569 -0.2833
  533MOL0     C73482   1.807   9.942   3.547 -0.0235  0.0206  0.2655
  533MOL0     C73483   1.937   9.981   3.527 -0.0432 -0.1856 -0.7785
  533MOL0     C73484   1.964  10.085   3.423 -0.1109  0.1779 -0.2933
  533MOL0     H73485   2.383  10.009   3.365  2.2197 -1.2149 -0.1691
  533MOL0     H73486   2.592  10.145   3.324  1.0554 -0.9089  0.7679
  533MOL0     H73487   2.730  10.352   3.360 -0.3402  0.3015 -1.1126
  533MOL0     H73488   2.807  10.189   3.340  1.1899  0.5299 -0.3738
  533MOL0     H73489   2.951  10.416   3.470  0.6104 -0.9764  0.9179
  533MOL0     H73490   3.006  10.246   3.448  0.0850 -0.6788 -1.0642
  533MOL0     H73491   3.000  10.277   3.189 -1.3925  0.3008 -0.2790
  533MOL0     H73492   2.921  10.427   3.209 -0.3190 -0.7127 -3.0914
  533MOL0     H73493   3.137  10.514   3.310  0.5117 -2.6633  2.7692
  533MOL0     H73494   3.208  10.361   3.294  1.1564  1.4144 -0.3540
  533MOL0     H73495   3.121  10.520   3.051  3.2940  1.1662 -0.0608
  533MOL0     H73496   3.159  10.348   3.047  0.9495 -0.6242 -0.3750
  533MOL0     H73497   3.321  10.592   3.134 -2.3097  0.3179  1.1196
  533MOL0     H73498   3.386  10.428   3.171  1.4986  2.9756  0.8269
  533MOL0     H73499   3.365  10.366   2.915 -4.5538  0.2966 -1.9363
  533MOL0     H73500   3.480  10.491   2.978 -0.8812  1.4362  3.7020
  533MOL0     H73501   3.216  10.533   2.828  1.0862 -1.6457 -0.6004
  533MOL0     H73502   3.294  10.666   2.922  0.4836  1.3837 -2.2039
  533MOL0     H73503   3.335  10.429   2.610  1.0258 -1.5337 -0.5986
  533MOL0     H73504   3.376  10.659   2.333  0.6909  1.1687  0.4470
  533MOL0     H73505   3.395  10.480   2.371  3.2154 -1.9236 -1.0397
  533MOL0     H73506   3.575  10.599   2.236 -0.0496  1.7808  0.0013
  533MOL0     H73507   3.623  10.677   2.387  3.0356 -2.4991  0.9778
  533MOL0     H73508   3.677  10.450   2.493 -0.9299  1.2767 -0.2239
  533MOL0     H73509   3.615  10.374   2.344  0.5355 -1.1084  0.7975
  533MOL0     H73510   3.789  10.462   2.213  0.3838 -0.5467  0.5405
  533MOL0     H73511   3.844  10.560   2.355  0.6707 -0.9734  0.9316
  533MOL0     H73512   4.035  10.486   2.179 -0.5117 -0.4963  0.4775
  533MOL0     H73513   4.207  10.536   2.070 -0.6185  0.3345  0.5305
  533MOL0     H73514   4.316  10.393   2.029  0.8133  0.1029 -0.4909
  533MOL0     H73515   4.374  10.515   2.135  1.2565 -2.2544  0.7889
  533MOL0     H73516   4.531  10.048   2.617  0.1223  1.7940 -0.5291
  533MOL0     H73517   4.727   9.911   2.661 -0.3684 -0.0491  0.7477
  533MOL0     H73518   4.926   9.750   2.392  0.0064 -1.9815  2.9675
  533MOL0     H73519   5.033   9.877   2.334  1.2559  1.2942  0.8016
  533MOL0     H73520   5.162   9.811   2.552 -1.1307  2.7350 -1.9186
  533MOL0     H73521   5.083   9.673   2.569 -1.0933  0.5951 -1.2111
  533MOL0     H73522   5.266   9.751   2.351  1.8811 -1.0620  1.3976
  533MOL0     H73523   5.154   9.617   2.314  1.8643 -1.0969 -0.7611
  533MOL0     H73524   5.355   9.504   2.385 -2.7886  0.9759 -1.8539
  533MOL0     H73525   5.264   9.500   2.525 -0.1267 -0.7467 -0.6820
  533MOL0     H73526   5.463   9.711   2.464 -2.0061 -0.2206 -0.6134
  533MOL0     H73527   5.386   9.707   2.617  0.2594  1.1136 -0.9267
  533MOL0     H73528   5.578   9.485   2.527 -0.1069 -1.2169  1.0403
  533MOL0     H73529   5.479   9.470   2.667 -1.2633 -1.9927 -2.9784
  533MOL0     H73530   5.568   9.674   2.761 -1.0251 -1.1134 -0.6073
  533MOL0     H73531   5.692   9.679   2.621 -0.3598 -1.5469 -0.7098
  533MOL0     H73532   5.751   9.441   2.718 -2.7110 -0.9851 -0.4032
  533MOL0     H73533   5.631   9.489   2.848 -0.8790  2.1818  0.8226
  533MOL0     H73534   4.896  10.047   2.293 -0.0308 -1.8209  0.6947
  533MOL0     H73535   4.695  10.183   2.245  1.4407  0.8206  0.4334
  533MOL0     H73536   4.255  10.186   2.504 -1.4424  0.3693  1.9465
  533MOL0     H73537   4.016  10.208   2.504 -2.2732  0.9607 -1.0647
  533MOL0     H73538   2.641  10.150   3.754  1.2371 -0.6326  0.5142
  533MOL0     H73539   2.431  10.025   3.783 -1.1762 -1.9414  0.0234
  533MOL0     H73540   2.082   9.827   3.790 -0.7205 -0.1279 -0.1151
  533MOL0     H73541   1.836   9.720   3.790 -0.5403  1.2693  0.6822
  533MOL0     H73542   1.598   9.658   3.757  0.6335 -0.5353 -0.5827
  533MOL0     H73543   1.656   9.794   3.861 -0.4978 -1.0005  1.0525
  533MOL0     H73544   1.389   9.783   3.735  1.8728  0.8731 -1.1863
  533MOL0     H73545   1.453   9.932   3.822  1.4314  0.5621  0.6765
  533MOL0     H73546   1.434   9.641   3.943 -2.4900 -0.5809  1.1222
  533MOL0     H73547   1.488   9.795   4.028 -1.6125  3.9005 -0.3794
  533MOL0     H73548   1.239   9.706   4.075 -0.8235  2.3564  2.4619
  533MOL0     H73549   1.214   9.749   3.903 -1.9667  2.4924  0.6944
  533MOL0     H73550   1.206  10.128   4.089 -0.7038  0.2418 -0.4376
  533MOL0     H73551   1.732   9.981   3.478 -0.4432  1.1249  1.3093
  533MOL0     H73552   2.067  10.083   3.387  0.7098  0.4150  1.8673
  533MOL0     H73553   1.890  10.082   3.342  1.5676  0.0920 -1.8920
  533MOL0     H73554   1.960  10.183   3.472  0.8555 -0.4575  1.0965
  534MOL0     O73555   2.210   2.793   7.238  0.4634 -0.4312 -0.2404
  534MOL0     C73556   2.219   2.912   7.201 -0.0891  1.0149  0.8092
  534MOL0     O73557   2.337   2.971   7.160 -0.8823  0.2383  0.3566
  534MOL0     C73558   2.459   2.944   7.207  0.3540  0.2403  0.0249
  534MOL0     C73559   2.488   2.887   7.334 -0.1304 -0.1269  0.5804
  534MOL0     C73560   2.619   2.872   7.383  0.5021 -0.1108 -0.8570
  534MOL0     C73561   2.728   2.921   7.307 -0.5926  0.5535  0.0386
  534MOL0     O73562   2.854   2.907   7.364 -0.2011 -0.6908  0.3495
  534MOL0     C73563   2.964   2.959   7.291 -0.2284 -0.0440  0.0156
  534MOL0     C73564   3.096   2.923   7.354 -0.9706 -0.1573  0.0459
  534MOL0     C73565   3.198   3.026   7.307  0.1647 -0.1581  0.1675
  534MOL0     C73566   3.345   3.002   7.365 -0.8458  0.5135  0.4197
  534MOL0     C73567   3.345   3.039   7.512  0.6396  0.0812  0.2811
  534MOL0     C73568   3.471   3.009   7.587 -0.3133 -0.6773 -1.0889
  534MOL0     C73569   3.600   3.048   7.508 -0.0177 -0.5042 -0.5463
  534MOL0     C73570   3.726   3.018   7.591 -0.7167 -0.9572  0.7661
  534MOL0     N73571   3.828   2.941   7.522 -0.4996 -0.0648 -0.4012
  534MOL0     C73572   3.839   2.806   7.514 -0.3131 -0.0071 -0.4773
  534MOL0     C73573   3.944   2.769   7.447  0.5237  0.4028  1.3561
  534MOL0     C73574   3.983   2.625   7.424  0.3436 -0.4759  0.4244
  534MOL0     C73575   3.892   2.559   7.314 -0.1374  1.1486 -0.7859
  534MOL0     C73576   3.882   2.642   7.181  0.0737 -0.4302 -0.3540
  534MOL0     C73577   4.009   2.695   7.123 -0.3996 -0.5785  0.6792
  534MOL0     O73578   4.111   2.597   7.102  0.5024 -0.3262  1.3425
  534MOL0     C73579   4.231   2.633   7.049  0.7303 -0.0160 -0.9573
  534MOL0     C73580   4.325   2.539   7.050  0.1079  0.5696  0.2290
  534MOL0     C73581   4.447   2.563   6.985 -0.1842  0.1033 -0.6364
  534MOL0     C73582   4.539   2.446   7.002  0.1386 -0.2519  0.2093
  534MOL0     C73583   4.476   2.685   6.922  1.2056 -0.1162  0.3146
  534MOL0     C73584   4.604   2.711   6.841  0.3058 -0.0201 -0.0396
  534MOL0     O73585   4.665   2.599   6.787  0.2430 -0.2091  0.5446
  534MOL0     C73586   4.792   2.618   6.727 -0.0144 -0.7227  0.1843
  534MOL0     C73587   4.897   2.541   6.780 -0.4149  1.0608  0.1217
  534MOL0     C73588   5.031   2.550   6.732  0.2226  0.5569  0.0212
  534MOL0     C73589   5.051   2.631   6.619 -0.3195 -0.0459 -0.1276
  534MOL0     O73590   5.179   2.637   6.556  0.5951 -0.3626  0.3946
  534MOL0     C73591   5.195   2.637   6.409 -0.2066 -0.1444 -0.5465
  534MOL0     C73592   5.207   2.487   6.376  0.3715  0.1240  0.1699
  534MOL0     C73593   5.322   2.470   6.282 -1.0379 -0.3278 -0.1269
  534MOL0     C73594   5.331   2.337   6.205  1.7509  0.1146 -0.7442
  534MOL0     C73595   5.477   2.326   6.134  0.7732  0.1481 -0.5427
  534MOL0     C73596   5.493   2.432   6.024  0.2937  0.7584 -0.0783
  534MOL0     C73597   5.599   2.381   5.928  0.0125  0.0163  0.1131
  534MOL0     C73598   5.614   2.477   5.809  0.5286  0.2404  0.2538
  534MOL0    Cl73599   5.684   2.628   5.873 -0.5148 -0.0188 -0.2220
  534MOL0     C73600   4.945   2.705   6.556 -0.1229 -0.1007 -1.6236
  534MOL0     C73601   4.817   2.699   6.612  0.9536  0.3627 -1.2508
  534MOL0     O73602   4.645   2.830   6.832 -0.1356  0.4817 -0.4350
  534MOL0     C73603   4.389   2.795   6.940  0.4019 -0.9360 -0.2763
  534MOL0     C73604   4.264   2.765   7.007 -0.1616  0.1013 -0.4048
  534MOL0     N73605   4.004   2.882   7.397 -0.6668  1.3063 -0.1931
  534MOL0     N73606   3.933   2.982   7.435  0.0747 -0.6480  0.4110
  534MOL0     C73607   2.698   2.982   7.186  0.6956  0.0100  0.7056
  534MOL0     C73608   2.566   2.998   7.137  0.2102  0.6376  0.0225
  534MOL0     C73609   2.091   2.987   7.180  0.0845  0.4173 -0.4995
  534MOL0     C73610   1.968   2.923   7.204 -0.3227  0.3787  0.2707
  534MOL0     C73611   1.848   2.992   7.201  0.0194 -1.2308 -0.9242
  534MOL0     C73612   1.838   3.125   7.172 -0.5777  0.4139 -0.2583
  534MOL0     O73613   1.713   3.180   7.181 -0.0161  0.5316 -0.3157
  534MOL0     C73614   1.708   3.323   7.170  0.0246 -0.3691 -1.2189
  534MOL0     C73615   1.581   3.366   7.244  0.0112  0.8755 -0.0402
  534MOL0     C73616   1.541   3.510   7.223 -0.7385 -0.3988  0.9188
  534MOL0     C73617   1.508   3.541   7.074  0.3934  0.4290  0.1578
  534MOL0     C73618   1.416   3.650   7.048  1.5951 -0.0114  0.8069
  534MOL0     C73619   1.332   3.730   7.001  0.1038  0.4633 -0.7119
  534MOL0     C73620   1.956   3.188   7.138 -0.1027 -0.4506  0.3983
  534MOL0     C73621   2.083   3.126   7.146 -0.0541 -0.5656 -0.0657
  534MOL0     C73622   2.193   3.212   7.104  0.2801  0.2914  0.0625
  534MOL0     H73623   2.401   2.844   7.383  0.4433  2.0503  3.8519
  534MOL0     H73624   2.626   2.819   7.478 -2.0238 -2.8332 -2.0050
  534MOL0     H73625   2.956   3.068   7.302  0.2742 -0.1466  1.6293
  534MOL0     H73626   2.959   2.928   7.186  1.4423  0.0400 -0.1184
  534MOL0     H73627   3.103   2.923   7.463  0.1801 -1.7576  0.0083
  534MOL0     H73628   3.125   2.825   7.314 -2.3015 -1.0843  1.2602
  534MOL0     H73629   3.202   3.031   7.198 -1.6697  0.5066  0.0876
  534MOL0     H73630   3.171   3.124   7.346 -1.2905 -1.1388  1.8081
  534MOL0     H73631   3.379   2.899   7.355  0.3987  0.6759  2.4534
  534MOL0     H73632   3.418   3.070   7.321  3.1505 -4.0352 -0.8127
  534MOL0     H73633   3.266   2.986   7.566 -0.3808  1.9789  0.7191
  534MOL0     H73634   3.325   3.146   7.516  3.3508  0.6499  1.0787
  534MOL0     H73635   3.468   3.064   7.681  2.0545  0.2693 -1.4994
  534MOL0     H73636   3.469   2.903   7.614 -2.4697  0.0472  2.2382
  534MOL0     H73637   3.587   3.156   7.492 -0.1721  0.2124  3.5094
  534MOL0     H73638   3.605   2.987   7.417  0.9453 -1.7014  0.2870
  534MOL0     H73639   3.781   3.111   7.604 -1.0951 -0.2013 -2.3272
  534MOL0     H73640   3.701   2.956   7.678 -1.1292  0.9296  2.0499
  534MOL0     H73641   3.779   2.738   7.574  0.7678 -0.8395 -0.3139
  534MOL0     H73642   3.974   2.573   7.520 -4.1724 -2.0172 -0.6005
  534MOL0     H73643   4.087   2.625   7.390  0.2982  1.9536  0.0748
  534MOL0     H73644   3.927   2.462   7.276 -2.5074  0.2675 -0.8297
  534MOL0     H73645   3.799   2.526   7.360  1.0375 -2.5792 -0.7015
  534MOL0     H73646   3.819   2.595   7.105 -2.0381  0.3600  0.8494
  534MOL0     H73647   3.817   2.727   7.204  0.3363 -0.3246  0.0119
  534MOL0     H73648   3.998   2.736   7.022  0.9372 -1.3317  0.2090
  534MOL0     H73649   4.029   2.788   7.178 -1.4897  0.4608 -0.5929
  534MOL0     H73650   4.299   2.445   7.098 -0.3944 -0.3357 -1.6936
  534MOL0     H73651   4.641   2.483   7.019 -0.0877  0.8820 -0.7584
  534MOL0     H73652   4.540   2.381   6.914 -2.0551  1.6103 -1.2892
  534MOL0     H73653   4.516   2.387   7.091 -2.2697  0.9358  0.4471
  534MOL0     H73654   4.881   2.459   6.849 -0.7741  0.2952 -0.8532
  534MOL0     H73655   5.112   2.487   6.766 -0.3823 -0.8186 -1.0298
  534MOL0     H73656   5.123   2.693   6.348  0.0350  2.4277  1.3437
  534MOL0     H73657   5.286   2.695   6.392  0.9307 -1.9265 -0.7220
  534MOL0     H73658   5.221   2.422   6.462 -0.8652 -2.2394 -1.3162
  534MOL0     H73659   5.113   2.461   6.326 -2.2002  4.9602  1.8263
  534MOL0     H73660   5.415   2.491   6.334  0.0293 -2.7595 -0.8773
  534MOL0     H73661   5.312   2.550   6.208 -2.0432  0.7834  1.1661
  534MOL0     H73662   5.250   2.326   6.131  0.5089 -1.1056  0.7353
  534MOL0     H73663   5.315   2.259   6.280  0.0873  0.9325 -0.1900
  534MOL0     H73664   5.565   2.327   6.198 -0.0175 -1.6940  0.6614
  534MOL0     H73665   5.479   2.225   6.091 -0.4716 -0.3041  0.3793
  534MOL0     H73666   5.512   2.530   6.068 -0.5471  1.4963 -1.2755
  534MOL0     H73667   5.400   2.438   5.966  1.1760 -1.2151 -1.8363
  534MOL0     H73668   5.566   2.284   5.892  0.0607 -1.0045  2.6287
  534MOL0     H73669   5.691   2.358   5.982 -0.4359 -1.4588  0.2860
  534MOL0     H73670   5.525   2.483   5.745  1.5732 -1.1133 -1.3905
  534MOL0     H73671   5.695   2.439   5.747 -0.3063  0.0027 -0.7171
  534MOL0     H73672   4.964   2.759   6.464 -0.7294 -0.4418 -1.9491
  534MOL0     H73673   4.730   2.740   6.563 -2.4381 -1.2386  2.8302
  534MOL0     H73674   4.415   2.892   6.900 -1.7973 -0.2821 -0.2430
  534MOL0     H73675   4.184   2.838   7.010  0.5571  1.4646 -5.3841
  534MOL0     H73676   2.780   3.016   7.123 -0.1459  0.3298 -0.2427
  534MOL0     H73677   2.559   3.041   7.037  0.8717  1.9872  0.5358
  534MOL0     H73678   1.952   2.816   7.214 -2.5615  0.3295 -2.4508
  534MOL0     H73679   1.751   2.947   7.219 -0.0832 -1.4810 -2.0034
  534MOL0     H73680   1.792   3.360   7.229 -1.2935 -1.2674  1.4119
  534MOL0     H73681   1.712   3.359   7.068 -0.7708  0.6301 -0.9094
  534MOL0     H73682   1.587   3.344   7.351 -1.3477  0.1749 -0.0820
  534MOL0     H73683   1.510   3.301   7.192  3.2797  0.5324 -4.6764
  534MOL0     H73684   1.448   3.525   7.279 -0.5368  0.9763  0.9174
  534MOL0     H73685   1.610   3.581   7.270  1.4226  0.3373 -2.8994
  534MOL0     H73686   1.468   3.452   7.024 -0.1594  0.3708  0.6974
  534MOL0     H73687   1.592   3.578   7.013 -0.4076  0.8310 -0.7251
  534MOL0     H73688   1.261   3.806   6.975  2.9192  3.8522  0.7240
  534MOL0     H73689   1.951   3.287   7.092 -0.4398 -1.8327 -2.7495
  534MOL0     H73690   2.155   3.314   7.098 -0.9659  0.2568  4.2937
  534MOL0     H73691   2.268   3.205   7.183 -1.4488 -2.1866  1.6404
  534MOL0     H73692   2.242   3.177   7.013  0.0563  0.6172 -0.1838
  535MOL0     O73693   3.048   7.816   2.952 -0.3413 -0.9396  0.3672
  535MOL0     C73694   3.107   7.812   2.846 -0.1989 -0.1110 -0.0359
  535MOL0     O73695   3.251   7.809   2.834 -0.0849  0.5135 -0.5893
  535MOL0     C73696   3.322   7.777   2.950  0.0058 -0.2133 -0.4399
  535MOL0     C73697   3.278   7.694   3.058 -0.2747  0.1970 -0.0284
  535MOL0     C73698   3.361   7.673   3.167 -0.2627 -0.5006  0.1301
  535MOL0     C73699   3.494   7.736   3.177 -0.1033 -0.1824  0.5562
  535MOL0     O73700   3.584   7.718   3.273  0.5770  0.6323  1.2015
  535MOL0     C73701   3.566   7.623   3.377 -0.5427 -0.8290  0.5934
  535MOL0     C73702   3.677   7.624   3.483  0.5674  0.3741 -0.3232
  535MOL0     C73703   3.804   7.560   3.430  0.4000  0.6539  0.0577
  535MOL0     C73704   3.905   7.534   3.545  0.6573 -0.2309  0.0216
  535MOL0     C73705   4.034   7.498   3.485 -0.4740  0.3439 -1.1277
  535MOL0     C73706   4.135   7.444   3.577 -0.5669 -0.1060 -0.8052
  535MOL0     C73707   4.253   7.398   3.506  0.4380  0.2798 -0.2116
  535MOL0     C73708   4.385   7.378   3.590  0.0517 -0.8177  0.2055
  535MOL0     N73709   4.403   7.236   3.634  1.0494  0.7933  0.2112
  535MOL0     C73710   4.435   7.126   3.558 -0.8757 -0.9751  0.6406
  535MOL0     C73711   4.457   7.041   3.647  0.6930  0.0945  0.0379
  535MOL0     C73712   4.495   6.902   3.617 -0.1499 -0.1474 -0.6808
  535MOL0     C73713   4.655   6.881   3.652  0.2764 -0.6376  0.7598
  535MOL0     C73714   4.737   6.970   3.565 -0.4339  0.0615  0.5327
  535MOL0     C73715   4.887   6.916   3.558  0.6585 -1.3367  0.0607
  535MOL0     O73716   4.962   7.015   3.496  0.5803 -0.3012  0.0921
  535MOL0     C73717   5.092   6.997   3.500 -0.9531  0.5206  0.0749
  535MOL0     C73718   5.160   7.081   3.585  0.3601 -1.2068 -0.0658
  535MOL0     C73719   5.299   7.071   3.591  0.2201 -0.3735  0.0981
  535MOL0     C73720   5.359   7.154   3.695 -0.1075  0.0396 -0.6734
  535MOL0     C73721   5.375   7.003   3.490  0.2153  0.3942  0.2652
  535MOL0     C73722   5.527   7.007   3.476 -0.1066 -0.5962  0.2725
  535MOL0     O73723   5.574   6.937   3.365 -0.4867 -0.4293  0.5533
  535MOL0     C73724   5.705   6.906   3.356 -0.1961  0.2307  0.7028
  535MOL0     C73725   5.776   6.930   3.232  0.4234 -1.1193 -0.9845
  535MOL0     C73726   5.908   6.900   3.218 -0.5038 -0.2321  0.3981
  535MOL0     C73727   5.970   6.818   3.314 -0.4073  0.0148 -0.3629
  535MOL0     O73728   6.098   6.765   3.293 -0.4529 -0.0957  0.7129
  535MOL0     C73729   6.194   6.847   3.361  0.4321  0.7692 -0.7191
  535MOL0     C73730   6.225   6.976   3.288  0.4247 -0.6383 -0.1165
  535MOL0     C73731   6.308   6.945   3.162  0.4497 -0.6588  0.1894
  535MOL0     C73732   6.449   6.900   3.196 -0.3141 -0.5920 -0.1558
  535MOL0     C73733   6.540   6.902   3.076  0.6691 -0.3833  0.0781
  535MOL0     C73734   6.688   6.888   3.107 -0.3590  0.6506 -0.0396
  535MOL0     C73735   6.765   6.980   3.207  0.1976  0.2930  0.3939
  535MOL0     C73736   6.916   6.942   3.205 -0.3314 -0.0823 -0.4193
  535MOL0    Cl73737   7.011   7.072   3.276 -0.3040 -0.1057  0.0404
  535MOL0     C73738   5.906   6.782   3.427 -0.2509  0.1353 -1.2740
  535MOL0     C73739   5.774   6.832   3.452 -0.0877 -0.3471  0.0858
  535MOL0     O73740   5.597   7.059   3.558 -0.2406 -0.0912  0.0209
  535MOL0     C73741   5.299   6.930   3.392 -0.6714  0.3377 -0.8399
  535MOL0     C73742   5.161   6.925   3.405 -0.4807  0.1527 -0.9647
  535MOL0     N73743   4.450   7.096   3.775 -0.0781  0.0843 -0.0774
  535MOL0     N73744   4.401   7.212   3.768  0.5173 -0.5358 -0.0206
  535MOL0     C73745   3.530   7.820   3.071 -0.2869  0.1644  0.7190
  535MOL0     C73746   3.451   7.840   2.959 -0.2110 -0.0590 -0.3792
  535MOL0     C73747   3.037   7.847   2.721  0.0086 -0.3581  0.4136
  535MOL0     C73748   3.110   7.824   2.603  0.0959  0.9083  0.0957
  535MOL0     C73749   3.064   7.869   2.483  0.1003  0.4243 -0.0302
  535MOL0     C73750   2.944   7.943   2.473 -0.7569 -0.8412  0.2053
  535MOL0     O73751   2.885   7.982   2.357 -0.6010  0.8927 -0.4731
  535MOL0     C73752   2.796   7.874   2.307 -0.7532 -0.3694 -0.6668
  535MOL0     C73753   2.762   7.890   2.161 -0.6832  0.5692  0.4744
  535MOL0     C73754   2.752   7.767   2.065 -0.0136  0.6047  0.5582
  535MOL0     C73755   2.701   7.800   1.919 -0.2720 -0.4945 -0.0345
  535MOL0     C73756   2.719   7.683   1.826 -0.1688 -0.0244  0.8864
  535MOL0     C73757   2.710   7.591   1.743 -0.1305  0.8529  0.4421
  535MOL0     C73758   2.872   7.968   2.583 -0.3407 -0.5452 -0.4853
  535MOL0     C73759   2.920   7.925   2.715  0.4979 -0.3537 -0.1793
  535MOL0     C73760   2.857   7.993   2.832 -0.1929  0.1671 -0.1013
  535MOL0     H73761   3.177   7.656   3.064  0.9197 -4.1137 -2.7840
  535MOL0     H73762   3.325   7.616   3.252 -2.2484  0.3418 -0.0840
  535MOL0     H73763   3.542   7.524   3.338 -4.3870  0.3781 -0.5070
  535MOL0     H73764   3.478   7.669   3.422 -0.5505  2.4826 -2.3626
  535MOL0     H73765   3.700   7.721   3.529 -0.9580  1.3671 -1.5781
  535MOL0     H73766   3.634   7.563   3.563 -0.6604  0.4695 -0.8860
  535MOL0     H73767   3.779   7.465   3.382  0.4641  1.3620 -1.4169
  535MOL0     H73768   3.844   7.621   3.349 -1.5647  1.3487 -0.4435
  535MOL0     H73769   3.912   7.611   3.623  0.1123 -1.2853  1.1530
  535MOL0     H73770   3.866   7.444   3.594 -2.4543  0.6202 -0.7083
  535MOL0     H73771   4.074   7.593   3.449  2.3226 -0.5650 -0.6437
  535MOL0     H73772   4.022   7.438   3.394 -1.0060 -0.5117 -0.5126
  535MOL0     H73773   4.154   7.509   3.662 -3.9130  1.6703 -1.2422
  535MOL0     H73774   4.093   7.357   3.630 -2.7484  0.7078 -1.0769
  535MOL0     H73775   4.268   7.468   3.423  1.3565  2.6127  1.7903
  535MOL0     H73776   4.230   7.307   3.449 -0.7711  1.6757 -2.1107
  535MOL0     H73777   4.470   7.400   3.525 -0.5904  0.1154 -0.3360
  535MOL0     H73778   4.392   7.444   3.677  2.2842 -2.0679  1.0724
  535MOL0     H73779   4.430   7.118   3.450 -0.1620 -2.7222  0.7085
  535MOL0     H73780   4.473   6.874   3.514  0.3512 -0.4922 -0.6952
  535MOL0     H73781   4.434   6.844   3.686 -3.3497  1.1395 -2.2077
  535MOL0     H73782   4.673   6.916   3.754 -0.2779  1.2760  0.2324
  535MOL0     H73783   4.681   6.775   3.649 -0.2510 -0.7992  1.4858
  535MOL0     H73784   4.689   6.978   3.467  0.0971  1.2869  0.3504
  535MOL0     H73785   4.747   7.070   3.610  1.4226 -0.7194  1.9750
  535MOL0     H73786   4.913   6.912   3.664 -2.2814  0.5412  0.9925
  535MOL0     H73787   4.889   6.820   3.506  0.0667 -1.3986  0.1445
  535MOL0     H73788   5.109   7.145   3.655  0.6318  2.3443 -2.8267
  535MOL0     H73789   5.449   7.209   3.665  1.2897 -1.2182  1.0339
  535MOL0     H73790   5.402   7.089   3.771  1.9730  0.3922 -1.4863
  535MOL0     H73791   5.290   7.223   3.743 -0.7369 -1.6908  1.0190
  535MOL0     H73792   5.720   6.958   3.143  0.5305  1.3570 -0.3408
  535MOL0     H73793   5.966   6.915   3.127 -1.3785 -1.8353 -0.4818
  535MOL0     H73794   6.166   6.868   3.464  0.9396 -0.0870 -0.3930
  535MOL0     H73795   6.279   6.781   3.380 -0.1840  0.4902  1.3183
  535MOL0     H73796   6.129   7.022   3.260 -0.5091 -0.2234  3.3192
  535MOL0     H73797   6.279   7.054   3.343  1.5868 -1.1123 -0.5621
  535MOL0     H73798   6.302   7.016   3.080  0.8349 -0.7375  0.0872
  535MOL0     H73799   6.264   6.859   3.111 -2.9264  0.6368  0.7122
  535MOL0     H73800   6.435   6.799   3.236  0.2724 -0.8656 -0.6332
  535MOL0     H73801   6.488   6.964   3.275 -0.2045  1.7259 -1.9935
  535MOL0     H73802   6.519   6.827   2.999 -0.6401 -0.2361  0.2812
  535MOL0     H73803   6.521   6.997   3.024  2.2232 -0.0487  0.0615
  535MOL0     H73804   6.736   6.892   3.009 -2.4549  0.1856 -1.1342
  535MOL0     H73805   6.698   6.791   3.157  0.9428  1.1791  0.7849
  535MOL0     H73806   6.725   6.970   3.308  0.0119  4.0102  0.8326
  535MOL0     H73807   6.752   7.083   3.173  0.1631  0.4953  1.0047
  535MOL0     H73808   6.945   6.931   3.100 -0.8617  4.0138 -1.1812
  535MOL0     H73809   6.931   6.850   3.262 -0.5063 -0.7360 -1.3838
  535MOL0     H73810   5.966   6.722   3.495  2.3541  1.2649 -2.4422
  535MOL0     H73811   5.735   6.812   3.551  2.1369  0.2613  1.1527
  535MOL0     H73812   5.347   6.882   3.307  0.6293  0.7831 -0.3708
  535MOL0     H73813   5.082   6.880   3.345 -3.1378  1.3465  1.4431
  535MOL0     H73814   3.626   7.870   3.073 -0.9812  1.6020 -0.3277
  535MOL0     H73815   3.497   7.899   2.881  1.2726  2.4524  2.1708
  535MOL0     H73816   3.205   7.771   2.602 -0.0236  0.4475  3.2813
  535MOL0     H73817   3.112   7.845   2.389 -1.6916 -2.0188 -0.4107
  535MOL0     H73818   2.822   7.770   2.332  2.9589  0.6893  0.5561
  535MOL0     H73819   2.702   7.877   2.361  0.3110 -3.2499  1.6399
  535MOL0     H73820   2.827   7.966   2.116 -1.8452 -0.9459 -4.4669
  535MOL0     H73821   2.664   7.940   2.161  1.4086  5.1759  0.7176
  535MOL0     H73822   2.846   7.710   2.062 -0.5433 -0.3072 -2.9582
  535MOL0     H73823   2.672   7.703   2.103  1.0000 -1.1701 -0.1771
  535MOL0     H73824   2.724   7.898   1.875  0.0972 -1.1603 -1.3697
  535MOL0     H73825   2.592   7.814   1.925 -0.3158 -0.4146 -0.8486
  535MOL0     H73826   2.691   7.507   1.679 -4.2420 -0.3947  2.9206
  535MOL0     H73827   2.787   8.033   2.563  0.6050  0.9749  0.3016
  535MOL0     H73828   2.770   8.049   2.798  0.0724  0.4879 -0.2575
  535MOL0     H73829   2.816   7.922   2.904 -0.1658  0.0792 -0.1720
  535MOL0     H73830   2.930   8.064   2.871  2.3340 -1.3401 -1.7648
  536MOL0     O73831   3.702   3.580   2.910 -0.1009  0.1610 -0.7497
  536MOL0     C73832   3.760   3.493   2.974 -0.1360 -0.8484  0.2482
  536MOL0     O73833   3.851   3.405   2.920 -0.2526 -0.7875  0.4000
  536MOL0     C73834   3.892   3.432   2.793  0.3898  0.7301 -0.5844
  536MOL0     C73835   4.020   3.484   2.763 -0.3456  0.2559 -0.2264
  536MOL0     C73836   4.067   3.498   2.630 -0.3866 -0.0796  0.4655
  536MOL0     C73837   3.987   3.456   2.524  0.7823  0.7036 -0.0079
  536MOL0     O73838   4.035   3.474   2.397 -0.1840  0.5731  0.3746
  536MOL0     C73839   4.010   3.361   2.312  0.6757 -0.0192  0.1157
  536MOL0     C73840   4.087   3.375   2.182  0.9322  0.0059  0.3631
  536MOL0     C73841   4.236   3.391   2.214  0.1603 -0.2581  0.1036
  536MOL0     C73842   4.300   3.284   2.304 -0.5173 -0.0471  0.3423
  536MOL0     C73843   4.451   3.260   2.257  0.2232 -0.2529 -0.1270
  536MOL0     C73844   4.553   3.376   2.293 -0.1893 -0.0714 -0.4696
  536MOL0     C73845   4.567   3.411   2.439  0.2969  0.2116 -0.1247
  536MOL0     C73846   4.623   3.294   2.532 -0.2235  0.2041 -0.4633
  536MOL0     N73847   4.754   3.252   2.481  0.1009 -0.8977 -0.4222
  536MOL0     C73848   4.778   3.160   2.383 -0.0816 -0.6747  0.1669
  536MOL0     C73849   4.916   3.161   2.373 -0.2231 -0.6460 -0.3925
  536MOL0     C73850   5.000   3.082   2.278  0.6627 -0.6137  0.8142
  536MOL0     C73851   5.014   3.161   2.145  0.0074  0.1684 -0.1575
  536MOL0     C73852   5.082   3.065   2.052 -0.0738  0.5127 -0.0326
  536MOL0     C73853   5.204   2.990   2.105  0.4183 -0.4422 -0.3985
  536MOL0     O73854   5.314   3.078   2.147  0.3387 -1.0751  0.3372
  536MOL0     C73855   5.436   3.029   2.194 -0.3851  0.0324 -0.2229
  536MOL0     C73856   5.494   2.899   2.176  0.7728 -0.0407  0.1788
  536MOL0     C73857   5.626   2.860   2.208 -0.9376  0.0775 -0.3366
  536MOL0     C73858   5.680   2.722   2.187  0.6602  0.3954 -0.1138
  536MOL0     C73859   5.706   2.959   2.264 -0.8057 -0.4380  0.5942
  536MOL0     C73860   5.857   2.931   2.282 -0.5844 -0.2402  0.1373
  536MOL0     O73861   5.907   2.975   2.397  0.0424 -0.6726 -0.6831
  536MOL0     C73862   6.042   2.986   2.417 -0.2270  0.1644  0.2735
  536MOL0     C73863   6.097   3.100   2.468 -0.1573  1.4307  1.0892
  536MOL0     C73864   6.236   3.122   2.494  0.1490  0.4076  0.1256
  536MOL0     C73865   6.325   3.013   2.479  0.4610 -0.0940 -0.9044
  536MOL0     O73866   6.461   3.017   2.505  0.9184 -0.7464  0.3418
  536MOL0     C73867   6.562   2.981   2.410  0.3728  0.2223 -0.7278
  536MOL0     C73868   6.704   2.997   2.467  0.2416 -0.1942 -1.4311
  536MOL0     C73869   6.740   3.139   2.519  0.0135  0.2012  0.0117
  536MOL0     C73870   6.813   3.137   2.665  0.2949  0.1396  0.8838
  536MOL0     C73871   6.856   3.275   2.700  0.6291  0.7698 -0.6977
  536MOL0     C73872   6.991   3.323   2.630  0.2299 -0.3481 -0.3435
  536MOL0     C73873   7.033   3.449   2.693 -1.2356 -0.3895 -0.1809
  536MOL0     C73874   7.101   3.429   2.833 -0.9331  0.0961 -0.2746
  536MOL0    Cl73875   7.248   3.535   2.843 -0.0573  0.4306 -0.2435
  536MOL0     C73876   6.271   2.892   2.431 -0.2675  0.6251 -0.7343
  536MOL0     C73877   6.135   2.880   2.392  0.5018 -0.1696  0.0077
  536MOL0     O73878   5.921   2.881   2.188 -0.1366 -0.3389 -0.1363
  536MOL0     C73879   5.656   3.086   2.294 -0.3760  0.6092 -0.1514
  536MOL0     C73880   5.519   3.118   2.271 -0.4768  0.4041  0.3483
  536MOL0     N73881   4.965   3.245   2.473 -0.1861  0.3126  0.3737
  536MOL0     N73882   4.866   3.297   2.539  0.7494 -0.2659 -0.3754
  536MOL0     C73883   3.857   3.398   2.549  0.0681 -0.2621 -0.9632
  536MOL0     C73884   3.817   3.387   2.685  0.4743  0.2146 -0.3190
  536MOL0     C73885   3.731   3.476   3.117 -0.6246  0.7095 -0.1101
  536MOL0     C73886   3.663   3.574   3.180 -0.1278 -0.1457  0.2580
  536MOL0     C73887   3.632   3.576   3.315  1.1391  0.5214 -0.4681
  536MOL0     C73888   3.659   3.463   3.398 -0.8413  0.3582  0.0701
  536MOL0     O73889   3.599   3.449   3.523 -0.2270 -0.2414  0.3890
  536MOL0     C73890   3.672   3.363   3.619  0.0749 -0.3589  0.2570
  536MOL0     C73891   3.678   3.417   3.753  0.7326  0.8467 -0.8902
  536MOL0     C73892   3.536   3.431   3.808 -1.0016 -0.7195 -0.9109
  536MOL0     C73893   3.482   3.301   3.853 -0.4694 -0.4864 -0.9881
  536MOL0     C73894   3.337   3.325   3.888 -0.1575 -0.5093 -0.4959
  536MOL0     C73895   3.222   3.356   3.922 -0.2838 -0.2050 -1.3267
  536MOL0     C73896   3.735   3.368   3.334 -0.1372 -0.4610  0.0615
  536MOL0     C73897   3.766   3.367   3.196 -1.1228 -1.1740  0.6809
  536MOL0     C73898   3.835   3.240   3.134 -0.0154 -0.0978 -0.6586
  536MOL0     H73899   4.078   3.511   2.851 -2.4233  0.0634  1.2903
  536MOL0     H73900   4.170   3.529   2.614 -0.5021  0.3755  0.5755
  536MOL0     H73901   3.906   3.357   2.280 -0.4011  4.7308  2.2950
  536MOL0     H73902   4.045   3.266   2.354 -1.1033 -0.9711 -0.4476
  536MOL0     H73903   4.077   3.280   2.127 -1.3713 -1.2756  2.7881
  536MOL0     H73904   4.052   3.462   2.126  1.9459 -0.3992 -0.9641
  536MOL0     H73905   4.279   3.378   2.114 -1.0908 -0.7802 -0.3916
  536MOL0     H73906   4.251   3.490   2.257 -1.9856  0.0194  0.3249
  536MOL0     H73907   4.289   3.318   2.407 -2.8984 -0.2361  0.1955
  536MOL0     H73908   4.251   3.186   2.299 -2.1869  0.6918  1.5468
  536MOL0     H73909   4.455   3.236   2.150 -1.3514 -2.7745  0.3003
  536MOL0     H73910   4.486   3.172   2.311  0.4298 -0.2508 -0.2598
  536MOL0     H73911   4.649   3.360   2.243  1.4735  2.6073  1.5996
  536MOL0     H73912   4.515   3.466   2.243  3.8067  1.6493 -0.7820
  536MOL0     H73913   4.475   3.440   2.491  1.5783  0.5987  2.0785
  536MOL0     H73914   4.638   3.494   2.436 -1.6314  1.9379 -0.0069
  536MOL0     H73915   4.640   3.327   2.635  0.1702 -1.0419 -0.1130
  536MOL0     H73916   4.562   3.203   2.530  0.9537 -0.5946 -0.7223
  536MOL0     H73917   4.704   3.099   2.332 -1.6957  2.2571 -1.2737
  536MOL0     H73918   4.946   2.988   2.266 -1.6038  0.6639  0.4965
  536MOL0     H73919   5.103   3.074   2.316  0.2358  0.2502  2.2239
  536MOL0     H73920   4.915   3.189   2.107  1.1297  3.0841 -1.1580
  536MOL0     H73921   5.069   3.253   2.164 -0.3266  0.1729  0.8663
  536MOL0     H73922   5.011   2.985   2.029 -0.1177  0.1288  1.3883
  536MOL0     H73923   5.112   3.111   1.957  0.6487 -0.3499 -0.2257
  536MOL0     H73924   5.185   2.928   2.193 -2.7813  1.5393  0.4760
  536MOL0     H73925   5.240   2.924   2.026 -0.6803 -3.9468  1.7908
  536MOL0     H73926   5.432   2.820   2.133 -0.1184  0.4853  0.4616
  536MOL0     H73927   5.599   2.650   2.175  1.0428  0.2216 -1.9362
  536MOL0     H73928   5.748   2.694   2.268  1.0768 -0.8081 -0.8583
  536MOL0     H73929   5.729   2.726   2.089 -0.4796  1.2923 -0.6655
  536MOL0     H73930   6.026   3.180   2.485 -0.8308  0.9836  0.4254
  536MOL0     H73931   6.275   3.219   2.526 -1.7091  0.5773  2.1012
  536MOL0     H73932   6.546   2.882   2.366 -4.4967  0.9300 -1.0893
  536MOL0     H73933   6.556   3.057   2.331 -1.3701  1.9099  0.8850
  536MOL0     H73934   6.714   2.927   2.551 -1.1684 -1.9351 -2.6204
  536MOL0     H73935   6.772   2.953   2.394 -1.6226 -2.8743 -1.7213
  536MOL0     H73936   6.666   3.218   2.527  2.0916  2.2284  0.3172
  536MOL0     H73937   6.815   3.165   2.443  1.5896  0.4807  1.5857
  536MOL0     H73938   6.894   3.064   2.654 -1.2270 -1.2520 -2.2591
  536MOL0     H73939   6.744   3.089   2.735 -0.0559 -0.1651  0.3361
  536MOL0     H73940   6.790   3.357   2.668 -0.5550  0.6238  1.2436
  536MOL0     H73941   6.876   3.278   2.807 -0.8229 -3.7216 -0.1029
  536MOL0     H73942   6.968   3.342   2.525 -3.3272 -1.0306  0.1824
  536MOL0     H73943   7.063   3.243   2.649 -0.3896 -0.4609  1.8530
  536MOL0     H73944   6.946   3.513   2.709 -0.7263  0.2322  0.1489
  536MOL0     H73945   7.113   3.486   2.627 -0.4175 -4.5405 -1.8670
  536MOL0     H73946   7.135   3.325   2.839  1.1479  0.7860  0.9008
  536MOL0     H73947   7.040   3.453   2.921 -1.2825  3.5160 -1.3070
  536MOL0     H73948   6.335   2.805   2.417  0.1101 -0.2360  4.3800
  536MOL0     H73949   6.116   2.785   2.342  1.0896 -1.4244  2.0435
  536MOL0     H73950   5.721   3.162   2.338  0.7512  2.6935 -4.8306
  536MOL0     H73951   5.483   3.218   2.293 -0.8611 -0.1140  2.2086
  536MOL0     H73952   3.788   3.353   2.479 -0.2120 -1.8570  0.2762
  536MOL0     H73953   3.717   3.348   2.701  0.4097 -0.8455 -2.9693
  536MOL0     H73954   3.614   3.655   3.127 -0.1963  1.0144  2.0189
  536MOL0     H73955   3.569   3.657   3.353  0.4605 -1.0111  1.9008
  536MOL0     H73956   3.626   3.263   3.617  1.0617 -0.8265  0.4934
  536MOL0     H73957   3.776   3.346   3.591  0.5188 -0.4939  1.8934
  536MOL0     H73958   3.732   3.511   3.765 -1.3181  1.9848 -0.0982
  536MOL0     H73959   3.733   3.339   3.807  2.2559  2.8856  0.6400
  536MOL0     H73960   3.551   3.491   3.899  0.6607  0.7639 -2.1024
  536MOL0     H73961   3.481   3.490   3.735 -0.1910  2.5653  0.8976
  536MOL0     H73962   3.530   3.261   3.943 -3.5240  2.9016  2.5172
  536MOL0     H73963   3.482   3.220   3.779  0.7698 -1.2155 -0.2151
  536MOL0     H73964   3.119   3.376   3.945 -0.6522 -2.5594 -0.6761
  536MOL0     H73965   3.772   3.278   3.383  3.5540 -0.0769 -1.6381
  536MOL0     H73966   3.822   3.158   3.206 -1.7870  1.6031  1.0673
  536MOL0     H73967   3.783   3.209   3.043 -1.9152  2.3556 -0.5078
  536MOL0     H73968   3.941   3.256   3.112 -0.2115  1.6644 -0.4231
  537MOL0     O73969   3.471   5.433  11.226  0.6650  0.0366 -0.4071
  537MOL0     C73970   3.415   5.536  11.201  0.8513  0.3994  0.3169
  537MOL0     O73971   3.451   5.661  11.248  0.2492 -0.2881  0.0647
  537MOL0     C73972   3.576   5.694  11.292  0.3833 -0.3570  0.0990
  537MOL0     C73973   3.584   5.822  11.359 -0.9825 -0.6692  0.4746
  537MOL0     C73974   3.710   5.861  11.404  0.3288 -0.2809 -0.6283
  537MOL0     C73975   3.819   5.780  11.406 -1.0377  0.0825  0.0150
  537MOL0     O73976   3.938   5.847  11.452  0.1751  0.1267 -0.0857
  537MOL0     C73977   4.054   5.768  11.478  0.1050  0.2381 -0.1845
  537MOL0     C73978   4.170   5.861  11.474 -0.9885 -0.1984 -0.1879
  537MOL0     C73979   4.194   5.936  11.334 -1.0833  0.2020 -0.7295
  537MOL0     C73980   4.303   6.052  11.346  0.6941  0.6341  0.1629
  537MOL0     C73981   4.343   6.114  11.213 -0.4585  1.0485 -0.0769
  537MOL0     C73982   4.423   6.244  11.227  0.2752  0.1698 -0.8659
  537MOL0     C73983   4.568   6.220  11.286  1.1201  0.0598  0.1399
  537MOL0     C73984   4.667   6.153  11.193  0.6987 -1.7895  0.2843
  537MOL0     N73985   4.691   6.237  11.068  0.0824  0.1989 -0.2940
  537MOL0     C73986   4.744   6.368  11.066 -0.6794  0.0157 -0.0957
  537MOL0     C73987   4.729   6.420  10.946  0.4967  0.1781  0.5203
  537MOL0     C73988   4.755   6.566  10.915 -0.5206  0.4533  0.3463
  537MOL0     C73989   4.892   6.599  10.858 -0.7414 -0.7524  0.0393
  537MOL0     C73990   4.959   6.736  10.916  0.3341 -0.4096 -0.5335
  537MOL0     C73991   5.109   6.736  10.895  0.2143 -0.7642 -0.1358
  537MOL0     O73992   5.172   6.845  10.976  0.3903 -0.7344 -0.1398
  537MOL0     C73993   5.297   6.882  10.945 -0.9451 -0.1435 -0.0878
  537MOL0     C73994   5.383   6.817  10.864 -0.3788  0.8263  0.1018
  537MOL0     C73995   5.518   6.869  10.831  0.0871  0.5527 -0.9459
  537MOL0     C73996   5.609   6.778  10.748  0.1470 -0.0205 -0.7891
  537MOL0     C73997   5.568   6.985  10.899 -0.1338 -0.1525 -0.2549
  537MOL0     C73998   5.700   7.046  10.881  0.1199  1.3439  0.8106
  537MOL0     O73999   5.705   7.174  10.920 -0.1186  0.4941  0.0349
  537MOL0     C74000   5.816   7.259  10.934 -0.4599 -0.2628 -0.0163
  537MOL0     C74001   5.947   7.232  10.910 -0.2719  0.2345 -0.0264
  537MOL0     C74002   6.053   7.318  10.942 -0.4564  0.3797  0.1782
  537MOL0     C74003   6.022   7.445  10.986 -0.0274  0.5826  0.3959
  537MOL0     O74004   6.134   7.524  10.992 -0.2772  0.6267 -0.1819
  537MOL0     C74005   6.121   7.670  11.002 -0.0971 -0.2661  0.9762
  537MOL0     C74006   6.069   7.741  10.882 -0.9450  0.7580 -0.0189
  537MOL0     C74007   6.028   7.885  10.914  0.5855 -0.3565  0.0320
  537MOL0     C74008   6.140   7.977  10.970 -0.2873  0.7588 -0.2830
  537MOL0     C74009   6.088   8.117  10.970  1.0657 -0.5729  0.8511
  537MOL0     C74010   6.173   8.218  11.050  0.5554 -0.0892  0.0726
  537MOL0     C74011   6.301   8.255  10.968 -0.1622 -0.3399  0.6424
  537MOL0     C74012   6.389   8.361  11.031 -0.4351 -0.2362 -0.4950
  537MOL0    Cl74013   6.427   8.305  11.189  0.0553 -0.1898 -1.0761
  537MOL0     C74014   5.891   7.484  10.999 -0.5904  0.8723  0.8263
  537MOL0     C74015   5.787   7.394  10.973 -0.1619 -0.9225 -0.5164
  537MOL0     O74016   5.788   6.986  10.815 -0.2597 -0.1443 -0.0924
  537MOL0     C74017   5.477   7.049  10.992 -0.3359 -0.2938  1.2080
  537MOL0     C74018   5.348   6.994  11.013 -0.3593 -0.5668 -0.0842
  537MOL0     N74019   4.658   6.325  10.873 -0.2816 -0.1045 -0.3862
  537MOL0     N74020   4.642   6.213  10.946  0.0459  0.2822 -0.4671
  537MOL0     C74021   3.810   5.647  11.356  0.1111  0.5158  0.9124
  537MOL0     C74022   3.688   5.606  11.301  0.0572 -0.1557  0.1569
  537MOL0     C74023   3.281   5.533  11.143  0.1545  0.7490  0.8222
  537MOL0     C74024   3.193   5.642  11.176  0.4317  0.7154  0.2173
  537MOL0     C74025   3.063   5.652  11.116  0.3579 -0.0664 -0.6513
  537MOL0     C74026   3.026   5.559  11.025 -0.3851 -0.5744  0.1627
  537MOL0     O74027   2.905   5.550  10.962 -0.2766  0.8642  0.9084
  537MOL0     C74028   2.786   5.638  10.991 -0.1834  0.4681  0.0990
  537MOL0     C74029   2.706   5.593  11.119  0.0081 -0.7259  0.1506
  537MOL0     C74030   2.593   5.703  11.157  0.3382  0.0400  0.1697
  537MOL0     C74031   2.451   5.644  11.146  0.2153 -0.1224 -0.3485
  537MOL0     C74032   2.413   5.595  11.011 -0.0568  0.0224 -0.9818
  537MOL0     C74033   2.376   5.557  10.903  0.0529  0.9166 -0.3759
  537MOL0     C74034   3.124   5.464  10.986 -0.0284 -0.3941 -0.0815
  537MOL0     C74035   3.244   5.445  11.045 -0.3049  0.3022 -0.0755
  537MOL0     C74036   3.326   5.336  10.972  0.3380 -0.4316 -0.9487
  537MOL0     H74037   3.490   5.876  11.365 -0.5056  0.2146  0.1578
  537MOL0     H74038   3.715   5.963  11.441  1.5602 -0.1870 -1.0163
  537MOL0     H74039   4.067   5.684  11.409 -3.4294 -1.1262  0.6248
  537MOL0     H74040   4.053   5.723  11.577  3.8462  0.1114 -0.0642
  537MOL0     H74041   4.171   5.924  11.563  0.6598  0.7712 -0.8337
  537MOL0     H74042   4.252   5.791  11.494  0.2149  0.4305 -2.4564
  537MOL0     H74043   4.226   5.855  11.268  1.3394  1.4576 -1.1794
  537MOL0     H74044   4.103   5.988  11.300 -0.7087  1.7210  0.4921
  537MOL0     H74045   4.275   6.129  11.419  1.6283  0.2038  0.9882
  537MOL0     H74046   4.396   6.012  11.387  0.8355 -0.0979 -0.8466
  537MOL0     H74047   4.251   6.138  11.159  0.6750  1.3611 -1.9795
  537MOL0     H74048   4.401   6.043  11.154 -1.8067 -0.2550  0.1233
  537MOL0     H74049   4.428   6.290  11.128 -3.2788  0.4291 -1.0458
  537MOL0     H74050   4.376   6.319  11.291 -0.3752 -0.2695 -0.8147
  537MOL0     H74051   4.562   6.163  11.379  2.3398 -0.9884 -0.3935
  537MOL0     H74052   4.604   6.321  11.308  0.8952  1.1662 -3.7390
  537MOL0     H74053   4.766   6.143  11.239  0.7653 -0.7611  0.3854
  537MOL0     H74054   4.635   6.056  11.153  0.1451 -0.7105 -2.0536
  537MOL0     H74055   4.779   6.418  11.156  0.6333 -2.1707  0.6807
  537MOL0     H74056   4.733   6.605  11.015  1.4288 -0.3296  1.1340
  537MOL0     H74057   4.682   6.605  10.844  0.3378 -0.2834 -0.9884
  537MOL0     H74058   4.962   6.516  10.876  2.2053  2.1709  3.6653
  537MOL0     H74059   4.875   6.608  10.751 -0.6536 -0.7802  0.0229
  537MOL0     H74060   4.916   6.830  10.878  0.9833 -0.3719 -1.1987
  537MOL0     H74061   4.940   6.735  11.023 -0.3476 -2.1545 -0.6352
  537MOL0     H74062   5.140   6.635  10.923 -2.2334 -2.3215 -2.5174
  537MOL0     H74063   5.130   6.765  10.791  1.8792  0.7583  0.5589
  537MOL0     H74064   5.355   6.720  10.823 -1.1025 -0.1407  2.6781
  537MOL0     H74065   5.690   6.748  10.815 -0.5312  1.2783  0.6542
  537MOL0     H74066   5.652   6.842  10.670  2.3972  0.2755  0.6045
  537MOL0     H74067   5.564   6.693  10.695  1.7586 -1.2367 -0.3077
  537MOL0     H74068   5.977   7.134  10.873 -1.0241  0.7055 -2.0384
  537MOL0     H74069   6.158   7.298  10.921 -0.5458  0.4377 -0.3492
  537MOL0     H74070   6.055   7.699  11.084  0.2350  1.7971  0.5683
  537MOL0     H74071   6.216   7.713  11.033 -1.6344  1.7338  3.1573
  537MOL0     H74072   6.134   7.732  10.794  1.9877 -0.4447  2.1111
  537MOL0     H74073   5.980   7.686  10.849 -1.1135  0.2703  1.2079
  537MOL0     H74074   5.937   7.871  10.974 -0.4913 -2.8097 -1.9697
  537MOL0     H74075   5.989   7.929  10.822  1.3833  0.8394  0.2562
  537MOL0     H74076   6.237   7.981  10.919  0.4713  0.1496  1.0574
  537MOL0     H74077   6.159   7.943  11.072 -0.9219 -1.2558 -0.7843
  537MOL0     H74078   6.087   8.154  10.867 -0.4301 -1.2128  0.6212
  537MOL0     H74079   5.986   8.115  11.009  0.0749 -3.5156 -1.5315
  537MOL0     H74080   6.183   8.173  11.150 -0.5682 -0.0236  0.2263
  537MOL0     H74081   6.110   8.306  11.064  0.8975  0.9368 -3.7278
  537MOL0     H74082   6.273   8.295  10.870 -0.8428 -1.5248  0.3362
  537MOL0     H74083   6.358   8.164  10.949 -1.7371 -1.0338 -1.0876
  537MOL0     H74084   6.339   8.458  11.037  0.1095  0.1949 -2.1426
  537MOL0     H74085   6.484   8.385  10.981 -2.6163  2.9191 -3.6604
  537MOL0     H74086   5.863   7.588  11.012 -1.2650  1.1014 -1.9064
  537MOL0     H74087   5.684   7.414  11.002  0.1301 -0.2670  0.1055
  537MOL0     H74088   5.501   7.139  11.048  0.4147  1.2033 -1.3705
  537MOL0     H74089   5.269   7.039  11.072 -5.6600 -6.3130 -1.8037
  537MOL0     H74090   3.891   5.574  11.353 -1.7873 -1.6711 -0.7225
  537MOL0     H74091   3.695   5.504  11.266  0.4679 -0.5887  1.4343
  537MOL0     H74092   3.218   5.713  11.254 -4.2861  2.0951  0.7427
  537MOL0     H74093   2.991   5.731  11.138 -0.3977  0.0930 -3.3555
  537MOL0     H74094   2.820   5.741  11.003 -0.5231  0.5437  0.4372
  537MOL0     H74095   2.721   5.631  10.903  1.3726  1.1293 -1.1420
  537MOL0     H74096   2.777   5.578  11.201 -1.5571  0.1351  1.7269
  537MOL0     H74097   2.657   5.496  11.105 -1.6306  0.2229 -0.9794
  537MOL0     H74098   2.600   5.753  11.254 -5.6927 -1.1279  1.6043
  537MOL0     H74099   2.595   5.780  11.079 -1.2977  0.2242  0.2808
  537MOL0     H74100   2.372   5.718  11.167 -0.7786 -1.4429  0.7993
  537MOL0     H74101   2.423   5.563  11.214 -2.8496  2.4812  1.8386
  537MOL0     H74102   2.355   5.524  10.803  2.1408  3.2265 -1.6836
  537MOL0     H74103   3.085   5.393  10.914  0.9443  0.1775 -1.2036
  537MOL0     H74104   3.337   5.379  10.872 -0.3335  0.8612 -0.4952
  537MOL0     H74105   3.431   5.333  11.003  0.3275 -0.3351 -0.9065
  537MOL0     H74106   3.267   5.244  10.974 -3.8907  2.0150  0.1185
  538MOL0     O74107  10.459   4.523   3.797 -0.0156 -0.5853  0.0072
  538MOL0     C74108  10.507   4.607   3.722 -0.7188  0.3191 -0.3539
  538MOL0     O74109  10.632   4.606   3.673 -0.4176  1.1203  0.0290
  538MOL0     C74110  10.732   4.519   3.710  0.1958 -0.1504 -0.0794
  538MOL0     C74111  10.715   4.393   3.760  0.4875 -0.6628 -0.6604
  538MOL0     C74112  10.830   4.321   3.814  0.0955 -0.0231  0.0031
  538MOL0     C74113  10.957   4.381   3.822  0.7067 -1.1040 -0.2290
  538MOL0     O74114  11.071   4.311   3.873 -0.6541  0.4236  0.3763
  538MOL0     C74115  11.063   4.250   3.996  0.1883  1.1468 -0.3742
  538MOL0     C74116  11.191   4.187   4.045 -0.7866 -0.1778 -0.6919
  538MOL0     C74117  11.235   4.054   3.973 -0.6442  0.0377 -0.2229
  538MOL0     C74118  11.267   3.943   4.081  0.0728  0.5662  0.5173
  538MOL0     C74119  11.360   3.832   4.014 -0.0417  0.0784 -0.0367
  538MOL0     C74120  11.407   3.732   4.122 -0.3503 -0.2020  0.5589
  538MOL0     C74121  11.513   3.634   4.051  0.7777 -0.5476  0.3187
  538MOL0     C74122  11.583   3.556   4.156  0.2304  0.0059  0.5602
  538MOL0     N74123  11.692   3.463   4.105 -0.1957 -0.5120 -0.2586
  538MOL0     C74124  11.795   3.495   4.015  0.1258  0.1841  0.6825
  538MOL0     C74125  11.840   3.368   3.979 -1.4843 -0.1829  0.4732
  538MOL0     C74126  11.957   3.345   3.892 -0.8327  0.3408  0.0707
  538MOL0     C74127  11.940   3.221   3.807  0.1155  0.1925  0.0750
  538MOL0     C74128  12.061   3.178   3.708  0.2787  0.1198 -0.3794
  538MOL0     C74129  12.098   3.284   3.604 -0.4211  0.0073  0.7622
  538MOL0     O74130  12.171   3.402   3.662 -0.0738  0.1009 -0.5360
  538MOL0     C74131  12.298   3.393   3.708 -0.1936 -0.7411 -0.2671
  538MOL0     C74132  12.330   3.464   3.826  1.4681 -0.0355  0.3950
  538MOL0     C74133  12.445   3.451   3.899 -0.1395 -0.0818 -0.1479
  538MOL0     C74134  12.472   3.545   4.009  0.1386  0.5797  0.3088
  538MOL0     C74135  12.542   3.354   3.860  0.1689 -0.2353  0.7219
  538MOL0     C74136  12.668   3.330   3.927  0.2416  0.6017 -0.3252
  538MOL0     O74137  12.769   3.300   3.835 -0.6301 -0.2314  0.0775
  538MOL0     C74138  12.885   3.254   3.886  0.2733 -0.4671 -0.5175
  538MOL0     C74139  12.897   3.124   3.921  0.0184 -0.0559  0.1207
  538MOL0     C74140  13.014   3.061   3.971  0.1291  0.7841  0.6928
  538MOL0     C74141  13.118   3.144   4.003  0.1714 -0.2566 -1.0421
  538MOL0     O74142  13.225   3.076   4.068  0.1419 -0.1124 -0.2763
  538MOL0     C74143  13.327   3.149   4.138 -0.3648 -0.5890 -0.1468
  538MOL0     C74144  13.421   3.059   4.219  0.9785  0.7602 -0.5148
  538MOL0     C74145  13.546   3.024   4.148 -0.6185 -0.3476 -0.0859
  538MOL0     C74146  13.666   3.007   4.242  0.3116  0.2190  0.3678
  538MOL0     C74147  13.756   2.890   4.219 -0.6799  0.3430 -0.0025
  538MOL0     C74148  13.733   2.762   4.300  0.5241 -0.2240 -0.5774
  538MOL0     C74149  13.613   2.669   4.266  0.7920 -0.1942  0.1364
  538MOL0     C74150  13.520   2.628   4.380 -0.0053 -0.0612 -0.6662
  538MOL0    Cl74151  13.446   2.773   4.462  0.0285  0.4703  0.1244
  538MOL0     C74152  13.110   3.283   3.980 -0.2881  0.0919  0.3183
  538MOL0     C74153  12.994   3.334   3.922 -0.2292  0.1199  0.1681
  538MOL0     O74154  12.676   3.329   4.053 -0.3184 -0.5711  0.4270
  538MOL0     C74155  12.511   3.272   3.748  0.2076 -0.2948 -0.1653
  538MOL0     C74156  12.393   3.291   3.683  0.2608  0.0188  0.4190
  538MOL0     N74157  11.763   3.268   4.040 -0.2674 -0.0700 -0.1632
  538MOL0     N74158  11.674   3.324   4.113  0.3060 -0.3499  1.1081
  538MOL0     C74159  10.971   4.504   3.750  0.1056  0.8314 -0.9765
  538MOL0     C74160  10.862   4.578   3.701  0.8924 -0.8745  0.4411
  538MOL0     C74161  10.415   4.714   3.665 -0.3328  0.4339  0.4766
  538MOL0     C74162  10.332   4.803   3.735  0.2963  0.6858 -0.9342
  538MOL0     C74163  10.250   4.898   3.683 -0.0330 -0.5503 -0.7051
  538MOL0     C74164  10.262   4.928   3.553 -0.1461 -0.3420 -0.3453
  538MOL0     O74165  10.180   5.023   3.491 -0.6770 -0.1351 -0.2148
  538MOL0     C74166  10.048   5.040   3.538 -0.3179  0.1948 -1.4265
  538MOL0     C74167   9.947   5.090   3.437 -0.2730  0.3688  0.1205
  538MOL0     C74168   9.944   4.998   3.311  0.1437  1.1876 -0.7698
  538MOL0     C74169   9.917   5.071   3.188  0.3522  0.2613  0.6029
  538MOL0     C74170   9.780   5.123   3.175  0.4865 -0.3448 -0.1492
  538MOL0     C74171   9.659   5.157   3.178 -0.2426 -0.1913  0.2239
  538MOL0     C74172  10.335   4.845   3.479 -0.2656  0.8543  0.7339
  538MOL0     C74173  10.415   4.743   3.528  0.1435  0.3893  0.4857
  538MOL0     C74174  10.492   4.662   3.426 -0.4091 -0.5379 -0.0523
  538MOL0     H74175  10.614   4.353   3.759  1.6874 -4.1463 -3.5991
  538MOL0     H74176  10.819   4.218   3.848  0.0368  0.5050  1.6793
  538MOL0     H74177  10.981   4.177   3.994 -2.0056  3.4652 -0.7695
  538MOL0     H74178  11.029   4.323   4.070  0.1186  0.5075  0.2341
  538MOL0     H74179  11.272   4.259   4.030 -1.7883  1.5671  1.6455
  538MOL0     H74180  11.191   4.174   4.154 -1.3331  1.2710 -0.4905
  538MOL0     H74181  11.172   4.015   3.893  1.6703 -0.9161 -1.6734
  538MOL0     H74182  11.330   4.070   3.920  0.3149  0.6806  1.5989
  538MOL0     H74183  11.330   3.991   4.156  2.3484  2.0354 -2.1076
  538MOL0     H74184  11.174   3.897   4.113  0.3546 -2.9298 -2.9233
  538MOL0     H74185  11.444   3.877   3.960 -0.2034 -0.4533 -0.7482
  538MOL0     H74186  11.306   3.773   3.940  2.5486  0.2858 -2.2669
  538MOL0     H74187  11.457   3.784   4.205 -0.4839  3.2776 -1.3273
  538MOL0     H74188  11.321   3.671   4.151 -0.5652 -0.7356 -1.1135
  538MOL0     H74189  11.578   3.691   3.983 -2.4678  0.8473 -1.8674
  538MOL0     H74190  11.439   3.572   4.000 -0.7980  1.7280 -0.3492
  538MOL0     H74191  11.633   3.616   4.233  1.5369 -0.1219 -0.1600
  538MOL0     H74192  11.509   3.487   4.198 -0.7073  0.8941  0.4215
  538MOL0     H74193  11.831   3.592   3.981 -2.8157  1.3367  0.5861
  538MOL0     H74194  12.054   3.343   3.941  0.1862 -2.0737 -1.8091
  538MOL0     H74195  11.951   3.423   3.817 -0.0315 -2.2119 -2.8393
  538MOL0     H74196  11.927   3.132   3.869 -1.0303 -0.8655 -1.6140
  538MOL0     H74197  11.843   3.230   3.756  0.5002 -2.5694 -1.3638
  538MOL0     H74198  12.137   3.159   3.785 -0.7424 -1.8057  0.2226
  538MOL0     H74199  12.041   3.084   3.657  1.6152 -0.3264 -0.1245
  538MOL0     H74200  12.161   3.244   3.524  1.2964  3.4471  0.1885
  538MOL0     H74201  12.007   3.328   3.564  0.2821  3.1268  2.2722
  538MOL0     H74202  12.258   3.533   3.869  1.0742  0.0826 -0.4450
  538MOL0     H74203  12.574   3.581   3.987  0.3240 -0.8408 -1.3905
  538MOL0     H74204  12.457   3.488   4.101  0.4298 -2.9026 -1.6139
  538MOL0     H74205  12.410   3.635   4.005  2.0438  2.2602  3.8187
  538MOL0     H74206  12.811   3.060   3.904  0.2667  0.1023 -1.8969
  538MOL0     H74207  13.014   2.955   3.993 -0.1332  1.3732  4.0652
  538MOL0     H74208  13.372   3.208   4.058 -2.0796 -1.0069 -1.4849
  538MOL0     H74209  13.285   3.216   4.213  1.7720 -1.2274  1.7565
  538MOL0     H74210  13.452   3.115   4.308  4.2743  0.6866 -1.4766
  538MOL0     H74211  13.362   2.970   4.243  2.4262  0.6723  3.3888
  538MOL0     H74212  13.569   3.112   4.087 -1.9519  1.4100  1.8099
  538MOL0     H74213  13.530   2.929   4.094  0.0741 -0.8227  0.5295
  538MOL0     H74214  13.628   2.993   4.344 -0.4970 -0.2317  0.0142
  538MOL0     H74215  13.715   3.105   4.241 -1.5082  1.1817 -0.2452
  538MOL0     H74216  13.752   2.873   4.111 -1.5982  1.6430 -0.1936
  538MOL0     H74217  13.854   2.937   4.232  0.0099 -0.0624 -2.9925
  538MOL0     H74218  13.739   2.791   4.405 -3.2029  1.3134 -0.6494
  538MOL0     H74219  13.815   2.691   4.282  0.1899 -0.3742 -1.6202
  538MOL0     H74220  13.646   2.573   4.226 -1.3456 -0.5427 -0.9341
  538MOL0     H74221  13.549   2.723   4.195  2.8887  3.3669  0.6901
  538MOL0     H74222  13.553   2.552   4.451 -2.8361 -2.8652 -2.1005
  538MOL0     H74223  13.440   2.575   4.328 -1.3450  1.2866 -0.0790
  538MOL0     H74224  13.187   3.353   4.009  1.5269 -0.3004 -3.0318
  538MOL0     H74225  12.988   3.442   3.916  0.2949  0.2287  1.2963
  538MOL0     H74226  12.574   3.195   3.706 -2.2132 -1.5661 -1.6793
  538MOL0     H74227  12.379   3.231   3.593  1.2365 -1.8074  1.4231
  538MOL0     H74228  11.071   4.547   3.748  0.4255  0.0994 -2.9104
  538MOL0     H74229  10.889   4.669   3.649  2.4621 -0.1741  2.3850
  538MOL0     H74230  10.319   4.796   3.842 -1.6503  0.7066 -1.1318
  538MOL0     H74231  10.201   4.969   3.748  3.3941  2.9404 -1.5613
  538MOL0     H74232  10.013   4.943   3.573 -0.1812  1.5341  3.0834
  538MOL0     H74233  10.050   5.103   3.627  0.7437 -0.2233 -1.1420
  538MOL0     H74234   9.989   5.189   3.417  3.5230  0.1028  4.9230
  538MOL0     H74235   9.843   5.086   3.473 -0.7492  1.8980 -0.9988
  538MOL0     H74236  10.040   4.949   3.294 -0.6889  0.4274 -3.9165
  538MOL0     H74237   9.866   4.923   3.327 -0.6850  1.5586 -2.7603
  538MOL0     H74238   9.948   5.015   3.100  2.1424  2.0125  0.0269
  538MOL0     H74239   9.985   5.157   3.185  2.6051 -1.4323 -2.8086
  538MOL0     H74240   9.557   5.191   3.179  0.4787  2.2194 -0.4673
  538MOL0     H74241  10.337   4.872   3.373 -0.0826 -1.1709  0.1711
  538MOL0     H74242  10.459   4.683   3.324  2.7227 -0.3132 -1.1047
  538MOL0     H74243  10.600   4.678   3.432 -0.0769 -2.4544 -0.2545
  538MOL0     H74244  10.483   4.555   3.443 -5.2418 -0.0249  2.3364
  539MOL0     O74245   2.326   4.688   5.597 -0.7902  0.5451 -0.3964
  539MOL0     C74246   2.370   4.788   5.662  0.8200 -0.7218  0.2003
  539MOL0     O74247   2.294   4.869   5.749 -0.2776 -0.0953 -0.2956
  539MOL0     C74248   2.159   4.863   5.751  0.7415  0.9932 -0.6048
  539MOL0     C74249   2.087   4.825   5.870 -0.2412 -0.7793 -0.2386
  539MOL0     C74250   1.948   4.832   5.870  0.2472  0.5090  0.3243
  539MOL0     C74251   1.878   4.859   5.755  0.3994 -0.7728 -0.1682
  539MOL0     O74252   1.742   4.864   5.766 -0.7530 -0.2538  0.5571
  539MOL0     C74253   1.671   4.905   5.651  0.3168  0.3699 -0.6641
  539MOL0     C74254   1.516   4.871   5.689  0.4116 -0.0074 -0.1090
  539MOL0     C74255   1.447   5.001   5.749  0.3021  0.5028 -0.3775
  539MOL0     C74256   1.311   4.977   5.818  1.4285 -0.0462 -0.1133
  539MOL0     C74257   1.270   5.105   5.896 -0.3577 -0.0102 -0.0710
  539MOL0     C74258   1.137   5.088   5.977  0.3329  0.4138 -1.1361
  539MOL0     C74259   1.170   5.048   6.122 -0.5769 -1.0221  0.9148
  539MOL0     C74260   1.039   5.029   6.198  0.0732  0.0247 -0.4789
  539MOL0     N74261   1.058   4.981   6.334  0.8575 -0.6604  0.5853
  539MOL0     C74262   1.098   5.067   6.431 -0.1367 -0.2913 -0.1379
  539MOL0     C74263   1.086   4.990   6.543  0.1446  0.3104  0.8089
  539MOL0     C74264   1.139   5.027   6.672  0.5281  0.2805 -0.8587
  539MOL0     C74265   1.277   4.968   6.698 -0.3404 -0.8088  0.5711
  539MOL0     C74266   1.331   5.012   6.834 -0.0824 -0.0183  0.1513
  539MOL0     C74267   1.459   4.938   6.874  0.7950  0.1563  0.3077
  539MOL0     O74268   1.566   5.007   6.815 -0.4335  0.4052 -0.8124
  539MOL0     C74269   1.682   4.946   6.869  1.0929 -0.3218  0.7498
  539MOL0     C74270   1.738   4.836   6.808 -0.6310  0.0990 -0.1353
  539MOL0     C74271   1.867   4.790   6.848 -0.2190 -0.3983 -0.1612
  539MOL0     C74272   1.929   4.693   6.749 -1.3801 -0.2933 -0.1858
  539MOL0     C74273   1.927   4.848   6.959 -1.2160 -0.4674 -0.2103
  539MOL0     C74274   2.065   4.811   7.008 -0.8098  0.9584  0.0398
  539MOL0     O74275   2.158   4.901   7.048 -0.5335 -0.4464  0.2585
  539MOL0     C74276   2.257   4.855   7.123  0.7400  0.3062 -1.0375
  539MOL0     C74277   2.252   4.753   7.217 -0.8587 -0.9172 -0.5594
  539MOL0     C74278   2.370   4.712   7.290 -0.3219 -0.4321 -0.2460
  539MOL0     C74279   2.483   4.787   7.266  0.1022  0.8952 -1.0979
  539MOL0     O74280   2.578   4.760   7.364 -0.3466 -0.2722  0.1357
  539MOL0     C74281   2.710   4.757   7.326  0.5038 -0.3106  0.0539
  539MOL0     C74282   2.804   4.702   7.432  0.3117 -0.3385 -0.3569
  539MOL0     C74283   2.742   4.568   7.489  1.0073 -0.5689 -0.0432
  539MOL0     C74284   2.803   4.512   7.612  0.4294 -0.2425  0.5455
  539MOL0     C74285   2.928   4.450   7.575  0.0640 -0.1045 -0.3923
  539MOL0     C74286   3.033   4.406   7.683  0.9159 -0.4231  0.1843
  539MOL0     C74287   3.101   4.520   7.761  0.3417 -1.0413 -0.0281
  539MOL0     C74288   3.196   4.610   7.669 -0.2983  0.4091 -0.3587
  539MOL0    Cl74289   3.335   4.512   7.604  0.1144  0.1085 -0.5983
  539MOL0     C74290   2.489   4.899   7.181 -0.5194 -0.4770 -0.2594
  539MOL0     C74291   2.375   4.930   7.101 -0.2927  0.4125  0.7754
  539MOL0     O74292   2.078   4.689   7.005 -0.3528 -0.6435  0.1456
  539MOL0     C74293   1.871   4.961   7.019  0.1500  0.1310 -0.4980
  539MOL0     C74294   1.742   5.007   6.973 -0.3491  0.0465 -0.2799
  539MOL0     N74295   1.025   4.864   6.518  0.5488 -0.2003  0.7030
  539MOL0     N74296   0.999   4.868   6.387 -0.5803  0.1207 -0.5565
  539MOL0     C74297   1.951   4.884   5.638  0.1148 -0.1752  1.1341
  539MOL0     C74298   2.087   4.890   5.634 -0.4771 -0.5704  0.3836
  539MOL0     C74299   2.511   4.816   5.648 -0.5081 -0.2495  0.4661
  539MOL0     C74300   2.587   4.752   5.543 -0.2672 -0.1832  0.6277
  539MOL0     C74301   2.727   4.779   5.515 -0.4600  0.2772 -0.3082
  539MOL0     C74302   2.792   4.873   5.588  0.5886 -0.8027  0.9803
  539MOL0     O74303   2.926   4.890   5.557  0.1501  0.1543 -0.1301
  539MOL0     C74304   2.979   5.020   5.576 -0.0530  0.1075 -0.0412
  539MOL0     C74305   3.125   5.018   5.580  0.3803 -0.6727  0.7574
  539MOL0     C74306   3.186   4.880   5.573 -0.6615  0.0856  1.1068
  539MOL0     C74307   3.332   4.861   5.560 -0.9678  0.2303  0.3203
  539MOL0     C74308   3.381   4.937   5.440  0.2368 -0.2466  0.0685
  539MOL0     C74309   3.419   5.005   5.349 -0.1917 -0.2953  0.3639
  539MOL0     C74310   2.724   4.931   5.693  0.2700  0.5244  0.2027
  539MOL0     C74311   2.590   4.902   5.727  0.5919 -0.0510  0.0016
  539MOL0     C74312   2.550   4.957   5.860  0.0563 -0.2880 -0.8035
  539MOL0     H74313   2.151   4.812   5.957 -0.8269  1.0808  0.5162
  539MOL0     H74314   1.892   4.817   5.962 -2.4073  0.8744 -1.1188
  539MOL0     H74315   1.692   4.864   5.552 -1.3588  1.3595 -1.4896
  539MOL0     H74316   1.691   5.013   5.660 -0.4417  0.4653 -0.0003
  539MOL0     H74317   1.455   4.830   5.608 -0.9908  1.2951  0.2523
  539MOL0     H74318   1.522   4.802   5.775  3.5745  0.4469  0.1701
  539MOL0     H74319   1.511   5.056   5.818 -0.1921  0.8013 -0.1546
  539MOL0     H74320   1.430   5.073   5.668 -0.2809  1.4869  0.5970
  539MOL0     H74321   1.241   4.952   5.738  0.4152  0.0518  0.7170
  539MOL0     H74322   1.328   4.890   5.882  3.0738 -1.2964 -2.0964
  539MOL0     H74323   1.257   5.189   5.826 -1.1988  1.8493  2.1813
  539MOL0     H74324   1.356   5.129   5.960  0.0964 -4.9323  1.5349
  539MOL0     H74325   1.077   5.179   5.981  1.9338  1.4676  2.0509
  539MOL0     H74326   1.074   5.015   5.925 -1.5316  1.8948 -1.0429
  539MOL0     H74327   1.244   5.116   6.163  0.4595 -1.2409 -0.5481
  539MOL0     H74328   1.216   4.949   6.113  3.2727  0.6925  0.1004
  539MOL0     H74329   0.984   5.121   6.219  0.6891 -0.3245  3.4744
  539MOL0     H74330   0.972   4.958   6.150  0.2287  0.0212 -0.6907
  539MOL0     H74331   1.155   5.159   6.418  1.3479 -1.4887 -2.9582
  539MOL0     H74332   1.067   4.995   6.749 -0.8856 -0.4263 -2.4266
  539MOL0     H74333   1.142   5.135   6.688 -4.3724  0.3961  1.0434
  539MOL0     H74334   1.275   4.860   6.680 -0.0848 -1.2313  2.8405
  539MOL0     H74335   1.345   5.006   6.620 -0.7833  0.0979  0.6102
  539MOL0     H74336   1.334   5.121   6.834 -3.7874  0.2346 -1.0838
  539MOL0     H74337   1.259   4.971   6.906  0.9142 -2.4778 -0.1477
  539MOL0     H74338   1.478   4.934   6.982 -0.0396  0.2748  0.4674
  539MOL0     H74339   1.440   4.838   6.833 -3.3932  0.7875  0.2117
  539MOL0     H74340   1.679   4.795   6.726 -0.8499  1.4340 -0.6702
  539MOL0     H74341   2.039   4.696   6.750 -1.3738  2.1788  0.8323
  539MOL0     H74342   1.895   4.722   6.649 -0.2446 -0.3535 -0.6052
  539MOL0     H74343   1.893   4.591   6.764 -1.0464 -0.0746  2.8677
  539MOL0     H74344   2.152   4.712   7.229 -0.9402 -0.2817  1.2244
  539MOL0     H74345   2.371   4.640   7.371 -0.8400 -1.1785 -0.8998
  539MOL0     H74346   2.722   4.697   7.235  1.4714  3.3113 -2.4285
  539MOL0     H74347   2.733   4.858   7.291 -0.3460 -1.3190 -4.0549
  539MOL0     H74348   2.899   4.667   7.390 -0.6008 -0.7489 -2.2157
  539MOL0     H74349   2.808   4.771   7.517 -6.6952 -0.8906  1.0863
  539MOL0     H74350   2.733   4.495   7.408  3.5216 -0.4506 -0.4945
  539MOL0     H74351   2.640   4.589   7.525  1.1593  0.2986 -0.0869
  539MOL0     H74352   2.745   4.428   7.652 -0.7751 -1.3664 -3.1604
  539MOL0     H74353   2.815   4.601   7.674  4.4727  0.8065 -1.3893
  539MOL0     H74354   2.910   4.359   7.518 -0.6376 -1.0989  1.3593
  539MOL0     H74355   2.977   4.521   7.508 -1.5192  1.8809  0.4325
  539MOL0     H74356   3.107   4.331   7.653 -0.0858 -1.0896 -0.6847
  539MOL0     H74357   2.980   4.335   7.747 -1.8260  1.4057  0.0847
  539MOL0     H74358   3.160   4.469   7.838  1.4339 -2.4935 -1.7455
  539MOL0     H74359   3.017   4.576   7.802 -0.0992 -1.0083 -0.9481
  539MOL0     H74360   3.247   4.685   7.731 -2.1508 -0.2366  2.1215
  539MOL0     H74361   3.148   4.664   7.587  1.0711  1.0633 -0.7594
  539MOL0     H74362   2.577   4.961   7.171 -0.3852 -0.4890  0.7498
  539MOL0     H74363   2.366   5.009   7.028  0.5722 -0.2166 -0.0308
  539MOL0     H74364   1.924   5.016   7.097  0.4077 -1.5182  0.5288
  539MOL0     H74365   1.683   5.087   7.016  1.2964  2.1913 -1.7477
  539MOL0     H74366   1.903   4.902   5.542  2.6239 -1.1973 -0.4193
  539MOL0     H74367   2.139   4.924   5.545  0.1597 -2.3500  0.0354
  539MOL0     H74368   2.554   4.668   5.482  2.7389  0.1620 -1.6938
  539MOL0     H74369   2.781   4.726   5.438  0.2834 -0.0954  0.4627
  539MOL0     H74370   2.936   5.073   5.491 -0.9342  1.3895  1.1632
  539MOL0     H74371   2.936   5.065   5.666 -2.2865 -0.6486 -0.6663
  539MOL0     H74372   3.155   5.068   5.673 -1.5573  0.1750  0.9725
  539MOL0     H74373   3.157   5.073   5.490  0.1700 -0.6305  0.7079
  539MOL0     H74374   3.146   4.821   5.656 -0.6395 -0.6299  0.6108
  539MOL0     H74375   3.134   4.837   5.487 -3.4521  1.7528  1.8535
  539MOL0     H74376   3.337   4.754   5.538  0.0496  0.6083 -1.3862
  539MOL0     H74377   3.389   4.881   5.651  0.1519 -1.1131 -0.0661
  539MOL0     H74378   3.444   5.077   5.274  2.0869 -0.0581  1.2902
  539MOL0     H74379   2.777   4.995   5.763 -1.4000 -0.1807  2.1671
  539MOL0     H74380   2.463   5.022   5.846 -0.0125 -0.3391 -0.5952
  539MOL0     H74381   2.538   4.881   5.937  0.6646  2.4319  2.1666
  539MOL0     H74382   2.622   5.027   5.903  0.6411  0.8794 -3.4622
  540MOL0     O74383   6.873   0.310   8.917  0.6629  0.9725 -0.5391
  540MOL0     C74384   6.879   0.230   9.013  1.1444  0.4153 -0.3123
  540MOL0     O74385   6.996   0.187   9.070  0.3189 -1.3259  0.0613
  540MOL0     C74386   7.115   0.217   9.009  1.0115  0.5300 -0.9648
  540MOL0     C74387   7.160   0.132   8.914 -0.1473 -0.3634 -0.2733
  540MOL0     C74388   7.282   0.159   8.847 -1.7583 -0.2044 -0.7116
  540MOL0     C74389   7.359   0.275   8.882 -0.0159 -0.4475 -0.3977
  540MOL0     O74390   7.472   0.322   8.823 -0.1012 -0.7362  0.8427
  540MOL0     C74391   7.530   0.237   8.725  0.9429  0.0471  0.7819
  540MOL0     C74392   7.662   0.281   8.657 -0.0385 -0.9396 -0.0785
  540MOL0     C74393   7.771   0.214   8.734 -0.2503 -0.3488  0.3476
  540MOL0     C74394   7.913   0.248   8.706 -0.5243 -0.8837  0.7655
  540MOL0     C74395   7.944   0.387   8.758  0.1949 -0.3226 -1.0701
  540MOL0     C74396   8.082   0.428   8.759  0.0547 -0.0885  0.0686
  540MOL0     C74397   8.093   0.566   8.821  0.0978  0.5990 -0.2495
  540MOL0     C74398   8.099   0.683   8.716  1.2389 -0.2543 -0.1259
  540MOL0     N74399   8.113   0.815   8.777 -0.4347  0.2457 -0.9219
  540MOL0     C74400   8.235   0.856   8.837  0.6941 -0.0818 -0.5918
  540MOL0     C74401   8.207   0.953   8.926 -1.1811 -0.2835  0.3935
  540MOL0     C74402   8.311   1.017   9.014 -0.2302  0.1090 -1.1784
  540MOL0     C74403   8.335   1.167   8.984 -0.2426 -0.0669  0.2736
  540MOL0     C74404   8.372   1.250   9.105  0.4565 -0.3321  0.6437
  540MOL0     C74405   8.419   1.394   9.068 -0.7201 -0.2753 -0.6410
  540MOL0     O74406   8.560   1.384   9.014  0.3753  0.2529  0.0654
  540MOL0     C74407   8.617   1.482   8.933 -0.1610  0.2976 -0.4142
  540MOL0     C74408   8.543   1.560   8.843 -0.8236 -0.6525  0.1218
  540MOL0     C74409   8.608   1.655   8.762 -0.2184 -0.5038  0.2798
  540MOL0     C74410   8.555   1.736   8.651  0.9742 -0.3036 -0.4933
  540MOL0     C74411   8.749   1.667   8.782 -1.0404 -0.6058 -0.4876
  540MOL0     C74412   8.850   1.753   8.711 -0.1174  0.0246 -0.4746
  540MOL0     O74413   8.900   1.858   8.779 -0.5741  0.5203  0.4277
  540MOL0     C74414   8.985   1.945   8.716  0.3467 -0.7219 -0.1609
  540MOL0     C74415   8.929   2.034   8.629 -0.8269 -0.0708 -0.6758
  540MOL0     C74416   9.004   2.130   8.577  0.2409  0.1995  0.1951
  540MOL0     C74417   9.141   2.147   8.603 -0.2794 -0.7399  0.0865
  540MOL0     O74418   9.207   2.256   8.562 -0.3470 -0.4052 -0.0223
  540MOL0     C74419   9.296   2.228   8.454  1.3284  0.4269 -1.3071
  540MOL0     C74420   9.343   2.362   8.405 -0.9794 -0.3059 -0.4470
  540MOL0     C74421   9.430   2.375   8.278 -0.5983 -0.1973 -0.2078
  540MOL0     C74422   9.567   2.306   8.283  0.3686 -0.1743  0.2582
  540MOL0     C74423   9.567   2.153   8.262 -0.5715  0.3181 -0.0568
  540MOL0     C74424   9.704   2.088   8.254 -0.5671  0.7385 -0.0971
  540MOL0     C74425   9.789   2.117   8.129  0.7486  0.8951  1.0582
  540MOL0     C74426   9.890   2.009   8.085  0.2376 -0.6904  0.6293
  540MOL0    Cl74427  10.031   2.015   8.193  0.1779  0.5175 -0.6988
  540MOL0     C74428   9.197   2.063   8.692  0.0627  0.0563  0.2697
  540MOL0     C74429   9.124   1.962   8.754  0.1852 -0.0875  0.2936
  540MOL0     O74430   8.874   1.734   8.591  0.2573  0.6487  0.4386
  540MOL0     C74431   8.823   1.576   8.867 -0.1419  1.2889  0.1991
  540MOL0     C74432   8.754   1.484   8.947 -0.4318 -0.9662  0.1531
  540MOL0     N74433   8.071   0.978   8.912 -0.2471 -0.7443  0.2060
  540MOL0     N74434   8.016   0.895   8.820 -0.3313  0.0163 -0.1127
  540MOL0     C74435   7.308   0.353   8.984 -0.8863 -0.6972  0.4122
  540MOL0     C74436   7.195   0.321   9.057 -0.3011  0.8132 -0.5613
  540MOL0     C74437   6.754   0.185   9.074  0.1820  0.7137  0.6711
  540MOL0     C74438   6.763   0.076   9.168  0.0829 -0.4918 -0.1165
  540MOL0     C74439   6.642   0.040   9.244 -1.1290 -0.0089  0.2797
  540MOL0     C74440   6.521   0.100   9.232 -0.0569 -0.1241  0.5236
  540MOL0     O74441   6.416   0.051   9.301  0.2055 -0.6243 -0.4865
  540MOL0     C74442   6.293   0.031   9.238  0.0852  0.0094  0.8224
  540MOL0     C74443   6.269  -0.118   9.196 -0.1451 -0.2755  0.7444
  540MOL0     C74444   6.354  -0.150   9.071  0.4574  0.0239  0.9835
  540MOL0     C74445   6.307  -0.081   8.936  0.0041 -0.8297 -0.2215
  540MOL0     C74446   6.382  -0.125   8.822 -0.6101  0.2241 -0.2554
  540MOL0     C74447   6.452  -0.180   8.739 -0.2742 -0.7949  1.0639
  540MOL0     C74448   6.522   0.217   9.150  0.5715 -0.0654  0.2174
  540MOL0     C74449   6.628   0.258   9.070 -0.8406  0.9836 -0.4788
  540MOL0     C74450   6.623   0.393   9.001 -0.2100 -0.6834 -0.1666
  540MOL0     H74451   7.096   0.048   8.887  0.5115 -0.6056 -1.1335
  540MOL0     H74452   7.308   0.093   8.764 -1.9366 -1.3956  0.1522
  540MOL0     H74453   7.462   0.242   8.640  2.7413  2.2350 -0.6538
  540MOL0     H74454   7.537   0.136   8.766  0.6145  0.1963  1.2079
  540MOL0     H74455   7.659   0.259   8.550 -2.1486  0.0922 -0.3050
  540MOL0     H74456   7.674   0.390   8.667 -1.3939 -0.9293  2.2880
  540MOL0     H74457   7.749   0.238   8.838 -1.5611  2.4321 -0.4609
  540MOL0     H74458   7.751   0.107   8.719 -0.2645 -0.9105  3.6721
  540MOL0     H74459   7.974   0.175   8.759  0.8830 -0.3850 -0.1127
  540MOL0     H74460   7.934   0.242   8.599 -1.1169 -1.3267  0.6675
  540MOL0     H74461   7.904   0.403   8.859 -1.0639  2.7958 -1.9551
  540MOL0     H74462   7.884   0.464   8.709 -2.4360  1.6534  4.3999
  540MOL0     H74463   8.153   0.360   8.807 -0.6576 -1.6813 -1.0610
  540MOL0     H74464   8.114   0.432   8.654 -1.2445  0.3382 -0.3310
  540MOL0     H74465   8.183   0.576   8.882 -0.6147 -4.0410  1.9874
  540MOL0     H74466   8.010   0.591   8.887 -0.0516  1.0187 -0.5913
  540MOL0     H74467   8.173   0.660   8.639  1.9910  1.2506  0.1213
  540MOL0     H74468   8.003   0.688   8.664  1.5018  0.5698 -0.5427
  540MOL0     H74469   8.331   0.808   8.819  0.3721 -0.2910 -1.8727
  540MOL0     H74470   8.406   0.963   9.012  0.7165  1.5159  1.0220
  540MOL0     H74471   8.271   1.004   9.115  1.8695  0.4757 -0.2409
  540MOL0     H74472   8.416   1.165   8.911 -2.1052  0.2718 -1.9153
  540MOL0     H74473   8.255   1.213   8.926  2.9934  1.7150 -3.2084
  540MOL0     H74474   8.277   1.259   9.159 -0.7037  0.5374 -1.4336
  540MOL0     H74475   8.443   1.196   9.168  0.6246  2.1261  2.7289
  540MOL0     H74476   8.351   1.426   8.989  1.3162  0.4398 -2.1964
  540MOL0     H74477   8.418   1.471   9.146  0.5730 -0.8795  0.0038
  540MOL0     H74478   8.436   1.549   8.826 -1.6746  3.2536  1.7840
  540MOL0     H74479   8.449   1.711   8.646  0.0975  3.0290 -0.9602
  540MOL0     H74480   8.604   1.724   8.554 -0.9504  0.0913 -1.5558
  540MOL0     H74481   8.567   1.842   8.675  1.9033 -0.2042 -1.3206
  540MOL0     H74482   8.827   2.031   8.592 -1.6556  2.9096  1.0496
  540MOL0     H74483   8.944   2.200   8.520  0.7657 -2.0702 -3.4531
  540MOL0     H74484   9.380   2.169   8.491  0.3039 -2.3739 -3.0961
  540MOL0     H74485   9.250   2.173   8.371  1.4174 -2.3224  0.3522
  540MOL0     H74486   9.261   2.433   8.397 -2.2940 -1.8026 -0.8869
  540MOL0     H74487   9.416   2.389   8.482 -0.6532 -0.3703 -0.7289
  540MOL0     H74488   9.447   2.482   8.268 -1.6754  0.0179  0.1550
  540MOL0     H74489   9.370   2.342   8.192 -0.0066 -1.9561 -0.0027
  540MOL0     H74490   9.608   2.316   8.384  3.1007 -1.2021 -0.6659
  540MOL0     H74491   9.636   2.355   8.214 -0.3165  0.0126 -0.3102
  540MOL0     H74492   9.505   2.105   8.338 -0.6168  0.0896 -0.2381
  540MOL0     H74493   9.518   2.123   8.169 -0.4191 -0.1998  0.0266
  540MOL0     H74494   9.682   1.982   8.265 -0.9423  0.9791  1.8967
  540MOL0     H74495   9.757   2.120   8.344 -2.4928  1.6175  0.7906
  540MOL0     H74496   9.842   2.213   8.137 -2.1063  3.7134 -5.5957
  540MOL0     H74497   9.727   2.136   8.040 -1.9033 -3.1358  1.7974
  540MOL0     H74498   9.930   2.023   7.984 -1.5829 -3.9751 -0.7038
  540MOL0     H74499   9.849   1.908   8.090 -1.8954 -0.0800 -2.1592
  540MOL0     H74500   9.300   2.086   8.718  0.0606  0.7202 -0.2806
  540MOL0     H74501   9.158   1.903   8.838 -2.5348 -1.5782  0.4952
  540MOL0     H74502   8.931   1.577   8.878  0.4071 -0.6859 -3.5143
  540MOL0     H74503   8.812   1.412   9.005  0.4656 -1.7567 -1.6501
  540MOL0     H74504   7.379   0.433   9.003  2.6740 -3.8268  1.5832
  540MOL0     H74505   7.169   0.374   9.148  1.3974  0.3368  0.2554
  540MOL0     H74506   6.853   0.031   9.207  2.3063  1.7685 -2.2308
  540MOL0     H74507   6.659  -0.036   9.320  1.9756 -1.8764 -2.0155
  540MOL0     H74508   6.213   0.064   9.305 -0.4013 -2.5315  1.6333
  540MOL0     H74509   6.290   0.100   9.153  1.7246 -0.1477  0.6126
  540MOL0     H74510   6.162  -0.131   9.178  0.4278  0.2288 -4.4668
  540MOL0     H74511   6.298  -0.190   9.274  0.1992 -1.7020 -0.6465
  540MOL0     H74512   6.455  -0.119   9.097 -0.5218  1.5209  3.3478
  540MOL0     H74513   6.363  -0.259   9.072  2.0690  0.1420  2.1845
  540MOL0     H74514   6.335   0.024   8.948  1.0625 -1.2237  1.0164
  540MOL0     H74515   6.200  -0.096   8.918  0.5542 -0.8737 -4.4877
  540MOL0     H74516   6.506  -0.243   8.672 -0.2526  0.4576 -0.1518
  540MOL0     H74517   6.427   0.270   9.143  0.5183 -0.0022  1.2526
  540MOL0     H74518   6.628   0.388   8.891 -0.2413 -1.5044 -0.1374
  540MOL0     H74519   6.529   0.443   9.027  1.3396  1.1216  2.3606
  540MOL0     H74520   6.708   0.457   9.024  0.0075 -0.8586 -0.4737
  541MOL0     O74521   9.508   2.447   5.458 -0.0940 -0.4345 -0.5817
  541MOL0     C74522   9.439   2.511   5.538  0.0375 -0.3381  0.3551
  541MOL0     O74523   9.470   2.536   5.666 -0.1217  0.5292 -0.5676
  541MOL0     C74524   9.594   2.510   5.709  0.2741 -0.2071  0.1271
  541MOL0     C74525   9.693   2.597   5.678 -0.0929  0.2674  0.3017
  541MOL0     C74526   9.825   2.549   5.688 -0.0664 -0.1008 -0.1264
  541MOL0     C74527   9.858   2.432   5.760 -0.6967 -0.3674  0.5515
  541MOL0     O74528   9.985   2.386   5.760  0.0458  0.5898  0.1012
  541MOL0     C74529  10.038   2.346   5.890 -0.2888 -1.1025  0.0667
  541MOL0     C74530  10.187   2.295   5.893 -0.5336 -0.2065 -0.2359
  541MOL0     C74531  10.214   2.186   5.804 -0.0252 -0.1608 -0.0120
  541MOL0     C74532  10.359   2.148   5.807  0.2098  0.0306  1.2657
  541MOL0     C74533  10.405   2.035   5.709 -0.3716 -0.1310  0.0966
  541MOL0     C74534  10.538   1.957   5.745 -0.8848  0.3079 -0.3645
  541MOL0     C74535  10.650   2.056   5.761 -0.3531 -0.1371  0.1163
  541MOL0     C74536  10.778   1.998   5.820  0.5639 -0.1028 -0.1640
  541MOL0     N74537  10.893   2.088   5.808  0.3264  0.1808 -0.2134
  541MOL0     C74538  10.956   2.147   5.916 -0.6513 -0.1675  0.3300
  541MOL0     C74539  11.072   2.197   5.871  0.1600 -0.2358 -0.0240
  541MOL0     C74540  11.185   2.258   5.952  0.9920  0.1362 -0.0203
  541MOL0     C74541  11.286   2.152   5.996  0.4353 -0.1246 -0.0369
  541MOL0     C74542  11.217   2.059   6.105  0.1861 -0.5657  0.1031
  541MOL0     C74543  11.328   1.978   6.176  0.0663 -1.1446 -0.6919
  541MOL0     O74544  11.376   1.875   6.098 -0.6112 -0.2739 -0.0290
  541MOL0     C74545  11.510   1.848   6.116 -0.1849  0.2237 -0.0606
  541MOL0     C74546  11.609   1.929   6.058  0.1883  0.4273 -0.0611
  541MOL0     C74547  11.738   1.887   6.053 -0.2218  0.3950 -0.0105
  541MOL0     C74548  11.828   1.977   5.988 -0.2922  0.1440 -0.1519
  541MOL0     C74549  11.769   1.761   6.105 -0.3190 -0.3962 -0.1169
  541MOL0     C74550  11.900   1.698   6.075 -0.0307  0.4690  0.1801
  541MOL0     O74551  11.942   1.703   5.943  0.8269  0.7616  0.2684
  541MOL0     C74552  12.073   1.665   5.914 -0.4123 -0.0561 -0.9802
  541MOL0     C74553  12.092   1.599   5.795  0.1281 -0.2566 -0.1377
  541MOL0     C74554  12.217   1.558   5.749  0.0186 -0.3223  0.1113
  541MOL0     C74555  12.323   1.563   5.830 -0.8073  0.1994 -0.7208
  541MOL0     O74556  12.445   1.503   5.806 -0.1220 -0.3644 -0.5427
  541MOL0     C74557  12.488   1.462   5.673  0.4497 -0.5406  0.3030
  541MOL0     C74558  12.636   1.432   5.666  0.1402 -0.3823  0.1561
  541MOL0     C74559  12.682   1.289   5.696 -0.4565  0.4642  0.0325
  541MOL0     C74560  12.829   1.276   5.712  0.7205  0.3126  0.5930
  541MOL0     C74561  12.906   1.292   5.581 -0.4439  0.6010  0.1635
  541MOL0     C74562  13.058   1.266   5.586 -0.1283 -0.6720 -0.0602
  541MOL0     C74563  13.143   1.374   5.657  0.0839  0.4523 -0.6810
  541MOL0     C74564  13.287   1.393   5.598 -0.4705  0.0886  0.7403
  541MOL0    Cl74565  13.384   1.252   5.630 -0.5065 -0.0143 -0.3894
  541MOL0     C74566  12.314   1.642   5.942 -0.7874 -0.6114 -0.4082
  541MOL0     C74567  12.191   1.699   5.984  0.0947  0.6389 -0.2005
  541MOL0     O74568  11.965   1.654   6.172  1.0553 -0.3587 -0.4579
  541MOL0     C74569  11.670   1.688   6.175 -0.5027  0.3124  1.1258
  541MOL0     C74570  11.545   1.735   6.186 -0.1489  0.0067 -0.2341
  541MOL0     N74571  11.072   2.174   5.730  1.2762 -0.3773 -0.1976
  541MOL0     N74572  10.967   2.109   5.695 -0.0360  0.0006 -0.2991
  541MOL0     C74573   9.757   2.348   5.803 -0.3575  0.1233  0.0875
  541MOL0     C74574   9.620   2.387   5.783  0.3676 -0.8290 -0.7011
  541MOL0     C74575   9.305   2.570   5.483  0.2186  0.9405  0.1706
  541MOL0     C74576   9.242   2.668   5.563 -0.8109 -0.6708  1.2291
  541MOL0     C74577   9.119   2.721   5.549  0.5527  1.0325  0.7306
  541MOL0     C74578   9.045   2.677   5.431 -0.6077 -0.5141  0.3633
  541MOL0     O74579   8.918   2.717   5.390  0.0333  0.3510  0.2450
  541MOL0     C74580   8.861   2.816   5.469  0.4502  1.0952  0.3357
  541MOL0     C74581   8.708   2.827   5.452 -0.5359  0.7521 -0.2859
  541MOL0     C74582   8.643   2.857   5.316 -0.4089  0.1674  0.5896
  541MOL0     C74583   8.523   2.760   5.293  1.0365 -0.5563  0.1287
  541MOL0     C74584   8.429   2.814   5.194  0.4131  0.2629  0.6697
  541MOL0     C74585   8.356   2.849   5.103  0.3697  0.8079 -0.2214
  541MOL0     C74586   9.107   2.586   5.335  1.1950  0.0314  0.2820
  541MOL0     C74587   9.237   2.533   5.363  1.5499  0.4824  0.1689
  541MOL0     C74588   9.280   2.441   5.256  0.7556  0.8583  0.3556
  541MOL0     H74589   9.674   2.682   5.614 -0.2768 -1.8891 -2.7534
  541MOL0     H74590   9.901   2.613   5.644 -0.0675 -0.9398 -1.3933
  541MOL0     H74591   9.965   2.281   5.938 -0.8503  1.4111  2.9728
  541MOL0     H74592  10.051   2.437   5.949  2.2469 -1.8979  0.8974
  541MOL0     H74593  10.246   2.378   5.852 -0.4789 -0.4214 -0.5948
  541MOL0     H74594  10.219   2.286   5.998 -3.1335  0.9257  0.7369
  541MOL0     H74595  10.157   2.098   5.834 -1.1472  0.0137 -1.5153
  541MOL0     H74596  10.177   2.207   5.703 -1.0967 -0.3271  0.3285
  541MOL0     H74597  10.427   2.229   5.777 -2.0546  2.0582  1.2906
  541MOL0     H74598  10.373   2.114   5.910 -0.5848 -1.1956  0.9817
  541MOL0     H74599  10.439   2.082   5.616  1.7942  1.6116  1.6667
  541MOL0     H74600  10.317   1.971   5.695 -0.0387 -0.3331 -1.2525
  541MOL0     H74601  10.526   1.902   5.839  3.9408 -0.1818  0.2539
  541MOL0     H74602  10.573   1.887   5.668 -2.1764  0.1172 -0.7930
  541MOL0     H74603  10.621   2.145   5.819 -0.1011 -0.5271  0.8480
  541MOL0     H74604  10.677   2.093   5.662 -0.5772  0.5369  0.2972
  541MOL0     H74605  10.750   1.950   5.914 -3.5689  0.6851 -0.8033
  541MOL0     H74606  10.805   1.915   5.754  1.1999 -0.2724  0.2956
  541MOL0     H74607  10.926   2.148   6.020 -2.4067 -0.9049 -0.1273
  541MOL0     H74608  11.148   2.311   6.041 -0.8857 -0.3990 -0.4477
  541MOL0     H74609  11.231   2.343   5.901 -2.2041  1.8743 -0.2684
  541MOL0     H74610  11.317   2.098   5.906 -1.3873  1.4609 -1.7033
  541MOL0     H74611  11.376   2.198   6.037  2.0480 -2.6645 -0.4967
  541MOL0     H74612  11.164   2.128   6.170  3.4197  0.3754  1.9618
  541MOL0     H74613  11.136   1.995   6.068 -0.1611 -0.5331  0.7938
  541MOL0     H74614  11.410   2.045   6.202 -1.3692  0.7671 -0.8971
  541MOL0     H74615  11.292   1.937   6.271  2.0914 -3.6050 -0.8747
  541MOL0     H74616  11.580   2.025   6.019 -1.7067  0.7355  1.9115
  541MOL0     H74617  11.855   1.938   5.889 -3.1182 -1.7478 -0.2772
  541MOL0     H74618  11.914   1.999   6.052 -0.6361 -0.9042  0.7080
  541MOL0     H74619  11.773   2.071   5.976  0.6463  0.5896 -1.0995
  541MOL0     H74620  12.005   1.581   5.733  1.8548  0.5789 -2.9537
  541MOL0     H74621  12.236   1.496   5.662  2.4855 -2.0072  1.7283
  541MOL0     H74622  12.433   1.373   5.641  0.2569 -0.6138  0.8235
  541MOL0     H74623  12.476   1.538   5.596  1.5225 -0.3100  0.3410
  541MOL0     H74624  12.669   1.444   5.562 -1.1795 -2.5383 -0.5796
  541MOL0     H74625  12.687   1.495   5.740  0.2841 -0.4515  0.1172
  541MOL0     H74626  12.642   1.229   5.614 -0.2020 -0.5352  0.6211
  541MOL0     H74627  12.627   1.254   5.785 -1.0165  3.0332  0.7650
  541MOL0     H74628  12.838   1.176   5.755 -2.6567  0.6334  2.3870
  541MOL0     H74629  12.865   1.345   5.789  3.2743  0.1034 -0.3173
  541MOL0     H74630  12.872   1.219   5.507  2.6787 -0.2557 -0.5543
  541MOL0     H74631  12.880   1.386   5.531  1.5710  0.3308 -1.5159
  541MOL0     H74632  13.089   1.249   5.483 -1.1102 -1.6691 -0.2158
  541MOL0     H74633  13.069   1.168   5.633 -0.5948 -2.0304 -2.6357
  541MOL0     H74634  13.155   1.344   5.761  1.0208  1.4125 -0.5023
  541MOL0     H74635  13.104   1.475   5.645  2.1164  1.1984 -1.2974
  541MOL0     H74636  13.338   1.471   5.655  2.1638 -0.5112 -0.6218
  541MOL0     H74637  13.280   1.403   5.489  0.1865 -0.8014  0.6028
  541MOL0     H74638  12.404   1.656   6.000 -1.0914 -2.5380  0.6091
  541MOL0     H74639  12.190   1.742   6.083 -1.7374 -0.4448  0.2802
  541MOL0     H74640  11.696   1.588   6.208  2.2690  0.6587  0.2668
  541MOL0     H74641  11.473   1.660   6.214 -0.6626  0.3403 -0.6515
  541MOL0     H74642   9.776   2.248   5.840  3.5425 -2.3083 -6.6739
  541MOL0     H74643   9.538   2.328   5.824  0.6928 -1.4639 -0.9444
  541MOL0     H74644   9.298   2.697   5.651 -3.1994  0.6631  2.4234
  541MOL0     H74645   9.080   2.800   5.613  1.8999  3.4885 -1.2715
  541MOL0     H74646   8.863   2.784   5.574  1.0707 -0.6098 -0.1614
  541MOL0     H74647   8.914   2.911   5.453  3.0615 -0.5940 -2.0407
  541MOL0     H74648   8.661   2.895   5.524 -4.2100  0.3543 -2.0518
  541MOL0     H74649   8.673   2.727   5.476  2.7191 -0.5314 -0.3430
  541MOL0     H74650   8.622   2.964   5.315  1.3828  0.5581 -0.2953
  541MOL0     H74651   8.714   2.851   5.232 -0.1097  1.4105  0.7341
  541MOL0     H74652   8.457   2.762   5.381  0.3078  1.3565 -0.4038
  541MOL0     H74653   8.559   2.664   5.254  1.0347 -1.5158  2.3521
  541MOL0     H74654   8.301   2.884   5.018 -2.1844 -2.2106  0.0245
  541MOL0     H74655   9.048   2.565   5.247  1.3465  2.8722 -0.5799
  541MOL0     H74656   9.197   2.374   5.233 -0.7773  0.5189  5.7248
  541MOL0     H74657   9.324   2.484   5.165  2.2581  2.1511  1.6296
  541MOL0     H74658   9.367   2.379   5.279 -0.5685 -2.7434 -3.2214
  542MOL0     O74659   8.101   0.078   6.462 -1.0057 -0.0884  0.4134
  542MOL0     C74660   8.150  -0.020   6.405 -0.3202 -0.5383  0.1443
  542MOL0     O74661   8.271  -0.028   6.364 -0.0587  0.0196  0.1704
  542MOL0     C74662   8.359   0.079   6.352  0.2710  0.3547 -0.6281
  542MOL0     C74663   8.339   0.216   6.332  0.8314 -0.8949 -0.2273
  542MOL0     C74664   8.446   0.303   6.328  0.2155  0.5333  0.8823
  542MOL0     C74665   8.573   0.260   6.358 -0.2934 -0.6078  0.0881
  542MOL0     O74666   8.672   0.362   6.365 -0.3861  0.7198  0.6684
  542MOL0     C74667   8.783   0.339   6.276 -0.5678  0.6805 -0.0878
  542MOL0     C74668   8.907   0.300   6.352  0.4165  0.5377  0.0043
  542MOL0     C74669   9.038   0.312   6.270 -0.8486 -0.1306  0.5683
  542MOL0     C74670   9.159   0.261   6.352 -0.1348  0.4773 -0.6069
  542MOL0     C74671   9.283   0.260   6.255 -0.2487 -0.5212  0.2484
  542MOL0     C74672   9.408   0.228   6.332  0.6990 -0.4264 -0.7784
  542MOL0     C74673   9.440   0.339   6.439  0.2594 -0.0575  0.0954
  542MOL0     C74674   9.587   0.307   6.483  0.2052  0.2487 -0.3336
  542MOL0     N74675   9.605   0.184   6.561 -1.0953  0.3187 -0.2354
  542MOL0     C74676   9.628   0.062   6.504 -0.0721 -0.7907 -0.5748
  542MOL0     C74677   9.632  -0.027   6.612  0.4593  0.0087  0.6665
  542MOL0     C74678   9.630  -0.178   6.574 -0.2234 -0.3580 -0.7534
  542MOL0     C74679   9.768  -0.223   6.575 -0.1512  0.2907  0.6226
  542MOL0     C74680   9.782  -0.365   6.533 -0.3400  0.9658 -0.8826
  542MOL0     C74681   9.924  -0.410   6.504 -0.1105 -0.3387 -0.4166
  542MOL0     O74682  10.018  -0.386   6.608 -0.2523 -0.0322 -0.1181
  542MOL0     C74683  10.153  -0.376   6.583  0.5448  0.5920  0.6725
  542MOL0     C74684  10.220  -0.314   6.681  0.2899 -0.1408 -0.0978
  542MOL0     C74685  10.361  -0.309   6.682  0.0366  0.0505  0.4355
  542MOL0     C74686  10.423  -0.232   6.796  0.6398 -0.3797  0.3644
  542MOL0     C74687  10.436  -0.369   6.573  0.1202  0.2110 -0.0731
  542MOL0     C74688  10.578  -0.380   6.574  0.0448  0.0497 -0.1624
  542MOL0     O74689  10.634  -0.496   6.521  0.4256  0.9846  0.3412
  542MOL0     C74690  10.769  -0.531   6.528  0.7012 -0.2359  0.7836
  542MOL0     C74691  10.855  -0.471   6.629 -0.6518  0.6066 -0.0583
  542MOL0     C74692  10.996  -0.481   6.618 -0.0832 -0.1345  0.8329
  542MOL0     C74693  11.052  -0.558   6.510 -0.4956  0.5859  0.1473
  542MOL0     O74694  11.190  -0.575   6.494  0.5248  0.7258  0.4904
  542MOL0     C74695  11.289  -0.501   6.565  1.3016 -0.2635  0.3519
  542MOL0     C74696  11.430  -0.568   6.548  0.3802 -0.9381 -0.7261
  542MOL0     C74697  11.536  -0.497   6.629  0.2939  0.0142  0.4546
  542MOL0     C74698  11.575  -0.372   6.555  0.5075 -0.2501 -0.0477
  542MOL0     C74699  11.698  -0.308   6.611  0.2301 -0.4106 -0.2538
  542MOL0     C74700  11.762  -0.195   6.520 -0.2565 -0.0134  1.1221
  542MOL0     C74701  11.666  -0.111   6.441  0.0871  0.7231 -0.4931
  542MOL0     C74702  11.735   0.004   6.367 -0.5182 -0.4296  0.1713
  542MOL0    Cl74703  11.602   0.102   6.281  0.1223  0.2567 -0.1058
  542MOL0     C74704  10.967  -0.612   6.408 -0.4517  0.6252  0.0911
  542MOL0     C74705  10.831  -0.597   6.418  0.7521 -0.6056 -0.0061
  542MOL0     O74706  10.645  -0.279   6.620  0.6230 -0.4804  0.7196
  542MOL0     C74707  10.365  -0.420   6.465 -0.4233 -0.8611  0.8115
  542MOL0     C74708  10.227  -0.421   6.467  1.2146  0.1148  0.8287
  542MOL0     N74709   9.626   0.048   6.728 -0.0850  0.0756  0.0210
  542MOL0     N74710   9.613   0.177   6.697  0.5621  0.3196  0.2693
  542MOL0     C74711   8.600   0.127   6.390  0.3833  0.2049  0.1972
  542MOL0     C74712   8.487   0.040   6.392 -0.3650 -0.1720 -0.3039
  542MOL0     C74713   8.056  -0.128   6.355  0.7644 -1.2914 -0.3479
  542MOL0     C74714   8.089  -0.263   6.378 -0.2608 -0.5668  0.0382
  542MOL0     C74715   7.996  -0.370   6.359  0.1573  0.3717 -0.3531
  542MOL0     C74716   7.876  -0.335   6.303  0.0867  0.2371  0.3337
  542MOL0     O74717   7.764  -0.418   6.287 -0.3610 -0.1311 -0.2598
  542MOL0     C74718   7.787  -0.556   6.338 -0.0910  0.0883  0.6844
  542MOL0     C74719   7.665  -0.647   6.300  0.0478 -0.6689  0.0081
  542MOL0     C74720   7.548  -0.641   6.395 -0.4983 -0.3863 -0.1242
  542MOL0     C74721   7.444  -0.744   6.367 -0.1156 -0.1294  0.3811
  542MOL0     C74722   7.488  -0.882   6.392  0.1819 -0.4928  1.0512
  542MOL0     C74723   7.529  -0.995   6.405  0.8863  1.0920 -0.6557
  542MOL0     C74724   7.842  -0.198   6.272 -0.5098 -0.6999  0.9942
  542MOL0     C74725   7.929  -0.097   6.298 -0.1962 -0.2131  0.5895
  542MOL0     C74726   7.878   0.046   6.255 -0.3149  0.3516 -0.0503
  542MOL0     H74727   8.239   0.257   6.320  1.5176  0.7993 -0.4845
  542MOL0     H74728   8.420   0.400   6.286  0.4995 -0.4998 -1.8740
  542MOL0     H74729   8.803   0.437   6.231  0.3938  0.8084  0.5993
  542MOL0     H74730   8.759   0.266   6.197  0.1335  0.8526 -0.4720
  542MOL0     H74731   8.914   0.362   6.441 -1.3884  4.0950 -2.0924
  542MOL0     H74732   8.892   0.193   6.369 -0.1415  0.5786 -0.2270
  542MOL0     H74733   9.026   0.239   6.189 -0.2425 -1.3858  1.5623
  542MOL0     H74734   9.047   0.417   6.243 -3.2281 -0.1959 -0.7981
  542MOL0     H74735   9.176   0.336   6.430 -2.0933  0.8295 -0.4686
  542MOL0     H74736   9.126   0.167   6.397 -2.7850  1.8185  0.4318
  542MOL0     H74737   9.310   0.357   6.211  0.2532 -0.9380 -0.3869
  542MOL0     H74738   9.262   0.188   6.175  2.3521 -0.0799 -0.9650
  542MOL0     H74739   9.400   0.130   6.380  1.5305  0.2132  0.7427
  542MOL0     H74740   9.490   0.216   6.261  0.9257  1.3410 -0.8615
  542MOL0     H74741   9.372   0.336   6.524  0.3461 -1.1759  0.1385
  542MOL0     H74742   9.441   0.436   6.387  2.3322 -0.1652 -0.1600
  542MOL0     H74743   9.666   0.301   6.407  0.8347 -0.4809  0.3629
  542MOL0     H74744   9.600   0.394   6.548 -0.6736 -0.9402  1.5090
  542MOL0     H74745   9.626   0.049   6.396 -2.5424  3.1600 -1.2080
  542MOL0     H74746   9.586  -0.194   6.475 -2.8058  2.8446 -0.2563
  542MOL0     H74747   9.578  -0.239   6.649  0.1434 -0.4027 -0.5312
  542MOL0     H74748   9.817  -0.160   6.500  1.1518 -0.8352  0.4802
  542MOL0     H74749   9.799  -0.222   6.680 -0.2617 -1.4686  0.6877
  542MOL0     H74750   9.740  -0.438   6.603 -0.2714  0.4373 -1.3837
  542MOL0     H74751   9.730  -0.389   6.440 -3.6179 -1.5939  1.3752
  542MOL0     H74752   9.927  -0.517   6.481 -1.8206 -0.6511  0.6266
  542MOL0     H74753   9.959  -0.351   6.419  1.2907 -1.9195 -0.9977
  542MOL0     H74754  10.162  -0.279   6.766  1.8644  1.9856  0.1759
  542MOL0     H74755  10.355  -0.220   6.880  1.2597  0.1437  0.8094
  542MOL0     H74756  10.458  -0.135   6.759  0.5442 -0.7598 -0.7519
  542MOL0     H74757  10.505  -0.293   6.835 -0.7001 -4.9880 -3.1864
  542MOL0     H74758  10.821  -0.418   6.717  0.8884  0.0258  0.9435
  542MOL0     H74759  11.053  -0.425   6.691  0.1532 -0.0056  0.5526
  542MOL0     H74760  11.296  -0.395   6.536  1.3574 -0.0395  1.1728
  542MOL0     H74761  11.265  -0.497   6.671 -0.2344  3.6009  0.0366
  542MOL0     H74762  11.418  -0.670   6.586  0.6472 -0.5446  0.4408
  542MOL0     H74763  11.464  -0.576   6.444  1.0822 -1.3166 -0.4768
  542MOL0     H74764  11.621  -0.564   6.643 -0.7422 -1.3585  0.4223
  542MOL0     H74765  11.507  -0.472   6.732 -2.2169  2.0974 -0.6448
  542MOL0     H74766  11.496  -0.297   6.567  1.4629  0.3614  4.4204
  542MOL0     H74767  11.587  -0.381   6.447  2.4049  1.9385 -0.0762
  542MOL0     H74768  11.687  -0.274   6.715  1.4830 -3.1151  0.8508
  542MOL0     H74769  11.776  -0.384   6.616  0.2007 -0.3811  1.0064
  542MOL0     H74770  11.829  -0.242   6.447  2.2297  2.5276  1.5911
  542MOL0     H74771  11.828  -0.134   6.582 -0.5416  0.0577  1.3560
  542MOL0     H74772  11.589  -0.075   6.509  0.2164  0.6977 -0.3317
  542MOL0     H74773  11.623  -0.181   6.369  3.1342 -0.7907 -1.0219
  542MOL0     H74774  11.799  -0.027   6.284  0.3993 -0.0044  0.7071
  542MOL0     H74775  11.791   0.068   6.436 -0.8937  0.4895 -0.3513
  542MOL0     H74776  11.008  -0.668   6.325 -0.4939  0.8396 -0.0765
  542MOL0     H74777  10.757  -0.629   6.345  0.4300 -1.4713  0.6719
  542MOL0     H74778  10.407  -0.467   6.377 -1.9514 -1.4932  0.3953
  542MOL0     H74779  10.163  -0.469   6.393 -0.8854  1.6071  1.5761
  542MOL0     H74780   8.697   0.102   6.432 -0.8243 -1.1237  2.4539
  542MOL0     H74781   8.505  -0.061   6.429 -0.5910 -0.5310 -1.1229
  542MOL0     H74782   8.190  -0.274   6.416 -0.2499  1.4344  0.7541
  542MOL0     H74783   8.039  -0.467   6.381  2.7368  1.0897 -1.7346
  542MOL0     H74784   7.876  -0.607   6.303  0.8854  0.6080  2.2741
  542MOL0     H74785   7.805  -0.553   6.446  0.4556  0.9168  0.5822
  542MOL0     H74786   7.704  -0.749   6.307  1.7488 -0.1361 -1.1628
  542MOL0     H74787   7.629  -0.624   6.199 -2.6933 -1.1735  0.7745
  542MOL0     H74788   7.582  -0.644   6.499 -1.3876 -0.3517  0.1827
  542MOL0     H74789   7.502  -0.545   6.373 -0.8854 -0.4459  0.3878
  542MOL0     H74790   7.413  -0.736   6.262 -0.2094 -0.9281  0.3446
  542MOL0     H74791   7.356  -0.707   6.420 -0.8063  0.4857 -1.1114
  542MOL0     H74792   7.560  -1.097   6.414  0.8672  1.2613  2.2267
  542MOL0     H74793   7.747  -0.162   6.232 -1.3166 -1.5538  2.0931
  542MOL0     H74794   7.804   0.051   6.175  1.1037  0.2935 -1.4116
  542MOL0     H74795   7.845   0.109   6.338 -2.1443 -0.7946  0.1654
  542MOL0     H74796   7.968   0.092   6.215  0.4873 -1.0042  0.1090
  543MOL0     O74797   4.622   1.388   2.554 -0.1130 -0.0014 -0.1940
  543MOL0     C74798   4.617   1.439   2.665 -0.0124  0.5199  0.7365
  543MOL0     O74799   4.722   1.439   2.749  0.2804 -0.6430 -0.1959
  543MOL0     C74800   4.827   1.350   2.718 -0.1413 -0.0323 -0.2338
  543MOL0     C74801   4.935   1.367   2.627 -0.6770  1.2630  0.1923
  543MOL0     C74802   5.024   1.257   2.605  0.1060 -0.4516 -0.3734
  543MOL0     C74803   5.014   1.141   2.685  0.2464  0.0897 -0.3190
  543MOL0     O74804   5.097   1.030   2.680 -0.1138  0.0142  0.2234
  543MOL0     C74805   5.222   1.043   2.600  0.9335  0.7791  0.1196
  543MOL0     C74806   5.332   1.125   2.668  0.4106  0.8124 -0.3683
  543MOL0     C74807   5.390   1.051   2.795  0.7312 -0.0316  0.7094
  543MOL0     C74808   5.481   1.157   2.863 -0.0136 -0.1685 -0.1630
  543MOL0     C74809   5.493   1.102   3.011 -0.0590  0.1182  0.4364
  543MOL0     C74810   5.605   0.999   3.024 -0.1397 -0.5177 -0.1442
  543MOL0     C74811   5.609   0.949   3.167  0.3692 -0.0539  0.6319
  543MOL0     C74812   5.497   0.840   3.191  0.0945 -0.2780  0.2227
  543MOL0     N74813   5.477   0.833   3.336 -0.2528 -0.1235  0.3073
  543MOL0     C74814   5.559   0.803   3.443 -0.1383 -0.0084 -0.5557
  543MOL0     C74815   5.491   0.770   3.550  0.4635  0.4025 -0.2678
  543MOL0     C74816   5.548   0.724   3.682  1.6278  0.4478  0.3877
  543MOL0     C74817   5.678   0.801   3.719  1.1624  0.3747  0.3128
  543MOL0     C74818   5.661   0.951   3.745  0.2408 -0.6459 -0.0270
  543MOL0     C74819   5.778   1.017   3.798 -0.2921 -0.4071 -0.2721
  543MOL0     O74820   5.882   1.008   3.704  0.5746 -0.1164 -0.4079
  543MOL0     C74821   6.009   1.021   3.746 -1.1895  0.1953  0.2999
  543MOL0     C74822   6.126   0.988   3.660  0.0165  0.7914 -0.0730
  543MOL0     C74823   6.253   0.970   3.718  0.6859  0.0516  0.6125
  543MOL0     C74824   6.361   0.947   3.618  0.7510  0.5027 -0.9973
  543MOL0     C74825   6.276   0.995   3.854 -0.3498 -1.0565  0.0223
  543MOL0     C74826   6.416   0.990   3.918 -0.5707  0.3010  0.0814
  543MOL0     O74827   6.533   1.032   3.852 -0.0691  0.3328  0.3917
  543MOL0     C74828   6.656   0.983   3.887  0.4423 -0.2590 -0.2908
  543MOL0     C74829   6.763   1.066   3.858 -0.0710  0.0942 -0.4192
  543MOL0     C74830   6.895   1.012   3.873  0.0470  0.2184  0.5892
  543MOL0     C74831   6.926   0.879   3.905 -0.0916  0.6861 -0.4534
  543MOL0     O74832   7.052   0.833   3.920  0.4169  0.2457  0.3299
  543MOL0     C74833   7.158   0.931   3.920  0.0739 -0.1116 -0.2821
  543MOL0     C74834   7.295   0.872   3.958  0.2279 -0.1790  0.3888
  543MOL0     C74835   7.301   0.811   4.095 -0.7994  0.3246  0.1377
  543MOL0     C74836   7.439   0.795   4.148  0.4631  0.3150  0.4948
  543MOL0     C74837   7.444   0.728   4.283  0.3851  0.0429 -1.2417
  543MOL0     C74838   7.574   0.747   4.364  0.4689  0.4650 -0.7760
  543MOL0     C74839   7.572   0.655   4.490  0.4885 -0.6938 -0.1890
  543MOL0     C74840   7.633   0.532   4.452 -1.3718  0.1225  0.1603
  543MOL0    Cl74841   7.629   0.408   4.579  0.1252  0.2372 -0.2970
  543MOL0     C74842   6.809   0.803   3.934  0.2377 -0.3518 -0.1151
  543MOL0     C74843   6.676   0.849   3.915  0.1153 -0.0777  0.2944
  543MOL0     O74844   6.417   0.935   4.029  0.2516 -1.2320  0.4294
  543MOL0     C74845   6.173   1.038   3.936  0.2366 -1.0733  0.0610
  543MOL0     C74846   6.050   1.050   3.881  0.8825  0.0884  0.2285
  543MOL0     N74847   5.356   0.783   3.511  0.0913 -0.7081 -0.4102
  543MOL0     N74848   5.352   0.822   3.388 -0.5234  0.0620  0.1243
  543MOL0     C74849   4.909   1.133   2.782 -0.7876  0.3119 -0.0249
  543MOL0     C74850   4.823   1.236   2.796  0.9517 -0.6876  0.2746
  543MOL0     C74851   4.492   1.509   2.715  0.5195  0.5662 -0.4652
  543MOL0     C74852   4.372   1.504   2.639  0.7941 -0.1482  1.0686
  543MOL0     C74853   4.263   1.571   2.681  0.4748 -1.5757 -0.4294
  543MOL0     C74854   4.252   1.648   2.802 -0.8320 -0.3341 -0.0517
  543MOL0     O74855   4.135   1.715   2.822 -0.7336  0.1282  0.7196
  543MOL0     C74856   4.132   1.800   2.935 -0.1771  0.0011  0.1093
  543MOL0     C74857   4.117   1.719   3.069  0.0984 -0.0302  0.3646
  543MOL0     C74858   4.019   1.601   3.073 -0.7416 -0.1130  0.6738
  543MOL0     C74859   3.876   1.643   3.051 -0.0804  0.3181  0.3723
  543MOL0     C74860   3.824   1.729   3.161 -0.1142  0.6000  0.6000
  543MOL0     C74861   3.771   1.802   3.237  0.3698  0.0583 -0.8961
  543MOL0     C74862   4.368   1.654   2.870 -0.1309  0.1010  0.2630
  543MOL0     C74863   4.486   1.591   2.836 -0.7561 -0.2578 -0.0129
  543MOL0     C74864   4.600   1.610   2.929 -0.7347 -0.5590  0.4297
  543MOL0     H74865   4.940   1.455   2.565 -1.7527  0.3215 -1.3094
  543MOL0     H74866   5.101   1.270   2.529  2.1759 -1.6248  1.4060
  543MOL0     H74867   5.183   1.083   2.506 -2.9907  0.3325  1.4062
  543MOL0     H74868   5.261   0.941   2.585 -1.7105 -0.8807  3.3015
  543MOL0     H74869   5.418   1.136   2.602  1.1158  0.9200  0.5600
  543MOL0     H74870   5.295   1.223   2.699 -1.1402  0.8568 -2.1503
  543MOL0     H74871   5.304   1.030   2.859 -0.0009  1.4153  0.2362
  543MOL0     H74872   5.441   0.959   2.763 -2.0156 -0.4399 -3.1565
  543MOL0     H74873   5.575   1.148   2.808  0.1822 -0.0350  0.1487
  543MOL0     H74874   5.444   1.260   2.867 -0.3555 -0.3271  0.9260
  543MOL0     H74875   5.397   1.061   3.043 -0.4438  1.7581  1.5542
  543MOL0     H74876   5.497   1.192   3.073 -1.4199  1.5622 -1.4125
  543MOL0     H74877   5.580   0.910   2.965  1.6521 -2.0731  1.3016
  543MOL0     H74878   5.702   1.044   3.002  0.7503 -1.6264  1.3041
  543MOL0     H74879   5.593   1.037   3.230 -1.7371  0.8839 -1.0950
  543MOL0     H74880   5.707   0.904   3.185  0.2712  0.2085  1.9239
  543MOL0     H74881   5.397   0.859   3.151  0.6900  1.8179 -0.3518
  543MOL0     H74882   5.532   0.740   3.161  1.6112  0.2618  0.1504
  543MOL0     H74883   5.666   0.806   3.421  0.1188  2.6475  0.7378
  543MOL0     H74884   5.578   0.619   3.672  1.6073  0.7068 -3.8272
  543MOL0     H74885   5.477   0.735   3.765  3.0490 -0.9100  1.8528
  543MOL0     H74886   5.720   0.771   3.815 -2.2666 -0.1404  1.8169
  543MOL0     H74887   5.748   0.774   3.640 -2.5046 -1.6533 -2.5707
  543MOL0     H74888   5.626   0.999   3.653 -0.7119 -1.1902  0.0470
  543MOL0     H74889   5.586   0.963   3.823 -1.0753  0.8784 -1.4625
  543MOL0     H74890   5.760   1.122   3.823 -0.9182 -0.8961  1.4357
  543MOL0     H74891   5.802   0.960   3.888 -0.8362 -1.0014 -0.4947
  543MOL0     H74892   6.106   0.976   3.554 -1.7641 -0.1524  0.3300
  543MOL0     H74893   6.396   1.046   3.588 -0.4719  0.6307 -2.0525
  543MOL0     H74894   6.322   0.889   3.534  0.5605 -1.0718  0.1332
  543MOL0     H74895   6.453   0.905   3.661  0.3815  3.2903  3.0470
  543MOL0     H74896   6.749   1.170   3.830 -0.4349 -0.2295 -1.4805
  543MOL0     H74897   6.970   1.090   3.867  0.2890 -0.1420 -1.9688
  543MOL0     H74898   7.170   0.988   3.827  1.7430  2.2125  1.2620
  543MOL0     H74899   7.132   1.010   3.990 -1.3708  0.1298 -1.0536
  543MOL0     H74900   7.308   0.796   3.880 -0.9184  1.3624 -1.4115
  543MOL0     H74901   7.374   0.946   3.959  0.0661 -0.0022  0.1733
  543MOL0     H74902   7.240   0.721   4.083 -1.7628  1.2612 -2.7870
  543MOL0     H74903   7.243   0.884   4.153 -1.9674  0.7921 -1.5271
  543MOL0     H74904   7.480   0.896   4.160  1.1572 -0.0508  1.2619
  543MOL0     H74905   7.501   0.742   4.076  1.3069  0.4765  1.0849
  543MOL0     H74906   7.361   0.759   4.346 -0.8489  1.5082 -3.4770
  543MOL0     H74907   7.442   0.623   4.250  0.7240  0.1401 -1.5731
  543MOL0     H74908   7.578   0.854   4.383  2.6286  0.4957 -1.2230
  543MOL0     H74909   7.667   0.723   4.313  2.0316 -0.3404  2.1907
  543MOL0     H74910   7.469   0.634   4.520  0.6787 -1.1128  0.1768
  543MOL0     H74911   7.621   0.696   4.579 -0.1467 -0.0162 -0.1371
  543MOL0     H74912   7.740   0.542   4.433 -0.9209 -1.9150  1.3156
  543MOL0     H74913   7.586   0.500   4.359  3.1204 -3.4319 -1.2576
  543MOL0     H74914   6.824   0.700   3.966  0.2513 -0.3606 -0.1488
  543MOL0     H74915   6.597   0.775   3.927  0.2784 -0.2249  0.4616
  543MOL0     H74916   6.185   1.053   4.043 -1.5756 -0.9024  0.2677
  543MOL0     H74917   5.977   1.079   3.955  0.3062 -1.7771  0.4349
  543MOL0     H74918   4.915   1.040   2.836  1.1588 -1.0705 -2.4245
  543MOL0     H74919   4.744   1.229   2.870  0.0772  1.7690 -0.3428
  543MOL0     H74920   4.370   1.442   2.549  1.8112  0.7720  0.3946
  543MOL0     H74921   4.172   1.568   2.622 -0.6765  0.7915  1.0717
  543MOL0     H74922   4.220   1.865   2.937  1.2173 -1.7954  2.0633
  543MOL0     H74923   4.050   1.868   2.912  1.7480  1.4191 -3.2322
  543MOL0     H74924   4.090   1.773   3.161 -1.1991  0.5648 -0.3421
  543MOL0     H74925   4.215   1.674   3.089 -0.3007 -0.6317  0.9775
  543MOL0     H74926   4.042   1.524   2.999  0.9164  0.0367  1.0097
  543MOL0     H74927   4.032   1.555   3.171  1.1087  0.7368  0.8661
  543MOL0     H74928   3.808   1.559   3.070  0.2810  0.2520  1.4360
  543MOL0     H74929   3.861   1.691   2.954  1.8543  2.7255  1.1682
  543MOL0     H74930   3.716   1.867   3.302 -0.1276 -1.1373 -0.0735
  543MOL0     H74931   4.371   1.717   2.958 -0.3694  1.5085 -0.7085
  543MOL0     H74932   4.676   1.681   2.894 -0.0452 -0.9697  1.0653
  543MOL0     H74933   4.565   1.665   3.018  1.7513  0.7963  0.6593
  543MOL0     H74934   4.654   1.522   2.965  0.0308 -0.1707  0.2389
  544MOL0     O74935   9.557   4.364   9.012  0.0777 -0.5785  0.1431
  544MOL0     C74936   9.554   4.245   9.006  0.2989  0.0863 -0.4623
  544MOL0     O74937   9.461   4.162   9.078  0.2886 -0.5422 -0.1148
  544MOL0     C74938   9.355   4.213   9.147 -0.1564 -1.1414  0.6699
  544MOL0     C74939   9.379   4.309   9.255  0.4153 -0.5662 -0.1022
  544MOL0     C74940   9.269   4.361   9.324 -1.0172 -0.2761 -0.4981
  544MOL0     C74941   9.132   4.341   9.285 -0.5527 -0.1004 -0.5964
  544MOL0     O74942   9.027   4.393   9.349 -0.0746 -0.1862 -0.0297
  544MOL0     C74943   9.026   4.536   9.365 -0.2848 -0.4530 -0.2429
  544MOL0     C74944   9.089   4.576   9.499  0.4563  0.7010  0.8885
  544MOL0     C74945   9.069   4.474   9.610  0.5133 -0.1027 -0.3398
  544MOL0     C74946   9.090   4.536   9.750  0.7889  0.3263  0.1359
  544MOL0     C74947   9.102   4.433   9.858  0.1165  0.8356 -0.8905
  544MOL0     C74948   9.215   4.330   9.835 -0.0076  0.1141 -0.5304
  544MOL0     C74949   9.349   4.401   9.797 -0.4119 -0.5763 -0.5458
  544MOL0     C74950   9.461   4.293   9.801 -0.2498 -0.5654  0.0934
  544MOL0     N74951   9.453   4.209   9.682 -0.1005  0.4822  0.0792
  544MOL0     C74952   9.546   4.192   9.584  0.4164 -0.3773  0.3582
  544MOL0     C74953   9.503   4.083   9.503 -0.6334 -0.7153 -0.1481
  544MOL0     C74954   9.569   4.016   9.393 -0.1600 -0.5380 -0.1123
  544MOL0     C74955   9.679   3.925   9.445  0.0772 -0.5946  0.4434
  544MOL0     C74956   9.639   3.832   9.557 -0.0779  0.7151  0.2518
  544MOL0     C74957   9.757   3.740   9.585 -0.1605  0.0496  0.4969
  544MOL0     O74958   9.706   3.637   9.673 -0.5118 -1.1318  0.0444
  544MOL0     C74959   9.795   3.536   9.695  0.2212  0.0114  0.1795
  544MOL0     C74960   9.766   3.451   9.801 -0.0591 -0.2690  0.1975
  544MOL0     C74961   9.845   3.345   9.834 -1.0357  1.0414 -0.7534
  544MOL0     C74962   9.776   3.244   9.931  0.1068 -0.2328  1.0197
  544MOL0     C74963   9.979   3.330   9.771  0.1429 -0.4105 -0.0745
  544MOL0     C74964  10.077   3.235   9.824 -0.6605 -0.5703 -0.1933
  544MOL0     O74965  10.198   3.232   9.760 -0.1714  0.4091  0.3219
  544MOL0     C74966  10.304   3.164   9.815 -0.8395  0.3557  0.4106
  544MOL0     C74967  10.309   3.022   9.813 -0.5709  0.3221 -0.4222
  544MOL0     C74968  10.413   2.951   9.865 -0.0338  0.0153  0.0105
  544MOL0     C74969  10.510   3.022   9.950 -0.3282  0.8865  0.2272
  544MOL0     O74970  10.615   2.965  10.019 -0.1579 -0.1688  0.2574
  544MOL0     C74971  10.649   2.828   9.990  0.0534  0.3179  0.7779
  544MOL0     C74972  10.801   2.817   9.964  0.1815 -1.0093  0.6044
  544MOL0     C74973  10.832   2.680   9.908  0.0214  0.5081 -0.7397
  544MOL0     C74974  10.981   2.672   9.908 -0.4551 -0.0398 -0.8683
  544MOL0     C74975  11.044   2.542   9.856  0.2349  0.8807  0.2815
  544MOL0     C74976  11.183   2.555   9.824 -0.2842  0.1846  0.2833
  544MOL0     C74977  11.238   2.433   9.751  0.7891 -0.3398 -0.4202
  544MOL0     C74978  11.311   2.461   9.623  0.3338 -0.4490 -0.0474
  544MOL0    Cl74979  11.329   2.308   9.534  0.3797 -0.0896 -0.3345
  544MOL0     C74980  10.500   3.159   9.958 -0.6177  0.1770  0.0896
  544MOL0     C74981  10.400   3.233   9.892  0.4714 -0.5965 -0.0778
  544MOL0     O74982  10.052   3.177   9.930 -0.1316  0.0087  0.9414
  544MOL0     C74983  10.013   3.416   9.670 -0.1331  0.7019 -0.9074
  544MOL0     C74984   9.923   3.518   9.632  0.1071 -0.2282 -0.0766
  544MOL0     N74985   9.390   4.042   9.557  0.3937 -0.1651  0.0752
  544MOL0     N74986   9.363   4.109   9.663 -0.0972 -0.3321  0.6016
  544MOL0     C74987   9.121   4.254   9.172 -0.9073  0.0588  0.0296
  544MOL0     C74988   9.230   4.190   9.110 -0.9532  0.8849 -0.8366
  544MOL0     C74989   9.668   4.182   8.934  0.0730  0.6767  0.0994
  544MOL0     C74990   9.686   4.049   8.959 -0.0734 -0.3307  0.2243
  544MOL0     C74991   9.782   3.977   8.907 -0.1032  0.1845 -0.1294
  544MOL0     C74992   9.868   4.026   8.805  0.5496 -0.5826 -0.0470
  544MOL0     O74993   9.958   3.950   8.742 -0.7553 -0.4005  0.7737
  544MOL0     C74994   9.945   3.813   8.702  0.4300  0.3095 -0.0773
  544MOL0     C74995   9.994   3.823   8.565 -0.1728  0.8737  0.1385
  544MOL0     C74996   9.914   3.915   8.479 -0.5196  0.2897  0.2384
  544MOL0     C74997   9.953   3.890   8.335  0.4888  0.6513  0.0640
  544MOL0     C74998   9.881   3.977   8.243 -0.0566 -0.1767 -1.2432
  544MOL0     C74999   9.816   4.054   8.174 -0.6694 -0.5396 -0.2111
  544MOL0     C75000   9.857   4.158   8.781 -0.3688 -0.3016  0.0454
  544MOL0     C75001   9.757   4.242   8.839 -0.6609  1.3013  0.9104
  544MOL0     C75002   9.765   4.391   8.811  0.4010  0.1688 -0.0407
  544MOL0     H75003   9.476   4.329   9.301 -0.3416 -1.2543  1.9033
  544MOL0     H75004   9.291   4.411   9.418 -0.5768  0.8805 -1.1912
  544MOL0     H75005   8.920   4.564   9.362 -0.3122 -0.5226 -3.9357
  544MOL0     H75006   9.074   4.591   9.283  0.3310 -0.5691  0.0290
  544MOL0     H75007   9.196   4.591   9.483  0.4983  0.4441  0.9310
  544MOL0     H75008   9.055   4.674   9.534 -0.6414  0.0774  1.6240
  544MOL0     H75009   8.964   4.442   9.601  1.2421 -2.0942 -3.7224
  544MOL0     H75010   9.114   4.375   9.600 -1.8510 -1.5074  1.7778
  544MOL0     H75011   9.185   4.590   9.752  0.7112  0.6986 -2.6952
  544MOL0     H75012   9.012   4.604   9.786 -0.6810 -1.5715  0.6756
  544MOL0     H75013   9.003   4.388   9.871  1.2725 -2.0750 -1.3869
  544MOL0     H75014   9.125   4.491   9.948 -1.7293 -1.1847  0.9994
  544MOL0     H75015   9.229   4.272   9.926 -2.7446  0.7195  0.3554
  544MOL0     H75016   9.196   4.256   9.756  3.7727 -0.4597 -1.1097
  544MOL0     H75017   9.368   4.484   9.865  1.0060 -0.7594 -0.6918
  544MOL0     H75018   9.337   4.440   9.695 -1.9893  2.5939  0.7115
  544MOL0     H75019   9.556   4.346   9.804 -0.6860  0.2112  2.5266
  544MOL0     H75020   9.457   4.229   9.890 -1.1254 -1.0980 -0.3136
  544MOL0     H75021   9.643   4.240   9.578 -0.9685  2.4606 -2.6519
  544MOL0     H75022   9.607   4.085   9.317 -0.5573 -1.3437 -1.0843
  544MOL0     H75023   9.492   3.960   9.337 -1.2022 -0.2657  1.0102
  544MOL0     H75024   9.713   3.869   9.358 -2.8076 -1.9709  0.0938
  544MOL0     H75025   9.755   3.987   9.494  0.5315 -1.2468  0.5783
  544MOL0     H75026   9.616   3.883   9.651  0.6586  0.4740  0.5709
  544MOL0     H75027   9.557   3.764   9.530  1.1890 -0.5239 -0.6199
  544MOL0     H75028   9.791   3.690   9.494 -0.5013 -0.2277  0.5191
  544MOL0     H75029   9.848   3.793   9.613  0.3242  0.3876 -1.5958
  544MOL0     H75030   9.671   3.456   9.853  0.4175  0.9373  0.9901
  544MOL0     H75031   9.841   3.223  10.016 -1.2442 -2.0592  1.6886
  544MOL0     H75032   9.752   3.149   9.882 -1.2005 -0.0283  1.2281
  544MOL0     H75033   9.682   3.283   9.971  0.1665 -0.0051  0.9396
  544MOL0     H75034  10.226   2.967   9.770 -0.6357  1.1953 -1.4566
  544MOL0     H75035  10.401   2.843   9.861  0.9426 -0.0749 -2.1252
  544MOL0     H75036  10.624   2.747  10.059 -2.1078 -1.3327 -1.7350
  544MOL0     H75037  10.596   2.784   9.905  1.3871 -0.3171  0.2351
  544MOL0     H75038  10.829   2.894   9.892  1.9037  0.2849  2.5410
  544MOL0     H75039  10.846   2.836  10.062  0.1466  0.8999  0.2846
  544MOL0     H75040  10.782   2.672   9.811  2.3551  2.1867 -2.1897
  544MOL0     H75041  10.805   2.600   9.978 -1.0544  3.3211  2.2744
  544MOL0     H75042  11.012   2.696  10.010  0.5089 -0.3999 -1.0700
  544MOL0     H75043  11.027   2.744   9.840 -1.3313  0.4831 -0.9211
  544MOL0     H75044  11.032   2.474   9.941  0.6418  0.3447 -0.0848
  544MOL0     H75045  10.985   2.513   9.768  2.1886 -1.2533 -0.4204
  544MOL0     H75046  11.238   2.579   9.915 -0.3531 -1.6362  0.8227
  544MOL0     H75047  11.197   2.644   9.761 -0.3961  0.1186  0.1650
  544MOL0     H75048  11.151   2.375   9.721  1.4214 -0.4552 -2.1454
  544MOL0     H75049  11.302   2.369   9.813 -0.4260 -0.7044  0.4819
  544MOL0     H75050  11.404   2.509   9.653  0.2138  0.6418 -1.3274
  544MOL0     H75051  11.246   2.519   9.557  0.5550 -0.5534 -0.3558
  544MOL0     H75052  10.581   3.208  10.011 -1.4945 -0.9713  2.6780
  544MOL0     H75053  10.389   3.341   9.892  1.4135 -0.4927 -0.1888
  544MOL0     H75054  10.108   3.409   9.619  0.2554  2.4984 -0.4853
  544MOL0     H75055   9.948   3.580   9.547  0.5032 -1.7515 -1.0976
  544MOL0     H75056   9.017   4.248   9.141 -0.6401 -1.2569 -0.7042
  544MOL0     H75057   9.202   4.124   9.028  1.9044  0.8446 -1.9086
  544MOL0     H75058   9.631   3.992   9.033 -2.7757 -0.1992 -1.5245
  544MOL0     H75059   9.796   3.874   8.937  2.1751  0.9879  1.9275
  544MOL0     H75060  10.011   3.747   8.760 -2.0573 -1.6197  0.7412
  544MOL0     H75061   9.841   3.780   8.705  1.6760 -4.3684  0.7373
  544MOL0     H75062   9.993   3.719   8.531 -2.0843  0.4163  1.4210
  544MOL0     H75063  10.100   3.852   8.562 -0.2887  1.4369  1.0673
  544MOL0     H75064   9.810   3.885   8.493 -0.4105 -0.9497 -1.2988
  544MOL0     H75065   9.931   4.021   8.500  0.3211  0.7781 -2.5144
  544MOL0     H75066   9.931   3.791   8.295  2.6363  0.6852 -1.3758
  544MOL0     H75067  10.060   3.906   8.314  0.5743  0.4317  0.3244
  544MOL0     H75068   9.761   4.129   8.120  1.7271  1.5833  0.0640
  544MOL0     H75069   9.922   4.199   8.704 -2.2010 -0.0536 -1.4695
  544MOL0     H75070   9.789   4.445   8.903  1.8806  0.8531 -0.7974
  544MOL0     H75071   9.844   4.407   8.738 -0.1820 -1.0571 -0.9740
  544MOL0     H75072   9.668   4.425   8.774 -1.5188 -1.9921  2.5783
  545MOL0     O75073  11.281   1.182   3.671  0.1825 -0.3887 -0.4381
  545MOL0     C75074  11.310   1.160   3.788  1.6436  0.5621  0.6040
  545MOL0     O75075  11.263   1.053   3.862 -0.4487  0.0755 -0.1369
  545MOL0     C75076  11.181   0.965   3.798 -0.0496 -0.1326  0.3474
  545MOL0     C75077  11.243   0.868   3.711  0.3209 -0.9106  0.0953
  545MOL0     C75078  11.163   0.767   3.656  0.8759  0.7600  0.0950
  545MOL0     C75079  11.021   0.763   3.682 -1.0541 -0.6150 -0.4319
  545MOL0     O75080  10.943   0.666   3.630 -0.3295 -0.5105  0.5225
  545MOL0     C75081  10.797   0.664   3.622 -0.5804 -0.4684 -0.0459
  545MOL0     C75082  10.734   0.541   3.564  0.4060  0.7973  1.1427
  545MOL0     C75083  10.792   0.468   3.443 -0.5639 -0.4450 -0.8562
  545MOL0     C75084  10.768   0.550   3.320  0.5172 -0.8043  0.0855
  545MOL0     C75085  10.840   0.490   3.187  0.8979  0.3043 -0.0394
  545MOL0     C75086  10.799   0.562   3.055  1.1235 -0.5117 -0.4258
  545MOL0     C75087  10.653   0.577   3.042  0.7985  0.1594  0.0059
  545MOL0     C75088  10.608   0.627   2.908 -0.5959  1.0116  1.4857
  545MOL0     N75089  10.617   0.511   2.808 -0.7912  0.0737 -0.4212
  545MOL0     C75090  10.703   0.497   2.702 -0.1826  0.3800 -0.0442
  545MOL0     C75091  10.642   0.395   2.630 -0.2647 -0.4082 -0.3947
  545MOL0     C75092  10.687   0.338   2.498  1.0880  0.0076 -0.6918
  545MOL0     C75093  10.833   0.323   2.466  0.5820 -0.6192 -0.9302
  545MOL0     C75094  10.926   0.275   2.583  0.8210 -1.0611  0.0191
  545MOL0     C75095  11.069   0.311   2.541 -0.0585  0.2751 -0.3186
  545MOL0     O75096  11.170   0.254   2.634  0.7063  0.1537 -0.2584
  545MOL0     C75097  11.303   0.296   2.627  0.6367  0.3154  0.3952
  545MOL0     C75098  11.396   0.262   2.730 -0.1714 -0.1939 -0.2583
  545MOL0     C75099  11.535   0.280   2.718 -0.0198  0.0748  0.4333
  545MOL0     C75100  11.629   0.248   2.836 -0.8158 -0.5228  0.1877
  545MOL0     C75101  11.588   0.345   2.601  0.4345 -0.4541  0.1031
  545MOL0     C75102  11.734   0.380   2.585 -0.9451 -0.1021 -0.2455
  545MOL0     O75103  11.755   0.500   2.513  0.1676 -0.3785  0.2855
  545MOL0     C75104  11.870   0.572   2.486  0.2056  0.1809 -0.7724
  545MOL0     C75105  11.997   0.521   2.496 -0.0275  0.3995 -0.7148
  545MOL0     C75106  12.104   0.605   2.466 -0.7735 -0.1159 -0.5038
  545MOL0     C75107  12.091   0.739   2.420  0.0768  0.9580 -0.6369
  545MOL0     O75108  12.210   0.804   2.394  0.1195 -0.0141 -0.7363
  545MOL0     C75109  12.188   0.944   2.351 -0.1586  0.3605  0.1815
  545MOL0     C75110  12.320   1.023   2.360 -0.2704 -0.1854  0.1664
  545MOL0     C75111  12.338   1.089   2.225 -0.3463 -0.7652 -0.0951
  545MOL0     C75112  12.480   1.163   2.212 -0.9935  0.7202 -0.4979
  545MOL0     C75113  12.487   1.209   2.061  0.9065 -0.0281  0.4614
  545MOL0     C75114  12.616   1.285   2.025  0.0859  0.0158 -0.3639
  545MOL0     C75115  12.751   1.216   2.054  0.4488 -0.1914 -0.3552
  545MOL0     C75116  12.858   1.253   1.947  0.2965  0.5383 -0.2711
  545MOL0    Cl75117  12.842   1.142   1.804 -0.5669  0.1745 -0.0213
  545MOL0     C75118  11.956   0.782   2.417 -0.6686 -1.1301  0.9354
  545MOL0     C75119  11.851   0.705   2.460  0.6436 -0.2143  0.0383
  545MOL0     O75120  11.823   0.316   2.634 -0.5865  0.0570  0.0102
  545MOL0     C75121  11.501   0.390   2.504  0.3750 -1.0899 -0.5179
  545MOL0     C75122  11.365   0.360   2.516 -0.0135 -0.7426  0.1219
  545MOL0     N75123  10.523   0.351   2.688 -0.5484  0.3717  0.3167
  545MOL0     N75124  10.521   0.417   2.789  0.1675 -0.3195 -0.6793
  545MOL0     C75125  10.969   0.862   3.770  0.4278 -0.5459  0.5619
  545MOL0     C75126  11.043   0.972   3.818 -0.3723  0.1922 -0.0705
  545MOL0     C75127  11.386   1.263   3.858 -0.1167  0.2695 -0.1907
  545MOL0     C75128  11.378   1.261   4.001 -0.8425 -0.2047  0.1036
  545MOL0     C75129  11.436   1.366   4.075  0.0208 -0.6474 -0.4358
  545MOL0     C75130  11.495   1.477   4.022 -0.4123  0.8766  0.0499
  545MOL0     O75131  11.537   1.571   4.113 -0.2149 -0.0649 -0.2543
  545MOL0     C75132  11.492   1.707   4.082 -0.5641  0.3074  0.6974
  545MOL0     C75133  11.504   1.819   4.181 -0.8431  0.5035 -0.6929
  545MOL0     C75134  11.646   1.817   4.239  0.1082 -0.7802  0.1154
  545MOL0     C75135  11.663   1.869   4.388 -0.6409 -0.7676  0.8250
  545MOL0     C75136  11.780   1.964   4.397  0.1683 -0.2049  0.2120
  545MOL0     C75137  11.877   2.036   4.392 -1.0815 -0.9490  0.2469
  545MOL0     C75138  11.510   1.481   3.883 -0.6550  0.1974  0.1289
  545MOL0     C75139  11.449   1.380   3.806 -0.0661 -0.6013 -0.1902
  545MOL0     C75140  11.479   1.397   3.663 -0.3440 -0.6292 -0.5134
  545MOL0     H75141  11.349   0.871   3.688  0.3145 -1.6157 -0.0574
  545MOL0     H75142  11.206   0.684   3.600  0.5144  0.9743 -0.5087
  545MOL0     H75143  10.770   0.757   3.570 -3.3371 -1.0642  0.1572
  545MOL0     H75144  10.758   0.676   3.724 -0.7152 -0.7597 -0.0620
  545MOL0     H75145  10.739   0.463   3.640 -0.9856 -0.3125  0.1377
  545MOL0     H75146  10.628   0.560   3.546 -0.1442 -3.4426 -1.3705
  545MOL0     H75147  10.900   0.458   3.458 -0.8001 -4.2744 -0.5613
  545MOL0     H75148  10.747   0.368   3.438 -0.8528 -0.3755  0.2771
  545MOL0     H75149  10.659   0.553   3.311  0.6184  0.5123 -1.2546
  545MOL0     H75150  10.799   0.654   3.334  1.2318 -0.9151 -0.6040
  545MOL0     H75151  10.814   0.385   3.171 -1.3624  0.8631 -0.3333
  545MOL0     H75152  10.947   0.508   3.203  0.5899  0.4721  2.0957
  545MOL0     H75153  10.848   0.659   3.063  0.8553 -0.3519 -0.7053
  545MOL0     H75154  10.839   0.507   2.969 -0.9185  1.1710 -2.5700
  545MOL0     H75155  10.616   0.645   3.120  0.7382 -1.4225  1.4040
  545MOL0     H75156  10.604   0.482   3.065 -0.2820  0.8903  0.8029
  545MOL0     H75157  10.504   0.660   2.911 -0.7960  0.4150  1.0962
  545MOL0     H75158  10.670   0.712   2.874 -0.0182 -0.0511 -0.2563
  545MOL0     H75159  10.792   0.547   2.667 -0.0925 -0.8683 -1.7099
  545MOL0     H75160  10.638   0.386   2.413  1.7906 -1.0287 -1.7161
  545MOL0     H75161  10.640   0.239   2.497 -1.3202  1.0710 -0.0747
  545MOL0     H75162  10.839   0.264   2.375 -0.3385 -0.0535 -1.3718
  545MOL0     H75163  10.861   0.423   2.431  0.0259 -0.2446 -0.3298
  545MOL0     H75164  10.906   0.328   2.677  2.1817  0.0039 -0.2615
  545MOL0     H75165  10.918   0.166   2.585  0.0451 -1.2025 -3.5074
  545MOL0     H75166  11.083   0.255   2.449  1.0305  0.9075 -0.5567
  545MOL0     H75167  11.084   0.418   2.521  0.7330  0.1228 -0.5665
  545MOL0     H75168  11.352   0.223   2.822 -0.6434  1.4425  0.2296
  545MOL0     H75169  11.658   0.338   2.892 -0.1003 -1.9490  2.2545
  545MOL0     H75170  11.712   0.188   2.795 -1.0287  0.2306 -1.4223
  545MOL0     H75171  11.574   0.185   2.907 -0.8671 -1.8461 -0.9772
  545MOL0     H75172  12.034   0.422   2.518  1.3370  1.6506  3.5823
  545MOL0     H75173  12.208   0.573   2.468 -0.6949  0.0238 -1.6993
  545MOL0     H75174  12.141   0.956   2.253  0.3678 -2.2661 -0.4676
  545MOL0     H75175  12.119   0.988   2.423 -0.2856 -0.7547  0.7717
  545MOL0     H75176  12.325   1.092   2.444  0.6385  1.1042 -0.9036
  545MOL0     H75177  12.406   0.955   2.366  0.1884  0.2124 -1.4104
  545MOL0     H75178  12.253   1.157   2.214 -1.0626 -1.5185  0.5507
  545MOL0     H75179  12.338   1.007   2.152 -2.4552 -0.2614 -0.7275
  545MOL0     H75180  12.560   1.091   2.232  0.8435  2.3554 -1.6195
  545MOL0     H75181  12.490   1.253   2.272 -0.6398 -1.0352  2.2384
  545MOL0     H75182  12.479   1.121   1.996 -0.5121  0.1852  0.3106
  545MOL0     H75183  12.404   1.268   2.022  0.1724 -1.9271 -0.9930
  545MOL0     H75184  12.618   1.383   2.074 -1.4563 -1.4468  2.9173
  545MOL0     H75185  12.607   1.296   1.916 -0.2642 -0.4127 -0.3826
  545MOL0     H75186  12.745   1.107   2.056 -1.1428 -0.1111  1.1484
  545MOL0     H75187  12.785   1.247   2.153 -3.2573 -0.6035  1.2231
  545MOL0     H75188  12.957   1.242   1.993  0.6058  0.2915 -0.9819
  545MOL0     H75189  12.844   1.358   1.921  1.0854  0.6380 -0.3083
  545MOL0     H75190  11.942   0.885   2.385  1.5732 -1.0875 -0.0610
  545MOL0     H75191  11.757   0.761   2.465  1.8027  2.2935 -2.9131
  545MOL0     H75192  11.537   0.446   2.418  0.7334 -1.3659 -0.5483
  545MOL0     H75193  11.297   0.387   2.436 -0.8124 -1.2734  0.6081
  545MOL0     H75194  10.861   0.869   3.777 -0.4858 -5.2748 -3.6904
  545MOL0     H75195  10.992   1.048   3.875 -0.6990  0.6925 -1.0120
  545MOL0     H75196  11.327   1.181   4.055  0.5686 -1.4155 -0.2660
  545MOL0     H75197  11.430   1.364   4.183 -0.7318 -0.3537 -0.4722
  545MOL0     H75198  11.549   1.740   3.995  2.0897  0.2816  2.3315
  545MOL0     H75199  11.385   1.702   4.058 -0.2047  0.9327 -1.2481
  545MOL0     H75200  11.429   1.809   4.260 -0.2186 -1.4214 -0.3052
  545MOL0     H75201  11.486   1.910   4.122 -6.3278  0.9535  1.1111
  545MOL0     H75202  11.692   1.719   4.226 -0.1766 -1.0774  1.2304
  545MOL0     H75203  11.703   1.882   4.172 -1.5957  0.8611  0.1464
  545MOL0     H75204  11.680   1.778   4.447  1.7915 -0.3868  0.7796
  545MOL0     H75205  11.577   1.928   4.423 -1.2683 -0.7310 -0.7046
  545MOL0     H75206  11.964   2.096   4.407 -0.5972 -2.0166  2.0360
  545MOL0     H75207  11.559   1.567   3.838  0.8114 -0.8670 -0.3927
  545MOL0     H75208  11.396   1.419   3.596 -0.0200 -0.7031 -0.9418
  545MOL0     H75209  11.549   1.480   3.648  1.1601 -2.0081 -1.3700
  545MOL0     H75210  11.547   1.316   3.637  2.6019  1.0112  1.5018
  546MOL0     O75211   5.916  10.367   9.191 -0.1553  0.8510 -0.7456
  546MOL0     C75212   5.925  10.304   9.086 -1.0021 -0.4732 -0.1510
  546MOL0     O75213   5.847  10.203   9.043 -0.4872  0.6328  0.4693
  546MOL0     C75214   5.728  10.191   9.107 -0.3166  0.1794 -0.5489
  546MOL0     C75215   5.725  10.108   9.220  0.4974  0.3890 -0.9166
  546MOL0     C75216   5.600  10.070   9.280  0.0224  0.1037  0.1963
  546MOL0     C75217   5.482  10.103   9.225  0.9006  0.0523 -0.7624
  546MOL0     O75218   5.361  10.079   9.286 -0.9282  0.1121  0.3819
  546MOL0     C75219   5.271   9.995   9.215  0.3340  0.9160  0.4118
  546MOL0     C75220   5.164   9.933   9.309 -0.1780 -0.1964  0.6664
  546MOL0     C75221   5.053   9.856   9.229  0.0995 -0.2941 -1.1074
  546MOL0     C75222   4.969   9.774   9.335 -0.4782  0.4526  0.2468
  546MOL0     C75223   4.860   9.689   9.258 -0.9131 -0.2982 -0.7351
  546MOL0     C75224   4.788   9.612   9.363  1.0191 -0.1030 -0.5513
  546MOL0     C75225   4.675   9.535   9.296 -0.6483  0.5162 -0.6118
  546MOL0     C75226   4.546   9.616   9.254  0.0873 -0.2576 -0.6886
  546MOL0     N75227   4.436   9.522   9.236 -0.5999  0.2380 -0.0635
  546MOL0     C75228   4.345   9.508   9.330  0.0238 -0.3162 -0.9937
  546MOL0     C75229   4.246   9.427   9.268 -0.2231  0.7637 -0.6470
  546MOL0     C75230   4.115   9.384   9.333 -0.6542  0.1898 -0.1209
  546MOL0     C75231   4.126   9.244   9.382  0.1207  0.7092  0.7750
  546MOL0     C75232   3.996   9.205   9.446  0.0959 -0.3378  0.0931
  546MOL0     C75233   3.997   9.059   9.505 -0.4377 -0.4591 -0.1259
  546MOL0     O75234   4.101   9.029   9.591 -0.4133 -0.5744  0.2648
  546MOL0     C75235   4.125   9.096   9.703 -0.0512  0.4721 -0.5541
  546MOL0     C75236   4.259   9.096   9.740  0.1707  0.7746  0.0939
  546MOL0     C75237   4.302   9.164   9.851 -1.0358 -0.1225 -0.5356
  546MOL0     C75238   4.446   9.149   9.896 -0.3886 -0.0536  0.5453
  546MOL0     C75239   4.210   9.230   9.933 -0.3282 -0.7525 -0.0981
  546MOL0     C75240   4.249   9.314  10.053  0.1557 -0.2841  0.6948
  546MOL0     O75241   4.160   9.320  10.147  0.2997 -0.6777  0.3022
  546MOL0     C75242   4.200   9.326  10.279 -0.3277 -0.1264 -0.0946
  546MOL0     C75243   4.228   9.443  10.354 -0.1256  0.0950 -0.2008
  546MOL0     C75244   4.269   9.436  10.490  0.1515  0.6270  0.0428
  546MOL0     C75245   4.276   9.316  10.560  0.4504  0.3900  0.3062
  546MOL0     O75246   4.314   9.305  10.686  0.7123  0.5455 -0.7223
  546MOL0     C75247   4.269   9.417  10.773 -0.0343  0.7286  0.0989
  546MOL0     C75248   4.377   9.508  10.806  0.0335 -0.3191 -0.9114
  546MOL0     C75249   4.500   9.461  10.873 -0.4313 -0.3811  0.7468
  546MOL0     C75250   4.469   9.411  11.010 -0.4927  0.2326  0.0416
  546MOL0     C75251   4.597   9.357  11.077  0.8470 -0.2151  0.4643
  546MOL0     C75252   4.554   9.284  11.202 -0.4656  0.7103 -0.5405
  546MOL0     C75253   4.671   9.239  11.285 -0.9623 -0.1595 -0.9844
  546MOL0     C75254   4.642   9.210  11.435  0.1511  0.1008  0.7401
  546MOL0    Cl75255   4.501   9.090  11.459  0.3658  0.1150 -0.0069
  546MOL0     C75256   4.250   9.197  10.490  0.1372 -0.0761  0.5475
  546MOL0     C75257   4.207   9.204  10.349 -0.0687 -0.0114 -0.3295
  546MOL0     O75258   4.357   9.381  10.055  0.3479  0.7062  0.4048
  546MOL0     C75259   4.079   9.232   9.903  0.4259  0.2382  0.2736
  546MOL0     C75260   4.037   9.170   9.786 -0.2847 -1.2947  0.2444
  546MOL0     N75261   4.286   9.395   9.141  0.7346 -0.4540  0.4484
  546MOL0     N75262   4.400   9.451   9.120 -0.2243  0.1568  0.9728
  546MOL0     C75263   5.490  10.178   9.104  0.1425  0.0207  0.7145
  546MOL0     C75264   5.607  10.224   9.046 -0.4474 -0.2627  0.1611
  546MOL0     C75265   6.057  10.331   9.014  0.2191  0.4464  0.0468
  546MOL0     C75266   6.134  10.451   9.044  0.8893 -0.5524 -0.3544
  546MOL0     C75267   6.259  10.485   8.994 -0.5486  0.6493 -1.6152
  546MOL0     C75268   6.322  10.392   8.904 -0.6844 -0.7622 -0.5335
  546MOL0     O75269   6.453  10.402   8.872 -0.2898 -0.3054  0.0293
  546MOL0     C75270   6.514  10.536   8.865 -0.2530  0.9033  0.1524
  546MOL0     C75271   6.449  10.602   8.743 -0.3189 -0.5199 -0.0714
  546MOL0     C75272   6.518  10.732   8.712 -0.3537  0.0799  0.4817
  546MOL0     C75273   6.654  10.730   8.641 -0.1788 -0.2658  0.4740
  546MOL0     C75274   6.731  10.856   8.619 -0.4802 -0.1400  0.0364
  546MOL0     C75275   6.780  10.961   8.596  0.4364  0.4919  0.2297
  546MOL0     C75276   6.262  10.275   8.882  0.3914 -0.3389 -0.1159
  546MOL0     C75277   6.130  10.245   8.927  1.0216 -0.2479 -0.4899
  546MOL0     C75278   6.053  10.127   8.865  0.1706 -0.5940 -0.2392
  546MOL0     H75279   5.823  10.068   9.242 -0.5478 -2.3213 -0.7713
  546MOL0     H75280   5.585  10.003   9.363 -2.3445  1.0220  0.5932
  546MOL0     H75281   5.322   9.911   9.166  3.2884  1.9019  1.5991
  546MOL0     H75282   5.215  10.055   9.142 -3.8347 -1.8507  0.9315
  546MOL0     H75283   5.213   9.864   9.378  0.9189 -3.2387 -2.8475
  546MOL0     H75284   5.120  10.020   9.358  2.4510  0.6015  1.7826
  546MOL0     H75285   4.980   9.920   9.179 -1.8389 -0.4182  1.3465
  546MOL0     H75286   5.095   9.778   9.165  3.2556  0.2654  0.0843
  546MOL0     H75287   5.029   9.705   9.395  0.5369  2.3918  1.5511
  546MOL0     H75288   4.923   9.834   9.413  4.0993  2.3675  1.7894
  546MOL0     H75289   4.913   9.615   9.199  0.8268 -0.7647  1.2869
  546MOL0     H75290   4.802   9.759   9.198 -0.3710 -0.9684 -2.0750
  546MOL0     H75291   4.845   9.536   9.418 -3.1582 -2.0009  1.6735
  546MOL0     H75292   4.753   9.678   9.443  0.0226  0.7545 -1.6774
  546MOL0     H75293   4.646   9.465   9.375  0.0638  1.9300  0.9464
  546MOL0     H75294   4.718   9.478   9.213 -0.6561  0.8632 -0.8600
  546MOL0     H75295   4.517   9.684   9.334 -1.0429 -2.1222  0.5554
  546MOL0     H75296   4.556   9.674   9.162 -1.2200 -0.0272 -0.6914
  546MOL0     H75297   4.349   9.537   9.435  2.7358  0.8239 -1.3491
  546MOL0     H75298   4.022   9.381   9.277 -1.1824 -2.3267  0.7874
  546MOL0     H75299   4.093   9.456   9.413  0.3954  0.4276 -0.0313
  546MOL0     H75300   4.151   9.184   9.294  0.7006  1.0317  0.7150
  546MOL0     H75301   4.208   9.232   9.453  0.2829  0.5536  0.5652
  546MOL0     H75302   3.974   9.275   9.527  1.4722 -1.1744  1.2306
  546MOL0     H75303   3.910   9.215   9.379 -0.5611 -0.1424  0.9474
  546MOL0     H75304   3.900   9.046   9.555 -1.6074 -0.4464 -2.2521
  546MOL0     H75305   3.999   8.993   9.418 -0.7842 -2.1586  1.1183
  546MOL0     H75306   4.324   9.043   9.671  0.4128 -0.2348  1.0673
  546MOL0     H75307   4.440   9.113  10.000  0.3884 -0.7328  0.3644
  546MOL0     H75308   4.506   9.241   9.893 -1.1732  0.4686  0.5336
  546MOL0     H75309   4.493   9.075   9.831 -1.2383  0.8085 -1.0920
  546MOL0     H75310   4.227   9.527  10.286 -0.7118  0.3985  0.1741
  546MOL0     H75311   4.297   9.528  10.540 -2.6704  3.6120 -3.2728
  546MOL0     H75312   4.184   9.468  10.726 -0.0621  2.5730  1.9778
  546MOL0     H75313   4.235   9.377  10.868 -1.0937  2.7702  0.6531
  546MOL0     H75314   4.414   9.550  10.711 -0.4981  0.2941 -0.8503
  546MOL0     H75315   4.339   9.597  10.856 -1.8730 -0.2125 -2.4314
  546MOL0     H75316   4.562   9.550  10.890 -1.3817  0.2076  1.2382
  546MOL0     H75317   4.551   9.383  10.816 -1.0604 -1.5474  1.7299
  546MOL0     H75318   4.408   9.320  11.003 -0.3587  0.2051 -0.8769
  546MOL0     H75319   4.428   9.486  11.078  0.2611 -1.8572  3.0420
  546MOL0     H75320   4.649   9.285  11.013 -1.1915  1.2713 -3.1087
  546MOL0     H75321   4.661   9.444  11.094 -1.0373  1.6750 -1.4855
  546MOL0     H75322   4.513   9.186  11.176  1.2078 -0.1645 -0.0623
  546MOL0     H75323   4.475   9.326  11.265 -1.3769  0.1525 -1.2791
  546MOL0     H75324   4.753   9.312  11.292 -1.4051  0.1824  1.5670
  546MOL0     H75325   4.709   9.147  11.239 -0.6212  0.6984 -2.4979
  546MOL0     H75326   4.629   9.301  11.495  1.7758  1.2862 -0.6448
  546MOL0     H75327   4.731   9.166  11.480 -0.5315  0.5472  2.6404
  546MOL0     H75328   4.264   9.106  10.548 -0.0042  0.9797  2.3045
  546MOL0     H75329   4.180   9.113  10.297  0.4279  2.4525 -5.5158
  546MOL0     H75330   4.006   9.287   9.961  0.5852  0.2117  0.4983
  546MOL0     H75331   3.932   9.169   9.758  0.2408 -0.3643 -1.9107
  546MOL0     H75332   5.391  10.189   9.061  0.9500 -2.6859 -2.2550
  546MOL0     H75333   5.611  10.272   8.949 -2.3788  0.2621  0.2893
  546MOL0     H75334   6.066  10.517   9.096  0.1591 -2.7726  1.6621
  546MOL0     H75335   6.301  10.582   9.017 -0.7345  0.4727 -0.4962
  546MOL0     H75336   6.491  10.604   8.948 -0.8596 -0.4791  1.1684
  546MOL0     H75337   6.623  10.532   8.864 -0.1146  0.9478  3.3511
  546MOL0     H75338   6.345  10.627   8.765  0.1104 -0.4842  2.1254
  546MOL0     H75339   6.462  10.537   8.656  3.2621 -1.2409  0.8400
  546MOL0     H75340   6.442  10.782   8.650 -0.2620  1.8607  1.7275
  546MOL0     H75341   6.525  10.787   8.806  1.8775 -0.2643  0.5617
  546MOL0     H75342   6.641  10.675   8.547 -1.4464  1.2516 -0.2888
  546MOL0     H75343   6.729  10.679   8.702  0.8614 -2.9677 -2.7252
  546MOL0     H75344   6.826  11.053   8.567 -0.8953  1.4397  1.0336
  546MOL0     H75345   6.308  10.201   8.818 -1.3625 -0.4045 -1.3804
  546MOL0     H75346   6.112  10.081   8.785  1.3432 -0.9548  0.7849
  546MOL0     H75347   6.049  10.043   8.936 -0.9622 -0.2679  0.0977
  546MOL0     H75348   5.958  10.160   8.823 -0.1912  0.0199  1.0267
  547MOL0     O75349   8.314   9.994   5.614  0.6220 -0.2488 -0.1419
  547MOL0     C75350   8.280  10.022   5.731 -0.7347 -0.9319 -0.4322
  547MOL0     O75351   8.371  10.057   5.833  0.3391 -0.0243  0.2856
  547MOL0     C75352   8.504  10.055   5.810 -0.2355 -0.3886  0.4257
  547MOL0     C75353   8.567  10.186   5.812  0.1118 -0.0479  0.1598
  547MOL0     C75354   8.705  10.195   5.787  0.6487  0.3300 -0.0061
  547MOL0     C75355   8.783  10.074   5.781  0.1085 -1.0480  0.1068
  547MOL0     O75356   8.918  10.080   5.772 -0.3009  0.5312  0.0182
  547MOL0     C75357   8.993  10.196   5.814  0.1504  0.4929 -0.5808
  547MOL0     C75358   9.135  10.173   5.760 -0.2737  0.0118  0.1488
  547MOL0     C75359   9.215  10.300   5.778  0.8062 -0.1528 -0.6254
  547MOL0     C75360   9.353  10.286   5.728 -0.7058 -0.0745 -0.3034
  547MOL0     C75361   9.434  10.414   5.734  0.5122  0.0081 -0.5644
  547MOL0     C75362   9.578  10.384   5.697  0.1360 -0.3104  0.4970
  547MOL0     C75363   9.661  10.509   5.700  0.2093  0.7021 -0.1402
  547MOL0     C75364   9.807  10.471   5.674 -0.2641 -0.7252  0.4146
  547MOL0     N75365   9.877  10.420   5.785  0.6182  0.1488 -0.9743
  547MOL0     C75366   9.846  10.397   5.920 -0.2243  0.5288 -0.3729
  547MOL0     C75367   9.945  10.314   5.967 -0.2629  0.0413 -1.1775
  547MOL0     C75368   9.975  10.258   6.106 -0.1438 -0.0200  0.3373
  547MOL0     C75369  10.120  10.292   6.154  0.4520 -0.1198 -0.4634
  547MOL0     C75370  10.160  10.446   6.161 -0.8494 -1.1157  0.2344
  547MOL0     C75371  10.281  10.468   6.244 -0.4131  0.1213  0.9605
  547MOL0     O75372  10.251  10.473   6.383 -0.5805  0.0655  0.4033
  547MOL0     C75373  10.346  10.495   6.479 -0.3086  0.1662  0.6402
  547MOL0     C75374  10.425  10.389   6.512  0.3783 -0.3019 -0.6277
  547MOL0     C75375  10.536  10.401   6.601 -0.1751  0.5276  0.3505
  547MOL0     C75376  10.607  10.272   6.628  0.3019 -0.2433  0.0021
  547MOL0     C75377  10.562  10.518   6.667  0.4749  0.5492 -0.6302
  547MOL0     C75378  10.666  10.544   6.764 -0.0681  0.7556 -0.2187
  547MOL0     O75379  10.644  10.664   6.828  0.1463  0.8145 -0.2098
  547MOL0     C75380  10.749  10.717   6.904 -0.3074  0.7529 -0.5319
  547MOL0     C75381  10.873  10.745   6.844  0.2756  0.4323  0.3910
  547MOL0     C75382  10.984  10.798   6.919  0.0615 -0.6497 -0.0601
  547MOL0     C75383  10.969  10.831   7.051 -0.2595  0.1016 -0.5099
  547MOL0     O75384  11.047  10.912   7.124 -0.1627  0.4520  0.2239
  547MOL0     C75385  11.185  10.924   7.096 -0.2770  0.3260 -0.2931
  547MOL0     C75386  11.248  10.950   7.227 -0.7364 -0.8609  0.3169
  547MOL0     C75387  11.405  10.968   7.206  0.8072 -0.5152  0.2333
  547MOL0     C75388  11.474  10.928   7.339  0.5251 -0.2943 -0.3530
  547MOL0     C75389  11.620  10.937   7.315  0.1364  0.2972 -0.2872
  547MOL0     C75390  11.700  10.959   7.444 -0.3424  0.0107  0.1095
  547MOL0     C75391  11.855  10.979   7.431  0.3168  0.8734  0.7178
  547MOL0     C75392  11.926  11.007   7.565 -0.6452  0.1233 -0.0456
  547MOL0    Cl75393  11.841  11.138   7.658 -0.2684 -0.0758 -0.2134
  547MOL0     C75394  10.846  10.793   7.121 -0.2106 -0.5597  0.3306
  547MOL0     C75395  10.743  10.738   7.046  0.1659  0.3294  0.8689
  547MOL0     O75396  10.749  10.456   6.801  0.3815  0.7185 -0.0005
  547MOL0     C75397  10.483  10.623   6.620  0.2678 -0.0404  0.6053
  547MOL0     C75398  10.382  10.616   6.519  1.2438  0.3679 -0.2277
  547MOL0     N75399  10.029  10.287   5.867 -0.2861  0.3941  0.7387
  547MOL0     N75400   9.988  10.350   5.763  0.2017  0.1849  0.8191
  547MOL0     C75401   8.714   9.951   5.792 -0.4545 -0.3177  0.3298
  547MOL0     C75402   8.570   9.939   5.811 -0.0845 -0.1950 -0.0738
  547MOL0     C75403   8.135  10.033   5.764 -0.7426  0.4606  0.1697
  547MOL0     C75404   8.075   9.931   5.841 -0.2084 -0.3965 -0.3892
  547MOL0     C75405   7.947   9.951   5.895  0.1431 -1.5415  0.5118
  547MOL0     C75406   7.875  10.061   5.854 -0.2143  0.0021 -0.7539
  547MOL0     O75407   7.750  10.058   5.894  0.5083 -0.5508  0.6670
  547MOL0     C75408   7.653  10.167   5.863 -0.4919 -1.2985  0.2538
  547MOL0     C75409   7.684  10.291   5.951  0.3280 -0.3530 -0.2659
  547MOL0     C75410   7.570  10.390   5.931 -0.5068  0.3786  0.7997
  547MOL0     C75411   7.574  10.533   6.007  0.4566 -0.1594 -0.5512
  547MOL0     C75412   7.704  10.577   6.033 -0.0369 -0.6160  0.3788
  547MOL0     C75413   7.819  10.613   6.060 -0.1937  0.1032  0.2255
  547MOL0     C75414   7.940  10.162   5.779  0.4326  0.0143  0.0014
  547MOL0     C75415   8.066  10.150   5.727 -0.7886 -0.4062  0.3227
  547MOL0     C75416   8.125  10.259   5.643 -0.3148 -0.5601  0.3804
  547MOL0     H75417   8.508  10.275   5.798  1.9871  0.9995 -1.7284
  547MOL0     H75418   8.738  10.298   5.786  0.6847  0.3285 -1.1417
  547MOL0     H75419   8.984  10.194   5.923 -2.0409  0.8120 -0.7018
  547MOL0     H75420   8.939  10.279   5.768  0.4878  1.0618  0.0273
  547MOL0     H75421   9.189  10.094   5.814  0.0137 -0.3712 -0.6914
  547MOL0     H75422   9.135  10.139   5.656  3.0872  1.8196 -0.6022
  547MOL0     H75423   9.165  10.387   5.735  3.4503  1.9186  0.1856
  547MOL0     H75424   9.211  10.317   5.886 -0.6125 -3.5503 -0.0223
  547MOL0     H75425   9.393  10.206   5.791  1.1774  0.6710 -0.5096
  547MOL0     H75426   9.342  10.250   5.625 -2.3752  0.8257 -0.4639
  547MOL0     H75427   9.443  10.446   5.838  2.6661  1.8029 -1.2404
  547MOL0     H75428   9.395  10.497   5.674  0.0161  1.7196  1.9906
  547MOL0     H75429   9.617  10.313   5.771 -0.0895 -1.0745 -0.1052
  547MOL0     H75430   9.583  10.353   5.593 -0.4265  0.2669  0.2884
  547MOL0     H75431   9.655  10.558   5.798 -2.0931  0.2867 -0.0162
  547MOL0     H75432   9.625  10.581   5.626  0.6847  0.8965 -0.1851
  547MOL0     H75433   9.818  10.400   5.591 -0.4964 -0.7589  0.4136
  547MOL0     H75434   9.855  10.567   5.651 -3.4778  1.3702  1.7170
  547MOL0     H75435   9.760  10.440   5.969  1.4808  0.3229  3.0818
  547MOL0     H75436   9.965  10.149   6.103 -2.3321  0.1258  0.8191
  547MOL0     H75437   9.889  10.280   6.170 -1.6881 -1.3327 -1.1979
  547MOL0     H75438  10.116  10.262   6.259  0.8687  0.9380 -0.1350
  547MOL0     H75439  10.193  10.227   6.104  0.2491 -1.6838  1.1698
  547MOL0     H75440  10.180  10.489   6.062  1.2682  0.1874  1.1697
  547MOL0     H75441  10.076  10.500   6.206 -2.4518 -3.6026  0.4655
  547MOL0     H75442  10.353  10.386   6.229 -0.8807  0.1084 -1.5372
  547MOL0     H75443  10.336  10.561   6.226 -0.5217  0.0229  0.0623
  547MOL0     H75444  10.402  10.289   6.475 -0.7150 -0.1624 -0.3556
  547MOL0     H75445  10.716  10.282   6.637  0.2984 -1.3541  2.2485
  547MOL0     H75446  10.589  10.190   6.558 -1.0856  0.9435 -1.0783
  547MOL0     H75447  10.574  10.240   6.728 -0.6775 -0.7842 -0.4907
  547MOL0     H75448  10.888  10.724   6.738  0.0376  2.2095 -0.0186
  547MOL0     H75449  11.082  10.820   6.878  0.1209 -1.2928 -0.2767
  547MOL0     H75450  11.228  10.832   7.055 -1.9657 -0.0322 -1.3233
  547MOL0     H75451  11.198  11.006   7.025  0.9246  1.2028  0.8833
  547MOL0     H75452  11.212  11.040   7.278  1.3668  0.9357 -1.1985
  547MOL0     H75453  11.237  10.865   7.296  2.6588 -0.9248  0.9639
  547MOL0     H75454  11.431  11.065   7.164  2.9678 -1.4891 -0.8487
  547MOL0     H75455  11.437  10.897   7.128 -1.1137 -1.3092  0.1236
  547MOL0     H75456  11.452  10.829   7.380 -0.4694  0.5151  1.1515
  547MOL0     H75457  11.445  11.006   7.411 -3.8432 -0.1107 -2.0564
  547MOL0     H75458  11.657  10.851   7.258  2.1181  2.4245 -2.4509
  547MOL0     H75459  11.650  11.021   7.251 -1.3240 -0.2951 -1.8076
  547MOL0     H75460  11.689  10.883   7.521  0.9087  0.7218  1.0201
  547MOL0     H75461  11.653  11.048   7.487 -1.7165 -1.3432  1.5429
  547MOL0     H75462  11.870  11.056   7.355  0.7252  1.1219  1.0459
  547MOL0     H75463  11.896  10.887   7.389 -1.6388 -0.8719  2.3956
  547MOL0     H75464  12.029  11.041   7.550 -0.7004  1.2921  1.8579
  547MOL0     H75465  11.928  10.915   7.623  1.9617  2.0754  3.3512
  547MOL0     H75466  10.851  10.821   7.225  1.2949 -0.0875  0.1522
  547MOL0     H75467  10.649  10.726   7.098 -1.1966 -2.5126 -1.9794
  547MOL0     H75468  10.485  10.718   6.672 -1.8562  1.2870 -1.5135
  547MOL0     H75469  10.343  10.712   6.488  1.8546 -0.0646 -2.5579
  547MOL0     H75470   8.773   9.861   5.785 -0.6570 -0.3330 -2.5078
  547MOL0     H75471   8.524   9.844   5.834  0.2986 -0.4853 -0.5126
  547MOL0     H75472   8.140   9.847   5.865  2.1478  1.4770  0.0640
  547MOL0     H75473   7.910   9.867   5.953  3.0471 -1.0747  3.2731
  547MOL0     H75474   7.658  10.197   5.758 -1.4412 -1.7062  0.0868
  547MOL0     H75475   7.550  10.131   5.872 -0.6783 -0.3647  2.7153
  547MOL0     H75476   7.784  10.330   5.930  0.1365 -0.7198 -2.0495
  547MOL0     H75477   7.686  10.263   6.056  1.2335  0.4382 -0.0568
  547MOL0     H75478   7.584  10.425   5.828 -0.4099  2.0956  1.3635
  547MOL0     H75479   7.475  10.335   5.934 -0.6557  0.2410 -2.4956
  547MOL0     H75480   7.520  10.534   6.102  0.1259  0.4496 -0.7375
  547MOL0     H75481   7.520  10.601   5.940  1.7937  1.8882  0.3473
  547MOL0     H75482   7.921  10.643   6.070  0.6256 -1.2087 -2.8341
  547MOL0     H75483   7.876  10.246   5.751 -1.4595 -0.9545  1.1820
  547MOL0     H75484   8.214  10.296   5.696  0.7952 -2.3057 -0.1860
  547MOL0     H75485   8.148  10.238   5.538 -2.5151 -0.9457 -0.0679
  547MOL0     H75486   8.056  10.343   5.630  1.6106  0.7539 -2.5031
  548MOL0     O75487   8.103   4.015   3.500  0.3663 -0.0842 -0.0361
  548MOL0     C75488   8.028   4.038   3.600 -0.3552  0.0240  0.9538
  548MOL0     O75489   7.887   4.056   3.580 -0.2401  0.8985  0.1055
  548MOL0     C75490   7.841   4.100   3.458 -0.8536  0.0656 -0.8297
  548MOL0     C75491   7.760   4.221   3.460 -0.3486 -0.0851 -0.2357
  548MOL0     C75492   7.702   4.273   3.339 -0.0931 -0.2712 -0.5692
  548MOL0     C75493   7.719   4.204   3.218 -0.8632  0.3965  0.0637
  548MOL0     O75494   7.647   4.231   3.116  0.7061  0.2162  0.1905
  548MOL0     C75495   7.718   4.217   2.994  0.0921  0.6634 -0.3593
  548MOL0     C75496   7.666   4.325   2.901 -0.7685 -0.3639 -0.1950
  548MOL0     C75497   7.687   4.469   2.947 -0.6082  1.0241  1.2234
  548MOL0     C75498   7.836   4.499   2.941  0.1300 -1.2115  0.2506
  548MOL0     C75499   7.850   4.644   2.918 -0.4692 -0.3589 -0.8879
  548MOL0     C75500   7.987   4.694   2.958  0.2650 -0.0233 -0.1706
  548MOL0     C75501   8.108   4.643   2.873  0.4629 -0.4327  0.3024
  548MOL0     C75502   8.091   4.672   2.726 -0.7549 -0.1196  0.2856
  548MOL0     N75503   8.213   4.670   2.644  0.2874 -0.3362 -0.2309
  548MOL0     C75504   8.274   4.558   2.602  0.3622 -0.0471  0.6551
  548MOL0     C75505   8.380   4.609   2.539 -0.0914  0.6124 -0.7579
  548MOL0     C75506   8.493   4.512   2.490 -0.4503 -0.3587 -0.4138
  548MOL0     C75507   8.637   4.558   2.518 -1.3892  0.9996 -0.3270
  548MOL0     C75508   8.737   4.459   2.463 -0.4816 -0.4533 -0.1364
  548MOL0     C75509   8.877   4.527   2.463  0.5882  0.2751 -0.1500
  548MOL0     O75510   8.966   4.446   2.389  0.6922  1.0863 -0.0199
  548MOL0     C75511   9.101   4.466   2.416 -0.0317  0.2168  0.3983
  548MOL0     C75512   9.189   4.359   2.429 -0.1117  0.8461  0.9243
  548MOL0     C75513   9.320   4.373   2.467  0.1566 -0.9960  0.0584
  548MOL0     C75514   9.397   4.243   2.481  0.3225  0.4263 -0.0188
  548MOL0     C75515   9.373   4.505   2.487  0.1203 -0.0450  0.1779
  548MOL0     C75516   9.501   4.534   2.553  0.0627 -0.0237  0.9447
  548MOL0     O75517   9.512   4.667   2.600  0.0581 -0.3304  0.0467
  548MOL0     C75518   9.626   4.712   2.661 -0.1744 -0.0063  0.5048
  548MOL0     C75519   9.611   4.768   2.784 -0.6291 -0.0980 -0.2017
  548MOL0     C75520   9.724   4.818   2.852 -0.6612  0.1968  0.0760
  548MOL0     C75521   9.855   4.794   2.805 -0.3851 -0.3440 -0.6534
  548MOL0     O75522   9.949   4.850   2.878 -0.0975 -0.3845 -0.6682
  548MOL0     C75523  10.084   4.831   2.857 -0.2239 -0.8217 -0.1106
  548MOL0     C75524  10.165   4.872   2.979 -0.8022  0.1260 -0.4720
  548MOL0     C75525  10.314   4.844   2.950 -0.5154 -0.3453  0.4927
  548MOL0     C75526  10.394   4.900   3.067 -0.3810  0.0295 -0.3101
  548MOL0     C75527  10.542   4.868   3.045 -0.2443 -0.0827 -0.2464
  548MOL0     C75528  10.634   4.897   3.164  0.1954 -0.4495 -0.9144
  548MOL0     C75529  10.765   4.818   3.154  0.0282  0.1215  0.4768
  548MOL0     C75530  10.840   4.842   3.283 -0.2813  0.4317  0.2653
  548MOL0    Cl75531  10.979   4.731   3.273  0.1622 -0.0719  0.0874
  548MOL0     C75532   9.875   4.733   2.680  0.2700  0.5350  0.9153
  548MOL0     C75533   9.756   4.695   2.610  0.4763  0.2011 -0.4453
  548MOL0     O75534   9.584   4.444   2.571  0.0137  0.2245  0.5656
  548MOL0     C75535   9.289   4.612   2.453  0.3216 -0.6626 -0.2366
  548MOL0     C75536   9.159   4.595   2.423 -0.0340 -0.3678 -0.0147
  548MOL0     N75537   8.368   4.746   2.533 -0.1336 -0.3388  1.1410
  548MOL0     N75538   8.261   4.779   2.591 -0.3701 -0.3368  0.1926
  548MOL0     C75539   7.796   4.087   3.229 -0.1681 -0.5570 -0.4429
  548MOL0     C75540   7.866   4.042   3.341  0.2688  0.2057  0.1894
  548MOL0     C75541   8.075   3.995   3.740 -0.5499  0.3259  0.2103
  548MOL0     C75542   7.971   3.951   3.832  0.5803 -0.2168 -0.2928
  548MOL0     C75543   8.006   3.919   3.960  0.1097  0.1852  0.0236
  548MOL0     C75544   8.132   3.952   4.012  0.1584  0.1072  0.5864
  548MOL0     O75545   8.144   3.905   4.139 -0.2989 -0.5653  0.4442
  548MOL0     C75546   8.273   3.858   4.178 -0.6541  0.4705  0.4388
  548MOL0     C75547   8.331   3.974   4.264 -0.6905 -0.3083 -0.1844
  548MOL0     C75548   8.309   3.954   4.412  0.7303  0.2748  0.5357
  548MOL0     C75549   8.376   4.054   4.504  0.3418 -0.7139  0.6980
  548MOL0     C75550   8.520   4.048   4.518 -0.4283 -0.3343 -0.8029
  548MOL0     C75551   8.646   4.044   4.521  0.4695 -0.3110 -0.1846
  548MOL0     C75552   8.228   4.007   3.930 -0.4678 -0.6897  0.8919
  548MOL0     C75553   8.205   4.024   3.794  0.3978 -1.1065  0.4004
  548MOL0     C75554   8.306   4.093   3.716  0.2517 -0.2514  0.5427
  548MOL0     H75555   7.739   4.274   3.553 -2.0716 -1.0978  0.0027
  548MOL0     H75556   7.652   4.368   3.324  0.2227  0.0541  0.3577
  548MOL0     H75557   7.701   4.117   2.953  3.9087 -0.4430  0.3584
  548MOL0     H75558   7.826   4.230   3.003  0.3607 -1.4794 -0.0695
  548MOL0     H75559   7.709   4.306   2.802 -3.1908  1.1750 -1.6266
  548MOL0     H75560   7.558   4.314   2.888 -0.8639 -0.0042  0.2730
  548MOL0     H75561   7.642   4.530   2.868  0.0486  3.0323  2.3516
  548MOL0     H75562   7.631   4.484   3.040 -3.4370 -0.7331 -0.0417
  548MOL0     H75563   7.885   4.470   3.035  0.0391 -0.8702  0.4077
  548MOL0     H75564   7.900   4.451   2.866 -0.8636 -0.9558 -0.7803
  548MOL0     H75565   7.790   4.690   2.997  1.1084 -1.1547  0.8569
  548MOL0     H75566   7.823   4.677   2.817  0.2710  1.1579 -0.6249
  548MOL0     H75567   7.992   4.803   2.956  0.4324  0.1382  3.1345
  548MOL0     H75568   8.005   4.660   3.061  0.1279 -2.6557 -0.9279
  548MOL0     H75569   8.136   4.540   2.895 -1.5871 -1.1032 -0.0931
  548MOL0     H75570   8.188   4.713   2.903  0.5605 -0.6335  0.5137
  548MOL0     H75571   8.021   4.597   2.688 -0.1856 -0.4928 -0.0258
  548MOL0     H75572   8.043   4.770   2.715  0.9031  0.9300  1.9201
  548MOL0     H75573   8.244   4.454   2.609  1.8611 -0.6810 -1.3963
  548MOL0     H75574   8.477   4.497   2.383 -2.0226 -2.7892  0.0711
  548MOL0     H75575   8.482   4.411   2.530 -2.4581 -0.7368 -1.7547
  548MOL0     H75576   8.656   4.655   2.472  2.3048 -0.3582 -2.0779
  548MOL0     H75577   8.652   4.566   2.626  1.3858 -0.7628 -0.4734
  548MOL0     H75578   8.743   4.368   2.524  2.9534  0.3792  0.9698
  548MOL0     H75579   8.708   4.428   2.362  2.0854 -0.6013 -0.8944
  548MOL0     H75580   8.861   4.621   2.408 -1.9821  0.0516  0.0730
  548MOL0     H75581   8.905   4.549   2.567  0.1737  0.3489 -0.0517
  548MOL0     H75582   9.148   4.258   2.428 -2.4610  1.7127  1.9557
  548MOL0     H75583   9.393   4.200   2.582  1.7198 -0.8206 -0.4534
  548MOL0     H75584   9.502   4.250   2.451  0.3216  0.3676 -0.0377
  548MOL0     H75585   9.354   4.174   2.408 -2.5368  3.2088 -1.1636
  548MOL0     H75586   9.514   4.788   2.828 -0.6114  0.5076 -0.4379
  548MOL0     H75587   9.710   4.862   2.950  1.4173 -0.2433  0.6123
  548MOL0     H75588  10.094   4.727   2.822  0.6361 -0.4395 -1.0348
  548MOL0     H75589  10.106   4.897   2.772  0.0753 -1.5059 -0.5785
  548MOL0     H75590  10.149   4.979   2.993 -5.0200 -0.2017 -1.5837
  548MOL0     H75591  10.134   4.814   3.067  2.2672  1.4736  1.6935
  548MOL0     H75592  10.340   4.881   2.850 -2.6675 -2.3776 -0.9538
  548MOL0     H75593  10.324   4.735   2.950  0.2202 -0.2883 -0.2174
  548MOL0     H75594  10.363   4.846   3.157  3.9158  0.0296  1.4220
  548MOL0     H75595  10.385   5.009   3.075 -2.2937  0.2082 -3.3362
  548MOL0     H75596  10.564   4.761   3.039  0.3274  0.0253 -0.1029
  548MOL0     H75597  10.576   4.933   2.964 -0.3329 -1.3079 -1.3110
  548MOL0     H75598  10.580   4.868   3.255  0.7106  1.9493  0.2237
  548MOL0     H75599  10.647   5.005   3.158 -1.4618 -0.0698  1.0494
  548MOL0     H75600  10.827   4.838   3.066  0.0511  2.6351  0.9787
  548MOL0     H75601  10.739   4.712   3.164 -0.0209 -0.0903 -1.5051
  548MOL0     H75602  10.771   4.823   3.366 -3.7388 -3.7943 -3.0566
  548MOL0     H75603  10.885   4.940   3.300  3.3494 -0.6482 -1.9136
  548MOL0     H75604   9.977   4.719   2.644 -0.3562 -1.2882 -0.2518
  548MOL0     H75605   9.765   4.655   2.509 -1.7012  2.3014 -1.5582
  548MOL0     H75606   9.313   4.717   2.471 -1.9670  0.1910 -1.7267
  548MOL0     H75607   9.094   4.682   2.416 -1.2314 -1.3063 -1.1006
  548MOL0     H75608   7.797   4.010   3.152  1.2336 -0.0792 -0.9240
  548MOL0     H75609   7.921   3.949   3.331 -2.3253 -1.2573 -1.7040
  548MOL0     H75610   7.868   3.944   3.799  0.2461 -2.0487  0.9860
  548MOL0     H75611   7.934   3.887   4.035 -1.1277 -1.2870 -1.7207
  548MOL0     H75612   8.255   3.759   4.221 -0.8422 -0.3964 -1.5577
  548MOL0     H75613   8.340   3.826   4.098 -3.2564 -1.5516 -1.0770
  548MOL0     H75614   8.278   4.066   4.240  0.7430  0.5350 -0.2316
  548MOL0     H75615   8.439   3.978   4.244 -0.8320 -1.2406 -1.2442
  548MOL0     H75616   8.200   3.954   4.428  0.6371  2.8024  0.3120
  548MOL0     H75617   8.343   3.855   4.444  0.6503  0.2117  0.4267
  548MOL0     H75618   8.341   4.037   4.606  0.8164 -1.8447  0.6863
  548MOL0     H75619   8.353   4.154   4.466  1.8978 -1.1209 -1.4967
  548MOL0     H75620   8.753   4.049   4.518  0.5459 -0.9927  0.9023
  548MOL0     H75621   8.321   4.036   3.978 -0.2821  1.2172 -0.4882
  548MOL0     H75622   8.338   4.182   3.770 -2.4349  1.3163 -0.2604
  548MOL0     H75623   8.391   4.024   3.710  1.2135  0.7046  2.3119
  548MOL0     H75624   8.273   4.125   3.617 -0.2199  3.5058  1.7701
  549MOL0     O75625   8.371  10.614   2.948  1.5809 -0.4808 -0.5836
  549MOL0     C75626   8.336  10.544   3.048  0.3187 -0.0776  0.5076
  549MOL0     O75627   8.433  10.472   3.125 -0.7179 -0.3372  0.7882
  549MOL0     C75628   8.565  10.512   3.108 -0.2764 -0.0346  0.1531
  549MOL0     C75629   8.632  10.506   2.986 -0.2063 -0.7370 -0.2934
  549MOL0     C75630   8.775  10.533   2.966 -0.1114  0.7810 -0.0553
  549MOL0     C75631   8.840  10.595   3.067 -0.0951 -0.9277 -0.2723
  549MOL0     O75632   8.964  10.644   3.034  0.3229  0.8171  0.3526
  549MOL0     C75633   9.062  10.659   3.141 -0.0509  0.7299 -0.3716
  549MOL0     C75634   9.092  10.800   3.176 -0.4683  0.9459  0.0295
  549MOL0     C75635   9.115  10.898   3.059  0.2238  0.9889  0.5009
  549MOL0     C75636   9.213  11.001   3.101 -0.3814 -0.2804  0.7315
  549MOL0     C75637   9.219  11.116   3.000  0.2425  0.6732  0.4257
  549MOL0     C75638   9.097  11.201   2.977 -0.3456 -0.0995 -0.4991
  549MOL0     C75639   9.039  11.254   3.104  0.2100  0.3213 -0.8420
  549MOL0     C75640   9.140  11.333   3.194 -0.2049 -0.0537  0.0473
  549MOL0     N75641   9.209  11.448   3.130 -0.4269 -0.5478 -0.4046
  549MOL0     C75642   9.349  11.464   3.103  1.1599  1.1693  0.5892
  549MOL0     C75643   9.351  11.552   3.010 -1.0386 -0.3563 -0.3308
  549MOL0     C75644   9.461  11.590   2.926 -0.3228 -0.2712  0.5841
  549MOL0     C75645   9.525  11.718   2.965 -0.5077  0.2925  0.3351
  549MOL0     C75646   9.568  11.741   3.104  0.0772  0.1513 -0.2875
  549MOL0     C75647   9.641  11.874   3.129  0.7097  0.6114  0.4546
  549MOL0     O75648   9.774  11.853   3.075 -0.0024  0.5427  0.1921
  549MOL0     C75649   9.871  11.943   3.108  0.3820  0.3904  0.3978
  549MOL0     C75650  10.005  11.898   3.090 -0.1112  0.4043  0.0990
  549MOL0     C75651  10.108  11.977   3.109  0.6994 -0.7235 -0.5236
  549MOL0     C75652  10.250  11.933   3.072  0.2488 -0.3388  0.0441
  549MOL0     C75653  10.087  12.116   3.154  1.3154 -0.7247  0.5332
  549MOL0     C75654  10.196  12.209   3.185  0.2623  0.1397  0.5345
  549MOL0     O75655  10.311  12.202   3.115  0.2379  0.3923 -0.5184
  549MOL0     C75656  10.383  12.318   3.088  0.1773  0.3214 -0.2938
  549MOL0     C75657  10.479  12.361   3.171  0.4477 -0.1001  0.3631
  549MOL0     C75658  10.559  12.474   3.140  0.4938  0.3205  0.8585
  549MOL0     C75659  10.553  12.524   3.012  0.7200 -0.2641 -0.0520
  549MOL0     O75660  10.646  12.605   2.968 -0.0232  0.6146  0.2722
  549MOL0     C75661  10.712  12.690   3.055 -0.9872 -0.4795 -0.4919
  549MOL0     C75662  10.769  12.806   2.976  0.8108 -0.4539 -0.4507
  549MOL0     C75663  10.776  12.941   3.049 -0.1623  0.1365  0.3979
  549MOL0     C75664  10.884  13.037   3.002 -0.2208 -0.2308 -0.5150
  549MOL0     C75665  11.021  13.006   3.052 -1.2643 -0.0683 -0.8223
  549MOL0     C75666  11.058  13.071   3.185  0.1543  0.6785  0.4405
  549MOL0     C75667  11.206  13.040   3.207  1.2377 -0.1004 -0.0638
  549MOL0     C75668  11.247  13.058   3.351 -0.7147  0.4103 -0.3766
  549MOL0    Cl75669  11.420  13.054   3.363  0.0813 -0.4590 -0.0473
  549MOL0     C75670  10.460  12.479   2.918  0.8659 -1.4629 -0.4037
  549MOL0     C75671  10.371  12.377   2.956 -0.2573  0.4624 -0.7880
  549MOL0     O75672  10.182  12.269   3.287 -0.4729 -0.5176 -0.9137
  549MOL0     C75673   9.956  12.159   3.188  0.8178  0.3906  0.0836
  549MOL0     C75674   9.850  12.075   3.158 -0.5467  0.0915  0.1471
  549MOL0     N75675   9.221  11.590   2.972  0.2525  1.0235 -0.6656
  549MOL0     N75676   9.137  11.532   3.052  0.1933  0.5744  0.6455
  549MOL0     C75677   8.775  10.629   3.187  0.4887  0.9815 -0.4787
  549MOL0     C75678   8.636  10.588   3.202 -0.4278  0.4015 -0.2572
  549MOL0     C75679   8.190  10.529   3.079 -0.8081  0.0516  0.1768
  549MOL0     C75680   8.145  10.406   3.129 -0.1622  0.0956 -0.2274
  549MOL0     C75681   8.019  10.384   3.162 -0.1292 -0.3365 -0.6039
  549MOL0     C75682   7.926  10.490   3.146  0.0344 -0.8187 -0.3560
  549MOL0     O75683   7.801  10.467   3.173  0.0286 -0.1135  0.2718
  549MOL0     C75684   7.714  10.580   3.180 -1.0783  0.2076 -0.7524
  549MOL0     C75685   7.589  10.557   3.254  0.4011 -0.0136  0.0387
  549MOL0     C75686   7.468  10.504   3.171 -0.7727  0.3636  0.3928
  549MOL0     C75687   7.356  10.461   3.253 -0.3233  0.0590  1.0917
  549MOL0     C75688   7.254  10.409   3.166  0.7062  0.2162 -0.1771
  549MOL0     C75689   7.158  10.364   3.103  0.3820  0.4785 -1.0491
  549MOL0     C75690   7.962  10.617   3.086  0.3893 -0.1919  0.3574
  549MOL0     C75691   8.102  10.642   3.062  0.4099 -0.0528  0.1037
  549MOL0     C75692   8.153  10.775   3.016 -0.4366 -0.3961 -0.1783
  549MOL0     H75693   8.578  10.460   2.904 -2.4038  1.2299 -0.0584
  549MOL0     H75694   8.814  10.508   2.868  1.1558  4.0385 -0.5232
  549MOL0     H75695   9.158  10.616   3.112  1.5964  2.1800  2.5102
  549MOL0     H75696   9.030  10.600   3.227  0.2937 -2.0505 -2.0253
  549MOL0     H75697   9.017  10.841   3.245  1.5507  2.4067  1.4817
  549MOL0     H75698   9.186  10.782   3.229 -0.5264  0.8628  0.1054
  549MOL0     H75699   9.162  10.856   2.970  0.2072  2.3142 -0.1654
  549MOL0     H75700   9.017  10.939   3.033  0.4278  0.3234 -1.4755
  549MOL0     H75701   9.181  11.029   3.202 -2.2677 -3.0609  1.0256
  549MOL0     H75702   9.311  10.957   3.119  0.6341  0.6761 -2.0076
  549MOL0     H75703   9.256  11.080   2.904  0.5033  0.2397  0.6873
  549MOL0     H75704   9.306  11.174   3.031  1.5246  0.1573 -1.9389
  549MOL0     H75705   9.115  11.289   2.914 -0.4903 -0.7443 -1.4678
  549MOL0     H75706   9.021  11.142   2.926  0.5209  0.5978 -2.7490
  549MOL0     H75707   8.997  11.180   3.173  2.3451 -0.0013  0.1850
  549MOL0     H75708   8.960  11.322   3.071  1.8320  2.4017 -0.6419
  549MOL0     H75709   9.087  11.374   3.281  1.9477  1.7580  0.5868
  549MOL0     H75710   9.215  11.267   3.237 -0.8344 -1.1863 -0.5421
  549MOL0     H75711   9.434  11.413   3.147  0.2031 -0.6266  0.4598
  549MOL0     H75712   9.420  11.605   2.826  0.9159  1.2923  0.2682
  549MOL0     H75713   9.535  11.509   2.931  0.5871  0.4784 -0.3361
  549MOL0     H75714   9.618  11.726   2.907 -0.7826  1.7096  0.0582
  549MOL0     H75715   9.464  11.805   2.939 -1.7684 -1.1699 -1.8964
  549MOL0     H75716   9.479  11.743   3.168 -0.2929  0.5011 -0.8065
  549MOL0     H75717   9.629  11.653   3.129 -0.0730 -0.1482 -0.9553
  549MOL0     H75718   9.585  11.955   3.082 -0.8632  0.5249  2.0943
  549MOL0     H75719   9.651  11.887   3.237 -0.6018 -1.6922  0.9250
  549MOL0     H75720  10.014  11.800   3.043  1.0594  0.9268 -0.7915
  549MOL0     H75721  10.257  11.823   3.069 -1.0816 -0.4190 -0.7221
  549MOL0     H75722  10.324  11.961   3.148  0.1529 -1.9320  0.7674
  549MOL0     H75723  10.263  11.976   2.972 -4.0272  0.9805 -0.1200
  549MOL0     H75724  10.486  12.315   3.269 -0.9078  1.3488  1.1931
  549MOL0     H75725  10.627  12.510   3.216 -0.7905 -1.1658  2.7992
  549MOL0     H75726  10.640  12.732   3.125 -1.0202  0.2005 -0.9297
  549MOL0     H75727  10.800  12.635   3.092 -0.6877 -1.4869 -2.5610
  549MOL0     H75728  10.868  12.787   2.934  0.8789 -0.2371 -0.3914
  549MOL0     H75729  10.700  12.827   2.894  1.7167  1.6149 -0.7600
  549MOL0     H75730  10.768  12.921   3.157  3.0705 -0.5301  0.6233
  549MOL0     H75731  10.686  12.992   3.014 -0.8215 -1.6384 -0.6357
  549MOL0     H75732  10.849  13.133   3.042 -2.3633 -0.5737 -1.4241
  549MOL0     H75733  10.883  13.032   2.893 -1.7483 -2.5121 -0.4685
  549MOL0     H75734  11.034  12.898   3.060 -0.1898  0.0056 -1.3904
  549MOL0     H75735  11.077  13.050   2.969 -3.7365  1.6686 -1.7119
  549MOL0     H75736  10.999  13.024   3.264 -0.0773  2.8570  1.6487
  549MOL0     H75737  11.040  13.179   3.186  0.6822  0.9089 -2.5505
  549MOL0     H75738  11.264  13.111   3.147 -0.2365  1.8484  0.7170
  549MOL0     H75739  11.227  12.936   3.179  1.5396  0.2976 -1.4210
  549MOL0     H75740  11.208  12.969   3.402  0.1978 -0.8207 -1.7432
  549MOL0     H75741  11.192  13.144   3.391 -2.5768 -0.8273 -0.1619
  549MOL0     H75742  10.470  12.536   2.826  1.7264 -1.6211 -0.4223
  549MOL0     H75743  10.291  12.345   2.889 -0.5927 -1.2195  0.3503
  549MOL0     H75744   9.940  12.258   3.231 -1.7719 -0.9739  2.6627
  549MOL0     H75745   9.746  12.104   3.152 -1.2520 -2.3626 -0.7974
  549MOL0     H75746   8.833  10.672   3.268  1.4442 -1.0494 -0.0234
  549MOL0     H75747   8.583  10.611   3.294 -0.1567 -3.2009  0.9563
  549MOL0     H75748   8.211  10.320   3.135 -0.8959 -0.4843 -0.3318
  549MOL0     H75749   7.999  10.294   3.219 -0.3241  0.6496  0.9491
  549MOL0     H75750   7.766  10.661   3.231 -1.0136  1.6365 -2.9618
  549MOL0     H75751   7.690  10.613   3.078 -1.1435  3.8198  0.3180
  549MOL0     H75752   7.556  10.652   3.297 -3.4000 -0.3993 -1.5668
  549MOL0     H75753   7.614  10.492   3.339 -2.8484 -0.6593  0.6505
  549MOL0     H75754   7.448  10.589   3.105 -0.8985 -0.6181 -0.8675
  549MOL0     H75755   7.499  10.424   3.103  0.0409  2.0109 -1.2599
  549MOL0     H75756   7.311  10.547   3.302 -1.0367  0.7207 -0.6508
  549MOL0     H75757   7.386  10.387   3.329 -1.8350 -2.2412 -0.4234
  549MOL0     H75758   7.070  10.316   3.065 -2.1346  1.8312  2.5199
  549MOL0     H75759   7.902  10.707   3.075  0.5437 -0.1463 -0.1886
  549MOL0     H75760   8.208  10.771   2.922  1.2983 -1.2346  0.8229
  549MOL0     H75761   8.076  10.853   3.014 -1.4700 -1.3808 -1.7983
  549MOL0     H75762   8.232  10.806   3.085  1.4753 -1.5559 -1.7487
  550MOL0     O75763   6.045  10.387   6.064 -0.7077 -0.2208  0.0236
  550MOL0     C75764   6.018  10.501   6.048  0.4711 -0.7067  0.2055
  550MOL0     O75765   6.096  10.605   6.053 -1.0971 -0.2231 -0.1894
  550MOL0     C75766   6.236  10.573   6.053  1.3870  0.3724 -0.0284
  550MOL0     C75767   6.309  10.583   6.180 -0.0386 -0.9733  0.3752
  550MOL0     C75768   6.444  10.554   6.185  0.2637  0.5349 -0.6018
  550MOL0     C75769   6.513  10.508   6.071  0.4369  0.1753 -0.5418
  550MOL0     O75770   6.650  10.499   6.067  0.2193 -0.2013  0.0119
  550MOL0     C75771   6.718  10.470   6.186 -0.3445 -0.2236 -0.1576
  550MOL0     C75772   6.864  10.444   6.133  1.0652  0.4232  0.3096
  550MOL0     C75773   6.935  10.323   6.201  0.5494 -0.3922 -0.6090
  550MOL0     C75774   7.077  10.303   6.145  0.9558 -0.2132  0.0667
  550MOL0     C75775   7.143  10.184   6.209 -0.0459  0.1910  0.3540
  550MOL0     C75776   7.303  10.187   6.198 -0.2811 -0.0166  0.2077
  550MOL0     C75777   7.363  10.047   6.204  0.7201 -0.2202  0.4918
  550MOL0     C75778   7.343   9.996   6.346  0.5469  0.5508  1.2551
  550MOL0     N75779   7.393   9.857   6.366  1.1518 -0.8887 -0.5726
  550MOL0     C75780   7.329   9.735   6.340 -0.2017  0.0640  1.2544
  550MOL0     C75781   7.441   9.641   6.358  0.7157 -0.1228  0.6578
  550MOL0     C75782   7.409   9.490   6.341 -0.4201 -0.7796 -0.6521
  550MOL0     C75783   7.510   9.397   6.412  0.9723 -1.3360  0.9184
  550MOL0     C75784   7.635   9.374   6.323  0.3288 -0.3676  0.2275
  550MOL0     C75785   7.761   9.394   6.405 -0.7675  0.1150  0.5631
  550MOL0     O75786   7.878   9.405   6.315 -0.7525 -0.0674 -0.4424
  550MOL0     C75787   7.993   9.342   6.342 -0.3451 -0.4457 -0.0610
  550MOL0     C75788   8.028   9.284   6.470  0.3730 -0.6327 -0.2706
  550MOL0     C75789   8.153   9.215   6.475 -0.7172 -0.5933 -0.2218
  550MOL0     C75790   8.211   9.163   6.604 -0.2891  0.4067  0.3111
  550MOL0     C75791   8.226   9.186   6.356  0.0725  0.5053  0.1663
  550MOL0     C75792   8.359   9.103   6.362  0.3434 -0.1598 -0.1923
  550MOL0     O75793   8.459   9.148   6.273  0.3543 -0.4784  0.4156
  550MOL0     C75794   8.594   9.125   6.295  0.3672  0.8594  0.3150
  550MOL0     C75795   8.651   9.061   6.404  0.1339 -0.8194  0.7358
  550MOL0     C75796   8.786   9.037   6.398  0.5786  0.4892 -0.0668
  550MOL0     C75797   8.870   9.056   6.283  0.6834  0.2088  0.0362
  550MOL0     O75798   9.007   9.038   6.287  0.2498 -0.2555 -0.1162
  550MOL0     C75799   9.092   9.071   6.171  0.2165  0.5778  0.0498
  550MOL0     C75800   9.245   9.088   6.201 -0.0772  0.3132 -0.1858
  550MOL0     C75801   9.320   8.955   6.247  0.6917 -0.2242  0.6075
  550MOL0     C75802   9.466   8.979   6.281  0.6422  0.2703 -0.4960
  550MOL0     C75803   9.527   8.839   6.324 -0.9575 -0.2382 -0.0103
  550MOL0     C75804   9.652   8.848   6.416 -0.5707 -0.8057  0.1485
  550MOL0     C75805   9.765   8.923   6.348 -0.0340 -0.7391 -0.0918
  550MOL0     C75806   9.853   8.989   6.450  0.8650  0.3250 -0.1329
  550MOL0    Cl75807   9.923   8.865   6.557  0.5961 -0.2274  0.0024
  550MOL0     C75808   8.798   9.120   6.176 -0.4720  0.1664  0.9709
  550MOL0     C75809   8.667   9.152   6.183  1.1601  0.5883  0.1431
  550MOL0     O75810   8.367   9.002   6.426  0.3385 -0.1855  0.3056
  550MOL0     C75811   8.178   9.233   6.233 -0.1984  0.4344  0.5652
  550MOL0     C75812   8.072   9.315   6.223  0.3929  0.1308 -0.1645
  550MOL0     N75813   7.546   9.712   6.419 -0.4813  0.6302 -0.1415
  550MOL0     N75814   7.511   9.835   6.428 -0.8702 -0.6846  0.1772
  550MOL0     C75815   6.442  10.502   5.953  0.3877  0.6405 -0.4216
  550MOL0     C75816   6.304  10.521   5.945 -0.1451 -0.8869 -0.4613
  550MOL0     C75817   5.870  10.538   6.027 -0.5673  0.0936 -0.0446
  550MOL0     C75818   5.834  10.674   6.052  0.6291  0.6247  0.8200
  550MOL0     C75819   5.696  10.711   6.036 -0.6706 -1.1000 -0.6272
  550MOL0     C75820   5.600  10.622   5.993 -0.2969  0.4975  0.1894
  550MOL0     O75821   5.478  10.657   5.984  0.1777  0.2977  0.3084
  550MOL0     C75822   5.428  10.787   6.028 -0.2723 -0.8516 -0.0778
  550MOL0     C75823   5.278  10.795   6.029 -0.6487 -0.3139 -0.2113
  550MOL0     C75824   5.222  10.799   5.891 -0.8094  0.1574  0.1296
  550MOL0     C75825   5.195  10.659   5.836 -0.3756  0.1175 -0.1693
  550MOL0     C75826   5.082  10.587   5.898  0.3799  0.1054  0.6253
  550MOL0     C75827   4.986  10.522   5.928  0.1949 -0.4734  0.0330
  550MOL0     C75828   5.647  10.496   5.951  0.6413  0.5403 -0.1857
  550MOL0     C75829   5.779  10.452   5.962 -0.3003  0.3140  0.0859
  550MOL0     C75830   5.793  10.316   5.915 -0.6509 -0.0547  0.4651
  550MOL0     H75831   6.256  10.603   6.273  1.0664 -0.7461  0.9710
  550MOL0     H75832   6.505  10.564   6.275  1.9024  0.9650 -1.7173
  550MOL0     H75833   6.683  10.375   6.227  0.2816 -0.7849 -0.8954
  550MOL0     H75834   6.718  10.550   6.261 -0.8066 -0.1440 -0.2404
  550MOL0     H75835   6.862  10.419   6.027  0.2033 -1.5691  0.7400
  550MOL0     H75836   6.927  10.532   6.150 -0.3715  1.1931  1.9017
  550MOL0     H75837   6.952  10.353   6.305  1.6244  2.2340 -1.4531
  550MOL0     H75838   6.883  10.227   6.194  1.5119 -0.9014 -0.9714
  550MOL0     H75839   7.057  10.279   6.041  0.3363 -0.3281  0.2108
  550MOL0     H75840   7.139  10.394   6.150 -0.0995  0.5769 -0.7401
  550MOL0     H75841   7.089  10.092   6.184 -0.9975 -0.1121  3.1127
  550MOL0     H75842   7.131  10.199   6.317 -0.4060  3.7796 -0.0770
  550MOL0     H75843   7.332  10.229   6.101  1.3312  2.0791  1.5105
  550MOL0     H75844   7.340  10.256   6.275 -2.5546  2.1046 -0.4609
  550MOL0     H75845   7.470  10.064   6.184  0.5102 -0.8299 -1.3141
  550MOL0     H75846   7.342   9.980   6.121  0.2131  0.6145 -0.0636
  550MOL0     H75847   7.395  10.056   6.420  2.1396 -0.8070  1.3063
  550MOL0     H75848   7.235  10.003   6.361  0.3993 -0.2585  0.6592
  550MOL0     H75849   7.229   9.703   6.313 -0.1782  1.8811 -1.2693
  550MOL0     H75850   7.393   9.468   6.235 -0.9787 -0.5160 -0.6244
  550MOL0     H75851   7.316   9.490   6.398 -2.0531  4.1419 -2.7653
  550MOL0     H75852   7.533   9.430   6.514 -0.1469 -0.5943  0.9410
  550MOL0     H75853   7.466   9.297   6.415 -0.4953 -0.7590 -0.2907
  550MOL0     H75854   7.642   9.273   6.282  2.2101 -0.9148  1.7542
  550MOL0     H75855   7.636   9.441   6.236 -1.7135 -1.5129 -0.7547
  550MOL0     H75856   7.745   9.481   6.469 -2.3204  0.4765 -0.2738
  550MOL0     H75857   7.759   9.307   6.472 -1.3877 -0.3089  0.0051
  550MOL0     H75858   7.977   9.309   6.563  0.0247 -0.5518 -0.4837
  550MOL0     H75859   8.188   9.057   6.618 -0.8831  0.6979  1.7095
  550MOL0     H75860   8.172   9.225   6.685  2.8377  1.0821  1.4601
  550MOL0     H75861   8.320   9.175   6.613  0.0396 -0.6488 -1.6505
  550MOL0     H75862   8.593   9.040   6.493 -1.4300  2.4834  0.6278
  550MOL0     H75863   8.837   8.990   6.482  3.3129  0.7597 -1.4488
  550MOL0     H75864   9.091   8.991   6.097  1.9936 -0.2428  0.8636
  550MOL0     H75865   9.056   9.169   6.138  1.5164  1.0412 -0.0282
  550MOL0     H75866   9.289   9.117   6.105 -0.4172  2.0402  0.1593
  550MOL0     H75867   9.266   9.160   6.280 -0.1127 -0.4908  0.5772
  550MOL0     H75868   9.320   8.896   6.154 -1.8750  0.0919  0.3383
  550MOL0     H75869   9.274   8.900   6.329 -0.3133  2.0767  1.6779
  550MOL0     H75870   9.463   9.058   6.357  1.8542  0.6974 -0.8634
  550MOL0     H75871   9.521   9.006   6.191  0.3101  0.1443 -0.7381
  550MOL0     H75872   9.448   8.782   6.375 -0.6690 -0.1085  0.5863
  550MOL0     H75873   9.547   8.783   6.232  1.3025 -1.2618  1.0419
  550MOL0     H75874   9.687   8.748   6.442 -0.7741 -0.9664 -0.1839
  550MOL0     H75875   9.623   8.898   6.509  1.2422  1.0768 -0.2306
  550MOL0     H75876   9.726   8.998   6.280  1.0028  0.9751  1.1141
  550MOL0     H75877   9.824   8.854   6.287 -2.6001 -1.8671 -1.4048
  550MOL0     H75878   9.793   9.056   6.512  2.1864  0.2494  1.3000
  550MOL0     H75879   9.934   9.042   6.400  1.3804 -0.4887 -0.1830
  550MOL0     H75880   8.862   9.157   6.096  1.2553 -0.3634  2.0391
  550MOL0     H75881   8.620   9.181   6.089 -0.5006 -2.0125  0.0478
  550MOL0     H75882   8.236   9.219   6.142 -0.4349  0.8069  0.3559
  550MOL0     H75883   8.040   9.353   6.126 -2.7816 -1.1710  0.2312
  550MOL0     H75884   6.503  10.474   5.867  2.0448  0.7417  0.6731
  550MOL0     H75885   6.251  10.518   5.851 -3.3878 -0.1944  1.2025
  550MOL0     H75886   5.906  10.742   6.097  1.2054 -0.0034  0.8688
  550MOL0     H75887   5.676  10.813   6.067  0.5867 -0.7997 -0.7227
  550MOL0     H75888   5.467  10.795   6.130 -1.9704 -1.7058  0.6859
  550MOL0     H75889   5.471  10.865   5.965 -2.7967  1.2732  0.6680
  550MOL0     H75890   5.254  10.885   6.086  1.5594  0.3137 -0.1797
  550MOL0     H75891   5.240  10.706   6.081  1.4078 -1.8262 -1.1455
  550MOL0     H75892   5.130  10.856   5.907 -1.4711 -0.6825 -0.5740
  550MOL0     H75893   5.283  10.861   5.825 -0.4278  1.1589  1.3788
  550MOL0     H75894   5.288  10.602   5.837  1.0876  2.3479  1.8044
  550MOL0     H75895   5.181  10.675   5.729 -1.8156  2.0455  0.2481
  550MOL0     H75896   4.890  10.481   5.951  0.0572 -0.4647 -0.5053
  550MOL0     H75897   5.575  10.427   5.908  1.9028 -1.5146  0.8427
  550MOL0     H75898   5.893  10.324   5.871 -1.0918  1.7099 -0.2996
  550MOL0     H75899   5.800  10.252   6.003  1.0372  0.5068  0.7807
  550MOL0     H75900   5.733  10.289   5.828  2.0015  0.0550 -1.5478
  551MOL0     O75901   1.824   4.955   4.860 -0.0779  0.2302  0.3455
  551MOL0     C75902   1.731   5.021   4.910 -0.4582  0.3165 -0.6526
  551MOL0     O75903   1.751   5.153   4.956 -0.2215  0.4040  0.2114
  551MOL0     C75904   1.880   5.194   4.979  0.0926 -0.3095 -0.0640
  551MOL0     C75905   1.969   5.241   4.881 -0.2962  0.2786 -0.0201
  551MOL0     C75906   2.099   5.285   4.904 -0.1385 -0.7490  0.7359
  551MOL0     C75907   2.144   5.301   5.034  0.3565  0.3098  0.5770
  551MOL0     O75908   2.276   5.352   5.030 -0.5436 -0.0637  0.2595
  551MOL0     C75909   2.332   5.428   5.134  1.4109 -0.1640 -0.8701
  551MOL0     C75910   2.409   5.553   5.100 -0.9657 -0.7664 -0.4308
  551MOL0     C75911   2.480   5.629   5.216 -0.3154 -0.2224 -0.2167
  551MOL0     C75912   2.383   5.688   5.319  0.6956 -0.3053 -0.2272
  551MOL0     C75913   2.471   5.740   5.437  0.1099 -0.9646 -0.1766
  551MOL0     C75914   2.484   5.892   5.443  1.1922 -0.6030 -0.0149
  551MOL0     C75915   2.371   5.953   5.534  0.2213 -0.5037  1.1761
  551MOL0     C75916   2.384   6.103   5.537  0.8290 -0.4112 -0.7687
  551MOL0     N75917   2.248   6.162   5.564 -0.3460 -0.7228 -0.2141
  551MOL0     C75918   2.143   6.154   5.475 -0.3049 -0.5129 -0.7051
  551MOL0     C75919   2.041   6.230   5.532  1.0668  0.3587 -0.0214
  551MOL0     C75920   1.910   6.257   5.478  0.6638  0.3184  0.6262
  551MOL0     C75921   1.803   6.276   5.590 -0.3228 -0.5324 -0.8261
  551MOL0     C75922   1.784   6.155   5.680 -0.9159  0.1278 -0.4433
  551MOL0     C75923   1.719   6.032   5.591  0.0408  0.2436 -0.1524
  551MOL0     O75924   1.696   5.908   5.656  0.3695  0.3364 -0.8337
  551MOL0     C75925   1.809   5.850   5.716  0.4578  0.4251  0.1025
  551MOL0     C75926   1.784   5.755   5.828 -0.1861  0.2549  0.4774
  551MOL0     C75927   1.895   5.705   5.908 -0.7391 -0.1763  0.0996
  551MOL0     C75928   1.864   5.639   6.039  0.4291  0.4458  0.1798
  551MOL0     C75929   2.034   5.725   5.857 -0.5190  0.8863  1.2341
  551MOL0     C75930   2.152   5.654   5.912  0.3693  0.2331  0.2909
  551MOL0     O75931   2.280   5.688   5.859  0.4021 -1.0505  0.2634
  551MOL0     C75932   2.390   5.653   5.932  0.1637  0.3605 -1.2101
  551MOL0     C75933   2.504   5.624   5.856 -1.1555 -0.4939 -0.5585
  551MOL0     C75934   2.629   5.594   5.916  0.2295  0.2819 -0.1237
  551MOL0     C75935   2.625   5.584   6.058  0.2392  0.0696  0.3466
  551MOL0     O75936   2.744   5.554   6.113  0.0467 -0.1981  0.5426
  551MOL0     C75937   2.796   5.644   6.210  0.8803 -0.0625 -0.3276
  551MOL0     C75938   2.943   5.610   6.225  0.2371 -0.6869 -0.0690
  551MOL0     C75939   3.024   5.745   6.264  1.4986  1.0038  0.0884
  551MOL0     C75940   3.161   5.718   6.310 -0.4544  0.0031  0.0346
  551MOL0     C75941   3.218   5.852   6.367 -0.2956  0.3448 -0.6107
  551MOL0     C75942   3.369   5.850   6.377 -0.4120 -0.7319 -0.3135
  551MOL0     C75943   3.427   5.971   6.462  1.1957  0.6077 -0.7084
  551MOL0     C75944   3.578   5.964   6.461  0.1323 -0.4723 -0.4889
  551MOL0    Cl75945   3.639   5.814   6.544 -0.0647  0.2489 -0.0463
  551MOL0     C75946   2.516   5.618   6.132 -0.1002  0.2926 -0.1731
  551MOL0     C75947   2.398   5.648   6.069 -0.0109  0.3634 -0.5162
  551MOL0     O75948   2.135   5.572   5.998  0.2404  0.1691 -0.7394
  551MOL0     C75949   2.051   5.812   5.748  0.4978 -0.1074  0.3927
  551MOL0     C75950   1.943   5.876   5.683 -0.3837 -0.0161  0.7994
  551MOL0     N75951   2.091   6.286   5.649 -0.2032  0.4479  0.5041
  551MOL0     N75952   2.209   6.245   5.668  0.1097 -0.7957  0.0791
  551MOL0     C75953   2.059   5.259   5.141 -0.2591  0.6706  0.1987
  551MOL0     C75954   1.929   5.193   5.108 -0.3144 -0.3334 -0.7398
  551MOL0     C75955   1.604   4.952   4.924  0.4646 -0.5174  0.1826
  551MOL0     C75956   1.604   4.815   4.901  0.5438  1.3607  0.1906
  551MOL0     C75957   1.481   4.748   4.895  0.2509  0.9677  0.2120
  551MOL0     C75958   1.359   4.811   4.912  0.9764 -0.5152 -0.9262
  551MOL0     O75959   1.237   4.744   4.911 -0.1389 -1.2323 -0.1944
  551MOL0     C75960   1.231   4.627   4.837 -0.0112 -0.7555 -0.1259
  551MOL0     C75961   1.087   4.609   4.787  0.6323 -0.6793  0.5759
  551MOL0     C75962   1.019   4.734   4.723  0.3255 -0.9047  1.4265
  551MOL0     C75963   0.869   4.708   4.676  0.0757  0.1376 -0.0774
  551MOL0     C75964   0.816   4.838   4.621 -0.0427  1.2476  0.6969
  551MOL0     C75965   0.767   4.938   4.577 -0.4924 -0.5830 -0.7727
  551MOL0     C75966   1.367   4.945   4.949  0.2230 -0.1133 -0.3168
  551MOL0     C75967   1.482   5.026   4.954 -0.8749  0.4476 -0.2736
  551MOL0     C75968   1.473   5.173   4.976  0.6980 -0.6451 -0.3263
  551MOL0     H75969   1.936   5.256   4.779 -0.2161  3.5469  0.3135
  551MOL0     H75970   2.152   5.333   4.822  1.7821  0.6796  2.7047
  551MOL0     H75971   2.403   5.360   5.182  0.2579 -0.1710  0.8772
  551MOL0     H75972   2.251   5.447   5.204  1.8594 -0.6905 -0.1902
  551MOL0     H75973   2.482   5.518   5.027 -0.6798 -1.1451  0.0289
  551MOL0     H75974   2.351   5.630   5.049  0.8461 -0.0723 -1.5239
  551MOL0     H75975   2.566   5.580   5.262  1.4643  3.2532  0.4440
  551MOL0     H75976   2.518   5.715   5.160 -1.7153 -0.1096 -1.0431
  551MOL0     H75977   2.322   5.756   5.259 -0.8085 -3.2694 -2.3003
  551MOL0     H75978   2.317   5.608   5.354  0.1889  0.2764  0.1597
  551MOL0     H75979   2.569   5.696   5.458  0.6957 -1.2376 -3.0575
  551MOL0     H75980   2.406   5.710   5.520 -0.7593  3.3821  0.9541
  551MOL0     H75981   2.579   5.934   5.476  1.5130 -0.5873 -0.9318
  551MOL0     H75982   2.461   5.940   5.348 -2.6865  0.0025  1.0203
  551MOL0     H75983   2.386   5.902   5.629 -3.3239  0.5997  2.4951
  551MOL0     H75984   2.275   5.925   5.488  1.2446 -2.7709  0.2693
  551MOL0     H75985   2.446   6.127   5.624 -1.8569  0.1890  1.1132
  551MOL0     H75986   2.427   6.152   5.449 -0.3714  0.1110 -1.1007
  551MOL0     H75987   2.143   6.096   5.383  2.4929 -5.3199  1.8713
  551MOL0     H75988   1.893   6.173   5.409 -0.6057  0.2698  0.9690
  551MOL0     H75989   1.906   6.346   5.415 -0.3256  0.7261  1.2489
  551MOL0     H75990   1.845   6.359   5.647 -0.2236  0.6367 -2.5257
  551MOL0     H75991   1.714   6.313   5.538  0.2199 -1.7359 -2.6977
  551MOL0     H75992   1.884   6.136   5.718 -0.6017  0.0730 -1.2684
  551MOL0     H75993   1.724   6.174   5.769  0.9965 -3.3059  1.7902
  551MOL0     H75994   1.621   6.066   5.556 -0.5149 -2.7426 -1.8157
  551MOL0     H75995   1.773   6.018   5.498 -3.5108 -1.4830 -2.1752
  551MOL0     H75996   1.684   5.739   5.866  0.3880  1.5546  2.7669
  551MOL0     H75997   1.909   5.685   6.127 -4.2318  0.0159  3.1652
  551MOL0     H75998   1.900   5.536   6.029  1.4314  0.9374 -1.7187
  551MOL0     H75999   1.756   5.648   6.056  0.2426  3.0460 -1.8011
  551MOL0     H76000   2.497   5.645   5.750  2.3202  3.5908 -0.2801
  551MOL0     H76001   2.723   5.575   5.866 -1.2157 -0.1806 -2.8352
  551MOL0     H76002   2.774   5.748   6.181  4.0450  0.3841 -1.5926
  551MOL0     H76003   2.745   5.634   6.306 -1.2725 -0.0995 -1.3962
  551MOL0     H76004   2.970   5.535   6.300 -0.3070  0.2678  1.1070
  551MOL0     H76005   2.976   5.578   6.125  0.0043 -2.1716  0.3075
  551MOL0     H76006   2.964   5.784   6.347 -0.7405 -0.2916 -0.8406
  551MOL0     H76007   3.034   5.809   6.176  2.5644 -2.6377 -2.6823
  551MOL0     H76008   3.217   5.684   6.223 -0.2928  0.0145  0.1343
  551MOL0     H76009   3.164   5.634   6.379 -0.3861  0.6171  0.7904
  551MOL0     H76010   3.172   5.942   6.324 -1.4498  1.1964  2.2084
  551MOL0     H76011   3.187   5.862   6.471  1.9360  1.6392 -0.0002
  551MOL0     H76012   3.413   5.839   6.277  0.0928 -1.2541 -0.0415
  551MOL0     H76013   3.389   5.750   6.417 -2.1365 -0.9757  0.0461
  551MOL0     H76014   3.382   5.949   6.559  0.5186 -0.8938 -1.3443
  551MOL0     H76015   3.384   6.063   6.421  1.8949  1.6991  0.8704
  551MOL0     H76016   3.620   6.049   6.514  1.8140 -1.7421  0.2815
  551MOL0     H76017   3.626   5.977   6.363 -0.3258  1.7271 -0.4863
  551MOL0     H76018   2.507   5.633   6.239  2.0174 -0.5732  0.1756
  551MOL0     H76019   2.312   5.668   6.133  2.5701  1.1163  3.0061
  551MOL0     H76020   2.152   5.836   5.714 -0.2299 -0.1301 -1.9935
  551MOL0     H76021   1.969   5.943   5.601 -1.4487  1.9936  2.0385
  551MOL0     H76022   2.089   5.269   5.245  0.1285 -0.5650  0.2289
  551MOL0     H76023   1.862   5.149   5.181 -0.8902  2.6773  0.6757
  551MOL0     H76024   1.696   4.757   4.900 -0.7354 -0.7945  1.3616
  551MOL0     H76025   1.484   4.641   4.876 -2.5088  0.4809  1.8572
  551MOL0     H76026   1.302   4.633   4.754  1.4081 -0.8556  1.0237
  551MOL0     H76027   1.253   4.537   4.897 -2.1860 -1.2178  0.0579
  551MOL0     H76028   1.024   4.586   4.874  1.4512 -2.9328  0.6438
  551MOL0     H76029   1.074   4.519   4.727 -0.3706 -0.1434 -0.0343
  551MOL0     H76030   1.014   4.803   4.807 -1.8240 -2.1505  2.3930
  551MOL0     H76031   1.084   4.771   4.643  0.5873 -2.3562  0.9360
  551MOL0     H76032   0.801   4.683   4.758 -3.6390  2.4797 -2.1646
  551MOL0     H76033   0.864   4.623   4.607 -0.5040 -1.8355  2.2542
  551MOL0     H76034   0.709   5.020   4.540 -0.8232  0.0073  0.9628
  551MOL0     H76035   1.273   4.996   4.969  0.2702  0.0212 -0.4335
  551MOL0     H76036   1.373   5.211   4.997  1.2204  0.6422 -0.1022
  551MOL0     H76037   1.527   5.203   5.067  0.2385 -1.2371  0.1503
  551MOL0     H76038   1.513   5.232   4.893  1.3741 -1.0436 -0.2948
  552MOL0     O76039   6.747   2.315   8.027  0.2565 -0.2337  0.0887
  552MOL0     C76040   6.759   2.197   7.990 -0.4012  0.2044 -0.0169
  552MOL0     O76041   6.880   2.143   7.947 -1.0447  0.5203 -0.1901
  552MOL0     C76042   6.983   2.241   7.938 -0.1059  0.8872  0.5255
  552MOL0     C76043   7.104   2.233   8.004 -0.6372  0.8026  0.8334
  552MOL0     C76044   7.200   2.336   7.990 -0.2226  0.9322 -0.1998
  552MOL0     C76045   7.187   2.435   7.899 -0.4254  0.0745  0.3454
  552MOL0     O76046   7.281   2.530   7.886  0.5853  0.5405 -0.4572
  552MOL0     C76047   7.250   2.656   7.837  0.2983 -0.1160  0.4799
  552MOL0     C76048   7.346   2.767   7.883 -0.2764  0.9728  0.2873
  552MOL0     C76049   7.467   2.802   7.791  0.1943 -0.5791 -0.8621
  552MOL0     C76050   7.561   2.678   7.767  0.3941 -0.1394 -0.9156
  552MOL0     C76051   7.698   2.725   7.710  1.2508  0.4926 -0.4520
  552MOL0     C76052   7.681   2.793   7.568 -0.2572  0.2144 -0.1322
  552MOL0     C76053   7.822   2.830   7.511  0.3048 -0.4360  0.4621
  552MOL0     C76054   7.907   2.714   7.463 -0.3989  0.5563  0.8873
  552MOL0     N76055   7.855   2.630   7.354 -0.8026  0.0362 -0.9258
  552MOL0     C76056   7.914   2.631   7.230  1.0182 -0.8255 -0.2982
  552MOL0     C76057   7.860   2.533   7.156 -1.1993 -0.4625 -0.9265
  552MOL0     C76058   7.899   2.495   7.018 -0.1203 -0.3594  0.3267
  552MOL0     C76059   7.985   2.590   6.939  0.3273  0.1667  0.0467
  552MOL0     C76060   8.053   2.535   6.810  0.4078 -0.3829 -0.1134
  552MOL0     C76061   8.107   2.653   6.740  0.2178  0.1598 -1.1708
  552MOL0     O76062   8.218   2.705   6.821  0.3474 -0.1390  0.4740
  552MOL0     C76063   8.305   2.785   6.744 -1.0470 -0.4690 -0.4449
  552MOL0     C76064   8.431   2.819   6.798 -0.4044 -0.7351  0.7178
  552MOL0     C76065   8.519   2.893   6.718  0.2828 -0.0382 -0.7572
  552MOL0     C76066   8.652   2.915   6.780 -0.9156 -0.6599  0.7601
  552MOL0     C76067   8.489   2.942   6.589 -0.7062  0.8098 -0.5553
  552MOL0     C76068   8.584   3.014   6.495  0.4782  0.4141  0.4670
  552MOL0     O76069   8.523   3.061   6.377 -0.7382 -0.4369 -0.2767
  552MOL0     C76070   8.580   3.172   6.307  0.2628  0.0030  0.4663
  552MOL0     C76071   8.482   3.272   6.283  0.3928 -0.2239  0.2939
  552MOL0     C76072   8.521   3.392   6.214  0.5665  0.5973  0.5939
  552MOL0     C76073   8.655   3.412   6.184 -0.3932 -0.2580 -0.3264
  552MOL0     O76074   8.670   3.540   6.139 -0.5217  0.0288  0.6229
  552MOL0     C76075   8.806   3.588   6.149 -0.2951 -0.0869 -0.0219
  552MOL0     C76076   8.804   3.743   6.131 -0.6099  0.3243  0.5831
  552MOL0     C76077   8.937   3.812   6.179 -0.2041 -0.8038  0.6806
  552MOL0     C76078   9.065   3.760   6.123  0.7500 -0.1563  0.2085
  552MOL0     C76079   9.171   3.870   6.152 -0.3661  0.3390 -0.0621
  552MOL0     C76080   9.183   3.979   6.041  0.4067 -0.2584 -0.9277
  552MOL0     C76081   9.266   4.099   6.074 -0.3242 -0.3952 -0.6124
  552MOL0     C76082   9.285   4.193   5.959  0.0473 -0.8631 -0.0703
  552MOL0    Cl76083   9.387   4.113   5.824  0.0480 -0.0157 -0.1548
  552MOL0     C76084   8.757   3.319   6.218 -0.0549 -0.3743  0.1168
  552MOL0     C76085   8.718   3.197   6.281 -0.1760 -0.4935  0.8279
  552MOL0     O76086   8.700   3.043   6.526 -0.5013  0.0729  0.7712
  552MOL0     C76087   8.365   2.916   6.546 -0.7687 -0.2930  0.9157
  552MOL0     C76088   8.273   2.844   6.622 -0.2593  0.8706  0.2048
  552MOL0     N76089   7.775   2.463   7.239 -0.0743 -0.2180  0.8231
  552MOL0     N76090   7.766   2.531   7.349  0.3486 -0.1859 -0.4812
  552MOL0     C76091   7.077   2.426   7.814 -0.5338 -0.0494 -0.0169
  552MOL0     C76092   6.977   2.334   7.835  0.5776 -0.2083 -0.3699
  552MOL0     C76093   6.626   2.119   7.981  0.4396 -0.2292 -0.6507
  552MOL0     C76094   6.507   2.180   7.952  0.1310 -0.0677 -0.2024
  552MOL0     C76095   6.391   2.101   7.924 -0.5538  0.7178  0.2210
  552MOL0     C76096   6.399   1.959   7.905 -0.2569  0.4317  0.2323
  552MOL0     O76097   6.289   1.886   7.873  0.4766  0.3472 -0.3617
  552MOL0     C76098   6.160   1.945   7.885 -0.4246  0.0117 -0.0955
  552MOL0     C76099   6.078   1.858   7.792  0.1347  0.1242 -0.7504
  552MOL0     C76100   6.123   1.868   7.646  0.2161  0.4461  0.2691
  552MOL0     C76101   6.013   1.865   7.542  0.6562  0.6088 -0.0754
  552MOL0     C76102   6.070   1.884   7.418 -0.0253  0.7944  0.2823
  552MOL0     C76103   6.115   1.881   7.306 -0.4327 -0.1636 -1.2288
  552MOL0     C76104   6.523   1.897   7.928 -0.4559  0.1313 -0.1581
  552MOL0     C76105   6.632   1.974   7.979 -0.5038 -0.0992  1.8355
  552MOL0     C76106   6.757   1.898   7.993 -0.5991  0.2311 -0.6612
  552MOL0     H76107   7.127   2.149   8.070  3.6945  0.3412 -0.9374
  552MOL0     H76108   7.278   2.349   8.064 -0.8130  1.6949  0.3020
  552MOL0     H76109   7.147   2.682   7.863 -0.3543  0.1345 -2.0632
  552MOL0     H76110   7.252   2.645   7.728  2.4700 -2.3224  0.6455
  552MOL0     H76111   7.287   2.859   7.879 -1.7853  0.0534  0.4839
  552MOL0     H76112   7.381   2.747   7.985 -1.1515 -1.8542  0.1312
  552MOL0     H76113   7.428   2.838   7.695  1.4427  0.5900 -0.9603
  552MOL0     H76114   7.517   2.886   7.840 -1.2228 -1.7364  2.8940
  552MOL0     H76115   7.592   2.622   7.855  2.2905  0.4007 -1.2002
  552MOL0     H76116   7.509   2.612   7.696 -2.2659 -2.1191  2.5573
  552MOL0     H76117   7.762   2.637   7.709  2.2457  1.1917 -0.1336
  552MOL0     H76118   7.746   2.802   7.771  0.9261  0.8019 -0.5827
  552MOL0     H76119   7.626   2.730   7.497  3.3982 -2.8712 -0.5811
  552MOL0     H76120   7.628   2.889   7.574  2.1839  1.7533 -1.4418
  552MOL0     H76121   7.875   2.891   7.585  0.0982 -1.4915  1.5061
  552MOL0     H76122   7.798   2.893   7.424 -0.2234 -3.3943 -1.7063
  552MOL0     H76123   8.007   2.752   7.443 -0.1510 -1.0635 -1.3129
  552MOL0     H76124   7.927   2.637   7.539 -0.1885  1.2514  1.5452
  552MOL0     H76125   7.994   2.700   7.204  0.4708  0.3954  1.1134
  552MOL0     H76126   7.806   2.461   6.972 -1.2123  2.2911  0.3774
  552MOL0     H76127   7.961   2.408   7.041 -0.2218 -0.5376 -0.0704
  552MOL0     H76128   7.920   2.673   6.914 -2.9372 -1.8077  1.3237
  552MOL0     H76129   8.071   2.607   7.005  0.1322  2.6920 -0.2750
  552MOL0     H76130   8.125   2.457   6.834  1.3481  0.5817  0.2447
  552MOL0     H76131   7.983   2.489   6.739  0.2686  0.3167 -0.4434
  552MOL0     H76132   8.146   2.625   6.642  0.1861  1.2445 -1.5115
  552MOL0     H76133   8.022   2.721   6.729 -1.7264 -2.1056 -1.0046
  552MOL0     H76134   8.459   2.774   6.893  3.4086 -0.2836 -0.0452
  552MOL0     H76135   8.680   3.021   6.786 -2.0588 -0.0881 -2.3527
  552MOL0     H76136   8.722   2.864   6.714 -0.9204 -0.2016  0.3920
  552MOL0     H76137   8.654   2.868   6.879  3.1384 -1.2719  0.5289
  552MOL0     H76138   8.381   3.261   6.323  0.1781 -2.8285 -0.7791
  552MOL0     H76139   8.452   3.474   6.198  0.4766  0.6912  1.4320
  552MOL0     H76140   8.847   3.557   6.246  0.1528 -0.8239 -0.4278
  552MOL0     H76141   8.871   3.545   6.072 -2.1546 -1.2385 -1.0272
  552MOL0     H76142   8.774   3.763   6.028 -1.9015  0.6102  0.9998
  552MOL0     H76143   8.730   3.795   6.193  2.4744  1.9347  3.2194
  552MOL0     H76144   8.937   3.833   6.286 -1.8238  2.7602  0.1280
  552MOL0     H76145   8.927   3.912   6.135  1.3587 -1.0183 -0.2388
  552MOL0     H76146   9.069   3.742   6.015  2.4452  0.9173  0.0494
  552MOL0     H76147   9.093   3.670   6.178  2.0964  0.2196  0.1714
  552MOL0     H76148   9.151   3.903   6.254  1.1287 -1.1646  0.7769
  552MOL0     H76149   9.270   3.824   6.158 -0.6973 -0.3171  0.5428
  552MOL0     H76150   9.080   4.012   6.031  0.5561  0.1200 -1.2252
  552MOL0     H76151   9.218   3.927   5.951  1.6600  2.0442 -1.8512
  552MOL0     H76152   9.368   4.073   6.101 -0.4023  0.5549  0.7020
  552MOL0     H76153   9.226   4.150   6.162  1.3844  0.4620 -0.2942
  552MOL0     H76154   9.338   4.286   5.981 -2.3642  0.4088  0.8588
  552MOL0     H76155   9.188   4.234   5.929  0.1760  0.2181  0.9011
  552MOL0     H76156   8.863   3.340   6.214  0.3041 -2.1869 -1.2031
  552MOL0     H76157   8.808   3.142   6.305 -0.5163 -0.3153  2.6064
  552MOL0     H76158   8.327   2.956   6.452 -0.8293  1.4654  1.6455
  552MOL0     H76159   8.175   2.834   6.577  0.5676  0.1351 -1.5542
  552MOL0     H76160   7.080   2.491   7.728  4.1495 -2.2667 -1.9014
  552MOL0     H76161   6.899   2.333   7.760  1.0064  0.7026 -0.8445
  552MOL0     H76162   6.503   2.288   7.962  3.6216  0.1372  0.3749
  552MOL0     H76163   6.304   2.165   7.917 -0.3063  1.1021  0.6002
  552MOL0     H76164   6.119   1.928   7.985 -1.4447  3.2037  0.1270
  552MOL0     H76165   6.161   2.048   7.849  4.0971  0.6552  1.1521
  552MOL0     H76166   5.975   1.896   7.792 -0.1843 -0.6960 -1.1118
  552MOL0     H76167   6.065   1.755   7.828  1.4704  0.1251 -0.2138
  552MOL0     H76168   6.176   1.963   7.635 -0.1997  0.6287 -0.1542
  552MOL0     H76169   6.195   1.786   7.640  1.0763  0.4945  5.3118
  552MOL0     H76170   5.938   1.941   7.568 -0.2954 -0.0213 -0.9304
  552MOL0     H76171   5.964   1.769   7.560 -0.4361  1.5631  2.5868
  552MOL0     H76172   6.167   1.875   7.212  0.8755 -3.9539 -0.4380
  552MOL0     H76173   6.546   1.793   7.906 -2.5550 -0.3975 -0.0123
  552MOL0     H76174   6.815   1.886   7.902  1.8982 -0.8752  0.9773
  552MOL0     H76175   6.814   1.959   8.064 -0.8988 -0.1022 -0.1269
  552MOL0     H76176   6.737   1.798   8.033  0.9570 -0.2317 -0.9966
  553MOL0     O76177   8.434   2.333   2.173 -0.4745  0.1186  0.0089
  553MOL0     C76178   8.376   2.285   2.271  0.4442 -0.3451 -0.1373
  553MOL0     O76179   8.430   2.242   2.387 -0.2268  0.3569 -0.4391
  553MOL0     C76180   8.564   2.275   2.428  0.0839 -0.8725 -0.2489
  553MOL0     C76181   8.623   2.199   2.525  0.5422  0.2131 -0.2448
  553MOL0     C76182   8.749   2.237   2.577  0.1917 -0.0346 -0.6530
  553MOL0     C76183   8.804   2.368   2.552  0.4673  0.1790 -0.5386
  553MOL0     O76184   8.933   2.390   2.597 -0.9361 -0.5375  0.5555
  553MOL0     C76185   8.958   2.520   2.651  0.6331 -0.0974  0.6042
  553MOL0     C76186   9.097   2.536   2.693 -0.1498 -0.1122  0.1997
  553MOL0     C76187   9.189   2.537   2.577  0.2920 -0.5305  0.0802
  553MOL0     C76188   9.336   2.540   2.610  0.2027  0.1384 -0.0668
  553MOL0     C76189   9.416   2.546   2.479  0.4591 -0.1366 -0.3949
  553MOL0     C76190   9.560   2.525   2.516 -0.8596 -0.5962 -0.1167
  553MOL0     C76191   9.654   2.542   2.399 -0.9035 -0.2847 -0.2290
  553MOL0     C76192   9.787   2.512   2.457 -0.1510 -0.2653 -0.1604
  553MOL0     N76193   9.892   2.537   2.361 -0.6129 -0.1000 -0.7989
  553MOL0     C76194   9.962   2.436   2.286 -0.3762 -1.0562  0.3154
  553MOL0     C76195  10.054   2.505   2.221  0.3556 -0.6206  0.4279
  553MOL0     C76196  10.147   2.458   2.104 -0.0517 -0.9414  0.3828
  553MOL0     C76197  10.271   2.380   2.157  0.5424  0.5243 -0.2278
  553MOL0     C76198  10.359   2.468   2.241  1.0696  0.5737  0.2617
  553MOL0     C76199  10.444   2.566   2.154  1.4481 -0.6499 -0.3489
  553MOL0     O76200  10.551   2.619   2.228  0.6093  0.0148 -0.1422
  553MOL0     C76201  10.646   2.697   2.171  0.3884 -0.8170  0.8535
  553MOL0     C76202  10.654   2.705   2.030 -0.8208  0.9067  0.2664
  553MOL0     C76203  10.748   2.789   1.962  0.7908  0.1481 -0.5498
  553MOL0     C76204  10.762   2.790   1.814 -0.2124  0.0189  0.2277
  553MOL0     C76205  10.838   2.870   2.036  0.3845 -0.8085 -0.1913
  553MOL0     C76206  10.936   2.969   1.982 -0.8919 -0.8380  0.9809
  553MOL0     O76207  10.997   3.042   2.087  0.4938  0.4807  0.7705
  553MOL0     C76208  11.086   3.138   2.058  0.2993 -0.0088  0.2777
  553MOL0     C76209  11.047   3.249   1.983  0.1117 -0.3879 -0.3155
  553MOL0     C76210  11.126   3.358   1.956  0.7006  0.9351  0.7503
  553MOL0     C76211  11.253   3.364   2.007 -0.0205 -0.4012  0.0500
  553MOL0     O76212  11.322   3.483   1.973  0.0993 -0.0055 -0.3784
  553MOL0     C76213  11.451   3.494   2.033 -0.0270 -0.6506 -0.2574
  553MOL0     C76214  11.532   3.598   1.952 -0.1033  1.0828  0.1848
  553MOL0     C76215  11.503   3.748   1.997  0.8934 -0.2739 -0.3517
  553MOL0     C76216  11.593   3.808   2.106 -0.0520 -0.5404  0.8016
  553MOL0     C76217  11.627   3.712   2.227 -0.0523  0.1907 -0.1473
  553MOL0     C76218  11.706   3.769   2.349  0.5147  0.1014  0.0882
  553MOL0     C76219  11.752   3.652   2.438  0.2454 -0.9705 -0.4540
  553MOL0     C76220  11.842   3.713   2.551 -0.2890  0.3660 -0.4666
  553MOL0    Cl76221  11.987   3.794   2.482 -0.1244  0.0236 -0.2557
  553MOL0     C76222  11.300   3.256   2.081 -0.0417 -0.7209  0.2609
  553MOL0     C76223  11.215   3.149   2.104 -0.8390  0.9672 -0.0342
  553MOL0     O76224  10.954   2.988   1.862  0.3387 -0.0948  0.4382
  553MOL0     C76225  10.837   2.848   2.179  0.4466 -0.1976 -0.6274
  553MOL0     C76226  10.748   2.762   2.244  0.5293 -0.1854  0.2166
  553MOL0     N76227  10.055   2.635   2.281 -0.5490  0.3474  0.6818
  553MOL0     N76228   9.951   2.659   2.352  0.7432  0.7900 -0.3507
  553MOL0     C76229   8.747   2.452   2.455 -0.1967 -0.1219 -0.0201
  553MOL0     C76230   8.632   2.401   2.394  0.9806 -0.1809 -0.3029
  553MOL0     C76231   8.222   2.278   2.263 -0.2869  0.4302  0.3272
  553MOL0     C76232   8.160   2.215   2.374  0.6001 -0.5027  0.4025
  553MOL0     C76233   8.020   2.192   2.376  0.3125  0.2557 -1.1249
  553MOL0     C76234   7.941   2.244   2.274 -0.1567  0.4033 -0.0992
  553MOL0     O76235   7.806   2.225   2.301  0.0698  0.0015  0.7950
  553MOL0     C76236   7.715   2.328   2.243 -0.2859 -0.5799 -0.7660
  553MOL0     C76237   7.589   2.322   2.323  0.1263 -0.2851  0.3776
  553MOL0     C76238   7.500   2.434   2.269  0.0096  0.0804  0.2681
  553MOL0     C76239   7.354   2.428   2.326 -0.6078  0.2831 -0.4571
  553MOL0     C76240   7.279   2.307   2.286  0.3119 -0.7346  0.0438
  553MOL0     C76241   7.232   2.198   2.250  0.1603 -0.6476 -0.3117
  553MOL0     C76242   7.995   2.319   2.172 -0.8525 -0.1472 -0.1697
  553MOL0     C76243   8.138   2.333   2.163 -0.8860  0.6133  0.3453
  553MOL0     C76244   8.194   2.385   2.032  0.0420 -0.6360  0.1670
  553MOL0     H76245   8.574   2.106   2.551  0.4010  0.6017  0.9449
  553MOL0     H76246   8.795   2.164   2.643  1.0915 -0.0999 -1.3407
  553MOL0     H76247   8.900   2.530   2.744  3.2064  1.5449  2.1608
  553MOL0     H76248   8.928   2.603   2.587  1.4618 -0.5476 -0.3977
  553MOL0     H76249   9.115   2.632   2.742 -1.3478  0.1272  0.2077
  553MOL0     H76250   9.127   2.443   2.742  0.6388 -1.0322 -1.9354
  553MOL0     H76251   9.168   2.439   2.533 -2.2436 -0.4206  0.8929
  553MOL0     H76252   9.154   2.620   2.516 -0.2002 -1.2827 -0.6806
  553MOL0     H76253   9.361   2.632   2.665  0.8787 -0.3184  0.3899
  553MOL0     H76254   9.361   2.456   2.675  1.6032  0.8072  0.2977
  553MOL0     H76255   9.412   2.650   2.443  2.2875  0.1614  0.1465
  553MOL0     H76256   9.383   2.471   2.406  0.2574 -2.4729  1.9697
  553MOL0     H76257   9.587   2.584   2.605 -0.1672 -3.3741  1.6281
  553MOL0     H76258   9.579   2.426   2.556  1.0958 -0.9163 -1.6830
  553MOL0     H76259   9.651   2.643   2.359 -0.2777 -0.6177 -1.1647
  553MOL0     H76260   9.640   2.468   2.319 -0.8047  0.1846 -0.6832
  553MOL0     H76261   9.795   2.575   2.546  3.9489  0.6173 -0.9426
  553MOL0     H76262   9.794   2.407   2.488  0.7826 -0.0290  0.4690
  553MOL0     H76263   9.934   2.331   2.277  0.1362 -1.1594 -0.1754
  553MOL0     H76264  10.188   2.537   2.040 -2.9841 -2.6927 -4.1451
  553MOL0     H76265  10.084   2.398   2.038 -1.3978  2.4190 -1.6269
  553MOL0     H76266  10.232   2.308   2.229  1.0596 -0.2171 -0.6762
  553MOL0     H76267  10.334   2.329   2.084  0.4293 -0.4981  0.3577
  553MOL0     H76268  10.297   2.524   2.312  0.5336  0.1253  0.1534
  553MOL0     H76269  10.428   2.405   2.299  0.5952 -0.3357 -0.1577
  553MOL0     H76270  10.481   2.500   2.075  1.2423 -1.2542  0.0450
  553MOL0     H76271  10.385   2.653   2.123  1.7938  0.4227  1.7862
  553MOL0     H76272  10.577   2.655   1.972  1.0476  0.1091 -1.7053
  553MOL0     H76273  10.865   2.768   1.785  1.2841  2.0431  3.4571
  553MOL0     H76274  10.734   2.890   1.779  0.2534 -0.2878 -1.0764
  553MOL0     H76275  10.689   2.722   1.769  1.8072 -1.6187 -0.7765
  553MOL0     H76276  10.947   3.259   1.942  0.5649  0.4432 -1.2646
  553MOL0     H76277  11.086   3.451   1.918 -1.1119  0.4487  1.3483
  553MOL0     H76278  11.445   3.519   2.139 -1.8285  2.1252 -0.8921
  553MOL0     H76279  11.510   3.402   2.039  0.5537 -0.2279  0.7272
  553MOL0     H76280  11.640   3.582   1.961  0.1288  1.6762 -1.3517
  553MOL0     H76281  11.514   3.583   1.846 -2.0290  2.1948  0.3111
  553MOL0     H76282  11.399   3.763   2.026  0.9049  0.5406 -0.6976
  553MOL0     H76283  11.504   3.816   1.911  0.3184 -0.3446 -0.4172
  553MOL0     H76284  11.546   3.898   2.147 -2.6978 -1.0019 -1.0071
  553MOL0     H76285  11.689   3.830   2.059 -1.8357  2.6091 -1.7323
  553MOL0     H76286  11.528   3.681   2.263 -1.7251  1.5746 -3.1861
  553MOL0     H76287  11.679   3.626   2.183 -0.3157  0.7116 -1.5355
  553MOL0     H76288  11.636   3.825   2.411  0.4560 -1.7536  1.8108
  553MOL0     H76289  11.790   3.830   2.315  1.6527  0.2907  2.9781
  553MOL0     H76290  11.797   3.570   2.383  0.6123 -1.4113  0.4791
  553MOL0     H76291  11.654   3.616   2.473  0.7463 -0.9355  1.0413
  553MOL0     H76292  11.875   3.636   2.621  0.0233  0.3717 -0.6073
  553MOL0     H76293  11.789   3.788   2.611  1.0761  0.5091  0.5907
  553MOL0     H76294  11.400   3.266   2.121  1.7506 -1.9540 -3.4164
  553MOL0     H76295  11.252   3.084   2.183 -1.3277  0.8742  0.1241
  553MOL0     H76296  10.891   2.904   2.254 -2.4833  2.0041  0.0162
  553MOL0     H76297  10.744   2.749   2.351  2.7251  0.6770  0.4459
  553MOL0     H76298   8.795   2.548   2.440 -2.4789  1.3330  1.4199
  553MOL0     H76299   8.575   2.466   2.328 -0.5310 -0.0592  1.0329
  553MOL0     H76300   8.218   2.173   2.456  0.0963  1.0681  1.6095
  553MOL0     H76301   7.969   2.140   2.456 -1.8567 -0.4715 -2.8583
  553MOL0     H76302   7.760   2.428   2.252 -3.3357  0.7469  1.2820
  553MOL0     H76303   7.688   2.306   2.139 -0.8039 -2.6509 -0.2389
  553MOL0     H76304   7.621   2.341   2.426 -0.4937  0.9543  0.3587
  553MOL0     H76305   7.534   2.228   2.308  1.3979 -0.6931 -2.1518
  553MOL0     H76306   7.545   2.533   2.268  1.1894 -0.4041 -2.2510
  553MOL0     H76307   7.486   2.409   2.164  0.7153  0.1565  0.1506
  553MOL0     H76308   7.296   2.519   2.310 -0.1555  0.7171  0.2928
  553MOL0     H76309   7.377   2.415   2.433  2.4447 -0.2668 -1.0686
  553MOL0     H76310   7.204   2.106   2.202  1.3522 -0.4801 -1.3828
  553MOL0     H76311   7.933   2.344   2.086  0.1917  2.9310 -0.1364
  553MOL0     H76312   8.256   2.472   2.054  1.5498 -2.3940  3.6710
  553MOL0     H76313   8.252   2.301   1.992  1.9800  1.0783 -0.7976
  553MOL0     H76314   8.113   2.406   1.961 -2.3161 -2.2332  2.1917
  554MOL0     O76315   1.104  10.011   9.343 -0.2630  0.4948 -0.0451
  554MOL0     C76316   0.998   9.952   9.331 -0.2779 -0.0908  0.2249
  554MOL0     O76317   0.959   9.837   9.387 -0.2949  0.2320 -0.2654
  554MOL0     C76318   1.033   9.800   9.495 -0.2203  0.4446  0.1022
  554MOL0     C76319   1.043   9.881   9.608  0.8025  0.3453  0.7079
  554MOL0     C76320   1.108   9.832   9.720 -0.2570 -0.0673 -0.5046
  554MOL0     C76321   1.167   9.702   9.720  0.2902  0.4449 -0.3236
  554MOL0     O76322   1.230   9.648   9.831 -0.1697 -0.3845  0.2889
  554MOL0     C76323   1.152   9.674   9.948 -0.4327  0.0040 -0.3112
  554MOL0     C76324   1.239   9.623  10.063 -0.4619 -0.1428 -0.1994
  554MOL0     C76325   1.172   9.492  10.109 -0.2193  0.9391  0.3164
  554MOL0     C76326   1.232   9.433  10.241 -0.5988  1.2143 -0.0879
  554MOL0     C76327   1.141   9.327  10.298  0.0338  0.8117 -0.0665
  554MOL0     C76328   1.177   9.268  10.440 -0.2040  0.0159 -0.6447
  554MOL0     C76329   1.328   9.255  10.458  0.3550 -0.3954 -0.1884
  554MOL0     C76330   1.363   9.168  10.579 -0.5102  0.0115 -0.3073
  554MOL0     N76331   1.505   9.125  10.575 -0.1798 -0.2685  1.0078
  554MOL0     C76332   1.606   9.187  10.642 -1.6174  1.0278  0.8862
  554MOL0     C76333   1.712   9.124  10.597  0.6628  1.3509 -0.8180
  554MOL0     C76334   1.851   9.167  10.612  0.0722 -0.4087  0.2483
  554MOL0     C76335   1.923   9.056  10.685  0.4415 -0.0391 -0.0125
  554MOL0     C76336   2.067   9.118  10.707 -0.6553  0.6362 -1.1498
  554MOL0     C76337   2.166   8.998  10.723  1.1292 -0.4812  0.1973
  554MOL0     O76338   2.287   9.053  10.769  0.0976  0.4758 -0.2347
  554MOL0     C76339   2.406   8.989  10.765  1.2051  1.1796  0.1756
  554MOL0     C76340   2.425   8.865  10.701  0.6006  0.7285  0.4887
  554MOL0     C76341   2.545   8.789  10.706 -0.1706 -0.6395  0.0794
  554MOL0     C76342   2.560   8.652  10.640  0.2871  0.3196  0.0416
  554MOL0     C76343   2.651   8.854  10.773 -0.3819 -0.2746 -0.3114
  554MOL0     C76344   2.778   8.782  10.807 -0.3905  0.4477 -0.0013
  554MOL0     O76345   2.775   8.643  10.827 -0.6579  0.7533  0.1010
  554MOL0     C76346   2.901   8.585  10.818 -0.1629 -0.3325  0.5312
  554MOL0     C76347   2.953   8.515  10.930  0.7985  0.0291 -0.1389
  554MOL0     C76348   3.076   8.459  10.924 -0.5482  0.1613  0.6447
  554MOL0     C76349   3.149   8.447  10.808  1.0134 -0.1097 -0.1094
  554MOL0     O76350   3.257   8.365  10.819 -1.0574 -0.6136 -0.2814
  554MOL0     C76351   3.326   8.326  10.704 -0.5405 -1.2490  0.6046
  554MOL0     C76352   3.465   8.272  10.753  0.2097 -0.1196  0.2631
  554MOL0     C76353   3.560   8.389  10.789  0.3997  0.5782  0.6958
  554MOL0     C76354   3.697   8.344  10.848  0.2230 -0.7341 -0.4381
  554MOL0     C76355   3.810   8.460  10.845  1.6686 -0.9304  0.7148
  554MOL0     C76356   3.852   8.483  10.697  0.3043 -0.4064 -0.2401
  554MOL0     C76357   3.971   8.576  10.697 -0.0583  0.0596 -1.0865
  554MOL0     C76358   4.017   8.611  10.559 -0.6467  0.3498  0.0849
  554MOL0    Cl76359   4.117   8.760  10.577 -0.0138 -0.2523 -0.1099
  554MOL0     C76360   3.091   8.490  10.686  0.3150 -0.2688 -0.3275
  554MOL0     C76361   2.974   8.571  10.693 -0.2550  0.3719 -0.1617
  554MOL0     O76362   2.880   8.855  10.807 -0.6748 -0.1999 -1.0583
  554MOL0     C76363   2.642   8.989  10.807 -0.1373  0.4459  0.1403
  554MOL0     C76364   2.522   9.056  10.797  1.0713  0.0166 -0.5874
  554MOL0     N76365   1.678   9.012  10.517  1.2217  0.5462 -0.0053
  554MOL0     N76366   1.553   9.027  10.494  0.5792 -0.1498 -0.8865
  554MOL0     C76367   1.166   9.623   9.606 -0.1658  0.0770  0.5902
  554MOL0     C76368   1.100   9.677   9.495  0.2186  0.6286  0.9245
  554MOL0     C76369   0.895  10.010   9.239  0.2444  0.6308 -0.3367
  554MOL0     C76370   0.766   9.953   9.229  0.1419  0.4943  0.3356
  554MOL0     C76371   0.662  10.013   9.154  0.0673  0.0742  0.5700
  554MOL0     C76372   0.688  10.143   9.099  1.0948  0.2793  0.4140
  554MOL0     O76373   0.596  10.223   9.028  0.2553  0.4700 -0.0971
  554MOL0     C76374   0.462  10.189   9.040 -0.4516 -0.8334  0.6354
  554MOL0     C76375   0.390  10.315   8.989  0.5647  0.0888  0.4930
  554MOL0     C76376   0.422  10.340   8.837  0.7952 -0.6324 -0.3959
  554MOL0     C76377   0.308  10.400   8.744 -0.6098  0.6047 -0.1301
  554MOL0     C76378   0.222  10.287   8.719  0.1136 -0.6757  0.5008
  554MOL0     C76379   0.153  10.188   8.705 -0.9626 -0.0376 -0.3482
  554MOL0     C76380   0.815  10.190   9.097  0.7246 -0.6111 -1.1405
  554MOL0     C76381   0.922  10.122   9.155  0.0993 -0.0140  0.2109
  554MOL0     C76382   1.054  10.189   9.128 -0.5933 -1.2095 -0.7813
  554MOL0     H76383   0.977   9.967   9.609 -0.3610 -0.4908 -0.2063
  554MOL0     H76384   1.114   9.891   9.811 -2.9878  1.5354 -1.2603
  554MOL0     H76385   1.054   9.624   9.952  0.9357 -2.8928 -0.4262
  554MOL0     H76386   1.148   9.781   9.970 -0.1556  0.0804 -0.6367
  554MOL0     H76387   1.345   9.608  10.040 -0.0012 -0.0192  1.6753
  554MOL0     H76388   1.256   9.698  10.140  2.2269  0.6670 -1.4571
  554MOL0     H76389   1.065   9.509  10.123 -0.6292 -1.2886  0.3034
  554MOL0     H76390   1.178   9.421  10.025 -1.6094 -0.5220  1.3951
  554MOL0     H76391   1.328   9.384  10.225 -1.2574 -1.3903  2.9964
  554MOL0     H76392   1.252   9.513  10.313 -1.0407  2.5400 -1.3562
  554MOL0     H76393   1.139   9.238  10.234  0.9373  1.1752 -0.6195
  554MOL0     H76394   1.042   9.371  10.314  0.2242  1.0439  0.5148
  554MOL0     H76395   1.127   9.326  10.518 -1.4348 -1.5046 -0.2280
  554MOL0     H76396   1.124   9.173  10.456 -1.6010  0.4008 -2.5720
  554MOL0     H76397   1.374   9.354  10.467  2.5774 -1.1089 -2.4355
  554MOL0     H76398   1.377   9.209  10.371  0.2871  1.8326 -1.4684
  554MOL0     H76399   1.364   9.235  10.666  2.7370  2.4908 -2.0400
  554MOL0     H76400   1.297   9.081  10.583 -0.8237  0.2552  2.7222
  554MOL0     H76401   1.598   9.277  10.702 -0.0849 -0.6828  3.9309
  554MOL0     H76402   1.850   9.254  10.678  0.6333 -1.2475  1.4022
  554MOL0     H76403   1.896   9.190  10.514  2.7522 -3.2574  0.6262
  554MOL0     H76404   1.874   9.035  10.780  3.1396 -3.4672  0.8490
  554MOL0     H76405   1.934   8.962  10.628 -0.6365  0.5592 -1.2552
  554MOL0     H76406   2.102   9.174  10.619  0.5382  0.6001 -0.7173
  554MOL0     H76407   2.081   9.180  10.796 -0.7013  2.3631 -2.2903
  554MOL0     H76408   2.133   8.928  10.800  2.1791  0.6094  1.7058
  554MOL0     H76409   2.183   8.947  10.628  2.0350 -1.3398  0.8031
  554MOL0     H76410   2.345   8.817  10.646  2.0630  0.9089 -1.8978
  554MOL0     H76411   2.658   8.627  10.597 -0.8690 -3.8309 -0.6035
  554MOL0     H76412   2.494   8.646  10.553  2.2405  0.6630 -1.5364
  554MOL0     H76413   2.537   8.569  10.707 -0.0831 -2.1079 -2.8744
  554MOL0     H76414   2.897   8.515  11.023 -3.7647  0.0438 -2.6441
  554MOL0     H76415   3.112   8.416  11.017 -0.4556  0.7866  0.8996
  554MOL0     H76416   3.275   8.242  10.656  1.6388 -3.4145  1.7971
  554MOL0     H76417   3.343   8.407  10.632 -2.6977 -2.4689 -1.4340
  554MOL0     H76418   3.440   8.204  10.835 -1.3076  0.6851  0.5140
  554MOL0     H76419   3.498   8.204  10.674 -0.8542  0.5786 -0.8176
  554MOL0     H76420   3.503   8.447  10.862 -0.6253 -1.1580  1.3306
  554MOL0     H76421   3.568   8.445  10.695 -2.1752  1.5361  0.9644
  554MOL0     H76422   3.737   8.255  10.797  3.4208 -0.2164  0.8818
  554MOL0     H76423   3.682   8.304  10.948  1.3182 -0.9786 -0.3571
  554MOL0     H76424   3.778   8.551  10.896  0.7307 -1.5489  1.2578
  554MOL0     H76425   3.897   8.422  10.899  3.6983  0.4867 -1.3876
  554MOL0     H76426   3.762   8.518  10.646 -0.4132  0.8293  1.7910
  554MOL0     H76427   3.886   8.390  10.650 -1.3249  0.0397 -2.4406
  554MOL0     H76428   4.062   8.535  10.742 -0.2582 -1.3061 -1.8579
  554MOL0     H76429   3.945   8.669  10.747  1.0788 -0.8372  1.2983
  554MOL0     H76430   3.935   8.630  10.490 -1.1220 -0.5963  0.3771
  554MOL0     H76431   4.069   8.521  10.524 -0.6660 -1.5100  4.2922
  554MOL0     H76432   3.142   8.475  10.591 -2.6266  0.1579 -2.1347
  554MOL0     H76433   2.926   8.624  10.612 -1.2509  0.1929  0.2970
  554MOL0     H76434   2.727   9.041  10.850 -0.9575  2.3867 -0.4608
  554MOL0     H76435   2.512   9.158  10.832  3.2132  0.8319 -2.1095
  554MOL0     H76436   1.222   9.531   9.601  0.8748  0.7402 -0.8369
  554MOL0     H76437   1.105   9.630   9.398  0.5363 -2.3487  2.2817
  554MOL0     H76438   0.742   9.866   9.290 -0.1633  0.7572  0.5949
  554MOL0     H76439   0.564   9.967   9.156  0.7414 -1.7160 -1.8553
  554MOL0     H76440   0.444  10.106   8.971  3.0592 -0.4162 -0.9614
  554MOL0     H76441   0.427  10.170   9.142 -0.0634 -2.1814  0.5428
  554MOL0     H76442   0.417  10.401   9.052 -0.5763  0.4380  0.5127
  554MOL0     H76443   0.282  10.304   9.001  0.7186  0.3464  2.4317
  554MOL0     H76444   0.488  10.427   8.838  1.7088 -1.2644  1.4926
  554MOL0     H76445   0.464  10.249   8.794 -2.5918 -4.5842  3.5825
  554MOL0     H76446   0.346  10.450   8.654  0.9988 -0.6585 -0.1989
  554MOL0     H76447   0.253  10.469   8.808  2.6265  1.6984  1.7060
  554MOL0     H76448   0.088  10.103   8.698  0.2150 -1.4549  3.4263
  554MOL0     H76449   0.827  10.280   9.037  1.6658 -0.5312 -0.8434
  554MOL0     H76450   1.045  10.269   9.054  2.0154  1.1438  1.2010
  554MOL0     H76451   1.090  10.235   9.221 -1.0787 -1.5476 -0.4285
  554MOL0     H76452   1.130  10.114   9.102 -0.8547 -1.9852  0.6018
  555MOL0     O76453   0.982   6.322   8.175  0.1848 -0.2711  0.6920
  555MOL0     C76454   1.066   6.396   8.146  0.2133 -0.4326 -0.2210
  555MOL0     O76455   1.117   6.406   8.028 -0.2037  0.2490  0.8177
  555MOL0     C76456   1.112   6.295   7.944  0.0268 -0.0941 -0.3613
  555MOL0     C76457   0.993   6.252   7.885  1.0771  1.4970 -0.3238
  555MOL0     C76458   0.999   6.134   7.812 -1.3191 -0.2842  0.5462
  555MOL0     C76459   1.117   6.057   7.788  0.1924  0.2971  0.9476
  555MOL0     O76460   1.113   5.958   7.703  0.2426 -0.1070  0.2091
  555MOL0     C76461   1.225   5.921   7.611 -0.2912 -0.2142 -0.0078
  555MOL0     C76462   1.170   5.803   7.527 -0.4481  0.7426  1.2861
  555MOL0     C76463   1.091   5.833   7.408 -0.5374  0.5022  0.4891
  555MOL0     C76464   0.968   5.919   7.421  0.4746 -0.7514 -0.3220
  555MOL0     C76465   0.968   6.015   7.296  0.1275  0.0337  0.0885
  555MOL0     C76466   0.842   6.115   7.301 -0.2171 -0.4232 -0.6968
  555MOL0     C76467   0.815   6.200   7.180 -0.4514  0.8023 -0.4038
  555MOL0     C76468   0.749   6.136   7.059 -0.0973 -0.2119 -0.6335
  555MOL0     N76469   0.794   6.186   6.929 -0.7269  0.4351  0.2858
  555MOL0     C76470   0.923   6.162   6.880  0.3757 -0.1940 -0.0160
  555MOL0     C76471   0.931   6.243   6.771  0.3014  0.7385 -0.0640
  555MOL0     C76472   1.053   6.244   6.677 -0.1649  0.2720  0.3420
  555MOL0     C76473   1.000   6.245   6.527 -0.3269 -0.2613  0.0849
  555MOL0     C76474   1.119   6.214   6.421  0.0372 -0.2924  0.2055
  555MOL0     C76475   1.208   6.088   6.438  0.9197 -0.0066 -0.2563
  555MOL0     O76476   1.313   6.119   6.525  0.3528  0.2564  0.6197
  555MOL0     C76477   1.422   6.040   6.522  0.2382 -0.7237  1.1797
  555MOL0     C76478   1.405   5.906   6.479  0.7509  0.0999  0.7858
  555MOL0     C76479   1.508   5.820   6.476 -0.6520  0.8179  0.3001
  555MOL0     C76480   1.487   5.672   6.450  0.2524 -0.5725  0.1733
  555MOL0     C76481   1.638   5.857   6.512  0.0851  0.7732 -0.4810
  555MOL0     C76482   1.760   5.765   6.496  0.3193 -0.9300 -0.1437
  555MOL0     O76483   1.749   5.634   6.511 -0.0223  0.3849 -0.1994
  555MOL0     C76484   1.866   5.561   6.519 -0.2110  0.1802 -0.1795
  555MOL0     C76485   1.968   5.587   6.606 -0.8786 -0.2995  0.9387
  555MOL0     C76486   2.094   5.519   6.581 -0.3057  0.5903  0.3828
  555MOL0     C76487   2.115   5.416   6.482 -0.6512  0.3691  0.7767
  555MOL0     O76488   2.230   5.347   6.456  0.0755  0.4135 -0.0725
  555MOL0     C76489   2.352   5.350   6.543 -0.2774  0.4471  0.1264
  555MOL0     C76490   2.473   5.420   6.474  0.1718 -0.0127  0.1422
  555MOL0     C76491   2.608   5.398   6.545  0.5096 -0.0092  0.4608
  555MOL0     C76492   2.705   5.310   6.462 -0.7217  0.0413 -0.4825
  555MOL0     C76493   2.839   5.317   6.536 -0.3615  0.1063  0.6401
  555MOL0     C76494   2.949   5.242   6.461 -0.7646  0.3487  0.4942
  555MOL0     C76495   3.086   5.235   6.541  0.3183 -0.1801  0.0105
  555MOL0     C76496   3.206   5.152   6.484 -0.4947  0.0182  0.8403
  555MOL0    Cl76497   3.156   4.979   6.477  0.1695  0.0188 -0.1219
  555MOL0     C76498   1.998   5.374   6.418  0.2922 -0.0053 -0.0452
  555MOL0     C76499   1.881   5.448   6.433 -0.1364 -0.2304  0.4403
  555MOL0     O76500   1.867   5.831   6.501  0.3630  0.1456  1.2366
  555MOL0     C76501   1.655   5.996   6.546  0.4319 -0.3642  0.0656
  555MOL0     C76502   1.546   6.083   6.562  0.2149  0.1259  0.3866
  555MOL0     N76503   0.805   6.301   6.758 -0.0635 -0.2430  0.1583
  555MOL0     N76504   0.728   6.269   6.854 -0.6000 -0.0722  0.4216
  555MOL0     C76505   1.236   6.106   7.844 -0.3422  0.8421 -0.1000
  555MOL0     C76506   1.229   6.219   7.923  0.7938 -0.0347 -0.8920
  555MOL0     C76507   1.088   6.511   8.239 -0.3835  0.6552  0.5948
  555MOL0     C76508   0.976   6.561   8.304  0.9912  0.3744  0.7545
  555MOL0     C76509   0.993   6.650   8.405  0.7357 -0.1150  0.6632
  555MOL0     C76510   1.123   6.698   8.438  0.0198 -0.0931 -0.3647
  555MOL0     O76511   1.161   6.791   8.537  0.3684  0.4801  0.9299
  555MOL0     C76512   1.065   6.859   8.613  0.5625  0.0619  0.6456
  555MOL0     C76513   0.982   6.957   8.526  0.2176  0.6626 -0.4724
  555MOL0     C76514   0.872   7.019   8.612  0.9023 -0.4798  0.5376
  555MOL0     C76515   0.799   7.115   8.527  0.2224 -0.0719 -0.5609
  555MOL0     C76516   0.887   7.236   8.506  0.1682  0.3424  1.4727
  555MOL0     C76517   0.970   7.322   8.480 -0.2457 -0.2664  0.3684
  555MOL0     C76518   1.231   6.647   8.372  0.1516 -0.1842  0.0830
  555MOL0     C76519   1.216   6.559   8.271 -0.1635 -0.0399  0.5161
  555MOL0     C76520   1.335   6.495   8.210 -0.8581 -0.3901 -0.8474
  555MOL0     H76521   0.899   6.306   7.889 -1.1768 -2.1849  2.6686
  555MOL0     H76522   0.911   6.098   7.761 -0.0492 -0.4133 -1.6764
  555MOL0     H76523   1.312   5.894   7.671  1.0671  1.3046 -1.1980
  555MOL0     H76524   1.265   6.001   7.549  2.6962  0.1888  2.2211
  555MOL0     H76525   1.259   5.751   7.492  0.0768  3.0872 -1.1211
  555MOL0     H76526   1.109   5.735   7.588 -0.0915 -0.7482  0.0383
  555MOL0     H76527   1.159   5.866   7.329  0.3843 -1.9604  0.1555
  555MOL0     H76528   1.049   5.735   7.381  0.7580 -0.2594  1.1595
  555MOL0     H76529   0.881   5.853   7.405 -0.8437  1.0044 -0.7410
  555MOL0     H76530   0.959   5.960   7.522  0.1748  1.8948 -1.3474
  555MOL0     H76531   0.969   5.960   7.202 -0.1154  2.8300 -1.6843
  555MOL0     H76532   1.066   6.063   7.285  1.3440 -2.6288 -1.6732
  555MOL0     H76533   0.749   6.067   7.333  0.9044 -1.1429  1.7272
  555MOL0     H76534   0.873   6.188   7.377 -0.6604 -1.4772  0.5255
  555MOL0     H76535   0.908   6.245   7.145  1.1578 -1.2216  1.0240
  555MOL0     H76536   0.753   6.283   7.215 -0.8361  0.6063 -0.6149
  555MOL0     H76537   0.764   6.029   7.071 -0.9590 -0.2732  0.0036
  555MOL0     H76538   0.641   6.151   7.064 -0.1846 -1.2355  1.1612
  555MOL0     H76539   1.002   6.097   6.915 -0.7964 -1.3290  0.6060
  555MOL0     H76540   1.124   6.167   6.707  0.3297  0.4602 -0.3241
  555MOL0     H76541   1.095   6.345   6.686 -1.5167  0.8927 -0.1386
  555MOL0     H76542   0.929   6.163   6.516 -0.8457  0.1144  0.5344
  555MOL0     H76543   0.934   6.332   6.519 -2.2031 -1.0833  4.1389
  555MOL0     H76544   1.063   6.200   6.328 -1.4455  3.0905  0.4408
  555MOL0     H76545   1.182   6.304   6.421 -0.1774 -0.1361  0.8364
  555MOL0     H76546   1.156   6.010   6.495  1.8888  0.5309  1.3944
  555MOL0     H76547   1.240   6.051   6.339 -0.2284 -1.7643 -0.0279
  555MOL0     H76548   1.312   5.858   6.451  1.0519 -0.7071  1.1414
  555MOL0     H76549   1.501   5.618   6.544  0.3798 -0.5170  0.1863
  555MOL0     H76550   1.548   5.627   6.370  0.3939 -1.4144  0.7430
  555MOL0     H76551   1.387   5.650   6.412 -0.2456 -2.2880  2.2712
  555MOL0     H76552   1.956   5.674   6.669 -0.6430  1.6649 -1.5721
  555MOL0     H76553   2.177   5.560   6.638 -1.2595  2.2922  0.6075
  555MOL0     H76554   2.336   5.395   6.641  1.7296  0.8951  0.2933
  555MOL0     H76555   2.383   5.246   6.551  0.5183  0.7183  0.6410
  555MOL0     H76556   2.485   5.394   6.368 -1.0552 -1.1195  0.2393
  555MOL0     H76557   2.463   5.529   6.472  2.2218  0.2069 -0.0744
  555MOL0     H76558   2.599   5.341   6.638  1.3130  0.9262  1.1373
  555MOL0     H76559   2.659   5.493   6.568  0.1179  0.3334 -0.0810
  555MOL0     H76560   2.720   5.332   6.356 -0.7417 -1.2632 -0.7699
  555MOL0     H76561   2.667   5.207   6.459 -2.8868  0.8011 -1.4604
  555MOL0     H76562   2.879   5.419   6.545  0.9253 -0.3662  0.5017
  555MOL0     H76563   2.828   5.260   6.629  1.7383 -2.2382 -0.4185
  555MOL0     H76564   2.971   5.282   6.362 -0.5205  1.2384  0.8958
  555MOL0     H76565   2.915   5.139   6.447 -0.0569  0.0970  0.5871
  555MOL0     H76566   3.076   5.184   6.637  0.9338 -0.7954 -0.2360
  555MOL0     H76567   3.115   5.340   6.553 -1.9462  0.7514 -1.9056
  555MOL0     H76568   3.294   5.158   6.549 -1.6984  2.7464  2.3385
  555MOL0     H76569   3.233   5.194   6.387  3.5067 -1.3834  1.1449
  555MOL0     H76570   2.012   5.291   6.350 -0.2772 -0.7118  0.6689
  555MOL0     H76571   1.791   5.419   6.380 -0.5884 -1.4963  1.8073
  555MOL0     H76572   1.750   6.037   6.581 -0.9674  0.9207  2.7018
  555MOL0     H76573   1.568   6.182   6.601 -3.1207  0.0934  2.7450
  555MOL0     H76574   1.333   6.059   7.834 -0.3332  0.2767  2.0350
  555MOL0     H76575   1.324   6.253   7.961  0.9985 -0.6593 -0.8228
  555MOL0     H76576   0.876   6.528   8.282  0.8652  0.6481  0.9076
  555MOL0     H76577   0.907   6.686   8.461 -0.6051  1.2410 -2.0591
  555MOL0     H76578   1.001   6.784   8.659  1.0143 -1.5934 -1.2557
  555MOL0     H76579   1.124   6.911   8.688  1.0794 -0.0848  0.3499
  555MOL0     H76580   0.938   6.901   8.443 -1.7602  0.7393  0.4656
  555MOL0     H76581   1.041   7.032   8.472  0.5923  0.7441  0.0315
  555MOL0     H76582   0.801   6.945   8.651  0.6700 -0.5789 -0.0690
  555MOL0     H76583   0.928   7.075   8.688  0.7841 -0.3331  0.5177
  555MOL0     H76584   0.706   7.142   8.579 -0.3682 -1.0932 -1.0542
  555MOL0     H76585   0.769   7.069   8.433 -1.3204 -3.7729  1.5197
  555MOL0     H76586   1.047   7.395   8.475  1.7392 -2.2989 -0.4923
  555MOL0     H76587   1.324   6.690   8.411 -0.1458 -0.6801  1.4013
  555MOL0     H76588   1.416   6.523   8.278 -1.6717  2.3550 -0.9212
  555MOL0     H76589   1.331   6.385   8.214  0.5611 -0.5954 -3.1669
  555MOL0     H76590   1.352   6.524   8.106  0.5020 -0.3254 -0.6256
  556MOL0     O76591   8.325  10.863   6.613  0.0946 -0.6719 -0.0459
  556MOL0     C76592   8.223  10.900   6.671 -0.5004  0.2863  0.4761
  556MOL0     O76593   8.215  11.027   6.742  0.1344 -0.0289  0.2491
  556MOL0     C76594   8.330  11.096   6.738  0.2576 -0.3497 -0.5412
  556MOL0     C76595   8.315  11.230   6.702 -0.0839 -0.0936  0.5185
  556MOL0     C76596   8.426  11.318   6.718  0.8019  0.3645 -0.6677
  556MOL0     C76597   8.545  11.271   6.780 -0.8160 -0.4298  0.1506
  556MOL0     O76598   8.661  11.350   6.814  0.6967  0.1724 -0.0957
  556MOL0     C76599   8.638  11.488   6.840 -1.0296 -0.2990  0.4345
  556MOL0     C76600   8.753  11.540   6.919  0.4152 -0.7492 -0.4750
  556MOL0     C76601   8.747  11.696   6.927 -0.4676 -0.2440  0.2927
  556MOL0     C76602   8.866  11.744   6.997 -0.8432  0.2903  0.1976
  556MOL0     C76603   8.904  11.890   7.000  0.2434 -1.2935  0.4291
  556MOL0     C76604   9.035  11.904   7.079 -0.4586  0.2835 -0.3114
  556MOL0     C76605   9.121  12.034   7.054 -0.3859 -0.0731 -0.2385
  556MOL0     C76606   9.101  12.131   7.166 -0.0209  0.7938 -0.3395
  556MOL0     N76607   9.149  12.265   7.135  0.4059 -0.7101  0.8165
  556MOL0     C76608   9.104  12.355   7.043  0.3082  0.3978 -1.6700
  556MOL0     C76609   9.164  12.472   7.057 -0.5724 -0.0377 -0.3553
  556MOL0     C76610   9.159  12.596   6.975  0.0489 -0.0497 -0.1403
  556MOL0     C76611   9.231  12.560   6.839  0.0468 -0.6320  0.4973
  556MOL0     C76612   9.386  12.549   6.860 -0.0221 -0.4719  0.0777
  556MOL0     C76613   9.435  12.411   6.842  0.0727  0.2673  0.0849
  556MOL0     O76614   9.466  12.389   6.703  0.5280  0.0134  0.7346
  556MOL0     C76615   9.559  12.297   6.667  0.3335 -0.8027 -0.0214
  556MOL0     C76616   9.601  12.191   6.752 -0.1360  0.2993  0.3323
  556MOL0     C76617   9.703  12.103   6.716 -0.1437  0.4225  0.3601
  556MOL0     C76618   9.734  11.990   6.811 -0.2277  0.6243  0.5137
  556MOL0     C76619   9.763  12.120   6.580  0.4878  0.3465  0.3578
  556MOL0     C76620   9.850  12.010   6.528  0.5298  0.4771 -0.4908
  556MOL0     O76621   9.922  11.944   6.621  0.4556  0.0643  0.1486
  556MOL0     C76622  10.008  11.857   6.570 -0.5870 -1.0318  0.3421
  556MOL0     C76623  10.119  11.891   6.480  0.5539  0.8362  0.3802
  556MOL0     C76624  10.210  11.792   6.448  0.1048 -0.1076  0.6946
  556MOL0     C76625  10.195  11.663   6.499 -0.6973  0.1503 -0.3331
  556MOL0     O76626  10.298  11.574   6.482  0.2466  0.1355  1.0242
  556MOL0     C76627  10.338  11.539   6.346  0.0179 -0.2455  0.7663
  556MOL0     C76628  10.464  11.453   6.332 -0.3261 -0.1185 -0.9306
  556MOL0     C76629  10.586  11.525   6.405 -0.0398  0.5808  0.0429
  556MOL0     C76630  10.711  11.439   6.373  0.6347  0.1953  0.7239
  556MOL0     C76631  10.831  11.481   6.457 -0.0722  0.2664 -0.2925
  556MOL0     C76632  10.950  11.412   6.386 -0.1386  0.2570 -0.1013
  556MOL0     C76633  11.074  11.425   6.481  0.3184 -0.0350 -0.1696
  556MOL0     C76634  11.187  11.316   6.446 -0.5245  0.2304  0.6935
  556MOL0    Cl76635  11.317  11.361   6.330  0.0354 -0.0657  0.2273
  556MOL0     C76636  10.087  11.636   6.582  0.2614  1.4395  0.1679
  556MOL0     C76637   9.997  11.730   6.618  0.1843 -0.1183 -0.0207
  556MOL0     O76638   9.843  11.972   6.407  0.1343 -0.8731 -0.3214
  556MOL0     C76639   9.717  12.220   6.496  1.0885  0.2093 -0.5527
  556MOL0     C76640   9.611  12.306   6.533 -0.1881 -0.3192 -0.7743
  556MOL0     N76641   9.255  12.453   7.168 -0.1038  0.6427  0.2601
  556MOL0     N76642   9.236  12.331   7.210  0.1732  0.4397 -0.4457
  556MOL0     C76643   8.550  11.142   6.821  0.2223  0.2752  1.5120
  556MOL0     C76644   8.438  11.052   6.809  0.2003  0.4769  0.4584
  556MOL0     C76645   8.092  10.823   6.654  0.5787  0.4524 -0.0363
  556MOL0     C76646   7.978  10.864   6.721 -0.1027 -0.3379  0.0788
  556MOL0     C76647   7.857  10.792   6.716 -0.5610  0.0696 -0.2630
  556MOL0     C76648   7.843  10.680   6.638 -0.3155  0.6669 -0.4162
  556MOL0     O76649   7.729  10.600   6.629 -0.7531  0.4974 -0.4033
  556MOL0     C76650   7.655  10.556   6.745  0.2614  0.4420  0.2679
  556MOL0     C76651   7.522  10.647   6.762 -0.8935  0.5894 -0.8309
  556MOL0     C76652   7.425  10.571   6.860 -0.1312 -0.8719 -0.0426
  556MOL0     C76653   7.319  10.660   6.916 -0.0427  0.1368  0.3122
  556MOL0     C76654   7.258  10.730   6.811 -0.1651 -0.2883 -0.1001
  556MOL0     C76655   7.216  10.765   6.700 -0.6428  0.2733 -0.0450
  556MOL0     C76656   7.952  10.640   6.567  0.2657  0.5934 -0.4117
  556MOL0     C76657   8.067  10.710   6.572 -0.2836  0.1491 -0.0040
  556MOL0     C76658   8.175  10.655   6.475 -0.4237  0.1272 -0.4407
  556MOL0     H76659   8.219  11.270   6.669 -0.4480 -0.3998  1.1918
  556MOL0     H76660   8.425  11.424   6.694 -0.9723  0.7970  1.0557
  556MOL0     H76661   8.546  11.507   6.896  0.0050  3.0725  1.2069
  556MOL0     H76662   8.640  11.554   6.753  0.8797 -1.4878 -0.4914
  556MOL0     H76663   8.748  11.495   7.019  0.0131 -0.2428 -0.2680
  556MOL0     H76664   8.848  11.512   6.872  1.5345 -1.1561  1.8910
  556MOL0     H76665   8.759  11.750   6.833  0.3977  1.0179  1.1107
  556MOL0     H76666   8.650  11.726   6.968 -0.1597 -0.6286  1.3462
  556MOL0     H76667   8.861  11.711   7.101  0.5093  1.5020  0.6810
  556MOL0     H76668   8.943  11.688   6.943  0.5578  2.1433  0.1743
  556MOL0     H76669   8.819  11.940   7.048  3.4412  0.8383  4.5576
  556MOL0     H76670   8.921  11.932   6.901 -1.1326  1.3267  1.2226
  556MOL0     H76671   9.023  11.891   7.187 -1.1427 -0.4947 -0.4799
  556MOL0     H76672   9.103  11.823   7.054  0.1314  0.3547  1.0014
  556MOL0     H76673   9.085  12.087   6.965 -3.5077 -0.7233  0.4924
  556MOL0     H76674   9.228  12.014   7.043  0.0559  2.5364 -1.5156
  556MOL0     H76675   8.994  12.139   7.182 -0.1591  0.1639 -0.9274
  556MOL0     H76676   9.148  12.102   7.260 -0.3137  3.1871  0.6262
  556MOL0     H76677   9.027  12.334   6.969  0.8405 -4.7986 -1.1230
  556MOL0     H76678   9.181  12.686   7.034  0.8222  0.1096 -0.6455
  556MOL0     H76679   9.051  12.602   6.962 -0.1161 -1.6851  0.2961
  556MOL0     H76680   9.184  12.463   6.818 -0.1451 -0.3819 -0.2730
  556MOL0     H76681   9.200  12.626   6.757  3.7072  1.9672  0.9994
  556MOL0     H76682   9.435  12.619   6.792  0.0512 -0.2027  0.4047
  556MOL0     H76683   9.417  12.573   6.963 -0.4519  1.2561 -0.1626
  556MOL0     H76684   9.529  12.399   6.898  2.4581  2.0111 -3.2050
  556MOL0     H76685   9.375  12.324   6.873  1.9169 -0.6357  1.3476
  556MOL0     H76686   9.564  12.178   6.853 -0.0363 -1.1604  0.2071
  556MOL0     H76687   9.675  11.999   6.902 -1.3404  0.9042 -0.2111
  556MOL0     H76688   9.836  11.988   6.849 -0.4744 -2.4891  1.2447
  556MOL0     H76689   9.719  11.887   6.777 -1.2536  0.5282  1.2191
  556MOL0     H76690  10.116  11.994   6.445 -2.3912  0.6741 -0.1464
  556MOL0     H76691  10.292  11.810   6.381 -0.8515 -1.2431 -0.8523
  556MOL0     H76692  10.258  11.474   6.310 -0.1729 -2.0966  4.1310
  556MOL0     H76693  10.339  11.627   6.281  0.1789 -0.7197  0.1184
  556MOL0     H76694  10.451  11.362   6.392  1.0722  0.7576  0.8066
  556MOL0     H76695  10.476  11.444   6.224 -0.1520  0.0992 -0.9304
  556MOL0     H76696  10.573  11.525   6.514  0.2696 -0.3363  0.0919
  556MOL0     H76697  10.602  11.628   6.373 -2.3197  1.2700  0.9102
  556MOL0     H76698  10.750  11.455   6.272 -1.3499  1.7734  0.1507
  556MOL0     H76699  10.687  11.333   6.391  2.4891 -0.2918  0.5745
  556MOL0     H76700  10.852  11.587   6.443 -0.9481  0.4716 -0.0804
  556MOL0     H76701  10.824  11.463   6.565  3.7567  4.4336  0.9545
  556MOL0     H76702  10.979  11.453   6.289  1.6887  1.0611  0.7379
  556MOL0     H76703  10.924  11.307   6.370 -3.2140  1.0837 -1.2397
  556MOL0     H76704  11.050  11.403   6.586 -0.4325 -1.3535 -0.5982
  556MOL0     H76705  11.101  11.531   6.484 -1.0628  0.4241  4.5569
  556MOL0     H76706  11.149  11.221   6.409  0.5617  0.5415 -1.3880
  556MOL0     H76707  11.238  11.295   6.541  2.5793  0.7605 -0.7102
  556MOL0     H76708  10.077  11.533   6.615 -0.5424  1.1595 -0.9003
  556MOL0     H76709   9.921  11.697   6.687 -2.1205 -1.6261 -3.0329
  556MOL0     H76710   9.762  12.216   6.397  1.4115 -0.8720 -0.3779
  556MOL0     H76711   9.568  12.382   6.469 -0.9294 -1.3529 -1.5430
  556MOL0     H76712   8.640  11.087   6.849  0.6706 -0.1335 -0.6146
  556MOL0     H76713   8.444  10.946   6.833  0.3718 -0.9427 -4.6610
  556MOL0     H76714   7.990  10.937   6.800 -0.5197 -0.7499  0.5219
  556MOL0     H76715   7.775  10.838   6.770 -1.8887  2.1346 -3.6557
  556MOL0     H76716   7.620  10.457   6.714  1.5449  0.8120 -2.6659
  556MOL0     H76717   7.719  10.547   6.833 -0.3685 -1.8780  0.5454
  556MOL0     H76718   7.479  10.662   6.663  1.7764 -0.5619 -2.2654
  556MOL0     H76719   7.538  10.751   6.794  0.1150  0.1587  0.1488
  556MOL0     H76720   7.389  10.484   6.805  0.8163 -1.6688  0.5594
  556MOL0     H76721   7.480  10.539   6.949 -0.0213 -0.4035  0.0600
  556MOL0     H76722   7.356  10.732   6.990 -0.3072  1.7641 -1.0735
  556MOL0     H76723   7.240  10.596   6.954  0.2724 -1.7933 -2.0790
  556MOL0     H76724   7.188  10.798   6.601  0.2981  0.6307 -0.2072
  556MOL0     H76725   7.933  10.547   6.516  0.3349  1.7120 -2.6034
  556MOL0     H76726   8.216  10.734   6.412 -0.0140  1.3560  1.2994
  556MOL0     H76727   8.258  10.607   6.529  0.0825  0.6289 -0.7656
  556MOL0     H76728   8.134  10.578   6.409 -1.9587 -0.8157  1.5343
  557MOL0     O76729  10.504   9.838   7.672 -0.3579 -0.1079 -0.0419
  557MOL0     C76730  10.439   9.786   7.580  0.5687  0.0525 -0.8781
  557MOL0     O76731  10.374   9.674   7.588 -0.4568 -0.7620  0.0367
  557MOL0     C76732  10.353   9.626   7.716 -0.4935 -1.0028 -0.8101
  557MOL0     C76733  10.237   9.659   7.790 -0.1488  0.1758 -0.7136
  557MOL0     C76734  10.210   9.609   7.919  0.4419  0.1474  0.5822
  557MOL0     C76735  10.297   9.518   7.979  0.6282  0.1211  0.3882
  557MOL0     O76736  10.279   9.462   8.106  0.1253 -0.6802  0.2423
  557MOL0     C76737  10.162   9.510   8.176  1.0766  0.7904  0.3363
  557MOL0     C76738  10.162   9.436   8.308 -0.3150 -0.5685 -0.1117
  557MOL0     C76739  10.278   9.472   8.391 -0.5333 -0.2991 -0.2835
  557MOL0     C76740  10.261   9.431   8.537 -0.6762 -1.0336 -0.2771
  557MOL0     C76741  10.381   9.471   8.629 -0.3992  0.2356  0.3395
  557MOL0     C76742  10.529   9.403   8.599 -0.4365  0.3162  0.1439
  557MOL0     C76743  10.538   9.258   8.639  0.0728 -0.2416  0.6136
  557MOL0     C76744  10.678   9.218   8.674 -0.0136  0.7069 -0.8334
  557MOL0     N76745  10.706   9.261   8.811 -0.4997  0.6967 -1.0908
  557MOL0     C76746  10.672   9.179   8.919  0.9387 -0.0693  0.2094
  557MOL0     C76747  10.772   9.205   9.004 -0.7344 -0.1814 -0.4045
  557MOL0     C76748  10.792   9.132   9.133 -0.2177  0.2244 -0.5791
  557MOL0     C76749  10.926   9.068   9.152 -0.3040 -0.1607 -0.1548
  557MOL0     C76750  10.941   8.972   9.279  0.0545 -0.6838 -0.2888
  557MOL0     C76751  11.025   8.845   9.250 -0.5997 -0.3746 -0.0212
  557MOL0     O76752  11.079   8.777   9.368 -0.1814  0.3838 -0.2117
  557MOL0     C76753  11.214   8.791   9.379 -0.4463 -0.7434 -1.2903
  557MOL0     C76754  11.277   8.913   9.421 -0.1045  0.4103  0.6693
  557MOL0     C76755  11.416   8.920   9.416 -0.0710 -0.8530  0.3966
  557MOL0     C76756  11.476   9.052   9.465  0.7648 -0.3230 -0.7145
  557MOL0     C76757  11.494   8.811   9.378  0.7895  0.0980 -0.0120
  557MOL0     C76758  11.644   8.811   9.374 -1.2932 -0.8206 -0.4041
  557MOL0     O76759  11.697   8.731   9.283 -0.0294 -0.3869 -0.6291
  557MOL0     C76760  11.828   8.738   9.274 -0.2951  0.0276  0.9571
  557MOL0     C76761  11.885   8.814   9.172 -0.0588 -0.5530 -0.3524
  557MOL0     C76762  12.026   8.811   9.154  0.4315 -0.0610 -0.0816
  557MOL0     C76763  12.104   8.723   9.230 -0.2544  0.3391  0.1638
  557MOL0     O76764  12.236   8.702   9.195  0.5012 -0.8842  0.0556
  557MOL0     C76765  12.258   8.567   9.155 -0.7533 -0.2416  0.1334
  557MOL0     C76766  12.381   8.540   9.078 -0.3634  0.7737 -0.4961
  557MOL0     C76767  12.376   8.624   8.947  0.5554 -0.3997  0.5214
  557MOL0     C76768  12.503   8.590   8.859  0.2278 -0.4727  0.1589
  557MOL0     C76769  12.500   8.452   8.805 -0.1576  0.0942  1.2645
  557MOL0     C76770  12.609   8.410   8.714  0.3834 -0.1103  0.1125
  557MOL0     C76771  12.611   8.264   8.696  0.5794 -0.4343 -0.5804
  557MOL0     C76772  12.548   8.230   8.558 -0.9244 -0.7737  0.0245
  557MOL0    Cl76773  12.363   8.247   8.552 -0.1113 -0.1690  0.0394
  557MOL0     C76774  12.047   8.643   9.327  0.1710 -1.0184  0.5982
  557MOL0     C76775  11.911   8.649   9.348  0.2519 -0.6070 -0.8908
  557MOL0     O76776  11.710   8.881   9.449  0.4995 -0.7115 -0.2442
  557MOL0     C76777  11.426   8.692   9.339 -0.0058 -0.8255  0.7400
  557MOL0     C76778  11.289   8.686   9.345 -0.1606 -0.3578  0.0847
  557MOL0     N76779  10.868   9.289   8.947 -0.2636 -0.0738 -1.1449
  557MOL0     N76780  10.819   9.323   8.835 -0.3785  0.1903  0.3394
  557MOL0     C76781  10.408   9.489   7.905 -0.0414  0.9937 -0.8037
  557MOL0     C76782  10.439   9.539   7.783  0.6393  0.4513 -0.6107
  557MOL0     C76783  10.457   9.833   7.443 -0.1658  0.1419  0.5836
  557MOL0     C76784  10.335   9.868   7.369 -1.5442  0.5346 -0.0153
  557MOL0     C76785  10.341   9.922   7.243  0.2621 -0.5369 -0.2721
  557MOL0     C76786  10.466   9.936   7.182  0.4644 -0.2989  0.0290
  557MOL0     O76787  10.464   9.982   7.051 -0.0188  0.3128  0.0396
  557MOL0     C76788  10.577  10.040   6.985  0.1164 -0.4432 -0.1131
  557MOL0     C76789  10.615  10.182   7.044 -0.6056 -0.6954 -0.6727
  557MOL0     C76790  10.503  10.284   7.053 -0.6341 -0.4703 -0.1209
  557MOL0     C76791  10.528  10.400   7.147  0.5588 -0.5132  0.1902
  557MOL0     C76792  10.417  10.488   7.149  0.4881  0.3427 -0.3142
  557MOL0     C76793  10.341  10.574   7.145 -0.8394 -0.7201 -1.2894
  557MOL0     C76794  10.586   9.910   7.255 -0.5719  0.2720  0.1923
  557MOL0     C76795  10.580   9.844   7.383 -0.8790 -0.3861  0.2154
  557MOL0     C76796  10.705   9.804   7.452 -0.6746 -0.4470  0.5246
  557MOL0     H76797  10.154   9.721   7.757  1.0200  3.0267  1.3077
  557MOL0     H76798  10.108   9.628   7.953 -0.0789  0.5545 -1.1314
  557MOL0     H76799  10.074   9.478   8.119  2.1089 -1.9920  0.1410
  557MOL0     H76800  10.170   9.618   8.193  0.0568  1.3395 -2.2508
  557MOL0     H76801  10.071   9.455   8.366  1.8236  0.7523  3.0897
  557MOL0     H76802  10.158   9.330   8.282  1.7861 -0.6841 -0.1332
  557MOL0     H76803  10.370   9.426   8.355 -1.0156  0.3932 -2.5248
  557MOL0     H76804  10.296   9.579   8.379 -2.2124  0.2232  1.3058
  557MOL0     H76805  10.175   9.482   8.583  0.0894 -1.5054  1.7390
  557MOL0     H76806  10.251   9.326   8.564  0.1107 -1.0685 -0.1051
  557MOL0     H76807  10.340   9.438   8.725 -2.3513  2.2049  0.2650
  557MOL0     H76808  10.388   9.580   8.621 -0.7082  0.1096 -3.4474
  557MOL0     H76809  10.562   9.405   8.495  1.8337 -0.8188  0.7865
  557MOL0     H76810  10.606   9.452   8.659 -1.5351  2.0517  0.2054
  557MOL0     H76811  10.500   9.192   8.560 -0.3453  1.9971 -1.1712
  557MOL0     H76812  10.480   9.247   8.731 -0.9938  0.7954  0.0984
  557MOL0     H76813  10.692   9.110   8.667  0.6908  0.7798 -0.6050
  557MOL0     H76814  10.743   9.251   8.593 -0.4736 -2.9287 -2.9079
  557MOL0     H76815  10.595   9.102   8.917 -0.0477  0.8809 -1.5030
  557MOL0     H76816  10.718   9.052   9.142 -0.2122  0.1858 -0.8670
  557MOL0     H76817  10.776   9.194   9.222 -1.8237  0.0533 -0.7294
  557MOL0     H76818  10.946   9.004   9.066  0.4732  0.6063 -0.5569
  557MOL0     H76819  11.001   9.148   9.156 -0.7813  0.2666  2.3863
  557MOL0     H76820  10.969   9.022   9.372 -1.0949 -1.3401  0.4460
  557MOL0     H76821  10.838   8.936   9.289  0.7085 -6.0455 -6.3183
  557MOL0     H76822  10.966   8.771   9.195 -2.1558  1.2446 -0.6458
  557MOL0     H76823  11.111   8.886   9.195  0.7362  0.2592  2.3869
  557MOL0     H76824  11.210   8.992   9.453 -0.5616  0.5869 -0.6653
  557MOL0     H76825  11.499   9.046   9.571 -2.6986 -0.2216  0.1794
  557MOL0     H76826  11.402   9.133   9.465  1.4421  0.3075 -0.5761
  557MOL0     H76827  11.564   9.088   9.411  0.7316  0.1882 -0.4359
  557MOL0     H76828  11.829   8.889   9.117 -0.2481  0.8089  1.5854
  557MOL0     H76829  12.084   8.856   9.075  1.6369 -1.5976 -0.1324
  557MOL0     H76830  12.282   8.508   9.244  1.4361 -0.5695 -0.6239
  557MOL0     H76831  12.169   8.534   9.101  0.8549 -0.1870 -2.7314
  557MOL0     H76832  12.470   8.559   9.139 -0.8142  1.9939 -0.1843
  557MOL0     H76833  12.381   8.432   9.066  1.7843  0.5920  0.6928
  557MOL0     H76834  12.374   8.727   8.983 -3.3118  0.6563 -2.0975
  557MOL0     H76835  12.281   8.619   8.894  0.9166 -1.5981 -0.0429
  557MOL0     H76836  12.595   8.611   8.914  1.1260 -1.5978 -0.8636
  557MOL0     H76837  12.501   8.665   8.780 -0.0473 -1.2588 -0.6015
  557MOL0     H76838  12.481   8.384   8.888 -2.9137  2.0582  2.3820
  557MOL0     H76839  12.406   8.435   8.752 -0.7520  0.2451  2.2456
  557MOL0     H76840  12.706   8.456   8.736  0.1153 -0.3895  2.0091
  557MOL0     H76841  12.577   8.458   8.621  0.1833  1.5115  0.9846
  557MOL0     H76842  12.550   8.218   8.774  0.9327  1.0435  0.6172
  557MOL0     H76843  12.709   8.220   8.717 -0.0052 -1.1214  0.8737
  557MOL0     H76844  12.559   8.125   8.531  1.3031 -0.3078 -1.1326
  557MOL0     H76845  12.610   8.282   8.483  2.5240 -1.7670  1.9563
  557MOL0     H76846  12.108   8.580   9.391  1.1385 -2.6597 -1.7664
  557MOL0     H76847  11.867   8.586   9.424  0.8473 -0.8702 -0.7545
  557MOL0     H76848  11.481   8.616   9.284 -1.6680 -0.8184 -1.0365
  557MOL0     H76849  11.241   8.592   9.317 -0.3691  0.3844 -2.2318
  557MOL0     H76850  10.476   9.419   7.952 -2.5310  0.1491  1.8308
  557MOL0     H76851  10.527   9.514   7.725 -0.5366 -1.2174 -1.7692
  557MOL0     H76852  10.232   9.862   7.400 -1.4378  0.6419  0.3651
  557MOL0     H76853  10.250   9.939   7.186  2.4399  1.2302 -3.5580
  557MOL0     H76854  10.662   9.973   7.001 -1.6804 -2.3903  2.0122
  557MOL0     H76855  10.563  10.054   6.878 -2.2255  0.6947  0.2829
  557MOL0     H76856  10.700  10.216   6.985  0.6757 -2.8495 -0.1836
  557MOL0     H76857  10.656  10.162   7.144 -0.8957 -0.7410 -0.5603
  557MOL0     H76858  10.476  10.320   6.953  1.7142  0.5519 -0.4786
  557MOL0     H76859  10.417  10.228   7.089  0.8010 -2.0352  1.0554
  557MOL0     H76860  10.610  10.461   7.109  0.4316 -1.3688 -1.5700
  557MOL0     H76861  10.571  10.370   7.244  2.8743  0.9083 -0.3256
  557MOL0     H76862  10.262  10.646   7.136 -0.5859  0.3599  2.9551
  557MOL0     H76863  10.686   9.934   7.220  0.6856  3.5746  4.9540
  557MOL0     H76864  10.676   9.709   7.497  2.4515 -1.4535  0.6133
  557MOL0     H76865  10.789   9.798   7.383 -1.1891  0.1462 -0.1754
  557MOL0     H76866  10.732   9.869   7.536 -0.2762 -1.3246  1.0925
  558MOL0     O76867   7.157  10.642   1.240 -0.5124 -0.1216 -0.0081
  558MOL0     C76868   7.162  10.683   1.124  0.3122 -0.5337 -0.1650
  558MOL0     O76869   7.254  10.636   1.035  0.0679  0.6048  0.0892
  558MOL0     C76870   7.347  10.538   1.071  0.5166  0.1355 -0.4936
  558MOL0     C76871   7.479  10.561   1.051 -0.3558 -0.0454  0.1530
  558MOL0     C76872   7.571  10.465   1.070 -0.0494  0.2793  0.4995
  558MOL0     C76873   7.527  10.333   1.121  0.6058  0.6128 -0.0391
  558MOL0     O76874   7.609  10.226   1.156 -1.0476  0.4811 -0.1480
  558MOL0     C76875   7.742  10.254   1.201  0.9464  0.2742  1.2266
  558MOL0     C76876   7.737  10.277   1.358  0.8966  0.0118  0.2082
  558MOL0     C76877   7.882  10.266   1.416  0.0753 -1.0562  0.0814
  558MOL0     C76878   7.897  10.325   1.551 -0.9494  0.4168 -0.4202
  558MOL0     C76879   8.041  10.322   1.593 -0.6024 -0.2413 -1.2206
  558MOL0     C76880   8.076  10.341   1.746  0.0608  0.0340 -0.6862
  558MOL0     C76881   8.228  10.348   1.754 -0.6019  0.3728  0.6803
  558MOL0     C76882   8.290  10.319   1.892  1.0555 -0.3801  0.5028
  558MOL0     N76883   8.424  10.365   1.908  0.5643 -0.6861  0.3457
  558MOL0     C76884   8.529  10.334   1.821 -0.9005 -1.6919 -0.3213
  558MOL0     C76885   8.633  10.407   1.874  0.1310  0.6600 -0.6585
  558MOL0     C76886   8.772  10.392   1.823  0.3662 -0.3188 -0.0325
  558MOL0     C76887   8.862  10.295   1.899  0.8320 -0.7104  0.1535
  558MOL0     C76888   8.908  10.356   2.030  0.1917  0.2219 -0.3444
  558MOL0     C76889   8.992  10.257   2.110  0.0529  1.1166 -0.5188
  558MOL0     O76890   9.119  10.246   2.054 -0.5967  0.2367  0.4821
  558MOL0     C76891   9.225  10.320   2.097 -1.1872 -0.3239  0.0012
  558MOL0     C76892   9.218  10.450   2.154  0.0615  0.0783 -0.3430
  558MOL0     C76893   9.332  10.522   2.178 -1.1389  0.1657  0.1298
  558MOL0     C76894   9.309  10.667   2.204 -0.5342 -0.1982 -0.6560
  558MOL0     C76895   9.468  10.465   2.167  0.6828  0.6416 -0.9568
  558MOL0     C76896   9.590  10.538   2.203 -0.6163  0.1350 -0.9083
  558MOL0     O76897   9.706  10.469   2.177  0.1716  0.5613  0.5579
  558MOL0     C76898   9.827  10.501   2.212  0.1521 -0.7232 -0.5497
  558MOL0     C76899   9.898  10.437   2.310 -0.6926  0.0953 -0.2148
  558MOL0     C76900  10.032  10.467   2.348 -0.1166  0.6587 -0.1636
  558MOL0     C76901  10.092  10.574   2.281 -0.6228  0.0204 -0.1249
  558MOL0     O76902  10.227  10.591   2.322  0.1173  0.1902  0.0217
  558MOL0     C76903  10.279  10.717   2.274 -0.0475 -0.0573 -0.1719
  558MOL0     C76904  10.429  10.736   2.313  0.3925 -0.5370  0.2680
  558MOL0     C76905  10.442  10.742   2.458 -0.4829  0.8547  0.7266
  558MOL0     C76906  10.586  10.767   2.498  0.1393 -0.4348 -0.0929
  558MOL0     C76907  10.613  10.758   2.648 -0.5763 -0.2028 -0.6646
  558MOL0     C76908  10.750  10.764   2.719 -0.3259 -0.0774 -0.0366
  558MOL0     C76909  10.811  10.901   2.688 -0.0267 -0.8380 -0.6365
  558MOL0     C76910  10.953  10.911   2.741 -0.3473 -0.2521 -0.0239
  558MOL0    Cl76911  10.951  10.886   2.922 -0.4466  0.2712  0.2083
  558MOL0     C76912  10.014  10.656   2.192  0.6062  0.3332 -0.7328
  558MOL0     C76913   9.885  10.622   2.154  0.1338  0.0503 -0.1396
  558MOL0     O76914   9.584  10.658   2.236  0.4872 -0.1538  0.1349
  558MOL0     C76915   9.469  10.324   2.129  0.0127  0.1845 -0.8895
  558MOL0     C76916   9.349  10.265   2.085  0.3851 -0.1701 -0.3089
  558MOL0     N76917   8.591  10.471   1.993  0.6561 -0.1944 -0.2713
  558MOL0     N76918   8.468  10.438   2.013  0.4351 -0.5967  0.1315
  558MOL0     C76919   7.390  10.309   1.123 -0.7930  0.0523 -0.3932
  558MOL0     C76920   7.306  10.410   1.108 -0.3077  1.4535  0.2883
  558MOL0     C76921   7.068  10.795   1.081 -0.0785  0.5984 -0.0775
  558MOL0     C76922   7.103  10.857   0.960  0.6049 -0.7743  0.3519
  558MOL0     C76923   7.021  10.955   0.904  0.1722 -0.7848 -0.0571
  558MOL0     C76924   6.908  11.001   0.966  0.0916  0.5222  0.3279
  558MOL0     O76925   6.847  11.115   0.931 -0.0479  0.4028 -0.1859
  558MOL0     C76926   6.809  11.150   0.799  0.1163 -0.4745  0.7912
  558MOL0     C76927   6.775  11.300   0.800  0.0526 -0.7822  0.3618
  558MOL0     C76928   6.699  11.344   0.668  0.5676  0.2900  0.5487
  558MOL0     C76929   6.767  11.339   0.526  0.3661  0.1265 -0.2426
  558MOL0     C76930   6.658  11.357   0.428  0.0873 -0.5904 -0.0324
  558MOL0     C76931   6.563  11.350   0.351  0.0620  0.4958  0.4208
  558MOL0     C76932   6.874  10.945   1.094 -0.3998  0.5109  0.7604
  558MOL0     C76933   6.941  10.834   1.136  0.1149 -0.1911  0.5952
  558MOL0     C76934   6.902  10.776   1.267  0.6012 -0.1791 -1.0803
  558MOL0     H76935   7.511  10.662   1.025  0.1222  0.3339  2.0888
  558MOL0     H76936   7.676  10.489   1.056 -0.7465  2.5331 -1.4816
  558MOL0     H76937   7.786  10.342   1.154  1.7751 -0.7508  0.0323
  558MOL0     H76938   7.811  10.172   1.178  2.4431  1.9279 -0.4552
  558MOL0     H76939   7.696  10.372   1.393 -0.7245 -1.1904  1.7957
  558MOL0     H76940   7.676  10.198   1.403 -0.5276  1.0359  0.1531
  558MOL0     H76941   7.906  10.159   1.416  1.4982 -0.7603 -0.8410
  558MOL0     H76942   7.944  10.318   1.343  2.1971 -3.4496  0.0303
  558MOL0     H76943   7.860  10.428   1.553 -1.4486  0.2378  1.9944
  558MOL0     H76944   7.846  10.266   1.626  0.5711  0.1409  0.4391
  558MOL0     H76945   8.094  10.388   1.525 -0.4846  1.2717  0.2854
  558MOL0     H76946   8.075  10.220   1.573 -2.3221 -0.4051 -3.9341
  558MOL0     H76947   8.049  10.439   1.786  2.0167  0.6179 -0.7015
  558MOL0     H76948   8.030  10.257   1.800  2.6228 -1.1477 -0.1874
  558MOL0     H76949   8.271  10.435   1.704 -0.2930 -1.5860 -2.8447
  558MOL0     H76950   8.276  10.271   1.693 -1.6105 -0.1542  0.5319
  558MOL0     H76951   8.227  10.363   1.970  0.7161  2.3651 -1.2202
  558MOL0     H76952   8.295  10.210   1.906  0.9645 -0.3697  0.6135
  558MOL0     H76953   8.535  10.258   1.744  3.9314 -0.3251 -1.6461
  558MOL0     H76954   8.813  10.493   1.831 -1.6359  0.8522 -2.9413
  558MOL0     H76955   8.771  10.359   1.719  1.4920  0.4124 -0.2907
  558MOL0     H76956   8.806  10.204   1.921  0.6861 -0.5370  0.5158
  558MOL0     H76957   8.945  10.269   1.833 -0.0729 -1.1495 -0.8295
  558MOL0     H76958   8.966  10.447   2.014 -0.5256  1.6651  3.9515
  558MOL0     H76959   8.827  10.382   2.099  1.1405 -2.3332  1.9390
  558MOL0     H76960   9.011  10.289   2.213  0.4026  2.6687 -1.0317
  558MOL0     H76961   8.929  10.169   2.121 -0.6109  1.8715  2.6869
  558MOL0     H76962   9.119  10.495   2.160  0.3525  0.9131 -1.4938
  558MOL0     H76963   9.204  10.697   2.209 -0.2685  0.5266  1.4190
  558MOL0     H76964   9.369  10.723   2.132  1.7067 -0.3833  0.9540
  558MOL0     H76965   9.357  10.693   2.299 -2.0825 -0.5941  0.2748
  558MOL0     H76966   9.850  10.353   2.359 -4.7198  0.6119 -2.7917
  558MOL0     H76967  10.087  10.413   2.424  1.3574  1.9329 -0.2647
  558MOL0     H76968  10.294  10.715   2.166  2.5869  1.1720  0.0961
  558MOL0     H76969  10.229  10.808   2.309 -1.1347 -1.2336  1.5010
  558MOL0     H76970  10.490  10.655   2.272 -0.1476 -0.6350 -0.3551
  558MOL0     H76971  10.468  10.834   2.284  0.1094 -0.7869 -1.0140
  558MOL0     H76972  10.415  10.645   2.500  1.5368 -2.2137 -4.1661
  558MOL0     H76973  10.382  10.827   2.493  0.6968  2.2727 -0.5583
  558MOL0     H76974  10.611  10.871   2.475 -2.6919 -0.0435 -1.9635
  558MOL0     H76975  10.652  10.696   2.448  0.0717  2.0179 -4.1435
  558MOL0     H76976  10.545  10.822   2.705  2.6314  2.4959  0.4440
  558MOL0     H76977  10.582  10.657   2.675 -1.4062  0.7354  2.2656
  558MOL0     H76978  10.820  10.690   2.682 -1.4123 -1.6939  1.0184
  558MOL0     H76979  10.732  10.751   2.826 -3.3357  2.7744 -0.0087
  558MOL0     H76980  10.751  10.977   2.739 -1.1856 -1.3530 -1.1900
  558MOL0     H76981  10.827  10.920   2.582 -1.5385 -0.3185 -0.7904
  558MOL0     H76982  10.985  11.015   2.726 -2.8463  0.6370  0.1714
  558MOL0     H76983  11.021  10.837   2.700  2.3215  0.1234  3.3102
  558MOL0     H76984  10.059  10.742   2.143  1.9367  0.3300  0.4412
  558MOL0     H76985   9.842  10.697   2.088 -2.5419  0.5936  2.0398
  558MOL0     H76986   9.561  10.274   2.101  0.5637  1.2846 -1.1279
  558MOL0     H76987   9.353  10.167   2.039  1.7496  0.0696 -0.7209
  558MOL0     H76988   7.363  10.205   1.141  1.2887 -0.5393 -0.4138
  558MOL0     H76989   7.201  10.385   1.103  0.4621 -2.6927  0.9190
  558MOL0     H76990   7.191  10.829   0.903  0.9253 -1.2570  1.0611
  558MOL0     H76991   7.056  11.001   0.812 -0.8587 -0.4110 -0.2837
  558MOL0     H76992   6.882  11.119   0.723 -2.6803  0.5482 -2.5337
  558MOL0     H76993   6.719  11.096   0.772 -1.1693  1.5764  0.7794
  558MOL0     H76994   6.861  11.364   0.819 -0.2012 -0.5012  0.5738
  558MOL0     H76995   6.703  11.318   0.881  2.9673  0.0575  2.9455
  558MOL0     H76996   6.609  11.281   0.661 -0.7381  2.1705 -0.5650
  558MOL0     H76997   6.683  11.451   0.687  1.8340  0.4294  0.8916
  558MOL0     H76998   6.815  11.243   0.507  0.1187  0.1690 -1.1630
  558MOL0     H76999   6.841  11.419   0.514 -0.0641  0.7705  1.2428
  558MOL0     H77000   6.475  11.341   0.291 -0.0392  0.5858  0.5541
  558MOL0     H77001   6.790  10.980   1.152  0.1421  0.0807  1.8362
  558MOL0     H77002   6.906  10.667   1.268 -1.9043 -0.3201 -1.1691
  558MOL0     H77003   6.969  10.808   1.347  1.9412 -2.8470 -1.0143
  558MOL0     H77004   6.798  10.796   1.294  0.9350 -0.7912  0.8059
  559MOL0     O77005   0.479   2.793  10.688  0.2435 -0.2650  0.9428
  559MOL0     C77006   0.601   2.781  10.702 -0.0543 -0.5271 -0.4527
  559MOL0     O77007   0.681   2.869  10.752  0.3366 -0.2063 -0.1049
  559MOL0     C77008   0.639   2.980  10.827 -0.2042 -0.8049 -0.1736
  559MOL0     C77009   0.740   3.076  10.828  0.1422  0.1879  0.4482
  559MOL0     C77010   0.733   3.188  10.916 -1.3488  0.5857 -0.0514
  559MOL0     C77011   0.616   3.214  10.992  0.4120  0.3304 -0.0968
  559MOL0     O77012   0.603   3.333  11.053 -0.1041  0.0744  0.6358
  559MOL0     C77013   0.519   3.344  11.173  0.2005  0.7335 -0.1593
  559MOL0     C77014   0.527   3.486  11.240 -0.2739  0.4329  0.0143
  559MOL0     C77015   0.473   3.593  11.139 -0.2814  0.4472  0.1653
  559MOL0     C77016   0.509   3.737  11.199 -0.0400 -0.7414 -0.0046
  559MOL0     C77017   0.477   3.849  11.101  0.7673  0.9570  0.6389
  559MOL0     C77018   0.326   3.852  11.049  0.6054 -0.6622  0.2026
  559MOL0     C77019   0.293   3.967  10.948 -0.0269  0.7336  0.2551
  559MOL0     C77020   0.313   4.112  11.011  0.4018 -0.2266  0.8291
  559MOL0     N77021   0.233   4.135  11.135 -0.0777  0.4680  0.4688
  559MOL0     C77022   0.098   4.101  11.151 -0.4718  0.0864  0.5019
  559MOL0     C77023   0.076   4.149  11.275 -0.2938 -0.2501 -0.1756
  559MOL0     C77024  -0.055   4.128  11.335  0.0969 -0.3474  0.0056
  559MOL0     C77025  -0.060   4.124  11.492  0.5615  0.2865 -0.1904
  559MOL0     C77026  -0.113   3.977  11.527 -0.2001 -0.3739  0.3721
  559MOL0     C77027  -0.124   3.951  11.680 -0.7088 -0.2256 -0.2143
  559MOL0     O77028   0.007   3.974  11.744  0.1076  0.0140  0.8614
  559MOL0     C77029   0.050   3.878  11.830  0.3762 -0.1880 -0.1117
  559MOL0     C77030   0.070   3.739  11.795 -0.2564 -1.6829 -0.0424
  559MOL0     C77031   0.106   3.649  11.889 -0.3170 -0.1063  1.2349
  559MOL0     C77032   0.103   3.497  11.862 -0.4054 -0.7704  0.0327
  559MOL0     C77033   0.132   3.694  12.020 -0.3622 -0.7523 -0.0137
  559MOL0     C77034   0.184   3.606  12.128  0.0556  0.4376  0.0684
  559MOL0     O77035   0.282   3.515  12.099  0.3606  0.6330  0.3787
  559MOL0     C77036   0.318   3.420  12.194  0.1477 -1.1534 -0.8859
  559MOL0     C77037   0.432   3.444  12.271 -0.2495 -0.3594 -0.4968
  559MOL0     C77038   0.479   3.339  12.351  0.7544  0.9778  1.4590
  559MOL0     C77039   0.413   3.218  12.368  0.7651 -0.8452 -0.5531
  559MOL0     O77040   0.467   3.109  12.437  0.5444  0.6692  1.0902
  559MOL0     C77041   0.540   3.136  12.554 -0.5996 -0.1513 -0.1038
  559MOL0     C77042   0.544   3.019  12.644  0.5043  0.5130 -0.3886
  559MOL0     C77043   0.575   2.879  12.582 -0.2228 -0.9547 -0.1288
  559MOL0     C77044   0.556   2.774  12.696 -0.5505  0.1491  0.1756
  559MOL0     C77045   0.546   2.631  12.636 -0.0349  0.3115  0.7976
  559MOL0     C77046   0.519   2.527  12.753 -0.4941  0.8117 -0.4724
  559MOL0     C77047   0.519   2.384  12.707 -0.4760  0.2180 -0.1975
  559MOL0     C77048   0.489   2.290  12.820  0.0288  0.2146  0.1557
  559MOL0    Cl77049   0.324   2.311  12.894  0.1136 -0.4862 -0.2876
  559MOL0     C77050   0.294   3.210  12.301 -0.0064 -0.1345  0.5559
  559MOL0     C77051   0.243   3.306  12.208 -0.3056 -0.7460 -0.7079
  559MOL0     O77052   0.129   3.624  12.240  0.0849 -0.4027  1.0071
  559MOL0     C77053   0.107   3.824  12.058  0.6670  0.0124 -0.0235
  559MOL0     C77054   0.069   3.916  11.962 -0.2111 -0.1636 -0.2528
  559MOL0     N77055   0.192   4.213  11.323 -0.3794 -0.5185 -0.2278
  559MOL0     N77056   0.286   4.182  11.245  0.7490 -0.9574 -0.5056
  559MOL0     C77057   0.512   3.124  10.983 -0.1090 -0.1502 -0.2873
  559MOL0     C77058   0.527   3.009  10.900 -0.0272 -0.0969 -0.4324
  559MOL0     C77059   0.658   2.644  10.668  0.4314  0.0325  0.6514
  559MOL0     C77060   0.771   2.643  10.580  0.5681 -0.0159  0.1326
  559MOL0     C77061   0.820   2.522  10.527 -0.3871 -0.2397 -0.8686
  559MOL0     C77062   0.763   2.400  10.564  0.2305 -0.2052  0.4865
  559MOL0     O77063   0.826   2.283  10.530 -0.3073 -0.0753  0.7442
  559MOL0     C77064   0.742   2.207  10.454 -0.0949  0.2021 -0.0498
  559MOL0     C77065   0.825   2.171  10.335 -0.9253  0.5946  1.1425
  559MOL0     C77066   0.737   2.099  10.224 -0.6035 -1.1073  0.5847
  559MOL0     C77067   0.834   2.053  10.114  0.9481  0.7858 -0.5275
  559MOL0     C77068   0.899   2.151  10.032  0.4628  0.1809  1.0582
  559MOL0     C77069   0.941   2.234   9.952 -0.4346  0.6638  0.0977
  559MOL0     C77070   0.648   2.403  10.647 -0.0680  0.4731 -0.2045
  559MOL0     C77071   0.598   2.522  10.706  0.3625 -0.0480  0.7053
  559MOL0     C77072   0.494   2.501  10.798 -0.9702  0.1900 -0.3373
  559MOL0     H77073   0.829   3.077  10.767 -1.2580 -0.2536 -1.7345
  559MOL0     H77074   0.813   3.261  10.918 -0.2427 -0.4999 -1.8353
  559MOL0     H77075   0.550   3.264  11.241 -0.9089  1.6805  1.5038
  559MOL0     H77076   0.416   3.327  11.140  0.3976  0.9024 -0.8961
  559MOL0     H77077   0.483   3.489  11.340  1.0232  1.8579  0.5768
  559MOL0     H77078   0.634   3.495  11.255 -0.1002 -1.3015  0.0607
  559MOL0     H77079   0.525   3.588  11.043  0.3193 -3.4662  0.5271
  559MOL0     H77080   0.368   3.568  11.120 -0.5591  2.1448 -0.7532
  559MOL0     H77081   0.462   3.760  11.295  0.4330  1.2562 -0.2092
  559MOL0     H77082   0.617   3.734  11.215 -0.0237  0.9122  0.3778
  559MOL0     H77083   0.540   3.839  11.012  2.3934  0.7889  1.7661
  559MOL0     H77084   0.508   3.947  11.139  2.0049  0.4647  0.9317
  559MOL0     H77085   0.308   3.751  11.011  3.1182 -1.5054  1.0274
  559MOL0     H77086   0.258   3.870  11.133 -0.0580 -1.7947 -0.0690
  559MOL0     H77087   0.191   3.955  10.908 -0.9047  2.4143  1.8756
  559MOL0     H77088   0.362   3.959  10.864 -0.3900 -2.4181  0.1297
  559MOL0     H77089   0.420   4.118  11.034  0.9251  0.4725 -1.5159
  559MOL0     H77090   0.284   4.190  10.940  2.0437 -0.2369  0.0902
  559MOL0     H77091   0.038   4.054  11.073  0.5086 -0.4732  0.0647
  559MOL0     H77092  -0.096   4.036  11.293  1.0154 -2.2044  2.9200
  559MOL0     H77093  -0.125   4.206  11.302 -0.2388 -1.9948 -3.7341
  559MOL0     H77094   0.039   4.143  11.534  0.0445  0.9787  0.7556
  559MOL0     H77095  -0.129   4.204  11.522 -0.6030  0.3437 -2.7505
  559MOL0     H77096  -0.213   3.967  11.485 -1.3626  0.1282  2.8386
  559MOL0     H77097  -0.056   3.897  11.479 -0.4863  1.0423 -2.5715
  559MOL0     H77098  -0.201   4.017  11.722 -0.1532  0.4092 -0.1866
  559MOL0     H77099  -0.160   3.849  11.699 -0.1903 -1.0006 -2.9811
  559MOL0     H77100   0.051   3.713  11.691 -0.5437 -0.3653 -0.3392
  559MOL0     H77101   0.071   3.436  11.947 -1.9305 -1.8682 -1.2600
  559MOL0     H77102   0.203   3.466  11.830  0.2124 -1.1423  2.1862
  559MOL0     H77103   0.037   3.469  11.779 -0.9489 -3.1585  1.1787
  559MOL0     H77104   0.498   3.527  12.250 -0.6962  0.2492  0.4201
  559MOL0     H77105   0.577   3.352  12.397  3.5816 -0.0292 -3.5733
  559MOL0     H77106   0.642   3.163  12.525 -0.2184 -1.2147  0.1823
  559MOL0     H77107   0.497   3.221  12.608  0.4822 -1.5486  3.1876
  559MOL0     H77108   0.608   3.032  12.731  0.3785  1.1466 -0.3821
  559MOL0     H77109   0.443   3.015  12.684 -0.2167  3.5515 -1.6459
  559MOL0     H77110   0.680   2.872  12.551  0.3845 -0.4080  1.6597
  559MOL0     H77111   0.506   2.858  12.499 -1.0093  1.6806 -0.2400
  559MOL0     H77112   0.469   2.796  12.760 -1.1139  0.1083 -0.5625
  559MOL0     H77113   0.643   2.785  12.761  2.0704 -2.6998 -2.5094
  559MOL0     H77114   0.456   2.637  12.574  1.6037 -1.2197 -1.9228
  559MOL0     H77115   0.625   2.596  12.570 -1.6389 -1.3999 -0.3271
  559MOL0     H77116   0.425   2.565  12.794  0.7038  1.9389  1.3614
  559MOL0     H77117   0.589   2.550  12.833 -1.3319  1.3394  0.1279
  559MOL0     H77118   0.615   2.356  12.663 -1.0877 -0.4604 -1.1466
  559MOL0     H77119   0.437   2.367  12.637 -0.6431 -0.3280  0.1201
  559MOL0     H77120   0.564   2.316  12.895  0.7984 -0.9811 -0.1770
  559MOL0     H77121   0.509   2.185  12.797  0.5680  0.4190 -0.3223
  559MOL0     H77122   0.235   3.119  12.311 -1.7002  0.9978  1.2652
  559MOL0     H77123   0.166   3.287  12.133  1.2544 -1.4669 -2.2064
  559MOL0     H77124   0.120   3.871  12.156 -1.2897 -0.9887  0.7801
  559MOL0     H77125   0.035   4.019  11.974 -1.7525 -0.2858 -2.7544
  559MOL0     H77126   0.415   3.145  11.027 -0.3135 -0.5827 -0.5290
  559MOL0     H77127   0.458   2.925  10.899 -0.3125  0.1412 -0.9416
  559MOL0     H77128   0.826   2.732  10.549  0.7908  0.2464  1.2295
  559MOL0     H77129   0.919   2.518  10.482  0.4403 -0.3985  0.9000
  559MOL0     H77130   0.725   2.113  10.507 -0.3652  0.3275  0.0839
  559MOL0     H77131   0.646   2.248  10.420 -0.6028 -0.0098  1.0892
  559MOL0     H77132   0.894   2.092  10.364 -2.6478 -1.1925  0.6193
  559MOL0     H77133   0.884   2.253  10.294  0.0205 -0.4159  0.4401
  559MOL0     H77134   0.681   2.017  10.270 -0.4901 -0.5274  1.7701
  559MOL0     H77135   0.669   2.170  10.176  3.0855  2.1569 -0.3087
  559MOL0     H77136   0.770   2.003  10.041  2.7957 -1.4426 -0.7484
  559MOL0     H77137   0.901   1.978  10.156 -1.3505  0.2831  2.5606
  559MOL0     H77138   0.985   2.306   9.885  2.1341 -0.4398  0.4952
  559MOL0     H77139   0.613   2.303  10.673  1.4879  0.6034  2.8396
  559MOL0     H77140   0.433   2.590  10.818 -1.3767  0.0308 -0.8368
  559MOL0     H77141   0.424   2.422  10.769  2.0283 -2.9496  0.3381
  559MOL0     H77142   0.546   2.460  10.885 -0.8198 -0.0493 -0.5391
  560MOL0     O77143   7.838   7.899   9.179 -0.2268  0.8284 -0.1282
  560MOL0     C77144   7.817   7.888   9.296 -0.0751 -0.2728  0.0921
  560MOL0     O77145   7.892   7.812   9.381 -0.1648 -0.8462 -0.2178
  560MOL0     C77146   8.014   7.767   9.342  0.1561  0.3543  0.3555
  560MOL0     C77147   8.038   7.663   9.249 -0.5394 -0.4291 -0.5832
  560MOL0     C77148   8.167   7.612   9.216  0.0197  0.1362  0.6678
  560MOL0     C77149   8.281   7.668   9.282  0.2532 -0.9896  1.0567
  560MOL0     O77150   8.409   7.637   9.252 -0.3880 -0.6119 -0.5122
  560MOL0     C77151   8.437   7.585   9.121 -0.0415 -0.3839 -0.5249
  560MOL0     C77152   8.590   7.581   9.101  0.4920  0.3643 -0.7369
  560MOL0     C77153   8.648   7.454   9.160  0.4618  0.3426 -0.1785
  560MOL0     C77154   8.607   7.323   9.090  0.3407 -0.0292  0.2767
  560MOL0     C77155   8.718   7.225   9.068  0.4438 -0.3266  0.5256
  560MOL0     C77156   8.771   7.165   9.195 -0.7419 -0.1834  0.2005
  560MOL0     C77157   8.892   7.071   9.171  0.8136  0.5298 -0.2318
  560MOL0     C77158   8.916   6.987   9.311 -0.4488  0.5374  0.0500
  560MOL0     N77159   9.046   6.914   9.311 -0.0128  0.7102 -0.4804
  560MOL0     C77160   9.150   6.919   9.408  0.2323 -0.4720 -0.2777
  560MOL0     C77161   9.205   6.793   9.396 -0.7501  0.4247  0.0580
  560MOL0     C77162   9.307   6.754   9.502  1.0951 -0.7808 -0.1982
  560MOL0     C77163   9.457   6.797   9.481  1.2143  0.0020 -0.1332
  560MOL0     C77164   9.474   6.948   9.462  0.0067  0.9346 -0.4697
  560MOL0     C77165   9.628   6.989   9.434  0.6548  0.5590 -0.0701
  560MOL0     O77166   9.714   6.943   9.542 -0.8465  0.3182  0.8884
  560MOL0     C77167   9.784   6.827   9.535 -0.0245  0.3844 -0.3139
  560MOL0     C77168   9.779   6.733   9.429  1.1646 -0.0992 -0.6457
  560MOL0     C77169   9.838   6.611   9.444 -0.7362  0.1963 -1.2197
  560MOL0     C77170   9.811   6.506   9.330  0.5684  0.4824 -0.2676
  560MOL0     C77171   9.928   6.591   9.545 -0.5136 -0.7667 -0.1263
  560MOL0     C77172  10.016   6.467   9.561  0.9709 -0.6393  0.1240
  560MOL0     O77173  10.062   6.441   9.690  0.4020 -0.2093 -0.2439
  560MOL0     C77174  10.146   6.334   9.706  0.4056  0.0944 -0.3481
  560MOL0     C77175  10.125   6.199   9.661  0.5068 -0.0745  0.3311
  560MOL0     C77176  10.216   6.100   9.690 -0.1756 -0.4904 -0.2341
  560MOL0     C77177  10.334   6.135   9.766 -0.7617 -0.4966 -0.0257
  560MOL0     O77178  10.416   6.029   9.787  0.0103  0.2246  0.5576
  560MOL0     C77179  10.495   6.037   9.903 -0.7476  0.1002 -0.9811
  560MOL0     C77180  10.637   6.090   9.872  0.1960 -0.1716 -0.7101
  560MOL0     C77181  10.709   6.143   9.994  0.1997 -0.5571  0.0610
  560MOL0     C77182  10.746   6.029  10.089 -0.2730  0.1084 -0.1540
  560MOL0     C77183  10.771   6.093  10.233 -0.4626 -0.0865  1.2963
  560MOL0     C77184  10.851   5.991  10.329  0.1152 -0.3614 -0.7135
  560MOL0     C77185  10.744   5.903  10.400 -0.1545 -0.0332  0.1121
  560MOL0     C77186  10.802   5.803  10.501 -0.1718  0.7414 -0.9331
  560MOL0    Cl77187  10.904   5.679  10.420  0.2746  0.3519 -0.6903
  560MOL0     C77188  10.350   6.266   9.817  0.0569  0.2994 -0.3114
  560MOL0     C77189  10.255   6.359   9.791  0.2216 -0.2669 -0.1479
  560MOL0     O77190  10.034   6.394   9.467  0.0727 -0.4115 -0.6363
  560MOL0     C77191   9.945   6.681   9.649 -0.3763 -0.6437  1.2819
  560MOL0     C77192   9.866   6.793   9.646  0.4295 -0.8617 -0.6257
  560MOL0     N77193   9.142   6.712   9.306  0.4020  0.3099  1.1015
  560MOL0     N77194   9.052   6.791   9.247 -0.5443  0.5884 -0.9851
  560MOL0     C77195   8.266   7.779   9.373  0.2224  0.3662  0.4184
  560MOL0     C77196   8.132   7.827   9.406  0.3640  0.8337 -0.6723
  560MOL0     C77197   7.695   7.953   9.348  0.1655 -0.0301 -1.0959
  560MOL0     C77198   7.654   7.904   9.472  0.3044  0.3596  0.5467
  560MOL0     C77199   7.535   7.950   9.531  0.5576 -0.4545  0.0370
  560MOL0     C77200   7.452   8.045   9.466  0.1268 -0.0439  1.3672
  560MOL0     O77201   7.341   8.096   9.533 -0.6346  0.0131  0.8128
  560MOL0     C77202   7.256   7.984   9.562  0.0478  0.0503  0.0535
  560MOL0     C77203   7.111   8.038   9.576  0.5721  0.7863 -0.3827
  560MOL0     C77204   7.033   7.940   9.667  0.0762 -1.2283  0.8240
  560MOL0     C77205   6.905   8.009   9.722 -0.1658 -0.4280  0.4527
  560MOL0     C77206   6.795   7.987   9.617  0.1383 -0.3184 -0.1234
  560MOL0     C77207   6.693   7.961   9.541 -0.8606  0.3267  0.4642
  560MOL0     C77208   7.499   8.100   9.341  0.1510 -0.0187 -0.2876
  560MOL0     C77209   7.616   8.050   9.285  0.6841 -0.6354 -0.7477
  560MOL0     C77210   7.661   8.121   9.155 -0.3818 -1.3980  0.3330
  560MOL0     H77211   7.946   7.639   9.196 -1.9638 -0.0648  1.5594
  560MOL0     H77212   8.177   7.535   9.141 -4.3240 -0.3721  0.3681
  560MOL0     H77213   8.398   7.654   9.046 -1.2505  0.9550  1.2215
  560MOL0     H77214   8.396   7.485   9.105 -0.4720 -0.6944  1.9805
  560MOL0     H77215   8.608   7.580   8.993  0.2762 -2.8056 -0.8430
  560MOL0     H77216   8.642   7.666   9.147  1.6921 -0.5634 -0.3285
  560MOL0     H77217   8.757   7.461   9.164  0.4372  2.2678 -1.6217
  560MOL0     H77218   8.591   7.454   9.253  0.9126  0.6830  0.1011
  560MOL0     H77219   8.530   7.258   9.132 -0.6647 -2.2839 -4.3353
  560MOL0     H77220   8.572   7.364   8.995 -1.0485  0.9456  1.1765
  560MOL0     H77221   8.795   7.270   9.004 -1.7673 -1.7048 -3.4738
  560MOL0     H77222   8.681   7.140   9.010  0.9840 -0.8841  1.0004
  560MOL0     H77223   8.797   7.231   9.279 -4.2040 -0.4620  1.6872
  560MOL0     H77224   8.700   7.097   9.243 -2.8003  1.5759 -0.2007
  560MOL0     H77225   8.979   7.133   9.146  2.0669 -1.8222 -2.0500
  560MOL0     H77226   8.855   7.002   9.096 -3.0444  1.0230  1.0038
  560MOL0     H77227   8.917   7.061   9.392 -2.1594  1.2294 -0.5212
  560MOL0     H77228   8.841   6.909   9.328 -0.1326  0.5569  1.7067
  560MOL0     H77229   9.183   6.998   9.474  3.2973 -2.0951  0.3459
  560MOL0     H77230   9.317   6.646   9.519  2.2081 -0.2735  2.9996
  560MOL0     H77231   9.266   6.786   9.599  0.5698  1.1884 -1.0185
  560MOL0     H77232   9.532   6.766   9.555 -0.1212  0.4478  1.4651
  560MOL0     H77233   9.488   6.750   9.387 -1.0572 -1.3116 -0.3060
  560MOL0     H77234   9.426   6.976   9.368  1.1355  0.2548 -1.2735
  560MOL0     H77235   9.428   7.008   9.540 -2.1436  0.4900 -1.3083
  560MOL0     H77236   9.658   6.952   9.336  2.7764  1.3638  0.2338
  560MOL0     H77237   9.629   7.098   9.422  2.4047  0.4453 -1.3374
  560MOL0     H77238   9.718   6.752   9.341  2.2737 -0.5932 -1.5484
  560MOL0     H77239   9.800   6.405   9.371  1.0012  0.4039 -0.3358
  560MOL0     H77240   9.897   6.506   9.262 -0.6470  0.6331 -1.8472
  560MOL0     H77241   9.721   6.517   9.269 -0.5100 -4.1056  0.0749
  560MOL0     H77242  10.029   6.186   9.612  1.4993  2.8956 -2.8484
  560MOL0     H77243  10.190   5.996   9.672 -3.0191 -0.6842  3.7062
  560MOL0     H77244  10.452   6.098   9.983  0.2667  1.2631 -1.2941
  560MOL0     H77245  10.510   5.937   9.945  3.6711  0.1979 -1.8883
  560MOL0     H77246  10.702   6.012   9.833  1.9596 -0.0398  1.7137
  560MOL0     H77247  10.647   6.163   9.790  0.6397 -1.9468 -2.3072
  560MOL0     H77248  10.640   6.214  10.040 -2.5403 -3.5141  0.9040
  560MOL0     H77249  10.800   6.200   9.973 -0.4038  1.9593  3.4119
  560MOL0     H77250  10.829   5.967  10.054 -0.9234  0.0297 -1.6742
  560MOL0     H77251  10.666   5.955  10.101 -0.0035  0.1856  2.7867
  560MOL0     H77252  10.839   6.178  10.220  1.2175 -1.2774  1.9950
  560MOL0     H77253  10.677   6.129  10.276 -2.0186 -2.9999  0.5771
  560MOL0     H77254  10.897   6.049  10.409  0.5120 -1.4449 -0.1226
  560MOL0     H77255  10.929   5.931  10.282 -1.3192 -1.9351 -1.2212
  560MOL0     H77256  10.682   5.862  10.320  1.8712 -0.5485 -1.2729
  560MOL0     H77257  10.683   5.970  10.461 -0.7412  0.0213 -0.5178
  560MOL0     H77258  10.721   5.744  10.545 -0.1339  3.0766  2.7714
  560MOL0     H77259  10.857   5.855  10.580 -0.2338  0.1425 -0.4881
  560MOL0     H77260  10.433   6.289   9.883  0.7488 -1.8577 -0.3449
  560MOL0     H77261  10.250   6.458   9.836 -0.4179 -0.7017  0.7818
  560MOL0     H77262  10.028   6.675   9.718 -0.3007  0.4103  1.3112
  560MOL0     H77263   9.872   6.868   9.724  2.4005 -0.5091 -1.0725
  560MOL0     H77264   8.347   7.830   9.424  1.7115 -0.9922 -0.4822
  560MOL0     H77265   8.121   7.915   9.467 -0.8065  0.5306 -0.4255
  560MOL0     H77266   7.719   7.834   9.523 -1.8691 -1.6839  0.6336
  560MOL0     H77267   7.508   7.906   9.626  0.4164 -0.6635 -0.0978
  560MOL0     H77268   7.274   7.902   9.492 -2.1539 -0.4849  0.0210
  560MOL0     H77269   7.290   7.953   9.661  0.6547  0.4483 -0.0324
  560MOL0     H77270   7.061   8.045   9.479 -1.0207 -2.0138  0.1160
  560MOL0     H77271   7.115   8.139   9.618 -0.9982 -0.0209  1.9261
  560MOL0     H77272   7.006   7.854   9.605  0.6959 -1.3125  0.6616
  560MOL0     H77273   7.099   7.905   9.747  1.9559 -0.4222 -0.3005
  560MOL0     H77274   6.921   8.117   9.731 -0.0117 -0.2271 -1.7102
  560MOL0     H77275   6.867   7.978   9.820  0.5688  2.3240  1.7090
  560MOL0     H77276   6.599   7.940   9.495 -0.0872 -0.5197 -0.7978
  560MOL0     H77277   7.441   8.164   9.274 -0.8625 -3.5453 -3.1054
  560MOL0     H77278   7.762   8.159   9.171  0.1728 -2.3692 -0.7173
  560MOL0     H77279   7.676   8.050   9.073  3.3373  0.6446 -1.0202
  560MOL0     H77280   7.590   8.198   9.123  1.0169 -0.8753 -1.7110
  561MOL0     O77281   8.216   4.256   2.061  0.0238  0.3192 -0.1068
  561MOL0     C77282   8.315   4.312   2.005 -0.5989 -0.9370 -0.7090
  561MOL0     O77283   8.390   4.251   1.912 -0.4844 -0.1744 -0.5020
  561MOL0     C77284   8.390   4.116   1.907  0.3739  0.4413 -0.0547
  561MOL0     C77285   8.466   4.041   1.996 -0.7224 -0.5135 -0.6995
  561MOL0     C77286   8.473   3.904   1.993  0.0778  0.7926 -0.6016
  561MOL0     C77287   8.416   3.827   1.896 -0.0694  0.0130  0.3347
  561MOL0     O77288   8.418   3.690   1.888  0.0246  0.0042  0.0968
  561MOL0     C77289   8.460   3.600   1.990  1.4257  0.1266 -0.0616
  561MOL0     C77290   8.607   3.577   1.992  0.0799  0.5909  0.0610
  561MOL0     C77291   8.640   3.481   1.880 -0.9783 -0.4135  0.1278
  561MOL0     C77292   8.787   3.421   1.903 -0.6224 -0.5285 -0.4067
  561MOL0     C77293   8.883   3.535   1.847 -0.2075  0.1635  0.3517
  561MOL0     C77294   9.032   3.490   1.866 -0.0473 -0.1701 -0.6457
  561MOL0     C77295   9.065   3.378   1.760 -0.3347  0.4898  0.3506
  561MOL0     C77296   9.217   3.346   1.770 -0.4131  0.3807  0.3740
  561MOL0     N77297   9.298   3.450   1.715 -0.5006 -0.2445 -0.0488
  561MOL0     C77298   9.317   3.460   1.581 -0.7051 -0.1078 -0.3035
  561MOL0     C77299   9.395   3.573   1.572 -0.4281  1.0643  0.0623
  561MOL0     C77300   9.439   3.623   1.436 -0.3584 -1.1092 -0.1130
  561MOL0     C77301   9.580   3.686   1.434 -0.2014 -0.4096  0.8552
  561MOL0     C77302   9.705   3.589   1.438 -0.5061  0.6006 -0.2071
  561MOL0     C77303   9.720   3.523   1.571 -0.9226  0.6303  0.3136
  561MOL0     O77304   9.843   3.460   1.582 -0.1165 -0.3760  0.0549
  561MOL0     C77305   9.947   3.533   1.638  0.9197 -0.4001 -1.0034
  561MOL0     C77306  10.071   3.544   1.577  0.3882 -0.4811  0.2126
  561MOL0     C77307  10.186   3.603   1.631  0.0631 -0.0961 -0.1892
  561MOL0     C77308  10.315   3.593   1.554 -0.3052  0.0233  0.3283
  561MOL0     C77309  10.175   3.655   1.764 -0.3662 -1.0932 -0.0563
  561MOL0     C77310  10.299   3.707   1.840 -0.0677  1.0372  0.7752
  561MOL0     O77311  10.281   3.696   1.968 -0.3677  0.4376  0.1145
  561MOL0     C77312  10.384   3.734   2.045 -0.1002  0.2996  0.1515
  561MOL0     C77313  10.377   3.865   2.095 -0.4694  0.2397 -0.6150
  561MOL0     C77314  10.484   3.918   2.179 -0.2894  0.7418  0.1887
  561MOL0     C77315  10.592   3.833   2.213 -0.1492 -0.3340 -0.4840
  561MOL0     O77316  10.681   3.882   2.294  0.4882 -0.0981  0.2592
  561MOL0     C77317  10.806   3.897   2.222 -0.6984 -0.3645  0.0821
  561MOL0     C77318  10.924   3.905   2.326 -0.2662 -0.7245  0.2696
  561MOL0     C77319  11.055   3.937   2.254 -0.3432 -0.8622  0.1468
  561MOL0     C77320  11.163   3.984   2.353  0.2203  0.0334  0.1852
  561MOL0     C77321  11.272   4.049   2.268 -0.4580  0.4727 -0.0844
  561MOL0     C77322  11.398   4.075   2.359  1.0241 -0.1251  0.4607
  561MOL0     C77323  11.499   4.157   2.280  0.7908 -0.3744 -0.0073
  561MOL0     C77324  11.526   4.294   2.338 -0.0295 -0.4552  0.4318
  561MOL0    Cl77325  11.625   4.277   2.488  0.0224  0.1698  0.2991
  561MOL0     C77326  10.592   3.698   2.175 -0.2626  0.3569 -0.1139
  561MOL0     C77327  10.490   3.647   2.089 -0.2625 -0.1571  0.6559
  561MOL0     O77328  10.389   3.765   1.782  0.1734  0.2648  0.6903
  561MOL0     C77329  10.050   3.644   1.827  0.6622  0.6213 -0.3425
  561MOL0     C77330   9.938   3.577   1.769  0.2896 -0.1524 -1.0108
  561MOL0     N77331   9.423   3.630   1.693  0.5061  0.1233  0.2636
  561MOL0     N77332   9.366   3.550   1.774 -0.6048 -0.3689  0.0547
  561MOL0     C77333   8.336   3.900   1.798 -0.4044 -0.4101  0.5412
  561MOL0     C77334   8.317   4.042   1.809 -0.3702  0.0909  0.6066
  561MOL0     C77335   8.353   4.444   2.052 -0.1834 -0.0006 -0.5919
  561MOL0     C77336   8.475   4.500   2.023 -0.0893 -0.4690 -0.3878
  561MOL0     C77337   8.521   4.623   2.062  0.0107  0.7620  0.2316
  561MOL0     C77338   8.437   4.702   2.139 -0.7000  0.3277  0.1837
  561MOL0     O77339   8.463   4.831   2.185  0.0238  1.0424 -0.5936
  561MOL0     C77340   8.572   4.904   2.126  0.7191 -0.2780  0.1420
  561MOL0     C77341   8.540   4.931   1.979  0.2084 -0.0498  0.1593
  561MOL0     C77342   8.411   5.007   1.968 -0.0262 -0.9881 -0.8359
  561MOL0     C77343   8.373   5.057   1.824  0.0833  0.6120  0.0055
  561MOL0     C77344   8.334   4.953   1.720  0.3189  0.3214 -1.4523
  561MOL0     C77345   8.301   4.869   1.634  0.8245 -0.4146  0.0640
  561MOL0     C77346   8.315   4.644   2.184  0.1645 -0.1339 -0.1807
  561MOL0     C77347   8.274   4.521   2.136  0.5267  0.4469 -0.3816
  561MOL0     C77348   8.142   4.473   2.203 -0.4142 -0.2123 -0.0610
  561MOL0     H77349   8.528   4.098   2.064 -1.6320  0.2204 -0.4690
  561MOL0     H77350   8.524   3.856   2.075 -1.1277  1.5585  0.6344
  561MOL0     H77351   8.406   3.505   1.983  0.4798  0.5876  0.8140
  561MOL0     H77352   8.424   3.630   2.088 -0.6972 -2.3315  0.0146
  561MOL0     H77353   8.657   3.674   1.986  0.9197  0.0894 -3.2751
  561MOL0     H77354   8.649   3.528   2.080  0.4626 -0.2715 -0.5876
  561MOL0     H77355   8.574   3.393   1.886 -0.6113 -0.6769  0.3455
  561MOL0     H77356   8.643   3.533   1.784 -2.7103  2.7843  1.6593
  561MOL0     H77357   8.812   3.393   2.006 -0.4185 -3.1659 -1.0783
  561MOL0     H77358   8.798   3.333   1.838  1.5193  0.3647 -1.3471
  561MOL0     H77359   8.868   3.626   1.905  1.7973 -0.3908  1.8351
  561MOL0     H77360   8.867   3.558   1.741 -2.6097  0.5897  0.7425
  561MOL0     H77361   9.109   3.568   1.865  0.9392 -1.0798 -2.5602
  561MOL0     H77362   9.038   3.447   1.966 -2.8359  0.1551 -0.2821
  561MOL0     H77363   9.030   3.414   1.662  2.0321  1.9060 -0.0715
  561MOL0     H77364   9.018   3.282   1.783  0.3550 -0.0557 -0.4404
  561MOL0     H77365   9.246   3.342   1.875 -1.7684 -0.6492  0.7458
  561MOL0     H77366   9.239   3.249   1.724 -1.4897 -1.1601  2.8592
  561MOL0     H77367   9.269   3.404   1.501  2.1452 -0.5921 -1.8221
  561MOL0     H77368   9.380   3.712   1.410 -1.1936 -2.3788 -2.9586
  561MOL0     H77369   9.427   3.549   1.357  0.3244 -1.3377 -0.0091
  561MOL0     H77370   9.594   3.745   1.343  2.2235 -2.1484 -0.0052
  561MOL0     H77371   9.584   3.752   1.521 -3.2551 -0.9084  1.4703
  561MOL0     H77372   9.711   3.517   1.357  0.1940  2.0318 -1.4771
  561MOL0     H77373   9.786   3.663   1.427  0.2859  0.0247  1.3299
  561MOL0     H77374   9.702   3.594   1.652 -2.3083 -1.8468  2.2958
  561MOL0     H77375   9.648   3.441   1.570  1.3137 -1.5179 -1.8174
  561MOL0     H77376  10.073   3.533   1.469  2.0269  2.3338 -0.1264
  561MOL0     H77377  10.287   3.565   1.452  0.1227  3.4921 -0.8749
  561MOL0     H77378  10.374   3.519   1.608 -1.1163 -0.2385  0.8796
  561MOL0     H77379  10.370   3.687   1.542 -0.5608 -0.2016 -6.7372
  561MOL0     H77380  10.288   3.923   2.073 -1.2699 -1.2174 -1.3722
  561MOL0     H77381  10.478   4.013   2.230  0.5429  1.5925 -1.2411
  561MOL0     H77382  10.815   3.813   2.154  0.2779 -0.5801  0.4595
  561MOL0     H77383  10.810   3.981   2.151  2.6496 -1.8950 -1.7385
  561MOL0     H77384  10.901   3.981   2.402 -1.1658 -0.6626 -0.0523
  561MOL0     H77385  10.946   3.816   2.387 -1.1992  0.6700  2.8278
  561MOL0     H77386  11.030   4.016   2.182 -2.3408 -1.0885  0.5187
  561MOL0     H77387  11.094   3.856   2.192 -0.3492 -0.5828 -0.2273
  561MOL0     H77388  11.196   3.902   2.418 -0.6279  1.3283  2.3761
  561MOL0     H77389  11.126   4.059   2.423 -0.7810  0.1331 -0.4280
  561MOL0     H77390  11.305   3.984   2.186 -0.1824  0.6443 -0.1089
  561MOL0     H77391  11.224   4.140   2.231 -0.6938  1.1196  1.7336
  561MOL0     H77392  11.423   3.971   2.381 -3.0898 -0.8452  2.6990
  561MOL0     H77393  11.381   4.128   2.454  0.3077 -0.8645  0.7497
  561MOL0     H77394  11.459   4.164   2.179  0.9880 -0.8893 -0.1264
  561MOL0     H77395  11.597   4.108   2.278  2.6541  2.8874  2.2571
  561MOL0     H77396  11.431   4.346   2.350  0.1101  2.1878 -5.9386
  561MOL0     H77397  11.574   4.353   2.260 -1.0329 -1.4275 -0.9850
  561MOL0     H77398  10.678   3.636   2.199 -0.0016 -0.5504 -3.0535
  561MOL0     H77399  10.491   3.543   2.059  1.0103 -0.2901  1.1116
  561MOL0     H77400  10.043   3.698   1.921 -0.1086 -0.2208  0.0929
  561MOL0     H77401   9.838   3.573   1.812  1.2871 -1.0956  1.3461
  561MOL0     H77402   8.293   3.834   1.723  0.7190 -0.6161  0.0549
  561MOL0     H77403   8.269   4.085   1.721  1.4905 -0.4324 -0.7332
  561MOL0     H77404   8.547   4.442   1.967  2.7102  1.1709  1.2924
  561MOL0     H77405   8.615   4.661   2.025 -1.4694  2.7435 -1.7571
  561MOL0     H77406   8.590   4.997   2.181  1.2798  0.1276 -0.7100
  561MOL0     H77407   8.668   4.852   2.128  2.5096  2.6940 -1.2949
  561MOL0     H77408   8.530   4.843   1.914 -1.9736  0.3914 -0.1721
  561MOL0     H77409   8.622   4.988   1.934 -1.0379  1.0943 -0.7868
  561MOL0     H77410   8.322   4.953   2.002 -1.9482  2.5826  0.3668
  561MOL0     H77411   8.427   5.097   2.028 -0.3725 -0.1512 -1.9689
  561MOL0     H77412   8.458   5.114   1.783 -1.3766  1.4103 -2.0695
  561MOL0     H77413   8.293   5.129   1.843 -2.3134 -0.9048 -3.2786
  561MOL0     H77414   8.258   4.800   1.564  1.3758 -0.4643 -0.2364
  561MOL0     H77415   8.257   4.697   2.259  1.5986  0.3713  0.6238
  561MOL0     H77416   8.068   4.426   2.137 -1.7001 -0.9825  1.8248
  561MOL0     H77417   8.166   4.398   2.278  0.8702  1.3241  1.1455
  561MOL0     H77418   8.089   4.555   2.252 -0.8816  0.3486 -1.4531
  562MOL0     O77419   9.392   7.979   6.029 -0.6354 -0.2669  0.1144
  562MOL0     C77420   9.347   8.075   6.093 -0.0333 -0.4965 -0.9568
  562MOL0     O77421   9.416   8.194   6.108  0.0729 -0.1967 -0.0960
  562MOL0     C77422   9.496   8.220   6.009 -0.0383  0.1833  0.1868
  562MOL0     C77423   9.460   8.213   5.873 -0.7041 -0.4534  0.3048
  562MOL0     C77424   9.541   8.254   5.769 -0.4290  0.5095  0.1747
  562MOL0     C77425   9.679   8.283   5.808 -0.6645 -0.3259  0.8351
  562MOL0     O77426   9.770   8.308   5.710 -1.4056  0.2156 -0.1950
  562MOL0     C77427   9.910   8.272   5.735 -0.1886  0.2233  0.3928
  562MOL0     C77428   9.990   8.265   5.606  0.3115 -0.1591  1.1356
  562MOL0     C77429  10.008   8.406   5.538 -0.2262  0.5118 -0.7532
  562MOL0     C77430  10.079   8.394   5.408  0.0371 -0.2042  0.3082
  562MOL0     C77431  10.224   8.332   5.421 -0.7912 -0.8707 -0.0479
  562MOL0     C77432  10.277   8.328   5.283 -0.5233 -0.2342 -0.3108
  562MOL0     C77433  10.433   8.335   5.283 -0.3613  0.9440 -0.0200
  562MOL0     C77434  10.501   8.279   5.158  0.2418  0.2116 -0.5790
  562MOL0     N77435  10.640   8.313   5.139 -0.0168  0.4239  0.4268
  562MOL0     C77436  10.687   8.425   5.072  0.2424  0.0185  0.1550
  562MOL0     C77437  10.816   8.408   5.060 -1.1837  0.6843 -0.3111
  562MOL0     C77438  10.921   8.511   5.005  0.5956 -0.3353  0.1607
  562MOL0     C77439  11.064   8.511   5.073  0.2788 -0.0494 -0.0418
  562MOL0     C77440  11.168   8.603   5.001 -0.0530  0.4830  0.2446
  562MOL0     C77441  11.290   8.630   5.080  0.9960  0.0949 -0.2760
  562MOL0     O77442  11.404   8.583   5.006 -0.1249  0.0633 -0.6380
  562MOL0     C77443  11.469   8.687   4.939  0.4125 -0.0671  0.8687
  562MOL0     C77444  11.404   8.778   4.853 -0.8986 -0.5077 -0.1096
  562MOL0     C77445  11.474   8.864   4.772 -0.0336 -0.0743 -0.5382
  562MOL0     C77446  11.391   8.953   4.686 -0.8298  0.3290  0.5175
  562MOL0     C77447  11.617   8.859   4.766 -0.4356  0.4048 -0.1979
  562MOL0     C77448  11.701   8.946   4.691 -0.6191  0.1981  0.5463
  562MOL0     O77449  11.814   8.997   4.754  0.1247 -0.4592 -0.4520
  562MOL0     C77450  11.879   9.095   4.685  0.3545 -0.1499  0.0638
  562MOL0     C77451  11.976   9.066   4.584 -0.5753 -0.3254  0.0940
  562MOL0     C77452  12.051   9.171   4.530 -0.1878 -0.6882  0.5007
  562MOL0     C77453  12.043   9.298   4.576  0.1312 -0.9262  0.0964
  562MOL0     O77454  12.126   9.394   4.514 -0.1998 -0.4412  0.0451
  562MOL0     C77455  12.152   9.515   4.582 -0.9780  0.5172  0.3306
  562MOL0     C77456  12.245   9.512   4.702  0.4479 -0.2487 -0.3459
  562MOL0     C77457  12.371   9.435   4.664 -1.4313 -0.0805  0.1196
  562MOL0     C77458  12.445   9.404   4.784  0.0756  1.0331  0.2298
  562MOL0     C77459  12.591   9.348   4.773  0.2652 -0.6204  0.4791
  562MOL0     C77460  12.664   9.348   4.912  0.0733 -0.5410 -0.9527
  562MOL0     C77461  12.593   9.293   5.032 -0.0051 -1.5879  0.6618
  562MOL0     C77462  12.660   9.182   5.113  1.0943 -0.7989 -0.3578
  562MOL0    Cl77463  12.764   9.250   5.252 -0.1627  0.1730 -0.0117
  562MOL0     C77464  11.939   9.328   4.661  0.3256  0.5854 -0.4669
  562MOL0     C77465  11.853   9.227   4.714  0.6601 -0.3184  0.5370
  562MOL0     O77466  11.685   8.956   4.567 -0.0205 -0.7201  0.1101
  562MOL0     C77467  11.677   8.764   4.844 -0.8159  0.6713 -0.3893
  562MOL0     C77468  11.602   8.682   4.932 -0.6372  0.0166  0.3070
  562MOL0     N77469  10.854   8.282   5.116 -0.5737 -0.7406  0.7453
  562MOL0     N77470  10.746   8.227   5.162  0.9057  0.3759  0.6147
  562MOL0     C77471   9.720   8.289   5.947  0.0256 -0.6158  0.3537
  562MOL0     C77472   9.626   8.256   6.041 -0.7299  0.1060 -0.6801
  562MOL0     C77473   9.220   8.056   6.167 -0.1868 -0.0341  0.0848
  562MOL0     C77474   9.159   8.167   6.223 -0.2455 -0.1744 -0.5359
  562MOL0     C77475   9.035   8.156   6.287 -0.5979  0.3205 -0.8740
  562MOL0     C77476   8.976   8.032   6.296  0.2956 -0.8481  0.1691
  562MOL0     O77477   8.839   8.018   6.332  0.3196  0.3292  0.0416
  562MOL0     C77478   8.759   8.129   6.361 -0.7418  0.4624  0.1646
  562MOL0     C77479   8.774   8.160   6.510  0.2963  0.6814 -0.0340
  562MOL0     C77480   8.673   8.254   6.574  0.1945 -0.0328  0.7662
  562MOL0     C77481   8.699   8.285   6.715  0.1086  0.3426  0.1478
  562MOL0     C77482   8.687   8.163   6.799 -0.1398 -0.0917 -0.2428
  562MOL0     C77483   8.684   8.051   6.863 -0.9945 -0.8595  0.1914
  562MOL0     C77484   9.042   7.923   6.251 -0.2356  0.1568  0.2242
  562MOL0     C77485   9.162   7.928   6.189  0.0406 -0.0820  0.3397
  562MOL0     C77486   9.220   7.790   6.161  0.1118  0.1245 -0.9336
  562MOL0     H77487   9.360   8.172   5.860 -0.5351 -0.4827 -1.0868
  562MOL0     H77488   9.521   8.264   5.662 -0.1629 -1.4367 -0.0830
  562MOL0     H77489   9.913   8.171   5.778  2.8196 -0.0623 -0.2891
  562MOL0     H77490   9.968   8.340   5.798  1.5595  0.2349 -1.1222
  562MOL0     H77491  10.088   8.224   5.632 -0.1215 -1.9900  0.0182
  562MOL0     H77492   9.953   8.187   5.540  0.4313 -0.5019  1.4704
  562MOL0     H77493   9.911   8.455   5.527 -1.5848 -0.2172  4.9378
  562MOL0     H77494  10.066   8.474   5.601 -1.1578  2.3282 -1.7883
  562MOL0     H77495  10.027   8.325   5.341  0.3855 -0.3967  0.2299
  562MOL0     H77496  10.084   8.493   5.363 -0.7199 -0.5505 -0.5649
  562MOL0     H77497  10.221   8.233   5.468  2.3533 -0.2263  1.8295
  562MOL0     H77498  10.289   8.386   5.490 -0.3140 -0.4619 -0.7958
  562MOL0     H77499  10.249   8.234   5.235 -2.0015  0.7392 -1.4485
  562MOL0     H77500  10.234   8.413   5.230 -0.1884  0.1546  0.0363
  562MOL0     H77501  10.482   8.275   5.360 -1.0940  1.9807  1.2890
  562MOL0     H77502  10.460   8.441   5.287 -0.6198  0.9778  1.2884
  562MOL0     H77503  10.485   8.171   5.166  1.7796  0.0456  0.7785
  562MOL0     H77504  10.452   8.312   5.065 -1.4112 -2.1357 -0.6619
  562MOL0     H77505  10.633   8.512   5.036 -3.0163 -2.3691 -1.2149
  562MOL0     H77506  10.877   8.611   5.001  0.8366 -0.2586 -1.6670
  562MOL0     H77507  10.938   8.489   4.899  1.1345  0.2224  0.1264
  562MOL0     H77508  11.049   8.532   5.179  2.9705 -1.2483  0.6498
  562MOL0     H77509  11.108   8.412   5.066  0.1215 -0.3851  2.7051
  562MOL0     H77510  11.195   8.558   4.905  0.2441  3.9763 -1.4911
  562MOL0     H77511  11.124   8.699   4.972 -0.9500 -0.2667 -0.9374
  562MOL0     H77512  11.304   8.736   5.104  2.2381  0.0656 -0.7683
  562MOL0     H77513  11.292   8.575   5.174 -2.3071  1.4383  0.7047
  562MOL0     H77514  11.296   8.787   4.849 -0.6751  4.5091 -0.8749
  562MOL0     H77515  11.330   8.880   4.632 -1.1050  2.0653 -1.6783
  562MOL0     H77516  11.450   9.014   4.617 -0.4648  0.8416  1.2691
  562MOL0     H77517  11.313   9.018   4.727 -0.7133  2.1400 -1.9324
  562MOL0     H77518  11.992   8.959   4.571  1.1489 -0.0404 -0.3278
  562MOL0     H77519  12.122   9.146   4.451 -0.1397 -3.2721  1.2799
  562MOL0     H77520  12.206   9.570   4.505 -0.0871 -0.9567 -0.1159
  562MOL0     H77521  12.059   9.569   4.606  0.2406  1.1517  4.3472
  562MOL0     H77522  12.272   9.612   4.739  0.3887 -1.5041  3.5709
  562MOL0     H77523  12.185   9.459   4.776 -1.0368  0.9510 -0.6464
  562MOL0     H77524  12.437   9.494   4.599  2.7854 -5.4483 -1.2370
  562MOL0     H77525  12.368   9.337   4.617  0.4325  0.0482 -0.3554
  562MOL0     H77526  12.389   9.326   4.836  1.0860  1.2807  1.7727
  562MOL0     H77527  12.435   9.489   4.852 -2.7105 -1.0121  2.6580
  562MOL0     H77528  12.601   9.243   4.742  0.8154 -0.0160 -1.5300
  562MOL0     H77529  12.652   9.402   4.700  1.4350 -1.0967  1.0776
  562MOL0     H77530  12.697   9.451   4.930  2.7679 -0.8949 -3.1557
  562MOL0     H77531  12.762   9.299   4.906  1.1521  1.5139 -1.0297
  562MOL0     H77532  12.499   9.250   4.995  0.1544 -3.1183  1.9532
  562MOL0     H77533  12.573   9.383   5.090  1.9650 -0.4436 -0.3309
  562MOL0     H77534  12.707   9.105   5.051  0.9301  0.1067 -1.6512
  562MOL0     H77535  12.579   9.137   5.171  0.6125  2.0209  1.3162
  562MOL0     H77536  11.919   9.431   4.689  1.9891 -0.0311  3.8530
  562MOL0     H77537  11.767   9.243   4.779  1.0735  1.2587  0.7186
  562MOL0     H77538  11.784   8.754   4.858 -1.0421 -1.9461 -0.0513
  562MOL0     H77539  11.659   8.614   4.994 -0.3757 -1.2704 -1.2972
  562MOL0     H77540   9.815   8.329   5.981 -0.8559  1.0362  0.9701
  562MOL0     H77541   9.656   8.262   6.145  0.5959  1.3956 -1.1105
  562MOL0     H77542   9.201   8.261   6.191  0.9728 -0.7374 -0.6352
  562MOL0     H77543   8.985   8.245   6.325 -2.1776  0.5807 -3.3676
  562MOL0     H77544   8.781   8.218   6.301  0.2707 -1.8025 -3.1088
  562MOL0     H77545   8.657   8.089   6.358 -0.7649  0.5432 -0.2393
  562MOL0     H77546   8.877   8.194   6.529  0.4954 -0.5330  1.1876
  562MOL0     H77547   8.771   8.068   6.568  4.4549  0.3493 -0.0196
  562MOL0     H77548   8.691   8.348   6.521 -0.0387 -0.4556 -0.0874
  562MOL0     H77549   8.575   8.207   6.556  0.2880  0.2392 -0.5482
  562MOL0     H77550   8.623   8.351   6.758 -2.4154 -3.2907  1.8046
  562MOL0     H77551   8.795   8.332   6.734  0.4687 -0.4996  0.4763
  562MOL0     H77552   8.697   7.963   6.923  2.8710 -1.9394 -1.9349
  562MOL0     H77553   8.991   7.833   6.285 -0.4514  0.2391  0.1137
  562MOL0     H77554   9.298   7.765   6.234 -0.9577 -0.8936 -0.1183
  562MOL0     H77555   9.136   7.721   6.168 -1.2196  1.8711  2.1327
  562MOL0     H77556   9.257   7.767   6.061 -3.1201 -0.1903 -2.1460
  563MOL0     O77557  10.991   0.069   2.171 -0.3034 -0.8183 -0.4743
  563MOL0     C77558  11.009  -0.037   2.115 -0.5249  0.0654 -0.0530
  563MOL0     O77559  11.131  -0.117   2.122 -1.0698 -0.0838  0.5367
  563MOL0     C77560  11.247  -0.099   2.204  0.4447 -0.0183  0.7410
  563MOL0     C77561  11.279   0.016   2.284  0.3068  0.3128  0.7716
  563MOL0     C77562  11.393   0.022   2.366  0.3064  0.2275  0.7681
  563MOL0     C77563  11.472  -0.085   2.380  0.9818  0.4594 -0.1570
  563MOL0     O77564  11.578  -0.091   2.475  0.4529  0.0504  0.3661
  563MOL0     C77565  11.664   0.015   2.454  0.4549 -0.0875  1.1461
  563MOL0     C77566  11.768   0.001   2.562  0.0102  0.1108  0.3906
  563MOL0     C77567  11.839  -0.140   2.576  0.5101  0.5437  0.4122
  563MOL0     C77568  11.988  -0.127   2.623 -1.1585  0.0027  0.4024
  563MOL0     C77569  12.076  -0.110   2.498  0.0272 -0.7089  0.4616
  563MOL0     C77570  12.223  -0.096   2.540 -0.2610  0.0789 -0.3969
  563MOL0     C77571  12.327  -0.124   2.432 -0.7500  0.3591 -0.0616
  563MOL0     C77572  12.441  -0.022   2.427  0.0409 -0.3456  0.1510
  563MOL0     N77573  12.551  -0.053   2.335  0.2281  0.1774  1.4595
  563MOL0     C77574  12.543  -0.062   2.193 -0.8112 -0.3244  0.0074
  563MOL0     C77575  12.669  -0.084   2.153  0.1420  0.4499  0.0126
  563MOL0     C77576  12.718  -0.096   2.010 -0.0008  0.2310 -0.3106
  563MOL0     C77577  12.616  -0.186   1.930  0.1915  0.4380 -1.0506
  563MOL0     C77578  12.679  -0.250   1.806  1.4572 -1.2006 -0.3225
  563MOL0     C77579  12.596  -0.370   1.762  0.4286 -0.2042 -0.0407
  563MOL0     O77580  12.462  -0.349   1.776  0.1885 -0.0612 -0.7850
  563MOL0     C77581  12.375  -0.436   1.717 -0.2336 -0.7240  1.0888
  563MOL0     C77582  12.239  -0.402   1.731  0.0286 -0.3276 -0.3859
  563MOL0     C77583  12.132  -0.472   1.661 -0.5813 -1.0795 -0.2352
  563MOL0     C77584  11.988  -0.415   1.663 -0.0830 -0.2832  0.5298
  563MOL0     C77585  12.179  -0.578   1.578  0.2122 -0.3620 -0.4292
  563MOL0     C77586  12.087  -0.657   1.490 -0.3254  0.1562  0.2196
  563MOL0     O77587  11.976  -0.589   1.426  0.4722 -0.3209  0.0705
  563MOL0     C77588  11.914  -0.652   1.317 -0.2323 -0.7727 -0.0352
  563MOL0     C77589  11.971  -0.738   1.225 -0.0766 -0.1336  0.6130
  563MOL0     C77590  11.890  -0.786   1.112 -0.6846 -1.1233  0.2183
  563MOL0     C77591  11.750  -0.748   1.106  0.3209  0.2807 -0.1983
  563MOL0     O77592  11.659  -0.781   1.008 -1.2428 -0.3893  0.1939
  563MOL0     C77593  11.669  -0.908   0.944 -0.1901  1.4593 -0.0874
  563MOL0     C77594  11.537  -0.938   0.866  0.6082 -0.2853 -0.1755
  563MOL0     C77595  11.567  -1.068   0.792 -0.1126  0.1377 -0.6839
  563MOL0     C77596  11.450  -1.098   0.693 -0.6359 -0.1165  0.0871
  563MOL0     C77597  11.456  -1.005   0.577 -0.3267  0.0322  0.5168
  563MOL0     C77598  11.340  -1.029   0.489  0.3490  0.0541 -0.1185
  563MOL0     C77599  11.343  -1.179   0.447 -0.2635  0.1315 -0.5641
  563MOL0     C77600  11.298  -1.201   0.299 -0.6243 -0.1403  1.1298
  563MOL0    Cl77601  11.308  -1.383   0.276  0.2593 -0.3647 -0.1588
  563MOL0     C77602  11.704  -0.654   1.197 -0.4324  0.1858  0.0818
  563MOL0     C77603  11.785  -0.605   1.296  1.1289  0.3115 -0.3194
  563MOL0     O77604  12.113  -0.777   1.480  0.3408  0.0570 -0.5155
  563MOL0     C77605  12.315  -0.623   1.574  0.9544  0.4324  0.2797
  563MOL0     C77606  12.409  -0.551   1.636  0.1930 -0.0762  0.2153
  563MOL0     N77607  12.747  -0.089   2.266 -0.8038 -0.1049 -0.1152
  563MOL0     N77608  12.679  -0.072   2.372 -0.0876  0.3146 -0.4697
  563MOL0     C77609  11.440  -0.201   2.312  0.3353  0.1253  0.2571
  563MOL0     C77610  11.335  -0.206   2.214  0.3676  1.0303  0.3378
  563MOL0     C77611  10.878  -0.078   2.056  0.0124  0.1712  0.0651
  563MOL0     C77612  10.875  -0.215   2.014  0.3195 -1.0941 -0.2263
  563MOL0     C77613  10.766  -0.269   1.948  0.0808  0.0702 -0.6965
  563MOL0     C77614  10.669  -0.191   1.892 -0.0038  0.2263  0.3081
  563MOL0     O77615  10.582  -0.229   1.797 -0.0393  0.8079  0.0973
  563MOL0     C77616  10.490  -0.330   1.831  0.1381  0.4476 -0.3701
  563MOL0     C77617  10.390  -0.291   1.945 -0.7278  0.3596 -0.0709
  563MOL0     C77618  10.296  -0.400   1.977 -0.0485 -0.7847 -1.1739
  563MOL0     C77619  10.214  -0.370   2.102  0.5722 -0.2693 -0.0317
  563MOL0     C77620  10.282  -0.366   2.229  0.5232 -1.0572 -0.3645
  563MOL0     C77621  10.333  -0.353   2.339 -0.3087 -0.0685 -1.2556
  563MOL0     C77622  10.651  -0.064   1.953 -0.4929  1.0918 -0.0065
  563MOL0     C77623  10.758  -0.001   2.031  0.2493  0.1605  0.4200
  563MOL0     C77624  10.736   0.141   2.063 -0.1467  0.7199  0.1975
  563MOL0     H77625  11.206   0.096   2.274  0.5096  0.3656 -0.3798
  563MOL0     H77626  11.410   0.103   2.435 -1.3863  1.1594  0.1267
  563MOL0     H77627  11.611   0.110   2.473  2.5912  1.0342  1.8315
  563MOL0     H77628  11.706   0.020   2.353 -0.2814 -0.2185  0.8245
  563MOL0     H77629  11.842   0.076   2.531 -1.7277  2.9503  2.5987
  563MOL0     H77630  11.738   0.020   2.665  0.5846 -1.0265  0.7864
  563MOL0     H77631  11.789  -0.195   2.657  0.0387  1.6273  0.8753
  563MOL0     H77632  11.827  -0.199   2.485  0.9034  2.3551 -0.8536
  563MOL0     H77633  11.983  -0.040   2.689 -1.9548 -1.0770  1.8053
  563MOL0     H77634  12.024  -0.214   2.678 -2.7106 -1.2102 -0.3877
  563MOL0     H77635  12.043  -0.034   2.426 -2.4538 -0.2517  1.9537
  563MOL0     H77636  12.072  -0.206   2.446  1.5886  0.1759 -1.4324
  563MOL0     H77637  12.233  -0.002   2.595 -0.0134 -1.9206  3.2762
  563MOL0     H77638  12.244  -0.176   2.612 -0.9865 -0.4274 -0.7393
  563MOL0     H77639  12.281  -0.138   2.333  2.2998 -2.2241 -1.2608
  563MOL0     H77640  12.380  -0.217   2.452  2.2512  1.9479 -0.0580
  563MOL0     H77641  12.407   0.076   2.392 -0.9032  0.2165  2.4670
  563MOL0     H77642  12.497  -0.012   2.520  2.6870 -2.6469 -1.0709
  563MOL0     H77643  12.459  -0.050   2.126 -0.1626  3.2829 -0.3550
  563MOL0     H77644  12.821  -0.134   2.008  0.5000  1.4661 -3.0331
  563MOL0     H77645  12.720   0.003   1.964  0.9377  1.9058  3.0123
  563MOL0     H77646  12.574  -0.261   1.997  0.2688 -1.0447 -2.5768
  563MOL0     H77647  12.528  -0.125   1.903  1.4155  0.9699 -4.3213
  563MOL0     H77648  12.683  -0.176   1.726 -1.7017 -0.4679  0.0443
  563MOL0     H77649  12.781  -0.284   1.826  0.7757 -1.3080  4.0927
  563MOL0     H77650  12.623  -0.386   1.658 -3.3951  2.8820 -1.7987
  563MOL0     H77651  12.631  -0.458   1.816 -0.8234 -1.8111 -1.7285
  563MOL0     H77652  12.212  -0.310   1.781 -2.1761 -0.9485 -0.3249
  563MOL0     H77653  11.907  -0.486   1.646 -0.5193  0.7166 -2.2554
  563MOL0     H77654  11.975  -0.345   1.579  0.6473  0.8219  1.3088
  563MOL0     H77655  11.969  -0.362   1.757  0.9383  0.7520  0.1760
  563MOL0     H77656  12.077  -0.761   1.231 -0.0213 -0.2751 -0.6546
  563MOL0     H77657  11.933  -0.863   1.049  1.1107 -1.8860  2.2688
  563MOL0     H77658  11.755  -0.915   0.876 -0.5486 -0.4279 -0.3939
  563MOL0     H77659  11.672  -0.983   1.023 -2.5996 -0.2831 -1.5484
  563MOL0     H77660  11.455  -0.947   0.938  1.6609  1.1337  1.2670
  563MOL0     H77661  11.509  -0.850   0.805  1.1801  1.1345  1.5305
  563MOL0     H77662  11.578  -1.147   0.867  4.6166  1.1844  0.0277
  563MOL0     H77663  11.665  -1.056   0.744  0.4350  1.2928  0.6711
  563MOL0     H77664  11.356  -1.093   0.748  1.6613  0.6245  4.4678
  563MOL0     H77665  11.464  -1.203   0.666  2.9266  0.3066 -0.1998
  563MOL0     H77666  11.447  -0.903   0.615  1.3857 -0.0539  1.2351
  563MOL0     H77667  11.548  -1.009   0.519  1.6472  2.8853  3.1004
  563MOL0     H77668  11.328  -0.969   0.398 -2.6445  0.6910  0.5972
  563MOL0     H77669  11.247  -1.010   0.542  0.0425  0.6213 -0.8425
  563MOL0     H77670  11.276  -1.246   0.501  0.4315 -0.2205 -0.1156
  563MOL0     H77671  11.443  -1.221   0.465  0.0199  1.1499  0.3089
  563MOL0     H77672  11.360  -1.140   0.233 -0.8564 -2.1123 -1.0098
  563MOL0     H77673  11.190  -1.183   0.303 -1.2971 -3.5426  0.9042
  563MOL0     H77674  11.605  -0.616   1.172  0.8228  3.7224 -0.0924
  563MOL0     H77675  11.729  -0.533   1.355 -0.5932 -1.7078  0.6457
  563MOL0     H77676  12.345  -0.705   1.509 -0.5029 -0.6347  0.9031
  563MOL0     H77677  12.507  -0.598   1.643  0.3221  0.3386  1.3468
  563MOL0     H77678  11.490  -0.296   2.329 -0.8823 -0.0827  3.3299
  563MOL0     H77679  11.306  -0.301   2.170  1.2812  0.4140  1.0218
  563MOL0     H77680  10.961  -0.280   2.017  0.1735 -1.3217 -0.7104
  563MOL0     H77681  10.779  -0.373   1.918 -0.9794 -0.4497  0.5409
  563MOL0     H77682  10.421  -0.345   1.747 -2.9866 -0.5902  2.1930
  563MOL0     H77683  10.532  -0.430   1.843 -1.3075 -0.1717 -0.2115
  563MOL0     H77684  10.332  -0.202   1.918 -0.7815  2.0651  4.6711
  563MOL0     H77685  10.445  -0.256   2.033  1.0344  2.2266 -1.8028
  563MOL0     H77686  10.217  -0.400   1.901  1.6267  0.3601 -2.9810
  563MOL0     H77687  10.351  -0.495   1.980  1.0137 -0.1938 -1.6542
  563MOL0     H77688  10.145  -0.454   2.113  0.3249 -0.5170 -2.7728
  563MOL0     H77689  10.160  -0.277   2.087  1.5886  0.1790 -1.1137
  563MOL0     H77690  10.382  -0.353   2.434  0.1226  0.2699 -1.4749
  563MOL0     H77691  10.568  -0.011   1.908 -1.3876 -1.0363 -1.0084
  563MOL0     H77692  10.650   0.189   2.017 -0.5630 -2.3167 -2.5206
  563MOL0     H77693  10.738   0.157   2.171  2.1719  1.1293  0.1561
  563MOL0     H77694  10.819   0.205   2.030  0.6617 -1.8044 -3.1796
  564MOL0     O77695   1.976   1.344   3.443 -0.0170 -1.0542  0.1500
  564MOL0     C77696   2.081   1.335   3.507  0.7028 -0.3481 -1.0070
  564MOL0     O77697   2.195   1.309   3.452 -0.5884 -0.0681  0.2528
  564MOL0     C77698   2.195   1.278   3.314  0.4816  0.0312  0.0083
  564MOL0     C77699   2.185   1.384   3.219  0.3414 -0.1966  0.5265
  564MOL0     C77700   2.194   1.360   3.083 -0.1596  0.8902  0.5555
  564MOL0     C77701   2.194   1.226   3.031  0.3475  0.5199  0.6050
  564MOL0     O77702   2.181   1.212   2.894 -1.0357  0.1275 -0.0532
  564MOL0     C77703   2.058   1.156   2.843  0.2131  0.2243 -0.3244
  564MOL0     C77704   2.005   1.215   2.707  0.4461 -0.5382  0.8283
  564MOL0     C77705   1.944   1.352   2.722  0.1229 -0.5261 -0.1647
  564MOL0     C77706   1.829   1.350   2.824  0.0714  0.7236  0.2535
  564MOL0     C77707   1.782   1.499   2.827 -0.5304  0.2047  0.4925
  564MOL0     C77708   1.642   1.526   2.895  0.2079  0.5007 -0.4516
  564MOL0     C77709   1.611   1.680   2.893 -0.3324  0.6408 -0.5003
  564MOL0     C77710   1.485   1.707   2.966  0.2636  0.5935  0.8664
  564MOL0     N77711   1.367   1.732   2.877 -0.7730  0.8755  0.5063
  564MOL0     C77712   1.330   1.664   2.767 -0.5472  0.4823 -0.3192
  564MOL0     C77713   1.208   1.702   2.735  0.1145  0.3847  0.2699
  564MOL0     C77714   1.138   1.633   2.618  0.2033  0.3412  0.6247
  564MOL0     C77715   1.185   1.686   2.482  0.2754  0.1150 -0.3733
  564MOL0     C77716   1.203   1.834   2.461 -0.3463 -0.0695  0.4015
  564MOL0     C77717   1.242   1.860   2.316  0.5730  0.8226 -0.3299
  564MOL0     O77718   1.266   2.004   2.290  0.1269  0.2438 -0.2373
  564MOL0     C77719   1.355   2.043   2.190 -0.6469  1.1144  0.3021
  564MOL0     C77720   1.415   1.962   2.096 -0.3814  0.0889  0.0288
  564MOL0     C77721   1.514   2.004   2.009  0.1191  0.0593  0.7733
  564MOL0     C77722   1.570   1.911   1.907 -0.5340 -1.0056  0.3017
  564MOL0     C77723   1.557   2.136   2.012  0.3315  0.1230  0.2102
  564MOL0     C77724   1.668   2.200   1.917 -0.0091  1.1506 -0.1479
  564MOL0     O77725   1.755   2.111   1.857  0.4657 -0.5392  0.3405
  564MOL0     C77726   1.851   2.172   1.777 -0.0253 -0.4830 -0.3134
  564MOL0     C77727   1.815   2.258   1.671 -0.2062  1.0821 -0.3920
  564MOL0     C77728   1.922   2.319   1.600  0.4118 -0.5381 -0.1085
  564MOL0     C77729   2.056   2.293   1.636  0.4901 -0.4467  0.0049
  564MOL0     O77730   2.148   2.359   1.568 -0.1586 -0.4066  0.9232
  564MOL0     C77731   2.270   2.394   1.642 -0.0416  1.0620 -1.1796
  564MOL0     C77732   2.390   2.336   1.569  0.7141  0.1156 -0.1747
  564MOL0     C77733   2.390   2.407   1.425  0.2516  0.0512  0.5456
  564MOL0     C77734   2.518   2.409   1.356 -0.3455 -0.0128  0.0575
  564MOL0     C77735   2.614   2.515   1.424  0.3477  0.5776 -0.3564
  564MOL0     C77736   2.704   2.578   1.319  0.7518 -0.6388  0.4594
  564MOL0     C77737   2.792   2.687   1.382 -0.7244  0.3589  0.3421
  564MOL0     C77738   2.894   2.643   1.471 -0.1848  1.2604  0.2375
  564MOL0    Cl77739   2.989   2.785   1.519  0.4574 -0.0313  0.2650
  564MOL0     C77740   2.087   2.194   1.736  0.1099 -0.3689  0.3932
  564MOL0     C77741   1.986   2.136   1.807  0.2891  0.3126 -0.1752
  564MOL0     O77742   1.672   2.321   1.915 -0.2375  0.1054 -0.0761
  564MOL0     C77743   1.488   2.220   2.108  0.3573  0.4729 -0.0432
  564MOL0     C77744   1.390   2.174   2.192 -0.0366 -0.0385 -0.0923
  564MOL0     N77745   1.176   1.807   2.817 -0.6304 -0.0847 -0.4870
  564MOL0     N77746   1.274   1.824   2.904  0.5057 -1.2886 -0.3115
  564MOL0     C77747   2.211   1.119   3.130  0.3421  0.2322  0.7707
  564MOL0     C77748   2.215   1.148   3.264  0.2179  0.2556 -0.3927
  564MOL0     C77749   2.058   1.331   3.657  0.3165 -0.5326 -0.7688
  564MOL0     C77750   2.071   1.209   3.709 -0.3290  0.0852  0.1142
  564MOL0     C77751   2.024   1.184   3.841 -0.0738 -0.6089  1.2903
  564MOL0     C77752   1.994   1.289   3.924 -0.4386  0.8000  0.2217
  564MOL0     O77753   1.956   1.251   4.053  0.7543  0.0384  0.7178
  564MOL0     C77754   1.897   1.346   4.143  0.4589 -0.4593  0.9057
  564MOL0     C77755   1.837   1.256   4.256  0.5007 -0.6751 -0.2859
  564MOL0     C77756   1.741   1.333   4.349  0.8150 -0.2594  0.7628
  564MOL0     C77757   1.715   1.269   4.481 -0.4504  0.1837 -0.2603
  564MOL0     C77758   1.639   1.361   4.571 -0.1631 -0.1850 -1.1497
  564MOL0     C77759   1.598   1.445   4.647 -0.3107  0.0300 -0.2878
  564MOL0     C77760   1.993   1.426   3.876 -0.0672  0.0796  1.1733
  564MOL0     C77761   2.029   1.442   3.738  0.2385 -0.9371 -0.1960
  564MOL0     C77762   2.004   1.577   3.678  0.3172 -0.6882  0.9265
  564MOL0     H77763   2.159   1.480   3.263 -1.5006 -1.4816  2.4711
  564MOL0     H77764   2.176   1.440   3.012 -2.9231 -1.9289 -2.2282
  564MOL0     H77765   1.985   1.163   2.923  0.0218  3.4529 -0.6512
  564MOL0     H77766   2.079   1.050   2.822  2.0156  0.2442  1.1484
  564MOL0     H77767   2.086   1.231   2.635  1.8958  2.7420  2.9845
  564MOL0     H77768   1.931   1.149   2.662 -0.8297 -0.0110  2.0793
  564MOL0     H77769   2.019   1.425   2.755 -3.6251  3.4386  0.5815
  564MOL0     H77770   1.910   1.381   2.622 -0.3141 -0.5634 -0.0268
  564MOL0     H77771   1.753   1.272   2.807  1.8096 -1.3965  1.6994
  564MOL0     H77772   1.855   1.335   2.929  0.7173  0.1402  0.0120
  564MOL0     H77773   1.780   1.537   2.725 -1.4745  0.2002  0.5038
  564MOL0     H77774   1.859   1.553   2.884 -1.5770  0.2786  1.8991
  564MOL0     H77775   1.564   1.473   2.840  0.0653 -0.9916  1.0840
  564MOL0     H77776   1.654   1.480   2.994 -1.4782 -0.0297 -0.4646
  564MOL0     H77777   1.608   1.722   2.792 -2.2418  0.5308 -0.5103
  564MOL0     H77778   1.694   1.727   2.947  0.2422 -1.2536  0.3406
  564MOL0     H77779   1.465   1.627   3.038  0.8470 -0.6193 -0.2583
  564MOL0     H77780   1.499   1.790   3.036 -0.3515  0.1834  1.4879
  564MOL0     H77781   1.386   1.582   2.723 -1.7402 -0.9055  0.6123
  564MOL0     H77782   1.030   1.654   2.622  0.6577  3.5508 -0.6628
  564MOL0     H77783   1.153   1.526   2.633  2.1688  0.5348  0.2335
  564MOL0     H77784   1.281   1.637   2.466 -0.4514 -1.0408 -1.4071
  564MOL0     H77785   1.113   1.641   2.412  1.0392  1.2028 -1.9254
  564MOL0     H77786   1.103   1.878   2.467 -1.5009 -2.4529 -0.4122
  564MOL0     H77787   1.287   1.880   2.515  1.4463 -1.1199 -1.3768
  564MOL0     H77788   1.340   1.816   2.296  1.2860  0.9825  2.4434
  564MOL0     H77789   1.171   1.808   2.251 -0.8884 -0.8824  2.4724
  564MOL0     H77790   1.403   1.854   2.100  0.7842 -0.1040 -0.9488
  564MOL0     H77791   1.678   1.890   1.910 -0.4937 -0.7091  1.2989
  564MOL0     H77792   1.545   1.958   1.811  0.5192  0.0472  0.5118
  564MOL0     H77793   1.528   1.811   1.920  0.8049 -1.7522 -0.8536
  564MOL0     H77794   1.713   2.274   1.637 -1.0433 -0.3079  1.3350
  564MOL0     H77795   1.904   2.402   1.532  0.7786 -0.2787  0.1098
  564MOL0     H77796   2.280   2.502   1.655  0.3015  0.7100  2.6413
  564MOL0     H77797   2.272   2.352   1.743 -0.3679 -1.8911 -2.3291
  564MOL0     H77798   2.481   2.370   1.619  1.5552 -0.8917 -0.9623
  564MOL0     H77799   2.370   2.229   1.562 -3.6888  0.7788 -0.0995
  564MOL0     H77800   2.363   2.513   1.435 -1.1875 -0.4108  1.8940
  564MOL0     H77801   2.311   2.375   1.355  2.5617 -0.0859 -2.1702
  564MOL0     H77802   2.506   2.419   1.248  1.3833  0.8421 -0.0835
  564MOL0     H77803   2.576   2.317   1.370 -1.8948 -1.4533 -2.3199
  564MOL0     H77804   2.561   2.591   1.482 -0.6771  0.4757 -1.1316
  564MOL0     H77805   2.674   2.454   1.492 -0.6217  0.9001  0.8191
  564MOL0     H77806   2.642   2.619   1.239 -0.4832 -0.7627  1.3246
  564MOL0     H77807   2.762   2.498   1.272  1.3946 -1.1701  2.1050
  564MOL0     H77808   2.724   2.754   1.436 -0.6574  1.6380 -1.1046
  564MOL0     H77809   2.847   2.746   1.309 -0.8164 -0.9514 -0.8229
  564MOL0     H77810   2.955   2.573   1.414 -1.2072  0.0081  0.6194
  564MOL0     H77811   2.854   2.599   1.563  0.2441 -1.9427 -0.9615
  564MOL0     H77812   2.190   2.165   1.755 -0.0500  0.0641  2.1169
  564MOL0     H77813   2.014   2.058   1.877  0.0987 -0.6964 -1.1862
  564MOL0     H77814   1.510   2.327   2.110 -1.8958  1.0265 -1.5449
  564MOL0     H77815   1.329   2.235   2.259 -1.0755  1.0734 -1.9595
  564MOL0     H77816   2.209   1.016   3.096 -0.4252  0.7575 -0.9349
  564MOL0     H77817   2.214   1.071   3.341  1.5701  1.5303  0.9416
  564MOL0     H77818   2.110   1.122   3.657  1.5224 -1.8620  4.3042
  564MOL0     H77819   2.034   1.083   3.879 -1.6675 -1.5401 -0.5705
  564MOL0     H77820   1.965   1.417   4.190 -0.0974 -0.7125  2.1210
  564MOL0     H77821   1.818   1.398   4.087  1.0764  1.0819  1.4195
  564MOL0     H77822   1.927   1.217   4.305 -0.2510  0.1325  1.9080
  564MOL0     H77823   1.783   1.167   4.222 -2.2055 -0.8515  3.7399
  564MOL0     H77824   1.780   1.434   4.363  0.5272 -0.1453  0.7387
  564MOL0     H77825   1.646   1.342   4.296 -0.3526 -2.7110  2.2468
  564MOL0     H77826   1.804   1.246   4.540 -0.3922 -2.8403 -1.3702
  564MOL0     H77827   1.667   1.171   4.472  2.7582 -1.6620  1.2209
  564MOL0     H77828   1.567   1.527   4.709 -1.3640  0.5512 -1.4649
  564MOL0     H77829   1.972   1.513   3.938  1.2894  0.7920  0.6730
  564MOL0     H77830   2.077   1.592   3.597 -2.3033  0.1741 -1.4236
  564MOL0     H77831   1.910   1.592   3.624  1.4868 -1.6975 -1.5833
  564MOL0     H77832   2.015   1.657   3.751  1.2935 -0.4516  0.5375
  565MOL0     O77833   9.304   7.115   8.284 -0.2166  0.4687 -0.4882
  565MOL0     C77834   9.282   7.007   8.233  0.3801  0.0733 -0.2348
  565MOL0     O77835   9.369   6.905   8.229  0.1614 -0.0234 -0.0640
  565MOL0     C77836   9.506   6.920   8.250  0.5943 -0.4712  0.0841
  565MOL0     C77837   9.601   6.883   8.152  0.4257  0.3202 -0.1317
  565MOL0     C77838   9.738   6.915   8.154  0.0645  0.3284  0.5412
  565MOL0     C77839   9.787   6.977   8.269 -0.5117 -0.6769  0.0597
  565MOL0     O77840   9.918   7.016   8.289 -0.0423 -0.1273 -0.2054
  565MOL0     C77841  10.026   6.946   8.226  0.0984  0.2513  0.4522
  565MOL0     C77842  10.160   6.975   8.288  0.2219 -0.7253 -0.3934
  565MOL0     C77843  10.212   7.113   8.235 -0.2080  0.9109 -0.5353
  565MOL0     C77844  10.328   7.144   8.330 -0.3587  0.2254 -0.2574
  565MOL0     C77845  10.451   7.062   8.294  0.5718 -0.0508  0.3156
  565MOL0     C77846  10.573   7.152   8.295  0.2424 -0.7091  0.2023
  565MOL0     C77847  10.596   7.228   8.423  0.2306  0.3539 -0.6641
  565MOL0     C77848  10.645   7.133   8.528 -0.4590 -0.6969 -0.2658
  565MOL0     N77849  10.707   7.193   8.649 -0.0699  0.6441  0.2411
  565MOL0     C77850  10.822   7.267   8.645 -0.2197 -0.0147  0.8922
  565MOL0     C77851  10.850   7.283   8.778  0.6038  0.3457  0.5101
  565MOL0     C77852  10.992   7.315   8.819 -0.0124 -0.2290 -0.5211
  565MOL0     C77853  11.013   7.463   8.793  1.1014 -0.6257 -0.1567
  565MOL0     C77854  10.924   7.547   8.885  0.0323 -0.0006 -0.2293
  565MOL0     C77855  10.899   7.687   8.848 -0.3750 -0.1824 -0.5878
  565MOL0     O77856  10.848   7.692   8.713 -0.6636  0.2949 -0.6284
  565MOL0     C77857  10.736   7.635   8.677  1.2252  0.4141  0.7253
  565MOL0     C77858  10.720   7.652   8.537  0.3216 -0.4974  0.1907
  565MOL0     C77859  10.604   7.611   8.476  0.1711 -0.3331  0.2037
  565MOL0     C77860  10.612   7.615   8.323 -0.5672 -0.3607 -1.0989
  565MOL0     C77861  10.490   7.566   8.555 -0.5915 -0.4427  0.3637
  565MOL0     C77862  10.358   7.529   8.496 -0.4666  0.4956 -0.0824
  565MOL0     O77863  10.245   7.533   8.575  0.3852 -0.3822  0.2452
  565MOL0     C77864  10.125   7.498   8.509  0.6188  0.1219  0.3785
  565MOL0     C77865  10.032   7.600   8.477  0.1214 -0.1723  1.2801
  565MOL0     C77866   9.912   7.568   8.405 -0.2278  0.3320  0.4901
  565MOL0     C77867   9.885   7.435   8.380 -0.3805 -1.0141  0.7003
  565MOL0     O77868   9.764   7.398   8.322 -0.5635  0.7633 -0.3831
  565MOL0     C77869   9.664   7.379   8.416  0.2309  0.9035 -0.9094
  565MOL0     C77870   9.538   7.363   8.330  0.4819 -0.2909  0.4508
  565MOL0     C77871   9.484   7.504   8.288  0.1304 -1.3189 -0.1669
  565MOL0     C77872   9.352   7.491   8.216  0.4215  0.1581 -0.4546
  565MOL0     C77873   9.320   7.630   8.178 -0.3796 -1.0213  0.4086
  565MOL0     C77874   9.379   7.689   8.055 -0.1534 -0.7985  0.1928
  565MOL0     C77875   9.286   7.787   7.991 -0.8775  0.3806 -0.9461
  565MOL0     C77876   9.336   7.852   7.867 -0.0685  0.5355 -0.0744
  565MOL0    Cl77877   9.316   7.737   7.738  0.2600 -0.0720 -0.1868
  565MOL0     C77878   9.967   7.332   8.426 -0.1138  0.6093  0.2696
  565MOL0     C77879  10.085   7.365   8.488  0.5947  0.5394 -0.5087
  565MOL0     O77880  10.361   7.491   8.381 -0.7424 -0.6273 -0.0482
  565MOL0     C77881  10.501   7.562   8.693  0.5415  0.1261  0.4003
  565MOL0     C77882  10.621   7.591   8.759 -0.2914  0.6074  0.2028
  565MOL0     N77883  10.756   7.223   8.850  0.2196 -0.0082 -0.6749
  565MOL0     N77884  10.672   7.174   8.775  0.3507 -0.5030 -0.2250
  565MOL0     C77885   9.693   7.014   8.372 -0.7229 -0.9790 -0.5756
  565MOL0     C77886   9.553   6.996   8.359 -0.2337 -0.3110  0.8318
  565MOL0     C77887   9.145   6.998   8.175 -0.1508  0.1790  0.1572
  565MOL0     C77888   9.039   7.058   8.248 -0.4980  0.5395 -0.4098
  565MOL0     C77889   8.905   7.045   8.196  0.4613  0.0391 -0.3205
  565MOL0     C77890   8.879   6.969   8.082 -0.6160 -0.8728 -0.3155
  565MOL0     O77891   8.747   6.968   8.062  0.6827 -0.6549  0.4613
  565MOL0     C77892   8.691   6.854   7.991 -0.4353 -0.5024  0.3574
  565MOL0     C77893   8.586   6.780   8.075 -0.6596 -0.0066  0.0605
  565MOL0     C77894   8.451   6.857   8.082  0.9885 -0.3501 -0.4116
  565MOL0     C77895   8.445   6.944   8.208 -0.2961  0.1796  1.0578
  565MOL0     C77896   8.310   7.012   8.218  0.1063 -0.1666 -0.1319
  565MOL0     C77897   8.197   7.063   8.219  0.4206  0.0864 -0.7975
  565MOL0     C77898   8.986   6.915   8.008  0.0778 -0.2848 -0.6255
  565MOL0     C77899   9.113   6.929   8.055  0.4530 -0.0956 -0.0123
  565MOL0     C77900   9.220   6.868   7.972  0.4502 -0.5018  0.3724
  565MOL0     H77901   9.558   6.839   8.063 -1.5479 -0.9066  1.3468
  565MOL0     H77902   9.806   6.894   8.072  1.1079  0.1788  1.4196
  565MOL0     H77903  10.031   6.971   8.120  0.6764  2.8497  1.0240
  565MOL0     H77904  10.016   6.837   8.233 -1.7995  0.3499 -0.1361
  565MOL0     H77905  10.153   6.963   8.397 -2.2981 -0.7230 -0.4980
  565MOL0     H77906  10.227   6.896   8.254  1.2846 -1.1816  2.5114
  565MOL0     H77907  10.244   7.107   8.131  1.6965 -0.2114  0.0654
  565MOL0     H77908  10.139   7.191   8.258 -1.3995 -0.3259  0.0568
  565MOL0     H77909  10.343   7.251   8.315 -1.5340  0.6064  1.0470
  565MOL0     H77910  10.298   7.140   8.435 -2.3032 -2.1043 -0.8166
  565MOL0     H77911  10.438   7.032   8.189 -1.0521  0.1571  0.4205
  565MOL0     H77912  10.450   6.972   8.357 -0.6446 -0.6158 -0.4541
  565MOL0     H77913  10.660   7.113   8.242 -0.1857 -3.1624  1.1740
  565MOL0     H77914  10.543   7.232   8.226 -0.2060  1.0692  2.3422
  565MOL0     H77915  10.517   7.294   8.461  1.0655  1.6987 -1.1782
  565MOL0     H77916  10.685   7.290   8.407 -0.6086  1.8313  0.1210
  565MOL0     H77917  10.566   7.065   8.560 -1.1601 -1.8355 -3.9272
  565MOL0     H77918  10.718   7.069   8.478 -2.7798 -2.0961 -2.0355
  565MOL0     H77919  10.870   7.295   8.552  0.2819 -0.1877  1.0959
  565MOL0     H77920  11.071   7.256   8.772  2.2156  2.1876 -0.0789
  565MOL0     H77921  10.996   7.297   8.927  1.3885  1.1164 -0.3239
  565MOL0     H77922  11.114   7.499   8.813  1.6747 -0.4926 -2.8089
  565MOL0     H77923  10.984   7.479   8.688 -2.4309  0.1316  0.8086
  565MOL0     H77924  10.827   7.497   8.895  0.3035 -0.1562  2.3243
  565MOL0     H77925  10.963   7.552   8.987  0.4893  0.8322 -0.4345
  565MOL0     H77926  10.821   7.716   8.919 -2.4783 -1.6283 -2.2009
  565MOL0     H77927  10.989   7.750   8.852 -1.6376  1.7201 -0.5108
  565MOL0     H77928  10.809   7.675   8.478 -0.9323 -1.6480 -2.2951
  565MOL0     H77929  10.576   7.528   8.268  1.0021  0.4552 -3.5624
  565MOL0     H77930  10.716   7.630   8.292  0.1660 -0.7614  0.9412
  565MOL0     H77931  10.543   7.694   8.292 -1.8579 -1.1749 -0.4060
  565MOL0     H77932  10.041   7.708   8.483 -2.2280  0.3312 -1.5237
  565MOL0     H77933   9.835   7.640   8.381 -1.4572 -1.3685 -0.8407
  565MOL0     H77934   9.675   7.295   8.484 -2.4658  1.1040 -0.1361
  565MOL0     H77935   9.654   7.464   8.484 -2.4711  0.1979 -0.3101
  565MOL0     H77936   9.560   7.297   8.247 -1.5133  0.3392 -0.6548
  565MOL0     H77937   9.458   7.331   8.398 -1.2031  3.7179  0.6930
  565MOL0     H77938   9.565   7.539   8.222  0.8892 -3.1079 -0.2309
  565MOL0     H77939   9.471   7.575   8.370 -0.9675  0.7496 -2.0144
  565MOL0     H77940   9.275   7.448   8.281  0.0412 -0.1720 -1.1017
  565MOL0     H77941   9.369   7.429   8.127 -0.4548  0.5805 -0.9318
  565MOL0     H77942   9.211   7.623   8.165 -0.2760 -0.6760 -0.7209
  565MOL0     H77943   9.341   7.693   8.264 -2.7036 -0.6052  0.7346
  565MOL0     H77944   9.393   7.605   7.986 -1.4984  0.4558 -1.7061
  565MOL0     H77945   9.473   7.738   8.080 -0.6616  1.2138 -1.6180
  565MOL0     H77946   9.287   7.874   8.057 -0.3829  0.4520 -1.0437
  565MOL0     H77947   9.182   7.755   7.989 -0.7119 -0.2975  0.2528
  565MOL0     H77948   9.442   7.873   7.877 -0.0506  0.4548 -0.1011
  565MOL0     H77949   9.284   7.946   7.845  0.1112  0.5926 -0.2507
  565MOL0     H77950   9.935   7.230   8.409  2.8109 -0.5025  0.8479
  565MOL0     H77951  10.152   7.285   8.516 -0.6290 -0.1846  0.4439
  565MOL0     H77952  10.419   7.530   8.757 -0.6363  1.3176 -0.4605
  565MOL0     H77953  10.633   7.595   8.867  2.0576  1.3070 -0.0378
  565MOL0     H77954   9.718   7.073   8.460  0.6111  1.2347 -2.3262
  565MOL0     H77955   9.490   7.036   8.439  3.0755  3.7009  1.7478
  565MOL0     H77956   9.063   7.127   8.328 -1.8912  0.9837 -0.3548
  565MOL0     H77957   8.817   7.089   8.243 -0.7656 -0.3292 -2.1744
  565MOL0     H77958   8.645   6.889   7.899  0.2388 -1.4714 -0.3724
  565MOL0     H77959   8.767   6.784   7.955 -1.2986 -1.3129  0.0859
  565MOL0     H77960   8.629   6.766   8.174 -0.9500  0.7771  0.3045
  565MOL0     H77961   8.564   6.685   8.026  2.4762 -1.9900  2.1822
  565MOL0     H77962   8.421   6.916   7.995  1.7494  1.3840  0.4593
  565MOL0     H77963   8.381   6.773   8.090 -0.5047  0.7135 -1.6804
  565MOL0     H77964   8.526   7.017   8.213 -0.4055  0.5525 -1.3509
  565MOL0     H77965   8.455   6.865   8.283  1.3720 -1.9730 -1.2736
  565MOL0     H77966   8.095   7.097   8.226  0.0785 -1.1081  0.8018
  565MOL0     H77967   8.960   6.860   7.918  2.3566 -0.8767 -1.0011
  565MOL0     H77968   9.294   6.938   7.930  1.4199 -2.9222 -2.2877
  565MOL0     H77969   9.281   6.804   8.035 -0.8284 -2.4490 -0.2974
  565MOL0     H77970   9.180   6.800   7.896  4.0629 -2.7999  0.2848
  566MOL0     O77971   5.131   9.767  10.763 -0.4423 -0.0521  0.1636
  566MOL0     C77972   5.127   9.647  10.759 -0.3879  0.7335 -0.5751
  566MOL0     O77973   5.214   9.570  10.833  0.1297 -0.3489 -0.8220
  566MOL0     C77974   5.339   9.621  10.865  0.6901 -0.2315  0.0620
  566MOL0     C77975   5.446   9.583  10.789 -0.1316  0.6823  1.0018
  566MOL0     C77976   5.574   9.638  10.811  0.2223  0.2718 -0.1342
  566MOL0     C77977   5.597   9.728  10.911  0.7986 -0.1917  0.1683
  566MOL0     O77978   5.713   9.808  10.931 -0.2394  0.1814  0.9892
  566MOL0     C77979   5.844   9.753  10.895 -0.2079  0.5866 -0.2346
  566MOL0     C77980   5.945   9.796  11.000  0.5353 -0.3045 -0.0404
  566MOL0     C77981   5.939   9.948  11.033 -0.4050  0.1508 -0.3711
  566MOL0     C77982   6.057   9.990  11.127  0.5389  0.5906 -0.3684
  566MOL0     C77983   6.075  10.140  11.129 -1.2659  0.6398  0.1009
  566MOL0     C77984   6.179  10.192  11.240 -0.6207  0.2875 -0.3204
  566MOL0     C77985   6.308  10.111  11.244  0.9904  0.8611  0.5770
  566MOL0     C77986   6.406  10.180  11.344  0.7016 -0.2323 -0.0186
  566MOL0     N77987   6.484  10.294  11.301 -0.5672  0.6756 -0.7844
  566MOL0     C77988   6.450  10.423  11.300 -0.3748  0.6852  0.5966
  566MOL0     C77989   6.560  10.488  11.252 -0.8373  0.8940  0.3321
  566MOL0     C77990   6.562  10.644  11.240  0.2915  0.2059 -0.0591
  566MOL0     C77991   6.681  10.706  11.176 -0.4977 -0.4607 -1.0355
  566MOL0     C77992   6.817  10.721  11.254  0.5349 -0.1086  0.2022
  566MOL0     C77993   6.906  10.835  11.200 -0.7524 -0.7261 -0.4947
  566MOL0     O77994   6.919  10.828  11.060  0.2268 -0.1066 -0.4035
  566MOL0     C77995   7.032  10.780  11.006  0.5359  0.0847  0.2137
  566MOL0     C77996   7.085  10.847  10.898 -0.8489  0.0271  0.8402
  566MOL0     C77997   7.210  10.818  10.835 -0.3082 -0.5014  0.3018
  566MOL0     C77998   7.261  10.896  10.723 -0.5554  0.3226  0.3068
  566MOL0     C77999   7.274  10.701  10.891 -0.6288  0.7584 -0.1878
  566MOL0     C78000   7.414  10.661  10.862  0.7414 -0.5023 -0.7205
  566MOL0     O78001   7.499  10.765  10.824 -0.3683  0.1349 -0.5992
  566MOL0     C78002   7.627  10.728  10.778  0.2780 -0.7126 -0.2757
  566MOL0     C78003   7.740  10.789  10.832  0.4862  0.5877  0.1248
  566MOL0     C78004   7.865  10.760  10.785 -0.7774 -1.2991 -0.0134
  566MOL0     C78005   7.889  10.659  10.687  0.7314  0.1096 -0.2199
  566MOL0     O78006   8.010  10.604  10.664  0.3264  0.3833 -0.0522
  566MOL0     C78007   8.122  10.660  10.735  0.1470  0.5051  0.4218
  566MOL0     C78008   8.259  10.614  10.672  0.2807 -0.0023 -0.2924
  566MOL0     C78009   8.289  10.471  10.684 -0.0545  0.0499  0.4621
  566MOL0     C78010   8.407  10.429  10.599 -0.3019 -0.9574 -0.8027
  566MOL0     C78011   8.356  10.388  10.456 -1.0197 -0.0076  0.4091
  566MOL0     C78012   8.455  10.286  10.395  0.9028  0.1932 -0.1115
  566MOL0     C78013   8.587  10.348  10.341 -0.4904 -1.4219 -0.2306
  566MOL0     C78014   8.562  10.396  10.202 -0.6786 -0.9775 -0.7086
  566MOL0    Cl78015   8.712  10.443  10.128  0.4291 -0.1331  0.3515
  566MOL0     C78016   7.776  10.586  10.641  0.8231 -0.0258 -0.5900
  566MOL0     C78017   7.643  10.627  10.681  0.3214  0.2358  0.0076
  566MOL0     O78018   7.443  10.542  10.868 -0.6549 -0.2285  0.5235
  566MOL0     C78019   7.209  10.610  10.977 -0.6871 -0.7591  0.7710
  566MOL0     C78020   7.085  10.658  11.039 -0.8241 -0.5507 -0.0648
  566MOL0     N78021   6.661  10.391  11.221  0.2290 -0.2396  0.7898
  566MOL0     N78022   6.614  10.281  11.262 -0.5353  0.1384 -0.3609
  566MOL0     C78023   5.485   9.753  10.998 -0.0649  0.2421 -0.5033
  566MOL0     C78024   5.359   9.702  10.978 -0.9691 -0.0009  0.7403
  566MOL0     C78025   5.040   9.571  10.668  0.0209  0.1088  0.3560
  566MOL0     C78026   5.053   9.435  10.651  0.3182  0.1794  0.7009
  566MOL0     C78027   4.958   9.356  10.589 -0.6490 -0.6826 -0.0398
  566MOL0     C78028   4.841   9.406  10.541 -0.5061  0.0227 -0.3528
  566MOL0     O78029   4.754   9.309  10.491 -0.3226  0.0578  0.8049
  566MOL0     C78030   4.628   9.347  10.440 -0.1661 -0.0565  0.0062
  566MOL0     C78031   4.642   9.384  10.297 -0.7804  0.6110  0.2035
  566MOL0     C78032   4.648   9.272  10.193 -0.6928 -0.4843 -0.3476
  566MOL0     C78033   4.788   9.211  10.177  0.6299  1.2898  0.4204
  566MOL0     C78034   4.784   9.099  10.084 -0.6329  0.2085 -0.5289
  566MOL0     C78035   4.791   9.009  10.004  0.4110  0.9769  0.9195
  566MOL0     C78036   4.829   9.552  10.548  0.9329 -0.3321  0.2777
  566MOL0     C78037   4.932   9.634  10.595 -0.0417 -0.5255 -0.5560
  566MOL0     C78038   4.917   9.784  10.579  0.2680 -0.1027 -0.5952
  566MOL0     H78039   5.436   9.511  10.708  1.2723  0.8989  0.6036
  566MOL0     H78040   5.658   9.614  10.748 -0.9996 -3.2222 -0.6172
  566MOL0     H78041   5.873   9.793  10.797  0.1486 -1.2258 -0.9168
  566MOL0     H78042   5.840   9.644  10.893  0.8109  0.5269  0.3654
  566MOL0     H78043   5.932   9.745  11.095  2.8639 -0.3891  0.2771
  566MOL0     H78044   6.048   9.766  10.979  0.2751 -2.0288  0.9422
  566MOL0     H78045   5.925  10.005  10.941 -5.2769 -0.0307 -0.0073
  566MOL0     H78046   5.855   9.970  11.100  0.4452  1.4354  0.3022
  566MOL0     H78047   6.051   9.944  11.226 -0.5971  1.7437  0.1186
  566MOL0     H78048   6.142   9.948  11.072 -1.3591 -1.0122 -2.2596
  566MOL0     H78049   5.983  10.198  11.140 -1.1660  1.0349 -0.9854
  566MOL0     H78050   6.110  10.165  11.028 -2.3404 -0.8400 -0.6662
  566MOL0     H78051   6.200  10.297  11.216  1.6401  0.1608  0.8042
  566MOL0     H78052   6.116  10.179  11.329 -1.7717 -3.2143 -1.4781
  566MOL0     H78053   6.342  10.090  11.143  0.2159 -0.5794  0.5909
  566MOL0     H78054   6.282  10.013  11.284 -2.4694  1.8720  1.2044
  566MOL0     H78055   6.341  10.204  11.429  1.7853 -4.3995  2.2835
  566MOL0     H78056   6.475  10.106  11.385 -0.1022  0.4268  2.7390
  566MOL0     H78057   6.358  10.470  11.335 -0.6282  1.0242 -0.4829
  566MOL0     H78058   6.546  10.695  11.335  1.0329 -0.9800  0.7238
  566MOL0     H78059   6.473  10.669  11.181  0.6057  1.3324 -0.0752
  566MOL0     H78060   6.714  10.658  11.083 -0.0928 -0.2571 -1.0027
  566MOL0     H78061   6.656  10.810  11.154  0.9540 -0.2384 -1.7814
  566MOL0     H78062   6.793  10.756  11.355 -0.4414  3.9108 -1.2462
  566MOL0     H78063   6.871  10.626  11.254  1.7330  0.5216 -1.5353
  566MOL0     H78064   6.858  10.931  11.221 -1.0628 -1.5634  3.2376
  566MOL0     H78065   7.008  10.838  11.240 -1.3281  1.5807  1.0104
  566MOL0     H78066   7.039  10.942  10.874  1.8935  1.2452  0.0495
  566MOL0     H78067   7.335  10.850  10.656 -0.4431  0.3964  0.3796
  566MOL0     H78068   7.312  10.987  10.758  1.1441  0.2213 -1.6610
  566MOL0     H78069   7.170  10.922  10.668 -0.4686 -1.1243 -0.5772
  566MOL0     H78070   7.727  10.872  10.901 -3.8624  2.4226 -2.5101
  566MOL0     H78071   7.944  10.814  10.835  0.3375  1.4870 -4.2881
  566MOL0     H78072   8.117  10.769  10.724 -0.6035  0.4141 -0.1657
  566MOL0     H78073   8.111  10.650  10.844 -1.2804  3.9323  0.7231
  566MOL0     H78074   8.256  10.634  10.564  3.0739  0.9903 -0.2647
  566MOL0     H78075   8.337  10.673  10.720  1.9727 -2.0407 -0.3694
  566MOL0     H78076   8.212  10.404  10.646  0.7501 -1.2121  0.9791
  566MOL0     H78077   8.300  10.454  10.792 -0.4723  0.4976  0.5788
  566MOL0     H78078   8.468  10.353  10.649  0.5576  0.4497  0.3624
  566MOL0     H78079   8.476  10.513  10.588  0.7419 -1.5814  0.7146
  566MOL0     H78080   8.260  10.337  10.468 -0.1232 -1.8271  0.1951
  566MOL0     H78081   8.333  10.473  10.392  0.6367 -2.1132 -3.2672
  566MOL0     H78082   8.406  10.233  10.313  2.4274 -3.0831  0.9353
  566MOL0     H78083   8.471  10.203  10.463 -3.6133 -0.7286  0.1563
  566MOL0     H78084   8.660  10.267  10.335 -0.2850 -1.4309  1.6580
  566MOL0     H78085   8.606  10.428  10.413 -1.0031 -2.4177  1.0514
  566MOL0     H78086   8.484  10.472  10.190 -0.8402 -0.5955  2.1871
  566MOL0     H78087   8.532  10.316  10.133 -0.4847 -2.2501  0.6400
  566MOL0     H78088   7.793  10.500  10.577 -0.3334 -1.1347  0.5438
  566MOL0     H78089   7.561  10.566  10.645  0.7766 -0.4689  0.1538
  566MOL0     H78090   7.263  10.519  11.004  3.1826  0.5126 -1.8264
  566MOL0     H78091   7.051  10.602  11.126 -1.7443  1.1223  0.7134
  566MOL0     H78092   5.501   9.829  11.074 -3.0428  1.6518 -1.1264
  566MOL0     H78093   5.277   9.734  11.041 -1.0929  4.4020 -1.2872
  566MOL0     H78094   5.137   9.368  10.668 -0.1917 -0.2122  1.7838
  566MOL0     H78095   4.974   9.249  10.580 -2.1513 -1.0900  1.5758
  566MOL0     H78096   4.558   9.265  10.458 -1.6857  0.8450 -1.4343
  566MOL0     H78097   4.586   9.434  10.491  1.7713  1.4089 -0.7518
  566MOL0     H78098   4.720   9.461  10.296  1.5638 -1.6446  0.7520
  566MOL0     H78099   4.550   9.433  10.264 -2.1925 -2.4190 -0.6808
  566MOL0     H78100   4.567   9.202  10.215  0.5936 -1.9793 -0.2339
  566MOL0     H78101   4.626   9.324  10.099  3.0608  0.6680 -0.7382
  566MOL0     H78102   4.816   9.153  10.266 -2.4710  0.0773  0.7468
  566MOL0     H78103   4.861   9.284  10.142 -0.1010  1.2568 -1.2773
  566MOL0     H78104   4.788   8.927   9.934 -1.8404  0.1266  1.9050
  566MOL0     H78105   4.741   9.605  10.514  0.7338  0.8497  2.4745
  566MOL0     H78106   4.890   9.835  10.671  1.4788 -2.2206  1.0325
  566MOL0     H78107   5.010   9.833  10.551  1.4326 -1.9181 -0.0820
  566MOL0     H78108   4.849   9.798  10.495 -0.2054 -3.0399 -0.8210
  567MOL0     O78109   1.737   8.655   5.478 -0.0510  0.1852  0.7381
  567MOL0     C78110   1.639   8.617   5.418  0.2425  0.7358 -0.4403
  567MOL0     O78111   1.613   8.641   5.284  0.4229 -0.0380  0.0299
  567MOL0     C78112   1.675   8.744   5.222  0.4884  0.3773  0.0819
  567MOL0     C78113   1.701   8.728   5.086 -0.3207 -0.0799  0.7240
  567MOL0     C78114   1.775   8.831   5.022 -0.0577  0.3300 -1.2110
  567MOL0     C78115   1.804   8.952   5.084 -0.1127 -0.3904 -0.3274
  567MOL0     O78116   1.892   9.033   5.019  0.6677 -0.3333  0.7554
  567MOL0     C78117   1.867   9.172   5.030  0.4451  0.2186 -0.9345
  567MOL0     C78118   1.938   9.231   4.913  0.1125  0.4035 -0.1621
  567MOL0     C78119   1.864   9.204   4.785  0.2053 -0.3149  0.4056
  567MOL0     C78120   1.933   9.253   4.658 -0.0248  0.4955 -0.4707
  567MOL0     C78121   1.829   9.236   4.535 -0.2182 -0.1108 -0.4237
  567MOL0     C78122   1.810   9.093   4.491 -0.4837 -0.8418 -0.5037
  567MOL0     C78123   1.756   9.095   4.342 -0.1946  0.0657  0.0025
  567MOL0     C78124   1.688   8.967   4.307 -0.0920  0.1377  0.9315
  567MOL0     N78125   1.584   8.918   4.399  0.6397 -0.0462 -0.0980
  567MOL0     C78126   1.497   8.996   4.476  0.5108 -1.0275  0.9856
  567MOL0     C78127   1.398   8.910   4.512 -0.3307 -0.2627  0.0133
  567MOL0     C78128   1.275   8.963   4.584 -0.2066  0.2258 -1.0899
  567MOL0     C78129   1.292   8.956   4.738  0.3685  0.0286 -1.2239
  567MOL0     C78130   1.353   8.822   4.777  0.4871 -0.0723 -0.2782
  567MOL0     C78131   1.349   8.792   4.925  0.1012  1.2764  0.8246
  567MOL0     O78132   1.220   8.814   4.988 -0.4741  0.4024  0.3116
  567MOL0     C78133   1.211   8.829   5.123  1.1198  0.4721 -0.4435
  567MOL0     C78134   1.312   8.868   5.211  0.4126  0.2325  0.1054
  567MOL0     C78135   1.285   8.890   5.347 -0.4787 -0.1057 -0.7891
  567MOL0     C78136   1.390   8.952   5.433 -0.3434 -0.5703 -0.1075
  567MOL0     C78137   1.157   8.857   5.403 -0.2534  0.3716  0.8894
  567MOL0     C78138   1.131   8.857   5.541  0.1727  0.1646  0.3766
  567MOL0     O78139   1.027   8.937   5.591 -0.1327  1.0652 -0.2175
  567MOL0     C78140   0.976   9.034   5.516 -0.2904 -1.3111  0.1622
  567MOL0     C78141   0.841   9.042   5.494 -0.4585 -1.5100 -0.3012
  567MOL0     C78142   0.790   9.148   5.431  0.3588  0.1861  0.4167
  567MOL0     C78143   0.857   9.262   5.386  0.5935 -1.1699 -0.0927
  567MOL0     O78144   0.800   9.374   5.336 -0.2482  0.2193 -0.1669
  567MOL0     C78145   0.719   9.447   5.430 -0.3537 -0.4480  0.9986
  567MOL0     C78146   0.703   9.592   5.385  0.0871 -0.3804  0.4654
  567MOL0     C78147   0.698   9.615   5.228  0.1291 -0.2698  0.3029
  567MOL0     C78148   0.845   9.637   5.166 -0.1264 -0.5265 -0.5257
  567MOL0     C78149   0.886   9.780   5.204  0.2351  0.1831  0.3090
  567MOL0     C78150   1.023   9.820   5.141  0.2590 -0.1970  0.4184
  567MOL0     C78151   1.121   9.703   5.165  0.8063 -0.5894  0.2133
  567MOL0     C78152   1.269   9.747   5.173 -0.4567 -0.6785 -0.2204
  567MOL0    Cl78153   1.364   9.609   5.218 -0.0405  0.0343  0.0471
  567MOL0     C78154   0.990   9.254   5.411  1.1019 -0.3681  0.5106
  567MOL0     C78155   1.050   9.145   5.475  0.0444 -1.6454  0.8089
  567MOL0     O78156   1.211   8.801   5.612  0.0016  0.3685  0.2480
  567MOL0     C78157   1.064   8.813   5.314 -0.4721  0.2180 -0.1868
  567MOL0     C78158   1.081   8.804   5.171 -0.1326  0.5267 -1.3348
  567MOL0     N78159   1.433   8.781   4.471  0.0957  1.0354  0.4693
  567MOL0     N78160   1.539   8.789   4.393 -0.0265  0.4212  0.2014
  567MOL0     C78161   1.762   8.978   5.217 -0.1278 -0.2764  0.5201
  567MOL0     C78162   1.701   8.875   5.284  0.5791  0.2921  0.2251
  567MOL0     C78163   1.527   8.548   5.502  0.7440 -0.7763 -0.2297
  567MOL0     C78164   1.398   8.528   5.432 -0.0986 -0.7598  0.7407
  567MOL0     C78165   1.298   8.456   5.488  0.0913  0.5233 -0.1038
  567MOL0     C78166   1.306   8.406   5.618  0.4016  0.0161  0.5979
  567MOL0     O78167   1.201   8.336   5.677 -0.5866  0.5117  0.3802
  567MOL0     C78168   1.104   8.401   5.756  0.2682 -0.5953  1.4069
  567MOL0     C78169   0.991   8.471   5.692 -0.0451  0.0203  0.1051
  567MOL0     C78170   0.918   8.366   5.599 -0.3593  1.2577 -0.8992
  567MOL0     C78171   0.799   8.418   5.522 -0.1962  0.2817 -0.8939
  567MOL0     C78172   0.681   8.328   5.485 -0.3197 -0.3660 -0.7643
  567MOL0     C78173   0.585   8.256   5.443  0.4129  0.4838 -1.3321
  567MOL0     C78174   1.423   8.428   5.685 -0.1479  0.6607 -0.2766
  567MOL0     C78175   1.534   8.501   5.635  0.4316  0.5653  0.5336
  567MOL0     C78176   1.649   8.516   5.726 -0.0724  0.3653  0.5538
  567MOL0     H78177   1.677   8.636   5.034 -0.3465 -0.2747  1.0769
  567MOL0     H78178   1.806   8.803   4.922  1.1139 -3.4302  0.0438
  567MOL0     H78179   1.905   9.210   5.126 -1.1679 -0.8597  0.1885
  567MOL0     H78180   1.761   9.201   5.030  0.6628  1.0877  0.2822
  567MOL0     H78181   1.952   9.337   4.936  0.3669  0.1411  0.9393
  567MOL0     H78182   2.039   9.193   4.897 -0.5834 -1.8218  0.4122
  567MOL0     H78183   1.830   9.102   4.764 -0.2259 -0.4529  1.6831
  567MOL0     H78184   1.766   9.252   4.792  0.7577  0.6927  1.4878
  567MOL0     H78185   1.979   9.353   4.660  3.4460 -0.9119 -1.8144
  567MOL0     H78186   2.021   9.189   4.653  1.0275  1.9419 -1.1725
  567MOL0     H78187   1.859   9.303   4.454 -1.7511 -1.7150 -2.4335
  567MOL0     H78188   1.730   9.272   4.562 -0.9254 -1.3309 -1.2983
  567MOL0     H78189   1.899   9.030   4.486  1.3049  1.6086 -1.5495
  567MOL0     H78190   1.741   9.053   4.567  2.3435 -0.9214  2.2147
  567MOL0     H78191   1.845   9.105   4.279  0.1731  0.2125  0.5387
  567MOL0     H78192   1.697   9.185   4.326  2.6502  1.5271 -3.8448
  567MOL0     H78193   1.662   8.961   4.201  2.8768  3.0661 -0.1451
  567MOL0     H78194   1.767   8.894   4.324 -1.5187 -1.2893  1.7160
  567MOL0     H78195   1.491   9.100   4.507 -1.3615 -0.7237 -0.2329
  567MOL0     H78196   1.188   8.902   4.559  0.9281 -1.4116 -1.1294
  567MOL0     H78197   1.248   9.064   4.550 -2.0688 -0.6202 -2.2563
  567MOL0     H78198   1.351   9.043   4.768  0.2047  0.1306 -1.2008
  567MOL0     H78199   1.201   8.968   4.797  0.0126  0.7398 -1.9118
  567MOL0     H78200   1.292   8.745   4.729 -0.8725  1.2324 -0.6996
  567MOL0     H78201   1.460   8.826   4.758  0.5603  1.9539  0.3662
  567MOL0     H78202   1.389   8.691   4.935  1.1392  1.4211 -1.3122
  567MOL0     H78203   1.426   8.861   4.962  0.5521  0.0288  2.2946
  567MOL0     H78204   1.408   8.886   5.165  1.1524  0.5945  1.7151
  567MOL0     H78205   1.358   8.993   5.529  0.5249  2.3779 -0.9482
  567MOL0     H78206   1.436   9.031   5.372 -2.0522  1.8106  1.5159
  567MOL0     H78207   1.458   8.868   5.452  1.1804  0.2168 -1.7141
  567MOL0     H78208   0.780   8.963   5.536  0.2602 -1.5134  0.7817
  567MOL0     H78209   0.683   9.151   5.411  0.6187  3.3950 -1.0270
  567MOL0     H78210   0.619   9.404   5.422  0.2076 -1.9555  1.7137
  567MOL0     H78211   0.757   9.442   5.533 -0.4883 -0.6301  1.0396
  567MOL0     H78212   0.623   9.649   5.435 -0.3776 -0.2399 -0.4106
  567MOL0     H78213   0.790   9.645   5.424 -0.6162  2.0745 -1.0188
  567MOL0     H78214   0.644   9.706   5.200  0.7068 -0.4827 -1.6221
  567MOL0     H78215   0.650   9.524   5.190 -0.7741  0.0950  0.5366
  567MOL0     H78216   0.853   9.637   5.057  3.0195  2.0247 -0.4415
  567MOL0     H78217   0.910   9.555   5.200 -3.1440 -2.7898  0.1896
  567MOL0     H78218   0.810   9.854   5.176 -0.2748 -0.7775 -0.9215
  567MOL0     H78219   0.901   9.789   5.312  1.5637  2.4283  0.0143
  567MOL0     H78220   1.054   9.907   5.201  1.2597  1.9359 -2.9123
  567MOL0     H78221   1.010   9.840   5.035  2.9178 -0.0179  0.0468
  567MOL0     H78222   1.112   9.625   5.089 -2.4028 -0.6753  0.5607
  567MOL0     H78223   1.098   9.672   5.267 -0.7801  0.9462  0.3625
  567MOL0     H78224   1.270   9.828   5.247 -0.6737  1.7248 -2.6904
  567MOL0     H78225   1.301   9.786   5.076 -3.0144  1.5557 -0.2940
  567MOL0     H78226   1.049   9.330   5.359 -0.4096  1.7872  1.8203
  567MOL0     H78227   1.157   9.146   5.496 -0.1756  0.4120  2.0474
  567MOL0     H78228   0.968   8.784   5.356 -0.2711  1.1225  0.9492
  567MOL0     H78229   1.018   8.753   5.099 -1.3572  2.8070 -1.9573
  567MOL0     H78230   1.784   9.071   5.268 -0.3141 -0.1176  0.3136
  567MOL0     H78231   1.681   8.886   5.390  1.3417 -3.0746  0.8328
  567MOL0     H78232   1.386   8.554   5.328 -0.8034 -0.9845  0.7573
  567MOL0     H78233   1.203   8.444   5.436 -0.4868 -0.7260  1.1627
  567MOL0     H78234   1.062   8.320   5.817 -1.3680 -2.7620 -2.2564
  567MOL0     H78235   1.166   8.474   5.809  5.2249 -2.7944 -0.6927
  567MOL0     H78236   1.031   8.560   5.643  1.2313 -1.9898 -2.7492
  567MOL0     H78237   0.921   8.512   5.766 -0.6545 -0.9810  0.1015
  567MOL0     H78238   0.990   8.322   5.530 -1.2468 -0.3600 -0.8618
  567MOL0     H78239   0.882   8.293   5.672 -0.4230  0.7047 -1.4764
  567MOL0     H78240   0.831   8.479   5.437 -0.1411  1.5468 -0.0068
  567MOL0     H78241   0.760   8.505   5.576  1.6088  2.2726 -2.6188
  567MOL0     H78242   0.504   8.193   5.412 -1.5189  1.4249  1.3812
  567MOL0     H78243   1.429   8.381   5.782 -0.2078 -1.5189 -1.2695
  567MOL0     H78244   1.699   8.613   5.736  1.0552 -0.2613  1.1064
  567MOL0     H78245   1.617   8.488   5.827  0.1132 -2.4492 -0.1040
  567MOL0     H78246   1.728   8.448   5.694 -1.3238  0.1074 -2.2802
  568MOL0     O78247   1.247   9.847   8.142  0.5122 -0.0304  0.1374
  568MOL0     C78248   1.339   9.920   8.107 -0.7390 -0.4896 -0.3338
  568MOL0     O78249   1.343  10.003   7.996 -0.1207  0.1144 -0.7769
  568MOL0     C78250   1.241   9.992   7.908 -0.1133 -0.0280 -1.2907
  568MOL0     C78251   1.178   9.877   7.864 -0.6086  0.8135  0.0808
  568MOL0     C78252   1.073   9.870   7.780 -0.4200 -0.6133  0.4304
  568MOL0     C78253   1.027  10.000   7.734 -0.0157  0.2350 -0.2943
  568MOL0     O78254   0.926  10.019   7.642 -0.0992  0.0770 -0.0526
  568MOL0     C78255   0.862   9.899   7.591  0.3488  0.2268 -0.1724
  568MOL0     C78256   0.930   9.859   7.466  0.2524 -0.3858 -0.3040
  568MOL0     C78257   0.875   9.738   7.384  0.6656 -0.1588 -0.3072
  568MOL0     C78258   0.923   9.718   7.244 -0.4203 -0.0452  0.5923
  568MOL0     C78259   0.834   9.612   7.170 -0.5094 -0.4217 -0.7686
  568MOL0     C78260   0.740   9.681   7.064  0.7879  0.8572  0.8569
  568MOL0     C78261   0.685   9.582   6.969  0.0739 -0.1908  0.0105
  568MOL0     C78262   0.617   9.661   6.852  0.9941  1.0678  0.1600
  568MOL0     N78263   0.480   9.710   6.868  0.6981 -1.0329 -0.8097
  568MOL0     C78264   0.360   9.649   6.831 -1.0382 -0.7094  0.2585
  568MOL0     C78265   0.264   9.717   6.896 -0.4546 -0.4667 -0.1233
  568MOL0     C78266   0.117   9.674   6.889  0.1586 -1.1649  0.1008
  568MOL0     C78267   0.033   9.770   6.977  0.6193  0.0056 -0.6382
  568MOL0     C78268  -0.117   9.757   6.928 -0.1599  0.1874 -0.2466
  568MOL0     C78269  -0.223   9.798   7.023 -0.3528 -0.2382 -0.8901
  568MOL0     O78270  -0.341   9.749   6.953 -0.0253 -0.3312 -0.1813
  568MOL0     C78271  -0.440   9.685   7.022 -0.1127 -0.7173  0.3991
  568MOL0     C78272  -0.565   9.696   6.971  0.6401 -0.6679 -0.3772
  568MOL0     C78273  -0.685   9.635   7.019  0.3092 -0.6272 -0.3631
  568MOL0     C78274  -0.815   9.662   6.952 -0.0549  0.7647  0.5259
  568MOL0     C78275  -0.669   9.561   7.140  0.2910  0.7439 -0.0396
  568MOL0     C78276  -0.783   9.513   7.214 -0.4002 -0.2833  0.5984
  568MOL0     O78277  -0.894   9.488   7.143 -0.1543 -0.4122  0.1292
  568MOL0     C78278  -1.015   9.447   7.196  0.4744 -0.3183 -0.2900
  568MOL0     C78279  -1.116   9.411   7.109 -0.8830 -0.6060 -1.0179
  568MOL0     C78280  -1.239   9.367   7.157  0.4110 -0.0210  0.2890
  568MOL0     C78281  -1.273   9.369   7.295 -0.3247 -0.6150 -0.5137
  568MOL0     O78282  -1.399   9.347   7.346  0.4274 -0.3992  0.0051
  568MOL0     C78283  -1.509   9.315   7.256 -0.4841 -0.7514 -0.1304
  568MOL0     C78284  -1.637   9.287   7.333 -0.6523  0.0330 -0.5794
  568MOL0     C78285  -1.756   9.240   7.240  0.2204 -0.1683  0.4037
  568MOL0     C78286  -1.893   9.223   7.316  0.1898 -0.2389  0.3725
  568MOL0     C78287  -1.987   9.144   7.219  0.3774  0.2111 -0.2895
  568MOL0     C78288  -2.115   9.110   7.302 -0.3061  0.1247 -0.4606
  568MOL0     C78289  -2.244   9.066   7.216 -0.4149  0.0718 -0.7697
  568MOL0     C78290  -2.251   8.935   7.142  0.0603 -1.0378  0.3341
  568MOL0    Cl78291  -2.211   8.787   7.238  0.1704 -0.1286 -0.3762
  568MOL0     C78292  -1.170   9.409   7.382 -0.1846  0.7139  0.2088
  568MOL0     C78293  -1.055   9.458   7.332  0.0368  0.0144 -1.0222
  568MOL0     O78294  -0.767   9.482   7.329  0.7874 -0.1395 -0.0519
  568MOL0     C78295  -0.539   9.551   7.199 -0.7088 -0.0493 -0.1217
  568MOL0     C78296  -0.429   9.602   7.129 -0.0897 -0.5358  0.0884
  568MOL0     N78297   0.325   9.833   6.948 -0.0528  0.5946  0.0396
  568MOL0     N78298   0.450   9.824   6.931 -0.0837 -0.1842 -0.2339
  568MOL0     C78299   1.095  10.119   7.768  0.6685 -1.0928  0.8727
  568MOL0     C78300   1.192  10.119   7.861 -0.3705 -0.8130 -0.4884
  568MOL0     C78301   1.450   9.918   8.206 -0.1193 -0.6691 -0.9400
  568MOL0     C78302   1.471   9.800   8.281  0.2728 -0.3882 -0.2784
  568MOL0     C78303   1.584   9.781   8.361  0.5657  0.9799  0.5159
  568MOL0     C78304   1.669   9.891   8.388  0.2946  0.3913  0.2223
  568MOL0     O78305   1.789   9.884   8.461 -0.1837  0.2837  0.1963
  568MOL0     C78306   1.829   9.761   8.515 -0.8757  0.1288 -0.3842
  568MOL0     C78307   1.970   9.787   8.556 -0.1226 -1.0796  0.1907
  568MOL0     C78308   2.022   9.697   8.675  0.4821 -0.3885  0.6282
  568MOL0     C78309   2.019   9.554   8.620 -0.3326 -0.4844  0.1966
  568MOL0     C78310   2.109   9.524   8.502 -0.1372  0.2445  0.1952
  568MOL0     C78311   2.176   9.492   8.403 -0.0469 -0.7174 -0.4329
  568MOL0     C78312   1.646  10.011   8.316  1.0911 -0.1865  0.3188
  568MOL0     C78313   1.543  10.030   8.226  0.8902  0.0875  0.6893
  568MOL0     C78314   1.527  10.171   8.172  0.8148  0.2710  0.0517
  568MOL0     H78315   1.212   9.781   7.902 -0.7009  0.5243 -0.5503
  568MOL0     H78316   1.021   9.780   7.749 -3.2872  0.3445  2.0398
  568MOL0     H78317   0.760   9.929   7.569 -0.6286 -3.0045 -0.5480
  568MOL0     H78318   0.849   9.818   7.664  2.5898  0.1889  0.2803
  568MOL0     H78319   0.928   9.947   7.400 -0.4111  0.6375  1.0537
  568MOL0     H78320   1.038   9.845   7.476  0.3483  0.2094 -0.4580
  568MOL0     H78321   0.900   9.650   7.445 -0.1120 -1.3268 -1.6228
  568MOL0     H78322   0.766   9.744   7.381  0.2952 -4.0806  0.3905
  568MOL0     H78323   0.919   9.805   7.178 -2.1409  1.6090  2.7114
  568MOL0     H78324   1.021   9.671   7.231  0.3129  1.4623  0.5051
  568MOL0     H78325   0.779   9.564   7.251 -1.4077  1.4058 -0.2273
  568MOL0     H78326   0.900   9.538   7.124  0.5670  0.4867 -0.7435
  568MOL0     H78327   0.675   9.750   7.119  0.3321  0.7795  0.4191
  568MOL0     H78328   0.796   9.743   6.993  0.8746 -0.5112 -0.3127
  568MOL0     H78329   0.616   9.527   7.034  0.6099  0.1431  0.8774
  568MOL0     H78330   0.758   9.513   6.926 -0.7824 -0.1392 -1.5850
  568MOL0     H78331   0.680   9.745   6.821  0.7829  0.9772 -0.5144
  568MOL0     H78332   0.613   9.604   6.760  2.0624  1.3050 -0.0480
  568MOL0     H78333   0.346   9.566   6.763 -0.4969  1.7119 -3.0357
  568MOL0     H78334   0.097   9.567   6.903  1.3506 -2.0515 -3.7197
  568MOL0     H78335   0.088   9.701   6.787 -3.9127  3.0783  2.0319
  568MOL0     H78336   0.039   9.730   7.078  0.3353  4.0389  1.1686
  568MOL0     H78337   0.070   9.872   6.968 -2.0684  1.3221  1.5472
  568MOL0     H78338  -0.129   9.807   6.832  0.9952 -0.2268 -0.6253
  568MOL0     H78339  -0.125   9.648   6.921  0.0650 -0.2014  3.3542
  568MOL0     H78340  -0.207   9.752   7.121 -2.5724  0.5272 -0.0973
  568MOL0     H78341  -0.227   9.906   7.039  2.4863 -0.5235  3.4682
  568MOL0     H78342  -0.571   9.757   6.881  2.9516  0.9243  0.4545
  568MOL0     H78343  -0.798   9.717   6.859 -3.3426  2.2174  0.6213
  568MOL0     H78344  -0.874   9.721   7.024 -0.1917 -0.3004  1.3097
  568MOL0     H78345  -0.873   9.575   6.920 -0.6396  0.6769  1.7368
  568MOL0     H78346  -1.089   9.413   7.004 -2.4333 -0.2965 -1.4427
  568MOL0     H78347  -1.313   9.330   7.086 -2.2253  1.2558  2.2290
  568MOL0     H78348  -1.524   9.403   7.192 -1.3929 -1.1152 -0.4386
  568MOL0     H78349  -1.490   9.224   7.199  1.3966  0.4021 -1.4563
  568MOL0     H78350  -1.621   9.212   7.412  0.8192 -0.4335 -1.2743
  568MOL0     H78351  -1.673   9.377   7.384 -2.1715 -1.2248  0.6675
  568MOL0     H78352  -1.740   9.142   7.196 -3.5562  0.0322 -1.8311
  568MOL0     H78353  -1.761   9.304   7.152  0.0085 -1.7942 -0.8091
  568MOL0     H78354  -1.927   9.321   7.349  1.0678  0.0623  0.4136
  568MOL0     H78355  -1.876   9.162   7.405  2.2748  0.6109  0.5984
  568MOL0     H78356  -2.015   9.205   7.132 -1.1728  0.3118  0.2360
  568MOL0     H78357  -1.936   9.057   7.179  2.4199  1.0418  0.3765
  568MOL0     H78358  -2.145   9.193   7.367 -1.2208  1.5481 -2.5815
  568MOL0     H78359  -2.093   9.024   7.366  0.6644  0.0853 -0.8308
  568MOL0     H78360  -2.271   9.148   7.149 -3.5574 -1.8010 -2.0032
  568MOL0     H78361  -2.331   9.067   7.282  1.1653  1.3708  1.4639
  568MOL0     H78362  -2.198   8.944   7.047  1.5435 -0.9422  1.1425
  568MOL0     H78363  -2.350   8.932   7.096 -0.5473 -1.6284  1.6179
  568MOL0     H78364  -1.194   9.438   7.484  2.0164  2.0695  0.3858
  568MOL0     H78365  -0.994   9.514   7.402 -2.1735  1.1812  0.0942
  568MOL0     H78366  -0.508   9.496   7.288 -0.6114  0.3132  0.0696
  568MOL0     H78367  -0.336   9.590   7.185 -1.8472 -1.4825  3.0501
  568MOL0     H78368   1.071  10.220   7.738  3.8222 -0.4496  0.1865
  568MOL0     H78369   1.240  10.210   7.897 -2.1651  0.3205 -0.8467
  568MOL0     H78370   1.400   9.719   8.278 -1.6461  1.2001 -0.2707
  568MOL0     H78371   1.601   9.684   8.408 -0.6942  0.7250  0.4739
  568MOL0     H78372   1.766   9.745   8.603 -1.1448  2.1028 -0.1817
  568MOL0     H78373   1.834   9.682   8.439  0.7324 -2.7125  2.4015
  568MOL0     H78374   1.971   9.891   8.592 -1.6485 -1.1016  0.3696
  568MOL0     H78375   2.033   9.784   8.468 -0.3086  2.6946 -0.2297
  568MOL0     H78376   2.117   9.740   8.707 -0.3701  3.6098 -1.4767
  568MOL0     H78377   1.951   9.708   8.757  1.4196 -0.8849  1.5287
  568MOL0     H78378   1.913   9.535   8.597 -0.2953 -1.0510  0.4747
  568MOL0     H78379   2.048   9.485   8.700  1.0569  0.6699  0.7255
  568MOL0     H78380   2.241   9.474   8.320  0.3830  1.0523 -0.5223
  568MOL0     H78381   1.725  10.085   8.324  0.3410  0.6691 -0.0781
  568MOL0     H78382   1.436  10.200   8.226  0.9653 -1.1576  1.1397
  568MOL0     H78383   1.605  10.240   8.205  1.1425 -0.0803  0.0151
  568MOL0     H78384   1.506  10.168   8.065 -5.4353  2.2060  0.8140
  569MOL0     O78385   5.846   2.045   8.518  0.3229  0.1651  0.6688
  569MOL0     C78386   5.846   2.169   8.521 -0.3814  0.1753  0.3313
  569MOL0     O78387   5.953   2.245   8.540 -0.1155 -0.3982  0.6951
  569MOL0     C78388   6.046   2.188   8.624 -1.1034 -0.6456  0.0447
  569MOL0     C78389   6.024   2.160   8.756  0.3711 -0.3680  1.0624
  569MOL0     C78390   6.117   2.113   8.845 -0.3799  0.1102 -0.6790
  569MOL0     C78391   6.248   2.097   8.798 -0.3029 -0.7756 -0.7795
  569MOL0     O78392   6.357   2.054   8.877 -0.3841  0.1489 -0.0821
  569MOL0     C78393   6.343   2.078   9.016  0.4605  0.0990 -0.0362
  569MOL0     C78394   6.464   2.020   9.092 -0.0507  0.9357  0.3406
  569MOL0     C78395   6.433   2.004   9.240  0.4908  0.0033 -0.4913
  569MOL0     C78396   6.546   1.943   9.318  0.2178 -0.8211  0.0227
  569MOL0     C78397   6.507   1.951   9.465 -0.4818 -0.0235 -0.6835
  569MOL0     C78398   6.604   1.881   9.560  0.0944  1.0721 -0.3119
  569MOL0     C78399   6.748   1.923   9.557  0.0267 -0.2281 -0.0540
  569MOL0     C78400   6.772   2.077   9.546  0.1293 -0.4454 -0.4501
  569MOL0     N78401   6.916   2.110   9.559 -0.9949 -0.4517 -0.8028
  569MOL0     C78402   7.012   2.099   9.455 -0.5923 -0.6933 -0.3519
  569MOL0     C78403   7.118   2.169   9.509  0.6191 -0.0052 -0.1330
  569MOL0     C78404   7.244   2.185   9.431 -0.4545  0.7780  0.4847
  569MOL0     C78405   7.264   2.337   9.397 -0.4661  0.1711 -0.3782
  569MOL0     C78406   7.390   2.353   9.310 -0.1706  0.2912  0.9858
  569MOL0     C78407   7.410   2.494   9.255 -0.0737 -0.0066 -0.2718
  569MOL0     O78408   7.305   2.581   9.301  0.3617 -0.7316 -0.1262
  569MOL0     C78409   7.311   2.716   9.276  0.7362 -0.2302  0.8162
  569MOL0     C78410   7.201   2.785   9.335 -0.0201  0.4517 -1.1914
  569MOL0     C78411   7.171   2.917   9.318  0.5180  0.8088  0.0025
  569MOL0     C78412   7.058   2.960   9.401  1.5833 -0.0226  0.1303
  569MOL0     C78413   7.256   2.983   9.225 -0.2824 -1.2716 -0.4045
  569MOL0     C78414   7.234   3.127   9.186 -0.1145 -0.2404  0.5023
  569MOL0     O78415   7.287   3.170   9.068 -0.6149  0.4562 -0.4666
  569MOL0     C78416   7.315   3.302   9.074  0.7092 -0.3773  0.4331
  569MOL0     C78417   7.267   3.375   8.968  1.1871 -0.7245  0.2974
  569MOL0     C78418   7.288   3.513   8.970  0.7975 -0.6793 -0.0938
  569MOL0     C78419   7.350   3.580   9.075 -0.1768 -0.3284 -0.5604
  569MOL0     O78420   7.355   3.722   9.077 -0.7343  0.8445  0.5032
  569MOL0     C78421   7.425   3.795   9.177  0.6156 -0.1389  0.8973
  569MOL0     C78422   7.437   3.945   9.140 -0.7284  0.3107 -0.7934
  569MOL0     C78423   7.542   3.951   9.036  0.9294 -0.0377  0.0329
  569MOL0     C78424   7.566   4.085   8.964 -0.3903  0.9025 -0.2024
  569MOL0     C78425   7.667   4.079   8.853  0.2115  0.0623  0.3366
  569MOL0     C78426   7.592   4.117   8.719  0.4889  0.3002 -1.0987
  569MOL0     C78427   7.686   4.124   8.603  0.0532 -0.0311  0.4367
  569MOL0     C78428   7.770   4.247   8.596  0.0683  0.0679 -0.5749
  569MOL0    Cl78429   7.873   4.248   8.460  0.0202  0.2158  0.0438
  569MOL0     C78430   7.414   3.500   9.171  0.4305  0.1417 -0.8167
  569MOL0     C78431   7.399   3.362   9.168  0.0146 -1.2093 -1.3221
  569MOL0     O78432   7.158   3.194   9.249 -0.0712 -0.2589 -0.4937
  569MOL0     C78433   7.370   2.922   9.166  0.1185 -0.1797  0.2441
  569MOL0     C78434   7.400   2.787   9.191  0.2150 -0.2566  0.2761
  569MOL0     N78435   7.098   2.195   9.645  0.2551 -0.0360  1.2287
  569MOL0     N78436   6.978   2.167   9.677  0.4969  0.7950  0.1186
  569MOL0     C78437   6.277   2.122   8.659 -0.3642  0.8828  0.7693
  569MOL0     C78438   6.176   2.175   8.581 -0.4472  0.2047  0.5635
  569MOL0     C78439   5.710   2.232   8.489 -0.0212  1.0217  0.4793
  569MOL0     C78440   5.595   2.152   8.493  0.6730 -0.2113  0.3738
  569MOL0     C78441   5.477   2.211   8.443  0.3480  0.3524  0.0848
  569MOL0     C78442   5.465   2.341   8.400 -0.1686 -0.7439 -0.0132
  569MOL0     O78443   5.351   2.398   8.343  0.2298  0.5977  0.1403
  569MOL0     C78444   5.236   2.312   8.313 -0.3934 -0.2836  0.4773
  569MOL0     C78445   5.116   2.395   8.288 -0.7162 -0.2977 -0.0274
  569MOL0     C78446   5.079   2.481   8.407 -0.1191 -0.1157 -0.4984
  569MOL0     C78447   4.933   2.522   8.405 -0.3923  0.2077 -0.0892
  569MOL0     C78448   4.894   2.618   8.295  0.2343  0.3116  0.4180
  569MOL0     C78449   4.855   2.708   8.218 -0.4740 -0.0664 -0.7031
  569MOL0     C78450   5.572   2.427   8.418  0.3476 -0.5334 -0.6338
  569MOL0     C78451   5.694   2.374   8.457 -0.3928 -1.0217  0.2572
  569MOL0     C78452   5.815   2.471   8.475 -0.5674  0.3520 -0.5271
  569MOL0     H78453   5.923   2.177   8.791 -0.4571 -1.5292 -0.5894
  569MOL0     H78454   6.084   2.084   8.944  2.8907  2.1336  1.2137
  569MOL0     H78455   6.252   2.028   9.051 -0.1201  0.2576 -1.2421
  569MOL0     H78456   6.330   2.185   9.036 -1.4881 -0.0965 -0.0858
  569MOL0     H78457   6.480   1.922   9.046 -1.1029  0.2810  1.3325
  569MOL0     H78458   6.551   2.083   9.066  0.9425 -0.3468  0.4345
  569MOL0     H78459   6.399   2.103   9.274 -0.8396 -0.2641 -0.9868
  569MOL0     H78460   6.344   1.941   9.248 -0.6221  1.6737  1.2447
  569MOL0     H78461   6.558   1.839   9.285  2.4671 -0.1350 -1.6117
  569MOL0     H78462   6.637   2.001   9.301 -0.3301 -1.0506 -5.3448
  569MOL0     H78463   6.413   1.906   9.498  0.8860 -1.1172  1.9816
  569MOL0     H78464   6.501   2.054   9.502  0.1256 -0.0238 -0.5843
  569MOL0     H78465   6.573   1.896   9.664  0.5360 -1.0263  0.1630
  569MOL0     H78466   6.589   1.775   9.542  2.7403  0.0801  2.4906
  569MOL0     H78467   6.792   1.873   9.470 -0.6950  1.1274 -1.2356
  569MOL0     H78468   6.788   1.881   9.650  0.0830  1.0207  0.4972
  569MOL0     H78469   6.738   2.103   9.446 -0.0370 -1.2219 -0.6015
  569MOL0     H78470   6.713   2.130   9.621 -1.5579 -1.8202 -0.7638
  569MOL0     H78471   7.003   2.057   9.355 -0.0065 -2.0352  0.1430
  569MOL0     H78472   7.226   2.118   9.347 -1.4615  2.1813 -0.4379
  569MOL0     H78473   7.318   2.142   9.500 -0.2100 -1.6291 -1.1522
  569MOL0     H78474   7.173   2.386   9.362 -1.7794 -0.6584  1.6905
  569MOL0     H78475   7.275   2.381   9.497 -0.8041  1.3314 -0.8374
  569MOL0     H78476   7.479   2.315   9.361 -0.7873 -0.5232  1.4787
  569MOL0     H78477   7.366   2.297   9.219 -2.1832  1.5548  0.6843
  569MOL0     H78478   7.507   2.527   9.292 -0.1574 -2.6382  2.6656
  569MOL0     H78479   7.403   2.491   9.146  1.8006 -3.3918 -0.4401
  569MOL0     H78480   7.139   2.733   9.407 -0.8120 -0.7555 -2.6736
  569MOL0     H78481   6.992   2.875   9.418 -0.2764  0.9893 -1.6100
  569MOL0     H78482   6.991   3.035   9.359  0.8338 -0.3942  0.6324
  569MOL0     H78483   7.096   3.004   9.494 -1.4327 -1.3835  2.1809
  569MOL0     H78484   7.208   3.317   8.898  1.0342  1.2587 -1.3009
  569MOL0     H78485   7.231   3.571   8.897 -0.3465 -3.4439 -1.5614
  569MOL0     H78486   7.365   3.789   9.268 -4.4371  0.8935 -1.9672
  569MOL0     H78487   7.520   3.741   9.187 -0.1395 -1.2345  2.3794
  569MOL0     H78488   7.342   3.989   9.110 -0.7242 -1.2875 -3.3951
  569MOL0     H78489   7.477   4.005   9.223  2.5942 -1.1911 -1.1556
  569MOL0     H78490   7.524   3.884   8.952  2.0523  1.5123 -1.5057
  569MOL0     H78491   7.636   3.925   9.084  1.7758 -0.1858 -1.6406
  569MOL0     H78492   7.620   4.147   9.036 -0.9644  1.2740 -0.0827
  569MOL0     H78493   7.474   4.137   8.935 -1.1394 -0.8842 -1.2466
  569MOL0     H78494   7.745   4.156   8.861  0.2823  0.4603 -2.8044
  569MOL0     H78495   7.707   3.978   8.852 -1.9828 -0.8982  1.8126
  569MOL0     H78496   7.535   4.209   8.731 -0.0937 -0.3029  1.1771
  569MOL0     H78497   7.519   4.040   8.689  1.5021 -0.1501 -2.5414
  569MOL0     H78498   7.620   4.106   8.518 -1.2037 -0.8719  1.5359
  569MOL0     H78499   7.760   4.044   8.598 -1.0852 -1.1658  0.9749
  569MOL0     H78500   7.837   4.253   8.682  1.9218 -1.2219 -1.8647
  569MOL0     H78501   7.699   4.330   8.610 -1.5521 -1.1439 -1.2267
  569MOL0     H78502   7.458   3.536   9.264 -1.1386 -1.0901  0.4729
  569MOL0     H78503   7.444   3.293   9.238 -0.0412 -0.3882 -0.4654
  569MOL0     H78504   7.439   2.976   9.102  1.7519  1.0824  2.8922
  569MOL0     H78505   7.482   2.739   9.139  0.8296 -1.0773  1.9353
  569MOL0     H78506   6.378   2.113   8.621 -1.2353  1.3937 -1.9405
  569MOL0     H78507   6.192   2.202   8.477  0.2573  3.0177  1.3064
  569MOL0     H78508   5.592   2.049   8.527 -4.6131  0.0935  1.6700
  569MOL0     H78509   5.396   2.146   8.410  1.1249  0.0255 -1.2462
  569MOL0     H78510   5.256   2.259   8.219 -0.4492  0.0187  0.2919
  569MOL0     H78511   5.228   2.239   8.394  1.5802  0.6573  1.5817
  569MOL0     H78512   5.028   2.335   8.264 -3.8378  4.6542 -2.5460
  569MOL0     H78513   5.130   2.462   8.203  1.7831 -0.7812 -0.0485
  569MOL0     H78514   5.098   2.431   8.502  1.9172 -2.7381 -2.1608
  569MOL0     H78515   5.136   2.574   8.399  0.8041 -0.5590  0.7136
  569MOL0     H78516   4.906   2.555   8.506 -0.5582 -2.6381  0.8848
  569MOL0     H78517   4.882   2.425   8.403  0.0953 -0.3282  4.3489
  569MOL0     H78518   4.826   2.778   8.142  0.4029  1.1650  0.0606
  569MOL0     H78519   5.565   2.534   8.402  0.2275 -0.7966 -2.5619
  569MOL0     H78520   5.892   2.439   8.404  0.4679 -2.4449  1.6442
  569MOL0     H78521   5.782   2.572   8.451 -2.3373 -0.3513 -1.2515
  569MOL0     H78522   5.847   2.463   8.579  0.3306 -1.4116 -0.8970
  570MOL0     O78523   5.661   8.735   1.346  0.2989 -0.9115 -0.0814
  570MOL0     C78524   5.770   8.755   1.399  0.1276 -0.3947  0.9943
  570MOL0     O78525   5.781   8.764   1.535 -0.3886 -0.4522 -0.0193
  570MOL0     C78526   5.675   8.744   1.620 -0.1752 -0.2780  1.3393
  570MOL0     C78527   5.692   8.670   1.742  0.5559  0.1307  0.3342
  570MOL0     C78528   5.592   8.662   1.836  0.0045 -0.2418  0.0645
  570MOL0     C78529   5.480   8.750   1.819  0.9084  0.5888 -0.3116
  570MOL0     O78530   5.383   8.758   1.911 -0.5736 -0.6415  0.0505
  570MOL0     C78531   5.420   8.728   2.048  0.6740 -0.1903  0.7984
  570MOL0     C78532   5.299   8.741   2.141  0.2646  0.4592  0.7626
  570MOL0     C78533   5.323   8.667   2.276 -0.4354 -0.1971  0.7567
  570MOL0     C78534   5.199   8.662   2.375 -0.3742 -0.3767  1.1067
  570MOL0     C78535   5.260   8.664   2.520 -0.0212 -0.1918  0.5951
  570MOL0     C78536   5.150   8.647   2.619 -0.3448 -0.6651 -0.5274
  570MOL0     C78537   5.194   8.650   2.761 -0.6673 -0.3791  0.5778
  570MOL0     C78538   5.075   8.609   2.853 -0.3656  0.8850 -0.3234
  570MOL0     N78539   5.113   8.580   3.000  0.4236 -0.2276  0.3356
  570MOL0     C78540   5.211   8.496   3.045 -0.9702 -0.2774 -0.2222
  570MOL0     C78541   5.228   8.529   3.176  0.2084 -0.5982  0.9403
  570MOL0     C78542   5.318   8.476   3.282 -0.3792 -0.0419  0.3581
  570MOL0     C78543   5.245   8.455   3.408  0.2536  0.2954 -0.2337
  570MOL0     C78544   5.319   8.360   3.504  0.3185 -0.1778  0.0853
  570MOL0     C78545   5.473   8.388   3.512  0.6202 -0.2615  0.0859
  570MOL0     O78546   5.512   8.300   3.611 -0.5146  0.3494 -0.1183
  570MOL0     C78547   5.643   8.282   3.639 -0.0892 -0.0543 -0.2155
  570MOL0     C78548   5.686   8.218   3.754  0.0041  0.2150  0.0018
  570MOL0     C78549   5.819   8.197   3.784  0.4648  0.1788 -0.5851
  570MOL0     C78550   5.848   8.120   3.912  0.5542 -0.9337  0.1701
  570MOL0     C78551   5.919   8.244   3.705  0.4316  0.2242 -0.3068
  570MOL0     C78552   6.071   8.226   3.725  0.3775 -0.4234 -0.3489
  570MOL0     O78553   6.155   8.289   3.643  0.9267 -0.5931  0.7845
  570MOL0     C78554   6.280   8.242   3.619  0.8259 -0.0907 -0.0498
  570MOL0     C78555   6.303   8.144   3.517  0.6319 -0.2721 -1.1365
  570MOL0     C78556   6.431   8.111   3.490  0.0917 -0.4451  0.3227
  570MOL0     C78557   6.540   8.150   3.577 -0.2788  0.1126  0.0782
  570MOL0     O78558   6.674   8.120   3.561 -0.1744  0.4967 -0.2746
  570MOL0     C78559   6.699   8.022   3.468 -0.2197 -0.5366  0.6122
  570MOL0     C78560   6.850   7.985   3.470  0.5899 -0.3123  0.1349
  570MOL0     C78561   6.934   8.078   3.384  0.8886 -0.2181 -0.6440
  570MOL0     C78562   6.943   8.221   3.444  0.6900  0.3664  1.0126
  570MOL0     C78563   7.071   8.289   3.410  0.3000  0.8263 -0.1422
  570MOL0     C78564   7.189   8.244   3.501  0.7933 -0.2594  0.4870
  570MOL0     C78565   7.332   8.298   3.458  0.0934  0.9422  0.1491
  570MOL0     C78566   7.331   8.453   3.466 -0.4137 -0.5570 -0.0316
  570MOL0    Cl78567   7.503   8.497   3.458 -0.1630  0.2138 -0.3399
  570MOL0     C78568   6.513   8.250   3.668 -0.8835 -0.1862 -0.2178
  570MOL0     C78569   6.386   8.293   3.693  0.5377 -0.3257 -0.3065
  570MOL0     O78570   6.110   8.149   3.810  0.8818 -0.1114 -0.1820
  570MOL0     C78571   5.889   8.309   3.582  0.6538  0.7705  0.2149
  570MOL0     C78572   5.751   8.320   3.550 -0.1272  0.3089 -0.0263
  570MOL0     N78573   5.143   8.637   3.207 -0.8736  0.5833 -0.6236
  570MOL0     N78574   5.065   8.659   3.109 -0.2901 -0.3849  0.2070
  570MOL0     C78575   5.460   8.815   1.703 -0.0677  0.4418  0.8537
  570MOL0     C78576   5.559   8.816   1.605 -0.3745 -0.3024 -0.0571
  570MOL0     C78577   5.904   8.776   1.329 -0.3821  0.0599  0.0217
  570MOL0     C78578   6.014   8.836   1.398  0.6210 -0.1176 -0.4243
  570MOL0     C78579   6.136   8.874   1.335 -0.9298 -0.8325  0.3107
  570MOL0     C78580   6.140   8.864   1.196 -0.0439  0.9254  0.4695
  570MOL0     O78581   6.250   8.925   1.132  0.4230  0.5383  0.2709
  570MOL0     C78582   6.242   8.937   0.990  0.2687  0.2485  0.2441
  570MOL0     C78583   6.368   8.998   0.935 -0.3749  0.2852 -0.2682
  570MOL0     C78584   6.482   8.900   0.933 -0.5821  0.3322 -0.0013
  570MOL0     C78585   6.458   8.777   0.842 -0.8381  0.0594 -0.9232
  570MOL0     C78586   6.583   8.704   0.819  0.8796 -0.7448  0.3464
  570MOL0     C78587   6.691   8.653   0.787  0.7197 -0.0697 -0.2516
  570MOL0     C78588   6.046   8.787   1.124  0.0778  0.0047 -0.3032
  570MOL0     C78589   5.932   8.741   1.189  0.5584  0.9202  1.1262
  570MOL0     C78590   5.831   8.674   1.092  0.5471 -0.8741 -0.2008
  570MOL0     H78591   5.783   8.613   1.759  0.1283 -1.6781 -2.7491
  570MOL0     H78592   5.618   8.619   1.932  0.5581  1.1645  0.5722
  570MOL0     H78593   5.505   8.793   2.072 -0.9279  1.5547  2.0389
  570MOL0     H78594   5.461   8.629   2.066 -0.5883 -0.5851  1.6712
  570MOL0     H78595   5.283   8.849   2.149  1.0306  1.0471 -3.3346
  570MOL0     H78596   5.210   8.703   2.089  2.5240  1.0382 -4.1107
  570MOL0     H78597   5.347   8.562   2.257 -0.4766  0.0855 -1.0673
  570MOL0     H78598   5.409   8.703   2.333 -1.7817  0.6339  2.3775
  570MOL0     H78599   5.137   8.750   2.358  0.2895  0.2471  1.8680
  570MOL0     H78600   5.129   8.581   2.352 -1.5502  0.3105  2.1536
  570MOL0     H78601   5.318   8.755   2.538  1.4399 -1.1836  1.1274
  570MOL0     H78602   5.333   8.583   2.517 -2.4901 -2.5566 -0.9663
  570MOL0     H78603   5.076   8.725   2.600 -0.7350 -0.8305  0.2367
  570MOL0     H78604   5.102   8.550   2.605  1.1683 -2.3423  3.9515
  570MOL0     H78605   5.223   8.751   2.792  1.0743 -0.8413  0.5498
  570MOL0     H78606   5.278   8.580   2.766  0.3541  0.3053 -3.4990
  570MOL0     H78607   5.001   8.690   2.853  0.2183  1.4655  1.1788
  570MOL0     H78608   5.022   8.516   2.829 -1.3970  1.5279 -0.5891
  570MOL0     H78609   5.247   8.410   2.989 -2.5292 -0.6768 -0.6502
  570MOL0     H78610   5.405   8.542   3.275  1.0765 -1.8292  0.6117
  570MOL0     H78611   5.352   8.374   3.260 -2.0038 -1.0768  2.3117
  570MOL0     H78612   5.245   8.550   3.463  3.4802  0.1300  0.2870
  570MOL0     H78613   5.144   8.420   3.386 -0.3263  1.3961  0.5884
  570MOL0     H78614   5.270   8.362   3.602 -0.1967 -0.6100 -0.1616
  570MOL0     H78615   5.300   8.260   3.465 -1.2869  0.0652  0.1644
  570MOL0     H78616   5.521   8.380   3.414 -1.2853 -4.2987 -0.7176
  570MOL0     H78617   5.486   8.487   3.557 -1.5872  0.9011 -1.6597
  570MOL0     H78618   5.614   8.179   3.824  0.8284 -1.5046 -0.0524
  570MOL0     H78619   5.918   8.037   3.895 -1.1437 -2.8478  1.8964
  570MOL0     H78620   5.759   8.069   3.949  0.4278  0.3147  1.6858
  570MOL0     H78621   5.878   8.190   3.991 -0.6681  3.0232 -2.5803
  570MOL0     H78622   6.217   8.097   3.471  2.2137 -3.7706 -0.8732
  570MOL0     H78623   6.448   8.059   3.397  2.8523  1.6345 -0.4740
  570MOL0     H78624   6.644   7.933   3.499 -1.2655 -0.1560 -0.0777
  570MOL0     H78625   6.677   8.065   3.370 -2.3983 -2.8743 -0.0488
  570MOL0     H78626   6.886   7.984   3.573  1.9742  0.4938 -0.3127
  570MOL0     H78627   6.866   7.889   3.422  2.0425  0.3740 -0.8246
  570MOL0     H78628   6.899   8.078   3.280 -0.9230 -4.8989 -0.3031
  570MOL0     H78629   7.039   8.047   3.378  1.1045 -0.4375  2.6085
  570MOL0     H78630   6.940   8.224   3.553  1.8231 -1.1031  1.1239
  570MOL0     H78631   6.860   8.276   3.397  1.5903 -1.5706 -3.3541
  570MOL0     H78632   7.097   8.270   3.306 -1.8534 -0.4399 -0.5029
  570MOL0     H78633   7.058   8.396   3.423 -0.8113  0.8823 -1.4729
  570MOL0     H78634   7.192   8.135   3.498 -2.4004 -0.4228 -2.2048
  570MOL0     H78635   7.166   8.263   3.606 -1.3768  0.3296 -0.0486
  570MOL0     H78636   7.345   8.258   3.357  1.9337 -0.2149  0.7961
  570MOL0     H78637   7.406   8.253   3.524 -0.1578  1.8526  1.0794
  570MOL0     H78638   7.288   8.491   3.560  2.4778  3.8984 -0.2227
  570MOL0     H78639   7.277   8.495   3.381 -0.3203 -3.4681 -1.6684
  570MOL0     H78640   6.588   8.298   3.729 -1.2691 -0.9267  0.8740
  570MOL0     H78641   6.373   8.361   3.777 -0.5149 -1.2262  0.2841
  570MOL0     H78642   5.966   8.350   3.518  0.5700  1.1029  0.3261
  570MOL0     H78643   5.735   8.362   3.451  1.2353  3.3836  0.9054
  570MOL0     H78644   5.370   8.875   1.698 -1.3372 -1.4402  0.3938
  570MOL0     H78645   5.540   8.871   1.514 -0.6303  1.0601  0.7917
  570MOL0     H78646   5.997   8.868   1.501 -1.5188  0.8117 -1.0003
  570MOL0     H78647   6.218   8.931   1.378 -0.7365 -0.4335 -0.5502
  570MOL0     H78648   6.228   8.839   0.945 -1.3590  1.1760 -1.4096
  570MOL0     H78649   6.156   8.996   0.958  1.3210  2.1286  0.7009
  570MOL0     H78650   6.405   9.082   0.994  1.1889 -0.1704 -0.5459
  570MOL0     H78651   6.343   9.028   0.833  1.2341  2.3500 -0.0987
  570MOL0     H78652   6.562   8.955   0.884 -0.4665 -1.4715 -1.9832
  570MOL0     H78653   6.519   8.877   1.034 -0.2790  0.0890 -0.1668
  570MOL0     H78654   6.429   8.824   0.747  0.7872  0.9727 -1.0014
  570MOL0     H78655   6.384   8.708   0.883 -0.8031  0.6758  0.2040
  570MOL0     H78656   6.775   8.602   0.744  2.6512  1.3481  1.6157
  570MOL0     H78657   6.057   8.754   1.021  2.8785  0.7225 -0.3010
  570MOL0     H78658   5.876   8.577   1.068  0.4421 -0.7794 -0.7909
  570MOL0     H78659   5.733   8.658   1.139  0.8660  3.0364  2.2250
  570MOL0     H78660   5.815   8.737   1.005 -1.3755  1.0193  1.4247
  571MOL0     O78661   9.511   7.041   5.221 -0.1316  0.2340  0.2785
  571MOL0     C78662   9.453   7.148   5.240 -0.0112 -0.0713  0.1989
  571MOL0     O78663   9.513   7.260   5.277 -0.0399  0.0806 -0.6059
  571MOL0     C78664   9.652   7.274   5.283  0.3874  0.8260 -0.5373
  571MOL0     C78665   9.740   7.222   5.191 -0.5476  0.5682  0.0063
  571MOL0     C78666   9.875   7.234   5.213 -0.8072 -0.4101  0.5418
  571MOL0     C78667   9.925   7.299   5.323  0.2417 -0.4938 -0.6702
  571MOL0     O78668  10.059   7.282   5.342 -0.4565  0.1174 -0.3066
  571MOL0     C78669  10.135   7.376   5.420  0.1209 -0.4519 -1.0738
  571MOL0     C78670  10.135   7.502   5.341 -1.0028 -0.6834  0.0828
  571MOL0     C78671  10.260   7.594   5.356 -0.6518 -0.5905 -0.3868
  571MOL0     C78672  10.393   7.525   5.341  1.1904  0.3841 -1.3194
  571MOL0     C78673  10.510   7.606   5.380  0.3224  0.1135  0.1555
  571MOL0     C78674  10.635   7.539   5.329  0.2532  0.5258 -0.2859
  571MOL0     C78675  10.760   7.589   5.403 -1.1354  0.2465 -0.2166
  571MOL0     C78676  10.785   7.740   5.376  0.8645  0.2658  0.6528
  571MOL0     N78677  10.896   7.808   5.440  0.3246  0.1033  0.3505
  571MOL0     C78678  10.940   7.931   5.407  0.1564  0.0703 -0.4018
  571MOL0     C78679  11.047   7.950   5.493 -1.0639 -0.6738 -0.0421
  571MOL0     C78680  11.109   8.093   5.491  0.3712  1.0176  0.4605
  571MOL0     C78681  11.183   8.108   5.351 -0.6685  0.5277  0.4306
  571MOL0     C78682  11.308   8.208   5.346  0.2600 -0.4925 -0.8083
  571MOL0     C78683  11.262   8.343   5.389  0.2473 -0.2916  0.5891
  571MOL0     O78684  11.362   8.434   5.344 -0.0637 -0.4678  0.5791
  571MOL0     C78685  11.480   8.451   5.417 -0.2048 -0.0769  0.2261
  571MOL0     C78686  11.577   8.522   5.345 -0.3560 -0.4855  0.2367
  571MOL0     C78687  11.706   8.528   5.401 -0.0946 -0.0174 -0.4255
  571MOL0     C78688  11.816   8.567   5.309 -0.8819  0.1693  0.9337
  571MOL0     C78689  11.728   8.480   5.538 -0.7182  0.7764  1.0113
  571MOL0     C78690  11.856   8.495   5.613 -0.8372  0.9340 -0.9059
  571MOL0     O78691  11.876   8.411   5.715 -0.1332 -0.0214  0.0208
  571MOL0     C78692  11.973   8.430   5.809 -0.5857  0.0447  0.6680
  571MOL0     C78693  12.042   8.318   5.848  0.7554 -0.9396 -0.1002
  571MOL0     C78694  12.147   8.334   5.944 -0.1367 -0.0397  0.4533
  571MOL0     C78695  12.172   8.456   6.013  0.4714 -0.3505  0.8300
  571MOL0     O78696  12.273   8.468   6.110  0.3605  0.0625  0.3973
  571MOL0     C78697  12.244   8.550   6.224  0.1171 -0.6319 -0.4242
  571MOL0     C78698  12.382   8.564   6.297 -0.1518  0.4990  0.8772
  571MOL0     C78699  12.495   8.617   6.208  0.5545 -0.3377 -1.0497
  571MOL0     C78700  12.581   8.706   6.298  0.5896 -0.3501 -0.3583
  571MOL0     C78701  12.705   8.750   6.213 -0.0096  0.1798  0.3014
  571MOL0     C78702  12.810   8.646   6.195 -0.3305  0.9548 -0.3259
  571MOL0     C78703  12.927   8.710   6.121  0.2793 -0.1989  0.2812
  571MOL0     C78704  13.058   8.626   6.143  0.0624 -0.5102 -0.0059
  571MOL0    Cl78705  13.192   8.700   6.053 -0.5343 -0.2795  0.0076
  571MOL0     C78706  12.088   8.567   5.970 -0.2754 -0.2178 -0.2862
  571MOL0     C78707  12.001   8.554   5.858 -0.7803 -0.4101 -0.4070
  571MOL0     O78708  11.937   8.574   5.571  0.3787 -0.5713  0.5715
  571MOL0     C78709  11.620   8.420   5.605  0.2083  1.0947 -0.3007
  571MOL0     C78710  11.501   8.401   5.550 -0.6057 -0.2345  0.8325
  571MOL0     N78711  11.073   7.840   5.571 -0.5936  0.7507 -0.4558
  571MOL0     N78712  10.973   7.755   5.541  0.2764  0.3732  0.4085
  571MOL0     C78713   9.843   7.362   5.413  0.0633 -0.3612  1.3163
  571MOL0     C78714   9.703   7.353   5.387 -0.0312  0.1446  0.4782
  571MOL0     C78715   9.304   7.144   5.216  0.8750 -0.8161 -0.6377
  571MOL0     C78716   9.230   7.267   5.196 -0.5320  0.2323 -0.1188
  571MOL0     C78717   9.098   7.269   5.179  0.0979  1.1566 -0.4075
  571MOL0     C78718   9.024   7.145   5.172 -0.6087 -1.2001  0.6018
  571MOL0     O78719   8.890   7.142   5.154 -0.4960 -0.3177  0.0645
  571MOL0     C78720   8.797   7.257   5.166 -0.1757  0.3446  0.2964
  571MOL0     C78721   8.793   7.322   5.305  0.7712  0.0695 -0.1996
  571MOL0     C78722   8.732   7.458   5.290 -0.1244  0.4377  0.4097
  571MOL0     C78723   8.742   7.552   5.412 -0.2443 -0.0566 -0.1657
  571MOL0     C78724   8.879   7.596   5.416  0.3208 -0.3422 -1.0398
  571MOL0     C78725   8.995   7.612   5.444 -0.3330 -0.2814 -0.7606
  571MOL0     C78726   9.097   7.032   5.184 -0.1268 -0.1635 -0.5265
  571MOL0     C78727   9.228   7.023   5.215 -0.7508 -0.2328 -0.2995
  571MOL0     C78728   9.282   6.887   5.246  0.2701  0.7733  0.1232
  571MOL0     H78729   9.701   7.163   5.109  0.4801  0.9875 -0.8100
  571MOL0     H78730   9.948   7.188   5.146 -1.1052  2.3217 -1.8848
  571MOL0     H78731  10.235   7.331   5.418  1.7569  2.9003 -1.1517
  571MOL0     H78732  10.098   7.396   5.521 -1.5338 -1.4847 -1.4309
  571MOL0     H78733  10.128   7.483   5.233 -0.5764 -0.3724 -0.0040
  571MOL0     H78734  10.052   7.573   5.344 -0.3353  0.1373 -0.3850
  571MOL0     H78735  10.250   7.678   5.287  1.4596  0.6947  0.7877
  571MOL0     H78736  10.253   7.635   5.457  0.6790  1.3854 -1.0397
  571MOL0     H78737  10.392   7.436   5.404 -3.7229  0.2925 -1.1276
  571MOL0     H78738  10.402   7.482   5.240 -0.0946 -2.2486 -0.3890
  571MOL0     H78739  10.510   7.631   5.486  0.1260 -0.0840  0.2015
  571MOL0     H78740  10.489   7.698   5.325 -1.7686 -0.1217  0.4878
  571MOL0     H78741  10.622   7.431   5.344  0.7743  0.2096 -1.9021
  571MOL0     H78742  10.640   7.552   5.220 -0.3253  1.4889 -0.2068
  571MOL0     H78743  10.844   7.534   5.359  0.2105  0.8720  1.4696
  571MOL0     H78744  10.759   7.572   5.511  1.6021 -1.3110 -0.3334
  571MOL0     H78745  10.800   7.753   5.268 -2.1298  2.3684  0.3791
  571MOL0     H78746  10.689   7.788   5.397  1.6721  1.7518  1.0886
  571MOL0     H78747  10.900   7.997   5.331 -1.5623  1.2906  1.4579
  571MOL0     H78748  11.182   8.087   5.573 -0.1566  1.7262  0.9936
  571MOL0     H78749  11.045   8.179   5.513  0.7987  1.5506 -0.3412
  571MOL0     H78750  11.221   8.012   5.318 -1.9462 -0.6516  2.1919
  571MOL0     H78751  11.115   8.140   5.272 -0.3378 -0.1958 -0.1495
  571MOL0     H78752  11.383   8.178   5.420 -0.3987 -2.5178 -0.9080
  571MOL0     H78753  11.335   8.210   5.240 -0.3502 -0.8704 -0.9702
  571MOL0     H78754  11.165   8.367   5.346 -1.3992 -0.1162  4.0236
  571MOL0     H78755  11.246   8.351   5.497 -0.9702  1.6997  0.3060
  571MOL0     H78756  11.556   8.575   5.254 -0.8849  2.8160  2.1338
  571MOL0     H78757  11.771   8.601   5.215  2.9390  1.5707 -0.5940
  571MOL0     H78758  11.862   8.479   5.263 -2.3436 -0.0891 -0.0724
  571MOL0     H78759  11.886   8.645   5.342 -0.7064 -0.1712  1.3872
  571MOL0     H78760  12.032   8.219   5.803  0.8329 -1.2941  0.6593
  571MOL0     H78761  12.209   8.250   5.976  0.3547 -0.1556 -0.7463
  571MOL0     H78762  12.212   8.654   6.208 -1.3382 -0.2297  3.6606
  571MOL0     H78763  12.172   8.509   6.295 -1.1843  1.1857 -0.6067
  571MOL0     H78764  12.360   8.623   6.386  0.2476  1.6753  0.2171
  571MOL0     H78765  12.410   8.466   6.339 -0.6561 -1.0176 -2.0487
  571MOL0     H78766  12.448   8.670   6.125 -2.4443 -0.6791  0.2865
  571MOL0     H78767  12.554   8.533   6.170  1.4313 -0.1574 -0.1335
  571MOL0     H78768  12.610   8.655   6.391  0.1052  0.2024  0.1081
  571MOL0     H78769  12.521   8.795   6.319  0.5719  0.0353 -1.9810
  571MOL0     H78770  12.668   8.792   6.119  2.5951  3.8303  0.6859
  571MOL0     H78771  12.758   8.830   6.266  0.6681 -0.5471  0.7391
  571MOL0     H78772  12.773   8.561   6.138 -0.3004 -0.0059  1.0485
  571MOL0     H78773  12.840   8.609   6.293 -0.0023 -2.7355 -1.6881
  571MOL0     H78774  12.937   8.814   6.150 -0.4665  0.6098 -2.1064
  571MOL0     H78775  12.903   8.711   6.014  0.3530 -1.4970  0.2265
  571MOL0     H78776  13.039   8.525   6.106 -2.2369 -0.3054  0.4357
  571MOL0     H78777  13.081   8.621   6.250  1.6178 -2.0713 -0.3649
  571MOL0     H78778  12.107   8.661   6.022  1.7120 -2.1743  2.8344
  571MOL0     H78779  11.946   8.641   5.824  0.1000  0.4065  0.1996
  571MOL0     H78780  11.627   8.365   5.699  0.3790  0.4862 -0.6630
  571MOL0     H78781  11.420   8.365   5.614 -1.4021  0.6453  0.3471
  571MOL0     H78782   9.885   7.426   5.489  2.5279 -1.1142  0.6934
  571MOL0     H78783   9.633   7.417   5.440 -0.3995  1.0887 -1.0639
  571MOL0     H78784   9.299   7.351   5.199  2.3514 -1.6648 -4.0517
  571MOL0     H78785   9.050   7.365   5.165 -0.1917  1.7254  3.3284
  571MOL0     H78786   8.830   7.337   5.099 -1.2108 -0.4032 -1.1619
  571MOL0     H78787   8.703   7.210   5.133  1.2548 -0.0440 -3.8818
  571MOL0     H78788   8.896   7.324   5.341  0.8876  0.9685 -0.5821
  571MOL0     H78789   8.723   7.263   5.366 -0.3379 -0.4818 -1.9259
  571MOL0     H78790   8.775   7.506   5.202  4.7421  0.6141  2.5599
  571MOL0     H78791   8.627   7.446   5.261 -0.7793  0.7720  2.4757
  571MOL0     H78792   8.689   7.509   5.497  1.3162 -0.3155  0.6998
  571MOL0     H78793   8.678   7.639   5.390 -0.9234  0.0395  1.9503
  571MOL0     H78794   9.100   7.616   5.464 -0.3165 -2.2110 -0.2839
  571MOL0     H78795   9.051   6.934   5.172 -0.8885  0.1235 -0.0408
  571MOL0     H78796   9.337   6.850   5.159  2.4284 -0.8064  2.0333
  571MOL0     H78797   9.347   6.894   5.334 -2.5006 -1.7087  2.5795
  571MOL0     H78798   9.205   6.815   5.274  0.1251  0.8543 -0.0585
  572MOL0     O78799  10.809   6.453   2.295  0.0967  0.6109  0.0790
  572MOL0     C78800  10.755   6.565   2.309 -0.0470  0.2829 -0.4973
  572MOL0     O78801  10.823   6.687   2.311  0.2759  0.8464 -0.7187
  572MOL0     C78802  10.933   6.702   2.399  0.4480 -1.0757  0.1239
  572MOL0     C78803  10.937   6.642   2.523 -1.0092 -0.3028 -0.2954
  572MOL0     C78804  11.058   6.661   2.594  0.2273  0.6245 -0.2784
  572MOL0     C78805  11.157   6.755   2.559 -0.3626 -0.3175 -0.4857
  572MOL0     O78806  11.279   6.757   2.622 -0.3645  0.1642 -0.5759
  572MOL0     C78807  11.401   6.731   2.543  0.0700 -0.3261  0.3371
  572MOL0     C78808  11.510   6.816   2.613 -1.1082  0.0863  0.0386
  572MOL0     C78809  11.639   6.840   2.515 -0.2044  0.9582 -0.4586
  572MOL0     C78810  11.742   6.937   2.571 -0.5677 -0.7244 -0.3998
  572MOL0     C78811  11.798   6.891   2.703  0.0829 -0.3565  0.3699
  572MOL0     C78812  11.897   6.987   2.763 -0.1200  0.0872 -0.1660
  572MOL0     C78813  11.950   6.947   2.898 -0.6088  0.1423  0.0560
  572MOL0     C78814  12.017   6.809   2.919  0.3441 -0.9429  0.6990
  572MOL0     N78815  12.120   6.768   2.821  0.5096 -0.0360  0.1517
  572MOL0     C78816  12.168   6.642   2.821  0.0232  0.1262 -0.5894
  572MOL0     C78817  12.288   6.643   2.752  0.5436  0.5550 -0.6663
  572MOL0     C78818  12.360   6.525   2.706 -0.0490  0.3312  0.2748
  572MOL0     C78819  12.511   6.563   2.738  0.1400  0.2331  0.1457
  572MOL0     C78820  12.619   6.464   2.692  0.0105 -0.1944 -0.8471
  572MOL0     C78821  12.680   6.377   2.806  0.2672 -0.3246  0.1030
  572MOL0     O78822  12.722   6.465   2.914  0.5064  0.1551  0.2961
  572MOL0     C78823  12.857   6.504   2.918 -0.1938 -0.5024  0.2110
  572MOL0     C78824  12.886   6.618   2.997 -0.7000  0.5519 -0.3964
  572MOL0     C78825  13.015   6.666   3.033 -0.2155  0.2405  0.1799
  572MOL0     C78826  13.013   6.784   3.121  0.1118  1.4297  0.0575
  572MOL0     C78827  13.131   6.604   2.970  0.3962  0.4547 -0.9247
  572MOL0     C78828  13.261   6.658   2.982 -0.4216  0.0185 -0.2829
  572MOL0     O78829  13.366   6.569   2.946 -0.1880 -0.3594  0.0169
  572MOL0     C78830  13.488   6.624   2.920 -0.4206 -0.4308 -0.6677
  572MOL0     C78831  13.593   6.583   3.009  0.4601  0.1166  0.2995
  572MOL0     C78832  13.730   6.623   2.986  0.7728 -0.2821 -1.1680
  572MOL0     C78833  13.763   6.702   2.882 -0.4090  0.7952 -0.7157
  572MOL0     O78834  13.897   6.734   2.853 -0.5045 -0.5798 -0.2055
  572MOL0     C78835  13.981   6.782   2.964 -0.1811  0.8166  0.8194
  572MOL0     C78836  14.084   6.670   2.999 -0.4334  0.5012 -0.1454
  572MOL0     C78837  14.206   6.661   2.894  0.3286 -0.0555 -0.0188
  572MOL0     C78838  14.317   6.581   2.953 -0.6733  0.4829 -0.2725
  572MOL0     C78839  14.433   6.552   2.850  0.5533 -0.2420 -0.3091
  572MOL0     C78840  14.531   6.441   2.876 -0.0074  0.1726 -0.9083
  572MOL0     C78841  14.641   6.426   2.759  0.0578 -0.0171 -0.1186
  572MOL0     C78842  14.749   6.318   2.795 -0.5850 -0.4947  0.1993
  572MOL0    Cl78843  14.693   6.162   2.823  0.5723 -0.1316  0.4367
  572MOL0     C78844  13.662   6.742   2.789  0.1755 -0.1791 -1.5015
  572MOL0     C78845  13.521   6.704   2.808 -0.7762 -0.3611  0.2586
  572MOL0     O78846  13.280   6.777   3.010  0.5613 -0.5051 -0.1810
  572MOL0     C78847  13.099   6.494   2.881 -0.0181 -0.2646 -0.2101
  572MOL0     C78848  12.971   6.442   2.857  0.3433  0.1466  0.7726
  572MOL0     N78849  12.313   6.777   2.718 -0.2629 -0.0165 -0.1330
  572MOL0     N78850  12.213   6.847   2.757  0.5904 -0.7882  0.2274
  572MOL0     C78851  11.132   6.829   2.448 -0.3379 -1.1967 -0.2296
  572MOL0     C78852  11.027   6.794   2.363 -0.0281  0.7856  0.2495
  572MOL0     C78853  10.604   6.565   2.330  0.6722  0.3930 -0.0294
  572MOL0     C78854  10.549   6.649   2.424  0.3723  0.0062  0.1611
  572MOL0     C78855  10.412   6.649   2.444  0.9166  0.0414 -0.6442
  572MOL0     C78856  10.322   6.553   2.380 -0.5111 -0.6713 -0.3616
  572MOL0     O78857  10.191   6.564   2.411 -0.1156 -0.1006  0.1606
  572MOL0     C78858  10.100   6.461   2.370 -0.2843 -0.8341  0.8020
  572MOL0     C78859   9.948   6.493   2.406 -0.6022 -0.5727 -0.4358
  572MOL0     C78860   9.882   6.628   2.344 -0.0973  0.4054  0.3524
  572MOL0     C78861   9.872   6.631   2.187 -0.3016 -0.3779  0.1535
  572MOL0     C78862   9.802   6.518   2.134 -0.1605 -0.3922 -0.4139
  572MOL0     C78863   9.734   6.433   2.083  0.5138 -0.1360 -0.9582
  572MOL0     C78864  10.383   6.466   2.288  0.2568  0.5423  0.0215
  572MOL0     C78865  10.523   6.480   2.258  1.2491  0.6808 -0.1452
  572MOL0     C78866  10.557   6.393   2.134  0.5421  0.1989  0.5254
  572MOL0     H78867  10.852   6.580   2.553 -0.1833 -1.3032  0.0667
  572MOL0     H78868  11.070   6.612   2.691 -1.2476 -0.4831 -0.6100
  572MOL0     H78869  11.398   6.743   2.435  1.7353  1.7445  0.4800
  572MOL0     H78870  11.447   6.633   2.560  3.0125  0.3364 -2.7821
  572MOL0     H78871  11.465   6.914   2.631 -2.8399 -0.4419 -1.2134
  572MOL0     H78872  11.539   6.762   2.704 -0.2660 -0.8816 -0.7770
  572MOL0     H78873  11.684   6.744   2.488 -0.4429  0.9464 -0.8230
  572MOL0     H78874  11.600   6.884   2.423 -0.2432 -0.7891 -1.3096
  572MOL0     H78875  11.822   6.939   2.496  0.0292 -3.0231  0.0991
  572MOL0     H78876  11.691   7.034   2.579  3.6343  1.8397 -1.2554
  572MOL0     H78877  11.853   6.798   2.692  0.9433  0.2209 -0.3039
  572MOL0     H78878  11.720   6.870   2.777  0.9526  0.2946  1.5128
  572MOL0     H78879  11.982   7.011   2.698 -1.2388  2.0475 -0.9948
  572MOL0     H78880  11.842   7.081   2.768  1.2530  1.1655 -3.1533
  572MOL0     H78881  11.871   6.960   2.972 -0.4299  2.1710 -0.0475
  572MOL0     H78882  12.031   7.019   2.913 -0.3778 -0.0077 -0.4394
  572MOL0     H78883  12.077   6.822   3.009  1.5367  2.4224 -0.4335
  572MOL0     H78884  11.941   6.730   2.921  1.3433 -1.9171  2.4324
  572MOL0     H78885  12.117   6.562   2.874 -0.7953  1.6116  0.9655
  572MOL0     H78886  12.365   6.511   2.598  1.4459 -1.6350  0.5410
  572MOL0     H78887  12.322   6.439   2.761  1.0815 -0.2600  0.1650
  572MOL0     H78888  12.537   6.655   2.685 -2.3642  0.3257 -1.0452
  572MOL0     H78889  12.518   6.579   2.846  1.3782 -3.5200  0.7490
  572MOL0     H78890  12.582   6.404   2.609 -0.0339 -1.3819  0.0131
  572MOL0     H78891  12.698   6.534   2.663 -0.4003  0.6800  0.0631
  572MOL0     H78892  12.595   6.314   2.834 -0.2398 -1.2845 -3.2555
  572MOL0     H78893  12.761   6.322   2.757  1.0272  0.8979 -0.0607
  572MOL0     H78894  12.802   6.668   3.045 -1.4236  0.5508 -1.6175
  572MOL0     H78895  13.102   6.791   3.185 -0.5441 -0.4961  1.2523
  572MOL0     H78896  12.922   6.777   3.182  0.2061  3.5199  0.4917
  572MOL0     H78897  12.998   6.872   3.058 -1.0553 -0.0571 -1.8443
  572MOL0     H78898  13.565   6.519   3.093 -0.3686 -2.4705 -1.8177
  572MOL0     H78899  13.807   6.589   3.054 -1.8096 -4.2912  0.1324
  572MOL0     H78900  14.029   6.873   2.928  0.6691 -0.2401 -0.8593
  572MOL0     H78901  13.914   6.807   3.047 -0.2750  1.6602  0.4958
  572MOL0     H78902  14.120   6.697   3.099 -1.9523  1.1709  0.2515
  572MOL0     H78903  14.031   6.575   3.006  0.0972  0.1396 -0.9261
  572MOL0     H78904  14.236   6.758   2.855  0.2137 -0.7137 -1.8602
  572MOL0     H78905  14.157   6.607   2.812 -0.2931  1.8816 -0.9723
  572MOL0     H78906  14.278   6.488   2.995 -0.0511 -0.5804 -1.9518
  572MOL0     H78907  14.351   6.631   3.044  0.6639  0.5216 -0.7575
  572MOL0     H78908  14.377   6.531   2.759 -1.7071  3.1851  0.0894
  572MOL0     H78909  14.483   6.648   2.834  2.2298 -0.4202  2.9959
  572MOL0     H78910  14.467   6.353   2.885  0.3119  0.1191  1.5777
  572MOL0     H78911  14.586   6.448   2.970  0.0152  0.7646 -0.9656
  572MOL0     H78912  14.682   6.526   2.742 -0.4818 -0.2130 -3.0668
  572MOL0     H78913  14.591   6.403   2.664  1.2255  0.8173 -0.9589
  572MOL0     H78914  14.820   6.353   2.871 -1.9459  2.1206  0.3894
  572MOL0     H78915  14.810   6.319   2.704 -0.8939 -3.9337 -0.1628
  572MOL0     H78916  13.681   6.810   2.707  1.0925  2.2705  0.6099
  572MOL0     H78917  13.443   6.753   2.752  0.9901  2.1550 -0.1777
  572MOL0     H78918  13.187   6.465   2.825  0.5038  0.6193  0.1234
  572MOL0     H78919  12.967   6.359   2.788  0.0836  0.8650 -0.1055
  572MOL0     H78920  11.200   6.904   2.408  0.4817 -1.4802  0.5971
  572MOL0     H78921  11.019   6.851   2.271  2.2881 -1.9769 -1.8699
  572MOL0     H78922  10.610   6.713   2.486 -1.3508  0.0185  1.9866
  572MOL0     H78923  10.374   6.716   2.521  2.1419 -0.4757  0.4518
  572MOL0     H78924  10.102   6.465   2.261  0.5183 -1.8996  0.7693
  572MOL0     H78925  10.132   6.359   2.389 -2.1221 -2.1157 -2.2479
  572MOL0     H78926   9.926   6.504   2.513  1.1381  0.5500 -0.1654
  572MOL0     H78927   9.890   6.404   2.380 -0.4994 -0.9430  0.5503
  572MOL0     H78928   9.776   6.634   2.369 -0.4991  2.1342 -1.5126
  572MOL0     H78929   9.933   6.719   2.375 -0.1620  0.3138  0.7401
  572MOL0     H78930   9.973   6.632   2.146  0.5844 -0.9488  2.1953
  572MOL0     H78931   9.826   6.724   2.155  2.8179  0.6063 -1.8398
  572MOL0     H78932   9.663   6.367   2.040  1.5819 -0.3786 -2.4584
  572MOL0     H78933  10.308   6.401   2.245  0.6131 -0.4477  0.8390
  572MOL0     H78934  10.619   6.450   2.065 -0.9643  0.1507 -0.9149
  572MOL0     H78935  10.606   6.300   2.164  2.3244  0.5580 -1.0823
  572MOL0     H78936  10.471   6.371   2.071  0.3392  1.8357  0.1865
  573MOL0     O78937   8.588   6.320   9.977 -0.1058 -0.5573 -0.2190
  573MOL0     C78938   8.545   6.363  10.087  0.3088 -0.0910 -0.4919
  573MOL0     O78939   8.618   6.395  10.193 -0.0905  0.0311  0.1613
  573MOL0     C78940   8.739   6.442  10.169 -0.3499  0.0310 -0.2200
  573MOL0     C78941   8.835   6.406  10.266 -0.1956  0.2863  0.5150
  573MOL0     C78942   8.962   6.451  10.263 -0.2401  0.1447  0.2599
  573MOL0     C78943   9.004   6.534  10.154 -0.1566 -0.1461 -0.7583
  573MOL0     O78944   9.136   6.574  10.153  0.5775  0.8907  0.1694
  573MOL0     C78945   9.254   6.475  10.154  0.4450 -1.0582  0.1456
  573MOL0     C78946   9.309   6.488  10.014 -0.3430  0.9323 -0.8248
  573MOL0     C78947   9.448   6.432  10.022  0.3279 -0.1903  0.0038
  573MOL0     C78948   9.507   6.406   9.883 -0.4341 -0.7118 -0.6271
  573MOL0     C78949   9.653   6.416   9.889 -0.3029  0.7175 -0.4922
  573MOL0     C78950   9.711   6.385   9.748 -0.4609 -0.5355 -0.0353
  573MOL0     C78951   9.686   6.244   9.693 -0.3298  0.0373  0.4889
  573MOL0     C78952   9.704   6.134   9.812 -0.5533 -0.3696 -0.1000
  573MOL0     N78953   9.723   5.998   9.771 -0.1995  1.0632  0.9838
  573MOL0     C78954   9.623   5.928   9.712  0.7400  0.0154 -0.2295
  573MOL0     C78955   9.647   5.796   9.723 -0.3448  0.6479  1.0110
  573MOL0     C78956   9.557   5.687   9.694 -0.2225  0.6137 -0.0907
  573MOL0     C78957   9.631   5.598   9.591  0.2165  0.4996  0.2264
  573MOL0     C78958   9.537   5.494   9.541 -0.1735  0.4956 -0.3375
  573MOL0     C78959   9.594   5.405   9.428  0.3850 -0.0920  0.0098
  573MOL0     O78960   9.718   5.357   9.471  0.1017  0.3311  0.2570
  573MOL0     C78961   9.780   5.271   9.389 -0.1865 -0.6836  0.2459
  573MOL0     C78962   9.920   5.259   9.397  0.0272 -0.5277  0.9377
  573MOL0     C78963   9.988   5.178   9.311  0.3624  0.2438 -0.3092
  573MOL0     C78964  10.136   5.176   9.347 -0.9784  0.0368  0.6090
  573MOL0     C78965   9.927   5.096   9.214 -0.4617 -0.1911  0.7933
  573MOL0     C78966  10.005   5.012   9.123  0.6082 -0.0938  0.0438
  573MOL0     O78967   9.924   4.967   9.017 -0.1763 -0.0428  0.6233
  573MOL0     C78968   9.969   4.867   8.928 -0.2802  0.7429 -0.0909
  573MOL0     C78969   9.993   4.897   8.791  0.9107 -0.0190  0.3834
  573MOL0     C78970  10.051   4.799   8.710 -0.1225 -0.2497  0.4659
  573MOL0     C78971  10.079   4.672   8.754 -0.3920  0.3364  0.6523
  573MOL0     O78972  10.115   4.567   8.667 -0.5150 -0.7668  0.1856
  573MOL0     C78973  10.056   4.556   8.545  0.2530 -0.9678 -0.6312
  573MOL0     C78974  10.173   4.544   8.444 -0.4786  0.9751  0.3608
  573MOL0     C78975  10.236   4.675   8.417  0.7524  0.0957 -0.4121
  573MOL0     C78976  10.367   4.648   8.343 -0.1695  0.5794  0.5300
  573MOL0     C78977  10.431   4.786   8.320 -0.0635  0.0324 -0.1716
  573MOL0     C78978  10.350   4.867   8.218 -1.3821 -0.7114 -0.4186
  573MOL0     C78979  10.270   4.981   8.278  0.6459 -1.1053  0.0413
  573MOL0     C78980  10.205   5.074   8.172 -0.6349  0.1916 -0.2123
  573MOL0    Cl78981  10.075   4.978   8.102 -0.1173  0.2207  0.1955
  573MOL0     C78982  10.040   4.639   8.886  0.0446  0.1773  0.2820
  573MOL0     C78983   9.985   4.730   8.976 -0.7582 -0.4366 -0.2878
  573MOL0     O78984  10.125   4.998   9.123  0.0923 -0.2417  0.4627
  573MOL0     C78985   9.788   5.110   9.206  0.2315 -0.2687 -0.9945
  573MOL0     C78986   9.714   5.200   9.288 -0.0739 -0.4992 -0.9090
  573MOL0     N78987   9.773   5.789   9.785 -0.3700 -0.3785  0.3396
  573MOL0     N78988   9.812   5.906   9.813  1.0227 -0.1828 -0.4745
  573MOL0     C78989   8.911   6.578  10.063  0.3357 -0.9800  0.0969
  573MOL0     C78990   8.780   6.530  10.075 -0.5285  0.1591 -0.5728
  573MOL0     C78991   8.396   6.361  10.114 -0.5168  0.0914  0.2902
  573MOL0     C78992   8.317   6.318  10.016  0.2888  0.4195  0.3705
  573MOL0     C78993   8.183   6.295  10.029  0.0596 -0.4252  0.5912
  573MOL0     C78994   8.129   6.330  10.154 -1.0658 -0.3785 -0.6015
  573MOL0     O78995   8.002   6.305  10.182  0.9459  0.1286  0.1163
  573MOL0     C78996   7.894   6.331  10.084 -0.3034 -0.5981 -0.4686
  573MOL0     C78997   7.825   6.201  10.045  0.5865 -0.3295 -0.0113
  573MOL0     C78998   7.764   6.130  10.170  0.0870 -0.2266 -0.1099
  573MOL0     C78999   7.729   5.985  10.140 -0.2543 -0.0903 -0.2887
  573MOL0     C79000   7.646   5.914  10.238 -0.4264  0.1964 -0.3351
  573MOL0     C79001   7.572   5.863  10.316  0.2689  0.6608 -0.4002
  573MOL0     C79002   8.209   6.376  10.261 -0.5370 -0.0703  0.2106
  573MOL0     C79003   8.343   6.398  10.243 -0.2447  0.8458 -0.2996
  573MOL0     C79004   8.419   6.442  10.362  0.8827 -0.2853  0.0522
  573MOL0     H79005   8.803   6.333  10.339 -1.7532  0.5357  0.1322
  573MOL0     H79006   9.031   6.411  10.337  0.6085  0.0439 -0.5587
  573MOL0     H79007   9.221   6.373  10.178 -0.0333 -0.8230  0.4896
  573MOL0     H79008   9.330   6.503  10.228  0.6670 -2.6070  0.5362
  573MOL0     H79009   9.247   6.421   9.954  0.1058 -1.6593  1.4120
  573MOL0     H79010   9.301   6.590   9.977  0.4534  1.6968  0.9730
  573MOL0     H79011   9.510   6.504  10.076 -0.0060  1.3974 -1.6401
  573MOL0     H79012   9.443   6.336  10.075  0.3293 -0.8172 -1.1048
  573MOL0     H79013   9.487   6.303   9.850  0.5176 -0.4022 -2.3263
  573MOL0     H79014   9.472   6.481   9.811  0.6991 -0.2936 -0.7547
  573MOL0     H79015   9.684   6.338   9.959  1.5079 -0.1477 -2.1829
  573MOL0     H79016   9.688   6.513   9.925 -1.0664  0.8077  0.0347
  573MOL0     H79017   9.675   6.456   9.673 -2.6602 -1.5183  0.0388
  573MOL0     H79018   9.817   6.413   9.755 -0.4473 -1.0569  3.9806
  573MOL0     H79019   9.763   6.225   9.619 -0.2826 -1.5471  0.9083
  573MOL0     H79020   9.586   6.251   9.650 -0.7244 -2.1615  0.9247
  573MOL0     H79021   9.781   6.152   9.888 -0.2233 -1.5278 -0.1375
  573MOL0     H79022   9.613   6.137   9.872  1.2393 -2.4383  3.0209
  573MOL0     H79023   9.533   5.976   9.674 -0.2253 -2.0587 -0.7200
  573MOL0     H79024   9.467   5.726   9.646  0.5045  0.1540 -1.9152
  573MOL0     H79025   9.543   5.629   9.786  1.3490 -0.4536 -0.4731
  573MOL0     H79026   9.680   5.659   9.514  0.4603 -0.0448 -0.0625
  573MOL0     H79027   9.720   5.544   9.626  0.0338 -1.6636 -2.3278
  573MOL0     H79028   9.514   5.429   9.625  0.2607  1.7396  0.7790
  573MOL0     H79029   9.447   5.539   9.498 -1.4147 -0.5485  1.0803
  573MOL0     H79030   9.518   5.328   9.412 -3.7661  3.0754  2.3931
  573MOL0     H79031   9.606   5.466   9.338 -1.6186 -1.8685 -1.5536
  573MOL0     H79032   9.962   5.326   9.472 -1.3685  0.1438  1.1484
  573MOL0     H79033  10.213   5.174   9.270  2.2483 -0.1322  3.5544
  573MOL0     H79034  10.162   5.087   9.406  0.3274 -0.9117 -1.3028
  573MOL0     H79035  10.165   5.273   9.389  3.3908 -0.8921  0.1651
  573MOL0     H79036   9.951   4.992   8.760  1.1549  0.4193  1.3463
  573MOL0     H79037  10.073   4.820   8.605  0.5188 -2.9995 -0.0157
  573MOL0     H79038   9.995   4.465   8.546 -1.7039  0.2864  0.8101
  573MOL0     H79039   9.994   4.641   8.516  0.9832  0.4202  1.6096
  573MOL0     H79040  10.248   4.475   8.484  1.4083  3.6583  1.8475
  573MOL0     H79041  10.139   4.487   8.358  1.4835 -4.1612  2.5697
  573MOL0     H79042  10.249   4.728   8.512  0.5555 -0.4348 -0.0791
  573MOL0     H79043  10.166   4.733   8.357 -1.9446 -1.8671  0.5812
  573MOL0     H79044  10.344   4.595   8.250 -0.9154 -2.2060  2.1854
  573MOL0     H79045  10.437   4.587   8.401  2.3422 -0.7537 -3.4908
  573MOL0     H79046  10.434   4.852   8.407 -3.2887 -0.4960  0.4750
  573MOL0     H79047  10.528   4.765   8.273 -0.8582 -1.9708 -1.0222
  573MOL0     H79048  10.282   4.798   8.167 -3.3866  0.5377  0.4232
  573MOL0     H79049  10.417   4.905   8.140  3.4163  0.7375  3.8897
  573MOL0     H79050  10.328   5.046   8.344 -0.5070  1.3375 -1.2320
  573MOL0     H79051  10.191   4.946   8.344  0.0971 -0.7107 -0.4034
  573MOL0     H79052  10.263   5.119   8.091 -3.5418  0.2386 -2.4298
  573MOL0     H79053  10.161   5.156   8.228  1.5706  2.0289 -1.0079
  573MOL0     H79054  10.050   4.537   8.924 -0.3481  0.1332  0.2685
  573MOL0     H79055   9.950   4.701   9.074 -0.2625 -0.3666 -0.0824
  573MOL0     H79056   9.721   5.075   9.128 -1.9368  0.0400  0.6287
  573MOL0     H79057   9.609   5.223   9.272 -0.7282 -2.8709 -0.3308
  573MOL0     H79058   8.939   6.641   9.979  0.7762 -2.2674 -0.7549
  573MOL0     H79059   8.704   6.569  10.009 -0.4726  2.3218  0.5569
  573MOL0     H79060   8.359   6.280   9.924  0.7246 -0.1940  0.8177
  573MOL0     H79061   8.130   6.250   9.945 -2.0622  0.9153  1.1401
  573MOL0     H79062   7.822   6.406  10.120 -0.6397  1.5767 -4.9660
  573MOL0     H79063   7.934   6.373   9.991 -0.0039  0.8516  0.2892
  573MOL0     H79064   7.900   6.131  10.007 -0.7231 -2.6563  1.4395
  573MOL0     H79065   7.741   6.221   9.978  0.6691  1.1996  0.3097
  573MOL0     H79066   7.833   6.143  10.253  0.5492  0.6154 -0.6112
  573MOL0     H79067   7.676   6.187  10.201 -1.0364 -0.4620 -2.6054
  573MOL0     H79068   7.824   5.931  10.136 -0.3200 -0.2102 -0.2318
  573MOL0     H79069   7.682   5.977  10.042  0.6840  0.2869 -0.7819
  573MOL0     H79070   7.498   5.824  10.383  2.8849 -0.6455  1.9101
  573MOL0     H79071   8.165   6.379  10.361  0.2270 -2.3005  0.6669
  573MOL0     H79072   8.477   6.353  10.388 -0.2518 -1.9951 -2.7453
  573MOL0     H79073   8.486   6.526  10.343 -1.8240  2.0133 -0.0990
  573MOL0     H79074   8.345   6.459  10.441 -2.9037 -3.4204 -2.3812
  574MOL0     O79075   2.832   9.881   2.091  0.4165  0.1265 -0.3579
  574MOL0     C79076   2.885   9.908   2.201  0.5535  0.9344  0.1568
  574MOL0     O79077   3.019   9.915   2.224  0.8444  1.5013 -0.5376
  574MOL0     C79078   3.118   9.906   2.128  0.4619  0.6559 -0.3223
  574MOL0     C79079   3.118   9.834   2.012  0.0628 -0.0349 -0.3823
  574MOL0     C79080   3.220   9.820   1.921  0.1761  0.3958  0.0787
  574MOL0     C79081   3.336   9.896   1.943  0.2240  0.5784 -0.7100
  574MOL0     O79082   3.426   9.884   1.838 -0.1990 -0.2833 -0.7788
  574MOL0     C79083   3.560   9.888   1.881  0.5569  0.4761  0.5525
  574MOL0     C79084   3.640   9.932   1.755 -0.0038  0.3646 -0.3787
  574MOL0     C79085   3.785   9.905   1.784  0.4474 -0.7738 -0.2615
  574MOL0     C79086   3.862   9.898   1.649 -0.4401 -0.6279  0.5308
  574MOL0     C79087   4.013   9.867   1.681  0.7373  0.1894 -0.4999
  574MOL0     C79088   4.088   9.804   1.552  0.2763  0.0425 -0.3288
  574MOL0     C79089   4.230   9.767   1.610  0.2796 -0.4491  1.2127
  574MOL0     C79090   4.309   9.694   1.503  0.2221 -0.5296  0.7360
  574MOL0     N79091   4.449   9.691   1.534 -0.6239  0.5483 -0.2547
  574MOL0     C79092   4.516   9.611   1.627 -0.0116 -0.2594 -0.4961
  574MOL0     C79093   4.645   9.650   1.623  1.2073 -0.3203  0.3859
  574MOL0     C79094   4.763   9.571   1.693 -0.1600 -0.0586 -0.0942
  574MOL0     C79095   4.780   9.426   1.640 -0.0714 -0.4160  0.5828
  574MOL0     C79096   4.880   9.348   1.729  0.1385 -0.1087  0.4951
  574MOL0     C79097   4.927   9.217   1.665  0.2079 -1.2472 -0.0773
  574MOL0     O79098   4.821   9.150   1.596  0.5283 -0.1870  0.1204
  574MOL0     C79099   4.845   9.039   1.526 -0.0636 -0.1236 -0.2906
  574MOL0     C79100   4.972   8.984   1.512 -0.5730  0.0159 -0.2681
  574MOL0     C79101   4.989   8.870   1.428  0.1542  0.0790  0.1419
  574MOL0     C79102   5.128   8.823   1.427 -0.3019  0.9250 -1.0835
  574MOL0     C79103   4.885   8.807   1.359  0.4917 -0.2046  0.1036
  574MOL0     C79104   4.903   8.676   1.287 -0.2249 -0.6716 -0.4839
  574MOL0     O79105   4.806   8.647   1.194  0.8043 -1.2753 -0.4576
  574MOL0     C79106   4.824   8.540   1.115 -0.4124 -0.0115  1.1013
  574MOL0     C79107   4.743   8.428   1.122 -0.4049  0.1510  0.7128
  574MOL0     C79108   4.776   8.321   1.036 -0.4808 -0.4320  0.1891
  574MOL0     C79109   4.889   8.320   0.952 -0.1980  0.0195  0.0646
  574MOL0     O79110   4.930   8.215   0.873 -0.3844  0.2699  0.0077
  574MOL0     C79111   4.877   8.081   0.900 -0.2776 -0.7288  0.0944
  574MOL0     C79112   4.946   7.964   0.818  0.6749  0.6048  0.3140
  574MOL0     C79113   5.088   8.001   0.764  0.1401 -0.3734  0.6398
  574MOL0     C79114   5.187   8.040   0.869 -1.1757 -0.9021 -0.8917
  574MOL0     C79115   5.317   8.085   0.800  0.0386 -0.2950  0.2746
  574MOL0     C79116   5.423   8.144   0.897  1.1895 -0.9047  0.2567
  574MOL0     C79117   5.546   8.213   0.827 -0.1449  0.1475 -0.3909
  574MOL0     C79118   5.660   8.258   0.918 -0.1982 -0.2676 -0.2869
  574MOL0    Cl79119   5.609   8.377   1.033  0.4550 -0.0818  0.0261
  574MOL0     C79120   4.974   8.427   0.954  0.8558 -0.7017  0.5193
  574MOL0     C79121   4.942   8.538   1.038 -0.3972 -0.2056  0.2224
  574MOL0     O79122   4.993   8.597   1.318 -0.2362  0.2708  0.2545
  574MOL0     C79123   4.757   8.865   1.386 -0.3465  0.1695  0.2869
  574MOL0     C79124   4.745   8.970   1.465  0.1718 -0.6778 -0.7242
  574MOL0     N79125   4.651   9.745   1.523 -0.0737  0.7977  0.0443
  574MOL0     N79126   4.536   9.775   1.478  0.0489 -0.2952 -0.5234
  574MOL0     C79127   3.347   9.970   2.070  0.0871  0.2944  0.0592
  574MOL0     C79128   3.234   9.977   2.157  0.2858  0.0176 -0.5301
  574MOL0     C79129   2.795   9.949   2.308 -0.0312  0.3975 -0.2473
  574MOL0     C79130   2.852  10.006   2.424  0.2829 -1.0234 -0.1457
  574MOL0     C79131   2.775  10.042   2.533  0.5529  0.8510 -0.3334
  574MOL0     C79132   2.633  10.032   2.528 -0.6146 -0.6082  0.2284
  574MOL0     O79133   2.552  10.071   2.627 -0.0594 -1.1252  0.0254
  574MOL0     C79134   2.613  10.115   2.750  0.3161 -0.3131  0.4021
  574MOL0     C79135   2.510  10.147   2.849  0.1653 -1.0800  0.2148
  574MOL0     C79136   2.427  10.030   2.897  0.0122 -0.5316 -0.5300
  574MOL0     C79137   2.463   9.995   3.040 -0.6897 -0.8917 -1.8772
  574MOL0     C79138   2.609   9.979   3.068 -0.0629 -0.3881  0.1702
  574MOL0     C79139   2.730   9.981   3.086 -0.4671 -0.4690 -1.3294
  574MOL0     C79140   2.577   9.983   2.414 -0.4648 -0.2398  0.2246
  574MOL0     C79141   2.656   9.947   2.311 -0.4094  1.2324  0.0193
  574MOL0     C79142   2.575   9.878   2.206  0.0969  0.0413 -0.2693
  574MOL0     H79143   3.027   9.778   1.993  1.4163 -2.4546 -0.1720
  574MOL0     H79144   3.197   9.759   1.834  0.2236 -0.2069  0.4839
  574MOL0     H79145   3.578   9.783   1.904 -1.3975 -0.0511 -0.1608
  574MOL0     H79146   3.586   9.964   1.957 -1.4383  0.0395  1.7408
  574MOL0     H79147   3.603   9.878   1.667 -1.1321  0.1732  0.1976
  574MOL0     H79148   3.620  10.039   1.744 -0.0306  0.3456 -0.5148
  574MOL0     H79149   3.824   9.988   1.844  1.5282 -1.2013 -0.3438
  574MOL0     H79150   3.794   9.808   1.832 -1.6639 -0.9546 -0.1555
  574MOL0     H79151   3.817   9.829   1.577 -0.5725  1.1017 -1.0952
  574MOL0     H79152   3.849   9.996   1.604 -1.1921 -1.1307 -0.3731
  574MOL0     H79153   4.037   9.809   1.771  0.3574 -3.5825 -2.5916
  574MOL0     H79154   4.054   9.965   1.707  1.8084  0.5325 -3.2154
  574MOL0     H79155   4.040   9.717   1.507  1.5314 -0.7311 -0.2130
  574MOL0     H79156   4.094   9.883   1.476 -2.7274  2.0304  1.3113
  574MOL0     H79157   4.206   9.696   1.690 -0.8971 -2.4181 -0.7881
  574MOL0     H79158   4.280   9.859   1.642  1.5283 -0.0461 -1.6141
  574MOL0     H79159   4.272   9.592   1.493  0.6529 -0.6934  0.7850
  574MOL0     H79160   4.298   9.747   1.408 -0.0981  0.6034  1.3801
  574MOL0     H79161   4.475   9.545   1.703 -5.4185  4.5820  1.5212
  574MOL0     H79162   4.746   9.579   1.801  4.1389  2.0861  0.6455
  574MOL0     H79163   4.852   9.632   1.673 -0.7364 -0.1698 -3.5793
  574MOL0     H79164   4.684   9.376   1.628  0.8807 -1.6496 -3.1591
  574MOL0     H79165   4.823   9.436   1.540  0.6344  2.2137  1.0686
  574MOL0     H79166   4.966   9.408   1.760  0.1425  0.6465 -0.8839
  574MOL0     H79167   4.823   9.309   1.813 -1.6350 -0.4435 -0.8092
  574MOL0     H79168   5.013   9.237   1.600 -1.0570 -3.0856 -2.4863
  574MOL0     H79169   4.963   9.157   1.749  0.9227 -1.9958 -0.9003
  574MOL0     H79170   5.055   9.036   1.559  2.5688 -3.9958 -0.8521
  574MOL0     H79171   5.168   8.785   1.332  2.6774  0.5246  0.2181
  574MOL0     H79172   5.151   8.745   1.500 -1.0685 -0.3704 -2.1849
  574MOL0     H79173   5.192   8.908   1.452 -1.0698  0.8305  1.4499
  574MOL0     H79174   4.649   8.431   1.176 -1.0262 -0.6466 -0.2826
  574MOL0     H79175   4.708   8.236   1.040 -1.3031  0.2181  0.6102
  574MOL0     H79176   4.899   8.069   1.006 -3.0188 -1.0869  0.7000
  574MOL0     H79177   4.771   8.085   0.873 -0.0422  2.6617 -0.9172
  574MOL0     H79178   4.940   7.866   0.867  2.4769  0.1488 -0.2684
  574MOL0     H79179   4.894   7.939   0.725  0.0930 -2.4222  1.3193
  574MOL0     H79180   5.075   8.081   0.691  0.5590 -0.1988  0.7506
  574MOL0     H79181   5.122   7.915   0.705  5.1073  0.5745  1.6041
  574MOL0     H79182   5.205   7.956   0.937 -1.0233 -0.5707 -0.5155
  574MOL0     H79183   5.148   8.121   0.932  4.3106  1.3787  0.0863
  574MOL0     H79184   5.353   7.993   0.754 -1.2134  0.2185 -1.9274
  574MOL0     H79185   5.283   8.155   0.722 -2.8306 -0.1138  1.5644
  574MOL0     H79186   5.462   8.061   0.956 -0.5844 -0.9537  1.4331
  574MOL0     H79187   5.373   8.213   0.965  0.8224 -0.3585 -0.5439
  574MOL0     H79188   5.523   8.298   0.762 -0.5690  1.3469  1.2658
  574MOL0     H79189   5.580   8.126   0.770  1.5665 -2.3381  3.9236
  574MOL0     H79190   5.742   8.301   0.858  0.8111  2.5833  2.8225
  574MOL0     H79191   5.713   8.176   0.968 -1.4450 -0.1326  1.3401
  574MOL0     H79192   5.055   8.422   0.882  0.9012  0.8078  0.4198
  574MOL0     H79193   5.006   8.625   1.034 -1.4296  0.5385 -0.7580
  574MOL0     H79194   4.677   8.811   1.335  1.3138 -2.0644 -0.1412
  574MOL0     H79195   4.642   9.003   1.471  0.2737 -0.6697  2.0447
  574MOL0     H79196   3.446  10.008   2.096  0.0645  0.3508  0.0623
  574MOL0     H79197   3.228  10.051   2.236  0.2718  3.2276 -3.2980
  574MOL0     H79198   2.959  10.016   2.436 -0.0538  1.5568  1.5500
  574MOL0     H79199   2.832  10.079   2.618 -0.2616 -2.0483  1.6382
  574MOL0     H79200   2.677  10.037   2.792  2.1247 -0.2302 -1.9637
  574MOL0     H79201   2.676  10.204   2.739  2.1746 -1.3897  1.7847
  574MOL0     H79202   2.435  10.209   2.799 -1.4913 -5.3778 -3.3842
  574MOL0     H79203   2.561  10.207   2.924 -1.6114  0.0976  0.5371
  574MOL0     H79204   2.321  10.057   2.888  0.6866  2.7422 -0.0623
  574MOL0     H79205   2.444   9.944   2.832 -1.9040 -1.4372  0.0904
  574MOL0     H79206   2.408   9.906   3.071  1.3561 -2.5026 -2.6682
  574MOL0     H79207   2.434  10.075   3.108 -0.8863  0.6220 -3.6582
  574MOL0     H79208   2.837   9.984   3.096 -0.6769  0.5800  1.1865
  574MOL0     H79209   2.469   9.967   2.419 -0.8492  2.2367  2.7907
  574MOL0     H79210   2.601   9.772   2.204 -1.3007 -0.4232  2.0041
  574MOL0     H79211   2.469   9.874   2.233  0.3074 -0.3287  0.5275
  574MOL0     H79212   2.586   9.927   2.109 -2.5067 -0.5706 -0.9732
  575MOL0     O79213   8.813   2.081   4.794 -0.1484 -0.1347  0.1838
  575MOL0     C79214   8.746   2.184   4.812  0.4014 -0.2532  0.0948
  575MOL0     O79215   8.745   2.289   4.724 -0.0041 -0.5352 -0.6056
  575MOL0     C79216   8.823   2.290   4.616 -0.1275  0.1752  0.8357
  575MOL0     C79217   8.925   2.390   4.609  0.3308  0.2231 -0.8368
  575MOL0     C79218   8.996   2.396   4.490  0.7802 -0.6338  0.2255
  575MOL0     C79219   8.975   2.309   4.382 -0.6186 -0.9331  0.3786
  575MOL0     O79220   9.058   2.321   4.276 -0.0747  0.3681  0.2382
  575MOL0     C79221   9.195   2.375   4.280  0.3418 -0.5634  0.0321
  575MOL0     C79222   9.290   2.289   4.361  0.7533  0.0985  0.7072
  575MOL0     C79223   9.306   2.150   4.305 -0.0823  0.1884  0.1502
  575MOL0     C79224   9.429   2.078   4.353 -0.6406 -0.0507 -0.5311
  575MOL0     C79225   9.458   1.986   4.238 -0.7399  0.2637 -0.7612
  575MOL0     C79226   9.602   1.920   4.271  0.1164  0.7695 -0.3287
  575MOL0     C79227   9.637   1.793   4.188  0.1449  0.4516 -0.1466
  575MOL0     C79228   9.629   1.832   4.030 -0.1449 -0.3402 -0.5678
  575MOL0     N79229   9.736   1.918   3.974 -0.3964  0.1451 -1.2520
  575MOL0     C79230   9.735   2.054   3.943 -0.6452 -0.2308 -0.1735
  575MOL0     C79231   9.845   2.069   3.865 -0.1027  0.3760  0.2725
  575MOL0     C79232   9.876   2.203   3.800 -0.7454 -0.9945  0.0715
  575MOL0     C79233  10.026   2.223   3.783 -1.0417  0.2558  0.1139
  575MOL0     C79234  10.084   2.120   3.678 -0.2645  0.9842 -0.6778
  575MOL0     C79235  10.220   2.157   3.620 -0.0564 -0.2439  0.4362
  575MOL0     O79236  10.271   2.039   3.553 -0.0942  0.2153 -0.0958
  575MOL0     C79237  10.377   2.053   3.467  0.0078  0.7876 -0.0032
  575MOL0     C79238  10.429   1.937   3.416  0.1436  0.1318  0.0553
  575MOL0     C79239  10.533   1.927   3.337  0.7574 -0.6170 -1.2520
  575MOL0     C79240  10.594   1.787   3.327 -0.4601  0.2185  0.4260
  575MOL0     C79241  10.592   2.046   3.288  0.1092 -0.4733 -1.1398
  575MOL0     C79242  10.708   2.049   3.192  0.6192  0.3521  1.0482
  575MOL0     O79243  10.745   2.173   3.146  0.2324 -0.8426  0.4544
  575MOL0     C79244  10.825   2.186   3.034 -0.3826  0.7331 -0.0930
  575MOL0     C79245  10.783   2.280   2.937  0.2569 -0.6335 -0.3250
  575MOL0     C79246  10.864   2.316   2.828 -0.1421  0.0811 -0.1917
  575MOL0     C79247  10.986   2.254   2.803  0.0714  0.4703 -0.3178
  575MOL0     O79248  11.069   2.284   2.695  0.0731  0.3061 -0.1603
  575MOL0     C79249  11.121   2.422   2.707  0.2770 -0.4973 -0.0101
  575MOL0     C79250  11.213   2.462   2.823 -0.7690 -0.0751  0.0470
  575MOL0     C79251  11.335   2.379   2.841  0.4569  0.3046  0.5077
  575MOL0     C79252  11.452   2.417   2.748  0.2109 -0.4984 -0.4144
  575MOL0     C79253  11.583   2.333   2.773  0.2585  0.0007  0.0140
  575MOL0     C79254  11.629   2.310   2.919 -1.1178  0.5036  0.6899
  575MOL0     C79255  11.759   2.227   2.923  0.7207 -0.8066  0.5554
  575MOL0     C79256  11.819   2.237   3.064 -0.2349  0.1712  0.4117
  575MOL0    Cl79257  11.721   2.135   3.175 -0.0790 -0.0712 -0.1024
  575MOL0     C79258  11.031   2.154   2.896 -0.2362  0.0846  0.7008
  575MOL0     C79259  10.948   2.122   3.007  0.2348 -0.6761 -1.0751
  575MOL0     O79260  10.754   1.941   3.149 -0.3110 -0.2278  0.8593
  575MOL0     C79261  10.545   2.175   3.336 -0.4057 -0.2898 -0.5000
  575MOL0     C79262  10.437   2.173   3.428 -1.0552  0.0285 -0.2586
  575MOL0     N79263   9.914   1.948   3.858  0.3135 -0.1506 -0.4571
  575MOL0     N79264   9.847   1.855   3.918 -0.1538  0.0899 -0.6384
  575MOL0     C79265   8.875   2.207   4.395  0.9747 -0.0757 -0.1860
  575MOL0     C79266   8.800   2.202   4.507  0.1438 -0.8019  0.5492
  575MOL0     C79267   8.678   2.193   4.945  0.7620 -0.9809 -0.0579
  575MOL0     C79268   8.695   2.093   5.038  0.6664 -0.4004  1.2441
  575MOL0     C79269   8.629   2.097   5.158  1.0939 -0.8427 -0.3714
  575MOL0     C79270   8.556   2.206   5.204 -0.4790 -0.1083  0.2482
  575MOL0     O79271   8.510   2.204   5.339 -0.0835  0.7655 -0.6247
  575MOL0     C79272   8.430   2.312   5.393 -0.2661 -0.6624 -0.8817
  575MOL0     C79273   8.287   2.324   5.336 -0.9491 -0.3934  0.1560
  575MOL0     C79274   8.218   2.452   5.355  0.3070 -0.1245 -0.1841
  575MOL0     C79275   8.092   2.462   5.281 -0.2093 -0.0586  0.4882
  575MOL0     C79276   8.027   2.596   5.317  0.2097  0.8989  0.6630
  575MOL0     C79277   7.984   2.706   5.348 -0.3618  0.4309  0.6609
  575MOL0     C79278   8.538   2.311   5.115 -0.7956 -0.1838  0.4489
  575MOL0     C79279   8.615   2.312   4.992 -0.0007 -0.0033  0.3946
  575MOL0     C79280   8.609   2.433   4.905  0.2167 -0.0246  0.6194
  575MOL0     H79281   8.951   2.463   4.685 -0.3673  1.3392 -1.6386
  575MOL0     H79282   9.079   2.466   4.488  1.5355 -1.5095  0.0945
  575MOL0     H79283   9.207   2.480   4.306 -0.6907 -0.4152 -0.0363
  575MOL0     H79284   9.224   2.381   4.174  0.6686 -2.0743  0.0153
  575MOL0     H79285   9.385   2.341   4.376 -0.5850  1.8951  3.7878
  575MOL0     H79286   9.254   2.281   4.464 -0.5318 -1.0794  0.1974
  575MOL0     H79287   9.225   2.083   4.336 -0.5450  1.0343  0.8425
  575MOL0     H79288   9.310   2.156   4.196  1.6380  0.3688  0.1987
  575MOL0     H79289   9.509   2.152   4.363 -0.6229  0.0685 -1.4654
  575MOL0     H79290   9.418   2.020   4.445 -2.5560 -0.9598 -1.2700
  575MOL0     H79291   9.470   2.040   4.143 -2.9508  1.8070 -0.2464
  575MOL0     H79292   9.386   1.903   4.240  0.7836 -1.1467 -1.8144
  575MOL0     H79293   9.677   1.997   4.253 -0.1837  0.3893 -3.6744
  575MOL0     H79294   9.605   1.891   4.377  1.0495  0.3229 -0.4659
  575MOL0     H79295   9.556   1.725   4.218  0.7475  0.5131  1.7402
  575MOL0     H79296   9.730   1.744   4.217 -2.1724 -2.4381  3.3381
  575MOL0     H79297   9.643   1.742   3.970 -0.2010  1.0059 -2.7249
  575MOL0     H79298   9.534   1.881   4.007  1.1805  1.9804 -1.5677
  575MOL0     H79299   9.669   2.135   3.971 -1.5099 -0.6578 -0.9364
  575MOL0     H79300   9.837   2.282   3.865  3.1684 -0.2240  1.7286
  575MOL0     H79301   9.831   2.210   3.700  3.5468 -3.6387 -2.3558
  575MOL0     H79302  10.048   2.326   3.751  1.7180 -0.3861 -0.3282
  575MOL0     H79303  10.088   2.207   3.872  1.1419  0.4749 -1.2964
  575MOL0     H79304  10.079   2.017   3.713  1.0477  0.4889 -1.8588
  575MOL0     H79305  10.012   2.120   3.595 -2.1129 -2.8495  0.6780
  575MOL0     H79306  10.203   2.237   3.547  1.3619 -2.3743 -2.4618
  575MOL0     H79307  10.296   2.189   3.693  0.4678 -2.9725  1.1946
  575MOL0     H79308  10.380   1.848   3.454 -0.0867 -0.4499 -1.5406
  575MOL0     H79309  10.518   1.713   3.354 -0.2520 -0.3013 -0.3657
  575MOL0     H79310  10.678   1.779   3.396  2.9018 -0.2717 -3.3348
  575MOL0     H79311  10.632   1.761   3.227  0.1912 -0.5443  0.8560
  575MOL0     H79312  10.685   2.321   2.957  1.6460  1.5721  2.7126
  575MOL0     H79313  10.822   2.390   2.760 -0.5215 -0.3288 -0.4084
  575MOL0     H79314  11.175   2.451   2.617  2.7074  0.2691  1.5841
  575MOL0     H79315  11.035   2.490   2.705  2.4418  2.4419 -0.8146
  575MOL0     H79316  11.241   2.565   2.800 -0.8375 -0.0824 -0.0693
  575MOL0     H79317  11.165   2.473   2.921 -1.3066  0.4117 -0.2661
  575MOL0     H79318  11.301   2.274   2.839  0.2106  0.3349  2.0323
  575MOL0     H79319  11.367   2.387   2.945  0.4120 -1.5155  0.7028
  575MOL0     H79320  11.472   2.523   2.766 -0.1799 -0.6134  0.7522
  575MOL0     H79321  11.421   2.408   2.643 -0.9435  0.7824 -0.2101
  575MOL0     H79322  11.567   2.234   2.730 -2.2413  0.4047 -0.1100
  575MOL0     H79323  11.660   2.382   2.713  0.8699 -1.6219 -0.5683
  575MOL0     H79324  11.548   2.265   2.978 -1.1426 -1.8021 -0.9645
  575MOL0     H79325  11.654   2.407   2.962 -0.1034 -0.1744  1.7008
  575MOL0     H79326  11.834   2.275   2.859  0.5333 -2.1009 -0.6729
  575MOL0     H79327  11.744   2.122   2.898  0.2484 -0.5364 -0.3870
  575MOL0     H79328  11.833   2.339   3.102  0.0465  0.7099 -1.0663
  575MOL0     H79329  11.917   2.188   3.062 -0.6586 -0.6700 -0.7014
  575MOL0     H79330  11.124   2.104   2.872 -0.2872 -0.9149  2.4422
  575MOL0     H79331  10.975   2.036   3.068  1.1878  0.2170 -0.2062
  575MOL0     H79332  10.588   2.272   3.311 -1.9961  0.0976 -1.9005
  575MOL0     H79333  10.412   2.275   3.453  0.7872 -0.1716  3.0800
  575MOL0     H79334   8.846   2.134   4.321 -3.2225  0.8995  0.2342
  575MOL0     H79335   8.716   2.136   4.523  0.3220 -1.8064 -2.1985
  575MOL0     H79336   8.746   1.999   5.023  1.2970  0.4057 -2.6347
  575MOL0     H79337   8.635   2.014   5.228 -0.2903  1.8027  3.2456
  575MOL0     H79338   8.426   2.313   5.502 -2.2489 -2.0268 -0.8954
  575MOL0     H79339   8.487   2.405   5.381  0.7890 -1.4132 -1.8884
  575MOL0     H79340   8.231   2.243   5.384 -1.9590  0.1246 -0.1165
  575MOL0     H79341   8.286   2.294   5.230 -2.0766 -1.0176  0.3298
  575MOL0     H79342   8.214   2.474   5.462  1.7535  2.3155 -0.5627
  575MOL0     H79343   8.285   2.528   5.315  2.6287 -0.4692  2.7115
  575MOL0     H79344   8.023   2.380   5.304 -2.5377  1.6464 -0.0607
  575MOL0     H79345   8.108   2.461   5.172  3.5366 -3.1407  0.8743
  575MOL0     H79346   7.931   2.797   5.368 -0.2216  0.5843  0.3431
  575MOL0     H79347   8.486   2.406   5.128 -0.8492  0.3365 -2.8220
  575MOL0     H79348   8.704   2.477   4.875  0.4741  1.2829  3.0634
  575MOL0     H79349   8.544   2.413   4.819  0.4841 -3.5210  1.0798
  575MOL0     H79350   8.555   2.519   4.947 -0.2330  1.5773 -2.8921
  576MOL0     O79351   9.188   9.946   4.291 -0.3291 -0.5583  0.2480
  576MOL0     C79352   9.246   9.989   4.192  0.0393 -0.1175  0.5701
  576MOL0     O79353   9.362   9.933   4.140 -0.1151  0.1860  1.0099
  576MOL0     C79354   9.442   9.859   4.227  0.8792 -0.1273 -0.2117
  576MOL0     C79355   9.516   9.754   4.183 -0.2576  0.5294 -0.3945
  576MOL0     C79356   9.602   9.687   4.266 -0.7091 -0.8260 -0.3624
  576MOL0     C79357   9.606   9.720   4.403  0.8071  0.0836  0.4661
  576MOL0     O79358   9.675   9.629   4.477  0.3889  0.5191 -0.3816
  576MOL0     C79359   9.737   9.685   4.592 -0.0456 -0.1855  0.5008
  576MOL0     C79360   9.842   9.802   4.573  0.2398 -0.5858 -0.4149
  576MOL0     C79361   9.981   9.736   4.524  0.2862 -0.0958  0.1697
  576MOL0     C79362  10.082   9.847   4.497 -0.3923 -0.2849 -1.0520
  576MOL0     C79363  10.232   9.811   4.476 -0.2529  0.2645 -0.1027
  576MOL0     C79364  10.243   9.728   4.346  0.1106  0.0373 -0.6245
  576MOL0     C79365  10.386   9.713   4.306 -0.5356  0.0099 -0.1867
  576MOL0     C79366  10.457   9.837   4.252  1.4100 -0.1081 -0.5087
  576MOL0     N79367  10.543   9.801   4.141  0.0945  0.6613  0.0569
  576MOL0     C79368  10.514   9.828   4.012  0.6993  0.2740 -0.6714
  576MOL0     C79369  10.625   9.801   3.944 -0.4500 -1.3678  0.4257
  576MOL0     C79370  10.659   9.812   3.795 -0.5476  0.6399  0.4184
  576MOL0     C79371  10.587   9.717   3.703  0.0147 -0.6189 -0.0550
  576MOL0     C79372  10.617   9.573   3.755 -0.1520  0.6318  0.2817
  576MOL0     C79373  10.552   9.460   3.673  0.1424  0.0205 -0.5224
  576MOL0     O79374  10.432   9.430   3.733  0.6407  0.2865  0.1577
  576MOL0     C79375  10.368   9.308   3.711 -0.3221  0.5891  0.3666
  576MOL0     C79376  10.237   9.298   3.765 -0.5458 -0.0908  0.3991
  576MOL0     C79377  10.147   9.190   3.741 -0.5606 -0.1582 -0.8500
  576MOL0     C79378  10.007   9.188   3.803  0.0478 -0.9738 -0.8362
  576MOL0     C79379  10.195   9.091   3.651 -0.0477 -0.0398  0.2657
  576MOL0     C79380  10.117   8.966   3.629  0.1710 -0.2365  0.0450
  576MOL0     O79381   9.978   8.965   3.644 -0.3562  0.8743 -0.0283
  576MOL0     C79382   9.906   8.847   3.630  0.1818  0.0154  0.0701
  576MOL0     C79383   9.852   8.793   3.745 -0.5859 -0.3259  0.5554
  576MOL0     C79384   9.766   8.688   3.732 -1.0692  0.8825 -0.6720
  576MOL0     C79385   9.749   8.616   3.610 -1.0523  0.8933 -0.4095
  576MOL0     O79386   9.678   8.495   3.609  0.0204  0.0749  0.1552
  576MOL0     C79387   9.731   8.386   3.531  0.2230  0.6609 -0.8901
  576MOL0     C79388   9.841   8.314   3.612 -0.1891  0.0521 -0.9379
  576MOL0     C79389   9.779   8.240   3.737 -0.8156 -0.6955 -0.7681
  576MOL0     C79390   9.888   8.164   3.823  1.2363  1.1327  0.0252
  576MOL0     C79391   9.836   8.093   3.946  1.0557  0.2972 -0.0243
  576MOL0     C79392   9.933   7.990   4.000  0.0013 -0.5456  0.0013
  576MOL0     C79393  10.035   8.042   4.096 -0.4613 -1.0226 -0.4601
  576MOL0     C79394  10.103   7.929   4.160  0.8343  0.1599 -0.2065
  576MOL0    Cl79395  10.208   7.851   4.041 -0.1981 -0.3011 -0.0812
  576MOL0     C79396   9.799   8.675   3.503 -0.6188 -0.1389 -0.2811
  576MOL0     C79397   9.873   8.792   3.507 -0.3572 -0.0743 -0.1633
  576MOL0     O79398  10.174   8.872   3.577 -0.2652 -0.2477  0.8630
  576MOL0     C79399  10.325   9.096   3.603  0.3796  0.4692  0.5446
  576MOL0     C79400  10.407   9.205   3.627  0.0916 -0.1312  0.0340
  576MOL0     N79401  10.720   9.764   4.036  0.7803  0.2443  0.1175
  576MOL0     N79402  10.677   9.764   4.153  0.8709  0.4547  0.2746
  576MOL0     C79403   9.540   9.830   4.449 -0.3810  0.7855 -1.1243
  576MOL0     C79404   9.453   9.901   4.358 -1.0710 -0.1376  0.5468
  576MOL0     C79405   9.173  10.100   4.127 -0.7661 -0.2306  0.0665
  576MOL0     C79406   9.235  10.136   3.999 -1.0507  0.4115 -0.4377
  576MOL0     C79407   9.183  10.237   3.924 -0.5870 -0.1399 -0.3178
  576MOL0     C79408   9.079  10.315   3.977 -0.4974 -0.2529 -0.0927
  576MOL0     O79409   9.048  10.430   3.913 -0.3699 -0.0932 -0.0497
  576MOL0     C79410   9.060  10.559   3.991  0.1177  0.0336 -0.1079
  576MOL0     C79411   9.149  10.662   3.911  0.6158  0.7983 -0.6659
  576MOL0     C79412   9.279  10.604   3.877  0.4788  0.1680  0.3179
  576MOL0     C79413   9.374  10.592   3.991 -0.9834 -0.5880 -0.5839
  576MOL0     C79414   9.506  10.529   3.952 -0.0211  0.1585  0.0450
  576MOL0     C79415   9.613  10.469   3.925  0.9541 -0.1215 -0.5257
  576MOL0     C79416   9.022  10.284   4.100 -0.1338 -0.0604  1.0306
  576MOL0     C79417   9.062  10.177   4.173 -0.4554  0.5642 -0.0036
  576MOL0     C79418   8.992  10.152   4.309 -0.3613  0.0698  1.0329
  576MOL0     H79419   9.502   9.729   4.078 -0.3679 -0.3823 -0.1715
  576MOL0     H79420   9.657   9.598   4.238  0.6615 -1.3481  3.4244
  576MOL0     H79421   9.790   9.604   4.643  5.2788  2.3189 -0.3256
  576MOL0     H79422   9.661   9.726   4.660 -1.3724  2.6229 -2.3811
  576MOL0     H79423   9.809   9.872   4.495 -2.0628  0.1538  1.1185
  576MOL0     H79424   9.846   9.857   4.668 -2.8679 -1.2098  0.1566
  576MOL0     H79425  10.031   9.684   4.607  2.8277  0.4190 -0.9400
  576MOL0     H79426   9.981   9.673   4.435  2.6181 -1.9018  1.3511
  576MOL0     H79427  10.047   9.915   4.419 -3.2851 -0.7296 -0.2528
  576MOL0     H79428  10.083   9.910   4.587  4.5253 -0.7406 -0.5278
  576MOL0     H79429  10.259   9.749   4.562 -1.8480  1.6516  1.5065
  576MOL0     H79430  10.301   9.895   4.474 -0.1934  0.2568  0.9957
  576MOL0     H79431  10.197   9.629   4.357 -0.2852  0.1749 -1.0250
  576MOL0     H79432  10.182   9.773   4.267  0.3668  0.7244 -0.4429
  576MOL0     H79433  10.410   9.633   4.235  3.5553  0.7712  0.0840
  576MOL0     H79434  10.446   9.681   4.391 -1.6075 -2.4942 -0.2711
  576MOL0     H79435  10.376   9.906   4.227  1.2199  0.0063  0.3916
  576MOL0     H79436  10.508   9.878   4.340 -1.2211 -2.6234  2.4692
  576MOL0     H79437  10.420   9.847   3.961 -0.6580  0.7921  1.8564
  576MOL0     H79438  10.767   9.793   3.794 -0.6474  0.0196 -1.1632
  576MOL0     H79439  10.647   9.914   3.757  2.0620  0.6753 -0.5257
  576MOL0     H79440  10.481   9.741   3.717 -0.1670 -1.8168  0.7890
  576MOL0     H79441  10.613   9.737   3.598 -0.6630 -0.7041 -0.2489
  576MOL0     H79442  10.722   9.555   3.729 -0.1968 -4.4144  2.4683
  576MOL0     H79443  10.603   9.568   3.863  3.0037  3.6901  1.0209
  576MOL0     H79444  10.527   9.490   3.571 -1.0761  2.3902  0.3772
  576MOL0     H79445  10.616   9.371   3.674  2.7488  1.8201  0.3440
  576MOL0     H79446  10.204   9.385   3.821 -1.1892  0.3592 -0.6384
  576MOL0     H79447   9.931   9.232   3.738 -1.5167  1.6355  2.4301
  576MOL0     H79448  10.012   9.254   3.890  1.7969 -2.1808  0.0451
  576MOL0     H79449   9.974   9.091   3.840  0.4422 -1.5051 -1.8396
  576MOL0     H79450   9.860   8.842   3.841  1.4146 -0.0023  0.2649
  576MOL0     H79451   9.720   8.653   3.824  2.5971  2.1578  1.8821
  576MOL0     H79452   9.650   8.314   3.520 -1.5592  2.1129  1.7813
  576MOL0     H79453   9.768   8.412   3.431  1.0181 -0.3632 -0.8782
  576MOL0     H79454   9.891   8.233   3.559 -1.5913 -1.5509  0.0870
  576MOL0     H79455   9.913   8.394   3.633  0.5195 -0.6864 -0.5345
  576MOL0     H79456   9.700   8.178   3.694 -1.2810 -0.7599  0.1748
  576MOL0     H79457   9.731   8.313   3.803 -0.6784 -2.2065  1.0873
  576MOL0     H79458   9.962   8.229   3.871  1.4421  1.1730 -0.3437
  576MOL0     H79459   9.930   8.082   3.764  0.3170  1.0908 -0.5842
  576MOL0     H79460   9.811   8.169   4.020 -1.2608  2.3356 -2.7089
  576MOL0     H79461   9.745   8.042   3.914  1.8338 -0.5524 -0.9782
  576MOL0     H79462   9.984   7.938   3.919 -1.1625 -0.1223 -1.0364
  576MOL0     H79463   9.871   7.925   4.063 -1.1398 -1.4800 -1.9993
  576MOL0     H79464   9.997   8.109   4.174 -1.5703 -1.9253 -0.2050
  576MOL0     H79465  10.110   8.096   4.037 -0.5873 -0.6243 -0.2557
  576MOL0     H79466  10.027   7.860   4.198 -0.4494  1.8587  0.4173
  576MOL0     H79467  10.155   7.955   4.252  1.3439  0.1059 -0.4752
  576MOL0     H79468   9.774   8.648   3.401 -4.4191  0.1822  0.4237
  576MOL0     H79469   9.898   8.847   3.417 -1.9815  1.0434  0.0312
  576MOL0     H79470  10.374   9.025   3.537  1.4219  0.2425  1.5241
  576MOL0     H79471  10.496   9.212   3.566 -1.9527  3.2324 -2.9386
  576MOL0     H79472   9.537   9.854   4.555 -2.6904  2.7617 -1.5333
  576MOL0     H79473   9.393   9.984   4.397 -0.5080 -1.1481  3.8838
  576MOL0     H79474   9.313  10.075   3.953  0.2091  1.3389  0.3896
  576MOL0     H79475   9.219  10.285   3.833 -3.3177 -0.4347 -1.6752
  576MOL0     H79476   8.959  10.599   4.008 -0.5268 -2.0213  1.1957
  576MOL0     H79477   9.102  10.548   4.091 -0.2983  1.1368  0.1994
  576MOL0     H79478   9.175  10.748   3.973 -0.3085 -0.3900  1.4755
  576MOL0     H79479   9.107  10.706   3.821 -0.3223  0.9626 -0.1579
  576MOL0     H79480   9.277  10.513   3.816  1.2815  1.3645 -1.5885
  576MOL0     H79481   9.323  10.672   3.804  0.7577 -0.7004 -0.3493
  576MOL0     H79482   9.319  10.533   4.065 -0.6983  0.3255  0.3832
  576MOL0     H79483   9.397  10.694   4.024 -0.8951 -1.1187  1.1079
  576MOL0     H79484   9.712  10.429   3.926  0.6836 -0.8214  0.0037
  576MOL0     H79485   8.950  10.355   4.138  0.3562  1.8676 -1.3542
  576MOL0     H79486   9.056  10.186   4.391  3.0803 -2.0114 -0.5813
  576MOL0     H79487   8.894  10.199   4.294 -0.9932 -2.1093 -3.1595
  576MOL0     H79488   8.975  10.047   4.333  4.5189 -1.1212  0.3268
  577MOL0     O79489   8.473   6.744  10.458  0.2381 -0.2218  0.1542
  577MOL0     C79490   8.401   6.747  10.557 -0.3196  0.4779 -0.0138
  577MOL0     O79491   8.444   6.745  10.684  0.5502  0.2291 -0.8045
  577MOL0     C79492   8.571   6.697  10.698  0.7265 -0.3027 -0.0363
  577MOL0     C79493   8.592   6.555  10.694  0.2053 -0.5454 -0.1916
  577MOL0     C79494   8.722   6.505  10.737  0.5904  0.0393  0.0459
  577MOL0     C79495   8.820   6.589  10.788 -0.3700  0.0609  0.0136
  577MOL0     O79496   8.943   6.546  10.828 -0.0079 -0.6801  0.4167
  577MOL0     C79497   8.976   6.411  10.797 -0.4948  0.8520  0.7375
  577MOL0     C79498   9.132   6.411  10.785 -0.5702 -0.9301  0.3100
  577MOL0     C79499   9.187   6.268  10.750 -0.0321 -0.0697 -0.9886
  577MOL0     C79500   9.322   6.246  10.824  0.2945 -0.6365 -0.0857
  577MOL0     C79501   9.417   6.139  10.764 -0.3052 -0.1696  0.3115
  577MOL0     C79502   9.521   6.101  10.872 -0.2848  0.5792  0.1858
  577MOL0     C79503   9.632   6.011  10.803  1.0341  0.0256  0.1012
  577MOL0     C79504   9.565   5.876  10.778  0.6465  0.1761  0.4285
  577MOL0     N79505   9.659   5.771  10.731  0.6294  0.8926 -0.0579
  577MOL0     C79506   9.695   5.659  10.808 -1.2023 -0.4420  0.5134
  577MOL0     C79507   9.778   5.595  10.717  0.6604 -0.2944 -1.0762
  577MOL0     C79508   9.865   5.473  10.755 -0.7882 -0.0861  0.8558
  577MOL0     C79509  10.003   5.498  10.676  0.3011  0.5146  0.3526
  577MOL0     C79510  10.077   5.366  10.698  0.4785  0.6189 -0.0762
  577MOL0     C79511  10.187   5.358  10.584 -0.5903 -0.3832 -1.1379
  577MOL0     O79512  10.251   5.225  10.612  0.3957 -0.8476 -0.7812
  577MOL0     C79513  10.332   5.181  10.511 -0.0256 -0.7036 -0.4526
  577MOL0     C79514  10.464   5.230  10.500 -0.1189 -0.7985  0.2842
  577MOL0     C79515  10.553   5.177  10.401  0.3117 -0.7940 -0.7830
  577MOL0     C79516  10.693   5.248  10.397 -0.3726 -0.7863  0.1926
  577MOL0     C79517  10.504   5.081  10.315 -0.1927  0.7992 -0.0043
  577MOL0     C79518  10.589   5.043  10.199 -0.8275  0.4079  0.6569
  577MOL0     O79519  10.577   4.907  10.143  0.3912 -0.4569 -0.2897
  577MOL0     C79520  10.619   4.888  10.015 -0.3051 -0.6160 -0.0819
  577MOL0     C79521  10.723   4.787   9.992  0.0668  0.6882  0.1997
  577MOL0     C79522  10.774   4.776   9.858 -0.1867 -0.3919 -0.4519
  577MOL0     C79523  10.727   4.859   9.755 -0.1542 -0.2553 -0.4621
  577MOL0     O79524  10.782   4.854   9.630  0.0121 -1.0535 -0.0565
  577MOL0     C79525  10.717   4.753   9.543  0.6893 -0.4469 -0.2921
  577MOL0     C79526  10.793   4.751   9.414  0.8639  0.1433  0.1651
  577MOL0     C79527  10.925   4.696   9.416 -0.9493  0.2204  0.9253
  577MOL0     C79528  10.928   4.540   9.414 -0.2033 -0.1060  0.6152
  577MOL0     C79529  11.008   4.479   9.293 -0.2982  0.4372  0.4599
  577MOL0     C79530  10.922   4.455   9.166  0.0921  0.2445  0.8779
  577MOL0     C79531  10.926   4.559   9.056 -0.8345  0.4287  0.1268
  577MOL0     C79532  10.828   4.517   8.951 -1.5813 -0.9798  0.8535
  577MOL0    Cl79533  10.909   4.398   8.840  0.4397  0.3544 -0.3486
  577MOL0     C79534  10.635   4.961   9.775  0.1737  0.2776  0.6016
  577MOL0     C79535  10.580   4.967   9.902  0.5319 -1.2179 -0.3636
  577MOL0     O79536  10.657   5.131  10.149 -0.3925 -0.5957  0.4823
  577MOL0     C79537  10.374   5.024  10.327  1.5859  0.0479 -0.8475
  577MOL0     C79538  10.295   5.074  10.425 -0.3928 -0.7358 -0.4334
  577MOL0     N79539   9.764   5.654  10.590 -0.4451  0.2333  0.2781
  577MOL0     N79540   9.697   5.762  10.603  0.2504  0.1882  0.0159
  577MOL0     C79541   8.796   6.722  10.789  0.0755 -1.2030 -0.0059
  577MOL0     C79542   8.675   6.782  10.739 -0.0657 -0.2604  0.6011
  577MOL0     C79543   8.252   6.751  10.537 -0.5400 -0.6040  0.1195
  577MOL0     C79544   8.175   6.698  10.646 -0.7807 -0.5164 -0.1731
  577MOL0     C79545   8.038   6.681  10.634  0.0695  0.9168  0.6556
  577MOL0     C79546   7.966   6.713  10.514 -1.2773 -0.1441 -0.5674
  577MOL0     O79547   7.841   6.654  10.504  0.6972 -0.5724  0.6050
  577MOL0     C79548   7.790   6.633  10.372  0.1811 -0.7072 -0.7424
  577MOL0     C79549   7.641   6.590  10.382 -0.1522  0.0158 -0.4943
  577MOL0     C79550   7.625   6.436  10.395 -0.0596 -1.2065  0.0069
  577MOL0     C79551   7.652   6.388  10.537  0.1506 -0.1658  0.2387
  577MOL0     C79552   7.583   6.260  10.573 -0.4369  0.0105 -0.2682
  577MOL0     C79553   7.542   6.154  10.613 -0.0164  0.9300 -0.1810
  577MOL0     C79554   8.043   6.782  10.417 -0.2332 -0.1385 -0.5684
  577MOL0     C79555   8.178   6.803  10.425 -0.8473 -0.6439  0.4611
  577MOL0     C79556   8.255   6.886  10.318  0.1300  0.5718 -0.2866
  577MOL0     H79557   8.515   6.485  10.666 -0.2954 -0.3021  0.5467
  577MOL0     H79558   8.732   6.397  10.742  1.7338  0.1039 -0.5365
  577MOL0     H79559   8.953   6.381  10.695  1.9435  0.4180  0.2519
  577MOL0     H79560   8.958   6.337  10.876  3.2649 -0.4713  0.5485
  577MOL0     H79561   9.165   6.487  10.713 -2.9518 -0.2695 -0.1711
  577MOL0     H79562   9.184   6.446  10.875  0.3638  1.9487 -1.2189
  577MOL0     H79563   9.120   6.192  10.791 -0.6483  1.9518  2.1130
  577MOL0     H79564   9.207   6.257  10.643 -1.1533  2.8565 -1.6051
  577MOL0     H79565   9.375   6.341  10.818 -4.5884  2.5599  1.5124
  577MOL0     H79566   9.297   6.222  10.927  0.2817  1.7733  0.5367
  577MOL0     H79567   9.468   6.170  10.672  0.0278 -0.8966  0.2433
  577MOL0     H79568   9.355   6.050  10.748 -1.5654  0.8971 -1.0283
  577MOL0     H79569   9.571   6.195  10.896 -0.6032  1.2889 -1.7691
  577MOL0     H79570   9.480   6.065  10.967 -1.5984  3.4621  0.8003
  577MOL0     H79571   9.715   6.007  10.874  0.2664  2.4016  1.2488
  577MOL0     H79572   9.676   6.054  10.713  0.9570  2.0836  0.9883
  577MOL0     H79573   9.515   5.849  10.872  0.0284 -1.0547 -0.2368
  577MOL0     H79574   9.487   5.884  10.701  3.1935 -2.2138 -2.6510
  577MOL0     H79575   9.674   5.660  10.915 -1.7784 -0.7022  0.4103
  577MOL0     H79576   9.822   5.376  10.726 -1.1624  0.5035 -0.7085
  577MOL0     H79577   9.888   5.473  10.861  1.7195 -1.9832  0.3959
  577MOL0     H79578   9.986   5.515  10.569 -3.1227 -0.3190  0.6294
  577MOL0     H79579  10.050   5.588  10.716  3.2325 -0.2247 -1.1155
  577MOL0     H79580  10.125   5.363  10.796  0.4487  0.8184 -0.0548
  577MOL0     H79581  10.009   5.282  10.681  1.5281 -0.9118  2.6634
  577MOL0     H79582  10.147   5.343  10.483  1.4027 -2.8108 -1.6691
  577MOL0     H79583  10.252   5.445  10.591 -1.6128  0.3834 -0.9068
  577MOL0     H79584  10.506   5.290  10.580 -0.6234 -0.3236  0.1988
  577MOL0     H79585  10.698   5.330  10.325 -0.4156 -1.9694 -1.1908
  577MOL0     H79586  10.772   5.176  10.377 -1.0947 -2.1319  1.9044
  577MOL0     H79587  10.725   5.284  10.496 -1.9235 -0.1493  0.4990
  577MOL0     H79588  10.768   4.732  10.074  0.7220  1.4062  0.3345
  577MOL0     H79589  10.846   4.701   9.829 -1.5245 -0.8534 -2.9005
  577MOL0     H79590  10.726   4.650   9.579 -2.7965 -0.4190  1.0537
  577MOL0     H79591  10.611   4.781   9.535  0.4690 -1.0637  0.4292
  577MOL0     H79592  10.727   4.687   9.354 -0.0959 -1.0927  2.4316
  577MOL0     H79593  10.798   4.853   9.376  0.4746  0.5959  1.2930
  577MOL0     H79594  10.982   4.727   9.504 -0.4055 -1.8836  1.3550
  577MOL0     H79595  10.976   4.741   9.330 -1.7610 -1.1915 -0.3338
  577MOL0     H79596  10.824   4.506   9.419 -0.8901  1.7371 -0.1571
  577MOL0     H79597  10.979   4.496   9.500 -1.1520  0.7984  1.6602
  577MOL0     H79598  11.099   4.536   9.269  0.0022 -0.6525 -1.1378
  577MOL0     H79599  11.037   4.380   9.330 -1.8091  0.2141  1.0832
  577MOL0     H79600  10.817   4.444   9.193 -0.1671  1.9775  0.7086
  577MOL0     H79601  10.956   4.365   9.115 -0.3387  0.4796  0.1586
  577MOL0     H79602  11.028   4.564   9.016 -0.0836 -3.6500  1.0659
  577MOL0     H79603  10.887   4.654   9.094  1.0294  0.1274  3.1335
  577MOL0     H79604  10.804   4.608   8.896  0.7673 -0.5936  0.3518
  577MOL0     H79605  10.733   4.477   8.988 -1.9293  0.2935  1.3709
  577MOL0     H79606  10.580   5.012   9.697 -1.0945 -3.4406 -1.1435
  577MOL0     H79607  10.500   5.037   9.926  1.5397 -0.1443 -0.0277
  577MOL0     H79608  10.340   4.945  10.260 -1.2745  1.9663 -1.8754
  577MOL0     H79609  10.191   5.046  10.441 -1.1073  1.1229 -1.5045
  577MOL0     H79610   8.873   6.792  10.821 -0.7578  0.1303 -0.8475
  577MOL0     H79611   8.658   6.889  10.732  0.5279 -0.1756  0.3971
  577MOL0     H79612   8.235   6.675  10.734 -1.1875  0.5900  0.4163
  577MOL0     H79613   7.977   6.629  10.707  1.8023  0.4309  1.8125
  577MOL0     H79614   7.798   6.724  10.312  2.6141 -2.1876 -2.8833
  577MOL0     H79615   7.849   6.553  10.327  1.1423 -0.0739 -0.6434
  577MOL0     H79616   7.597   6.622  10.287  0.8689  2.3220 -0.2598
  577MOL0     H79617   7.582   6.645  10.456  2.6278  0.0441  1.8695
  577MOL0     H79618   7.525   6.407  10.361  0.5801 -2.7917 -0.6054
  577MOL0     H79619   7.686   6.383  10.321  0.6506 -0.1373 -0.1926
  577MOL0     H79620   7.628   6.469  10.606 -1.4394 -0.5372  0.1728
  577MOL0     H79621   7.758   6.366  10.545 -0.1655 -1.6077  0.7038
  577MOL0     H79622   7.489   6.066  10.643  1.1706 -0.7849 -2.7965
  577MOL0     H79623   8.004   6.819  10.322 -0.7284  7.4679  1.9273
  577MOL0     H79624   8.321   6.961  10.363 -0.4013  1.0573 -0.3055
  577MOL0     H79625   8.314   6.818  10.256 -2.8988 -3.0335  0.4320
  577MOL0     H79626   8.179   6.937  10.258 -3.7930 -2.3817  1.6415
  578MOL0     O79627   2.077   9.620   6.013  0.2847 -0.0048 -0.4877
  578MOL0     C79628   2.197   9.629   6.038  0.6968 -0.5082  1.4416
  578MOL0     O79629   2.289   9.525   6.032  0.0783 -0.7111 -0.2662
  578MOL0     C79630   2.244   9.397   6.043 -0.1146  0.4887  0.4588
  578MOL0     C79631   2.247   9.340   6.170 -0.4725 -0.4925  0.3451
  578MOL0     C79632   2.210   9.212   6.181 -0.1036 -0.1075  0.0105
  578MOL0     C79633   2.162   9.135   6.068  0.3083 -0.6412 -0.5030
  578MOL0     O79634   2.111   9.005   6.076 -0.2572 -0.0330 -0.0535
  578MOL0     C79635   2.127   8.930   6.194 -0.0213  0.2567  0.8131
  578MOL0     C79636   2.260   8.865   6.222 -0.1716 -0.8105  0.1360
  578MOL0     C79637   2.241   8.755   6.339  0.9073 -0.0401  0.2737
  578MOL0     C79638   2.337   8.635   6.305 -0.3578  0.2904  0.2670
  578MOL0     C79639   2.351   8.533   6.428  0.5600 -0.3439  0.7015
  578MOL0     C79640   2.440   8.415   6.425 -0.7135  0.1530  0.2998
  578MOL0     C79641   2.454   8.346   6.560  0.3601  0.0941  0.3463
  578MOL0     C79642   2.548   8.228   6.572 -0.4967  0.1537  0.6529
  578MOL0     N79643   2.691   8.264   6.602  0.6883 -0.1211 -0.0577
  578MOL0     C79644   2.731   8.323   6.716 -0.4223  1.0533 -0.0902
  578MOL0     C79645   2.868   8.348   6.693 -0.2352 -0.0215 -0.6273
  578MOL0     C79646   2.972   8.400   6.786 -0.7079  0.0845 -0.1019
  578MOL0     C79647   3.048   8.525   6.740 -1.1794 -0.3791 -0.0190
  578MOL0     C79648   3.170   8.566   6.833 -0.3375 -0.3296  0.6455
  578MOL0     C79649   3.261   8.681   6.777  0.5760  0.6271 -0.2475
  578MOL0     O79650   3.338   8.648   6.652  0.4066 -0.5409  0.0520
  578MOL0     C79651   3.440   8.730   6.616 -0.0357  0.4566  0.2239
  578MOL0     C79652   3.529   8.669   6.527  0.2910 -0.1036  0.4898
  578MOL0     C79653   3.644   8.736   6.469 -0.5125 -0.3936 -0.1630
  578MOL0     C79654   3.716   8.648   6.369  0.5334 -0.3948 -0.2687
  578MOL0     C79655   3.674   8.866   6.506  0.7734  0.2802  0.1753
  578MOL0     C79656   3.795   8.947   6.471 -0.2898  0.1968  0.1465
  578MOL0     O79657   3.883   8.886   6.385  0.2108 -0.1060  0.0298
  578MOL0     C79658   3.978   8.970   6.329  0.2780  0.4318 -0.1394
  578MOL0     C79659   3.973   8.982   6.188  0.3514  0.1457 -1.1249
  578MOL0     C79660   4.066   9.063   6.123  0.4338  0.1930 -1.0116
  578MOL0     C79661   4.155   9.133   6.206 -0.3427 -0.9049 -0.0453
  578MOL0     O79662   4.233   9.221   6.135  0.0090  0.9019 -0.6913
  578MOL0     C79663   4.258   9.341   6.198 -0.7664 -1.1747 -0.5604
  578MOL0     C79664   4.319   9.433   6.095 -0.4300 -0.1981  0.0998
  578MOL0     C79665   4.226   9.457   5.971 -0.0755  0.0514 -0.2150
  578MOL0     C79666   4.285   9.555   5.873  0.0113 -0.2889 -0.0402
  578MOL0     C79667   4.190   9.573   5.754 -0.9760 -0.7776  0.2845
  578MOL0     C79668   4.266   9.660   5.657  0.1014  0.0034  1.3806
  578MOL0     C79669   4.177   9.678   5.527 -0.5014 -0.1922  0.1558
  578MOL0     C79670   4.270   9.719   5.407  0.2845  0.2403 -0.2947
  578MOL0    Cl79671   4.370   9.856   5.447 -0.0268 -0.2378  0.3269
  578MOL0     C79672   4.163   9.122   6.347  0.7857  0.1869  0.6555
  578MOL0     C79673   4.087   9.026   6.404  0.3642  0.0007 -0.0766
  578MOL0     O79674   3.808   9.056   6.532 -0.5715  0.0683 -0.3123
  578MOL0     C79675   3.588   8.917   6.602 -0.2895  0.3210 -0.4321
  578MOL0     C79676   3.476   8.856   6.663 -0.1681 -0.6219 -0.0104
  578MOL0     N79677   2.897   8.308   6.566  0.6426 -0.6127  0.8092
  578MOL0     N79678   2.791   8.265   6.507  0.0976 -0.3691  0.9742
  578MOL0     C79679   2.172   9.182   5.945  0.7890 -0.1100  0.0182
  578MOL0     C79680   2.212   9.318   5.930  0.2470 -0.6037 -1.0095
  578MOL0     C79681   2.248   9.763   6.082 -0.1389  0.3320 -0.2103
  578MOL0     C79682   2.359   9.765   6.164  0.8283  0.7824 -0.0060
  578MOL0     C79683   2.403   9.889   6.209  0.1470  0.7078 -0.2629
  578MOL0     C79684   2.339  10.007   6.194 -0.9167  0.0651 -0.1462
  578MOL0     O79685   2.387  10.121   6.255 -0.4274 -0.6869  0.3721
  578MOL0     C79686   2.498  10.177   6.190 -0.6973 -0.9019  0.1590
  578MOL0     C79687   2.479  10.232   6.049 -0.2568  0.7348 -0.2263
  578MOL0     C79688   2.547  10.138   5.947  0.3388 -0.3001  0.2290
  578MOL0     C79689   2.701  10.155   5.925  0.2412 -0.0335  0.9022
  578MOL0     C79690   2.729  10.302   5.905  0.8359  0.3453  0.4040
  578MOL0     C79691   2.773  10.407   5.866 -0.2334  0.1445 -0.3590
  578MOL0     C79692   2.238  10.016   6.107  0.3447 -0.0371 -0.5459
  578MOL0     C79693   2.188   9.894   6.054  0.6820 -0.6220  0.4015
  578MOL0     C79694   2.066   9.908   5.968  0.5118 -0.2946  0.1366
  578MOL0     H79695   2.289   9.398   6.252  0.4516  0.0894 -0.5198
  578MOL0     H79696   2.215   9.173   6.282  3.8831 -1.5819 -0.5697
  578MOL0     H79697   2.043   8.861   6.203 -0.6232  0.9298  0.4803
  578MOL0     H79698   2.108   8.993   6.281 -3.4312  0.6720 -0.0689
  578MOL0     H79699   2.309   8.832   6.130 -0.2678  0.9967 -0.6102
  578MOL0     H79700   2.326   8.947   6.250  1.0133 -1.4790 -0.6027
  578MOL0     H79701   2.264   8.802   6.435  1.1961  1.3964 -0.4540
  578MOL0     H79702   2.137   8.722   6.348  0.8605  0.2735  0.9788
  578MOL0     H79703   2.295   8.585   6.217 -3.6363  0.5126  1.5829
  578MOL0     H79704   2.435   8.667   6.267 -0.6131  0.6645 -0.0913
  578MOL0     H79705   2.252   8.496   6.456 -0.0845  2.0011  1.8256
  578MOL0     H79706   2.388   8.587   6.516 -0.2889  0.8321  0.3620
  578MOL0     H79707   2.408   8.348   6.345 -1.5973  1.7605 -0.7629
  578MOL0     H79708   2.537   8.457   6.398  0.1772 -1.8072  0.2890
  578MOL0     H79709   2.352   8.321   6.590 -0.2576  2.7527  0.7325
  578MOL0     H79710   2.489   8.418   6.634 -2.8701  1.5238  0.6775
  578MOL0     H79711   2.514   8.163   6.653 -2.8779  1.0363  0.4486
  578MOL0     H79712   2.544   8.165   6.483 -2.5980  0.6657  0.3409
  578MOL0     H79713   2.683   8.337   6.812  3.5120  0.7978  2.1486
  578MOL0     H79714   3.045   8.322   6.810 -2.0829 -1.5297 -0.9001
  578MOL0     H79715   2.919   8.439   6.874 -1.7530 -2.8544  0.7112
  578MOL0     H79716   3.080   8.516   6.636 -1.1708  0.2352 -0.0766
  578MOL0     H79717   2.979   8.611   6.740  0.1889  0.7721 -1.3849
  578MOL0     H79718   3.131   8.611   6.924 -2.2566  0.7074 -0.6207
  578MOL0     H79719   3.240   8.485   6.856 -0.1475  0.6828  4.1725
  578MOL0     H79720   3.208   8.773   6.754  0.7308  0.9615  0.6686
  578MOL0     H79721   3.329   8.716   6.856  0.1985  4.0561 -1.2871
  578MOL0     H79722   3.505   8.565   6.505 -1.4109  0.7920 -2.1897
  578MOL0     H79723   3.818   8.632   6.405 -0.1809 -1.8849  1.1852
  578MOL0     H79724   3.724   8.686   6.266  0.1070  0.8673  0.1371
  578MOL0     H79725   3.682   8.545   6.355  2.7253 -0.9342 -2.2966
  578MOL0     H79726   3.905   8.922   6.128 -1.7949 -0.1084  1.3732
  578MOL0     H79727   4.068   9.074   6.015  2.6960  0.1782 -1.0215
  578MOL0     H79728   4.162   9.389   6.214 -1.5337 -2.5711 -0.7950
  578MOL0     H79729   4.315   9.329   6.290 -0.0849  1.9258 -0.4737
  578MOL0     H79730   4.337   9.523   6.154 -1.9837 -1.4873  2.7392
  578MOL0     H79731   4.412   9.390   6.056  0.5435  1.4877  0.4763
  578MOL0     H79732   4.129   9.495   6.004  0.9923  0.4878  2.7784
  578MOL0     H79733   4.209   9.365   5.915  2.4839  0.0545 -1.1123
  578MOL0     H79734   4.383   9.515   5.847 -0.5901 -2.8602  1.3772
  578MOL0     H79735   4.302   9.657   5.912  0.5356 -1.2694  2.5139
  578MOL0     H79736   4.184   9.480   5.696  3.0048 -1.0756  0.0657
  578MOL0     H79737   4.092   9.606   5.790  0.4060  2.4375  1.4067
  578MOL0     H79738   4.362   9.612   5.635 -1.4735 -2.1039 -1.4917
  578MOL0     H79739   4.298   9.756   5.700 -1.0667  1.0054  0.1091
  578MOL0     H79740   4.105   9.760   5.537 -3.8368 -2.8791  0.1040
  578MOL0     H79741   4.124   9.585   5.504  0.6993 -0.6050 -1.0441
  578MOL0     H79742   4.217   9.752   5.318  0.8913 -1.4234 -1.3158
  578MOL0     H79743   4.329   9.633   5.373 -0.2651 -0.3675  0.2330
  578MOL0     H79744   4.237   9.182   6.399  1.0449  4.2154 -3.7013
  578MOL0     H79745   4.115   9.000   6.505 -0.0203 -1.7031 -0.3777
  578MOL0     H79746   3.600   9.020   6.636 -1.2011 -0.7363  3.6968
  578MOL0     H79747   3.406   8.920   6.716  1.0004  1.0979 -0.4655
  578MOL0     H79748   2.151   9.116   5.862  0.7724  0.6114 -0.5623
  578MOL0     H79749   2.228   9.359   5.831  1.5572 -2.3733 -1.5771
  578MOL0     H79750   2.416   9.675   6.184 -0.3450 -0.8491 -3.2599
  578MOL0     H79751   2.490   9.884   6.274 -0.6449 -3.9208  0.8274
  578MOL0     H79752   2.539  10.257   6.253  2.2093 -2.3902  0.3178
  578MOL0     H79753   2.577  10.103   6.207 -0.3583 -0.2494  1.6089
  578MOL0     H79754   2.520  10.333   6.047  0.0262  0.7220  1.9369
  578MOL0     H79755   2.374  10.249   6.025 -0.5893 -2.4597 -1.5339
  578MOL0     H79756   2.528  10.035   5.978 -0.6190 -0.3123 -0.3550
  578MOL0     H79757   2.492  10.156   5.854 -2.4199 -0.8536  1.6623
  578MOL0     H79758   2.715  10.111   5.826 -1.6294  3.9482 -1.4031
  578MOL0     H79759   2.760  10.116   6.009 -0.3699  1.5023  2.0921
  578MOL0     H79760   2.823  10.499   5.842  0.1956  0.3869  1.3083
  578MOL0     H79761   2.183  10.110   6.100  1.2479  0.6329  1.0126
  578MOL0     H79762   2.051  10.014   5.946  0.0860 -0.3340  0.2382
  578MOL0     H79763   2.071   9.850   5.876  0.8617  3.7024 -2.5759
  578MOL0     H79764   1.977   9.876   6.023 -0.1502  1.9788  0.4764
  579MOL0     O79765   7.320   5.523   3.207  0.3226 -0.4033 -1.0286
  579MOL0     C79766   7.379   5.477   3.305 -0.4712 -0.2443 -0.3092
  579MOL0     O79767   7.361   5.354   3.352 -0.8088  0.2835  0.4657
  579MOL0     C79768   7.253   5.281   3.314 -0.6259  0.1346  0.1055
  579MOL0     C79769   7.271   5.149   3.262  0.2881 -0.5473  0.3071
  579MOL0     C79770   7.155   5.064   3.243  0.3086 -0.0772  0.4709
  579MOL0     C79771   7.033   5.114   3.286 -0.3981  0.2310  0.1906
  579MOL0     O79772   6.917   5.037   3.281 -0.2838 -0.2054 -0.4145
  579MOL0     C79773   6.895   4.933   3.183  0.1256 -0.0145  0.5092
  579MOL0     C79774   6.747   4.904   3.190  1.1263 -0.2128 -0.6671
  579MOL0     C79775   6.670   5.018   3.119 -0.2762  0.0401 -0.5203
  579MOL0     C79776   6.517   4.999   3.142 -0.2111 -0.8807  0.4788
  579MOL0     C79777   6.438   5.123   3.088 -0.0273  0.0985 -1.1509
  579MOL0     C79778   6.438   5.112   2.936  0.0705  0.1017  0.8726
  579MOL0     C79779   6.358   5.238   2.894  0.5403 -0.0185 -0.3920
  579MOL0     C79780   6.304   5.236   2.753  0.4079 -0.1056 -0.2491
  579MOL0     N79781   6.416   5.266   2.663 -0.0718 -1.1987 -0.4934
  579MOL0     C79782   6.464   5.401   2.649  0.7523 -0.0647  0.0652
  579MOL0     C79783   6.577   5.385   2.576 -0.7370 -0.0445 -0.3183
  579MOL0     C79784   6.684   5.478   2.526 -0.0974 -0.0255  0.3490
  579MOL0     C79785   6.619   5.591   2.438  0.0710  0.4090  0.8352
  579MOL0     C79786   6.718   5.646   2.333 -0.0002  0.4707 -0.2229
  579MOL0     C79787   6.669   5.770   2.268 -0.8491 -0.0693 -0.0902
  579MOL0     O79788   6.791   5.819   2.194  0.9723  0.2332  0.2039
  579MOL0     C79789   6.786   5.955   2.180 -0.1781 -1.1739 -0.2830
  579MOL0     C79790   6.679   6.024   2.128 -0.8947  0.2201  0.8627
  579MOL0     C79791   6.683   6.161   2.114 -0.1693 -0.5823  0.0881
  579MOL0     C79792   6.573   6.230   2.039  1.5021  0.0559  0.2924
  579MOL0     C79793   6.789   6.240   2.164 -0.1418 -0.7082 -0.0182
  579MOL0     C79794   6.801   6.387   2.140 -1.6328  0.3883 -0.7507
  579MOL0     O79795   6.754   6.441   2.030 -0.3376 -0.6879  0.2455
  579MOL0     C79796   6.757   6.570   1.989 -0.1963  0.3854  0.2128
  579MOL0     C79797   6.751   6.591   1.852  0.0876 -0.3149  0.3007
  579MOL0     C79798   6.758   6.723   1.801  0.1581  0.9072 -0.3405
  579MOL0     C79799   6.780   6.833   1.892  0.8110  0.2232 -0.1860
  579MOL0     O79800   6.789   6.959   1.848  0.0871  0.1950  0.0331
  579MOL0     C79801   6.695   7.053   1.890  0.3602 -0.3059  0.2720
  579MOL0     C79802   6.691   7.174   1.793 -0.7312  0.1239 -0.4316
  579MOL0     C79803   6.630   7.305   1.849 -0.6448 -0.4322  0.6938
  579MOL0     C79804   6.668   7.368   1.975  0.5647 -0.3973 -0.7404
  579MOL0     C79805   6.672   7.524   1.976 -0.7057  0.4583 -0.4578
  579MOL0     C79806   6.550   7.592   1.913 -0.9357 -0.0132 -0.0055
  579MOL0     C79807   6.420   7.534   1.968  0.0082 -1.5076  0.3637
  579MOL0     C79808   6.309   7.624   1.913  0.7583  0.0855  0.2495
  579MOL0    Cl79809   6.293   7.597   1.731  0.8059 -0.3367  0.1595
  579MOL0     C79810   6.767   6.811   2.029 -0.4579 -0.6073  0.0806
  579MOL0     C79811   6.753   6.677   2.078 -0.2475  0.3858 -0.4654
  579MOL0     O79812   6.857   6.450   2.229  0.3854 -0.4633  0.0284
  579MOL0     C79813   6.892   6.173   2.227  0.5851 -0.3081 -0.3727
  579MOL0     C79814   6.895   6.034   2.226  1.3032  0.2747 -0.0249
  579MOL0     N79815   6.588   5.250   2.539  0.2527 -0.0555  0.3865
  579MOL0     N79816   6.496   5.186   2.592  0.4293  0.0966  0.1403
  579MOL0     C79817   7.016   5.252   3.328  0.1974  0.3894 -0.2874
  579MOL0     C79818   7.128   5.330   3.340 -0.3041  0.2094  0.2510
  579MOL0     C79819   7.492   5.545   3.376 -0.8056  0.2867 -0.1452
  579MOL0     C79820   7.523   5.512   3.509 -0.8671 -0.0699  0.1761
  579MOL0     C79821   7.631   5.575   3.569  0.6249  0.0486  0.2803
  579MOL0     C79822   7.722   5.659   3.506  0.0757  0.6530  1.0053
  579MOL0     O79823   7.840   5.689   3.565 -0.3466  0.3225 -0.2410
  579MOL0     C79824   7.942   5.591   3.534  0.2152  0.9665 -0.4341
  579MOL0     C79825   8.075   5.650   3.530  0.2264 -0.6206  0.0387
  579MOL0     C79826   8.171   5.554   3.469  0.3576  0.2293  0.1502
  579MOL0     C79827   8.294   5.629   3.422 -0.3020  0.7553  0.1133
  579MOL0     C79828   8.401   5.537   3.379  0.8858  0.0725  0.3886
  579MOL0     C79829   8.487   5.464   3.343  0.3683 -0.5430  0.4980
  579MOL0     C79830   7.692   5.686   3.369  0.3393  0.4444 -0.4210
  579MOL0     C79831   7.577   5.641   3.305  0.0823  0.1109  0.7504
  579MOL0     C79832   7.572   5.671   3.156  0.0345 -0.0609  0.2317
  579MOL0     H79833   7.373   5.116   3.246  0.1273 -2.0025  1.9218
  579MOL0     H79834   7.160   4.964   3.200 -1.2878  0.3276 -0.7649
  579MOL0     H79835   6.944   4.839   3.206  1.1840  0.4066  0.0386
  579MOL0     H79836   6.932   4.958   3.084  0.3884  2.1044  1.0813
  579MOL0     H79837   6.727   4.805   3.149 -0.0182 -0.7214  1.0181
  579MOL0     H79838   6.716   4.910   3.295 -0.9660 -1.2412 -1.1875
  579MOL0     H79839   6.694   5.110   3.172 -2.3073 -0.0925  0.7546
  579MOL0     H79840   6.700   5.021   3.014  1.1570  0.7208 -0.1051
  579MOL0     H79841   6.482   4.906   3.095  1.3998 -1.0271 -0.5308
  579MOL0     H79842   6.493   4.986   3.247 -1.3941 -1.2134  0.1808
  579MOL0     H79843   6.478   5.217   3.124 -0.3769  0.0229 -0.5508
  579MOL0     H79844   6.333   5.110   3.119  0.3219 -1.9650 -0.6468
  579MOL0     H79845   6.538   5.105   2.894  0.3830 -2.8116  1.9279
  579MOL0     H79846   6.383   5.022   2.910  1.0043 -0.1569 -0.3159
  579MOL0     H79847   6.428   5.321   2.910 -1.8316  1.2693  5.6990
  579MOL0     H79848   6.277   5.265   2.961  2.6249  1.1642  1.8145
  579MOL0     H79849   6.254   5.142   2.726 -0.7075 -0.0614  1.5150
  579MOL0     H79850   6.227   5.312   2.742 -1.2972 -1.9778 -2.3135
  579MOL0     H79851   6.416   5.493   2.681 -0.5314 -1.5133  2.5724
  579MOL0     H79852   6.766   5.423   2.478  1.1544  2.2616 -0.3064
  579MOL0     H79853   6.739   5.532   2.603  1.9043  1.2730 -1.8487
  579MOL0     H79854   6.549   5.531   2.380  0.1626 -1.3394  2.4295
  579MOL0     H79855   6.569   5.668   2.497  3.0591  2.3035  1.0924
  579MOL0     H79856   6.811   5.681   2.380  0.0926  3.3358 -2.2834
  579MOL0     H79857   6.729   5.576   2.250  1.7451 -0.3588  0.6491
  579MOL0     H79858   6.587   5.746   2.199 -2.9508  2.8277  1.1713
  579MOL0     H79859   6.626   5.844   2.337 -0.8770 -0.6032  0.4767
  579MOL0     H79860   6.598   5.959   2.096 -0.2521  0.2076 -0.8673
  579MOL0     H79861   6.496   6.153   2.031  0.2612  1.0266  2.0692
  579MOL0     H79862   6.605   6.258   1.939 -0.4450 -2.4306 -1.1523
  579MOL0     H79863   6.522   6.307   2.098  4.6995  1.0431  2.0172
  579MOL0     H79864   6.745   6.507   1.784  0.6909 -1.1425  1.2292
  579MOL0     H79865   6.751   6.737   1.694 -3.7080 -0.9755 -0.4709
  579MOL0     H79866   6.593   7.012   1.891  1.2472 -2.7506  2.7694
  579MOL0     H79867   6.711   7.098   1.988 -0.4710  4.0071 -1.3542
  579MOL0     H79868   6.785   7.206   1.746 -1.8428  4.5945 -0.1383
  579MOL0     H79869   6.633   7.134   1.710 -1.5825  3.1673 -1.4541
  579MOL0     H79870   6.529   7.273   1.877 -0.2142 -1.5681  1.0007
  579MOL0     H79871   6.635   7.376   1.766 -1.3513 -3.1206 -1.8745
  579MOL0     H79872   6.769   7.342   2.007  1.5242  1.3692 -2.1531
  579MOL0     H79873   6.608   7.319   2.052  2.4477 -1.3483  0.1945
  579MOL0     H79874   6.679   7.560   2.078  0.1661 -2.0757  0.4715
  579MOL0     H79875   6.762   7.555   1.922 -0.9012  0.3512 -0.8529
  579MOL0     H79876   6.562   7.570   1.806  2.7468 -1.2538  0.4957
  579MOL0     H79877   6.553   7.700   1.929 -0.4464  0.0143 -0.2478
  579MOL0     H79878   6.427   7.544   2.077  0.6971 -0.0496  0.2063
  579MOL0     H79879   6.404   7.430   1.937 -0.0126 -0.6524 -2.8284
  579MOL0     H79880   6.327   7.732   1.914 -0.3242  0.4265 -3.3868
  579MOL0     H79881   6.227   7.590   1.976  1.9454 -1.7606  0.8916
  579MOL0     H79882   6.779   6.891   2.102 -3.4676  0.9013 -0.9106
  579MOL0     H79883   6.752   6.663   2.185 -0.6392  2.3392 -0.1703
  579MOL0     H79884   6.972   6.223   2.280 -0.7791 -0.4283  1.9262
  579MOL0     H79885   6.981   5.985   2.270  0.8613 -0.2104  0.3046
  579MOL0     H79886   6.917   5.294   3.342  1.2058  2.4989  0.9285
  579MOL0     H79887   7.121   5.424   3.393  1.0734 -0.3952  1.5883
  579MOL0     H79888   7.461   5.445   3.568 -1.3463  0.5890  0.4433
  579MOL0     H79889   7.655   5.550   3.671 -0.9139 -0.3933  0.5701
  579MOL0     H79890   7.948   5.510   3.608  1.1854  0.5421 -0.9560
  579MOL0     H79891   7.920   5.535   3.443 -0.3951 -1.5599  1.1580
  579MOL0     H79892   8.112   5.687   3.626  6.4309 -2.9908 -0.9928
  579MOL0     H79893   8.065   5.738   3.465  2.4824  3.3632  4.4633
  579MOL0     H79894   8.182   5.472   3.541 -2.5622 -2.3275 -2.0246
  579MOL0     H79895   8.121   5.511   3.382 -0.3324 -1.3411  1.2788
  579MOL0     H79896   8.332   5.694   3.502  0.6985  3.0326 -2.0819
  579MOL0     H79897   8.267   5.702   3.345 -1.1864 -1.6147 -1.9735
  579MOL0     H79898   8.551   5.387   3.304 -2.1860 -0.7408 -4.0519
  579MOL0     H79899   7.761   5.740   3.305 -0.3132  0.9493 -0.7199
  579MOL0     H79900   7.478   5.669   3.100  0.8743  3.1518 -1.5360
  579MOL0     H79901   7.615   5.770   3.140  0.6591  0.0624  2.3418
  579MOL0     H79902   7.642   5.592   3.125  0.5990 -0.5158  2.4444
  580MOL0     O79903  11.123   7.468   9.193  0.0311  0.2885 -0.5185
  580MOL0     C79904  11.080   7.379   9.262 -0.1501  0.4114  0.3464
  580MOL0     O79905  10.945   7.372   9.293 -0.1451 -0.3736 -0.0297
  580MOL0     C79906  10.863   7.465   9.240  0.5588 -1.1724  0.0035
  580MOL0     C79907  10.742   7.413   9.181 -0.7376  0.7058 -0.1717
  580MOL0     C79908  10.637   7.502   9.142 -0.7614 -0.2077 -0.0397
  580MOL0     C79909  10.649   7.644   9.162 -0.5819 -0.4028  0.7014
  580MOL0     O79910  10.541   7.714   9.132  0.1923  0.5793 -0.4157
  580MOL0     C79911  10.564   7.856   9.122 -0.2562 -0.6344 -0.1223
  580MOL0     C79912  10.435   7.903   9.059 -0.3685 -0.0381 -0.1964
  580MOL0     C79913  10.403   7.846   8.918 -0.2946  0.1205  0.4808
  580MOL0     C79914  10.268   7.878   8.869 -0.2060  0.3007 -0.5455
  580MOL0     C79915  10.252   8.014   8.810  0.2470  0.4486 -0.2477
  580MOL0     C79916  10.113   8.028   8.755  0.5712  0.3009  0.0578
  580MOL0     C79917  10.092   8.163   8.681  0.7362  1.0025  0.1785
  580MOL0     C79918  10.131   8.287   8.770 -0.6820  0.3698  1.3734
  580MOL0     N79919  10.085   8.415   8.705  1.1507  0.5572  0.1291
  580MOL0     C79920   9.956   8.447   8.680  0.5348 -0.7612  0.5341
  580MOL0     C79921   9.956   8.566   8.626  0.0128  0.5906 -0.7614
  580MOL0     C79922   9.826   8.639   8.578  0.3733 -0.8614  0.7949
  580MOL0     C79923   9.789   8.605   8.430  0.6952 -0.5698  0.0507
  580MOL0     C79924   9.856   8.706   8.338  0.9552  0.1123 -0.3615
  580MOL0     C79925  10.000   8.717   8.335  0.2383  0.3284  0.3181
  580MOL0     O79926  10.037   8.829   8.249  0.0453 -0.1216  0.6907
  580MOL0     C79927  10.168   8.871   8.265 -0.4728  0.2562 -0.1728
  580MOL0     C79928  10.201   9.001   8.211 -0.4294  0.5338 -0.0674
  580MOL0     C79929  10.334   9.044   8.228 -1.0811 -0.3133  0.8794
  580MOL0     C79930  10.367   9.162   8.150 -0.0559 -0.0893 -0.5762
  580MOL0     C79931  10.431   8.967   8.292 -0.3293  0.3022  0.6754
  580MOL0     C79932  10.574   9.008   8.315  0.0804 -0.1394 -0.0836
  580MOL0     O79933  10.665   8.907   8.334 -0.1270 -0.0475 -0.2499
  580MOL0     C79934  10.792   8.931   8.332 -0.4472 -0.8436  0.2760
  580MOL0     C79935  10.876   8.960   8.441 -0.0589  0.5326  0.5158
  580MOL0     C79936  11.015   9.002   8.426  0.6716  0.0145  0.4353
  580MOL0     C79937  11.064   9.020   8.303  0.1375  0.1309  0.1828
  580MOL0     O79938  11.195   9.079   8.283  0.1500  0.2410 -1.1960
  580MOL0     C79939  11.296   8.977   8.257 -0.9091  1.1481 -0.0221
  580MOL0     C79940  11.408   9.026   8.159 -1.3042  0.3165  0.1396
  580MOL0     C79941  11.545   9.010   8.233  0.4957 -1.0654  1.1028
  580MOL0     C79942  11.625   8.889   8.179 -0.3689  0.4183  0.2657
  580MOL0     C79943  11.724   8.833   8.271 -0.2923  0.1502 -0.0973
  580MOL0     C79944  11.800   8.705   8.216 -0.0006  0.4202 -0.2946
  580MOL0     C79945  11.711   8.581   8.197 -0.7586 -1.0490  0.4729
  580MOL0     C79946  11.791   8.448   8.231  0.0280 -0.2074 -0.3126
  580MOL0    Cl79947  11.808   8.433   8.411  0.1500 -0.1437  0.2447
  580MOL0     C79948  10.984   8.978   8.194 -0.0931 -0.3925  0.3068
  580MOL0     C79949  10.851   8.938   8.200 -0.3412  0.4881 -0.3903
  580MOL0     O79950  10.599   9.124   8.320 -0.6891 -0.3881 -0.6137
  580MOL0     C79951  10.395   8.842   8.337  0.2686  0.5455  0.6121
  580MOL0     C79952  10.265   8.797   8.323  0.0384 -0.3806 -0.1387
  580MOL0     N79953  10.082   8.612   8.628 -0.0867 -0.0862 -0.0250
  580MOL0     N79954  10.161   8.524   8.677  0.6628  0.1198 -0.2294
  580MOL0     C79955  10.774   7.689   9.210 -0.0384 -0.0559 -0.4978
  580MOL0     C79956  10.878   7.607   9.258  0.0892  0.5127  0.8517
  580MOL0     C79957  11.169   7.269   9.310 -0.3489  1.1808 -0.5673
  580MOL0     C79958  11.094   7.154   9.334 -0.1911 -0.3568  0.5742
  580MOL0     C79959  11.159   7.037   9.389 -0.0689  0.2596 -0.3926
  580MOL0     C79960  11.293   7.048   9.431 -0.2956 -0.1597  0.2366
  580MOL0     O79961  11.343   6.942   9.502  0.4187  0.2694  0.1995
  580MOL0     C79962  11.482   6.905   9.495 -0.2767  0.4922 -0.1221
  580MOL0     C79963  11.495   6.755   9.485 -0.4935  0.0372 -0.2182
  580MOL0     C79964  11.650   6.728   9.481  0.7125 -1.2922 -1.1450
  580MOL0     C79965  11.680   6.581   9.447  0.1154  0.3134  0.6431
  580MOL0     C79966  11.662   6.538   9.304 -0.7538  0.1515  0.7242
  580MOL0     C79967  11.633   6.515   9.192 -0.6395 -0.5559  0.8338
  580MOL0     C79968  11.370   7.164   9.398 -0.0678 -0.3282 -0.7679
  580MOL0     C79969  11.310   7.275   9.338 -0.1725 -0.0143  0.4002
  580MOL0     C79970  11.382   7.413   9.346 -0.2238  0.0253  1.0304
  580MOL0     H79971  10.734   7.304   9.181  0.5513  0.4572  3.6378
  580MOL0     H79972  10.545   7.467   9.098 -0.7763 -2.4675  1.6229
  580MOL0     H79973  10.652   7.884   9.064 -0.2102  1.2966  0.7951
  580MOL0     H79974  10.573   7.898   9.223  1.1853  1.4629 -1.0695
  580MOL0     H79975  10.348   7.896   9.126 -1.2822  1.8198 -1.1169
  580MOL0     H79976  10.455   8.008   9.036 -0.9618 -0.2677 -1.9297
  580MOL0     H79977  10.476   7.883   8.846  3.1158 -2.2760  2.4452
  580MOL0     H79978  10.417   7.739   8.904 -2.7313  0.0514 -2.3332
  580MOL0     H79979  10.243   7.796   8.800  1.3602 -0.8335  0.1716
  580MOL0     H79980  10.189   7.879   8.946 -2.1602  0.2592 -2.4472
  580MOL0     H79981  10.323   8.043   8.732  0.2589  0.5146 -0.2126
  580MOL0     H79982  10.267   8.085   8.892  0.1671 -3.9393  4.0617
  580MOL0     H79983  10.095   7.941   8.692  0.7376 -0.4626  1.0467
  580MOL0     H79984  10.045   8.018   8.841  1.0390 -2.1901  0.1962
  580MOL0     H79985   9.988   8.171   8.650  1.1653  2.2101 -1.0723
  580MOL0     H79986  10.156   8.164   8.593  1.2374  3.5807  0.4804
  580MOL0     H79987  10.088   8.282   8.870  0.6896  1.8337  2.0620
  580MOL0     H79988  10.240   8.291   8.771 -0.4969 -1.5819 -1.0057
  580MOL0     H79989   9.876   8.373   8.681 -2.4349  2.2257  1.0622
  580MOL0     H79990   9.846   8.747   8.581 -0.4452 -0.6130 -1.2442
  580MOL0     H79991   9.739   8.622   8.642 -1.2640  0.5695 -0.8941
  580MOL0     H79992   9.810   8.500   8.406 -2.5383 -0.9660 -1.5088
  580MOL0     H79993   9.680   8.608   8.423  0.3904 -1.3087  3.0329
  580MOL0     H79994   9.829   8.676   8.236 -2.3482  0.9694  0.1386
  580MOL0     H79995   9.812   8.803   8.361  0.1729 -0.1886 -0.5438
  580MOL0     H79996  10.042   8.742   8.433 -0.1870 -0.4038  0.6961
  580MOL0     H79997  10.050   8.629   8.295 -0.1075  0.6904 -0.9528
  580MOL0     H79998  10.120   9.051   8.159 -0.7898  0.0947  0.0579
  580MOL0     H79999  10.407   9.241   8.215  1.7197 -2.1500  0.9661
  580MOL0     H80000  10.285   9.215   8.100 -0.3804 -2.2074 -2.3987
  580MOL0     H80001  10.443   9.136   8.076 -0.5922 -1.1234 -0.7735
  580MOL0     H80002  10.837   8.947   8.541  0.0279 -0.8346  0.3960
  580MOL0     H80003  11.079   9.036   8.507  1.5511  0.6348 -0.4973
  580MOL0     H80004  11.346   8.947   8.350  0.2684 -1.5484 -1.4197
  580MOL0     H80005  11.253   8.888   8.211  0.6390  0.2873  0.1168
  580MOL0     H80006  11.410   8.965   8.067  0.3248 -0.9909  0.9902
  580MOL0     H80007  11.391   9.130   8.130 -3.1285  0.1264  0.4304
  580MOL0     H80008  11.538   9.000   8.341 -0.3532  0.1068  1.1774
  580MOL0     H80009  11.602   9.103   8.220 -2.9755  1.1520  0.6155
  580MOL0     H80010  11.667   8.908   8.079 -0.3299 -0.4518  0.1057
  580MOL0     H80011  11.550   8.814   8.153  0.1440  0.7894 -2.6134
  580MOL0     H80012  11.798   8.912   8.285  0.4854 -0.1598 -2.2396
  580MOL0     H80013  11.671   8.806   8.363 -0.9700  0.3943 -0.4083
  580MOL0     H80014  11.886   8.690   8.281  1.5594 -2.4362 -2.7895
  580MOL0     H80015  11.838   8.726   8.115  2.5306  2.2443  0.9358
  580MOL0     H80016  11.665   8.585   8.098 -3.5532 -0.7495  1.6737
  580MOL0     H80017  11.626   8.584   8.267 -0.7539  0.9634  0.4728
  580MOL0     H80018  11.887   8.466   8.182 -0.0738 -0.1603 -0.4982
  580MOL0     H80019  11.750   8.357   8.187  2.3736 -1.0468 -0.9048
  580MOL0     H80020  11.020   8.981   8.091  2.0844 -0.1420  1.0308
  580MOL0     H80021  10.785   8.933   8.114 -0.3676 -1.9365 -0.3107
  580MOL0     H80022  10.459   8.770   8.386  0.9677  0.8848  0.2122
  580MOL0     H80023  10.252   8.690   8.340 -0.3727  0.1448  3.9856
  580MOL0     H80024  10.784   7.796   9.220  2.2826  0.2218 -3.9352
  580MOL0     H80025  10.965   7.648   9.308  2.1026 -3.3487  0.8514
  580MOL0     H80026  10.991   7.141   9.304 -0.0329 -3.8571  1.0766
  580MOL0     H80027  11.108   6.944   9.411  0.2309  0.3473  0.7375
  580MOL0     H80028  11.522   6.950   9.404 -0.0707  5.4798  2.1347
  580MOL0     H80029  11.530   6.946   9.584 -0.9382 -1.0161  0.9785
  580MOL0     H80030  11.452   6.716   9.392  1.5396 -0.2249 -1.0918
  580MOL0     H80031  11.442   6.703   9.565 -1.2275  1.3702  0.1979
  580MOL0     H80032  11.703   6.805   9.423 -0.0266  1.6727  1.8270
  580MOL0     H80033  11.698   6.753   9.576 -1.1155 -1.0054 -0.2701
  580MOL0     H80034  11.608   6.524   9.507 -1.9631  1.3680 -0.7041
  580MOL0     H80035  11.785   6.567   9.474  0.6070  1.2904 -0.6741
  580MOL0     H80036  11.620   6.482   9.091  2.1024 -1.2833  0.6414
  580MOL0     H80037  11.472   7.182   9.429 -0.5026 -0.9834  1.2114
  580MOL0     H80038  11.470   7.400   9.410 -0.0134  0.1101  0.7606
  580MOL0     H80039  11.409   7.443   9.244 -1.3662 -1.9855  0.0743
  580MOL0     H80040  11.321   7.493   9.388 -2.7644 -1.8619  1.1455
  581MOL0     O80041   6.144   3.506   6.110  0.2181  0.0899  0.4092
  581MOL0     C80042   6.109   3.514   5.992  0.2480  0.3464  0.2158
  581MOL0     O80043   6.151   3.616   5.905 -0.7070  0.4128 -0.2554
  581MOL0     C80044   6.242   3.705   5.955 -0.5102  0.5534  0.2154
  581MOL0     C80045   6.379   3.695   5.944 -0.2431 -0.0778  0.5371
  581MOL0     C80046   6.474   3.786   5.989  0.0014 -0.1890  0.9313
  581MOL0     C80047   6.424   3.908   6.052  0.1069  0.1773 -0.1958
  581MOL0     O80048   6.522   4.004   6.083 -0.0156 -0.3419  0.1344
  581MOL0     C80049   6.478   4.141   6.053  0.7916  0.6618 -0.1213
  581MOL0     C80050   6.536   4.223   6.167 -0.8699  0.2795 -0.7321
  581MOL0     C80051   6.691   4.256   6.167  0.1643 -0.1182  0.0253
  581MOL0     C80052   6.764   4.165   6.264  0.6410 -0.4426  0.8661
  581MOL0     C80053   6.913   4.204   6.301 -0.1200  0.8081 -0.2715
  581MOL0     C80054   6.922   4.342   6.373 -0.0353 -0.3051  1.0255
  581MOL0     C80055   7.064   4.382   6.411 -0.4891 -0.4439  0.3605
  581MOL0     C80056   7.157   4.391   6.293  0.1541 -0.4312  0.7941
  581MOL0     N80057   7.106   4.485   6.185 -0.2882 -0.0254 -0.6880
  581MOL0     C80058   7.108   4.623   6.194  0.1545 -0.1817  0.2074
  581MOL0     C80059   7.070   4.662   6.067  0.4540 -0.7235  0.3223
  581MOL0     C80060   7.046   4.804   6.030  0.5599  0.2728  0.2381
  581MOL0     C80061   7.108   4.863   5.898 -0.3003 -0.0691 -0.3797
  581MOL0     C80062   7.261   4.841   5.876 -0.3314 -0.2787 -0.9756
  581MOL0     C80063   7.340   4.947   5.960  0.1184  0.3405  0.4601
  581MOL0     O80064   7.343   4.910   6.102 -0.5883 -0.0914  0.1115
  581MOL0     C80065   7.368   5.001   6.195 -1.2798 -1.2246 -0.1366
  581MOL0     C80066   7.432   5.122   6.169 -0.7308 -0.0638  0.3726
  581MOL0     C80067   7.480   5.220   6.270  0.3751  0.4661  0.2268
  581MOL0     C80068   7.565   5.329   6.210 -1.3876 -0.0168 -0.7084
  581MOL0     C80069   7.451   5.193   6.408 -0.4676  0.2086  0.0176
  581MOL0     C80070   7.484   5.279   6.530  0.7635 -0.7343 -0.9898
  581MOL0     O80071   7.481   5.410   6.508 -0.0365 -0.3728  0.2264
  581MOL0     C80072   7.501   5.489   6.612 -0.3944 -0.3312  0.9693
  581MOL0     C80073   7.391   5.552   6.669 -0.4032 -0.4105 -1.3833
  581MOL0     C80074   7.413   5.654   6.767  0.5980  0.0059 -0.2767
  581MOL0     C80075   7.540   5.692   6.808 -0.4478 -0.3169 -0.2322
  581MOL0     O80076   7.563   5.783   6.911 -0.5713  0.1966 -0.3841
  581MOL0     C80077   7.460   5.852   6.986  0.3311  0.0092  0.4809
  581MOL0     C80078   7.405   5.969   6.893  0.5230  0.0304  0.4962
  581MOL0     C80079   7.319   6.062   6.983  0.0938 -0.2433  0.0941
  581MOL0     C80080   7.400   6.150   7.081 -0.6189 -0.6245  0.1378
  581MOL0     C80081   7.309   6.191   7.197 -0.0602  0.2863  0.2255
  581MOL0     C80082   7.372   6.290   7.292 -0.1969  0.0585 -0.3794
  581MOL0     C80083   7.291   6.318   7.418  0.3841  0.0620  1.0473
  581MOL0     C80084   7.325   6.451   7.490  0.1076  0.2541 -0.3304
  581MOL0    Cl80085   7.181   6.487   7.599  0.3085 -0.4151 -0.0729
  581MOL0     C80086   7.650   5.632   6.751 -0.6291  0.2199  0.4253
  581MOL0     C80087   7.630   5.534   6.650 -0.1680 -0.0529  0.7751
  581MOL0     O80088   7.515   5.226   6.634  0.2563  0.5462  0.0242
  581MOL0     C80089   7.379   5.075   6.421 -0.6187 -0.0701  0.6215
  581MOL0     C80090   7.334   4.982   6.322  0.5616 -0.1190 -0.0620
  581MOL0     N80091   7.056   4.545   5.987  0.6897 -0.3687 -0.1939
  581MOL0     N80092   7.069   4.441   6.063 -0.3857  0.5934 -0.1801
  581MOL0     C80093   6.285   3.920   6.065 -0.3125 -0.2671 -0.8671
  581MOL0     C80094   6.203   3.826   6.004  0.5365 -0.4195  0.9242
  581MOL0     C80095   6.007   3.408   5.958  0.1377 -0.7946  0.7137
  581MOL0     C80096   5.964   3.409   5.821 -1.1043 -0.0468  0.6739
  581MOL0     C80097   5.897   3.302   5.764  0.2399 -1.5269 -0.2390
  581MOL0     C80098   5.850   3.198   5.841  0.1735  0.1967  0.7695
  581MOL0     O80099   5.775   3.092   5.792  0.4716  0.4340  0.0068
  581MOL0     C80100   5.634   3.102   5.810 -0.3760 -0.2837  0.2316
  581MOL0     C80101   5.587   2.953   5.836 -0.1211 -0.0652 -0.3284
  581MOL0     C80102   5.446   2.928   5.797 -0.7741  0.7085  0.2824
  581MOL0     C80103   5.379   2.802   5.864 -0.3200 -0.1931  0.0382
  581MOL0     C80104   5.348   2.829   6.007 -0.6768 -0.4415 -0.2845
  581MOL0     C80105   5.305   2.834   6.125  0.5136 -0.1151 -0.1371
  581MOL0     C80106   5.882   3.193   5.980  0.2231 -1.0384  0.5133
  581MOL0     C80107   5.953   3.302   6.040 -0.3776 -0.1990 -0.0696
  581MOL0     C80108   5.977   3.288   6.183  0.8561 -1.3472  0.2971
  581MOL0     H80109   6.410   3.600   5.903 -2.3651 -1.0913  1.1718
  581MOL0     H80110   6.579   3.776   5.967  0.2193  1.8058  0.9093
  581MOL0     H80111   6.369   4.144   6.055  0.7936  3.0817 -1.1164
  581MOL0     H80112   6.514   4.188   5.962 -4.2833  3.0212 -1.2299
  581MOL0     H80113   6.481   4.317   6.169  1.6375  1.8731  1.9142
  581MOL0     H80114   6.510   4.163   6.255  1.3747  0.7955  0.3522
  581MOL0     H80115   6.728   4.232   6.067 -0.4304 -0.2169 -0.1735
  581MOL0     H80116   6.708   4.362   6.186 -0.9660  0.5420 -2.2256
  581MOL0     H80117   6.713   4.175   6.361  0.2963  0.1226  0.6299
  581MOL0     H80118   6.757   4.062   6.230 -0.7509 -1.7183  4.5460
  581MOL0     H80119   6.972   4.188   6.210 -1.8528 -0.8972 -1.1628
  581MOL0     H80120   6.937   4.128   6.375  2.5169  1.4566 -0.3791
  581MOL0     H80121   6.872   4.424   6.321  1.0328  1.4852  2.6772
  581MOL0     H80122   6.853   4.328   6.457 -0.4183 -0.5856  0.6678
  581MOL0     H80123   7.099   4.301   6.475  1.6719  1.1921  1.3849
  581MOL0     H80124   7.059   4.482   6.455 -0.8047 -0.0279 -0.5972
  581MOL0     H80125   7.252   4.422   6.338 -0.8775  0.4504  2.4709
  581MOL0     H80126   7.165   4.293   6.245 -1.4488  0.6010 -1.7655
  581MOL0     H80127   7.134   4.684   6.279  2.2812 -0.6549 -0.0639
  581MOL0     H80128   7.082   4.868   6.111 -1.7065  0.4499  1.1783
  581MOL0     H80129   6.937   4.805   6.019  0.6711 -2.2984 -2.3538
  581MOL0     H80130   7.048   4.805   5.826 -1.9825  2.5324 -1.2330
  581MOL0     H80131   7.079   4.966   5.874 -1.3434 -0.3849 -0.5431
  581MOL0     H80132   7.296   4.745   5.915 -0.5846  1.1583  3.4294
  581MOL0     H80133   7.284   4.854   5.770 -1.3972 -1.1982 -1.3383
  581MOL0     H80134   7.441   4.958   5.919 -0.3014  4.2999  0.0977
  581MOL0     H80135   7.291   5.045   5.950 -0.7212 -0.2054 -1.1289
  581MOL0     H80136   7.462   5.144   6.068  0.3772  2.2360  1.1392
  581MOL0     H80137   7.611   5.298   6.115 -2.9913 -2.0679 -0.8829
  581MOL0     H80138   7.649   5.351   6.277  0.5459 -2.0254 -2.2823
  581MOL0     H80139   7.493   5.410   6.198  0.0501  1.7966  1.9933
  581MOL0     H80140   7.286   5.529   6.650 -1.0406  0.2234  0.9510
  581MOL0     H80141   7.328   5.709   6.806 -0.1058 -1.1671 -0.1118
  581MOL0     H80142   7.385   5.783   7.025  0.3229 -0.2145  0.0736
  581MOL0     H80143   7.511   5.896   7.073  0.9256 -0.5692  0.4290
  581MOL0     H80144   7.483   6.025   6.840  1.6496 -2.3117 -0.4784
  581MOL0     H80145   7.339   5.930   6.815  2.5243  1.2613 -1.9710
  581MOL0     H80146   7.271   5.990   7.050  1.6137  0.1972  1.7423
  581MOL0     H80147   7.233   6.109   6.935  1.8432  1.6052 -1.4403
  581MOL0     H80148   7.446   6.238   7.034 -1.4960 -0.0983  0.2396
  581MOL0     H80149   7.475   6.082   7.121  1.9852  2.7374  1.5182
  581MOL0     H80150   7.219   6.238   7.157 -1.4598 -0.8376  1.8568
  581MOL0     H80151   7.283   6.105   7.261  1.3060  0.5702  1.1984
  581MOL0     H80152   7.380   6.381   7.232 -2.6795 -0.3996 -1.5174
  581MOL0     H80153   7.472   6.263   7.329  1.0815  3.2592 -1.1379
  581MOL0     H80154   7.334   6.249   7.491  1.5267 -0.6348 -0.2579
  581MOL0     H80155   7.183   6.308   7.402  0.6199  0.5678 -1.1933
  581MOL0     H80156   7.344   6.530   7.417 -0.9166 -1.7522 -2.9292
  581MOL0     H80157   7.410   6.437   7.558  0.4042  1.6219 -0.4017
  581MOL0     H80158   7.754   5.656   6.774  0.0346 -2.0107  0.0365
  581MOL0     H80159   7.707   5.491   6.587  1.2191  1.3586  1.4600
  581MOL0     H80160   7.360   5.039   6.522  1.8453  2.2417  2.0469
  581MOL0     H80161   7.265   4.900   6.341  1.5911 -1.2682 -1.0721
  581MOL0     H80162   6.234   4.003   6.113  1.5324  0.6957 -0.4739
  581MOL0     H80163   6.097   3.846   6.014  0.3833 -1.6725  2.0046
  581MOL0     H80164   6.008   3.488   5.760  1.7559 -0.5855  1.8725
  581MOL0     H80165   5.879   3.300   5.657  2.5174  1.3752 -0.8225
  581MOL0     H80166   5.606   3.168   5.892  1.9080 -1.9447  2.5062
  581MOL0     H80167   5.580   3.148   5.726 -1.0309 -0.7120  0.4055
  581MOL0     H80168   5.583   2.948   5.945  0.6638 -1.9555 -0.3519
  581MOL0     H80169   5.666   2.880   5.817  0.9608  0.1887  2.7044
  581MOL0     H80170   5.388   3.017   5.823  0.6653  1.5739  0.6463
  581MOL0     H80171   5.449   2.929   5.687  2.8951  0.7235  0.2590
  581MOL0     H80172   5.430   2.705   5.859 -2.5215 -1.3389 -1.7200
  581MOL0     H80173   5.284   2.785   5.814 -0.3336  0.4809 -0.1727
  581MOL0     H80174   5.271   2.842   6.226  0.6375 -1.3059  0.0149
  581MOL0     H80175   5.836   3.114   6.039 -1.6558 -1.4100 -1.3088
  581MOL0     H80176   6.085   3.285   6.202  0.9555 -0.2232  0.0162
  581MOL0     H80177   5.941   3.375   6.240  3.2508 -0.4534  0.5744
  581MOL0     H80178   5.922   3.201   6.219 -1.7479 -0.0644 -0.3147
  582MOL0     O80179   5.669   1.710   9.842 -0.2964  0.4681  0.2237
  582MOL0     C80180   5.622   1.743   9.731 -0.1769 -0.1929  0.3287
  582MOL0     O80181   5.703   1.805   9.640 -0.4097 -0.2854 -0.1412
  582MOL0     C80182   5.791   1.899   9.683  0.1837  0.4851  0.6102
  582MOL0     C80183   5.932   1.870   9.672  0.3286 -0.3638 -0.1900
  582MOL0     C80184   6.030   1.963   9.709 -0.2582 -0.0698 -0.1672
  582MOL0     C80185   5.991   2.082   9.773 -0.0307 -0.0565  0.2354
  582MOL0     O80186   6.069   2.180   9.834  0.0952  0.2659 -0.8489
  582MOL0     C80187   6.194   2.140   9.883 -0.4760 -0.6103 -0.3080
  582MOL0     C80188   6.307   2.189   9.788 -0.0520  0.1310 -0.2592
  582MOL0     C80189   6.432   2.113   9.810  0.7402 -0.0254 -0.6154
  582MOL0     C80190   6.500   2.134   9.941 -0.0714  0.3788 -0.8529
  582MOL0     C80191   6.644   2.073   9.953 -0.3236 -0.1859 -0.1975
  582MOL0     C80192   6.701   2.096  10.096 -0.9777  0.5478  0.0705
  582MOL0     C80193   6.826   2.017  10.124 -0.6132 -0.3793 -0.0609
  582MOL0     C80194   6.946   2.050  10.027 -0.3436 -0.7576  0.2422
  582MOL0     N80195   7.077   1.973  10.047  0.2476 -0.2049  0.4211
  582MOL0     C80196   7.178   1.950   9.958  0.0774  0.4530 -0.7073
  582MOL0     C80197   7.268   1.870  10.024  0.6923 -0.8025 -0.0475
  582MOL0     C80198   7.396   1.825   9.942  0.5124 -0.3113 -0.5944
  582MOL0     C80199   7.469   1.716  10.021 -0.0016  0.7351 -0.2815
  582MOL0     C80200   7.557   1.652   9.909  0.8917 -0.2118  0.2138
  582MOL0     C80201   7.646   1.551   9.971 -0.0840  0.1758  0.0856
  582MOL0     O80202   7.712   1.483   9.864  0.1229 -0.4752  0.6342
  582MOL0     C80203   7.813   1.537   9.785  0.0649 -0.3140  0.0576
  582MOL0     C80204   7.878   1.653   9.827 -0.5586  0.0791 -0.0180
  582MOL0     C80205   7.991   1.703   9.757  0.4795  0.0154  0.4244
  582MOL0     C80206   8.074   1.820   9.802  0.8453  0.1635 -0.7376
  582MOL0     C80207   8.035   1.628   9.641  0.2245 -0.3524  0.0328
  582MOL0     C80208   8.145   1.681   9.558  0.1839 -0.0203  0.3091
  582MOL0     O80209   8.120   1.730   9.431 -0.1205 -0.0967 -0.6618
  582MOL0     C80210   8.228   1.766   9.360  0.0003 -0.7358  0.4712
  582MOL0     C80211   8.314   1.672   9.296  0.3369  0.6471 -0.5087
  582MOL0     C80212   8.418   1.719   9.225 -0.6851  1.1311  0.3764
  582MOL0     C80213   8.433   1.854   9.192  0.5838 -0.4174 -0.3855
  582MOL0     O80214   8.536   1.887   9.103 -0.1136  0.4603 -0.0857
  582MOL0     C80215   8.667   1.824   9.121 -0.5735  0.4446 -0.3114
  582MOL0     C80216   8.768   1.933   9.076  0.2350  0.4879  0.2462
  582MOL0     C80217   8.738   2.075   9.126 -0.1624 -0.2320  0.8309
  582MOL0     C80218   8.845   2.177   9.076 -0.8616  0.2933 -0.3951
  582MOL0     C80219   8.833   2.316   9.149  0.9304  0.6073 -0.4227
  582MOL0     C80220   8.708   2.390   9.087 -0.3820 -0.5563 -0.8121
  582MOL0     C80221   8.696   2.541   9.113  0.6534 -0.0847 -0.1633
  582MOL0     C80222   8.653   2.554   9.257 -0.8025  0.1587 -0.8582
  582MOL0    Cl80223   8.475   2.539   9.268  0.1443  0.0069  0.0009
  582MOL0     C80224   8.343   1.946   9.250  0.1957  0.0745 -0.4311
  582MOL0     C80225   8.242   1.907   9.335 -0.5289 -0.0600  0.3138
  582MOL0     O80226   8.259   1.673   9.605  0.7982 -0.6161 -0.0029
  582MOL0     C80227   7.965   1.518   9.606  0.3374 -0.0897 -0.3368
  582MOL0     C80228   7.857   1.466   9.675  0.2570  0.7761  0.0631
  582MOL0     N80229   7.220   1.854  10.151  0.3880 -0.3670 -0.7334
  582MOL0     N80230   7.109   1.914  10.159 -0.2551 -0.0605 -0.3235
  582MOL0     C80231   5.854   2.118   9.776 -0.2376 -0.0965  0.0210
  582MOL0     C80232   5.757   2.022   9.735  0.8102  0.4429 -1.2044
  582MOL0     C80233   5.491   1.691   9.677 -1.3139 -0.3981  0.0831
  582MOL0     C80234   5.435   1.571   9.730  0.1216 -0.2984  0.0874
  582MOL0     C80235   5.310   1.521   9.687 -0.8514  0.4006 -0.2855
  582MOL0     C80236   5.238   1.577   9.583 -0.4736  0.3640  0.0037
  582MOL0     O80237   5.111   1.531   9.547  0.3202  0.8517 -0.3866
  582MOL0     C80238   5.015   1.618   9.489  0.9673 -0.0266  0.4071
  582MOL0     C80239   4.891   1.543   9.448  0.6435  0.5390 -0.7838
  582MOL0     C80240   4.810   1.470   9.556 -0.2711 -0.0481 -0.1777
  582MOL0     C80241   4.749   1.555   9.670  0.0531 -0.1951  0.1597
  582MOL0     C80242   4.627   1.618   9.617  0.1323 -0.0562  0.1406
  582MOL0     C80243   4.534   1.679   9.577 -0.6814  0.7549 -0.5160
  582MOL0     C80244   5.287   1.690   9.531  0.1195 -0.2012 -0.5334
  582MOL0     C80245   5.412   1.754   9.574  0.1986  0.9484  0.2168
  582MOL0     C80246   5.455   1.885   9.515  0.4195  0.6275  0.2351
  582MOL0     H80247   5.972   1.775   9.638  0.8094  0.6580 -2.7089
  582MOL0     H80248   6.133   1.940   9.682  0.2368  1.6587  0.1565
  582MOL0     H80249   6.204   2.032   9.896 -0.8570 -0.4915  1.1117
  582MOL0     H80250   6.209   2.176   9.985 -1.1189  2.7137 -1.2697
  582MOL0     H80251   6.288   2.170   9.682  0.9707 -1.0131 -0.2540
  582MOL0     H80252   6.320   2.297   9.801 -1.1946  0.1221  1.1753
  582MOL0     H80253   6.405   2.007   9.802  2.2963 -0.5804  0.9738
  582MOL0     H80254   6.503   2.140   9.732  3.5651 -0.7018  1.5567
  582MOL0     H80255   6.511   2.241   9.956  2.5528 -0.0937  1.3489
  582MOL0     H80256   6.431   2.098  10.019  0.2949  2.7551  0.6697
  582MOL0     H80257   6.705   2.112   9.871 -2.0006 -0.3854 -1.5835
  582MOL0     H80258   6.632   1.965   9.955 -0.9904 -0.1125  1.3489
  582MOL0     H80259   6.736   2.199  10.105 -3.3363  1.4273 -0.0760
  582MOL0     H80260   6.624   2.081  10.172 -0.1905 -1.0840  0.5891
  582MOL0     H80261   6.814   1.908  10.127 -1.4248 -0.2793  1.4177
  582MOL0     H80262   6.850   2.052  10.225  1.3411  3.4389 -1.6601
  582MOL0     H80263   6.925   2.022   9.923  4.4295 -3.2486 -0.3624
  582MOL0     H80264   6.971   2.156  10.028  1.4382 -1.0810 -1.6468
  582MOL0     H80265   7.175   1.980   9.854 -1.6076 -1.3282 -1.2522
  582MOL0     H80266   7.459   1.910   9.916  1.2330 -0.5732  0.2484
  582MOL0     H80267   7.359   1.775   9.851 -1.1766 -0.9547  0.3946
  582MOL0     H80268   7.534   1.764  10.096  0.9009  2.0873 -1.8646
  582MOL0     H80269   7.406   1.638  10.064  0.9739  0.8484  1.4656
  582MOL0     H80270   7.494   1.614   9.828  2.1750 -1.3964 -0.2504
  582MOL0     H80271   7.610   1.738   9.868 -3.3586  2.9439  0.5582
  582MOL0     H80272   7.720   1.590  10.042  0.4206  1.0035 -0.8697
  582MOL0     H80273   7.588   1.475  10.025  3.2728 -1.5292  1.6385
  582MOL0     H80274   7.858   1.717   9.912 -0.7762 -0.3434  0.2520
  582MOL0     H80275   7.999   1.900   9.809 -3.0255 -3.1440 -0.9823
  582MOL0     H80276   8.142   1.865   9.729  1.1943  1.8873  0.5939
  582MOL0     H80277   8.130   1.808   9.895  1.4257  2.9671 -0.6202
  582MOL0     H80278   8.292   1.566   9.303 -0.3448  0.4334 -4.0933
  582MOL0     H80279   8.491   1.645   9.194 -0.9511  0.6874  0.7962
  582MOL0     H80280   8.673   1.801   9.228  0.3463  0.1231 -0.4271
  582MOL0     H80281   8.694   1.738   9.059  0.2021  2.2531 -2.6232
  582MOL0     H80282   8.871   1.903   9.098  0.8137  0.3728 -2.2883
  582MOL0     H80283   8.752   1.942   8.968  1.2781 -0.7443 -0.0392
  582MOL0     H80284   8.724   2.076   9.235 -0.2554  2.2193  0.8535
  582MOL0     H80285   8.649   2.101   9.070  0.4111 -1.6432 -0.8205
  582MOL0     H80286   8.846   2.192   8.968 -1.6869  3.6572 -0.0587
  582MOL0     H80287   8.946   2.145   9.102 -0.9770  0.2264 -0.0270
  582MOL0     H80288   8.812   2.302   9.256 -2.0080 -0.5789 -1.0611
  582MOL0     H80289   8.927   2.372   9.139  1.7940 -0.6790  0.1263
  582MOL0     H80290   8.614   2.342   9.115 -0.1382 -1.1257 -0.9646
  582MOL0     H80291   8.717   2.377   8.979  1.6299 -1.4260 -0.6060
  582MOL0     H80292   8.631   2.588   9.040  2.2196 -0.5443 -1.9310
  582MOL0     H80293   8.799   2.577   9.100  0.8366 -1.2434 -2.3583
  582MOL0     H80294   8.682   2.659   9.271  1.7918 -0.5694 -0.4548
  582MOL0     H80295   8.706   2.490   9.327  0.5916  1.8587 -0.3087
  582MOL0     H80296   8.371   2.049   9.229 -0.4104  0.3606  0.1376
  582MOL0     H80297   8.169   1.977   9.374 -2.1712 -2.3386  1.6215
  582MOL0     H80298   8.003   1.455   9.526  1.3415 -2.7601  2.0387
  582MOL0     H80299   7.814   1.373   9.639 -0.2195  0.6836  0.8452
  582MOL0     H80300   5.840   2.222   9.803  0.8442 -0.2631  1.3771
  582MOL0     H80301   5.652   2.051   9.730  0.1132 -1.3406  1.3268
  582MOL0     H80302   5.485   1.527   9.816 -0.6758 -1.3817  0.0170
  582MOL0     H80303   5.268   1.429   9.726 -1.1002 -0.0429 -1.5672
  582MOL0     H80304   5.004   1.704   9.555 -0.4982 -1.3630  2.0064
  582MOL0     H80305   5.053   1.652   9.393  1.1866  0.3793  0.6374
  582MOL0     H80306   4.921   1.461   9.382  0.0456  0.2078 -0.6523
  582MOL0     H80307   4.831   1.621   9.399 -0.7082 -0.7984 -1.3642
  582MOL0     H80308   4.728   1.422   9.501 -2.0867  2.2127  0.3924
  582MOL0     H80309   4.880   1.396   9.595  0.9856 -1.2177 -4.1620
  582MOL0     H80310   4.827   1.623   9.705  0.8949  1.0119 -3.5777
  582MOL0     H80311   4.729   1.482   9.749  0.2043  0.5579  0.9117
  582MOL0     H80312   4.447   1.729   9.541 -2.2604  0.5750  2.6885
  582MOL0     H80313   5.243   1.754   9.455 -1.8827 -0.4170  0.3955
  582MOL0     H80314   5.513   1.866   9.424 -1.1413 -1.3031 -0.4269
  582MOL0     H80315   5.365   1.946   9.502 -1.4084 -1.8245  0.7499
  582MOL0     H80316   5.521   1.939   9.583  0.3788 -1.1984  1.7809
  583MOL0     O80317   1.692   8.334   4.422  0.7139  0.3253  0.4760
  583MOL0     C80318   1.592   8.262   4.396 -0.9523 -0.4885  0.4998
  583MOL0     O80319   1.591   8.171   4.290  0.0032  0.4692  0.6469
  583MOL0     C80320   1.695   8.162   4.204  0.3423 -0.1426  0.1318
  583MOL0     C80321   1.827   8.154   4.251  0.1051  0.3432  0.6761
  583MOL0     C80322   1.931   8.139   4.157 -0.6746  0.4073 -0.6394
  583MOL0     C80323   1.911   8.119   4.018 -0.2371 -0.3866 -0.4887
  583MOL0     O80324   2.006   8.117   3.927 -0.2898  0.7826 -0.3141
  583MOL0     C80325   2.119   8.206   3.953 -0.6734 -0.6631 -0.0954
  583MOL0     C80326   2.192   8.222   3.823 -0.6217 -0.8140  0.3497
  583MOL0     C80327   2.320   8.300   3.844  0.5105 -0.4637  0.1827
  583MOL0     C80328   2.381   8.316   3.700  0.5928  0.6377 -0.2954
  583MOL0     C80329   2.527   8.366   3.694  1.1099  0.0788 -0.5593
  583MOL0     C80330   2.540   8.512   3.743 -0.3372  0.9766 -0.8029
  583MOL0     C80331   2.693   8.539   3.744  0.1441 -0.4838  0.1811
  583MOL0     C80332   2.747   8.690   3.744  0.6858  0.3166  0.3996
  583MOL0     N80333   2.891   8.688   3.744  0.1659 -0.6918 -0.4055
  583MOL0     C80334   2.961   8.708   3.855  0.5737 -0.2131  0.4138
  583MOL0     C80335   3.091   8.745   3.826 -0.4058  0.3282  0.5767
  583MOL0     C80336   3.179   8.806   3.925  0.7268 -0.6625  0.2212
  583MOL0     C80337   3.222   8.947   3.878 -0.2735 -0.0081 -0.0384
  583MOL0     C80338   3.275   9.044   3.984  1.3787  0.3260 -0.3261
  583MOL0     C80339   3.382   8.985   4.067 -0.2263 -0.2712 -0.5194
  583MOL0     O80340   3.489   8.926   3.986  0.4450 -0.0559  0.2311
  583MOL0     C80341   3.577   9.019   3.932  0.5760 -0.0723 -0.1368
  583MOL0     C80342   3.595   9.159   3.948  0.7268 -0.3850  0.1167
  583MOL0     C80343   3.702   9.236   3.888 -0.2255  0.5949  0.0320
  583MOL0     C80344   3.702   9.383   3.918 -0.7120 -0.1379 -0.4274
  583MOL0     C80345   3.793   9.169   3.801  0.0141  0.3116  1.8526
  583MOL0     C80346   3.905   9.233   3.737  0.3327  0.0356 -0.0695
  583MOL0     O80347   3.967   9.162   3.635  0.1012 -0.0209 -0.0483
  583MOL0     C80348   4.102   9.171   3.598  0.2198 -0.1456 -0.6813
  583MOL0     C80349   4.152   9.279   3.525 -0.3670 -0.0962  0.7342
  583MOL0     C80350   4.287   9.289   3.496  0.5733 -0.0128 -0.4809
  583MOL0     C80351   4.377   9.186   3.520 -0.0872  0.8347  0.0565
  583MOL0     O80352   4.491   9.204   3.463 -0.8914  0.4143 -0.3454
  583MOL0     C80353   4.594   9.100   3.473  0.2760  0.1256  0.7524
  583MOL0     C80354   4.711   9.145   3.384 -0.1714  0.2204 -0.1706
  583MOL0     C80355   4.776   9.277   3.428  0.2084  0.2063 -0.1407
  583MOL0     C80356   4.879   9.313   3.321  0.8946  0.1720 -0.4588
  583MOL0     C80357   4.970   9.411   3.382  0.0342  0.2137  1.1246
  583MOL0     C80358   5.073   9.459   3.285 -0.5331  0.8332  0.1831
  583MOL0     C80359   5.199   9.515   3.362  0.2804  0.0598  0.6928
  583MOL0     C80360   5.288   9.583   3.254 -0.4662 -0.3508  0.3651
  583MOL0    Cl80361   5.401   9.695   3.323  0.0129 -0.2250 -0.0531
  583MOL0     C80362   4.331   9.084   3.601 -1.0488 -0.0323  0.1708
  583MOL0     C80363   4.197   9.073   3.636 -0.1575 -0.2219 -0.9951
  583MOL0     O80364   3.947   9.343   3.775  0.3015  0.4361  0.9862
  583MOL0     C80365   3.758   9.034   3.770 -0.0735 -0.2861  0.4063
  583MOL0     C80366   3.653   8.967   3.834  0.0271  0.0653  0.1354
  583MOL0     N80367   3.097   8.735   3.687  0.4496  0.0063  0.2191
  583MOL0     N80368   2.979   8.704   3.641  0.0761 -1.4005  0.2167
  583MOL0     C80369   1.776   8.118   3.975 -0.9434  0.2592 -1.0718
  583MOL0     C80370   1.674   8.135   4.066 -0.2586  0.1778 -0.0033
  583MOL0     C80371   1.469   8.286   4.477 -0.3999  0.0862 -0.7946
  583MOL0     C80372   1.433   8.414   4.505  0.6568 -0.4804 -0.2875
  583MOL0     C80373   1.309   8.442   4.574 -1.0590 -0.5595  0.1989
  583MOL0     C80374   1.222   8.335   4.623 -0.3664 -1.0756  0.0256
  583MOL0     O80375   1.112   8.355   4.695 -0.2451  0.3837 -0.8141
  583MOL0     C80376   1.090   8.480   4.746 -0.8173  1.0714 -0.6806
  583MOL0     C80377   1.010   8.566   4.652  0.6427  0.1768  0.1036
  583MOL0     C80378   0.985   8.706   4.698 -0.1357 -0.0646 -0.7745
  583MOL0     C80379   0.906   8.789   4.592  0.2731 -1.0439  0.3164
  583MOL0     C80380   0.878   8.923   4.623  0.1844 -0.6621  0.3395
  583MOL0     C80381   0.846   9.034   4.652 -0.9019  0.4200 -1.2171
  583MOL0     C80382   1.270   8.207   4.586  0.8931 -0.2347 -0.6272
  583MOL0     C80383   1.385   8.180   4.524  0.7317 -0.1552  0.2626
  583MOL0     C80384   1.414   8.041   4.495 -1.7397  0.4106 -0.3661
  583MOL0     H80385   1.848   8.160   4.357 -1.0471 -2.6125  1.1689
  583MOL0     H80386   2.030   8.144   4.200  0.8027  2.2586 -3.9244
  583MOL0     H80387   2.183   8.155   4.025 -0.6418  0.5167  0.7310
  583MOL0     H80388   2.086   8.303   3.991  2.7716  0.5251  0.2228
  583MOL0     H80389   2.209   8.126   3.773  2.1744 -0.7567  1.0386
  583MOL0     H80390   2.130   8.288   3.762 -0.0759 -0.8316 -0.2355
  583MOL0     H80391   2.294   8.397   3.887 -1.1479 -0.6908 -0.2371
  583MOL0     H80392   2.393   8.256   3.913  2.2983  0.0660 -1.2830
  583MOL0     H80393   2.386   8.218   3.653  1.7199  2.3727 -4.2124
  583MOL0     H80394   2.315   8.386   3.648 -0.7743  0.0580  0.6110
  583MOL0     H80395   2.545   8.375   3.586  1.6664  5.6704 -0.2672
  583MOL0     H80396   2.592   8.302   3.754 -0.3095  0.4822  1.5031
  583MOL0     H80397   2.471   8.570   3.680 -0.5040 -0.0685 -1.6041
  583MOL0     H80398   2.502   8.520   3.845  1.2414 -3.0035  0.2586
  583MOL0     H80399   2.730   8.484   3.658  1.3320 -0.3038  0.5570
  583MOL0     H80400   2.727   8.497   3.839 -1.2558 -2.0020  0.0489
  583MOL0     H80401   2.711   8.728   3.648 -1.0876 -0.9388  0.5157
  583MOL0     H80402   2.702   8.747   3.825 -0.3819 -0.1161  0.1362
  583MOL0     H80403   2.931   8.700   3.959 -0.7555  0.0670  0.0698
  583MOL0     H80404   3.269   8.747   3.947 -0.0561 -1.9974 -0.0458
  583MOL0     H80405   3.122   8.824   4.017 -0.3681  0.9086 -0.7324
  583MOL0     H80406   3.285   8.942   3.789  1.2836 -0.7261  1.0745
  583MOL0     H80407   3.139   9.009   3.842  0.8081  2.2556  1.1216
  583MOL0     H80408   3.301   9.143   3.945 -0.5281  1.2293  0.6046
  583MOL0     H80409   3.197   9.069   4.056  1.1940  1.6586 -0.9573
  583MOL0     H80410   3.426   9.058   4.135 -0.0034  2.3703 -3.3071
  583MOL0     H80411   3.337   8.905   4.127 -3.1092  2.2278  0.8533
  583MOL0     H80412   3.532   9.199   4.027  2.1162 -1.4042  1.8387
  583MOL0     H80413   3.619   9.413   3.984  0.6664  1.6101  0.5931
  583MOL0     H80414   3.696   9.448   3.830  0.7290  0.9981  0.2674
  583MOL0     H80415   3.800   9.414   3.955  0.4231 -0.4616 -2.9991
  583MOL0     H80416   4.087   9.360   3.496 -1.0581  0.2295  3.0000
  583MOL0     H80417   4.327   9.371   3.438  2.8289  0.0068  0.9579
  583MOL0     H80418   4.641   9.098   3.572 -0.0766 -1.4126  0.9015
  583MOL0     H80419   4.569   9.000   3.438  1.0144 -0.0688  0.7524
  583MOL0     H80420   4.783   9.063   3.388  1.6283  1.7594  0.9815
  583MOL0     H80421   4.678   9.161   3.281 -0.1926  1.1044 -0.0320
  583MOL0     H80422   4.825   9.264   3.525 -3.2852  3.4789  2.3279
  583MOL0     H80423   4.706   9.359   3.445  1.8031  1.1514  2.4237
  583MOL0     H80424   4.831   9.344   3.227 -0.3021  0.9937  0.3892
  583MOL0     H80425   4.935   9.223   3.294  0.1083 -0.7366  0.8179
  583MOL0     H80426   4.926   9.493   3.439 -1.3531  0.5945 -0.4299
  583MOL0     H80427   5.027   9.366   3.464  1.2778  0.9287  0.6736
  583MOL0     H80428   5.016   9.528   3.222 -0.0852  1.0964  0.0578
  583MOL0     H80429   5.099   9.372   3.225 -0.7097 -0.5199  2.0016
  583MOL0     H80430   5.261   9.439   3.411  1.2721 -0.5428 -1.3362
  583MOL0     H80431   5.159   9.586   3.434 -1.9938 -0.9052  0.4631
  583MOL0     H80432   5.224   9.624   3.175 -4.7135 -1.8138  2.7203
  583MOL0     H80433   5.339   9.503   3.200 -1.6647 -1.6212  1.0474
  583MOL0     H80434   4.401   9.013   3.645  2.8446  4.3158  1.7278
  583MOL0     H80435   4.162   8.992   3.698 -0.3035 -0.2989 -1.1768
  583MOL0     H80436   3.821   8.985   3.696 -0.7468 -2.5346  1.2212
  583MOL0     H80437   3.630   8.866   3.802  0.7351 -0.3295  0.8195
  583MOL0     H80438   1.751   8.116   3.869  0.8420  0.6816 -1.5398
  583MOL0     H80439   1.572   8.134   4.029 -0.0009  0.9820 -0.7775
  583MOL0     H80440   1.485   8.505   4.479 -1.1108  1.1806  1.6705
  583MOL0     H80441   1.283   8.543   4.605 -0.8633 -0.2461 -0.6451
  583MOL0     H80442   1.035   8.460   4.838 -1.4106  4.9815 -0.0310
  583MOL0     H80443   1.182   8.520   4.790 -2.2814  0.7864  3.0055
  583MOL0     H80444   0.911   8.522   4.638  0.8563  0.3226 -2.5314
  583MOL0     H80445   1.056   8.570   4.552  1.6093 -0.8346  0.4868
  583MOL0     H80446   0.939   8.691   4.796  5.6305  1.1939  2.5931
  583MOL0     H80447   1.075   8.763   4.722  0.7434 -2.1973  1.3377
  583MOL0     H80448   0.812   8.742   4.559 -0.5826  1.5559 -1.2670
  583MOL0     H80449   0.975   8.786   4.507  0.6925  2.8416  0.3510
  583MOL0     H80450   0.809   9.131   4.679 -1.6094 -0.3009  0.5934
  583MOL0     H80451   1.209   8.126   4.624  3.3031 -1.5159  0.7916
  583MOL0     H80452   1.521   8.024   4.479 -1.4267  1.1561  0.8227
  583MOL0     H80453   1.384   7.979   4.580 -1.1105  1.2579  0.4942
  583MOL0     H80454   1.344   8.009   4.417 -1.7497  0.4053 -0.3550
  584MOL0     O80455   9.288   4.024   0.662 -0.4614  0.5065 -0.1406
  584MOL0     C80456   9.185   4.030   0.587 -0.9543 -0.4239  1.3732
  584MOL0     O80457   9.171   4.111   0.486  0.1154 -0.8184  0.0104
  584MOL0     C80458   9.278   4.176   0.426  1.1956 -0.0120  0.1279
  584MOL0     C80459   9.410   4.134   0.435  0.3979 -1.1065 -0.2552
  584MOL0     C80460   9.511   4.205   0.366  0.7473  0.3683 -0.2437
  584MOL0     C80461   9.480   4.308   0.280 -0.6255  0.0071 -0.5348
  584MOL0     O80462   9.589   4.363   0.216  0.9118  0.4706  0.0817
  584MOL0     C80463   9.560   4.453   0.111  0.0457 -1.3874  1.2429
  584MOL0     C80464   9.510   4.402  -0.023  0.5078  0.3531  1.5441
  584MOL0     C80465   9.615   4.323  -0.098  0.5374  0.7963  0.9426
  584MOL0     C80466   9.546   4.219  -0.195 -0.4475 -0.6531  0.0261
  584MOL0     C80467   9.641   4.175  -0.305  0.0913  0.2080 -0.3153
  584MOL0     C80468   9.596   4.044  -0.379  0.1930 -1.0506 -1.3047
  584MOL0     C80469   9.672   4.012  -0.506  0.6076  0.2773 -0.3168
  584MOL0     C80470   9.618   3.884  -0.578  0.2857 -0.6991 -0.5992
  584MOL0     N80471   9.710   3.786  -0.620 -0.2322 -0.2517  0.9657
  584MOL0     C80472   9.809   3.724  -0.544  0.3875 -0.3574 -0.1133
  584MOL0     C80473   9.864   3.638  -0.632 -0.7366  1.0291  0.3492
  584MOL0     C80474   9.980   3.550  -0.596 -0.6384 -0.3984 -0.5734
  584MOL0     C80475   9.950   3.420  -0.669 -1.6080 -0.0434 -0.6701
  584MOL0     C80476  10.041   3.302  -0.642  0.2804  0.5731 -0.2206
  584MOL0     C80477  10.174   3.308  -0.737  0.5987  0.1261  1.1086
  584MOL0     O80478  10.248   3.180  -0.723  0.5423 -0.1578  0.5154
  584MOL0     C80479  10.295   3.112  -0.835 -1.0124  0.7479 -0.8229
  584MOL0     C80480  10.287   3.135  -0.972  0.7365  0.0317  0.5620
  584MOL0     C80481  10.324   3.046  -1.069  0.3931  1.2267 -0.1397
  584MOL0     C80482  10.323   3.100  -1.214  0.0344  0.8652  0.7233
  584MOL0     C80483  10.372   2.921  -1.019 -1.3787  0.4196 -0.1284
  584MOL0     C80484  10.437   2.827  -1.117 -0.4283  0.5987  0.3223
  584MOL0     O80485  10.499   2.723  -1.060  0.5471  0.3720 -0.1065
  584MOL0     C80486  10.595   2.664  -1.129 -0.0795  0.0546  1.3414
  584MOL0     C80487  10.724   2.720  -1.110  0.6266 -0.5419 -0.2074
  584MOL0     C80488  10.834   2.639  -1.152  0.2237 -0.3305  0.1137
  584MOL0     C80489  10.818   2.516  -1.206  0.3487  0.3097  0.0550
  584MOL0     O80490  10.931   2.461  -1.255  0.4516  0.2709 -0.2588
  584MOL0     C80491  10.981   2.344  -1.188  0.3684 -0.7420 -0.0278
  584MOL0     C80492  11.132   2.330  -1.206  1.0226  0.1595  0.9333
  584MOL0     C80493  11.200   2.444  -1.136 -0.6660 -0.0370 -0.7994
  584MOL0     C80494  11.346   2.397  -1.096 -0.3060 -0.0787  0.1334
  584MOL0     C80495  11.435   2.514  -1.047  0.4236 -0.0783 -0.4508
  584MOL0     C80496  11.569   2.468  -0.977  0.0693  0.0315  0.5158
  584MOL0     C80497  11.677   2.408  -1.076  0.4821  0.0078  0.4741
  584MOL0     C80498  11.809   2.397  -1.011  0.4066 -0.3551 -0.5168
  584MOL0    Cl80499  11.900   2.548  -1.040 -0.2670 -0.6852 -0.2517
  584MOL0     C80500  10.688   2.463  -1.225 -0.0476  0.9370 -0.0988
  584MOL0     C80501  10.580   2.535  -1.191 -0.1723  0.3754  0.0253
  584MOL0     O80502  10.412   2.833  -1.238 -0.3262  0.2308  0.2667
  584MOL0     C80503  10.372   2.891  -0.884 -0.0420  0.3905  0.1467
  584MOL0     C80504  10.344   2.987  -0.794  0.2729  0.9174 -0.4927
  584MOL0     N80505   9.809   3.656  -0.761  0.0270 -0.2384 -0.1946
  584MOL0     N80506   9.713   3.738  -0.747  0.2543 -1.2675 -0.1763
  584MOL0     C80507   9.348   4.352   0.271  1.1189 -0.2159 -0.1030
  584MOL0     C80508   9.250   4.286   0.337  0.6980 -1.1402 -1.6599
  584MOL0     C80509   9.067   3.948   0.614  0.3614  0.1040 -0.2383
  584MOL0     C80510   8.937   4.003   0.593  0.9751  0.4041  0.0065
  584MOL0     C80511   8.827   3.913   0.607 -0.6016 -0.7255  1.0082
  584MOL0     C80512   8.840   3.789   0.670 -0.3199  0.3619  0.4341
  584MOL0     O80513   8.735   3.709   0.680 -0.3989  0.2641 -0.0335
  584MOL0     C80514   8.630   3.769   0.760 -1.0348 -1.2070  0.2949
  584MOL0     C80515   8.519   3.674   0.804 -0.3940  0.3904  0.0721
  584MOL0     C80516   8.406   3.633   0.705 -0.2731  0.6552  0.5114
  584MOL0     C80517   8.442   3.515   0.613 -0.5762 -0.2041 -0.0994
  584MOL0     C80518   8.332   3.489   0.523  0.2854  0.5173  0.5277
  584MOL0     C80519   8.225   3.476   0.459 -0.0973 -0.3173  0.6805
  584MOL0     C80520   8.963   3.735   0.692 -0.3124 -0.2505  0.9572
  584MOL0     C80521   9.074   3.811   0.667  0.2705 -0.0527 -0.0048
  584MOL0     C80522   9.207   3.741   0.702 -0.1364 -0.2226  0.3257
  584MOL0     H80523   9.440   4.045   0.490  0.8286 -1.4784 -1.0668
  584MOL0     H80524   9.617   4.183   0.371  0.7347  0.4740  0.6781
  584MOL0     H80525   9.652   4.506   0.088 -0.7505 -0.0995  0.9445
  584MOL0     H80526   9.494   4.534   0.143  0.8666 -0.4243  0.5430
  584MOL0     H80527   9.418   4.344  -0.010 -0.7921  1.0818 -2.9115
  584MOL0     H80528   9.482   4.484  -0.090 -0.4712 -1.3214 -0.2134
  584MOL0     H80529   9.680   4.387  -0.158  0.0594  0.3636 -0.0810
  584MOL0     H80530   9.684   4.279  -0.026  3.7315  2.5897 -0.7903
  584MOL0     H80531   9.510   4.143  -0.125 -2.8541  0.4729  0.1116
  584MOL0     H80532   9.457   4.259  -0.244 -1.7291 -3.0427  0.2499
  584MOL0     H80533   9.735   4.143  -0.259 -0.4510 -1.8572 -0.5345
  584MOL0     H80534   9.657   4.252  -0.381  1.4817 -0.1549 -0.4229
  584MOL0     H80535   9.615   3.964  -0.307 -0.5085 -0.7066 -0.7284
  584MOL0     H80536   9.488   4.056  -0.390  0.4288  4.1851 -0.2784
  584MOL0     H80537   9.779   3.997  -0.488 -0.0131 -2.0127  1.9527
  584MOL0     H80538   9.661   4.095  -0.577  2.7421  0.8033 -0.1143
  584MOL0     H80539   9.536   3.844  -0.518 -1.0978  1.0342 -1.2351
  584MOL0     H80540   9.559   3.914  -0.665 -1.8985 -0.8765  0.7501
  584MOL0     H80541   9.844   3.748  -0.445  0.9260  0.8769 -0.5749
  584MOL0     H80542   9.970   3.532  -0.489 -0.0132 -2.9265 -0.8798
  584MOL0     H80543  10.072   3.601  -0.626 -0.7522 -1.3464 -2.7300
  584MOL0     H80544   9.847   3.386  -0.651 -1.7179  0.3768 -0.4903
  584MOL0     H80545   9.965   3.438  -0.776 -0.9382 -1.8400 -0.9128
  584MOL0     H80546  10.066   3.291  -0.536 -1.6292 -1.7150  0.0643
  584MOL0     H80547   9.992   3.206  -0.658 -0.4480  0.9386 -0.2193
  584MOL0     H80548  10.144   3.323  -0.841 -2.0023 -1.0534  1.6083
  584MOL0     H80549  10.235   3.394  -0.707  1.6544  0.1685 -1.0032
  584MOL0     H80550  10.238   3.226  -1.003  0.6932 -0.8553 -2.2520
  584MOL0     H80551  10.424   3.091  -1.254 -0.5598  0.6068 -0.7927
  584MOL0     H80552  10.305   3.207  -1.218  1.1182  1.0237 -0.6650
  584MOL0     H80553  10.249   3.043  -1.272 -0.0178  1.4670  0.2001
  584MOL0     H80554  10.749   2.805  -1.047  1.1041 -0.4925 -0.4573
  584MOL0     H80555  10.938   2.666  -1.137 -0.5091  3.9652 -1.1822
  584MOL0     H80556  10.960   2.338  -1.080  2.3475  0.5788  0.4884
  584MOL0     H80557  10.934   2.257  -1.233  1.1069 -1.8935  1.3285
  584MOL0     H80558  11.171   2.235  -1.170 -0.3665 -0.9858 -0.4732
  584MOL0     H80559  11.158   2.334  -1.312  0.4011 -0.7462  0.7363
  584MOL0     H80560  11.144   2.472  -1.046 -1.6831 -3.3628 -0.2660
  584MOL0     H80561  11.213   2.534  -1.197 -0.3573  0.5378  0.0950
  584MOL0     H80562  11.404   2.376  -1.187  3.2714 -0.3173  2.2738
  584MOL0     H80563  11.351   2.309  -1.031  0.6159  0.4483  0.7931
  584MOL0     H80564  11.448   2.576  -1.137 -0.4746 -3.4150 -3.0905
  584MOL0     H80565  11.377   2.577  -0.979  1.7805  2.5032 -1.5409
  584MOL0     H80566  11.542   2.388  -0.907  2.1411 -0.7167  0.5071
  584MOL0     H80567  11.620   2.544  -0.919  1.2333  1.7578 -2.5378
  584MOL0     H80568  11.679   2.473  -1.164  0.3390 -1.8544 -0.9594
  584MOL0     H80569  11.634   2.310  -1.102 -2.1796  1.6316 -1.8940
  584MOL0     H80570  11.868   2.312  -1.046  0.2291 -1.4931  1.7572
  584MOL0     H80571  11.805   2.375  -0.904  2.2679 -2.0029 -0.7411
  584MOL0     H80572  10.679   2.364  -1.268  1.0234  0.4984  0.6340
  584MOL0     H80573  10.489   2.478  -1.204  1.6321 -3.5746  2.7727
  584MOL0     H80574  10.411   2.797  -0.845 -1.2011 -0.6304 -1.0261
  584MOL0     H80575  10.355   2.959  -0.690 -0.9673  0.2112 -0.5320
  584MOL0     H80576   9.320   4.441   0.215  1.1472  1.0049  1.7317
  584MOL0     H80577   9.144   4.308   0.326 -0.0663 -3.5544 -0.0459
  584MOL0     H80578   8.926   4.103   0.552  0.1307  0.8367  1.2180
  584MOL0     H80579   8.732   3.959   0.580  1.6427  2.9206 -1.6130
  584MOL0     H80580   8.670   3.803   0.856 -0.4118 -0.7964 -0.1025
  584MOL0     H80581   8.597   3.864   0.716  3.1893  0.4955  0.4093
  584MOL0     H80582   8.477   3.718   0.894 -1.1733  1.2237 -0.6787
  584MOL0     H80583   8.569   3.585   0.844  0.1418  0.0240 -1.3537
  584MOL0     H80584   8.313   3.598   0.750  0.6322  1.1334  2.8698
  584MOL0     H80585   8.381   3.723   0.647 -1.4020  0.6286  0.9256
  584MOL0     H80586   8.467   3.429   0.677  0.2335 -0.4288 -0.7058
  584MOL0     H80587   8.533   3.538   0.557 -0.4064  0.0136  0.2625
  584MOL0     H80588   8.143   3.474   0.389  0.3908 -2.3751  0.1040
  584MOL0     H80589   8.971   3.634   0.730  1.8648 -1.1070 -1.4309
  584MOL0     H80590   9.297   3.769   0.647  0.4357 -2.9523 -0.2928
  584MOL0     H80591   9.214   3.776   0.805 -0.3832  1.1311 -0.0934
  584MOL0     H80592   9.200   3.632   0.696 -1.5923 -0.2573  1.9352
  585MOL0     O80593   7.961  10.361   5.127 -0.0009  0.1598  0.6206
  585MOL0     C80594   7.975  10.349   5.245  0.2260  0.7762  0.0467
  585MOL0     O80595   8.089  10.358   5.318  0.2009 -0.5708  0.9866
  585MOL0     C80596   8.215  10.388   5.269  0.1249  0.1888  0.4552
  585MOL0     C80597   8.322  10.297   5.307  0.1866  0.6538 -0.4966
  585MOL0     C80598   8.450  10.325   5.265  0.4160  0.5233  0.8086
  585MOL0     C80599   8.480  10.438   5.189  0.0928 -0.6041 -0.9997
  585MOL0     O80600   8.604  10.468   5.146 -0.2050  0.4024  0.0863
  585MOL0     C80601   8.692  10.357   5.114 -0.3670  0.7158  1.1140
  585MOL0     C80602   8.802  10.413   5.019 -0.3626 -0.6275  0.9615
  585MOL0     C80603   8.923  10.308   4.992  0.0598 -0.1202 -0.5126
  585MOL0     C80604   8.873  10.207   4.895 -0.6442 -0.2724  0.0353
  585MOL0     C80605   8.996  10.120   4.847 -0.3898  0.7545  0.0700
  585MOL0     C80606   8.946  10.010   4.751  0.1429 -0.1223 -0.2739
  585MOL0     C80607   9.035   9.890   4.710  0.0953  0.1481  0.0365
  585MOL0     C80608   9.149   9.927   4.609  0.5048  0.1274  0.2233
  585MOL0     N80609   9.260   9.993   4.674  0.1973 -0.0052 -0.1389
  585MOL0     C80610   9.322  10.114   4.639  1.1403  0.4587  1.0533
  585MOL0     C80611   9.417  10.136   4.733  1.0267  0.1881  0.8010
  585MOL0     C80612   9.501  10.257   4.741  0.3672 -0.3863 -0.3694
  585MOL0     C80613   9.497  10.315   4.887 -0.4892  0.6007  0.5133
  585MOL0     C80614   9.567  10.455   4.910 -0.5841  0.2578 -0.9034
  585MOL0     C80615   9.712  10.453   4.855 -1.2030 -0.1111  0.7338
  585MOL0     O80616   9.710  10.501   4.718 -0.5038 -0.0907 -0.6553
  585MOL0     C80617   9.812  10.587   4.680  0.9603  0.3444  0.9224
  585MOL0     C80618   9.777  10.706   4.622 -0.6683  0.1243 -0.2437
  585MOL0     C80619   9.868  10.810   4.586 -0.2103  0.0009  0.1195
  585MOL0     C80620   9.811  10.934   4.515 -1.0773 -0.1935 -0.2861
  585MOL0     C80621  10.005  10.798   4.630  0.7221  0.2889 -0.1497
  585MOL0     C80622  10.108  10.899   4.608 -0.4516 -0.0148 -0.7783
  585MOL0     O80623  10.231  10.860   4.658  0.1093  0.2199 -0.3563
  585MOL0     C80624  10.350  10.922   4.622 -1.1431 -0.7847  0.9276
  585MOL0     C80625  10.370  11.050   4.569 -0.0546 -0.3607 -0.8591
  585MOL0     C80626  10.507  11.101   4.550  0.5613  0.0754 -0.3519
  585MOL0     C80627  10.617  11.034   4.589  0.4919  0.5577  0.1735
  585MOL0     O80628  10.744  11.095   4.566  0.6667  0.2196  0.1151
  585MOL0     C80629  10.839  10.994   4.528  0.1396 -0.1914 -0.3041
  585MOL0     C80630  10.958  11.062   4.468 -0.2358 -1.0094 -0.1550
  585MOL0     C80631  10.922  11.112   4.328  0.2676  0.2848 -1.3048
  585MOL0     C80632  11.045  11.156   4.253  0.7369  0.3833 -0.2457
  585MOL0     C80633  11.111  11.037   4.188  0.2318 -0.0237  0.0089
  585MOL0     C80634  11.211  11.059   4.069  0.0904 -0.3458 -0.5128
  585MOL0     C80635  11.260  10.926   4.010 -0.1390 -0.6394 -0.2834
  585MOL0     C80636  11.405  10.898   4.071  1.1784  0.7232  0.2299
  585MOL0    Cl80637  11.398  10.860   4.246 -0.0873 -0.3252 -0.2078
  585MOL0     C80638  10.590  10.913   4.656  0.3800  0.3247  0.7682
  585MOL0     C80639  10.463  10.850   4.666 -0.3905  0.1503 -0.3812
  585MOL0     O80640  10.086  11.006   4.554  0.2523 -0.0837  1.0718
  585MOL0     C80641  10.039  10.671   4.699 -0.1644 -1.1150  0.1077
  585MOL0     C80642   9.947  10.569   4.714 -0.6370 -0.8757  0.2513
  585MOL0     N80643   9.419  10.035   4.831 -0.2005 -0.6774  0.4084
  585MOL0     N80644   9.327   9.950   4.786 -0.1715  0.5733 -0.4213
  585MOL0     C80645   8.377  10.526   5.159  0.5192 -0.7718  0.4248
  585MOL0     C80646   8.249  10.495   5.182 -0.1421 -0.1482 -0.2410
  585MOL0     C80647   7.852  10.302   5.322  0.4922 -0.1728  0.1526
  585MOL0     C80648   7.873  10.215   5.424 -0.0567  0.4120 -0.6165
  585MOL0     C80649   7.753  10.152   5.485 -0.0652 -1.0623 -0.5285
  585MOL0     C80650   7.626  10.195   5.452  0.3160  0.3613  0.6545
  585MOL0     O80651   7.523  10.143   5.529  0.4092  0.5382 -0.0168
  585MOL0     C80652   7.391  10.203   5.523  0.4774 -0.9990 -0.3046
  585MOL0     C80653   7.317  10.156   5.650  0.1910  0.1225 -0.3599
  585MOL0     C80654   7.166  10.186   5.649  1.0368 -0.3312 -0.1362
  585MOL0     C80655   7.102  10.150   5.788 -0.3847  1.1123 -0.0992
  585MOL0     C80656   6.976  10.212   5.794 -0.4386  0.2876  0.5786
  585MOL0     C80657   6.870  10.270   5.796 -0.9046 -0.0952 -0.1199
  585MOL0     C80658   7.606  10.283   5.347  0.0461  0.0315 -0.9136
  585MOL0     C80659   7.719  10.333   5.280  0.6659 -0.4593 -0.3612
  585MOL0     C80660   7.681  10.418   5.166  0.1351 -0.0013  1.3830
  585MOL0     H80661   8.298  10.208   5.364 -0.5291  1.1707  0.0275
  585MOL0     H80662   8.527  10.257   5.299  0.6836  0.4608  0.0927
  585MOL0     H80663   8.643  10.271   5.068  0.3291  0.3866  0.9747
  585MOL0     H80664   8.747  10.313   5.197  0.9803 -0.7559 -0.4601
  585MOL0     H80665   8.760  10.451   4.926 -1.6033 -1.0677  1.3201
  585MOL0     H80666   8.848  10.494   5.078  2.1150 -1.3047  0.0748
  585MOL0     H80667   9.000  10.364   4.939 -1.6587  1.9595 -0.9744
  585MOL0     H80668   8.970  10.267   5.081 -1.3538  1.3465  0.9771
  585MOL0     H80669   8.801  10.146   4.950 -1.6951  1.0064  0.1294
  585MOL0     H80670   8.803  10.223   4.812 -3.1247 -1.6222  1.7364
  585MOL0     H80671   9.041  10.074   4.935  0.6573 -0.4376 -1.0389
  585MOL0     H80672   9.079  10.180   4.807  1.6928 -0.7291  1.9249
  585MOL0     H80673   8.865   9.967   4.811  1.3692 -1.2130  0.6456
  585MOL0     H80674   8.893  10.053   4.665 -1.2321 -0.8006  0.1969
  585MOL0     H80675   8.980   9.811   4.659 -0.1684  0.6281 -0.4296
  585MOL0     H80676   9.067   9.838   4.801 -0.8494 -2.9248 -1.2545
  585MOL0     H80677   9.181   9.833   4.563 -2.0511  0.5075 -2.6077
  585MOL0     H80678   9.101   9.988   4.533  2.2456  1.7823  0.3678
  585MOL0     H80679   9.300  10.181   4.557 -1.7471 -0.0086  1.3384
  585MOL0     H80680   9.468  10.338   4.675 -1.6474  0.4233  1.4832
  585MOL0     H80681   9.602  10.224   4.719 -0.2278 -1.6303 -1.3252
  585MOL0     H80682   9.394  10.325   4.922 -1.0277 -1.5168 -0.2880
  585MOL0     H80683   9.544  10.233   4.943 -1.9648 -2.0109 -1.8635
  585MOL0     H80684   9.504  10.532   4.864 -0.2348  0.2930 -1.3277
  585MOL0     H80685   9.575  10.469   5.019  3.0018  0.7011 -1.1272
  585MOL0     H80686   9.777  10.519   4.913  0.5654 -0.8354 -0.3200
  585MOL0     H80687   9.741  10.348   4.861 -1.3911 -0.3541 -1.6759
  585MOL0     H80688   9.674  10.732   4.597 -0.3501  0.6357 -1.0673
  585MOL0     H80689   9.794  11.015   4.587 -0.6745 -2.5051  2.6010
  585MOL0     H80690   9.707  10.917   4.485 -1.2826  1.3812 -0.5611
  585MOL0     H80691   9.865  10.962   4.424 -0.8820 -0.3092 -0.2047
  585MOL0     H80692  10.279  11.106   4.551 -1.2956 -1.9557  0.1307
  585MOL0     H80693  10.510  11.200   4.507 -3.2480  0.3185 -0.4379
  585MOL0     H80694  10.875  10.943   4.617  3.3752 -1.6703 -2.2815
  585MOL0     H80695  10.804  10.924   4.452  0.3860 -1.6734  0.9219
  585MOL0     H80696  10.999  11.137   4.537 -0.9978 -1.1780  0.4907
  585MOL0     H80697  11.036  10.986   4.467 -0.0120 -0.7842 -0.0150
  585MOL0     H80698  10.854  11.197   4.336  3.9433  3.4598 -1.0055
  585MOL0     H80699  10.868  11.032   4.276 -1.6509  1.4973 -1.2593
  585MOL0     H80700  11.123  11.204   4.313  2.9901 -0.3572 -2.3853
  585MOL0     H80701  11.011  11.222   4.173 -2.1169  0.5917  1.0139
  585MOL0     H80702  11.166  10.990   4.269 -0.1882  0.8493  0.8215
  585MOL0     H80703  11.040  10.971   4.136  0.8705  0.6034 -1.7578
  585MOL0     H80704  11.300  11.115   4.099  1.3971 -2.0634 -1.0829
  585MOL0     H80705  11.171  11.111   3.981 -0.8592 -0.8296 -0.3760
  585MOL0     H80706  11.258  10.934   3.901  0.1590  1.5094 -0.1560
  585MOL0     H80707  11.195  10.846   4.048 -0.9074 -0.4969 -1.2906
  585MOL0     H80708  11.465  10.986   4.048 -0.2082  2.0477  1.4937
  585MOL0     H80709  11.457  10.813   4.026 -0.0761  1.2176 -2.3090
  585MOL0     H80710  10.678  10.874   4.708  0.4142  0.0660  0.5165
  585MOL0     H80711  10.443  10.749   4.699 -1.5382  0.4636 -0.0467
  585MOL0     H80712  10.142  10.649   4.724  0.2910 -0.2071 -0.9139
  585MOL0     H80713   9.996  10.479   4.750 -2.3513 -1.8533  0.2476
  585MOL0     H80714   8.403  10.618   5.107  3.2175 -0.4851  2.0428
  585MOL0     H80715   8.158  10.551   5.165 -0.0926  0.0406  0.1079
  585MOL0     H80716   7.969  10.177   5.456 -0.9701  0.6904  2.9321
  585MOL0     H80717   7.754  10.089   5.573 -0.9748 -0.3788 -0.0101
  585MOL0     H80718   7.412  10.310   5.526  0.0023 -0.9012 -0.3530
  585MOL0     H80719   7.336  10.183   5.431  0.2139  2.1767 -0.9692
  585MOL0     H80720   7.368  10.208   5.731  0.3013  0.2308 -0.4972
  585MOL0     H80721   7.327  10.049   5.669  1.5921 -0.0778 -1.9761
  585MOL0     H80722   7.151  10.292   5.627 -0.9842 -0.9881 -2.2526
  585MOL0     H80723   7.123  10.121   5.572  0.2803 -0.4538  0.3831
  585MOL0     H80724   7.174  10.167   5.868 -0.4120  0.1969  0.1262
  585MOL0     H80725   7.084  10.042   5.786  1.4343  0.5712  3.8874
  585MOL0     H80726   6.776  10.321   5.808 -2.5863 -2.8246 -0.7076
  585MOL0     H80727   7.506  10.322   5.327  0.0317 -0.1286 -1.1447
  585MOL0     H80728   7.582  10.456   5.192  0.2001  0.4686  0.9583
  585MOL0     H80729   7.745  10.506   5.153  0.4744  0.0895  3.3082
  585MOL0     H80730   7.689  10.377   5.065  0.2321  3.6298 -0.2247
  586MOL0     O80731   8.691   6.368   5.875  0.4789  0.0445  0.0101
  586MOL0     C80732   8.664   6.447   5.777 -0.5986  0.5790  0.3828
  586MOL0     O80733   8.739   6.558   5.743 -0.0177  0.0270 -0.0162
  586MOL0     C80734   8.850   6.596   5.821 -0.0335 -0.3191 -0.5329
  586MOL0     C80735   8.864   6.739   5.851  0.9473  0.7170 -0.6793
  586MOL0     C80736   8.967   6.786   5.931 -0.1088 -0.5363  0.5259
  586MOL0     C80737   9.068   6.698   5.983 -0.3942 -0.3239  0.1968
  586MOL0     O80738   9.183   6.738   6.047 -0.1892  0.2059  0.5514
  586MOL0     C80739   9.237   6.874   6.038 -0.0938  0.2016  0.1344
  586MOL0     C80740   9.305   6.911   5.912  0.3564 -1.1601  0.1095
  586MOL0     C80741   9.401   6.801   5.866 -0.8176  0.3622 -0.4711
  586MOL0     C80742   9.482   6.848   5.748  0.1406 -0.3058 -0.4984
  586MOL0     C80743   9.594   6.745   5.711 -0.0659  0.4069 -0.4477
  586MOL0     C80744   9.716   6.789   5.631  0.4771  0.6707  0.5015
  586MOL0     C80745   9.681   6.841   5.493  0.9413 -0.6796  0.2248
  586MOL0     C80746   9.767   6.959   5.449  0.3646 -0.0850 -0.2002
  586MOL0     N80747   9.900   6.926   5.453 -0.6277 -0.2516  0.4670
  586MOL0     C80748  10.009   6.994   5.503 -0.1964  0.0209 -0.4095
  586MOL0     C80749  10.121   6.917   5.479  0.6280  1.2326  0.2955
  586MOL0     C80750  10.260   6.937   5.505 -0.0439  0.2637  0.0771
  586MOL0     C80751  10.337   6.834   5.580  0.7833 -0.3668 -0.3277
  586MOL0     C80752  10.449   6.894   5.668  0.4118 -0.5443 -0.5496
  586MOL0     C80753  10.526   6.790   5.744 -0.1874  0.3261 -0.5618
  586MOL0     O80754  10.442   6.713   5.839 -0.3504 -0.7557 -0.4099
  586MOL0     C80755  10.507   6.696   5.960 -0.4488  0.5842  0.2972
  586MOL0     C80756  10.540   6.801   6.038  0.7032 -0.6805  0.5601
  586MOL0     C80757  10.592   6.780   6.169 -0.1472 -0.4894  0.4669
  586MOL0     C80758  10.644   6.902   6.250 -0.0023  0.3134  0.5616
  586MOL0     C80759  10.621   6.651   6.218  0.2942  0.2301 -0.0094
  586MOL0     C80760  10.676   6.621   6.356  0.4422  0.9049 -0.1733
  586MOL0     O80761  10.646   6.706   6.451  0.6802  0.6759 -0.5526
  586MOL0     C80762  10.684   6.674   6.583  0.1005 -0.2080  0.3686
  586MOL0     C80763  10.592   6.639   6.687  0.4747 -0.4134 -0.1676
  586MOL0     C80764  10.640   6.607   6.814 -0.5364  0.2638  0.0797
  586MOL0     C80765  10.774   6.603   6.844  0.3023 -1.8567  0.2632
  586MOL0     O80766  10.805   6.549   6.966 -0.2525 -0.3155  0.0048
  586MOL0     C80767  10.938   6.551   7.022 -0.5632 -0.3517  0.2924
  586MOL0     C80768  11.021   6.690   7.022  0.9805 -0.1079 -1.4472
  586MOL0     C80769  11.154   6.671   7.096  0.2477  1.2363 -0.4843
  586MOL0     C80770  11.230   6.802   7.089 -0.5896 -0.1497 -1.5211
  586MOL0     C80771  11.359   6.816   7.179  0.3720 -0.0569 -0.0182
  586MOL0     C80772  11.467   6.726   7.134 -0.1669 -0.2685 -0.2758
  586MOL0     C80773  11.585   6.715   7.236  1.1771 -1.1178  0.2568
  586MOL0     C80774  11.673   6.597   7.209  0.0968  0.1015  0.0673
  586MOL0    Cl80775  11.820   6.645   7.304  0.3360  0.1565 -0.2552
  586MOL0     C80776  10.864   6.634   6.737  0.0658  0.1635  0.8199
  586MOL0     C80777  10.820   6.668   6.608 -0.4944 -0.4086 -0.3432
  586MOL0     O80778  10.761   6.531   6.362  0.0537 -0.1735 -0.0590
  586MOL0     C80779  10.595   6.542   6.135  0.0903 -0.6051  0.2631
  586MOL0     C80780  10.532   6.563   6.010  0.9093 -0.7243 -0.4128
  586MOL0     N80781  10.080   6.806   5.414  0.6775  0.1061  0.6015
  586MOL0     N80782   9.948   6.810   5.400  0.2686 -0.0476  0.4018
  586MOL0     C80783   9.060   6.567   5.949  0.4196  0.0465 -0.0118
  586MOL0     C80784   8.949   6.515   5.871  1.2693  0.7275  0.0863
  586MOL0     C80785   8.535   6.428   5.699  0.4388 -0.3768  0.4781
  586MOL0     C80786   8.505   6.531   5.604 -0.2422 -0.3445 -0.4407
  586MOL0     C80787   8.387   6.521   5.529  0.5854 -0.5290  0.6782
  586MOL0     C80788   8.291   6.425   5.549 -0.9121  1.1508  0.2383
  586MOL0     O80789   8.160   6.441   5.500 -0.2327 -0.0262  0.0150
  586MOL0     C80790   8.140   6.415   5.356  0.3800 -0.5034 -0.5147
  586MOL0     C80791   7.990   6.404   5.318 -1.1597  0.0845 -0.1802
  586MOL0     C80792   7.904   6.523   5.336  0.0220  0.4669  0.5815
  586MOL0     C80793   7.950   6.642   5.245  0.0612 -0.1112 -0.3896
  586MOL0     C80794   8.041   6.743   5.311  0.7053 -0.6312  0.7857
  586MOL0     C80795   8.119   6.826   5.344  0.5560 -0.3329 -0.1603
  586MOL0     C80796   8.322   6.323   5.647 -0.5036 -0.3026  0.3283
  586MOL0     C80797   8.443   6.325   5.717  0.1363 -0.2684  0.1011
  586MOL0     C80798   8.470   6.203   5.802  0.3822  0.2391 -0.3590
  586MOL0     H80799   8.791   6.807   5.810 -2.0712 -2.1142 -0.3877
  586MOL0     H80800   8.974   6.892   5.952 -0.3012 -0.9803  3.1591
  586MOL0     H80801   9.302   6.883   6.125 -0.0768  1.5415  0.0130
  586MOL0     H80802   9.159   6.948   6.061 -0.4786 -0.4718  1.0419
  586MOL0     H80803   9.240   6.955   5.836  0.8333 -2.0434 -0.8364
  586MOL0     H80804   9.372   6.994   5.937  1.9466 -2.6097  0.8908
  586MOL0     H80805   9.460   6.781   5.957  0.4880  0.4004 -1.2862
  586MOL0     H80806   9.342   6.714   5.838  2.1803 -2.0168  0.1242
  586MOL0     H80807   9.410   6.858   5.667  0.4141 -1.5253 -0.9063
  586MOL0     H80808   9.533   6.942   5.771 -0.3865 -0.6351  2.3397
  586MOL0     H80809   9.543   6.660   5.665 -0.7459  1.3972 -1.5586
  586MOL0     H80810   9.631   6.708   5.807  0.3504 -0.0659 -0.7810
  586MOL0     H80811   9.764   6.878   5.674  0.4023  0.9723 -0.0295
  586MOL0     H80812   9.790   6.709   5.627 -1.9765 -1.7587  0.5677
  586MOL0     H80813   9.575   6.866   5.489  0.8196 -1.2689 -2.6005
  586MOL0     H80814   9.688   6.760   5.419  2.0030 -2.2335  1.9257
  586MOL0     H80815   9.746   7.007   5.353  0.0009  1.4955  0.6479
  586MOL0     H80816   9.758   7.034   5.528 -0.8383 -0.6837  0.2594
  586MOL0     H80817   9.992   7.088   5.555 -1.5475 -0.3402 -0.1851
  586MOL0     H80818  10.263   7.020   5.576  1.4832  0.5298 -0.2683
  586MOL0     H80819  10.315   6.973   5.417  0.2199  2.7197  1.1475
  586MOL0     H80820  10.277   6.783   5.657  2.4961 -1.3369  0.4125
  586MOL0     H80821  10.379   6.748   5.528  3.2142 -0.3653  1.4771
  586MOL0     H80822  10.516   6.956   5.608 -0.1471  0.1682 -0.4597
  586MOL0     H80823  10.408   6.959   5.745  0.3406 -0.4483 -0.6668
  586MOL0     H80824  10.581   6.721   5.678  1.7540  2.5338 -1.4076
  586MOL0     H80825  10.602   6.845   5.801  0.2273 -2.5510  1.8895
  586MOL0     H80826  10.513   6.905   6.018  0.5414 -0.3190  2.4625
  586MOL0     H80827  10.609   6.998   6.210  2.0618  1.0608  0.4685
  586MOL0     H80828  10.752   6.896   6.241 -0.2842 -1.6478 -3.6476
  586MOL0     H80829  10.607   6.900   6.353  1.8665  1.7040  1.3162
  586MOL0     H80830  10.485   6.629   6.671  0.1187  0.4986  1.4448
  586MOL0     H80831  10.570   6.598   6.896 -0.5002  3.5891  0.6474
  586MOL0     H80832  10.923   6.511   7.123 -0.1654 -0.8666  0.1489
  586MOL0     H80833  11.001   6.476   6.974  0.7018  0.0536  1.2476
  586MOL0     H80834  11.045   6.735   6.925 -0.3603  3.3780 -0.3226
  586MOL0     H80835  10.957   6.753   7.084  1.5773  0.2520 -1.1867
  586MOL0     H80836  11.208   6.585   7.054  1.1697 -0.2464  3.3196
  586MOL0     H80837  11.146   6.639   7.200 -0.3618  0.1614 -0.8376
  586MOL0     H80838  11.165   6.887   7.113  0.2245  0.3393 -0.9823
  586MOL0     H80839  11.262   6.840   6.991 -0.4007  2.3192 -0.5799
  586MOL0     H80840  11.393   6.919   7.168 -0.4650 -0.0339 -3.1282
  586MOL0     H80841  11.335   6.801   7.285  0.0283  2.4757  0.3152
  586MOL0     H80842  11.512   6.760   7.040 -2.7476  0.1888 -1.4246
  586MOL0     H80843  11.429   6.625   7.115  4.4803 -2.3292 -0.1368
  586MOL0     H80844  11.555   6.707   7.341 -1.0563 -2.3671 -0.4087
  586MOL0     H80845  11.630   6.814   7.230 -0.0644 -0.5215  0.4173
  586MOL0     H80846  11.708   6.598   7.106  2.3517 -0.1105  0.7680
  586MOL0     H80847  11.638   6.500   7.246 -0.2193  0.2404  0.1349
  586MOL0     H80848  10.971   6.616   6.747  0.8955  2.9769 -1.6876
  586MOL0     H80849  10.894   6.684   6.531  0.2472  1.7094  0.7479
  586MOL0     H80850  10.604   6.443   6.178  4.1624 -0.6096 -0.2177
  586MOL0     H80851  10.504   6.479   5.947 -2.3178  1.8555 -2.7603
  586MOL0     H80852   9.137   6.502   5.990  0.2628 -1.8058 -2.4201
  586MOL0     H80853   8.959   6.410   5.846 -1.6528  0.7713 -1.6285
  586MOL0     H80854   8.577   6.611   5.597  1.7408 -1.7332  2.4916
  586MOL0     H80855   8.357   6.602   5.464  2.4834 -0.9113 -0.7734
  586MOL0     H80856   8.188   6.494   5.297  1.9655  1.0943  2.6627
  586MOL0     H80857   8.196   6.325   5.327  1.5370  0.3977 -1.1553
  586MOL0     H80858   7.960   6.320   5.382  2.9561  0.4327  2.6052
  586MOL0     H80859   7.989   6.384   5.210 -0.7660  3.5194 -0.9278
  586MOL0     H80860   7.799   6.493   5.326 -0.0096 -0.4387  2.9453
  586MOL0     H80861   7.903   6.544   5.443  2.3827 -1.3712  1.0535
  586MOL0     H80862   7.868   6.690   5.192  0.0466  0.4903  0.1685
  586MOL0     H80863   8.008   6.610   5.158  1.5299  3.2694 -0.7728
  586MOL0     H80864   8.196   6.885   5.390 -1.6092  2.7026 -0.1225
  586MOL0     H80865   8.245   6.251   5.673 -1.8894  1.0041 -0.0197
  586MOL0     H80866   8.433   6.219   5.904  0.7168  0.7005 -0.3072
  586MOL0     H80867   8.420   6.121   5.750  0.8781 -0.4017  0.1545
  586MOL0     H80868   8.575   6.175   5.793 -0.2037 -1.9298 -0.9998
  587MOL0     O80869   6.913   0.574   4.870  0.2038  0.5727 -0.3377
  587MOL0     C80870   7.018   0.546   4.807  0.2892  0.0332 -0.0550
  587MOL0     O80871   7.137   0.603   4.831 -0.3825 -0.0146 -0.3331
  587MOL0     C80872   7.150   0.667   4.954 -0.6443 -0.7762 -0.4448
  587MOL0     C80873   7.160   0.808   4.960 -0.0630 -0.6318  0.8425
  587MOL0     C80874   7.174   0.873   5.087 -0.2971  0.2730 -0.0241
  587MOL0     C80875   7.193   0.792   5.204  0.4861 -0.0185 -0.6843
  587MOL0     O80876   7.209   0.848   5.332  0.4109 -0.2265  0.8215
  587MOL0     C80877   7.248   0.985   5.340  0.0880 -0.7847  0.0835
  587MOL0     C80878   7.286   1.020   5.486 -0.1611 -0.8714  1.0200
  587MOL0     C80879   7.312   1.174   5.511 -0.8610 -0.0477  0.4192
  587MOL0     C80880   7.187   1.248   5.543 -0.1838  0.8700  0.3922
  587MOL0     C80881   7.226   1.387   5.590  0.1240  0.9510 -0.1567
  587MOL0     C80882   7.099   1.461   5.621 -0.3343  0.3083  0.6318
  587MOL0     C80883   7.120   1.610   5.672  0.2595  1.1670 -1.1955
  587MOL0     C80884   6.978   1.664   5.694 -0.3181  0.4331 -0.0391
  587MOL0     N80885   6.979   1.805   5.742 -0.5517  1.1197 -0.0897
  587MOL0     C80886   7.041   1.847   5.860 -0.1667 -0.0635 -0.6040
  587MOL0     C80887   7.029   1.982   5.858  0.9985 -1.0738  0.0143
  587MOL0     C80888   7.069   2.079   5.967 -0.2283 -0.3152 -0.4913
  587MOL0     C80889   7.162   2.195   5.921  0.4653  0.0922 -0.7519
  587MOL0     C80890   7.159   2.306   6.028 -0.4519  0.3689  0.1161
  587MOL0     C80891   7.230   2.435   5.982 -0.3957  0.1828 -1.2820
  587MOL0     O80892   7.376   2.424   6.013  0.0628  0.0409  0.0049
  587MOL0     C80893   7.466   2.520   5.978 -0.2051  1.1007  0.3883
  587MOL0     C80894   7.591   2.524   6.040  0.3271  0.5860 -0.6477
  587MOL0     C80895   7.687   2.627   6.028  0.5811 -0.2405  0.1065
  587MOL0     C80896   7.811   2.610   6.117  0.9801  0.6065  0.4885
  587MOL0     C80897   7.649   2.739   5.946 -0.3152  0.4383 -0.2985
  587MOL0     C80898   7.736   2.858   5.931 -0.3727  0.4889 -0.1043
  587MOL0     O80899   7.704   2.921   5.814 -1.1382  0.0951  0.0035
  587MOL0     C80900   7.776   3.030   5.775 -0.7183 -0.4232  0.2820
  587MOL0     C80901   7.913   3.024   5.727  0.5731  0.6056 -0.1198
  587MOL0     C80902   7.983   3.130   5.679 -0.3472  0.6322 -0.8680
  587MOL0     C80903   7.918   3.260   5.675 -0.1164 -0.3340  0.2057
  587MOL0     O80904   7.990   3.365   5.622  0.3213 -0.1643  0.5909
  587MOL0     C80905   7.911   3.455   5.540  0.2385  0.2031 -0.0108
  587MOL0     C80906   8.011   3.548   5.466  0.2548 -0.4580 -0.6954
  587MOL0     C80907   8.095   3.459   5.366  0.2604 -0.6805  0.8224
  587MOL0     C80908   8.109   3.529   5.218  0.0461 -0.0845 -0.1232
  587MOL0     C80909   8.167   3.417   5.131 -0.4365 -0.3375 -1.0676
  587MOL0     C80910   8.213   3.476   5.002  0.1404 -0.0332  0.2459
  587MOL0     C80911   8.301   3.378   4.916  0.1059  1.0857  0.1185
  587MOL0     C80912   8.441   3.373   4.932 -0.5054  0.3243  1.1046
  587MOL0    Cl80913   8.490   3.244   5.041 -0.0221 -0.0129 -0.0413
  587MOL0     C80914   7.785   3.262   5.734 -0.3870  0.4046  0.3665
  587MOL0     C80915   7.720   3.153   5.782  1.0235  0.1643  0.3765
  587MOL0     O80916   7.836   2.885   5.999 -0.1238  0.4791  0.2823
  587MOL0     C80917   7.530   2.724   5.876  0.1625  0.1899  0.0901
  587MOL0     C80918   7.441   2.621   5.895 -0.7804 -0.1740 -0.1230
  587MOL0     N80919   6.963   2.015   5.740  0.0339  0.0181  0.1944
  587MOL0     N80920   6.933   1.908   5.670 -0.4732 -0.8859 -0.6090
  587MOL0     C80921   7.178   0.650   5.196  0.0858  0.3830 -0.5799
  587MOL0     C80922   7.164   0.589   5.073  0.8431  0.5263 -0.1230
  587MOL0     C80923   7.016   0.415   4.733 -0.7233  0.0168  0.5234
  587MOL0     C80924   6.895   0.354   4.715  0.0635  1.1952 -0.3727
  587MOL0     C80925   6.879   0.236   4.639  0.8083 -0.0222 -0.0017
  587MOL0     C80926   6.992   0.182   4.573  0.3897  0.4920 -0.1872
  587MOL0     O80927   6.969   0.081   4.478 -0.6786 -0.1533  0.0174
  587MOL0     C80928   6.871  -0.016   4.511  0.2857  0.2275 -0.2374
  587MOL0     C80929   6.899  -0.142   4.422  0.4526  0.0738 -0.1423
  587MOL0     C80930   6.791  -0.168   4.322  0.3296  0.3480  0.4222
  587MOL0     C80931   6.828  -0.286   4.233  0.1201 -0.1862 -1.3580
  587MOL0     C80932   6.721  -0.340   4.157  0.5061 -0.8297 -0.2403
  587MOL0     C80933   6.641  -0.386   4.085  0.1818  0.6764  0.0697
  587MOL0     C80934   7.115   0.228   4.603  0.2768 -0.0702 -0.0492
  587MOL0     C80935   7.134   0.348   4.682  0.6195 -0.4983  0.3438
  587MOL0     C80936   7.276   0.384   4.708  0.0597 -0.1345  0.5942
  587MOL0     H80937   7.151   0.865   4.868  2.1844  1.8101  1.9834
  587MOL0     H80938   7.191   0.980   5.086 -0.7672  0.3714 -1.7077
  587MOL0     H80939   7.165   1.045   5.301  2.3709  1.4044 -1.7855
  587MOL0     H80940   7.343   1.017   5.297  0.7183  0.1254  2.0394
  587MOL0     H80941   7.198   0.994   5.545 -1.2825  1.2650  0.3981
  587MOL0     H80942   7.384   0.974   5.499 -0.3763 -1.4301  0.6782
  587MOL0     H80943   7.383   1.184   5.594 -0.1550  1.6485 -0.3467
  587MOL0     H80944   7.366   1.215   5.425  0.0694  0.5693  1.2806
  587MOL0     H80945   7.111   1.234   5.465 -2.1218  2.7266  1.8269
  587MOL0     H80946   7.142   1.192   5.625  2.1864 -0.6002  0.7856
  587MOL0     H80947   7.296   1.445   5.527 -0.6006  1.1104 -0.8314
  587MOL0     H80948   7.270   1.367   5.688  0.8699  0.3890 -0.5918
  587MOL0     H80949   7.051   1.465   5.523 -2.7147 -0.5157  1.7086
  587MOL0     H80950   7.031   1.406   5.686 -1.6662  0.6596 -0.4230
  587MOL0     H80951   7.177   1.680   5.610  2.5295  1.3590  0.9576
  587MOL0     H80952   7.177   1.618   5.765 -0.7522 -0.0612 -0.4306
  587MOL0     H80953   6.912   1.656   5.607 -0.0295 -0.0631 -0.2212
  587MOL0     H80954   6.933   1.597   5.768  0.8571  2.0270  2.2474
  587MOL0     H80955   7.078   1.786   5.941  2.2982 -0.1902 -1.7490
  587MOL0     H80956   7.105   2.029   6.057 -0.0717 -0.9262 -0.8898
  587MOL0     H80957   6.979   2.128   6.006  0.8353 -0.5171  2.4216
  587MOL0     H80958   7.262   2.153   5.909 -0.8311 -3.0490 -1.7661
  587MOL0     H80959   7.124   2.233   5.826  0.5428 -1.8076 -1.5856
  587MOL0     H80960   7.059   2.339   6.060 -0.7727 -2.0935  1.9955
  587MOL0     H80961   7.216   2.261   6.110  2.8192 -0.3752 -2.3835
  587MOL0     H80962   7.209   2.452   5.876 -0.7121 -4.0049 -2.0540
  587MOL0     H80963   7.194   2.519   6.043 -1.2090 -1.1738  0.1668
  587MOL0     H80964   7.612   2.439   6.104 -1.9615 -0.2975 -0.9832
  587MOL0     H80965   7.892   2.568   6.057  0.8036 -0.3935  0.9342
  587MOL0     H80966   7.787   2.547   6.203 -1.4603  0.7081 -0.0253
  587MOL0     H80967   7.842   2.706   6.160  0.8112  1.3269 -0.9346
  587MOL0     H80968   7.950   2.922   5.723 -0.0798  0.3325  0.4176
  587MOL0     H80969   8.079   3.110   5.633 -0.7409 -1.7844 -0.7344
  587MOL0     H80970   7.852   3.401   5.465  2.1221  0.4943 -1.8171
  587MOL0     H80971   7.849   3.517   5.606  0.7986  0.6599  0.0920
  587MOL0     H80972   7.951   3.626   5.417 -1.0336 -0.9201  0.1062
  587MOL0     H80973   8.082   3.596   5.535 -1.4019  0.4270  0.4830
  587MOL0     H80974   8.037   3.370   5.342 -0.9581  0.8992 -2.6671
  587MOL0     H80975   8.197   3.434   5.398  0.5486  1.7738  2.0793
  587MOL0     H80976   8.176   3.613   5.239  1.5387 -1.4376  0.7894
  587MOL0     H80977   8.010   3.550   5.177 -1.3368 -1.4760  2.2505
  587MOL0     H80978   8.247   3.368   5.186 -3.1957 -1.4431  2.3533
  587MOL0     H80979   8.089   3.344   5.109 -2.9499  1.5159  1.0055
  587MOL0     H80980   8.253   3.576   5.023 -0.4072  0.3489 -0.5222
  587MOL0     H80981   8.125   3.497   4.942 -2.1650  1.0397  3.6783
  587MOL0     H80982   8.290   3.404   4.811 -1.0648  0.1473 -0.0137
  587MOL0     H80983   8.253   3.281   4.931 -1.2722  1.8004  0.5706
  587MOL0     H80984   8.468   3.467   4.981 -1.0767 -0.7707  3.6343
  587MOL0     H80985   8.490   3.370   4.834 -2.2271  0.5199  0.2030
  587MOL0     H80986   7.740   3.361   5.724  0.0293  0.6787  1.1678
  587MOL0     H80987   7.615   3.174   5.796  1.0442  0.5002  0.0442
  587MOL0     H80988   7.503   2.807   5.811 -0.1564  2.3995  2.8716
  587MOL0     H80989   7.350   2.608   5.837 -1.6059 -0.9748  1.3146
  587MOL0     H80990   7.206   0.601   5.289  0.1100 -0.1904 -0.8897
  587MOL0     H80991   7.172   0.480   5.076 -1.7847  0.2692  2.3798
  587MOL0     H80992   6.802   0.395   4.752 -1.7707 -1.2417 -1.9130
  587MOL0     H80993   6.784   0.183   4.633 -0.9985  2.9138  0.5055
  587MOL0     H80994   6.871  -0.044   4.617  0.9094  1.8264  0.2103
  587MOL0     H80995   6.772   0.021   4.484 -0.3280  0.0745  1.6577
  587MOL0     H80996   6.907  -0.221   4.498  0.2783  1.6267  1.5692
  587MOL0     H80997   6.992  -0.138   4.364  0.9515 -1.2213  0.5351
  587MOL0     H80998   6.690  -0.185   4.362  0.4035 -2.2098 -0.2912
  587MOL0     H80999   6.780  -0.078   4.260  2.6888  1.1210  1.0508
  587MOL0     H81000   6.882  -0.366   4.286 -0.5944  0.2720  0.1373
  587MOL0     H81001   6.912  -0.249   4.174  2.5541 -0.6878  1.4920
  587MOL0     H81002   6.569  -0.430   4.018  1.8515 -2.5159  0.1488
  587MOL0     H81003   7.208   0.184   4.567  1.4800  2.0740  0.2863
  587MOL0     H81004   7.306   0.371   4.812  1.9800  0.4117  0.1532
  587MOL0     H81005   7.351   0.343   4.639  0.5225  1.3788  0.1570
  587MOL0     H81006   7.278   0.491   4.683  0.6116 -0.8181 -2.7188
  588MOL0     O81007   7.208  11.178   1.406 -0.1203 -0.3599  0.3562
  588MOL0     C81008   7.140  11.209   1.305 -0.4983 -0.7603  1.0554
  588MOL0     O81009   7.189  11.258   1.177  0.2644  0.2221  0.0222
  588MOL0     C81010   7.322  11.291   1.168  0.5693  0.8424  0.1776
  588MOL0     C81011   7.403  11.249   1.062  1.2434 -0.4159  0.1603
  588MOL0     C81012   7.543  11.267   1.057 -0.0671  0.3317 -0.2648
  588MOL0     C81013   7.618  11.325   1.166 -0.7620  0.4418  0.0409
  588MOL0     O81014   7.749  11.341   1.142  0.8314 -0.0629 -0.8075
  588MOL0     C81015   7.850  11.350   1.244  0.1027 -0.2481  0.5763
  588MOL0     C81016   7.993  11.318   1.194  0.2860 -0.1187 -0.3401
  588MOL0     C81017   8.026  11.174   1.173  0.1984  0.3575  0.1249
  588MOL0     C81018   8.131  11.156   1.060  1.0396 -0.4730 -1.2322
  588MOL0     C81019   8.205  11.029   1.047  0.6594  0.3114  0.7838
  588MOL0     C81020   8.109  10.903   1.031  0.4634  0.0550  0.2166
  588MOL0     C81021   8.015  10.910   0.909  1.0348 -0.0653  0.4100
  588MOL0     C81022   7.910  10.797   0.907 -0.0445 -0.1557 -0.6601
  588MOL0     N81023   7.840  10.778   1.042 -0.1604  0.4155 -0.1737
  588MOL0     C81024   7.778  10.878   1.115  0.7656  0.1964  0.4923
  588MOL0     C81025   7.732  10.818   1.228 -0.4632  0.8934 -0.7751
  588MOL0     C81026   7.650  10.885   1.336 -0.3454  0.5436  0.0154
  588MOL0     C81027   7.730  10.992   1.410  0.3827  0.5149 -0.7300
  588MOL0     C81028   7.826  10.931   1.506 -0.7886  0.4272  0.1890
  588MOL0     C81029   7.951  10.864   1.454 -0.6512 -1.0825 -0.4885
  588MOL0     O81030   8.055  10.864   1.552  0.3356 -0.6437  0.0103
  588MOL0     C81031   8.175  10.796   1.515 -0.3962 -0.7894 -0.0739
  588MOL0     C81032   8.275  10.805   1.607  0.2729  0.2867 -0.8048
  588MOL0     C81033   8.396  10.742   1.579 -0.7738  0.0238 -0.6478
  588MOL0     C81034   8.498  10.734   1.687  1.1499 -0.7879 -0.1106
  588MOL0     C81035   8.437  10.672   1.459 -0.0589  0.7711  0.1702
  588MOL0     C81036   8.564  10.620   1.424  0.8013 -0.0707 -0.5564
  588MOL0     O81037   8.676  10.695   1.450  0.1887 -0.3409 -0.3197
  588MOL0     C81038   8.791  10.629   1.417  0.4594  0.5336 -0.0239
  588MOL0     C81039   8.870  10.566   1.507 -0.2120 -0.0791 -0.0778
  588MOL0     C81040   8.993  10.503   1.462 -0.1587 -0.8480 -0.4377
  588MOL0     C81041   9.032  10.520   1.328  1.2517  0.3004  1.3398
  588MOL0     O81042   9.150  10.489   1.268  0.3862  0.5934 -0.5319
  588MOL0     C81043   9.249  10.426   1.352  1.1405 -0.3097 -0.2326
  588MOL0     C81044   9.359  10.375   1.260  0.3583 -0.0488  0.0589
  588MOL0     C81045   9.445  10.291   1.353  1.1566  0.2607 -0.5199
  588MOL0     C81046   9.549  10.215   1.284  0.2383 -0.3244 -0.2278
  588MOL0     C81047   9.670  10.145   1.366  0.7230 -0.3494 -0.2944
  588MOL0     C81048   9.740  10.040   1.276 -0.6438 -0.0816 -0.1778
  588MOL0     C81049   9.847   9.980   1.370 -0.0183 -0.4161  0.1627
  588MOL0     C81050   9.925   9.875   1.292  0.1109 -0.5060  0.0004
  588MOL0    Cl81051   9.819   9.749   1.251  0.4405  0.3319  0.2124
  588MOL0     C81052   8.942  10.582   1.240 -0.4652 -1.0406  0.5431
  588MOL0     C81053   8.818  10.631   1.283 -0.0924 -0.2306  0.7910
  588MOL0     O81054   8.559  10.512   1.371 -0.1127 -0.0654 -0.3951
  588MOL0     C81055   8.330  10.682   1.365 -0.7585 -0.3689  1.1083
  588MOL0     C81056   8.208  10.752   1.388 -0.4273 -0.1310  0.0787
  588MOL0     N81057   7.774  10.687   1.222  0.2267  0.1545 -0.9416
  588MOL0     N81058   7.842  10.664   1.116 -0.4029 -0.8051 -0.9144
  588MOL0     C81059   7.535  11.371   1.272  0.4519 -0.4133 -0.0485
  588MOL0     C81060   7.392  11.349   1.273 -0.5609 -0.7750 -0.1065
  588MOL0     C81061   6.998  11.196   1.317 -0.1544 -0.3973  0.3221
  588MOL0     C81062   6.912  11.269   1.235  0.0164  0.2660 -0.3064
  588MOL0     C81063   6.774  11.252   1.229 -0.3499  0.1331  0.6462
  588MOL0     C81064   6.709  11.180   1.322 -0.4941  0.3835  0.8688
  588MOL0     O81065   6.572  11.165   1.305 -0.4899 -0.4555  0.2812
  588MOL0     C81066   6.490  11.098   1.393  0.0664  0.1850 -0.4344
  588MOL0     C81067   6.372  11.198   1.404  0.5325  0.0717 -0.3081
  588MOL0     C81068   6.270  11.149   1.496  0.2840  0.3035 -0.2567
  588MOL0     C81069   6.125  11.204   1.464  0.0714 -0.4452 -0.1208
  588MOL0     C81070   6.110  11.350   1.501  0.4341 -0.2889 -0.3880
  588MOL0     C81071   6.094  11.458   1.555 -0.1228  0.4563  0.0577
  588MOL0     C81072   6.792  11.115   1.413 -0.1434 -0.5818 -0.0134
  588MOL0     C81073   6.933  11.105   1.413 -0.2747 -1.1376  0.3699
  588MOL0     C81074   6.998  11.020   1.509  0.1550  0.3182 -0.2265
  588MOL0     H81075   7.352  11.204   0.976 -2.3213  1.4977  1.0626
  588MOL0     H81076   7.587  11.227   0.966 -0.3711  2.8742 -1.6418
  588MOL0     H81077   7.827  11.282   1.326  1.2908 -3.4382 -1.5542
  588MOL0     H81078   7.840  11.457   1.265  1.2340  0.5710 -2.5424
  588MOL0     H81079   8.002  11.375   1.101 -0.8374 -1.0434 -1.0409
  588MOL0     H81080   8.068  11.358   1.263  1.4330 -0.1861 -1.4908
  588MOL0     H81081   8.080  11.136   1.261  0.3161 -1.9148 -0.8501
  588MOL0     H81082   7.938  11.113   1.149  0.1673  0.9492 -1.3262
  588MOL0     H81083   8.072  11.182   0.972 -1.1869 -1.5255 -0.1164
  588MOL0     H81084   8.209  11.232   1.078 -0.6024  1.2031 -0.9278
  588MOL0     H81085   8.265  11.032   1.138 -0.7756  0.6280  1.7538
  588MOL0     H81086   8.269  11.040   0.959  0.3389  2.6406  0.7908
  588MOL0     H81087   8.167  10.811   1.028 -1.0645 -1.2020  3.7194
  588MOL0     H81088   8.057  10.892   1.126  0.2822 -0.1412  0.0956
  588MOL0     H81089   8.073  10.900   0.817 -1.2011 -1.3099 -0.9691
  588MOL0     H81090   7.962  11.006   0.914 -1.6587 -1.4615  0.9727
  588MOL0     H81091   7.831  10.810   0.831 -1.3793 -0.2061  0.6657
  588MOL0     H81092   7.950  10.697   0.885 -1.2154 -0.4974 -1.3638
  588MOL0     H81093   7.773  10.982   1.082 -1.4934 -0.0901 -0.2500
  588MOL0     H81094   7.607  10.821   1.414  0.3508 -1.4919 -1.2064
  588MOL0     H81095   7.563  10.943   1.303 -2.4701 -2.2463  0.3682
  588MOL0     H81096   7.783  11.056   1.339 -4.5666  3.0191 -2.6485
  588MOL0     H81097   7.668  11.055   1.474  0.9925  2.0757 -1.6377
  588MOL0     H81098   7.860  11.014   1.568 -1.0197 -1.0277  2.3864
  588MOL0     H81099   7.786  10.864   1.583  2.7971 -1.4391  0.6435
  588MOL0     H81100   7.929  10.761   1.425  2.1924 -1.7392 -0.6019
  588MOL0     H81101   7.978  10.922   1.365 -1.7260 -1.4250 -1.0554
  588MOL0     H81102   8.261  10.869   1.694 -0.4619  2.5074 -2.4598
  588MOL0     H81103   8.577  10.808   1.671 -1.5939  1.7920 -3.1773
  588MOL0     H81104   8.541  10.633   1.692  2.3801 -0.2211  1.7994
  588MOL0     H81105   8.457  10.757   1.785  0.5746  0.7329 -0.6816
  588MOL0     H81106   8.835  10.553   1.609 -0.3308  0.6733 -0.0182
  588MOL0     H81107   9.061  10.445   1.523  0.2236 -0.2000 -0.2393
  588MOL0     H81108   9.295  10.499   1.419  2.5611 -0.7529 -0.6895
  588MOL0     H81109   9.207  10.348   1.416 -0.6034  2.6443  2.5131
  588MOL0     H81110   9.309  10.307   1.189 -0.5235 -1.0537  1.5912
  588MOL0     H81111   9.406  10.460   1.211 -0.1778 -1.0981 -2.4538
  588MOL0     H81112   9.382  10.220   1.407 -0.2485 -0.7362 -3.2668
  588MOL0     H81113   9.498  10.353   1.426 -0.5015 -0.3717  1.2915
  588MOL0     H81114   9.593  10.279   1.207  1.7401 -1.0547 -0.0252
  588MOL0     H81115   9.510  10.129   1.228  0.6428  0.0724 -1.1550
  588MOL0     H81116   9.744  10.209   1.415  2.5216 -3.5432  1.5456
  588MOL0     H81117   9.622  10.096   1.452 -0.9336 -1.2669 -1.6749
  588MOL0     H81118   9.783  10.093   1.190  0.7973  0.2770  0.7332
  588MOL0     H81119   9.664   9.972   1.236 -0.3254  1.1250 -3.0636
  588MOL0     H81120   9.806   9.939   1.463  0.3794  0.0367  0.5435
  588MOL0     H81121   9.915  10.056   1.410 -0.1483 -0.9034  1.3467
  588MOL0     H81122  10.012   9.833   1.342  0.2953 -0.3151 -0.1593
  588MOL0     H81123   9.967   9.921   1.202 -0.2874  0.2836  0.2112
  588MOL0     H81124   8.982  10.591   1.139 -3.6079 -2.2257 -0.9380
  588MOL0     H81125   8.749  10.672   1.210  1.4713 -0.4282 -0.8667
  588MOL0     H81126   8.337  10.635   1.268 -1.7691 -1.8281  1.7155
  588MOL0     H81127   8.132  10.752   1.310 -0.4636 -0.4093  0.1110
  588MOL0     H81128   7.577  11.443   1.341 -0.5222  2.1384 -1.9676
  588MOL0     H81129   7.359  11.387   1.369  1.2113  0.8837 -0.0923
  588MOL0     H81130   6.959  11.329   1.158 -2.3815 -1.1611 -3.0958
  588MOL0     H81131   6.708  11.303   1.159  2.3424 -0.5583 -2.6850
  588MOL0     H81132   6.451  11.006   1.350 -1.9136  0.4343  0.6982
  588MOL0     H81133   6.523  11.081   1.496 -1.3241 -1.7013 -0.2407
  588MOL0     H81134   6.328  11.223   1.307 -1.1846 -0.7691  0.2151
  588MOL0     H81135   6.419  11.293   1.433 -0.0600  0.0032  0.9588
  588MOL0     H81136   6.260  11.040   1.486 -2.2111  0.6373 -2.4973
  588MOL0     H81137   6.287  11.156   1.604 -0.8146 -0.6774  0.0046
  588MOL0     H81138   6.055  11.143   1.522  3.4095 -3.7962  0.7656
  588MOL0     H81139   6.102  11.171   1.362 -0.9365 -1.7396  0.4881
  588MOL0     H81140   6.088  11.562   1.581  1.2059  1.1800 -2.1793
  588MOL0     H81141   6.737  11.074   1.497 -1.5534  0.7454 -0.2439
  588MOL0     H81142   7.077  10.958   1.465  0.6174 -0.3314  1.4406
  588MOL0     H81143   7.054  11.084   1.578 -0.9954 -0.5553  1.5768
  588MOL0     H81144   6.932  10.952   1.562  2.5241  0.3086  3.0792
  589MOL0     O81145   4.982   4.278  10.723  0.6719  0.6053 -0.3624
  589MOL0     C81146   5.098   4.244  10.728  0.7358  0.0654 -0.7300
  589MOL0     O81147   5.157   4.182  10.840 -0.6084 -0.2236 -0.1898
  589MOL0     C81148   5.082   4.153  10.956 -0.9438  0.5515 -0.0158
  589MOL0     C81149   5.114   4.203  11.086 -0.7704  1.0372 -0.0743
  589MOL0     C81150   5.051   4.159  11.200 -0.3240 -0.7037  0.0108
  589MOL0     C81151   4.949   4.068  11.193  0.1251 -0.2478  0.1132
  589MOL0     O81152   4.880   4.015  11.302  0.0165  0.5743  0.2446
  589MOL0     C81153   4.914   4.052  11.439 -0.3434  0.4924 -0.4191
  589MOL0     C81154   4.844   3.970  11.543  0.0270  0.6726  0.4791
  589MOL0     C81155   4.916   3.988  11.674  0.1290  0.1165 -0.1349
  589MOL0     C81156   4.847   3.931  11.804  0.4326  0.4733 -0.7487
  589MOL0     C81157   4.874   4.013  11.932  0.3586 -1.3060  0.8506
  589MOL0     C81158   4.783   3.970  12.055 -0.1240  0.4449  0.3475
  589MOL0     C81159   4.847   4.004  12.187 -0.0674  0.4574 -0.8712
  589MOL0     C81160   4.859   4.157  12.209 -1.1019  0.4523 -0.1383
  589MOL0     N81161   4.737   4.217  12.238  0.2316 -0.7930 -1.1913
  589MOL0     C81162   4.643   4.168  12.331 -0.0927  0.0818  0.1966
  589MOL0     C81163   4.547   4.263  12.353 -0.0954  0.7584  0.9447
  589MOL0     C81164   4.430   4.245  12.449 -0.4973 -0.4346  0.0796
  589MOL0     C81165   4.293   4.274  12.384 -0.3253  0.4069  0.9225
  589MOL0     C81166   4.197   4.331  12.481 -0.0887  0.2986  0.1871
  589MOL0     C81167   4.148   4.226  12.580 -0.3399 -0.3418 -0.2348
  589MOL0     O81168   4.045   4.151  12.512 -0.3912  0.2763  0.1309
  589MOL0     C81169   3.941   4.095  12.578  0.4166 -0.2700  0.5999
  589MOL0     C81170   3.942   4.075  12.718 -0.8541 -0.6841  0.7651
  589MOL0     C81171   3.826   4.018  12.778  0.2888  0.1006 -0.2469
  589MOL0     C81172   3.840   4.000  12.928  0.0951 -0.3332 -0.4710
  589MOL0     C81173   3.709   3.987  12.708  0.4944  0.1249 -0.4579
  589MOL0     C81174   3.592   3.920  12.773  1.1969 -0.2715  0.0553
  589MOL0     O81175   3.504   3.870  12.685  0.9199  0.5659 -0.7425
  589MOL0     C81176   3.409   3.779  12.733  0.0455 -0.4565  0.3506
  589MOL0     C81177   3.373   3.663  12.658 -0.5928 -0.8529 -0.7478
  589MOL0     C81178   3.266   3.579  12.702 -0.3495  0.0988 -0.6989
  589MOL0     C81179   3.191   3.604  12.821  0.1984  0.2293 -0.6137
  589MOL0     O81180   3.086   3.533  12.872 -0.0069  0.1742  0.0607
  589MOL0     C81181   3.026   3.442  12.786  0.3710 -0.1230 -0.4681
  589MOL0     C81182   2.885   3.413  12.840 -0.5442  0.3216 -0.1433
  589MOL0     C81183   2.892   3.358  12.983 -0.5474 -0.2553 -0.5764
  589MOL0     C81184   2.942   3.216  12.990  0.7378 -0.1105  0.8255
  589MOL0     C81185   2.916   3.150  13.130  0.1128 -0.4393  1.0455
  589MOL0     C81186   2.770   3.126  13.172 -0.4676  0.3080  0.4177
  589MOL0     C81187   2.710   2.996  13.118  0.0652 -0.2983  0.3772
  589MOL0     C81188   2.573   2.980  13.181  0.3265 -0.2642 -0.3279
  589MOL0    Cl81189   2.497   2.818  13.167  0.0460  0.6627 -0.0858
  589MOL0     C81190   3.228   3.717  12.897  0.2899 -1.2194  0.6478
  589MOL0     C81191   3.327   3.802  12.850 -0.2759  1.0462 -0.6089
  589MOL0     O81192   3.575   3.922  12.894  0.5928  0.1702  0.3326
  589MOL0     C81193   3.705   4.022  12.568  0.0134  0.0172  0.3212
  589MOL0     C81194   3.820   4.075  12.507 -0.1197 -0.7552  0.2400
  589MOL0     N81195   4.585   4.374  12.276  0.3129 -0.2051 -0.4805
  589MOL0     N81196   4.698   4.347  12.215 -0.4315  0.0373 -0.4924
  589MOL0     C81197   4.905   4.025  11.066  0.3543  0.2237  0.4064
  589MOL0     C81198   4.980   4.057  10.948  0.3485 -0.2702  0.4559
  589MOL0     C81199   5.181   4.256  10.611 -0.1093 -0.6443  0.1739
  589MOL0     C81200   5.268   4.146  10.577 -0.3774  0.0219  0.3694
  589MOL0     C81201   5.352   4.154  10.472  1.3837  0.2427  0.9711
  589MOL0     C81202   5.350   4.262  10.388 -0.4159  0.1447  0.0846
  589MOL0     O81203   5.417   4.248  10.271  0.6181 -0.0237  0.0918
  589MOL0     C81204   5.413   4.354  10.173  0.0251  0.2771  0.1531
  589MOL0     C81205   5.534   4.346  10.089 -0.0880  0.1450 -0.0758
  589MOL0     C81206   5.534   4.441   9.962 -1.0041 -0.7221  0.1418
  589MOL0     C81207   5.526   4.591  10.002  0.1425 -0.2017  0.9907
  589MOL0     C81208   5.643   4.637  10.091  0.0561  1.0147 -0.4248
  589MOL0     C81209   5.734   4.650  10.174  0.5207  0.7146 -0.0980
  589MOL0     C81210   5.271   4.372  10.424 -0.1752  0.2889 -0.7718
  589MOL0     C81211   5.193   4.377  10.541 -0.3976 -0.5319 -0.4062
  589MOL0     C81212   5.106   4.501  10.576 -0.3707 -0.1632  1.2618
  589MOL0     H81213   5.200   4.270  11.088 -0.5861  1.1206 -3.6310
  589MOL0     H81214   5.085   4.202  11.293 -2.0402  1.3123 -0.2367
  589MOL0     H81215   4.898   4.159  11.455  3.2648  0.9449  0.9978
  589MOL0     H81216   5.023   4.044  11.443 -0.2898 -1.6438 -2.9143
  589MOL0     H81217   4.738   3.993  11.536  0.2150  1.1216 -2.2270
  589MOL0     H81218   4.860   3.865  11.519 -2.4044  0.2043  0.6982
  589MOL0     H81219   5.015   3.943  11.674 -1.1555 -2.9188  0.3571
  589MOL0     H81220   4.916   4.098  11.682 -2.4656  0.0905  1.7586
  589MOL0     H81221   4.739   3.931  11.788  0.4188  1.7272 -0.6851
  589MOL0     H81222   4.884   3.831  11.829  3.7511  2.1966  2.2234
  589MOL0     H81223   4.861   4.118  11.904 -0.9846 -1.4029  1.0454
  589MOL0     H81224   4.982   4.009  11.950  0.7682  2.2672 -0.1471
  589MOL0     H81225   4.687   4.020  12.044 -0.5091  0.5931  3.4421
  589MOL0     H81226   4.768   3.862  12.044 -0.2211  0.7150 -3.1514
  589MOL0     H81227   4.947   3.961  12.185 -0.5541 -0.7284 -0.4767
  589MOL0     H81228   4.792   3.962  12.272  0.7686  2.1466  0.5770
  589MOL0     H81229   4.919   4.177  12.298  1.4018  1.4313 -1.9391
  589MOL0     H81230   4.910   4.207  12.127 -0.4515  0.2131  0.1091
  589MOL0     H81231   4.658   4.081  12.394  1.3665  1.0246  1.2151
  589MOL0     H81232   4.439   4.314  12.533  1.8753 -0.0226 -0.4533
  589MOL0     H81233   4.437   4.148  12.497 -0.8663  0.6613  2.4739
  589MOL0     H81234   4.325   4.356  12.318 -2.0576 -0.4296 -1.0735
  589MOL0     H81235   4.251   4.189  12.331 -0.1391 -0.1143  1.6002
  589MOL0     H81236   4.229   4.417  12.540  3.0399 -0.2151 -0.5710
  589MOL0     H81237   4.111   4.370  12.425 -1.7354 -0.2331  2.1922
  589MOL0     H81238   4.228   4.160  12.613 -1.9292 -1.6528  1.1920
  589MOL0     H81239   4.104   4.268  12.671  0.9523  1.8940 -0.5672
  589MOL0     H81240   4.029   4.094  12.780 -0.1433 -1.3404 -0.0098
  589MOL0     H81241   3.773   4.070  12.980 -0.3559 -1.5855  0.7048
  589MOL0     H81242   3.943   4.017  12.960  0.5414 -3.3758  0.0115
  589MOL0     H81243   3.818   3.896  12.956  1.3451 -0.5678 -0.3258
  589MOL0     H81244   3.419   3.638  12.563  0.4545 -2.1900  0.0763
  589MOL0     H81245   3.252   3.492  12.639 -0.4641 -2.1117  2.1814
  589MOL0     H81246   2.999   3.488  12.690 -2.7409 -0.6563  0.0512
  589MOL0     H81247   3.082   3.349  12.769  1.3394  1.0143 -4.9084
  589MOL0     H81248   2.823   3.503  12.841 -1.1816 -0.1072  0.6981
  589MOL0     H81249   2.833   3.340  12.779  0.2848 -1.0450  0.7122
  589MOL0     H81250   2.792   3.356  13.027 -0.0913 -2.0147  0.4986
  589MOL0     H81251   2.943   3.425  13.052  1.6441  0.3584 -2.6605
  589MOL0     H81252   3.050   3.228  12.978  1.0014 -0.1364  2.9222
  589MOL0     H81253   2.898   3.152  12.913 -0.7008  0.6740  0.9574
  589MOL0     H81254   2.971   3.056  13.136  0.3868 -0.2248  2.0803
  589MOL0     H81255   2.950   3.219  13.208 -1.5972  1.6514  0.0415
  589MOL0     H81256   2.702   3.210  13.157 -1.2184 -0.5657 -1.3077
  589MOL0     H81257   2.771   3.115  13.281 -3.3566  0.4566  0.5358
  589MOL0     H81258   2.770   2.908  13.141 -0.0386  0.0270  2.0425
  589MOL0     H81259   2.697   3.000  13.009  0.0409 -1.3882  0.3312
  589MOL0     H81260   2.501   3.053  13.142  0.3294 -0.7781 -1.3152
  589MOL0     H81261   2.570   3.007  13.287 -1.7398 -0.2240 -0.3505
  589MOL0     H81262   3.176   3.735  12.990  0.3742  2.1792  0.1675
  589MOL0     H81263   3.337   3.889  12.913 -2.3250 -0.4530  1.9938
  589MOL0     H81264   3.618   4.005  12.506  0.5786 -1.6460 -0.0649
  589MOL0     H81265   3.813   4.105  12.403  3.2343  0.8527  0.3686
  589MOL0     H81266   4.819   3.958  11.072  0.2124  0.5433  4.5205
  589MOL0     H81267   4.954   4.016  10.851  3.9843 -0.7711 -0.4644
  589MOL0     H81268   5.276   4.057  10.637  0.4628  0.9200  1.6528
  589MOL0     H81269   5.430   4.081  10.453 -1.1501 -2.4176 -0.0219
  589MOL0     H81270   5.326   4.347  10.106  0.6476  0.7350 -0.7259
  589MOL0     H81271   5.407   4.456  10.213  1.1975  0.3637  0.1209
  589MOL0     H81272   5.537   4.249  10.039 -0.5249  0.0443  0.0898
  589MOL0     H81273   5.623   4.367  10.149 -0.4198 -0.1390  0.5232
  589MOL0     H81274   5.630   4.432   9.912 -0.1421 -0.4483  1.7006
  589MOL0     H81275   5.462   4.410   9.886  3.0396 -3.4207 -3.0209
  589MOL0     H81276   5.425   4.607  10.043 -0.3860 -1.4653  0.2671
  589MOL0     H81277   5.537   4.640   9.905  1.6780 -0.4216  1.0410
  589MOL0     H81278   5.809   4.635  10.249  1.0549 -1.2834 -0.9535
  589MOL0     H81279   5.275   4.454  10.352  1.8848  0.8814 -0.0519
  589MOL0     H81280   5.179   4.577  10.547 -0.9334 -0.5913 -1.6479
  589MOL0     H81281   5.018   4.517  10.512  0.1282  2.6877  1.1609
  589MOL0     H81282   5.079   4.505  10.682  1.9363 -0.8462  1.9276
  590MOL0     O81283   0.919   8.124   7.462  0.2752  0.1743 -0.5631
  590MOL0     C81284   0.859   8.025   7.499 -0.0053 -0.1513 -0.3970
  590MOL0     O81285   0.912   7.893   7.496  0.3034 -0.1083  0.9904
  590MOL0     C81286   1.043   7.874   7.516  0.3478  0.0180  0.1922
  590MOL0     C81287   1.128   7.948   7.599 -0.3310 -0.2544 -0.2666
  590MOL0     C81288   1.266   7.917   7.601 -0.3297  0.3665  0.2307
  590MOL0     C81289   1.323   7.805   7.538 -0.2893 -1.0242 -0.0587
  590MOL0     O81290   1.455   7.788   7.547 -0.2539 -0.1001  0.0664
  590MOL0     C81291   1.514   7.654   7.551 -0.0397  0.3163 -0.0198
  590MOL0     C81292   1.665   7.669   7.545  0.4734 -0.6507  0.4969
  590MOL0     C81293   1.735   7.537   7.549  0.0080 -0.6224  0.5629
  590MOL0     C81294   1.866   7.539   7.477 -0.3158 -0.5196 -0.1326
  590MOL0     C81295   1.972   7.464   7.555  0.5681 -0.0305  1.0809
  590MOL0     C81296   2.117   7.497   7.500  0.9052  0.1106 -0.7106
  590MOL0     C81297   2.149   7.469   7.347  0.3847  0.4479  0.7439
  590MOL0     C81298   2.116   7.328   7.300  0.1940  0.1882  0.1687
  590MOL0     N81299   2.196   7.225   7.367 -0.6955  0.1575  0.0536
  590MOL0     C81300   2.325   7.187   7.340  0.6718  0.0377  0.4598
  590MOL0     C81301   2.361   7.089   7.427  0.0336  0.6920 -0.2621
  590MOL0     C81302   2.495   7.015   7.425  0.3122 -0.3036  0.6106
  590MOL0     C81303   2.479   6.861   7.439 -0.0233  0.0008 -1.5770
  590MOL0     C81304   2.612   6.790   7.412 -0.0809 -0.4270 -0.5698
  590MOL0     C81305   2.685   6.813   7.271 -0.5214 -1.3024  0.6868
  590MOL0     O81306   2.791   6.727   7.239  0.0891 -0.7129 -0.9625
  590MOL0     C81307   2.921   6.727   7.297  0.4898 -0.9061 -0.3365
  590MOL0     C81308   3.001   6.624   7.271  0.3832  0.4561 -0.5282
  590MOL0     C81309   3.133   6.607   7.320  0.1093 -0.8124  0.4495
  590MOL0     C81310   3.218   6.505   7.262  0.0103 -0.0949  0.4363
  590MOL0     C81311   3.175   6.703   7.417 -1.1622 -0.6295 -1.2418
  590MOL0     C81312   3.310   6.700   7.496 -0.3696  0.3045  0.0592
  590MOL0     O81313   3.383   6.583   7.496 -0.2085  0.6398  0.2350
  590MOL0     C81314   3.474   6.546   7.584 -0.9363  0.8932 -0.4119
  590MOL0     C81315   3.479   6.408   7.609  0.6542  0.2571  0.3606
  590MOL0     C81316   3.581   6.350   7.690  0.8126 -0.5013 -0.3330
  590MOL0     C81317   3.682   6.430   7.747 -0.9958 -0.7998  0.2564
  590MOL0     O81318   3.777   6.372   7.828  0.4020 -0.9366 -0.2660
  590MOL0     C81319   3.846   6.463   7.922 -0.1049 -0.6694  0.2233
  590MOL0     C81320   3.893   6.403   8.049  0.2062  0.5328  0.0241
  590MOL0     C81321   3.795   6.412   8.168 -0.5369 -0.3775  0.4852
  590MOL0     C81322   3.654   6.364   8.141  0.5558 -0.0685  0.7029
  590MOL0     C81323   3.550   6.478   8.152  0.5936 -0.7573 -0.8147
  590MOL0     C81324   3.408   6.432   8.103 -0.6091 -0.3917  0.0219
  590MOL0     C81325   3.299   6.540   8.081 -0.3843 -0.5096  0.9388
  590MOL0     C81326   3.354   6.652   7.995  0.1668  0.2919  0.5992
  590MOL0    Cl81327   3.208   6.750   7.936  0.4886 -0.1241 -0.0910
  590MOL0     C81328   3.671   6.571   7.719 -0.9867 -0.1608 -0.2003
  590MOL0     C81329   3.577   6.626   7.641  0.2294 -0.5845  0.6297
  590MOL0     O81330   3.350   6.801   7.549 -0.3566  0.7655  0.2584
  590MOL0     C81331   3.087   6.819   7.444 -0.2647 -0.3852 -0.2564
  590MOL0     C81332   2.957   6.830   7.383 -1.4135  0.1140  0.0612
  590MOL0     N81333   2.253   7.076   7.512  0.5372  0.2258 -0.1686
  590MOL0     N81334   2.156   7.150   7.477  0.2568 -0.1135  0.1567
  590MOL0     C81335   1.238   7.734   7.457 -0.0851  1.2678  1.3663
  590MOL0     C81336   1.101   7.763   7.446  0.2326 -0.4414 -1.1448
  590MOL0     C81337   0.707   8.030   7.519 -0.1843 -0.2306  0.1032
  590MOL0     C81338   0.640   7.917   7.571  0.4680 -0.1041  0.6265
  590MOL0     C81339   0.499   7.927   7.604 -0.7892 -0.8047 -0.8802
  590MOL0     C81340   0.422   8.037   7.586  0.4259  0.8305  1.1758
  590MOL0     O81341   0.286   8.031   7.618 -0.1412  0.2195  1.6979
  590MOL0     C81342   0.212   8.155   7.620 -0.3328  1.1218  0.1367
  590MOL0     C81343   0.064   8.122   7.648 -0.1935  0.5334  0.1295
  590MOL0     C81344   0.036   8.036   7.765 -0.0252  0.1015  0.1805
  590MOL0     C81345  -0.118   8.046   7.805 -0.6057  0.3635  0.1723
  590MOL0     C81346  -0.153   7.962   7.926 -0.3475 -0.5971 -0.2242
  590MOL0     C81347  -0.188   7.905   8.026  0.2520 -1.3905  1.2636
  590MOL0     C81348   0.488   8.141   7.520 -0.3142  0.2968 -0.1378
  590MOL0     C81349   0.624   8.142   7.489 -0.8110  0.1329  0.2614
  590MOL0     C81350   0.680   8.259   7.419  0.6016  0.0158  0.1543
  590MOL0     H81351   1.095   8.018   7.675 -2.2621 -2.6317  1.2301
  590MOL0     H81352   1.337   7.977   7.656  3.2654 -1.4389 -2.0103
  590MOL0     H81353   1.484   7.614   7.453  2.0644  0.5271 -0.7914
  590MOL0     H81354   1.471   7.597   7.634 -0.4057  0.8883  0.1967
  590MOL0     H81355   1.688   7.729   7.456  0.9225 -0.9982  0.3755
  590MOL0     H81356   1.699   7.732   7.627  0.0497  1.4577 -0.8647
  590MOL0     H81357   1.758   7.504   7.651 -0.7040 -1.6259  0.4069
  590MOL0     H81358   1.675   7.459   7.503 -0.5756 -0.4661  1.0598
  590MOL0     H81359   1.853   7.485   7.383 -2.5474 -0.8570  0.3113
  590MOL0     H81360   1.901   7.639   7.451 -1.5425 -0.0688 -0.1281
  590MOL0     H81361   1.944   7.358   7.555 -0.4339  0.1802 -1.1192
  590MOL0     H81362   1.979   7.495   7.660  2.7402  0.0357  0.9666
  590MOL0     H81363   2.130   7.601   7.530 -2.5799  0.5964 -0.4140
  590MOL0     H81364   2.191   7.439   7.557  3.2206  1.4425 -2.2356
  590MOL0     H81365   2.254   7.496   7.332  0.3100  1.8270  2.3814
  590MOL0     H81366   2.094   7.550   7.297  0.0333  1.6835  2.9574
  590MOL0     H81367   2.012   7.307   7.329 -0.0793  0.3050 -0.6984
  590MOL0     H81368   2.131   7.320   7.192 -1.7948  0.3715 -0.1673
  590MOL0     H81369   2.375   7.227   7.252 -2.1033  1.7840 -0.4564
  590MOL0     H81370   2.566   7.061   7.495  0.6463  1.0455 -0.5784
  590MOL0     H81371   2.542   7.032   7.328 -1.9589 -0.5103 -0.5927
  590MOL0     H81372   2.443   6.833   7.539 -1.7526  0.2816 -2.1011
  590MOL0     H81373   2.405   6.821   7.370 -1.9893 -3.5076  2.1194
  590MOL0     H81374   2.687   6.815   7.487 -1.5213 -1.8817  1.4803
  590MOL0     H81375   2.589   6.683   7.412 -1.2504 -0.2128  0.9327
  590MOL0     H81376   2.607   6.800   7.196  0.1394 -0.7904 -0.1109
  590MOL0     H81377   2.723   6.913   7.247 -3.5428 -0.7857 -2.7547
  590MOL0     H81378   2.958   6.556   7.198  0.8885 -1.3332  0.7682
  590MOL0     H81379   3.167   6.461   7.176  0.8122  2.6898 -1.6176
  590MOL0     H81380   3.235   6.424   7.334 -0.9054 -1.3412 -0.7019
  590MOL0     H81381   3.305   6.560   7.227  0.3911  0.0983  1.6397
  590MOL0     H81382   3.400   6.341   7.574  1.5577 -2.8505  3.7050
  590MOL0     H81383   3.574   6.245   7.717  3.7020 -0.7650 -0.2867
  590MOL0     H81384   3.929   6.499   7.859  1.6164 -1.0350  2.1810
  590MOL0     H81385   3.783   6.547   7.950  0.1417 -1.0881  2.1478
  590MOL0     H81386   3.917   6.297   8.035  0.2865  0.0576  2.9798
  590MOL0     H81387   3.985   6.450   8.085  1.3433 -2.0646  0.7508
  590MOL0     H81388   3.793   6.513   8.209 -2.6964  0.1765 -0.8340
  590MOL0     H81389   3.832   6.348   8.249 -1.2536 -1.4176  0.0058
  590MOL0     H81390   3.632   6.290   8.219  0.7507  1.2426  2.0635
  590MOL0     H81391   3.647   6.317   8.043  1.6899 -2.6320  1.7612
  590MOL0     H81392   3.547   6.499   8.260 -0.3745  1.8595 -1.2618
  590MOL0     H81393   3.590   6.565   8.098  0.9598  0.4082  1.2161
  590MOL0     H81394   3.364   6.351   8.162 -1.0118 -2.4631 -2.9179
  590MOL0     H81395   3.424   6.389   8.004 -0.2095  0.1808 -0.1676
  590MOL0     H81396   3.268   6.583   8.176  0.6831 -2.0146  2.0026
  590MOL0     H81397   3.213   6.494   8.032 -2.0050  1.0218  2.1942
  590MOL0     H81398   3.400   6.605   7.908 -2.1633  1.6439 -1.5313
  590MOL0     H81399   3.420   6.725   8.042  0.1647 -1.1574  3.0001
  590MOL0     H81400   3.739   6.640   7.767  1.0921 -1.2351 -1.4965
  590MOL0     H81401   3.567   6.732   7.623  0.8977 -0.8253 -1.4055
  590MOL0     H81402   3.122   6.887   7.521  0.3318  0.3434 -1.1366
  590MOL0     H81403   2.890   6.910   7.413  0.7336  1.5919  1.1746
  590MOL0     H81404   1.281   7.657   7.393  0.6872  0.4268  2.8514
  590MOL0     H81405   1.043   7.702   7.378  1.7459  0.5369 -3.4268
  590MOL0     H81406   0.698   7.829   7.598  3.3682  2.0622  2.0389
  590MOL0     H81407   0.463   7.838   7.653  0.7424 -0.3777  1.1603
  590MOL0     H81408   0.242   8.224   7.699 -1.3007  0.5459  1.0306
  590MOL0     H81409   0.203   8.201   7.520  1.2596  0.8113 -0.1853
  590MOL0     H81410   0.016   8.081   7.559  1.7347  0.3857 -0.8925
  590MOL0     H81411   0.012   8.217   7.663 -1.0939  0.2073 -0.8144
  590MOL0     H81412   0.062   7.931   7.748 -1.2483 -0.3333  0.9062
  590MOL0     H81413   0.104   8.065   7.845  0.2733  0.0632 -0.0581
  590MOL0     H81414  -0.186   8.023   7.722 -0.9036  0.2431  0.4491
  590MOL0     H81415  -0.139   8.151   7.827 -0.3964  1.3569 -3.5998
  590MOL0     H81416  -0.211   7.841   8.109 -0.7371 -2.4694  0.2083
  590MOL0     H81417   0.434   8.230   7.488 -1.9941 -0.7263 -0.2838
  590MOL0     H81418   0.710   8.230   7.318 -2.0645  1.6207 -1.2187
  590MOL0     H81419   0.604   8.336   7.403 -1.8737 -1.1076  4.6545
  590MOL0     H81420   0.757   8.304   7.482 -0.3980  1.8867  0.1144
  591MOL0     O81421   4.861   6.862   4.769  0.0656  0.1251  0.4148
  591MOL0     C81422   4.784   6.929   4.699 -0.2912  0.6318  0.5030
  591MOL0     O81423   4.817   7.046   4.648 -0.0353  0.7536 -0.3220
  591MOL0     C81424   4.939   7.120   4.663  0.5594 -0.4950 -0.3452
  591MOL0     C81425   4.945   7.237   4.588  0.0386  0.6490 -0.0854
  591MOL0     C81426   5.057   7.317   4.582 -0.8782 -0.0546 -0.2380
  591MOL0     C81427   5.172   7.285   4.667 -0.2870 -0.5044  0.0557
  591MOL0     O81428   5.290   7.350   4.665 -0.4274 -0.1363 -0.1826
  591MOL0     C81429   5.285   7.474   4.586 -0.2525 -0.2558  0.3114
  591MOL0     C81430   5.403   7.556   4.625 -0.0330  0.6377 -0.6834
  591MOL0     C81431   5.446   7.645   4.511 -0.1632 -1.1101 -0.4979
  591MOL0     C81432   5.587   7.696   4.539  0.0668  0.1913  0.0489
  591MOL0     C81433   5.638   7.792   4.438 -0.5868 -1.0976  0.4325
  591MOL0     C81434   5.789   7.824   4.466  0.1545  0.0453 -0.4909
  591MOL0     C81435   5.838   7.928   4.372 -0.9379 -0.3620  0.7411
  591MOL0     C81436   5.992   7.941   4.387 -0.3040  0.7521 -0.4780
  591MOL0     N81437   6.048   8.047   4.297 -0.5696 -0.6254 -0.6948
  591MOL0     C81438   6.173   8.102   4.332  0.2358  0.2178 -0.1686
  591MOL0     C81439   6.171   8.219   4.258  0.6870 -0.3239  0.8348
  591MOL0     C81440   6.281   8.323   4.265 -0.2655  1.2908 -0.7131
  591MOL0     C81441   6.360   8.321   4.135  0.6238  0.3174 -1.5244
  591MOL0     C81442   6.462   8.423   4.144  0.3927  0.3111  0.0440
  591MOL0     C81443   6.495   8.476   4.009 -0.3115  0.3107  0.7232
  591MOL0     O81444   6.578   8.588   4.029 -0.3421 -0.0651 -0.5207
  591MOL0     C81445   6.676   8.619   3.937  0.8668 -0.7209 -0.4318
  591MOL0     C81446   6.671   8.582   3.804 -0.3462  0.2275  0.3766
  591MOL0     C81447   6.780   8.594   3.719  0.8083 -0.2390 -0.2296
  591MOL0     C81448   6.767   8.532   3.581 -0.3073  0.0242  0.0665
  591MOL0     C81449   6.899   8.657   3.765 -0.0486  0.3770 -0.4243
  591MOL0     C81450   7.024   8.685   3.687 -0.2254 -0.0001 -0.5488
  591MOL0     O81451   7.099   8.797   3.719 -0.7017 -0.1709  0.3144
  591MOL0     C81452   7.183   8.832   3.616  0.1282 -0.3065 -0.1700
  591MOL0     C81453   7.143   8.871   3.487  0.2638 -0.2488 -0.3187
  591MOL0     C81454   7.239   8.884   3.391  0.8095  0.4236 -0.4690
  591MOL0     C81455   7.375   8.861   3.405 -0.1828 -1.0875  0.0144
  591MOL0     O81456   7.464   8.887   3.305 -0.3855  0.0632  0.6125
  591MOL0     C81457   7.570   8.801   3.272  0.8761  0.3860 -0.4419
  591MOL0     C81458   7.609   8.806   3.121  0.9252  0.1824 -0.5012
  591MOL0     C81459   7.707   8.691   3.082  0.0814  0.6725 -0.3933
  591MOL0     C81460   7.839   8.690   3.152  0.7496  0.1795 -0.6488
  591MOL0     C81461   7.924   8.578   3.091 -0.5388  0.3429  0.6955
  591MOL0     C81462   8.039   8.550   3.197  0.2683  0.0785 -0.0014
  591MOL0     C81463   8.116   8.663   3.246  0.3356  0.2367 -1.0253
  591MOL0     C81464   8.232   8.636   3.346  0.1530  0.0047  0.2345
  591MOL0    Cl81465   8.346   8.780   3.323  0.0988 -0.0779 -0.3607
  591MOL0     C81466   7.415   8.820   3.532  0.0335  0.3435  0.3846
  591MOL0     C81467   7.322   8.813   3.637 -0.1054  0.1083  0.1901
  591MOL0     O81468   7.059   8.597   3.614  0.1395  0.9832  0.1536
  591MOL0     C81469   6.894   8.715   3.890 -0.5682 -1.1194  0.4288
  591MOL0     C81470   6.792   8.690   3.980 -0.3341 -0.6052 -0.1093
  591MOL0     N81471   6.056   8.228   4.178  0.1987  0.4553 -0.8074
  591MOL0     N81472   5.980   8.134   4.218 -0.0767 -0.7913  0.5257
  591MOL0     C81473   5.163   7.167   4.742 -0.9000 -0.3876  0.2902
  591MOL0     C81474   5.054   7.091   4.742 -1.0410  0.8919  0.3331
  591MOL0     C81475   4.661   6.857   4.656  0.7331 -0.4663  0.0776
  591MOL0     C81476   4.620   6.884   4.526 -0.2884  0.1050 -0.1900
  591MOL0     C81477   4.503   6.828   4.472  0.3460  0.4668 -0.0966
  591MOL0     C81478   4.425   6.741   4.548 -1.3975 -0.8974  0.5887
  591MOL0     O81479   4.310   6.689   4.495  0.0840  0.4865  0.7086
  591MOL0     C81480   4.183   6.717   4.556 -0.0041 -0.0871 -0.7751
  591MOL0     C81481   4.158   6.863   4.572 -0.2680  0.1948  0.2898
  591MOL0     C81482   4.143   6.936   4.444 -0.2450 -0.5368 -0.1660
  591MOL0     C81483   4.133   7.092   4.436  0.6434  0.1900  0.5920
  591MOL0     C81484   4.143   7.135   4.296 -0.1194  0.3213 -0.4757
  591MOL0     C81485   4.157   7.190   4.190  0.0238  0.3257 -0.7583
  591MOL0     C81486   4.455   6.724   4.686 -1.0260 -0.1534  1.3496
  591MOL0     C81487   4.568   6.786   4.738  0.6907  0.2226 -0.1148
  591MOL0     C81488   4.597   6.767   4.885  0.0885  0.2502 -0.4940
  591MOL0     H81489   4.853   7.265   4.536 -1.2786 -1.2818  1.0669
  591MOL0     H81490   5.059   7.400   4.512 -1.0654 -0.2858 -0.5201
  591MOL0     H81491   5.194   7.528   4.614  0.7687  1.7780 -0.0893
  591MOL0     H81492   5.293   7.470   4.477 -1.3104  1.0007  0.1672
  591MOL0     H81493   5.389   7.607   4.720  2.6940 -1.2725  0.8688
  591MOL0     H81494   5.485   7.488   4.650  1.3438  3.0223  1.7001
  591MOL0     H81495   5.465   7.598   4.414  1.6005 -0.2051 -0.6485
  591MOL0     H81496   5.377   7.730   4.510  0.0347 -0.8321  2.4901
  591MOL0     H81497   5.571   7.746   4.635  0.3344 -1.2969  0.9101
  591MOL0     H81498   5.665   7.621   4.558  1.2235  1.1368 -0.8748
  591MOL0     H81499   5.594   7.893   4.436  2.3070  0.3354  2.1419
  591MOL0     H81500   5.630   7.751   4.338 -3.1574  1.0061 -0.3475
  591MOL0     H81501   5.795   7.873   4.563 -2.6649  0.0842 -0.2482
  591MOL0     H81502   5.850   7.734   4.475 -0.2054 -0.1689 -0.1312
  591MOL0     H81503   5.778   8.019   4.384 -1.5693 -0.8817  1.6952
  591MOL0     H81504   5.814   7.902   4.268  1.6518  3.2241 -0.9607
  591MOL0     H81505   6.030   7.964   4.488  0.5122 -2.3177  0.0170
  591MOL0     H81506   6.035   7.843   4.365  0.3054  1.5225 -3.0308
  591MOL0     H81507   6.247   8.075   4.408  0.0364  3.3015  1.2739
  591MOL0     H81508   6.347   8.289   4.345 -1.5752 -0.9617 -0.4748
  591MOL0     H81509   6.248   8.423   4.294 -0.2854  1.6481 -1.9200
  591MOL0     H81510   6.394   8.218   4.121 -1.2581 -1.3317  3.8395
  591MOL0     H81511   6.293   8.337   4.049 -1.2569 -2.3425 -0.6825
  591MOL0     H81512   6.438   8.506   4.212  3.2691  2.1003 -0.9185
  591MOL0     H81513   6.548   8.372   4.189  0.0174 -2.1382 -1.8648
  591MOL0     H81514   6.545   8.399   3.950  1.3855  0.9839  1.2213
  591MOL0     H81515   6.404   8.502   3.954  0.8109  2.3531 -0.2974
  591MOL0     H81516   6.575   8.547   3.767  0.3051  0.1566 -1.3088
  591MOL0     H81517   6.668   8.534   3.535  0.3339 -1.7607 -1.5729
  591MOL0     H81518   6.793   8.426   3.572  2.1305  0.5600  0.0329
  591MOL0     H81519   6.830   8.576   3.503  2.5179  1.1333  2.7513
  591MOL0     H81520   7.040   8.869   3.454  0.3459 -2.0560 -0.5935
  591MOL0     H81521   7.206   8.925   3.296 -1.7737  0.8750  0.5353
  591MOL0     H81522   7.650   8.824   3.343 -0.4872 -1.1174  1.7017
  591MOL0     H81523   7.546   8.697   3.293  0.3025  0.9731  2.2356
  591MOL0     H81524   7.518   8.804   3.060  0.7623  1.4571 -0.3280
  591MOL0     H81525   7.645   8.908   3.105 -2.8148  1.8724  0.7536
  591MOL0     H81526   7.725   8.698   2.974  0.2012 -1.2412 -0.5361
  591MOL0     H81527   7.660   8.593   3.097  3.6871 -0.8557  2.3186
  591MOL0     H81528   7.817   8.659   3.255  0.2429  0.2128 -0.7434
  591MOL0     H81529   7.885   8.788   3.138 -0.2438  0.3745 -3.0529
  591MOL0     H81530   7.861   8.489   3.088 -0.8750  0.5890  0.1968
  591MOL0     H81531   7.953   8.598   2.987 -2.2755  0.4060  0.1918
  591MOL0     H81532   8.105   8.471   3.160  1.1601 -0.4269  2.5185
  591MOL0     H81533   7.991   8.499   3.281  1.2480  0.8451  1.0465
  591MOL0     H81534   8.042   8.731   3.291 -1.7093 -3.1262  1.1824
  591MOL0     H81535   8.156   8.714   3.159 -1.0019  1.9062 -0.7207
  591MOL0     H81536   8.286   8.544   3.324 -0.1103 -0.2057  0.4571
  591MOL0     H81537   8.194   8.632   3.449  0.9107 -3.7999  0.5009
  591MOL0     H81538   7.519   8.799   3.552 -0.4008 -0.8475  1.5644
  591MOL0     H81539   7.366   8.775   3.728  0.3132  1.2169  0.4640
  591MOL0     H81540   6.978   8.772   3.928 -3.5324  3.4394  0.8938
  591MOL0     H81541   6.800   8.731   4.080 -1.3339 -0.8684  0.0914
  591MOL0     H81542   5.253   7.142   4.798 -0.1055 -1.2612 -1.3206
  591MOL0     H81543   5.071   7.009   4.811 -0.9505  1.2375  0.7256
  591MOL0     H81544   4.676   6.946   4.457  2.3134 -1.2161  0.6009
  591MOL0     H81545   4.485   6.838   4.365 -1.2748 -2.7500 -0.2674
  591MOL0     H81546   4.113   6.660   4.495 -0.4216 -0.0784 -0.3167
  591MOL0     H81547   4.177   6.677   4.658  1.1460 -0.5587 -0.8778
  591MOL0     H81548   4.240   6.916   4.621 -0.3357  0.9301 -0.3804
  591MOL0     H81549   4.070   6.866   4.637 -1.1388  0.3027 -0.8745
  591MOL0     H81550   4.223   6.918   4.371  0.7669  0.5288  0.6537
  591MOL0     H81551   4.049   6.901   4.398  0.0977  1.1552 -2.3104
  591MOL0     H81552   4.209   7.135   4.503 -0.8493  0.0344  2.4869
  591MOL0     H81553   4.031   7.116   4.469  0.5114  0.1745  0.1993
  591MOL0     H81554   4.181   7.236   4.096  0.3497 -1.5683 -1.6438
  591MOL0     H81555   4.398   6.657   4.751  1.1980 -1.4809  2.0276
  591MOL0     H81556   4.652   6.673   4.898  1.5739  1.0136 -1.1542
  591MOL0     H81557   4.649   6.853   4.926  0.9531  0.2785 -1.6095
  591MOL0     H81558   4.511   6.757   4.952 -0.1923 -0.4717 -0.9409
  592MOL0     O81559   7.380   6.193   1.731 -0.0487 -0.7952 -0.3570
  592MOL0     C81560   7.321   6.246   1.822  0.9714 -0.6221  0.5287
  592MOL0     O81561   7.202   6.206   1.868 -0.7289  0.3882 -0.6138
  592MOL0     C81562   7.104   6.160   1.787 -0.1473 -0.1980  0.4608
  592MOL0     C81563   7.004   6.092   1.855  0.6991  0.0394 -0.1763
  592MOL0     C81564   6.886   6.045   1.783 -0.6811 -0.0723  0.1557
  592MOL0     C81565   6.867   6.061   1.643  0.1688  0.7521  0.0656
  592MOL0     O81566   6.749   6.019   1.574 -0.2673 -0.2539 -0.3879
  592MOL0     C81567   6.695   5.897   1.637  0.4669 -0.3695 -0.3784
  592MOL0     C81568   6.631   5.825   1.525  0.4113 -0.3926 -0.0723
  592MOL0     C81569   6.552   5.700   1.569 -0.9153 -0.1136  1.0162
  592MOL0     C81570   6.564   5.601   1.454  0.6687  0.5394  1.4659
  592MOL0     C81571   6.504   5.459   1.494 -0.9864 -0.8407  0.1760
  592MOL0     C81572   6.353   5.446   1.518 -0.1176  0.0877 -0.1444
  592MOL0     C81573   6.317   5.329   1.605  0.2160  0.0262 -0.6402
  592MOL0     C81574   6.344   5.190   1.540 -1.3176 -0.3135 -0.4084
  592MOL0     N81575   6.483   5.152   1.570  0.4102  0.7447 -0.4133
  592MOL0     C81576   6.521   5.102   1.697  0.4874  0.3806  0.0582
  592MOL0     C81577   6.636   5.034   1.672  0.2958 -0.4959  0.2331
  592MOL0     C81578   6.714   4.944   1.771  0.0962 -0.4956  0.9948
  592MOL0     C81579   6.866   4.944   1.748  1.0905 -0.4716 -0.3904
  592MOL0     C81580   6.951   5.059   1.786 -0.5125  0.5004  0.9124
  592MOL0     C81581   6.935   5.179   1.680  0.3210  0.3718 -0.0050
  592MOL0     O81582   7.036   5.285   1.672 -0.0036 -0.1321 -0.8177
  592MOL0     C81583   7.169   5.254   1.667 -0.4655 -0.2734  0.1476
  592MOL0     C81584   7.237   5.141   1.625  0.0305  0.3201  0.4278
  592MOL0     C81585   7.381   5.140   1.622  0.6607  1.1074  0.1459
  592MOL0     C81586   7.435   5.002   1.577  0.3557 -0.0144  0.6121
  592MOL0     C81587   7.463   5.253   1.646  0.3577  0.4567 -0.3519
  592MOL0     C81588   7.610   5.258   1.637 -0.1622  0.5712 -0.5370
  592MOL0     O81589   7.666   5.366   1.699 -0.4676  0.2331 -0.3353
  592MOL0     C81590   7.794   5.372   1.744  0.2231  0.7793  0.3988
  592MOL0     C81591   7.864   5.249   1.779  0.9987  0.3932  0.7783
  592MOL0     C81592   7.998   5.251   1.832 -0.7838  0.4491 -0.1671
  592MOL0     C81593   8.062   5.376   1.845 -0.3557  0.2391  0.9123
  592MOL0     O81594   8.193   5.367   1.891  0.1920 -0.0200 -0.7623
  592MOL0     C81595   8.224   5.483   1.974 -0.4664  0.3274  0.2367
  592MOL0     C81596   8.333   5.466   2.077 -0.4836  0.5281 -0.3199
  592MOL0     C81597   8.468   5.409   2.009  0.3530  0.1841 -0.0287
  592MOL0     C81598   8.571   5.360   2.110  0.3673 -0.1373 -0.9479
  592MOL0     C81599   8.687   5.299   2.026  0.3849 -1.0515 -0.9244
  592MOL0     C81600   8.786   5.226   2.117  0.3952 -0.6763 -0.0604
  592MOL0     C81601   8.918   5.205   2.040 -1.3424  0.5581 -0.0990
  592MOL0     C81602   9.025   5.150   2.137 -0.2720 -0.3739 -0.8983
  592MOL0    Cl81603   9.056   5.281   2.254  0.0077  0.2340  0.2726
  592MOL0     C81604   7.993   5.489   1.797  0.7018 -0.8097  0.0711
  592MOL0     C81605   7.864   5.487   1.747  0.4813  0.2916  1.0178
  592MOL0     O81606   7.670   5.173   1.576 -0.2165 -0.0904 -0.1450
  592MOL0     C81607   7.389   5.372   1.668  0.0987 -0.5866  0.3156
  592MOL0     C81608   7.246   5.371   1.694 -0.2226 -0.3098  0.9045
  592MOL0     N81609   6.669   5.055   1.534 -0.7561 -0.7843  0.2314
  592MOL0     N81610   6.573   5.123   1.477 -0.8474  0.9603  0.1774
  592MOL0     C81611   6.975   6.129   1.578  0.1753 -0.7530  0.6609
  592MOL0     C81612   7.090   6.182   1.650 -0.5493  0.3245 -0.3313
  592MOL0     C81613   7.396   6.343   1.895  0.3802 -0.3410 -0.0518
  592MOL0     C81614   7.529   6.325   1.910 -0.0662 -0.3262  0.0388
  592MOL0     C81615   7.612   6.416   1.977  0.1577 -0.8638 -0.6226
  592MOL0     C81616   7.557   6.523   2.031  0.0754  0.1803 -0.0282
  592MOL0     O81617   7.639   6.620   2.082 -0.0096  0.5092 -0.4709
  592MOL0     C81618   7.662   6.592   2.223 -0.1962  0.0185  0.0743
  592MOL0     C81619   7.781   6.496   2.247 -0.9915  0.0868  0.9164
  592MOL0     C81620   7.816   6.464   2.387 -0.8737  0.7011  0.2992
  592MOL0     C81621   7.718   6.374   2.464 -0.1187  0.1771 -0.4695
  592MOL0     C81622   7.741   6.382   2.613  0.4392  0.1193  0.7274
  592MOL0     C81623   7.755   6.402   2.728  0.2221 -0.4681 -1.1195
  592MOL0     C81624   7.421   6.553   2.023  0.3546 -0.0682  0.6347
  592MOL0     C81625   7.336   6.465   1.952  0.1867  0.7813 -0.8009
  592MOL0     C81626   7.184   6.494   1.941 -0.3136  0.0301 -0.1253
  592MOL0     H81627   7.009   6.087   1.964  0.2626 -3.1067 -0.2077
  592MOL0     H81628   6.807   6.003   1.845 -0.6474 -1.4815 -0.7348
  592MOL0     H81629   6.633   5.918   1.724 -0.3092  0.5357 -1.1285
  592MOL0     H81630   6.773   5.827   1.668  1.9661  0.9644 -1.0000
  592MOL0     H81631   6.560   5.897   1.486  1.2523  1.1122  1.0611
  592MOL0     H81632   6.707   5.809   1.448 -0.9946 -2.6732 -1.1034
  592MOL0     H81633   6.600   5.671   1.663  3.7952  5.6061  0.9346
  592MOL0     H81634   6.448   5.726   1.589 -0.9304  0.8798 -0.2288
  592MOL0     H81635   6.512   5.640   1.366  2.1781  0.0869  0.3257
  592MOL0     H81636   6.667   5.580   1.423  0.9026 -0.2280  2.6773
  592MOL0     H81637   6.544   5.436   1.593  0.5117 -0.0840 -0.2277
  592MOL0     H81638   6.542   5.384   1.425 -0.4196 -0.8571  0.4992
  592MOL0     H81639   6.311   5.542   1.549 -0.9097  0.3365 -1.8796
  592MOL0     H81640   6.311   5.428   1.419  5.1120 -5.5859 -1.9385
  592MOL0     H81641   6.209   5.336   1.624  0.6986 -0.6702  3.0747
  592MOL0     H81642   6.371   5.342   1.699 -0.9529  0.8627 -0.0625
  592MOL0     H81643   6.288   5.112   1.593 -0.3216  0.0032  1.1598
  592MOL0     H81644   6.323   5.178   1.433  1.1785 -0.0317 -0.9920
  592MOL0     H81645   6.460   5.115   1.785 -1.5821 -0.0938 -1.2406
  592MOL0     H81646   6.695   4.840   1.744  5.2673 -0.4722 -4.8778
  592MOL0     H81647   6.682   4.957   1.875  1.4095 -2.1255  1.6404
  592MOL0     H81648   6.909   4.866   1.812 -0.8774 -0.9926  0.3500
  592MOL0     H81649   6.887   4.925   1.642  0.4091  0.9034 -0.7970
  592MOL0     H81650   6.924   5.088   1.888  0.7751  1.1166  1.0945
  592MOL0     H81651   7.054   5.021   1.781 -1.3439 -1.7408 -2.2090
  592MOL0     H81652   6.942   5.131   1.582  0.2461  1.4068 -0.5295
  592MOL0     H81653   6.838   5.224   1.699  0.7463  1.2715  0.0806
  592MOL0     H81654   7.181   5.058   1.584 -1.6816  1.6844 -0.1239
  592MOL0     H81655   7.540   4.982   1.602  0.3368  1.7850  2.3952
  592MOL0     H81656   7.422   4.995   1.468  1.5030 -1.0508  0.5174
  592MOL0     H81657   7.369   4.926   1.619 -1.7208 -0.0271 -2.3305
  592MOL0     H81658   7.816   5.153   1.765 -1.0486  1.4691 -0.0297
  592MOL0     H81659   8.053   5.158   1.850 -4.0768 -1.4955  0.7180
  592MOL0     H81660   8.263   5.558   1.906  2.2301 -1.5426 -0.4334
  592MOL0     H81661   8.128   5.509   2.021 -0.4611 -1.6730  1.4819
  592MOL0     H81662   8.360   5.554   2.136  1.6374 -0.9696  1.0987
  592MOL0     H81663   8.302   5.384   2.142 -2.2778  0.6840 -0.9465
  592MOL0     H81664   8.517   5.490   1.953  0.4915  1.3862  1.7470
  592MOL0     H81665   8.443   5.324   1.946  2.5615 -1.4728  1.1796
  592MOL0     H81666   8.543   5.286   2.185  2.7709 -0.6609 -0.5127
  592MOL0     H81667   8.605   5.454   2.155  1.1472  0.4534 -2.6807
  592MOL0     H81668   8.641   5.229   1.957 -2.6124  1.3878 -1.6103
  592MOL0     H81669   8.732   5.377   1.964  1.8202 -2.1508 -1.3316
  592MOL0     H81670   8.761   5.125   2.151  1.4987 -0.7487  0.6066
  592MOL0     H81671   8.804   5.285   2.207  0.4361  0.2047 -0.6412
  592MOL0     H81672   8.953   5.293   1.985 -1.2196  0.4823 -0.1418
  592MOL0     H81673   8.898   5.121   1.972  0.7630  0.5853 -0.8190
  592MOL0     H81674   9.119   5.118   2.092  0.1513 -1.2336  0.5193
  592MOL0     H81675   8.996   5.058   2.189  1.6929 -0.2753  0.4816
  592MOL0     H81676   8.034   5.589   1.786 -0.3178 -0.4446 -0.6121
  592MOL0     H81677   7.805   5.570   1.711 -0.0498 -0.2869  0.5320
  592MOL0     H81678   7.438   5.468   1.680  2.0415 -1.7975  3.6224
  592MOL0     H81679   7.192   5.463   1.715  3.1252  3.0836 -3.3983
  592MOL0     H81680   6.970   6.159   1.474  0.3618 -1.0221  0.5734
  592MOL0     H81681   7.168   6.227   1.590  2.5380  0.5972  3.5130
  592MOL0     H81682   7.581   6.234   1.879 -0.3868 -0.3113 -0.5752
  592MOL0     H81683   7.718   6.396   1.983  0.3771 -1.9787 -4.8265
  592MOL0     H81684   7.687   6.692   2.260  0.8409  0.0760 -0.7228
  592MOL0     H81685   7.572   6.549   2.268  1.5770 -1.8541  2.0406
  592MOL0     H81686   7.871   6.527   2.193 -1.6779  0.5903  0.0281
  592MOL0     H81687   7.754   6.402   2.198  1.1822  0.6418 -1.5996
  592MOL0     H81688   7.912   6.412   2.390  0.0444  2.0882 -1.8931
  592MOL0     H81689   7.833   6.558   2.441 -1.5772  0.4042  1.0620
  592MOL0     H81690   7.731   6.273   2.425 -1.4093 -0.6486  1.1436
  592MOL0     H81691   7.615   6.401   2.438  0.5250  0.6178 -2.8086
  592MOL0     H81692   7.767   6.418   2.833 -0.5188 -0.5063 -1.0200
  592MOL0     H81693   7.382   6.650   2.052  0.4232  0.3153 -0.4823
  592MOL0     H81694   7.147   6.447   2.033  0.9145  1.2982  1.0616
  592MOL0     H81695   7.167   6.601   1.952  0.7706  0.1552  0.4371
  592MOL0     H81696   7.143   6.459   1.846  0.9179 -2.4107  0.1676
  593MOL0     O81697   9.307   5.956  11.214  0.7023  0.4621 -0.6078
  593MOL0     C81698   9.272   5.877  11.129 -0.0830  0.3548 -0.0518
  593MOL0     O81699   9.343   5.757  11.114 -0.3622  0.3362 -0.6826
  593MOL0     C81700   9.466   5.733  11.184 -0.3141 -0.5976  0.5000
  593MOL0     C81701   9.478   5.631  11.277  0.4392  0.3350 -0.1882
  593MOL0     C81702   9.591   5.616  11.362  0.2308  0.1399 -0.2141
  593MOL0     C81703   9.701   5.700  11.336 -0.3043 -0.6589 -0.3308
  593MOL0     O81704   9.816   5.687  11.409  0.3209 -0.5182 -0.3533
  593MOL0     C81705   9.842   5.566  11.485  0.4153  0.0908 -0.4572
  593MOL0     C81706   9.996   5.566  11.511  1.2139  0.1996 -0.3137
  593MOL0     C81707  10.046   5.422  11.534 -0.5612 -0.7018  0.3024
  593MOL0     C81708  10.187   5.411  11.597  0.0705  0.8916  0.6429
  593MOL0     C81709  10.225   5.259  11.585  0.7560  0.1901  0.4036
  593MOL0     C81710  10.341   5.220  11.673  1.3113  0.2044 -0.5175
  593MOL0     C81711  10.465   5.276  11.624 -1.2180 -1.0251  0.4461
  593MOL0     C81712  10.578   5.218  11.711 -0.1971 -0.3121 -0.2806
  593MOL0     N81713  10.651   5.117  11.625 -0.5773 -0.0167 -0.0253
  593MOL0     C81714  10.603   4.988  11.596  0.1165 -0.1220 -0.3589
  593MOL0     C81715  10.700   4.934  11.517  0.2692 -0.4029 -0.5159
  593MOL0     C81716  10.708   4.799  11.448 -0.3564  0.0904  0.3970
  593MOL0     C81717  10.623   4.822  11.328  0.1954 -0.3619 -0.2735
  593MOL0     C81718  10.627   4.701  11.235  0.2991  0.0868  0.2004
  593MOL0     C81719  10.542   4.730  11.104  0.5411 -0.4546  0.3569
  593MOL0     O81720  10.407   4.690  11.134 -0.3660  0.5474  0.2135
  593MOL0     C81721  10.302   4.737  11.050 -0.8839  0.0149 -0.4277
  593MOL0     C81722  10.324   4.823  10.939 -0.5565 -0.4578 -0.2188
  593MOL0     C81723  10.213   4.860  10.863  0.4045 -1.0406 -0.1424
  593MOL0     C81724  10.230   4.954  10.750 -0.3204 -0.2446  0.6372
  593MOL0     C81725  10.078   4.812  10.898 -1.3809 -0.5320  0.2002
  593MOL0     C81726   9.961   4.852  10.827  0.4984  0.5705  0.1101
  593MOL0     O81727   9.897   4.961  10.880 -0.1740  0.7176  0.3336
  593MOL0     C81728   9.777   4.996  10.829  0.5901  0.0044  0.1804
  593MOL0     C81729   9.653   4.966  10.894 -0.2809  0.0008 -0.0729
  593MOL0     C81730   9.536   5.010  10.821 -0.1461  0.7102 -0.9615
  593MOL0     C81731   9.546   5.082  10.707  0.7148  0.0064  0.8207
  593MOL0     O81732   9.427   5.130  10.648  1.2079  0.0323 -0.5504
  593MOL0     C81733   9.421   5.254  10.582  0.2289 -0.0836  0.1561
  593MOL0     C81734   9.476   5.377  10.653  0.8013 -0.9808  0.1573
  593MOL0     C81735   9.432   5.504  10.570 -0.4641 -0.1686  0.9817
  593MOL0     C81736   9.298   5.514  10.493  0.6070 -0.0210 -0.5324
  593MOL0     C81737   9.281   5.653  10.432  0.1949  0.3892  0.3944
  593MOL0     C81738   9.260   5.764  10.543 -0.1338 -0.2535  0.5786
  593MOL0     C81739   9.226   5.898  10.490  0.2499 -0.1445  0.0793
  593MOL0     C81740   9.317   5.961  10.371  0.0114 -0.8773 -0.4786
  593MOL0    Cl81741   9.268   6.135  10.345 -0.5997  0.2000  0.4472
  593MOL0     C81742   9.670   5.110  10.649  0.2470 -0.0643  0.3341
  593MOL0     C81743   9.782   5.061  10.705 -0.3480 -0.7424  0.1582
  593MOL0     O81744   9.923   4.785  10.733  0.6491 -0.0093 -0.2289
  593MOL0     C81745  10.065   4.728  11.007 -0.6799  0.4910  0.4267
  593MOL0     C81746  10.178   4.687  11.078  0.4091  0.1298 -1.1629
  593MOL0     N81747  10.799   5.034  11.501  0.8809 -0.1851 -0.9704
  593MOL0     N81748  10.766   5.144  11.566  0.5829  0.8979  0.0496
  593MOL0     C81749   9.700   5.802  11.237  0.0792 -0.1123 -0.2680
  593MOL0     C81750   9.576   5.824  11.178 -0.9748 -0.9169 -0.5027
  593MOL0     C81751   9.165   5.912  11.027  0.1715  0.4521 -0.1317
  593MOL0     C81752   9.148   5.823  10.923 -0.1975  1.0106 -0.2378
  593MOL0     C81753   9.039   5.832  10.835 -0.0671 -0.6523 -0.4513
  593MOL0     C81754   8.944   5.932  10.853 -0.7148  0.0261 -0.1274
  593MOL0     O81755   8.834   5.932  10.767 -0.0841  0.3090 -0.7637
  593MOL0     C81756   8.799   6.056  10.715 -0.1714  0.4369 -0.2258
  593MOL0     C81757   8.730   6.043  10.580 -0.5797 -0.3073  0.2317
  593MOL0     C81758   8.830   5.989  10.475 -0.1793 -0.0925 -0.5146
  593MOL0     C81759   8.766   5.962  10.337  1.3393 -0.5500 -0.3515
  593MOL0     C81760   8.849   5.881  10.244  0.1123 -0.1482 -0.8021
  593MOL0     C81761   8.924   5.806  10.185 -0.2163 -0.1339  0.4035
  593MOL0     C81762   8.975   6.027  10.948  0.7071 -1.2868  1.0107
  593MOL0     C81763   9.081   6.023  11.037  0.0790 -0.9831 -0.3274
  593MOL0     C81764   9.109   6.145  11.127  0.6531 -0.9141  0.4208
  593MOL0     H81765   9.397   5.562  11.299  1.9172 -1.0353  1.2198
  593MOL0     H81766   9.591   5.533  11.432  0.5274  0.1669 -0.1811
  593MOL0     H81767   9.809   5.481  11.424  3.5451 -0.9994 -0.8268
  593MOL0     H81768   9.779   5.566  11.574 -1.3126 -0.5467 -1.6228
  593MOL0     H81769  10.053   5.608  11.428  2.4332 -0.6989  0.0286
  593MOL0     H81770  10.017   5.634  11.594 -2.7814  0.8800  0.3086
  593MOL0     H81771   9.968   5.365  11.586 -1.2703 -1.2864 -1.3269
  593MOL0     H81772  10.044   5.368  11.439 -3.6247  1.2915 -0.9262
  593MOL0     H81773  10.267   5.464  11.544 -0.3026 -1.7047 -2.8366
  593MOL0     H81774  10.175   5.435  11.703  0.0985 -1.3519  1.2120
  593MOL0     H81775  10.244   5.235  11.481 -1.3612  3.2153 -0.8277
  593MOL0     H81776  10.136   5.204  11.618 -0.4101  1.2764 -0.8407
  593MOL0     H81777  10.326   5.256  11.776  0.1848 -3.4697  0.7523
  593MOL0     H81778  10.349   5.111  11.674  0.7218  0.0372 -3.9565
  593MOL0     H81779  10.457   5.384  11.635  0.0145 -0.9203  0.4637
  593MOL0     H81780  10.483   5.265  11.517 -2.0895  1.1897  0.0373
  593MOL0     H81781  10.648   5.297  11.739 -0.2560 -0.8664  1.5100
  593MOL0     H81782  10.553   5.167  11.804  2.1647  0.7073  1.0165
  593MOL0     H81783  10.517   4.928  11.622  0.6695 -0.6263  0.3561
  593MOL0     H81784  10.673   4.713  11.506 -1.4733  0.1730 -0.1417
  593MOL0     H81785  10.810   4.773  11.417 -0.9201 -0.5104 -1.0258
  593MOL0     H81786  10.525   4.834  11.377  1.2467 -0.7221  2.0519
  593MOL0     H81787  10.648   4.918  11.283  4.4017 -2.2074 -2.3645
  593MOL0     H81788  10.732   4.690  11.207  0.3029 -0.1709  0.3077
  593MOL0     H81789  10.584   4.621  11.297  0.2452  0.5722  0.8000
  593MOL0     H81790  10.546   4.835  11.077  0.6608 -0.4692  0.3160
  593MOL0     H81791  10.579   4.669  11.021  2.1586 -0.9475  1.3763
  593MOL0     H81792  10.423   4.859  10.912 -0.2983 -1.2629 -0.3972
  593MOL0     H81793  10.158   4.934  10.670 -1.3681  1.8330  1.0072
  593MOL0     H81794  10.335   4.948  10.717  0.0156  1.2870  1.3454
  593MOL0     H81795  10.206   5.057  10.779  0.2887 -0.1120  0.6868
  593MOL0     H81796   9.638   4.903  10.981  0.7143 -0.8037 -0.4511
  593MOL0     H81797   9.443   4.993  10.873 -0.0152 -1.0088 -1.2351
  593MOL0     H81798   9.462   5.236  10.482  1.6714 -0.1242  0.7348
  593MOL0     H81799   9.317   5.272  10.554  0.3200 -0.3778 -0.3778
  593MOL0     H81800   9.425   5.388  10.750 -1.8351  2.5344 -1.4301
  593MOL0     H81801   9.585   5.381  10.664  0.9359 -1.4093 -0.9104
  593MOL0     H81802   9.500   5.507  10.485 -1.6613  1.7702  0.0471
  593MOL0     H81803   9.443   5.591  10.635  0.9754  0.0082  0.5386
  593MOL0     H81804   9.219   5.497  10.567  0.6348  1.0329 -0.2438
  593MOL0     H81805   9.294   5.445  10.409 -1.2562 -0.0583 -0.4680
  593MOL0     H81806   9.375   5.667  10.377  0.5280 -0.4545  0.7242
  593MOL0     H81807   9.201   5.662  10.357 -1.6013  1.4195  2.3359
  593MOL0     H81808   9.350   5.770  10.607  0.5609  0.1614 -0.4096
  593MOL0     H81809   9.178   5.722  10.601 -1.7732 -1.1267 -2.2332
  593MOL0     H81810   9.213   5.950  10.585 -0.2463 -1.6098  0.8401
  593MOL0     H81811   9.123   5.884  10.456  0.7979 -2.7436 -0.7756
  593MOL0     H81812   9.299   5.906  10.278  0.1101 -1.1659 -0.3275
  593MOL0     H81813   9.423   5.946  10.389  0.2800  1.0136 -0.2929
  593MOL0     H81814   9.667   5.161  10.553 -0.0837  0.8961  0.8367
  593MOL0     H81815   9.881   5.069  10.662 -0.0392 -0.5616  0.8897
  593MOL0     H81816   9.968   4.695  11.042 -0.1677 -0.0056  1.4232
  593MOL0     H81817  10.174   4.635  11.174 -2.0330  2.3606  0.0482
  593MOL0     H81818   9.779   5.866  11.200  0.5529 -1.0995 -1.0131
  593MOL0     H81819   9.565   5.909  11.110  0.1455  0.9308  1.4903
  593MOL0     H81820   9.198   5.727  10.919  1.5505  1.8476  0.5010
  593MOL0     H81821   9.020   5.752  10.763  1.2686 -0.7146 -0.7592
  593MOL0     H81822   8.742   6.113  10.789  0.6005  0.0266  0.7044
  593MOL0     H81823   8.890   6.117  10.706  1.0072 -1.3874 -1.5035
  593MOL0     H81824   8.698   6.143  10.551  1.3587 -0.3590 -2.4870
  593MOL0     H81825   8.647   5.972  10.589  0.3462 -1.5645 -0.9123
  593MOL0     H81826   8.921   6.048  10.461 -1.5730  1.9537 -1.5195
  593MOL0     H81827   8.873   5.898  10.516 -0.0908  1.2244  2.6280
  593MOL0     H81828   8.759   6.061  10.289 -1.2322 -1.4427 -1.9853
  593MOL0     H81829   8.668   5.916  10.350  1.3738 -0.6258 -0.3552
  593MOL0     H81830   8.971   5.739  10.115 -3.0137  0.6126 -2.4360
  593MOL0     H81831   8.900   6.102  10.971  3.0801  1.3472  0.6827
  593MOL0     H81832   9.027   6.217  11.121  1.3259 -0.1821 -0.1571
  593MOL0     H81833   9.110   6.111  11.231 -1.8980  1.8756  1.5202
  593MOL0     H81834   9.208   6.188  11.110 -0.3034  0.9652 -0.7601
  594MOL0     O81835   6.551   1.364  10.437  0.3132  0.3691  1.0740
  594MOL0     C81836   6.557   1.407  10.324 -0.0797  0.3218  0.4463
  594MOL0     O81837   6.612   1.523  10.291 -0.8075 -0.5948  0.9721
  594MOL0     C81838   6.741   1.556  10.341 -0.6011  0.7168 -0.8147
  594MOL0     C81839   6.781   1.688  10.334 -0.1528  0.3555 -0.4583
  594MOL0     C81840   6.908   1.721  10.381 -0.2733  0.1480  0.0713
  594MOL0     C81841   6.997   1.624  10.439 -0.6288 -0.5070  0.6377
  594MOL0     O81842   7.115   1.649  10.508 -0.1681 -0.0212 -0.4462
  594MOL0     C81843   7.106   1.784  10.558  0.9305 -0.3675 -0.6971
  594MOL0     C81844   7.229   1.830  10.634  0.1306  0.4646 -0.3505
  594MOL0     C81845   7.259   1.730  10.746  0.0615  0.6104 -0.0314
  594MOL0     C81846   7.348   1.781  10.849 -0.0752  0.6581  0.9784
  594MOL0     C81847   7.494   1.809  10.804 -0.3777  0.0401 -0.0672
  594MOL0     C81848   7.580   1.863  10.922  0.3030  0.2867  0.0202
  594MOL0     C81849   7.714   1.935  10.889  0.1361 -0.4306 -0.1103
  594MOL0     C81850   7.796   1.839  10.801 -0.1166  0.0658 -0.4707
  594MOL0     N81851   7.933   1.894  10.778  0.9324 -0.0899  0.9296
  594MOL0     C81852   8.051   1.826  10.789 -0.4429 -0.3478 -1.4477
  594MOL0     C81853   8.147   1.906  10.740  0.2998 -0.5071  0.4443
  594MOL0     C81854   8.294   1.873  10.737 -0.2231 -0.4080 -0.1204
  594MOL0     C81855   8.344   1.819  10.598 -0.2159  0.1950  0.0874
  594MOL0     C81856   8.476   1.887  10.557  0.7636 -0.4239 -0.2302
  594MOL0     C81857   8.531   1.828  10.429 -0.5583  0.1824  1.3957
  594MOL0     O81858   8.639   1.912  10.369  0.5033  0.6707 -0.7500
  594MOL0     C81859   8.772   1.880  10.389 -0.1059  0.0493  0.1694
  594MOL0     C81860   8.811   1.787  10.492 -0.1926 -0.3513 -0.0341
  594MOL0     C81861   8.948   1.764  10.525 -0.0510 -0.5492 -0.1143
  594MOL0     C81862   8.976   1.669  10.646  0.7956 -0.1733  0.0363
  594MOL0     C81863   9.044   1.847  10.468 -0.3733 -0.2452 -0.2601
  594MOL0     C81864   9.190   1.859  10.508 -0.2088  0.3777 -0.3347
  594MOL0     O81865   9.282   1.909  10.420 -0.6949  0.5470 -1.1200
  594MOL0     C81866   9.411   1.935  10.464  0.2178 -0.1340  0.4872
  594MOL0     C81867   9.513   1.840  10.459  0.3117 -0.3159  1.2746
  594MOL0     C81868   9.646   1.872  10.504 -1.3325  0.0269  0.3657
  594MOL0     C81869   9.669   1.997  10.568  0.3604 -0.5768 -0.2377
  594MOL0     O81870   9.792   2.050  10.601 -0.4906 -0.1487  0.8396
  594MOL0     C81871   9.918   1.988  10.558  0.7804 -0.1858  0.3686
  594MOL0     C81872  10.039   2.081  10.580 -0.3109 -0.1839 -0.3936
  594MOL0     C81873  10.055   2.127  10.729 -0.0732 -0.0833 -0.2431
  594MOL0     C81874  10.203   2.118  10.755 -1.0955  0.2612 -1.0598
  594MOL0     C81875  10.241   2.189  10.896 -0.0622  0.0531  0.6137
  594MOL0     C81876  10.394   2.187  10.935 -0.1896 -0.9955  0.1083
  594MOL0     C81877  10.442   2.048  10.966  0.3758 -0.0024 -0.7198
  594MOL0     C81878  10.540   2.033  11.081  0.3798 -0.5057 -0.4649
  594MOL0    Cl81879  10.695   2.113  11.038 -0.2855 -0.3622 -0.4002
  594MOL0     C81880   9.560   2.098  10.566 -0.4460  0.3384 -0.4973
  594MOL0     C81881   9.435   2.059  10.527  1.0896  0.1286  0.3518
  594MOL0     O81882   9.214   1.812  10.620 -0.6733 -0.3908  0.6185
  594MOL0     C81883   8.996   1.945  10.366 -0.0549  0.1983 -0.8580
  594MOL0     C81884   8.864   1.956  10.323  0.7256  0.1427 -0.5653
  594MOL0     N81885   8.082   2.023  10.695  0.2121  1.0326 -0.0843
  594MOL0     N81886   7.956   2.017  10.722 -1.3627 -0.1854 -0.2201
  594MOL0     C81887   6.955   1.489  10.429 -0.3341 -0.4948 -0.1109
  594MOL0     C81888   6.831   1.454  10.384 -0.8091 -0.2321  0.2405
  594MOL0     C81889   6.473   1.351  10.224  0.6380 -0.0142  0.3171
  594MOL0     C81890   6.512   1.375  10.086 -0.0780 -0.1861 -0.7427
  594MOL0     C81891   6.434   1.325   9.989 -0.1825  0.0129  1.1522
  594MOL0     C81892   6.318   1.253  10.018 -0.3364  0.5830 -1.5469
  594MOL0     O81893   6.242   1.186   9.926  0.4490  0.2536 -1.0216
  594MOL0     C81894   6.294   1.166   9.798 -0.4880 -0.1203 -0.1636
  594MOL0     C81895   6.266   1.285   9.709 -1.2447  0.1961 -0.0820
  594MOL0     C81896   6.114   1.297   9.700  0.0574  1.3573  0.0318
  594MOL0     C81897   6.070   1.433   9.646  0.0613 -0.2648  0.2287
  594MOL0     C81898   5.925   1.440   9.620  0.6464 -0.9285  0.1279
  594MOL0     C81899   5.811   1.466   9.600  0.1573 -0.1408  0.1948
  594MOL0     C81900   6.265   1.243  10.153  0.0895 -0.0332  0.0875
  594MOL0     C81901   6.342   1.303  10.259  1.0049 -0.2067 -0.0631
  594MOL0     C81902   6.281   1.293  10.406 -0.2643 -0.0309  0.4609
  594MOL0     H81903   6.722   1.767  10.288 -0.6846  0.8713  1.0257
  594MOL0     H81904   6.929   1.828  10.372  1.5183 -0.1317  0.5360
  594MOL0     H81905   7.011   1.786  10.613  0.4198 -0.6533 -1.5469
  594MOL0     H81906   7.089   1.854  10.476 -3.2099 -2.4382 -1.8681
  594MOL0     H81907   7.306   1.827  10.557 -2.4063  1.7187 -3.1275
  594MOL0     H81908   7.199   1.929  10.669 -0.3950 -0.1512  1.0335
  594MOL0     H81909   7.163   1.700  10.789  0.8975 -0.1469  1.4050
  594MOL0     H81910   7.302   1.637  10.708  1.2186  0.9472  0.4287
  594MOL0     H81911   7.318   1.875  10.896  1.9333  3.0794 -2.1200
  594MOL0     H81912   7.355   1.705  10.927  0.2681 -2.0410 -1.4858
  594MOL0     H81913   7.484   1.890  10.730 -1.3630 -2.2053 -2.5514
  594MOL0     H81914   7.537   1.722  10.754  1.4995  0.7954  0.1560
  594MOL0     H81915   7.512   1.924  10.980  0.6184  0.4142  0.2601
  594MOL0     H81916   7.617   1.777  10.979  0.7619 -0.3802 -1.2255
  594MOL0     H81917   7.771   1.954  10.981 -0.8596 -0.2237  0.4726
  594MOL0     H81918   7.707   2.031  10.838  2.6504 -1.4632 -2.6313
  594MOL0     H81919   7.796   1.735  10.835  0.4184 -0.2867 -1.4864
  594MOL0     H81920   7.744   1.838  10.705 -1.6951  0.1860  0.3471
  594MOL0     H81921   8.066   1.732  10.841  0.7532  0.4320 -0.3345
  594MOL0     H81922   8.300   1.790  10.808 -3.1992 -0.5462  0.0978
  594MOL0     H81923   8.346   1.963  10.770 -1.4855 -0.2951  1.7333
  594MOL0     H81924   8.361   1.711  10.589  0.4557  0.4031 -1.6829
  594MOL0     H81925   8.270   1.840  10.520  1.0736 -1.3777 -1.6777
  594MOL0     H81926   8.451   1.991  10.535  1.3413 -0.2516 -0.0939
  594MOL0     H81927   8.546   1.879  10.641 -2.3873  0.4554  2.7139
  594MOL0     H81928   8.562   1.725  10.450 -1.7232 -0.3646  0.5453
  594MOL0     H81929   8.455   1.823  10.350  1.0349  2.3506 -0.3878
  594MOL0     H81930   8.733   1.737  10.548 -1.5744 -1.3156 -2.6659
  594MOL0     H81931   8.989   1.727  10.738 -1.2422  0.1417  0.1695
  594MOL0     H81932   9.069   1.613  10.634  1.0407  0.1507  0.4050
  594MOL0     H81933   8.897   1.593  10.657 -0.0593  0.5115 -1.0580
  594MOL0     H81934   9.480   1.743  10.425 -1.1708 -0.0022  1.7237
  594MOL0     H81935   9.724   1.796  10.500  0.7702  2.1159 -0.0162
  594MOL0     H81936   9.942   1.903  10.621  0.7634  0.3077  1.0560
  594MOL0     H81937   9.922   1.959  10.452 -2.0409 -1.0834  0.4228
  594MOL0     H81938  10.119   2.030  10.525 -0.1892  0.0264 -0.4130
  594MOL0     H81939  10.021   2.170  10.519 -1.1197  0.4748  0.7594
  594MOL0     H81940  10.000   2.057  10.792  3.1679 -1.5309  1.1818
  594MOL0     H81941  10.013   2.227  10.741  0.2463  0.6235 -3.8312
  594MOL0     H81942  10.261   2.151  10.668  0.3518 -2.7907 -1.3789
  594MOL0     H81943  10.223   2.012  10.768  0.5376  0.4577 -1.7549
  594MOL0     H81944  10.203   2.291  10.896 -3.4147 -1.0759  1.1952
  594MOL0     H81945  10.190   2.139  10.979  1.5222  1.2174  2.3710
  594MOL0     H81946  10.407   2.247  11.025 -1.9206 -1.5863  0.7839
  594MOL0     H81947  10.456   2.230  10.855 -1.2108 -1.0758 -0.7456
  594MOL0     H81948  10.478   1.991  10.880  1.8333  1.1958 -0.9294
  594MOL0     H81949  10.361   1.987  11.009  1.0109 -0.3015  0.0738
  594MOL0     H81950  10.551   1.926  11.102 -0.0128  0.0528  3.3829
  594MOL0     H81951  10.517   2.084  11.175  2.9891  3.1713 -1.6239
  594MOL0     H81952   9.567   2.200  10.603 -2.9783  0.6600 -0.7436
  594MOL0     H81953   9.360   2.138  10.527  0.0516 -0.7949 -1.3365
  594MOL0     H81954   9.059   2.012  10.308  1.3650 -0.1949  0.1717
  594MOL0     H81955   8.833   2.031  10.251 -0.4705 -0.5943 -0.8490
  594MOL0     H81956   7.014   1.413  10.480 -1.3519 -0.3353  1.3902
  594MOL0     H81957   6.792   1.353  10.395 -3.7786  0.8808  0.9385
  594MOL0     H81958   6.609   1.414  10.059  0.2297  0.7980  1.5474
  594MOL0     H81959   6.460   1.337   9.884 -0.0786  0.6710  1.2465
  594MOL0     H81960   6.403   1.154   9.807 -0.6941 -1.6532  0.6760
  594MOL0     H81961   6.252   1.077   9.752  1.2808  0.2747 -2.7544
  594MOL0     H81962   6.315   1.284   9.612 -1.5497  0.1546 -0.2344
  594MOL0     H81963   6.298   1.378   9.757  1.1755  1.0818 -3.1233
  594MOL0     H81964   6.074   1.228   9.626 -2.2674  1.4878  1.0485
  594MOL0     H81965   6.069   1.266   9.795 -0.2656 -1.6836 -1.0115
  594MOL0     H81966   6.124   1.465   9.556 -1.6843 -0.5244 -0.9662
  594MOL0     H81967   6.107   1.498   9.725 -0.1613 -1.0886  1.0262
  594MOL0     H81968   5.711   1.502   9.586  0.2199  1.8610  3.8080
  594MOL0     H81969   6.176   1.183  10.171 -0.2184  1.2587  3.6270
  594MOL0     H81970   6.181   1.249  10.413  0.5826 -2.3883 -1.0589
  594MOL0     H81971   6.347   1.228  10.465 -1.4851 -0.9622  0.8488
  594MOL0     H81972   6.262   1.394  10.443  1.2855  1.2479 -2.0080
  595MOL0     O81973   4.214   2.430  10.050 -0.6200 -0.2545 -0.1395
  595MOL0     C81974   4.146   2.456  10.151  0.9665 -0.2626 -0.3939
  595MOL0     O81975   4.187   2.488  10.279 -0.5284  0.2307 -0.2264
  595MOL0     C81976   4.323   2.466  10.299  0.5004  0.3659  0.5079
  595MOL0     C81977   4.380   2.333  10.306 -0.4294 -0.2345  0.3410
  595MOL0     C81978   4.519   2.331  10.327 -0.1943 -0.2181  0.3340
  595MOL0     C81979   4.601   2.446  10.338 -0.5560  0.2885  0.3259
  595MOL0     O81980   4.736   2.436  10.348 -0.1140  0.5020  0.5272
  595MOL0     C81981   4.779   2.325  10.431 -0.2070  0.6943 -0.3246
  595MOL0     C81982   4.922   2.337  10.475 -1.2557  0.9300 -0.2536
  595MOL0     C81983   4.984   2.194  10.486  0.1257  0.3583  0.0044
  595MOL0     C81984   5.133   2.212  10.518 -0.1775  0.7754 -0.4151
  595MOL0     C81985   5.201   2.074  10.510 -0.1413 -0.0848 -1.1439
  595MOL0     C81986   5.354   2.069  10.554  0.1146  0.5497 -0.7709
  595MOL0     C81987   5.436   2.189  10.509  0.3967 -0.1332  0.5764
  595MOL0     C81988   5.565   2.186  10.581  0.0047  0.7435 -0.5725
  595MOL0     N81989   5.671   2.260  10.509 -0.0563  0.1610 -0.3855
  595MOL0     C81990   5.762   2.203  10.417  0.0533  0.5556 -0.2988
  595MOL0     C81991   5.804   2.312  10.346  0.1567 -0.3115 -0.3925
  595MOL0     C81992   5.882   2.306  10.226  0.3576 -0.4076 -0.1569
  595MOL0     C81993   6.027   2.309  10.253 -0.4332  0.0212  0.2597
  595MOL0     C81994   6.080   2.174  10.315 -0.8713 -0.6023  0.2735
  595MOL0     C81995   6.219   2.214  10.365  0.5310  1.2069  0.1262
  595MOL0     O81996   6.290   2.114  10.431 -0.0779  0.1678  0.3874
  595MOL0     C81997   6.429   2.133  10.436  0.0078 -0.0790 -0.5497
  595MOL0     C81998   6.496   2.249  10.402 -0.1627  1.0006  0.4997
  595MOL0     C81999   6.636   2.255  10.421  0.0766 -0.3383  0.7763
  595MOL0     C82000   6.707   2.383  10.379  0.0085  0.2658  0.7954
  595MOL0     C82001   6.708   2.150  10.481  0.1347  1.1307  0.3979
  595MOL0     C82002   6.852   2.146  10.507  0.1922  0.1038 -0.3230
  595MOL0     O82003   6.924   2.262  10.486 -0.1256 -0.8344 -0.5985
  595MOL0     C82004   7.061   2.244  10.485  0.6626 -0.2317  0.4979
  595MOL0     C82005   7.122   2.219  10.364  0.2453  0.1457 -0.1961
  595MOL0     C82006   7.263   2.182  10.361  0.5082  0.0662 -0.5695
  595MOL0     C82007   7.331   2.183  10.481 -0.1085  0.4828 -0.4508
  595MOL0     O82008   7.455   2.132  10.469 -0.9561  0.3626  0.1407
  595MOL0     C82009   7.570   2.189  10.547  0.2535 -0.1538 -0.2443
  595MOL0     C82010   7.699   2.140  10.474  0.5048  0.4675 -0.4811
  595MOL0     C82011   7.676   2.001  10.416  0.2877  0.3450 -0.1441
  595MOL0     C82012   7.805   1.925  10.394  0.6168  0.3802 -0.0609
  595MOL0     C82013   7.774   1.798  10.314 -0.6025  0.0732  0.2459
  595MOL0     C82014   7.890   1.697  10.322 -0.5586 -0.0260  0.0422
  595MOL0     C82015   8.017   1.753  10.264 -0.5287 -0.2804  0.0488
  595MOL0     C82016   8.136   1.651  10.272 -0.4557  0.1641  0.1705
  595MOL0    Cl82017   8.254   1.696  10.159  0.1808  0.1279 -0.0472
  595MOL0     C82018   7.277   2.229  10.601  0.7599 -0.0169 -1.0555
  595MOL0     C82019   7.136   2.260  10.604  0.0312  1.4208 -0.2760
  595MOL0     O82020   6.903   2.051  10.556 -0.1236 -0.1062 -0.3930
  595MOL0     C82021   6.631   2.033  10.513 -0.9602  0.0009  0.4241
  595MOL0     C82022   6.499   2.026  10.491 -0.1851 -0.5111  0.1763
  595MOL0     N82023   5.753   2.430  10.403  0.5294  0.0081  0.2116
  595MOL0     N82024   5.664   2.395  10.496  0.1323 -0.0382 -0.3854
  595MOL0     C82025   4.543   2.571  10.324  0.5581  0.3553  0.5388
  595MOL0     C82026   4.407   2.577  10.309 -0.4241 -0.3226  0.1023
  595MOL0     C82027   4.000   2.434  10.140  0.0240  0.5352 -0.1898
  595MOL0     C82028   3.920   2.454  10.254 -1.0923 -0.0446  0.3282
  595MOL0     C82029   3.781   2.424  10.257  0.2642 -0.1761  0.7569
  595MOL0     C82030   3.722   2.364  10.143  0.3181  0.1107 -0.5733
  595MOL0     O82031   3.600   2.305  10.147  0.0818  0.2818 -0.4725
  595MOL0     C82032   3.510   2.338  10.254  0.3758 -0.1392  0.0546
  595MOL0     C82033   3.370   2.323  10.200  0.5205 -0.2694  0.1185
  595MOL0     C82034   3.263   2.336  10.306 -0.3715 -0.6137 -0.7636
  595MOL0     C82035   3.225   2.487  10.310  0.0631 -0.4408  0.1777
  595MOL0     C82036   3.107   2.515  10.400 -1.5942 -0.1011 -0.1843
  595MOL0     C82037   3.017   2.553  10.472 -0.7992 -1.2836 -0.1156
  595MOL0     C82038   3.797   2.343  10.030  0.7010  0.2591  0.3380
  595MOL0     C82039   3.934   2.382  10.027  0.5924 -0.0005  0.0675
  595MOL0     C82040   3.993   2.360   9.888 -0.1146 -0.1289  0.3361
  595MOL0     H82041   4.320   2.248  10.276 -1.3735  0.5165  0.0601
  595MOL0     H82042   4.561   2.232  10.309 -1.5838 -1.2169  2.2393
  595MOL0     H82043   4.773   2.230  10.376 -1.1561  0.1451  0.7004
  595MOL0     H82044   4.709   2.308  10.513 -0.5286 -0.7967 -0.8658
  595MOL0     H82045   4.986   2.393  10.406  2.0821 -3.1089 -0.8235
  595MOL0     H82046   4.933   2.386  10.573  0.4855  0.0853  0.0239
  595MOL0     H82047   4.934   2.132  10.561  3.5370  0.4452  2.5851
  595MOL0     H82048   4.964   2.149  10.388 -1.6926 -1.0521  0.9673
  595MOL0     H82049   5.179   2.276  10.441  2.5869  0.2960  0.7169
  595MOL0     H82050   5.145   2.266  10.612 -0.0808 -0.9432  0.6048
  595MOL0     H82051   5.200   2.045  10.404 -0.9216 -0.0916 -1.1468
  595MOL0     H82052   5.138   2.004  10.567 -0.8294 -1.2221 -3.1881
  595MOL0     H82053   5.352   2.055  10.662 -4.8897 -1.0002 -0.8101
  595MOL0     H82054   5.402   1.978  10.518  0.1713  0.3824 -0.2778
  595MOL0     H82055   5.389   2.285  10.533 -0.3740  0.2143 -1.9522
  595MOL0     H82056   5.449   2.196  10.400 -1.5153 -1.6396  0.1789
  595MOL0     H82057   5.544   2.239  10.674 -0.9915  1.5340 -1.2265
  595MOL0     H82058   5.603   2.084  10.591 -2.4274 -0.0297  1.7320
  595MOL0     H82059   5.777   2.098  10.393  1.4741  0.8520 -0.7871
  595MOL0     H82060   5.858   2.388  10.157  0.5792 -0.7084 -0.5928
  595MOL0     H82061   5.847   2.216  10.174 -0.7470 -0.3080  0.3887
  595MOL0     H82062   6.085   2.310  10.160  2.2735 -1.4821  1.7935
  595MOL0     H82063   6.045   2.402  10.307 -1.1081 -0.7889  1.9378
  595MOL0     H82064   6.017   2.143  10.398 -0.1545 -2.2439  0.2402
  595MOL0     H82065   6.087   2.094  10.240  0.4857  0.0256 -0.3011
  595MOL0     H82066   6.269   2.248  10.274 -2.8530  0.9161 -2.0306
  595MOL0     H82067   6.207   2.297  10.435 -3.9560  1.3867 -0.5772
  595MOL0     H82068   6.439   2.324  10.348  0.2710 -0.2162 -1.7930
  595MOL0     H82069   6.788   2.369  10.306 -0.0506  0.2769  0.7271
  595MOL0     H82070   6.750   2.440  10.462  1.7813  1.6794 -0.9952
  595MOL0     H82071   6.637   2.454  10.334 -0.9346  1.4432  3.8535
  595MOL0     H82072   7.063   2.221  10.273 -0.9334  0.8306  0.5633
  595MOL0     H82073   7.310   2.167  10.264 -0.2794 -0.8014 -0.8420
  595MOL0     H82074   7.563   2.297  10.532  1.4723 -0.4329 -3.9119
  595MOL0     H82075   7.561   2.149  10.648 -3.0431 -2.5293 -1.2963
  595MOL0     H82076   7.714   2.209  10.391  0.3837 -2.0045 -2.6665
  595MOL0     H82077   7.782   2.154  10.545  1.1345  1.6361 -1.4163
  595MOL0     H82078   7.644   2.016  10.312  3.1569  1.1573 -1.0283
  595MOL0     H82079   7.608   1.943  10.478  2.1308 -0.6011  1.0806
  595MOL0     H82080   7.850   1.889  10.488  1.2076 -0.3991 -0.6291
  595MOL0     H82081   7.875   1.986  10.336  1.4138 -2.3077 -2.1195
  595MOL0     H82082   7.680   1.761  10.357 -0.9643 -0.2093 -0.7621
  595MOL0     H82083   7.746   1.830  10.213 -3.1762 -1.1083  0.4867
  595MOL0     H82084   7.850   1.606  10.274 -1.9447  0.6289 -0.1053
  595MOL0     H82085   7.917   1.682  10.427  0.1496  1.9621  0.1861
  595MOL0     H82086   8.050   1.842  10.318 -0.9118  0.1518 -0.4202
  595MOL0     H82087   7.996   1.770  10.159  0.5002 -1.6362 -0.4093
  595MOL0     H82088   8.094   1.552  10.252  1.2005 -1.0542  2.2954
  595MOL0     H82089   8.181   1.648  10.372  1.0797 -1.4454 -0.5286
  595MOL0     H82090   7.331   2.216  10.694  0.2606  1.1879 -0.5736
  595MOL0     H82091   7.087   2.291  10.696 -1.5603 -0.8387 -0.2817
  595MOL0     H82092   6.685   1.955  10.567 -0.9640 -0.6797 -0.5171
  595MOL0     H82093   6.448   1.932  10.509 -2.3568  0.2010 -1.8389
  595MOL0     H82094   4.594   2.666  10.339  2.1303 -0.5788  1.4506
  595MOL0     H82095   4.354   2.668  10.284  1.9660  1.0460 -0.2720
  595MOL0     H82096   3.970   2.505  10.337  1.6850  0.7866 -1.7010
  595MOL0     H82097   3.715   2.438  10.342 -2.7002 -1.9911 -1.0958
  595MOL0     H82098   3.539   2.279  10.342 -0.8506  3.0270  2.7730
  595MOL0     H82099   3.516   2.443  10.281 -2.9776  0.2295 -0.2396
  595MOL0     H82100   3.368   2.222  10.160 -0.6694 -0.9573  1.7867
  595MOL0     H82101   3.353   2.397  10.121  2.1063 -1.4411 -1.3956
  595MOL0     H82102   3.174   2.280  10.275  1.3517 -2.1937 -3.2303
  595MOL0     H82103   3.299   2.308  10.406  1.1331  1.6645 -0.6046
  595MOL0     H82104   3.197   2.517  10.209  0.6959  1.5344  0.5270
  595MOL0     H82105   3.307   2.551  10.345  0.3616 -1.1708  0.8510
  595MOL0     H82106   2.958   2.607  10.542 -0.1464 -0.0588 -0.4646
  595MOL0     H82107   3.749   2.289   9.949  0.9852  0.6474 -0.0973
  595MOL0     H82108   3.936   2.292   9.823  1.9539 -2.1310  0.4451
  595MOL0     H82109   3.998   2.461   9.847 -1.5797  0.4584  1.5563
  595MOL0     H82110   4.094   2.319   9.895  1.1651  2.7997  0.3132
  596MOL0     O82111  11.335   0.208   8.199  0.1119  0.2013 -0.2103
  596MOL0     C82112  11.358   0.281   8.105  0.8395  0.0860  0.0651
  596MOL0     O82113  11.465   0.265   8.023  0.0304 -0.1249 -0.4058
  596MOL0     C82114  11.573   0.184   8.053  0.0298  0.1525 -0.2736
  596MOL0     C82115  11.603   0.077   7.963 -0.1330  0.5212 -0.4766
  596MOL0     C82116  11.721   0.005   7.975  0.5692  0.1529 -0.9971
  596MOL0     C82117  11.802   0.017   8.088  0.1563 -0.3058 -0.0775
  596MOL0     O82118  11.899  -0.073   8.104  0.1093  0.6977  0.2036
  596MOL0     C82119  11.858  -0.210   8.115  0.2149  0.3651 -1.2202
  596MOL0     C82120  11.984  -0.295   8.130  0.2715 -0.3481  1.4170
  596MOL0     C82121  12.074  -0.289   8.004  1.2593 -0.2702  0.0586
  596MOL0     C82122  12.189  -0.380   8.036  0.1250 -0.3317  0.0931
  596MOL0     C82123  12.305  -0.372   7.925 -0.5100 -0.2148 -1.0297
  596MOL0     C82124  12.266  -0.372   7.776  0.7341 -0.2212  0.5939
  596MOL0     C82125  12.380  -0.432   7.683  0.5121  0.0425  0.2593
  596MOL0     C82126  12.396  -0.363   7.549 -0.3623 -0.4937  0.3424
  596MOL0     N82127  12.520  -0.415   7.495  0.8895 -0.4769 -0.8864
  596MOL0     C82128  12.530  -0.539   7.432 -0.3966  0.7116 -1.0330
  596MOL0     C82129  12.658  -0.549   7.389 -0.6083  0.4708 -0.4983
  596MOL0     C82130  12.742  -0.659   7.329 -0.9753 -0.8281  0.4267
  596MOL0     C82131  12.870  -0.604   7.245 -0.2845  0.1353  0.1855
  596MOL0     C82132  12.828  -0.500   7.132 -0.4443 -0.7443  0.0297
  596MOL0     C82133  12.938  -0.462   7.039 -0.5722  0.1595  0.5830
  596MOL0     O82134  13.021  -0.577   7.000  0.7673  0.0383 -0.3477
  596MOL0     C82135  13.129  -0.546   6.919 -0.4180 -0.5803  1.0543
  596MOL0     C82136  13.167  -0.424   6.872 -1.1494 -0.1257 -0.0023
  596MOL0     C82137  13.281  -0.412   6.789  0.3897  0.3865 -0.5229
  596MOL0     C82138  13.325  -0.268   6.767 -0.4603  0.4092 -0.9401
  596MOL0     C82139  13.363  -0.522   6.767  0.4607  0.3367 -0.3733
  596MOL0     C82140  13.481  -0.513   6.681 -0.9829 -1.0007  0.9619
  596MOL0     O82141  13.579  -0.602   6.716  0.6463 -0.0246 -0.5287
  596MOL0     C82142  13.693  -0.602   6.641 -0.1362 -0.2306  0.1410
  596MOL0     C82143  13.703  -0.685   6.535  0.5815 -0.0595  1.7002
  596MOL0     C82144  13.821  -0.695   6.460  0.9747 -1.0491  0.1758
  596MOL0     C82145  13.930  -0.648   6.509 -0.5176 -1.4824  0.2703
  596MOL0     O82146  14.053  -0.666   6.448 -0.5840 -0.6232  0.2505
  596MOL0     C82147  14.107  -0.798   6.418 -0.2926  0.3486 -0.1150
  596MOL0     C82148  14.256  -0.798   6.369  0.0750 -0.6538 -0.7310
  596MOL0     C82149  14.307  -0.941   6.380  0.1069 -0.5360 -0.4809
  596MOL0     C82150  14.296  -1.004   6.240  0.6304  0.1721  0.3484
  596MOL0     C82151  14.379  -1.131   6.222  0.2166  0.5070 -0.9533
  596MOL0     C82152  14.351  -1.240   6.328  0.6070 -0.6453 -0.4484
  596MOL0     C82153  14.404  -1.374   6.280 -0.3235  0.4235 -0.2529
  596MOL0     C82154  14.555  -1.385   6.253  0.4400 -0.1789  0.0069
  596MOL0    Cl82155  14.659  -1.393   6.404  0.4378  0.3524  0.1137
  596MOL0     C82156  13.930  -0.564   6.627 -0.7428 -0.1126  0.0918
  596MOL0     C82157  13.808  -0.547   6.691 -0.4086  0.6417 -0.1589
  596MOL0     O82158  13.484  -0.440   6.579  0.2268 -0.1410 -0.1331
  596MOL0     C82159  13.322  -0.651   6.819  0.6583 -0.8133 -0.5495
  596MOL0     C82160  13.215  -0.660   6.902  0.2109 -0.1822 -0.3160
  596MOL0     N82161  12.718  -0.430   7.431  0.5170 -0.2834  0.3790
  596MOL0     N82162  12.639  -0.353   7.497 -0.6084 -0.0362  0.0159
  596MOL0     C82163  11.768   0.114   8.183  0.0136 -0.8130  0.3671
  596MOL0     C82164  11.666   0.200   8.154 -0.6988 -0.3698 -0.2755
  596MOL0     C82165  11.292   0.406   8.087  0.1117 -1.2765  0.4286
  596MOL0     C82166  11.372   0.523   8.058 -0.7527 -0.3367  0.7886
  596MOL0     C82167  11.317   0.654   8.038  0.2163  0.3646  0.1785
  596MOL0     C82168  11.179   0.672   8.045  0.3541 -1.1049 -0.0173
  596MOL0     O82169  11.117   0.790   8.007  0.2433 -0.1745  0.9009
  596MOL0     C82170  11.184   0.902   7.942  0.1973  0.3600 -0.3392
  596MOL0     C82171  11.079   0.979   7.866 -1.3144 -0.1686  0.0052
  596MOL0     C82172  11.151   1.076   7.764 -0.8885 -0.1271 -0.2385
  596MOL0     C82173  11.047   1.177   7.708  0.0746  0.5629 -0.3552
  596MOL0     C82174  11.109   1.262   7.606  0.3414  0.6231  0.7176
  596MOL0     C82175  11.156   1.335   7.512 -0.8041  0.5455 -0.0049
  596MOL0     C82176  11.097   0.558   8.075  0.5116  0.2267 -0.7418
  596MOL0     C82177  11.154   0.427   8.100  0.7272  0.2462 -0.6434
  596MOL0     C82178  11.059   0.311   8.142  0.7123 -0.2606 -0.6006
  596MOL0     H82179  11.536   0.052   7.881  0.9260  0.4420 -1.3310
  596MOL0     H82180  11.742  -0.069   7.899  1.2420 -1.0401  0.3137
  596MOL0     H82181  11.806  -0.242   8.024 -1.1487  3.3970 -1.6134
  596MOL0     H82182  11.788  -0.238   8.194 -1.2955 -1.9099 -3.2035
  596MOL0     H82183  12.047  -0.284   8.219 -1.0168 -1.3181  2.4848
  596MOL0     H82184  11.950  -0.399   8.131 -0.7993 -0.1434 -1.6425
  596MOL0     H82185  12.023  -0.319   7.913  1.6608 -0.4936 -0.0939
  596MOL0     H82186  12.096  -0.183   7.987  1.4730 -0.3913 -0.4246
  596MOL0     H82187  12.239  -0.352   8.129 -1.2845  1.3005  0.4038
  596MOL0     H82188  12.148  -0.481   8.047  0.1763 -0.3615  0.0092
  596MOL0     H82189  12.379  -0.451   7.942  1.3878  1.5775 -0.5191
  596MOL0     H82190  12.355  -0.276   7.943 -0.6016 -0.6614  2.1038
  596MOL0     H82191  12.172  -0.424   7.756 -1.0847  3.0930 -0.2448
  596MOL0     H82192  12.244  -0.272   7.737 -1.3398 -1.8700 -2.9167
  596MOL0     H82193  12.333  -0.531   7.684 -1.1676  0.7984  0.4355
  596MOL0     H82194  12.477  -0.436   7.733  1.6478 -2.5475 -1.9578
  596MOL0     H82195  12.306  -0.376   7.488 -0.1982 -1.0010  0.2110
  596MOL0     H82196  12.414  -0.257   7.568 -2.5231 -0.5394  3.5331
  596MOL0     H82197  12.457  -0.619   7.426 -1.2767  1.4591 -0.5283
  596MOL0     H82198  12.671  -0.711   7.264  0.2322 -1.0565 -0.7651
  596MOL0     H82199  12.770  -0.737   7.400 -0.6289 -1.6090 -0.5368
  596MOL0     H82200  12.942  -0.563   7.317  2.3638 -1.3333 -1.4641
  596MOL0     H82201  12.924  -0.683   7.192  0.3429  0.2379  0.6592
  596MOL0     H82202  12.748  -0.558   7.083  0.0577 -3.4382  2.1819
  596MOL0     H82203  12.785  -0.410   7.178 -2.9358 -0.0435 -3.2533
  596MOL0     H82204  12.890  -0.419   6.951  3.7397  1.6830 -1.2656
  596MOL0     H82205  13.003  -0.389   7.088  1.6678 -1.7049  0.5723
  596MOL0     H82206  13.099  -0.341   6.889  0.8831  1.9263 -1.2468
  596MOL0     H82207  13.266  -0.192   6.819 -2.4541 -1.0595 -0.9465
  596MOL0     H82208  13.309  -0.238   6.663  1.2399  3.7894 -0.3584
  596MOL0     H82209  13.431  -0.255   6.791 -0.8013 -0.4302  1.2935
  596MOL0     H82210  13.612  -0.725   6.493  2.3679 -2.2709 -0.3382
  596MOL0     H82211  13.821  -0.752   6.368  1.4431  0.5813 -0.8680
  596MOL0     H82212  14.099  -0.853   6.513  1.5065  1.3240  0.6500
  596MOL0     H82213  14.044  -0.831   6.335 -2.5330  2.2194  0.7258
  596MOL0     H82214  14.265  -0.757   6.268  1.1640 -0.1850 -0.4560
  596MOL0     H82215  14.316  -0.745   6.443  0.3927 -2.7795  0.6348
  596MOL0     H82216  14.256  -0.998   6.458  0.8126 -1.4777 -0.6884
  596MOL0     H82217  14.414  -0.943   6.404 -0.1942 -0.7335  0.9095
  596MOL0     H82218  14.324  -0.939   6.157 -3.5269  1.4735 -0.2468
  596MOL0     H82219  14.189  -1.022   6.225  0.0310  3.8462 -0.9245
  596MOL0     H82220  14.351  -1.161   6.121  0.9427 -0.1378 -0.9680
  596MOL0     H82221  14.482  -1.096   6.235 -0.4118  1.4169  2.7306
  596MOL0     H82222  14.242  -1.246   6.343  0.4091 -0.2423 -1.5719
  596MOL0     H82223  14.402  -1.209   6.419 -0.9807 -0.4761  0.4140
  596MOL0     H82224  14.355  -1.409   6.188  1.7064 -0.5507 -1.0211
  596MOL0     H82225  14.398  -1.454   6.354  2.5307  1.0922  0.8239
  596MOL0     H82226  14.583  -1.301   6.189 -1.5066 -0.8960 -1.9077
  596MOL0     H82227  14.575  -1.480   6.202  2.3168  2.1177 -4.0347
  596MOL0     H82228  14.024  -0.534   6.671  0.5043 -3.1334 -0.2514
  596MOL0     H82229  13.800  -0.505   6.791 -1.1959 -1.2510  0.6084
  596MOL0     H82230  13.378  -0.744   6.807  0.8695 -1.3013  3.1936
  596MOL0     H82231  13.189  -0.753   6.951  2.7706 -0.6797  0.2685
  596MOL0     H82232  11.837   0.129   8.265  2.3211  1.5609 -1.8136
  596MOL0     H82233  11.658   0.290   8.215  2.4582  0.6087 -1.0902
  596MOL0     H82234  11.479   0.513   8.052 -0.1946  2.8646  3.0903
  596MOL0     H82235  11.374   0.742   8.008 -1.1042  1.5607  1.0837
  596MOL0     H82236  11.243   0.971   8.002 -1.1896 -0.5053  2.1977
  596MOL0     H82237  11.258   0.858   7.874  1.5825 -1.0658  1.9068
  596MOL0     H82238  11.027   1.041   7.940  1.6824  0.4739  1.7259
  596MOL0     H82239  11.003   0.913   7.824 -0.1441 -2.5547  1.4170
  596MOL0     H82240  11.235   1.123   7.817  1.0526 -0.1198 -3.1104
  596MOL0     H82241  11.204   1.029   7.681  1.5121 -2.1765  2.2453
  596MOL0     H82242  10.995   1.233   7.786  2.3547  0.5718  1.2595
  596MOL0     H82243  10.976   1.108   7.661  1.2715 -0.8343 -0.1838
  596MOL0     H82244  11.197   1.406   7.444 -1.7345  0.2278 -0.9245
  596MOL0     H82245  10.990   0.562   8.090  0.5833 -1.2764  0.4985
  596MOL0     H82246  11.097   0.210   8.121 -1.3260 -1.0589 -0.6663
  596MOL0     H82247  11.022   0.321   8.245 -0.7699  0.8598 -1.2129
  596MOL0     H82248  10.967   0.320   8.084 -1.1678 -1.3724  2.0075
  597MOL0     O82249  10.895   4.880   4.592  0.4080 -0.6647 -0.2151
  597MOL0     C82250  10.787   4.820   4.599 -0.8043  0.6558 -0.2841
  597MOL0     O82251  10.778   4.684   4.566  0.1600  0.5653  0.7444
  597MOL0     C82252  10.881   4.625   4.489  0.0047 -0.2170  0.1459
  597MOL0     C82253  10.932   4.507   4.538  0.8612 -0.2219  0.2581
  597MOL0     C82254  11.031   4.439   4.460 -0.0849  0.8853  0.2393
  597MOL0     C82255  11.077   4.494   4.346 -0.1735 -0.0483 -0.3127
  597MOL0     O82256  11.197   4.456   4.285 -0.6648  0.2509  0.1251
  597MOL0     C82257  11.291   4.413   4.384 -0.2520  0.5483  0.0175
  597MOL0     C82258  11.439   4.398   4.342  0.1200  0.8568  0.1020
  597MOL0     C82259  11.500   4.254   4.303  0.4527  0.2236 -0.3280
  597MOL0     C82260  11.650   4.253   4.300  0.4478 -0.6265  0.0633
  597MOL0     C82261  11.707   4.126   4.258 -0.1422  0.4331 -1.4616
  597MOL0     C82262  11.713   4.015   4.370 -0.4541 -0.0347 -0.4254
  597MOL0     C82263  11.776   3.880   4.337 -0.5276  0.7106 -0.4425
  597MOL0     C82264  11.801   3.793   4.469 -0.1361  0.0879  0.9262
  597MOL0     N82265  11.919   3.710   4.448 -0.3962  0.8484  0.5053
  597MOL0     C82266  11.916   3.573   4.411  1.0276 -0.0990  0.1026
  597MOL0     C82267  12.045   3.538   4.410 -0.4800  0.3930 -0.2213
  597MOL0     C82268  12.094   3.397   4.376 -0.3754  0.4127  0.3108
  597MOL0     C82269  12.157   3.361   4.242  0.4409 -0.3568 -0.3210
  597MOL0     C82270  12.210   3.214   4.226  0.2884 -0.2292 -0.1600
  597MOL0     C82271  12.325   3.184   4.122  0.6171 -1.2263 -0.2671
  597MOL0     O82272  12.317   3.050   4.076  0.3312  0.0203 -0.5376
  597MOL0     C82273  12.416   2.963   4.103  0.1378 -0.3150  0.1880
  597MOL0     C82274  12.396   2.831   4.145  0.3348  0.3775  1.0795
  597MOL0     C82275  12.506   2.738   4.159  0.2427  0.6096  0.0904
  597MOL0     C82276  12.467   2.594   4.191 -0.0630  0.4814  0.0259
  597MOL0     C82277  12.639   2.778   4.147  0.2730 -0.2590 -0.5747
  597MOL0     C82278  12.759   2.700   4.160  1.1222  0.2334  0.4643
  597MOL0     O82279  12.874   2.761   4.161  0.4323 -0.3875  0.6540
  597MOL0     C82280  12.990   2.690   4.127 -0.6774 -0.2339  0.2806
  597MOL0     C82281  13.107   2.724   4.198 -1.0187 -0.0064 -0.7780
  597MOL0     C82282  13.230   2.662   4.158 -0.2682 -0.4587 -0.1706
  597MOL0     C82283  13.229   2.562   4.062 -0.2834  0.7530  0.1725
  597MOL0     O82284  13.356   2.513   4.025 -0.2555  0.8527  0.1398
  597MOL0     C82285  13.385   2.498   3.886  0.2985 -0.0856  0.9204
  597MOL0     C82286  13.532   2.507   3.857 -0.4688 -0.4011  0.4424
  597MOL0     C82287  13.618   2.398   3.917  0.4593  0.1304  0.5385
  597MOL0     C82288  13.768   2.421   3.859  0.8305 -0.6764  1.1861
  597MOL0     C82289  13.865   2.400   3.979  0.8398  0.4575 -0.0788
  597MOL0     C82290  14.016   2.408   3.931 -0.4709  0.6326  0.9603
  597MOL0     C82291  14.065   2.549   3.907 -0.6277 -0.3338 -0.3614
  597MOL0     C82292  14.037   2.660   4.020  0.5846 -0.1454  0.2649
  597MOL0    Cl82293  14.077   2.610   4.175  0.1284  0.0468 -0.2494
  597MOL0     C82294  13.111   2.528   3.998  0.6571  1.0067 -0.0771
  597MOL0     C82295  12.999   2.603   4.014 -0.2507 -0.3634  0.0844
  597MOL0     O82296  12.743   2.577   4.163  0.4281  0.3866  0.4634
  597MOL0     C82297  12.655   2.914   4.119 -0.6588 -0.2393 -0.6357
  597MOL0     C82298  12.551   3.001   4.087  0.5431  0.6446 -0.0926
  597MOL0     N82299  12.122   3.650   4.432  0.1872 -0.3954 -1.1016
  597MOL0     N82300  12.044   3.754   4.442 -0.4970 -0.8248 -0.5245
  597MOL0     C82301  11.016   4.607   4.279 -0.0922 -0.0244  0.1523
  597MOL0     C82302  10.922   4.673   4.357 -0.4998  0.5460 -0.3167
  597MOL0     C82303  10.664   4.891   4.659 -0.2149  0.1255  0.0310
  597MOL0     C82304  10.545   4.821   4.635 -0.2750  0.6103 -0.7432
  597MOL0     C82305  10.424   4.864   4.692  0.7634  0.3080  0.0479
  597MOL0     C82306  10.409   4.983   4.764  0.1316  1.2081 -0.7292
  597MOL0     O82307  10.281   5.012   4.821  0.2330 -0.1173 -0.5597
  597MOL0     C82308  10.270   5.158   4.840  0.3713  0.8683  0.2815
  597MOL0     C82309  10.125   5.202   4.860 -0.2413 -0.5597  0.1215
  597MOL0     C82310  10.071   5.138   4.996 -0.0509  0.4142  0.0714
  597MOL0     C82311   9.930   5.158   5.030 -0.8612  0.1419  1.2598
  597MOL0     C82312   9.913   5.121   5.169  0.0749  0.1827  0.5216
  597MOL0     C82313   9.917   5.103   5.283  0.5415 -0.4068 -0.2966
  597MOL0     C82314  10.530   5.051   4.780 -0.2352  0.7156 -0.7596
  597MOL0     C82315  10.653   5.010   4.726  0.8628  0.0303 -0.3615
  597MOL0     C82316  10.755   5.106   4.731 -0.7222 -1.7459  1.0857
  597MOL0     H82317  10.890   4.464   4.628  0.0210  3.2995  1.7137
  597MOL0     H82318  11.071   4.347   4.502  0.4578 -0.6980 -3.3989
  597MOL0     H82319  11.255   4.316   4.419  1.8609 -0.6974 -1.0406
  597MOL0     H82320  11.289   4.483   4.468  0.8028  1.7678 -0.9244
  597MOL0     H82321  11.456   4.470   4.261 -0.4822 -1.0472 -1.8145
  597MOL0     H82322  11.488   4.446   4.427 -0.5495  1.5061  0.1372
  597MOL0     H82323  11.448   4.184   4.369 -0.0954  0.3940 -0.5702
  597MOL0     H82324  11.461   4.227   4.204 -1.2167  3.1814 -0.6014
  597MOL0     H82325  11.670   4.324   4.218  1.2820 -2.2356 -1.1906
  597MOL0     H82326  11.685   4.298   4.393  1.1175 -1.1482  0.0704
  597MOL0     H82327  11.810   4.151   4.231  0.3310 -0.5057 -0.5815
  597MOL0     H82328  11.663   4.085   4.168 -0.6789 -1.0937 -0.5339
  597MOL0     H82329  11.756   4.059   4.460 -0.6822  0.7032 -0.6645
  597MOL0     H82330  11.608   3.993   4.390 -0.3437 -1.9277 -1.6629
  597MOL0     H82331  11.874   3.903   4.294 -0.5677  2.9026  0.5390
  597MOL0     H82332  11.710   3.832   4.264 -1.1844  1.6391 -0.4656
  597MOL0     H82333  11.811   3.858   4.557  2.0192 -2.9256  3.1038
  597MOL0     H82334  11.716   3.730   4.497  0.0206 -0.3751  0.3689
  597MOL0     H82335  11.831   3.513   4.381 -0.1936  2.0479 -0.9735
  597MOL0     H82336  12.009   3.329   4.387 -0.4857  0.0174 -2.3800
  597MOL0     H82337  12.169   3.374   4.452  0.4794 -4.1464 -1.5953
  597MOL0     H82338  12.079   3.361   4.165 -1.7159  0.8202  1.7291
  597MOL0     H82339  12.239   3.429   4.218  1.1167 -1.3766 -0.9730
  597MOL0     H82340  12.247   3.191   4.326  3.0910  2.6359 -0.3708
  597MOL0     H82341  12.128   3.148   4.198 -1.0343  2.2447 -2.6815
  597MOL0     H82342  12.309   3.256   4.041 -0.2432 -0.1932  0.7822
  597MOL0     H82343  12.426   3.214   4.153  0.0132  1.0788 -0.3218
  597MOL0     H82344  12.292   2.802   4.157  0.4698 -1.6008 -1.7277
  597MOL0     H82345  12.489   2.573   4.297  1.1155 -1.5846 -0.5784
  597MOL0     H82346  12.526   2.531   4.124  1.6387  0.3494  1.5866
  597MOL0     H82347  12.361   2.572   4.176  0.4292 -1.5368 -0.8102
  597MOL0     H82348  13.092   2.793   4.280  0.0191  1.1799 -1.5661
  597MOL0     H82349  13.326   2.695   4.199  0.4759  2.1749 -3.5505
  597MOL0     H82350  13.354   2.396   3.864 -2.0321  0.3209  2.0007
  597MOL0     H82351  13.332   2.566   3.820 -1.3147 -0.7032  1.5351
  597MOL0     H82352  13.552   2.508   3.750  2.3655 -0.4268  0.8902
  597MOL0     H82353  13.566   2.605   3.891  2.8679  0.5561 -4.6415
  597MOL0     H82354  13.577   2.304   3.879  1.3864  0.1323 -0.5161
  597MOL0     H82355  13.612   2.408   4.026  1.6164  0.3184  0.5967
  597MOL0     H82356  13.765   2.527   3.830 -2.4924 -1.0922 -0.5408
  597MOL0     H82357  13.800   2.364   3.772 -0.9152 -2.1166  1.4300
  597MOL0     H82358  13.853   2.478   4.055  1.8878 -0.5024  1.1168
  597MOL0     H82359  13.839   2.307   4.030 -0.5781  1.4183  1.0661
  597MOL0     H82360  14.018   2.362   3.832 -0.4431  3.3362 -0.3811
  597MOL0     H82361  14.085   2.359   4.000  1.4183 -0.0760 -1.3326
  597MOL0     H82362  14.010   2.594   3.824  0.2906  4.4698  1.3578
  597MOL0     H82363  14.171   2.545   3.879  0.3744 -1.6062  3.1183
  597MOL0     H82364  13.931   2.687   4.021  0.6777  0.2254  1.5682
  597MOL0     H82365  14.096   2.745   3.986  0.7940  0.0141  1.0101
  597MOL0     H82366  13.111   2.439   3.935 -3.0207 -0.3637  1.5555
  597MOL0     H82367  12.911   2.591   3.951  0.0486  0.5378 -0.5283
  597MOL0     H82368  12.756   2.954   4.109 -0.5074  1.0992  3.8938
  597MOL0     H82369  12.568   3.103   4.052  0.4835  0.7918  0.3055
  597MOL0     H82370  11.045   4.635   4.178  0.0178 -0.4550  0.0602
  597MOL0     H82371  10.882   4.764   4.314  2.0463  1.1091 -1.6631
  597MOL0     H82372  10.549   4.730   4.577 -1.7501  0.4962 -0.7092
  597MOL0     H82373  10.336   4.807   4.665  1.1905 -0.3412  0.0104
  597MOL0     H82374  10.328   5.178   4.930 -0.4718 -1.2326  1.3530
  597MOL0     H82375  10.291   5.211   4.747 -3.0917  0.2303 -1.0496
  597MOL0     H82376  10.059   5.170   4.779 -1.5370  1.2817  0.3786
  597MOL0     H82377  10.114   5.309   4.878 -0.9894 -0.1662 -2.3187
  597MOL0     H82378  10.080   5.029   4.993  1.5881  0.5489 -1.1707
  597MOL0     H82379  10.138   5.177   5.074  0.0322  1.5391 -0.5389
  597MOL0     H82380   9.876   5.095   4.959  1.5531 -1.1057  0.4159
  597MOL0     H82381   9.903   5.262   5.011 -1.9937 -0.4853 -0.9628
  597MOL0     H82382   9.921   5.081   5.388 -1.9389 -0.7657 -0.2051
  597MOL0     H82383  10.539   5.148   4.830  1.1617  0.5546 -0.6408
  597MOL0     H82384  10.787   5.142   4.633  1.1882 -0.5408  2.0979
  597MOL0     H82385  10.719   5.191   4.790  2.2869 -0.4153  1.2004
  597MOL0     H82386  10.852   5.074   4.769  0.4153  1.6267  1.4130
  598MOL0     O82387  10.619   1.681  11.137 -0.4811 -0.3017  0.4867
  598MOL0     C82388  10.597   1.689  11.253  0.0875 -0.0995 -0.5218
  598MOL0     O82389  10.468   1.703  11.304  0.2450  0.6170 -0.1658
  598MOL0     C82390  10.365   1.698  11.218  0.6125  0.5308 -0.0836
  598MOL0     C82391  10.308   1.579  11.160 -0.2300  0.2326 -0.4043
  598MOL0     C82392  10.204   1.579  11.069 -0.0314 -0.1788  0.0707
  598MOL0     C82393  10.140   1.701  11.050  0.1708  0.1499 -0.3102
  598MOL0     O82394  10.031   1.711  10.971  0.8861 -0.2057 -0.4198
  598MOL0     C82395  10.044   1.649  10.836  0.2092 -1.5731  0.3282
  598MOL0     C82396   9.955   1.531  10.817  0.0650  0.0010 -0.3990
  598MOL0     C82397   9.813   1.582  10.849 -0.1851  0.1954 -0.4850
  598MOL0     C82398   9.695   1.492  10.811 -0.2844 -0.1051  0.4691
  598MOL0     C82399   9.575   1.571  10.870 -0.3779 -0.2284 -0.3587
  598MOL0     C82400   9.451   1.496  10.835  0.4873  0.1640 -0.3495
  598MOL0     C82401   9.325   1.575  10.845 -0.6343 -0.4351 -0.0155
  598MOL0     C82402   9.304   1.619  10.981  0.1975 -0.2518 -0.9545
  598MOL0     N82403   9.161   1.664  10.988  0.1248  0.2753 -0.5202
  598MOL0     C82404   9.117   1.795  10.993  0.4296  0.3018  0.0321
  598MOL0     C82405   9.011   1.798  11.082  0.2004  1.2921  0.4264
  598MOL0     C82406   8.929   1.920  11.114 -0.1993  0.3961 -0.4828
  598MOL0     C82407   9.001   2.010  11.218 -0.2753  0.3133  0.6314
  598MOL0     C82408   9.045   1.934  11.339  0.4194  0.9981 -1.0958
  598MOL0     C82409   9.106   2.044  11.430 -0.5139 -0.2909  0.2594
  598MOL0     O82410   9.244   2.085  11.404  0.1893  0.1582 -0.0565
  598MOL0     C82411   9.360   2.024  11.463  0.1696  0.4469 -0.3656
  598MOL0     C82412   9.359   1.905  11.538  0.3698  0.0871  0.2637
  598MOL0     C82413   9.475   1.850  11.595  0.2494 -0.4973 -0.8326
  598MOL0     C82414   9.469   1.706  11.654 -0.5613  0.1077 -0.2476
  598MOL0     C82415   9.599   1.926  11.582  0.0693 -0.9362  0.0497
  598MOL0     C82416   9.728   1.875  11.635  0.3030  0.0009 -0.4508
  598MOL0     O82417   9.845   1.949  11.608  0.2924  0.1525  0.9340
  598MOL0     C82418   9.959   1.916  11.674  0.0976 -0.0404 -0.3371
  598MOL0     C82419  10.073   1.928  11.607 -0.0611 -0.2783  0.1298
  598MOL0     C82420  10.196   1.906  11.661 -0.8435  0.4500  0.3186
  598MOL0     C82421  10.212   1.856  11.793  0.0882  0.8081 -0.0909
  598MOL0     O82422  10.335   1.843  11.856  0.4483  0.6541 -0.1494
  598MOL0     C82423  10.346   1.797  11.997  0.0279 -0.1015  1.0939
  598MOL0     C82424  10.496   1.806  12.027 -0.3019 -0.6203  0.5746
  598MOL0     C82425  10.572   1.692  11.964 -0.5411  0.4522  0.5529
  598MOL0     C82426  10.702   1.663  12.054  0.0793  0.2680 -0.2347
  598MOL0     C82427  10.827   1.620  11.978 -0.3159  0.4643  0.0861
  598MOL0     C82428  10.839   1.469  11.934 -0.1612  0.2218 -0.8868
  598MOL0     C82429  10.782   1.432  11.791 -0.0434 -0.0731  0.4808
  598MOL0     C82430  10.803   1.292  11.738  0.8027  0.3355  0.1916
  598MOL0    Cl82431  10.963   1.252  11.674  0.3562 -0.5961  0.0873
  598MOL0     C82432  10.092   1.851  11.867 -0.1837 -1.2705  0.0317
  598MOL0     C82433   9.971   1.884  11.811  0.3142 -0.1026 -1.0668
  598MOL0     O82434   9.731   1.780  11.717 -0.0856 -0.2310  0.6927
  598MOL0     C82435   9.591   2.045  11.509 -0.6138 -0.7919  0.2728
  598MOL0     C82436   9.481   2.091  11.444  0.7995 -0.2289 -0.2476
  598MOL0     N82437   8.987   1.665  11.120 -0.1851 -0.1727  0.5154
  598MOL0     N82438   9.073   1.590  11.064  0.0728 -0.1473  0.0326
  598MOL0     C82439  10.172   1.818  11.122 -0.0975  0.2951 -0.0483
  598MOL0     C82440  10.287   1.814  11.200 -0.0634  0.2648  0.3249
  598MOL0     C82441  10.701   1.711  11.351 -0.2707  0.2910  0.2108
  598MOL0     C82442  10.820   1.653  11.319 -0.3326 -0.2292 -0.1995
  598MOL0     C82443  10.932   1.663  11.409 -0.9483  0.5034 -0.1865
  598MOL0     C82444  10.927   1.743  11.519  0.2416 -0.5690 -0.2622
  598MOL0     O82445  11.054   1.747  11.575 -0.8948  0.9329  0.8023
  598MOL0     C82446  11.070   1.786  11.711  0.5883 -0.1988 -0.0756
  598MOL0     C82447  11.219   1.798  11.734 -0.1240 -0.5633 -0.1246
  598MOL0     C82448  11.298   1.684  11.683 -0.2082 -0.8474  0.1592
  598MOL0     C82449  11.251   1.540  11.703 -0.6401 -0.4483 -0.2463
  598MOL0     C82450  11.242   1.519  11.842  0.6216  0.1011 -0.8249
  598MOL0     C82451  11.215   1.487  11.964 -0.9212 -0.1665  1.0273
  598MOL0     C82452  10.808   1.802  11.552  0.2988 -0.5157 -0.3994
  598MOL0     C82453  10.701   1.788  11.467  0.7901 -0.4738  0.3790
  598MOL0     C82454  10.568   1.858  11.510 -0.3327  0.5962  0.7941
  598MOL0     H82455  10.352   1.488  11.200 -1.6414 -0.8019 -1.1025
  598MOL0     H82456  10.173   1.483  11.028 -0.2623  1.2087 -3.3382
  598MOL0     H82457  10.149   1.625  10.815  1.1189  1.8287  0.4096
  598MOL0     H82458  10.018   1.727  10.764 -0.7221 -0.2126  2.0634
  598MOL0     H82459   9.973   1.481  10.722  0.9504 -0.2774 -0.0975
  598MOL0     H82460   9.988   1.452  10.885 -1.2455 -0.7995 -0.6742
  598MOL0     H82461   9.813   1.598  10.957  0.8488  0.0414 -0.4497
  598MOL0     H82462   9.798   1.680  10.804  2.7900  1.2820  0.6071
  598MOL0     H82463   9.687   1.483  10.702  0.1293  2.1620  0.1924
  598MOL0     H82464   9.706   1.395  10.860  0.8407 -0.5396 -0.5807
  598MOL0     H82465   9.578   1.674  10.832 -1.4710  0.5727  1.5716
  598MOL0     H82466   9.583   1.588  10.978 -1.1569 -0.4493 -0.2608
  598MOL0     H82467   9.452   1.459  10.732 -1.2177 -0.4451 -0.1722
  598MOL0     H82468   9.447   1.405  10.894 -2.9359 -0.3743 -1.1760
  598MOL0     H82469   9.243   1.507  10.822 -1.4222 -0.0386  1.5139
  598MOL0     H82470   9.313   1.656  10.772 -1.6323  1.0644  1.7525
  598MOL0     H82471   9.311   1.532  11.046  1.2048 -3.0374 -4.4276
  598MOL0     H82472   9.376   1.695  11.013 -0.8294  0.1684  0.4300
  598MOL0     H82473   9.170   1.884  10.958  1.0526 -1.2777 -3.5523
  598MOL0     H82474   8.831   1.893  11.156 -0.4978  1.2116 -0.6480
  598MOL0     H82475   8.915   1.969  11.017  2.0984 -1.7209 -2.0141
  598MOL0     H82476   9.087   2.062  11.175  1.3172 -1.6790  1.2229
  598MOL0     H82477   8.918   2.071  11.255 -0.6027  0.4128 -0.2480
  598MOL0     H82478   8.963   1.885  11.391  1.3598  1.1615  0.6151
  598MOL0     H82479   9.120   1.857  11.322 -1.6083 -2.7409  4.1969
  598MOL0     H82480   9.042   2.131  11.443 -0.6227 -0.2733 -0.3355
  598MOL0     H82481   9.104   2.005  11.532  2.2645 -3.0377 -0.5578
  598MOL0     H82482   9.267   1.849  11.552 -1.5866  3.5977  3.7579
  598MOL0     H82483   9.562   1.657  11.622 -0.4678  1.2552 -1.8894
  598MOL0     H82484   9.383   1.646  11.623 -0.8155 -0.9120  2.2512
  598MOL0     H82485   9.470   1.711  11.763  2.1384 -0.8434 -0.1609
  598MOL0     H82486  10.092   1.974  11.511  3.4896 -1.0410  0.3235
  598MOL0     H82487  10.286   1.936  11.609 -1.5103  2.1932  0.0923
  598MOL0     H82488  10.289   1.860  12.066 -0.8994  0.2463  0.0316
  598MOL0     H82489  10.300   1.699  12.008  0.3163 -0.8377 -2.8639
  598MOL0     H82490  10.541   1.901  11.998  0.8639 -1.2039  0.4471
  598MOL0     H82491  10.512   1.793  12.134 -3.1388  2.4672  1.5522
  598MOL0     H82492  10.602   1.729  11.866 -0.2237 -0.3236  0.3523
  598MOL0     H82493  10.513   1.600  11.962  1.0960 -0.7447  2.8118
  598MOL0     H82494  10.673   1.587  12.127  3.6655  0.1155  1.2218
  598MOL0     H82495  10.726   1.754  12.110  1.3080 -1.2116  1.7916
  598MOL0     H82496  10.810   1.680  11.888 -3.0562  2.7872  1.9696
  598MOL0     H82497  10.925   1.643  12.022 -0.6331  1.1474  0.4455
  598MOL0     H82498  10.778   1.416  12.007 -0.7951  1.5340 -0.4483
  598MOL0     H82499  10.940   1.433  11.956 -1.1515 -0.4000  3.4472
  598MOL0     H82500  10.817   1.490  11.705  1.7294 -0.4422  0.8968
  598MOL0     H82501  10.674   1.445  11.803 -0.2688 -3.1420  2.8362
  598MOL0     H82502  10.732   1.278  11.657  2.1742  4.0335 -1.8702
  598MOL0     H82503  10.776   1.219  11.815 -2.9687 -0.8246 -1.9709
  598MOL0     H82504  10.095   1.833  11.974  1.0322 -2.1717 -0.1254
  598MOL0     H82505   9.897   1.890  11.890  1.4214  0.2628 -0.0440
  598MOL0     H82506   9.685   2.099  11.503 -0.6382 -0.8992 -1.7663
  598MOL0     H82507   9.469   2.180  11.383 -0.5837 -0.3566 -0.1984
  598MOL0     H82508  10.115   1.910  11.110  0.3378  0.5728 -0.0255
  598MOL0     H82509  10.306   1.904  11.258 -0.9437  0.6031  0.0932
  598MOL0     H82510  10.827   1.580  11.240  2.7713  0.9629 -1.2022
  598MOL0     H82511  11.024   1.614  11.378 -1.1306  2.0780 -3.7275
  598MOL0     H82512  11.024   1.884  11.727  1.1176 -0.0076  0.2862
  598MOL0     H82513  11.033   1.717  11.787 -4.1687  0.6949 -1.2524
  598MOL0     H82514  11.245   1.818  11.839 -1.8494 -1.2779  0.4750
  598MOL0     H82515  11.262   1.886  11.685 -0.7122  0.1441  0.5929
  598MOL0     H82516  11.308   1.704  11.576 -0.5881 -1.3824  0.0157
  598MOL0     H82517  11.401   1.697  11.715  0.1828 -1.0885 -0.9806
  598MOL0     H82518  11.332   1.478  11.663 -3.2461 -3.1806 -1.7153
  598MOL0     H82519  11.167   1.516  11.638 -1.1364  1.8388 -0.5315
  598MOL0     H82520  11.185   1.450  12.060 -0.2603 -0.5445  1.0934
  598MOL0     H82521  10.789   1.852  11.647 -0.5259 -4.2541  1.5900
  598MOL0     H82522  10.544   1.928  11.429  0.0217  2.4769  2.2532
  598MOL0     H82523  10.492   1.781  11.526 -1.0641  0.7720 -1.4771
  598MOL0     H82524  10.576   1.908  11.607  4.5605 -0.3590  1.1231
  599MOL0     O82525   1.204   6.697   9.212 -0.0951  0.0617  0.4354
  599MOL0     C82526   1.211   6.664   9.095 -0.0481  0.7753 -0.3338
  599MOL0     O82527   1.153   6.727   8.993 -0.2277  0.5407 -0.0191
  599MOL0     C82528   1.093   6.847   9.016  0.2290 -1.1112  0.1022
  599MOL0     C82529   0.965   6.869   8.971 -0.5907 -0.6774 -0.2686
  599MOL0     C82530   0.912   6.999   8.963  1.1164 -0.2809 -0.5741
  599MOL0     C82531   0.979   7.109   9.022 -0.3124  0.0218  0.8911
  599MOL0     O82532   0.897   7.220   9.036  0.3340 -0.4049 -0.3682
  599MOL0     C82533   0.945   7.340   8.966 -0.2053  0.1221 -0.3810
  599MOL0     C82534   0.834   7.416   8.892  0.1956 -0.1327  0.4109
  599MOL0     C82535   0.887   7.519   8.794  0.2407 -0.5629 -0.1862
  599MOL0     C82536   0.781   7.573   8.703 -0.4135 -0.4511 -0.1793
  599MOL0     C82537   0.841   7.649   8.580  0.0897  0.4351  0.1877
  599MOL0     C82538   0.749   7.713   8.482  0.9691  0.6376 -0.0813
  599MOL0     C82539   0.821   7.807   8.385 -0.1320  0.0187 -0.1528
  599MOL0     C82540   0.904   7.721   8.293 -0.3154 -0.4202 -0.1008
  599MOL0     N82541   1.051   7.713   8.315  0.0224  0.2620 -0.3979
  599MOL0     C82542   1.136   7.632   8.249  0.7147  0.4566  0.6763
  599MOL0     C82543   1.250   7.630   8.321  0.1016 -0.2627 -0.3615
  599MOL0     C82544   1.362   7.543   8.274 -0.3860 -0.7429  0.5971
  599MOL0     C82545   1.428   7.458   8.389 -0.0919 -0.2717  1.0980
  599MOL0     C82546   1.549   7.394   8.320  0.5367 -0.0103  0.4736
  599MOL0     C82547   1.626   7.319   8.424 -0.1590 -0.5182 -0.2357
  599MOL0     O82548   1.571   7.205   8.473  0.8164  0.4602  0.1671
  599MOL0     C82549   1.656   7.105   8.498 -0.1647 -0.0242  0.2807
  599MOL0     C82550   1.602   6.983   8.501 -1.0975  0.5151  0.4205
  599MOL0     C82551   1.678   6.878   8.542 -0.5680  0.4815  0.3628
  599MOL0     C82552   1.608   6.743   8.551  0.1549  0.0371 -0.0316
  599MOL0     C82553   1.813   6.888   8.578 -0.3642  0.5082 -0.0407
  599MOL0     C82554   1.897   6.774   8.609  0.2469  0.2331 -0.3475
  599MOL0     O82555   1.898   6.664   8.524  0.5381  0.4348 -1.4920
  599MOL0     C82556   1.990   6.564   8.556 -0.0740 -0.7558  0.6145
  599MOL0     C82557   2.125   6.571   8.513  0.4052 -0.2206 -0.3359
  599MOL0     C82558   2.218   6.475   8.556 -0.5520  0.0724 -0.5338
  599MOL0     C82559   2.185   6.362   8.626  1.0306 -0.3948 -0.5548
  599MOL0     O82560   2.277   6.278   8.658 -0.9279  0.5415  0.4294
  599MOL0     C82561   2.282   6.216   8.788  0.4440  0.1900  0.0467
  599MOL0     C82562   2.422   6.164   8.821 -0.0470 -0.0632 -0.0529
  599MOL0     C82563   2.441   6.017   8.780  0.2265 -0.1601  0.0611
  599MOL0     C82564   2.519   5.932   8.874  0.4844 -0.1410  0.2486
  599MOL0     C82565   2.546   5.796   8.805 -0.1459  1.2014  0.2617
  599MOL0     C82566   2.633   5.699   8.891 -0.2853 -0.2514 -0.6194
  599MOL0     C82567   2.775   5.763   8.924  0.5532 -0.5515  0.6981
  599MOL0     C82568   2.886   5.688   8.856  0.3999  0.0600 -0.5324
  599MOL0    Cl82569   3.046   5.771   8.867 -0.0650 -0.2707 -0.2167
  599MOL0     C82570   2.045   6.354   8.658  0.2081  1.0994  0.2318
  599MOL0     C82571   1.960   6.463   8.636  0.4420 -0.0271  0.3106
  599MOL0     O82572   1.975   6.785   8.704 -0.3516  0.4487 -0.1615
  599MOL0     C82573   1.871   7.014   8.572 -0.2888  0.0273  0.3510
  599MOL0     C82574   1.792   7.121   8.527  0.2065 -0.6736  0.2880
  599MOL0     N82575   1.230   7.709   8.434  0.3378  0.1809 -1.4116
  599MOL0     N82576   1.115   7.763   8.429 -0.0615 -0.2440 -0.5175
  599MOL0     C82577   1.104   7.087   9.071  0.3268  0.1743  0.3930
  599MOL0     C82578   1.166   6.960   9.062  0.6202 -1.2347 -0.1648
  599MOL0     C82579   1.299   6.549   9.062 -0.0160 -0.2662  0.4021
  599MOL0     C82580   1.273   6.435   9.144 -1.1825  0.1633 -0.6175
  599MOL0     C82581   1.351   6.322   9.129 -0.3820  0.3074 -0.3486
  599MOL0     C82582   1.452   6.318   9.032 -0.4666  0.3805 -0.9768
  599MOL0     O82583   1.536   6.204   9.018  1.5374  0.5779 -0.4729
  599MOL0     C82584   1.664   6.211   8.960  0.1631  0.5443 -0.2021
  599MOL0     C82585   1.731   6.081   8.998 -0.2702  0.4714  0.8846
  599MOL0     C82586   1.681   5.941   8.946 -0.2160 -0.3085  0.7327
  599MOL0     C82587   1.715   5.912   8.797 -0.0975  0.1904 -0.0833
  599MOL0     C82588   1.858   5.878   8.779  0.8939  0.8559 -0.4482
  599MOL0     C82589   1.972   5.851   8.763 -0.1082 -1.1010  0.4339
  599MOL0     C82590   1.480   6.429   8.960  0.3013 -0.3580  0.4901
  599MOL0     C82591   1.405   6.546   8.969  0.3221 -0.4959 -0.2039
  599MOL0     C82592   1.448   6.668   8.886 -0.0434 -0.2916 -0.5734
  599MOL0     H82593   0.899   6.788   8.941 -1.2132 -0.3321  0.1425
  599MOL0     H82594   0.808   7.018   8.935  0.6739 -0.9587  0.5384
  599MOL0     H82595   1.023   7.300   8.900 -1.2738 -1.8211 -0.5343
  599MOL0     H82596   0.987   7.412   9.037 -1.5786  0.7279 -0.1391
  599MOL0     H82597   0.793   7.336   8.829 -1.0399  1.3563 -0.7492
  599MOL0     H82598   0.756   7.465   8.950  2.3591  1.3731  2.2016
  599MOL0     H82599   0.918   7.608   8.851 -2.6381 -0.3587  1.2685
  599MOL0     H82600   0.969   7.475   8.737 -0.1208  0.3381 -1.4490
  599MOL0     H82601   0.715   7.492   8.671  0.4765 -0.9315 -0.8298
  599MOL0     H82602   0.725   7.648   8.760  1.6666  0.8579  0.2510
  599MOL0     H82603   0.913   7.588   8.525 -2.7566 -1.6800 -1.4682
  599MOL0     H82604   0.911   7.725   8.614  3.0211 -1.4620 -1.2134
  599MOL0     H82605   0.681   7.645   8.429  0.2840  1.3312 -0.1250
  599MOL0     H82606   0.682   7.777   8.541  1.0972 -1.0188  1.9707
  599MOL0     H82607   0.882   7.878   8.441 -1.7764  1.8208 -0.5389
  599MOL0     H82608   0.744   7.863   8.332  0.9492  1.4524 -0.2668
  599MOL0     H82609   0.864   7.620   8.292  1.9525 -1.4364  1.8343
  599MOL0     H82610   0.890   7.769   8.196  1.5361  1.9790  0.7250
  599MOL0     H82611   1.110   7.581   8.157 -1.6045  1.6862  0.5632
  599MOL0     H82612   1.433   7.604   8.218 -1.1032 -1.3207 -1.0084
  599MOL0     H82613   1.325   7.468   8.203 -0.4982  0.0078 -0.1660
  599MOL0     H82614   1.462   7.524   8.470  0.7184  2.0122 -0.9798
  599MOL0     H82615   1.363   7.377   8.422 -0.9246 -0.4595 -0.8517
  599MOL0     H82616   1.523   7.317   8.247 -2.2561  2.1020 -0.9402
  599MOL0     H82617   1.619   7.465   8.274  0.8191 -0.3936  0.3035
  599MOL0     H82618   1.720   7.299   8.373  1.5212 -0.7847  2.7046
  599MOL0     H82619   1.658   7.382   8.508  0.5962  0.6059 -1.3416
  599MOL0     H82620   1.504   6.966   8.458  0.2670 -0.9738 -2.3032
  599MOL0     H82621   1.501   6.753   8.571  0.5326 -0.7049  2.9049
  599MOL0     H82622   1.649   6.686   8.635  1.3332  0.6194 -0.1827
  599MOL0     H82623   1.630   6.676   8.467 -0.5083  1.6723 -1.5515
  599MOL0     H82624   2.146   6.672   8.478 -0.0269 -0.5862 -1.7383
  599MOL0     H82625   2.326   6.481   8.549 -0.2966  0.3457  2.2634
  599MOL0     H82626   2.254   6.297   8.856 -2.9831 -1.5558  0.9122
  599MOL0     H82627   2.198   6.149   8.803 -0.6202  1.4847  0.0747
  599MOL0     H82628   2.496   6.228   8.774 -0.2908  1.2437  1.2644
  599MOL0     H82629   2.437   6.164   8.930  0.3230  0.1009 -0.1018
  599MOL0     H82630   2.482   6.010   8.679 -3.0887  0.9647 -1.5363
  599MOL0     H82631   2.340   5.975   8.774  0.6184 -1.2136  0.7440
  599MOL0     H82632   2.463   5.924   8.967 -2.0321 -0.3595 -1.1911
  599MOL0     H82633   2.613   5.982   8.898 -1.0560  1.4462  3.5611
  599MOL0     H82634   2.448   5.749   8.795  0.2562  0.7088 -1.5375
  599MOL0     H82635   2.591   5.813   8.707 -0.4776  1.6144  0.1762
  599MOL0     H82636   2.650   5.604   8.839  1.7404  0.6960 -1.7572
  599MOL0     H82637   2.574   5.671   8.979 -2.8530 -2.5976 -2.8683
  599MOL0     H82638   2.789   5.757   9.032 -1.3143  1.6476  1.1488
  599MOL0     H82639   2.780   5.870   8.902 -3.3008 -0.2968  0.4927
  599MOL0     H82640   2.862   5.651   8.756  0.8592 -1.5984 -0.0592
  599MOL0     H82641   2.900   5.603   8.922 -0.4571 -1.0406 -1.7196
  599MOL0     H82642   2.011   6.267   8.715 -2.1766  2.0051  0.3055
  599MOL0     H82643   1.863   6.441   8.680  0.1934 -0.0083 -0.2211
  599MOL0     H82644   1.979   7.023   8.585  0.2661  0.9275 -3.5408
  599MOL0     H82645   1.827   7.223   8.530 -2.3865  0.4211 -2.3854
  599MOL0     H82646   1.152   7.172   9.118  0.4743  0.7446 -0.7526
  599MOL0     H82647   1.269   6.951   9.094  0.1876  0.3312  1.9022
  599MOL0     H82648   1.202   6.440   9.226 -0.9385 -0.4218 -0.3625
  599MOL0     H82649   1.330   6.229   9.182 -2.3675  0.1419 -1.3267
  599MOL0     H82650   1.657   6.216   8.851 -1.9072  1.8483 -0.0471
  599MOL0     H82651   1.718   6.300   8.993  0.4753 -0.0811  1.0277
  599MOL0     H82652   1.718   6.068   9.106 -0.0820 -0.3330  0.8171
  599MOL0     H82653   1.836   6.096   8.974  0.1306 -1.7603  1.0769
  599MOL0     H82654   1.725   5.852   8.992 -1.8726 -2.2815 -1.2496
  599MOL0     H82655   1.573   5.940   8.964 -0.0888 -1.5812  1.5787
  599MOL0     H82656   1.699   6.011   8.751  2.8528  1.8535  2.1261
  599MOL0     H82657   1.643   5.833   8.778 -3.0001  2.8407 -1.0044
  599MOL0     H82658   2.075   5.821   8.756 -0.3158 -1.5492 -1.1005
  599MOL0     H82659   1.572   6.437   8.902  0.6650 -2.0047  0.7841
  599MOL0     H82660   1.509   6.729   8.953  1.1778 -3.3022  1.2593
  599MOL0     H82661   1.510   6.642   8.799 -1.9032  1.2396 -2.4817
  599MOL0     H82662   1.361   6.729   8.861  0.2964  0.2710 -0.3776
  600MOL0     O82663   8.535   3.391   7.466 -0.1044 -0.2225  0.2701
  600MOL0     C82664   8.595   3.381   7.567 -0.7907 -0.2396 -0.3612
  600MOL0     O82665   8.546   3.403   7.694  0.1606 -0.7797  0.4172
  600MOL0     C82666   8.417   3.434   7.724 -0.0563  0.2868 -0.5956
  600MOL0     C82667   8.348   3.543   7.667 -1.0391 -0.1733 -0.5710
  600MOL0     C82668   8.220   3.575   7.712  1.1153  0.1025 -0.5627
  600MOL0     C82669   8.161   3.500   7.816 -0.3783 -0.5994  0.7249
  600MOL0     O82670   8.034   3.538   7.850  0.1979  0.0332 -1.1766
  600MOL0     C82671   8.005   3.502   7.985 -0.8315  0.9408 -0.2868
  600MOL0     C82672   7.875   3.562   8.029  0.4246 -0.2229 -0.1235
  600MOL0     C82673   7.762   3.515   7.934 -0.0436 -1.1507  0.1742
  600MOL0     C82674   7.616   3.511   7.985 -0.1818 -0.1466  0.0554
  600MOL0     C82675   7.563   3.655   7.988  0.6132 -0.0028 -0.6536
  600MOL0     C82676   7.426   3.661   8.059 -0.4333  0.4113 -0.2106
  600MOL0     C82677   7.382   3.815   8.093  0.5961  0.0285  0.0965
  600MOL0     C82678   7.256   3.833   8.167  0.2370  0.0872 -0.4268
  600MOL0     N82679   7.138   3.782   8.088  0.3654 -0.2701 -0.6819
  600MOL0     C82680   7.100   3.834   7.974  0.3381  0.9132  0.3044
  600MOL0     C82681   6.977   3.791   7.956  0.1654 -0.2696  0.5289
  600MOL0     C82682   6.879   3.827   7.842 -0.5592  0.4067 -0.2029
  600MOL0     C82683   6.732   3.788   7.875 -0.1183  0.3539 -0.2876
  600MOL0     C82684   6.627   3.855   7.777  0.4956  0.5413 -0.3036
  600MOL0     C82685   6.603   3.775   7.641 -1.0600  0.8662  0.3032
  600MOL0     O82686   6.711   3.810   7.551  0.7099 -0.5796 -0.5741
  600MOL0     C82687   6.767   3.725   7.461  0.5389 -0.3302  0.4189
  600MOL0     C82688   6.693   3.618   7.401 -0.1264  0.1178  1.0804
  600MOL0     C82689   6.755   3.532   7.307  0.3676  0.0536 -1.3580
  600MOL0     C82690   6.666   3.424   7.267 -0.0882  0.1849 -0.1343
  600MOL0     C82691   6.892   3.556   7.283  0.3102  0.2292  1.1139
  600MOL0     C82692   6.969   3.471   7.194 -0.4459 -0.0684  0.0987
  600MOL0     O82693   7.077   3.412   7.252 -0.9414  0.1302 -0.3374
  600MOL0     C82694   7.193   3.407   7.182  0.1754  1.1738  0.1271
  600MOL0     C82695   7.203   3.345   7.059  0.2040  0.0423 -0.2641
  600MOL0     C82696   7.321   3.366   6.979 -0.4299  0.1203 -0.2942
  600MOL0     C82697   7.438   3.415   7.040 -0.0486  0.0912  0.0819
  600MOL0     O82698   7.562   3.416   6.987 -0.3488 -0.4055 -1.0668
  600MOL0     C82699   7.574   3.340   6.865 -0.4855  0.1847  0.1692
  600MOL0     C82700   7.717   3.325   6.813  0.0141 -1.3085  0.8405
  600MOL0     C82701   7.744   3.444   6.724 -0.2044  0.5875  0.2939
  600MOL0     C82702   7.887   3.447   6.684 -0.3167 -0.2261 -0.0846
  600MOL0     C82703   7.923   3.561   6.580 -1.1780 -0.4879 -0.4081
  600MOL0     C82704   7.872   3.702   6.611 -0.8056 -0.0973 -0.0574
  600MOL0     C82705   7.918   3.758   6.745 -0.7657 -0.1600  0.1320
  600MOL0     C82706   7.921   3.909   6.731 -0.9017 -0.3372  0.0154
  600MOL0    Cl82707   7.983   3.971   6.886  0.1442  0.3105 -0.0663
  600MOL0     C82708   7.419   3.467   7.173 -0.9033 -0.0154  0.0221
  600MOL0     C82709   7.305   3.453   7.250 -0.3226  0.3144 -0.2862
  600MOL0     O82710   6.936   3.452   7.081  0.5008  0.3108  0.1368
  600MOL0     C82711   6.960   3.668   7.331  1.0160  0.3662 -0.1947
  600MOL0     C82712   6.899   3.748   7.424  0.2444  0.3005  0.1370
  600MOL0     N82713   6.945   3.708   8.065  0.8577  0.2758 -0.0106
  600MOL0     N82714   7.046   3.695   8.135 -0.8011  0.2289  0.2259
  600MOL0     C82715   8.239   3.396   7.865  0.2915  0.4299 -0.5640
  600MOL0     C82716   8.363   3.360   7.822  0.1368 -0.3190 -0.5933
  600MOL0     C82717   8.740   3.336   7.575  0.4721 -0.3835 -0.0755
  600MOL0     C82718   8.806   3.363   7.691  0.9300 -0.9450  0.0108
  600MOL0     C82719   8.946   3.365   7.699 -0.2154  0.6850 -0.3374
  600MOL0     C82720   9.026   3.312   7.594  0.9911 -0.2814  0.5800
  600MOL0     O82721   9.159   3.289   7.594  0.1333 -0.3990 -0.1610
  600MOL0     C82722   9.239   3.407   7.601  0.4894  0.8928  0.0499
  600MOL0     C82723   9.386   3.399   7.652 -0.0938  1.0243 -0.5087
  600MOL0     C82724   9.379   3.348   7.795  0.5655  0.1068 -0.4945
  600MOL0     C82725   9.504   3.261   7.827  0.7080 -0.3870  0.0154
  600MOL0     C82726   9.506   3.198   7.965  0.3097 -0.0511 -0.6808
  600MOL0     C82727   9.513   3.152   8.078  0.4073  0.4020  0.7013
  600MOL0     C82728   8.963   3.266   7.483  0.3561 -0.2747  0.3693
  600MOL0     C82729   8.820   3.279   7.470  0.4743 -0.3656  0.1257
  600MOL0     C82730   8.764   3.253   7.336 -0.1579 -0.5437  1.2372
  600MOL0     H82731   8.397   3.585   7.580  1.6129  0.1187  0.9327
  600MOL0     H82732   8.159   3.645   7.656 -0.5480 -1.8615 -1.3428
  600MOL0     H82733   8.086   3.540   8.047  0.1307  1.0752 -1.5759
  600MOL0     H82734   8.003   3.393   7.986 -2.3518  0.9296 -1.3983
  600MOL0     H82735   7.853   3.529   8.132 -0.9130  2.5083  0.5589
  600MOL0     H82736   7.880   3.671   8.035  2.2050 -0.2305 -0.8121
  600MOL0     H82737   7.754   3.572   7.841 -0.6794 -0.3390  0.7212
  600MOL0     H82738   7.795   3.422   7.886  0.9471  2.0378 -6.5172
  600MOL0     H82739   7.552   3.452   7.919  0.2729 -1.5929  0.8785
  600MOL0     H82740   7.617   3.472   8.087  1.4255  2.4415  1.1443
  600MOL0     H82741   7.552   3.697   7.888 -0.4272 -0.6916 -0.8349
  600MOL0     H82742   7.639   3.714   8.041  0.9098  1.0497 -2.1616
  600MOL0     H82743   7.347   3.612   8.002 -1.0838  1.0964  0.0876
  600MOL0     H82744   7.437   3.602   8.150 -2.2349  0.1911 -0.1178
  600MOL0     H82745   7.374   3.868   7.998 -3.1972 -0.3484  0.0793
  600MOL0     H82746   7.455   3.863   8.159  2.0579 -1.9059 -0.0236
  600MOL0     H82747   7.265   3.782   8.263  1.6022  0.0957 -0.5273
  600MOL0     H82748   7.252   3.940   8.190  2.6037  0.3606 -0.9454
  600MOL0     H82749   7.160   3.893   7.905 -1.6106  4.8271  1.6218
  600MOL0     H82750   6.899   3.761   7.757 -0.2961 -3.6554  2.7295
  600MOL0     H82751   6.883   3.936   7.832 -2.0821  0.6567  1.4639
  600MOL0     H82752   6.712   3.681   7.863 -0.8347  0.4463  0.0273
  600MOL0     H82753   6.707   3.813   7.978  0.4833  0.5984 -0.1974
  600MOL0     H82754   6.532   3.864   7.831  0.2342  4.9616 -1.1150
  600MOL0     H82755   6.652   3.960   7.760  1.4024  0.1134 -1.8153
  600MOL0     H82756   6.598   3.666   7.656 -0.8138  0.7497 -0.4454
  600MOL0     H82757   6.507   3.806   7.600 -0.7735  3.4751  1.4352
  600MOL0     H82758   6.588   3.608   7.426 -0.4784 -0.0592 -0.3335
  600MOL0     H82759   6.601   3.456   7.185 -0.1322 -0.7063 -0.4546
  600MOL0     H82760   6.597   3.394   7.347  0.7322  0.3392  0.6529
  600MOL0     H82761   6.737   3.344   7.243  0.7851  1.2979 -1.4088
  600MOL0     H82762   7.116   3.299   7.016 -0.2712  0.9925 -0.3394
  600MOL0     H82763   7.311   3.343   6.874 -2.7666  0.2854 -0.1649
  600MOL0     H82764   7.545   3.236   6.883  1.1808 -0.1925  0.8157
  600MOL0     H82765   7.512   3.384   6.786 -0.0884 -0.3829 -0.4703
  600MOL0     H82766   7.795   3.317   6.889  1.1247 -0.6817 -0.1982
  600MOL0     H82767   7.716   3.233   6.754  0.6960 -0.9768  0.2918
  600MOL0     H82768   7.726   3.535   6.782  0.5388 -0.2958  1.9853
  600MOL0     H82769   7.682   3.446   6.634  0.4962 -1.1249 -0.2588
  600MOL0     H82770   7.911   3.351   6.636  2.0743  1.0847 -1.7593
  600MOL0     H82771   7.936   3.463   6.780 -1.4027 -3.4659  1.1325
  600MOL0     H82772   8.031   3.575   6.570 -1.5859  1.7439 -2.7180
  600MOL0     H82773   7.901   3.545   6.474  0.2919  2.8516 -1.3691
  600MOL0     H82774   7.762   3.700   6.608 -0.7763 -1.0863 -2.0376
  600MOL0     H82775   7.897   3.775   6.533 -3.0908  0.8507  0.0053
  600MOL0     H82776   8.016   3.723   6.779  0.6924  1.1429 -2.3874
  600MOL0     H82777   7.854   3.717   6.823 -0.6821 -2.4681 -0.9287
  600MOL0     H82778   7.821   3.952   6.719 -0.9080  0.0972  1.4064
  600MOL0     H82779   7.998   3.940   6.660  1.5702 -1.9853  1.8474
  600MOL0     H82780   7.504   3.519   7.215 -0.1879 -2.1685  1.4112
  600MOL0     H82781   7.303   3.500   7.348  0.5550  3.5672 -1.7068
  600MOL0     H82782   7.063   3.675   7.300  0.8373  0.9104 -0.6900
  600MOL0     H82783   6.951   3.837   7.456 -1.2607  0.9226  0.9512
  600MOL0     H82784   8.197   3.324   7.934  0.4468  0.5116 -0.3843
  600MOL0     H82785   8.429   3.284   7.863 -1.7313 -0.3189  2.8132
  600MOL0     H82786   8.765   3.402   7.783  1.3168 -0.1746 -0.1339
  600MOL0     H82787   8.993   3.401   7.790 -0.9536  3.2451 -0.8866
  600MOL0     H82788   9.236   3.449   7.500  1.2232  0.1334 -0.3005
  600MOL0     H82789   9.190   3.474   7.671  0.7514  1.0578  0.0757
  600MOL0     H82790   9.434   3.497   7.640  1.7268  0.5401  2.0598
  600MOL0     H82791   9.433   3.326   7.586 -1.3185  0.7132 -1.0671
  600MOL0     H82792   9.375   3.428   7.869  0.2459 -2.5007  2.5590
  600MOL0     H82793   9.295   3.278   7.793 -0.6818  1.5596 -0.7646
  600MOL0     H82794   9.589   3.324   7.803  0.5191 -0.9140 -2.2861
  600MOL0     H82795   9.505   3.180   7.754  0.4325 -0.5494  0.1885
  600MOL0     H82796   9.554   3.114   8.170  1.6048  1.4804  0.6398
  600MOL0     H82797   9.025   3.231   7.401 -1.8265 -0.3958 -1.3248
  600MOL0     H82798   8.734   3.343   7.282  0.4693 -0.6477  0.7048
  600MOL0     H82799   8.829   3.195   7.270 -1.9352 -1.8232  0.5066
  600MOL0     H82800   8.674   3.191   7.341  0.6301 -1.7068  1.4446
  601MOL0     O82801   3.954   4.044   8.857 -0.1538  1.0225 -0.4901
  601MOL0     C82802   3.959   4.166   8.844  0.4848 -0.4570  0.5077
  601MOL0     O82803   4.054   4.246   8.906  0.1368  0.4105  0.5570
  601MOL0     C82804   4.159   4.193   8.974 -0.3391  0.4169  0.2773
  601MOL0     C82805   4.238   4.083   8.931  0.7386 -0.3248 -0.6509
  601MOL0     C82806   4.344   4.043   9.013  0.4833 -0.7857 -0.1281
  601MOL0     C82807   4.383   4.115   9.135 -0.1712  0.1199 -0.1865
  601MOL0     O82808   4.507   4.101   9.191 -0.1491  0.0724  0.5483
  601MOL0     C82809   4.517   4.089   9.330  0.7780  0.5681  0.0773
  601MOL0     C82810   4.647   4.025   9.364  0.0307  0.6894 -0.6632
  601MOL0     C82811   4.769   4.116   9.331 -0.3142  0.9145 -0.2619
  601MOL0     C82812   4.775   4.240   9.412 -0.1388  0.4486 -0.5727
  601MOL0     C82813   4.904   4.324   9.412  0.0997 -0.1141 -0.5408
  601MOL0     C82814   4.923   4.403   9.282 -0.9810  0.2206 -0.1010
  601MOL0     C82815   4.797   4.459   9.224  0.1555  0.7533  0.3422
  601MOL0     C82816   4.741   4.571   9.314  0.4296  0.6321  0.3134
  601MOL0     N82817   4.628   4.614   9.241  0.0246 -0.3877  0.2534
  601MOL0     C82818   4.502   4.560   9.220 -0.3802 -0.7296  0.4103
  601MOL0     C82819   4.445   4.634   9.133  0.6366 -0.5620 -0.4225
  601MOL0     C82820   4.304   4.629   9.088 -0.5527 -0.5925 -0.2606
  601MOL0     C82821   4.240   4.750   9.014  0.6871 -0.3227 -0.4605
  601MOL0     C82822   4.087   4.712   8.974 -0.3921 -0.3316  0.4137
  601MOL0     C82823   4.042   4.806   8.864  0.4318  0.0979  0.3171
  601MOL0     O82824   3.900   4.809   8.851 -0.4198 -0.0528  0.2382
  601MOL0     C82825   3.844   4.910   8.778  0.5641 -0.6674  0.5933
  601MOL0     C82826   3.899   5.038   8.739  0.5157  0.1490 -0.6726
  601MOL0     C82827   3.818   5.141   8.698  0.1353  0.0299  0.5126
  601MOL0     C82828   3.885   5.276   8.682  0.1667 -0.6630  0.5449
  601MOL0     C82829   3.676   5.119   8.687 -0.5616 -0.9761 -0.1877
  601MOL0     C82830   3.583   5.229   8.660 -0.8084  0.6055  0.3593
  601MOL0     O82831   3.586   5.271   8.531 -0.0303 -0.0529 -0.4123
  601MOL0     C82832   3.481   5.347   8.483  1.1591  0.9137 -1.3585
  601MOL0     C82833   3.507   5.475   8.436 -0.2783 -0.4831  0.7215
  601MOL0     C82834   3.401   5.542   8.386  0.1463 -0.5688  0.0722
  601MOL0     C82835   3.271   5.491   8.376 -0.5599 -0.2064 -0.0338
  601MOL0     O82836   3.179   5.572   8.316 -0.5334  0.3068  0.0375
  601MOL0     C82837   3.066   5.525   8.239 -0.0838  0.1608 -0.0920
  601MOL0     C82838   2.963   5.638   8.236 -0.2232 -0.7941  0.1292
  601MOL0     C82839   2.912   5.690   8.375 -0.2209 -0.9389  0.1508
  601MOL0     C82840   2.971   5.826   8.417 -0.7206  0.9255 -0.7331
  601MOL0     C82841   2.916   5.849   8.555 -0.1113  0.8168  0.0289
  601MOL0     C82842   2.937   5.990   8.601  0.1214  0.7051  0.9691
  601MOL0     C82843   2.815   6.075   8.575 -0.9166  0.5870 -0.0445
  601MOL0     C82844   2.825   6.226   8.612  0.6253 -0.2110 -0.7054
  601MOL0    Cl82845   2.815   6.249   8.796 -0.0844  0.2000 -0.3243
  601MOL0     C82846   3.253   5.353   8.407  0.4014 -0.3505 -0.0432
  601MOL0     C82847   3.359   5.284   8.462 -0.5186 -0.1322 -0.5205
  601MOL0     O82848   3.494   5.249   8.744 -0.0215  0.0423 -0.5035
  601MOL0     C82849   3.618   4.994   8.716 -0.0869  0.3977  0.2438
  601MOL0     C82850   3.705   4.891   8.760  0.4142 -0.7211  0.9667
  601MOL0     N82851   4.534   4.735   9.100  0.7687  0.7146  0.6003
  601MOL0     N82852   4.630   4.735   9.182  0.3621  0.9648  0.1253
  601MOL0     C82853   4.306   4.231   9.167  0.1057  0.7027  0.0356
  601MOL0     C82854   4.194   4.254   9.094 -0.1598 -0.1734  0.0435
  601MOL0     C82855   3.843   4.241   8.778  0.3302 -0.2733 -0.5704
  601MOL0     C82856   3.829   4.381   8.801  0.4180  0.1326 -0.2123
  601MOL0     C82857   3.722   4.459   8.743 -0.2191  0.7554  0.4208
  601MOL0     C82858   3.625   4.396   8.668 -0.8779  0.0364 -0.5648
  601MOL0     O82859   3.519   4.473   8.621  0.8080 -0.2269  0.1071
  601MOL0     C82860   3.390   4.430   8.657  0.3498 -0.3585 -0.5845
  601MOL0     C82861   3.294   4.542   8.671 -0.7328  0.2301 -0.3862
  601MOL0     C82862   3.169   4.480   8.763  1.1612 -0.8036 -0.7474
  601MOL0     C82863   3.044   4.428   8.680 -0.2412 -0.1621 -0.2890
  601MOL0     C82864   2.953   4.528   8.634 -0.1742 -0.0210  0.2664
  601MOL0     C82865   2.899   4.630   8.586 -0.3018 -0.0120 -0.7166
  601MOL0     C82866   3.635   4.256   8.658 -0.1036  0.2304  0.9214
  601MOL0     C82867   3.742   4.171   8.711  0.4198 -0.3700  0.5433
  601MOL0     C82868   3.733   4.020   8.680  0.5746  0.2900 -0.4905
  601MOL0     H82869   4.218   4.034   8.836  3.0185  0.7651 -1.7699
  601MOL0     H82870   4.406   3.957   8.990 -0.0366 -1.3567  0.5273
  601MOL0     H82871   4.436   4.029   9.373 -0.6497  0.5162 -2.4451
  601MOL0     H82872   4.497   4.180   9.388  2.0774  0.4070  0.8067
  601MOL0     H82873   4.644   4.008   9.472 -3.8003 -0.7437 -0.8531
  601MOL0     H82874   4.658   3.927   9.316  3.1082 -0.9774  2.9488
  601MOL0     H82875   4.862   4.059   9.333 -0.4440  0.7206  0.2176
  601MOL0     H82876   4.765   4.140   9.224  0.1709 -0.2027 -0.5469
  601MOL0     H82877   4.687   4.301   9.386  0.8529  2.1089 -0.2013
  601MOL0     H82878   4.760   4.212   9.517  1.7887  4.0693  0.8735
  601MOL0     H82879   4.993   4.264   9.433  2.7750  3.6764  0.0893
  601MOL0     H82880   4.898   4.393   9.497  0.3395  2.2470 -2.3480
  601MOL0     H82881   5.002   4.478   9.294 -0.5488 -0.4534  1.6045
  601MOL0     H82882   4.965   4.331   9.211  1.4476 -0.5536  1.9376
  601MOL0     H82883   4.724   4.383   9.193 -0.6967  1.6054  0.2066
  601MOL0     H82884   4.830   4.493   9.126 -0.4429 -1.6485 -0.7768
  601MOL0     H82885   4.702   4.526   9.406 -0.8815 -2.9860 -1.7780
  601MOL0     H82886   4.815   4.652   9.319  0.6669  0.7895 -3.3834
  601MOL0     H82887   4.461   4.477   9.276 -1.9037 -0.3533 -0.0906
  601MOL0     H82888   4.245   4.611   9.178 -0.7497 -1.8016 -0.6107
  601MOL0     H82889   4.301   4.545   9.018  1.5974  0.0045 -1.1599
  601MOL0     H82890   4.243   4.836   9.082  0.9782 -1.0527  0.4719
  601MOL0     H82891   4.302   4.761   8.924 -0.0491  0.7322 -0.8585
  601MOL0     H82892   4.071   4.609   8.942 -1.0320  0.2417 -1.1899
  601MOL0     H82893   4.023   4.733   9.060 -0.6234 -0.1493  0.1954
  601MOL0     H82894   4.081   4.901   8.900  2.4080 -1.0200  1.3034
  601MOL0     H82895   4.087   4.782   8.767  2.7416  0.1718  1.3016
  601MOL0     H82896   4.006   5.048   8.755 -0.0511  1.8543  3.6134
  601MOL0     H82897   3.839   5.355   8.742 -0.4754 -1.8944  1.7585
  601MOL0     H82898   3.880   5.292   8.574  0.9982  2.4586  0.8716
  601MOL0     H82899   3.992   5.267   8.706  0.7927 -2.6785 -2.3723
  601MOL0     H82900   3.604   5.518   8.455 -1.3221  2.6850 -0.5420
  601MOL0     H82901   3.424   5.645   8.361 -0.2166  0.0762  2.2180
  601MOL0     H82902   3.081   5.489   8.137  0.5214 -1.8394  0.6450
  601MOL0     H82903   3.024   5.439   8.292  0.4847 -0.6974 -1.0038
  601MOL0     H82904   2.997   5.728   8.184 -3.0008 -1.3300 -2.9880
  601MOL0     H82905   2.876   5.598   8.182 -0.9435 -0.4427  1.0078
  601MOL0     H82906   2.932   5.614   8.451 -0.4895  1.5458  2.9223
  601MOL0     H82907   2.803   5.699   8.374 -0.3717 -0.2675  4.3388
  601MOL0     H82908   2.940   5.900   8.344 -0.1949  0.8951 -0.9912
  601MOL0     H82909   3.080   5.821   8.420 -0.7560 -0.3363 -0.6671
  601MOL0     H82910   2.818   5.803   8.567  1.1161 -1.4498  2.4534
  601MOL0     H82911   2.978   5.783   8.616 -1.0089  0.6545  0.7836
  601MOL0     H82912   3.024   6.029   8.548 -0.7844  1.3152 -0.0923
  601MOL0     H82913   2.967   6.001   8.706  2.3775  1.9289  0.2505
  601MOL0     H82914   2.734   6.029   8.633  0.2011 -0.4003  0.7742
  601MOL0     H82915   2.794   6.065   8.468 -1.6849  1.0577  0.0575
  601MOL0     H82916   2.738   6.281   8.576 -0.6048 -1.6456 -0.0689
  601MOL0     H82917   2.912   6.278   8.571  1.0107 -1.0854 -1.0331
  601MOL0     H82918   3.157   5.303   8.396 -0.6928  2.0947 -3.2435
  601MOL0     H82919   3.357   5.177   8.480 -1.1116 -0.2610 -1.3402
  601MOL0     H82920   3.510   4.995   8.725 -0.1342  0.6187 -0.3245
  601MOL0     H82921   3.662   4.793   8.781  0.3293 -0.9714 -0.3172
  601MOL0     H82922   4.329   4.295   9.252 -1.3102  1.3170 -0.0169
  601MOL0     H82923   4.131   4.334   9.131  0.1667  0.7936 -1.4180
  601MOL0     H82924   3.911   4.425   8.857  2.4017 -1.5021 -1.6690
  601MOL0     H82925   3.745   4.563   8.765  2.0417  0.5407 -0.5697
  601MOL0     H82926   3.362   4.358   8.580 -0.4740  0.1578 -0.7776
  601MOL0     H82927   3.396   4.377   8.753 -0.1130  1.5946  0.5629
  601MOL0     H82928   3.279   4.580   8.570 -0.5211 -0.6784 -0.7743
  601MOL0     H82929   3.332   4.626   8.731  2.1357 -0.4347 -1.1366
  601MOL0     H82930   3.205   4.398   8.826  2.6950  0.2667 -0.1603
  601MOL0     H82931   3.125   4.557   8.827  1.4409 -0.0142 -1.4920
  601MOL0     H82932   2.980   4.370   8.748  0.5314  4.3919  5.0753
  601MOL0     H82933   3.068   4.358   8.600 -0.6592 -0.0956 -0.4734
  601MOL0     H82934   2.840   4.711   8.548  2.9803  0.5459 -5.5425
  601MOL0     H82935   3.557   4.211   8.597  1.2684  1.8559 -2.2716
  601MOL0     H82936   3.673   4.010   8.589 -0.1430  1.3885 -0.1680
  601MOL0     H82937   3.825   3.966   8.657 -0.5231 -1.6682 -0.4279
  601MOL0     H82938   3.693   3.967   8.767  4.9788 -0.4046  1.3482
  602MOL0     O82939   1.080   8.431   1.587  0.4365 -0.0838  0.1091
  602MOL0     C82940   0.967   8.397   1.552 -0.8739 -0.1070 -0.7309
  602MOL0     O82941   0.944   8.311   1.456 -0.5579  0.3166 -0.5704
  602MOL0     C82942   1.054   8.241   1.397  0.6644 -0.0328  0.3398
  602MOL0     C82943   1.147   8.309   1.314  0.0156  0.1066 -0.0857
  602MOL0     C82944   1.243   8.241   1.236  0.2408  0.5959  0.0799
  602MOL0     C82945   1.227   8.098   1.226 -0.1979 -0.7292  0.9508
  602MOL0     O82946   1.310   8.034   1.137  0.0007  0.4703  0.3912
  602MOL0     C82947   1.443   8.021   1.176  0.4618  0.0301 -0.5199
  602MOL0     C82948   1.533   8.054   1.059 -0.4056  0.6974 -0.6879
  602MOL0     C82949   1.675   8.018   1.105 -0.3191  0.1920 -0.0646
  602MOL0     C82950   1.772   7.995   0.992 -0.0174  0.2828  0.3561
  602MOL0     C82951   1.803   8.122   0.904 -0.1058  0.0731  0.1654
  602MOL0     C82952   1.950   8.130   0.853 -0.1702  0.1166 -0.0460
  602MOL0     C82953   2.004   8.005   0.783  0.3047  0.0488 -0.1470
  602MOL0     C82954   1.932   7.973   0.648 -0.7749 -0.2557  0.0479
  602MOL0     N82955   2.015   7.879   0.569 -0.5339  1.0061 -0.5701
  602MOL0     C82956   2.140   7.901   0.511 -0.2843  0.6571  0.0321
  602MOL0     C82957   2.170   7.786   0.442 -0.8496 -0.9642  0.0187
  602MOL0     C82958   2.291   7.752   0.354  0.5048 -0.4486 -0.0714
  602MOL0     C82959   2.266   7.786   0.200  0.1015 -0.3277 -1.1086
  602MOL0     C82960   2.373   7.719   0.108 -0.4577  0.6080 -0.2000
  602MOL0     C82961   2.508   7.785   0.121 -0.4398 -0.4782  0.1320
  602MOL0     O82962   2.598   7.753   0.008 -0.8895  0.2942  0.6146
  602MOL0     C82963   2.734   7.772   0.003 -0.1238  0.3121  0.8857
  602MOL0     C82964   2.807   7.711  -0.098  0.4882 -0.4569 -0.0977
  602MOL0     C82965   2.947   7.715  -0.087  1.0697  0.1065  0.9048
  602MOL0     C82966   3.018   7.625  -0.175  0.5285 -0.2566 -0.0231
  602MOL0     C82967   3.014   7.805   0.004 -0.1789 -0.1011  0.4531
  602MOL0     C82968   3.158   7.822   0.009 -0.4696  0.1735 -0.6956
  602MOL0     O82969   3.236   7.777  -0.096 -0.1085  0.0371  0.0166
  602MOL0     C82970   3.357   7.832  -0.126 -0.2964  0.2231  0.0732
  602MOL0     C82971   3.418   7.787  -0.239  0.0823 -0.9368  0.1075
  602MOL0     C82972   3.549   7.818  -0.268 -0.2786 -0.0360 -0.2314
  602MOL0     C82973   3.634   7.883  -0.181  0.8257  0.2819  0.0930
  602MOL0     O82974   3.766   7.914  -0.198 -0.0197 -0.0220 -0.1065
  602MOL0     C82975   3.835   7.879  -0.322 -0.1477 -0.5931  0.9744
  602MOL0     C82976   3.944   7.982  -0.354  0.5486 -0.0044  0.5166
  602MOL0     C82977   4.074   7.967  -0.275 -0.4753 -0.1697  1.0075
  602MOL0     C82978   4.175   8.074  -0.304  0.1499 -0.3154 -0.0347
  602MOL0     C82979   4.315   8.061  -0.256  0.1597  0.3832  0.1994
  602MOL0     C82980   4.387   7.948  -0.326  0.6321 -0.4931  0.3362
  602MOL0     C82981   4.432   7.989  -0.462  0.3171 -0.6454 -0.2295
  602MOL0     C82982   4.478   7.866  -0.537 -0.5325 -0.7045  0.1246
  602MOL0    Cl82983   4.509   7.919  -0.710 -0.4259  0.1508 -0.1983
  602MOL0     C82984   3.573   7.935  -0.066 -0.6460 -0.0310 -0.2450
  602MOL0     C82985   3.441   7.912  -0.042  1.0813 -0.0012  1.5936
  602MOL0     O82986   3.205   7.871   0.115  0.4597 -0.5816 -0.0364
  602MOL0     C82987   2.938   7.851   0.106 -0.6848 -0.0774 -0.7216
  602MOL0     C82988   2.799   7.831   0.106 -0.0219 -0.6485  0.6437
  602MOL0     N82989   2.053   7.705   0.452 -0.9423  0.3260 -0.1831
  602MOL0     N82990   1.967   7.765   0.528  0.2507 -0.5645 -0.7831
  602MOL0     C82991   1.127   8.038   1.300  0.3352 -0.3229 -0.2469
  602MOL0     C82992   1.039   8.110   1.379 -0.5017  0.0492 -0.7089
  602MOL0     C82993   0.850   8.458   1.617 -0.5645 -0.2083  0.4298
  602MOL0     C82994   0.720   8.423   1.568  0.0753  1.4377 -0.2901
  602MOL0     C82995   0.606   8.460   1.632  0.0481  0.3411 -0.0385
  602MOL0     C82996   0.604   8.560   1.726 -0.6879 -0.7048 -0.0112
  602MOL0     O82997   0.482   8.604   1.771  0.0374  0.4387 -0.5202
  602MOL0     C82998   0.482   8.681   1.892 -0.0403  0.5159  0.4098
  602MOL0     C82999   0.337   8.699   1.920  0.1327  0.0892 -0.8457
  602MOL0     C83000   0.242   8.730   1.801  0.0659  0.2140  0.2212
  602MOL0     C83001   0.119   8.806   1.857 -0.8592  0.4172  0.3224
  602MOL0     C83002   0.020   8.838   1.756  0.2543  0.7185  0.5644
  602MOL0     C83003  -0.056   8.857   1.661  0.2081 -0.0756 -0.2298
  602MOL0     C83004   0.730   8.604   1.777  0.2911 -0.1755 -0.1667
  602MOL0     C83005   0.850   8.558   1.725 -0.0605  0.2187  0.1352
  602MOL0     C83006   0.969   8.620   1.787 -0.1568  0.3094 -0.1015
  602MOL0     H83007   1.143   8.417   1.323 -1.2223  0.0328  0.5288
  602MOL0     H83008   1.322   8.285   1.176  1.2699 -1.4030 -0.0999
  602MOL0     H83009   1.467   7.919   1.204  1.6296  0.3162 -0.4310
  602MOL0     H83010   1.471   8.079   1.264 -1.2828 -1.1553  0.8692
  602MOL0     H83011   1.503   8.017   0.961 -0.7526  3.1549 -1.5771
  602MOL0     H83012   1.523   8.162   1.045 -0.4178  0.7710 -0.1517
  602MOL0     H83013   1.717   8.091   1.175 -1.7375  0.5081  0.4993
  602MOL0     H83014   1.685   7.927   1.165  3.3144  1.8418  2.1562
  602MOL0     H83015   1.867   7.957   1.031  0.0980  1.8387  1.6813
  602MOL0     H83016   1.735   7.923   0.918  2.8815 -0.3113 -0.6341
  602MOL0     H83017   1.777   8.214   0.958 -0.6420  0.3479 -0.5436
  602MOL0     H83018   1.739   8.119   0.816 -1.8366  0.7654  1.3312
  602MOL0     H83019   1.962   8.212   0.781  0.9283  0.8053  0.8897
  602MOL0     H83020   2.013   8.150   0.940 -0.1869  0.8413 -0.1982
  602MOL0     H83021   2.006   7.913   0.842  0.4291  0.0482 -0.1529
  602MOL0     H83022   2.108   8.026   0.758  0.3180  1.6448  1.0983
  602MOL0     H83023   1.830   7.936   0.659 -2.3140  3.4107 -0.3919
  602MOL0     H83024   1.914   8.069   0.600 -2.0731  1.1312  3.0116
  602MOL0     H83025   2.191   7.996   0.524  2.5176 -0.8802  1.1729
  602MOL0     H83026   2.315   7.646   0.371 -0.9164 -0.3690  3.1799
  602MOL0     H83027   2.377   7.811   0.383  0.1647 -0.1995  0.4501
  602MOL0     H83028   2.168   7.743   0.178 -1.0844  1.8761 -0.4089
  602MOL0     H83029   2.264   7.895   0.192 -0.1701 -0.1316  1.0675
  602MOL0     H83030   2.379   7.612   0.128 -2.2041  0.5118  0.0012
  602MOL0     H83031   2.326   7.735   0.011 -5.3670  0.8229  1.9117
  602MOL0     H83032   2.487   7.891   0.131 -0.1992 -0.3364 -0.7365
  602MOL0     H83033   2.545   7.761   0.221 -1.6740  1.4429  1.1086
  602MOL0     H83034   2.763   7.659  -0.182 -0.7625 -0.3121  0.4447
  602MOL0     H83035   2.947   7.548  -0.209 -1.7842  0.4131  2.8716
  602MOL0     H83036   3.103   7.578  -0.124 -0.4292 -1.0705  0.8728
  602MOL0     H83037   3.060   7.680  -0.259  0.8688 -0.3993  0.0526
  602MOL0     H83038   3.357   7.725  -0.305 -1.2145 -0.7611  1.1048
  602MOL0     H83039   3.603   7.770  -0.350  1.9158 -2.2080  2.3142
  602MOL0     H83040   3.880   7.779  -0.316 -0.3584 -0.9143 -1.6115
  602MOL0     H83041   3.770   7.876  -0.410  0.0887 -1.0675  0.8148
  602MOL0     H83042   3.967   7.980  -0.461  0.4113 -1.4240  0.5010
  602MOL0     H83043   3.894   8.077  -0.331 -0.3115 -0.5637  1.0140
  602MOL0     H83044   4.120   7.869  -0.293  0.5100  0.7539 -2.2428
  602MOL0     H83045   4.050   7.965  -0.168  4.0550  2.3436  2.3391
  602MOL0     H83046   4.136   8.164  -0.255  1.4691 -0.9109  2.2418
  602MOL0     H83047   4.168   8.094  -0.412  1.7119 -0.4257 -0.1815
  602MOL0     H83048   4.375   8.153  -0.257 -0.6907  0.9630  1.1429
  602MOL0     H83049   4.310   8.039  -0.149 -2.9291  0.7411  0.2317
  602MOL0     H83050   4.321   7.864  -0.349 -0.8805  1.4553 -3.1846
  602MOL0     H83051   4.470   7.911  -0.265  1.1093 -1.1288 -0.6559
  602MOL0     H83052   4.517   8.057  -0.447 -0.4876  0.1979  0.6641
  602MOL0     H83053   4.366   8.052  -0.522  0.3796 -1.9430 -1.7191
  602MOL0     H83054   4.398   7.792  -0.545  0.1326 -1.2552 -2.4412
  602MOL0     H83055   4.575   7.831  -0.502  0.2143 -1.1988 -2.2555
  602MOL0     H83056   3.640   7.988   0.001  1.2188 -2.1727 -0.2917
  602MOL0     H83057   3.410   7.946   0.056 -1.8974  0.0742  0.7151
  602MOL0     H83058   2.984   7.903   0.189 -0.5904  0.6751 -1.2368
  602MOL0     H83059   2.738   7.890   0.173 -3.4503 -3.4200  0.2648
  602MOL0     H83060   1.120   7.930   1.291 -0.7876 -0.4493  1.5829
  602MOL0     H83061   0.959   8.046   1.413 -1.3118  0.4135 -1.8818
  602MOL0     H83062   0.686   8.364   1.483 -1.8360  2.0721 -0.0071
  602MOL0     H83063   0.507   8.438   1.593  0.0827 -0.1125  0.1202
  602MOL0     H83064   0.541   8.636   1.973  1.2775 -1.1355 -1.3618
  602MOL0     H83065   0.530   8.778   1.874  2.0498 -0.7846 -1.7252
  602MOL0     H83066   0.335   8.781   1.992 -4.1604  0.8195 -1.5352
  602MOL0     H83067   0.300   8.618   1.983  2.5442  1.9715  3.4762
  602MOL0     H83068   0.297   8.803   1.740  1.3372 -0.0515  1.0091
  602MOL0     H83069   0.223   8.646   1.734  2.8794 -0.4257  0.0946
  602MOL0     H83070   0.151   8.901   1.901 -1.7493  0.3360  1.1894
  602MOL0     H83071   0.077   8.747   1.939 -0.0841  0.4618  0.7614
  602MOL0     H83072  -0.111   8.870   1.571  2.3363  0.2608 -1.5507
  602MOL0     H83073   0.737   8.694   1.838  1.3549  0.7280 -1.5560
  602MOL0     H83074   1.009   8.559   1.869 -0.1321 -2.0406 -1.7773
  602MOL0     H83075   1.040   8.632   1.705  0.6435  0.9337  0.6630
  602MOL0     H83076   0.955   8.720   1.829  0.3930 -0.2716  1.5439
  603MOL0     O83077   6.844   7.197   6.170 -0.9891 -0.0396 -0.2845
  603MOL0     C83078   6.851   7.243   6.057  0.3262  0.1631  0.1242
  603MOL0     O83079   6.748   7.239   5.972 -0.1756 -0.0564  0.1800
  603MOL0     C83080   6.631   7.202   6.017  0.3511 -0.8307 -0.3720
  603MOL0     C83081   6.557   7.096   5.968 -0.7444 -0.4635  0.1035
  603MOL0     C83082   6.431   7.066   6.015  1.0046 -0.1892 -0.5233
  603MOL0     C83083   6.363   7.155   6.107 -0.9931 -0.1848  0.1809
  603MOL0     O83084   6.241   7.132   6.163  0.4079 -0.4286 -0.5225
  603MOL0     C83085   6.190   7.000   6.148 -0.4656  0.6834 -0.7735
  603MOL0     C83086   6.063   6.979   6.234 -0.1788 -0.3638  0.5477
  603MOL0     C83087   6.010   6.836   6.232  0.9920  0.1379 -0.0833
  603MOL0     C83088   5.908   6.812   6.347  0.0611 -0.7607 -0.0716
  603MOL0     C83089   5.861   6.672   6.364  0.6149  0.0711  0.5322
  603MOL0     C83090   5.747   6.659   6.465  0.9149  0.6643 -0.0946
  603MOL0     C83091   5.606   6.698   6.408 -0.9150 -1.1602  0.5078
  603MOL0     C83092   5.514   6.661   6.518 -0.7198  0.3437 -0.4412
  603MOL0     N83093   5.383   6.711   6.496  0.6548 -0.8283  0.6267
  603MOL0     C83094   5.286   6.723   6.593 -0.8045 -0.0948  0.0904
  603MOL0     C83095   5.169   6.718   6.534  0.4978 -0.4534  0.1614
  603MOL0     C83096   5.029   6.720   6.604  0.6554 -0.5813 -0.2671
  603MOL0     C83097   4.982   6.591   6.655 -0.0038  0.3760 -0.1670
  603MOL0     C83098   4.975   6.585   6.813 -0.2279 -0.2386  0.4497
  603MOL0     C83099   5.118   6.569   6.872  0.5310  0.3484 -0.6696
  603MOL0     O83100   5.201   6.476   6.798 -0.6111  0.0061  0.8814
  603MOL0     C83101   5.335   6.453   6.833  0.3481  0.8963 -0.2311
  603MOL0     C83102   5.431   6.400   6.748 -0.2880  0.5546  0.9334
  603MOL0     C83103   5.563   6.382   6.774 -1.3385 -0.1561 -0.1456
  603MOL0     C83104   5.661   6.341   6.668 -0.1551 -0.0906  0.8763
  603MOL0     C83105   5.603   6.395   6.914  0.4100  0.2507 -0.1013
  603MOL0     C83106   5.744   6.367   6.963  0.2720  0.0682  0.5013
  603MOL0     O83107   5.763   6.386   7.095  0.3272 -0.0263  0.4101
  603MOL0     C83108   5.882   6.342   7.162 -1.0133  0.1140  0.5897
  603MOL0     C83109   5.931   6.439   7.248 -0.1355 -0.1300 -1.3807
  603MOL0     C83110   6.042   6.407   7.331 -0.3540  0.6227 -0.4936
  603MOL0     C83111   6.086   6.268   7.346  1.2238  0.2014 -0.5826
  603MOL0     O83112   6.189   6.221   7.427  0.4695  0.2225 -0.0922
  603MOL0     C83113   6.262   6.321   7.495 -0.3705  0.2229  0.0899
  603MOL0     C83114   6.372   6.238   7.580  0.0595  0.5042  0.3659
  603MOL0     C83115   6.304   6.137   7.672 -0.3515 -0.6276  0.0885
  603MOL0     C83116   6.413   6.083   7.779 -0.9566 -0.7317 -0.2817
  603MOL0     C83117   6.434   5.939   7.780  0.2004 -0.6492 -0.0740
  603MOL0     C83118   6.511   5.897   7.913  1.1801  0.3364  0.4942
  603MOL0     C83119   6.525   5.748   7.925 -0.0280  1.5942  1.6110
  603MOL0     C83120   6.398   5.662   7.964 -0.6269 -0.2472 -0.3493
  603MOL0    Cl83121   6.441   5.500   7.920  0.1489 -0.0539 -0.0180
  603MOL0     C83122   6.024   6.174   7.263 -0.0661 -0.1458 -0.1436
  603MOL0     C83123   5.924   6.204   7.167 -0.3233  1.0328 -0.4455
  603MOL0     O83124   5.826   6.324   6.885  0.2261  0.1433 -0.1334
  603MOL0     C83125   5.509   6.451   7.005  0.6812 -0.2700 -0.8126
  603MOL0     C83126   5.378   6.478   6.964 -0.0727  0.7284  0.0398
  603MOL0     N83127   5.194   6.700   6.401  0.3353 -0.0689  0.1575
  603MOL0     N83128   5.318   6.696   6.385 -0.1148  0.6770 -0.3509
  603MOL0     C83129   6.428   7.268   6.146 -0.0112  0.8520 -0.8324
  603MOL0     C83130   6.553   7.298   6.098 -0.4962  0.0998  0.1427
  603MOL0     C83131   6.974   7.302   6.006  0.1543 -0.6338  0.6482
  603MOL0     C83132   7.061   7.358   6.101 -0.0098  0.8239 -0.3183
  603MOL0     C83133   7.190   7.398   6.070  0.1108 -0.0000 -0.4319
  603MOL0     C83134   7.243   7.383   5.940  0.2450 -0.2475  0.3597
  603MOL0     O83135   7.378   7.387   5.909 -0.0310 -0.2457 -0.9772
  603MOL0     C83136   7.462   7.470   5.987 -0.2455  0.5713 -0.0194
  603MOL0     C83137   7.616   7.456   5.942  0.4412 -0.8566 -0.8523
  603MOL0     C83138   7.714   7.482   6.055 -0.9012  0.1637  0.0221
  603MOL0     C83139   7.705   7.618   6.123 -0.2567  0.6531 -0.6300
  603MOL0     C83140   7.673   7.600   6.267 -0.0486 -0.6569  0.4910
  603MOL0     C83141   7.662   7.594   6.389 -0.9128  0.4818 -0.6307
  603MOL0     C83142   7.157   7.331   5.846 -1.2056  0.9125  0.0286
  603MOL0     C83143   7.023   7.289   5.877  0.1066  0.7375 -0.4514
  603MOL0     C83144   6.947   7.227   5.767 -1.1746 -0.3991 -0.4955
  603MOL0     H83145   6.604   7.023   5.903 -0.1246 -0.4374  0.5150
  603MOL0     H83146   6.398   6.968   5.983 -0.8283  0.0284  0.5688
  603MOL0     H83147   6.263   6.923   6.173  1.2081  1.9711 -1.4736
  603MOL0     H83148   6.176   6.988   6.040  3.3339 -1.6190 -1.1864
  603MOL0     H83149   6.083   7.017   6.335 -1.4479  4.2766 -0.6927
  603MOL0     H83150   5.985   7.042   6.192  0.2224 -1.3782 -1.8517
  603MOL0     H83151   5.973   6.807   6.133  0.0445 -1.7619  0.7659
  603MOL0     H83152   6.092   6.764   6.246  2.1858  1.3618 -0.5870
  603MOL0     H83153   5.954   6.845   6.441 -2.5006 -2.7961  2.0691
  603MOL0     H83154   5.821   6.875   6.329  2.2329  2.0908 -1.4491
  603MOL0     H83155   5.943   6.613   6.407  1.3085  0.2205 -0.5397
  603MOL0     H83156   5.840   6.634   6.263  0.8258  0.2881  0.4047
  603MOL0     H83157   5.763   6.553   6.489 -0.6966  0.1066 -1.2929
  603MOL0     H83158   5.777   6.707   6.558  1.8092 -0.9714  0.5103
  603MOL0     H83159   5.570   6.654   6.314 -2.5449  1.4546 -0.2030
  603MOL0     H83160   5.601   6.808   6.403  0.4693 -1.0680  0.7658
  603MOL0     H83161   5.514   6.552   6.525 -2.5947  0.3387 -0.1911
  603MOL0     H83162   5.550   6.702   6.613  1.6468 -0.1320 -1.0685
  603MOL0     H83163   5.301   6.742   6.699  0.3508  2.2950 -0.4494
  603MOL0     H83164   4.951   6.766   6.543  0.8770  1.0280  0.6027
  603MOL0     H83165   5.042   6.788   6.689  0.6136 -1.3483  0.3563
  603MOL0     H83166   4.884   6.566   6.614  0.1421  0.0565 -0.3231
  603MOL0     H83167   5.039   6.511   6.608 -1.5592 -2.1568  2.0211
  603MOL0     H83168   4.928   6.670   6.861  2.7303  0.8173  1.6995
  603MOL0     H83169   4.917   6.499   6.848 -1.5850  1.1949  1.8426
  603MOL0     H83170   5.165   6.667   6.878  0.0001  0.6240 -0.9172
  603MOL0     H83171   5.099   6.540   6.975  1.7856  1.2859 -0.1505
  603MOL0     H83172   5.386   6.375   6.652  0.2657 -3.5427  1.5876
  603MOL0     H83173   5.698   6.240   6.692 -2.5785 -0.7373  2.3082
  603MOL0     H83174   5.741   6.415   6.670 -1.6054  1.5305  0.4023
  603MOL0     H83175   5.606   6.342   6.574  1.3100 -0.6494 -0.0219
  603MOL0     H83176   5.904   6.544   7.245 -0.9324 -0.2850 -0.3869
  603MOL0     H83177   6.073   6.489   7.394  0.1758 -0.2276  0.3865
  603MOL0     H83178   6.316   6.390   7.430  2.1091 -1.8021 -0.1482
  603MOL0     H83179   6.210   6.381   7.570  3.0345  1.3654  1.7463
  603MOL0     H83180   6.430   6.180   7.507 -0.8371 -0.3552  0.3178
  603MOL0     H83181   6.448   6.301   7.628  0.7705 -0.0369 -0.0268
  603MOL0     H83182   6.273   6.045   7.622 -0.4987 -0.5480  0.0307
  603MOL0     H83183   6.214   6.172   7.724 -0.1534 -0.0890  0.0773
  603MOL0     H83184   6.396   6.123   7.879  0.2951 -0.7743 -0.0445
  603MOL0     H83185   6.512   6.121   7.752 -1.4970 -0.5418 -2.1348
  603MOL0     H83186   6.337   5.889   7.776 -0.6952  0.5202  3.7358
  603MOL0     H83187   6.503   5.915   7.698  3.0645 -1.6250  2.4369
  603MOL0     H83188   6.451   5.940   7.993 -2.0221 -0.8277 -1.0970
  603MOL0     H83189   6.606   5.951   7.918  0.4426  1.7698 -0.2730
  603MOL0     H83190   6.610   5.724   7.989  1.7361  0.2230 -1.0306
  603MOL0     H83191   6.552   5.714   7.824  0.6196  4.2051  0.8254
  603MOL0     H83192   6.310   5.701   7.912 -3.1511 -2.1208  2.2028
  603MOL0     H83193   6.374   5.676   8.070 -2.5261 -1.6818 -0.5551
  603MOL0     H83194   6.064   6.073   7.266  0.2011 -0.0316  0.2618
  603MOL0     H83195   5.885   6.132   7.096 -2.6519  0.5301  1.2106
  603MOL0     H83196   5.518   6.475   7.110 -0.5257  3.5614 -1.4448
  603MOL0     H83197   5.307   6.515   7.038 -0.5397 -2.8356  1.5808
  603MOL0     H83198   6.380   7.335   6.216 -2.2931 -1.8118  0.2932
  603MOL0     H83199   6.614   7.382   6.130 -2.6368  1.8528 -0.1711
  603MOL0     H83200   7.021   7.374   6.201 -0.4054 -1.6835 -0.0000
  603MOL0     H83201   7.253   7.438   6.149  0.2133  1.7362 -1.3277
  603MOL0     H83202   7.431   7.574   5.982  1.3479  1.0305 -1.2406
  603MOL0     H83203   7.450   7.433   6.089 -1.9265 -0.3087 -0.4905
  603MOL0     H83204   7.630   7.528   5.861  2.6182  0.4686  0.6178
  603MOL0     H83205   7.635   7.355   5.903  1.6572 -1.4905  1.2474
  603MOL0     H83206   7.707   7.395   6.121 -0.3909 -0.6082 -0.9181
  603MOL0     H83207   7.813   7.472   6.011 -1.0762 -0.0110 -0.3349
  603MOL0     H83208   7.629   7.685   6.081  0.3900  0.9747 -1.3175
  603MOL0     H83209   7.802   7.669   6.112 -0.2877  0.5324 -1.6152
  603MOL0     H83210   7.648   7.595   6.495 -1.2262 -0.5622 -0.6530
  603MOL0     H83211   7.205   7.307   5.752  1.4164 -2.0579  1.9093
  603MOL0     H83212   6.905   7.300   5.697 -2.4708  0.3863  1.0486
  603MOL0     H83213   7.016   7.156   5.719 -0.1918 -1.7220  2.6132
  603MOL0     H83214   6.860   7.167   5.796 -1.7874 -0.1209 -1.6740
  604MOL0     O83215   5.135   1.381   8.334 -0.0010 -0.2323 -0.3812
  604MOL0     C83216   5.089   1.273   8.298  0.8244  0.9214  0.4705
  604MOL0     O83217   5.156   1.154   8.313 -0.2169  0.6870  0.5726
  604MOL0     C83218   5.288   1.148   8.327 -0.0692  0.1738  0.0439
  604MOL0     C83219   5.335   1.078   8.434  0.1959 -0.2972 -0.2489
  604MOL0     C83220   5.468   1.073   8.452 -0.2166 -0.3435 -0.6259
  604MOL0     C83221   5.568   1.127   8.363  0.9989  0.8762 -0.4956
  604MOL0     O83222   5.701   1.108   8.377 -0.3895  0.0578  0.5713
  604MOL0     C83223   5.755   1.043   8.487 -0.3416  0.3003 -0.4086
  604MOL0     C83224   5.912   1.058   8.484  0.7808  0.3820  0.8811
  604MOL0     C83225   5.990   0.965   8.377 -0.5253  0.5705 -0.2847
  604MOL0     C83226   5.991   1.035   8.237  0.4635  0.5610 -0.1018
  604MOL0     C83227   6.069   0.950   8.136 -0.0507  0.2521 -0.2275
  604MOL0     C83228   6.212   0.944   8.174 -0.5773  0.7351 -0.3527
  604MOL0     C83229   6.307   0.888   8.067  0.3910 -0.3501 -0.2495
  604MOL0     C83230   6.285   0.746   8.019 -0.5874 -0.7561  0.9469
  604MOL0     N83231   6.382   0.707   7.922 -0.3082  0.7308 -0.3795
  604MOL0     C83232   6.509   0.656   7.946 -0.0621 -0.0718  1.0478
  604MOL0     C83233   6.555   0.615   7.830 -0.3285  1.0953 -0.1899
  604MOL0     C83234   6.700   0.566   7.822 -0.1493 -0.6923 -0.2028
  604MOL0     C83235   6.744   0.576   7.677  0.7190  1.0399 -0.1498
  604MOL0     C83236   6.890   0.516   7.651  0.5791 -0.0663 -0.3474
  604MOL0     C83237   7.001   0.616   7.671 -0.3348  0.3068  0.3587
  604MOL0     O83238   6.986   0.731   7.586 -0.3165  0.0129 -0.3901
  604MOL0     C83239   7.081   0.825   7.575 -0.4988  0.0142  0.9321
  604MOL0     C83240   7.217   0.812   7.630 -0.3764 -0.2271  0.3305
  604MOL0     C83241   7.308   0.915   7.617 -0.4199 -0.2558 -0.3472
  604MOL0     C83242   7.441   0.885   7.673  0.0752  0.0457  0.2228
  604MOL0     C83243   7.259   1.044   7.566 -0.2289  0.0333  0.0214
  604MOL0     C83244   7.340   1.170   7.559  0.3657 -0.0251 -0.1267
  604MOL0     O83245   7.303   1.255   7.464  0.1785  0.8410 -0.4019
  604MOL0     C83246   7.380   1.367   7.450 -0.1824 -0.1890  1.1094
  604MOL0     C83247   7.521   1.373   7.442 -0.4530  0.6446 -0.1853
  604MOL0     C83248   7.596   1.493   7.427  0.2263 -0.3510  0.1423
  604MOL0     C83249   7.529   1.606   7.405 -0.7732 -0.2150  1.8607
  604MOL0     O83250   7.594   1.723   7.377  0.4886  0.4264 -0.2366
  604MOL0     C83251   7.725   1.719   7.315 -0.6023  0.2954  0.3256
  604MOL0     C83252   7.828   1.759   7.408 -0.3944 -0.6754 -0.7666
  604MOL0     C83253   7.966   1.737   7.344 -0.6292  0.4357 -0.5015
  604MOL0     C83254   8.084   1.818   7.400  0.0054 -0.4316  0.2089
  604MOL0     C83255   8.223   1.778   7.356 -0.3604  0.4014  0.3618
  604MOL0     C83256   8.335   1.867   7.415 -0.5806  0.1907 -0.2223
  604MOL0     C83257   8.463   1.869   7.335  0.5552  0.0929  0.7946
  604MOL0     C83258   8.575   1.940   7.401  0.1464  0.2829 -0.5333
  604MOL0    Cl83259   8.707   1.999   7.300  0.2001  0.2952  0.2733
  604MOL0     C83260   7.393   1.599   7.397 -0.0100 -0.0268 -0.8471
  604MOL0     C83261   7.320   1.485   7.420 -0.3416  0.0669 -0.0891
  604MOL0     O83262   7.426   1.191   7.644 -0.3310 -0.1755 -0.6675
  604MOL0     C83263   7.124   1.061   7.517 -0.9665 -0.4207 -0.5712
  604MOL0     C83264   7.046   0.947   7.517  0.0354 -0.8722 -0.1051
  604MOL0     N83265   6.462   0.632   7.728  0.1857  0.2381 -0.1973
  604MOL0     N83266   6.363   0.695   7.787  0.7547  0.6658  0.5498
  604MOL0     C83267   5.519   1.217   8.263  0.4076 -0.2728  0.4057
  604MOL0     C83268   5.383   1.223   8.242  0.2388 -1.0201  0.3341
  604MOL0     C83269   4.951   1.264   8.240 -0.3105 -1.1907  0.4695
  604MOL0     C83270   4.895   1.133   8.220  0.1617 -0.4229 -0.1676
  604MOL0     C83271   4.762   1.115   8.169 -0.2848  0.2292 -0.0051
  604MOL0     C83272   4.688   1.227   8.127 -0.5075  0.3433  0.7770
  604MOL0     O83273   4.562   1.225   8.078  0.2500  0.9528 -0.6122
  604MOL0     C83274   4.502   1.097   8.065 -0.0890 -0.0944  0.3454
  604MOL0     C83275   4.391   1.107   7.967 -0.0756  0.9714 -1.0324
  604MOL0     C83276   4.331   0.965   7.951 -0.8435 -1.3128 -0.1321
  604MOL0     C83277   4.201   0.962   7.866 -0.4794  0.1801  0.1470
  604MOL0     C83278   4.225   1.016   7.732 -0.3392 -0.9708 -0.1317
  604MOL0     C83279   4.258   1.072   7.634  0.5601  0.1485  0.1095
  604MOL0     C83280   4.745   1.351   8.150  0.0205 -0.4162  0.8640
  604MOL0     C83281   4.875   1.375   8.206  0.4675  0.0195 -0.3881
  604MOL0     C83282   4.902   1.521   8.237 -0.0457  0.1643  0.0075
  604MOL0     H83283   5.269   1.026   8.502 -2.7368  2.1020 -1.0277
  604MOL0     H83284   5.497   1.012   8.537 -2.8023  1.1260  1.4512
  604MOL0     H83285   5.732   0.936   8.484  2.5072 -0.3815 -1.3287
  604MOL0     H83286   5.712   1.084   8.579  0.5507 -2.1609  1.2045
  604MOL0     H83287   5.943   1.163   8.477  2.4095  0.0206  2.1156
  604MOL0     H83288   5.950   1.026   8.581  0.1574  3.4464  2.2723
  604MOL0     H83289   6.093   0.971   8.415  0.5759 -0.0437 -2.9922
  604MOL0     H83290   5.967   0.860   8.360  2.0775 -0.3021  0.9922
  604MOL0     H83291   5.888   1.062   8.210 -0.0520  0.8970  1.9893
  604MOL0     H83292   6.037   1.133   8.249 -0.7432  1.0651  0.6472
  604MOL0     H83293   6.056   0.983   8.033  0.4095 -0.1898 -0.4322
  604MOL0     H83294   6.036   0.846   8.144  0.3967  0.2324  2.5548
  604MOL0     H83295   6.243   1.043   8.210 -1.2868  0.7823  0.1697
  604MOL0     H83296   6.213   0.883   8.264 -0.5038  3.8396  1.9051
  604MOL0     H83297   6.410   0.897   8.104  1.5657  0.7870 -3.3953
  604MOL0     H83298   6.310   0.958   7.982 -0.2067  0.0907  0.0858
  604MOL0     H83299   6.288   0.671   8.098 -2.0033  0.4864  2.2344
  604MOL0     H83300   6.186   0.740   7.972 -1.2739 -0.8219  2.3532
  604MOL0     H83301   6.569   0.658   8.036 -1.1948  1.6391  1.8207
  604MOL0     H83302   6.712   0.466   7.866 -0.2786 -0.8073 -0.4283
  604MOL0     H83303   6.764   0.629   7.885 -1.0048  2.4787 -2.2957
  604MOL0     H83304   6.672   0.532   7.607  2.5916  0.9429 -2.1393
  604MOL0     H83305   6.754   0.680   7.642 -2.3475  0.2388 -4.1858
  604MOL0     H83306   6.909   0.431   7.717  1.2515  0.2753 -0.0805
  604MOL0     H83307   6.899   0.475   7.551  0.7826 -0.5113 -0.1490
  604MOL0     H83308   7.006   0.657   7.772 -3.8616  1.2468  0.2958
  604MOL0     H83309   7.091   0.566   7.635 -1.2808  0.0995 -1.9167
  604MOL0     H83310   7.244   0.717   7.674  4.1680  0.1192 -1.2412
  604MOL0     H83311   7.461   0.780   7.648  1.3697 -0.3042  2.4734
  604MOL0     H83312   7.451   0.890   7.782 -1.1184 -0.9724  0.4048
  604MOL0     H83313   7.514   0.953   7.628  2.8116 -1.3690  2.2339
  604MOL0     H83314   7.575   1.279   7.453 -1.5789 -0.1230 -0.9974
  604MOL0     H83315   7.702   1.471   7.424  0.5318  1.1093 -1.6609
  604MOL0     H83316   7.736   1.629   7.254 -3.3122  0.5774 -0.6990
  604MOL0     H83317   7.718   1.802   7.244  1.8592 -0.7457 -1.2647
  604MOL0     H83318   7.822   1.866   7.427  0.2088 -0.9399  1.1126
  604MOL0     H83319   7.819   1.694   7.495  3.3818 -1.2873 -0.6476
  604MOL0     H83320   7.963   1.753   7.236  1.8159 -1.7749 -0.9903
  604MOL0     H83321   7.985   1.630   7.355  2.1538  0.6945 -1.9906
  604MOL0     H83322   8.084   1.806   7.508 -1.0014 -0.5207  0.2094
  604MOL0     H83323   8.066   1.923   7.373  0.8715 -0.2450  0.3227
  604MOL0     H83324   8.249   1.674   7.382 -1.4233  0.5942  2.3738
  604MOL0     H83325   8.227   1.775   7.247  1.1913  0.5270  0.3939
  604MOL0     H83326   8.365   1.832   7.515  1.6512  3.0200  0.2330
  604MOL0     H83327   8.302   1.970   7.427 -0.0408  0.3168  0.2432
  604MOL0     H83328   8.445   1.925   7.243 -0.9872 -1.2330  0.2503
  604MOL0     H83329   8.497   1.769   7.305 -0.4762  0.3591 -1.5064
  604MOL0     H83330   8.620   1.874   7.475  3.5385  1.4162 -1.3910
  604MOL0     H83331   8.538   2.030   7.452 -0.2309  1.4759 -2.7716
  604MOL0     H83332   7.334   1.684   7.366  0.3461  1.3093  1.8406
  604MOL0     H83333   7.212   1.484   7.431 -0.3180 -3.8450  1.5561
  604MOL0     H83334   7.084   1.156   7.482 -2.0305 -0.6076  0.0886
  604MOL0     H83335   6.955   0.945   7.458  0.6702  1.0430 -1.2318
  604MOL0     H83336   5.601   1.272   8.217  0.8831 -3.2885 -2.8265
  604MOL0     H83337   5.338   1.284   8.163 -2.4280 -2.7504  0.3921
  604MOL0     H83338   4.953   1.042   8.234 -0.7222 -1.0356 -0.3479
  604MOL0     H83339   4.718   1.016   8.161 -0.4944  0.3160  0.0615
  604MOL0     H83340   4.569   1.027   8.014 -1.3402  0.3922 -2.1407
  604MOL0     H83341   4.465   1.059   8.160  1.6439 -0.9483  0.7164
  604MOL0     H83342   4.423   1.141   7.868  0.4223  0.4882 -1.0454
  604MOL0     H83343   4.316   1.178   8.001  2.4136  3.2088  0.1505
  604MOL0     H83344   4.411   0.905   7.905  0.7108  1.6886 -1.6137
  604MOL0     H83345   4.310   0.924   8.050 -4.3822  1.8634  0.6737
  604MOL0     H83346   4.116   1.014   7.910 -0.1217  1.1540 -0.2890
  604MOL0     H83347   4.176   0.856   7.858 -0.8781  0.0656  2.4236
  604MOL0     H83348   4.269   1.127   7.543  0.2986  1.5357  0.9002
  604MOL0     H83349   4.689   1.437   8.116  1.7589  0.6234  0.4939
  604MOL0     H83350   5.007   1.541   8.218  0.3481 -1.3140  0.5042
  604MOL0     H83351   4.843   1.591   8.177 -0.1317 -0.9671 -1.2670
  604MOL0     H83352   4.885   1.536   8.344 -3.5411 -1.0645 -0.2421
  605MOL0     O83353  11.289   2.557   7.202  0.5506  0.3396 -0.0592
  605MOL0     C83354  11.262   2.673   7.188  0.7657  0.2355 -0.0610
  605MOL0     O83355  11.349   2.773   7.189 -0.3185  0.2286  0.3002
  605MOL0     C83356  11.480   2.741   7.216  0.2751  0.3823  0.5562
  605MOL0     C83357  11.544   2.806   7.321  0.2818  0.1381 -0.7654
  605MOL0     C83358  11.686   2.797   7.343  0.1948 -1.0145 -0.1748
  605MOL0     C83359  11.771   2.728   7.251 -0.3329  0.8231 -0.3554
  605MOL0     O83360  11.909   2.725   7.264 -0.2046  0.4848  0.2188
  605MOL0     C83361  11.961   2.770   7.389 -0.8001 -0.4863  1.0571
  605MOL0     C83362  11.933   2.664   7.495 -0.3751 -0.0749  0.0072
  605MOL0     C83363  11.999   2.533   7.452 -0.1212  0.1088 -1.1721
  605MOL0     C83364  12.161   2.541   7.459  0.1674  0.2212 -0.3651
  605MOL0     C83365  12.233   2.405   7.454  0.6151 -0.2875  1.0649
  605MOL0     C83366  12.376   2.401   7.476  0.0682  0.4268  0.0732
  605MOL0     C83367  12.467   2.490   7.387 -0.1307 -0.2574 -0.3369
  605MOL0     C83368  12.605   2.438   7.367 -0.4619 -0.2553  0.4796
  605MOL0     N83369  12.680   2.447   7.496  0.4445 -0.4909 -0.5557
  605MOL0     C83370  12.730   2.554   7.560 -0.3536 -0.0487  0.3162
  605MOL0     C83371  12.749   2.517   7.689 -0.0753 -1.4056  0.3337
  605MOL0     C83372  12.796   2.614   7.792 -0.8532  0.1718 -0.2632
  605MOL0     C83373  12.813   2.544   7.935 -0.8979 -0.2091 -0.5738
  605MOL0     C83374  12.678   2.553   8.021 -0.1614 -1.0187 -0.2163
  605MOL0     C83375  12.552   2.482   7.959  0.2533 -1.5342  0.4888
  605MOL0     O83376  12.451   2.531   8.048  0.3116 -0.4435 -0.6752
  605MOL0     C83377  12.324   2.547   8.015  0.2401  0.0031 -0.0576
  605MOL0     C83378  12.252   2.638   8.084  0.2697  0.1883  0.0897
  605MOL0     C83379  12.116   2.673   8.049  0.0902 -0.1356  0.1044
  605MOL0     C83380  12.040   2.789   8.112 -0.0885  0.7958 -0.0070
  605MOL0     C83381  12.055   2.589   7.945 -0.0196 -0.2634 -0.0687
  605MOL0     C83382  11.911   2.609   7.910 -0.3775  0.5826  0.1711
  605MOL0     O83383  11.828   2.499   7.903  0.0211 -0.3760  0.1123
  605MOL0     C83384  11.698   2.527   7.862 -0.2996  0.0954  0.1577
  605MOL0     C83385  11.673   2.566   7.731 -0.2713  0.9310 -0.4989
  605MOL0     C83386  11.549   2.627   7.689 -0.1691  0.0734  0.7464
  605MOL0     C83387  11.447   2.632   7.784  0.0355 -0.0092  0.8309
  605MOL0     O83388  11.322   2.679   7.736 -0.0648 -0.2436  0.0932
  605MOL0     C83389  11.208   2.607   7.779 -0.2415  0.3215  0.6421
  605MOL0     C83390  11.077   2.610   7.696  0.4173 -0.4850 -0.2884
  605MOL0     C83391  11.011   2.750   7.702  0.0110 -0.0485 -0.3219
  605MOL0     C83392  10.880   2.767   7.635 -0.1596  0.0381 -0.6624
  605MOL0     C83393  10.816   2.905   7.616 -0.1095 -1.6923  1.0476
  605MOL0     C83394  10.687   2.911   7.527 -0.4986 -0.3830 -0.6596
  605MOL0     C83395  10.636   3.061   7.505  0.4961  0.6776  0.2923
  605MOL0     C83396  10.514   3.055   7.410 -0.2700 -0.3046  0.8192
  605MOL0    Cl83397  10.451   3.224   7.404 -0.5536  0.1318 -0.2184
  605MOL0     C83398  11.473   2.583   7.913  0.2188  0.4839  0.3536
  605MOL0     C83399  11.599   2.535   7.956  0.2723 -0.1048  0.1961
  605MOL0     O83400  11.883   2.721   7.872 -0.2898  0.1120  0.0347
  605MOL0     C83401  12.133   2.501   7.878  0.5102  0.0762  0.5370
  605MOL0     C83402  12.263   2.477   7.907  0.1134 -0.1533 -0.3558
  605MOL0     N83403  12.739   2.386   7.695 -0.5422  0.8025 -0.8436
  605MOL0     N83404  12.695   2.337   7.581 -0.4487  0.0422 -0.2295
  605MOL0     C83405  11.703   2.659   7.145  1.1765  0.2589 -1.2385
  605MOL0     C83406  11.558   2.660   7.127  0.1114 -0.4495  0.3944
  605MOL0     C83407  11.110   2.700   7.196 -0.0012  0.1520  0.1065
  605MOL0     C83408  11.026   2.608   7.128  0.4508  0.3187  0.0930
  605MOL0     C83409  10.890   2.621   7.142  0.3782 -0.3770  0.0409
  605MOL0     C83410  10.833   2.737   7.202  0.8033 -0.2291 -0.2392
  605MOL0     O83411  10.697   2.775   7.202 -0.9533 -0.0123  0.1441
  605MOL0     C83412  10.607   2.706   7.105 -0.0955  0.4223 -0.9102
  605MOL0     C83413  10.463   2.736   7.149  0.4225  0.8240 -0.2504
  605MOL0     C83414  10.438   2.675   7.282 -0.2538  0.3497 -0.0944
  605MOL0     C83415  10.296   2.704   7.332 -0.2210 -0.0591 -0.0424
  605MOL0     C83416  10.252   2.606   7.437 -0.4976 -0.8740  0.2637
  605MOL0     C83417  10.212   2.515   7.504 -0.1341  0.5188 -0.9150
  605MOL0     C83418  10.923   2.822   7.258  0.4975 -1.3056 -0.2830
  605MOL0     C83419  11.055   2.799   7.267 -0.3742  0.2842  0.1888
  605MOL0     C83420  11.132   2.882   7.366 -0.8275  0.1756  0.7130
  605MOL0     H83421  11.488   2.863   7.395 -0.9344  0.0326 -1.5637
  605MOL0     H83422  11.717   2.870   7.417 -1.6549  1.4601 -1.6997
  605MOL0     H83423  11.918   2.869   7.408  0.1067  0.1743 -0.2296
  605MOL0     H83424  12.068   2.788   7.395 -0.5682 -1.8075  1.1362
  605MOL0     H83425  11.970   2.693   7.593  1.6538  2.0178 -1.2684
  605MOL0     H83426  11.826   2.643   7.496 -0.2494 -0.7267 -0.0471
  605MOL0     H83427  11.965   2.450   7.515  0.9525 -0.5559 -1.4415
  605MOL0     H83428  11.968   2.501   7.353 -0.7016 -2.7157 -0.1752
  605MOL0     H83429  12.192   2.599   7.372  0.9812  0.2770 -0.0385
  605MOL0     H83430  12.190   2.591   7.551  0.3610  1.5735 -1.1368
  605MOL0     H83431  12.216   2.362   7.355 -0.2980  0.3604  0.9283
  605MOL0     H83432  12.184   2.341   7.528 -0.2122  0.0022  0.7789
  605MOL0     H83433  12.405   2.434   7.577  1.0878  2.7652 -0.8953
  605MOL0     H83434  12.411   2.300   7.455  1.8346  1.2728 -1.4190
  605MOL0     H83435  12.474   2.586   7.440  2.5027 -0.4983 -0.1019
  605MOL0     H83436  12.418   2.505   7.291 -1.0359  0.3327  0.2003
  605MOL0     H83437  12.614   2.340   7.320 -2.9009 -0.5247  0.4446
  605MOL0     H83438  12.656   2.508   7.300 -0.8428  0.6203  1.0883
  605MOL0     H83439  12.749   2.651   7.515  0.5784  0.0368  0.8628
  605MOL0     H83440  12.732   2.702   7.796  1.0503  1.5722  1.3519
  605MOL0     H83441  12.898   2.641   7.764 -0.6952 -1.7851 -1.8662
  605MOL0     H83442  12.834   2.437   7.924 -1.1915 -0.1709 -1.6908
  605MOL0     H83443  12.901   2.584   7.985 -0.3981 -1.9058 -0.0044
  605MOL0     H83444  12.689   2.524   8.126  0.2609  3.0712  1.0226
  605MOL0     H83445  12.644   2.657   8.023 -0.3954 -1.0489 -1.8545
  605MOL0     H83446  12.536   2.509   7.854 -0.2364 -1.7751  0.4970
  605MOL0     H83447  12.564   2.373   7.966  3.3090 -1.5616 -2.4860
  605MOL0     H83448  12.308   2.688   8.162  1.3590 -0.3920 -0.2969
  605MOL0     H83449  12.005   2.855   8.032  2.6473  0.8404 -1.2932
  605MOL0     H83450  12.109   2.856   8.164  2.0956  0.0579 -1.7787
  605MOL0     H83451  11.966   2.764   8.188 -0.2919  1.4140  0.0085
  605MOL0     H83452  11.752   2.562   7.658  0.6020 -1.6062  0.4725
  605MOL0     H83453  11.537   2.662   7.587 -0.7177 -2.6034 -0.1849
  605MOL0     H83454  11.240   2.503   7.786  1.4224  0.3034 -4.0958
  605MOL0     H83455  11.185   2.646   7.879 -1.0808  0.5306  0.3761
  605MOL0     H83456  11.106   2.586   7.594  0.6828  0.0119 -0.3366
  605MOL0     H83457  11.008   2.547   7.753  1.1132 -2.5382 -1.5988
  605MOL0     H83458  11.087   2.807   7.647  0.7451 -1.9460 -1.3773
  605MOL0     H83459  11.021   2.794   7.802  4.4533 -0.7490 -0.2243
  605MOL0     H83460  10.812   2.706   7.695  1.7963 -0.8806  0.7180
  605MOL0     H83461  10.890   2.702   7.547 -0.1997 -1.7674  0.6216
  605MOL0     H83462  10.794   2.949   7.714  2.5214  1.2656  0.4970
  605MOL0     H83463  10.888   2.974   7.571 -1.4588 -1.7479 -1.4049
  605MOL0     H83464  10.600   2.860   7.569  2.4135 -2.6390  3.4358
  605MOL0     H83465  10.720   2.856   7.439  1.3297 -1.6313  0.7279
  605MOL0     H83466  10.708   3.122   7.450 -0.0995  1.7532  0.6947
  605MOL0     H83467  10.597   3.113   7.593 -0.2370 -0.0219  0.3915
  605MOL0     H83468  10.440   2.990   7.458  0.6771  0.2269  3.1455
  605MOL0     H83469  10.536   3.007   7.315 -0.7197 -2.0475  1.5445
  605MOL0     H83470  11.397   2.583   7.991 -1.5347  2.0657 -1.2421
  605MOL0     H83471  11.615   2.500   8.057  0.0638 -1.4550 -0.2140
  605MOL0     H83472  12.091   2.436   7.801  1.0663 -0.9203  1.0553
  605MOL0     H83473  12.319   2.411   7.842  1.6148 -0.0932  0.8279
  605MOL0     H83474  11.759   2.586   7.088  1.8667 -0.8803  0.7809
  605MOL0     H83475  11.506   2.601   7.052 -0.7117 -1.8869  2.0297
  605MOL0     H83476  11.076   2.516   7.098  1.1376 -0.2049  2.6001
  605MOL0     H83477  10.824   2.542   7.106  1.0494 -1.4893  1.1679
  605MOL0     H83478  10.635   2.737   7.004  1.4781 -0.2264 -0.7026
  605MOL0     H83479  10.603   2.597   7.112 -2.3762  0.4387 -1.3349
  605MOL0     H83480  10.382   2.707   7.081  0.7435 -2.9830  0.8041
  605MOL0     H83481  10.451   2.844   7.162  0.6403  0.8814 -0.5097
  605MOL0     H83482  10.454   2.567   7.272  3.3706  0.7393  0.0345
  605MOL0     H83483  10.512   2.705   7.356 -1.6994 -0.4170  1.7377
  605MOL0     H83484  10.222   2.715   7.253  0.2320  1.7503 -0.2629
  605MOL0     H83485  10.305   2.802   7.380  0.0406 -0.1099  0.0157
  605MOL0     H83486  10.169   2.453   7.580 -0.6455  1.1215 -0.7007
  605MOL0     H83487  10.878   2.906   7.310 -3.6394 -2.1704 -2.0602
  605MOL0     H83488  11.192   2.818   7.431  0.1115 -0.4954 -0.7509
  605MOL0     H83489  11.197   2.959   7.324  0.0869 -1.7112 -1.5532
  605MOL0     H83490  11.061   2.937   7.428 -1.5381 -0.6441  0.6553
  606MOL0     O83491   6.183   8.592   2.885  0.2434 -1.1421 -0.3409
  606MOL0     C83492   6.099   8.576   2.799  0.1257  0.4322 -0.1404
  606MOL0     O83493   6.125   8.536   2.674  0.9013  0.6994  0.1677
  606MOL0     C83494   6.246   8.484   2.641  0.1889 -0.2404  0.1541
  606MOL0     C83495   6.311   8.540   2.534 -0.4647 -0.0161 -0.1098
  606MOL0     C83496   6.438   8.495   2.507 -0.3542 -0.5036  1.4394
  606MOL0     C83497   6.503   8.403   2.588  0.0624  0.8754 -0.0906
  606MOL0     O83498   6.632   8.354   2.557 -0.0682 -0.1937  0.3071
  606MOL0     C83499   6.740   8.405   2.633  0.4974 -0.2747 -0.3850
  606MOL0     C83500   6.848   8.302   2.643 -0.6233  0.0054  0.4650
  606MOL0     C83501   6.993   8.359   2.657  0.3855  0.4245  0.3862
  606MOL0     C83502   7.091   8.250   2.623  0.6765  0.1261 -0.6446
  606MOL0     C83503   7.232   8.278   2.666 -0.2949 -0.3470 -0.3436
  606MOL0     C83504   7.331   8.160   2.627  0.5575 -0.7860 -0.6135
  606MOL0     C83505   7.402   8.177   2.498 -0.1722 -0.2807 -0.0043
  606MOL0     C83506   7.488   8.291   2.483 -0.2161  0.0693 -0.6954
  606MOL0     N83507   7.607   8.278   2.577 -0.5301 -0.0004 -0.4518
  606MOL0     C83508   7.710   8.186   2.577 -0.4150  0.3443  0.4147
  606MOL0     C83509   7.791   8.213   2.684  0.5621  0.6656 -0.1180
  606MOL0     C83510   7.919   8.143   2.722 -0.0671 -0.4817 -0.1598
  606MOL0     C83511   8.037   8.243   2.709 -0.2877 -0.0404  0.0650
  606MOL0     C83512   8.064   8.340   2.828 -0.3054  0.3335  0.1705
  606MOL0     C83513   8.174   8.440   2.802  0.3830 -0.0590 -0.6409
  606MOL0     O83514   8.294   8.370   2.812 -0.5459  0.5152  0.5238
  606MOL0     C83515   8.411   8.439   2.823 -0.6338 -0.5431  0.0037
  606MOL0     C83516   8.477   8.484   2.710  0.2707  0.4367  1.0998
  606MOL0     C83517   8.599   8.550   2.719  0.1028 -0.2001 -0.3366
  606MOL0     C83518   8.650   8.614   2.599 -0.1954 -0.2892  0.1042
  606MOL0     C83519   8.669   8.540   2.844  0.2865 -0.2605  0.1094
  606MOL0     C83520   8.797   8.619   2.883  0.4919  0.6858  0.7942
  606MOL0     O83521   8.853   8.592   3.009 -0.4713  0.0644 -0.5100
  606MOL0     C83522   8.965   8.656   3.053  0.7259  0.5504 -0.0931
  606MOL0     C83523   8.960   8.726   3.177  0.3033  0.2162  1.3289
  606MOL0     C83524   9.076   8.781   3.231 -1.2433 -0.5358  0.3851
  606MOL0     C83525   9.201   8.773   3.158  0.3981  0.0799 -0.4934
  606MOL0     O83526   9.322   8.816   3.215  0.1247 -0.5334 -0.6655
  606MOL0     C83527   9.323   8.843   3.356 -0.8469  0.2223 -1.1512
  606MOL0     C83528   9.467   8.889   3.398 -0.4161 -0.3411 -0.4484
  606MOL0     C83529   9.492   8.906   3.548  1.1045  0.2985  0.5151
  606MOL0     C83530   9.371   8.951   3.628  0.1812  0.0200 -0.8775
  606MOL0     C83531   9.407   8.996   3.772  0.5155 -0.6410  0.1302
  606MOL0     C83532   9.468   8.892   3.853  0.3781 -0.4176 -0.3549
  606MOL0     C83533   9.471   8.929   4.006 -0.5455  0.3156  0.1154
  606MOL0     C83534   9.330   8.917   4.074  0.2048  0.0400  0.3406
  606MOL0    Cl83535   9.342   9.003   4.231  0.8336 -0.2913 -0.1717
  606MOL0     C83536   9.202   8.716   3.033 -0.5194 -0.0240 -0.1737
  606MOL0     C83537   9.091   8.649   2.983  0.8614 -0.8405  0.2010
  606MOL0     O83538   8.848   8.683   2.799 -0.3265 -0.1923 -0.1536
  606MOL0     C83539   8.603   8.482   2.958 -0.1214  0.4971 -0.9852
  606MOL0     C83540   8.473   8.441   2.951  0.7476 -0.1310  0.4199
  606MOL0     N83541   7.729   8.317   2.755 -0.2815  0.2891 -0.4917
  606MOL0     N83542   7.620   8.354   2.698  0.4015 -0.5744 -0.0798
  606MOL0     C83543   6.435   8.343   2.697 -0.6929  0.2355  0.5846
  606MOL0     C83544   6.309   8.388   2.720 -0.3003  0.4108  0.1438
  606MOL0     C83545   5.958   8.591   2.839 -0.4999 -0.3796 -0.0355
  606MOL0     C83546   5.926   8.690   2.946 -0.7573  0.3893  0.5310
  606MOL0     C83547   5.793   8.724   2.976  0.2379  1.1536 -0.3744
  606MOL0     C83548   5.683   8.658   2.912 -0.2972  1.0687  0.5694
  606MOL0     O83549   5.552   8.671   2.941 -0.0225 -0.5027  0.8812
  606MOL0     C83550   5.512   8.774   3.028 -0.2593 -0.2509  0.4351
  606MOL0     C83551   5.489   8.913   2.944  0.6773 -0.0495 -0.3489
  606MOL0     C83552   5.374   8.991   3.003 -0.2843 -0.1727 -0.2811
  606MOL0     C83553   5.398   9.066   3.140 -0.2400 -0.5252  0.9133
  606MOL0     C83554   5.512   9.166   3.134  0.6453  0.6291 -0.5335
  606MOL0     C83555   5.598   9.256   3.142 -0.1236 -0.0401  0.2039
  606MOL0     C83556   5.714   8.560   2.820  0.5616  0.6417  0.1428
  606MOL0     C83557   5.848   8.534   2.777  0.6941  0.4352 -0.1522
  606MOL0     C83558   5.863   8.428   2.672 -0.5894 -0.6590 -1.4229
  606MOL0     H83559   6.260   8.617   2.477 -0.5908  0.4613  0.6200
  606MOL0     H83560   6.500   8.539   2.430 -1.4901  1.2502  1.4501
  606MOL0     H83561   6.701   8.444   2.727 -1.1428  1.3072 -1.6490
  606MOL0     H83562   6.785   8.493   2.586  4.1552 -0.9944  1.4016
  606MOL0     H83563   6.824   8.237   2.727 -1.4193  1.5804  1.4963
  606MOL0     H83564   6.852   8.243   2.550 -2.4791  0.2869  0.1562
  606MOL0     H83565   7.008   8.452   2.601 -1.0806 -0.4607 -1.5928
  606MOL0     H83566   6.992   8.397   2.760 -2.6776 -0.3050  0.7360
  606MOL0     H83567   7.079   8.158   2.681  2.4080 -1.2393 -2.3185
  606MOL0     H83568   7.087   8.224   2.517 -0.2816  1.1636 -0.8763
  606MOL0     H83569   7.236   8.285   2.776 -0.4701 -0.0350 -0.3558
  606MOL0     H83570   7.259   8.371   2.616  1.8453 -1.1365 -0.7666
  606MOL0     H83571   7.400   8.144   2.710  0.6434  2.2632  0.0036
  606MOL0     H83572   7.271   8.069   2.620 -0.4794 -0.3637  1.7368
  606MOL0     H83573   7.325   8.181   2.420 -1.2681  0.9682  1.0932
  606MOL0     H83574   7.457   8.086   2.474 -1.9003 -1.4170  0.1723
  606MOL0     H83575   7.524   8.285   2.380  0.7543 -1.9838 -0.2793
  606MOL0     H83576   7.445   8.392   2.492 -2.1895 -0.7876  0.0891
  606MOL0     H83577   7.734   8.118   2.496  1.0676  1.8199 -0.4562
  606MOL0     H83578   7.926   8.075   2.638 -1.2131  1.4608 -1.9253
  606MOL0     H83579   7.919   8.091   2.818 -1.2255  0.7435  0.5466
  606MOL0     H83580   8.126   8.180   2.696 -0.2196 -0.6240  2.7174
  606MOL0     H83581   8.024   8.308   2.622 -2.1409 -0.4899 -0.0489
  606MOL0     H83582   7.975   8.401   2.846 -0.5539 -0.9070  4.1533
  606MOL0     H83583   8.093   8.282   2.916  0.3714 -0.7999 -0.7703
  606MOL0     H83584   8.165   8.475   2.698 -1.6193  3.6920  0.5868
  606MOL0     H83585   8.169   8.524   2.872 -1.3130  0.7265 -1.6448
  606MOL0     H83586   8.417   8.487   2.619 -3.7549 -2.1379  3.3664
  606MOL0     H83587   8.593   8.591   2.509 -1.7955  3.0184  0.0883
  606MOL0     H83588   8.752   8.576   2.599 -0.0160  0.1665  0.7718
  606MOL0     H83589   8.659   8.723   2.601  0.4527 -0.3327 -0.1528
  606MOL0     H83590   8.866   8.739   3.231  0.6011  3.1435  1.3011
  606MOL0     H83591   9.071   8.844   3.319 -0.5174 -0.5782  0.4678
  606MOL0     H83592   9.268   8.932   3.390  0.1097 -0.0621  1.4410
  606MOL0     H83593   9.290   8.757   3.414  2.3333 -0.1016  0.4313
  606MOL0     H83594   9.532   8.815   3.349 -1.0357 -0.9853 -0.3192
  606MOL0     H83595   9.496   8.980   3.345  2.6060 -1.2232 -0.5289
  606MOL0     H83596   9.577   8.973   3.564  1.2938 -0.0607  1.0531
  606MOL0     H83597   9.519   8.808   3.588 -2.0542 -1.3318 -1.0251
  606MOL0     H83598   9.289   8.877   3.630 -0.8353  1.1292  0.6632
  606MOL0     H83599   9.330   9.042   3.585 -0.4269  0.0284 -0.3096
  606MOL0     H83600   9.470   9.084   3.759 -0.0096 -0.0378  1.5012
  606MOL0     H83601   9.317   9.038   3.818  1.8892  1.0178  1.4258
  606MOL0     H83602   9.574   8.874   3.830  1.8502  0.0124  4.7544
  606MOL0     H83603   9.408   8.801   3.853 -1.1880  0.5384 -2.5481
  606MOL0     H83604   9.519   9.026   4.023  0.4139  0.2196 -1.7471
  606MOL0     H83605   9.533   8.849   4.048  5.8596  2.2960 -4.0305
  606MOL0     H83606   9.292   8.816   4.088  2.6524 -1.1930 -1.1388
  606MOL0     H83607   9.257   8.966   4.009  0.0011  0.4733  0.8775
  606MOL0     H83608   9.297   8.712   2.979 -0.6484 -3.2960 -0.3465
  606MOL0     H83609   9.100   8.587   2.895  0.0108 -0.3674 -0.2324
  606MOL0     H83610   8.647   8.463   3.055 -0.9457 -2.8180 -1.1300
  606MOL0     H83611   8.422   8.392   3.034 -2.1371  1.0366 -0.5215
  606MOL0     H83612   6.480   8.269   2.763  0.6787  0.4406 -0.1130
  606MOL0     H83613   6.256   8.355   2.810 -1.1385  2.5646  0.5158
  606MOL0     H83614   6.000   8.749   3.000 -0.9098  0.7105  0.3921
  606MOL0     H83615   5.792   8.797   3.056 -0.8675 -0.3520  1.0664
  606MOL0     H83616   5.410   8.745   3.056 -1.1949  0.3308 -2.0733
  606MOL0     H83617   5.583   8.787   3.110  0.8884  0.3942 -0.6248
  606MOL0     H83618   5.463   8.901   2.838  0.2972  5.5338 -1.1668
  606MOL0     H83619   5.580   8.973   2.951  1.7858 -1.7783  0.7664
  606MOL0     H83620   5.351   9.071   2.932  1.5651  0.4283 -0.2373
  606MOL0     H83621   5.285   8.927   3.001 -1.3350  1.2325 -1.7592
  606MOL0     H83622   5.426   8.978   3.197 -0.7042 -1.4557 -0.2601
  606MOL0     H83623   5.304   9.107   3.179 -0.2383  1.6339 -1.0674
  606MOL0     H83624   5.665   9.339   3.137 -0.3444  0.1863  0.8526
  606MOL0     H83625   5.633   8.506   2.771  2.4150 -1.3569 -0.9349
  606MOL0     H83626   5.931   8.352   2.711 -1.7818 -0.5792  1.0495
  606MOL0     H83627   5.767   8.380   2.653 -1.5205 -0.6741  2.4022
  606MOL0     H83628   5.904   8.473   2.581  3.2902  1.2629  0.9842
  607MOL0     O83629   2.606   1.001   3.103  0.6347 -0.5399  0.1185
  607MOL0     C83630   2.571   0.959   2.997  0.5251  0.7934  0.1837
  607MOL0     O83631   2.511   0.834   2.983 -0.2544 -1.0054  0.4348
  607MOL0     C83632   2.493   0.754   3.094  0.0057  0.2683 -0.1072
  607MOL0     C83633   2.425   0.787   3.210  0.0379 -0.5183  0.3915
  607MOL0     C83634   2.421   0.701   3.324  0.7090 -0.4783  0.0464
  607MOL0     C83635   2.477   0.571   3.322  0.2773 -0.1326  0.0726
  607MOL0     O83636   2.478   0.496   3.440  0.0573  0.1148  0.5871
  607MOL0     C83637   2.520   0.364   3.428 -0.3042  0.6541  0.4132
  607MOL0     C83638   2.462   0.273   3.540  0.6412  0.0039  0.1253
  607MOL0     C83639   2.465   0.124   3.507  0.3073 -0.2418  0.0928
  607MOL0     C83640   2.592   0.055   3.465  1.2150  0.5332  0.1147
  607MOL0     C83641   2.591  -0.102   3.460  0.0069 -1.2388 -0.1022
  607MOL0     C83642   2.573  -0.162   3.597  0.0886  0.1189  0.5988
  607MOL0     C83643   2.591  -0.312   3.599 -0.4038 -0.5641 -0.4224
  607MOL0     C83644   2.534  -0.374   3.732 -0.5340  0.3563  0.5681
  607MOL0     N83645   2.560  -0.518   3.737  0.5141  0.1582  0.4918
  607MOL0     C83646   2.591  -0.576   3.856 -0.2449  0.4767 -0.2164
  607MOL0     C83647   2.612  -0.704   3.835 -0.7413  0.5219 -0.0887
  607MOL0     C83648   2.630  -0.816   3.930  0.2895 -0.0368  0.0052
  607MOL0     C83649   2.490  -0.875   3.963 -0.2636  0.2030  0.1652
  607MOL0     C83650   2.410  -0.782   4.062 -0.1218  0.2337  0.0746
  607MOL0     C83651   2.283  -0.841   4.101  1.0742 -0.1659  0.1236
  607MOL0     O83652   2.230  -0.753   4.202 -0.2530 -0.5017  0.5331
  607MOL0     C83653   2.101  -0.775   4.241 -0.2068  0.9380 -0.8888
  607MOL0     C83654   2.033  -0.894   4.225  0.1356 -0.0976  0.0372
  607MOL0     C83655   1.902  -0.920   4.253 -0.2524  0.2014  0.5078
  607MOL0     C83656   1.852  -1.065   4.228  0.1638  0.4453 -0.2675
  607MOL0     C83657   1.829  -0.807   4.294  0.4431  0.0860 -0.1877
  607MOL0     C83658   1.681  -0.815   4.312  0.2389  0.0010  0.1545
  607MOL0     O83659   1.625  -0.705   4.373 -0.0656  0.6923 -0.0410
  607MOL0     C83660   1.514  -0.722   4.452 -0.1201  0.5863  0.1915
  607MOL0     C83661   1.425  -0.618   4.483  0.0281 -0.5300  0.3878
  607MOL0     C83662   1.325  -0.634   4.581 -1.1762 -0.5733  0.2264
  607MOL0     C83663   1.300  -0.755   4.633  0.2911 -0.6767  0.2815
  607MOL0     O83664   1.192  -0.763   4.719  0.4186 -0.0065  0.3332
  607MOL0     C83665   1.131  -0.889   4.753  0.6410  0.1588 -0.1786
  607MOL0     C83666   1.171  -0.930   4.895  0.8532  0.4274  0.8163
  607MOL0     C83667   1.109  -1.064   4.925  0.6417  0.0114 -0.1467
  607MOL0     C83668   1.107  -1.087   5.070 -0.8666  0.1418 -0.0265
  607MOL0     C83669   1.019  -1.208   5.110 -1.1398 -0.2005  0.1329
  607MOL0     C83670   0.979  -1.187   5.256 -0.0802 -0.4029 -0.1442
  607MOL0     C83671   1.094  -1.198   5.360  0.3281  0.6290 -0.4706
  607MOL0     C83672   1.184  -1.321   5.349 -0.8259  0.3432 -0.2411
  607MOL0    Cl83673   1.294  -1.314   5.488 -0.1330 -0.4430 -0.1706
  607MOL0     C83674   1.376  -0.861   4.599  0.1557  0.3279  0.2584
  607MOL0     C83675   1.487  -0.845   4.519  0.4698 -0.2121  0.1281
  607MOL0     O83676   1.622  -0.913   4.270 -0.2528 -0.7687 -0.5003
  607MOL0     C83677   1.896  -0.686   4.318  1.1592  0.0364  0.7539
  607MOL0     C83678   2.034  -0.670   4.301  0.1373 -0.1808  0.7963
  607MOL0     N83679   2.572  -0.728   3.703 -0.2637 -0.5499 -0.1211
  607MOL0     N83680   2.544  -0.614   3.651  0.7640  0.6163 -0.0328
  607MOL0     C83681   2.541   0.529   3.201 -0.1434 -0.2971  0.1103
  607MOL0     C83682   2.550   0.622   3.092  0.1980  0.9251  1.3471
  607MOL0     C83683   2.625   1.029   2.875  0.1721  0.5531  0.2871
  607MOL0     C83684   2.758   1.067   2.875 -0.6962 -0.0435  0.1316
  607MOL0     C83685   2.811   1.134   2.769  0.3813  0.6378 -0.1968
  607MOL0     C83686   2.733   1.149   2.649 -0.3353 -0.4214 -0.4665
  607MOL0     O83687   2.776   1.197   2.528 -0.2788  0.6271 -0.3126
  607MOL0     C83688   2.905   1.256   2.514 -0.0938 -0.1825 -0.1341
  607MOL0     C83689   2.917   1.361   2.407  0.1761 -1.5661 -1.1521
  607MOL0     C83690   3.053   1.433   2.407  0.0211 -0.0447 -0.2495
  607MOL0     C83691   3.041   1.571   2.468  0.1644 -0.2966  0.2940
  607MOL0     C83692   3.165   1.645   2.446 -0.9792  0.2946  0.2143
  607MOL0     C83693   3.274   1.704   2.441  0.7626 -0.5837  1.0293
  607MOL0     C83694   2.604   1.107   2.655  0.6151 -0.0449 -0.3177
  607MOL0     C83695   2.550   1.050   2.764 -0.2460 -0.9713  0.0655
  607MOL0     C83696   2.409   0.996   2.748 -0.0714  0.2210 -0.3369
  607MOL0     H83697   2.380   0.886   3.213 -0.2065 -0.3029 -4.0765
  607MOL0     H83698   2.380   0.743   3.415 -0.5104 -3.5895  1.0839
  607MOL0     H83699   2.629   0.367   3.431 -0.2723 -0.7702  2.2624
  607MOL0     H83700   2.473   0.321   3.339  0.7022  0.1215  0.1270
  607MOL0     H83701   2.512   0.298   3.634  1.7913 -4.1632  0.8018
  607MOL0     H83702   2.357   0.300   3.548 -0.4510 -3.5284 -0.6498
  607MOL0     H83703   2.423   0.068   3.591  1.1611 -4.1213 -1.8151
  607MOL0     H83704   2.393   0.123   3.424  0.9109 -1.9256 -0.4609
  607MOL0     H83705   2.617   0.091   3.364 -0.8379  1.0351 -0.2645
  607MOL0     H83706   2.670   0.082   3.537 -0.1300 -0.6882  2.1118
  607MOL0     H83707   2.683  -0.144   3.418  0.2037  1.4162 -2.6642
  607MOL0     H83708   2.513  -0.131   3.389 -3.1940 -1.1088  3.0894
  607MOL0     H83709   2.647  -0.115   3.663 -0.2259  0.6188  0.5987
  607MOL0     H83710   2.476  -0.133   3.638 -0.6498  0.3946 -1.2752
  607MOL0     H83711   2.700  -0.326   3.595 -0.3491  0.1402 -1.6091
  607MOL0     H83712   2.549  -0.360   3.510  0.8379  1.6779 -2.3352
  607MOL0     H83713   2.583  -0.325   3.816  3.6650 -1.4309 -0.5883
  607MOL0     H83714   2.426  -0.358   3.737 -0.4833  1.3356 -0.8763
  607MOL0     H83715   2.606  -0.524   3.951  1.3713 -1.4013  0.6246
  607MOL0     H83716   2.685  -0.791   4.021 -0.4777 -1.7860  1.0069
  607MOL0     H83717   2.694  -0.884   3.873 -0.3782 -0.1536 -0.6070
  607MOL0     H83718   2.432  -0.886   3.870 -0.9279  0.9221  0.4803
  607MOL0     H83719   2.517  -0.975   3.999  2.2828  0.8950  0.3474
  607MOL0     H83720   2.465  -0.769   4.156 -1.0889 -1.8832  0.9948
  607MOL0     H83721   2.397  -0.682   4.019  1.8886  0.1310 -0.8720
  607MOL0     H83722   2.212  -0.829   4.018 -0.5736  1.8540  1.7113
  607MOL0     H83723   2.290  -0.945   4.136  0.9366  0.5285  2.3786
  607MOL0     H83724   2.082  -0.987   4.198 -0.6053 -0.6636  0.5997
  607MOL0     H83725   1.815  -1.086   4.127  2.1961  0.3832 -1.0411
  607MOL0     H83726   1.784  -1.097   4.308 -2.0530 -0.4909 -2.4176
  607MOL0     H83727   1.933  -1.138   4.241 -0.1607  0.3386  1.3900
  607MOL0     H83728   1.426  -0.522   4.433  0.9628 -1.4918 -1.5686
  607MOL0     H83729   1.250  -0.560   4.607 -0.9066  0.3078 -1.3441
  607MOL0     H83730   1.023  -0.873   4.748  0.8876  2.0465 -0.3492
  607MOL0     H83731   1.148  -0.970   4.682 -3.4245 -0.4602 -0.6521
  607MOL0     H83732   1.280  -0.927   4.904  0.9648  1.3234 -0.5643
  607MOL0     H83733   1.119  -0.867   4.968 -2.8518 -2.2665  0.8536
  607MOL0     H83734   1.174  -1.142   4.885 -2.2859 -2.3360 -0.7136
  607MOL0     H83735   1.008  -1.079   4.886  0.7924  3.4964 -2.3326
  607MOL0     H83736   1.075  -0.988   5.106 -0.7728  1.1148 -2.4424
  607MOL0     H83737   1.206  -1.105   5.112 -1.3020 -1.0222  0.5284
  607MOL0     H83738   0.926  -1.197   5.053 -1.0506  1.0453  0.1999
  607MOL0     H83739   1.061  -1.306   5.086  0.4708  0.6545 -0.7021
  607MOL0     H83740   0.897  -1.254   5.282 -0.6686  1.4076  3.2265
  607MOL0     H83741   0.931  -1.088   5.253 -0.4753 -0.6150 -1.8595
  607MOL0     H83742   1.054  -1.203   5.461  0.7303 -0.1903 -0.3408
  607MOL0     H83743   1.156  -1.112   5.334  1.1417 -0.3274 -1.8482
  607MOL0     H83744   1.239  -1.325   5.254 -1.2996 -0.8452 -0.4845
  607MOL0     H83745   1.114  -1.405   5.351  0.2339 -0.7542 -3.0098
  607MOL0     H83746   1.361  -0.958   4.646  0.6116 -0.8299 -1.8452
  607MOL0     H83747   1.570  -0.915   4.509  0.2439 -0.4236 -0.3229
  607MOL0     H83748   1.851  -0.597   4.359 -1.7331 -0.6230 -0.7460
  607MOL0     H83749   2.094  -0.586   4.335 -1.0256  1.2284 -0.4475
  607MOL0     H83750   2.590   0.432   3.200 -0.7780 -0.6227 -1.0881
  607MOL0     H83751   2.611   0.585   3.010 -1.9207  1.0997 -0.3647
  607MOL0     H83752   2.827   1.060   2.959  1.1759  1.7739 -1.1644
  607MOL0     H83753   2.917   1.159   2.779  1.3938 -2.2864 -2.3326
  607MOL0     H83754   2.948   1.301   2.604 -1.3572 -2.3091  1.6447
  607MOL0     H83755   2.985   1.182   2.502  0.7638  0.6140  0.4612
  607MOL0     H83756   2.838   1.435   2.424  1.8934 -0.3332  2.8738
  607MOL0     H83757   2.901   1.305   2.315 -2.6977 -0.6548 -1.2979
  607MOL0     H83758   3.128   1.371   2.457 -0.3126  1.9425  3.0009
  607MOL0     H83759   3.079   1.451   2.302  0.4326  0.8224 -0.0071
  607MOL0     H83760   3.029   1.565   2.577  1.1487 -0.8149  0.3898
  607MOL0     H83761   2.968   1.637   2.420  2.1210  1.8563  0.0949
  607MOL0     H83762   3.365   1.759   2.453  0.3100  0.7316 -1.0111
  607MOL0     H83763   2.544   1.106   2.565  0.9979  1.6925 -0.6197
  607MOL0     H83764   2.404   0.887   2.751  0.1387  0.1107 -2.6511
  607MOL0     H83765   2.354   1.026   2.838 -0.5348  1.6835 -1.0705
  607MOL0     H83766   2.353   1.023   2.659  1.2111  0.6792 -1.0365
  608MOL0     O83767   0.360   4.861   6.931 -0.2779 -0.6578 -0.1700
  608MOL0     C83768   0.358   4.824   6.815  0.3968  0.3485  0.7756
  608MOL0     O83769   0.470   4.797   6.743  1.1684  0.0756 -0.3909
  608MOL0     C83770   0.582   4.746   6.796  0.2750  0.1936  0.2073
  608MOL0     C83771   0.719   4.782   6.768 -0.1510  0.0730  0.0989
  608MOL0     C83772   0.827   4.703   6.820  0.3927 -0.0488  0.4876
  608MOL0     C83773   0.800   4.597   6.895 -0.3237  0.6894 -0.4819
  608MOL0     O83774   0.918   4.544   6.940 -0.1077  0.3442  0.5097
  608MOL0     C83775   0.922   4.409   6.983 -0.3941 -0.4303 -0.5764
  608MOL0     C83776   1.073   4.387   7.014 -0.1645 -0.5420 -0.3474
  608MOL0     C83777   1.122   4.238   6.985 -0.2994  0.5637  0.1778
  608MOL0     C83778   1.263   4.200   7.064  1.2041  0.2328 -0.0977
  608MOL0     C83779   1.379   4.277   7.003  0.4999  0.5914  0.1778
  608MOL0     C83780   1.397   4.242   6.851  0.1982  0.2004 -0.2224
  608MOL0     C83781   1.533   4.288   6.799 -0.3694 -0.0614  0.0903
  608MOL0     C83782   1.519   4.275   6.640  0.5079 -0.6032  0.4258
  608MOL0     N83783   1.635   4.324   6.567  0.1587  0.4982 -0.2482
  608MOL0     C83784   1.768   4.295   6.599  0.2384 -0.0727 -0.5591
  608MOL0     C83785   1.845   4.353   6.500  0.0361 -0.5236 -0.1164
  608MOL0     C83786   1.995   4.339   6.479 -0.3221  0.2014 -0.1110
  608MOL0     C83787   2.058   4.449   6.567  0.1861  0.6961 -0.0475
  608MOL0     C83788   2.211   4.440   6.546  0.3666  0.0123 -0.5024
  608MOL0     C83789   2.298   4.543   6.613 -0.0135  0.0162 -0.3483
  608MOL0     O83790   2.295   4.540   6.749 -0.1065  0.1610 -0.0046
  608MOL0     C83791   2.367   4.444   6.821  1.2256 -0.2380 -0.1677
  608MOL0     C83792   2.322   4.430   6.947 -0.7675  0.3758  0.2598
  608MOL0     C83793   2.385   4.348   7.041 -0.0193  0.3622 -0.0899
  608MOL0     C83794   2.338   4.353   7.181 -0.0839  0.1115  0.0425
  608MOL0     C83795   2.494   4.273   6.989  0.3934  0.9294 -0.5607
  608MOL0     C83796   2.555   4.173   7.084 -0.5311 -0.1568  0.3203
  608MOL0     O83797   2.682   4.142   7.059  0.1409  0.1666  1.0361
  608MOL0     C83798   2.750   4.055   7.141 -1.0580  0.4152 -0.6453
  608MOL0     C83799   2.800   3.929   7.087  1.0470  0.0353  0.8070
  608MOL0     C83800   2.856   3.833   7.165  0.2455  0.3784 -0.3054
  608MOL0     C83801   2.887   3.867   7.298  0.3045 -0.1348 -0.2633
  608MOL0     O83802   2.949   3.779   7.371  0.3050 -0.0052  0.1030
  608MOL0     C83803   3.087   3.765   7.319 -0.5251 -0.5527  0.2251
  608MOL0     C83804   3.160   3.681   7.419  0.3217  0.6564  0.3175
  608MOL0     C83805   3.313   3.672   7.390 -0.3730  0.6811  0.8158
  608MOL0     C83806   3.347   3.537   7.318  0.6596 -0.3782  0.4015
  608MOL0     C83807   3.497   3.503   7.290  0.0791  0.0650 -0.0752
  608MOL0     C83808   3.579   3.436   7.409 -0.1886 -1.0725  0.6507
  608MOL0     C83809   3.728   3.477   7.391  0.0794  0.7891 -0.3537
  608MOL0     C83810   3.765   3.561   7.515 -0.2813 -0.1663  0.1480
  608MOL0    Cl83811   3.720   3.731   7.478  0.0388  0.0023 -0.1501
  608MOL0     C83812   2.840   3.987   7.359  0.5767 -0.0060 -0.1531
  608MOL0     C83813   2.771   4.083   7.279  0.5767  0.1199  0.6677
  608MOL0     O83814   2.494   4.108   7.160  0.5436  0.2463 -0.0083
  608MOL0     C83815   2.537   4.281   6.854 -0.0310  0.2914  0.1621
  608MOL0     C83816   2.481   4.378   6.768 -0.1025 -0.2443 -0.2641
  608MOL0     N83817   1.752   4.429   6.421  0.0910  0.5069 -0.3565
  608MOL0     N83818   1.631   4.415   6.464 -1.2237  0.2802 -0.2552
  608MOL0     C83819   0.671   4.560   6.925  0.2218 -0.4487  0.4933
  608MOL0     C83820   0.561   4.634   6.874  0.2458  0.2067  0.4175
  608MOL0     C83821   0.236   4.840   6.741  0.8080  0.4124 -0.4207
  608MOL0     C83822   0.247   4.896   6.616 -0.0364  0.7286 -0.3675
  608MOL0     C83823   0.126   4.923   6.552  0.0311  0.3887  0.5186
  608MOL0     C83824   0.000   4.893   6.600  0.2024  0.0138 -0.6567
  608MOL0     O83825  -0.107   4.928   6.520  0.3212  0.5966  0.1014
  608MOL0     C83826  -0.241   4.936   6.572  0.2685 -0.2760 -0.1009
  608MOL0     C83827  -0.344   5.002   6.475 -0.2702 -0.0714 -0.1352
  608MOL0     C83828  -0.357   5.153   6.495  0.0629  0.1338 -0.0197
  608MOL0     C83829  -0.452   5.171   6.618  0.0778  0.5909 -0.2496
  608MOL0     C83830  -0.504   5.306   6.625 -0.4373  0.1969 -0.2968
  608MOL0     C83831  -0.551   5.417   6.618 -0.2257 -0.1351  0.1815
  608MOL0     C83832  -0.010   4.838   6.722  1.3866  0.5282 -0.6031
  608MOL0     C83833   0.105   4.804   6.795 -0.6006  0.3833 -0.2084
  608MOL0     C83834   0.081   4.730   6.927 -0.8638 -0.6713  0.3211
  608MOL0     H83835   0.743   4.867   6.704  1.6358  1.2014  2.1436
  608MOL0     H83836   0.929   4.735   6.807  0.6757 -1.3372 -0.7343
  608MOL0     H83837   0.873   4.341   6.913 -1.1625 -1.9766  1.3643
  608MOL0     H83838   0.877   4.395   7.082  1.1910  0.5685  0.3373
  608MOL0     H83839   1.136   4.455   6.956  0.6291  0.0504  1.1646
  608MOL0     H83840   1.072   4.405   7.122 -0.7266  0.1596 -0.4620
  608MOL0     H83841   1.042   4.176   7.027 -1.3217  2.3600  1.0269
  608MOL0     H83842   1.117   4.218   6.878 -2.1840 -3.1755  0.8018
  608MOL0     H83843   1.253   4.223   7.171  0.4288  1.2863 -0.3786
  608MOL0     H83844   1.304   4.098   7.060  0.2606 -0.2300  1.2313
  608MOL0     H83845   1.473   4.248   7.052 -1.6005 -2.2315  2.9723
  608MOL0     H83846   1.370   4.385   7.018 -0.0498  0.6178 -0.3222
  608MOL0     H83847   1.394   4.135   6.829  1.7641  0.7227 -3.7299
  608MOL0     H83848   1.313   4.283   6.793 -2.1301 -1.3001  1.8715
  608MOL0     H83849   1.610   4.222   6.841  0.0003  0.7079  0.6380
  608MOL0     H83850   1.549   4.392   6.827  0.4723 -0.3373  0.6778
  608MOL0     H83851   1.503   4.169   6.620 -0.3496 -0.2262 -1.1160
  608MOL0     H83852   1.431   4.326   6.599  2.3527 -0.0120 -3.2252
  608MOL0     H83853   1.814   4.229   6.672 -0.5994  0.2281  0.2641
  608MOL0     H83854   2.015   4.364   6.375  1.2845 -1.0916 -0.1465
  608MOL0     H83855   2.024   4.235   6.492  1.3988  0.8331  1.4946
  608MOL0     H83856   2.012   4.546   6.548 -2.6813 -0.6818 -0.6493
  608MOL0     H83857   2.029   4.418   6.668 -0.2232 -2.0482 -0.9258
  608MOL0     H83858   2.241   4.344   6.589  0.3754  0.2396  0.0018
  608MOL0     H83859   2.240   4.421   6.442 -0.1045 -2.3318 -0.2525
  608MOL0     H83860   2.402   4.537   6.579 -0.6680 -0.2604 -2.4558
  608MOL0     H83861   2.267   4.642   6.580  1.5165  1.7530  2.9590
  608MOL0     H83862   2.242   4.498   6.974 -0.5308  0.1610  1.5753
  608MOL0     H83863   2.307   4.254   7.216 -2.5443  0.0342 -2.0642
  608MOL0     H83864   2.252   4.420   7.182  1.6140  2.3995  1.3642
  608MOL0     H83865   2.419   4.386   7.247  1.8157 -0.4223 -1.8962
  608MOL0     H83866   2.774   3.912   6.983  0.4767  2.5749  0.4753
  608MOL0     H83867   2.903   3.750   7.114  1.4271  1.2805 -0.7408
  608MOL0     H83868   3.094   3.732   7.215  0.3010 -0.0259  0.1007
  608MOL0     H83869   3.141   3.860   7.323 -0.1209 -0.5390 -3.0743
  608MOL0     H83870   3.151   3.723   7.519  0.0258  1.5456 -0.0724
  608MOL0     H83871   3.113   3.582   7.423 -0.4683  1.0535  1.2688
  608MOL0     H83872   3.372   3.679   7.482  1.2722  1.1739 -0.2290
  608MOL0     H83873   3.357   3.747   7.324 -0.2013  1.0628  1.3519
  608MOL0     H83874   3.299   3.549   7.221 -2.3646  0.3942  1.8643
  608MOL0     H83875   3.300   3.454   7.372 -2.2728  1.1734  0.4632
  608MOL0     H83876   3.496   3.426   7.214  3.0995 -0.0452 -0.1156
  608MOL0     H83877   3.543   3.594   7.251  0.4251  0.3593  0.9689
  608MOL0     H83878   3.570   3.327   7.407 -2.5204 -0.9412  0.7460
  608MOL0     H83879   3.541   3.472   7.505  2.6999  1.0708  1.1305
  608MOL0     H83880   3.738   3.529   7.295  0.9100 -1.2588 -1.4368
  608MOL0     H83881   3.791   3.388   7.391 -2.4732 -1.1178 -0.8813
  608MOL0     H83882   3.874   3.563   7.529  0.0578  0.8674 -2.1017
  608MOL0     H83883   3.721   3.521   7.607 -0.5325 -1.7747 -0.6315
  608MOL0     H83884   2.848   4.009   7.465 -2.6847 -0.2438  0.2588
  608MOL0     H83885   2.750   4.182   7.318  0.2629  0.0766  0.6127
  608MOL0     H83886   2.625   4.226   6.823  0.0063 -2.1001  3.8412
  608MOL0     H83887   2.510   4.389   6.664 -0.0047  1.6885 -0.0789
  608MOL0     H83888   0.666   4.468   6.982  1.9413 -0.2645  0.9704
  608MOL0     H83889   0.465   4.601   6.913 -0.0135 -1.0871 -1.2137
  608MOL0     H83890   0.340   4.932   6.574  0.5756 -2.2819 -1.9068
  608MOL0     H83891   0.130   4.969   6.454 -0.8908  0.2174  0.3907
  608MOL0     H83892  -0.265   4.833   6.601  0.8856 -0.2179  0.6187
  608MOL0     H83893  -0.242   4.991   6.666  1.4345 -0.4473  0.0283
  608MOL0     H83894  -0.442   4.956   6.492 -1.2915  1.6649 -0.9554
  608MOL0     H83895  -0.309   4.966   6.378 -0.9177 -2.0444  0.3075
  608MOL0     H83896  -0.259   5.202   6.504  0.0181  0.4930 -1.2644
  608MOL0     H83897  -0.408   5.194   6.407 -2.2778  0.7481  1.5580
  608MOL0     H83898  -0.391   5.146   6.705  1.2589  0.4836 -1.0779
  608MOL0     H83899  -0.546   5.116   6.609 -0.4273  1.5099 -0.7269
  608MOL0     H83900  -0.572   5.522   6.615  3.1963  0.8371  2.7989
  608MOL0     H83901  -0.104   4.805   6.765  3.6913 -2.9411  2.4028
  608MOL0     H83902   0.070   4.807   7.004  2.2605 -0.1531  0.3772
  608MOL0     H83903  -0.008   4.667   6.926 -1.8222  0.6171  1.1149
  608MOL0     H83904   0.166   4.669   6.960 -2.9523 -2.3972  2.8746
  609MOL0     O83905   1.280   0.842   1.490  0.2710  0.0964  0.2618
  609MOL0     C83906   1.353   0.756   1.435  0.1360 -0.1597  0.4535
  609MOL0     O83907   1.310   0.623   1.396 -0.0593  0.4458 -0.2518
  609MOL0     C83908   1.188   0.574   1.424  0.5497  0.2077  0.2638
  609MOL0     C83909   1.075   0.654   1.452 -0.4682 -0.1322 -0.3692
  609MOL0     C83910   0.952   0.594   1.464  0.4178 -0.1979  0.2396
  609MOL0     C83911   0.933   0.461   1.468 -0.5066 -0.8530 -0.0287
  609MOL0     O83912   0.815   0.400   1.498  0.0145 -0.0581  0.2924
  609MOL0     C83913   0.686   0.465   1.495  0.2240 -0.2324  0.1809
  609MOL0     C83914   0.636   0.481   1.353  0.8782 -0.4456 -0.0922
  609MOL0     C83915   0.578   0.349   1.298 -0.1658 -0.0214 -0.1827
  609MOL0     C83916   0.502   0.360   1.167  0.0140 -0.7150  0.5793
  609MOL0     C83917   0.434   0.235   1.113  0.1264  0.5225 -0.9326
  609MOL0     C83918   0.349   0.256   0.993 -0.4125 -0.2794  0.2425
  609MOL0     C83919   0.246   0.153   0.963 -0.5192 -0.0469 -0.0871
  609MOL0     C83920   0.155   0.189   0.839  0.1169 -0.4520  0.5821
  609MOL0     N83921   0.229   0.223   0.706 -0.0670 -0.0575 -0.2363
  609MOL0     C83922   0.246   0.147   0.597 -0.3178 -0.2205 -0.3511
  609MOL0     C83923   0.329   0.218   0.513 -0.2785  0.1884 -0.5317
  609MOL0     C83924   0.376   0.169   0.370 -0.6552 -0.0926  0.2456
  609MOL0     C83925   0.527   0.161   0.360 -1.0431  0.9336  0.2166
  609MOL0     C83926   0.567   0.138   0.211  0.0545 -0.6967 -0.4838
  609MOL0     C83927   0.722   0.157   0.175  0.2089 -0.8786 -0.6868
  609MOL0     O83928   0.813   0.048   0.207 -0.0699 -1.1384 -0.8124
  609MOL0     C83929   0.934   0.048   0.148 -0.7048 -1.1463  0.3498
  609MOL0     C83930   1.008  -0.062   0.170  0.1517 -0.3631 -0.1447
  609MOL0     C83931   1.131  -0.091   0.106 -0.2140 -0.9223 -0.2046
  609MOL0     C83932   1.208  -0.208   0.155 -0.1518  0.4134 -0.6853
  609MOL0     C83933   1.179   0.004   0.012 -0.7564 -0.0440 -0.4075
  609MOL0     C83934   1.315  -0.002  -0.053  0.2798 -0.7158 -1.1982
  609MOL0     O83935   1.355  -0.122  -0.111 -0.0289  0.1341  0.5412
  609MOL0     C83936   1.484  -0.133  -0.167 -0.2382  0.4987  0.0863
  609MOL0     C83937   1.564  -0.243  -0.132 -0.0963 -0.4430  0.2564
  609MOL0     C83938   1.687  -0.258  -0.199 -0.4278  0.2045 -0.6637
  609MOL0     C83939   1.745  -0.173  -0.290 -0.0042  0.3705 -0.0334
  609MOL0     O83940   1.871  -0.203  -0.350  0.0680 -0.1303 -1.1330
  609MOL0     C83941   1.962  -0.094  -0.378  1.3070  0.0224 -0.1410
  609MOL0     C83942   2.110  -0.130  -0.373  0.3450 -0.3619 -1.0870
  609MOL0     C83943   2.148  -0.230  -0.486  0.4199 -1.1961 -0.6165
  609MOL0     C83944   2.303  -0.223  -0.481 -0.4182  0.2109  0.1852
  609MOL0     C83945   2.377  -0.318  -0.580  0.6928  0.5535  0.1413
  609MOL0     C83946   2.523  -0.322  -0.550  0.1375  0.4274 -0.4109
  609MOL0     C83947   2.589  -0.181  -0.576  0.1532  0.1982  0.3562
  609MOL0     C83948   2.740  -0.190  -0.568  0.3202  0.4400 -0.2487
  609MOL0    Cl83949   2.819  -0.030  -0.561 -0.4110  0.0277 -0.1749
  609MOL0     C83950   1.671  -0.056  -0.316 -0.7101  0.3367 -0.5518
  609MOL0     C83951   1.549  -0.035  -0.246  0.2084 -0.1900  0.2535
  609MOL0     O83952   1.377   0.108  -0.050  0.5873  1.0880  0.0348
  609MOL0     C83953   1.107   0.121  -0.003  0.4392  0.3705  0.6267
  609MOL0     C83954   0.979   0.146   0.052 -0.2911 -0.4882 -0.2056
  609MOL0     N83955   0.344   0.343   0.567  0.9341  0.2627  0.9136
  609MOL0     N83956   0.290   0.344   0.684  1.0921 -0.3020 -0.2700
  609MOL0     C83957   1.046   0.378   1.450 -0.1740  0.2281 -0.4234
  609MOL0     C83958   1.172   0.435   1.427  0.6331 -0.0811 -0.1447
  609MOL0     C83959   1.505   0.779   1.434  1.4940  0.4882  0.0584
  609MOL0     C83960   1.579   0.668   1.440  0.8929 -0.2652 -0.6896
  609MOL0     C83961   1.716   0.692   1.478  0.0413 -0.0208 -0.1864
  609MOL0     C83962   1.780   0.815   1.477  0.1708  1.0292  0.8340
  609MOL0     O83963   1.915   0.826   1.497 -0.0736  0.3311  0.1060
  609MOL0     C83964   1.983   0.931   1.424 -0.1597  0.4432 -0.0725
  609MOL0     C83965   2.125   0.908   1.445 -0.3032 -0.7202  0.1313
  609MOL0     C83966   2.220   0.996   1.359 -0.1661 -0.7997 -0.1649
  609MOL0     C83967   2.370   0.949   1.374 -0.1132 -0.0966 -0.1582
  609MOL0     C83968   2.467   1.036   1.305  0.2246  0.6598 -0.2441
  609MOL0     C83969   2.516   1.128   1.247 -0.8715 -0.8006 -1.3224
  609MOL0     C83970   1.699   0.923   1.451 -0.2942  0.1682  0.0448
  609MOL0     C83971   1.563   0.904   1.433 -0.1662 -0.5608  0.5181
  609MOL0     C83972   1.485   1.026   1.390 -0.2948 -0.2178 -0.0336
  609MOL0     H83973   1.068   0.761   1.467  0.6976  0.0162 -0.8078
  609MOL0     H83974   0.861   0.651   1.479  0.9701  1.4866 -2.1927
  609MOL0     H83975   0.697   0.563   1.543  3.5348  0.5251 -1.7699
  609MOL0     H83976   0.610   0.410   1.551  0.9883 -2.2016 -0.6255
  609MOL0     H83977   0.561   0.560   1.355 -1.4451 -2.5461  1.8703
  609MOL0     H83978   0.717   0.524   1.294  0.6630 -2.1042 -1.6596
  609MOL0     H83979   0.642   0.260   1.298 -0.1993 -0.1037  2.0482
  609MOL0     H83980   0.498   0.322   1.368  1.2275 -2.3162  0.6446
  609MOL0     H83981   0.427   0.437   1.190  1.4656  0.8152  0.3896
  609MOL0     H83982   0.570   0.399   1.090  0.5325  0.8285  1.7581
  609MOL0     H83983   0.377   0.193   1.196  1.7969 -1.4507 -0.7114
  609MOL0     H83984   0.518   0.168   1.096 -0.1591 -0.4060  0.9876
  609MOL0     H83985   0.288   0.346   1.011  2.4487  1.9547 -0.4721
  609MOL0     H83986   0.415   0.265   0.906 -0.5731  0.5039  0.1903
  609MOL0     H83987   0.188   0.141   1.055 -1.6886 -2.7530 -1.0660
  609MOL0     H83988   0.296   0.058   0.942 -0.6381 -0.0417 -0.4081
  609MOL0     H83989   0.080   0.114   0.814 -1.8257  2.1543 -2.2142
  609MOL0     H83990   0.099   0.279   0.864 -2.3935 -1.3001 -1.4928
  609MOL0     H83991   0.200   0.050   0.583 -2.1070  0.6465 -0.7939
  609MOL0     H83992   0.352   0.248   0.298  1.6698  1.8930  1.5131
  609MOL0     H83993   0.319   0.080   0.340  0.8187 -0.8711 -0.3630
  609MOL0     H83994   0.575   0.257   0.381  2.2212 -0.1517 -1.5777
  609MOL0     H83995   0.571   0.088   0.430 -2.0254 -1.0359 -1.1464
  609MOL0     H83996   0.527   0.041   0.181  0.1458 -0.5936 -0.9514
  609MOL0     H83997   0.522   0.222   0.157  0.5561 -0.0796  0.0386
  609MOL0     H83998   0.724   0.172   0.067  2.8362  1.4411 -0.4298
  609MOL0     H83999   0.749   0.253   0.220 -3.1352 -0.2867  0.2949
  609MOL0     H84000   0.963  -0.124   0.247  1.7241 -2.1059 -0.5733
  609MOL0     H84001   1.136  -0.276   0.203  1.1376  0.4549  1.4497
  609MOL0     H84002   1.292  -0.190   0.223  0.2909  0.1208 -1.1549
  609MOL0     H84003   1.266  -0.263   0.081  2.4276  1.1629  0.6326
  609MOL0     H84004   1.535  -0.328  -0.072  0.1680 -2.9758 -2.9429
  609MOL0     H84005   1.743  -0.349  -0.181  0.6091  0.7984 -0.8042
  609MOL0     H84006   1.928  -0.055  -0.474  1.3788  0.8984  0.1757
  609MOL0     H84007   1.950  -0.006  -0.313 -1.2848  0.3385 -0.9172
  609MOL0     H84008   2.167  -0.036  -0.383  3.2556 -2.1477 -2.7282
  609MOL0     H84009   2.133  -0.175  -0.276 -2.0459 -1.1056 -0.8043
  609MOL0     H84010   2.118  -0.198  -0.586  2.2088  2.8109 -0.0981
  609MOL0     H84011   2.120  -0.332  -0.458  0.4161 -0.5595  1.9826
  609MOL0     H84012   2.339  -0.229  -0.378  0.6880  1.1588 -0.1311
  609MOL0     H84013   2.331  -0.120  -0.503  0.7128  0.0732  0.9058
  609MOL0     H84014   2.328  -0.416  -0.576  0.9925  0.3113 -1.5135
  609MOL0     H84015   2.355  -0.284  -0.681 -1.5206  2.9132  1.2881
  609MOL0     H84016   2.566  -0.411  -0.596  2.1877 -0.3154  2.6454
  609MOL0     H84017   2.532  -0.337  -0.442  0.0915  1.8926 -0.1786
  609MOL0     H84018   2.557  -0.109  -0.500  0.0979 -1.6159  2.1298
  609MOL0     H84019   2.570  -0.145  -0.678  2.0936  1.1547  0.2740
  609MOL0     H84020   2.788  -0.242  -0.652  1.5656  1.1319  0.0086
  609MOL0     H84021   2.772  -0.255  -0.487 -0.2357 -4.1653 -3.3284
  609MOL0     H84022   1.712   0.019  -0.383  0.9895  0.3055  0.3784
  609MOL0     H84023   1.494   0.055  -0.271  4.5895  2.2195 -2.2133
  609MOL0     H84024   1.148   0.194  -0.073 -0.3946 -0.7890 -1.1607
  609MOL0     H84025   0.922   0.235   0.029  1.6317  0.8028 -0.2585
  609MOL0     H84026   1.032   0.272   1.468  1.7475 -0.1179 -0.8340
  609MOL0     H84027   1.262   0.375   1.420  1.4006  0.6858  2.2992
  609MOL0     H84028   1.533   0.572   1.421 -2.4632  1.5883 -2.7403
  609MOL0     H84029   1.772   0.605   1.514  0.2717 -0.1583 -0.8641
  609MOL0     H84030   1.955   0.912   1.320  1.2919  1.0796 -0.5928
  609MOL0     H84031   1.953   1.029   1.464 -0.6254  0.1029  0.4201
  609MOL0     H84032   2.146   0.802   1.426  1.4587 -0.4258  0.2376
  609MOL0     H84033   2.148   0.936   1.548  0.2154  1.7795 -0.5949
  609MOL0     H84034   2.186   0.985   1.255 -2.5647 -0.5653  0.5251
  609MOL0     H84035   2.212   1.103   1.380 -1.4862 -1.0922  0.9950
  609MOL0     H84036   2.371   0.850   1.327 -1.6746 -0.9845  1.5228
  609MOL0     H84037   2.397   0.940   1.480 -0.9800  0.5741  0.1238
  609MOL0     H84038   2.560   1.215   1.203 -0.5251  0.5432  1.4634
  609MOL0     H84039   1.741   1.021   1.471 -1.9086  0.6638  1.2104
  609MOL0     H84040   1.488   1.109   1.462  1.0862  0.8530 -1.2581
  609MOL0     H84041   1.545   1.057   1.305  0.6059 -2.4468 -0.2714
  609MOL0     H84042   1.392   0.998   1.339 -0.0426 -0.1126 -0.5499
  610MOL0     O84043   8.794  10.825   0.058  0.5915 -0.1173 -0.0959
  610MOL0     C84044   8.806  10.831   0.177  0.5606 -0.0315  0.3958
  610MOL0     O84045   8.797  10.718   0.262  0.1259  0.1591  0.1782
  610MOL0     C84046   8.743  10.605   0.202 -0.2269  0.5213  0.0156
  610MOL0     C84047   8.605  10.581   0.204  0.1561 -0.1131 -1.3165
  610MOL0     C84048   8.555  10.456   0.161  0.1717  0.5081 -0.1823
  610MOL0     C84049   8.625  10.375   0.074 -0.9448  0.0909  1.0472
  610MOL0     O84050   8.549  10.294  -0.014  0.3757 -0.5158 -0.3841
  610MOL0     C84051   8.617  10.202  -0.101 -0.3544 -0.2201  0.7198
  610MOL0     C84052   8.545  10.088  -0.179  0.4914 -0.2363 -0.5012
  610MOL0     C84053   8.428  10.129  -0.266  0.5066  0.0540  0.0608
  610MOL0     C84054   8.468  10.213  -0.393 -0.2455 -0.7581 -0.0132
  610MOL0     C84055   8.341  10.269  -0.473 -0.4427 -0.5255 -0.4267
  610MOL0     C84056   8.245  10.161  -0.537 -0.3272  0.0600  0.4320
  610MOL0     C84057   8.334  10.054  -0.612 -1.0241 -0.3006  0.6579
  610MOL0     C84058   8.264   9.969  -0.722 -0.0961 -0.3863 -0.7711
  610MOL0     N84059   8.139   9.904  -0.682  0.6867 -0.1067 -0.2462
  610MOL0     C84060   8.013   9.953  -0.660 -0.1213  0.6889 -0.6736
  610MOL0     C84061   7.938   9.849  -0.649 -0.3206  0.0936 -0.1572
  610MOL0     C84062   7.794   9.851  -0.613 -0.1004 -0.1845 -0.5981
  610MOL0     C84063   7.708   9.785  -0.729  0.4119  0.7485  0.0112
  610MOL0     C84064   7.559   9.811  -0.707 -0.2785 -1.3749  0.1569
  610MOL0     C84065   7.501   9.717  -0.598 -0.1651  1.0850  0.2813
  610MOL0     O84066   7.453   9.589  -0.657  0.5301 -0.6148 -0.6740
  610MOL0     C84067   7.369   9.504  -0.587  0.3929  0.2942  0.2257
  610MOL0     C84068   7.347   9.508  -0.452 -0.7313 -0.1852  0.1966
  610MOL0     C84069   7.264   9.411  -0.395  0.6644 -0.6062 -0.4357
  610MOL0     C84070   7.224   9.426  -0.250 -0.0397 -0.2789  0.5142
  610MOL0     C84071   7.205   9.297  -0.464  0.1185 -0.7111  0.5503
  610MOL0     C84072   7.149   9.174  -0.398 -0.4426  0.3321  0.6155
  610MOL0     O84073   7.068   9.104  -0.486 -0.5973 -0.0802 -0.2021
  610MOL0     C84074   6.997   9.001  -0.436 -0.1774 -0.0488 -0.4476
  610MOL0     C84075   6.988   8.893  -0.518  0.1919  1.1766 -0.1815
  610MOL0     C84076   6.931   8.766  -0.475 -0.2021 -0.6090  0.3072
  610MOL0     C84077   6.882   8.756  -0.347 -0.2523 -0.1478  0.5358
  610MOL0     O84078   6.842   8.638  -0.296 -0.0670  0.1626  0.1979
  610MOL0     C84079   6.898   8.517  -0.342 -0.8900  0.4277  0.4444
  610MOL0     C84080   6.843   8.398  -0.264  0.3109 -0.3234  1.1391
  610MOL0     C84081   6.916   8.260  -0.271  0.6743 -0.4557  0.7647
  610MOL0     C84082   7.041   8.272  -0.180 -0.8467  1.1526  0.7842
  610MOL0     C84083   7.139   8.152  -0.200  0.6300  0.8948 -0.5183
  610MOL0     C84084   7.081   8.018  -0.137  0.5298  0.2782  0.3817
  610MOL0     C84085   7.180   7.906  -0.110 -0.3966  0.4167 -0.3987
  610MOL0     C84086   7.293   7.883  -0.205 -0.6052  0.0501 -0.1468
  610MOL0    Cl84087   7.393   7.726  -0.161  0.1067 -0.1090  0.0577
  610MOL0     C84088   6.867   8.877  -0.270 -0.2278  0.7483  0.2086
  610MOL0     C84089   6.935   8.996  -0.315  0.4821 -0.1907 -0.5557
  610MOL0     O84090   7.176   9.140  -0.279  0.0469  0.0944 -0.0216
  610MOL0     C84091   7.207   9.317  -0.604  0.1229  0.8144 -0.5072
  610MOL0     C84092   7.297   9.407  -0.661 -0.0108 -0.1055  0.7289
  610MOL0     N84093   8.018   9.735  -0.650 -0.2762 -0.0599 -0.2386
  610MOL0     N84094   8.132   9.768  -0.678  0.1704  0.3250 -0.6759
  610MOL0     C84095   8.768  10.402   0.067 -0.7482  0.1854 -0.0748
  610MOL0     C84096   8.818  10.518   0.130  0.6206  0.1220  0.1398
  610MOL0     C84097   8.859  10.953   0.235 -0.6171  0.2132  0.2146
  610MOL0     C84098   8.769  11.039   0.301  0.1595  0.0384 -0.1204
  610MOL0     C84099   8.800  11.168   0.328 -0.1420 -0.3022  0.1161
  610MOL0     C84100   8.926  11.223   0.305  0.0270  0.6316 -0.6179
  610MOL0     O84101   8.972  11.354   0.306  0.0255 -0.1241 -0.1152
  610MOL0     C84102   8.881  11.462   0.333  0.3199 -0.0938  0.1696
  610MOL0     C84103   8.821  11.517   0.200 -0.7016 -0.2654  0.2308
  610MOL0     C84104   8.744  11.640   0.235 -0.0439  0.1319 -0.3870
  610MOL0     C84105   8.606  11.613   0.314  0.5349  0.5728  0.0638
  610MOL0     C84106   8.515  11.559   0.209 -0.4243  0.2941  0.1532
  610MOL0     C84107   8.437  11.523   0.124 -0.1178 -0.4828  0.3755
  610MOL0     C84108   9.023  11.130   0.250  0.2587 -0.2340  0.0160
  610MOL0     C84109   8.998  11.000   0.209 -0.1078  0.2724  0.4014
  610MOL0     C84110   9.102  10.927   0.130  0.4870  0.3438 -0.3770
  610MOL0     H84111   8.531  10.638   0.259  0.2081 -0.8185 -0.5016
  610MOL0     H84112   8.447  10.448   0.152 -0.0651  0.2038  2.3849
  610MOL0     H84113   8.696  10.158  -0.039 -0.3289  1.1831  1.7336
  610MOL0     H84114   8.670  10.270  -0.169 -4.1105  1.3767 -0.8730
  610MOL0     H84115   8.609  10.029  -0.245 -1.8471 -1.1094 -2.1021
  610MOL0     H84116   8.515  10.012  -0.107  4.5398 -3.2311 -1.6320
  610MOL0     H84117   8.376  10.037  -0.291  1.5542 -0.7669  0.8014
  610MOL0     H84118   8.365  10.194  -0.205  0.3959  0.6057 -0.6265
  610MOL0     H84119   8.526  10.303  -0.370  1.8053 -1.7904 -0.9197
  610MOL0     H84120   8.535  10.147  -0.449  1.8615 -0.3746  1.9072
  610MOL0     H84121   8.390  10.311  -0.561  1.0427  2.5529  1.6999
  610MOL0     H84122   8.278  10.337  -0.414  1.1793 -0.5776  1.4573
  610MOL0     H84123   8.193  10.110  -0.455  0.5580 -0.4219  0.7044
  610MOL0     H84124   8.170  10.194  -0.609 -0.1941 -1.4818 -0.4550
  610MOL0     H84125   8.379   9.990  -0.536 -0.3633 -1.0673 -0.3423
  610MOL0     H84126   8.416  10.107  -0.663 -0.1074  0.3623  2.7051
  610MOL0     H84127   8.248  10.021  -0.817  0.7940  1.6844  0.1342
  610MOL0     H84128   8.336   9.892  -0.753  0.8680  1.8473 -4.8450
  610MOL0     H84129   7.990  10.059  -0.665  2.6509  1.3242 -2.2255
  610MOL0     H84130   7.772   9.951  -0.575  0.6981 -0.6071  1.0682
  610MOL0     H84131   7.782   9.783  -0.529  0.4987  2.0396  1.3848
  610MOL0     H84132   7.732   9.829  -0.827 -2.5105  0.6226 -0.8658
  610MOL0     H84133   7.730   9.678  -0.733  0.0428  0.6159  1.1588
  610MOL0     H84134   7.552   9.912  -0.665  2.2649 -2.3883  3.4158
  610MOL0     H84135   7.505   9.803  -0.802 -1.2502 -1.9952  0.7322
  610MOL0     H84136   7.570   9.693  -0.517 -0.6115 -0.6428  0.1878
  610MOL0     H84137   7.421   9.773  -0.550 -0.6634  0.9891 -0.4162
  610MOL0     H84138   7.408   9.574  -0.391 -0.4977 -2.2777  2.3512
  610MOL0     H84139   7.285   9.368  -0.180 -1.2136 -2.0884  0.1057
  610MOL0     H84140   7.119   9.397  -0.238 -0.3580 -0.1346 -1.6374
  610MOL0     H84141   7.232   9.532  -0.224 -0.5920 -0.2087  0.4246
  610MOL0     H84142   7.021   8.902  -0.621  0.7925 -3.4837 -0.6389
  610MOL0     H84143   6.932   8.680  -0.541 -0.8950 -0.1045 -0.3853
  610MOL0     H84144   6.874   8.494  -0.447 -1.3437 -0.3811  0.7198
  610MOL0     H84145   7.005   8.514  -0.323 -0.5694 -0.8654 -1.3268
  610MOL0     H84146   6.815   8.436  -0.165 -0.9039 -0.2440  0.7849
  610MOL0     H84147   6.748   8.377  -0.313  1.1163  1.1113 -1.1787
  610MOL0     H84148   6.940   8.238  -0.375  1.7199  0.9502  0.6813
  610MOL0     H84149   6.848   8.185  -0.228 -0.3769 -0.1639 -0.3567
  610MOL0     H84150   7.008   8.283  -0.076 -0.7833  0.3719  0.8919
  610MOL0     H84151   7.093   8.365  -0.202  1.4852 -0.7703 -2.8729
  610MOL0     H84152   7.168   8.143  -0.305  0.4715 -0.8260 -0.4442
  610MOL0     H84153   7.226   8.177  -0.139 -0.5280 -0.4987  1.8279
  610MOL0     H84154   7.014   7.995  -0.221  0.0623  1.1204  0.5092
  610MOL0     H84155   7.016   8.039  -0.052 -0.5869  0.1682 -0.4116
  610MOL0     H84156   7.127   7.812  -0.092  1.3043 -0.1246  2.3301
  610MOL0     H84157   7.227   7.924  -0.013 -0.9021  0.6554 -0.1944
  610MOL0     H84158   7.360   7.969  -0.198  1.4612 -1.5821  1.6675
  610MOL0     H84159   7.255   7.883  -0.307  0.7312  3.3410 -0.7681
  610MOL0     H84160   6.829   8.855  -0.170 -1.1032 -0.3101 -0.3362
  610MOL0     H84161   6.936   9.083  -0.250 -0.8959  2.3823 -3.7343
  610MOL0     H84162   7.158   9.244  -0.667  1.1786  0.9239 -1.5018
  610MOL0     H84163   7.307   9.398  -0.769 -1.1603 -0.8703  0.6669
  610MOL0     H84164   8.841  10.360  -0.001 -0.5636 -0.8479  0.7484
  610MOL0     H84165   8.922  10.548   0.118  0.4792  2.4928  3.3756
  610MOL0     H84166   8.666  11.010   0.317  0.9781 -2.5562  1.0112
  610MOL0     H84167   8.717  11.227   0.364  0.0618  0.2302 -0.2716
  610MOL0     H84168   8.802  11.427   0.400 -0.3114  0.3019 -0.3558
  610MOL0     H84169   8.935  11.541   0.385  1.6971  0.7017 -2.3145
  610MOL0     H84170   8.764  11.441   0.146 -0.2611  0.4319 -1.2671
  610MOL0     H84171   8.900  11.545   0.129 -0.2875 -0.2899  0.6794
  610MOL0     H84172   8.815  11.702   0.291 -0.0448  0.4046 -0.6831
  610MOL0     H84173   8.721  11.696   0.143  0.2154  1.1975  0.1848
  610MOL0     H84174   8.581  11.714   0.348 -0.7520 -0.2731  1.8061
  610MOL0     H84175   8.626  11.556   0.405  2.1610 -0.3359 -0.8008
  610MOL0     H84176   8.369  11.497   0.045  0.1338 -0.4249  0.1374
  610MOL0     H84177   9.110  11.178   0.205 -0.9008  1.8725 -0.1272
  610MOL0     H84178   9.133  10.978   0.038  1.0037  0.0362 -0.3797
  610MOL0     H84179   9.196  10.936   0.186  0.3306  2.3676 -0.3695
  610MOL0     H84180   9.078  10.822   0.110 -1.0663  0.1281  2.1183
  611MOL0     O84181   9.380   3.728   1.124  0.3865  0.3052 -0.1595
  611MOL0     C84182   9.305   3.817   1.094 -0.3757 -0.9367 -0.3629
  611MOL0     O84183   9.344   3.936   1.043 -0.3270 -0.2545  0.3053
  611MOL0     C84184   9.480   3.971   1.050 -0.0310 -0.2741 -0.2648
  611MOL0     C84185   9.588   3.917   0.975 -0.0909  0.0433 -1.0814
  611MOL0     C84186   9.717   3.963   0.978  0.4200 -0.2743 -0.5551
  611MOL0     C84187   9.737   4.078   1.058  0.1622 -0.3359 -0.0356
  611MOL0     O84188   9.861   4.132   1.067 -0.9350  0.2088 -0.0589
  611MOL0     C84189   9.902   4.199   1.188  0.1603 -0.5784 -0.2368
  611MOL0     C84190   9.959   4.338   1.149 -0.3853  0.4642  0.7319
  611MOL0     C84191  10.040   4.393   1.274  0.4082 -0.2816 -0.2845
  611MOL0     C84192   9.968   4.518   1.338  0.3573  0.6488 -0.1103
  611MOL0     C84193  10.034   4.568   1.464  0.6221  0.3594 -0.1457
  611MOL0     C84194  10.000   4.489   1.593  0.6814  0.9065  0.5220
  611MOL0     C84195  10.084   4.489   1.724  0.0733 -0.5702  0.5412
  611MOL0     C84196  10.090   4.631   1.782  0.1129  0.0641 -0.1214
  611MOL0     N84197  10.219   4.640   1.860  0.0575  0.1650 -0.1293
  611MOL0     C84198  10.334   4.710   1.804  0.6341  0.6403  0.2476
  611MOL0     C84199  10.413   4.735   1.910  0.2810 -0.5845  0.5829
  611MOL0     C84200  10.551   4.782   1.919 -0.2104  1.0201  0.0053
  611MOL0     C84201  10.573   4.890   2.021  0.0664 -0.2203 -0.5566
  611MOL0     C84202  10.675   4.846   2.134  0.2470 -0.2407 -0.1013
  611MOL0     C84203  10.609   4.749   2.232  0.9299  0.0372  0.0125
  611MOL0     O84204  10.704   4.696   2.332 -0.0609 -0.6496  0.0882
  611MOL0     C84205  10.808   4.631   2.272  0.0624  0.1381  0.4123
  611MOL0     C84206  10.935   4.684   2.286 -0.2143  0.4320 -0.1407
  611MOL0     C84207  11.047   4.608   2.248 -0.4134 -0.8111 -0.1443
  611MOL0     C84208  11.184   4.668   2.284 -0.0679 -0.3392 -0.7568
  611MOL0     C84209  11.032   4.489   2.167  0.1953  0.4987  0.5371
  611MOL0     C84210  11.145   4.401   2.134  0.0520 -0.9252  0.1392
  611MOL0     O84211  11.131   4.346   2.011  0.7883  0.2443  0.4309
  611MOL0     C84212  11.250   4.295   1.959  0.0126  0.5214 -0.0813
  611MOL0     C84213  11.255   4.156   1.917  0.2148 -0.4300  0.4633
  611MOL0     C84214  11.368   4.088   1.878 -0.6854  0.5779 -0.0006
  611MOL0     C84215  11.486   4.166   1.842  0.2630  0.4708 -0.2831
  611MOL0     O84216  11.593   4.111   1.781 -0.6239  0.2501 -0.2019
  611MOL0     C84217  11.563   4.038   1.658  0.1649  0.4722  1.1786
  611MOL0     C84218  11.583   4.129   1.547  0.4575  0.3749  0.1646
  611MOL0     C84219  11.535   4.067   1.424  0.1549  0.1814 -0.2711
  611MOL0     C84220  11.569   4.149   1.296 -0.2570  0.5036  0.0789
  611MOL0     C84221  11.484   4.117   1.175 -0.0551  0.1339  0.9670
  611MOL0     C84222  11.431   3.977   1.160 -0.2365  0.3806 -0.3283
  611MOL0     C84223  11.386   3.963   1.015  0.7183  0.0240 -0.0801
  611MOL0     C84224  11.327   3.828   0.992  0.2476  0.1439  0.4881
  611MOL0    Cl84225  11.160   3.849   1.043 -0.0542 -0.0275  0.0914
  611MOL0     C84226  11.478   4.301   1.873  0.1348 -0.1457  0.2176
  611MOL0     C84227  11.365   4.368   1.931 -0.0925  0.1241  0.5194
  611MOL0     O84228  11.231   4.380   2.218  0.5510  0.4373 -0.4866
  611MOL0     C84229  10.904   4.460   2.120  0.2930 -0.3222  0.0430
  611MOL0     C84230  10.793   4.517   2.182  1.0456 -0.4027 -0.5600
  611MOL0     N84231  10.350   4.694   2.028  0.2470  0.6642  0.7500
  611MOL0     N84232  10.233   4.652   1.994  0.7267  0.2978 -0.5948
  611MOL0     C84233   9.627   4.144   1.123 -0.3267  0.6299  0.5983
  611MOL0     C84234   9.507   4.090   1.113 -0.4369  0.7551  0.1631
  611MOL0     C84235   9.166   3.781   1.090  0.9577  0.2006 -0.2645
  611MOL0     C84236   9.130   3.648   1.129  0.4023 -0.3833  0.4088
  611MOL0     C84237   8.994   3.596   1.139 -0.3470 -0.5912 -0.6023
  611MOL0     C84238   8.895   3.687   1.095 -0.9967 -0.0322 -0.2232
  611MOL0     O84239   8.769   3.649   1.077  0.2002  0.1225 -0.3931
  611MOL0     C84240   8.698   3.643   1.199  0.7661  0.3611 -0.2637
  611MOL0     C84241   8.547   3.649   1.171  0.3029 -0.8704 -0.9023
  611MOL0     C84242   8.461   3.635   1.300  0.1083  0.6291  0.5380
  611MOL0     C84243   8.443   3.774   1.357  0.6134 -0.2826  0.0391
  611MOL0     C84244   8.325   3.846   1.297 -0.1305  0.5510 -0.2735
  611MOL0     C84245   8.235   3.910   1.246 -0.0985 -0.9492 -0.5753
  611MOL0     C84246   8.928   3.815   1.050  0.0771  0.3557  0.5520
  611MOL0     C84247   9.059   3.861   1.045 -0.5455  0.4404 -0.2614
  611MOL0     C84248   9.080   3.998   0.981  0.6347  0.4350 -0.3680
  611MOL0     H84249   9.567   3.838   0.903  0.8113  0.2326 -1.5653
  611MOL0     H84250   9.798   3.918   0.922  0.3156  1.1954 -1.9427
  611MOL0     H84251   9.981   4.135   1.229 -1.6828 -4.7512 -2.5408
  611MOL0     H84252   9.824   4.207   1.264  0.4983 -4.9709  0.8491
  611MOL0     H84253  10.029   4.327   1.066 -3.3156  1.8648 -2.1527
  611MOL0     H84254   9.880   4.407   1.118 -2.8400 -1.9738  1.1854
  611MOL0     H84255  10.059   4.319   1.352 -0.1932 -0.4868 -0.3312
  611MOL0     H84256  10.137   4.423   1.234  0.0754  1.7227  0.2929
  611MOL0     H84257   9.965   4.594   1.260 -1.0036 -1.3901 -2.1560
  611MOL0     H84258   9.864   4.490   1.355 -0.0089  1.8668 -0.2308
  611MOL0     H84259  10.002   4.672   1.475 -1.1085 -0.1447 -0.1294
  611MOL0     H84260  10.143   4.573   1.457  0.5647  0.8381 -0.7696
  611MOL0     H84261   9.902   4.518   1.634  1.0403  0.4517  1.7432
  611MOL0     H84262   9.984   4.385   1.563  3.1659  0.2646  1.2446
  611MOL0     H84263  10.184   4.447   1.710  0.9607  1.9035 -1.1339
  611MOL0     H84264  10.029   4.441   1.806 -0.9725  0.6730  0.6027
  611MOL0     H84265  10.088   4.709   1.705 -2.5046  1.9765  1.6739
  611MOL0     H84266  10.005   4.656   1.847 -0.4739 -1.8335 -0.0900
  611MOL0     H84267  10.352   4.717   1.697 -1.4596 -0.8671 -0.2489
  611MOL0     H84268  10.599   4.809   1.824  0.8609 -0.1254  0.2012
  611MOL0     H84269  10.604   4.689   1.938 -1.5124  0.2972  0.2433
  611MOL0     H84270  10.618   4.977   1.973  3.6753 -0.3223  2.1859
  611MOL0     H84271  10.477   4.922   2.061  1.5575 -0.1740  3.4856
  611MOL0     H84272  10.764   4.799   2.090  1.4529  0.0393  1.9203
  611MOL0     H84273  10.704   4.932   2.195 -2.3526 -0.3502  1.4181
  611MOL0     H84274  10.537   4.801   2.296  0.4160 -0.6911  0.0249
  611MOL0     H84275  10.559   4.669   2.178 -4.4026  3.3144 -0.6587
  611MOL0     H84276  10.934   4.778   2.341  0.4200  0.7687 -0.6966
  611MOL0     H84277  11.257   4.661   2.203 -1.0434 -1.7656 -1.5789
  611MOL0     H84278  11.213   4.615   2.375  0.2078  3.1327  1.3337
  611MOL0     H84279  11.181   4.770   2.324  0.7790 -1.9841  4.1137
  611MOL0     H84280  11.162   4.102   1.925  1.7372 -2.9591  5.2940
  611MOL0     H84281  11.361   3.982   1.859 -1.0391  0.2366  1.8247
  611MOL0     H84282  11.643   3.966   1.638  0.5326  0.7680  1.5827
  611MOL0     H84283  11.467   3.987   1.640  1.6881 -2.0764 -0.3766
  611MOL0     H84284  11.521   4.218   1.559 -0.8050  0.4028 -4.5341
  611MOL0     H84285  11.688   4.157   1.531  1.4092 -1.3988  2.6156
  611MOL0     H84286  11.426   4.056   1.434  0.2131  1.3243  2.2604
  611MOL0     H84287  11.576   3.966   1.418 -0.2889 -0.0350  0.2765
  611MOL0     H84288  11.674   4.133   1.273 -0.5855 -1.0722 -0.3935
  611MOL0     H84289  11.562   4.256   1.320  0.7817  1.0584 -1.8595
  611MOL0     H84290  11.397   4.182   1.163  0.5659  0.5766 -2.0119
  611MOL0     H84291  11.546   4.134   1.086  0.5710 -1.5912  1.0377
  611MOL0     H84292  11.352   3.975   1.236 -1.5322  0.7030 -1.6430
  611MOL0     H84293  11.510   3.903   1.174 -1.5095 -1.2648 -1.5190
  611MOL0     H84294  11.476   3.965   0.952  0.4447  0.0786 -0.4681
  611MOL0     H84295  11.322   4.043   0.978  1.2929 -0.3527 -1.9595
  611MOL0     H84296  11.393   3.752   1.034  0.0853 -2.7365 -3.8460
  611MOL0     H84297  11.325   3.800   0.886 -2.4288 -2.0063  1.0000
  611MOL0     H84298  11.569   4.360   1.864 -2.4149  4.0999 -0.5358
  611MOL0     H84299  11.363   4.477   1.935  0.0871  0.0764  2.7171
  611MOL0     H84300  10.895   4.369   2.062 -1.0655 -0.1230 -0.1000
  611MOL0     H84301  10.690   4.487   2.168  0.1887  0.9749  2.1027
  611MOL0     H84302   9.641   4.241   1.171  0.4221  0.5043  0.6426
  611MOL0     H84303   9.423   4.154   1.135  0.3705  2.3764 -1.2123
  611MOL0     H84304   9.205   3.574   1.156  0.2717 -0.2745  1.0975
  611MOL0     H84305   8.968   3.497   1.173 -0.7572  0.3396  2.0840
  611MOL0     H84306   8.721   3.556   1.261 -2.8908  0.4443  1.4549
  611MOL0     H84307   8.726   3.729   1.262  1.5064 -0.2201  0.2242
  611MOL0     H84308   8.523   3.574   1.095 -1.0795 -0.2671 -1.1011
  611MOL0     H84309   8.529   3.746   1.122 -0.9530 -0.7470 -0.2350
  611MOL0     H84310   8.365   3.589   1.277 -0.2782  1.3645  0.6540
  611MOL0     H84311   8.519   3.573   1.369 -1.0106 -0.3137  0.6577
  611MOL0     H84312   8.535   3.830   1.338 -0.2350  1.1142 -0.1436
  611MOL0     H84313   8.449   3.768   1.466  2.7805  1.1845  0.0486
  611MOL0     H84314   8.163   3.966   1.190  0.0068 -1.3458 -1.1065
  611MOL0     H84315   8.849   3.881   1.017 -0.2066  0.3444  1.1866
  611MOL0     H84316   8.996   4.053   0.939  0.9377  1.1810 -0.0055
  611MOL0     H84317   9.130   4.062   1.054  0.1024  2.1409 -1.4509
  611MOL0     H84318   9.156   3.992   0.902  1.1628  1.8159  0.0174
  612MOL0     O84319   5.012   4.339   5.725  0.1259  1.0084 -0.0233
  612MOL0     C84320   5.080   4.305   5.831  0.4811 -1.2699  0.8757
  612MOL0     O84321   5.027   4.223   5.931  0.6902  0.7264 -0.0016
  612MOL0     C84322   4.895   4.191   5.951  0.0328 -0.1885  0.1153
  612MOL0     C84323   4.785   4.262   5.896  0.1705  0.2066 -0.1530
  612MOL0     C84324   4.653   4.228   5.933 -0.2716 -0.6053  0.5570
  612MOL0     C84325   4.627   4.123   6.030  0.5395 -0.0845  0.2015
  612MOL0     O84326   4.501   4.085   6.076 -0.3533 -0.0484 -0.1290
  612MOL0     C84327   4.389   4.179   6.057 -0.7829  0.4265  0.2716
  612MOL0     C84328   4.304   4.111   5.959 -0.3029 -0.1714 -0.4015
  612MOL0     C84329   4.157   4.169   5.935  0.0442  0.0106 -0.5993
  612MOL0     C84330   4.077   4.074   5.853 -0.0729 -0.4274 -0.3606
  612MOL0     C84331   3.928   4.098   5.878  0.7213  0.9273  1.1386
  612MOL0     C84332   3.843   3.973   5.890  0.2782  0.5483 -0.0011
  612MOL0     C84333   3.855   3.879   5.766  0.7239 -0.7006  0.1038
  612MOL0     C84334   3.803   3.735   5.785 -0.1185 -0.3501 -0.4416
  612MOL0     N84335   3.864   3.661   5.669  0.7335 -0.2530  0.5325
  612MOL0     C84336   3.993   3.607   5.670 -0.0152  0.9638 -1.3835
  612MOL0     C84337   3.992   3.521   5.565  0.0108  0.9963  0.6677
  612MOL0     C84338   4.105   3.425   5.528  0.1814  0.3546  0.0340
  612MOL0     C84339   4.115   3.308   5.622  0.3092  0.7062 -1.1996
  612MOL0     C84340   4.263   3.243   5.619  0.1618 -0.1261  0.3441
  612MOL0     C84341   4.257   3.105   5.688  0.6620 -0.4412 -0.3701
  612MOL0     O84342   4.229   3.121   5.824 -0.6478 -0.7341 -0.6279
  612MOL0     C84343   4.325   3.174   5.913  0.6205  0.7460  0.5435
  612MOL0     C84344   4.276   3.199   6.039  0.1823 -0.3162 -0.5939
  612MOL0     C84345   4.349   3.263   6.141  0.1258  0.4834  0.2559
  612MOL0     C84346   4.282   3.292   6.276  0.2425  0.1545  0.2511
  612MOL0     C84347   4.485   3.306   6.107 -0.3037 -0.3080 -1.0197
  612MOL0     C84348   4.581   3.377   6.194 -0.1168 -0.0095  0.0431
  612MOL0     O84349   4.715   3.386   6.145  0.8169 -0.6409  0.1466
  612MOL0     C84350   4.820   3.438   6.228  0.8219 -0.2951 -0.2454
  612MOL0     C84351   4.915   3.509   6.174 -0.5908 -0.3520  0.5661
  612MOL0     C84352   5.020   3.547   6.255 -0.2144 -0.2190  0.4937
  612MOL0     C84353   5.032   3.507   6.387  0.1663 -0.0211 -0.7624
  612MOL0     O84354   5.141   3.546   6.468  0.1935  0.6201  0.0964
  612MOL0     C84355   5.237   3.645   6.418  0.1963  0.8063  0.6362
  612MOL0     C84356   5.349   3.666   6.525  0.3101 -0.8339 -0.2859
  612MOL0     C84357   5.444   3.770   6.483 -0.9526 -1.2191 -0.3294
  612MOL0     C84358   5.558   3.793   6.589 -0.0533 -0.5942 -0.7931
  612MOL0     C84359   5.654   3.896   6.543  0.2425  0.1587  0.2588
  612MOL0     C84360   5.738   3.849   6.420 -0.8922 -0.0129  0.4384
  612MOL0     C84361   5.814   3.713   6.456 -0.3275  0.4371  1.5668
  612MOL0     C84362   5.935   3.678   6.359  0.7275 -0.1771  0.2474
  612MOL0    Cl84363   5.863   3.634   6.208 -0.5028  0.2792 -0.4426
  612MOL0     C84364   4.939   3.435   6.443  0.3067  0.9723 -0.1109
  612MOL0     C84365   4.825   3.403   6.363  0.1145  0.0738 -0.0139
  612MOL0     O84366   4.543   3.414   6.306  0.3768 -0.6920  0.0251
  612MOL0     C84367   4.525   3.278   5.977  0.6237 -0.0127 -0.3052
  612MOL0     C84368   4.448   3.224   5.880  0.8197  0.7654 -0.2324
  612MOL0     N84369   3.875   3.540   5.489  0.2755  0.1527  0.0468
  612MOL0     N84370   3.792   3.620   5.554  1.0128 -0.0593  0.0727
  612MOL0     C84371   4.736   4.054   6.072  0.3888 -0.4771  0.3822
  612MOL0     C84372   4.870   4.080   6.037 -0.2888  0.0301  0.6631
  612MOL0     C84373   5.216   4.348   5.859  0.3713  0.6753  0.4814
  612MOL0     C84374   5.267   4.347   5.993 -0.1786 -0.4462 -0.0264
  612MOL0     C84375   5.408   4.390   6.005  0.4705 -0.4443  0.3345
  612MOL0     C84376   5.489   4.427   5.890  0.1942 -0.2258  0.8688
  612MOL0     O84377   5.618   4.467   5.896  0.5507 -0.2405 -0.4629
  612MOL0     C84378   5.706   4.456   6.012 -0.3771 -0.9790 -0.3206
  612MOL0     C84379   5.746   4.308   6.049  0.3369 -0.4898 -0.1023
  612MOL0     C84380   5.812   4.241   5.929 -0.1689 -0.8517 -0.5763
  612MOL0     C84381   5.857   4.104   5.976 -0.5822 -0.2709  0.1856
  612MOL0     C84382   5.743   4.023   6.017 -0.4319  0.5518  0.1840
  612MOL0     C84383   5.667   3.926   6.056 -0.1541 -0.2104 -0.2569
  612MOL0     C84384   5.432   4.419   5.768 -0.9631 -0.8151  0.1531
  612MOL0     C84385   5.303   4.381   5.752  0.7066 -0.1727 -0.3663
  612MOL0     C84386   5.254   4.378   5.610  0.2607  0.8378  0.5989
  612MOL0     H84387   4.807   4.345   5.830 -0.4357 -1.6075 -2.7851
  612MOL0     H84388   4.578   4.298   5.899 -2.7703 -2.0233  2.7247
  612MOL0     H84389   4.423   4.280   6.034  1.3242 -0.0288  1.1364
  612MOL0     H84390   4.336   4.190   6.153  0.0801  2.9612  0.5304
  612MOL0     H84391   4.365   4.115   5.868  1.6953 -0.1375  0.8628
  612MOL0     H84392   4.301   4.004   5.982 -0.2481 -0.3980 -1.3859
  612MOL0     H84393   4.108   4.186   6.031 -1.7141 -2.0647 -1.0580
  612MOL0     H84394   4.160   4.272   5.897  1.5076  1.9509  3.9950
  612MOL0     H84395   4.100   4.075   5.746 -0.2523 -2.0361 -0.4319
  612MOL0     H84396   4.097   3.971   5.883  0.1081 -0.5854 -1.0179
  612MOL0     H84397   3.892   4.156   5.792 -0.7313  2.6266  2.7810
  612MOL0     H84398   3.910   4.174   5.955  0.2540 -0.5156  2.5197
  612MOL0     H84399   3.879   3.911   5.973  0.7577 -1.5400 -1.6671
  612MOL0     H84400   3.743   4.015   5.902  1.6945  3.4483  3.4566
  612MOL0     H84401   3.961   3.874   5.737  1.0398  0.2664  1.0118
  612MOL0     H84402   3.803   3.927   5.682  1.8120 -0.7283 -0.6085
  612MOL0     H84403   3.851   3.687   5.870  2.2669  0.6284 -1.1378
  612MOL0     H84404   3.694   3.732   5.791 -0.1845 -0.9814 -1.7051
  612MOL0     H84405   4.068   3.629   5.745  2.0098  0.2232 -3.0740
  612MOL0     H84406   4.200   3.478   5.528 -0.0385  0.7763 -1.1850
  612MOL0     H84407   4.093   3.392   5.424  2.6202 -1.1564  0.1386
  612MOL0     H84408   4.088   3.339   5.723 -0.4624 -0.3616 -1.0526
  612MOL0     H84409   4.043   3.233   5.588  0.2983  1.0987 -2.0753
  612MOL0     H84410   4.295   3.219   5.517 -1.7532 -0.3430 -0.2456
  612MOL0     H84411   4.341   3.306   5.664  1.5982 -2.6151  1.5572
  612MOL0     H84412   4.178   3.054   5.631 -0.4338 -1.5216  1.9768
  612MOL0     H84413   4.353   3.054   5.676  1.2808  0.6885 -0.3475
  612MOL0     H84414   4.175   3.174   6.072  0.4292 -0.3421  0.1649
  612MOL0     H84415   4.308   3.218   6.352  1.6065  0.1603 -0.1961
  612MOL0     H84416   4.173   3.278   6.271  0.3486 -1.1310  1.0419
  612MOL0     H84417   4.300   3.394   6.312 -1.6775  0.4719  0.4596
  612MOL0     H84418   4.926   3.532   6.069  1.9093 -1.6360  0.4793
  612MOL0     H84419   5.101   3.597   6.203  0.1838  0.6267  1.8850
  612MOL0     H84420   5.283   3.605   6.328 -1.0551  0.7283  0.0053
  612MOL0     H84421   5.187   3.740   6.392 -1.7580  0.4860  2.8621
  612MOL0     H84422   5.316   3.691   6.627  0.5135  1.1472 -0.6610
  612MOL0     H84423   5.399   3.570   6.537  0.7520 -0.5875 -0.1239
  612MOL0     H84424   5.398   3.867   6.463  3.1954  1.4061  1.4903
  612MOL0     H84425   5.495   3.732   6.394  0.3609 -0.9225  0.2875
  612MOL0     H84426   5.611   3.700   6.610  0.3031 -0.3011 -0.3992
  612MOL0     H84427   5.506   3.839   6.673  2.0660  2.4699 -0.9859
  612MOL0     H84428   5.599   3.988   6.521 -1.4258 -0.2735  2.3092
  612MOL0     H84429   5.719   3.932   6.623 -0.1072 -0.5794  0.8888
  612MOL0     H84430   5.809   3.926   6.388  0.4580 -0.9286  1.1295
  612MOL0     H84431   5.678   3.829   6.331  1.4778 -2.1917 -0.8084
  612MOL0     H84432   5.742   3.630   6.452 -2.0997  1.9277 -2.0204
  612MOL0     H84433   5.849   3.720   6.559 -1.9859 -1.3595  2.3262
  612MOL0     H84434   5.995   3.600   6.405  0.4384 -0.0504  0.8546
  612MOL0     H84435   6.006   3.758   6.339 -1.0845  0.6777 -4.0021
  612MOL0     H84436   4.941   3.400   6.546 -1.6087 -3.1356 -1.2098
  612MOL0     H84437   4.744   3.345   6.407 -0.2786 -0.9645 -2.0200
  612MOL0     H84438   4.626   3.300   5.943 -0.1013 -0.3426 -2.9174
  612MOL0     H84439   4.487   3.207   5.780 -0.4584 -0.8614 -0.5030
  612MOL0     H84440   4.721   3.974   6.144 -1.4726 -1.7256 -1.2969
  612MOL0     H84441   4.948   4.018   6.080 -1.6865 -1.1889  1.5151
  612MOL0     H84442   5.217   4.321   6.086 -0.8886  0.9027 -0.0164
  612MOL0     H84443   5.453   4.394   6.104 -0.5222  0.6589  0.7649
  612MOL0     H84444   5.802   4.495   5.979 -0.0596 -1.7449 -0.3283
  612MOL0     H84445   5.674   4.521   6.094 -0.4806 -0.5372 -0.7086
  612MOL0     H84446   5.657   4.257   6.087 -0.5643 -0.3086 -1.8624
  612MOL0     H84447   5.823   4.319   6.126  0.1938 -1.6859  0.2298
  612MOL0     H84448   5.745   4.240   5.843 -1.1390 -0.3300  0.1563
  612MOL0     H84449   5.899   4.292   5.885  0.7479 -2.6593 -0.9407
  612MOL0     H84450   5.931   4.109   6.056  0.7408  3.6363 -1.0315
  612MOL0     H84451   5.905   4.062   5.888  1.6439  2.7569 -0.1998
  612MOL0     H84452   5.618   3.833   6.077 -1.7770  0.5875 -0.3988
  612MOL0     H84453   5.498   4.440   5.685  0.2137  2.2235  1.6927
  612MOL0     H84454   5.220   4.277   5.586  0.2068  1.2481 -1.1868
  612MOL0     H84455   5.169   4.446   5.596  0.3712  0.7490 -0.6970
  612MOL0     H84456   5.329   4.399   5.533 -0.6956 -1.1164 -0.9928
  613MOL0     O84457   0.752   9.745   5.946  0.8082 -0.0120 -0.3875
  613MOL0     C84458   0.677   9.694   5.862 -0.2941  0.1584 -0.9227
  613MOL0     O84459   0.700   9.692   5.724 -0.2672  0.2906 -0.3407
  613MOL0     C84460   0.826   9.717   5.693 -0.1955  0.2856 -0.2897
  613MOL0     C84461   0.917   9.616   5.681 -0.5209 -0.0919 -0.5357
  613MOL0     C84462   1.044   9.638   5.618 -0.6141 -0.4034  0.4289
  613MOL0     C84463   1.077   9.764   5.570  0.3927 -0.8324 -0.1803
  613MOL0     O84464   1.187   9.792   5.498 -0.2805 -0.6130  0.2738
  613MOL0     C84465   1.310   9.737   5.566  0.5045 -0.6271  1.0321
  613MOL0     C84466   1.417   9.832   5.521  0.7209 -1.0352 -0.1922
  613MOL0     C84467   1.559   9.762   5.523 -0.2140 -0.8062  0.6002
  613MOL0     C84468   1.672   9.858   5.499 -0.1215  0.6946 -0.2140
  613MOL0     C84469   1.804   9.824   5.571 -0.0595  0.5636  0.0769
  613MOL0     C84470   1.893   9.714   5.509  0.4944  0.0156 -0.8559
  613MOL0     C84471   2.039   9.730   5.550  0.0483  0.4066  0.0887
  613MOL0     C84472   2.122   9.620   5.494 -0.9486  0.5145  0.0309
  613MOL0     N84473   2.258   9.628   5.543 -0.4810  0.1538 -0.1626
  613MOL0     C84474   2.296   9.622   5.672 -0.2902 -0.8783 -0.2386
  613MOL0     C84475   2.430   9.667   5.670  0.7491 -0.1418 -0.4703
  613MOL0     C84476   2.516   9.690   5.788 -0.1058  0.0327 -0.5077
  613MOL0     C84477   2.544   9.553   5.847 -0.8064  0.4114 -0.6701
  613MOL0     C84478   2.666   9.487   5.781  0.4995  0.1597  1.1897
  613MOL0     C84479   2.693   9.365   5.862 -1.0013 -0.0009  0.0201
  613MOL0     O84480   2.606   9.256   5.861  0.4137  0.0302 -0.0663
  613MOL0     C84481   2.635   9.141   5.932 -0.2160 -0.4086  0.4835
  613MOL0     C84482   2.764   9.094   5.976  0.8477 -0.8880  0.4659
  613MOL0     C84483   2.791   8.956   6.001  0.3994 -0.7687  0.2801
  613MOL0     C84484   2.942   8.923   6.019 -0.1660  0.0864  0.0096
  613MOL0     C84485   2.681   8.862   5.993 -1.1163  0.6854 -0.3374
  613MOL0     C84486   2.699   8.716   6.004  0.8441 -0.1840  0.0207
  613MOL0     O84487   2.582   8.650   6.050  0.0986  0.2324 -0.2440
  613MOL0     C84488   2.599   8.510   6.050  0.5928  0.9554  0.4357
  613MOL0     C84489   2.555   8.439   5.929 -0.3264 -0.4702 -0.3402
  613MOL0     C84490   2.567   8.299   5.918  0.4643  1.1846 -0.7477
  613MOL0     C84491   2.621   8.225   6.019  0.1585  0.2149 -0.5182
  613MOL0     O84492   2.643   8.097   5.975 -0.3133 -0.9597 -0.7763
  613MOL0     C84493   2.745   8.013   6.039 -0.3620  0.5558 -0.1042
  613MOL0     C84494   2.717   7.859   6.008 -0.6819  0.1551  0.0524
  613MOL0     C84495   2.788   7.820   5.881  0.2661 -0.6907  1.3085
  613MOL0     C84496   2.780   7.671   5.859 -0.5729  0.5770 -0.3237
  613MOL0     C84497   2.821   7.637   5.715  0.2416 -0.2283  1.2052
  613MOL0     C84498   2.793   7.487   5.681 -0.5486 -0.0097  0.5327
  613MOL0     C84499   2.790   7.449   5.536  0.2060 -0.0179  0.3897
  613MOL0     C84500   2.767   7.298   5.510  0.0115  0.1605 -0.1567
  613MOL0    Cl84501   2.894   7.178   5.569  0.2476 -0.4177  0.2784
  613MOL0     C84502   2.663   8.284   6.138  0.3249 -0.8226 -0.2456
  613MOL0     C84503   2.656   8.425   6.145  0.1533 -0.1050 -0.8175
  613MOL0     O84504   2.806   8.661   5.985  0.0604 -0.0940 -0.6824
  613MOL0     C84505   2.557   8.908   5.965 -0.0411 -0.8415 -1.0693
  613MOL0     C84506   2.532   9.044   5.928 -0.1550 -0.6576  0.2558
  613MOL0     N84507   2.460   9.705   5.537 -0.6643  0.2901  0.3144
  613MOL0     N84508   2.351   9.686   5.463 -0.2110 -0.0453  0.2709
  613MOL0     C84509   0.978   9.863   5.582  0.4011 -0.7455  0.3437
  613MOL0     C84510   0.846   9.844   5.642 -0.3805  0.2400 -0.2107
  613MOL0     C84511   0.545   9.654   5.906 -0.3887  0.1006  0.8316
  613MOL0     C84512   0.458   9.745   5.956  0.4096 -0.2099  0.0371
  613MOL0     C84513   0.325   9.711   5.964 -0.5951  0.6286  0.2959
  613MOL0     C84514   0.277   9.583   5.928  0.1586  0.3345 -0.5305
  613MOL0     O84515   0.152   9.536   5.935 -0.0534 -0.2921 -0.7148
  613MOL0     C84516   0.037   9.622   5.963 -0.5541 -1.0338 -0.0616
  613MOL0     C84517  -0.007   9.697   5.843  0.5290  0.3381  0.5550
  613MOL0     C84518  -0.149   9.764   5.851  0.1727 -0.4083 -0.2207
  613MOL0     C84519  -0.153   9.882   5.957 -0.6257  0.2831  0.6369
  613MOL0     C84520  -0.060   9.986   5.907  0.0847 -0.1248 -1.1288
  613MOL0     C84521   0.016  10.078   5.889 -0.0809  0.1420 -0.2570
  613MOL0     C84522   0.368   9.487   5.891 -0.9304  0.5866  1.2591
  613MOL0     C84523   0.506   9.522   5.878 -0.2760  1.1848  0.2273
  613MOL0     C84524   0.601   9.411   5.854  0.2992  0.1724  1.6543
  613MOL0     H84525   0.887   9.516   5.712 -0.0818 -0.2117 -0.4875
  613MOL0     H84526   1.121   9.563   5.617 -2.0690 -2.0092 -1.5482
  613MOL0     H84527   1.333   9.637   5.527 -0.1879  0.7466 -3.4846
  613MOL0     H84528   1.312   9.753   5.674  2.3048 -1.7267  1.2102
  613MOL0     H84529   1.404   9.880   5.423  0.4223  3.0320  1.6513
  613MOL0     H84530   1.415   9.913   5.594  0.4730 -1.1963 -0.0206
  613MOL0     H84531   1.576   9.708   5.616  0.9156 -2.2068 -0.3688
  613MOL0     H84532   1.557   9.685   5.444 -1.0325 -0.5756  0.3788
  613MOL0     H84533   1.698   9.864   5.393  0.3400  1.0453 -0.0836
  613MOL0     H84534   1.627   9.952   5.534 -0.9866 -0.4367  1.8799
  613MOL0     H84535   1.793   9.805   5.678 -0.3357  0.8839  0.1083
  613MOL0     H84536   1.851   9.922   5.554 -2.2623  1.4554 -1.3989
  613MOL0     H84537   1.859   9.615   5.541  1.4743 -1.1785 -3.2288
  613MOL0     H84538   1.885   9.713   5.400 -0.3107 -2.8989 -0.8707
  613MOL0     H84539   2.040   9.732   5.659 -0.3726  0.5115  0.0954
  613MOL0     H84540   2.075   9.830   5.523  0.8662  0.4337  1.2060
  613MOL0     H84541   2.077   9.530   5.538  1.9915 -0.3948  1.4071
  613MOL0     H84542   2.115   9.628   5.385  0.0150 -1.1353 -0.1734
  613MOL0     H84543   2.242   9.583   5.758 -0.7687  0.2396 -0.0244
  613MOL0     H84544   2.465   9.756   5.858  0.7358 -0.2581  0.4093
  613MOL0     H84545   2.610   9.738   5.760  0.1891  1.2563  2.2495
  613MOL0     H84546   2.576   9.571   5.950 -0.3688  1.3788 -0.9739
  613MOL0     H84547   2.455   9.489   5.840 -1.0453  0.7837 -1.0473
  613MOL0     H84548   2.648   9.461   5.676  0.5112 -0.7395  1.3983
  613MOL0     H84549   2.747   9.560   5.778 -1.0116  1.8576  0.0969
  613MOL0     H84550   2.788   9.322   5.827 -1.1750  1.3937 -2.2985
  613MOL0     H84551   2.707   9.392   5.967  1.5202  1.8403 -0.7084
  613MOL0     H84552   2.845   9.166   5.973 -0.1672  0.2787 -1.7663
  613MOL0     H84553   2.954   8.853   6.102 -1.2324  0.9257  0.9121
  613MOL0     H84554   3.001   9.013   6.039  0.1050  0.7984 -3.4458
  613MOL0     H84555   2.975   8.887   5.921 -1.9340  1.3305 -1.1033
  613MOL0     H84556   2.511   8.499   5.850  0.3190 -0.4421 -0.6883
  613MOL0     H84557   2.538   8.240   5.832  1.9209 -2.7078  1.1863
  613MOL0     H84558   2.842   8.044   6.001 -0.7852  0.8098 -0.9872
  613MOL0     H84559   2.749   8.035   6.146  0.7845  2.3800 -0.4856
  613MOL0     H84560   2.761   7.801   6.091 -1.9098 -1.3935 -0.3291
  613MOL0     H84561   2.609   7.847   6.002 -0.9694  1.7880  1.4179
  613MOL0     H84562   2.892   7.843   5.901 -0.4621  0.4903  4.2783
  613MOL0     H84563   2.750   7.878   5.797 -0.0734 -1.5912  0.8263
  613MOL0     H84564   2.680   7.641   5.889 -0.9017  0.8157 -1.1598
  613MOL0     H84565   2.841   7.618   5.933 -2.0744 -3.3503 -1.6605
  613MOL0     H84566   2.761   7.701   5.650  3.5671  1.4151 -0.5123
  613MOL0     H84567   2.928   7.654   5.700 -0.1457  1.5507  0.0711
  613MOL0     H84568   2.704   7.452   5.732 -0.9780 -1.6797 -1.2459
  613MOL0     H84569   2.883   7.433   5.714 -1.5242 -2.3973 -0.4615
  613MOL0     H84570   2.877   7.487   5.481  2.0635 -2.2565  1.5949
  613MOL0     H84571   2.707   7.497   5.484  1.3308 -0.7137 -2.2199
  613MOL0     H84572   2.774   7.298   5.401  0.8587 -1.5976 -0.1302
  613MOL0     H84573   2.668   7.266   5.543 -0.9691  3.3196  0.3371
  613MOL0     H84574   2.703   8.236   6.227 -0.9892  1.0819  1.4648
  613MOL0     H84575   2.681   8.473   6.240 -0.7636  3.3352 -2.1608
  613MOL0     H84576   2.467   8.849   5.969 -2.2644  2.2323 -1.7323
  613MOL0     H84577   2.434   9.070   5.890 -0.8146 -0.3211  2.1033
  613MOL0     H84578   0.995   9.962   5.539 -2.1142 -1.1467 -1.8567
  613MOL0     H84579   0.777   9.927   5.656 -0.1015  0.2366  1.2332
  613MOL0     H84580   0.493   9.844   5.981 -0.8681  0.1541  0.4577
  613MOL0     H84581   0.258   9.793   5.989  0.5487  1.4977  0.6216
  613MOL0     H84582  -0.051   9.573   6.007 -1.7770 -0.6561 -1.9647
  613MOL0     H84583   0.065   9.694   6.041 -1.3829  0.7952 -1.3866
  613MOL0     H84584  -0.015   9.631   5.756 -1.9462 -0.3419  1.2227
  613MOL0     H84585   0.065   9.773   5.813  0.0392  0.7540  0.4261
  613MOL0     H84586  -0.174   9.791   5.749 -2.7113  2.4291  1.0591
  613MOL0     H84587  -0.226   9.689   5.869  0.3996 -0.7427 -0.6418
  613MOL0     H84588  -0.124   9.842   6.054  1.1994  0.9143  0.3858
  613MOL0     H84589  -0.259   9.908   5.964 -0.6093  0.0791  1.8984
  613MOL0     H84590   0.075  10.166   5.876 -1.0351  1.0976  1.5825
  613MOL0     H84591   0.347   9.383   5.865  2.0927 -0.4030  2.3258
  613MOL0     H84592   0.690   9.420   5.916 -0.6503  1.2489  2.9008
  613MOL0     H84593   0.546   9.317   5.869 -2.3446  0.8539 -2.1999
  613MOL0     H84594   0.631   9.409   5.749  2.0151  1.5507  2.0807
  614MOL0     O84595   3.875   4.105   3.551 -1.2431 -0.2828  0.4257
  614MOL0     C84596   3.888   4.179   3.453  0.5497  0.7743 -0.8358
  614MOL0     O84597   3.803   4.286   3.430 -0.5229 -0.5368  0.7610
  614MOL0     C84598   3.680   4.299   3.488 -0.2933 -0.0908 -0.7000
  614MOL0     C84599   3.568   4.222   3.453  0.3200 -0.1641  0.5112
  614MOL0     C84600   3.454   4.235   3.521  0.8829  0.3252 -0.9358
  614MOL0     C84601   3.445   4.308   3.641  0.4411  0.5221  0.5309
  614MOL0     O84602   3.327   4.300   3.716 -0.3610  0.4207  0.1014
  614MOL0     C84603   3.344   4.258   3.847  0.3929 -0.5503  0.3691
  614MOL0     C84604   3.214   4.217   3.904  1.1924 -0.4095 -0.1928
  614MOL0     C84605   3.227   4.218   4.061  0.8068 -0.0620 -0.5459
  614MOL0     C84606   3.086   4.223   4.128 -0.5846 -0.1366  0.4970
  614MOL0     C84607   3.103   4.216   4.279  0.1273 -0.0101  0.0382
  614MOL0     C84608   3.206   4.324   4.334  0.5864  0.3597  0.2962
  614MOL0     C84609   3.343   4.260   4.379  0.6328  0.4360  0.4394
  614MOL0     C84610   3.334   4.157   4.496  0.0152  1.2758 -0.6084
  614MOL0     N84611   3.381   4.213   4.625 -0.3948 -0.3437  0.1460
  614MOL0     C84612   3.507   4.257   4.645  0.4004  0.4557 -0.2214
  614MOL0     C84613   3.497   4.343   4.753  0.2602  0.4819 -0.3092
  614MOL0     C84614   3.617   4.429   4.808 -0.2776  0.2135  0.6963
  614MOL0     C84615   3.678   4.512   4.699  0.4899  0.5553 -0.2102
  614MOL0     C84616   3.589   4.627   4.656  0.3540  0.7086  1.6225
  614MOL0     C84617   3.671   4.738   4.602  0.8358 -0.7362 -1.1033
  614MOL0     O84618   3.742   4.704   4.486  0.1578  0.5182 -0.3275
  614MOL0     C84619   3.877   4.723   4.471  0.7333 -0.0983  0.6700
  614MOL0     C84620   3.943   4.686   4.356  0.2901  0.4605 -0.1943
  614MOL0     C84621   4.087   4.695   4.340  0.2612 -0.1089 -0.2057
  614MOL0     C84622   4.139   4.639   4.209  0.8161  0.3795  0.0327
  614MOL0     C84623   4.166   4.745   4.443  0.0701  0.3523  0.8895
  614MOL0     C84624   4.318   4.756   4.442 -0.0612  0.2587 -0.4667
  614MOL0     O84625   4.380   4.815   4.553 -0.2199 -0.0065 -0.1140
  614MOL0     C84626   4.511   4.804   4.579 -0.4190 -0.0848 -0.5737
  614MOL0     C84627   4.620   4.824   4.482  0.6061  1.1667 -0.2499
  614MOL0     C84628   4.748   4.778   4.509 -1.1803  0.1594  0.0631
  614MOL0     C84629   4.782   4.750   4.646  0.6964  0.3388  0.3511
  614MOL0     O84630   4.908   4.720   4.685  0.5712  0.8195 -1.1286
  614MOL0     C84631   5.008   4.781   4.610 -0.1493 -0.7759 -0.1340
  614MOL0     C84632   5.141   4.764   4.681 -0.1047  0.5245  0.1007
  614MOL0     C84633   5.141   4.844   4.814 -0.0887 -0.2049  0.0218
  614MOL0     C84634   5.284   4.849   4.876  0.5336 -0.0775 -0.2951
  614MOL0     C84635   5.306   4.733   4.971 -0.2355 -1.3987 -0.0703
  614MOL0     C84636   5.435   4.720   5.045 -0.0414 -0.5285 -0.4071
  614MOL0     C84637   5.466   4.860   5.121 -0.1012 -0.1080 -0.4783
  614MOL0     C84638   5.566   4.857   5.242  0.1268 -0.4682 -0.1567
  614MOL0    Cl84639   5.718   4.772   5.194 -0.2857 -0.3601  0.3480
  614MOL0     C84640   4.675   4.739   4.742 -0.3157 -1.3906  0.6789
  614MOL0     C84641   4.539   4.761   4.699 -0.1900 -0.3238 -1.4434
  614MOL0     O84642   4.372   4.736   4.331  0.6398 -0.6816 -0.0762
  614MOL0     C84643   4.097   4.790   4.561  0.0722  0.1188  1.0218
  614MOL0     C84644   3.959   4.774   4.575 -0.2492 -0.4425 -0.2219
  614MOL0     N84645   3.360   4.351   4.787 -0.1753  0.4230 -0.1396
  614MOL0     N84646   3.292   4.278   4.713 -0.1764 -0.1711  0.1585
  614MOL0     C84647   3.553   4.386   3.672  0.7601 -0.3012  0.6100
  614MOL0     C84648   3.671   4.385   3.598  0.6503 -0.3779 -0.4438
  614MOL0     C84649   3.992   4.151   3.356  0.0955 -0.9741  1.1868
  614MOL0     C84650   4.098   4.058   3.380 -1.3090 -0.4656 -1.2740
  614MOL0     C84651   4.197   4.035   3.288 -0.6476 -0.7186 -0.7401
  614MOL0     C84652   4.195   4.096   3.165 -0.3607  0.0374  0.0706
  614MOL0     O84653   4.292   4.077   3.062 -0.0358 -0.2420  0.0963
  614MOL0     C84654   4.420   4.042   3.101 -0.0970 -0.5975  0.4229
  614MOL0     C84655   4.515   4.101   2.992 -0.0226 -0.3762  0.4237
  614MOL0     C84656   4.652   4.038   3.004  0.2074  0.1886 -0.6590
  614MOL0     C84657   4.737   4.042   2.878 -0.1786  0.9782  0.0759
  614MOL0     C84658   4.740   4.177   2.826  0.1048 -0.4497  0.3524
  614MOL0     C84659   4.753   4.290   2.789  0.4028  0.0662 -0.0870
  614MOL0     C84660   4.104   4.193   3.141 -0.7798  0.7439  0.6931
  614MOL0     C84661   3.997   4.219   3.224  0.1099  0.6520  0.0240
  614MOL0     C84662   3.896   4.307   3.159 -0.1588  0.7007  0.5488
  614MOL0     H84663   3.569   4.150   3.372 -0.6021 -2.3729  2.3346
  614MOL0     H84664   3.376   4.160   3.512  1.3323 -0.1445 -0.9735
  614MOL0     H84665   3.379   4.342   3.908  2.0110 -0.6496 -0.3681
  614MOL0     H84666   3.422   4.182   3.855  2.2190  1.0794 -1.0634
  614MOL0     H84667   3.132   4.280   3.866  2.2504 -0.2361 -2.3312
  614MOL0     H84668   3.188   4.120   3.861 -0.1782  1.2949 -3.5600
  614MOL0     H84669   3.266   4.119   4.086  0.0367 -0.1658  0.2992
  614MOL0     H84670   3.294   4.297   4.096 -1.3815  2.0371 -0.8420
  614MOL0     H84671   3.034   4.315   4.100 -0.3162  0.0049  0.4645
  614MOL0     H84672   3.012   4.153   4.089 -1.3390  1.3144 -0.7779
  614MOL0     H84673   3.136   4.117   4.313 -0.7952 -0.2547  0.2465
  614MOL0     H84674   3.003   4.221   4.324 -0.4783 -1.0774 -1.1293
  614MOL0     H84675   3.213   4.410   4.266 -0.0777 -0.9484 -1.5151
  614MOL0     H84676   3.152   4.366   4.420  0.0087  1.1481 -0.4280
  614MOL0     H84677   3.411   4.340   4.408 -0.0216  2.8548 -3.8507
  614MOL0     H84678   3.387   4.209   4.292  0.2694 -2.4752  1.8424
  614MOL0     H84679   3.230   4.126   4.511  0.6192 -2.4989 -3.0126
  614MOL0     H84680   3.397   4.070   4.479  2.2140  2.7550 -0.3930
  614MOL0     H84681   3.600   4.251   4.590  0.1099  2.4465 -1.0258
  614MOL0     H84682   3.697   4.370   4.853  1.3920  1.9804  0.1825
  614MOL0     H84683   3.583   4.489   4.894  0.4435  1.0593  0.4097
  614MOL0     H84684   3.765   4.556   4.749  1.5796 -0.5684 -1.0252
  614MOL0     H84685   3.715   4.449   4.617 -1.6835 -0.2922 -0.5875
  614MOL0     H84686   3.503   4.597   4.596 -0.0755  1.1088  2.0337
  614MOL0     H84687   3.542   4.668   4.745 -1.8262 -1.6626  1.6797
  614MOL0     H84688   3.613   4.829   4.585  1.3039 -0.1659  0.1999
  614MOL0     H84689   3.734   4.770   4.686  1.7121 -1.1641 -1.5855
  614MOL0     H84690   3.874   4.650   4.281 -0.2839  1.9262 -0.4003
  614MOL0     H84691   4.054   4.590   4.162 -1.8933  1.2748  3.5800
  614MOL0     H84692   4.215   4.565   4.236 -2.6445 -2.7782  1.9872
  614MOL0     H84693   4.174   4.714   4.137 -0.3861  1.1569  0.2343
  614MOL0     H84694   4.588   4.845   4.380 -2.9164 -2.1997 -0.0984
  614MOL0     H84695   4.818   4.793   4.427  0.0269 -2.1342  0.5961
  614MOL0     H84696   5.017   4.746   4.507  1.2820  0.5260 -0.4850
  614MOL0     H84697   4.989   4.889   4.603  0.5526 -0.6503 -0.0818
  614MOL0     H84698   5.166   4.659   4.698 -1.1097  0.4375  1.1782
  614MOL0     H84699   5.214   4.808   4.612  1.6163 -0.9318  0.8973
  614MOL0     H84700   5.071   4.814   4.892 -3.1707  2.6096 -1.4079
  614MOL0     H84701   5.096   4.941   4.792 -0.0956 -0.5372 -1.5483
  614MOL0     H84702   5.288   4.939   4.938 -1.0121 -0.1255 -0.0781
  614MOL0     H84703   5.357   4.869   4.797 -2.3757 -0.5350 -3.3016
  614MOL0     H84704   5.230   4.741   5.050  0.6227 -2.6143  0.9309
  614MOL0     H84705   5.284   4.641   4.917  1.5575 -1.2714 -1.0742
  614MOL0     H84706   5.509   4.695   4.968 -0.3342 -2.5139 -0.0782
  614MOL0     H84707   5.428   4.648   5.128 -1.1175  0.3376  0.2866
  614MOL0     H84708   5.381   4.906   5.172  0.5852  0.3340  0.2780
  614MOL0     H84709   5.500   4.936   5.050  1.6817  0.5522  1.0236
  614MOL0     H84710   5.530   4.796   5.325  3.7414 -0.3025  1.7147
  614MOL0     H84711   5.573   4.962   5.273  2.9692 -0.7361  0.3759
  614MOL0     H84712   4.698   4.714   4.846  1.8818  0.4273  0.7116
  614MOL0     H84713   4.456   4.732   4.762  0.0553 -0.8640 -1.3624
  614MOL0     H84714   4.159   4.839   4.635  1.8676 -2.1288  1.1192
  614MOL0     H84715   3.912   4.802   4.669 -0.2090 -0.3986 -0.2147
  614MOL0     H84716   3.543   4.446   3.762  0.1411 -0.9768  1.0002
  614MOL0     H84717   3.756   4.447   3.629 -1.0161  2.7586 -1.6733
  614MOL0     H84718   4.092   4.017   3.481  1.1897  0.2109 -0.7908
  614MOL0     H84719   4.279   3.969   3.312 -0.2928 -1.3189 -3.2596
  614MOL0     H84720   4.443   4.075   3.203  0.2231 -1.0816  0.5079
  614MOL0     H84721   4.428   3.933   3.099  1.7692 -0.4749 -0.6438
  614MOL0     H84722   4.521   4.209   3.009 -2.2784  0.2667 -2.2105
  614MOL0     H84723   4.489   4.082   2.888 -0.5498 -0.0126  0.4812
  614MOL0     H84724   4.701   4.083   3.091  0.9967 -3.8949  1.2251
  614MOL0     H84725   4.647   3.932   3.027  0.5645  0.3212  0.0547
  614MOL0     H84726   4.718   3.965   2.802  1.4537 -2.2365  2.6717
  614MOL0     H84727   4.837   4.030   2.920 -0.4567  5.4671  2.6568
  614MOL0     H84728   4.780   4.387   2.753  1.8665 -0.3087 -0.0820
  614MOL0     H84729   4.136   4.245   3.051  1.4963 -2.2828 -0.4376
  614MOL0     H84730   3.894   4.409   3.199  1.9671  1.6084 -1.4179
  614MOL0     H84731   3.930   4.328   3.057  4.2351 -1.7288  1.2820
  614MOL0     H84732   3.804   4.249   3.162  1.1241 -2.1069 -4.1575
  615MOL0     O84733   4.536   4.521   3.634  0.0167  0.0500 -0.9470
  615MOL0     C84734   4.452   4.574   3.706 -0.3971  0.8777 -0.2917
  615MOL0     O84735   4.468   4.620   3.828 -0.3235 -0.4685  0.1650
  615MOL0     C84736   4.582   4.662   3.897 -0.4059 -0.4416  0.3829
  615MOL0     C84737   4.709   4.674   3.852 -0.2746  0.3449 -0.3365
  615MOL0     C84738   4.819   4.682   3.946 -0.1134 -0.6174 -0.1614
  615MOL0     C84739   4.808   4.661   4.085 -0.2203 -0.1092  0.4347
  615MOL0     O84740   4.912   4.663   4.171  0.2728 -0.1671 -0.7142
  615MOL0     C84741   5.035   4.612   4.130  0.5949  0.2560 -0.4840
  615MOL0     C84742   5.116   4.554   4.244  0.6587 -0.5952  0.8534
  615MOL0     C84743   5.043   4.429   4.297  0.4258 -0.1626  0.2362
  615MOL0     C84744   5.093   4.362   4.427 -0.4385  0.4619  0.2459
  615MOL0     C84745   5.228   4.299   4.421 -0.4895  0.2251  0.3029
  615MOL0     C84746   5.269   4.236   4.550 -0.5288 -0.7599  0.3005
  615MOL0     C84747   5.172   4.127   4.611 -0.6380 -0.8693 -0.6756
  615MOL0     C84748   5.161   3.996   4.546 -0.1093  0.7975 -0.3959
  615MOL0     N84749   5.286   3.926   4.500  0.3760  0.6350 -0.1084
  615MOL0     C84750   5.391   3.898   4.581 -0.0527 -0.0251 -1.1418
  615MOL0     C84751   5.471   3.822   4.506 -0.8151 -0.6418  1.0265
  615MOL0     C84752   5.609   3.770   4.548  0.2159  0.2260  0.7493
  615MOL0     C84753   5.709   3.879   4.530  0.4334 -0.6366  0.0085
  615MOL0     C84754   5.856   3.853   4.534  0.4264 -0.9548 -0.3149
  615MOL0     C84755   5.942   3.979   4.513 -0.3261  0.0480 -0.0157
  615MOL0     O84756   5.942   4.077   4.619 -0.3734 -0.6450  0.2154
  615MOL0     C84757   6.047   4.167   4.634  0.5945 -0.1907  0.4156
  615MOL0     C84758   6.149   4.178   4.531 -0.6394 -0.5703  0.6965
  615MOL0     C84759   6.261   4.271   4.530 -0.3189  0.4597 -0.3087
  615MOL0     C84760   6.346   4.257   4.416  0.7681  0.4460 -0.0063
  615MOL0     C84761   6.270   4.362   4.634  0.2025  0.3007  0.2818
  615MOL0     C84762   6.364   4.472   4.649 -0.8648  0.0025  0.1551
  615MOL0     O84763   6.365   4.548   4.762  0.9832 -0.5612  0.6504
  615MOL0     C84764   6.475   4.636   4.784 -0.6199  0.2297  0.1599
  615MOL0     C84765   6.468   4.767   4.746  0.2822  0.2024 -0.3454
  615MOL0     C84766   6.574   4.848   4.761 -0.2046  0.5702 -0.4848
  615MOL0     C84767   6.692   4.800   4.825 -0.3044 -0.7289 -0.7033
  615MOL0     O84768   6.779   4.895   4.866  0.5362  0.4996  0.1043
  615MOL0     C84769   6.788   5.022   4.797 -0.5252 -0.4799  0.1745
  615MOL0     C84770   6.932   5.069   4.814 -0.0504  0.0199 -0.0378
  615MOL0     C84771   6.957   5.112   4.955  0.8564 -0.6970 -0.8708
  615MOL0     C84772   7.101   5.151   4.973  0.0450  0.4187  0.3444
  615MOL0     C84773   7.138   5.204   5.102  0.2394  0.4893 -0.4167
  615MOL0     C84774   7.280   5.258   5.099 -0.3050 -0.4393  0.0764
  615MOL0     C84775   7.325   5.329   5.234 -0.7476  0.0996  1.0027
  615MOL0     C84776   7.431   5.429   5.211 -0.0034 -0.4289 -0.8168
  615MOL0    Cl84777   7.581   5.363   5.140 -0.0638  0.2326  0.3890
  615MOL0     C84778   6.700   4.669   4.874 -0.3301 -0.3723 -0.0126
  615MOL0     C84779   6.593   4.584   4.850 -0.2474  0.3808  0.0366
  615MOL0     O84780   6.440   4.485   4.556  0.5673 -0.2306 -0.2858
  615MOL0     C84781   6.179   4.353   4.739  0.0751  0.2367  0.3611
  615MOL0     C84782   6.071   4.257   4.749  0.2949  0.7902  0.0477
  615MOL0     N84783   5.419   3.814   4.377  1.0798 -0.6629 -0.7466
  615MOL0     N84784   5.300   3.873   4.377 -0.7120  0.7015  0.2430
  615MOL0     C84785   4.674   4.653   4.129  0.1701  0.2561 -0.3580
  615MOL0     C84786   4.568   4.661   4.043  0.6262 -0.0472  0.6584
  615MOL0     C84787   4.325   4.589   3.639 -0.5949 -0.1043  1.0290
  615MOL0     C84788   4.284   4.474   3.557  0.3579  0.6547  0.3516
  615MOL0     C84789   4.161   4.470   3.496  0.9834 -0.1279 -0.3095
  615MOL0     C84790   4.081   4.588   3.499 -0.1209  0.5702  0.5564
  615MOL0     O84791   3.965   4.597   3.423  0.1287 -0.6537  0.0080
  615MOL0     C84792   3.898   4.725   3.405 -0.4122  0.4041  0.2074
  615MOL0     C84793   3.826   4.720   3.271 -0.6306 -0.1539 -0.6923
  615MOL0     C84794   3.936   4.738   3.168 -0.1417  0.2374  0.6528
  615MOL0     C84795   3.894   4.722   3.029  0.0661 -0.1169  0.0578
  615MOL0     C84796   3.783   4.804   2.985 -0.5770 -0.1953 -0.1245
  615MOL0     C84797   3.689   4.880   2.973 -0.0226 -0.5228 -0.3884
  615MOL0     C84798   4.120   4.694   3.585  0.4412  0.3541  0.2157
  615MOL0     C84799   4.237   4.694   3.658 -1.0284 -0.2397  0.3033
  615MOL0     C84800   4.266   4.795   3.771  0.0638 -0.0358 -0.8040
  615MOL0     H84801   4.730   4.670   3.746  1.0943 -1.5070 -0.0425
  615MOL0     H84802   4.914   4.693   3.894  0.2363 -2.5345  0.0093
  615MOL0     H84803   5.087   4.701   4.094  0.9333  0.0741 -0.4496
  615MOL0     H84804   5.024   4.537   4.051 -2.3789  0.9493 -0.8396
  615MOL0     H84805   5.222   4.533   4.224  0.5351 -3.1031  2.4636
  615MOL0     H84806   5.111   4.625   4.327  0.4570  0.1758  0.1984
  615MOL0     H84807   4.940   4.462   4.315  1.3700  1.1166  4.7781
  615MOL0     H84808   5.037   4.356   4.217  0.4706  1.3992 -1.2452
  615MOL0     H84809   5.094   4.431   4.511 -0.9138 -2.5689  2.9692
  615MOL0     H84810   5.021   4.283   4.451 -3.4694  2.4127 -1.8029
  615MOL0     H84811   5.306   4.368   4.388  0.6730 -1.4819 -0.6452
  615MOL0     H84812   5.238   4.216   4.350  0.9846  1.7974 -1.4238
  615MOL0     H84813   5.355   4.176   4.519 -0.6104 -0.7254  0.0037
  615MOL0     H84814   5.292   4.312   4.625 -0.7372 -2.9521  2.7520
  615MOL0     H84815   5.071   4.159   4.638 -0.2780 -2.8760  3.9312
  615MOL0     H84816   5.217   4.103   4.708 -1.6376 -0.3992 -0.0858
  615MOL0     H84817   5.120   3.921   4.614  1.6563 -0.6372 -0.8475
  615MOL0     H84818   5.089   3.998   4.463  1.4535  2.2787 -1.8011
  615MOL0     H84819   5.424   3.934   4.678 -0.8230  0.5722 -1.0906
  615MOL0     H84820   5.646   3.690   4.483 -1.0708  1.9623 -2.3064
  615MOL0     H84821   5.611   3.724   4.648 -1.1619 -3.6047 -0.7897
  615MOL0     H84822   5.686   3.924   4.432 -2.6933 -2.4334 -0.2269
  615MOL0     H84823   5.697   3.954   4.608  1.2785  0.4173 -0.8414
  615MOL0     H84824   5.881   3.826   4.637  2.1257  1.8058  0.1249
  615MOL0     H84825   5.889   3.772   4.468  2.2944 -0.9792  0.5776
  615MOL0     H84826   6.045   3.942   4.506 -0.2814  0.0602  0.5215
  615MOL0     H84827   5.904   4.028   4.423  0.3094 -3.4794 -2.3992
  615MOL0     H84828   6.141   4.116   4.442 -1.4223  2.1858 -1.2971
  615MOL0     H84829   6.301   4.336   4.355  0.0402  1.7826  2.1266
  615MOL0     H84830   6.334   4.156   4.375  2.1966 -0.3181  1.3594
  615MOL0     H84831   6.452   4.280   4.425  1.0816  1.0953 -3.7592
  615MOL0     H84832   6.380   4.817   4.708 -0.5415  0.0920  1.3413
  615MOL0     H84833   6.560   4.954   4.744  1.4357  1.4795  3.0143
  615MOL0     H84834   6.766   5.015   4.690 -1.8322  2.8831  0.1072
  615MOL0     H84835   6.720   5.096   4.839  0.7083  0.9572 -0.2752
  615MOL0     H84836   7.003   4.992   4.781 -2.4117 -2.0423 -0.5478
  615MOL0     H84837   6.963   5.154   4.752 -1.5688  1.2742  0.8440
  615MOL0     H84838   6.932   5.028   5.020 -0.2600 -1.0194 -1.6876
  615MOL0     H84839   6.897   5.198   4.987  1.6546 -0.5591  0.2984
  615MOL0     H84840   7.122   5.222   4.892 -1.3991 -2.2234 -2.5366
  615MOL0     H84841   7.164   5.063   4.961  0.0430  0.5056 -0.3341
  615MOL0     H84842   7.069   5.283   5.133 -2.3683 -2.1554  1.1384
  615MOL0     H84843   7.124   5.131   5.183  1.1360 -0.4132 -1.0528
  615MOL0     H84844   7.287   5.330   5.018 -3.0600 -0.5946 -0.3791
  615MOL0     H84845   7.354   5.179   5.080  3.4692  3.0239 -1.1442
  615MOL0     H84846   7.354   5.260   5.313  0.1461 -3.0134 -1.8199
  615MOL0     H84847   7.237   5.379   5.275 -1.8661 -0.8229 -0.1883
  615MOL0     H84848   7.450   5.475   5.308 -2.3368 -2.9554  0.9942
  615MOL0     H84849   7.394   5.511   5.150 -1.2686 -1.6024 -1.6904
  615MOL0     H84850   6.791   4.623   4.913  0.4138  0.0356 -1.1938
  615MOL0     H84851   6.591   4.477   4.871  1.6329 -0.2747 -2.7021
  615MOL0     H84852   6.195   4.415   4.827 -4.0109  1.5027  0.4170
  615MOL0     H84853   5.999   4.248   4.829 -1.9434  0.1807 -1.9077
  615MOL0     H84854   4.656   4.637   4.234 -1.7323  0.4991 -0.6193
  615MOL0     H84855   4.465   4.656   4.077  0.5947  0.5144  0.6629
  615MOL0     H84856   4.350   4.388   3.551 -1.4671 -0.8742  0.7643
  615MOL0     H84857   4.126   4.383   3.441  2.2364 -0.9016  0.0776
  615MOL0     H84858   3.824   4.728   3.485 -0.3570 -0.5325  0.3098
  615MOL0     H84859   3.967   4.810   3.409  1.3524 -1.0131  1.7865
  615MOL0     H84860   3.763   4.809   3.284  2.4971  1.8065  2.5621
  615MOL0     H84861   3.775   4.624   3.260 -0.5657 -0.6600  2.4696
  615MOL0     H84862   3.980   4.838   3.179 -4.4725  2.2601  1.5481
  615MOL0     H84863   4.028   4.685   3.193  2.1640  3.6938  0.2642
  615MOL0     H84864   3.863   4.617   3.019 -0.6373  0.1286 -0.4043
  615MOL0     H84865   3.972   4.745   2.956 -1.4856  2.5100 -0.8826
  615MOL0     H84866   3.597   4.935   2.981 -0.5074 -1.5242  1.7431
  615MOL0     H84867   4.042   4.769   3.596 -2.2309 -2.1263 -0.7767
  615MOL0     H84868   4.213   4.887   3.744 -0.8377 -0.8333 -1.8445
  615MOL0     H84869   4.223   4.740   3.855 -2.1611 -2.8649 -3.5785
  615MOL0     H84870   4.369   4.830   3.787  0.6761  0.0610 -4.1844
  616MOL0     O84871   7.729   3.776   7.412  0.9308 -0.6054 -0.3936
  616MOL0     C84872   7.668   3.668   7.394  0.7061 -0.3187  0.4192
  616MOL0     O84873   7.717   3.561   7.327  0.3051 -0.2917  0.0442
  616MOL0     C84874   7.849   3.566   7.283 -0.4819  0.7099 -0.1215
  616MOL0     C84875   7.957   3.546   7.366 -0.7820 -0.2774  0.4743
  616MOL0     C84876   8.095   3.557   7.326  0.1187 -0.2007 -0.6725
  616MOL0     C84877   8.121   3.567   7.186  0.9794 -0.6477  0.2165
  616MOL0     O84878   8.241   3.550   7.134 -0.0550 -0.7388  0.0125
  616MOL0     C84879   8.361   3.587   7.211  0.0650  0.4721  0.0944
  616MOL0     C84880   8.474   3.611   7.110  0.2890  0.3412 -0.2330
  616MOL0     C84881   8.614   3.667   7.169  0.4482  0.0152 -0.8348
  616MOL0     C84882   8.727   3.619   7.086  0.0614  0.2859 -0.1653
  616MOL0     C84883   8.863   3.662   7.151  0.4861 -0.3209  0.4108
  616MOL0     C84884   8.984   3.612   7.068 -0.0891 -0.0107  0.2278
  616MOL0     C84885   9.116   3.658   7.124  0.2479 -0.6968 -0.6557
  616MOL0     C84886   9.129   3.808   7.140 -0.3218 -1.0049 -0.1627
  616MOL0     N84887   9.269   3.841   7.182 -1.1699  0.2719  0.9177
  616MOL0     C84888   9.351   3.943   7.140 -0.7137 -0.1306  0.0376
  616MOL0     C84889   9.447   3.948   7.236 -0.0695 -0.3042  0.1935
  616MOL0     C84890   9.571   4.045   7.237  1.1736  1.3478 -0.0361
  616MOL0     C84891   9.696   3.979   7.177  0.1394 -0.4283 -0.0300
  616MOL0     C84892   9.819   4.070   7.186  0.4244  0.0766 -0.4407
  616MOL0     C84893   9.955   4.007   7.157  0.2075  0.4116 -0.5598
  616MOL0     O84894   9.964   3.878   7.218  0.1709 -0.1059  0.6370
  616MOL0     C84895  10.077   3.805   7.176 -0.5530 -0.1817  0.3866
  616MOL0     C84896  10.098   3.696   7.253  0.5248  0.1565 -0.0711
  616MOL0     C84897  10.214   3.622   7.234 -1.0763  0.0548  0.8336
  616MOL0     C84898  10.212   3.488   7.304 -0.1613 -0.2973  0.0488
  616MOL0     C84899  10.308   3.652   7.135  0.6535  0.2978  0.9196
  616MOL0     C84900  10.431   3.572   7.108  0.0148 -0.4522  0.6398
  616MOL0     O84901  10.492   3.516   7.215 -0.4998 -0.1423 -0.2905
  616MOL0     C84902  10.592   3.420   7.186  0.1399 -0.0666  0.5915
  616MOL0     C84903  10.567   3.296   7.113 -0.3201 -0.7584 -0.8066
  616MOL0     C84904  10.668   3.207   7.097 -1.0124 -0.1692 -0.3649
  616MOL0     C84905  10.801   3.242   7.131  1.5165  0.0313  1.0292
  616MOL0     O84906  10.904   3.164   7.093 -0.6751  0.0173 -0.0278
  616MOL0     C84907  11.040   3.212   7.115  0.4327 -0.2904  0.2454
  616MOL0     C84908  11.135   3.121   7.030 -0.1992 -0.6593 -0.6184
  616MOL0     C84909  11.272   3.190   7.008  0.1150 -0.0786 -0.7944
  616MOL0     C84910  11.387   3.115   7.074 -0.0844  0.1945  0.2321
  616MOL0     C84911  11.516   3.182   7.025 -0.3752 -0.0469  0.1400
  616MOL0     C84912  11.634   3.093   7.053  0.6421 -0.8356  0.3842
  616MOL0     C84913  11.766   3.136   6.995  0.3848 -0.8783  0.5162
  616MOL0     C84914  11.878   3.049   7.048 -0.0186  0.2880 -0.5385
  616MOL0    Cl84915  11.927   3.090   7.219  0.1339 -0.4577  0.3564
  616MOL0     C84916  10.825   3.376   7.186  0.2304  1.6597 -0.6117
  616MOL0     C84917  10.723   3.464   7.215 -0.3100 -0.2464  0.6125
  616MOL0     O84918  10.489   3.593   7.000 -0.4090 -0.5553 -0.3540
  616MOL0     C84919  10.290   3.764   7.061  0.8751 -0.7356  0.5383
  616MOL0     C84920  10.174   3.846   7.083  0.4846 -0.1523 -0.0640
  616MOL0     N84921   9.423   3.850   7.332 -0.8651  0.6729  0.3024
  616MOL0     N84922   9.321   3.786   7.298 -0.0347 -0.0275 -0.0871
  616MOL0     C84923   8.007   3.585   7.102 -0.0347  0.1454 -0.9292
  616MOL0     C84924   7.871   3.577   7.146  0.1451  0.3374 -0.8527
  616MOL0     C84925   7.533   3.660   7.458 -1.0512  0.0329  0.1247
  616MOL0     C84926   7.517   3.582   7.568 -0.2572 -0.4895 -0.1706
  616MOL0     C84927   7.395   3.581   7.638  0.0451 -0.3109 -0.1466
  616MOL0     C84928   7.288   3.658   7.589 -0.1494  0.0416  0.2058
  616MOL0     O84929   7.166   3.658   7.655 -0.5651  0.8397  0.8419
  616MOL0     C84930   7.121   3.537   7.717 -0.5679  0.7672  0.0009
  616MOL0     C84931   7.088   3.420   7.621  0.5071  0.9805 -0.2886
  616MOL0     C84932   6.986   3.315   7.696 -0.8922 -0.3750  0.8877
  616MOL0     C84933   6.992   3.180   7.629 -0.7444  0.4926 -0.4711
  616MOL0     C84934   6.959   3.073   7.723  0.3610  0.9340  0.4556
  616MOL0     C84935   6.919   2.988   7.803 -0.1056 -0.5120 -0.2318
  616MOL0     C84936   7.303   3.730   7.473 -0.1231 -0.4850 -0.8324
  616MOL0     C84937   7.425   3.730   7.401  0.5666  0.1490  0.1980
  616MOL0     C84938   7.445   3.790   7.267  1.1458 -0.2642  0.2913
  616MOL0     H84939   7.946   3.534   7.473  1.0343  0.3119  0.7508
  616MOL0     H84940   8.175   3.535   7.396  0.3921 -0.5352 -1.0788
  616MOL0     H84941   8.384   3.514   7.289 -1.1000  0.3656  0.3611
  616MOL0     H84942   8.348   3.682   7.264 -0.3022  0.2572  0.3941
  616MOL0     H84943   8.497   3.514   7.064  1.0690 -0.2236  1.2805
  616MOL0     H84944   8.439   3.677   7.030  0.4183  0.7045  0.0061
  616MOL0     H84945   8.622   3.773   7.141 -0.4445  0.1276 -0.6863
  616MOL0     H84946   8.620   3.645   7.277  2.1753 -0.5855 -1.0285
  616MOL0     H84947   8.725   3.510   7.069  0.9127  0.2554 -0.1315
  616MOL0     H84948   8.718   3.664   6.987 -2.1314  4.1702  1.5792
  616MOL0     H84949   8.868   3.622   7.253 -0.9346  0.1817  0.6992
  616MOL0     H84950   8.862   3.770   7.170  0.2643 -0.1627 -0.4548
  616MOL0     H84951   8.985   3.503   7.080 -2.3332 -0.0771  0.2117
  616MOL0     H84952   8.973   3.642   6.964  0.9250  1.2680  0.4687
  616MOL0     H84953   9.197   3.610   7.068  1.6104  0.5962  0.1539
  616MOL0     H84954   9.120   3.611   7.223  1.5550 -0.1242 -0.4188
  616MOL0     H84955   9.094   3.862   7.052  1.8040  1.0368  0.1431
  616MOL0     H84956   9.072   3.847   7.225 -0.4721 -2.0480  0.2203
  616MOL0     H84957   9.342   4.011   7.056 -0.6732  0.4334  0.4910
  616MOL0     H84958   9.577   4.080   7.340 -0.7827 -3.1806  1.8528
  616MOL0     H84959   9.554   4.130   7.169  0.1589 -0.1337 -1.7286
  616MOL0     H84960   9.710   3.883   7.227  0.7052 -1.3740 -1.8818
  616MOL0     H84961   9.686   3.938   7.076 -1.6118  0.9370 -0.4576
  616MOL0     H84962   9.803   4.154   7.118  1.2511  1.5711  1.1341
  616MOL0     H84963   9.823   4.112   7.287  4.1180  0.7905 -0.7490
  616MOL0     H84964   9.972   4.002   7.049  2.9052 -0.8122 -0.1540
  616MOL0     H84965  10.032   4.074   7.197 -0.6801  0.3161  1.4421
  616MOL0     H84966  10.022   3.682   7.329  2.7345  1.5189  2.6049
  616MOL0     H84967  10.108   3.459   7.320 -0.5181  2.0498  2.8941
  616MOL0     H84968  10.251   3.498   7.406 -1.3524 -1.5831  0.6603
  616MOL0     H84969  10.268   3.405   7.258  0.4626 -0.9920  1.9418
  616MOL0     H84970  10.464   3.272   7.087 -1.3252  2.4333 -0.2062
  616MOL0     H84971  10.656   3.105   7.065  2.3542 -0.4459 -1.1605
  616MOL0     H84972  11.053   3.316   7.083  0.6003  1.0972  4.2595
  616MOL0     H84973  11.069   3.206   7.220 -0.1959  0.3231  0.4588
  616MOL0     H84974  11.138   3.018   7.068 -0.0906 -0.3232  0.3061
  616MOL0     H84975  11.091   3.112   6.931  0.3158  0.5059 -0.9635
  616MOL0     H84976  11.269   3.292   7.045  2.2307 -0.3188  0.1340
  616MOL0     H84977  11.284   3.193   6.899 -3.1082  1.2819 -1.2184
  616MOL0     H84978  11.379   3.009   7.050 -0.4371 -0.2894  2.3046
  616MOL0     H84979  11.369   3.117   7.182 -0.8690 -0.3692  0.1159
  616MOL0     H84980  11.505   3.222   6.924 -0.6443 -0.1531  0.1244
  616MOL0     H84981  11.532   3.270   7.088  1.5268  0.0162 -0.3706
  616MOL0     H84982  11.608   2.998   7.005  0.3802  0.7388 -2.8172
  616MOL0     H84983  11.642   3.077   7.161 -3.5060  3.5202  1.6484
  616MOL0     H84984  11.790   3.242   7.011  2.1284 -1.2042  0.2177
  616MOL0     H84985  11.756   3.126   6.886 -1.0110 -0.8078  0.6162
  616MOL0     H84986  11.973   3.053   6.993 -0.1493 -1.8086 -1.0046
  616MOL0     H84987  11.841   2.947   7.037  1.6165 -0.5426  1.1026
  616MOL0     H84988  10.925   3.396   7.220  0.6389 -1.9301  0.8223
  616MOL0     H84989  10.735   3.553   7.275 -1.5104 -1.6249  3.0418
  616MOL0     H84990  10.355   3.802   6.982  0.8954 -2.5510 -0.3637
  616MOL0     H84991  10.177   3.948   7.047 -0.5300 -0.2958 -0.6097
  616MOL0     H84992   8.019   3.613   6.998 -0.6562  1.9827 -0.5473
  616MOL0     H84993   7.791   3.589   7.074  0.6292  0.6503 -1.3449
  616MOL0     H84994   7.600   3.533   7.619 -0.8123 -0.1335  1.1164
  616MOL0     H84995   7.378   3.521   7.727 -0.3312 -0.5104 -0.3508
  616MOL0     H84996   7.193   3.499   7.790  1.0947 -1.5434 -2.6409
  616MOL0     H84997   7.038   3.578   7.775  0.8734  2.5970  0.8648
  616MOL0     H84998   7.184   3.383   7.583  1.2048  3.1584 -0.8168
  616MOL0     H84999   7.028   3.467   7.543  1.2933  0.9848 -0.8994
  616MOL0     H85000   7.006   3.306   7.803  0.5585  3.2027  1.0803
  616MOL0     H85001   6.888   3.364   7.685 -0.7366 -0.3481 -0.5899
  616MOL0     H85002   7.094   3.166   7.591 -1.0121  3.1842 -2.4883
  616MOL0     H85003   6.923   3.176   7.545 -1.1211 -1.7602 -0.1165
  616MOL0     H85004   6.882   2.911   7.868 -1.0753 -0.8123 -1.1027
  616MOL0     H85005   7.221   3.786   7.429 -0.7093 -1.8047 -1.4596
  616MOL0     H85006   7.351   3.829   7.227  1.5119  1.5389  1.1058
  616MOL0     H85007   7.514   3.874   7.275 -1.6377  2.2363 -0.3448
  616MOL0     H85008   7.500   3.721   7.202  1.2852 -0.3471  0.4953
  617MOL0     O85009   2.728  10.141   5.533  0.5298 -0.0609 -0.4927
  617MOL0     C85010   2.645  10.226   5.518 -0.0026 -0.6340  0.0918
  617MOL0     O85011   2.675  10.340   5.445  0.3507  0.1418 -0.1988
  617MOL0     C85012   2.805  10.354   5.393 -0.2134  0.2355 -0.6820
  617MOL0     C85013   2.840  10.295   5.275  1.1612 -0.8832 -0.4123
  617MOL0     C85014   2.962  10.323   5.218 -1.0554 -0.4986  0.1463
  617MOL0     C85015   3.042  10.412   5.278 -0.5071  0.4557  0.4365
  617MOL0     O85016   3.158  10.451   5.206  0.2336  0.0740 -0.2914
  617MOL0     C85017   3.211  10.579   5.225  0.2527 -0.3613  0.2341
  617MOL0     C85018   3.300  10.620   5.104 -0.3228  0.0498  0.6437
  617MOL0     C85019   3.236  10.697   4.985  0.9219  0.6135 -0.1874
  617MOL0     C85020   3.332  10.757   4.894  0.2248 -0.2795 -0.5022
  617MOL0     C85021   3.389  10.666   4.795  0.3400  0.3655  0.6594
  617MOL0     C85022   3.513  10.716   4.728  0.4695 -0.0181 -0.9384
  617MOL0     C85023   3.567  10.647   4.602  0.4502 -0.5294 -0.2339
  617MOL0     C85024   3.606  10.506   4.638  0.4597 -0.0040  0.5437
  617MOL0     N85025   3.700  10.490   4.752 -0.3976  0.2561 -0.1642
  617MOL0     C85026   3.669  10.489   4.891  0.4363  0.0344  0.8027
  617MOL0     C85027   3.794  10.487   4.945 -1.2699 -0.2614 -0.6817
  617MOL0     C85028   3.838  10.512   5.089 -0.0313 -0.4482  0.0027
  617MOL0     C85029   3.808  10.385   5.176 -0.3123  0.4468 -0.3890
  617MOL0     C85030   3.664  10.388   5.230  0.3061  0.4845 -0.1192
  617MOL0     C85031   3.589  10.257   5.240 -0.0165  0.4778  0.1034
  617MOL0     O85032   3.460  10.284   5.303 -0.4791  0.5631 -0.2943
  617MOL0     C85033   3.448  10.281   5.441  0.2757 -0.2612 -0.6278
  617MOL0     C85034   3.324  10.255   5.487  1.3623  0.1729 -0.5641
  617MOL0     C85035   3.275  10.257   5.619  0.2722  0.0746  0.2568
  617MOL0     C85036   3.128  10.234   5.633 -0.6930  0.3899  0.0008
  617MOL0     C85037   3.368  10.291   5.720  0.2777  0.0631 -0.6728
  617MOL0     C85038   3.333  10.296   5.866 -0.5706  0.2436 -0.5149
  617MOL0     O85039   3.432  10.331   5.950  0.4771  0.2237 -0.6346
  617MOL0     C85040   3.404  10.354   6.084 -0.2183  0.8224  0.0130
  617MOL0     C85041   3.318  10.456   6.134 -0.6091  0.2017  0.1980
  617MOL0     C85042   3.303  10.487   6.271 -0.4119 -0.6781 -0.1270
  617MOL0     C85043   3.387  10.420   6.358 -0.1394  0.2562  0.0054
  617MOL0     O85044   3.387  10.428   6.496  0.1529  0.3437  1.3653
  617MOL0     C85045   3.267  10.488   6.555 -0.3250  0.1755  0.0316
  617MOL0     C85046   3.267  10.483   6.711  0.1273 -0.4021  0.3033
  617MOL0     C85047   3.142  10.555   6.778  0.4274  0.6614 -0.8087
  617MOL0     C85048   3.126  10.693   6.725 -0.4583  0.7970 -0.0331
  617MOL0     C85049   3.002  10.763   6.784  0.6616 -1.3586  0.0028
  617MOL0     C85050   2.957  10.893   6.709 -0.1331 -0.0670  0.1968
  617MOL0     C85051   2.865  10.993   6.783  0.7211  0.1572 -0.6804
  617MOL0     C85052   2.830  11.101   6.687 -0.9094  0.6590  0.0267
  617MOL0    Cl85053   2.969  11.220   6.699 -0.2021 -0.0209  0.1375
  617MOL0     C85054   3.486  10.329   6.308  0.1388 -0.2032 -0.6835
  617MOL0     C85055   3.487  10.289   6.176  0.0245  0.2879 -0.6038
  617MOL0     O85056   3.211  10.266   5.905  0.2997 -0.6397  0.5820
  617MOL0     C85057   3.504  10.324   5.678  0.8053 -0.6537 -0.2812
  617MOL0     C85058   3.535  10.329   5.544 -0.3866 -0.5107  0.6681
  617MOL0     N85059   3.891  10.463   4.843  0.0072  0.5193  0.5251
  617MOL0     N85060   3.833  10.476   4.728 -0.0623  0.3113 -0.3138
  617MOL0     C85061   3.018  10.457   5.410 -0.0329 -0.5411 -0.5148
  617MOL0     C85062   2.892  10.424   5.470 -1.1830  0.8808 -0.4071
  617MOL0     C85063   2.507  10.217   5.578 -0.0917  0.4637 -0.5726
  617MOL0     C85064   2.461  10.086   5.600 -0.1511  0.1277 -0.0918
  617MOL0     C85065   2.328  10.062   5.645 -0.7174 -0.5205  0.4390
  617MOL0     C85066   2.242  10.168   5.654  0.0777  0.4496  0.3254
  617MOL0     O85067   2.116  10.136   5.700  0.0429 -0.2992 -0.6255
  617MOL0     C85068   2.009  10.228   5.694 -0.2916 -0.6016  0.0384
  617MOL0     C85069   1.981  10.253   5.540 -0.1255 -0.5313 -0.1744
  617MOL0     C85070   1.867  10.355   5.527 -0.2393  0.3506  0.1447
  617MOL0     C85071   1.893  10.476   5.603  0.7860 -1.1328  0.1538
  617MOL0     C85072   2.002  10.559   5.554  0.6637  0.4520  0.3578
  617MOL0     C85073   2.100  10.627   5.527  0.4513 -0.1456  0.4926
  617MOL0     C85074   2.291  10.307   5.637  0.3868 -0.2668  0.0434
  617MOL0     C85075   2.423  10.327   5.603  0.2354 -0.2724 -0.1944
  617MOL0     C85076   2.460  10.470   5.598  0.4557  0.2322  0.0415
  617MOL0     H85077   2.778  10.225   5.220  2.2656 -2.2531 -0.0065
  617MOL0     H85078   2.981  10.282   5.119 -0.0809  2.2777 -0.9007
  617MOL0     H85079   3.270  10.578   5.317 -1.9646 -1.7641  1.7403
  617MOL0     H85080   3.128  10.649   5.228  1.8813  1.6476  1.0850
  617MOL0     H85081   3.383  10.682   5.138  1.0963 -1.1917 -0.4122
  617MOL0     H85082   3.346  10.529   5.065  1.1374 -0.6474  3.7294
  617MOL0     H85083   3.176  10.635   4.918 -2.8447  2.9449  0.7644
  617MOL0     H85084   3.166  10.767   5.033  1.0235 -0.5215  1.7103
  617MOL0     H85085   3.283  10.844   4.849 -0.9009 -1.3091 -1.3230
  617MOL0     H85086   3.411  10.796   4.959  0.6369 -0.9516 -0.5942
  617MOL0     H85087   3.317  10.649   4.715  3.0566 -3.1255 -1.3110
  617MOL0     H85088   3.418  10.569   4.836  2.7702  0.2202 -1.1573
  617MOL0     H85089   3.494  10.819   4.694  0.8642  0.6619  0.8039
  617MOL0     H85090   3.599  10.726   4.794  2.4267 -2.1796 -2.9537
  617MOL0     H85091   3.662  10.693   4.572  0.8607  0.8967  2.8595
  617MOL0     H85092   3.496  10.645   4.519  0.4517 -1.8584 -0.2271
  617MOL0     H85093   3.509  10.458   4.653  1.2873 -2.1564 -0.5344
  617MOL0     H85094   3.652  10.456   4.552  1.3019  0.1762  0.8730
  617MOL0     H85095   3.574  10.497   4.942 -1.6886 -2.7847 -2.2572
  617MOL0     H85096   3.782  10.599   5.127 -0.3576 -1.5765  2.2947
  617MOL0     H85097   3.944  10.536   5.097 -0.2045  0.0326  1.1020
  617MOL0     H85098   3.812  10.296   5.113 -1.5095  0.8288 -1.0359
  617MOL0     H85099   3.871  10.374   5.264 -0.7341 -0.0503 -0.1420
  617MOL0     H85100   3.670  10.424   5.333 -1.1098 -1.2385  0.5983
  617MOL0     H85101   3.589  10.442   5.171 -1.5132 -0.1389  1.5222
  617MOL0     H85102   3.560  10.222   5.141 -0.9778 -0.7961  0.8031
  617MOL0     H85103   3.654  10.180   5.284 -0.9817  0.0546  0.8140
  617MOL0     H85104   3.253  10.244   5.406  1.2392 -0.3489 -0.3909
  617MOL0     H85105   3.074  10.324   5.664 -1.3430 -0.3451  1.0972
  617MOL0     H85106   3.114  10.147   5.699 -0.8980  1.9528  2.1302
  617MOL0     H85107   3.085  10.203   5.537  1.7455 -2.0905 -0.4092
  617MOL0     H85108   3.270  10.509   6.052  0.1090 -0.5640 -0.7392
  617MOL0     H85109   3.246  10.574   6.302  2.0475  1.8388 -2.1774
  617MOL0     H85110   3.260  10.587   6.510 -0.5671  0.0321 -0.2514
  617MOL0     H85111   3.178  10.433   6.523  0.0561  0.0470 -0.8516
  617MOL0     H85112   3.278  10.379   6.745  1.9497 -1.3268 -2.7631
  617MOL0     H85113   3.358  10.533   6.746  0.0265  0.6268 -0.8541
  617MOL0     H85114   3.165  10.549   6.885 -2.3415  0.3800 -0.1316
  617MOL0     H85115   3.050  10.499   6.759 -0.2415  0.8049  1.6345
  617MOL0     H85116   3.097  10.684   6.620  0.8119 -1.1961 -0.2730
  617MOL0     H85117   3.221  10.746   6.740  1.5303 -2.1692 -1.1726
  617MOL0     H85118   2.926  10.684   6.792  0.2439 -1.0607 -0.9311
  617MOL0     H85119   3.032  10.803   6.881 -1.2661 -0.3598  0.2168
  617MOL0     H85120   2.916  10.860   6.613 -0.5567  2.2274 -0.4588
  617MOL0     H85121   3.056  10.937   6.691 -1.4020  3.7318  1.6964
  617MOL0     H85122   2.919  11.033   6.870 -0.2287 -0.2575  0.1097
  617MOL0     H85123   2.774  10.949   6.824  0.2882  1.5178 -0.1448
  617MOL0     H85124   2.751  11.169   6.721  1.0162  2.8205  0.4330
  617MOL0     H85125   2.818  11.069   6.583  2.3998  0.9160 -0.5500
  617MOL0     H85126   3.554  10.282   6.378  0.4497 -2.8296 -2.6055
  617MOL0     H85127   3.549  10.202   6.157 -0.7815  0.0081 -2.0666
  617MOL0     H85128   3.584  10.350   5.746  1.1149 -2.3949  0.0593
  617MOL0     H85129   3.640  10.345   5.524 -0.5125  2.6775  2.0789
  617MOL0     H85130   3.069  10.537   5.464 -3.2626 -0.0766  2.1617
  617MOL0     H85131   2.858  10.463   5.565  1.8445 -0.2609  1.2697
  617MOL0     H85132   2.524   9.999   5.588  0.7036  0.9850 -2.4969
  617MOL0     H85133   2.284   9.964   5.657 -0.0167 -0.8312  0.5575
  617MOL0     H85134   1.921  10.183   5.742  0.6725 -1.3303  1.1735
  617MOL0     H85135   2.050  10.314   5.747  1.8045 -0.6230 -1.4207
  617MOL0     H85136   1.943  10.164   5.488  1.0415 -1.0812 -0.1184
  617MOL0     H85137   2.072  10.292   5.495  0.8209 -0.5807  1.6180
  617MOL0     H85138   1.857  10.378   5.420 -0.5907  2.0446  0.5135
  617MOL0     H85139   1.771  10.320   5.566  0.0319  2.6589  3.2665
  617MOL0     H85140   1.890  10.456   5.710 -1.4368  1.4127  0.6853
  617MOL0     H85141   1.800  10.534   5.596  1.8355  0.6274  0.2184
  617MOL0     H85142   2.193  10.678   5.512  0.5647 -1.1484 -2.9681
  617MOL0     H85143   2.230  10.396   5.651 -1.0366 -1.4072  1.5265
  617MOL0     H85144   2.502  10.495   5.500 -1.2939 -2.3592 -1.5064
  617MOL0     H85145   2.381  10.546   5.608 -1.6669 -0.9843 -4.6614
  617MOL0     H85146   2.534  10.484   5.677  1.5757  0.3698 -1.0067
  618MOL0     O85147   3.221   7.288   3.591 -0.5045 -1.2629 -0.0769
  618MOL0     C85148   3.207   7.260   3.469  0.5034 -0.3959 -0.5141
  618MOL0     O85149   3.285   7.175   3.394 -0.0519 -0.5103  0.6071
  618MOL0     C85150   3.392   7.122   3.459  0.0972  0.2860  0.1523
  618MOL0     C85151   3.496   7.206   3.490 -0.2447 -0.9841  0.0840
  618MOL0     C85152   3.605   7.171   3.574 -0.0902 -0.1742  0.0741
  618MOL0     C85153   3.618   7.040   3.623  0.3987  0.2042  0.4396
  618MOL0     O85154   3.721   6.998   3.710 -0.0744  0.0008  0.4405
  618MOL0     C85155   3.773   6.870   3.677 -2.0458  1.1159  0.3941
  618MOL0     C85156   3.915   6.878   3.638  0.3194  0.4459  0.5888
  618MOL0     C85157   4.003   6.953   3.728 -0.6040 -0.6366 -0.3114
  618MOL0     C85158   4.021   6.883   3.860 -1.0811 -0.4451 -0.0573
  618MOL0     C85159   4.155   6.908   3.918  0.3486  0.3864 -0.3220
  618MOL0     C85160   4.179   6.820   4.046 -0.0579 -0.3379  0.4928
  618MOL0     C85161   4.318   6.850   4.103 -0.5131 -0.1079  0.4023
  618MOL0     C85162   4.438   6.823   4.006  0.3088 -0.3780 -0.1296
  618MOL0     N85163   4.559   6.852   4.074 -0.0066 -0.3051  0.4645
  618MOL0     C85164   4.605   6.975   4.086 -0.1386  0.5592  0.4291
  618MOL0     C85165   4.713   6.969   4.167  0.0687  0.5072  0.7803
  618MOL0     C85166   4.797   7.092   4.212  0.4967  0.3237  0.3854
  618MOL0     C85167   4.852   7.172   4.099  0.0424  0.5862  0.8941
  618MOL0     C85168   4.752   7.277   4.039  0.0414  0.4128 -0.2229
  618MOL0     C85169   4.837   7.399   3.984 -0.3022  0.2982 -0.2077
  618MOL0     O85170   4.954   7.365   3.914 -0.1164 -0.6214  0.8251
  618MOL0     C85171   4.941   7.372   3.776  0.0935 -0.1442  0.5659
  618MOL0     C85172   5.055   7.415   3.701  0.0274  1.2866  0.7424
  618MOL0     C85173   5.053   7.413   3.556 -0.1329 -0.3762 -0.3733
  618MOL0     C85174   5.179   7.447   3.492  0.0079  0.6931  0.0795
  618MOL0     C85175   4.930   7.378   3.484 -0.5788 -0.3202  1.1229
  618MOL0     C85176   4.913   7.368   3.334 -0.3997  0.2497 -0.1097
  618MOL0     O85177   4.788   7.367   3.274 -0.2661 -0.5198 -0.0475
  618MOL0     C85178   4.768   7.381   3.136  0.6752 -1.0914 -0.5298
  618MOL0     C85179   4.634   7.388   3.095  0.2200 -0.0050  0.2772
  618MOL0     C85180   4.595   7.390   2.962 -0.0021 -0.6343 -0.2398
  618MOL0     C85181   4.691   7.381   2.872 -0.1951  0.0587  0.2041
  618MOL0     O85182   4.661   7.379   2.737 -0.6756  0.0586 -0.1832
  618MOL0     C85183   4.707   7.277   2.653  0.0501  0.5021 -0.0009
  618MOL0     C85184   4.668   7.139   2.723  0.6277 -0.2100 -0.3014
  618MOL0     C85185   4.516   7.125   2.749  0.3334 -0.7314  0.6926
  618MOL0     C85186   4.445   6.997   2.693  0.0242  0.0175 -0.2637
  618MOL0     C85187   4.312   7.035   2.621 -0.1777  0.0142 -0.0613
  618MOL0     C85188   4.214   7.100   2.714 -0.3132  0.3618  0.2637
  618MOL0     C85189   4.092   7.126   2.627  0.0217  0.4778 -0.1206
  618MOL0     C85190   3.976   7.187   2.713 -0.0868  0.3873 -0.2621
  618MOL0    Cl85191   3.877   7.061   2.804 -0.3356 -0.1106  0.0787
  618MOL0     C85192   4.824   7.389   2.901 -0.0475  0.3651 -0.3514
  618MOL0     C85193   4.860   7.395   3.037 -0.8837 -0.0463  0.0882
  618MOL0     O85194   5.016   7.351   3.269  0.3998  0.1786 -0.0256
  618MOL0     C85195   4.825   7.346   3.562  0.8898 -0.4466  0.1280
  618MOL0     C85196   4.831   7.337   3.706 -0.1854  0.8145  0.2537
  618MOL0     N85197   4.741   6.841   4.189  0.2397 -0.1601 -0.3382
  618MOL0     N85198   4.648   6.770   4.137  0.7022  0.5222  0.0189
  618MOL0     C85199   3.507   6.949   3.589  0.9548 -0.2355  0.8013
  618MOL0     C85200   3.393   6.990   3.514 -0.2650  0.6485 -0.2981
  618MOL0     C85201   3.108   7.349   3.401  0.7951  0.5815  0.0491
  618MOL0     C85202   3.005   7.407   3.478 -0.1786  0.2733 -0.6044
  618MOL0     C85203   2.910   7.490   3.414 -0.2836  0.6870  0.3323
  618MOL0     C85204   2.919   7.512   3.277  0.1213  0.1059  0.1523
  618MOL0     O85205   2.830   7.578   3.203  0.2640  0.2840 -0.2223
  618MOL0     C85206   2.696   7.600   3.259  0.1062 -0.3356 -0.3591
  618MOL0     C85207   2.601   7.599   3.139  0.4879 -0.1316 -0.7803
  618MOL0     C85208   2.618   7.731   3.054 -0.4581  0.3647  0.7154
  618MOL0     C85209   2.506   7.732   2.952 -0.3810 -0.3296  0.8678
  618MOL0     C85210   2.526   7.832   2.850 -0.1938 -1.0011  0.2512
  618MOL0     C85211   2.531   7.913   2.757 -0.1103 -0.5476 -1.5692
  618MOL0     C85212   3.011   7.445   3.203  0.8651  1.1265  0.0061
  618MOL0     C85213   3.111   7.365   3.258 -0.5663 -0.3714 -0.1991
  618MOL0     C85214   3.221   7.324   3.164 -0.6084  0.4306  0.4350
  618MOL0     H85215   3.499   7.300   3.436 -0.9998 -0.8840  0.2019
  618MOL0     H85216   3.691   7.235   3.592 -1.0652  1.2349 -0.0806
  618MOL0     H85217   3.725   6.825   3.589 -0.6279 -1.5513  0.8908
  618MOL0     H85218   3.764   6.802   3.762 -0.5702 -0.8955 -0.9518
  618MOL0     H85219   3.948   6.775   3.630 -0.5007  0.0795  1.7152
  618MOL0     H85220   3.926   6.929   3.541 -1.0498 -1.4581 -0.6354
  618MOL0     H85221   4.099   6.957   3.676  0.0401  3.6578  0.8141
  618MOL0     H85222   3.972   7.057   3.735  0.3118  0.0465 -4.2194
  618MOL0     H85223   3.943   6.918   3.929  1.7275  0.8351  2.7453
  618MOL0     H85224   4.004   6.775   3.852 -1.7052 -0.5545  2.0431
  618MOL0     H85225   4.168   7.016   3.927 -0.7419  0.4349  0.9732
  618MOL0     H85226   4.229   6.876   3.844 -0.2676 -3.9504  0.6685
  618MOL0     H85227   4.113   6.854   4.126 -0.0030 -0.4911  0.6035
  618MOL0     H85228   4.163   6.715   4.020  1.0393  0.2355 -3.0363
  618MOL0     H85229   4.334   6.790   4.194 -0.7834  0.2056  0.6626
  618MOL0     H85230   4.312   6.955   4.135 -0.3622 -0.2754  0.9907
  618MOL0     H85231   4.445   6.717   3.981 -0.8308  0.1283 -3.0335
  618MOL0     H85232   4.435   6.879   3.912  0.0520 -0.2538 -0.0467
  618MOL0     H85233   4.569   7.071   4.050 -2.0225 -0.7171 -1.2774
  618MOL0     H85234   4.879   7.055   4.273 -1.0993 -1.5770  1.4754
  618MOL0     H85235   4.727   7.155   4.268 -2.1724 -1.1638 -1.0594
  618MOL0     H85236   4.937   7.226   4.143  2.1847 -1.1175 -0.8939
  618MOL0     H85237   4.888   7.108   4.018  0.0162  0.2565  1.1366
  618MOL0     H85238   4.689   7.227   3.965 -0.2852 -0.7409  0.8067
  618MOL0     H85239   4.687   7.319   4.116 -1.4754  0.0526 -1.2644
  618MOL0     H85240   4.769   7.467   3.932  0.3494  1.9752  1.0145
  618MOL0     H85241   4.871   7.461   4.067 -0.7717 -2.5905  2.2991
  618MOL0     H85242   5.144   7.437   3.760 -1.4575  2.4295  2.6775
  618MOL0     H85243   5.257   7.466   3.566  1.3118  1.6755 -1.4772
  618MOL0     H85244   5.169   7.535   3.428 -2.5053 -0.1014 -0.7305
  618MOL0     H85245   5.194   7.352   3.439  1.1491 -2.0915  4.8063
  618MOL0     H85246   4.552   7.393   3.166  0.4080 -0.2341  0.5121
  618MOL0     H85247   4.488   7.393   2.943  0.3799  3.6522 -3.2761
  618MOL0     H85248   4.663   7.299   2.555 -0.7041  0.4590  0.3244
  618MOL0     H85249   4.816   7.273   2.640 -0.0252 -0.0585 -0.5272
  618MOL0     H85250   4.712   7.064   2.656 -1.7247 -0.2421 -1.9299
  618MOL0     H85251   4.713   7.132   2.822 -0.2955  0.9396  0.2244
  618MOL0     H85252   4.464   7.210   2.703 -1.8607 -1.2249  2.1465
  618MOL0     H85253   4.500   7.137   2.856  0.1277  0.0659  0.5846
  618MOL0     H85254   4.437   6.928   2.777  3.6207  1.5815  1.5322
  618MOL0     H85255   4.506   6.943   2.620 -0.5331 -0.4511 -0.3949
  618MOL0     H85256   4.322   7.103   2.536  0.0792  0.4395  0.3075
  618MOL0     H85257   4.276   6.940   2.580 -1.6314  0.4730  0.0959
  618MOL0     H85258   4.256   7.194   2.751  1.5740  0.1138 -1.1193
  618MOL0     H85259   4.187   7.025   2.789 -1.4703  0.2189 -0.2704
  618MOL0     H85260   4.055   7.027   2.596  0.3705  0.2181  0.2777
  618MOL0     H85261   4.110   7.188   2.539  1.4391 -0.1146 -0.2671
  618MOL0     H85262   3.906   7.230   2.641  2.2881  1.5979 -1.9777
  618MOL0     H85263   4.017   7.263   2.780  0.3885 -1.8237  2.1067
  618MOL0     H85264   4.901   7.407   2.827 -0.8073  0.3573 -1.1647
  618MOL0     H85265   4.968   7.396   3.052 -0.4806 -2.1961 -2.0047
  618MOL0     H85266   4.734   7.301   3.522  1.0029  0.2252 -0.9356
  618MOL0     H85267   4.742   7.294   3.752 -0.5315  0.3054 -0.8425
  618MOL0     H85268   3.516   6.849   3.630 -2.0603 -0.3952  1.2666
  618MOL0     H85269   3.307   6.923   3.515 -0.9736  1.5465 -0.4950
  618MOL0     H85270   2.992   7.395   3.585  0.3088  0.2163 -0.5520
  618MOL0     H85271   2.836   7.534   3.481  1.1878  2.0627  1.1098
  618MOL0     H85272   2.661   7.522   3.327 -0.0021  0.7284  0.8246
  618MOL0     H85273   2.702   7.703   3.295  0.7276 -0.2830 -0.5964
  618MOL0     H85274   2.495   7.581   3.160 -0.1161  1.5433 -2.1717
  618MOL0     H85275   2.634   7.520   3.071 -0.0085 -1.7406  0.7865
  618MOL0     H85276   2.608   7.816   3.122  0.8271 -2.0098  4.1197
  618MOL0     H85277   2.712   7.745   3.000  0.0381 -0.5192  1.3399
  618MOL0     H85278   2.425   7.778   3.009  1.9671  0.4671  3.8694
  618MOL0     H85279   2.490   7.631   2.913 -0.0556 -1.9676  4.5001
  618MOL0     H85280   2.537   7.994   2.686  0.8168  0.5501 -0.2874
  618MOL0     H85281   3.002   7.454   3.095 -0.9123  1.0310  0.1167
  618MOL0     H85282   3.210   7.228   3.113 -1.7489  0.4773  0.5605
  618MOL0     H85283   3.230   7.393   3.080  2.1166 -1.4994 -0.9925
  618MOL0     H85284   3.321   7.322   3.208  0.1645 -0.4391 -1.2893
  619MOL0     O85285   4.307   9.504   4.210 -0.0005  0.1124  1.0341
  619MOL0     C85286   4.238   9.431   4.135  0.2855 -0.4868  0.1711
  619MOL0     O85287   4.278   9.376   4.022 -0.2826  0.1516  0.2070
  619MOL0     C85288   4.394   9.402   3.956  0.8099  0.2679 -0.4835
  619MOL0     C85289   4.375   9.430   3.820  0.2600  0.4321  1.0270
  619MOL0     C85290   4.490   9.475   3.742  0.8357  0.2017 -0.5824
  619MOL0     C85291   4.619   9.470   3.798 -0.1335 -0.2880 -0.4702
  619MOL0     O85292   4.716   9.509   3.716 -0.1157  0.3704  0.1263
  619MOL0     C85293   4.854   9.516   3.756  0.5887 -0.5028  0.6391
  619MOL0     C85294   4.891   9.647   3.827 -0.0433 -0.5260 -0.4286
  619MOL0     C85295   4.929   9.767   3.736 -0.2631 -0.1039 -0.8183
  619MOL0     C85296   5.018   9.861   3.819 -0.3707  0.1872 -0.3028
  619MOL0     C85297   5.072   9.968   3.732  0.5788 -1.0771  0.0473
  619MOL0     C85298   4.954  10.073   3.690  0.6644  0.0197  0.3063
  619MOL0     C85299   4.877  10.135   3.805 -0.0921 -0.1794  0.2568
  619MOL0     C85300   4.967  10.229   3.884  0.5708  0.4019  0.0673
  619MOL0     N85301   5.016  10.334   3.799  0.2376  0.0069 -0.0002
  619MOL0     C85302   4.958  10.449   3.756  0.5565  0.0514 -0.9034
  619MOL0     C85303   5.050  10.523   3.697  0.2905  0.1543 -0.5189
  619MOL0     C85304   5.044  10.661   3.639  0.5756 -0.3017 -0.2521
  619MOL0     C85305   4.951  10.752   3.712  0.5911 -0.1207  0.0181
  619MOL0     C85306   5.015  10.904   3.701  0.4458 -0.0479  0.2163
  619MOL0     C85307   4.916  11.006   3.757  0.2868  0.7837  0.1645
  619MOL0     O85308   4.910  11.002   3.897 -0.0842  0.4507  0.6999
  619MOL0     C85309   4.959  11.102   3.971 -0.8156 -0.2615 -0.6252
  619MOL0     C85310   4.897  11.137   4.084  1.4563 -0.2478  0.3812
  619MOL0     C85311   4.959  11.220   4.176 -0.0373  0.0785  0.9156
  619MOL0     C85312   4.888  11.212   4.307 -0.5375  0.1642  0.1823
  619MOL0     C85313   5.083  11.286   4.145  0.3683  0.4201  0.4166
  619MOL0     C85314   5.142  11.396   4.227  0.0262  0.2729 -0.1853
  619MOL0     O85315   5.261  11.450   4.181  0.2447  0.1920 -0.2513
  619MOL0     C85316   5.326  11.516   4.281 -0.3967  0.4149  0.2052
  619MOL0     C85317   5.452  11.460   4.309  0.5306  0.9164 -0.4927
  619MOL0     C85318   5.539  11.527   4.394 -0.7736 -0.5412  0.1653
  619MOL0     C85319   5.503  11.651   4.456  0.6579 -0.7164  0.2841
  619MOL0     O85320   5.574  11.711   4.550 -0.2608 -0.3452 -0.8620
  619MOL0     C85321   5.588  11.851   4.571  0.1976  0.5273  0.5375
  619MOL0     C85322   5.723  11.868   4.646  0.2912 -0.1957  0.2628
  619MOL0     C85323   5.765  12.003   4.687 -0.1207  0.0006  0.0972
  619MOL0     C85324   5.914  12.009   4.703  0.6710 -0.3098  0.2153
  619MOL0     C85325   5.956  12.133   4.782  0.2659 -0.1645  0.1987
  619MOL0     C85326   6.104  12.133   4.776  0.1452 -0.4539 -0.5599
  619MOL0     C85327   6.163  12.263   4.849  0.2878  0.1165 -0.3271
  619MOL0     C85328   6.314  12.263   4.854  0.3556  0.2804 -1.3271
  619MOL0    Cl85329   6.354  12.121   4.963 -0.2228 -0.2330  0.3818
  619MOL0     C85330   5.377  11.702   4.417 -0.2086  0.3987 -0.3691
  619MOL0     C85331   5.292  11.641   4.329 -0.2925  1.2553 -0.0284
  619MOL0     O85332   5.067  11.451   4.312  0.1000 -0.6923  0.7772
  619MOL0     C85333   5.125  11.264   4.009  0.6348  0.1546 -0.2570
  619MOL0     C85334   5.070  11.167   3.930 -0.1355 -0.1891  0.5837
  619MOL0     N85335   5.165  10.445   3.698  0.1241 -0.3846  0.6925
  619MOL0     N85336   5.143  10.338   3.769  0.0154  0.7028 -0.0572
  619MOL0     C85337   4.628   9.429   3.935 -0.1857  1.1736  0.2294
  619MOL0     C85338   4.522   9.387   4.006  0.5065  0.4627  0.5609
  619MOL0     C85339   4.118   9.374   4.197  0.2194 -0.4205  0.1773
  619MOL0     C85340   4.062   9.265   4.136 -0.0696  0.2983  0.5150
  619MOL0     C85341   3.934   9.219   4.178 -0.0480  0.3432 -0.0767
  619MOL0     C85342   3.867   9.268   4.290 -1.2851  0.2489 -0.4803
  619MOL0     O85343   3.762   9.190   4.330 -0.6370  0.0596 -0.3195
  619MOL0     C85344   3.700   9.207   4.460 -0.2934  0.5696  0.7802
  619MOL0     C85345   3.580   9.315   4.445  0.6737  0.7519  0.8348
  619MOL0     C85346   3.458   9.259   4.363 -0.2916  0.1623 -0.2858
  619MOL0     C85347   3.412   9.120   4.415  0.8915 -0.6480 -0.0607
  619MOL0     C85348   3.264   9.104   4.394 -0.0587  0.4001  0.5114
  619MOL0     C85349   3.146   9.073   4.377 -0.4922  0.1071  0.2972
  619MOL0     C85350   3.922   9.380   4.348  0.6533 -0.0545 -1.0949
  619MOL0     C85351   4.045   9.431   4.307  0.1156  0.3646 -0.1556
  619MOL0     C85352   4.096   9.550   4.383 -0.3309  1.1983 -0.1746
  619MOL0     H85353   4.274   9.437   3.782  0.7447  1.0389 -0.2023
  619MOL0     H85354   4.484   9.509   3.639 -0.6017  3.3787  0.4153
  619MOL0     H85355   4.904   9.497   3.661 -3.8682 -0.0994 -2.1184
  619MOL0     H85356   4.875   9.426   3.813 -1.4179  0.1354  2.5428
  619MOL0     H85357   4.807   9.666   3.895  2.4533 -1.7383  3.2888
  619MOL0     H85358   4.983   9.631   3.884 -0.2313 -0.2394 -0.0414
  619MOL0     H85359   4.986   9.731   3.650  3.3522  2.3130  0.3386
  619MOL0     H85360   4.835   9.814   3.706 -0.9012 -2.3498 -2.6407
  619MOL0     H85361   4.963   9.905   3.903 -1.4500  0.4245 -1.1177
  619MOL0     H85362   5.100   9.807   3.868  0.3582  4.2733  3.6124
  619MOL0     H85363   5.122   9.926   3.645  0.6465  0.3175 -0.6211
  619MOL0     H85364   5.144  10.019   3.797  0.8052 -0.6275 -0.5452
  619MOL0     H85365   4.998  10.144   3.620  0.2133  0.3314  0.3350
  619MOL0     H85366   4.881  10.025   3.624 -0.5665  0.3363  1.3906
  619MOL0     H85367   4.825  10.066   3.871 -1.0606 -0.4217 -0.7210
  619MOL0     H85368   4.801  10.204   3.765  1.1428  0.2639 -1.4180
  619MOL0     H85369   4.912  10.265   3.971 -1.5235 -1.5979 -0.3360
  619MOL0     H85370   5.045  10.170   3.934  0.8766  1.6395  1.0994
  619MOL0     H85371   4.851  10.467   3.770  0.2979 -2.4113  1.1277
  619MOL0     H85372   5.016  10.651   3.534  2.0184 -1.1089 -0.5870
  619MOL0     H85373   5.143  10.707   3.635  1.2760 -1.7586  0.0084
  619MOL0     H85374   4.850  10.756   3.671  0.0574  2.4625  1.3429
  619MOL0     H85375   4.946  10.730   3.819 -0.8384  0.8789  0.1859
  619MOL0     H85376   5.105  10.920   3.761 -0.8556 -1.2319  2.6746
  619MOL0     H85377   5.043  10.924   3.598  2.3446  2.3602  1.0957
  619MOL0     H85378   4.925  11.108   3.718 -1.4437  2.0233  2.7744
  619MOL0     H85379   4.816  10.981   3.721  0.1678 -0.9205  1.5751
  619MOL0     H85380   4.798  11.094   4.093 -2.3761  5.6094 -4.9998
  619MOL0     H85381   4.972  11.193   4.374 -0.8540 -2.5947 -0.1061
  619MOL0     H85382   4.819  11.128   4.317 -1.0803  0.4815 -0.7387
  619MOL0     H85383   4.832  11.306   4.317 -8.3990 -3.4385 -1.8061
  619MOL0     H85384   5.490  11.374   4.255 -1.2132  1.3893 -2.6148
  619MOL0     H85385   5.644  11.502   4.407 -0.5032  1.3042  2.0484
  619MOL0     H85386   5.587  11.913   4.481 -2.2670 -0.1075  0.0400
  619MOL0     H85387   5.500  11.884   4.627 -1.6570 -1.5233 -0.9645
  619MOL0     H85388   5.709  11.803   4.733 -1.5980 -2.0816 -1.3557
  619MOL0     H85389   5.797  11.810   4.591 -1.8509 -1.4745 -1.4286
  619MOL0     H85390   5.708  12.016   4.780 -1.5394 -3.1854 -0.1778
  619MOL0     H85391   5.732  12.079   4.616 -1.1506 -1.2681 -0.8350
  619MOL0     H85392   5.957  12.007   4.603 -1.2887 -1.8701 -0.6739
  619MOL0     H85393   5.950  11.921   4.757  1.1661 -1.8340 -2.4117
  619MOL0     H85394   5.910  12.221   4.737 -1.7263 -2.0004 -1.5864
  619MOL0     H85395   5.917  12.124   4.884 -1.7863 -0.1004 -0.5288
  619MOL0     H85396   6.137  12.138   4.671  0.3609  1.1544 -0.4415
  619MOL0     H85397   6.143  12.036   4.809  2.2345  0.0997 -1.1953
  619MOL0     H85398   6.116  12.268   4.948 -0.5697 -0.6805 -0.6715
  619MOL0     H85399   6.136  12.350   4.788  2.1973 -1.1935 -3.3080
  619MOL0     H85400   6.345  12.359   4.896 -1.4792  0.7029 -0.8507
  619MOL0     H85401   6.356  12.243   4.755  0.8546  2.4710 -1.6109
  619MOL0     H85402   5.358  11.796   4.468  3.7957  0.5431  1.2626
  619MOL0     H85403   5.195  11.682   4.303 -0.2668  0.5498 -1.3345
  619MOL0     H85404   5.209  11.325   3.977  1.3276 -2.4548 -4.0993
  619MOL0     H85405   5.123  11.134   3.842 -1.6166 -0.2273 -0.3302
  619MOL0     H85406   4.727   9.427   3.979  0.9753 -0.1293 -2.2161
  619MOL0     H85407   4.535   9.345   4.105  1.0278 -0.9974 -0.0998
  619MOL0     H85408   4.098   9.230   4.040 -3.3905 -1.6669 -0.1907
  619MOL0     H85409   3.895   9.138   4.117  1.0421  0.4122 -0.8951
  619MOL0     H85410   3.661   9.113   4.502 -1.3798  1.1101  1.0008
  619MOL0     H85411   3.781   9.242   4.525  1.7922 -0.1783 -1.2812
  619MOL0     H85412   3.613   9.407   4.396  2.5978 -0.7672 -0.8856
  619MOL0     H85413   3.537   9.337   4.544  1.6650  0.0470  1.4331
  619MOL0     H85414   3.376   9.329   4.383  0.0783  0.4985  0.0876
  619MOL0     H85415   3.475   9.263   4.255 -0.5537  1.8224 -0.2934
  619MOL0     H85416   3.435   9.086   4.516  1.1384 -3.8456 -1.0815
  619MOL0     H85417   3.472   9.047   4.359  0.0028  0.3428 -2.4357
  619MOL0     H85418   3.042   9.051   4.362 -0.3901  0.3479 -0.8597
  619MOL0     H85419   3.861   9.423   4.427  0.3908 -1.5329 -0.4454
  619MOL0     H85420   4.016   9.599   4.440 -2.7681 -3.5920  1.0137
  619MOL0     H85421   4.165   9.518   4.462 -0.1972 -0.0132 -0.7696
  619MOL0     H85422   4.135   9.629   4.319 -0.9932  2.7661  1.2692
  620MOL0     O85423   5.398  10.742   0.512  0.1797  0.1845 -0.1588
  620MOL0     C85424   5.396  10.835   0.438  0.6822  0.3515  0.4966
  620MOL0     O85425   5.501  10.916   0.419 -0.0127 -0.8406 -0.3869
  620MOL0     C85426   5.622  10.896   0.481  0.2645  0.2654 -0.3155
  620MOL0     C85427   5.629  10.873   0.620 -0.4814 -1.1171 -0.7032
  620MOL0     C85428   5.765  10.880   0.676  0.1701 -1.2012 -0.0793
  620MOL0     C85429   5.879  10.913   0.597  0.4941 -0.2510 -0.1468
  620MOL0     O85430   5.988  10.923   0.675  0.2175  0.4684  0.4300
  620MOL0     C85431   6.115  10.896   0.614 -0.2792  0.5336 -0.0891
  620MOL0     C85432   6.138  10.745   0.588 -0.1364  0.3152  0.6447
  620MOL0     C85433   6.187  10.672   0.718 -0.1273 -0.4820  0.4809
  620MOL0     C85434   6.262  10.546   0.677  0.9375 -0.5595  0.9574
  620MOL0     C85435   6.369  10.508   0.778  1.1233  1.0485  0.6396
  620MOL0     C85436   6.396  10.354   0.765 -0.5166  0.7980  0.4653
  620MOL0     C85437   6.525  10.321   0.835 -0.2864  0.2459 -0.6915
  620MOL0     C85438   6.650  10.414   0.804  0.2808  0.9664 -0.3751
  620MOL0     N85439   6.753  10.336   0.875 -0.1029 -0.4418  0.2214
  620MOL0     C85440   6.838  10.247   0.814  0.0723 -0.1732  0.5951
  620MOL0     C85441   6.936  10.221   0.904 -0.0387 -0.1492  0.0566
  620MOL0     C85442   7.048  10.135   0.881 -0.5456 -0.5296  0.1807
  620MOL0     C85443   7.093  10.052   1.007  0.4585 -0.0944 -0.5915
  620MOL0     C85444   7.207   9.954   0.989  0.5864 -0.0793 -0.2797
  620MOL0     C85445   7.329  10.024   0.923  0.6135  0.3046 -0.3122
  620MOL0     O85446   7.323  10.023   0.784 -0.0410 -0.0137 -0.0693
  620MOL0     C85447   7.440  10.026   0.712  0.7769 -0.1769  0.3223
  620MOL0     C85448   7.461   9.930   0.618 -0.2507  1.1961  0.2580
  620MOL0     C85449   7.574   9.925   0.546 -0.3657 -0.1280  0.5175
  620MOL0     C85450   7.588   9.811   0.443  0.7256 -1.0015 -0.8223
  620MOL0     C85451   7.672  10.012   0.560 -0.1451 -0.6152 -0.4244
  620MOL0     C85452   7.802   9.996   0.491 -1.0268 -0.6461 -0.8969
  620MOL0     O85453   7.843   9.871   0.455  0.2195 -0.1962  0.3799
  620MOL0     C85454   7.914   9.835   0.341 -0.1713 -0.0366 -0.0274
  620MOL0     C85455   7.934   9.706   0.308  0.6624  0.2667 -0.0484
  620MOL0     C85456   8.010   9.669   0.202 -0.1362 -0.0374 -1.0516
  620MOL0     C85457   8.063   9.757   0.110 -0.8669 -0.4301 -0.1030
  620MOL0     O85458   8.135   9.703   0.007  0.0051 -0.1293 -0.4100
  620MOL0     C85459   8.179   9.790  -0.100 -0.2650 -0.6275  0.1310
  620MOL0     C85460   8.202   9.707  -0.224  0.0950 -0.9301 -0.0644
  620MOL0     C85461   8.081   9.683  -0.310 -0.0982  0.5578 -0.9494
  620MOL0     C85462   7.987   9.583  -0.236 -0.1294  0.7318 -0.4139
  620MOL0     C85463   7.880   9.529  -0.322  0.4436  0.5064  0.4643
  620MOL0     C85464   7.781   9.420  -0.253  0.2837 -0.1784 -0.4025
  620MOL0     C85465   7.670   9.375  -0.354 -0.2765  0.6289  1.0143
  620MOL0     C85466   7.577   9.277  -0.280 -0.2732  0.3798  0.1003
  620MOL0    Cl85467   7.667   9.123  -0.265  0.2486 -0.2289 -0.0826
  620MOL0     C85468   8.045   9.895   0.136  0.1093 -0.6385 -0.6310
  620MOL0     C85469   7.970   9.930   0.250 -0.4586  0.6432  0.3819
  620MOL0     O85470   7.870  10.097   0.483  0.2839 -0.2095  0.0009
  620MOL0     C85471   7.656  10.119   0.652 -1.7660 -0.8589  1.1156
  620MOL0     C85472   7.537  10.128   0.727  0.9651 -0.2602  0.2899
  620MOL0     N85473   6.912  10.292   1.013 -0.0421  0.0686 -0.4790
  620MOL0     N85474   6.806  10.364   0.998  0.5978  0.0341  0.1639
  620MOL0     C85475   5.863  10.925   0.459 -0.5470 -0.5092 -0.4430
  620MOL0     C85476   5.737  10.919   0.402  1.1978  0.2314  0.2983
  620MOL0     C85477   5.269  10.881   0.373  0.1995 -0.3205 -0.2616
  620MOL0     C85478   5.256  11.023   0.352  0.6369  0.3260 -0.0159
  620MOL0     C85479   5.141  11.071   0.301  0.2040 -0.2946 -0.6622
  620MOL0     C85480   5.036  10.993   0.248  0.4594 -0.4378  0.5357
  620MOL0     O85481   4.933  11.054   0.194 -0.0722  0.2710 -0.0309
  620MOL0     C85482   4.869  10.988   0.083 -0.0842  0.1414 -0.2575
  620MOL0     C85483   4.822  11.080  -0.028 -0.1551  0.5143  0.0477
  620MOL0     C85484   4.799  10.992  -0.156 -0.6470 -0.4571  0.0080
  620MOL0     C85485   4.718  11.080  -0.253 -0.3042  0.5159  0.5113
  620MOL0     C85486   4.679  10.988  -0.367  0.1515  0.0194 -1.2838
  620MOL0     C85487   4.642  10.939  -0.470 -0.3917  0.9601 -0.2094
  620MOL0     C85488   5.048  10.854   0.264 -0.2164  0.1485  0.1849
  620MOL0     C85489   5.167  10.801   0.323  0.8246 -0.9386  0.3175
  620MOL0     C85490   5.169  10.651   0.336  0.6412 -0.4608 -0.0308
  620MOL0     H85491   5.543  10.864   0.685  1.4057  2.0692  2.6875
  620MOL0     H85492   5.783  10.869   0.782  0.5007 -3.0674 -0.2933
  620MOL0     H85493   6.189  10.923   0.690  1.6881  2.3774 -2.4895
  620MOL0     H85494   6.125  10.967   0.531 -0.7261  0.9873  0.2393
  620MOL0     H85495   6.039  10.702   0.566  0.5411 -0.5206 -0.9030
  620MOL0     H85496   6.209  10.735   0.506  0.5119  2.1876  0.9391
  620MOL0     H85497   6.258  10.732   0.776 -1.1397  0.6556  0.5803
  620MOL0     H85498   6.109  10.638   0.787  0.5462 -0.9922  1.0043
  620MOL0     H85499   6.182  10.472   0.668  1.2376 -1.1090  2.4246
  620MOL0     H85500   6.314  10.559   0.582  2.8155 -1.1140  1.8677
  620MOL0     H85501   6.332  10.518   0.880  2.2489  3.7528  0.8576
  620MOL0     H85502   6.451  10.579   0.766 -0.3517  2.5761 -0.9608
  620MOL0     H85503   6.322  10.286   0.808  0.0812 -1.7241 -2.1524
  620MOL0     H85504   6.389  10.315   0.663 -4.5934 -1.3710  1.3634
  620MOL0     H85505   6.556  10.221   0.804  0.2393 -0.0835  0.7686
  620MOL0     H85506   6.501  10.326   0.942  0.6864  0.0083 -0.4479
  620MOL0     H85507   6.676  10.423   0.698 -1.9419  0.2385 -1.0295
  620MOL0     H85508   6.642  10.511   0.854  0.3936  0.0878  1.4392
  620MOL0     H85509   6.819  10.209   0.714 -1.5698 -0.8522  1.1253
  620MOL0     H85510   7.130  10.200   0.850  0.3569 -0.5445  2.3397
  620MOL0     H85511   7.031  10.061   0.802 -2.0637 -2.0048  1.7991
  620MOL0     H85512   7.123  10.130   1.078 -0.5184 -0.4996  0.2898
  620MOL0     H85513   7.009   9.998   1.053 -2.4274  3.3582 -1.3323
  620MOL0     H85514   7.247   9.926   1.086  1.0651  1.9909  0.1743
  620MOL0     H85515   7.180   9.863   0.935 -1.9774  0.7267 -0.5225
  620MOL0     H85516   7.336  10.130   0.948 -1.8941  0.3937  0.2659
  620MOL0     H85517   7.413   9.968   0.964 -1.3167 -2.5268  0.0871
  620MOL0     H85518   7.384   9.854   0.608  1.4124 -0.4469 -0.7659
  620MOL0     H85519   7.651   9.730   0.481  1.0301  0.1133  1.1455
  620MOL0     H85520   7.636   9.856   0.355  0.9428  0.0985 -0.1565
  620MOL0     H85521   7.493   9.780   0.397 -0.0365 -0.8840  0.6276
  620MOL0     H85522   7.888   9.640   0.380 -0.3569 -0.9514 -1.7698
  620MOL0     H85523   8.021   9.563   0.180  2.4444 -0.0969  0.1873
  620MOL0     H85524   8.115   9.876  -0.118  1.8265  0.9551 -0.1775
  620MOL0     H85525   8.276   9.832  -0.071 -1.1348  2.7262 -1.3954
  620MOL0     H85526   8.269   9.756  -0.296  0.4773 -3.0222 -1.2050
  620MOL0     H85527   8.253   9.615  -0.195 -0.3029 -0.6950  1.4543
  620MOL0     H85528   8.118   9.642  -0.404  3.7932 -1.0410  1.0441
  620MOL0     H85529   8.036   9.779  -0.336 -0.0878  1.3571  1.7227
  620MOL0     H85530   7.945   9.639  -0.151  0.3214  3.4679 -1.8716
  620MOL0     H85531   8.043   9.496  -0.201 -1.4440 -0.0135 -0.0844
  620MOL0     H85532   7.815   9.614  -0.343 -1.1786 -0.8342 -0.1205
  620MOL0     H85533   7.925   9.480  -0.409 -1.9066 -0.1939 -0.4321
  620MOL0     H85534   7.726   9.464  -0.169 -1.0108 -0.7143 -0.9399
  620MOL0     H85535   7.842   9.337  -0.218 -0.0711 -0.5626 -0.6750
  620MOL0     H85536   7.720   9.321  -0.435  1.1858 -4.0621  4.5749
  620MOL0     H85537   7.616   9.461  -0.394  0.5335 -0.5925 -3.2697
  620MOL0     H85538   7.485   9.271  -0.339 -0.1180 -1.0085 -0.0302
  620MOL0     H85539   7.565   9.318  -0.179  0.7052 -0.1527  0.4423
  620MOL0     H85540   8.089   9.975   0.078 -0.5785 -0.8802 -1.5128
  620MOL0     H85541   7.961  10.038   0.261 -0.3373  0.5770  1.1720
  620MOL0     H85542   7.728  10.199   0.667 -1.4395 -0.6179 -1.3503
  620MOL0     H85543   7.524  10.205   0.802 -0.8064  1.0388 -1.2369
  620MOL0     H85544   5.953  10.940   0.401  0.7049 -3.8061  0.3972
  620MOL0     H85545   5.727  10.931   0.294 -1.8948 -0.4686  0.4229
  620MOL0     H85546   5.330  11.090   0.394 -1.2748  2.3658  0.2873
  620MOL0     H85547   5.129  11.178   0.288  1.0008  0.5051  3.6018
  620MOL0     H85548   4.932  10.911   0.037  2.9381  3.3672 -2.0230
  620MOL0     H85549   4.777  10.936   0.112  0.8632 -0.1779  2.3992
  620MOL0     H85550   4.892  11.163  -0.043  2.1967 -1.1009  1.5253
  620MOL0     H85551   4.724  11.118   0.003 -0.4032  1.4802 -1.7757
  620MOL0     H85552   4.899  10.963  -0.190 -0.0715 -0.4418  1.6164
  620MOL0     H85553   4.743  10.900  -0.135 -1.0617 -0.6732 -1.8450
  620MOL0     H85554   4.785  11.150  -0.304 -0.5190 -1.9756 -3.6243
  620MOL0     H85555   4.631  11.127  -0.207  0.2062  1.3508  0.6351
  620MOL0     H85556   4.618  10.882  -0.558 -0.1680 -0.8927  0.8603
  620MOL0     H85557   4.980  10.779   0.227 -1.3680  1.2884 -0.0744
  620MOL0     H85558   5.126  10.607   0.246 -0.1096  0.3874 -0.0913
  620MOL0     H85559   5.273  10.620   0.350  1.1031  1.3881  0.8959
  620MOL0     H85560   5.120  10.617   0.428  0.2466  0.6026  0.1685
  621MOL0     O85561   3.551   5.030   9.996 -0.0030  0.3575 -1.1388
  621MOL0     C85562   3.520   5.104  10.091  0.2245  0.7665 -0.4406
  621MOL0     O85563   3.597   5.124  10.213  0.0427  0.2041 -0.4205
  621MOL0     C85564   3.728   5.067  10.226 -0.1340  0.2180  0.6875
  621MOL0     C85565   3.764   5.014  10.352 -0.0503 -1.2003 -0.0856
  621MOL0     C85566   3.895   4.977  10.381 -0.4531  0.1280 -0.3663
  621MOL0     C85567   3.991   4.979  10.274  0.1372 -0.6697  0.1424
  621MOL0     O85568   4.124   4.950  10.285  0.8181 -0.1186 -0.6095
  621MOL0     C85569   4.167   4.892  10.411  0.1881  0.2193  0.7255
  621MOL0     C85570   4.227   4.750  10.385 -0.1187 -0.5086  0.3757
  621MOL0     C85571   4.319   4.738  10.261  0.1148 -0.6452 -0.3767
  621MOL0     C85572   4.459   4.757  10.313  0.1835  0.4029 -0.7149
  621MOL0     C85573   4.557   4.713  10.201  0.6231  0.2819 -0.3190
  621MOL0     C85574   4.705   4.712  10.249  0.5000 -1.3170 -0.5867
  621MOL0     C85575   4.791   4.611  10.178  0.4318  0.6470 -0.9235
  621MOL0     C85576   4.825   4.638  10.037 -0.1271  1.1612 -0.0797
  621MOL0     N85577   4.953   4.579  10.004  0.8069 -0.0829 -0.0659
  621MOL0     C85578   4.964   4.479   9.913 -0.6916 -0.2952  0.0113
  621MOL0     C85579   5.098   4.486   9.875 -0.5286  0.1387 -0.9298
  621MOL0     C85580   5.165   4.417   9.766  0.1276 -0.0358  0.2534
  621MOL0     C85581   5.228   4.507   9.656 -1.0166  0.1745  0.2057
  621MOL0     C85582   5.330   4.436   9.568 -0.2089  0.1941 -0.2277
  621MOL0     C85583   5.376   4.518   9.452  0.2830 -0.0457 -0.4630
  621MOL0     O85584   5.414   4.648   9.496  0.5860  0.5713 -0.7574
  621MOL0     C85585   5.536   4.671   9.556  0.1683 -0.1314 -0.8617
  621MOL0     C85586   5.564   4.793   9.624 -0.2823 -0.1929  0.2372
  621MOL0     C85587   5.683   4.825   9.691  0.0895 -0.1922  0.0667
  621MOL0     C85588   5.696   4.963   9.754  0.3130  0.2891 -0.8009
  621MOL0     C85589   5.779   4.734   9.697 -0.0787  0.2206 -0.2689
  621MOL0     C85590   5.903   4.749   9.772  0.5561 -0.4791  1.0850
  621MOL0     O85591   5.949   4.637   9.828 -0.1191 -0.4664 -0.2053
  621MOL0     C85592   6.086   4.627   9.850  0.1640 -0.1694 -0.2054
  621MOL0     C85593   6.176   4.657   9.749  0.4902 -0.3609 -0.3418
  621MOL0     C85594   6.314   4.633   9.765 -0.5270 -0.2892  0.0804
  621MOL0     C85595   6.366   4.562   9.877 -0.3440 -0.5614 -1.0740
  621MOL0     O85596   6.496   4.520   9.893  0.2892 -0.4705  0.1319
  621MOL0     C85597   6.582   4.522   9.773  0.0089  0.3476 -0.7735
  621MOL0     C85598   6.710   4.444   9.806 -0.6212 -0.8852  0.2432
  621MOL0     C85599   6.712   4.318   9.894 -1.1501  0.3336  0.8855
  621MOL0     C85600   6.819   4.219   9.847  0.4488  0.6831  0.5113
  621MOL0     C85601   6.808   4.079   9.908  0.7253  0.0052  0.7652
  621MOL0     C85602   6.808   4.071  10.058  1.1987  0.3941  0.4547
  621MOL0     C85603   6.800   3.927  10.127  0.2664 -0.5998  0.3948
  621MOL0     C85604   6.670   3.859  10.088 -0.1021  0.5330  0.4498
  621MOL0    Cl85605   6.620   3.720  10.184  0.2104 -0.5739  0.3870
  621MOL0     C85606   6.263   4.538   9.982  0.4499 -0.1972 -0.6130
  621MOL0     C85607   6.129   4.565   9.967  0.6638  0.2749 -0.0768
  621MOL0     O85608   5.966   4.854   9.754  0.7219 -0.1128 -1.3680
  621MOL0     C85609   5.752   4.608   9.634 -0.3358  0.0910 -0.0747
  621MOL0     C85610   5.634   4.577   9.561  0.9054 -0.0192 -1.0613
  621MOL0     N85611   5.153   4.591   9.952  0.4189  0.0020 -0.3755
  621MOL0     N85612   5.068   4.639  10.031 -0.2105 -0.7741  0.2242
  621MOL0     C85613   3.954   5.018  10.143 -0.4993 -0.1048 -1.2607
  621MOL0     C85614   3.824   5.068  10.122 -0.3259 -0.1208  0.3560
  621MOL0     C85615   3.375   5.162  10.096  0.0199 -0.9542  0.0604
  621MOL0     C85616   3.344   5.236  10.211 -0.3040 -0.6743  0.5241
  621MOL0     C85617   3.217   5.285  10.234 -0.0352 -0.4178 -0.1591
  621MOL0     C85618   3.109   5.261  10.149  0.0652 -0.0400  1.3799
  621MOL0     O85619   2.982   5.308  10.157  0.4255 -0.0095 -0.9339
  621MOL0     C85620   2.928   5.343  10.286 -0.0975  0.0132  0.0186
  621MOL0     C85621   2.782   5.396  10.276 -0.0385 -0.3644 -0.2540
  621MOL0     C85622   2.664   5.301  10.251  0.4212  0.1188 -0.3056
  621MOL0     C85623   2.518   5.356  10.245 -1.9811  0.0236 -0.2674
  621MOL0     C85624   2.485   5.414  10.376  0.8979 -0.4578 -0.4772
  621MOL0     C85625   2.476   5.481  10.479 -0.3218 -1.0760 -0.4126
  621MOL0     C85626   3.142   5.178  10.039 -0.1996 -0.3245  0.9808
  621MOL0     C85627   3.272   5.133  10.010  0.6826 -0.6295  0.4106
  621MOL0     C85628   3.286   5.052   9.873  0.6562  0.5831 -0.5915
  621MOL0     H85629   3.683   4.998  10.423  0.4324 -1.5917  0.3839
  621MOL0     H85630   3.914   4.961  10.487  0.6791 -0.3336 -0.6255
  621MOL0     H85631   4.097   4.883  10.495  1.6631 -1.5973  1.8370
  621MOL0     H85632   4.237   4.961  10.458 -3.5434  3.4861  2.0166
  621MOL0     H85633   4.273   4.711  10.476 -1.0695  0.2604  1.2160
  621MOL0     H85634   4.137   4.692  10.364  0.2618 -0.4649 -1.6196
  621MOL0     H85635   4.314   4.640  10.212 -2.5766  0.1234 -1.8332
  621MOL0     H85636   4.307   4.808  10.178  1.0729  0.1603  0.1510
  621MOL0     H85637   4.465   4.861  10.347 -2.1639 -0.1665  1.7596
  621MOL0     H85638   4.477   4.708  10.409 -0.2974  0.6566 -0.4885
  621MOL0     H85639   4.533   4.760  10.105  1.6352  2.7306  0.5399
  621MOL0     H85640   4.538   4.606  10.187 -0.2275  0.0494  2.0673
  621MOL0     H85641   4.754   4.805  10.220  1.1831 -2.6946 -4.4627
  621MOL0     H85642   4.716   4.683  10.354 -3.0765 -5.0678 -0.9773
  621MOL0     H85643   4.745   4.513  10.198 -1.1576  1.4707 -0.3765
  621MOL0     H85644   4.880   4.610  10.241 -0.6501  3.9629  0.9138
  621MOL0     H85645   4.748   4.600   9.969  0.6325 -1.9703  0.6214
  621MOL0     H85646   4.836   4.746  10.031  0.5264  1.0385 -2.0291
  621MOL0     H85647   4.896   4.415   9.858  0.0164  1.4036 -3.0747
  621MOL0     H85648   5.107   4.340   9.714  1.5549 -1.7394  1.0853
  621MOL0     H85649   5.226   4.349   9.825 -2.3741  0.0879  3.2220
  621MOL0     H85650   5.149   4.553   9.595 -2.0931 -1.6394  0.1477
  621MOL0     H85651   5.284   4.585   9.708  1.3180  0.7305 -2.8723
  621MOL0     H85652   5.423   4.405   9.618  0.8899  0.5600 -1.9435
  621MOL0     H85653   5.277   4.345   9.537 -4.4651  1.8043  1.5570
  621MOL0     H85654   5.459   4.466   9.403  0.2823 -1.1957  0.7018
  621MOL0     H85655   5.293   4.534   9.382  0.7946  0.3995 -0.9778
  621MOL0     H85656   5.480   4.862   9.625 -0.5627 -0.5318  0.3429
  621MOL0     H85657   5.603   5.020   9.748 -0.6020 -0.4237  3.4904
  621MOL0     H85658   5.785   5.013   9.715  1.8945 -0.9395  1.0800
  621MOL0     H85659   5.708   4.948   9.862 -0.2433 -0.7960 -0.8771
  621MOL0     H85660   6.143   4.702   9.656 -1.4386  3.1554  1.8553
  621MOL0     H85661   6.379   4.678   9.690 -1.5614  1.4736  0.1819
  621MOL0     H85662   6.531   4.484   9.684  1.7616 -2.3343 -0.7169
  621MOL0     H85663   6.605   4.628   9.760 -0.6308  0.7090  0.7610
  621MOL0     H85664   6.751   4.403   9.713  0.4351 -0.2827  0.4192
  621MOL0     H85665   6.777   4.517   9.853  1.0476 -0.4714 -2.5448
  621MOL0     H85666   6.622   4.258   9.883  0.2264 -1.3430 -2.3726
  621MOL0     H85667   6.724   4.347   9.999  1.0433  2.4025  0.1780
  621MOL0     H85668   6.922   4.254   9.862  0.8347  0.0922 -0.6384
  621MOL0     H85669   6.801   4.207   9.740 -0.1372 -0.1475  0.6903
  621MOL0     H85670   6.721   4.025   9.870  0.1248  0.5684  1.3109
  621MOL0     H85671   6.895   4.026   9.869  0.1259 -1.4130  1.2907
  621MOL0     H85672   6.717   4.125  10.087 -0.9130 -1.0997 -2.8577
  621MOL0     H85673   6.901   4.124  10.084  1.1496  0.3216  0.7780
  621MOL0     H85674   6.801   3.937  10.236  1.6448 -0.7179  0.3995
  621MOL0     H85675   6.884   3.863  10.102  0.9649  0.1406  0.7913
  621MOL0     H85676   6.675   3.819   9.986 -1.6725  2.2275 -0.3425
  621MOL0     H85677   6.584   3.926  10.081 -0.8807 -0.5494 -1.1998
  621MOL0     H85678   6.302   4.498  10.075  0.2108 -1.9324 -1.2189
  621MOL0     H85679   6.062   4.526  10.043  0.1528 -0.9868 -1.1444
  621MOL0     H85680   5.831   4.534   9.642  1.1801  1.1826 -3.1130
  621MOL0     H85681   5.619   4.475   9.528  0.2561  0.7972 -3.5188
  621MOL0     H85682   4.017   5.001  10.055 -2.6734  0.0722 -2.9425
  621MOL0     H85683   3.790   5.097  10.023 -1.0345 -0.0016  0.6294
  621MOL0     H85684   3.415   5.291  10.273  1.1482  0.2910 -1.8428
  621MOL0     H85685   3.204   5.336  10.329  2.1232 -2.0481  1.0789
  621MOL0     H85686   2.935   5.262  10.360 -1.0912  1.4381  1.7674
  621MOL0     H85687   2.991   5.426  10.319 -0.5273  0.0274  0.8295
  621MOL0     H85688   2.785   5.475  10.200 -0.6856  1.6038  1.6754
  621MOL0     H85689   2.769   5.450  10.370  0.6095 -1.4910  0.5088
  621MOL0     H85690   2.686   5.249  10.157  0.6366 -1.5621  0.6341
  621MOL0     H85691   2.660   5.227  10.332  1.5888 -1.5800 -1.7054
  621MOL0     H85692   2.443   5.283  10.213  0.1811 -1.7475 -1.5677
  621MOL0     H85693   2.526   5.433  10.168 -2.5294  1.4420  1.0446
  621MOL0     H85694   2.457   5.539  10.567  0.2387 -1.2552 -0.1734
  621MOL0     H85695   3.065   5.148   9.969  0.1587 -1.6772  1.1324
  621MOL0     H85696   3.327   5.111   9.791  1.7305 -0.7497 -1.0586
  621MOL0     H85697   3.342   4.958   9.887 -1.9736 -1.0879 -0.7044
  621MOL0     H85698   3.189   5.011   9.843 -0.8245  2.1045  1.7841
  622MOL0     O85699   9.351   9.570   7.063  0.2813 -0.0652  0.1636
  622MOL0     C85700   9.273   9.627   7.138  0.0941  0.1085  0.6362
  622MOL0     O85701   9.310   9.727   7.222 -0.0696 -0.0409  0.1263
  622MOL0     C85702   9.440   9.777   7.200  0.7549 -0.1140  0.3904
  622MOL0     C85703   9.480   9.825   7.070 -0.7360 -0.4476 -0.2466
  622MOL0     C85704   9.604   9.891   7.062  1.1737 -1.3346 -0.1324
  622MOL0     C85705   9.682   9.926   7.169 -0.0890 -0.3499  0.2615
  622MOL0     O85706   9.798   9.999   7.137  0.2145  0.5443 -0.7188
  622MOL0     C85707   9.856  10.077   7.242 -0.4738 -0.0514  0.2276
  622MOL0     C85708   9.997  10.112   7.186  0.1962  0.5046 -0.3573
  622MOL0     C85709  10.060  10.207   7.291 -0.6250 -0.6650 -0.3671
  622MOL0     C85710  10.021  10.365   7.280 -0.1161  0.2388  0.7808
  622MOL0     C85711  10.109  10.448   7.362  0.4205 -0.4460  0.6195
  622MOL0     C85712  10.052  10.473   7.496 -0.1687 -0.3482  0.0342
  622MOL0     C85713  10.152  10.572   7.577  0.7679  1.1451  0.7688
  622MOL0     C85714  10.108  10.589   7.718  0.6699  0.2634 -0.6884
  622MOL0     N85715  10.172  10.713   7.767 -0.6672  0.2357  0.1909
  622MOL0     C85716  10.301  10.715   7.811 -0.9879 -0.4094 -1.0877
  622MOL0     C85717  10.351  10.845   7.816  0.0944 -0.5173  0.4436
  622MOL0     C85718  10.491  10.883   7.849 -0.3683  0.9340 -0.4034
  622MOL0     C85719  10.518  10.910   8.004  0.0753  0.5549 -0.6849
  622MOL0     C85720  10.507  10.788   8.091  0.5955 -0.9166 -1.0582
  622MOL0     C85721  10.499  10.804   8.248  0.1302 -0.1318 -1.0968
  622MOL0     O85722  10.514  10.682   8.326  0.0831 -0.2748  0.0542
  622MOL0     C85723  10.638  10.624   8.333  0.3949 -0.0765 -0.0229
  622MOL0     C85724  10.759  10.692   8.297  0.0279  0.5924  0.0106
  622MOL0     C85725  10.888  10.633   8.312  0.1329  0.5967  0.0187
  622MOL0     C85726  11.004  10.726   8.295 -0.9465 -0.2569  0.2494
  622MOL0     C85727  10.899  10.495   8.350 -0.0906  0.2833 -0.3857
  622MOL0     C85728  11.025  10.421   8.367  0.3432  0.3775  0.4486
  622MOL0     O85729  11.010  10.281   8.353  0.1186 -0.4749 -0.5092
  622MOL0     C85730  11.096  10.179   8.389 -0.3658  0.1472  0.0384
  622MOL0     C85731  11.235  10.200   8.404  0.3209  0.0827 -0.4133
  622MOL0     C85732  11.314  10.087   8.443 -0.6471 -0.6796 -0.3999
  622MOL0     C85733  11.265   9.962   8.469  0.0130  0.6078 -0.3457
  622MOL0     O85734  11.347   9.864   8.514 -0.4526 -0.6259  0.5620
  622MOL0     C85735  11.448   9.821   8.430 -0.2508  0.3428  0.6620
  622MOL0     C85736  11.565   9.770   8.516 -0.0759 -0.8572  0.0638
  622MOL0     C85737  11.533   9.646   8.613 -0.3751  0.2752  0.5699
  622MOL0     C85738  11.451   9.539   8.538  0.2574 -0.2080 -0.6693
  622MOL0     C85739  11.423   9.409   8.627  0.3888 -0.1355 -0.6290
  622MOL0     C85740  11.343   9.295   8.559 -0.6810  0.2398 -1.1500
  622MOL0     C85741  11.319   9.163   8.651 -0.6017 -0.1894 -0.1549
  622MOL0     C85742  11.201   9.184   8.753  0.5663  0.2494  0.0246
  622MOL0    Cl85743  11.147   9.028   8.817 -0.3959  0.1921  0.1818
  622MOL0     C85744  11.125   9.945   8.462  0.5157 -0.2276  0.2015
  622MOL0     C85745  11.045  10.050   8.417 -0.2479 -0.9714 -1.3526
  622MOL0     O85746  11.126  10.483   8.408 -0.5153 -0.1440 -0.4140
  622MOL0     C85747  10.772  10.425   8.363  0.5688  0.0003 -0.3659
  622MOL0     C85748  10.643  10.486   8.355  0.1169  0.1571  0.2542
  622MOL0     N85749  10.250  10.919   7.748 -0.8399  0.1381  0.2855
  622MOL0     N85750  10.144  10.844   7.720  0.4879  0.5210  0.3433
  622MOL0     C85751   9.641   9.884   7.295 -0.2072 -0.2206  0.0398
  622MOL0     C85752   9.520   9.810   7.308  0.1263  0.0891  0.5377
  622MOL0     C85753   9.143   9.569   7.183 -1.3026 -0.4071 -0.3496
  622MOL0     C85754   9.148   9.433   7.218 -0.3690 -0.4781  0.3433
  622MOL0     C85755   9.045   9.380   7.276 -0.1616  0.0544 -0.4347
  622MOL0     C85756   8.928   9.454   7.309 -0.5912  1.1570 -0.5794
  622MOL0     O85757   8.839   9.384   7.381 -0.1212 -0.1623 -1.1254
  622MOL0     C85758   8.783   9.451   7.499 -0.4392  0.3282  0.3325
  622MOL0     C85759   8.749   9.341   7.601  0.0326 -0.6285  1.0156
  622MOL0     C85760   8.662   9.401   7.719 -1.2797  0.2675 -0.4835
  622MOL0     C85761   8.528   9.350   7.703  0.5096 -0.3600  0.2470
  622MOL0     C85762   8.428   9.391   7.807  0.0878  0.1845 -0.0475
  622MOL0     C85763   8.345   9.391   7.901 -0.3095 -0.2720 -0.1722
  622MOL0     C85764   8.921   9.585   7.274 -0.3683 -0.0303 -0.0415
  622MOL0     C85765   9.029   9.644   7.201 -0.4318 -0.3107 -0.5630
  622MOL0     C85766   9.018   9.788   7.160  0.0592  0.0296  0.1853
  622MOL0     H85767   9.437   9.805   6.973  0.8999 -1.3131 -0.8219
  622MOL0     H85768   9.639   9.905   6.960  1.3905 -2.0541 -0.1596
  622MOL0     H85769   9.857  10.036   7.344  0.0343 -0.8246 -0.0748
  622MOL0     H85770   9.789  10.163   7.239 -1.9585 -1.2083 -1.7037
  622MOL0     H85771  10.060  10.023   7.191  1.7025  1.5805  1.0908
  622MOL0     H85772   9.996  10.166   7.090 -3.9814  1.5832  0.1125
  622MOL0     H85773  10.039  10.171   7.392 -0.1915  1.3676  0.5011
  622MOL0     H85774  10.168  10.200   7.274 -0.1013  1.7483  1.4078
  622MOL0     H85775  10.029  10.399   7.176 -2.2962  2.7096  1.3076
  622MOL0     H85776   9.923  10.382   7.326 -0.6141  4.1117 -1.2814
  622MOL0     H85777  10.125  10.540   7.304 -1.1600  0.6338  1.7964
  622MOL0     H85778  10.209  10.404   7.373 -0.2723 -1.8045  1.9039
  622MOL0     H85779   9.956  10.522   7.482 -0.9450 -2.2916 -2.1747
  622MOL0     H85780  10.042  10.375   7.544 -1.4757 -0.3059 -0.1178
  622MOL0     H85781  10.153  10.660   7.513 -1.6220 -0.8013 -2.2445
  622MOL0     H85782  10.249  10.521   7.573 -0.9310 -2.9839  4.3457
  622MOL0     H85783  10.000  10.600   7.728  0.2400 -3.1515 -0.3675
  622MOL0     H85784  10.142  10.500   7.772  0.9697  0.7648 -0.0378
  622MOL0     H85785  10.347  10.628   7.856 -0.9301 -0.5518 -1.4222
  622MOL0     H85786  10.518  10.972   7.791  1.2235  0.5635 -0.2623
  622MOL0     H85787  10.550  10.799   7.812 -0.7815  0.1108  0.7797
  622MOL0     H85788  10.615  10.959   8.010 -0.8138  2.6162 -2.0225
  622MOL0     H85789  10.454  10.995   8.030  1.2758  1.7878 -1.6040
  622MOL0     H85790  10.417  10.736   8.056  0.0849 -1.8385  1.4040
  622MOL0     H85791  10.592  10.727   8.060 -0.2479 -1.4010 -2.4606
  622MOL0     H85792  10.577  10.876   8.276 -1.3513  0.9572  0.4121
  622MOL0     H85793  10.411  10.863   8.273 -0.5612 -0.2539 -3.0837
  622MOL0     H85794  10.758  10.795   8.264  0.0080  0.7921  0.6149
  622MOL0     H85795  11.091  10.678   8.249 -0.8267  3.4894 -4.1128
  622MOL0     H85796  11.028  10.767   8.394 -0.6683 -0.7023  0.3692
  622MOL0     H85797  10.984  10.803   8.221 -0.2625 -3.0813 -3.1105
  622MOL0     H85798  11.280  10.297   8.383 -0.4160  0.3693 -0.7092
  622MOL0     H85799  11.421  10.101   8.457 -0.7121 -1.1064  0.6369
  622MOL0     H85800  11.408   9.748   8.359  3.5067  0.7112 -2.1683
  622MOL0     H85801  11.480   9.903   8.365  1.4487  0.8617  2.0745
  622MOL0     H85802  11.649   9.731   8.457  1.0414  1.4601  0.0309
  622MOL0     H85803  11.602   9.856   8.571 -2.9595 -1.6001  3.5352
  622MOL0     H85804  11.470   9.690   8.691 -1.1767 -2.8387  1.8309
  622MOL0     H85805  11.617   9.592   8.659  1.6207  3.1195  0.5418
  622MOL0     H85806  11.505   9.505   8.449 -1.3580 -0.5671 -1.5726
  622MOL0     H85807  11.359   9.579   8.493  0.3193  0.2910 -0.3554
  622MOL0     H85808  11.524   9.370   8.646 -0.0063 -1.0650 -0.3714
  622MOL0     H85809  11.380   9.442   8.722  1.6891  3.4050 -1.1134
  622MOL0     H85810  11.402   9.254   8.477  1.5747  0.2047  0.4155
  622MOL0     H85811  11.247   9.328   8.516 -1.5190  0.3342  0.6995
  622MOL0     H85812  11.402   9.136   8.717 -1.1939 -1.4472  0.1084
  622MOL0     H85813  11.295   9.075   8.589 -1.2723 -0.5140  0.5469
  622MOL0     H85814  11.113   9.217   8.697  0.1598 -0.6277  0.1305
  622MOL0     H85815  11.229   9.255   8.831  1.1707  0.0260  0.0138
  622MOL0     H85816  11.081   9.857   8.509 -1.9040  1.5481  1.4813
  622MOL0     H85817  10.939  10.034   8.403 -0.4832  1.2192 -2.3641
  622MOL0     H85818  10.773  10.317   8.375  3.0560 -0.3032 -2.3351
  622MOL0     H85819  10.546  10.436   8.355 -0.6131  1.2577 -3.1860
  622MOL0     H85820   9.699   9.901   7.385 -1.5106  0.6877  0.7424
  622MOL0     H85821   9.491   9.784   7.409  0.6150  1.4524  1.0586
  622MOL0     H85822   9.242   9.382   7.204  0.9233  2.2984 -2.4433
  622MOL0     H85823   9.054   9.277   7.310 -2.2596 -0.6477 -1.8154
  622MOL0     H85824   8.852   9.529   7.530  0.2298  0.3141 -1.0283
  622MOL0     H85825   8.687   9.492   7.465 -1.4059 -0.5941  1.8252
  622MOL0     H85826   8.846   9.298   7.631  0.0907 -1.0734  0.2290
  622MOL0     H85827   8.695   9.257   7.556 -1.0012  0.3776  0.3574
  622MOL0     H85828   8.696   9.381   7.821 -1.4058  0.6973 -0.3538
  622MOL0     H85829   8.674   9.510   7.713 -1.1426  0.2053 -1.6051
  622MOL0     H85830   8.540   9.241   7.706 -0.8242 -0.5457  3.0440
  622MOL0     H85831   8.492   9.384   7.606  0.3739  0.5396  0.6008
  622MOL0     H85832   8.283   9.381   7.988  2.2585 -1.5437  1.6026
  622MOL0     H85833   8.841   9.650   7.307  1.0417  2.2284 -0.8920
  622MOL0     H85834   9.059   9.819   7.064  0.8542  1.2063  0.8849
  622MOL0     H85835   8.914   9.822   7.153  0.4956  1.1748 -1.0804
  622MOL0     H85836   9.069   9.849   7.235 -0.7037  1.5303 -0.4671
  623MOL0     O85837   5.458   8.175   7.807 -0.7854 -0.5258  0.3154
  623MOL0     C85838   5.563   8.191   7.743 -0.5042 -0.0155 -0.5866
  623MOL0     O85839   5.656   8.290   7.771  0.1498 -0.1592 -0.5695
  623MOL0     C85840   5.621   8.422   7.775  0.0078 -0.5662  0.2929
  623MOL0     C85841   5.523   8.478   7.697 -0.4943  0.0050 -0.4914
  623MOL0     C85842   5.493   8.613   7.713  0.6626  0.9363  0.0621
  623MOL0     C85843   5.582   8.696   7.787 -0.0483 -0.7483 -0.2597
  623MOL0     O85844   5.559   8.836   7.785  0.2836  0.2094  0.0761
  623MOL0     C85845   5.601   8.916   7.898  0.3538  0.2079 -0.9840
  623MOL0     C85846   5.530   9.048   7.883  0.2472 -0.5935 -0.2235
  623MOL0     C85847   5.387   9.039   7.938 -0.3785 -0.0490 -0.1019
  623MOL0     C85848   5.305   9.169   7.897 -0.9028  0.1599  0.3269
  623MOL0     C85849   5.158   9.154   7.916 -0.3115 -0.6894  0.5088
  623MOL0     C85850   5.092   9.293   7.887 -0.5346  0.3038  0.4215
  623MOL0     C85851   4.938   9.286   7.872 -0.7962 -0.0056 -0.2061
  623MOL0     C85852   4.886   9.260   7.736  0.0037 -0.5065  0.0577
  623MOL0     N85853   4.925   9.372   7.656 -0.0027  0.0416 -0.2609
  623MOL0     C85854   5.029   9.350   7.565  0.6748 -0.9833 -0.5240
  623MOL0     C85855   5.042   9.475   7.507 -0.4143  0.4691  0.0759
  623MOL0     C85856   5.160   9.504   7.418 -0.1285  0.5925  0.7780
  623MOL0     C85857   5.296   9.513   7.486  0.1577  0.2501  0.6819
  623MOL0     C85858   5.385   9.386   7.484  0.4171 -1.0376 -0.5381
  623MOL0     C85859   5.527   9.429   7.525  0.5765  0.6998 -0.4497
  623MOL0     O85860   5.541   9.420   7.664 -0.8142 -0.2927 -0.1661
  623MOL0     C85861   5.675   9.416   7.716 -0.0594  0.2336 -0.2235
  623MOL0     C85862   5.796   9.433   7.644 -0.7585  0.0349 -0.9491
  623MOL0     C85863   5.918   9.410   7.704 -0.3918 -0.1829 -0.2598
  623MOL0     C85864   6.044   9.414   7.622 -0.0078  0.6204  0.3978
  623MOL0     C85865   5.926   9.374   7.843 -0.4279 -0.5142 -0.0458
  623MOL0     C85866   6.060   9.346   7.909  0.4442  0.4508 -0.1099
  623MOL0     O85867   6.069   9.227   7.975  0.4086 -0.3849  0.5695
  623MOL0     C85868   6.178   9.209   8.053  0.2861  0.3483  0.1360
  623MOL0     C85869   6.162   9.184   8.190 -0.7322 -0.0758 -0.4848
  623MOL0     C85870   6.283   9.163   8.270 -0.7859  0.1353  0.5621
  623MOL0     C85871   6.414   9.151   8.214  1.3682 -0.4375  0.3824
  623MOL0     O85872   6.519   9.114   8.295 -0.2085  0.1060 -0.5540
  623MOL0     C85873   6.644   9.074   8.234  0.6006 -1.2332 -0.0369
  623MOL0     C85874   6.739   9.020   8.338  0.0792 -0.6451  0.0941
  623MOL0     C85875   6.870   8.992   8.280 -0.9066 -0.4005  0.3559
  623MOL0     C85876   6.969   8.983   8.403  1.1795  0.7069 -0.5223
  623MOL0     C85877   7.111   8.994   8.356 -0.1722 -0.4577 -0.4698
  623MOL0     C85878   7.144   8.875   8.268 -0.6853 -0.8395  1.1032
  623MOL0     C85879   7.300   8.846   8.265  0.1556  0.1264  0.1857
  623MOL0     C85880   7.382   8.947   8.189  0.0840 -0.8622  0.6810
  623MOL0    Cl85881   7.336   8.943   8.024  0.1409 -0.1166 -0.2470
  623MOL0     C85882   6.422   9.167   8.079  0.0166 -0.1279 -0.2107
  623MOL0     C85883   6.308   9.196   7.997  0.0133 -0.8113  0.6788
  623MOL0     O85884   6.139   9.437   7.908 -0.9280  0.8945 -0.9551
  623MOL0     C85885   5.808   9.370   7.917  0.5392 -0.9257  0.3236
  623MOL0     C85886   5.686   9.377   7.849  0.1947 -0.3702  0.1706
  623MOL0     N85887   4.949   9.557   7.560  0.1927 -0.4539 -0.2628
  623MOL0     N85888   4.879   9.497   7.651  1.3459 -0.1708  0.9091
  623MOL0     C85889   5.685   8.642   7.860 -1.0717  0.8752  0.1103
  623MOL0     C85890   5.695   8.499   7.863 -1.3660 -1.2827  0.7891
  623MOL0     C85891   5.603   8.070   7.665 -0.1987  0.1805  0.0887
  623MOL0     C85892   5.740   8.026   7.672 -0.1860 -0.1617 -0.1723
  623MOL0     C85893   5.787   7.901   7.621 -0.0907 -0.1347  0.8673
  623MOL0     C85894   5.684   7.821   7.563 -0.6727  0.4205 -0.5645
  623MOL0     O85895   5.719   7.689   7.540  0.2564  0.1352 -0.5287
  623MOL0     C85896   5.711   7.653   7.400 -1.0199 -0.9145 -0.1003
  623MOL0     C85897   5.751   7.496   7.388 -0.8027  0.0679 -0.2240
  623MOL0     C85898   5.749   7.449   7.242 -0.2057 -0.3327 -0.4031
  623MOL0     C85899   5.864   7.516   7.162  0.5847 -0.1795 -0.0332
  623MOL0     C85900   5.887   7.466   7.027  0.0449  1.0237  0.0001
  623MOL0     C85901   5.903   7.432   6.915  0.1989  0.7136  0.3694
  623MOL0     C85902   5.553   7.863   7.545  0.2139 -0.3307  0.9310
  623MOL0     C85903   5.509   7.985   7.595 -1.1726 -0.8042 -0.3905
  623MOL0     C85904   5.370   8.028   7.567  0.6615  0.1673 -0.1280
  623MOL0     H85905   5.460   8.423   7.628 -0.8845  1.5873 -1.4368
  623MOL0     H85906   5.413   8.663   7.660  0.3033 -0.5649 -0.8896
  623MOL0     H85907   5.709   8.930   7.893  0.6926 -1.4309  0.6278
  623MOL0     H85908   5.577   8.868   7.994 -0.8091 -0.4438 -1.5786
  623MOL0     H85909   5.590   9.122   7.936 -1.7273  0.3533  0.7942
  623MOL0     H85910   5.521   9.068   7.776 -2.8412 -4.4891 -0.9088
  623MOL0     H85911   5.336   8.954   7.892 -2.1396  0.6186  0.5358
  623MOL0     H85912   5.387   9.022   8.046  0.4661  1.3581  0.1458
  623MOL0     H85913   5.333   9.254   7.959  1.2523 -0.7159  0.6507
  623MOL0     H85914   5.328   9.187   7.791 -3.4143  1.8369 -0.0047
  623MOL0     H85915   5.145   9.110   8.015 -0.3196 -2.3124 -0.1807
  623MOL0     H85916   5.115   9.081   7.847 -1.5851 -0.8909  1.4890
  623MOL0     H85917   5.115   9.354   7.975 -2.2367 -1.0493  1.8909
  623MOL0     H85918   5.142   9.342   7.803  1.6675 -2.2403  0.0803
  623MOL0     H85919   4.897   9.376   7.919 -0.7788 -0.1560  0.0927
  623MOL0     H85920   4.900   9.207   7.936  0.2398 -0.2429  0.1173
  623MOL0     H85921   4.924   9.173   7.683  0.1395  0.3795 -1.3413
  623MOL0     H85922   4.778   9.249   7.738 -0.0522 -0.0171  1.5907
  623MOL0     H85923   5.094   9.265   7.545  2.2015  0.2770 -1.1339
  623MOL0     H85924   5.132   9.602   7.379  0.6074 -0.0395 -1.4700
  623MOL0     H85925   5.161   9.435   7.333 -1.9307  0.0856  1.1287
  623MOL0     H85926   5.346   9.591   7.428  1.3924 -1.0255 -0.0117
  623MOL0     H85927   5.292   9.548   7.590 -0.9234  0.9697  0.4091
  623MOL0     H85928   5.342   9.294   7.525  0.8978 -0.9125  0.2714
  623MOL0     H85929   5.390   9.355   7.379 -0.8305 -2.7870 -0.1309
  623MOL0     H85930   5.598   9.358   7.482  0.4445 -1.0712  2.0716
  623MOL0     H85931   5.553   9.532   7.499  0.7323  0.9659  0.6999
  623MOL0     H85932   5.806   9.463   7.540  0.4888  0.6065 -0.6883
  623MOL0     H85933   6.051   9.319   7.570  0.7128  1.1043 -0.4185
  623MOL0     H85934   6.139   9.451   7.664 -0.5544  0.7836  1.5245
  623MOL0     H85935   6.026   9.486   7.542  0.6977  0.8600  0.4442
  623MOL0     H85936   6.064   9.191   8.236 -0.8610 -0.2551 -0.7249
  623MOL0     H85937   6.276   9.148   8.378 -0.0971  0.5607  0.6707
  623MOL0     H85938   6.628   9.008   8.148 -1.4902  1.1946 -1.6542
  623MOL0     H85939   6.688   9.163   8.189 -3.8764  2.2646  1.7843
  623MOL0     H85940   6.759   9.093   8.417  0.9852  1.2897 -1.8159
  623MOL0     H85941   6.702   8.931   8.390 -1.8599  1.0472  1.8412
  623MOL0     H85942   6.887   9.078   8.214  0.9289 -1.9319 -1.3111
  623MOL0     H85943   6.868   8.905   8.213 -4.6673 -1.4783  1.6413
  623MOL0     H85944   6.955   8.889   8.457  0.4170  1.1956  0.1718
  623MOL0     H85945   6.952   9.071   8.466 -2.7522  0.2753 -0.7012
  623MOL0     H85946   7.112   9.091   8.305  1.6107  0.4265  1.0814
  623MOL0     H85947   7.181   8.997   8.441 -2.1154  1.8370  1.2038
  623MOL0     H85948   7.102   8.889   8.168  0.7533 -0.3250  0.5460
  623MOL0     H85949   7.103   8.783   8.309  1.3417 -3.1438 -1.6572
  623MOL0     H85950   7.312   8.742   8.233  0.5836  0.0308  0.6667
  623MOL0     H85951   7.343   8.855   8.364  0.4900 -1.1929  0.1721
  623MOL0     H85952   7.489   8.924   8.196  0.1274 -1.0277 -0.3366
  623MOL0     H85953   7.366   9.047   8.229 -1.5740 -0.5990 -0.5094
  623MOL0     H85954   6.518   9.171   8.029  1.3882 -1.6955  2.1365
  623MOL0     H85955   6.322   9.193   7.889  0.2778 -0.5955  0.7060
  623MOL0     H85956   5.816   9.335   8.020 -4.0342  0.4772  1.3762
  623MOL0     H85957   5.595   9.365   7.908 -0.4140  1.8689 -0.2103
  623MOL0     H85958   5.748   8.701   7.927 -1.5973 -1.2551  2.6726
  623MOL0     H85959   5.782   8.448   7.902  0.4623 -0.9563 -2.5459
  623MOL0     H85960   5.808   8.081   7.737  1.4879 -0.8549 -1.2562
  623MOL0     H85961   5.885   7.857   7.634  0.1198  0.1417  0.2649
  623MOL0     H85962   5.610   7.659   7.360 -0.7761  0.0166 -0.6023
  623MOL0     H85963   5.775   7.724   7.347 -2.1968  0.3773  0.1683
  623MOL0     H85964   5.671   7.438   7.435 -3.1768  2.8086 -0.5858
  623MOL0     H85965   5.848   7.467   7.429 -0.7451 -1.4274 -1.3573
  623MOL0     H85966   5.765   7.341   7.245 -1.0426 -0.4751 -0.9306
  623MOL0     H85967   5.651   7.457   7.193  0.6565  1.2866 -1.9908
  623MOL0     H85968   5.951   7.519   7.229  0.3356  1.9508  0.2608
  623MOL0     H85969   5.820   7.615   7.148  0.2309  0.0133  2.1625
  623MOL0     H85970   5.922   7.407   6.812  2.0118  3.0804  0.0254
  623MOL0     H85971   5.484   7.790   7.505  2.9869 -1.2858 -2.5671
  623MOL0     H85972   5.350   8.010   7.461  0.1117  0.7440 -0.1236
  623MOL0     H85973   5.303   7.957   7.616  0.8807  0.3177  0.3946
  623MOL0     H85974   5.358   8.134   7.590  2.3946  0.1788  0.9057
  624MOL0     O85975   0.184   6.327  11.208 -0.5418  0.7902  0.1115
  624MOL0     C85976   0.179   6.405  11.111  0.2943 -0.4981  0.3239
  624MOL0     O85977   0.187   6.375  10.981  0.1427 -0.0378 -0.8731
  624MOL0     C85978   0.249   6.259  10.939  0.0732  1.1179 -0.0430
  624MOL0     C85979   0.365   6.200  11.004  0.5508 -0.1125  0.4471
  624MOL0     C85980   0.397   6.070  10.971  0.2369 -0.5241  0.0278
  624MOL0     C85981   0.333   5.997  10.871  0.3701 -0.1262  0.4971
  624MOL0     O85982   0.374   5.865  10.838 -0.0699  0.0804  0.9232
  624MOL0     C85983   0.378   5.772  10.951 -0.3025  0.3464 -1.0872
  624MOL0     C85984   0.381   5.618  10.923  0.9706  1.3788 -0.4422
  624MOL0     C85985   0.268   5.591  10.822 -1.0414 -0.5687 -0.1299
  624MOL0     C85986   0.234   5.445  10.813  0.1240 -0.4754  0.1233
  624MOL0     C85987   0.102   5.418  10.755 -0.3245 -0.1928 -0.3081
  624MOL0     C85988   0.074   5.264  10.776 -0.1829 -0.6199  0.2401
  624MOL0     C85989  -0.057   5.219  10.712 -0.1348 -0.0048  0.2873
  624MOL0     C85990  -0.073   5.068  10.692 -0.1038  0.4112  1.0082
  624MOL0     N85991  -0.202   5.054  10.619  0.1198 -0.0082  0.1320
  624MOL0     C85992  -0.332   5.015  10.668 -0.4120  0.0081 -0.0578
  624MOL0     C85993  -0.393   4.973  10.560  0.6490  0.5921 -0.2919
  624MOL0     C85994  -0.530   4.921  10.559 -0.2154 -0.3378 -0.5561
  624MOL0     C85995  -0.544   4.807  10.670 -0.5311 -0.1276  0.8619
  624MOL0     C85996  -0.686   4.758  10.689  1.4739 -0.0948  0.7991
  624MOL0     C85997  -0.793   4.873  10.720 -0.0127  0.2713 -0.0430
  624MOL0     O85998  -0.735   4.942  10.834  0.9316  0.0614 -0.0967
  624MOL0     C85999  -0.817   5.029  10.899 -0.1609 -0.2147 -0.2529
  624MOL0     C86000  -0.775   5.079  11.024 -0.2224  0.2073 -0.1006
  624MOL0     C86001  -0.853   5.171  11.091  0.3639 -0.6605  0.8856
  624MOL0     C86002  -0.792   5.223  11.225  0.3246  1.3203  0.5926
  624MOL0     C86003  -0.965   5.231  11.028  0.2095  0.3543  0.1366
  624MOL0     C86004  -1.042   5.341  11.083 -0.2696  0.2152  0.6757
  624MOL0     O86005  -1.109   5.425  10.989 -0.8410  0.2916  0.4100
  624MOL0     C86006  -1.194   5.522  11.034 -1.0137 -0.7692  0.8877
  624MOL0     C86007  -1.142   5.649  11.033  0.4595 -0.0963 -0.1425
  624MOL0     C86008  -1.218   5.772  11.038 -0.6744  0.8935  0.2895
  624MOL0     C86009  -1.361   5.766  11.054  0.0597  0.0962  0.0827
  624MOL0     O86010  -1.429   5.873  11.083  0.2540  0.2158  0.5145
  624MOL0     C86011  -1.375   6.003  11.107  0.1599 -0.5408  0.1584
  624MOL0     C86012  -1.503   6.100  11.132 -0.1970 -0.0435  0.2502
  624MOL0     C86013  -1.459   6.246  11.168 -0.0431 -0.4445 -0.4852
  624MOL0     C86014  -1.431   6.335  11.045 -0.5519  0.3107  0.1692
  624MOL0     C86015  -1.381   6.478  11.071  0.1028 -0.4476 -0.2956
  624MOL0     C86016  -1.462   6.594  11.012  1.1600  0.5429  0.5799
  624MOL0     C86017  -1.439   6.726  11.086 -0.5812  0.0973  0.1534
  624MOL0     C86018  -1.505   6.852  11.030 -0.0362 -0.3579 -0.2351
  624MOL0    Cl86019  -1.539   6.975  11.164 -0.3567  0.3522 -0.0418
  624MOL0     C86020  -1.404   5.633  11.065  0.5837  0.3277  0.0933
  624MOL0     C86021  -1.329   5.510  11.054  0.8379 -0.1852  0.2658
  624MOL0     O86022  -1.036   5.363  11.204  0.0830  0.0420  0.0027
  624MOL0     C86023  -0.998   5.195  10.899 -0.4297 -0.4732 -0.4939
  624MOL0     C86024  -0.919   5.100  10.842 -0.2222  0.2625 -0.1309
  624MOL0     N86025  -0.315   4.986  10.448 -0.3984  0.0170  0.0185
  624MOL0     N86026  -0.204   5.037  10.483  0.2762  0.9844 -0.3470
  624MOL0     C86027   0.230   6.065  10.802 -0.3260  0.9028  0.5879
  624MOL0     C86028   0.192   6.200  10.824 -0.0498  0.0998 -1.3065
  624MOL0     C86029   0.175   6.544  11.149  0.3055  0.0052  1.0502
  624MOL0     C86030   0.062   6.612  11.101  0.2029 -0.3917 -0.3960
  624MOL0     C86031   0.050   6.745  11.133 -0.3917  0.5390  0.2964
  624MOL0     C86032   0.143   6.818  11.215  0.2341  0.0105  0.1323
  624MOL0     O86033   0.111   6.945  11.234 -0.3856 -0.1794 -0.1207
  624MOL0     C86034   0.189   7.018  11.329  1.2645 -0.0209  0.0373
  624MOL0     C86035   0.111   7.149  11.358 -0.9548  0.1151  0.5272
  624MOL0     C86036   0.109   7.235  11.234 -0.1091 -0.4807  0.3664
  624MOL0     C86037   0.104   7.388  11.260 -0.8350 -0.3446 -0.1834
  624MOL0     C86038   0.201   7.457  11.355  1.2853  0.3258  0.7605
  624MOL0     C86039   0.297   7.501  11.412  0.1798  0.4509  0.0648
  624MOL0     C86040   0.258   6.749  11.254 -0.8534  0.4353 -0.0497
  624MOL0     C86041   0.279   6.619  11.214  0.0760 -0.0195 -0.0927
  624MOL0     C86042   0.413   6.556  11.246  0.9833 -0.6794 -0.1612
  624MOL0     H86043   0.408   6.244  11.093 -1.8482 -1.1319  2.2164
  624MOL0     H86044   0.481   6.026  11.024  1.7069  0.2765 -1.5183
  624MOL0     H86045   0.293   5.786  11.019  0.9753  1.2750  0.3807
  624MOL0     H86046   0.464   5.782  11.017  0.5053 -0.4985 -1.9866
  624MOL0     H86047   0.477   5.594  10.877  1.8624 -0.3502  2.1205
  624MOL0     H86048   0.386   5.557  11.014 -1.1272  1.6448 -0.0985
  624MOL0     H86049   0.182   5.656  10.837  1.2604  2.7323 -0.1103
  624MOL0     H86050   0.302   5.628  10.725 -3.2997 -0.7106 -1.0247
  624MOL0     H86051   0.311   5.386  10.761  0.4016  1.5000 -1.8308
  624MOL0     H86052   0.231   5.413  10.917  1.7739 -0.1841  0.2947
  624MOL0     H86053   0.095   5.434  10.647  1.0271 -1.6039 -0.6331
  624MOL0     H86054   0.025   5.473  10.810 -0.5587 -1.2508  0.4656
  624MOL0     H86055   0.155   5.209  10.727 -0.7042 -0.3032 -1.0052
  624MOL0     H86056   0.069   5.237  10.882 -0.7261 -1.4402  0.0124
  624MOL0     H86057  -0.055   5.266  10.613 -0.7661 -2.2959 -0.8892
  624MOL0     H86058  -0.141   5.261  10.768 -0.1929  2.4855 -1.4816
  624MOL0     H86059   0.019   5.039  10.641  0.6323  2.5331  0.9998
  624MOL0     H86060  -0.075   5.017  10.789 -0.5835 -0.7336  0.4019
  624MOL0     H86061  -0.374   5.007  10.768 -0.3988  0.2540 -0.0311
  624MOL0     H86062  -0.560   4.881  10.462 -4.5874  1.2910 -0.1086
  624MOL0     H86063  -0.604   4.997  10.585 -2.7022 -2.3574 -1.4210
  624MOL0     H86064  -0.476   4.726  10.645  2.7536  2.1831  1.6507
  624MOL0     H86065  -0.505   4.855  10.760  1.5619  1.9324 -1.0048
  624MOL0     H86066  -0.725   4.681  10.622 -2.2553  0.7260  1.7812
  624MOL0     H86067  -0.685   4.694  10.777 -0.2733  2.8112  3.1369
  624MOL0     H86068  -0.814   4.936  10.633 -0.4961  0.0006 -0.1259
  624MOL0     H86069  -0.883   4.822  10.753  0.6446 -1.6930 -1.1276
  624MOL0     H86070  -0.685   5.034  11.064 -0.0897  1.2676  0.8557
  624MOL0     H86071  -0.856   5.194  11.309  2.8311 -2.2153  1.5118
  624MOL0     H86072  -0.778   5.331  11.214 -0.0010  1.2093 -1.2734
  624MOL0     H86073  -0.695   5.178  11.246  0.0234 -0.9655 -2.2758
  624MOL0     H86074  -1.034   5.657  11.019  0.4409  0.8735  0.1407
  624MOL0     H86075  -1.171   5.869  11.035  1.9962 -0.3405 -2.6786
  624MOL0     H86076  -1.311   6.019  11.194 -1.6139  0.7819  1.2984
  624MOL0     H86077  -1.321   6.032  11.017 -1.0339  2.0030  0.1734
  624MOL0     H86078  -1.567   6.109  11.043  0.1008  0.8462  0.1171
  624MOL0     H86079  -1.565   6.067  11.216 -1.8939  4.1129  0.8613
  624MOL0     H86080  -1.365   6.244  11.224  0.1041  2.8978 -0.4392
  624MOL0     H86081  -1.533   6.301  11.227  0.2027 -0.5302 -0.0926
  624MOL0     H86082  -1.517   6.344  10.978  1.1169  4.6312 -1.7400
  624MOL0     H86083  -1.356   6.275  10.991 -2.6763 -0.4042 -2.1681
  624MOL0     H86084  -1.392   6.497  11.178  2.5868 -1.4492  0.2151
  624MOL0     H86085  -1.274   6.482  11.048 -0.1346  0.7137 -1.3206
  624MOL0     H86086  -1.568   6.572  11.027  0.8620  2.2089  1.0555
  624MOL0     H86087  -1.447   6.595  10.903 -0.4533  2.9392  0.3033
  624MOL0     H86088  -1.333   6.738  11.111 -0.7747 -0.1162  1.0899
  624MOL0     H86089  -1.494   6.714  11.180 -0.7686  1.3182  0.2169
  624MOL0     H86090  -1.604   6.827  10.989  0.6143 -0.0391 -2.1058
  624MOL0     H86091  -1.448   6.897  10.948 -0.2511 -0.1943 -0.2958
  624MOL0     H86092  -1.511   5.641  11.076  0.3456  2.8018 -2.6963
  624MOL0     H86093  -1.385   5.417  11.056 -2.4398  1.6347  0.9791
  624MOL0     H86094  -1.076   5.237  10.837  2.4014  2.6842 -2.2232
  624MOL0     H86095  -0.941   5.079  10.738 -2.4762 -1.7348  0.6648
  624MOL0     H86096   0.183   6.006  10.723  2.1785  0.8952 -1.0042
  624MOL0     H86097   0.118   6.251  10.764  2.3058  1.3144 -3.3411
  624MOL0     H86098  -0.023   6.557  11.062 -1.1495  0.7992  0.8181
  624MOL0     H86099  -0.038   6.804  11.106  2.6698  3.9298 -3.5330
  624MOL0     H86100   0.193   6.962  11.423  1.4273  1.3905  0.9089
  624MOL0     H86101   0.288   7.031  11.284  1.0271 -0.5974 -0.6738
  624MOL0     H86102   0.157   7.199  11.443 -0.9399 -2.5148  2.1676
  624MOL0     H86103   0.007   7.128  11.384 -1.1303  0.4169  0.0821
  624MOL0     H86104   0.205   7.221  11.183 -0.5418  0.5120 -0.7702
  624MOL0     H86105   0.026   7.201  11.172 -0.2793  0.3346  0.1445
  624MOL0     H86106   0.003   7.414  11.291 -0.4880  1.2020 -0.2646
  624MOL0     H86107   0.113   7.435  11.161  0.1552 -0.2438 -0.0618
  624MOL0     H86108   0.387   7.539  11.455  2.1105 -0.1299 -3.0938
  624MOL0     H86109   0.338   6.801  11.306  0.3102 -2.1317  0.8870
  624MOL0     H86110   0.430   6.577  11.352 -0.0423 -1.4235  0.1700
  624MOL0     H86111   0.409   6.447  11.237  0.1759 -0.5536 -1.6748
  624MOL0     H86112   0.497   6.599  11.190 -0.8136  0.1608 -2.3976
  625MOL0     O86113  11.154  10.125   7.846 -0.0977  0.4870  0.1666
  625MOL0     C86114  11.078  10.171   7.932  0.0676 -0.6661  0.4099
  625MOL0     O86115  11.112  10.256   8.029 -0.0759 -0.8109  0.3155
  625MOL0     C86116  11.241  10.306   8.037  0.4009 -0.0225 -0.5306
  625MOL0     C86117  11.354  10.217   8.040  0.3227 -0.6105 -0.1919
  625MOL0     C86118  11.486  10.270   8.065 -0.2441  0.1530  0.1033
  625MOL0     C86119  11.503  10.404   8.113  1.2198 -0.5409  0.7189
  625MOL0     O86120  11.632  10.438   8.136  1.0303 -0.3460 -1.1603
  625MOL0     C86121  11.660  10.567   8.192  0.6089  0.1003 -0.0309
  625MOL0     C86122  11.797  10.577   8.260 -0.1582 -0.3081 -0.4177
  625MOL0     C86123  11.846  10.463   8.358  0.2492  0.1223  0.2683
  625MOL0     C86124  11.969  10.504   8.442  0.5699  0.3879 -0.7334
  625MOL0     C86125  12.048  10.387   8.509 -0.8297 -0.3222 -1.4903
  625MOL0     C86126  12.183  10.422   8.572  0.3930 -0.3747 -0.2423
  625MOL0     C86127  12.251  10.302   8.626 -0.4466 -0.7855 -0.4836
  625MOL0     C86128  12.339  10.324   8.756 -0.0758  0.5784 -0.2674
  625MOL0     N86129  12.414  10.202   8.780 -0.7472  0.5265  0.2806
  625MOL0     C86130  12.356  10.078   8.800  0.5524 -0.2011 -0.7302
  625MOL0     C86131  12.463   9.993   8.816  0.1455  0.3855 -0.1524
  625MOL0     C86132  12.454   9.847   8.831 -0.3311 -0.0592 -0.0138
  625MOL0     C86133  12.459   9.816   8.975 -1.2758 -0.6458 -0.0139
  625MOL0     C86134  12.509   9.682   9.019 -0.5873 -0.0266 -0.7336
  625MOL0     C86135  12.651   9.659   8.966 -0.2164 -0.5302 -0.0569
  625MOL0     O86136  12.695   9.564   9.068 -0.0026 -0.2506  0.1256
  625MOL0     C86137  12.765   9.615   9.174  1.1926 -0.3185  0.4677
  625MOL0     C86138  12.866   9.538   9.229 -0.9789 -0.7195 -0.4232
  625MOL0     C86139  12.957   9.590   9.324  0.4526  0.1498 -1.1418
  625MOL0     C86140  13.082   9.512   9.366  0.2396  0.5688  0.5803
  625MOL0     C86141  12.934   9.727   9.372 -0.5437  0.7684 -0.4281
  625MOL0     C86142  13.015   9.767   9.485  0.6356 -0.8119  0.4895
  625MOL0     O86143  12.984   9.707   9.597 -0.5527  0.2380  0.1636
  625MOL0     C86144  13.065   9.747   9.704  0.1361 -0.1857  0.2164
  625MOL0     C86145  13.209   9.754   9.706  0.2234  0.7641  0.6754
  625MOL0     C86146  13.268   9.807   9.816 -0.6026 -0.2841  0.5300
  625MOL0     C86147  13.197   9.824   9.929  0.0409  1.1604 -0.4198
  625MOL0     O86148  13.251   9.870  10.043 -0.4343  0.2988  0.6771
  625MOL0     C86149  13.390   9.913  10.031  0.4505 -0.1133  0.0614
  625MOL0     C86150  13.433   9.930  10.176 -0.1355  0.0274 -0.1197
  625MOL0     C86151  13.502   9.792  10.226  0.2385 -0.7170  0.3546
  625MOL0     C86152  13.514   9.771  10.379 -0.3706 -1.0933  0.2616
  625MOL0     C86153  13.560   9.629  10.418 -0.5191  0.3719  0.3678
  625MOL0     C86154  13.586   9.617  10.571 -0.2860  0.5139  0.2507
  625MOL0     C86155  13.625   9.474  10.605 -1.3002 -0.2277 -0.8056
  625MOL0     C86156  13.726   9.469  10.715  0.2276 -0.5042 -0.5141
  625MOL0    Cl86157  13.881   9.523  10.631  0.3365  0.0544 -0.0135
  625MOL0     C86158  13.058   9.797   9.929 -0.4731  0.3404 -0.3880
  625MOL0     C86159  12.993   9.766   9.816  0.8326  0.2017  0.0678
  625MOL0     O86160  13.065   9.880   9.475  0.4169 -0.3841  0.0757
  625MOL0     C86161  12.824   9.800   9.329 -0.3964 -0.9149  0.1166
  625MOL0     C86162  12.749   9.747   9.227  0.4288  0.1577 -0.0332
  625MOL0     N86163  12.586  10.065   8.821  0.2597  0.8167 -0.4900
  625MOL0     N86164  12.547  10.191   8.801  0.2346  0.0909 -0.5910
  625MOL0     C86165  11.386  10.483   8.118 -0.8033  0.5079  0.4494
  625MOL0     C86166  11.258  10.439   8.091 -0.6884 -0.4703  0.9689
  625MOL0     C86167  10.936  10.127   7.933  0.9344  0.5959  0.5083
  625MOL0     C86168  10.869  10.139   8.058 -0.0859 -0.7210  0.0945
  625MOL0     C86169  10.733  10.101   8.068 -0.1431 -0.4732 -0.3594
  625MOL0     C86170  10.664  10.060   7.960  0.1676 -0.8611  0.8933
  625MOL0     O86171  10.537  10.010   7.966  1.0342  0.9321  0.1857
  625MOL0     C86172  10.519   9.867   7.991  0.0449  0.6537 -0.5439
  625MOL0     C86173  10.519   9.808   8.137  0.4561 -0.8182  0.2884
  625MOL0     C86174  10.416   9.884   8.220 -0.4991 -0.3161 -0.1605
  625MOL0     C86175  10.426   9.847   8.366  0.1763 -0.0538 -0.4314
  625MOL0     C86176  10.337   9.918   8.454  0.2338  0.3666 -0.2546
  625MOL0     C86177  10.258   9.958   8.543 -0.9689 -0.1939 -0.3434
  625MOL0     C86178  10.728  10.049   7.833 -0.3913 -0.7611 -0.3658
  625MOL0     C86179  10.869  10.085   7.806  0.3196  0.0481 -0.8693
  625MOL0     C86180  10.935  10.080   7.678  0.0780 -1.1830 -0.5608
  625MOL0     H86181  11.356  10.116   8.001  0.6416 -0.8141  0.3394
  625MOL0     H86182  11.568  10.200   8.051 -0.0693  0.8324 -2.9251
  625MOL0     H86183  11.593  10.586   8.276  1.3381 -1.0697  0.8323
  625MOL0     H86184  11.643  10.652   8.125  0.2268  0.2214  0.2190
  625MOL0     H86185  11.873  10.599   8.185  2.0793 -0.7648  1.6020
  625MOL0     H86186  11.791  10.669   8.320 -0.5255 -0.6771  0.1234
  625MOL0     H86187  11.760  10.443   8.423 -2.4114  0.5446 -2.8606
  625MOL0     H86188  11.872  10.373   8.301  0.9177  0.5282 -0.0887
  625MOL0     H86189  12.041  10.559   8.381  0.3817  0.7774 -0.6015
  625MOL0     H86190  11.934  10.571   8.521  1.3428 -1.7486  1.6022
  625MOL0     H86191  12.058  10.304   8.439 -2.4607 -1.8041 -0.0512
  625MOL0     H86192  11.988  10.349   8.592 -0.0206  0.8486 -0.3055
  625MOL0     H86193  12.233  10.469   8.487  0.5873 -3.2021 -1.8189
  625MOL0     H86194  12.154  10.492   8.651 -2.2219 -1.1431 -0.4395
  625MOL0     H86195  12.313  10.257   8.548 -1.7238 -1.6175 -1.0613
  625MOL0     H86196  12.168  10.237   8.656 -2.1571  1.4101 -0.1667
  625MOL0     H86197  12.404  10.412   8.745  0.5139  0.0246 -1.3208
  625MOL0     H86198  12.274  10.344   8.842 -0.6984 -2.2400 -0.0068
  625MOL0     H86199  12.249  10.065   8.792  0.3791  1.7402 -2.0806
  625MOL0     H86200  12.542   9.802   8.783 -0.6940  0.0999 -0.8539
  625MOL0     H86201  12.365   9.802   8.786 -0.5241  1.8167 -1.6752
  625MOL0     H86202  12.532   9.883   9.022 -0.9094 -1.0292 -0.0248
  625MOL0     H86203  12.362   9.831   9.023  0.4447 -1.6750  4.2631
  625MOL0     H86204  12.501   9.674   9.127  1.1647  1.1735 -0.4644
  625MOL0     H86205  12.434   9.609   8.986 -0.6368 -1.3778  2.1091
  625MOL0     H86206  12.663   9.617   8.866  1.9453  0.6340 -0.3600
  625MOL0     H86207  12.713   9.748   8.980 -1.4654  0.3943 -0.2778
  625MOL0     H86208  12.886   9.435   9.200  0.4175 -0.8446  0.8337
  625MOL0     H86209  13.120   9.539   9.465  2.7323  0.2205 -0.2060
  625MOL0     H86210  13.165   9.545   9.302 -0.0788 -0.2953 -0.3005
  625MOL0     H86211  13.065   9.404   9.361 -2.2373  0.8454  1.5955
  625MOL0     H86212  13.262   9.744   9.612 -1.0359  0.3472 -0.0286
  625MOL0     H86213  13.375   9.825   9.806 -0.1041 -3.3131 -0.4840
  625MOL0     H86214  13.454   9.845   9.974 -2.4065  0.1698 -3.9492
  625MOL0     H86215  13.389  10.006   9.973  0.9695  0.6843  1.2746
  625MOL0     H86216  13.491  10.022  10.192 -1.5224  0.5922  2.2291
  625MOL0     H86217  13.349   9.932  10.247  1.6554 -2.7068  2.3491
  625MOL0     H86218  13.602   9.779  10.183  0.9595 -1.4863  2.1493
  625MOL0     H86219  13.434   9.713  10.194  0.8890 -1.0362 -0.2640
  625MOL0     H86220  13.421   9.799  10.429  1.8556  1.8109  3.2095
  625MOL0     H86221  13.587   9.845  10.413 -1.9428  0.9455 -0.6370
  625MOL0     H86222  13.488   9.554  10.384 -0.1851  1.0289 -1.9731
  625MOL0     H86223  13.657   9.604  10.374 -1.1502 -0.0435 -0.8078
  625MOL0     H86224  13.493   9.644  10.621 -1.4183 -1.3339 -0.7642
  625MOL0     H86225  13.653   9.701  10.594  2.6498 -1.7049  0.3089
  625MOL0     H86226  13.674   9.411  10.530  0.9553 -0.3318  0.6489
  625MOL0     H86227  13.534   9.427  10.642 -1.5049  2.5361  2.6896
  625MOL0     H86228  13.732   9.364  10.746 -1.3335 -0.2563  0.7419
  625MOL0     H86229  13.702   9.525  10.806 -0.4833  1.2364 -1.7133
  625MOL0     H86230  12.996   9.813  10.016 -1.4298  2.7882 -1.4166
  625MOL0     H86231  12.885   9.759   9.824  0.7260  0.4940 -0.9701
  625MOL0     H86232  12.792   9.898   9.361  1.4591  1.4845 -4.4613
  625MOL0     H86233  12.665   9.808   9.195 -0.4755 -1.6433 -1.3041
  625MOL0     H86234  11.383  10.583   8.159 -1.1665  0.9078 -0.5043
  625MOL0     H86235  11.184  10.510   8.124  0.3214  1.7905 -1.3318
  625MOL0     H86236  10.917  10.182   8.145  0.7977  3.3984 -2.1631
  625MOL0     H86237  10.689  10.104   8.167  0.6864 -0.1663  0.0050
  625MOL0     H86238  10.415   9.859   7.958 -0.3349  2.9282 -0.0445
  625MOL0     H86239  10.585   9.802   7.934 -0.7335  0.8507 -1.6947
  625MOL0     H86240  10.618   9.813   8.182 -0.2119 -0.0529  1.7127
  625MOL0     H86241  10.484   9.704   8.127 -1.3575 -0.1662 -0.6990
  625MOL0     H86242  10.434   9.992   8.216 -1.4126 -0.0183  2.2117
  625MOL0     H86243  10.317   9.865   8.178  0.8652  0.4134 -4.1427
  625MOL0     H86244  10.532   9.860   8.390  0.6982 -1.6703 -1.6912
  625MOL0     H86245  10.400   9.741   8.373 -0.7490  0.0235 -2.2259
  625MOL0     H86246  10.202   9.981   8.631 -1.1790 -1.2717 -0.1800
  625MOL0     H86247  10.667  10.012   7.751 -1.8773  2.4254 -0.8514
  625MOL0     H86248  10.993   9.987   7.678 -1.8744 -2.4941  1.7265
  625MOL0     H86249  10.861  10.078   7.598 -1.5625  0.8809  0.8281
  625MOL0     H86250  10.991  10.174   7.668 -0.8312 -0.3965  1.3400
  626MOL0     O86251   6.636   8.032  11.069 -0.0417 -0.3855 -0.1383
  626MOL0     C86252   6.607   7.937  10.997  0.7554 -0.0326 -0.0192
  626MOL0     O86253   6.610   7.944  10.857  0.2982  0.0879  0.0669
  626MOL0     C86254   6.613   8.066  10.800  0.5811  0.4227  0.2354
  626MOL0     C86255   6.708   8.165  10.832 -0.8352  1.3367  0.8108
  626MOL0     C86256   6.723   8.289  10.771  0.6057  0.2488 -1.1127
  626MOL0     C86257   6.627   8.326  10.677 -0.5544  0.6696  0.3672
  626MOL0     O86258   6.651   8.448  10.621 -0.4904 -0.3646 -0.0687
  626MOL0     C86259   6.540   8.525  10.573 -0.9481  0.3258 -0.5398
  626MOL0     C86260   6.441   8.566  10.679 -0.3996  0.0901  0.2263
  626MOL0     C86261   6.524   8.644  10.790  0.0316  0.9307  0.6344
  626MOL0     C86262   6.448   8.743  10.869 -0.6090 -0.7022  0.4196
  626MOL0     C86263   6.547   8.824  10.951 -0.0864  0.1309  0.0751
  626MOL0     C86264   6.485   8.956  11.004  0.2834  0.2008 -0.1861
  626MOL0     C86265   6.576   9.022  11.115 -0.7786  0.2859 -0.0507
  626MOL0     C86266   6.514   9.146  11.161 -0.1874  1.3791 -0.0343
  626MOL0     N86267   6.605   9.201  11.258  0.1617  1.1107 -0.2853
  626MOL0     C86268   6.631   9.142  11.387  0.4098 -0.0343  0.3373
  626MOL0     C86269   6.733   9.207  11.446 -0.0873  0.4468  0.0960
  626MOL0     C86270   6.800   9.175  11.578  0.4283  0.4014  0.0321
  626MOL0     C86271   6.919   9.085  11.539  0.7146 -0.4371  0.0074
  626MOL0     C86272   7.042   9.114  11.454  0.2364  0.2304  0.9028
  626MOL0     C86273   7.174   9.141  11.542  0.1871  0.4844  0.2317
  626MOL0     O86274   7.223   9.042  11.633 -0.7392 -0.6123  0.7703
  626MOL0     C86275   7.345   8.977  11.630 -0.3160  0.5307  0.7619
  626MOL0     C86276   7.459   9.045  11.579  1.1692  0.1625 -0.7611
  626MOL0     C86277   7.584   8.985  11.573  0.6383 -0.6540 -0.5494
  626MOL0     C86278   7.686   9.064  11.499 -0.7422  0.4118  0.1076
  626MOL0     C86279   7.597   8.851  11.625 -0.4960  0.0475 -0.0231
  626MOL0     C86280   7.732   8.775  11.636 -0.1008 -0.3997  0.2593
  626MOL0     O86281   7.728   8.644  11.664 -0.1799  0.1926  0.7430
  626MOL0     C86282   7.846   8.579  11.674  1.1313 -0.0064  0.2409
  626MOL0     C86283   7.896   8.506  11.571  0.0134 -0.2294  0.7428
  626MOL0     C86284   8.007   8.413  11.582 -0.1897 -1.3998 -0.5035
  626MOL0     C86285   8.060   8.397  11.714 -0.2249  1.1183 -0.2323
  626MOL0     O86286   8.167   8.311  11.731 -0.5285 -0.3895  0.2523
  626MOL0     C86287   8.133   8.172  11.731  0.0931  0.0100  0.0439
  626MOL0     C86288   8.260   8.088  11.720  0.9949  0.2102  0.1154
  626MOL0     C86289   8.369   8.111  11.832  0.7780 -0.7692 -0.4225
  626MOL0     C86290   8.495   8.037  11.810  0.4415 -0.2515  0.7159
  626MOL0     C86291   8.624   8.101  11.852  0.8134 -0.4870 -0.4106
  626MOL0     C86292   8.637   8.179  11.992  0.6183  0.5352 -0.1123
  626MOL0     C86293   8.763   8.266  11.989 -0.0273 -0.2003  0.4496
  626MOL0     C86294   8.888   8.187  12.031  0.0737  0.6261  0.2965
  626MOL0    Cl86295   8.892   8.173  12.213  0.1789  0.4934  0.2915
  626MOL0     C86296   8.005   8.470  11.821 -0.0398 -0.2057  1.1699
  626MOL0     C86297   7.902   8.561  11.803  0.5936  0.0727  0.2990
  626MOL0     O86298   7.843   8.834  11.617 -0.5567 -0.5037 -0.1097
  626MOL0     C86299   7.486   8.790  11.675  0.3328 -0.1566  0.3128
  626MOL0     C86300   7.365   8.851  11.690  0.6205 -1.5301  0.0205
  626MOL0     N86301   6.763   9.316  11.363 -0.3096  0.1995 -0.5530
  626MOL0     N86302   6.701   9.301  11.250  0.8493 -0.2013  0.1984
  626MOL0     C86303   6.525   8.236  10.654  0.1957 -0.0713  0.1620
  626MOL0     C86304   6.517   8.110  10.716  0.0337 -1.5371 -0.2749
  626MOL0     C86305   6.556   7.815  11.060 -0.4436  0.0055 -0.0449
  626MOL0     C86306   6.519   7.704  10.979 -0.4490 -0.6628  0.0087
  626MOL0     C86307   6.486   7.575  11.026 -0.6812  0.5660 -0.2663
  626MOL0     C86308   6.498   7.548  11.160  0.1969 -0.2183  1.0464
  626MOL0     O86309   6.471   7.420  11.199 -0.1104  0.0850  0.2850
  626MOL0     C86310   6.492   7.364  11.336  0.4494 -0.3453  0.2431
  626MOL0     C86311   6.367   7.381  11.414  1.0548 -0.6553  0.1021
  626MOL0     C86312   6.246   7.328  11.336 -0.7982 -0.0645 -0.8285
  626MOL0     C86313   6.173   7.244  11.430 -0.3189  1.0467 -0.4403
  626MOL0     C86314   6.042   7.219  11.370 -0.5696  0.5171  0.7282
  626MOL0     C86315   5.937   7.203  11.313  0.1789 -0.7137 -0.7513
  626MOL0     C86316   6.531   7.652  11.250  0.1508 -0.0750  0.4121
  626MOL0     C86317   6.563   7.778  11.193 -0.4371 -0.7019 -0.9066
  626MOL0     C86318   6.628   7.873  11.289 -0.1972 -0.2000 -0.0269
  626MOL0     H86319   6.771   8.136  10.915 -1.4831 -1.3968  0.4492
  626MOL0     H86320   6.794   8.364  10.803 -1.1742  1.1996  0.8480
  626MOL0     H86321   6.488   8.478  10.489  1.1354 -0.4785 -1.4616
  626MOL0     H86322   6.594   8.612  10.537  3.6308 -1.9146  0.1703
  626MOL0     H86323   6.370   8.633  10.629 -0.5540  0.6334  1.1384
  626MOL0     H86324   6.401   8.480  10.734 -0.4485  0.6896  1.1586
  626MOL0     H86325   6.545   8.563  10.861 -2.4945 -0.0565  0.3667
  626MOL0     H86326   6.614   8.693  10.753  0.4754 -0.8594 -0.8127
  626MOL0     H86327   6.388   8.807  10.803  0.9589  1.5487  1.0683
  626MOL0     H86328   6.371   8.689  10.926 -0.9806 -2.0886 -1.3023
  626MOL0     H86329   6.646   8.838  10.907  0.2979 -1.3538  0.3833
  626MOL0     H86330   6.561   8.755  11.035 -1.1253 -1.1055 -0.7373
  626MOL0     H86331   6.460   9.031  10.928 -1.8155  2.3122  2.4220
  626MOL0     H86332   6.387   8.924  11.039  0.1173 -0.1597 -0.9596
  626MOL0     H86333   6.670   9.052  11.070 -1.6442  1.7178 -0.9650
  626MOL0     H86334   6.601   8.960  11.202  1.7013  1.1299 -0.0974
  626MOL0     H86335   6.498   9.211  11.075  2.2627  2.2002  0.0793
  626MOL0     H86336   6.415   9.126  11.205 -0.0633 -4.7580 -1.6174
  626MOL0     H86337   6.593   9.048  11.425  2.5607 -1.1426 -0.0437
  626MOL0     H86338   6.725   9.139  11.650 -0.1941  1.1710 -0.2154
  626MOL0     H86339   6.822   9.267  11.632  0.3315 -0.5759  1.8442
  626MOL0     H86340   6.952   9.047  11.636 -0.1366 -0.4428  0.3090
  626MOL0     H86341   6.867   9.004  11.487 -0.9749 -0.0678  1.0360
  626MOL0     H86342   7.055   9.027  11.390 -0.9248 -0.7721  1.9675
  626MOL0     H86343   7.019   9.201  11.391  1.5609  1.2021  1.7255
  626MOL0     H86344   7.252   9.167  11.470 -0.8252 -0.9043 -1.4454
  626MOL0     H86345   7.143   9.227  11.602  0.2351  0.9046 -0.3399
  626MOL0     H86346   7.444   9.148  11.547 -3.0747  0.5827  1.6892
  626MOL0     H86347   7.717   9.011  11.409  2.3751 -0.2605  1.4614
  626MOL0     H86348   7.772   9.060  11.566 -1.5253 -5.2763  1.3023
  626MOL0     H86349   7.652   9.167  11.484 -0.4498  0.0506 -4.5073
  626MOL0     H86350   7.847   8.522  11.476 -0.0026  0.7832  0.9094
  626MOL0     H86351   8.065   8.360  11.507  0.6966  0.5358 -1.2541
  626MOL0     H86352   8.083   8.147  11.825  0.7376  2.1099  1.0130
  626MOL0     H86353   8.065   8.149  11.649  0.1138  1.6038 -0.4597
  626MOL0     H86354   8.222   7.986  11.727 -2.8357  1.1986 -2.5241
  626MOL0     H86355   8.310   8.099  11.623 -0.6812  0.0372 -0.8222
  626MOL0     H86356   8.327   8.077  11.928 -2.0499 -1.2848 -1.7268
  626MOL0     H86357   8.381   8.219  11.842  1.4072 -0.8902  0.2252
  626MOL0     H86358   8.502   8.022  11.702  1.0125 -1.2601  0.8776
  626MOL0     H86359   8.483   7.941  11.862 -0.1226  0.3382  1.7194
  626MOL0     H86360   8.703   8.025  11.847 -0.2798 -1.7158  0.2927
  626MOL0     H86361   8.632   8.178  11.775 -0.6515  1.3503  1.1596
  626MOL0     H86362   8.632   8.107  12.074 -3.8826  0.2467 -0.3906
  626MOL0     H86363   8.549   8.245  11.996  1.1152  1.4096 -2.4099
  626MOL0     H86364   8.748   8.334  12.074  0.4735 -0.9236  1.1312
  626MOL0     H86365   8.786   8.314  11.893 -4.0892  0.9619 -0.1377
  626MOL0     H86366   8.974   8.231  11.980  0.3127 -0.1166  0.0549
  626MOL0     H86367   8.893   8.085  11.994  2.8310 -0.4993  3.2250
  626MOL0     H86368   8.033   8.441  11.922 -2.9247 -0.9697  1.8349
  626MOL0     H86369   7.860   8.622  11.882 -0.4094  1.4835 -1.2463
  626MOL0     H86370   7.504   8.690  11.714 -0.1285 -0.5416 -0.4544
  626MOL0     H86371   7.291   8.797  11.749  1.3490 -0.4532  1.9931
  626MOL0     H86372   6.448   8.265  10.582  0.4045 -1.7185 -0.7683
  626MOL0     H86373   6.440   8.041  10.683 -0.2780  0.0497 -3.2297
  626MOL0     H86374   6.507   7.703  10.871 -0.2526 -1.4383 -0.0186
  626MOL0     H86375   6.448   7.507  10.950  0.7261  0.7671 -1.1944
  626MOL0     H86376   6.510   7.257  11.319  3.0931 -0.0326  0.6060
  626MOL0     H86377   6.578   7.412  11.382  0.0701 -0.3869  0.9987
  626MOL0     H86378   6.353   7.486  11.441  1.7623 -0.6802  0.5752
  626MOL0     H86379   6.379   7.327  11.508 -1.8375  0.3786  1.1797
  626MOL0     H86380   6.180   7.408  11.301 -3.5386 -2.5392 -1.8505
  626MOL0     H86381   6.282   7.274  11.248 -0.0311 -1.2519  0.1752
  626MOL0     H86382   6.150   7.306  11.517 -3.2132  0.2227 -0.5089
  626MOL0     H86383   6.229   7.155  11.460 -0.9636  0.0763 -1.9629
  626MOL0     H86384   5.836   7.207  11.275 -0.0607  3.9769 -0.2809
  626MOL0     H86385   6.550   7.638  11.356  0.1312 -1.2395  0.2777
  626MOL0     H86386   6.651   7.823  11.384  1.9000 -1.2729 -1.0280
  626MOL0     H86387   6.725   7.910  11.253 -1.2971  2.5033 -0.4515
  626MOL0     H86388   6.568   7.963  11.302 -0.1565 -0.3185  1.0844
  627MOL0     O86389   2.866   1.789   1.675 -0.3521 -0.2506 -0.6135
  627MOL0     C86390   2.838   1.703   1.591 -0.2512  0.3174  0.0785
  627MOL0     O86391   2.882   1.710   1.465  0.2131  0.6563 -0.2098
  627MOL0     C86392   3.005   1.758   1.436 -1.0523 -0.2195 -0.0134
  627MOL0     C86393   3.099   1.821   1.524 -0.3054  0.2231 -0.0169
  627MOL0     C86394   3.229   1.842   1.486 -0.5989  0.0137 -0.0998
  627MOL0     C86395   3.253   1.832   1.347 -0.0156 -0.2378 -0.1436
  627MOL0     O86396   3.375   1.882   1.315 -0.6985 -0.4974  0.1541
  627MOL0     C86397   3.453   1.826   1.211 -0.1392  0.0701  0.3087
  627MOL0     C86398   3.591   1.892   1.214 -0.8456 -0.9249 -0.1341
  627MOL0     C86399   3.693   1.797   1.159 -0.2867  0.2578 -0.1610
  627MOL0     C86400   3.828   1.859   1.125 -1.1418 -0.1214  0.5611
  627MOL0     C86401   3.929   1.741   1.084  0.2766  0.3955 -0.2877
  627MOL0     C86402   4.051   1.798   0.996  0.5700 -0.3920 -0.2393
  627MOL0     C86403   4.142   1.692   0.942 -0.0188 -1.0126  0.2685
  627MOL0     C86404   4.242   1.759   0.851 -0.6358  0.3402  0.9560
  627MOL0     N86405   4.345   1.831   0.925 -0.1326 -0.0568  0.5058
  627MOL0     C86406   4.341   1.960   0.967 -0.3787 -0.6894 -0.0162
  627MOL0     C86407   4.461   1.989   1.024 -1.1444  0.5001  0.1019
  627MOL0     C86408   4.508   2.111   1.096  1.1278  0.3930  0.0542
  627MOL0     C86409   4.637   2.164   1.041  0.1931 -0.8279 -0.6602
  627MOL0     C86410   4.691   2.283   1.124 -0.6699 -0.4442 -0.2128
  627MOL0     C86411   4.804   2.363   1.047  0.0457  0.4645 -0.7756
  627MOL0     O86412   4.918   2.284   1.021  0.5003 -0.3028  0.5114
  627MOL0     C86413   5.008   2.252   1.120  0.1490 -0.7573  1.2159
  627MOL0     C86414   5.000   2.295   1.258 -0.2226  0.0443 -0.6679
  627MOL0     C86415   5.093   2.257   1.355 -0.7875  0.3332  0.4633
  627MOL0     C86416   5.074   2.303   1.495  0.3152  0.7137  0.3405
  627MOL0     C86417   5.212   2.182   1.309  0.1592 -0.1732 -0.1524
  627MOL0     C86418   5.324   2.147   1.398  0.4851  0.5828 -0.6578
  627MOL0     O86419   5.435   2.100   1.343  0.1393  0.3184  1.1953
  627MOL0     C86420   5.514   2.003   1.403 -0.2957 -0.0639  0.5523
  627MOL0     C86421   5.612   2.028   1.488 -0.1891 -0.0945 -0.1981
  627MOL0     C86422   5.711   1.947   1.534  0.1187 -0.9268 -0.0219
  627MOL0     C86423   5.709   1.816   1.486 -0.8156 -0.4212  0.5795
  627MOL0     O86424   5.814   1.737   1.525  0.0003  0.0009 -0.3852
  627MOL0     C86425   5.783   1.597   1.529 -0.7899 -0.4021  0.7704
  627MOL0     C86426   5.891   1.533   1.602  0.2656  0.8683 -0.3932
  627MOL0     C86427   5.868   1.385   1.619  1.0715 -0.0022  0.9536
  627MOL0     C86428   5.971   1.314   1.693  0.0859 -0.8592 -0.3170
  627MOL0     C86429   5.968   1.159   1.692 -0.3025  0.6106 -0.5096
  627MOL0     C86430   6.033   1.092   1.814  0.3965 -0.3298  0.5902
  627MOL0     C86431   6.026   0.938   1.817 -0.3385  0.0168 -0.1024
  627MOL0     C86432   6.083   0.863   1.695  0.1092 -0.2716  0.6600
  627MOL0    Cl86433   6.062   0.688   1.718  0.2123 -0.0367 -0.0752
  627MOL0     C86434   5.615   1.785   1.382 -1.2166 -0.4541  0.7364
  627MOL0     C86435   5.518   1.874   1.347 -1.1127 -0.4388  0.0734
  627MOL0     O86436   5.293   2.126   1.515 -0.1338 -0.2814 -0.4042
  627MOL0     C86437   5.222   2.161   1.165  0.4009  0.1607 -0.2920
  627MOL0     C86438   5.114   2.178   1.076  0.0790  0.3749  0.0288
  627MOL0     N86439   4.530   1.874   1.026  0.1064 -0.1090 -0.5327
  627MOL0     N86440   4.460   1.778   0.970 -0.6147 -0.4938 -0.2572
  627MOL0     C86441   3.160   1.780   1.257 -0.7733  0.0959  0.0973
  627MOL0     C86442   3.035   1.738   1.302  0.3319  0.2625  0.2563
  627MOL0     C86443   2.729   1.602   1.626  0.4650 -0.5060  0.7305
  627MOL0     C86444   2.656   1.611   1.747 -0.1892  0.3964  0.7178
  627MOL0     C86445   2.560   1.514   1.780  0.4293  0.1197 -0.2705
  627MOL0     C86446   2.545   1.393   1.709  0.5865 -0.7388 -1.1359
  627MOL0     O86447   2.443   1.312   1.743  0.4315 -0.0150 -0.3182
  627MOL0     C86448   2.418   1.185   1.683 -0.4308 -0.3357  0.4333
  627MOL0     C86449   2.462   1.073   1.770 -0.2380  0.3487 -0.2673
  627MOL0     C86450   2.608   1.055   1.771 -0.1004  0.4941  0.0689
  627MOL0     C86451   2.645   0.957   1.888 -0.0072 -0.1286 -0.7626
  627MOL0     C86452   2.648   1.010   2.031 -0.0256 -0.6519 -0.1351
  627MOL0     C86453   2.659   1.060   2.140 -0.3861 -0.0991  0.0387
  627MOL0     C86454   2.625   1.384   1.598 -0.9062  0.1196 -0.1736
  627MOL0     C86455   2.708   1.485   1.548 -1.4394 -1.4662 -0.4210
  627MOL0     C86456   2.782   1.446   1.412  0.4354 -0.3450  0.2415
  627MOL0     H86457   3.071   1.837   1.628 -1.2089  1.2918 -0.4039
  627MOL0     H86458   3.302   1.883   1.555 -0.7607  1.4715 -0.7400
  627MOL0     H86459   3.401   1.852   1.118  1.2816  3.5661  0.3441
  627MOL0     H86460   3.466   1.718   1.224 -2.7259 -0.6500 -1.9228
  627MOL0     H86461   3.587   1.984   1.154 -0.2987 -0.1048  1.0491
  627MOL0     H86462   3.610   1.913   1.320  1.9645 -2.0926 -0.3298
  627MOL0     H86463   3.718   1.724   1.236 -1.9115  0.4573  0.5749
  627MOL0     H86464   3.650   1.747   1.071 -0.6413  2.7017 -1.4581
  627MOL0     H86465   3.797   1.933   1.051 -1.9541  1.1418  2.1021
  627MOL0     H86466   3.876   1.918   1.204 -0.2397 -1.5711  1.1320
  627MOL0     H86467   3.867   1.678   1.020 -1.3631 -1.0138  2.5118
  627MOL0     H86468   3.955   1.685   1.174 -0.1797  2.6481  1.3344
  627MOL0     H86469   4.004   1.851   0.912 -0.0362  0.6847  0.7524
  627MOL0     H86470   4.103   1.875   1.053  1.4809 -1.2061  0.0521
  627MOL0     H86471   4.087   1.615   0.888  1.3712 -1.4691 -0.5239
  627MOL0     H86472   4.195   1.643   1.024 -1.4933 -2.6512  0.3043
  627MOL0     H86473   4.285   1.683   0.785 -2.5091  1.4022 -1.6714
  627MOL0     H86474   4.199   1.829   0.780  0.4566  0.3200  0.2458
  627MOL0     H86475   4.256   2.027   0.958 -0.4961 -0.7541  0.5535
  627MOL0     H86476   4.522   2.086   1.202 -0.5599  2.7883  0.9313
  627MOL0     H86477   4.437   2.194   1.105  1.5813  0.7568  0.3719
  627MOL0     H86478   4.710   2.083   1.040  0.6219 -0.4643 -2.6259
  627MOL0     H86479   4.612   2.200   0.941 -1.7595  2.2007  0.7526
  627MOL0     H86480   4.610   2.349   1.156 -1.5835 -1.7736  0.2986
  627MOL0     H86481   4.726   2.239   1.218 -2.6785 -0.3273  0.6375
  627MOL0     H86482   4.771   2.408   0.953  0.0710 -1.6441 -1.8513
  627MOL0     H86483   4.819   2.449   1.113  0.4259  0.1580 -0.4567
  627MOL0     H86484   4.926   2.368   1.290  0.3401  0.7994 -1.0708
  627MOL0     H86485   5.163   2.350   1.539  0.4983 -0.8132  1.6866
  627MOL0     H86486   5.060   2.221   1.566 -0.0614  1.4156  1.0977
  627MOL0     H86487   4.989   2.368   1.514 -0.8782 -0.8643  0.5887
  627MOL0     H86488   5.617   2.125   1.536  3.0030 -0.9187  1.3903
  627MOL0     H86489   5.782   1.975   1.611  1.4604 -0.1946 -1.4821
  627MOL0     H86490   5.690   1.572   1.580 -0.4756  0.4090  1.7671
  627MOL0     H86491   5.767   1.554   1.429 -0.8683  1.1935  0.0683
  627MOL0     H86492   5.987   1.554   1.553 -0.4766 -1.4737 -3.1520
  627MOL0     H86493   5.896   1.565   1.706  0.3985  0.5860 -0.3124
  627MOL0     H86494   5.856   1.335   1.523  1.3901  0.9986  0.3764
  627MOL0     H86495   5.775   1.375   1.676 -0.5968  0.0934 -1.6269
  627MOL0     H86496   5.979   1.346   1.797  0.9182  0.3419 -0.7364
  627MOL0     H86497   6.066   1.353   1.657 -0.6050 -0.2452 -1.5442
  627MOL0     H86498   5.865   1.122   1.687  0.1586 -0.8679  0.1645
  627MOL0     H86499   6.024   1.128   1.603 -0.7861 -3.6573  0.4573
  627MOL0     H86500   5.982   1.135   1.900  0.2862  1.0473 -0.1287
  627MOL0     H86501   6.132   1.133   1.837  0.0308  0.0499  1.5068
  627MOL0     H86502   5.922   0.908   1.835  0.4730 -2.8258  0.3034
  627MOL0     H86503   6.076   0.918   1.912 -4.5214 -1.1845  2.1076
  627MOL0     H86504   6.188   0.891   1.681 -0.0204 -1.1946 -3.4549
  627MOL0     H86505   6.033   0.877   1.599  0.6753  1.4465  0.5933
  627MOL0     H86506   5.611   1.686   1.337 -0.0775 -0.6278  0.9746
  627MOL0     H86507   5.458   1.848   1.260  0.7821  3.0924 -2.5708
  627MOL0     H86508   5.317   2.126   1.125  0.5950  0.3803 -0.0322
  627MOL0     H86509   5.115   2.158   0.969 -3.2248  1.7334 -0.3753
  627MOL0     H86510   3.184   1.761   1.153 -0.6647  0.9777 -0.0431
  627MOL0     H86511   2.962   1.700   1.232 -1.3974 -0.1242  2.1806
  627MOL0     H86512   2.670   1.700   1.808  1.9158  0.0599  0.7848
  627MOL0     H86513   2.498   1.554   1.860  0.6053  3.2699 -1.5411
  627MOL0     H86514   2.309   1.179   1.678 -0.2910 -3.8125 -1.4901
  627MOL0     H86515   2.454   1.193   1.580 -1.5859  0.8497  0.0983
  627MOL0     H86516   2.412   0.982   1.735 -0.5177  0.1513  0.6146
  627MOL0     H86517   2.425   1.086   1.872  2.2143 -0.6812  0.8383
  627MOL0     H86518   2.639   1.018   1.673 -1.1316  2.0364 -0.8908
  627MOL0     H86519   2.653   1.152   1.796 -0.8122  0.6405  0.8334
  627MOL0     H86520   2.745   0.913   1.873 -0.2944 -0.7371 -0.9356
  627MOL0     H86521   2.579   0.870   1.879  0.8997 -0.8951 -0.2016
  627MOL0     H86522   2.679   1.091   2.240 -0.2282 -1.3471  0.4215
  627MOL0     H86523   2.632   1.295   1.536  0.4380 -0.6709  1.0462
  627MOL0     H86524   2.730   1.361   1.368 -1.2543 -0.6283  2.5579
  627MOL0     H86525   2.783   1.528   1.340  0.7953  0.4662  1.1459
  627MOL0     H86526   2.881   1.401   1.425  0.7610 -0.5325 -2.3410
  628MOL0     O86527   9.434   3.214   3.751  0.6581 -0.2167 -0.3903
  628MOL0     C86528   9.406   3.330   3.803 -0.1656  0.3756  0.1854
  628MOL0     O86529   9.457   3.446   3.767 -0.4376 -0.4210  0.0893
  628MOL0     C86530   9.567   3.434   3.682 -0.0049 -0.1348  0.2838
  628MOL0     C86531   9.695   3.414   3.738  0.1860  0.5701  0.6606
  628MOL0     C86532   9.810   3.417   3.658  0.6567  0.8360 -0.1651
  628MOL0     C86533   9.795   3.436   3.523  0.1404 -0.6050 -0.1594
  628MOL0     O86534   9.883   3.413   3.419 -0.0304  0.4851  0.6052
  628MOL0     C86535   9.983   3.310   3.447  0.4102  0.9352  0.3903
  628MOL0     C86536  10.077   3.300   3.316 -0.8758  0.3255  0.0124
  628MOL0     C86537  10.217   3.370   3.342 -0.0274 -0.1872 -0.1831
  628MOL0     C86538  10.322   3.302   3.427 -0.0204  0.7357  0.0782
  628MOL0     C86539  10.457   3.371   3.430  0.9556  0.9417 -0.1882
  628MOL0     C86540  10.537   3.383   3.305 -0.1098 -0.5427 -0.1197
  628MOL0     C86541  10.673   3.437   3.351 -0.8752  0.3026 -0.2233
  628MOL0     C86542  10.768   3.433   3.227 -0.8981 -0.0389 -0.9496
  628MOL0     N86543  10.891   3.517   3.255  0.6366  0.2118 -0.2853
  628MOL0     C86544  10.908   3.653   3.212  1.3999  0.3404 -0.0874
  628MOL0     C86545  11.029   3.687   3.257  0.3547 -0.1869 -0.5720
  628MOL0     C86546  11.106   3.815   3.235  0.1272  0.6809  0.1525
  628MOL0     C86547  11.257   3.795   3.234  0.2882 -1.4107  0.0516
  628MOL0     C86548  11.345   3.909   3.188 -0.0057 -0.3585  0.1035
  628MOL0     C86549  11.491   3.909   3.252 -0.1722 -0.0506  0.4848
  628MOL0     O86550  11.493   3.987   3.370 -0.0845 -0.2259  0.0569
  628MOL0     C86551  11.612   4.039   3.401 -0.1187  0.1506 -0.1498
  628MOL0     C86552  11.611   4.153   3.480 -0.6341 -0.4679  1.0481
  628MOL0     C86553  11.724   4.213   3.526 -0.6830  0.0199  0.5093
  628MOL0     C86554  11.698   4.337   3.615  0.0544 -0.2661  0.3181
  628MOL0     C86555  11.851   4.163   3.485  0.4355 -0.1303  0.0706
  628MOL0     C86556  11.980   4.220   3.528  0.5229  0.0247 -0.1412
  628MOL0     O86557  11.996   4.255   3.658  0.0744  0.7818 -0.3630
  628MOL0     C86558  12.110   4.299   3.704 -0.9339 -0.3884 -0.9414
  628MOL0     C86559  12.196   4.395   3.644 -1.4514  0.0341  0.9447
  628MOL0     C86560  12.310   4.453   3.698  0.2596 -0.3742 -0.2968
  628MOL0     C86561  12.353   4.395   3.822 -0.0870 -0.2769  0.6597
  628MOL0     O86562  12.472   4.441   3.886  0.1868  0.9235 -0.8050
  628MOL0     C86563  12.561   4.513   3.809  0.3651  0.2782  1.0998
  628MOL0     C86564  12.678   4.548   3.899  0.7488  0.3268 -0.2271
  628MOL0     C86565  12.635   4.596   4.029 -0.2742  0.3657 -0.7794
  628MOL0     C86566  12.756   4.674   4.088  0.0544 -0.4927 -0.5546
  628MOL0     C86567  12.726   4.749   4.210 -0.4640 -0.2373  0.4204
  628MOL0     C86568  12.613   4.851   4.182 -0.3770  0.0574 -0.1487
  628MOL0     C86569  12.578   4.935   4.302  0.3606 -0.5953  0.3979
  628MOL0     C86570  12.440   4.992   4.297 -0.0568  0.2415  0.6849
  628MOL0    Cl86571  12.447   5.143   4.391 -0.0893  0.4571 -0.0170
  628MOL0     C86572  12.267   4.306   3.888  0.3813 -0.3044 -0.3705
  628MOL0     C86573  12.149   4.265   3.837 -0.0327  0.2805  0.3429
  628MOL0     O86574  12.067   4.216   3.447  0.1631 -0.3038 -0.1049
  628MOL0     C86575  11.851   4.047   3.399 -0.5263 -1.0686  0.1570
  628MOL0     C86576  11.736   3.990   3.358  0.3628  0.0416  0.7281
  628MOL0     N86577  11.075   3.588   3.347  0.4985  0.1584 -0.2489
  628MOL0     N86578  10.993   3.479   3.331  0.4571  0.7556  0.7101
  628MOL0     C86579   9.663   3.438   3.470 -0.3368 -0.0043 -0.5492
  628MOL0     C86580   9.552   3.450   3.547  1.1600  0.1155  0.2515
  628MOL0     C86581   9.308   3.342   3.921 -0.3955 -0.7833  0.5233
  628MOL0     C86582   9.337   3.449   4.008 -0.8301 -0.2722  0.4579
  628MOL0     C86583   9.273   3.470   4.126  0.5912 -0.1960 -0.3168
  628MOL0     C86584   9.180   3.379   4.180  0.4895 -0.2271  0.4238
  628MOL0     O86585   9.121   3.391   4.306 -0.2401  0.0206  0.8767
  628MOL0     C86586   9.157   3.503   4.403  0.2566  0.6823  0.2294
  628MOL0     C86587   9.088   3.632   4.346  0.3600 -0.0601  0.3631
  628MOL0     C86588   8.938   3.616   4.354 -0.4606  0.4772  0.3810
  628MOL0     C86589   8.873   3.753   4.330  0.2904 -0.7948 -0.1694
  628MOL0     C86590   8.733   3.735   4.318 -0.1254 -0.9324  0.1012
  628MOL0     C86591   8.615   3.698   4.334  0.1662 -0.6891  0.4103
  628MOL0     C86592   9.149   3.276   4.096  0.4388  0.4388 -0.1192
  628MOL0     C86593   9.205   3.255   3.963  0.2585 -0.0520 -1.0302
  628MOL0     C86594   9.156   3.138   3.887 -0.6430  0.6433  0.3393
  628MOL0     H86595   9.710   3.408   3.845  1.3059 -4.8627  0.5136
  628MOL0     H86596   9.903   3.389   3.705 -0.1565  0.9380  1.6019
  628MOL0     H86597   9.931   3.215   3.461 -1.7087  2.1914  1.5271
  628MOL0     H86598  10.041   3.331   3.537  1.7149 -1.0223  0.0639
  628MOL0     H86599  10.093   3.192   3.302 -0.9501  0.4546 -1.1547
  628MOL0     H86600  10.023   3.336   3.229 -3.8119  0.5775  1.8002
  628MOL0     H86601  10.260   3.372   3.242  2.1647  1.0325  0.7184
  628MOL0     H86602  10.213   3.476   3.365  1.5382  0.4175 -2.3806
  628MOL0     H86603  10.283   3.285   3.528 -0.9143  1.0399 -0.2081
  628MOL0     H86604  10.326   3.198   3.394 -0.8445 -0.5524  3.5882
  628MOL0     H86605  10.517   3.311   3.499  1.7349 -0.4020 -1.9544
  628MOL0     H86606  10.444   3.465   3.484 -0.0490 -0.1592  1.5858
  628MOL0     H86607  10.544   3.284   3.258 -0.2435 -0.4943 -0.2430
  628MOL0     H86608  10.477   3.446   3.239 -0.4291 -2.3232 -1.6070
  628MOL0     H86609  10.711   3.374   3.432 -3.0669 -2.3176 -1.0957
  628MOL0     H86610  10.661   3.539   3.389 -3.5389 -0.5726  1.5664
  628MOL0     H86611  10.800   3.329   3.219  0.9173  0.4044 -0.1915
  628MOL0     H86612  10.720   3.469   3.135 -0.1721  1.3776 -0.7997
  628MOL0     H86613  10.862   3.709   3.132 -0.9489 -0.6930  0.4674
  628MOL0     H86614  11.082   3.886   3.314  2.5320 -0.4714  2.0613
  628MOL0     H86615  11.076   3.853   3.137  0.6189  0.7583  0.0275
  628MOL0     H86616  11.293   3.772   3.334 -0.9239  1.8966  1.3921
  628MOL0     H86617  11.285   3.704   3.180  0.2557 -0.8986 -0.8571
  628MOL0     H86618  11.359   3.906   3.079  1.2577 -3.7526  0.2198
  628MOL0     H86619  11.293   4.002   3.211  1.2199  0.7496 -1.3582
  628MOL0     H86620  11.526   3.807   3.266  2.8386  0.8925  0.5915
  628MOL0     H86621  11.560   3.939   3.173  0.9444  1.2178  1.8897
  628MOL0     H86622  11.515   4.197   3.509 -1.6552 -2.6508  1.1699
  628MOL0     H86623  11.770   4.416   3.593  2.5451 -2.8699 -1.6963
  628MOL0     H86624  11.700   4.309   3.721  1.4282  0.5838  0.5443
  628MOL0     H86625  11.597   4.372   3.593  0.8795  1.8963 -0.2465
  628MOL0     H86626  12.171   4.434   3.546  2.0844  2.3236  0.7560
  628MOL0     H86627  12.355   4.536   3.644  2.3817 -2.2377 -1.6074
  628MOL0     H86628  12.586   4.442   3.729  1.2168 -0.6430  2.1581
  628MOL0     H86629  12.509   4.602   3.772 -3.5641 -1.4356  2.0076
  628MOL0     H86630  12.734   4.454   3.910  0.9290  0.2787 -1.4073
  628MOL0     H86631  12.736   4.625   3.847  1.5540  1.7648  2.6034
  628MOL0     H86632  12.615   4.512   4.097  2.7815  0.0355 -0.0953
  628MOL0     H86633  12.544   4.653   4.009 -2.1226 -1.9616  0.5110
  628MOL0     H86634  12.801   4.733   4.008 -0.8496 -0.7423 -1.2569
  628MOL0     H86635  12.836   4.602   4.112  0.7022  0.3238 -0.1807
  628MOL0     H86636  12.683   4.694   4.294  2.1523 -1.1915  1.2128
  628MOL0     H86637  12.819   4.795   4.246  0.8107 -2.1477 -0.2863
  628MOL0     H86638  12.522   4.801   4.145  1.6305 -3.2308 -1.0623
  628MOL0     H86639  12.651   4.914   4.101  0.4930 -0.7615 -0.3969
  628MOL0     H86640  12.652   5.014   4.309  1.3066 -1.3189 -0.9295
  628MOL0     H86641  12.591   4.880   4.395  0.0224 -1.5315 -0.0919
  628MOL0     H86642  12.361   4.930   4.340 -0.0033 -0.9349 -0.8294
  628MOL0     H86643  12.415   5.019   4.194  0.2384 -0.2135  0.4934
  628MOL0     H86644  12.300   4.259   3.980  1.0948  0.1164 -0.4059
  628MOL0     H86645  12.087   4.194   3.891 -1.3102 -0.3916 -1.9018
  628MOL0     H86646  11.947   4.002   3.378  2.4208  3.1476  2.9534
  628MOL0     H86647  11.738   3.896   3.304  0.2486 -0.5079  1.6614
  628MOL0     H86648   9.654   3.438   3.362 -1.7455 -1.7359 -0.4701
  628MOL0     H86649   9.468   3.506   3.506  0.9342  0.7593  1.5457
  628MOL0     H86650   9.415   3.518   3.979 -1.6144  0.3554 -0.2411
  628MOL0     H86651   9.303   3.562   4.175  1.8513  0.9833 -3.0808
  628MOL0     H86652   9.119   3.472   4.500  1.3137 -2.0798 -0.1402
  628MOL0     H86653   9.264   3.522   4.415 -0.3170  2.8794  2.7319
  628MOL0     H86654   9.113   3.641   4.240  0.0964 -0.9555  0.2170
  628MOL0     H86655   9.120   3.716   4.409 -0.8552  0.1123  0.7775
  628MOL0     H86656   8.909   3.551   4.270  2.1256 -1.9038  1.1972
  628MOL0     H86657   8.904   3.583   4.452  1.2347  1.2999  1.2855
  628MOL0     H86658   8.919   3.798   4.242  0.4095  0.0994  0.3385
  628MOL0     H86659   8.895   3.821   4.413  2.2059 -0.9717 -0.4796
  628MOL0     H86660   8.512   3.673   4.350 -0.4236  0.7822 -0.9008
  628MOL0     H86661   9.073   3.210   4.137  1.5502  0.1619  1.5801
  628MOL0     H86662   9.190   3.051   3.944  2.3656  0.5135 -1.4230
  628MOL0     H86663   9.047   3.130   3.882 -0.7636  1.3018  1.6685
  628MOL0     H86664   9.190   3.141   3.783 -0.3128  0.2090  0.4304
  629MOL0     O86665   6.342   4.472   3.738  0.0857 -0.0533 -1.0802
  629MOL0     C86666   6.331   4.498   3.858 -0.5539 -0.0109 -0.6504
  629MOL0     O86667   6.395   4.603   3.931  0.7951  0.3095  0.1438
  629MOL0     C86668   6.450   4.697   3.857  0.1820 -0.2832  0.1419
  629MOL0     C86669   6.384   4.807   3.809 -0.6701 -0.2129 -0.0902
  629MOL0     C86670   6.462   4.906   3.741  0.1963 -0.0308 -0.0874
  629MOL0     C86671   6.591   4.877   3.704 -0.5121 -0.5178  0.6410
  629MOL0     O86672   6.681   4.965   3.634  0.5282  0.6422  0.2894
  629MOL0     C86673   6.639   5.088   3.590  0.0199  0.1055  0.4348
  629MOL0     C86674   6.758   5.188   3.565 -0.1670  0.6216  0.6593
  629MOL0     C86675   6.812   5.241   3.702 -0.4623 -0.8749  1.2037
  629MOL0     C86676   6.885   5.371   3.668 -0.9285 -0.6330  0.3866
  629MOL0     C86677   6.973   5.432   3.771  0.7390 -0.2031 -0.0718
  629MOL0     C86678   7.023   5.574   3.728 -0.7551 -0.5712  0.4474
  629MOL0     C86679   7.132   5.606   3.838 -0.3775 -0.0566  0.5894
  629MOL0     C86680   7.268   5.659   3.780  0.2637 -0.8065  0.0696
  629MOL0     N86681   7.368   5.724   3.865  0.0951 -0.3389  0.0585
  629MOL0     C86682   7.482   5.667   3.920 -0.0063  0.5134  0.3801
  629MOL0     C86683   7.552   5.771   3.959  0.4460 -0.1462  0.7881
  629MOL0     C86684   7.694   5.752   4.011 -0.2780 -0.2875 -0.5912
  629MOL0     C86685   7.809   5.808   3.933  0.1647  0.0452 -0.1061
  629MOL0     C86686   7.828   5.952   3.975  0.4705  0.0519 -0.2284
  629MOL0     C86687   7.936   6.005   3.885 -0.3924 -0.1895  0.0825
  629MOL0     O86688   8.062   5.946   3.917  0.0962 -0.0005 -0.0167
  629MOL0     C86689   8.179   5.964   3.843  0.0299  0.4748 -1.0766
  629MOL0     C86690   8.301   5.934   3.903 -0.5465 -0.0829  0.0743
  629MOL0     C86691   8.424   5.942   3.830  0.2757  0.0965 -0.1999
  629MOL0     C86692   8.550   5.896   3.903 -0.5364 -0.3215  0.5599
  629MOL0     C86693   8.419   5.983   3.691 -0.4082 -0.1743 -0.2442
  629MOL0     C86694   8.535   5.962   3.602 -0.1773  0.6727  0.4826
  629MOL0     O86695   8.654   5.985   3.655  0.1124  0.4883  0.7932
  629MOL0     C86696   8.782   5.969   3.612 -0.1911  0.1929 -0.0072
  629MOL0     C86697   8.888   5.955   3.693 -0.4260 -0.5961 -0.3040
  629MOL0     C86698   9.018   5.936   3.642  0.2820 -0.1645  0.3119
  629MOL0     C86699   9.041   5.938   3.503 -0.0666 -0.0488 -0.0443
  629MOL0     O86700   9.171   5.935   3.461 -0.1299 -0.9483  0.1366
  629MOL0     C86701   9.208   6.012   3.337  0.2830 -0.1065  1.1389
  629MOL0     C86702   9.234   6.161   3.357 -0.5279 -0.3589  0.2733
  629MOL0     C86703   9.303   6.216   3.226  0.1922  0.2167  1.0654
  629MOL0     C86704   9.336   6.365   3.231 -0.5180 -0.0728 -0.4175
  629MOL0     C86705   9.464   6.386   3.318  1.0555  0.0658  0.6932
  629MOL0     C86706   9.593   6.347   3.236 -0.1593  0.3431 -0.6816
  629MOL0     C86707   9.728   6.417   3.279 -0.0638 -0.4735  0.1596
  629MOL0     C86708   9.836   6.378   3.185  0.0568  0.0952  0.1393
  629MOL0    Cl86709   9.964   6.504   3.189 -0.2071  0.4211 -0.2864
  629MOL0     C86710   8.932   5.931   3.420 -0.5017 -0.0047  0.0500
  629MOL0     C86711   8.803   5.959   3.473 -0.5579  0.0841  0.3686
  629MOL0     O86712   8.511   5.918   3.491 -0.4294 -0.3734 -0.0377
  629MOL0     C86713   8.297   6.023   3.633 -0.1084  0.6309  0.2891
  629MOL0     C86714   8.180   6.005   3.708 -0.3377  0.2800 -0.0523
  629MOL0     N86715   7.491   5.885   3.922  0.8247 -0.4031 -0.1332
  629MOL0     N86716   7.381   5.857   3.860  0.0649 -0.5974  0.2975
  629MOL0     C86717   6.654   4.770   3.756 -0.0651 -0.8856  0.5175
  629MOL0     C86718   6.580   4.679   3.823  0.9664  0.3015  0.6730
  629MOL0     C86719   6.257   4.394   3.932  0.0389 -0.3080 -0.0763
  629MOL0     C86720   6.329   4.298   4.002 -0.4446  0.3888  0.2836
  629MOL0     C86721   6.257   4.198   4.081  0.1352  0.8511 -0.0452
  629MOL0     C86722   6.118   4.173   4.064  0.0326  0.8417  1.1435
  629MOL0     O86723   6.053   4.069   4.121  0.0056 -0.1626  0.1869
  629MOL0     C86724   5.929   4.040   4.060 -0.1958 -0.0820 -0.0582
  629MOL0     C86725   5.866   3.897   4.091 -0.6805  0.6724  0.2005
  629MOL0     C86726   5.716   3.892   4.046 -0.3300 -0.1857 -0.0294
  629MOL0     C86727   5.689   3.868   3.887 -0.3446  0.1435  0.5915
  629MOL0     C86728   5.559   3.807   3.870  0.1116  0.5699  0.2882
  629MOL0     C86729   5.458   3.749   3.861  0.0070  0.2153 -0.8432
  629MOL0     C86730   6.051   4.268   3.989  0.8888  0.1701  0.5814
  629MOL0     C86731   6.117   4.376   3.921  1.1570  0.2914 -0.7905
  629MOL0     C86732   6.040   4.487   3.853 -1.2091 -0.4750  0.1624
  629MOL0     H86733   6.278   4.814   3.832 -1.1037  0.9386 -2.1501
  629MOL0     H86734   6.416   4.995   3.699  0.0334 -1.3780 -2.9961
  629MOL0     H86735   6.568   5.141   3.654 -1.5996  1.4346 -2.2547
  629MOL0     H86736   6.578   5.067   3.502  1.1376 -2.0897  0.1142
  629MOL0     H86737   6.839   5.126   3.525  0.0696  1.1525  0.3155
  629MOL0     H86738   6.718   5.248   3.483 -1.2625 -1.8024 -0.7176
  629MOL0     H86739   6.734   5.276   3.771 -0.4347  4.6414 -1.1013
  629MOL0     H86740   6.879   5.168   3.748  1.0417 -0.1240  0.2580
  629MOL0     H86741   6.942   5.343   3.579 -1.9614 -1.1395 -0.1339
  629MOL0     H86742   6.803   5.439   3.644 -0.4048 -0.4504 -1.0420
  629MOL0     H86743   7.058   5.364   3.780  0.8629 -0.2213 -1.2467
  629MOL0     H86744   6.922   5.448   3.867 -2.0610  0.9477 -1.6270
  629MOL0     H86745   7.060   5.575   3.625 -1.7625  1.4141  0.0633
  629MOL0     H86746   6.943   5.649   3.738 -2.3586 -2.1674  0.0769
  629MOL0     H86747   7.157   5.510   3.884  0.5630 -1.5396 -2.6876
  629MOL0     H86748   7.101   5.673   3.918  0.7690  5.1526 -2.7943
  629MOL0     H86749   7.323   5.582   3.724  3.5455  1.6756 -0.3671
  629MOL0     H86750   7.234   5.732   3.706  0.3042 -1.2877 -0.4347
  629MOL0     H86751   7.522   5.569   3.942  2.5174  1.0022 -1.4764
  629MOL0     H86752   7.721   5.646   4.025 -1.6457 -0.5088  0.6786
  629MOL0     H86753   7.692   5.796   4.111  0.2219 -3.4957  0.9826
  629MOL0     H86754   7.902   5.754   3.954  0.3891  0.2688 -0.5199
  629MOL0     H86755   7.793   5.802   3.825  4.3154 -0.5861 -0.8540
  629MOL0     H86756   7.736   6.011   3.970  0.9789  0.9088  0.3044
  629MOL0     H86757   7.869   5.956   4.076  3.0990  1.4564 -1.2546
  629MOL0     H86758   7.919   5.983   3.780 -0.2216  1.7940 -0.4015
  629MOL0     H86759   7.933   6.114   3.885  2.3557 -0.0421  0.4807
  629MOL0     H86760   8.282   5.884   3.998 -1.3171 -2.2026 -1.1310
  629MOL0     H86761   8.534   5.848   4.001  0.1711 -0.5824  0.5593
  629MOL0     H86762   8.638   5.960   3.917  0.1164 -1.3308  1.2892
  629MOL0     H86763   8.590   5.815   3.842  1.8485 -0.0348  1.6164
  629MOL0     H86764   8.880   5.950   3.802 -2.0074 -0.1043 -0.3777
  629MOL0     H86765   9.104   5.927   3.708 -0.4582 -3.4679  0.9884
  629MOL0     H86766   9.296   5.963   3.294 -0.2301 -1.6205  1.7611
  629MOL0     H86767   9.127   6.010   3.263  1.7554 -0.9635 -0.5146
  629MOL0     H86768   9.143   6.219   3.376  0.4939  1.6525 -0.5886
  629MOL0     H86769   9.298   6.171   3.445  1.6478 -2.7440 -0.9008
  629MOL0     H86770   9.249   6.197   3.133  1.2714 -1.9317  0.8001
  629MOL0     H86771   9.394   6.155   3.215  0.1551  0.4355 -0.5575
  629MOL0     H86772   9.252   6.422   3.273 -0.8806 -0.1481 -1.0177
  629MOL0     H86773   9.358   6.402   3.130 -0.5616 -1.1891 -0.8434
  629MOL0     H86774   9.464   6.493   3.339 -2.2512  0.8767 -2.5179
  629MOL0     H86775   9.458   6.324   3.408 -1.2603  1.2811  1.4598
  629MOL0     H86776   9.574   6.361   3.130 -0.8944 -0.7905 -0.7133
  629MOL0     H86777   9.604   6.238   3.238 -2.2110  0.0995 -0.7796
  629MOL0     H86778   9.759   6.389   3.380 -0.4872  0.6433  0.6064
  629MOL0     H86779   9.715   6.525   3.276 -0.3148 -0.5125 -1.6627
  629MOL0     H86780   9.790   6.383   3.086  1.6913 -4.0368 -1.0441
  629MOL0     H86781   9.859   6.273   3.208 -2.0929 -0.7173 -1.0454
  629MOL0     H86782   8.944   5.907   3.314 -0.1133  2.9774 -0.6636
  629MOL0     H86783   8.721   5.958   3.401  0.8443  0.2037 -1.3012
  629MOL0     H86784   8.299   6.030   3.524  1.2960 -0.5990  0.2035
  629MOL0     H86785   8.090   6.008   3.648 -0.4717 -2.4424 -0.1174
  629MOL0     H86786   6.760   4.748   3.744 -0.0225  0.4485 -2.5109
  629MOL0     H86787   6.624   4.584   3.848 -0.1427 -0.2091  0.7539
  629MOL0     H86788   6.437   4.308   4.003 -0.4987  1.2923 -0.7101
  629MOL0     H86789   6.326   4.144   4.146 -0.6732 -1.3027 -0.8741
  629MOL0     H86790   5.858   4.114   4.098 -3.4191 -2.2116 -1.5123
  629MOL0     H86791   5.939   4.051   3.951  0.5797 -3.6896 -0.4718
  629MOL0     H86792   5.880   3.863   4.194 -1.6021  2.7555  1.0909
  629MOL0     H86793   5.921   3.833   4.022  2.0715  0.1330  2.7140
  629MOL0     H86794   5.674   3.806   4.099 -1.4685 -0.2136 -0.9377
  629MOL0     H86795   5.664   3.986   4.067 -1.1116 -1.0391  2.0325
  629MOL0     H86796   5.764   3.804   3.839 -0.4393 -0.2721  0.9974
  629MOL0     H86797   5.684   3.965   3.837  1.0942  0.9319  1.8842
  629MOL0     H86798   5.360   3.708   3.852 -1.0331  2.2600  0.4569
  629MOL0     H86799   5.943   4.269   3.977  0.7563 -0.6903  1.5536
  629MOL0     H86800   6.060   4.583   3.903 -4.1337 -0.9288  2.4999
  629MOL0     H86801   6.064   4.494   3.747  0.1303 -0.6152  0.4324
  629MOL0     H86802   5.932   4.469   3.855 -1.9145  3.0655  0.1078
  630MOL0     O86803   6.544   4.413   8.202  0.5407 -0.0072 -0.1294
  630MOL0     C86804   6.520   4.531   8.226 -0.7695  0.3545  0.5828
  630MOL0     O86805   6.609   4.628   8.205 -0.0168 -0.2126  0.2953
  630MOL0     C86806   6.750   4.615   8.203  0.7629  0.0691 -0.0748
  630MOL0     C86807   6.820   4.675   8.099  0.5057  0.8128  0.3262
  630MOL0     C86808   6.958   4.670   8.088  0.2786 -0.3228 -0.4772
  630MOL0     C86809   7.031   4.589   8.178  0.0678 -0.3387  0.3128
  630MOL0     O86810   7.169   4.578   8.167  0.5660  0.4234 -0.2045
  630MOL0     C86811   7.213   4.532   8.031 -0.2955  0.8185  0.4241
  630MOL0     C86812   7.336   4.615   8.005  0.5207 -0.2594  0.2909
  630MOL0     C86813   7.392   4.596   7.862 -0.3140 -0.0891  0.5954
  630MOL0     C86814   7.540   4.633   7.855  0.3048  0.3309 -0.5581
  630MOL0     C86815   7.600   4.576   7.720  0.0561 -0.1492 -1.0354
  630MOL0     C86816   7.754   4.622   7.706 -0.0228 -0.0917  0.0613
  630MOL0     C86817   7.826   4.549   7.595 -0.1588 -0.5228  0.1953
  630MOL0     C86818   7.966   4.616   7.570  0.2986 -0.2121 -0.4074
  630MOL0     N86819   8.016   4.570   7.437 -0.0907  0.1499  0.1681
  630MOL0     C86820   8.021   4.439   7.384 -0.2031  0.3820 -0.1859
  630MOL0     C86821   8.077   4.445   7.260 -0.0249  0.3988 -0.7657
  630MOL0     C86822   8.098   4.336   7.168  0.5231 -0.1390 -1.1518
  630MOL0     C86823   8.234   4.267   7.194 -0.6988  0.6861 -0.5760
  630MOL0     C86824   8.235   4.152   7.098  0.0393 -0.0520  0.6330
  630MOL0     C86825   8.370   4.110   7.071  0.8853  0.3763 -0.5720
  630MOL0     O86826   8.445   4.204   6.996  0.3767  0.6547 -0.4592
  630MOL0     C86827   8.582   4.198   7.015 -0.3103  0.1588  0.0019
  630MOL0     C86828   8.652   4.294   6.946 -0.3869  0.3977  0.2581
  630MOL0     C86829   8.795   4.304   6.940  1.0361  0.0085 -0.3756
  630MOL0     C86830   8.841   4.426   6.867  0.0365 -0.8785 -0.3525
  630MOL0     C86831   8.875   4.203   6.996 -0.7193  0.1124 -0.5641
  630MOL0     C86832   9.024   4.202   6.991  0.8328  0.0809  1.3972
  630MOL0     O86833   9.082   4.264   6.880 -0.2498 -0.1496  0.1235
  630MOL0     C86834   9.214   4.281   6.869 -0.3138  0.5981 -0.9247
  630MOL0     C86835   9.301   4.320   6.975 -0.3187 -0.2050  0.3143
  630MOL0     C86836   9.436   4.321   6.948 -0.4613  0.3685 -0.0439
  630MOL0     C86837   9.487   4.278   6.827 -0.3805  0.0954 -0.0298
  630MOL0     O86838   9.628   4.280   6.822  0.4174  0.3911  0.4671
  630MOL0     C86839   9.691   4.243   6.691 -0.2001  0.5117 -0.2378
  630MOL0     C86840   9.848   4.260   6.694  0.3116 -0.2013  1.0606
  630MOL0     C86841   9.927   4.176   6.589 -0.2759 -0.2652  0.2002
  630MOL0     C86842  10.080   4.188   6.604  0.0155  0.2270  0.4345
  630MOL0     C86843  10.129   4.265   6.486 -0.4482 -0.4478 -0.8607
  630MOL0     C86844  10.234   4.362   6.547 -0.4764  0.2070  0.4667
  630MOL0     C86845  10.172   4.485   6.604 -0.8343  0.1550  0.3567
  630MOL0     C86846  10.251   4.604   6.550  0.2977 -0.2837 -0.5570
  630MOL0    Cl86847  10.172   4.623   6.383 -0.3166 -0.0533 -0.3729
  630MOL0     C86848   9.401   4.256   6.719 -0.3124 -0.0435  0.4896
  630MOL0     C86849   9.266   4.262   6.746 -0.0625  0.8611 -0.4431
  630MOL0     O86850   9.087   4.137   7.073 -0.9046  0.2790  0.1022
  630MOL0     C86851   8.804   4.097   7.065 -0.5410  0.4298 -0.2666
  630MOL0     C86852   8.663   4.100   7.086  0.0169 -0.3569 -0.3072
  630MOL0     N86853   8.114   4.576   7.244  0.0568 -0.7265 -0.0752
  630MOL0     N86854   8.075   4.648   7.345  0.0573 -0.0836  0.5034
  630MOL0     C86855   6.966   4.522   8.282 -0.9149 -0.1705  0.5136
  630MOL0     C86856   6.825   4.529   8.289  0.6904 -0.0855 -0.3121
  630MOL0     C86857   6.386   4.571   8.269  0.6923 -0.0344 -0.4952
  630MOL0     C86858   6.360   4.707   8.244  0.0035  0.6008 -0.2621
  630MOL0     C86859   6.234   4.757   8.288  1.2257 -0.5637 -0.4567
  630MOL0     C86860   6.137   4.674   8.355 -0.4691  0.4888  0.2857
  630MOL0     O86861   6.018   4.729   8.398  0.3936  0.6809  0.3327
  630MOL0     C86862   5.915   4.638   8.443  0.6265 -0.0356  1.0576
  630MOL0     C86863   5.772   4.693   8.433  0.1752 -1.2357 -0.3140
  630MOL0     C86864   5.728   4.734   8.296 -0.3302 -0.3060  1.0486
  630MOL0     C86865   5.581   4.798   8.307  0.0066  0.2599  0.6546
  630MOL0     C86866   5.490   4.697   8.249 -0.6580 -0.5196  0.1506
  630MOL0     C86867   5.407   4.626   8.199 -0.0802  0.0245 -0.1697
  630MOL0     C86868   6.177   4.545   8.386  0.4976  0.1199  0.5398
  630MOL0     C86869   6.294   4.491   8.340  0.3145 -0.0352 -0.3702
  630MOL0     C86870   6.322   4.346   8.371 -0.0808 -0.4334  0.3496
  630MOL0     H86871   6.772   4.747   8.033  0.4552  2.9398  2.5386
  630MOL0     H86872   7.002   4.715   8.000  0.2480 -1.2847 -1.0013
  630MOL0     H86873   7.138   4.562   7.957 -1.2424 -0.6091  0.7637
  630MOL0     H86874   7.236   4.427   8.017 -4.7958 -0.2772 -0.4728
  630MOL0     H86875   7.299   4.717   8.013 -2.1609 -1.0576 -0.7184
  630MOL0     H86876   7.415   4.599   8.079  0.6753  1.3239  0.4886
  630MOL0     H86877   7.368   4.491   7.841 -1.5465  0.4763 -1.1073
  630MOL0     H86878   7.331   4.660   7.797 -2.7277  1.0073  3.7048
  630MOL0     H86879   7.560   4.740   7.856  0.7082  0.2735 -1.7623
  630MOL0     H86880   7.595   4.593   7.941 -0.3292 -2.9606 -1.5372
  630MOL0     H86881   7.537   4.623   7.644  1.3498  1.6609 -1.0385
  630MOL0     H86882   7.596   4.467   7.713  0.9578 -0.2757  0.1813
  630MOL0     H86883   7.766   4.730   7.693  1.7246  0.1375  2.9491
  630MOL0     H86884   7.810   4.600   7.797 -1.5279 -1.4584  0.7158
  630MOL0     H86885   7.762   4.558   7.506 -1.3493 -0.9052  0.9786
  630MOL0     H86886   7.817   4.443   7.622 -2.5700 -0.6292 -0.7456
  630MOL0     H86887   7.968   4.725   7.571  3.3466 -0.1529 -1.0258
  630MOL0     H86888   8.037   4.580   7.645  2.3033  1.2084 -1.5181
  630MOL0     H86889   7.983   4.345   7.422  3.7455 -0.4682  2.1989
  630MOL0     H86890   8.096   4.368   7.063 -0.8922  0.3884 -0.9792
  630MOL0     H86891   8.012   4.269   7.174 -0.4082  1.0887 -0.4591
  630MOL0     H86892   8.310   4.342   7.175  0.1777 -0.0014  0.1495
  630MOL0     H86893   8.251   4.235   7.297 -1.8912  2.3345  0.1939
  630MOL0     H86894   8.187   4.067   7.148  2.2750 -0.8295  1.6115
  630MOL0     H86895   8.186   4.166   7.002  1.2840 -0.2211 -0.0437
  630MOL0     H86896   8.418   4.100   7.168 -0.8115  0.8939  0.3714
  630MOL0     H86897   8.375   4.013   7.021 -1.3602 -0.4169  0.5959
  630MOL0     H86898   8.598   4.357   6.877 -1.5361 -0.1456  0.6491
  630MOL0     H86899   8.847   4.412   6.759  0.0044  0.9625 -0.6317
  630MOL0     H86900   8.933   4.469   6.908 -0.8152  0.9644 -0.2677
  630MOL0     H86901   8.765   4.503   6.885 -0.0377 -1.4117  1.9545
  630MOL0     H86902   9.261   4.323   7.076 -0.1287 -1.7950  0.4562
  630MOL0     H86903   9.510   4.339   7.025  1.3014 -1.4870 -1.2224
  630MOL0     H86904   9.662   4.142   6.660 -1.6464  0.7717  0.1955
  630MOL0     H86905   9.656   4.318   6.619 -0.8119 -0.2148 -0.7075
  630MOL0     H86906   9.856   4.365   6.664 -1.3825 -0.8754 -2.2594
  630MOL0     H86907   9.895   4.246   6.792  1.4770 -2.5407  0.2631
  630MOL0     H86908   9.888   4.191   6.488 -3.1417 -1.3002  1.0519
  630MOL0     H86909   9.894   4.074   6.609 -2.9990  0.9554  2.6740
  630MOL0     H86910  10.126   4.090   6.614  0.5802  0.7420  4.8894
  630MOL0     H86911  10.106   4.226   6.704 -0.4809 -2.2803  1.5953
  630MOL0     H86912  10.179   4.195   6.419  3.1196  0.9391  0.1101
  630MOL0     H86913  10.048   4.321   6.437  1.3071  0.3866 -2.9897
  630MOL0     H86914  10.310   4.379   6.469 -0.0723 -2.5646  0.1484
  630MOL0     H86915  10.293   4.311   6.624  1.9154  0.4854 -1.0723
  630MOL0     H86916  10.190   4.476   6.712  0.7579 -1.8304 -0.0255
  630MOL0     H86917  10.066   4.498   6.580 -0.3294 -1.5462 -3.3601
  630MOL0     H86918  10.360   4.596   6.560  0.6068  2.2788 -1.2730
  630MOL0     H86919  10.229   4.692   6.611  0.1883 -1.9105  1.8729
  630MOL0     H86920   9.439   4.234   6.620 -2.2031 -1.8325  0.0982
  630MOL0     H86921   9.194   4.248   6.667 -2.2867 -0.2817  1.6457
  630MOL0     H86922   8.857   4.013   7.108 -2.3725  0.0615  1.4649
  630MOL0     H86923   8.607   4.021   7.136 -0.4491 -0.9970 -1.7794
  630MOL0     H86924   7.001   4.453   8.359 -4.6041  0.0987  2.6405
  630MOL0     H86925   6.776   4.470   8.366  0.8352 -0.6731 -0.6663
  630MOL0     H86926   6.430   4.774   8.196  1.0572  0.0612  0.4810
  630MOL0     H86927   6.191   4.856   8.279 -0.9299 -0.9959  3.2210
  630MOL0     H86928   5.911   4.547   8.383  2.6687  0.7685 -0.4001
  630MOL0     H86929   5.935   4.611   8.547  4.1320 -2.2882 -0.0247
  630MOL0     H86930   5.760   4.780   8.498  3.1854  0.9647 -2.3866
  630MOL0     H86931   5.701   4.627   8.484 -2.9998  1.7902 -0.4830
  630MOL0     H86932   5.796   4.807   8.252 -0.7284  0.4291  1.6308
  630MOL0     H86933   5.733   4.634   8.250 -2.6421 -0.6143  1.3426
  630MOL0     H86934   5.567   4.897   8.263  2.9429 -0.6225 -2.7943
  630MOL0     H86935   5.556   4.798   8.414 -0.3504 -0.1689  0.5747
  630MOL0     H86936   5.327   4.560   8.172  0.1980  0.5535 -2.5631
  630MOL0     H86937   6.116   4.479   8.447  2.3037 -1.5795  0.6025
  630MOL0     H86938   6.250   4.283   8.425  1.2669 -0.3007  2.4098
  630MOL0     H86939   6.346   4.297   8.277  0.4242 -1.0434  0.7889
  630MOL0     H86940   6.412   4.335   8.431  0.0247 -0.2252  0.2293
  631MOL0     O86941   7.185   4.070   8.910  1.0473 -0.8162  0.2346
  631MOL0     C86942   7.095   3.987   8.883  0.7547  0.1725  0.4367
  631MOL0     O86943   7.116   3.875   8.811  0.2788 -0.1180  0.2406
  631MOL0     C86944   7.212   3.875   8.719 -0.5839 -0.0454  0.3975
  631MOL0     C86945   7.203   3.950   8.606 -0.1410  0.7090  0.8937
  631MOL0     C86946   7.307   3.943   8.513  0.8238  0.2607 -0.1651
  631MOL0     C86947   7.422   3.872   8.539  0.1544 -0.8130  0.4542
  631MOL0     O86948   7.522   3.893   8.451  0.2947 -0.1426 -0.7013
  631MOL0     C86949   7.641   3.803   8.458 -0.0351 -0.3001  0.7154
  631MOL0     C86950   7.718   3.809   8.326 -0.3039 -0.2180 -0.0920
  631MOL0     C86951   7.803   3.935   8.319  0.3016 -0.7846  0.2047
  631MOL0     C86952   7.866   3.956   8.181  0.1853  0.2350  0.0493
  631MOL0     C86953   7.956   4.075   8.185  0.0995 -0.3671  0.1542
  631MOL0     C86954   8.040   4.082   8.054  0.4897 -0.8240  0.1563
  631MOL0     C86955   8.174   4.009   8.040 -0.0508  0.2442  0.4270
  631MOL0     C86956   8.162   3.860   7.995  0.4938  0.0122 -0.0080
  631MOL0     N86957   8.305   3.812   7.966  0.4849 -0.6003 -0.3183
  631MOL0     C86958   8.357   3.708   8.040 -0.5357  0.2745  0.0939
  631MOL0     C86959   8.479   3.687   8.001 -0.5857  0.4980  0.3205
  631MOL0     C86960   8.571   3.575   8.039 -0.4237 -0.2069 -1.0708
  631MOL0     C86961   8.530   3.479   8.155  1.0477 -0.4273 -0.8113
  631MOL0     C86962   8.642   3.379   8.193 -0.2255  0.4214 -0.8390
  631MOL0     C86963   8.658   3.366   8.347 -0.0689  0.3105  0.3757
  631MOL0     O86964   8.526   3.318   8.399  0.0604  0.2356 -0.0580
  631MOL0     C86965   8.487   3.190   8.364 -0.1967 -0.4369  0.1971
  631MOL0     C86966   8.582   3.084   8.340 -0.4874 -0.3118  0.4798
  631MOL0     C86967   8.543   2.953   8.316  1.2927 -1.5268  0.5452
  631MOL0     C86968   8.655   2.856   8.291  0.5380 -0.7190 -0.6715
  631MOL0     C86969   8.405   2.911   8.314 -0.7230 -0.5217 -0.8216
  631MOL0     C86970   8.353   2.770   8.317  0.6704  0.2841 -0.0648
  631MOL0     O86971   8.218   2.750   8.336  0.3432  0.3372 -0.4312
  631MOL0     C86972   8.159   2.630   8.387  0.2999 -1.3038 -0.2900
  631MOL0     C86973   8.229   2.518   8.427 -0.6488 -0.2938 -0.2361
  631MOL0     C86974   8.172   2.394   8.443  0.2474 -0.2810 -0.3902
  631MOL0     C86975   8.036   2.379   8.437 -0.2553  0.2550  0.0139
  631MOL0     O86976   7.984   2.250   8.456 -0.4542 -0.4419 -0.6355
  631MOL0     C86977   7.871   2.207   8.379 -0.2753 -0.4891 -0.0414
  631MOL0     C86978   7.839   2.065   8.407  0.4539  0.2269 -0.6667
  631MOL0     C86979   7.723   2.015   8.327 -0.1405 -0.1425 -0.0477
  631MOL0     C86980   7.745   1.858   8.303 -0.3107 -0.1058 -0.2639
  631MOL0     C86981   7.643   1.787   8.213  0.1613  0.0467  0.7365
  631MOL0     C86982   7.517   1.766   8.290 -0.9602  1.0562 -0.2603
  631MOL0     C86983   7.411   1.685   8.209 -0.0283  0.0241  0.6376
  631MOL0     C86984   7.272   1.681   8.280  0.1978 -0.0706  0.0755
  631MOL0    Cl86985   7.192   1.847   8.232  0.4752 -0.2463 -0.1671
  631MOL0     C86986   7.959   2.489   8.408 -0.4508  0.3408  0.5536
  631MOL0     C86987   8.020   2.614   8.379  0.5524  0.3314 -0.0231
  631MOL0     O86988   8.429   2.682   8.275  0.3590  0.2538  0.1710
  631MOL0     C86989   8.314   3.018   8.327  0.0936 -0.1968 -0.7203
  631MOL0     C86990   8.357   3.147   8.364 -0.2007  0.0766  0.3991
  631MOL0     N86991   8.507   3.785   7.902  0.0655  0.5335  0.2639
  631MOL0     N86992   8.401   3.863   7.884  0.4274 -0.3692 -0.8931
  631MOL0     C86993   7.432   3.801   8.657  0.1224 -0.7895 -0.1780
  631MOL0     C86994   7.322   3.800   8.743  0.0417  0.2346 -1.1027
  631MOL0     C86995   6.953   3.991   8.924 -0.0513 -0.3901 -0.2729
  631MOL0     C86996   6.857   3.905   8.878 -0.2477  0.5967 -0.4986
  631MOL0     C86997   6.733   3.875   8.933 -0.4724  0.6466  1.0553
  631MOL0     C86998   6.693   3.940   9.048 -0.0330 -0.2782 -0.2716
  631MOL0     O86999   6.583   3.931   9.122  0.7149 -0.2645 -0.0683
  631MOL0     C87000   6.476   3.841   9.074 -0.1722 -0.0353 -0.1449
  631MOL0     C87001   6.368   3.840   9.177  0.5523  0.8462 -1.0845
  631MOL0     C87002   6.418   3.765   9.302 -0.2027  0.4706  0.4548
  631MOL0     C87003   6.301   3.727   9.399 -0.2558 -0.1945 -0.3552
  631MOL0     C87004   6.349   3.637   9.508 -0.3053 -0.3021 -0.2591
  631MOL0     C87005   6.377   3.577   9.607 -0.8839 -0.3060 -0.9638
  631MOL0     C87006   6.787   4.029   9.093 -0.0951 -0.5856 -0.3731
  631MOL0     C87007   6.908   4.064   9.033  0.1352  0.2890  0.9812
  631MOL0     C87008   6.989   4.177   9.096 -0.3327  1.0903  0.0513
  631MOL0     H87009   7.105   3.994   8.590 -2.4542 -4.4979 -1.5298
  631MOL0     H87010   7.299   4.000   8.421  2.7618  2.5341  0.9793
  631MOL0     H87011   7.614   3.697   8.467 -0.8921 -0.2997 -1.1971
  631MOL0     H87012   7.709   3.848   8.530  0.6285 -0.2896  0.0946
  631MOL0     H87013   7.778   3.718   8.316  0.2209  0.2027 -0.7943
  631MOL0     H87014   7.653   3.821   8.239  2.3337 -0.6104 -2.2445
  631MOL0     H87015   7.740   4.022   8.335  0.2807  0.3344 -4.4452
  631MOL0     H87016   7.882   3.923   8.394 -0.3433  2.4945  1.5662
  631MOL0     H87017   7.937   3.875   8.162  3.7993  3.4833 -1.9239
  631MOL0     H87018   7.791   3.956   8.101 -1.3906 -0.5963  1.4687
  631MOL0     H87019   8.011   4.074   8.279  0.7256  1.6801 -0.1272
  631MOL0     H87020   7.891   4.163   8.193 -0.2245 -0.6395  0.6001
  631MOL0     H87021   7.972   4.051   7.975 -0.3530 -0.0861  0.5793
  631MOL0     H87022   8.073   4.185   8.039  2.0155 -0.8915  2.4868
  631MOL0     H87023   8.245   4.024   8.122  0.2354  3.5361 -0.2683
  631MOL0     H87024   8.226   4.059   7.957 -2.7757  1.2806 -0.7644
  631MOL0     H87025   8.116   3.797   8.072  0.9426 -0.1322  0.1482
  631MOL0     H87026   8.102   3.849   7.904 -0.7084 -0.6718  0.8405
  631MOL0     H87027   8.310   3.650   8.118  0.9533 -0.9108  0.1531
  631MOL0     H87028   8.669   3.621   8.058 -0.9290  0.7779 -0.7897
  631MOL0     H87029   8.573   3.527   7.941 -0.7707  0.9701 -1.6728
  631MOL0     H87030   8.500   3.543   8.238  3.4914 -0.8224  0.4366
  631MOL0     H87031   8.439   3.430   8.119 -0.5124  2.1973 -0.7422
  631MOL0     H87032   8.609   3.283   8.152 -0.0296 -0.1572  0.3067
  631MOL0     H87033   8.738   3.401   8.146  0.9947 -0.0231  1.2696
  631MOL0     H87034   8.737   3.298   8.378 -1.7461 -2.1096 -0.3815
  631MOL0     H87035   8.680   3.467   8.383 -0.5076  0.0670  1.3640
  631MOL0     H87036   8.688   3.104   8.355 -0.6761  0.5608  0.6882
  631MOL0     H87037   8.748   2.912   8.299 -0.8634  1.7893 -0.9600
  631MOL0     H87038   8.655   2.830   8.185 -0.3534  0.8988 -1.1068
  631MOL0     H87039   8.645   2.772   8.360 -0.0895  1.2254  1.7519
  631MOL0     H87040   8.338   2.520   8.426 -0.6543  1.6943 -0.8756
  631MOL0     H87041   8.226   2.305   8.474 -0.5931 -0.6994 -0.0695
  631MOL0     H87042   7.784   2.268   8.403  1.5604  1.7706  1.3164
  631MOL0     H87043   7.896   2.226   8.274  1.0611 -0.4430  0.2667
  631MOL0     H87044   7.931   2.008   8.393  1.7537  1.6320  1.4596
  631MOL0     H87045   7.803   2.057   8.510 -1.0420 -1.8091 -1.2926
  631MOL0     H87046   7.721   2.067   8.231 -0.9525  1.7935  0.9735
  631MOL0     H87047   7.632   2.027   8.387 -1.2078 -1.8153 -1.2346
  631MOL0     H87048   7.742   1.798   8.395  1.9786 -1.5566 -1.0302
  631MOL0     H87049   7.844   1.833   8.263 -0.1554 -0.2366  0.1851
  631MOL0     H87050   7.632   1.850   8.124  3.3829 -0.2195 -0.0055
  631MOL0     H87051   7.680   1.688   8.183 -0.9039 -0.4528  1.0409
  631MOL0     H87052   7.478   1.857   8.335  4.1541  4.1739 -1.3455
  631MOL0     H87053   7.554   1.698   8.368 -0.9628  1.0229 -0.2883
  631MOL0     H87054   7.450   1.583   8.198  0.1636  0.3394 -2.6330
  631MOL0     H87055   7.388   1.733   8.114 -0.5370  0.7904  1.1377
  631MOL0     H87056   7.280   1.668   8.388  0.4495 -1.0533 -0.0521
  631MOL0     H87057   7.203   1.611   8.232  0.5432 -1.3395  1.3689
  631MOL0     H87058   7.851   2.473   8.405 -0.6936  1.3121  2.4782
  631MOL0     H87059   7.954   2.699   8.363  0.4084  0.0283 -1.0642
  631MOL0     H87060   8.210   2.991   8.314 -0.4833  2.0774 -1.3797
  631MOL0     H87061   8.286   3.225   8.389  2.4835  2.8566 -0.0829
  631MOL0     H87062   7.526   3.753   8.677  0.8297  0.8373  0.5784
  631MOL0     H87063   7.345   3.745   8.834  0.8252  0.5658 -1.0983
  631MOL0     H87064   6.880   3.847   8.789 -3.7421 -0.6880 -0.7139
  631MOL0     H87065   6.660   3.814   8.881 -2.0035  3.8305 -0.8555
  631MOL0     H87066   6.433   3.885   8.984 -0.2220 -1.4522 -0.8487
  631MOL0     H87067   6.517   3.743   9.048  0.5289  0.7104 -2.0326
  631MOL0     H87068   6.276   3.802   9.132  0.2366  0.6634 -0.3085
  631MOL0     H87069   6.331   3.941   9.198 -1.3647  0.8169 -3.7863
  631MOL0     H87070   6.470   3.676   9.266  2.0158  1.8900 -0.1079
  631MOL0     H87071   6.496   3.828   9.345  1.6444 -0.7283 -0.9707
  631MOL0     H87072   6.217   3.673   9.352  0.7369 -2.8081  0.7129
  631MOL0     H87073   6.258   3.815   9.447  1.1933  0.0532  0.5283
  631MOL0     H87074   6.413   3.513   9.684  2.8514  0.0324 -2.2011
  631MOL0     H87075   6.752   4.095   9.172  1.4175 -1.6709  1.2462
  631MOL0     H87076   7.013   4.253   9.022 -0.6758  0.0231 -1.1928
  631MOL0     H87077   6.933   4.229   9.174  1.7322  1.5237  1.3094
  631MOL0     H87078   7.087   4.143   9.131  0.2541  2.6969  0.0413
  632MOL0     O87079  10.065   8.350   6.117 -0.5887  0.4417  0.5390
  632MOL0     C87080  10.072   8.224   6.102 -0.9120 -0.2250 -0.0373
  632MOL0     O87081  10.165   8.152   6.023 -0.4885 -0.2401 -0.4556
  632MOL0     C87082  10.284   8.222   6.017  0.5619  0.4091  0.4483
  632MOL0     C87083  10.393   8.159   6.056 -0.0748 -1.1550 -0.1917
  632MOL0     C87084  10.522   8.206   6.040  0.6327 -0.1113 -0.0331
  632MOL0     C87085  10.548   8.331   5.969  1.3806 -0.0092 -0.4506
  632MOL0     O87086  10.671   8.399   5.946  0.2716  0.4534  0.3076
  632MOL0     C87087  10.787   8.324   5.968  0.2215 -0.1335 -0.1584
  632MOL0     C87088  10.906   8.403   5.894 -0.5379  0.4133 -0.6578
  632MOL0     C87089  11.045   8.367   5.930  0.0147  0.7165 -0.8110
  632MOL0     C87090  11.147   8.458   5.856 -0.0986  0.6510  0.0838
  632MOL0     C87091  11.292   8.422   5.874 -0.7487  0.2511  0.5710
  632MOL0     C87092  11.348   8.396   6.012 -0.0463 -0.1865 -0.2808
  632MOL0     C87093  11.327   8.522   6.101  1.5055  0.2633  1.2806
  632MOL0     C87094  11.412   8.493   6.228  0.9897 -0.2125 -0.3273
  632MOL0     N87095  11.552   8.505   6.197 -0.0166 -1.3583 -0.2231
  632MOL0     C87096  11.631   8.614   6.240 -0.1149  0.3014  0.5079
  632MOL0     C87097  11.763   8.572   6.250  0.8311  0.1409 -0.3094
  632MOL0     C87098  11.883   8.653   6.299  0.4416  0.3746 -0.1109
  632MOL0     C87099  11.945   8.586   6.418  0.0213 -0.7774 -0.5481
  632MOL0     C87100  11.850   8.575   6.539  0.7027 -0.1980 -0.0669
  632MOL0     C87101  11.930   8.528   6.659 -0.4122 -0.2230 -0.2625
  632MOL0     O87102  11.844   8.526   6.778  0.0481 -0.2303 -0.2435
  632MOL0     C87103  11.891   8.591   6.884 -0.3345  1.0455 -0.2709
  632MOL0     C87104  12.017   8.578   6.942  0.5418 -0.1603  0.6199
  632MOL0     C87105  12.052   8.646   7.054 -0.0683 -0.3730  1.5728
  632MOL0     C87106  12.197   8.626   7.093 -0.3822  0.0577 -0.6743
  632MOL0     C87107  11.949   8.720   7.116 -0.1740  0.3314 -0.6197
  632MOL0     C87108  11.967   8.770   7.254  1.1486  0.7839  0.6837
  632MOL0     O87109  12.094   8.759   7.301 -0.5267 -0.7623 -0.0476
  632MOL0     C87110  12.139   8.809   7.417  0.3397 -0.3518 -0.6036
  632MOL0     C87111  12.145   8.946   7.436 -0.7290 -0.0096 -0.5464
  632MOL0     C87112  12.195   8.992   7.559  0.1752 -0.9138  0.7840
  632MOL0     C87113  12.230   8.910   7.660  0.0482 -0.3586  0.5623
  632MOL0     O87114  12.284   8.980   7.774 -0.4598 -0.0684 -0.0331
  632MOL0     C87115  12.305   8.895   7.892 -0.5669 -0.0326  0.8481
  632MOL0     C87116  12.431   8.810   7.883  0.3044  0.6810  0.4718
  632MOL0     C87117  12.460   8.743   8.021  0.4284 -0.4103  0.0871
  632MOL0     C87118  12.382   8.624   8.062  0.0039 -0.1141 -0.0455
  632MOL0     C87119  12.397   8.558   8.195  0.6250  0.1096 -0.4681
  632MOL0     C87120  12.341   8.653   8.300 -0.2667 -0.2702 -0.6453
  632MOL0     C87121  12.317   8.569   8.433  0.4594  0.2136  0.1264
  632MOL0     C87122  12.224   8.638   8.537  1.4052 -0.3745 -0.0915
  632MOL0    Cl87123  12.311   8.776   8.609 -0.1045  0.3588 -0.2375
  632MOL0     C87124  12.231   8.773   7.639  0.1674  0.1512 -0.4575
  632MOL0     C87125  12.183   8.717   7.518 -0.4275  0.4571 -0.5729
  632MOL0     O87126  11.873   8.815   7.321 -0.9080  0.1726  0.5876
  632MOL0     C87127  11.822   8.726   7.066 -0.1035 -0.4697 -0.8436
  632MOL0     C87128  11.793   8.668   6.944 -0.1894 -0.3375  0.1627
  632MOL0     N87129  11.756   8.442   6.207 -0.4443  0.8524 -0.1919
  632MOL0     N87130  11.639   8.395   6.186  0.1033 -1.0014 -0.4090
  632MOL0     C87131  10.429   8.392   5.924  0.9551 -0.1705  0.6273
  632MOL0     C87132  10.304   8.343   5.942  0.0438 -0.3635 -0.0420
  632MOL0     C87133   9.980   8.136   6.172  0.3277 -0.4998  0.3537
  632MOL0     C87134   9.911   8.031   6.106 -1.9298  0.3096 -0.2884
  632MOL0     C87135   9.812   7.962   6.178 -0.2188  0.0183 -0.4126
  632MOL0     C87136   9.780   7.993   6.306 -0.0572 -0.1425  0.3683
  632MOL0     O87137   9.697   7.906   6.377  0.0488 -0.0224 -0.8252
  632MOL0     C87138   9.576   7.970   6.421 -0.1342 -1.7108 -0.2704
  632MOL0     C87139   9.478   7.861   6.477 -1.1653 -0.1113  0.0796
  632MOL0     C87140   9.358   7.946   6.518 -0.2147  0.0360 -0.7405
  632MOL0     C87141   9.252   7.859   6.583  0.2787  0.5384 -0.1290
  632MOL0     C87142   9.152   7.935   6.658  0.3585 -1.2167  0.0557
  632MOL0     C87143   9.064   8.004   6.696  0.4562 -0.2409  0.4207
  632MOL0     C87144   9.849   8.095   6.369  0.2316 -0.5559 -0.6349
  632MOL0     C87145   9.947   8.170   6.305  0.6950  0.1196 -0.1811
  632MOL0     C87146  10.012   8.280   6.385  0.1474 -0.3491 -1.3914
  632MOL0     H87147  10.381   8.059   6.096  0.3637 -0.6358  1.2760
  632MOL0     H87148  10.598   8.143   6.085 -2.9304 -3.1421  2.1994
  632MOL0     H87149  10.772   8.221   5.935 -0.9835  0.0422 -0.2162
  632MOL0     H87150  10.809   8.315   6.074  0.0824 -1.2464 -0.2087
  632MOL0     H87151  10.899   8.389   5.786  0.9039 -1.1946 -0.5764
  632MOL0     H87152  10.902   8.509   5.921 -2.2739  0.1846  0.1632
  632MOL0     H87153  11.060   8.389   6.036  3.0315 -1.2065 -0.7130
  632MOL0     H87154  11.072   8.264   5.906 -1.2378  0.6374 -2.0053
  632MOL0     H87155  11.121   8.447   5.750  2.8527  2.0745 -0.8736
  632MOL0     H87156  11.121   8.555   5.899  2.7590  1.7057 -0.3762
  632MOL0     H87157  11.357   8.486   5.814  0.3467 -1.8308 -0.5428
  632MOL0     H87158  11.302   8.326   5.823  2.4633 -0.5511  2.4219
  632MOL0     H87159  11.303   8.305   6.054  1.4753 -1.4483 -1.2730
  632MOL0     H87160  11.455   8.381   6.000 -0.1244 -0.3013 -0.8651
  632MOL0     H87161  11.220   8.522   6.123  1.6255 -3.4236  2.4958
  632MOL0     H87162  11.354   8.615   6.050  3.0570 -1.3631 -1.1129
  632MOL0     H87163  11.397   8.577   6.297 -0.3655 -1.1254  0.5417
  632MOL0     H87164  11.384   8.403   6.283  1.2809 -2.1814 -3.1900
  632MOL0     H87165  11.602   8.716   6.262 -0.5570  0.5503 -1.0895
  632MOL0     H87166  11.848   8.755   6.319 -0.8365 -0.2995  1.3086
  632MOL0     H87167  11.957   8.658   6.219 -0.8077 -0.3088 -1.3453
  632MOL0     H87168  11.975   8.485   6.388  0.9644 -1.2244  1.6336
  632MOL0     H87169  12.032   8.642   6.454  2.2719 -3.7133 -1.0358
  632MOL0     H87170  11.805   8.670   6.571  2.0023  0.0932  0.9692
  632MOL0     H87171  11.768   8.508   6.512  0.2507 -0.2811  1.3817
  632MOL0     H87172  11.975   8.429   6.652 -0.6193 -0.2766 -0.9085
  632MOL0     H87173  12.016   8.596   6.672 -1.3237  0.9565 -0.2494
  632MOL0     H87174  12.092   8.508   6.906 -0.7959 -2.0332  1.3394
  632MOL0     H87175  12.208   8.568   7.185 -0.7248  0.7076 -0.2191
  632MOL0     H87176  12.235   8.728   7.103  1.0634 -0.6182  1.3526
  632MOL0     H87177  12.249   8.572   7.013  0.9692 -1.4021  1.0997
  632MOL0     H87178  12.135   9.015   7.353  1.6223 -1.3564 -2.0942
  632MOL0     H87179  12.207   9.099   7.571 -1.8785 -0.4951 -0.4001
  632MOL0     H87180  12.326   8.959   7.978 -0.6684 -0.2940  1.0693
  632MOL0     H87181  12.217   8.832   7.910  0.3441 -0.9092  2.4384
  632MOL0     H87182  12.419   8.728   7.813  1.4358  0.0631  0.9743
  632MOL0     H87183  12.505   8.871   7.829 -0.1270  0.4017 -0.4544
  632MOL0     H87184  12.444   8.824   8.093 -2.7579 -0.9209  0.0706
  632MOL0     H87185  12.567   8.719   8.016  1.1402  2.3514  0.3957
  632MOL0     H87186  12.396   8.546   7.987  2.9282  2.1273 -2.0631
  632MOL0     H87187  12.275   8.648   8.056  0.7029  3.5319 -0.1941
  632MOL0     H87188  12.344   8.462   8.198 -0.4118  0.5015 -3.1422
  632MOL0     H87189  12.501   8.536   8.221  1.1232  0.8388 -1.7424
  632MOL0     H87190  12.243   8.674   8.256 -2.5878 -3.8312  2.1666
  632MOL0     H87191  12.406   8.741   8.300  1.0107 -1.1387 -2.7043
  632MOL0     H87192  12.412   8.551   8.484  0.5231  1.6685  0.5658
  632MOL0     H87193  12.274   8.471   8.409  0.3778  0.0556  0.8915
  632MOL0     H87194  12.202   8.559   8.609  1.3031 -1.2480 -1.0655
  632MOL0     H87195  12.133   8.681   8.494  0.1969  0.5359  3.1093
  632MOL0     H87196  12.244   8.699   7.717  0.4188  1.4848  0.8100
  632MOL0     H87197  12.175   8.609   7.508 -0.0410  0.0565  2.5091
  632MOL0     H87198  11.737   8.774   7.114  0.6317  1.1868 -1.1442
  632MOL0     H87199  11.692   8.685   6.908 -0.0874 -1.5873 -0.7453
  632MOL0     H87200  10.433   8.490   5.877  0.2389 -0.3000  0.2856
  632MOL0     H87201  10.220   8.401   5.904 -0.8886 -1.2509  0.6116
  632MOL0     H87202   9.926   8.005   6.002 -3.0034 -2.6524  0.2212
  632MOL0     H87203   9.757   7.876   6.141  2.2351 -1.9093  0.1805
  632MOL0     H87204   9.604   8.043   6.497 -0.0602 -0.0279 -1.8550
  632MOL0     H87205   9.518   8.023   6.346 -1.7238 -2.0323  0.6887
  632MOL0     H87206   9.534   7.821   6.562  2.3463  0.4974 -1.7146
  632MOL0     H87207   9.469   7.785   6.399  0.5833 -2.2679  1.8394
  632MOL0     H87208   9.380   8.024   6.590 -0.7966 -0.6565  0.2118
  632MOL0     H87209   9.314   8.002   6.434 -1.2490  1.4319  0.6798
  632MOL0     H87210   9.304   7.798   6.658 -3.2257  0.2470  2.2834
  632MOL0     H87211   9.192   7.805   6.510  2.7795 -0.1994 -1.7709
  632MOL0     H87212   8.988   8.060   6.747  0.2878 -0.6094  0.5841
  632MOL0     H87213   9.815   8.120   6.469  0.6411 -1.3209 -0.2939
  632MOL0     H87214   9.950   8.370   6.380 -1.0014 -0.9995  0.1764
  632MOL0     H87215  10.019   8.253   6.491  4.7273  0.1795 -1.3888
  632MOL0     H87216  10.115   8.304   6.359  0.6154 -1.1366 -0.3206
  633MOL0     O87217   8.698   1.268   1.585 -0.3156  0.6636 -0.2469
  633MOL0     C87218   8.664   1.377   1.642 -0.1154  0.5948 -0.0511
  633MOL0     O87219   8.673   1.496   1.589  0.0171  0.0248  0.4709
  633MOL0     C87220   8.758   1.531   1.492 -1.0774 -0.1562 -0.1792
  633MOL0     C87221   8.742   1.659   1.436 -0.0581 -0.8916 -0.7079
  633MOL0     C87222   8.835   1.712   1.340 -0.4479  0.3835 -0.4599
  633MOL0     C87223   8.943   1.633   1.294 -0.2612 -0.3762  0.0039
  633MOL0     O87224   9.022   1.672   1.182  0.2556  0.9387 -0.2852
  633MOL0     C87225   9.004   1.793   1.104  0.8046  0.1841  0.2877
  633MOL0     C87226   9.133   1.846   1.044  0.7899  0.1755  0.3378
  633MOL0     C87227   9.110   1.960   0.949 -0.2909  0.3773 -0.3043
  633MOL0     C87228   9.248   2.001   0.899 -0.0245 -0.7014  0.7703
  633MOL0     C87229   9.243   2.032   0.747  1.5212  0.2083  0.2120
  633MOL0     C87230   9.200   1.906   0.659 -0.2724  0.2417  0.8440
  633MOL0     C87231   9.243   1.923   0.509 -0.6756  0.5447 -0.2156
  633MOL0     C87232   9.190   2.039   0.435  0.3929 -1.4552  0.6923
  633MOL0     N87233   9.039   2.044   0.455  0.2760 -0.7732 -0.0327
  633MOL0     C87234   8.950   1.948   0.408  0.6503 -0.4029  1.0123
  633MOL0     C87235   8.832   1.981   0.466  0.2917  0.3310  0.3153
  633MOL0     C87236   8.711   1.901   0.467 -0.2036  0.2575  0.4251
  633MOL0     C87237   8.585   1.981   0.427 -0.0647 -0.5215 -0.2338
  633MOL0     C87238   8.464   1.893   0.361 -0.1887 -0.4562  0.4575
  633MOL0     C87239   8.387   1.814   0.467 -0.5898 -0.4445 -0.2980
  633MOL0     O87240   8.311   1.711   0.393 -0.1534 -0.5137 -0.4522
  633MOL0     C87241   8.268   1.606   0.469 -0.7014  0.5041  0.2031
  633MOL0     C87242   8.322   1.559   0.590  0.5567  0.0091 -0.7455
  633MOL0     C87243   8.289   1.439   0.652  0.0766  0.1144  0.4401
  633MOL0     C87244   8.356   1.403   0.783 -1.3254 -0.7306  0.0924
  633MOL0     C87245   8.168   1.375   0.605  0.2365 -0.8854 -0.1285
  633MOL0     C87246   8.108   1.252   0.658  0.3354 -0.1240  0.6797
  633MOL0     O87247   7.971   1.241   0.641  0.5293  0.2047 -0.0799
  633MOL0     C87248   7.906   1.143   0.709  0.0535 -0.1715 -0.3072
  633MOL0     C87249   7.796   1.092   0.649  0.2173  0.8009  0.1434
  633MOL0     C87250   7.702   1.019   0.726 -0.3947 -0.5428 -0.2681
  633MOL0     C87251   7.730   0.980   0.858  0.5466  0.5945  0.3540
  633MOL0     O87252   7.648   0.906   0.935  0.8538 -0.9402 -0.0729
  633MOL0     C87253   7.519   0.865   0.893  0.7494  0.2512 -0.1168
  633MOL0     C87254   7.489   0.770   1.005  0.1694  0.4919 -0.0767
  633MOL0     C87255   7.551   0.636   0.990 -0.0394  0.2173  0.7786
  633MOL0     C87256   7.496   0.524   1.083  0.3810  0.1559  0.2693
  633MOL0     C87257   7.587   0.406   1.100 -0.0201  0.0200  1.2896
  633MOL0     C87258   7.612   0.321   0.978  0.4723  0.6484  0.2502
  633MOL0     C87259   7.708   0.205   1.009 -0.1426  0.0522 -0.5799
  633MOL0     C87260   7.732   0.110   0.892  0.0618  0.3708  0.4785
  633MOL0    Cl87261   7.582   0.073   0.795  0.1938 -0.1226  0.3245
  633MOL0     C87262   7.855   1.020   0.915 -0.1964 -0.1193  0.0260
  633MOL0     C87263   7.930   1.111   0.845 -0.0278 -0.5473  0.0333
  633MOL0     O87264   8.190   1.159   0.691  0.8713  0.0593  0.0439
  633MOL0     C87265   8.104   1.429   0.489  0.2536 -1.1283  0.5608
  633MOL0     C87266   8.161   1.538   0.420 -0.5276  0.2188 -0.2580
  633MOL0     N87267   8.852   2.102   0.534 -0.7646  0.9648 -0.1163
  633MOL0     N87268   8.975   2.128   0.537 -0.7004 -0.1257 -0.2263
  633MOL0     C87269   8.962   1.513   1.357 -0.7278  0.0455 -1.1500
  633MOL0     C87270   8.880   1.468   1.456  0.0543  0.1554 -0.0913
  633MOL0     C87271   8.587   1.395   1.765 -0.0554  0.4470 -0.1836
  633MOL0     C87272   8.469   1.477   1.756 -0.2501  0.0358  0.0231
  633MOL0     C87273   8.390   1.484   1.868 -0.4959  0.0395 -0.0016
  633MOL0     C87274   8.421   1.411   1.987 -0.1256 -0.5484  0.2580
  633MOL0     O87275   8.351   1.398   2.101 -0.0331  0.4871 -0.6648
  633MOL0     C87276   8.228   1.472   2.107  1.0509  0.5591  0.5114
  633MOL0     C87277   8.165   1.468   2.247 -0.4356 -0.2894 -0.3022
  633MOL0     C87278   8.128   1.328   2.307 -0.1045  0.1461 -0.9439
  633MOL0     C87279   8.070   1.336   2.449  0.5051 -0.7360  0.5809
  633MOL0     C87280   7.939   1.416   2.454 -0.0928 -0.2763  0.8120
  633MOL0     C87281   7.843   1.487   2.467 -0.8745  0.3259 -0.7549
  633MOL0     C87282   8.530   1.327   1.994  0.4716 -0.9796  0.9510
  633MOL0     C87283   8.607   1.312   1.880 -0.4633 -0.4479  0.7274
  633MOL0     C87284   8.723   1.216   1.889  0.6243 -0.2569 -0.0385
  633MOL0     H87285   8.659   1.722   1.467  0.0581 -1.9669  2.0795
  633MOL0     H87286   8.819   1.807   1.292 -3.9287 -1.3161 -3.0870
  633MOL0     H87287   8.965   1.867   1.174 -1.3980 -2.2375  1.8046
  633MOL0     H87288   8.924   1.786   1.029 -0.0232  0.8198  1.0831
  633MOL0     H87289   9.205   1.883   1.117 -0.1846 -2.1702  2.6456
  633MOL0     H87290   9.169   1.760   0.986 -1.1332 -0.9331  0.6892
  633MOL0     H87291   9.057   1.922   0.862 -1.4909 -2.0232  1.3580
  633MOL0     H87292   9.074   2.048   1.003  1.4521 -0.3413  2.2479
  633MOL0     H87293   9.292   2.086   0.952  0.9428 -1.7656  1.7347
  633MOL0     H87294   9.309   1.911   0.913  1.8217  0.4659  0.6369
  633MOL0     H87295   9.339   2.068   0.710  0.8485  1.8798  0.0063
  633MOL0     H87296   9.176   2.117   0.733 -1.2533 -1.4259  2.4891
  633MOL0     H87297   9.248   1.818   0.702 -2.7616 -2.0868 -0.8128
  633MOL0     H87298   9.092   1.887   0.663 -0.1435 -0.6074  0.4881
  633MOL0     H87299   9.207   1.837   0.451 -0.5883  1.0256 -0.9977
  633MOL0     H87300   9.351   1.930   0.494 -0.3840  0.5391  1.5927
  633MOL0     H87301   9.252   2.123   0.468  2.1962 -3.5405  2.9861
  633MOL0     H87302   9.212   2.038   0.327  1.9975  0.8125  0.9298
  633MOL0     H87303   8.977   1.860   0.350  0.4608  1.1075 -1.5141
  633MOL0     H87304   8.701   1.856   0.566 -1.0938  1.4871  0.9165
  633MOL0     H87305   8.721   1.813   0.402  1.0302 -1.4688  2.8115
  633MOL0     H87306   8.545   2.026   0.519 -1.0356 -0.9395 -0.4344
  633MOL0     H87307   8.598   2.064   0.357 -1.7621 -0.5021 -0.5646
  633MOL0     H87308   8.390   1.961   0.320  0.8780  1.2545  1.2458
  633MOL0     H87309   8.496   1.833   0.275 -0.7137  2.4627 -1.9449
  633MOL0     H87310   8.462   1.772   0.536 -0.4835 -0.3450 -0.3520
  633MOL0     H87311   8.323   1.880   0.527 -0.3949 -0.1445 -0.4149
  633MOL0     H87312   8.411   1.604   0.632  0.0743 -0.9751  1.4194
  633MOL0     H87313   8.396   1.484   0.843  0.9298 -3.9780  3.4210
  633MOL0     H87314   8.436   1.329   0.771 -2.6413 -2.2740  0.3797
  633MOL0     H87315   8.283   1.347   0.843  1.1071  0.1958  4.3290
  633MOL0     H87316   7.772   1.124   0.548  0.8116 -0.4073 -0.4101
  633MOL0     H87317   7.607   0.987   0.684 -0.7601  0.0087  0.1212
  633MOL0     H87318   7.437   0.937   0.884 -2.0616 -2.4321  1.9274
  633MOL0     H87319   7.523   0.814   0.796  1.5901 -1.1968  0.6497
  633MOL0     H87320   7.510   0.808   1.105  0.4375 -0.2771  0.1748
  633MOL0     H87321   7.380   0.765   1.010  0.1927  1.0169  2.3431
  633MOL0     H87322   7.658   0.655   1.006 -0.2270  3.5013 -0.9052
  633MOL0     H87323   7.535   0.601   0.888  0.1691 -1.9119  1.4289
  633MOL0     H87324   7.395   0.490   1.056  0.6217 -0.2885 -0.1077
  633MOL0     H87325   7.490   0.568   1.182  1.3829 -0.9603  0.8488
  633MOL0     H87326   7.685   0.448   1.125  0.1435  1.6876 -1.6789
  633MOL0     H87327   7.536   0.361   1.186 -2.1402  1.6286  0.9556
  633MOL0     H87328   7.655   0.388   0.902  1.9495 -0.8015 -0.2613
  633MOL0     H87329   7.518   0.285   0.936  0.5091  2.6243 -1.7119
  633MOL0     H87330   7.673   0.148   1.095  0.9559 -0.8313 -0.6978
  633MOL0     H87331   7.804   0.253   1.033 -1.2268  2.0604 -0.0412
  633MOL0     H87332   7.798   0.025   0.912 -0.6819 -0.8063 -1.7129
  633MOL0     H87333   7.790   0.175   0.825  1.8060  0.3595  1.9063
  633MOL0     H87334   7.873   0.997   1.019 -2.6180  0.3432  0.6217
  633MOL0     H87335   8.008   1.155   0.907  0.6612 -3.5910  1.4773
  633MOL0     H87336   8.013   1.384   0.452 -0.3939 -0.6634  1.5469
  633MOL0     H87337   8.111   1.582   0.334  0.7397  3.4901  0.5372
  633MOL0     H87338   9.039   1.442   1.329 -1.5244 -1.9245  1.2681
  633MOL0     H87339   8.884   1.370   1.502  1.3242  0.3915  0.3408
  633MOL0     H87340   8.439   1.527   1.665  1.8852  1.3060 -0.0726
  633MOL0     H87341   8.306   1.553   1.864  2.4052  3.8663 -1.4125
  633MOL0     H87342   8.242   1.577   2.079  1.5638  0.3987  0.1569
  633MOL0     H87343   8.158   1.422   2.039 -0.6514  0.4285  2.2748
  633MOL0     H87344   8.080   1.536   2.249 -2.0320 -2.1654  1.8348
  633MOL0     H87345   8.240   1.515   2.311  1.2751  0.1510 -2.4858
  633MOL0     H87346   8.049   1.291   2.241 -2.0057  1.4407  0.4925
  633MOL0     H87347   8.215   1.262   2.305  0.9212  1.1916  2.1248
  633MOL0     H87348   8.153   1.371   2.511  0.7647 -1.1215  0.4549
  633MOL0     H87349   8.040   1.234   2.476 -0.4706 -0.3651  0.9428
  633MOL0     H87350   7.765   1.557   2.446  0.7048  1.9194 -1.5863
  633MOL0     H87351   8.555   1.267   2.081  1.6864 -1.1583  0.4959
  633MOL0     H87352   8.687   1.123   1.933 -0.5567  0.6611  1.0046
  633MOL0     H87353   8.783   1.192   1.801  0.6115 -1.6288  0.2945
  633MOL0     H87354   8.801   1.258   1.952  1.4116 -1.2495 -0.3230
  634MOL0     O87355   9.442   7.702   6.874 -0.0116  0.3303  0.3870
  634MOL0     C87356   9.337   7.639   6.862  0.7209  0.0646 -0.4367
  634MOL0     O87357   9.313   7.541   6.761 -0.1845  0.5577  0.0158
  634MOL0     C87358   9.420   7.509   6.683 -0.6162 -0.2971  0.5312
  634MOL0     C87359   9.539   7.446   6.732 -0.2733  0.1517  0.5983
  634MOL0     C87360   9.635   7.390   6.645  0.4980 -0.1051 -0.5508
  634MOL0     C87361   9.622   7.406   6.508  0.4687 -0.1409  0.2660
  634MOL0     O87362   9.721   7.356   6.425  0.7821 -0.3132 -0.4416
  634MOL0     C87363   9.790   7.440   6.334 -0.0826  0.3798  0.2061
  634MOL0     C87364   9.875   7.525   6.417 -0.7242  0.5584  0.5001
  634MOL0     C87365   9.948   7.643   6.357  0.2207 -0.8891  0.0371
  634MOL0     C87366  10.007   7.740   6.464 -0.1669 -0.2946  0.9741
  634MOL0     C87367  10.105   7.849   6.409  0.7974  0.9146 -0.0299
  634MOL0     C87368  10.140   7.949   6.527  0.2662  0.2633  0.3105
  634MOL0     C87369  10.259   8.036   6.504 -0.9652 -0.2833  0.2653
  634MOL0     C87370  10.385   7.952   6.482 -0.3367  0.1162  0.0342
  634MOL0     N87371  10.520   8.003   6.470 -0.7380  0.0674 -0.6368
  634MOL0     C87372  10.611   8.006   6.572  0.9096 -0.0564  0.1375
  634MOL0     C87373  10.731   8.048   6.521 -0.8798 -0.4053 -0.0709
  634MOL0     C87374  10.863   8.064   6.595  0.1138  0.0052  0.2294
  634MOL0     C87375  10.953   7.946   6.605  0.0662 -0.4108 -0.1330
  634MOL0     C87376  10.975   7.898   6.458  0.6227  0.3594 -0.0973
  634MOL0     C87377  11.105   7.822   6.434 -0.1135  0.1982  0.3425
  634MOL0     O87378  11.124   7.801   6.295 -0.6217  0.9596  0.6890
  634MOL0     C87379  11.221   7.718   6.249  0.3723 -0.6428  0.2764
  634MOL0     C87380  11.327   7.673   6.314  0.4209  0.2481  0.0565
  634MOL0     C87381  11.422   7.586   6.255 -0.7341 -0.7773 -0.0354
  634MOL0     C87382  11.540   7.540   6.333 -0.5579  0.0133  0.1059
  634MOL0     C87383  11.412   7.555   6.111 -0.6782 -0.2468 -0.3182
  634MOL0     C87384  11.521   7.486   6.029  0.0653 -0.1064  0.0661
  634MOL0     O87385  11.624   7.437   6.101  0.3840  0.0346  1.2177
  634MOL0     C87386  11.731   7.392   6.028  0.6539  0.3963  1.0668
  634MOL0     C87387  11.719   7.265   5.969 -0.6868 -0.6523 -0.0549
  634MOL0     C87388  11.829   7.208   5.909  0.1833  0.2698 -0.3564
  634MOL0     C87389  11.941   7.277   5.893 -0.5856 -0.1583  0.3161
  634MOL0     O87390  12.038   7.237   5.802 -0.3030 -0.4823 -0.0711
  634MOL0     C87391  12.174   7.249   5.835 -0.2842  0.0641  0.2147
  634MOL0     C87392  12.266   7.141   5.772  0.0512 -0.1681  0.3530
  634MOL0     C87393  12.418   7.180   5.774 -0.4509 -0.2800 -0.0369
  634MOL0     C87394  12.474   7.214   5.917  0.0734 -0.5648  0.3421
  634MOL0     C87395  12.620   7.247   5.896 -0.2181  0.3409 -0.0034
  634MOL0     C87396  12.681   7.304   6.020  0.7631 -0.5595  0.1219
  634MOL0     C87397  12.828   7.311   6.023 -0.5197  0.2680 -0.3250
  634MOL0     C87398  12.887   7.220   6.130 -0.4413  0.1425 -1.2156
  634MOL0    Cl87399  12.814   7.255   6.285  0.3286  0.2327  0.2336
  634MOL0     C87400  11.958   7.398   5.964  1.1251 -0.7311  0.0469
  634MOL0     C87401  11.856   7.457   6.039  0.7293  0.1277  0.5566
  634MOL0     O87402  11.502   7.467   5.911 -0.6328  0.3473 -0.2165
  634MOL0     C87403  11.297   7.600   6.044  1.1654 -0.1381 -0.0771
  634MOL0     C87404  11.210   7.686   6.115  0.5865  0.0719 -0.2486
  634MOL0     N87405  10.709   8.082   6.386  0.5735 -0.2446 -0.8189
  634MOL0     N87406  10.576   8.053   6.357  0.2796  0.1432 -0.2367
  634MOL0     C87407   9.507   7.473   6.458 -1.3897  0.3256  0.3521
  634MOL0     C87408   9.412   7.528   6.541 -0.5612  0.5661 -0.1926
  634MOL0     C87409   9.225   7.689   6.948 -0.0524 -0.6381  0.0246
  634MOL0     C87410   9.095   7.702   6.878  1.0030  0.1739 -0.8500
  634MOL0     C87411   8.985   7.761   6.945  0.2583  0.2539 -0.4519
  634MOL0     C87412   9.006   7.822   7.070 -0.2379  0.7184 -0.1771
  634MOL0     O87413   8.904   7.900   7.119  0.0009  0.4661  0.0934
  634MOL0     C87414   8.894   7.904   7.267 -0.1592 -0.3674 -0.0302
  634MOL0     C87415   8.755   7.965   7.304  0.3771  0.2824  0.3663
  634MOL0     C87416   8.710   7.968   7.444  0.1077 -0.8688 -0.0300
  634MOL0     C87417   8.799   8.047   7.536  0.0097  0.0349  0.5157
  634MOL0     C87418   8.926   7.978   7.565  0.1936  0.6281  0.4767
  634MOL0     C87419   9.035   7.917   7.581 -0.2067  0.6694  0.7346
  634MOL0     C87420   9.132   7.808   7.128  0.3637 -1.0062 -0.5817
  634MOL0     C87421   9.245   7.741   7.074  0.0470  0.3096 -0.1273
  634MOL0     C87422   9.364   7.719   7.158 -0.1800 -0.5185  0.6210
  634MOL0     H87423   9.563   7.420   6.834  0.1843 -1.8487  0.0224
  634MOL0     H87424   9.725   7.339   6.678  1.6743  1.4549 -1.2222
  634MOL0     H87425   9.733   7.503   6.265 -1.3487 -1.5150 -0.5786
  634MOL0     H87426   9.858   7.368   6.287 -0.3769 -1.2709  2.1677
  634MOL0     H87427   9.810   7.576   6.488  1.2025  1.2675  1.8391
  634MOL0     H87428   9.954   7.468   6.467  0.0483 -1.8388 -3.0329
  634MOL0     H87429  10.027   7.608   6.289 -0.7254  0.5002 -1.8719
  634MOL0     H87430   9.874   7.691   6.292 -1.1257 -0.2858  1.9499
  634MOL0     H87431   9.928   7.786   6.524 -1.4066 -1.6749  0.4680
  634MOL0     H87432  10.071   7.681   6.529 -0.3969  0.4689  1.9172
  634MOL0     H87433  10.067   7.907   6.324  0.9310  1.2519  0.1390
  634MOL0     H87434  10.189   7.788   6.375 -0.3334 -2.2006  2.2145
  634MOL0     H87435  10.053   8.012   6.549  1.4172  1.4554  1.7483
  634MOL0     H87436  10.155   7.897   6.622  1.4796 -0.4034 -0.2247
  634MOL0     H87437  10.267   8.109   6.585 -1.5867  0.3461 -0.2242
  634MOL0     H87438  10.242   8.092   6.412  0.6811  0.5943  0.4621
  634MOL0     H87439  10.390   7.889   6.572  2.0286  0.6703  0.3497
  634MOL0     H87440  10.374   7.888   6.395  2.8083 -0.9472  0.3015
  634MOL0     H87441  10.581   7.977   6.672  0.1978  0.3417  0.0463
  634MOL0     H87442  10.853   8.100   6.698 -0.3989  0.3244  0.0749
  634MOL0     H87443  10.919   8.137   6.536  1.5533 -2.1571 -1.2277
  634MOL0     H87444  11.041   7.973   6.664 -1.3927 -0.2271  2.0942
  634MOL0     H87445  10.911   7.863   6.664 -1.1082 -0.1896 -0.6402
  634MOL0     H87446  10.893   7.840   6.415 -1.9102  4.1680 -0.9013
  634MOL0     H87447  10.990   7.992   6.403  1.4100  0.1331 -0.2774
  634MOL0     H87448  11.187   7.885   6.469  1.2262 -1.3399  0.1175
  634MOL0     H87449  11.121   7.721   6.472  0.0111 -0.9325 -2.4537
  634MOL0     H87450  11.323   7.696   6.420 -3.6461 -1.5700  0.5058
  634MOL0     H87451  11.633   7.585   6.297  0.7631 -2.9037 -0.4597
  634MOL0     H87452  11.553   7.431   6.333  1.1983  0.0664  3.6705
  634MOL0     H87453  11.530   7.559   6.441 -4.2302 -3.8608  0.7587
  634MOL0     H87454  11.619   7.223   5.974 -0.8469 -0.3985 -0.9022
  634MOL0     H87455  11.808   7.110   5.867 -0.6933  0.6063 -0.7338
  634MOL0     H87456  12.204   7.349   5.803 -0.8453  0.4100  0.7418
  634MOL0     H87457  12.166   7.246   5.945 -2.6230  1.6398  0.1713
  634MOL0     H87458  12.244   7.050   5.828 -0.1399 -1.6576 -1.9675
  634MOL0     H87459  12.237   7.121   5.668  1.4133 -1.9100  0.2545
  634MOL0     H87460  12.446   7.261   5.706 -0.3579  1.9677  2.5057
  634MOL0     H87461  12.467   7.091   5.735 -1.2647 -1.3049  1.2069
  634MOL0     H87462  12.461   7.127   5.982  1.5401 -0.1481  1.2323
  634MOL0     H87463  12.414   7.297   5.954 -1.2487 -1.5606  0.4943
  634MOL0     H87464  12.676   7.158   5.868 -0.6085  0.3096 -0.6945
  634MOL0     H87465  12.645   7.314   5.813  1.7508 -2.7370 -2.0982
  634MOL0     H87466  12.629   7.267   6.108 -0.8059 -0.6934 -0.8218
  634MOL0     H87467  12.637   7.404   6.025  0.2447 -0.8326  1.6487
  634MOL0     H87468  12.869   7.411   6.040  5.3889 -1.6755 -0.7719
  634MOL0     H87469  12.877   7.282   5.930  0.2039  1.0987 -0.2144
  634MOL0     H87470  12.996   7.227   6.139 -0.4261 -2.1676  2.2780
  634MOL0     H87471  12.872   7.112   6.118  0.2700 -0.2269  0.8518
  634MOL0     H87472  12.054   7.446   5.951  0.5175  0.8973  1.2101
  634MOL0     H87473  11.869   7.555   6.084 -1.3466 -0.6193  3.0394
  634MOL0     H87474  11.271   7.579   5.941 -4.2407  0.3682  0.8791
  634MOL0     H87475  11.119   7.725   6.070 -0.5267 -0.7691  1.1689
  634MOL0     H87476   9.501   7.479   6.350  0.3016  1.9040  0.3000
  634MOL0     H87477   9.326   7.572   6.491 -1.6476 -1.7044 -0.4375
  634MOL0     H87478   9.086   7.677   6.772  3.5015 -0.4669 -0.9668
  634MOL0     H87479   8.893   7.762   6.888 -0.5085  0.0852  0.7313
  634MOL0     H87480   8.894   7.802   7.306  2.4951 -0.2895  0.3653
  634MOL0     H87481   8.980   7.955   7.311 -0.9245 -0.3573  1.5261
  634MOL0     H87482   8.678   7.908   7.251 -0.6318  2.6747 -0.9073
  634MOL0     H87483   8.755   8.066   7.262 -0.7076  0.6558  1.2079
  634MOL0     H87484   8.609   8.010   7.452  1.0794  1.4183  1.4867
  634MOL0     H87485   8.702   7.863   7.473 -2.4567 -0.5791  0.5582
  634MOL0     H87486   8.744   8.056   7.630  1.9064 -0.0588  1.6718
  634MOL0     H87487   8.830   8.143   7.495  3.0493 -1.1698 -0.2552
  634MOL0     H87488   9.129   7.869   7.597 -1.8914 -2.7015  1.5456
  634MOL0     H87489   9.159   7.859   7.220 -0.6824  0.6286 -1.1196
  634MOL0     H87490   9.338   7.688   7.260 -5.2526 -0.0780 -0.2766
  634MOL0     H87491   9.428   7.641   7.116  4.8418  3.0393  0.7028
  634MOL0     H87492   9.429   7.807   7.158  2.1173 -2.0771 -1.4442
  635MOL0     O87493   1.008   7.670   6.483  0.1739 -0.0274 -0.5254
  635MOL0     C87494   1.001   7.611   6.373 -0.4918 -0.2816 -0.9455
  635MOL0     O87495   1.089   7.611   6.274 -0.0520 -1.6464 -0.6745
  635MOL0     C87496   1.188   7.706   6.282 -0.5112  0.4079 -0.1202
  635MOL0     C87497   1.320   7.659   6.320  0.3530 -0.1097 -0.1354
  635MOL0     C87498   1.427   7.737   6.353  0.1395 -0.7257 -0.5451
  635MOL0     C87499   1.419   7.877   6.344 -0.6903  0.5370 -0.4352
  635MOL0     O87500   1.518   7.969   6.381  1.0906 -0.0486  0.5222
  635MOL0     C87501   1.596   8.022   6.276 -0.1371  0.0133 -0.6018
  635MOL0     C87502   1.699   7.922   6.241 -0.8893  0.5249 -0.2739
  635MOL0     C87503   1.796   7.900   6.355 -0.5196  0.3630  0.3475
  635MOL0     C87504   1.894   7.786   6.321 -0.5054 -0.3371 -0.0095
  635MOL0     C87505   2.006   7.779   6.428 -0.4929 -0.0624  0.2842
  635MOL0     C87506   2.091   7.907   6.431  0.9416  0.1832  0.1315
  635MOL0     C87507   2.220   7.888   6.502 -0.4077 -0.4988 -0.4557
  635MOL0     C87508   2.318   7.790   6.450 -0.0915 -0.0603 -0.2437
  635MOL0     N87509   2.447   7.819   6.494  0.0085  0.0417 -0.1753
  635MOL0     C87510   2.496   7.775   6.616  0.7493 -0.8882 -0.2369
  635MOL0     C87511   2.632   7.805   6.619  0.4269 -0.6428  0.7596
  635MOL0     C87512   2.719   7.764   6.735  0.3403 -0.2681  0.0217
  635MOL0     C87513   2.828   7.877   6.772 -0.8216 -0.2492 -0.0667
  635MOL0     C87514   2.965   7.834   6.721  0.1010 -0.1226 -0.2540
  635MOL0     C87515   3.059   7.946   6.722  1.0193 -0.5079  0.6967
  635MOL0     O87516   3.190   7.893   6.684 -0.2385 -0.1286 -0.2880
  635MOL0     C87517   3.296   7.968   6.629  0.2589  0.7350 -0.6560
  635MOL0     C87518   3.277   8.094   6.582 -0.0334  0.7876 -0.8885
  635MOL0     C87519   3.378   8.180   6.553 -0.3602  0.0132 -0.0728
  635MOL0     C87520   3.342   8.326   6.522 -0.2936  0.3347  0.2417
  635MOL0     C87521   3.515   8.127   6.559  0.3499  0.2286 -0.5759
  635MOL0     C87522   3.635   8.205   6.512 -0.2942 -0.6436 -0.1394
  635MOL0     O87523   3.754   8.161   6.554  0.3797 -0.2296 -0.3014
  635MOL0     C87524   3.867   8.233   6.540 -0.1393 -0.6238  0.4319
  635MOL0     C87525   3.856   8.372   6.568 -1.2465 -0.3339  0.3975
  635MOL0     C87526   3.971   8.449   6.550 -1.2865 -0.1763  1.1413
  635MOL0     C87527   4.088   8.390   6.504 -0.3337 -0.1530 -0.5150
  635MOL0     O87528   4.197   8.466   6.468 -0.5430  0.9718 -0.1280
  635MOL0     C87529   4.204   8.607   6.477  0.8117 -0.1027  0.5460
  635MOL0     C87530   4.350   8.648   6.440 -0.0491  0.2776 -0.4041
  635MOL0     C87531   4.364   8.800   6.420 -0.4709 -0.2333  0.2184
  635MOL0     C87532   4.512   8.831   6.397  0.5753  0.6330 -0.3254
  635MOL0     C87533   4.520   8.983   6.398  0.1206  0.2612 -0.2781
  635MOL0     C87534   4.657   9.029   6.336 -0.4079 -0.5351 -0.9421
  635MOL0     C87535   4.652   9.176   6.311 -0.0975 -0.7517  0.0417
  635MOL0     C87536   4.784   9.238   6.253  0.9153 -0.8313  0.5234
  635MOL0    Cl87537   4.753   9.410   6.235  0.0483  0.1248 -0.1304
  635MOL0     C87538   4.100   8.247   6.482  0.1717  0.6743  0.3594
  635MOL0     C87539   3.983   8.171   6.494  0.3732 -0.5274  0.2263
  635MOL0     O87540   3.617   8.308   6.448  0.8430 -0.2969  0.1396
  635MOL0     C87541   3.529   7.995   6.599  0.0353  0.7937  0.6160
  635MOL0     C87542   3.428   7.912   6.630  0.1491 -0.1071  0.7892
  635MOL0     N87543   2.650   7.873   6.495 -0.4861 -0.1875 -0.0134
  635MOL0     N87544   2.550   7.869   6.419 -0.2340  0.6169 -0.5170
  635MOL0     C87545   1.285   7.929   6.319 -0.3047  0.3101  0.1860
  635MOL0     C87546   1.174   7.845   6.287  0.1351  1.0670 -1.6183
  635MOL0     C87547   0.887   7.523   6.340 -0.2148 -0.1202 -0.1054
  635MOL0     C87548   0.901   7.406   6.267  0.7493  0.2387 -0.6649
  635MOL0     C87549   0.790   7.322   6.248  0.1723 -0.1405 -0.4920
  635MOL0     C87550   0.662   7.358   6.283 -0.4863 -0.3061 -0.1220
  635MOL0     O87551   0.554   7.280   6.264 -0.4302 -0.4706  0.2834
  635MOL0     C87552   0.569   7.139   6.242 -0.2335  0.0717 -0.8867
  635MOL0     C87553   0.438   7.076   6.290  0.1601 -0.2048 -0.9037
  635MOL0     C87554   0.401   7.102   6.435 -0.0198 -0.0604 -0.6292
  635MOL0     C87555   0.275   7.016   6.474 -1.0379  0.1325  0.8163
  635MOL0     C87556   0.158   7.063   6.406  1.2477  0.0090 -0.7937
  635MOL0     C87557   0.062   7.102   6.342  0.3666 -0.4845 -0.8622
  635MOL0     C87558   0.644   7.483   6.340 -0.1755 -0.0835 -0.4688
  635MOL0     C87559   0.752   7.565   6.372 -0.1088 -0.3912 -0.4283
  635MOL0     C87560   0.721   7.695   6.424 -0.4677  0.9445 -0.3708
  635MOL0     H87561   1.346   7.554   6.323  0.3232 -0.0929  1.5311
  635MOL0     H87562   1.528   7.705   6.380 -0.2945  0.7413  3.5667
  635MOL0     H87563   1.651   8.110   6.310  1.8326 -2.1859  2.4252
  635MOL0     H87564   1.541   8.048   6.184  2.0010 -1.0210 -2.2769
  635MOL0     H87565   1.663   7.820   6.220  0.5717  0.3293 -2.1208
  635MOL0     H87566   1.754   7.954   6.152  2.2313 -0.3669  1.2161
  635MOL0     H87567   1.863   7.980   6.387  2.0317 -1.5117 -0.0139
  635MOL0     H87568   1.744   7.874   6.447 -2.0867  0.1005 -0.5663
  635MOL0     H87569   1.847   7.688   6.312  0.2206 -0.5291 -2.3694
  635MOL0     H87570   1.934   7.818   6.224 -0.7375 -0.2050 -0.0601
  635MOL0     H87571   2.063   7.686   6.419 -1.4346 -1.0054  2.9790
  635MOL0     H87572   1.968   7.770   6.530 -0.9049 -4.5448 -0.0753
  635MOL0     H87573   2.124   7.940   6.332 -0.4076  0.6044 -0.1982
  635MOL0     H87574   2.043   7.987   6.488  1.6938 -0.5164  1.8108
  635MOL0     H87575   2.183   7.871   6.604 -2.1687  1.5781 -0.6841
  635MOL0     H87576   2.274   7.983   6.498 -0.5853 -0.4350 -1.4054
  635MOL0     H87577   2.302   7.687   6.483 -1.5414  1.5219  4.9288
  635MOL0     H87578   2.321   7.789   6.340  1.7820  1.0907 -0.2575
  635MOL0     H87579   2.438   7.735   6.698 -2.1345  3.9733  0.4431
  635MOL0     H87580   2.758   7.665   6.710  0.2192  0.0025 -1.2727
  635MOL0     H87581   2.658   7.740   6.823  1.7336 -1.6157  0.6527
  635MOL0     H87582   2.808   7.981   6.743 -1.3269 -0.1073  0.7517
  635MOL0     H87583   2.825   7.882   6.881 -2.8483 -2.6619  0.0868
  635MOL0     H87584   3.006   7.755   6.784 -2.6575 -0.3480  1.4180
  635MOL0     H87585   2.963   7.787   6.622  0.2891 -1.7492  0.5021
  635MOL0     H87586   3.022   8.022   6.652  2.5760  0.6063  1.0465
  635MOL0     H87587   3.063   7.988   6.823  0.2115  0.3354  0.3897
  635MOL0     H87588   3.180   8.141   6.575 -0.2285  0.3065 -1.5277
  635MOL0     H87589   3.379   8.353   6.423  3.3531 -2.7440  0.5343
  635MOL0     H87590   3.403   8.379   6.597  0.5075 -1.4195  0.8887
  635MOL0     H87591   3.235   8.341   6.533 -0.2832  1.3058 -0.7690
  635MOL0     H87592   3.772   8.429   6.608 -0.0139  1.9946 -0.1791
  635MOL0     H87593   3.961   8.555   6.568  0.8173  0.6642 -1.9272
  635MOL0     H87594   4.131   8.650   6.408 -0.7174 -0.1503  2.0804
  635MOL0     H87595   4.177   8.638   6.578 -0.6289 -1.3943  0.5894
  635MOL0     H87596   4.418   8.621   6.521 -0.6453 -0.2425 -0.0689
  635MOL0     H87597   4.380   8.600   6.346  2.3711  0.5323  0.1901
  635MOL0     H87598   4.331   8.843   6.514  1.0383  0.5638  0.4247
  635MOL0     H87599   4.300   8.826   6.335  0.7987 -1.2894 -1.1183
  635MOL0     H87600   4.549   8.780   6.308  0.8627 -0.0398  0.1744
  635MOL0     H87601   4.572   8.793   6.480 -0.0838  2.8978  1.2941
  635MOL0     H87602   4.434   9.035   6.354 -0.3411  1.3092  1.6989
  635MOL0     H87603   4.523   9.012   6.504 -0.5659  1.2903 -0.5274
  635MOL0     H87604   4.672   8.972   6.244  2.2842 -0.7626 -0.4464
  635MOL0     H87605   4.736   8.989   6.400 -0.6565  2.0538  1.1185
  635MOL0     H87606   4.642   9.221   6.410  3.9756 -1.6203  1.0462
  635MOL0     H87607   4.567   9.202   6.247 -0.3030  1.9624  1.3213
  635MOL0     H87608   4.812   9.195   6.156  0.0027 -2.0606  0.7677
  635MOL0     H87609   4.863   9.222   6.327  0.2542 -0.6960  1.2660
  635MOL0     H87610   4.192   8.199   6.451 -0.5743 -2.4009  2.4349
  635MOL0     H87611   3.995   8.065   6.472  1.8085 -0.1367 -1.0563
  635MOL0     H87612   3.628   7.949   6.602  0.5878  1.9571  0.7980
  635MOL0     H87613   3.440   7.808   6.659  2.0826  0.5923  2.8396
  635MOL0     H87614   1.272   8.036   6.322  0.6414  0.4642 -0.8165
  635MOL0     H87615   1.075   7.891   6.292  0.3154  1.4514  3.1547
  635MOL0     H87616   1.000   7.387   6.226  1.2755  1.5784 -0.0900
  635MOL0     H87617   0.814   7.227   6.202  4.3782  0.1022  0.8078
  635MOL0     H87618   0.571   7.111   6.136  0.8020  0.7972 -1.0753
  635MOL0     H87619   0.654   7.091   6.291 -1.2227 -2.6938 -1.6492
  635MOL0     H87620   0.427   6.969   6.273 -0.8123 -0.1772 -0.5221
  635MOL0     H87621   0.358   7.120   6.231 -1.8702 -0.9529  1.1597
  635MOL0     H87622   0.486   7.066   6.494 -1.0560 -2.4020 -0.4374
  635MOL0     H87623   0.381   7.208   6.453  0.8107  0.4040 -2.2552
  635MOL0     H87624   0.270   7.024   6.583 -0.6602  2.6582  0.6991
  635MOL0     H87625   0.291   6.911   6.447  0.4533 -0.5109  3.7296
  635MOL0     H87626  -0.021   7.134   6.282 -0.6739 -2.7473 -0.7134
  635MOL0     H87627   0.547   7.525   6.360  0.0380  1.0254 -1.5848
  635MOL0     H87628   0.746   7.693   6.530  0.5026 -0.7743 -0.6026
  635MOL0     H87629   0.782   7.776   6.381  2.9875 -1.4125 -0.2767
  635MOL0     H87630   0.615   7.716   6.402 -0.4814 -0.3546 -1.6637
  636MOL0     O87631   3.561  11.048   6.864  0.2940 -0.0540  0.2321
  636MOL0     C87632   3.533  10.938   6.831 -0.2768 -0.4089  0.2862
  636MOL0     O87633   3.439  10.856   6.889  0.1462 -0.3889  0.0652
  636MOL0     C87634   3.349  10.912   6.977 -0.3348 -0.6189 -0.4235
  636MOL0     C87635   3.259  11.006   6.935  0.8858 -0.9243  0.0134
  636MOL0     C87636   3.178  11.068   7.037  0.2919  0.1387  0.4508
  636MOL0     C87637   3.183  11.028   7.170 -1.2004 -0.2289  0.0794
  636MOL0     O87638   3.135  11.082   7.283  0.7246  0.1604  1.0278
  636MOL0     C87639   3.108  11.222   7.298  0.3250  0.5295 -0.3406
  636MOL0     C87640   2.958  11.256   7.269  0.1457 -1.0018 -0.0509
  636MOL0     C87641   2.937  11.409   7.271 -0.2344  0.0937  0.6106
  636MOL0     C87642   2.946  11.470   7.422  0.3045  1.0656  0.2215
  636MOL0     C87643   2.901  11.613   7.413  0.5260  1.0140 -0.3290
  636MOL0     C87644   2.882  11.676   7.556 -0.3884 -0.4927 -0.3138
  636MOL0     C87645   2.818  11.809   7.540 -0.4910  0.4550 -0.5190
  636MOL0     C87646   2.794  11.879   7.675 -0.4795  0.1670  0.3029
  636MOL0     N87647   2.705  11.798   7.758 -0.7324 -0.1489 -0.5783
  636MOL0     C87648   2.577  11.771   7.720 -0.1804 -0.3678  0.1752
  636MOL0     C87649   2.539  11.675   7.803  0.1005 -0.4494  0.6624
  636MOL0     C87650   2.408  11.594   7.781 -0.2151  0.4516  0.3648
  636MOL0     C87651   2.371  11.591   7.630 -0.3942  0.2388 -0.3854
  636MOL0     C87652   2.286  11.470   7.605 -0.5333 -0.1379  0.8104
  636MOL0     C87653   2.359  11.338   7.599 -0.4830  0.1340 -0.7722
  636MOL0     O87654   2.443  11.343   7.477 -0.0525  0.4572  0.1653
  636MOL0     C87655   2.451  11.234   7.395 -0.0795  0.3768  0.2741
  636MOL0     C87656   2.522  11.264   7.279  0.3096 -0.1174  0.2968
  636MOL0     C87657   2.564  11.164   7.191  0.0253  0.3325  0.7455
  636MOL0     C87658   2.648  11.206   7.064  0.5846  0.1466 -0.6093
  636MOL0     C87659   2.533  11.032   7.217 -0.4212  0.5059 -0.3145
  636MOL0     C87660   2.580  10.909   7.136 -0.7805  0.4623  0.3021
  636MOL0     O87661   2.535  10.784   7.157  0.3781  0.3138  0.3421
  636MOL0     C87662   2.578  10.689   7.080 -0.7823 -0.1325  0.4107
  636MOL0     C87663   2.645  10.583   7.144  1.0548 -0.5677 -0.5426
  636MOL0     C87664   2.687  10.476   7.071  0.0096 -0.2131  0.7660
  636MOL0     C87665   2.689  10.471   6.931  0.2170 -1.2461  0.8127
  636MOL0     O87666   2.744  10.363   6.869 -0.4538  0.5152 -0.2115
  636MOL0     C87667   2.753  10.354   6.723  0.1478  0.0618 -0.9531
  636MOL0     C87668   2.790  10.210   6.689  1.0012 -0.2595  0.1307
  636MOL0     C87669   2.946  10.200   6.721 -0.6723  1.2413  0.0482
  636MOL0     C87670   2.998  10.063   6.688 -1.2887 -0.1582 -0.4276
  636MOL0     C87671   2.961   9.949   6.787  0.1997 -0.1253  0.5922
  636MOL0     C87672   3.038   9.820   6.775  0.5495 -0.9246 -0.5965
  636MOL0     C87673   3.022   9.772   6.636  0.0766 -0.2948  0.1240
  636MOL0     C87674   3.088   9.637   6.627 -0.6222  0.1566  0.8786
  636MOL0    Cl87675   3.006   9.517   6.743 -0.1153 -0.4453 -0.0810
  636MOL0     C87676   2.628  10.583   6.867  0.7993  1.3277  0.2414
  636MOL0     C87677   2.570  10.688   6.940  1.1089  0.6542  0.1683
  636MOL0     O87678   2.682  10.937   7.080 -0.1253 -0.0395  0.0328
  636MOL0     C87679   2.452  10.998   7.332  0.1221 -0.5293  0.3699
  636MOL0     C87680   2.413  11.097   7.419 -0.8804 -0.5337  0.3034
  636MOL0     N87681   2.635  11.662   7.904 -0.9176 -0.2597 -0.5610
  636MOL0     N87682   2.742  11.734   7.877  0.1989  0.0875  1.4341
  636MOL0     C87683   3.274  10.931   7.201  0.0470  1.6212 -0.2548
  636MOL0     C87684   3.360  10.871   7.110  0.2613 -0.0508 -0.0472
  636MOL0     C87685   3.597  10.889   6.715  0.1112 -0.3689  0.7750
  636MOL0     C87686   3.520  10.799   6.632 -0.0101  0.6928  0.3880
  636MOL0     C87687   3.580  10.740   6.519 -0.0037 -0.0462 -0.2235
  636MOL0     C87688   3.718  10.773   6.481 -0.0821  0.5836  0.2340
  636MOL0     O87689   3.777  10.745   6.356  0.1202 -0.9714 -0.3868
  636MOL0     C87690   3.775  10.617   6.296  0.1425  0.5098  0.6672
  636MOL0     C87691   3.713  10.626   6.150  0.4710  0.7061 -0.8994
  636MOL0     C87692   3.575  10.701   6.131 -0.5415 -0.6396  0.4774
  636MOL0     C87693   3.532  10.715   5.978 -0.2242 -0.7571 -0.3935
  636MOL0     C87694   3.403  10.783   5.980  0.1428  0.6310  0.3358
  636MOL0     C87695   3.294  10.831   5.965  0.3119  0.3517 -0.5885
  636MOL0     C87696   3.778  10.863   6.561  0.2140 -0.2762 -0.4107
  636MOL0     C87697   3.723  10.925   6.672 -0.5445  0.8214 -0.2269
  636MOL0     C87698   3.819  11.010   6.755  0.0059 -0.1038 -0.4297
  636MOL0     H87699   3.271  11.035   6.831  0.8366 -1.6668 -0.2067
  636MOL0     H87700   3.122  11.154   7.002  0.6326  0.1764 -0.0082
  636MOL0     H87701   3.178  11.274   7.232  0.0628 -0.6221 -1.5759
  636MOL0     H87702   3.131  11.238   7.404  0.5408  0.6731 -0.4086
  636MOL0     H87703   2.931  11.216   7.171 -1.5143 -0.8117  0.2950
  636MOL0     H87704   2.888  11.204   7.335 -0.1052  0.2945  0.7331
  636MOL0     H87705   3.014  11.452   7.207  1.5956 -2.4499  0.9939
  636MOL0     H87706   2.833  11.430   7.243 -0.7718  0.8917  2.9615
  636MOL0     H87707   2.883  11.402   7.480 -0.6614  0.2525 -1.6948
  636MOL0     H87708   3.046  11.457   7.467  0.3811 -3.0709 -0.7680
  636MOL0     H87709   2.801  11.608   7.369 -1.0075  3.7283  2.4657
  636MOL0     H87710   2.974  11.673   7.357 -0.0242  0.1643 -2.0443
  636MOL0     H87711   2.824  11.609   7.620  1.5844 -1.8729  0.1241
  636MOL0     H87712   2.982  11.688   7.598 -1.3191  1.1244  1.6286
  636MOL0     H87713   2.721  11.789   7.494 -0.4168 -3.0153  0.5094
  636MOL0     H87714   2.878  11.873   7.475 -1.3061  2.5044  0.6759
  636MOL0     H87715   2.888  11.886   7.731 -2.5464  2.3684  3.9044
  636MOL0     H87716   2.745  11.975   7.657 -2.3176 -1.1596 -2.4979
  636MOL0     H87717   2.522  11.805   7.632  0.1022 -2.1085 -0.7202
  636MOL0     H87718   2.328  11.617   7.852  0.0981 -2.0781  1.6257
  636MOL0     H87719   2.442  11.494   7.808  0.9623 -0.5604 -4.0132
  636MOL0     H87720   2.319  11.680   7.594  1.7026  0.9125 -2.0108
  636MOL0     H87721   2.461  11.589   7.567  0.1604 -0.6882  0.4154
  636MOL0     H87722   2.211  11.472   7.684  0.1613 -3.6894  1.7650
  636MOL0     H87723   2.243  11.471   7.505 -0.3674 -0.4660  0.7350
  636MOL0     H87724   2.414  11.324   7.692 -0.4404 -0.8604 -0.9354
  636MOL0     H87725   2.287  11.256   7.598 -1.1020  0.6159  0.9509
  636MOL0     H87726   2.553  11.365   7.256  0.0869 -0.0982  0.0828
  636MOL0     H87727   2.633  11.312   7.040  0.1322 -0.2383 -2.1675
  636MOL0     H87728   2.602  11.157   6.978  0.1034  2.8637 -2.0167
  636MOL0     H87729   2.752  11.180   7.083  1.0398  1.0151 -1.8215
  636MOL0     H87730   2.664  10.574   7.250  2.0421 -0.2169 -0.6800
  636MOL0     H87731   2.747  10.399   7.119  1.0814 -0.9194 -1.5632
  636MOL0     H87732   2.653  10.377   6.685 -0.0067  1.2206  0.0978
  636MOL0     H87733   2.811  10.438   6.685 -1.7925  2.0578  0.2307
  636MOL0     H87734   2.731  10.140   6.748 -1.1573 -0.9090 -2.5773
  636MOL0     H87735   2.780  10.197   6.581  2.1541  3.0060 -0.4850
  636MOL0     H87736   2.973  10.230   6.823 -3.2268  0.9513  0.8953
  636MOL0     H87737   3.006  10.262   6.654 -1.2399  2.3658  0.5487
  636MOL0     H87738   3.106  10.077   6.677 -0.8941 -1.0623  1.8160
  636MOL0     H87739   2.965  10.040   6.586  1.7462  2.1247 -2.0767
  636MOL0     H87740   2.964   9.988   6.890  2.4800  2.6740 -0.3942
  636MOL0     H87741   2.857   9.925   6.765  0.2484 -0.1964  0.4372
  636MOL0     H87742   2.987   9.755   6.847  0.6421 -1.2391 -0.8131
  636MOL0     H87743   3.140   9.844   6.806 -0.2242  1.4887  0.2999
  636MOL0     H87744   3.073   9.853   6.583 -1.8645  0.2571 -1.0046
  636MOL0     H87745   2.917   9.770   6.606  0.2185  0.6719 -0.5016
  636MOL0     H87746   3.193   9.644   6.656 -0.3926 -1.3919  0.5475
  636MOL0     H87747   3.094   9.587   6.530  0.6124 -0.2368  1.1392
  636MOL0     H87748   2.638  10.573   6.759  1.3345  0.5018  0.3591
  636MOL0     H87749   2.525  10.774   6.891 -0.0610  1.8081  3.0402
  636MOL0     H87750   2.434  10.893   7.352  0.3242 -0.8106 -0.8540
  636MOL0     H87751   2.351  11.059   7.499 -0.2615  0.5146  1.3131
  636MOL0     H87752   3.270  10.906   7.307 -0.6835  0.9853 -0.4169
  636MOL0     H87753   3.422  10.785   7.135 -1.3524 -1.0509  0.7655
  636MOL0     H87754   3.416  10.777   6.654  0.5421  0.0651  2.5429
  636MOL0     H87755   3.516  10.675   6.459 -0.9449  1.3532 -0.8059
  636MOL0     H87756   3.877  10.578   6.301 -0.4097 -1.1184 -0.1743
  636MOL0     H87757   3.716  10.550   6.360  0.5982 -1.3818 -0.8217
  636MOL0     H87758   3.704  10.522   6.115  1.4915 -0.4692  2.0118
  636MOL0     H87759   3.779  10.690   6.092 -0.6044  2.4626 -0.2754
  636MOL0     H87760   3.492  10.657   6.187 -0.1593 -2.4625 -0.3092
  636MOL0     H87761   3.592  10.807   6.154 -0.4286  0.3550 -3.4948
  636MOL0     H87762   3.513  10.624   5.921 -0.1843 -1.3316  0.4952
  636MOL0     H87763   3.601  10.784   5.928 -1.8277  1.0238 -0.2583
  636MOL0     H87764   3.207  10.886   5.937 -0.1934  0.6471  1.4260
  636MOL0     H87765   3.877  10.897   6.531  0.6288 -1.6556 -0.7154
  636MOL0     H87766   3.797  11.117   6.757  4.2805  0.9551 -0.4785
  636MOL0     H87767   3.827  10.972   6.858  3.2039  2.1120  0.2899
  636MOL0     H87768   3.920  11.003   6.713 -0.2343 -1.1035 -0.8672
  637MOL0     O87769   4.897   8.244   3.384  0.5163 -0.0907 -0.8370
  637MOL0     C87770   4.798   8.260   3.454  0.2448  0.9951 -0.0191
  637MOL0     O87771   4.793   8.296   3.588  0.2347 -0.2973  0.2009
  637MOL0     C87772   4.904   8.289   3.667  0.6269  0.0111 -0.0336
  637MOL0     C87773   4.910   8.362   3.790  0.6145  0.1343  0.0048
  637MOL0     C87774   5.018   8.347   3.880 -0.5887  0.2214  0.6039
  637MOL0     C87775   5.132   8.263   3.854 -0.3541 -0.9217 -0.7958
  637MOL0     O87776   5.221   8.229   3.950 -0.8048 -0.2091 -0.2963
  637MOL0     C87777   5.323   8.127   3.926 -0.0388  0.5037  0.1102
  637MOL0     C87778   5.404   8.096   4.058  0.1465  0.3206 -0.1159
  637MOL0     C87779   5.482   8.226   4.103  0.6056  0.5275  0.6598
  637MOL0     C87780   5.523   8.226   4.247 -0.3226  0.0209  0.7406
  637MOL0     C87781   5.607   8.345   4.280 -0.7504 -0.8747  0.3997
  637MOL0     C87782   5.657   8.339   4.422  0.6682  0.1965  0.3705
  637MOL0     C87783   5.767   8.446   4.453  0.3428  0.1713  0.5417
  637MOL0     C87784   5.907   8.423   4.401 -0.2879  0.7008 -0.1663
  637MOL0     N87785   5.981   8.549   4.406  0.3069  0.9923 -0.5589
  637MOL0     C87786   6.048   8.581   4.522 -0.2239 -0.1328  1.1872
  637MOL0     C87787   6.122   8.679   4.472  0.1173  0.1103  0.1438
  637MOL0     C87788   6.225   8.733   4.572  0.3775  1.1876  0.1623
  637MOL0     C87789   6.314   8.626   4.644 -0.1578 -0.3989  0.1294
  637MOL0     C87790   6.409   8.552   4.541  0.8978  0.1089  0.2998
  637MOL0     C87791   6.537   8.632   4.516 -0.8000  0.1846 -0.4007
  637MOL0     O87792   6.623   8.549   4.441  0.4920 -0.4374 -0.4879
  637MOL0     C87793   6.748   8.608   4.409 -0.0285  0.3451 -0.1162
  637MOL0     C87794   6.804   8.717   4.467  0.1592 -0.7246  0.8836
  637MOL0     C87795   6.931   8.774   4.430  0.0883  0.0488  0.4744
  637MOL0     C87796   6.968   8.905   4.501 -0.0213  0.3960  0.0467
  637MOL0     C87797   7.003   8.710   4.323 -0.3336 -0.5747  0.0391
  637MOL0     C87798   7.124   8.762   4.252  0.9830  0.0294 -0.3961
  637MOL0     O87799   7.181   8.689   4.156 -0.2230  1.0466  0.0654
  637MOL0     C87800   7.288   8.744   4.084 -0.9537 -0.0636  0.6958
  637MOL0     C87801   7.282   8.867   4.019 -0.6214 -0.5127 -0.0873
  637MOL0     C87802   7.393   8.918   3.945  0.3036  0.2498  0.4314
  637MOL0     C87803   7.506   8.844   3.930 -0.0873  0.4390  0.1117
  637MOL0     O87804   7.607   8.873   3.842 -0.1383  0.4044 -0.0378
  637MOL0     C87805   7.722   8.937   3.898  0.8346 -0.5601  0.4572
  637MOL0     C87806   7.850   8.895   3.828  0.1135 -0.1968 -0.7062
  637MOL0     C87807   7.843   8.923   3.673 -0.4720  0.1093 -0.2139
  637MOL0     C87808   7.801   9.065   3.624  0.4356  0.4045 -0.4905
  637MOL0     C87809   7.836   9.072   3.470 -0.2277 -0.2414 -0.7131
  637MOL0     C87810   7.988   9.076   3.437 -0.5295 -0.6936  0.0098
  637MOL0     C87811   8.004   9.066   3.284  0.3926 -0.7017 -0.3549
  637MOL0     C87812   8.146   9.106   3.240 -0.0568  0.2419  0.3593
  637MOL0    Cl87813   8.164   9.285   3.250  0.5437  0.3878  0.4058
  637MOL0     C87814   7.523   8.720   4.005 -0.1085  0.0186  0.4138
  637MOL0     C87815   7.415   8.680   4.078  0.6150 -0.9234 -1.2548
  637MOL0     O87816   7.177   8.857   4.304  1.1451 -0.4008 -0.4149
  637MOL0     C87817   6.951   8.584   4.283  0.3708 -0.3313  0.1527
  637MOL0     C87818   6.833   8.532   4.327  0.4687 -0.0942  0.4087
  637MOL0     N87819   6.097   8.710   4.333 -0.4961 -1.5692 -0.1198
  637MOL0     N87820   6.015   8.621   4.299 -0.1978 -0.0858  0.1715
  637MOL0     C87821   5.122   8.192   3.732  0.0964  0.0046  0.3626
  637MOL0     C87822   5.013   8.204   3.646  0.2861  0.0766 -0.5698
  637MOL0     C87823   4.665   8.240   3.396 -0.9196  0.1936  0.1163
  637MOL0     C87824   4.565   8.324   3.444 -0.0495  0.3229  0.0143
  637MOL0     C87825   4.444   8.345   3.384  0.3333  0.2535  0.6575
  637MOL0     C87826   4.404   8.252   3.283 -0.4905 -0.4386 -0.6551
  637MOL0     O87827   4.294   8.255   3.208 -0.1349 -1.1946  0.0566
  637MOL0     C87828   4.215   8.376   3.196  0.6241 -0.4573  0.1723
  637MOL0     C87829   4.087   8.373   3.289  0.4359  0.0499 -0.1295
  637MOL0     C87830   4.019   8.233   3.296  0.7972  0.5225  0.6568
  637MOL0     C87831   3.898   8.238   3.390 -0.5282  0.1270 -0.3893
  637MOL0     C87832   3.858   8.101   3.413  0.7575 -0.5115  0.0561
  637MOL0     C87833   3.831   7.981   3.422  0.1221  0.2469 -0.3711
  637MOL0     C87834   4.494   8.153   3.242  1.2263  0.3099 -0.1529
  637MOL0     C87835   4.624   8.145   3.298  0.4956 -0.5189  0.2370
  637MOL0     C87836   4.721   8.050   3.239 -0.6262 -0.2349 -0.1797
  637MOL0     H87837   4.825   8.425   3.812  0.1592 -0.6943  0.6883
  637MOL0     H87838   5.023   8.404   3.972  1.0948 -0.2615  0.8509
  637MOL0     H87839   5.386   8.157   3.842  1.0520 -2.5938 -0.2936
  637MOL0     H87840   5.275   8.037   3.886  0.6739  0.5128 -0.7887
  637MOL0     H87841   5.342   8.061   4.141  1.1967 -1.8814 -0.1951
  637MOL0     H87842   5.479   8.018   4.045 -0.6199 -1.0099  2.7144
  637MOL0     H87843   5.556   8.231   4.023 -0.3111 -0.4324 -0.2776
  637MOL0     H87844   5.417   8.312   4.087  0.7391  0.4073 -0.6310
  637MOL0     H87845   5.429   8.225   4.303  0.1849  0.8328  1.6203
  637MOL0     H87846   5.579   8.135   4.271  1.7705  1.2088  0.5998
  637MOL0     H87847   5.545   8.433   4.260 -1.8598 -2.0944 -1.8803
  637MOL0     H87848   5.689   8.357   4.209 -2.5241  2.8734 -1.3202
  637MOL0     H87849   5.568   8.365   4.479  0.2973  2.1068 -0.9533
  637MOL0     H87850   5.690   8.238   4.448  1.2652 -0.8621 -3.8320
  637MOL0     H87851   5.760   8.474   4.558 -2.3156 -2.5091  1.2110
  637MOL0     H87852   5.729   8.537   4.405 -2.5443 -0.2668  1.7532
  637MOL0     H87853   5.964   8.339   4.442 -0.4437  0.6866  0.0253
  637MOL0     H87854   5.899   8.401   4.295 -2.0093  1.9254 -0.3311
  637MOL0     H87855   6.054   8.542   4.623 -0.1279 -0.5403  1.0271
  637MOL0     H87856   6.166   8.797   4.638 -2.3985 -2.6883  1.7446
  637MOL0     H87857   6.296   8.786   4.507  0.9143 -0.7907 -0.9364
  637MOL0     H87858   6.377   8.680   4.715  0.0124 -3.4026  2.4484
  637MOL0     H87859   6.260   8.546   4.694  0.7257 -2.3994 -1.9457
  637MOL0     H87860   6.431   8.462   4.599 -1.6216  0.0412  1.2993
  637MOL0     H87861   6.356   8.523   4.450  1.5507 -1.8313  0.5018
  637MOL0     H87862   6.514   8.728   4.469  0.9770  1.3294  0.9468
  637MOL0     H87863   6.584   8.661   4.610 -1.6602  1.0396 -0.2170
  637MOL0     H87864   6.749   8.777   4.539  3.6513  2.9646  0.8660
  637MOL0     H87865   6.994   8.976   4.422 -0.0483 -1.1198 -1.3700
  637MOL0     H87866   7.060   8.901   4.561  0.3968 -0.0537 -0.6062
  637MOL0     H87867   6.892   8.944   4.569  0.0430 -1.5661  1.3309
  637MOL0     H87868   7.190   8.925   4.020 -0.1790  0.2862 -2.0333
  637MOL0     H87869   7.376   8.999   3.875 -0.2824 -1.4264 -1.4853
  637MOL0     H87870   7.708   9.043   3.873 -2.3253 -0.9640  0.1923
  637MOL0     H87871   7.730   8.939   4.007 -1.6519  1.1495  0.6869
  637MOL0     H87872   7.932   8.943   3.882 -0.4525 -1.2334  1.1658
  637MOL0     H87873   7.857   8.787   3.842 -1.9009 -0.1086  1.8025
  637MOL0     H87874   7.786   8.839   3.632  1.7128 -1.9043  0.6055
  637MOL0     H87875   7.948   8.899   3.654 -0.5937 -0.9676  0.3895
  637MOL0     H87876   7.851   9.140   3.686 -1.4445 -0.7163  2.6427
  637MOL0     H87877   7.691   9.069   3.623  0.4103  0.1759  0.3199
  637MOL0     H87878   7.800   8.981   3.422  0.5006 -0.3709 -1.0276
  637MOL0     H87879   7.786   9.157   3.423  2.9327  1.8162 -0.6701
  637MOL0     H87880   8.054   9.009   3.493  2.9873  2.9876  0.7467
  637MOL0     H87881   8.019   9.177   3.466  1.5397 -0.7685 -1.7119
  637MOL0     H87882   7.929   9.125   3.230 -1.8436 -3.1738 -0.1262
  637MOL0     H87883   7.987   8.961   3.258 -0.7327  0.2185 -3.8986
  637MOL0     H87884   8.166   9.083   3.135 -1.4342  1.3393 -0.1894
  637MOL0     H87885   8.223   9.056   3.299 -0.2403  0.9057  1.1732
  637MOL0     H87886   7.611   8.657   3.998 -1.1752 -1.4539 -0.4935
  637MOL0     H87887   7.411   8.589   4.137  2.1843  0.3127  0.8946
  637MOL0     H87888   6.990   8.530   4.197 -1.0750 -1.2031  0.0019
  637MOL0     H87889   6.803   8.447   4.267 -0.4430  0.4052  0.1446
  637MOL0     H87890   5.201   8.122   3.703 -0.0319  0.5305 -1.3727
  637MOL0     H87891   5.016   8.146   3.555  3.4503 -0.2499 -0.3621
  637MOL0     H87892   4.583   8.388   3.530  2.7306 -0.7254  0.3348
  637MOL0     H87893   4.372   8.416   3.424 -0.9827  1.7387 -3.7036
  637MOL0     H87894   4.267   8.465   3.232  3.2446 -1.7429 -0.1783
  637MOL0     H87895   4.187   8.392   3.091  0.5687  2.7606  0.5879
  637MOL0     H87896   4.012   8.451   3.286  0.8596  0.4729  0.1309
  637MOL0     H87897   4.127   8.388   3.389 -2.8114  3.8600  0.8364
  637MOL0     H87898   3.984   8.199   3.198  3.8778 -1.8011  0.1993
  637MOL0     H87899   4.091   8.162   3.337  0.7868  0.4432  0.5340
  637MOL0     H87900   3.813   8.290   3.344  1.0033  2.2775 -0.9631
  637MOL0     H87901   3.932   8.287   3.481 -0.3449  1.0894 -0.9637
  637MOL0     H87902   3.803   7.878   3.428 -2.0150  0.8563  1.7952
  637MOL0     H87903   4.467   8.084   3.162  2.1548 -3.6205  2.5924
  637MOL0     H87904   4.778   7.993   3.313 -0.6178 -0.4652 -0.3588
  637MOL0     H87905   4.688   7.981   3.160  1.7235  0.7535 -2.1433
  637MOL0     H87906   4.795   8.115   3.192  1.2730 -0.1310  2.7185
  638MOL0     O87907   2.649   7.178   0.746  0.0892  0.3847  0.5356
  638MOL0     C87908   2.712   7.265   0.808 -0.3183 -0.1536 -0.4637
  638MOL0     O87909   2.656   7.377   0.855 -0.0610  0.3470  0.0066
  638MOL0     C87910   2.542   7.359   0.925  0.0441 -0.5480 -0.5305
  638MOL0     C87911   2.538   7.367   1.066  0.0797 -0.7753  0.3962
  638MOL0     C87912   2.416   7.369   1.136  0.1957  0.2886  0.4830
  638MOL0     C87913   2.296   7.333   1.073 -0.3267  0.4419  0.3280
  638MOL0     O87914   2.200   7.283   1.159 -0.3565  0.3395 -0.4217
  638MOL0     C87915   2.068   7.268   1.108 -0.2410  0.1839 -0.1934
  638MOL0     C87916   1.999   7.400   1.091 -0.1601  0.1061  0.0438
  638MOL0     C87917   2.038   7.503   1.198  0.5264  0.2203 -0.6500
  638MOL0     C87918   1.969   7.639   1.172 -0.8009  0.1952 -0.1518
  638MOL0     C87919   2.019   7.725   1.294  0.3790 -0.2934 -0.1343
  638MOL0     C87920   1.969   7.868   1.294  0.2808 -0.5734  0.1532
  638MOL0     C87921   2.006   7.933   1.430 -0.4984 -0.0910 -0.7979
  638MOL0     C87922   1.894   7.894   1.528  0.5370 -0.6499  0.6034
  638MOL0     N87923   1.763   7.954   1.488  0.7212 -0.2419 -0.2458
  638MOL0     C87924   1.720   8.083   1.512  0.0768 -0.9089 -0.3112
  638MOL0     C87925   1.592   8.084   1.497  0.5142 -0.5426 -0.0764
  638MOL0     C87926   1.511   8.209   1.504  0.4356  0.5701 -0.0364
  638MOL0     C87927   1.365   8.184   1.557 -0.5336 -0.7443  0.1499
  638MOL0     C87928   1.359   8.141   1.698 -0.6744  0.8035  0.6696
  638MOL0     C87929   1.231   8.199   1.756 -1.1245  0.3197 -0.6251
  638MOL0     O87930   1.233   8.154   1.889 -0.2926 -0.5561 -0.4552
  638MOL0     C87931   1.138   8.208   1.966  0.2983  0.0159 -0.6940
  638MOL0     C87932   1.150   8.193   2.102  0.5115 -0.4377 -0.9193
  638MOL0     C87933   1.047   8.241   2.198  0.1421 -0.9051 -0.5373
  638MOL0     C87934   1.077   8.213   2.345  0.1804 -0.4662  0.4603
  638MOL0     C87935   0.940   8.325   2.153 -0.0652 -0.2486  0.4275
  638MOL0     C87936   0.830   8.385   2.235  0.3197  0.0676 -0.3146
  638MOL0     O87937   0.731   8.438   2.160  0.3729 -0.4741  0.1891
  638MOL0     C87938   0.618   8.491   2.220  0.4770  0.5090 -0.0816
  638MOL0     C87939   0.617   8.557   2.346  0.2853  0.2937  0.4826
  638MOL0     C87940   0.502   8.602   2.406  0.7223  0.2553 -0.1468
  638MOL0     C87941   0.373   8.566   2.358 -0.4629  0.4231  0.1642
  638MOL0     O87942   0.270   8.577   2.444  0.1399 -0.1402 -0.6899
  638MOL0     C87943   0.152   8.640   2.392  0.6577 -0.8648  0.4874
  638MOL0     C87944   0.054   8.648   2.512 -0.0115 -0.2641  0.4092
  638MOL0     C87945  -0.079   8.723   2.467 -0.1487  0.0020 -0.0803
  638MOL0     C87946  -0.129   8.775   2.602 -0.8187 -0.7429  0.4408
  638MOL0     C87947  -0.275   8.830   2.606 -0.2292 -0.3039 -0.2805
  638MOL0     C87948  -0.321   8.924   2.722  0.2332 -1.1886 -0.1773
  638MOL0     C87949  -0.469   8.900   2.753 -0.1292  0.0788  0.0851
  638MOL0     C87950  -0.519   8.916   2.900 -0.2088  0.3668  0.1065
  638MOL0    Cl87951  -0.694   8.902   2.898 -0.0101  0.0150 -0.1708
  638MOL0     C87952   0.366   8.511   2.228  0.5688 -0.0482 -0.4991
  638MOL0     C87953   0.487   8.478   2.160 -0.3321  0.0640 -0.1140
  638MOL0     O87954   0.839   8.387   2.357 -0.2964  0.0786  0.7620
  638MOL0     C87955   0.925   8.333   2.011  0.3362 -0.3579  0.0780
  638MOL0     C87956   1.022   8.279   1.922 -0.6245 -0.1881 -0.3640
  638MOL0     N87957   1.542   7.961   1.466 -0.0148 -0.2595  0.0812
  638MOL0     N87958   1.649   7.890   1.458  0.7962  0.2447 -0.0387
  638MOL0     C87959   2.296   7.306   0.933  0.2783 -0.3611 -0.6884
  638MOL0     C87960   2.415   7.334   0.862 -0.1744 -0.4249 -0.7878
  638MOL0     C87961   2.859   7.239   0.840 -0.7420  0.2226 -0.3017
  638MOL0     C87962   2.902   7.109   0.820 -0.1615  1.7017  0.2413
  638MOL0     C87963   3.035   7.073   0.835 -0.5363  0.0346 -0.2015
  638MOL0     C87964   3.136   7.165   0.858 -0.0659  0.6533 -0.9702
  638MOL0     O87965   3.273   7.144   0.868 -0.6887  0.5611 -0.0984
  638MOL0     C87966   3.313   7.010   0.837 -0.5680  0.5827 -0.3588
  638MOL0     C87967   3.457   7.016   0.856 -0.3338 -0.3906 -0.1922
  638MOL0     C87968   3.536   6.914   0.775  0.4839  0.3972 -0.0396
  638MOL0     C87969   3.689   6.896   0.810 -0.3645  0.1673  0.2267
  638MOL0     C87970   3.765   6.850   0.692  1.4167  0.2239  0.7142
  638MOL0     C87971   3.812   6.835   0.583  0.3156  0.2559  0.4173
  638MOL0     C87972   3.086   7.298   0.879 -0.2915 -0.8457  1.0802
  638MOL0     C87973   2.955   7.342   0.870  0.0565  0.6795  0.6757
  638MOL0     C87974   2.927   7.495   0.895  0.2220 -0.3659 -0.1588
  638MOL0     H87975   2.626   7.393   1.123  0.8035 -0.6265 -0.7570
  638MOL0     H87976   2.412   7.401   1.240 -0.8077  3.9789 -0.5403
  638MOL0     H87977   2.010   7.221   1.188 -1.9024  0.1980 -1.3373
  638MOL0     H87978   2.060   7.207   1.018 -2.8226 -0.7354  0.5567
  638MOL0     H87979   2.030   7.442   0.995  0.6038 -0.6861 -0.0724
  638MOL0     H87980   1.892   7.379   1.087  0.0144 -0.6262 -1.7698
  638MOL0     H87981   2.005   7.459   1.293  0.2642 -1.3669 -1.4376
  638MOL0     H87982   2.147   7.512   1.198  0.7513 -1.6387  1.1887
  638MOL0     H87983   2.006   7.691   1.083 -1.8487  2.8740  0.8704
  638MOL0     H87984   1.860   7.626   1.171 -0.7702 -0.0561 -0.5034
  638MOL0     H87985   2.127   7.713   1.299  0.6244  0.7291 -2.0320
  638MOL0     H87986   1.982   7.674   1.384  1.2050 -3.6054 -1.5161
  638MOL0     H87987   2.012   7.915   1.205 -3.5644  0.5003 -1.3177
  638MOL0     H87988   1.863   7.880   1.269  0.4614  2.1351  0.4292
  638MOL0     H87989   2.010   8.042   1.419 -1.9246  0.1604  0.8514
  638MOL0     H87990   2.095   7.895   1.480 -0.7942  2.2258  1.7319
  638MOL0     H87991   1.883   7.786   1.542  2.3215 -0.8095  1.0541
  638MOL0     H87992   1.921   7.931   1.627  2.6832 -1.9531  0.5844
  638MOL0     H87993   1.786   8.165   1.539  0.9082 -1.9184  0.8175
  638MOL0     H87994   1.505   8.241   1.399 -1.2007 -0.3559 -0.2661
  638MOL0     H87995   1.559   8.285   1.566  1.9528  2.6112 -3.4409
  638MOL0     H87996   1.310   8.279   1.558 -0.1681 -0.5352  0.9946
  638MOL0     H87997   1.321   8.112   1.488  4.9056 -2.8588 -1.6941
  638MOL0     H87998   1.367   8.032   1.702  0.2697  0.6876 -2.1623
  638MOL0     H87999   1.449   8.184   1.744  0.4065 -1.0635  0.3945
  638MOL0     H88000   1.251   8.306   1.750  2.7132 -0.2323  0.0008
  638MOL0     H88001   1.138   8.164   1.709 -2.9703  1.0894  2.1971
  638MOL0     H88002   1.225   8.134   2.155  0.9144  3.1064  2.9485
  638MOL0     H88003   1.081   8.311   2.394 -4.8065  0.7858 -1.0736
  638MOL0     H88004   1.173   8.161   2.347  1.1237  0.9038 -2.5742
  638MOL0     H88005   0.994   8.158   2.389  1.5245 -2.2948  0.8427
  638MOL0     H88006   0.708   8.584   2.399  3.0475 -3.8551 -1.6069
  638MOL0     H88007   0.512   8.657   2.499 -1.6929 -0.9629  0.9098
  638MOL0     H88008   0.171   8.743   2.360 -0.6550 -0.1055  2.0524
  638MOL0     H88009   0.104   8.590   2.307  2.1149 -2.4568  0.5591
  638MOL0     H88010   0.012   8.552   2.543 -4.7834  0.6551 -2.2241
  638MOL0     H88011   0.100   8.700   2.597  3.6870 -0.2003 -1.4251
  638MOL0     H88012  -0.157   8.652   2.437 -2.4543  0.9598  3.0678
  638MOL0     H88013  -0.066   8.806   2.397 -0.7602  1.6921  1.7023
  638MOL0     H88014  -0.065   8.859   2.630 -1.8978 -0.2467  1.5552
  638MOL0     H88015  -0.135   8.702   2.683  0.9437  0.2947  1.5714
  638MOL0     H88016  -0.306   8.875   2.511  2.6759  3.7065  0.4058
  638MOL0     H88017  -0.329   8.738   2.627  1.3275 -0.8811  1.4032
  638MOL0     H88018  -0.314   9.031   2.702 -0.7924 -0.7128  1.7482
  638MOL0     H88019  -0.259   8.892   2.806  1.5272 -0.2531 -0.7396
  638MOL0     H88020  -0.496   8.798   2.723 -2.5565 -0.4217  3.4396
  638MOL0     H88021  -0.524   8.973   2.693  0.5635  0.0607 -0.5896
  638MOL0     H88022  -0.495   9.018   2.933  3.1820 -0.3194  0.1226
  638MOL0     H88023  -0.469   8.842   2.962 -0.1283 -1.7654 -2.3315
  638MOL0     H88024   0.274   8.469   2.187 -0.0023  0.6078  0.0846
  638MOL0     H88025   0.480   8.461   2.053 -0.9822 -0.2455 -0.0260
  638MOL0     H88026   0.840   8.382   1.965 -0.2220 -2.0150 -0.7663
  638MOL0     H88027   1.017   8.282   1.813  4.3945 -1.5984 -0.8702
  638MOL0     H88028   2.212   7.262   0.882  0.1764 -2.7610  1.3566
  638MOL0     H88029   2.406   7.310   0.756  0.7416 -6.0487  0.0610
  638MOL0     H88030   2.834   7.026   0.801  2.2141 -0.5827  1.0665
  638MOL0     H88031   3.048   6.965   0.834  1.0787  0.1796 -2.0973
  638MOL0     H88032   3.259   6.939   0.900 -0.0023 -1.5516 -2.1574
  638MOL0     H88033   3.282   6.989   0.734  0.2876 -3.1562 -0.0090
  638MOL0     H88034   3.494   6.996   0.957  4.7974 -1.8691 -2.0404
  638MOL0     H88035   3.498   7.115   0.830  1.5867 -0.4342  2.3263
  638MOL0     H88036   3.493   6.813   0.780  0.6895  0.2526 -0.9108
  638MOL0     H88037   3.517   6.939   0.670 -0.0008 -1.8565 -0.5463
  638MOL0     H88038   3.699   6.819   0.887 -3.3400  0.8712  1.4620
  638MOL0     H88039   3.738   6.989   0.840 -0.8468  0.1233  1.1683
  638MOL0     H88040   3.843   6.817   0.482 -1.0048  0.4803 -0.0537
  638MOL0     H88041   3.161   7.373   0.903 -0.0645 -1.1876  1.4597
  638MOL0     H88042   2.900   7.544   0.801  0.3301 -2.4727 -1.3564
  638MOL0     H88043   2.851   7.517   0.971  2.6724  3.4155  1.4583
  638MOL0     H88044   3.016   7.540   0.938  0.6125  0.2688 -1.5996
  639MOL0     O88045   2.666   2.675   0.332  0.1368 -0.3957  0.2634
  639MOL0     C88046   2.694   2.783   0.390  0.0427 -0.3612  0.0234
  639MOL0     O88047   2.793   2.865   0.354  1.0320  0.2873 -0.5787
  639MOL0     C88048   2.877   2.843   0.255 -0.1063  0.1993  0.4736
  639MOL0     C88049   2.919   2.961   0.185 -0.3609  0.4061 -0.2388
  639MOL0     C88050   3.020   2.947   0.091 -0.3473  0.3035  0.5110
  639MOL0     C88051   3.072   2.820   0.057 -0.0770 -0.6860 -0.1511
  639MOL0     O88052   3.169   2.828  -0.049 -0.2811 -0.7920 -0.3454
  639MOL0     C88053   3.232   2.698  -0.080  0.3740 -0.9859 -0.1430
  639MOL0     C88054   3.343   2.716  -0.188 -0.0967  1.6347  0.8799
  639MOL0     C88055   3.414   2.846  -0.192 -0.1162 -0.6048 -0.1382
  639MOL0     C88056   3.499   2.901  -0.076 -0.0185 -0.2343 -0.8436
  639MOL0     C88057   3.518   3.054  -0.102  0.3104 -0.6081 -0.0652
  639MOL0     C88058   3.598   3.127   0.005 -0.5471  0.0050  0.5136
  639MOL0     C88059   3.747   3.095   0.004 -0.2661  0.6330 -0.7338
  639MOL0     C88060   3.821   3.148   0.124 -0.2499  0.1396 -0.9152
  639MOL0     N88061   3.948   3.074   0.147 -0.0459 -0.2475  0.4252
  639MOL0     C88062   4.054   3.095   0.071  0.6213 -0.6835  0.5103
  639MOL0     C88063   4.147   3.007   0.113  0.6457 -0.2749  1.0235
  639MOL0     C88064   4.274   3.016   0.048 -0.7956  0.8174  0.0682
  639MOL0     C88065   4.373   2.929   0.113  0.3253  0.9007  0.0248
  639MOL0     C88066   4.510   2.952   0.056 -0.0065  0.4259 -0.2546
  639MOL0     C88067   4.611   2.845   0.096 -0.0133 -0.3111 -1.1559
  639MOL0     O88068   4.744   2.886   0.054  0.2444  0.2231  0.3417
  639MOL0     C88069   4.838   2.782   0.053 -0.5242 -0.4391  0.2087
  639MOL0     C88070   4.953   2.788  -0.036  0.1113 -1.1531 -0.4113
  639MOL0     C88071   5.047   2.683  -0.049  0.5814  0.1170 -0.3973
  639MOL0     C88072   5.164   2.703  -0.138 -0.4101 -0.3471 -0.2038
  639MOL0     C88073   5.030   2.561   0.024  0.2463 -0.5743 -0.3493
  639MOL0     C88074   5.107   2.443   0.015 -0.3459 -0.0425  0.5487
  639MOL0     O88075   5.243   2.462   0.004 -0.2953 -0.4504  0.0130
  639MOL0     C88076   5.334   2.358  -0.025  0.2145 -0.2768 -0.1925
  639MOL0     C88077   5.436   2.310   0.055  0.3769 -0.1176  0.1245
  639MOL0     C88078   5.521   2.207   0.019 -0.1033 -0.4912  0.5351
  639MOL0     C88079   5.515   2.152  -0.110 -0.2634  0.0107  0.3053
  639MOL0     O88080   5.608   2.060  -0.164  0.1356  0.6274 -0.0904
  639MOL0     C88081   5.616   1.936  -0.097 -0.6489 -0.4053  0.0455
  639MOL0     C88082   5.746   1.871  -0.144  0.2763  0.4313  0.7627
  639MOL0     C88083   5.866   1.943  -0.097 -0.3146  0.5993 -0.6826
  639MOL0     C88084   5.991   1.860  -0.122 -0.4869  0.5005 -0.1338
  639MOL0     C88085   6.118   1.930  -0.063 -0.2752 -0.5121  1.0556
  639MOL0     C88086   6.129   1.948   0.085 -0.5115  0.4205  0.0164
  639MOL0     C88087   6.100   1.822   0.175 -0.2947  0.0067 -0.3219
  639MOL0     C88088   6.189   1.700   0.152 -0.3555 -0.4946 -0.4619
  639MOL0    Cl88089   6.358   1.763   0.161  0.3542  0.0077  0.0656
  639MOL0     C88090   5.426   2.212  -0.196 -0.0668  0.3602  0.3569
  639MOL0     C88091   5.329   2.309  -0.161  0.5496 -0.7654 -0.2348
  639MOL0     O88092   5.054   2.334   0.004 -0.6449 -0.3614  0.6561
  639MOL0     C88093   4.907   2.553   0.106 -0.4458  0.0412 -0.3013
  639MOL0     C88094   4.818   2.660   0.118  0.3799 -0.1685 -0.8636
  639MOL0     N88095   4.099   2.941   0.229  0.5036 -0.0903 -0.5171
  639MOL0     N88096   3.977   2.979   0.242  0.7016  0.6650 -0.6353
  639MOL0     C88097   3.018   2.705   0.109 -0.1082  0.3833  0.6030
  639MOL0     C88098   2.928   2.714   0.212  0.6225  0.0092  0.2821
  639MOL0     C88099   2.631   2.825   0.511  0.6793 -0.2329 -0.0634
  639MOL0     C88100   2.638   2.958   0.547  0.6738 -0.5920 -0.6195
  639MOL0     C88101   2.590   3.018   0.668 -0.0718  1.0998  0.3820
  639MOL0     C88102   2.508   2.934   0.750 -0.1501 -0.5209 -0.4011
  639MOL0     O88103   2.454   2.973   0.873 -0.7039  0.4630  0.2905
  639MOL0     C88104   2.506   3.096   0.926  0.2068 -0.5763 -0.5170
  639MOL0     C88105   2.639   3.075   0.993 -0.2907  0.1164  0.0678
  639MOL0     C88106   2.633   2.959   1.100  0.3265 -0.5803 -0.2265
  639MOL0     C88107   2.531   2.984   1.216 -0.2225  0.7761  0.0027
  639MOL0     C88108   2.542   3.115   1.287  0.5817  0.2864  0.1293
  639MOL0     C88109   2.580   3.218   1.329  0.5047 -0.0887 -0.6268
  639MOL0     C88110   2.497   2.797   0.716  0.0510  0.0361 -0.4682
  639MOL0     C88111   2.565   2.739   0.605 -0.7723  0.2306 -0.9281
  639MOL0     C88112   2.544   2.597   0.569 -0.0339  0.7257  0.2596
  639MOL0     H88113   2.873   3.054   0.215 -2.0485 -1.0031  1.8837
  639MOL0     H88114   3.065   3.031   0.039  1.7474 -1.7183 -1.1842
  639MOL0     H88115   3.151   2.635  -0.116  0.0564 -0.2693 -0.7104
  639MOL0     H88116   3.270   2.660   0.016  0.6685 -0.9946 -0.2621
  639MOL0     H88117   3.420   2.640  -0.178 -0.5471  0.9431 -0.5844
  639MOL0     H88118   3.296   2.696  -0.285 -0.9733  1.4409  1.3332
  639MOL0     H88119   3.481   2.831  -0.277 -3.1072 -0.9685 -2.5907
  639MOL0     H88120   3.338   2.922  -0.212  0.8383  0.7242  1.0022
  639MOL0     H88121   3.455   2.884   0.022 -1.4035  2.1170 -0.9836
  639MOL0     H88122   3.598   2.854  -0.065 -1.5622 -3.4841  0.4373
  639MOL0     H88123   3.421   3.100  -0.121 -0.2021 -0.8925  1.7325
  639MOL0     H88124   3.577   3.079  -0.192  2.1652 -0.3853  1.1489
  639MOL0     H88125   3.586   3.234  -0.010 -0.3443 -0.3630 -3.1778
  639MOL0     H88126   3.549   3.089   0.095  0.6044 -0.3134  1.0286
  639MOL0     H88127   3.792   3.119  -0.093  3.1738  0.2230  0.6294
  639MOL0     H88128   3.753   2.986   0.013 -1.5434  0.5174 -1.0275
  639MOL0     H88129   3.847   3.251   0.099  1.2251 -0.4936 -2.0802
  639MOL0     H88130   3.772   3.144   0.222  1.8710  1.3714  0.2537
  639MOL0     H88131   4.050   3.185   0.009  1.8152  0.9038  2.5992
  639MOL0     H88132   4.310   3.118   0.058  2.0902 -0.3142  2.5662
  639MOL0     H88133   4.260   2.991  -0.058  0.5030 -0.7400  0.2317
  639MOL0     H88134   4.378   2.947   0.221  2.5566 -2.2816  0.5869
  639MOL0     H88135   4.341   2.825   0.103  2.4790 -0.1125  2.6314
  639MOL0     H88136   4.508   2.948  -0.053 -0.7642 -1.9005 -0.2015
  639MOL0     H88137   4.554   3.048   0.084  2.7106 -0.6628 -0.5593
  639MOL0     H88138   4.605   2.823   0.203 -1.7671 -0.1635 -1.1828
  639MOL0     H88139   4.575   2.757   0.042 -1.3007 -1.7815  1.8495
  639MOL0     H88140   4.969   2.881  -0.088 -3.5885 -0.4410 -0.5425
  639MOL0     H88141   5.155   2.799  -0.189 -0.3010 -1.4009 -2.3264
  639MOL0     H88142   5.180   2.618  -0.205  1.6463  0.7984 -1.2796
  639MOL0     H88143   5.260   2.708  -0.087  0.8119  0.3486 -2.4101
  639MOL0     H88144   5.461   2.364   0.146  0.4392 -1.5240  0.9716
  639MOL0     H88145   5.604   2.188   0.087  0.5949 -1.4673 -0.5522
  639MOL0     H88146   5.609   1.942   0.012 -1.7809 -3.2090  0.1840
  639MOL0     H88147   5.530   1.878  -0.131  0.7706 -2.7091  0.1659
  639MOL0     H88148   5.745   1.769  -0.104 -2.0746 -0.3086 -0.9525
  639MOL0     H88149   5.747   1.864  -0.253 -1.4448  2.7910  0.5138
  639MOL0     H88150   5.861   1.954   0.011  2.2416 -0.8435 -0.3335
  639MOL0     H88151   5.875   2.043  -0.142  1.0843  2.2315  2.8716
  639MOL0     H88152   6.002   1.835  -0.228  0.0614  2.5379 -0.5981
  639MOL0     H88153   5.982   1.766  -0.068  2.2972  0.7107  0.9087
  639MOL0     H88154   6.216   1.893  -0.097 -0.3254  0.6624 -0.4822
  639MOL0     H88155   6.103   2.028  -0.110 -1.4456 -1.0374  0.2880
  639MOL0     H88156   6.068   2.025   0.133  0.4592  0.1904  1.6889
  639MOL0     H88157   6.232   1.983   0.093 -0.0510 -0.4138 -1.8283
  639MOL0     H88158   5.994   1.797   0.180 -0.2237 -0.0587  1.2616
  639MOL0     H88159   6.108   1.857   0.278  0.6420  3.0872 -1.3088
  639MOL0     H88160   6.174   1.649   0.057 -0.9893  0.4624 -0.8939
  639MOL0     H88161   6.165   1.631   0.234  0.4110  0.1240  0.2965
  639MOL0     H88162   5.423   2.176  -0.299 -0.8678  2.3535 -0.3882
  639MOL0     H88163   5.256   2.369  -0.216  1.4935  1.8532  1.1902
  639MOL0     H88164   4.863   2.458   0.134 -3.0890  1.1439 -0.3961
  639MOL0     H88165   4.732   2.635   0.179 -0.7850 -2.1534 -3.1795
  639MOL0     H88166   3.042   2.601   0.089 -3.0651 -0.4709  1.1084
  639MOL0     H88167   2.894   2.629   0.270  1.8743  0.6631  2.0623
  639MOL0     H88168   2.703   3.025   0.491 -0.0670 -0.1012 -0.9047
  639MOL0     H88169   2.612   3.121   0.694 -1.1881  1.7151 -0.9930
  639MOL0     H88170   2.503   3.177   0.853  1.1983 -1.6725 -1.8326
  639MOL0     H88171   2.435   3.139   0.997  0.2789 -0.9519 -0.2083
  639MOL0     H88172   2.686   3.165   1.033 -0.2372  0.4642 -0.7517
  639MOL0     H88173   2.710   3.030   0.923 -0.5961 -0.2586 -0.0015
  639MOL0     H88174   2.642   2.865   1.045  1.5567 -0.2090 -0.6834
  639MOL0     H88175   2.726   2.967   1.157 -0.9802 -0.1598  1.9373
  639MOL0     H88176   2.532   2.909   1.296 -1.9731 -0.5210 -1.0872
  639MOL0     H88177   2.432   2.969   1.172  0.5216 -1.2425 -1.0810
  639MOL0     H88178   2.617   3.308   1.373 -0.2389  0.0209 -0.2105
  639MOL0     H88179   2.441   2.722   0.772  1.0608 -1.3782 -1.2757
  639MOL0     H88180   2.475   2.539   0.629 -0.8306 -0.8939 -2.0967
  639MOL0     H88181   2.501   2.589   0.469 -0.1734 -0.3489  0.4011
  639MOL0     H88182   2.641   2.546   0.560 -0.0898  0.6762 -0.0763
  640MOL0     O88183  10.756   3.420  10.387  0.0864 -0.0417 -0.4018
  640MOL0     C88184  10.711   3.310  10.388  0.0847 -0.8257  1.0109
  640MOL0     O88185  10.579   3.272  10.382 -0.2218 -0.0616  0.3026
  640MOL0     C88186  10.487   3.369  10.387 -0.7541  0.6776 -0.3068
  640MOL0     C88187  10.452   3.447  10.278 -0.3214 -0.0061  0.3059
  640MOL0     C88188  10.363   3.557  10.281 -0.7381 -0.1177 -0.7492
  640MOL0     C88189  10.324   3.600  10.410  0.9570 -0.3011  0.2854
  640MOL0     O88190  10.240   3.714  10.430  0.0822  0.0034 -0.0981
  640MOL0     C88191  10.224   3.812  10.328 -0.3065 -0.4002 -0.3506
  640MOL0     C88192  10.131   3.921  10.374  0.7990  0.3379 -0.7362
  640MOL0     C88193   9.988   3.869  10.385 -1.0460  0.3383  0.3768
  640MOL0     C88194   9.908   4.003  10.396  0.5954 -0.4495 -0.1311
  640MOL0     C88195   9.766   3.987  10.460  0.3977 -0.0119  0.3626
  640MOL0     C88196   9.689   4.114  10.458  0.1884  0.2931 -0.1684
  640MOL0     C88197   9.558   4.120  10.539 -0.5776 -0.9325  0.0498
  640MOL0     C88198   9.441   4.030  10.507 -0.8219 -0.5309 -0.2645
  640MOL0     N88199   9.399   4.042  10.371 -0.2961 -0.0497  0.1642
  640MOL0     C88200   9.424   3.947  10.272 -0.5322  0.0785  0.1298
  640MOL0     C88201   9.399   4.011  10.153 -0.0537 -0.0466 -0.0199
  640MOL0     C88202   9.417   3.951  10.016  0.4239 -0.2245  0.2409
  640MOL0     C88203   9.542   3.861   9.994 -0.5749 -0.5828 -1.2639
  640MOL0     C88204   9.673   3.939   9.986  0.1025 -0.2387  1.1257
  640MOL0     C88205   9.788   3.837   9.976 -0.2912 -0.6553 -0.7004
  640MOL0     O88206   9.892   3.925   9.937  1.0235 -0.2798  0.0281
  640MOL0     C88207  10.020   3.873   9.951  0.2635 -0.0399  0.3924
  640MOL0     C88208  10.053   3.737   9.926  0.6565 -0.0967  0.4911
  640MOL0     C88209  10.183   3.689   9.938 -0.5384  0.0353  0.2944
  640MOL0     C88210  10.201   3.539   9.920 -0.0439 -0.1545  0.8864
  640MOL0     C88211  10.288   3.777   9.957  0.2043 -0.1117  0.4453
  640MOL0     C88212  10.426   3.740   9.962 -1.5018 -0.4890  0.5586
  640MOL0     O88213  10.510   3.828  10.028 -0.3654  0.3637 -0.0601
  640MOL0     C88214  10.641   3.805  10.035  0.5150  0.5651 -0.4504
  640MOL0     C88215  10.693   3.727  10.142 -0.3217 -0.2253 -0.4882
  640MOL0     C88216  10.834   3.699  10.143 -0.5730 -0.3572  0.7327
  640MOL0     C88217  10.918   3.770  10.058  1.1287 -0.4939 -0.0032
  640MOL0     O88218  11.051   3.741  10.077 -0.0949  0.0882  0.4650
  640MOL0     C88219  11.157   3.798   9.986  0.7221  0.3848 -0.0766
  640MOL0     C88220  11.300   3.738  10.023 -0.9173 -0.5709 -0.2763
  640MOL0     C88221  11.425   3.822   9.980  0.4441  0.6092  0.0632
  640MOL0     C88222  11.552   3.750  10.032  0.0970 -0.4141 -0.4197
  640MOL0     C88223  11.686   3.834  10.030  0.0205 -0.0986  0.4619
  640MOL0     C88224  11.794   3.776  10.119 -0.2341 -0.1701 -0.1137
  640MOL0     C88225  11.860   3.654  10.061 -0.2642  0.1415 -0.6237
  640MOL0     C88226  11.989   3.604  10.123 -0.1851  0.0450  0.2082
  640MOL0    Cl88227  12.122   3.724  10.103  0.3635 -0.7453 -0.2881
  640MOL0     C88228  10.866   3.859   9.961  0.6853  0.6506 -0.9214
  640MOL0     C88229  10.726   3.863   9.942 -0.5477  0.0218 -0.1621
  640MOL0     O88230  10.464   3.634   9.907 -0.0740  0.7046 -0.3443
  640MOL0     C88231  10.253   3.911   9.966 -0.4575 -0.2211  1.1653
  640MOL0     C88232  10.126   3.959   9.970  0.0953 -0.4451 -0.1910
  640MOL0     N88233   9.371   4.141  10.183  0.4034 -0.1851  0.8570
  640MOL0     N88234   9.370   4.158  10.305 -0.6812  1.0124 -0.0475
  640MOL0     C88235  10.371   3.528  10.522  0.1277 -0.0647 -0.2389
  640MOL0     C88236  10.443   3.414  10.508 -0.1602 -0.3808 -0.0945
  640MOL0     C88237  10.814   3.213  10.362 -0.1623  0.2408  0.3401
  640MOL0     C88238  10.839   3.175  10.225  0.3287 -0.2040 -0.6000
  640MOL0     C88239  10.943   3.095  10.193 -0.3892  0.1657  0.1736
  640MOL0     C88240  11.020   3.032  10.295 -0.0114 -0.4275 -0.1739
  640MOL0     O88241  11.123   2.937  10.271  0.2441 -0.3257 -0.1823
  640MOL0     C88242  11.179   2.934  10.139  0.5756 -0.5001  0.5389
  640MOL0     C88243  11.285   2.825  10.125  0.3790  0.2951  0.2290
  640MOL0     C88244  11.425   2.853  10.173 -0.6116  0.4880  0.6061
  640MOL0     C88245  11.429   2.884  10.334 -0.4686  0.6189  0.6240
  640MOL0     C88246  11.562   2.875  10.385  1.3378  0.0239 -0.0511
  640MOL0     C88247  11.670   2.877  10.435 -0.1848 -0.0074 -0.1257
  640MOL0     C88248  10.984   3.059  10.428  0.7419 -0.6426 -0.5967
  640MOL0     C88249  10.875   3.145  10.461 -0.7628 -0.2067 -0.5346
  640MOL0     C88250  10.852   3.181  10.612  0.0979 -0.1651  0.0974
  640MOL0     H88251  10.489   3.429  10.178 -1.3175 -0.8128  0.0663
  640MOL0     H88252  10.337   3.628  10.203 -0.5430  0.7539 -0.0374
  640MOL0     H88253  10.194   3.771  10.231  0.3278 -2.7496  0.3839
  640MOL0     H88254  10.322   3.859  10.317  0.0521 -0.9357  0.4847
  640MOL0     H88255  10.165   3.964  10.469  0.7603 -1.5171  0.1810
  640MOL0     H88256  10.131   3.992  10.291  2.1542 -1.4849 -2.4122
  640MOL0     H88257   9.956   3.816  10.295  0.7135 -2.0027  1.0051
  640MOL0     H88258   9.986   3.799  10.470  0.1215 -0.1760  0.0080
  640MOL0     H88259   9.956   4.083  10.454 -1.1828 -1.3642  2.7901
  640MOL0     H88260   9.892   4.038  10.293 -1.4949 -3.6934 -1.0556
  640MOL0     H88261   9.771   3.944  10.561 -1.5440 -3.5237 -0.8756
  640MOL0     H88262   9.713   3.914  10.399  1.0627 -0.2426  0.0423
  640MOL0     H88263   9.751   4.203  10.468  0.7339  0.5693 -4.3592
  640MOL0     H88264   9.651   4.126  10.356 -1.0496  0.8367  0.3404
  640MOL0     H88265   9.521   4.223  10.536  1.7517 -0.0659 -2.5311
  640MOL0     H88266   9.581   4.098  10.643 -1.0464 -0.4361  0.2601
  640MOL0     H88267   9.461   3.927  10.536 -0.1039  0.2732  2.4723
  640MOL0     H88268   9.357   4.064  10.568 -1.5917  0.3859 -1.7904
  640MOL0     H88269   9.452   3.843  10.290 -0.5825 -0.0665 -0.6175
  640MOL0     H88270   9.435   4.033   9.946 -0.4856 -0.8806 -0.7830
  640MOL0     H88271   9.327   3.898   9.985  0.0286  1.2001 -1.1825
  640MOL0     H88272   9.535   3.779  10.065 -2.5104 -1.1355 -2.0181
  640MOL0     H88273   9.530   3.813   9.896 -0.8756 -3.1925 -0.0200
  640MOL0     H88274   9.667   4.015   9.908  1.7162  2.6329  3.5943
  640MOL0     H88275   9.691   3.995  10.078  1.3013  1.1460  0.0973
  640MOL0     H88276   9.818   3.789  10.069  2.3926 -0.9388 -1.6233
  640MOL0     H88277   9.779   3.764   9.894  0.9196 -1.6336 -0.0021
  640MOL0     H88278   9.975   3.666   9.898  0.6485 -0.4735  1.3982
  640MOL0     H88279  10.260   3.499  10.003 -2.9397 -1.6846  2.3635
  640MOL0     H88280  10.238   3.515   9.820 -1.4622  1.6847 -0.1685
  640MOL0     H88281  10.101   3.496   9.937 -0.4268  0.3656  0.0234
  640MOL0     H88282  10.634   3.679  10.219 -0.6243 -0.7509 -1.0356
  640MOL0     H88283  10.886   3.632  10.210  0.6352 -1.1661 -0.9334
  640MOL0     H88284  11.137   3.772   9.882  2.2689 -1.1950 -0.0368
  640MOL0     H88285  11.157   3.907   9.987 -2.3634  0.5962 -3.6227
  640MOL0     H88286  11.317   3.745  10.130 -0.3534  5.2932 -0.4500
  640MOL0     H88287  11.301   3.635   9.986  0.5623  0.4547 -3.5262
  640MOL0     H88288  11.423   3.920  10.027  0.8497  0.6620 -0.0272
  640MOL0     H88289  11.432   3.841   9.872  0.6474  0.9407  0.1351
  640MOL0     H88290  11.561   3.658   9.973  0.7061  0.1011 -1.1525
  640MOL0     H88291  11.535   3.725  10.137 -0.3521  3.0328  0.4704
  640MOL0     H88292  11.733   3.831   9.932  3.0624  1.6520  1.7154
  640MOL0     H88293  11.655   3.935  10.057  1.9684  0.1516  1.9406
  640MOL0     H88294  11.749   3.755  10.216 -3.6148 -2.2252 -1.9404
  640MOL0     H88295  11.867   3.856  10.136 -2.9542  2.2527  0.9832
  640MOL0     H88296  11.874   3.661   9.953 -0.4814  2.2064 -0.5508
  640MOL0     H88297  11.791   3.569  10.071  0.1415  0.0576  3.9042
  640MOL0     H88298  12.011   3.508  10.075 -1.5634  0.4549 -1.3244
  640MOL0     H88299  11.969   3.586  10.229 -2.6898  0.2168 -0.1928
  640MOL0     H88300  10.942   3.916   9.909  1.5335 -0.4224 -0.8998
  640MOL0     H88301  10.687   3.916   9.855  2.4048  0.1929 -1.5097
  640MOL0     H88302  10.336   3.978   9.984  1.1622 -2.0268  0.8011
  640MOL0     H88303  10.097   4.058  10.002 -3.6444 -1.6416  0.6894
  640MOL0     H88304  10.351   3.566  10.622  0.4857 -1.8339  0.5547
  640MOL0     H88305  10.470   3.351  10.592 -0.3262 -0.3858 -0.0438
  640MOL0     H88306  10.777   3.220  10.149  0.2361 -0.0087 -0.4122
  640MOL0     H88307  10.995   3.089  10.098  0.2458  0.8978  0.4657
  640MOL0     H88308  11.104   2.909  10.064 -0.8653  0.9646  1.4384
  640MOL0     H88309  11.217   3.032  10.110  0.0265  0.0551  1.6554
  640MOL0     H88310  11.293   2.808  10.017 -1.5027 -1.7376  0.3472
  640MOL0     H88311  11.249   2.733  10.170 -1.5451  1.6128  1.5140
  640MOL0     H88312  11.487   2.768  10.145 -1.1939 -0.5035  2.2045
  640MOL0     H88313  11.485   2.923  10.113  0.9914  0.4340  2.0723
  640MOL0     H88314  11.352   2.818  10.375 -3.6844  0.9776 -4.0295
  640MOL0     H88315  11.398   2.989  10.345  0.4961  0.7417  2.4419
  640MOL0     H88316  11.769   2.872  10.476  1.4354  3.2111 -3.1344
  640MOL0     H88317  11.040   3.003  10.502  2.1536  1.1684 -0.2198
  640MOL0     H88318  10.877   3.287  10.623 -2.2796  0.4756 -0.1862
  640MOL0     H88319  10.751   3.157  10.646  1.6949 -4.1546  2.7765
  640MOL0     H88320  10.912   3.116  10.676  0.4573 -1.1393 -1.2025
  641MOL0     O88321   5.343   0.932   3.878 -0.2081  0.1980 -0.6978
  641MOL0     C88322   5.311   0.899   3.991  0.2862  0.1424  0.2874
  641MOL0     O88323   5.382   0.915   4.102 -0.2676 -0.1579  0.1102
  641MOL0     C88324   5.491   0.995   4.102  0.1969 -0.9070 -0.1485
  641MOL0     C88325   5.487   1.125   4.059  0.2494  0.3151 -0.6593
  641MOL0     C88326   5.600   1.210   4.071 -0.3960 -0.2474  0.2858
  641MOL0     C88327   5.722   1.150   4.124  0.2228  0.2272  0.4829
  641MOL0     O88328   5.843   1.220   4.134 -0.8570  0.4726  0.1566
  641MOL0     C88329   5.828   1.338   4.212  0.0454  0.2553 -0.2752
  641MOL0     C88330   5.948   1.429   4.202 -0.3239  1.2412  0.1433
  641MOL0     C88331   6.082   1.355   4.247 -0.0089 -0.3655  0.3165
  641MOL0     C88332   6.194   1.448   4.214  0.5665 -0.9970  0.4038
  641MOL0     C88333   6.330   1.396   4.253  0.1931 -1.0905 -0.8307
  641MOL0     C88334   6.371   1.390   4.398  1.1213 -0.0785 -0.5154
  641MOL0     C88335   6.414   1.532   4.445 -0.2509 -0.0857 -0.4319
  641MOL0     C88336   6.482   1.536   4.587 -0.0638 -0.3860  0.1217
  641MOL0     N88337   6.617   1.478   4.606  0.3664  0.1544  0.2476
  641MOL0     C88338   6.636   1.358   4.665 -0.7279  0.5727 -1.1629
  641MOL0     C88339   6.769   1.358   4.699  0.0334 -0.3980 -0.6625
  641MOL0     C88340   6.835   1.259   4.792  0.0409  0.4271  0.3611
  641MOL0     C88341   6.768   1.119   4.810  0.8115 -0.2443 -0.0016
  641MOL0     C88342   6.875   1.030   4.872  0.4359 -0.2880 -0.2229
  641MOL0     C88343   6.801   0.911   4.940 -0.1608  1.6192  0.6350
  641MOL0     O88344   6.746   0.944   5.069  0.0622 -0.1502 -0.6693
  641MOL0     C88345   6.818   0.899   5.179  1.1748 -0.0205  0.3639
  641MOL0     C88346   6.844   0.991   5.283  0.2142 -0.2207  0.6750
  641MOL0     C88347   6.891   0.950   5.411 -0.7587 -0.4055  0.2381
  641MOL0     C88348   6.883   1.050   5.529 -0.0513 -0.0487  1.0519
  641MOL0     C88349   6.924   0.816   5.430  0.7487  0.3793  0.2834
  641MOL0     C88350   6.966   0.751   5.550 -0.7431 -0.2736 -0.2455
  641MOL0     O88351   6.916   0.797   5.666  0.6895 -0.3631 -0.2454
  641MOL0     C88352   6.992   0.788   5.780  0.5965  0.0992  0.0068
  641MOL0     C88353   6.917   0.795   5.904 -0.2547 -0.1483  1.1478
  641MOL0     C88354   6.985   0.779   6.026  0.0193 -1.1947 -0.0254
  641MOL0     C88355   7.127   0.759   6.036  0.9960 -0.4825 -0.2289
  641MOL0     O88356   7.200   0.749   6.153  0.0989 -0.4473  0.1203
  641MOL0     C88357   7.157   0.827   6.264  0.7872  0.9824  0.0719
  641MOL0     C88358   7.068   0.747   6.367 -1.4067 -0.5870  0.4713
  641MOL0     C88359   7.018   0.829   6.485 -0.5316  0.3279  0.7765
  641MOL0     C88360   6.909   0.924   6.452  0.4435 -0.2526 -0.0048
  641MOL0     C88361   6.783   0.852   6.410  0.2687 -0.5235 -0.9902
  641MOL0     C88362   6.663   0.952   6.390  0.3805 -0.0372 -0.8642
  641MOL0     C88363   6.533   0.888   6.350 -0.1009  0.0563 -0.1962
  641MOL0     C88364   6.473   0.815   6.475 -0.5762 -0.2712 -0.1010
  641MOL0    Cl88365   6.388   0.918   6.595 -0.3700  0.0811 -0.4090
  641MOL0     C88366   7.194   0.743   5.916  0.2774 -0.0843  0.4627
  641MOL0     C88367   7.123   0.753   5.796 -0.2180  1.0414 -0.0404
  641MOL0     O88368   7.040   0.651   5.540 -0.0987  0.7041  0.5469
  641MOL0     C88369   6.905   0.732   5.319 -0.9098  0.7161 -0.4128
  641MOL0     C88370   6.847   0.769   5.203 -0.9296  0.0361  0.5668
  641MOL0     N88371   6.827   1.464   4.637 -0.3365 -0.2533  0.5442
  641MOL0     N88372   6.735   1.533   4.580 -0.1195 -0.4779  0.3598
  641MOL0     C88373   5.718   1.014   4.161  0.0178  0.4280 -0.5613
  641MOL0     C88374   5.599   0.938   4.158 -0.7226 -0.3784  0.2554
  641MOL0     C88375   5.194   0.805   4.015  0.6459 -0.6569 -0.1140
  641MOL0     C88376   5.153   0.781   4.156 -0.3775  0.6927  0.5697
  641MOL0     C88377   5.038   0.708   4.180 -0.5958 -0.0141  0.0673
  641MOL0     C88378   4.959   0.655   4.079  0.4547  0.3361 -0.5945
  641MOL0     O88379   4.851   0.574   4.125 -0.2294  0.6372 -0.2052
  641MOL0     C88380   4.850   0.441   4.079 -0.5643 -0.3507 -0.0494
  641MOL0     C88381   4.923   0.342   4.176 -0.5499 -0.2465 -0.3705
  641MOL0     C88382   4.903   0.362   4.330 -0.2403  0.4471 -0.3106
  641MOL0     C88383   4.767   0.325   4.382  0.5963 -0.7330 -0.7778
  641MOL0     C88384   4.654   0.406   4.338 -0.6918 -0.4651 -0.3431
  641MOL0     C88385   4.558   0.461   4.308 -0.4734  0.3287 -0.1381
  641MOL0     C88386   4.999   0.669   3.950 -1.6583 -0.2320 -0.4240
  641MOL0     C88387   5.111   0.747   3.917 -0.8730 -0.7145  0.8188
  641MOL0     C88388   5.126   0.764   3.767 -1.7709 -0.4025  0.1724
  641MOL0     H88389   5.389   1.159   4.028 -0.5536 -1.1036  0.2163
  641MOL0     H88390   5.586   1.307   4.023 -2.3982 -0.4512  0.3764
  641MOL0     H88391   5.828   1.298   4.314 -0.8941  1.4390  0.1989
  641MOL0     H88392   5.736   1.394   4.194 -0.3554 -0.1345  0.5072
  641MOL0     H88393   5.954   1.462   4.098 -2.1090  0.7366 -0.1582
  641MOL0     H88394   5.921   1.512   4.268 -2.8169  0.3579  0.3504
  641MOL0     H88395   6.083   1.335   4.354  2.0874  0.8932  0.5714
  641MOL0     H88396   6.092   1.264   4.188  0.2452  0.2245 -0.5763
  641MOL0     H88397   6.182   1.450   4.106  0.9851  1.8879  0.3293
  641MOL0     H88398   6.174   1.548   4.254  0.4818 -1.3655  1.3084
  641MOL0     H88399   6.401   1.455   4.194  2.0107 -0.0634  2.1616
  641MOL0     H88400   6.340   1.295   4.211 -1.4059 -1.4097 -0.5249
  641MOL0     H88401   6.279   1.361   4.448 -0.3723  0.6432 -2.6825
  641MOL0     H88402   6.448   1.313   4.410 -0.9790 -2.1487  0.2611
  641MOL0     H88403   6.324   1.593   4.456 -0.7430 -0.4909 -1.9230
  641MOL0     H88404   6.472   1.573   4.362  1.3765  1.0458  1.2118
  641MOL0     H88405   6.495   1.638   4.625 -2.0984 -0.2391  0.5059
  641MOL0     H88406   6.423   1.483   4.662 -1.2040 -0.9378 -1.1456
  641MOL0     H88407   6.562   1.290   4.706  0.5515 -0.8272 -1.1279
  641MOL0     H88408   6.839   1.318   4.884 -3.3031  1.9960 -0.3354
  641MOL0     H88409   6.934   1.227   4.758  0.5319 -0.2527  2.2753
  641MOL0     H88410   6.673   1.129   4.865 -0.6934  1.1444 -2.6645
  641MOL0     H88411   6.735   1.077   4.715 -1.8792 -0.4864  0.9578
  641MOL0     H88412   6.948   0.986   4.804 -0.3873  0.7704 -1.8551
  641MOL0     H88413   6.932   1.087   4.946  2.0910 -1.5309 -0.4819
  641MOL0     H88414   6.728   0.879   4.865  1.5054 -0.6646 -0.1612
  641MOL0     H88415   6.869   0.825   4.941 -3.2790 -1.0492  1.3322
  641MOL0     H88416   6.810   1.094   5.269 -2.6614 -1.3338 -1.6073
  641MOL0     H88417   6.788   1.035   5.580 -1.7377  0.8590 -1.6112
  641MOL0     H88418   6.895   1.152   5.492  3.6887 -0.7071  0.0078
  641MOL0     H88419   6.969   1.026   5.592 -0.4354  1.0670  2.0211
  641MOL0     H88420   6.810   0.812   5.905 -0.3615 -0.7333  0.5298
  641MOL0     H88421   6.926   0.801   6.115  2.0987  1.8013  0.7662
  641MOL0     H88422   7.245   0.870   6.312  1.0881  2.8340 -1.9808
  641MOL0     H88423   7.114   0.915   6.217 -2.8437 -0.9059 -0.4512
  641MOL0     H88424   6.979   0.701   6.322 -0.2619 -2.2902 -0.1479
  641MOL0     H88425   7.119   0.662   6.414 -1.4839 -0.3396  1.0063
  641MOL0     H88426   7.105   0.882   6.526  0.3522  1.1762 -1.9708
  641MOL0     H88427   6.985   0.757   6.561  0.4037 -1.5101 -0.4855
  641MOL0     H88428   6.936   0.989   6.368 -0.0840 -1.4848 -1.1618
  641MOL0     H88429   6.876   0.990   6.532 -0.3141  2.3127 -2.2780
  641MOL0     H88430   6.801   0.810   6.311  2.7565  1.2978 -1.4084
  641MOL0     H88431   6.757   0.774   6.483  0.9394 -0.0509 -0.2251
  641MOL0     H88432   6.683   1.026   6.312 -1.1998  3.4881  1.7473
  641MOL0     H88433   6.646   1.005   6.484 -0.6139 -1.6938 -0.0583
  641MOL0     H88434   6.552   0.822   6.265 -0.0698 -1.7955  1.1658
  641MOL0     H88435   6.456   0.960   6.321 -0.3791 -0.4475 -0.7204
  641MOL0     H88436   6.548   0.752   6.524 -1.2435 -0.9017  0.1291
  641MOL0     H88437   6.393   0.748   6.441 -0.5795 -1.7107  2.4783
  641MOL0     H88438   7.302   0.731   5.906  0.2408 -0.8242  0.8615
  641MOL0     H88439   7.177   0.730   5.704 -1.2099  0.6910 -0.5485
  641MOL0     H88440   6.919   0.624   5.326 -3.0604  0.4877  1.8682
  641MOL0     H88441   6.828   0.699   5.122  2.0112  0.0322 -0.2538
  641MOL0     H88442   5.806   0.964   4.201  0.8301  0.1325 -2.6020
  641MOL0     H88443   5.600   0.842   4.208 -1.1386 -1.4115 -1.6159
  641MOL0     H88444   5.205   0.812   4.246  1.5548 -2.6418  0.7577
  641MOL0     H88445   5.005   0.697   4.283  1.3765 -1.4242  0.6062
  641MOL0     H88446   4.745   0.410   4.069 -0.1076 -1.4137 -2.1538
  641MOL0     H88447   4.885   0.446   3.976 -1.8469 -1.4623 -0.5770
  641MOL0     H88448   5.032   0.353   4.168 -0.1944 -1.0439  2.4853
  641MOL0     H88449   4.893   0.239   4.153  0.7463 -0.4696 -1.2189
  641MOL0     H88450   4.978   0.302   4.382 -0.1222  0.8871  0.0357
  641MOL0     H88451   4.932   0.464   4.356  1.2630  0.0448 -0.3501
  641MOL0     H88452   4.766   0.326   4.491 -2.0481 -0.4247 -0.7428
  641MOL0     H88453   4.742   0.220   4.362  1.7317 -0.7331 -2.4595
  641MOL0     H88454   4.478   0.523   4.271 -0.9133 -0.3351 -0.3104
  641MOL0     H88455   4.945   0.619   3.870 -3.7940 -0.0684  0.8387
  641MOL0     H88456   5.134   0.871   3.745  1.2317 -0.4227  0.7404
  641MOL0     H88457   5.219   0.722   3.727  0.2116  0.8067  3.1638
  641MOL0     H88458   5.039   0.726   3.712 -1.9513  0.7181 -0.3475
  642MOL0     O88459   2.661   6.838   1.271  0.0232 -0.1753  0.2888
  642MOL0     C88460   2.644   6.921   1.181 -0.5670  0.3778 -0.3150
  642MOL0     O88461   2.732   7.003   1.129  0.1002 -0.4583 -0.1801
  642MOL0     C88462   2.856   7.022   1.188  0.4459 -0.6905 -0.4279
  642MOL0     C88463   2.939   6.920   1.243 -0.2645 -0.8922  0.6270
  642MOL0     C88464   3.069   6.955   1.286  0.4586  0.7102 -0.3228
  642MOL0     C88465   3.118   7.091   1.286  0.0487  0.4572 -0.2998
  642MOL0     O88466   3.241   7.109   1.329 -0.3979  0.5678  0.2313
  642MOL0     C88467   3.325   7.219   1.283  0.0385 -1.3929  0.0450
  642MOL0     C88468   3.472   7.192   1.327  0.5044 -0.0882 -0.1035
  642MOL0     C88469   3.540   7.091   1.238 -0.3272  0.8742 -0.1431
  642MOL0     C88470   3.689   7.094   1.276  0.1951 -0.1222  0.2209
  642MOL0     C88471   3.751   6.964   1.221 -0.1495 -1.4295  0.7644
  642MOL0     C88472   3.890   6.998   1.157  0.3237 -0.0170 -0.3758
  642MOL0     C88473   3.966   6.884   1.076  0.7542 -0.5281 -0.3034
  642MOL0     C88474   4.067   6.808   1.159 -0.6860 -0.4170 -0.0330
  642MOL0     N88475   4.202   6.865   1.162  0.1328 -0.1547 -0.1009
  642MOL0     C88476   4.234   6.953   1.255 -0.6460  0.3026 -0.0270
  642MOL0     C88477   4.355   7.014   1.227 -0.3307  0.5361  0.1203
  642MOL0     C88478   4.414   7.127   1.310 -0.6638 -0.3416  0.1070
  642MOL0     C88479   4.422   7.100   1.465 -0.6844  0.4937 -0.0575
  642MOL0     C88480   4.510   7.205   1.538  0.8136 -0.4929  0.4954
  642MOL0     C88481   4.509   7.183   1.695 -0.0925  0.5315  0.3955
  642MOL0     O88482   4.594   7.290   1.751 -0.0363  0.4319  0.1474
  642MOL0     C88483   4.638   7.284   1.879 -0.2824 -0.2828 -0.5088
  642MOL0     C88484   4.581   7.212   1.990  0.0022  0.6374  0.3427
  642MOL0     C88485   4.632   7.205   2.123  0.4822  0.6416 -0.8002
  642MOL0     C88486   4.562   7.124   2.237 -0.1403  0.0092  0.7387
  642MOL0     C88487   4.740   7.298   2.154 -0.0424  0.2112 -0.2265
  642MOL0     C88488   4.800   7.326   2.283  0.5858  0.0809 -0.2176
  642MOL0     O88489   4.816   7.457   2.310  0.4747  0.9206 -0.5076
  642MOL0     C88490   4.911   7.481   2.398 -1.0196 -0.0388  0.3746
  642MOL0     C88491   4.878   7.533   2.525  0.1963  0.8369  1.1315
  642MOL0     C88492   4.979   7.578   2.603  0.5886  0.1718 -1.4475
  642MOL0     C88493   5.107   7.577   2.568 -0.4345 -0.9326  0.0689
  642MOL0     O88494   5.206   7.641   2.643 -0.5329 -0.7669 -0.1252
  642MOL0     C88495   5.177   7.768   2.708  0.6822  0.9832 -0.5327
  642MOL0     C88496   5.075   7.859   2.638 -0.0262  0.9780 -0.3657
  642MOL0     C88497   5.131   7.899   2.496  0.9838 -0.3687 -0.4520
  642MOL0     C88498   5.034   7.932   2.385 -0.5185 -0.3163 -0.1103
  642MOL0     C88499   5.097   7.943   2.243  0.2957 -0.4964  0.2870
  642MOL0     C88500   4.986   7.947   2.133 -0.1768  0.4102 -0.0228
  642MOL0     C88501   4.954   7.811   2.073  0.5497  0.4567  0.7089
  642MOL0     C88502   4.799   7.789   2.048 -1.2197 -0.1128  0.5159
  642MOL0    Cl88503   4.692   7.819   2.198  0.2201 -0.2308 -0.2052
  642MOL0     C88504   5.150   7.516   2.450  0.1350 -0.5910  0.3222
  642MOL0     C88505   5.047   7.465   2.367 -0.5362 -0.4986  0.0511
  642MOL0     O88506   4.836   7.232   2.356  0.1977 -0.2099  0.1593
  642MOL0     C88507   4.792   7.379   2.042 -0.0552  0.3352  1.3133
  642MOL0     C88508   4.747   7.363   1.912  0.5333  0.1813  0.2450
  642MOL0     N88509   4.388   6.970   1.103 -0.0515 -0.1571  0.9029
  642MOL0     N88510   4.296   6.884   1.065  0.5767  0.6634 -0.7831
  642MOL0     C88511   3.037   7.186   1.220  0.3192 -0.4295  0.4111
  642MOL0     C88512   2.911   7.150   1.176  0.7432  0.3254  0.1852
  642MOL0     C88513   2.513   6.893   1.111  0.1271 -0.7509  0.5268
  642MOL0     C88514   2.503   6.933   0.972 -0.2847 -0.0633  0.0540
  642MOL0     C88515   2.382   6.932   0.900  0.2295 -0.5363 -0.8853
  642MOL0     C88516   2.269   6.889   0.966 -0.0329  0.3373 -0.8391
  642MOL0     O88517   2.158   6.868   0.888  0.4304 -0.6784 -0.4591
  642MOL0     C88518   2.034   6.855   0.961  0.4011 -0.5609 -0.7639
  642MOL0     C88519   1.913   6.870   0.856  0.2725 -1.2747 -0.1333
  642MOL0     C88520   1.795   6.774   0.873 -0.6911  0.3925  0.4938
  642MOL0     C88521   1.821   6.627   0.894 -0.5298  0.4673 -0.3380
  642MOL0     C88522   1.926   6.563   0.811 -0.0291  0.1097  0.2609
  642MOL0     C88523   2.026   6.518   0.758  0.9253 -0.1552  0.2213
  642MOL0     C88524   2.279   6.825   1.089 -0.1507  0.4404  0.3268
  642MOL0     C88525   2.400   6.837   1.172 -0.1279  0.6141  1.5563
  642MOL0     C88526   2.402   6.792   1.318 -0.3884  0.0940  0.6623
  642MOL0     H88527   2.906   6.816   1.241 -4.2536  0.1505 -2.6112
  642MOL0     H88528   3.138   6.874   1.312  1.8532  1.3416 -1.8730
  642MOL0     H88529   3.288   7.309   1.332 -1.7819 -1.8113 -0.4665
  642MOL0     H88530   3.318   7.224   1.174 -0.0542  0.2747  0.1019
  642MOL0     H88531   3.532   7.284   1.322  2.1056 -1.1461 -3.0932
  642MOL0     H88532   3.463   7.163   1.432  0.9902  0.5105  0.1127
  642MOL0     H88533   3.501   6.989   1.241  1.1534  0.2657 -0.2931
  642MOL0     H88534   3.536   7.127   1.135  2.7680  1.5528 -0.1162
  642MOL0     H88535   3.743   7.184   1.245  3.5138 -1.3595  1.8737
  642MOL0     H88536   3.699   7.093   1.385  1.3927 -0.7815  0.1204
  642MOL0     H88537   3.692   6.929   1.135 -1.0773  2.2605 -0.2463
  642MOL0     H88538   3.746   6.889   1.300 -1.6665 -0.9119  1.1863
  642MOL0     H88539   3.878   7.078   1.083 -0.9632 -1.0779 -1.3706
  642MOL0     H88540   3.953   7.029   1.240  2.8104 -1.0564 -1.7710
  642MOL0     H88541   4.028   6.929   0.997  0.6375  1.1866  0.5383
  642MOL0     H88542   3.880   6.828   1.038 -1.1542  1.0025  1.5614
  642MOL0     H88543   4.035   6.792   1.262 -1.7702  1.7647  0.0223
  642MOL0     H88544   4.076   6.711   1.108  1.1587 -0.7980  0.9394
  642MOL0     H88545   4.168   6.980   1.336  1.5200 -1.5022  2.5041
  642MOL0     H88546   4.340   7.208   1.309 -0.5420 -0.2286  0.2017
  642MOL0     H88547   4.512   7.165   1.278 -2.0805  2.4103 -1.3485
  642MOL0     H88548   4.326   7.091   1.517  0.7457  1.5061  3.0001
  642MOL0     H88549   4.476   7.008   1.486 -1.5516  0.6558  3.6115
  642MOL0     H88550   4.609   7.202   1.492  0.4855  2.1148 -0.5741
  642MOL0     H88551   4.464   7.301   1.513  0.0723 -0.9145  0.2073
  642MOL0     H88552   4.406   7.180   1.732 -0.3564 -0.1869 -0.3630
  642MOL0     H88553   4.547   7.083   1.717  0.6539 -0.3411 -3.9288
  642MOL0     H88554   4.495   7.152   1.963 -0.9121  1.3453  1.5650
  642MOL0     H88555   4.501   7.039   2.204  0.5330 -1.1613  2.3900
  642MOL0     H88556   4.503   7.195   2.295  1.7081  1.3259  1.1074
  642MOL0     H88557   4.637   7.088   2.308 -1.1951 -0.0238  1.8633
  642MOL0     H88558   4.776   7.534   2.562  0.1585  0.2648  1.0593
  642MOL0     H88559   4.947   7.613   2.701 -1.4802 -0.8868 -1.6803
  642MOL0     H88560   5.137   7.748   2.809 -1.2739  2.1070 -1.0209
  642MOL0     H88561   5.271   7.818   2.731  0.3565  1.8124 -0.9801
  642MOL0     H88562   4.974   7.819   2.633  0.4109 -0.2667  0.3670
  642MOL0     H88563   5.072   7.952   2.695 -0.9837 -0.0532  1.3432
  642MOL0     H88564   5.191   7.814   2.463  0.6482 -1.0487  0.6474
  642MOL0     H88565   5.210   7.974   2.508  0.1836  0.3644  0.3985
  642MOL0     H88566   4.992   8.029   2.412 -0.9032 -0.5446  0.1413
  642MOL0     H88567   4.951   7.860   2.396  0.3592 -1.5098 -1.0284
  642MOL0     H88568   5.151   8.038   2.236 -0.3900 -0.2101 -1.8372
  642MOL0     H88569   5.164   7.857   2.231 -0.0303 -1.0329  1.9717
  642MOL0     H88570   5.032   8.012   2.059 -1.2582  1.2048 -0.0217
  642MOL0     H88571   4.895   7.996   2.166  1.3184  4.0233 -0.8160
  642MOL0     H88572   4.989   7.736   2.145  1.6733  1.2671  1.0232
  642MOL0     H88573   5.003   7.796   1.977 -0.6384 -0.7218  0.2522
  642MOL0     H88574   4.796   7.689   2.003  0.5773 -0.0748  0.2262
  642MOL0     H88575   4.764   7.857   1.970 -1.5276  0.3209  1.0252
  642MOL0     H88576   5.253   7.509   2.419  0.1717  0.6891  0.0730
  642MOL0     H88577   5.065   7.401   2.281  0.6328 -0.6424  0.3863
  642MOL0     H88578   4.876   7.441   2.073  0.0072  0.0648  1.6942
  642MOL0     H88579   4.794   7.418   1.831 -0.5850 -0.1582 -0.6504
  642MOL0     H88580   3.078   7.286   1.212  1.1625 -0.7042  1.1339
  642MOL0     H88581   2.848   7.216   1.118 -3.1659 -0.8385  2.7166
  642MOL0     H88582   2.587   6.979   0.920 -1.2543 -1.4043 -2.9324
  642MOL0     H88583   2.372   6.977   0.802 -1.3486  1.5514  0.1628
  642MOL0     H88584   2.036   6.754   1.001  1.6724 -0.4784 -0.5822
  642MOL0     H88585   2.026   6.921   1.047  0.2944 -0.3729 -0.9157
  642MOL0     H88586   1.966   6.857   0.761  3.0270  2.0271  0.7183
  642MOL0     H88587   1.868   6.970   0.854  2.1635 -0.3542 -2.2037
  642MOL0     H88588   1.741   6.805   0.963  0.6391  1.4998  0.9394
  642MOL0     H88589   1.723   6.775   0.791  2.3694  0.4250 -2.3963
  642MOL0     H88590   1.729   6.568   0.887 -0.4019 -0.1139  1.9915
  642MOL0     H88591   1.847   6.611   0.999 -0.1286  2.2710 -0.1305
  642MOL0     H88592   2.103   6.466   0.705  1.4194  0.7484  0.0327
  642MOL0     H88593   2.188   6.789   1.136 -1.3167  1.4210 -1.0934
  642MOL0     H88594   2.297   6.793   1.347 -0.3720  0.8626  0.6960
  642MOL0     H88595   2.451   6.695   1.333  2.2723  0.8566 -2.1045
  642MOL0     H88596   2.446   6.862   1.389  1.0053  0.2432 -0.3098
  643MOL0     O88597   6.120   2.200   3.601 -0.0449 -0.2196  0.7760
  643MOL0     C88598   6.067   2.104   3.657  0.1776 -0.2738  0.2038
  643MOL0     O88599   6.126   2.043   3.760  0.6524  0.2051 -0.0908
  643MOL0     C88600   6.259   2.055   3.793  0.5335  0.8843 -0.7515
  643MOL0     C88601   6.283   1.987   3.914  0.7223 -0.5178  0.2865
  643MOL0     C88602   6.402   1.992   3.989 -0.7053 -0.2474  0.3045
  643MOL0     C88603   6.506   2.051   3.930 -0.4199 -0.8291 -0.5903
  643MOL0     O88604   6.626   2.041   3.987 -0.6168  0.1617 -0.0848
  643MOL0     C88605   6.727   2.135   3.957  0.3422 -0.0858 -0.0340
  643MOL0     C88606   6.856   2.115   4.043 -0.5254  0.0887 -0.2879
  643MOL0     C88607   6.983   2.166   3.973 -0.8699 -0.9023  0.1648
  643MOL0     C88608   6.992   2.320   3.935 -0.3524  0.8536  0.0225
  643MOL0     C88609   7.148   2.353   3.925 -0.1690  0.1616  0.1185
  643MOL0     C88610   7.215   2.271   3.810 -0.8705  0.2192  0.3585
  643MOL0     C88611   7.380   2.285   3.812 -0.2298 -0.6065 -0.1001
  643MOL0     C88612   7.429   2.158   3.757  0.3071 -0.9991  0.1473
  643MOL0     N88613   7.435   2.171   3.613 -0.3726  0.2035  0.0096
  643MOL0     C88614   7.540   2.236   3.553 -0.1043  0.3561  0.1484
  643MOL0     C88615   7.539   2.186   3.423  0.0005  0.6871 -0.2729
  643MOL0     C88616   7.653   2.211   3.319  0.2890  0.0399  0.4449
  643MOL0     C88617   7.618   2.347   3.257  0.2406 -0.9109 -0.7133
  643MOL0     C88618   7.485   2.338   3.174 -0.5177 -0.7996 -0.7532
  643MOL0     C88619   7.453   2.471   3.094  0.6586 -0.5155 -0.4566
  643MOL0     O88620   7.308   2.471   3.086 -0.5027 -0.0892 -0.1032
  643MOL0     C88621   7.245   2.462   2.967  0.1864 -0.2865 -0.2421
  643MOL0     C88622   7.110   2.430   2.978  0.3268  0.1488 -0.3396
  643MOL0     C88623   7.029   2.413   2.865  0.6214 -0.5439 -0.2531
  643MOL0     C88624   6.888   2.373   2.898 -0.9175  0.5505  0.7839
  643MOL0     C88625   7.087   2.424   2.741  0.2184  0.1420  0.2682
  643MOL0     C88626   7.019   2.389   2.613  0.1940 -0.1060 -0.1970
  643MOL0     O88627   6.875   2.373   2.626 -0.1720  0.7984  0.4413
  643MOL0     C88628   6.796   2.351   2.512 -0.0768  0.1433 -0.3757
  643MOL0     C88629   6.669   2.295   2.538  0.3749  0.9658  0.3256
  643MOL0     C88630   6.564   2.266   2.446  0.2071  0.1689  0.2253
  643MOL0     C88631   6.595   2.291   2.311 -0.0288  0.4816  0.7196
  643MOL0     O88632   6.517   2.286   2.202  0.0129  0.5198  0.9338
  643MOL0     C88633   6.379   2.267   2.217  0.8148 -0.3032  0.8477
  643MOL0     C88634   6.314   2.308   2.085 -0.7727  0.1048 -0.3212
  643MOL0     C88635   6.157   2.284   2.088  0.0785 -0.2536 -0.2705
  643MOL0     C88636   6.085   2.343   2.205  0.3546  0.1603  0.2442
  643MOL0     C88637   6.098   2.492   2.222  0.2904 -0.2810  0.6753
  643MOL0     C88638   6.001   2.530   2.344 -0.1810  0.4851  0.1869
  643MOL0     C88639   6.036   2.489   2.483 -0.0864 -0.4475 -0.3561
  643MOL0     C88640   6.188   2.498   2.512  0.3741  0.5598 -0.1770
  643MOL0    Cl88641   6.224   2.400   2.657 -0.1042  0.1978 -0.2840
  643MOL0     C88642   6.725   2.354   2.281 -0.7229  0.4425 -0.4105
  643MOL0     C88643   6.826   2.379   2.382 -0.3029 -0.4475  0.2121
  643MOL0     O88644   7.088   2.374   2.512  0.3529  0.3826 -0.2586
  643MOL0     C88645   7.222   2.461   2.731 -0.8698 -0.1626  0.9196
  643MOL0     C88646   7.300   2.484   2.845  0.0406 -0.4555  0.3983
  643MOL0     N88647   7.424   2.113   3.410  0.0384  0.0449 -0.7691
  643MOL0     N88648   7.365   2.107   3.521 -0.0446  0.3920 -0.1462
  643MOL0     C88649   6.483   2.134   3.818 -0.1934 -0.2168  0.0668
  643MOL0     C88650   6.357   2.139   3.751 -0.0127  0.3184 -0.0927
  643MOL0     C88651   5.922   2.075   3.628 -0.1982  0.1648  0.2026
  643MOL0     C88652   5.854   1.986   3.720 -0.2397 -1.0951 -0.4004
  643MOL0     C88653   5.721   1.961   3.706  0.1315  0.3647  0.0992
  643MOL0     C88654   5.663   2.007   3.590 -0.1461  0.4853 -0.1884
  643MOL0     O88655   5.532   1.978   3.581 -0.0451  0.4368 -0.0224
  643MOL0     C88656   5.489   1.918   3.453  0.1988  0.4604  0.0543
  643MOL0     C88657   5.380   1.807   3.459  1.0375  0.2161  0.0657
  643MOL0     C88658   5.257   1.848   3.545  0.7281 -0.3932  0.5877
  643MOL0     C88659   5.180   1.737   3.614  0.2205 -0.6555  0.0340
  643MOL0     C88660   5.076   1.662   3.539  0.5458 -0.2967 -0.0270
  643MOL0     C88661   5.004   1.594   3.468  1.2484  0.0672 -0.2004
  643MOL0     C88662   5.731   2.087   3.499  0.2614 -0.1652  0.5547
  643MOL0     C88663   5.862   2.123   3.516  0.2883 -0.1627 -0.2441
  643MOL0     C88664   5.938   2.177   3.400  0.0521  0.4522  0.0845
  643MOL0     H88665   6.204   1.925   3.953  0.2611  0.2573  0.6087
  643MOL0     H88666   6.406   1.941   4.085 -1.0997 -2.2843 -0.6963
  643MOL0     H88667   6.686   2.234   3.976 -0.3642  0.2574 -2.9588
  643MOL0     H88668   6.745   2.136   3.849 -1.5146 -2.5170 -0.4500
  643MOL0     H88669   6.841   2.149   4.146  1.0224 -0.0770  0.0219
  643MOL0     H88670   6.866   2.007   4.050 -3.5248 -0.2199  0.4676
  643MOL0     H88671   7.069   2.139   4.035 -0.3947 -0.2486 -0.1965
  643MOL0     H88672   7.000   2.109   3.881 -1.5632 -0.5195 -0.2046
  643MOL0     H88673   6.935   2.335   3.843 -1.5891 -3.4124 -0.1205
  643MOL0     H88674   6.946   2.377   4.017  1.1321  1.2665  0.6100
  643MOL0     H88675   7.193   2.343   4.024  1.7365 -1.2894 -0.8453
  643MOL0     H88676   7.152   2.462   3.911  0.8496 -0.0560 -1.4535
  643MOL0     H88677   7.195   2.165   3.827 -0.5015  0.2888  1.2585
  643MOL0     H88678   7.190   2.291   3.705 -0.4290 -3.5159 -0.6281
  643MOL0     H88679   7.406   2.308   3.915  1.4151  0.6243 -0.7446
  643MOL0     H88680   7.399   2.373   3.749 -0.5026 -1.4023 -1.3416
  643MOL0     H88681   7.531   2.157   3.797  0.1460  3.7484  1.3107
  643MOL0     H88682   7.368   2.075   3.794  0.3360 -0.1799  2.1633
  643MOL0     H88683   7.612   2.301   3.601  1.0451 -1.6155  1.2371
  643MOL0     H88684   7.667   2.135   3.242 -2.1052  0.4594 -0.5213
  643MOL0     H88685   7.751   2.223   3.365 -1.1115  1.1615  3.4805
  643MOL0     H88686   7.601   2.421   3.335  1.6280 -0.8606 -0.4366
  643MOL0     H88687   7.694   2.384   3.187  0.3666  0.1431 -0.0314
  643MOL0     H88688   7.497   2.254   3.105 -0.0192 -2.0479  0.7800
  643MOL0     H88689   7.398   2.327   3.240  0.0115  4.4166  1.2369
  643MOL0     H88690   7.487   2.564   3.141  1.3770 -2.2014  2.5823
  643MOL0     H88691   7.518   2.467   3.006  1.6721 -0.0610  0.2598
  643MOL0     H88692   7.077   2.427   3.081 -0.4935  1.1257 -0.5609
  643MOL0     H88693   6.876   2.274   2.854 -0.1466 -0.0102  1.7969
  643MOL0     H88694   6.819   2.448   2.857 -0.3659 -0.5040 -2.3800
  643MOL0     H88695   6.875   2.380   3.006 -4.2070  1.8205  0.4167
  643MOL0     H88696   6.637   2.281   2.640 -0.9254 -1.1824 -0.3104
  643MOL0     H88697   6.477   2.215   2.486  1.9630 -3.1276  0.1729
  643MOL0     H88698   6.357   2.163   2.243  0.1715  0.3583  3.2128
  643MOL0     H88699   6.349   2.329   2.302  1.3292 -1.0028  1.5460
  643MOL0     H88700   6.336   2.414   2.067  2.7355 -0.3079  0.6899
  643MOL0     H88701   6.361   2.256   2.000 -1.1196  0.0841 -0.5032
  643MOL0     H88702   6.132   2.177   2.084  0.3378 -0.2988 -0.8735
  643MOL0     H88703   6.106   2.328   2.002  0.0537 -0.4656 -0.3657
  643MOL0     H88704   6.136   2.299   2.292 -0.8587 -0.5173  0.6418
  643MOL0     H88705   5.984   2.303   2.213  0.1776  0.8750  2.2404
  643MOL0     H88706   6.200   2.524   2.240  0.2143  2.6833 -3.0068
  643MOL0     H88707   6.075   2.542   2.127  3.2807 -0.3665 -0.1963
  643MOL0     H88708   5.905   2.478   2.335  0.1916 -0.3183  0.8149
  643MOL0     H88709   5.987   2.638   2.336  0.8611  0.5451 -1.5239
  643MOL0     H88710   6.003   2.387   2.503 -2.2756 -0.2477 -2.4977
  643MOL0     H88711   5.981   2.555   2.551  0.7075 -2.0082  1.9421
  643MOL0     H88712   6.228   2.596   2.541  1.7369  0.6716 -2.2327
  643MOL0     H88713   6.249   2.458   2.431 -0.3688  2.0934 -1.5467
  643MOL0     H88714   6.751   2.388   2.181 -1.4461  1.7675 -0.1716
  643MOL0     H88715   6.921   2.427   2.361  0.0569 -0.7753  1.0072
  643MOL0     H88716   7.269   2.454   2.634 -2.9543  0.0547 -0.1539
  643MOL0     H88717   7.405   2.508   2.834 -0.4128  0.8548 -1.5521
  643MOL0     H88718   6.566   2.198   3.789  0.8195 -1.7100 -0.4785
  643MOL0     H88719   6.348   2.215   3.674 -0.7356 -0.3500 -0.6933
  643MOL0     H88720   5.915   1.954   3.803  0.2695  0.1820 -0.2544
  643MOL0     H88721   5.680   1.886   3.772  4.1643 -0.3411  2.0862
  643MOL0     H88722   5.452   2.004   3.397  1.7607  0.4326 -1.0627
  643MOL0     H88723   5.579   1.881   3.404 -0.3424 -1.7307  0.6070
  643MOL0     H88724   5.432   1.729   3.515 -0.4400 -1.3760 -0.6735
  643MOL0     H88725   5.347   1.785   3.357  0.6487  3.8084 -0.7051
  643MOL0     H88726   5.275   1.927   3.618 -0.5601  1.8543 -1.3536
  643MOL0     H88727   5.181   1.901   3.487  0.3820  0.7093  1.9927
  643MOL0     H88728   5.123   1.791   3.690  1.6148 -0.0520  0.7016
  643MOL0     H88729   5.247   1.661   3.655  0.8984 -0.5040 -0.7544
  643MOL0     H88730   4.926   1.558   3.404 -0.8389  2.2676  0.9292
  643MOL0     H88731   5.664   2.125   3.422  0.4830  0.0252  0.4571
  643MOL0     H88732   6.033   2.125   3.381 -0.8249 -1.4419  0.7044
  643MOL0     H88733   5.867   2.169   3.317 -0.6998  1.1351  0.6522
  643MOL0     H88734   5.965   2.281   3.420 -1.0623  0.4288  1.9114
  644MOL0     O88735   4.981  10.341   8.651 -0.5118  0.0093  0.5311
  644MOL0     C88736   4.887  10.351   8.577 -0.4636  0.3907 -0.0585
  644MOL0     O88737   4.892  10.398   8.446 -0.6957  0.0426 -0.0163
  644MOL0     C88738   5.007  10.394   8.370  1.0037  0.0045  0.1142
  644MOL0     C88739   5.012  10.496   8.265 -0.1802  0.8388  0.0236
  644MOL0     C88740   5.122  10.492   8.177  0.0625  0.6444 -0.3648
  644MOL0     C88741   5.220  10.397   8.191 -0.3598  0.4776 -0.0478
  644MOL0     O88742   5.334  10.386   8.107 -0.2493 -0.1164  0.3021
  644MOL0     C88743   5.347  10.490   8.007 -0.2596 -0.3164  0.3864
  644MOL0     C88744   5.432  10.612   8.060 -0.2178 -0.0485 -0.0243
  644MOL0     C88745   5.583  10.582   8.062  0.1694  0.1288  0.8338
  644MOL0     C88746   5.656  10.715   8.073 -0.2519 -0.7056 -0.0959
  644MOL0     C88747   5.811  10.702   8.061  0.0309  0.8213  0.4497
  644MOL0     C88748   5.885  10.643   8.179 -0.0969 -0.1632 -0.0653
  644MOL0     C88749   6.027  10.598   8.134  0.3178 -1.1515 -0.9006
  644MOL0     C88750   6.119  10.717   8.098 -1.2210 -1.1668 -0.4369
  644MOL0     N88751   6.246  10.683   8.022  0.3674  0.4970 -0.4764
  644MOL0     C88752   6.242  10.626   7.901 -0.2446  1.0599 -0.0536
  644MOL0     C88753   6.368  10.635   7.853 -0.6724 -0.2052 -1.2480
  644MOL0     C88754   6.423  10.566   7.730  0.3573 -0.8129 -0.4340
  644MOL0     C88755   6.537  10.479   7.755 -0.4148  0.2710  0.3028
  644MOL0     C88756   6.593  10.389   7.635 -0.1665 -0.4644 -0.6993
  644MOL0     C88757   6.629  10.488   7.529 -0.1727 -0.8936  0.2952
  644MOL0     O88758   6.731  10.419   7.448 -0.0194  0.1111 -0.0019
  644MOL0     C88759   6.741  10.485   7.325  0.9558  0.5895  0.0145
  644MOL0     C88760   6.649  10.456   7.222  0.0300  0.7991  0.5181
  644MOL0     C88761   6.641  10.522   7.101 -0.3384 -0.2661  1.0210
  644MOL0     C88762   6.563  10.447   6.997  0.2061 -0.2790 -0.4299
  644MOL0     C88763   6.715  10.641   7.085  0.0893 -0.7085 -0.6687
  644MOL0     C88764   6.709  10.738   6.973  0.7804 -1.0807 -0.4147
  644MOL0     O88765   6.800  10.844   6.969 -0.5415 -1.0187 -0.7261
  644MOL0     C88766   6.806  10.915   6.847 -0.3603 -0.5393 -0.2030
  644MOL0     C88767   6.730  11.031   6.824 -0.3026  0.0972  0.2956
  644MOL0     C88768   6.742  11.121   6.716  0.3208  0.0509 -0.1268
  644MOL0     C88769   6.841  11.094   6.615  0.4119  0.8299 -1.0859
  644MOL0     O88770   6.848  11.185   6.517 -0.1884  0.0116 -0.5992
  644MOL0     C88771   6.920  11.163   6.395  0.4404  0.1702  0.0618
  644MOL0     C88772   6.880  11.269   6.292  0.4097  0.1635  0.3246
  644MOL0     C88773   6.742  11.271   6.246  0.0769 -0.4026 -0.2799
  644MOL0     C88774   6.718  11.406   6.174  0.1808  0.1120 -1.2592
  644MOL0     C88775   6.580  11.425   6.111 -0.9146  0.1379  0.4835
  644MOL0     C88776   6.456  11.421   6.200 -0.0250  0.1514  0.2006
  644MOL0     C88777   6.473  11.524   6.316 -0.5298  0.1692  0.6310
  644MOL0     C88778   6.360  11.497   6.422 -0.0603  0.0722  0.8584
  644MOL0    Cl88779   6.196  11.504   6.339 -0.5615 -0.2606  0.4683
  644MOL0     C88780   6.929  10.986   6.644 -0.7663 -0.4105 -1.2846
  644MOL0     C88781   6.914  10.903   6.760 -0.1808 -0.0020  0.2722
  644MOL0     O88782   6.626  10.722   6.887  0.6655  0.9256 -0.1421
  644MOL0     C88783   6.805  10.671   7.193 -1.0853  0.1716  0.1083
  644MOL0     C88784   6.825  10.592   7.307 -0.7015 -0.4528 -0.3779
  644MOL0     N88785   6.453  10.689   7.950  0.1527  0.0419 -0.9905
  644MOL0     N88786   6.380  10.706   8.060  0.7516 -0.6336 -0.1029
  644MOL0     C88787   5.219  10.305   8.302 -0.2392 -0.7224  1.3723
  644MOL0     C88788   5.107  10.301   8.381 -0.2830 -0.0176 -0.4004
  644MOL0     C88789   4.761  10.307   8.632  0.3656 -0.5723  0.2387
  644MOL0     C88790   4.735  10.319   8.773 -0.8567 -0.6805 -0.3579
  644MOL0     C88791   4.617  10.282   8.831  0.5768 -0.0610  0.6693
  644MOL0     C88792   4.513  10.239   8.758  0.6513 -0.1900 -0.1557
  644MOL0     O88793   4.391  10.220   8.817  0.4669  0.5655 -0.0186
  644MOL0     C88794   4.288  10.138   8.767 -1.3544  0.4536  0.2658
  644MOL0     C88795   4.202  10.085   8.870 -0.0902  0.5184 -0.9810
  644MOL0     C88796   4.140  10.200   8.954  0.2202  0.3302  0.4259
  644MOL0     C88797   4.070  10.309   8.876  0.7509  0.5446 -0.4355
  644MOL0     C88798   3.997  10.383   8.977  0.0230  0.0729 -0.0296
  644MOL0     C88799   3.941  10.456   9.057  0.6233  0.4910  0.0871
  644MOL0     C88800   4.541  10.218   8.625 -0.4533 -0.0826  0.5081
  644MOL0     C88801   4.655  10.248   8.555 -0.5431  0.1989  0.2466
  644MOL0     C88802   4.684  10.194   8.417 -0.6291 -0.2481  0.9551
  644MOL0     H88803   4.938  10.573   8.246 -1.7671 -1.1655 -2.7415
  644MOL0     H88804   5.127  10.572   8.103 -0.1489  1.4146  0.4287
  644MOL0     H88805   5.253  10.526   7.962 -0.5439  1.3281  2.1402
  644MOL0     H88806   5.395  10.469   7.911 -1.6275 -1.0898 -0.1598
  644MOL0     H88807   5.400  10.682   7.983  0.4103  0.0256 -0.2183
  644MOL0     H88808   5.390  10.639   8.157 -1.0814  0.7153 -0.5896
  644MOL0     H88809   5.607  10.521   8.150  1.9215  3.6822  3.0279
  644MOL0     H88810   5.602  10.534   7.966 -1.5109 -0.0258  0.5485
  644MOL0     H88811   5.624  10.786   7.996 -1.3195  1.6653  2.3532
  644MOL0     H88812   5.635  10.757   8.172 -4.0664 -2.1523 -0.1541
  644MOL0     H88813   5.852  10.802   8.045  0.7962  0.5653  0.7411
  644MOL0     H88814   5.834  10.635   7.978 -4.4957  1.1596 -1.3900
  644MOL0     H88815   5.895  10.722   8.254 -2.4441  2.5059 -2.3435
  644MOL0     H88816   5.833  10.560   8.229  1.6542 -0.5749  1.1527
  644MOL0     H88817   6.022  10.520   8.057  1.0682 -4.7133  2.3141
  644MOL0     H88818   6.069  10.554   8.225 -2.0615 -0.2842  0.7275
  644MOL0     H88819   6.077  10.810   8.059 -0.4381 -0.4076  0.4664
  644MOL0     H88820   6.164  10.749   8.192  1.4307  0.3260 -2.0714
  644MOL0     H88821   6.159  10.585   7.844 -0.7262  0.1149  1.2862
  644MOL0     H88822   6.460  10.646   7.665 -0.6551 -0.6621 -0.8444
  644MOL0     H88823   6.338  10.516   7.683  0.9572 -2.6322  0.3140
  644MOL0     H88824   6.616  10.543   7.794  0.1731  0.6748 -1.4600
  644MOL0     H88825   6.514  10.413   7.839 -0.8364 -0.0547 -0.0589
  644MOL0     H88826   6.683  10.349   7.684 -1.4337 -0.0094  2.1520
  644MOL0     H88827   6.527  10.306   7.607  1.4726 -2.5667  1.2327
  644MOL0     H88828   6.541  10.517   7.471  0.6098  2.3780  0.5406
  644MOL0     H88829   6.668  10.582   7.570 -1.4282 -1.8291  4.0798
  644MOL0     H88830   6.588  10.366   7.233 -1.0436  1.5058  0.5130
  644MOL0     H88831   6.471  10.501   6.971 -0.3985  0.4354  2.6852
  644MOL0     H88832   6.517  10.353   7.030 -2.2254  0.4372 -1.5583
  644MOL0     H88833   6.621  10.429   6.907 -0.1678 -0.7507 -0.5800
  644MOL0     H88834   6.654  11.043   6.900  0.0460 -2.9593  1.2639
  644MOL0     H88835   6.678  11.209   6.723  1.7458  1.0333  1.1272
  644MOL0     H88836   7.024  11.187   6.419  0.8871  0.7269 -2.1793
  644MOL0     H88837   6.914  11.058   6.367  1.9832  0.0907 -0.0604
  644MOL0     H88838   6.907  11.369   6.328  0.4351  0.7508 -1.2701
  644MOL0     H88839   6.944  11.250   6.206  0.3231 -0.1899  0.3355
  644MOL0     H88840   6.681  11.276   6.337  1.0110  1.3409  0.2797
  644MOL0     H88841   6.704  11.182   6.194 -1.1748  0.9615 -1.7914
  644MOL0     H88842   6.791  11.406   6.092 -0.6904  0.8525 -2.0516
  644MOL0     H88843   6.737  11.486   6.246  2.4552 -0.9337 -0.5973
  644MOL0     H88844   6.588  11.525   6.066  1.7521  0.8002  2.1699
  644MOL0     H88845   6.580  11.349   6.033 -0.7845 -1.4829  2.0043
  644MOL0     H88846   6.434  11.322   6.242 -0.3866  0.4827  0.8117
  644MOL0     H88847   6.376  11.448   6.131  1.2954  0.5186 -1.2328
  644MOL0     H88848   6.470  11.626   6.278  0.7722 -0.2444 -0.6869
  644MOL0     H88849   6.574  11.514   6.358 -0.1031 -3.5332 -0.8511
  644MOL0     H88850   6.368  11.569   6.504  1.3221  1.9249 -0.7887
  644MOL0     H88851   6.372  11.398   6.466  0.8595 -0.2322 -0.0319
  644MOL0     H88852   7.014  10.964   6.581  0.9453 -1.4054  1.2007
  644MOL0     H88853   6.989  10.831   6.791 -0.1428  0.3470  1.0201
  644MOL0     H88854   6.864  10.762   7.184 -0.3135 -0.3857 -0.6332
  644MOL0     H88855   6.883  10.618   7.395 -2.0467  2.2256 -0.1750
  644MOL0     H88856   5.300  10.236   8.323 -0.9673 -2.6013 -1.4821
  644MOL0     H88857   5.104  10.226   8.460 -1.9920  1.6547  1.2196
  644MOL0     H88858   4.821  10.348   8.831 -0.2963 -4.5640  1.0328
  644MOL0     H88859   4.601  10.309   8.935 -0.5214  1.1306  0.2155
  644MOL0     H88860   4.238  10.196   8.689  0.6048 -0.3761 -1.7158
  644MOL0     H88861   4.324  10.052   8.709  0.7418  1.7551 -0.4884
  644MOL0     H88862   4.254  10.017   8.938  0.3921  1.9185  0.0752
  644MOL0     H88863   4.129  10.020   8.819  1.1579 -1.2238 -0.6426
  644MOL0     H88864   4.068  10.160   9.025 -0.8913  4.1798  1.6835
  644MOL0     H88865   4.223  10.240   9.013  0.0815 -0.0087  0.8537
  644MOL0     H88866   3.997  10.267   8.807 -0.9671 -0.2857  1.7700
  644MOL0     H88867   4.141  10.373   8.822  1.6048 -0.5184 -0.6090
  644MOL0     H88868   3.900  10.514   9.137  0.6460  0.5924  0.0265
  644MOL0     H88869   4.468  10.165   8.565 -0.0514  0.4680 -0.5049
  644MOL0     H88870   4.653  10.273   8.347 -1.4826  0.0237  1.6233
  644MOL0     H88871   4.791  10.171   8.422 -0.0221  1.7592 -1.1002
  644MOL0     H88872   4.626  10.103   8.402 -1.5892  0.5748 -0.6412
  645MOL0     O88873   8.960   4.778   0.506  0.4069 -0.6836 -0.2315
  645MOL0     C88874   8.899   4.806   0.612 -0.4166  0.0970  0.0205
  645MOL0     O88875   8.965   4.845   0.724 -0.3829  0.5465 -0.0301
  645MOL0     C88876   9.100   4.880   0.724  0.4975  0.7527  0.0356
  645MOL0     C88877   9.195   4.780   0.741 -0.0939 -0.5256  1.3549
  645MOL0     C88878   9.334   4.813   0.727  0.4486 -0.6700  0.0296
  645MOL0     C88879   9.379   4.947   0.697 -0.7631 -0.8528 -1.2255
  645MOL0     O88880   9.511   4.961   0.680 -0.0855 -0.1003 -0.8118
  645MOL0     C88881   9.569   5.087   0.638  0.3043  0.4733  0.4984
  645MOL0     C88882   9.603   5.163   0.764 -0.7286 -0.1386  1.0987
  645MOL0     C88883   9.737   5.109   0.823 -0.5697 -0.0866 -0.0020
  645MOL0     C88884   9.824   5.206   0.908  0.0163  0.3319  1.8262
  645MOL0     C88885   9.970   5.166   0.918 -0.1970  0.4897 -0.9000
  645MOL0     C88886  10.049   5.260   1.022  0.5857 -0.3561 -0.1595
  645MOL0     C88887  10.199   5.282   0.983  0.3657  0.4927 -0.9603
  645MOL0     C88888  10.266   5.146   0.953 -0.5059 -0.0595  0.2488
  645MOL0     N88889  10.413   5.164   0.929 -0.2354  0.2307  0.1487
  645MOL0     C88890  10.463   5.182   0.800  0.3863 -0.0985 -0.0794
  645MOL0     C88891  10.594   5.150   0.820  0.3482 -0.0326  0.4100
  645MOL0     C88892  10.692   5.126   0.707  0.4470  0.5583 -0.2866
  645MOL0     C88893  10.755   5.259   0.650 -0.0419 -1.4856 -0.6803
  645MOL0     C88894  10.844   5.230   0.530  0.6695  0.0493  0.1441
  645MOL0     C88895  10.922   5.359   0.491 -0.1575 -0.3159 -0.5120
  645MOL0     O88896  10.856   5.437   0.394 -0.2335  0.5519 -0.6966
  645MOL0     C88897  10.891   5.562   0.369 -0.1634 -0.4369 -0.0975
  645MOL0     C88898  10.800   5.631   0.286 -0.8933 -0.2886  0.4669
  645MOL0     C88899  10.839   5.746   0.224  0.5940  0.1155  0.3119
  645MOL0     C88900  10.743   5.802   0.115  0.0447 -0.4867  0.5186
  645MOL0     C88901  10.958   5.807   0.250 -0.0119  0.3853 -0.4548
  645MOL0     C88902  11.007   5.936   0.195  0.1417  0.5547  1.3795
  645MOL0     O88903  11.136   5.958   0.214  0.1414 -0.0579 -0.2803
  645MOL0     C88904  11.192   6.080   0.169  0.3293 -0.0362  0.2187
  645MOL0     C88905  11.136   6.209   0.201  0.3619 -0.3046  1.1932
  645MOL0     C88906  11.196   6.333   0.156 -0.2351  0.3145  0.4425
  645MOL0     C88907  11.325   6.320   0.098  0.2667 -0.0016 -0.7135
  645MOL0     O88908  11.387   6.428   0.046 -0.2034 -0.0195  0.0412
  645MOL0     C88909  11.464   6.486   0.142 -0.0994  0.7356 -0.2670
  645MOL0     C88910  11.515   6.621   0.090  0.2735 -0.0769  1.5184
  645MOL0     C88911  11.390   6.712   0.061 -0.0752 -0.5594  0.0901
  645MOL0     C88912  11.329   6.739   0.203 -0.3414 -0.1722  0.6494
  645MOL0     C88913  11.232   6.853   0.223 -0.5975  1.0244  0.0262
  645MOL0     C88914  11.290   6.998   0.191  0.2264  0.0758 -0.6262
  645MOL0     C88915  11.182   7.096   0.227  0.0198 -0.3562  0.1898
  645MOL0     C88916  11.235   7.239   0.239  0.0765  0.7088 -0.2851
  645MOL0    Cl88917  11.285   7.312   0.078  0.3811  0.0375  0.2164
  645MOL0     C88918  11.386   6.202   0.065 -0.0688 -0.6489 -0.2084
  645MOL0     C88919  11.313   6.085   0.098  0.5359 -0.3169 -0.3773
  645MOL0     O88920  10.933   6.013   0.132  0.3856 -0.9274  0.3103
  645MOL0     C88921  11.045   5.734   0.337  0.4546 -0.5240  1.3592
  645MOL0     C88922  11.018   5.622   0.395  0.0824  0.2249 -0.0924
  645MOL0     N88923  10.617   5.119   0.951  0.1237 -0.0517 -0.0513
  645MOL0     N88924  10.510   5.123   1.015 -0.2040 -1.1214 -0.7340
  645MOL0     C88925   9.279   5.048   0.698 -0.5244  0.6789  0.5484
  645MOL0     C88926   9.141   5.010   0.702 -0.0007 -0.6113 -0.1157
  645MOL0     C88927   8.748   4.806   0.610  0.0384  0.2636  0.0221
  645MOL0     C88928   8.685   4.711   0.525  0.3182 -0.6847 -0.3861
  645MOL0     C88929   8.545   4.712   0.515  0.0107  0.9653  0.3805
  645MOL0     C88930   8.468   4.800   0.587  0.6433 -0.0484 -0.2586
  645MOL0     O88931   8.335   4.777   0.567 -0.1546 -0.2300 -0.5609
  645MOL0     C88932   8.243   4.809   0.676 -0.2358 -0.1704  0.6923
  645MOL0     C88933   8.154   4.692   0.705 -0.1472  1.0887 -0.0747
  645MOL0     C88934   8.237   4.571   0.741 -0.3780  0.1156  0.3968
  645MOL0     C88935   8.151   4.458   0.811 -0.1094 -0.1750 -0.5857
  645MOL0     C88936   8.074   4.402   0.697  0.3481 -0.2601  0.4989
  645MOL0     C88937   8.014   4.350   0.602  0.0109  0.4612 -0.6065
  645MOL0     C88938   8.529   4.892   0.670  0.5263  0.6120 -0.1930
  645MOL0     C88939   8.669   4.901   0.687  0.4375 -1.3624  0.2960
  645MOL0     C88940   8.733   5.013   0.765  0.0596 -0.0514 -0.0383
  645MOL0     H88941   9.157   4.679   0.756 -0.1707 -1.3248 -2.9617
  645MOL0     H88942   9.410   4.737   0.734  2.6547  1.5668  2.7182
  645MOL0     H88943   9.507   5.148   0.571  0.0219  0.2939  0.5972
  645MOL0     H88944   9.661   5.064   0.584 -0.4965 -1.2887 -0.1711
  645MOL0     H88945   9.618   5.268   0.739  0.0102 -0.9199 -2.4073
  645MOL0     H88946   9.524   5.155   0.839 -3.8076 -0.1241 -1.8555
  645MOL0     H88947   9.705   5.015   0.867 -1.1907 -0.3461 -0.9693
  645MOL0     H88948   9.803   5.082   0.740 -0.2208 -3.0305  1.1132
  645MOL0     H88949   9.808   5.302   0.858  0.2907 -0.1306  0.8195
  645MOL0     H88950   9.782   5.201   1.009  0.7235 -1.7297  2.0519
  645MOL0     H88951  10.018   5.178   0.821 -1.0980  0.1200 -1.3983
  645MOL0     H88952   9.978   5.064   0.956 -1.0043  0.4443 -0.8382
  645MOL0     H88953   9.998   5.357   1.029 -1.7411 -1.0682 -4.1988
  645MOL0     H88954  10.047   5.206   1.117 -2.3803 -1.1872 -0.5931
  645MOL0     H88955  10.251   5.323   1.070  2.0894 -2.2471 -0.5731
  645MOL0     H88956  10.207   5.349   0.897 -1.8509  1.9885 -0.0715
  645MOL0     H88957  10.246   5.077   1.036  0.1776  0.5396  0.9287
  645MOL0     H88958  10.214   5.118   0.861 -3.3019  2.4394  0.9142
  645MOL0     H88959  10.417   5.209   0.705  1.5461 -1.8597 -1.1996
  645MOL0     H88960  10.636   5.072   0.629  0.9627 -2.6247  1.3504
  645MOL0     H88961  10.767   5.053   0.740 -1.7055 -1.2369  0.9129
  645MOL0     H88962  10.682   5.334   0.618 -3.4879 -3.4595  1.8095
  645MOL0     H88963  10.811   5.301   0.734  2.2226 -4.4066 -0.5403
  645MOL0     H88964  10.917   5.160   0.572  0.3469 -1.5768 -1.8483
  645MOL0     H88965  10.800   5.199   0.435 -0.0862  3.6315 -0.8211
  645MOL0     H88966  10.959   5.410   0.580  2.5942 -0.9974 -1.1610
  645MOL0     H88967  11.011   5.316   0.444 -0.8827 -2.8576  0.2828
  645MOL0     H88968  10.726   5.565   0.241  2.0863 -3.0848 -0.7887
  645MOL0     H88969  10.688   5.723   0.063  3.7265 -2.2539 -1.0623
  645MOL0     H88970  10.796   5.855   0.035 -1.9680  2.6266  1.0851
  645MOL0     H88971  10.679   5.879   0.159 -1.6941 -1.1889 -0.6926
  645MOL0     H88972  11.037   6.221   0.245  1.3317 -0.2475  3.5113
  645MOL0     H88973  11.144   6.427   0.172  2.7303  2.3202 -0.6766
  645MOL0     H88974  11.423   6.495   0.243 -0.9710  1.3578 -0.6572
  645MOL0     H88975  11.556   6.428   0.158 -1.8032 -1.7616  1.1061
  645MOL0     H88976  11.581   6.677   0.157 -2.5105  3.2310  1.7577
  645MOL0     H88977  11.564   6.603  -0.006 -1.4902 -0.7116  0.6938
  645MOL0     H88978  11.324   6.688  -0.022 -0.6255  2.8450 -0.5863
  645MOL0     H88979  11.426   6.810   0.028 -2.4318  0.5345  0.5152
  645MOL0     H88980  11.412   6.746   0.274 -1.0996 -0.4130  1.5921
  645MOL0     H88981  11.265   6.654   0.229  1.5735 -1.5115  1.1505
  645MOL0     H88982  11.138   6.836   0.168 -1.2741 -2.1016  1.8911
  645MOL0     H88983  11.198   6.837   0.326  0.8258 -4.4094 -0.0350
  645MOL0     H88984  11.304   7.024   0.086 -0.0064 -0.2963 -0.7536
  645MOL0     H88985  11.372   7.020   0.260  1.4680 -0.1233 -1.9651
  645MOL0     H88986  11.138   7.067   0.323  1.4264  2.2833  1.7724
  645MOL0     H88987  11.104   7.106   0.151 -1.4424  2.0468  1.8425
  645MOL0     H88988  11.310   7.252   0.318  2.0465  0.1773 -1.9777
  645MOL0     H88989  11.142   7.291   0.263 -0.6182 -0.3172 -0.7198
  645MOL0     H88990  11.476   6.191   0.005 -1.0944 -0.3110 -1.8846
  645MOL0     H88991  11.350   5.985   0.074  0.9977 -0.1916 -0.1925
  645MOL0     H88992  11.146   5.770   0.348  1.4553 -1.4027 -3.1080
  645MOL0     H88993  11.101   5.578   0.450 -0.6190 -2.1423 -0.8210
  645MOL0     H88994   9.292   5.150   0.661 -1.7691  0.5642 -0.2929
  645MOL0     H88995   9.075   5.096   0.693 -2.0709 -2.2728 -1.9206
  645MOL0     H88996   8.733   4.640   0.458 -2.4387  0.0297 -3.3671
  645MOL0     H88997   8.496   4.634   0.459  0.6936 -0.0642  1.1767
  645MOL0     H88998   8.295   4.840   0.767 -2.3021  1.9087  1.2699
  645MOL0     H88999   8.186   4.898   0.647 -2.1921 -1.9560 -1.3180
  645MOL0     H89000   8.100   4.689   0.610  0.3919 -0.8937 -0.3760
  645MOL0     H89001   8.082   4.714   0.784 -1.0114 -2.5635  0.3622
  645MOL0     H89002   8.286   4.538   0.649 -0.0249  2.7642 -0.4502
  645MOL0     H89003   8.316   4.594   0.812 -2.9244 -2.5472  4.5142
  645MOL0     H89004   8.080   4.499   0.884 -0.4178 -3.1283  0.9173
  645MOL0     H89005   8.220   4.393   0.866  0.3028  1.0683  0.4283
  645MOL0     H89006   7.955   4.299   0.528 -1.3299  1.7292 -0.4455
  645MOL0     H89007   8.470   4.963   0.726 -0.0040  0.0775 -0.0738
  645MOL0     H89008   8.821   5.051   0.713 -0.3676  0.9459 -0.0474
  645MOL0     H89009   8.660   5.095   0.764 -2.0712 -1.8204 -1.7688
  645MOL0     H89010   8.755   4.985   0.868  0.6444  2.2299  0.4927
  646MOL0     O89011  10.715   2.905   8.178  0.4059 -0.6051 -0.3114
  646MOL0     C89012  10.611   2.956   8.138  0.8991  0.5351  0.1879
  646MOL0     O89013  10.545   2.921   8.014 -0.0896  0.7582 -0.9111
  646MOL0     C89014  10.541   2.794   7.956  0.6363  0.0632  0.4121
  646MOL0     C89015  10.502   2.776   7.825  0.3492 -1.0950  0.7349
  646MOL0     C89016  10.506   2.646   7.766  0.1515  0.2285  0.0047
  646MOL0     C89017  10.562   2.542   7.838 -0.0724  0.6562  0.5004
  646MOL0     O89018  10.569   2.421   7.770  0.1426  0.2029 -0.7735
  646MOL0     C89019  10.499   2.306   7.813  0.2596  0.3621  0.4229
  646MOL0     C89020  10.592   2.191   7.804 -0.4059  0.1838 -0.6442
  646MOL0     C89021  10.673   2.178   7.680 -0.3930 -0.9976  0.2806
  646MOL0     C89022  10.756   2.049   7.675 -1.1114  0.7881  0.4229
  646MOL0     C89023  10.818   1.991   7.544 -0.7776  0.0012 -0.1513
  646MOL0     C89024  10.871   1.850   7.554  0.1218 -0.3498 -0.1505
  646MOL0     C89025  10.931   1.795   7.417  0.3580  0.4026  0.2260
  646MOL0     C89026  11.055   1.865   7.361 -0.4578 -0.2489  0.4383
  646MOL0     N89027  11.177   1.838   7.439 -0.0814 -0.6586  0.1580
  646MOL0     C89028  11.280   1.746   7.408  0.6929 -0.1606 -0.3551
  646MOL0     C89029  11.367   1.752   7.511  0.9271  0.2545 -0.3576
  646MOL0     C89030  11.476   1.653   7.532 -1.5017 -0.7694 -0.5331
  646MOL0     C89031  11.490   1.605   7.677  0.0303 -0.3448  0.8581
  646MOL0     C89032  11.566   1.469   7.671  0.2558  0.3442 -0.3632
  646MOL0     C89033  11.530   1.379   7.790  0.3954 -0.1132  0.6241
  646MOL0     O89034  11.565   1.460   7.910 -0.2385  0.0121 -0.6335
  646MOL0     C89035  11.589   1.395   8.034 -0.5734  0.1559 -0.7146
  646MOL0     C89036  11.523   1.277   8.074 -0.1974  0.2553 -0.2744
  646MOL0     C89037  11.529   1.206   8.193  0.0879 -0.9711 -0.0141
  646MOL0     C89038  11.457   1.076   8.201 -0.2988  0.5171 -0.5182
  646MOL0     C89039  11.627   1.265   8.286  0.3432 -0.2945  0.2886
  646MOL0     C89040  11.666   1.202   8.414  0.3131  0.0494  0.0699
  646MOL0     O89041  11.654   1.068   8.419  0.2119  0.3100 -0.2653
  646MOL0     C89042  11.704   0.988   8.526  0.6310 -0.4890 -0.9197
  646MOL0     C89043  11.630   0.870   8.562 -1.4095 -0.3646  0.0909
  646MOL0     C89044  11.657   0.799   8.678  0.2957 -0.2989 -0.6470
  646MOL0     C89045  11.766   0.842   8.764  0.4947  0.0418 -0.7234
  646MOL0     O89046  11.781   0.770   8.883 -0.4141 -0.1633 -0.1150
  646MOL0     C89047  11.913   0.780   8.941 -0.0445 -0.1863 -0.7817
  646MOL0     C89048  11.948   0.678   9.042  0.3159  0.6024  0.6588
  646MOL0     C89049  12.090   0.701   9.100  0.2381  0.2588 -0.9350
  646MOL0     C89050  12.203   0.700   9.002 -1.0955  0.2373 -0.2005
  646MOL0     C89051  12.339   0.715   9.070 -1.1064 -0.1641  0.1771
  646MOL0     C89052  12.469   0.676   8.980 -0.3114  0.8233  0.7842
  646MOL0     C89053  12.586   0.767   9.009  0.0556 -0.6447  0.2145
  646MOL0     C89054  12.708   0.722   8.924  0.3142 -0.2104  0.8375
  646MOL0    Cl89055  12.673   0.699   8.740  0.0607 -0.2096 -0.4627
  646MOL0     C89056  11.840   0.948   8.720 -1.1133  0.5539  0.3436
  646MOL0     C89057  11.813   1.020   8.604  0.5017 -0.0483  0.0087
  646MOL0     O89058  11.687   1.264   8.509 -0.6709 -0.1488 -0.7925
  646MOL0     C89059  11.675   1.387   8.264 -0.3618 -0.1609 -0.8795
  646MOL0     C89060  11.669   1.452   8.139  0.4064 -0.2238 -0.1804
  646MOL0     N89061  11.326   1.845   7.597 -0.2825 -0.2593  0.2414
  646MOL0     N89062  11.220   1.906   7.551  0.0670 -0.9095  0.6574
  646MOL0     C89063  10.593   2.553   7.978 -0.0446  0.2199  0.0701
  646MOL0     C89064  10.578   2.676   8.032 -0.0481 -0.1271  0.0414
  646MOL0     C89065  10.533   3.059   8.222 -0.0273  0.2912  0.2575
  646MOL0     C89066  10.396   3.082   8.187  0.2148 -0.5911  0.7209
  646MOL0     C89067  10.303   3.154   8.264  0.2604  0.0778 -0.1380
  646MOL0     C89068  10.351   3.199   8.388 -0.3769 -0.3189  0.1650
  646MOL0     O89069  10.264   3.280   8.462 -0.2592  0.0309 -0.5927
  646MOL0     C89070  10.307   3.325   8.594  0.1956  0.6015 -0.8235
  646MOL0     C89071  10.190   3.381   8.672 -0.0239  0.2462  0.5826
  646MOL0     C89072  10.071   3.286   8.683  0.6660 -0.1344 -0.2716
  646MOL0     C89073   9.952   3.344   8.772  0.8274 -0.3948 -0.4988
  646MOL0     C89074   9.870   3.446   8.702 -0.1290 -0.0476 -0.6014
  646MOL0     C89075   9.796   3.516   8.645 -0.1515 -0.0394  1.6800
  646MOL0     C89076  10.492   3.185   8.422  0.3321  0.6223  0.8044
  646MOL0     C89077  10.581   3.117   8.339  0.2820  0.0793  0.1812
  646MOL0     C89078  10.717   3.089   8.397 -0.8024  0.7102 -0.2708
  646MOL0     H89079  10.470   2.864   7.771  3.9851 -0.9865 -1.5660
  646MOL0     H89080  10.472   2.632   7.663  0.4193 -2.5367  0.2173
  646MOL0     H89081  10.414   2.287   7.747  1.4481  1.6993 -1.6236
  646MOL0     H89082  10.465   2.323   7.915 -2.9334  3.1223 -0.9076
  646MOL0     H89083  10.655   2.217   7.889 -2.1935  0.2412  0.7368
  646MOL0     H89084  10.529   2.105   7.827 -0.4959 -0.3009 -2.5469
  646MOL0     H89085  10.603   2.177   7.596  0.5762  1.8732 -0.6875
  646MOL0     H89086  10.741   2.259   7.653  0.7240 -1.4648  1.6146
  646MOL0     H89087  10.827   2.048   7.758  1.8409  2.4138 -1.9025
  646MOL0     H89088  10.688   1.966   7.696 -2.0432  1.6247  0.7545
  646MOL0     H89089  10.889   2.065   7.506 -2.5123  2.6071  1.3558
  646MOL0     H89090  10.741   1.982   7.468 -1.5708 -0.5289  0.6890
  646MOL0     H89091  10.950   1.851   7.629 -0.0793  1.6934  0.0919
  646MOL0     H89092  10.791   1.782   7.585 -0.2854 -1.0843 -2.5550
  646MOL0     H89093  10.848   1.795   7.345  0.4078 -4.7262 -0.2157
  646MOL0     H89094  10.957   1.689   7.428  1.6403  0.9091  2.6542
  646MOL0     H89095  11.068   1.836   7.256 -5.2151 -1.3181 -0.1243
  646MOL0     H89096  11.032   1.972   7.355 -4.1878 -0.7270  2.7391
  646MOL0     H89097  11.288   1.673   7.328 -3.3269  0.3195 -1.4207
  646MOL0     H89098  11.563   1.716   7.512 -0.8331 -1.7013 -0.6188
  646MOL0     H89099  11.483   1.574   7.458  0.7284  0.7262 -2.0415
  646MOL0     H89100  11.535   1.668   7.754  2.0225  0.3672 -0.8305
  646MOL0     H89101  11.384   1.589   7.703 -0.8929 -0.3380 -2.4981
  646MOL0     H89102  11.539   1.418   7.578  0.1268 -1.2752  0.5153
  646MOL0     H89103  11.672   1.494   7.660  0.3586  1.2216  1.9805
  646MOL0     H89104  11.423   1.359   7.788  0.6939 -1.7665 -0.2311
  646MOL0     H89105  11.591   1.288   7.791  2.3371  1.0735  3.0418
  646MOL0     H89106  11.474   1.224   7.993  3.7442  1.4837 -3.8733
  646MOL0     H89107  11.391   1.064   8.114  0.6991 -1.9980 -1.0283
  646MOL0     H89108  11.407   1.066   8.297  1.2412  1.2211  0.3914
  646MOL0     H89109  11.529   0.995   8.186 -0.9847  0.1999 -2.4966
  646MOL0     H89110  11.570   0.818   8.489  2.1312 -1.8271 -2.0460
  646MOL0     H89111  11.592   0.715   8.702  0.8575 -0.4611  0.3674
  646MOL0     H89112  11.988   0.760   8.865  0.0658  2.3190 -1.4184
  646MOL0     H89113  11.923   0.883   8.977 -1.2494 -0.3051 -0.0319
  646MOL0     H89114  11.878   0.659   9.125 -1.4117 -1.7640 -1.1713
  646MOL0     H89115  11.945   0.581   8.990  0.9161  1.6806 -1.4660
  646MOL0     H89116  12.106   0.619   9.170 -0.4515 -0.7522 -1.9142
  646MOL0     H89117  12.093   0.790   9.163 -0.9336 -0.1711 -0.2220
  646MOL0     H89118  12.197   0.788   8.938 -0.1200  0.2118 -0.3397
  646MOL0     H89119  12.187   0.609   8.944 -3.9647  1.9959 -2.4526
  646MOL0     H89120  12.348   0.824   9.082  0.2083  0.2343 -3.3670
  646MOL0     H89121  12.340   0.660   9.165  0.7249 -0.6604 -0.1088
  646MOL0     H89122  12.440   0.669   8.875  2.3187  0.6096  0.0213
  646MOL0     H89123  12.498   0.577   9.016  0.6328  0.8873  0.2211
  646MOL0     H89124  12.612   0.751   9.114 -3.3246  0.5664  1.3777
  646MOL0     H89125  12.561   0.871   8.989 -0.2681 -1.0433 -1.7223
  646MOL0     H89126  12.749   0.632   8.972  2.0479 -0.1720 -0.4482
  646MOL0     H89127  12.788   0.795   8.941  1.1585 -1.4793  2.6538
  646MOL0     H89128  11.920   0.981   8.786  0.6131  3.2664 -2.8317
  646MOL0     H89129  11.865   1.110   8.576  1.2390 -1.3161 -3.0005
  646MOL0     H89130  11.732   1.439   8.341  1.0110  0.8466 -2.4995
  646MOL0     H89131  11.723   1.544   8.118  0.4588 -0.0277  0.7573
  646MOL0     H89132  10.617   2.466   8.038  0.0837 -0.1605 -0.5197
  646MOL0     H89133  10.606   2.681   8.136  2.8122 -1.5917 -0.5446
  646MOL0     H89134  10.363   3.054   8.087 -0.9530 -0.7681  1.1343
  646MOL0     H89135  10.200   3.166   8.231  0.4128  0.3621 -0.5082
  646MOL0     H89136  10.346   3.248   8.662 -0.8184 -0.0329 -0.9347
  646MOL0     H89137  10.380   3.406   8.586 -0.8746  1.5817 -0.9133
  646MOL0     H89138  10.139   3.461   8.617 -0.9064  0.8961  2.2640
  646MOL0     H89139  10.224   3.405   8.773  1.6028 -2.2755  0.7135
  646MOL0     H89140  10.027   3.259   8.587  3.3381  0.0704 -1.6706
  646MOL0     H89141  10.109   3.197   8.734 -0.4647 -2.6150 -3.4204
  646MOL0     H89142   9.994   3.395   8.859 -1.7148  1.6631 -0.3550
  646MOL0     H89143   9.884   3.263   8.796 -2.6782  1.6592 -2.5998
  646MOL0     H89144   9.739   3.590   8.592  0.6564  0.7469  1.8841
  646MOL0     H89145  10.528   3.220   8.519  0.2396  2.2042  0.3052
  646MOL0     H89146  10.791   3.104   8.318  0.4670 -0.1380  0.7050
  646MOL0     H89147  10.741   3.148   8.486  4.2824 -1.2220 -0.0085
  646MOL0     H89148  10.735   2.989   8.439  3.0968  0.3859 -2.2950
  647MOL0     O89149   2.179   0.787   9.334  0.0147 -0.5321 -0.0028
  647MOL0     C89150   2.140   0.802   9.224 -0.1646  0.5364  0.1853
  647MOL0     O89151   2.201   0.771   9.102 -0.5281 -0.2351 -0.3780
  647MOL0     C89152   2.337   0.749   9.106 -0.4280 -0.1928  0.4050
  647MOL0     C89153   2.385   0.630   9.043 -0.2022  0.8015 -0.9468
  647MOL0     C89154   2.511   0.591   9.056 -0.6011 -0.6619 -0.2403
  647MOL0     C89155   2.600   0.672   9.132  0.0309 -0.4767  0.1566
  647MOL0     O89156   2.725   0.620   9.137  0.2336  0.4016  0.0169
  647MOL0     C89157   2.804   0.675   9.242  0.0194  0.6474  0.2299
  647MOL0     C89158   2.908   0.572   9.289  0.9106 -0.6828  0.3449
  647MOL0     C89159   2.845   0.449   9.346  0.0132  0.6705 -0.3856
  647MOL0     C89160   2.952   0.361   9.410  0.1208  0.0410 -0.2556
  647MOL0     C89161   3.026   0.431   9.524 -1.0626  0.7131 -0.4085
  647MOL0     C89162   3.092   0.343   9.626  0.5271  0.1697 -0.4584
  647MOL0     C89163   3.180   0.229   9.561  0.6026  0.0328 -0.3192
  647MOL0     C89164   3.260   0.150   9.662 -0.0236 -0.2545  0.2128
  647MOL0     N89165   3.187   0.093   9.772 -0.2443  0.7387  0.8094
  647MOL0     C89166   3.152   0.153   9.888 -0.8924 -0.0075  0.8290
  647MOL0     C89167   3.076   0.069   9.960 -0.3001  0.0956 -0.2420
  647MOL0     C89168   3.003   0.087  10.090 -0.1368  0.3466  0.3397
  647MOL0     C89169   2.870   0.157  10.079  0.4806  0.1800 -0.1032
  647MOL0     C89170   2.762   0.058  10.026  0.5350  0.9103  0.2078
  647MOL0     C89171   2.628   0.133  10.010 -1.0408  0.2614 -0.1449
  647MOL0     O89172   2.639   0.222   9.902 -0.4044  0.4654  0.0679
  647MOL0     C89173   2.669   0.356   9.912 -0.4448 -0.0890  1.2661
  647MOL0     C89174   2.642   0.439   9.801  0.3902 -0.7881  0.1100
  647MOL0     C89175   2.660   0.578   9.795 -0.0254  0.3875  0.3324
  647MOL0     C89176   2.649   0.649   9.664 -0.0347  0.5723 -0.4539
  647MOL0     C89177   2.695   0.646   9.913 -0.5159 -0.8560 -1.3819
  647MOL0     C89178   2.705   0.793   9.922  0.0112 -0.1695  0.1324
  647MOL0     O89179   2.714   0.841  10.051 -0.0108 -0.3761 -0.1802
  647MOL0     C89180   2.739   0.972  10.089 -0.1882  0.3575 -0.0706
  647MOL0     C89181   2.776   0.983  10.221 -0.2816  0.7054 -0.0254
  647MOL0     C89182   2.786   1.105  10.288  0.5641 -0.0149 -0.0727
  647MOL0     C89183   2.802   1.217  10.212  0.5288 -0.0323 -0.1318
  647MOL0     O89184   2.841   1.330  10.273 -0.0024  0.5503 -0.4892
  647MOL0     C89185   2.868   1.447  10.200  0.3579  0.3335  0.8258
  647MOL0     C89186   2.743   1.531  10.158 -0.5456 -0.2821 -0.2942
  647MOL0     C89187   2.714   1.642  10.265  0.1450  0.1153  0.0037
  647MOL0     C89188   2.574   1.709  10.240 -0.3769  0.0459  0.1636
  647MOL0     C89189   2.514   1.772  10.365  0.1077 -0.3543  0.8288
  647MOL0     C89190   2.379   1.840  10.342 -0.0240 -0.0476 -0.1641
  647MOL0     C89191   2.407   1.978  10.280 -0.3351  0.6168 -0.2061
  647MOL0     C89192   2.301   2.026  10.180  0.1030  0.6442 -0.2063
  647MOL0    Cl89193   2.345   2.178  10.082 -0.5901 -0.2492 -0.1669
  647MOL0     C89194   2.771   1.209  10.073 -0.0282  0.1094  0.1505
  647MOL0     C89195   2.736   1.090  10.010  0.4921  0.1071  0.1006
  647MOL0     O89196   2.683   0.870   9.826  0.1341 -0.0782 -0.5647
  647MOL0     C89197   2.721   0.565  10.031 -0.1252  0.2475  0.4977
  647MOL0     C89198   2.713   0.424  10.026  0.1140 -0.1730  0.6978
  647MOL0     N89199   3.056  -0.047   9.883 -0.4626  0.0317  0.2542
  647MOL0     N89200   3.124  -0.030   9.775 -0.3783  0.2379  0.0898
  647MOL0     C89201   2.559   0.797   9.186 -0.1571  0.0727 -0.1992
  647MOL0     C89202   2.420   0.836   9.176 -0.8632 -0.1436 -0.0441
  647MOL0     C89203   2.010   0.874   9.198 -0.5792 -0.4310 -0.2892
  647MOL0     C89204   1.956   0.874   9.064  0.2141  0.6468 -0.0667
  647MOL0     C89205   1.834   0.930   9.018 -0.3687 -0.3198 -0.2409
  647MOL0     C89206   1.760   0.995   9.114  0.6751  0.4936 -0.2705
  647MOL0     O89207   1.652   1.075   9.092  0.1896 -0.4343  0.2695
  647MOL0     C89208   1.559   1.032   8.991 -0.7680  0.0375  0.3931
  647MOL0     C89209   1.437   1.127   8.986  0.0805 -0.3608 -0.2363
  647MOL0     C89210   1.361   1.141   9.116 -0.0934 -0.2493 -0.8927
  647MOL0     C89211   1.256   1.246   9.102  0.7202  0.8363 -0.9896
  647MOL0     C89212   1.208   1.280   9.236  0.4946  0.1512  0.3482
  647MOL0     C89213   1.184   1.301   9.352 -0.7827 -0.5705 -0.8407
  647MOL0     C89214   1.810   1.007   9.247 -0.8181  0.5600  0.7787
  647MOL0     C89215   1.926   0.942   9.290 -0.1303 -0.1334 -1.1177
  647MOL0     C89216   1.971   0.959   9.438 -0.3693 -0.7270 -1.5650
  647MOL0     H89217   2.310   0.577   8.986 -0.9242  0.3031  0.4181
  647MOL0     H89218   2.538   0.495   9.015 -2.6824 -1.0153 -0.8681
  647MOL0     H89219   2.745   0.711   9.327 -0.6129 -1.5569  0.7825
  647MOL0     H89220   2.846   0.771   9.209  0.4384  0.5710  0.5211
  647MOL0     H89221   2.976   0.544   9.207  0.6694  2.4220 -1.0534
  647MOL0     H89222   2.970   0.616   9.368 -1.4359 -2.6171  3.4866
  647MOL0     H89223   2.761   0.471   9.413 -1.1894 -0.1515 -1.5529
  647MOL0     H89224   2.803   0.400   9.258  0.0991  0.9943 -0.6084
  647MOL0     H89225   2.910   0.271   9.457  1.8326 -1.9195 -2.2806
  647MOL0     H89226   3.025   0.320   9.340 -1.2604 -2.5022 -0.3244
  647MOL0     H89227   2.960   0.496   9.583 -0.3786 -0.1800  1.4184
  647MOL0     H89228   3.102   0.503   9.492 -0.7571  1.3215  1.5205
  647MOL0     H89229   3.145   0.397   9.705 -1.3515 -1.0995  1.7986
  647MOL0     H89230   3.017   0.291   9.687  3.4385 -2.2149  1.3851
  647MOL0     H89231   3.245   0.279   9.488  0.8305  2.4801  1.4485
  647MOL0     H89232   3.113   0.159   9.510 -0.7137  1.8658 -1.2423
  647MOL0     H89233   3.305   0.068   9.605 -0.5157  0.1250 -0.7490
  647MOL0     H89234   3.326   0.221   9.712  0.6970  0.6818 -1.9587
  647MOL0     H89235   3.178   0.257   9.902  2.1081 -0.2610 -1.7926
  647MOL0     H89236   3.071   0.150  10.148  1.5510 -1.0581 -0.0115
  647MOL0     H89237   2.991  -0.011  10.137 -0.1828 -0.0120 -0.4124
  647MOL0     H89238   2.842   0.194  10.178  1.5538  0.2727  0.1791
  647MOL0     H89239   2.878   0.248  10.018 -3.7409  1.4247  0.9128
  647MOL0     H89240   2.803   0.012   9.936 -1.4435 -3.3166  1.1938
  647MOL0     H89241   2.749  -0.029  10.092 -0.8338  1.1806  0.3304
  647MOL0     H89242   2.544   0.067   9.987 -0.9676 -0.8071  2.2981
  647MOL0     H89243   2.602   0.189  10.100  1.5370 -0.9559  1.4917
  647MOL0     H89244   2.612   0.385   9.711  3.3251 -1.5554 -0.5269
  647MOL0     H89245   2.553   0.698   9.648  0.4207  1.2045 -1.3456
  647MOL0     H89246   2.655   0.577   9.581 -1.6378  0.9101 -0.8930
  647MOL0     H89247   2.730   0.722   9.649 -0.4106  1.6772  2.3592
  647MOL0     H89248   2.778   0.896  10.285  0.6280  0.5680 -0.2149
  647MOL0     H89249   2.808   1.105  10.394 -2.3042 -0.5370  0.6093
  647MOL0     H89250   2.942   1.501  10.260  3.5711 -2.8929  0.0912
  647MOL0     H89251   2.933   1.427  10.115  1.2835 -0.1549  1.6304
  647MOL0     H89252   2.767   1.584  10.066 -1.4539  1.0359  0.1959
  647MOL0     H89253   2.657   1.465  10.149 -2.7433  2.4923 -1.0701
  647MOL0     H89254   2.793   1.717  10.274 -2.5021  3.2765 -1.0911
  647MOL0     H89255   2.703   1.588  10.360 -0.7864 -2.4710 -1.4632
  647MOL0     H89256   2.505   1.627  10.216 -2.5440  1.7930  0.1013
  647MOL0     H89257   2.585   1.790  10.167  1.0569  1.3029  1.7025
  647MOL0     H89258   2.496   1.698  10.444  0.9389  1.5591  2.9161
  647MOL0     H89259   2.581   1.846  10.410 -0.6278  1.0951 -0.3625
  647MOL0     H89260   2.331   1.850  10.439  1.6149  1.3236  0.5661
  647MOL0     H89261   2.325   1.774  10.274  0.7770 -1.3490  0.4184
  647MOL0     H89262   2.504   1.970  10.229 -0.0236  2.0983  0.1122
  647MOL0     H89263   2.429   2.053  10.356  2.5560  1.8312 -2.0454
  647MOL0     H89264   2.216   2.044  10.246  0.5523 -0.2776  0.6693
  647MOL0     H89265   2.273   1.953  10.103  1.9266  1.1965 -1.4781
  647MOL0     H89266   2.768   1.301  10.015 -0.6094  2.5366  3.7052
  647MOL0     H89267   2.716   1.081   9.904  1.2734 -0.7215  0.0124
  647MOL0     H89268   2.739   0.611  10.128  2.6305 -0.8948  0.6207
  647MOL0     H89269   2.712   0.366  10.118 -2.1742 -2.8777 -0.9137
  647MOL0     H89270   2.625   0.872   9.229  1.7825 -1.3410 -0.5589
  647MOL0     H89271   2.391   0.936   9.204  2.5246  0.7378  0.6887
  647MOL0     H89272   2.007   0.836   8.976  1.8209  1.5661  0.4373
  647MOL0     H89273   1.820   0.943   8.911  1.7880  2.2494 -0.3166
  647MOL0     H89274   1.610   1.034   8.894 -0.2065 -0.9322  0.6583
  647MOL0     H89275   1.522   0.931   9.006  2.1948 -1.1135  0.6413
  647MOL0     H89276   1.374   1.072   8.915 -0.3630  0.4707 -0.4945
  647MOL0     H89277   1.454   1.222   8.934 -2.2837 -0.4286 -1.2223
  647MOL0     H89278   1.321   1.044   9.149  1.5949  0.1415  2.7661
  647MOL0     H89279   1.432   1.161   9.197 -0.9247  0.5965 -0.3452
  647MOL0     H89280   1.168   1.204   9.051 -0.1859 -2.0876  2.5763
  647MOL0     H89281   1.292   1.332   9.046 -2.1180  0.6189 -3.4547
  647MOL0     H89282   1.159   1.316   9.455 -2.3565  1.1503 -1.4273
  647MOL0     H89283   1.751   1.060   9.321 -2.2289  0.0300  0.0952
  647MOL0     H89284   2.070   1.004   9.426  0.8065 -2.4445  0.8705
  647MOL0     H89285   1.908   1.030   9.493 -0.1264 -1.2828 -0.5513
  647MOL0     H89286   1.976   0.863   9.491 -0.2762 -0.0434 -0.2902
  648MOL0     O89287   2.841   7.263  10.761  1.2592  0.2257 -0.3767
  648MOL0     C89288   2.797   7.229  10.872 -0.3919 -0.6940  0.4328
  648MOL0     O89289   2.872   7.243  10.991 -0.2821 -0.3532 -0.1591
  648MOL0     C89290   3.011   7.276  10.966  0.8528 -0.2340  0.2850
  648MOL0     C89291   3.045   7.411  10.956 -0.3816  0.2023 -0.2778
  648MOL0     C89292   3.178   7.446  10.942  0.7941  0.2977  0.0727
  648MOL0     C89293   3.270   7.346  10.938 -0.1162  0.8691 -0.9423
  648MOL0     O89294   3.410   7.365  10.945 -0.2823  0.1780  0.0722
  648MOL0     C89295   3.469   7.494  10.936  0.4441 -0.3863 -0.4996
  648MOL0     C89296   3.599   7.511  11.006  0.2397  0.2095 -0.2502
  648MOL0     C89297   3.701   7.410  10.959 -0.1352 -0.0412 -0.1799
  648MOL0     C89298   3.842   7.456  10.999  0.4516 -0.5407 -0.4068
  648MOL0     C89299   3.953   7.380  10.937 -0.0302  0.3255  0.3524
  648MOL0     C89300   3.972   7.240  10.980  0.2562 -0.4369  0.5684
  648MOL0     C89301   4.116   7.186  10.946  0.4913 -0.2866  0.8857
  648MOL0     C89302   4.178   7.087  11.044  0.5736  0.0328  0.2225
  648MOL0     N89303   4.105   6.960  11.049 -0.2488 -0.0308 -0.6729
  648MOL0     C89304   4.090   6.869  10.953 -0.9642  0.7606 -0.3059
  648MOL0     C89305   4.014   6.773  11.023  0.2417 -0.3595  0.5620
  648MOL0     C89306   3.951   6.650  10.965  0.4646 -0.0774  0.1029
  648MOL0     C89307   3.802   6.683  10.935  0.6097 -0.8029 -0.2372
  648MOL0     C89308   3.734   6.555  10.871  0.1562 -0.7956 -1.0157
  648MOL0     C89309   3.690   6.454  10.972 -0.1656  0.2022 -0.1929
  648MOL0     O89310   3.544   6.454  10.985 -0.0597 -0.4063  0.6316
  648MOL0     C89311   3.475   6.361  11.055  0.2184 -0.1960 -0.4521
  648MOL0     C89312   3.338   6.374  11.058  0.1973  0.1221 -0.1430
  648MOL0     C89313   3.262   6.281  11.127 -0.8631 -1.0340  0.1860
  648MOL0     C89314   3.105   6.299  11.102 -0.0490 -0.5409  0.0322
  648MOL0     C89315   3.324   6.201  11.219  0.0444  0.7031 -0.3045
  648MOL0     C89316   3.250   6.112  11.307  0.5860  0.1109  0.8556
  648MOL0     O89317   3.117   6.137  11.349  0.1167  0.0730  0.1420
  648MOL0     C89318   3.039   6.031  11.381  0.0710 -0.0988  0.6968
  648MOL0     C89319   2.933   6.006  11.290 -0.1508  0.3560  0.9559
  648MOL0     C89320   2.849   5.900  11.316 -0.4304 -0.6253 -0.9974
  648MOL0     C89321   2.859   5.832  11.437 -0.2652  0.4732  0.6824
  648MOL0     O89322   2.763   5.737  11.458  0.2829 -0.4922  0.6979
  648MOL0     C89323   2.771   5.647  11.573 -0.5167 -0.2875  0.7414
  648MOL0     C89324   2.656   5.552  11.553 -1.1071  0.2755 -0.2750
  648MOL0     C89325   2.515   5.594  11.592  0.4821 -0.6062 -0.1038
  648MOL0     C89326   2.457   5.714  11.515 -0.2846  0.4071 -0.1981
  648MOL0     C89327   2.303   5.733  11.540 -0.6332  1.1618  0.3738
  648MOL0     C89328   2.200   5.643  11.467 -0.8259  0.2806  0.2080
  648MOL0     C89329   2.056   5.663  11.518  0.1051 -0.0456  0.7033
  648MOL0     C89330   2.009   5.806  11.495 -0.3413  0.8188 -0.2622
  648MOL0    Cl89331   2.025   5.857  11.331 -0.2701 -0.1684 -0.1859
  648MOL0     C89332   2.972   5.858  11.519  1.0184  0.1992 -0.7003
  648MOL0     C89333   3.062   5.955  11.497  0.0302  0.3750 -0.7767
  648MOL0     O89334   3.312   6.009  11.334  0.2757  0.5356 -0.6655
  648MOL0     C89335   3.470   6.186  11.214  0.5155  0.4668 -0.1853
  648MOL0     C89336   3.540   6.256  11.124  0.3018 -0.3591 -0.0677
  648MOL0     N89337   3.978   6.814  11.150 -0.4589 -0.4496  0.2002
  648MOL0     N89338   4.039   6.928  11.163  0.5076  0.3914 -0.2824
  648MOL0     C89339   3.239   7.210  10.951 -0.6198 -0.0668  0.2123
  648MOL0     C89340   3.110   7.177  10.963 -0.2761  0.3796 -0.2456
  648MOL0     C89341   2.658   7.179  10.875  2.5023 -0.5043 -0.1566
  648MOL0     C89342   2.633   7.086  10.979  0.1742 -0.7562  0.1018
  648MOL0     C89343   2.510   7.019  10.991  0.4607 -0.4071 -0.0685
  648MOL0     C89344   2.404   7.059  10.910  0.0684  0.1931  0.7396
  648MOL0     O89345   2.281   7.015  10.935 -0.2935  0.1509  0.3212
  648MOL0     C89346   2.246   6.895  11.014 -0.1130 -1.4106  0.4665
  648MOL0     C89347   2.099   6.863  11.002  0.3892  0.0199 -0.4059
  648MOL0     C89348   2.070   6.813  10.858  0.0100  0.2137  0.4828
  648MOL0     C89349   2.117   6.670  10.828 -0.6411 -0.3380 -0.7724
  648MOL0     C89350   2.070   6.616  10.701 -0.9557 -0.3627  0.5256
  648MOL0     C89351   2.021   6.579  10.597  0.5320 -0.8753 -0.2983
  648MOL0     C89352   2.426   7.163  10.815  0.2611 -0.1657 -0.4913
  648MOL0     C89353   2.548   7.214  10.791  0.1413 -0.7810  0.6649
  648MOL0     C89354   2.559   7.315  10.683  0.1208  0.4834 -0.0106
  648MOL0     H89355   2.968   7.487  10.959 -0.1896  0.5608 -2.3827
  648MOL0     H89356   3.206   7.550  10.930 -0.8678  0.8108  0.3818
  648MOL0     H89357   3.409   7.572  10.983 -0.3387 -1.6089  0.6133
  648MOL0     H89358   3.472   7.521  10.830  0.3863 -0.8320 -0.6169
  648MOL0     H89359   3.635   7.609  10.974  0.1034  0.1799 -0.4933
  648MOL0     H89360   3.585   7.502  11.114  0.1396  1.2058 -0.1766
  648MOL0     H89361   3.686   7.310  10.999  1.8688 -0.5532 -0.6120
  648MOL0     H89362   3.700   7.398  10.850 -0.2035 -2.0577  0.0082
  648MOL0     H89363   3.851   7.558  10.963  0.2904  0.3758  1.9584
  648MOL0     H89364   3.862   7.466  11.106  0.6916  0.6461 -0.5569
  648MOL0     H89365   4.039   7.444  10.958  1.2889 -0.8238 -1.3315
  648MOL0     H89366   3.947   7.377  10.828  0.2391 -4.0508  0.2864
  648MOL0     H89367   3.961   7.246  11.089  0.4340 -1.9558  0.6937
  648MOL0     H89368   3.899   7.170  10.938 -2.3902  1.9522  0.8266
  648MOL0     H89369   4.181   7.273  10.940 -0.5575  0.5089  0.6544
  648MOL0     H89370   4.116   7.129  10.853 -1.4315 -1.0621  1.2986
  648MOL0     H89371   4.283   7.081  11.013  1.4162  1.8254  2.4102
  648MOL0     H89372   4.183   7.129  11.145  2.5377  2.5401 -0.7960
  648MOL0     H89373   4.128   6.868  10.851  0.4804  0.0298  0.2252
  648MOL0     H89374   3.945   6.565  11.033  0.0304  0.9840  1.4507
  648MOL0     H89375   4.005   6.618  10.876 -0.5818 -3.9212  0.6618
  648MOL0     H89376   3.748   6.702  11.028  1.9888  2.5523  0.0096
  648MOL0     H89377   3.796   6.762  10.860 -0.3632 -3.6853 -3.4448
  648MOL0     H89378   3.659   6.591  10.800  1.9568  2.3380 -1.5188
  648MOL0     H89379   3.807   6.515  10.800 -0.3443 -0.1824 -1.8992
  648MOL0     H89380   3.714   6.352  10.941 -1.4425  0.0997 -0.8868
  648MOL0     H89381   3.740   6.473  11.067  0.7909  1.7670 -0.9603
  648MOL0     H89382   3.298   6.453  10.994  1.9465  1.5817  0.4593
  648MOL0     H89383   3.077   6.373  11.177 -0.0229 -0.2899 -0.2063
  648MOL0     H89384   3.036   6.214  11.109 -2.2322  0.7987 -2.8426
  648MOL0     H89385   3.094   6.357  11.010 -0.6606  4.5932  2.9473
  648MOL0     H89386   2.907   6.070  11.207  1.6195 -0.3556 -0.2115
  648MOL0     H89387   2.770   5.892  11.241 -2.4628 -0.3246  1.0188
  648MOL0     H89388   2.866   5.594  11.566  0.5385  1.4660  1.4493
  648MOL0     H89389   2.764   5.700  11.668  2.2484 -1.5524  1.7306
  648MOL0     H89390   2.655   5.514  11.451 -0.6541  0.1485 -0.2320
  648MOL0     H89391   2.682   5.460  11.605  0.6876  1.0698  0.3197
  648MOL0     H89392   2.527   5.625  11.697 -0.9494  4.7840 -1.1940
  648MOL0     H89393   2.448   5.508  11.583 -0.1877  0.0619 -1.8301
  648MOL0     H89394   2.478   5.706  11.408 -1.9166 -1.2601 -0.4528
  648MOL0     H89395   2.514   5.798  11.555  0.6512 -0.9496  1.4629
  648MOL0     H89396   2.294   5.709  11.647 -0.6457 -3.1080 -0.3828
  648MOL0     H89397   2.280   5.838  11.523 -1.5543  1.0108  0.6377
  648MOL0     H89398   2.224   5.538  11.483 -1.7176  0.0463  0.0639
  648MOL0     H89399   2.211   5.663  11.360  0.0564  2.1713  0.6110
  648MOL0     H89400   2.057   5.633  11.623  1.3497 -1.7443  0.2584
  648MOL0     H89401   1.993   5.594  11.460  2.5458 -0.3210 -1.8398
  648MOL0     H89402   2.074   5.876  11.547  1.1956 -1.2600  0.7750
  648MOL0     H89403   1.911   5.823  11.539  0.0451  0.7277  0.6656
  648MOL0     H89404   2.984   5.796  11.607 -0.0184  1.8695  0.6975
  648MOL0     H89405   3.156   5.973  11.549  0.1084 -0.9281 -0.4283
  648MOL0     H89406   3.515   6.118  11.285 -1.3946 -0.8764 -0.1662
  648MOL0     H89407   3.649   6.246  11.125  0.4095  0.6806 -0.1557
  648MOL0     H89408   3.322   7.140  10.953  0.1834  0.8174 -0.9636
  648MOL0     H89409   3.082   7.076  10.992 -3.2984  0.9779 -0.6779
  648MOL0     H89410   2.712   7.055  11.046 -1.3902 -0.4766  2.1696
  648MOL0     H89411   2.497   6.945  11.068 -1.0888  0.4283  0.5388
  648MOL0     H89412   2.312   6.812  10.990  3.5217  1.7359 -1.3650
  648MOL0     H89413   2.260   6.922  11.119 -2.1536  1.6971  0.0932
  648MOL0     H89414   2.043   6.956  11.015  1.4794  0.4967  1.2233
  648MOL0     H89415   2.065   6.795  11.081 -0.6533 -2.0105 -2.4714
  648MOL0     H89416   1.960   6.814  10.851 -0.0762  1.9534  1.6512
  648MOL0     H89417   2.109   6.882  10.783 -2.7232 -0.6879 -1.9820
  648MOL0     H89418   2.072   6.610  10.907  1.0351  2.8819  2.9503
  648MOL0     H89419   2.226   6.670  10.821 -0.7030  0.4438 -2.1695
  648MOL0     H89420   1.988   6.535  10.505  0.7705  1.6741 -1.6879
  648MOL0     H89421   2.340   7.187  10.754  1.0477 -0.1160 -1.6133
  648MOL0     H89422   2.605   7.268  10.595  1.4156 -2.9771  2.3079
  648MOL0     H89423   2.461   7.362  10.668  0.5078  0.8820 -1.4578
  648MOL0     H89424   2.626   7.400  10.695 -0.9434  2.1967 -4.2524
  649MOL0     O89425   5.352   9.919   7.939 -0.4290 -0.2838  0.5012
  649MOL0     C89426   5.313   9.890   7.827 -0.2671 -0.3954  0.5676
  649MOL0     O89427   5.393   9.848   7.723  0.5124  1.0919  1.1932
  649MOL0     C89428   5.532   9.849   7.742  0.7092  0.0617 -0.7724
  649MOL0     C89429   5.603   9.974   7.735  0.7628  0.1667  0.3983
  649MOL0     C89430   5.738   9.982   7.754  0.8006 -0.8215  1.4047
  649MOL0     C89431   5.811   9.864   7.786 -1.4172 -0.0270  0.8766
  649MOL0     O89432   5.946   9.878   7.799 -0.4088 -0.0644  1.0971
  649MOL0     C89433   6.036   9.765   7.797  0.4505 -0.5857 -0.3590
  649MOL0     C89434   6.173   9.818   7.760  0.1859 -0.8735  0.3862
  649MOL0     C89435   6.284   9.710   7.766  0.6908  0.2266  0.2866
  649MOL0     C89436   6.375   9.717   7.891 -0.2722 -0.7692  0.3552
  649MOL0     C89437   6.453   9.589   7.898 -0.0424  0.5691 -0.0559
  649MOL0     C89438   6.580   9.575   7.815  0.3635  0.8829  0.6529
  649MOL0     C89439   6.615   9.421   7.829  0.3186  0.1321 -0.4220
  649MOL0     C89440   6.753   9.384   7.794 -0.2791  0.4887 -0.2871
  649MOL0     N89441   6.784   9.242   7.810  0.8234  0.5774 -1.1236
  649MOL0     C89442   6.847   9.177   7.711  0.2269  0.2051  0.4605
  649MOL0     C89443   6.859   9.054   7.763  0.8987  0.3582  0.1923
  649MOL0     C89444   6.922   8.932   7.690  0.1620 -0.7632 -1.0069
  649MOL0     C89445   7.068   8.952   7.664 -0.3453 -0.6796  0.9956
  649MOL0     C89446   7.135   8.823   7.610 -0.4750  0.0387  0.4428
  649MOL0     C89447   7.187   8.734   7.726  0.3094 -0.1527 -0.2000
  649MOL0     O89448   7.272   8.630   7.674  0.7757 -0.1405  0.0668
  649MOL0     C89449   7.277   8.510   7.747  0.8501 -0.2000 -0.0390
  649MOL0     C89450   7.290   8.397   7.673 -0.0680 -0.3324  1.0875
  649MOL0     C89451   7.293   8.259   7.732 -1.0451 -0.3217  0.2649
  649MOL0     C89452   7.307   8.147   7.636 -0.3400  0.0160  0.1853
  649MOL0     C89453   7.282   8.251   7.878 -0.8570 -0.1989 -0.5638
  649MOL0     C89454   7.294   8.127   7.948  0.6150 -0.7770  0.5831
  649MOL0     O89455   7.239   8.129   8.077 -0.5752  0.3022  0.6948
  649MOL0     C89456   7.216   8.010   8.138 -0.3310  0.0230  0.6255
  649MOL0     C89457   7.090   8.001   8.192 -0.8411  0.2970 -0.3442
  649MOL0     C89458   7.064   7.904   8.284  0.0415  0.1458 -0.8006
  649MOL0     C89459   7.144   7.792   8.307  0.0415  0.3533 -0.4211
  649MOL0     O89460   7.116   7.678   8.387 -0.3341  0.3802 -0.5587
  649MOL0     C89461   6.983   7.662   8.450  0.4609  0.5757 -1.1931
  649MOL0     C89462   6.958   7.513   8.467  0.7140  0.1565  0.4166
  649MOL0     C89463   6.847   7.478   8.566 -0.1493  0.4703  0.0513
  649MOL0     C89464   6.713   7.540   8.530 -0.0842 -0.1153  0.1880
  649MOL0     C89465   6.604   7.498   8.625  0.3386  0.2179 -0.0614
  649MOL0     C89466   6.582   7.346   8.634 -0.0295 -0.7466  0.2350
  649MOL0     C89467   6.454   7.309   8.700 -0.8568  0.5949 -0.0215
  649MOL0     C89468   6.327   7.323   8.608 -0.9801 -0.1054  0.3530
  649MOL0    Cl89469   6.165   7.305   8.684 -0.3864 -0.2665 -0.4156
  649MOL0     C89470   7.278   7.810   8.248  1.0376 -0.2873 -0.1279
  649MOL0     C89471   7.315   7.914   8.172 -0.3137  0.4373 -0.2633
  649MOL0     O89472   7.364   8.042   7.902  0.4068  0.2082  0.1651
  649MOL0     C89473   7.276   8.369   7.953  0.7402 -0.2627 -0.1793
  649MOL0     C89474   7.267   8.495   7.887 -0.2841  0.5184  0.6585
  649MOL0     N89475   6.805   9.046   7.890  0.0930 -0.3225  0.1284
  649MOL0     N89476   6.775   9.165   7.922 -0.1186  0.2051 -0.6720
  649MOL0     C89477   5.737   9.744   7.798 -0.8264 -0.5802  0.7712
  649MOL0     C89478   5.601   9.738   7.780  0.7980 -0.3913  0.0618
  649MOL0     C89479   5.167   9.923   7.791 -0.4095 -0.6984  0.6028
  649MOL0     C89480   5.092   9.833   7.717  0.4020  0.5765 -1.0532
  649MOL0     C89481   4.959   9.851   7.687 -0.7796 -1.4333  0.6818
  649MOL0     C89482   4.890   9.968   7.718 -0.4672  0.1846  0.1975
  649MOL0     O89483   4.761   9.990   7.691 -0.1567  0.1129 -0.1518
  649MOL0     C89484   4.688   9.879   7.658  0.2707 -0.2351  0.1166
  649MOL0     C89485   4.544   9.931   7.630  0.1347 -0.4707 -0.1449
  649MOL0     C89486   4.493  10.024   7.746  0.8052  0.0975  0.8858
  649MOL0     C89487   4.348  10.054   7.713  0.0452 -0.4636  0.7265
  649MOL0     C89488   4.312  10.151   7.817  0.0439  0.1573  0.1637
  649MOL0     C89489   4.294  10.233   7.906  0.8825 -0.1925  0.0765
  649MOL0     C89490   4.964  10.067   7.792  0.1211 -0.2377 -0.0029
  649MOL0     C89491   5.098  10.042   7.838  0.8794  0.2675 -0.2147
  649MOL0     C89492   5.167  10.141   7.931  0.1902 -0.1517  0.1597
  649MOL0     H89493   5.555  10.068   7.709 -0.5259 -0.1289  1.5772
  649MOL0     H89494   5.800  10.071   7.749  1.3664 -1.2278  1.0646
  649MOL0     H89495   6.001   9.688   7.728  2.4639 -0.3145 -1.7727
  649MOL0     H89496   6.027   9.709   7.890 -1.4846 -3.5019 -2.1207
  649MOL0     H89497   6.162   9.869   7.664 -0.3896  2.4626  2.0768
  649MOL0     H89498   6.203   9.896   7.830  1.7725  0.3191 -1.5179
  649MOL0     H89499   6.232   9.614   7.764 -1.1256  1.1526 -0.4009
  649MOL0     H89500   6.342   9.717   7.674  1.2714 -0.7941  0.5592
  649MOL0     H89501   6.445   9.799   7.877 -1.1566  0.4028  2.4102
  649MOL0     H89502   6.318   9.721   7.984 -1.1101 -1.9861 -0.0750
  649MOL0     H89503   6.382   9.510   7.874 -0.7425  1.7268 -2.0148
  649MOL0     H89504   6.473   9.572   8.004  0.3383 -3.0863 -0.5918
  649MOL0     H89505   6.554   9.590   7.710 -0.5935  1.5697  0.9753
  649MOL0     H89506   6.660   9.643   7.845  2.4172 -1.3662  0.6765
  649MOL0     H89507   6.549   9.361   7.766  1.7108  0.7471 -2.6110
  649MOL0     H89508   6.585   9.379   7.925  0.8234  3.3850  1.3263
  649MOL0     H89509   6.758   9.397   7.685 -4.0015  0.2618 -0.5962
  649MOL0     H89510   6.823   9.449   7.847  1.0840 -2.1481  1.3350
  649MOL0     H89511   6.896   9.218   7.623  0.7851 -0.2600  0.5525
  649MOL0     H89512   6.866   8.908   7.599 -0.5277 -0.7550 -0.5931
  649MOL0     H89513   6.906   8.851   7.762  0.9401  0.8480  1.0563
  649MOL0     H89514   7.064   9.030   7.587 -0.2483 -1.8000 -0.1661
  649MOL0     H89515   7.119   8.988   7.755 -0.8126 -0.2949  1.1092
  649MOL0     H89516   7.077   8.766   7.537  1.1348 -0.6514 -0.3311
  649MOL0     H89517   7.224   8.858   7.557 -0.0956 -1.9906 -0.3552
  649MOL0     H89518   7.250   8.782   7.801 -1.2881  0.8443  0.5644
  649MOL0     H89519   7.104   8.689   7.783 -0.6810  0.0006 -1.4831
  649MOL0     H89520   7.306   8.391   7.566  0.2955 -2.2752  1.2038
  649MOL0     H89521   7.337   8.180   7.536  0.8643 -1.8685 -0.1329
  649MOL0     H89522   7.216   8.088   7.623  0.2633 -0.5250 -2.0928
  649MOL0     H89523   7.386   8.083   7.676  2.1667  2.5455 -0.3737
  649MOL0     H89524   7.022   8.081   8.163 -1.1887 -0.2579 -1.0694
  649MOL0     H89525   6.966   7.918   8.330 -0.3425  2.3913 -2.1579
  649MOL0     H89526   6.978   7.706   8.550  0.8343 -0.9070 -0.5011
  649MOL0     H89527   6.907   7.715   8.391 -2.0544  1.6280  2.6296
  649MOL0     H89528   6.928   7.479   8.367  1.0651 -1.2612  0.7693
  649MOL0     H89529   7.045   7.452   8.493 -1.4994 -3.1051  0.8496
  649MOL0     H89530   6.865   7.510   8.669  0.0929 -1.7311  0.7440
  649MOL0     H89531   6.834   7.369   8.571 -2.5925  0.7482  2.2005
  649MOL0     H89532   6.690   7.503   8.430  2.0442 -0.8991 -0.0613
  649MOL0     H89533   6.712   7.649   8.541 -0.7762 -0.2289  1.3945
  649MOL0     H89534   6.623   7.531   8.728  2.2458  0.1899 -0.3559
  649MOL0     H89535   6.508   7.539   8.594  1.3264  0.8794 -2.4449
  649MOL0     H89536   6.658   7.305   8.701  0.4247  0.9545  0.7942
  649MOL0     H89537   6.584   7.295   8.537 -0.1208 -0.6197  0.1649
  649MOL0     H89538   6.426   7.348   8.798  0.6164  0.6305  0.3980
  649MOL0     H89539   6.453   7.206   8.734 -0.7593  1.4589  2.8424
  649MOL0     H89540   6.341   7.257   8.522  0.2034  1.3846 -0.6644
  649MOL0     H89541   6.320   7.426   8.571  0.8617 -1.3032 -4.0751
  649MOL0     H89542   7.344   7.727   8.272 -1.1620 -1.9403  0.5180
  649MOL0     H89543   7.413   7.936   8.132 -0.7157  1.3814 -0.7745
  649MOL0     H89544   7.270   8.364   8.062 -1.5024 -0.3228 -0.2647
  649MOL0     H89545   7.262   8.583   7.951  2.0191 -0.1729  1.8677
  649MOL0     H89546   5.787   9.651   7.820 -2.9121 -2.3082 -1.2757
  649MOL0     H89547   5.546   9.644   7.781  0.9954 -0.5157  1.2258
  649MOL0     H89548   5.137   9.745   7.670 -0.2795 -0.1692 -0.3404
  649MOL0     H89549   4.908   9.769   7.638 -1.3584 -1.3357  1.1006
  649MOL0     H89550   4.724   9.830   7.567  1.6293 -1.6773  1.3747
  649MOL0     H89551   4.680   9.810   7.742  0.5781 -1.0888 -0.5333
  649MOL0     H89552   4.471   9.851   7.615  0.6682 -0.6586 -1.9658
  649MOL0     H89553   4.548   9.979   7.532  3.1014 -2.2281 -0.9992
  649MOL0     H89554   4.486   9.966   7.838  0.2883  0.4222  1.0554
  649MOL0     H89555   4.562  10.107   7.760 -0.6207  1.3520  0.6967
  649MOL0     H89556   4.278   9.970   7.708  0.7211 -1.0204  0.5187
  649MOL0     H89557   4.349  10.106   7.617 -0.3767 -1.2209  0.3043
  649MOL0     H89558   4.271  10.300   7.987 -1.7176 -0.1006 -0.6506
  649MOL0     H89559   4.902  10.157   7.797 -3.6419 -2.1720 -4.3938
  649MOL0     H89560   5.093  10.216   7.963 -1.9276 -2.2150  0.3117
  649MOL0     H89561   5.195  10.110   8.032  0.4190 -2.0442 -0.4516
  649MOL0     H89562   5.252  10.184   7.876 -0.5815 -0.5535 -1.3857
  650MOL0     O89563   6.170   4.020   6.655  0.2011  0.5861 -0.8102
  650MOL0     C89564   6.148   4.067   6.541  0.6334 -1.4602 -0.1138
  650MOL0     O89565   6.224   4.039   6.434 -0.1127  0.9991 -0.1656
  650MOL0     C89566   6.348   3.981   6.456 -0.2689 -1.1274 -0.6286
  650MOL0     C89567   6.453   4.047   6.517 -0.2184  0.5746 -1.1485
  650MOL0     C89568   6.582   3.978   6.519 -0.2780 -1.4632 -0.8822
  650MOL0     C89569   6.600   3.848   6.471 -0.1378  0.2143  0.5837
  650MOL0     O89570   6.728   3.792   6.489 -0.4560 -0.1257  1.4257
  650MOL0     C89571   6.775   3.681   6.427 -0.1568  0.3125  0.4352
  650MOL0     C89572   6.928   3.676   6.404 -0.1875 -0.3805  0.6312
  650MOL0     C89573   6.973   3.792   6.317  0.1715  0.5446  0.1404
  650MOL0     C89574   7.123   3.794   6.319 -0.8926 -0.4655  0.3195
  650MOL0     C89575   7.190   3.895   6.221 -0.0037 -0.0530 -0.1289
  650MOL0     C89576   7.338   3.908   6.251  0.7185  0.8410 -0.5991
  650MOL0     C89577   7.401   4.019   6.167 -0.4548  0.7330  0.7570
  650MOL0     C89578   7.557   4.024   6.191 -0.2011  0.0577 -0.2144
  650MOL0     N89579   7.590   4.091   6.326 -0.3191  0.2003  0.2958
  650MOL0     C89580   7.560   4.220   6.368 -0.9563 -0.2943  0.0839
  650MOL0     C89581   7.574   4.221   6.496 -0.3368 -0.5043 -0.4967
  650MOL0     C89582   7.545   4.341   6.585 -0.2409  0.4779 -0.0938
  650MOL0     C89583   7.405   4.329   6.652 -0.8860 -0.1330  0.9991
  650MOL0     C89584   7.380   4.453   6.731  0.9473 -0.0839 -0.7987
  650MOL0     C89585   7.305   4.561   6.651  0.1362 -0.5571  0.4343
  650MOL0     O89586   7.366   4.597   6.526  0.5862  0.0429  0.6037
  650MOL0     C89587   7.473   4.694   6.527  0.0082  0.2832  0.7892
  650MOL0     C89588   7.535   4.721   6.403 -0.3038  0.5592 -0.3141
  650MOL0     C89589   7.637   4.814   6.392 -0.8004 -0.5221  0.6631
  650MOL0     C89590   7.688   4.827   6.252  0.0810  0.3364 -0.1594
  650MOL0     C89591   7.685   4.892   6.497  0.3503 -0.1539 -0.4318
  650MOL0     C89592   7.779   5.011   6.493 -0.1440 -0.5793 -0.6439
  650MOL0     O89593   7.801   5.077   6.614 -0.1156  0.3287  0.6284
  650MOL0     C89594   7.896   5.167   6.623 -0.3527 -1.3731  1.0402
  650MOL0     C89595   7.959   5.172   6.740  0.0808 -0.6220  0.8345
  650MOL0     C89596   8.070   5.257   6.773  0.8036 -0.3851 -0.8620
  650MOL0     C89597   8.089   5.365   6.685 -0.8504 -0.3317  0.3736
  650MOL0     O89598   8.185   5.457   6.723  0.6481  0.2955 -0.5408
  650MOL0     C89599   8.281   5.502   6.631  0.2279 -0.1670  0.4006
  650MOL0     C89600   8.364   5.615   6.711  0.6882  0.0484  0.1411
  650MOL0     C89601   8.284   5.731   6.764  0.2074 -0.5383 -0.7773
  650MOL0     C89602   8.368   5.848   6.833 -0.0850 -0.2949 -0.4343
  650MOL0     C89603   8.273   5.947   6.910  0.2089 -1.2250 -0.1902
  650MOL0     C89604   8.222   5.894   7.045  0.8430 -0.0320  0.9864
  650MOL0     C89605   8.322   5.920   7.151 -0.5366  1.1988  0.8656
  650MOL0     C89606   8.264   5.868   7.281  0.1601 -0.1010  0.1699
  650MOL0    Cl89607   8.352   5.952   7.417 -0.3152  0.1711 -0.2788
  650MOL0     C89608   8.025   5.369   6.559 -0.3820 -0.3740 -0.4926
  650MOL0     C89609   7.930   5.275   6.527  0.1260  0.1886  0.8313
  650MOL0     O89610   7.840   5.031   6.387 -0.1562 -0.2641 -0.4146
  650MOL0     C89611   7.632   4.860   6.623  0.1935  0.3791 -0.9699
  650MOL0     C89612   7.525   4.763   6.634 -0.3670  0.3598 -0.5766
  650MOL0     N89613   7.609   4.093   6.537  0.0520  0.4250 -0.0815
  650MOL0     N89614   7.630   4.013   6.437  0.4366  0.1622 -0.1659
  650MOL0     C89615   6.484   3.783   6.419  0.3340 -0.1812  0.5332
  650MOL0     C89616   6.354   3.851   6.426  0.7914  1.2310 -0.2535
  650MOL0     C89617   6.022   4.146   6.515 -0.3643 -0.2743  0.0115
  650MOL0     C89618   5.925   4.138   6.610  0.3303 -0.8749 -0.5864
  650MOL0     C89619   5.799   4.192   6.584 -0.4497 -1.6233  0.0128
  650MOL0     C89620   5.782   4.288   6.483  0.2257 -0.4399 -0.8679
  650MOL0     O89621   5.663   4.352   6.506 -0.3203  0.1814  1.2988
  650MOL0     C89622   5.629   4.462   6.418  0.2918  0.1473  1.0044
  650MOL0     C89623   5.486   4.501   6.455 -0.4544  0.1734 -0.1828
  650MOL0     C89624   5.441   4.619   6.380  0.4658  0.2913  0.0236
  650MOL0     C89625   5.286   4.642   6.380 -0.3864 -0.4259  0.5359
  650MOL0     C89626   5.259   4.739   6.279 -1.4086 -0.7508  0.4991
  650MOL0     C89627   5.238   4.829   6.204  0.4508 -0.0318  1.1838
  650MOL0     C89628   5.890   4.310   6.395  0.6972 -0.1515 -0.0325
  650MOL0     C89629   6.005   4.231   6.399 -0.5832 -0.3089  0.3783
  650MOL0     C89630   6.103   4.246   6.285  0.1808  1.0924  0.0294
  650MOL0     H89631   6.455   4.149   6.552 -0.7572  0.4480 -0.7399
  650MOL0     H89632   6.664   4.033   6.563 -1.2059 -1.0671  0.4085
  650MOL0     H89633   6.737   3.670   6.325  4.4542  3.1239 -1.9481
  650MOL0     H89634   6.745   3.593   6.485 -2.0463  0.6688  0.0593
  650MOL0     H89635   6.977   3.680   6.502  0.0873  0.0565  0.4797
  650MOL0     H89636   6.954   3.584   6.351  0.5323  0.3709 -0.3388
  650MOL0     H89637   6.944   3.754   6.218  1.6380 -2.6593  0.8002
  650MOL0     H89638   6.926   3.886   6.345 -1.7312 -0.8697  1.9990
  650MOL0     H89639   7.158   3.826   6.418 -2.7112 -3.0581  1.9353
  650MOL0     H89640   7.159   3.692   6.306 -0.4212 -0.2498 -0.1060
  650MOL0     H89641   7.145   3.994   6.237 -0.7540 -0.5159  0.6879
  650MOL0     H89642   7.171   3.863   6.118 -0.1296 -0.2151 -0.0556
  650MOL0     H89643   7.340   3.928   6.359 -0.2246  2.1022 -0.7763
  650MOL0     H89644   7.389   3.814   6.232 -0.4257 -0.5024  2.2596
  650MOL0     H89645   7.360   4.120   6.178 -1.0330  0.4564  1.2062
  650MOL0     H89646   7.384   3.981   6.066 -1.2506  0.5554  0.9521
  650MOL0     H89647   7.592   3.921   6.181  1.0403  0.4976 -0.5998
  650MOL0     H89648   7.600   4.089   6.115 -0.3727 -0.4388 -0.7448
  650MOL0     H89649   7.519   4.300   6.307  0.2781 -0.0992 -0.5192
  650MOL0     H89650   7.552   4.434   6.527 -0.2447  0.8081  0.4251
  650MOL0     H89651   7.621   4.360   6.662 -1.2059  0.5866  0.8516
  650MOL0     H89652   7.337   4.311   6.568 -1.6921 -0.4713  1.7178
  650MOL0     H89653   7.422   4.239   6.712 -1.2713 -0.2874  0.8837
  650MOL0     H89654   7.321   4.431   6.821  1.5116  2.9584  0.4199
  650MOL0     H89655   7.471   4.504   6.762 -0.1012  2.1720 -1.2019
  650MOL0     H89656   7.204   4.522   6.631  0.2850 -1.1807  0.8931
  650MOL0     H89657   7.292   4.644   6.721 -1.3808 -1.6109  1.4707
  650MOL0     H89658   7.490   4.668   6.319  3.0212 -0.7834 -1.3877
  650MOL0     H89659   7.793   4.798   6.248  0.2537  0.9571 -0.0857
  650MOL0     H89660   7.687   4.933   6.228  0.4133  0.3977  0.1070
  650MOL0     H89661   7.619   4.766   6.192 -2.0406 -1.3986  3.6404
  650MOL0     H89662   7.939   5.093   6.812 -1.3740  0.8689  2.1556
  650MOL0     H89663   8.142   5.243   6.853 -0.2821 -0.7235  0.0904
  650MOL0     H89664   8.354   5.428   6.598  0.2125 -1.0661  2.2211
  650MOL0     H89665   8.238   5.550   6.543 -0.0540  1.7090  1.5084
  650MOL0     H89666   8.414   5.571   6.798 -0.8926  0.1048  1.1140
  650MOL0     H89667   8.441   5.654   6.644 -0.4039  1.2706 -0.4494
  650MOL0     H89668   8.201   5.710   6.834  2.2851  1.1467  2.4489
  650MOL0     H89669   8.230   5.784   6.685  0.5513  1.7893  0.4516
  650MOL0     H89670   8.425   5.903   6.756  0.2597 -2.4327 -1.7988
  650MOL0     H89671   8.444   5.797   6.892  2.1157  1.4772 -1.5453
  650MOL0     H89672   8.320   6.045   6.924  0.2982 -1.2691 -0.1751
  650MOL0     H89673   8.188   5.973   6.846  0.0051 -2.5839 -0.4957
  650MOL0     H89674   8.185   5.793   7.028 -2.3048  0.9675  1.1966
  650MOL0     H89675   8.138   5.963   7.063  0.9815  0.2976  0.4055
  650MOL0     H89676   8.350   6.025   7.162 -2.1164  1.4116  3.8748
  650MOL0     H89677   8.404   5.850   7.128 -3.0763 -1.8555  0.3862
  650MOL0     H89678   8.263   5.759   7.279 -3.6673 -0.3279  2.9406
  650MOL0     H89679   8.156   5.886   7.285  0.3917  1.3122  0.4162
  650MOL0     H89680   8.044   5.457   6.498  0.1856 -0.7706 -0.9035
  650MOL0     H89681   7.882   5.273   6.430 -0.7523 -1.2003  1.2517
  650MOL0     H89682   7.676   4.910   6.709 -0.7758 -1.2437  0.5253
  650MOL0     H89683   7.487   4.751   6.735  0.2131 -1.7916 -0.5684
  650MOL0     H89684   6.492   3.682   6.380  1.2549 -0.5030  1.5201
  650MOL0     H89685   6.264   3.807   6.385  0.4444  2.8914 -1.3855
  650MOL0     H89686   5.948   4.085   6.701 -1.9179  0.2140  0.6989
  650MOL0     H89687   5.719   4.172   6.654 -2.0697 -0.6673 -1.4995
  650MOL0     H89688   5.693   4.548   6.441 -2.3968  2.5053  0.3032
  650MOL0     H89689   5.637   4.443   6.311 -2.2095  1.4207  0.5037
  650MOL0     H89690   5.496   4.533   6.559  0.0275  0.2645 -0.2535
  650MOL0     H89691   5.411   4.423   6.439  2.3811 -2.6189 -0.8439
  650MOL0     H89692   5.486   4.713   6.411 -1.1440 -0.1164  4.2253
  650MOL0     H89693   5.472   4.587   6.280 -2.8916 -1.3186 -0.6477
  650MOL0     H89694   5.249   4.668   6.480 -1.4126 -2.1054  0.6256
  650MOL0     H89695   5.233   4.553   6.345  1.7563 -1.2758 -0.7706
  650MOL0     H89696   5.221   4.916   6.145  2.3534  1.2031  2.3787
  650MOL0     H89697   5.872   4.395   6.331 -1.3011  1.0239  1.9944
  650MOL0     H89698   6.112   4.148   6.238  2.0775  1.7812 -1.1685
  650MOL0     H89699   6.076   4.307   6.198 -1.6002 -1.4579 -1.3238
  650MOL0     H89700   6.205   4.269   6.319  0.9774 -1.3501 -0.5212
  651MOL0     O89701   0.871   4.160   7.248 -0.1084  0.1845 -0.0290
  651MOL0     C89702   0.805   4.113   7.343 -0.3300 -0.3887  0.0419
  651MOL0     O89703   0.672   4.137   7.372 -0.2941  0.2080  1.1376
  651MOL0     C89704   0.598   4.168   7.260  0.3568 -0.7199 -0.0035
  651MOL0     C89705   0.566   4.305   7.230 -0.4675  0.2065  0.3099
  651MOL0     C89706   0.489   4.339   7.117  0.4536 -0.0846 -0.1990
  651MOL0     C89707   0.452   4.236   7.036  0.8295 -0.6719  1.4737
  651MOL0     O89708   0.390   4.257   6.911 -0.0852  0.2752 -0.1105
  651MOL0     C89709   0.253   4.219   6.890 -0.9512 -0.0109  0.4402
  651MOL0     C89710   0.153   4.339   6.902 -0.7394  0.0739  0.1744
  651MOL0     C89711   0.010   4.292   6.886  0.2680  0.4218 -0.1556
  651MOL0     C89712  -0.088   4.408   6.896 -0.9376 -0.5137 -0.3820
  651MOL0     C89713  -0.230   4.387   6.856  0.2582 -0.3136  0.1611
  651MOL0     C89714  -0.318   4.517   6.833  0.0614  0.0842  0.1405
  651MOL0     C89715  -0.360   4.584   6.970  0.0650 -0.0202  0.5455
  651MOL0     C89716  -0.398   4.734   6.955  0.1740 -0.0485 -0.2324
  651MOL0     N89717  -0.518   4.762   6.875 -0.7357  0.2245 -0.6655
  651MOL0     C89718  -0.644   4.711   6.907  0.4095 -0.7316 -0.2476
  651MOL0     C89719  -0.724   4.798   6.834  0.1552  0.2299  1.1708
  651MOL0     C89720  -0.872   4.804   6.848  0.7243  0.3090 -0.1883
  651MOL0     C89721  -0.944   4.771   6.725  0.8078 -0.0554  0.9296
  651MOL0     C89722  -1.020   4.892   6.669  0.0761  0.7652 -0.9544
  651MOL0     C89723  -0.912   4.993   6.619 -0.5928 -0.9830  0.0058
  651MOL0     O89724  -0.986   5.103   6.554  0.5623  0.3631  0.2678
  651MOL0     C89725  -1.019   5.210   6.628  0.1080 -0.3718  0.0900
  651MOL0     C89726  -1.151   5.251   6.651 -0.2540  0.4655  0.1797
  651MOL0     C89727  -1.181   5.339   6.761 -1.5739  0.3314 -0.1070
  651MOL0     C89728  -1.325   5.360   6.786  0.0248  1.1744 -0.5150
  651MOL0     C89729  -1.077   5.402   6.842  0.5214 -0.2824  0.4085
  651MOL0     C89730  -1.095   5.485   6.960 -0.4810 -0.1996  0.0347
  651MOL0     O89731  -0.983   5.471   7.041  0.1091  0.4624 -0.8070
  651MOL0     C89732  -0.974   5.567   7.140  0.2735  0.9340 -0.0544
  651MOL0     C89733  -0.963   5.526   7.273 -1.2403 -0.4259  0.9079
  651MOL0     C89734  -0.946   5.625   7.368 -0.1534 -0.4852 -0.2033
  651MOL0     C89735  -0.946   5.758   7.339  0.3113 -0.2778  0.0011
  651MOL0     O89736  -0.948   5.845   7.439  0.1997 -0.2592  0.4949
  651MOL0     C89737  -1.052   5.944   7.449  0.7209  0.4326  0.3207
  651MOL0     C89738  -1.185   5.879   7.427  0.8942 -0.1960 -0.9033
  651MOL0     C89739  -1.292   5.990   7.432 -0.4183 -0.6099 -0.2906
  651MOL0     C89740  -1.427   5.937   7.387  0.5536  0.2208  0.5919
  651MOL0     C89741  -1.520   6.046   7.338  0.7615 -0.4450 -0.6683
  651MOL0     C89742  -1.660   5.987   7.305  0.1252  0.0074 -0.2127
  651MOL0     C89743  -1.764   6.097   7.283  0.6729 -0.5952  0.2095
  651MOL0     C89744  -1.907   6.043   7.286  0.5783  0.4607 -0.8883
  651MOL0    Cl89745  -1.960   5.950   7.131 -0.0093 -0.2080 -0.1149
  651MOL0     C89746  -0.958   5.792   7.203  0.3137 -0.2346  1.0970
  651MOL0     C89747  -0.962   5.696   7.112  0.4512 -0.0591 -0.3597
  651MOL0     O89748  -1.189   5.555   6.978  0.6818 -0.4138 -0.3676
  651MOL0     C89749  -0.946   5.372   6.797  0.0953  0.1647 -0.3461
  651MOL0     C89750  -0.915   5.280   6.695  0.1257 -0.7757 -0.2882
  651MOL0     N89751  -0.646   4.893   6.771 -0.4239  1.0282  0.0253
  651MOL0     N89752  -0.517   4.867   6.800  0.0578  0.0203  0.5402
  651MOL0     C89753   0.481   4.103   7.069 -0.3637 -0.2493  0.1158
  651MOL0     C89754   0.552   4.068   7.179  0.2900  0.7932 -0.2903
  651MOL0     C89755   0.883   4.025   7.441 -0.0580  0.5417  0.4974
  651MOL0     C89756   0.809   3.964   7.535  0.4417  0.0804 -0.1934
  651MOL0     C89757   0.863   3.874   7.626 -0.3898 -0.3167  0.4679
  651MOL0     C89758   0.998   3.829   7.613 -0.2091  0.3783 -0.3496
  651MOL0     O89759   1.061   3.737   7.698 -0.4960  0.2356  0.3795
  651MOL0     C89760   0.998   3.684   7.822 -1.0170 -0.4480  0.1565
  651MOL0     C89761   0.914   3.558   7.795 -0.0507 -0.3708 -0.3104
  651MOL0     C89762   0.850   3.495   7.924 -0.0371 -0.5279  0.5716
  651MOL0     C89763   0.750   3.384   7.886 -0.3963 -0.4294  0.9769
  651MOL0     C89764   0.708   3.312   8.004  0.0031 -0.2400 -0.3599
  651MOL0     C89765   0.681   3.235   8.099  0.2778  0.5013  0.2529
  651MOL0     C89766   1.077   3.892   7.517 -0.0221 -0.0154  0.4404
  651MOL0     C89767   1.027   3.987   7.429 -0.3181 -1.2983  0.0529
  651MOL0     C89768   1.122   4.060   7.333 -0.5381  0.3137  0.1063
  651MOL0     H89769   0.608   4.381   7.296 -2.1066  4.0146 -2.6453
  651MOL0     H89770   0.457   4.441   7.098  0.7704  0.1380  0.4454
  651MOL0     H89771   0.225   4.137   6.957  1.7326 -2.1378 -0.8402
  651MOL0     H89772   0.237   4.180   6.789  0.0051 -0.4868  0.4527
  651MOL0     H89773   0.170   4.398   6.993 -0.8520 -1.9576  1.5796
  651MOL0     H89774   0.175   4.389   6.807 -0.0651 -1.4615 -0.5209
  651MOL0     H89775  -0.014   4.259   6.784  0.9839  1.0360 -0.5389
  651MOL0     H89776  -0.019   4.208   6.950  0.9693 -0.9503 -1.5676
  651MOL0     H89777  -0.083   4.468   6.988 -0.8457 -0.3631 -0.4839
  651MOL0     H89778  -0.055   4.479   6.819  1.2941 -1.3402 -0.2805
  651MOL0     H89779  -0.265   4.325   6.939  3.6547 -2.3351  0.2551
  651MOL0     H89780  -0.236   4.322   6.768 -0.7867 -1.6575  1.1883
  651MOL0     H89781  -0.273   4.594   6.770  1.4345 -0.8029 -0.0050
  651MOL0     H89782  -0.413   4.484   6.790  0.8627 -0.8545 -0.9631
  651MOL0     H89783  -0.289   4.574   7.052 -0.1016  0.9064  0.8137
  651MOL0     H89784  -0.453   4.531   6.995  0.7935 -0.9355  1.3816
  651MOL0     H89785  -0.424   4.781   7.051 -0.8736  2.1874 -1.5337
  651MOL0     H89786  -0.312   4.793   6.923  1.7932 -1.4563  1.2577
  651MOL0     H89787  -0.670   4.629   6.973  0.0073  1.4060  2.4094
  651MOL0     H89788  -0.897   4.905   6.879  0.2292  0.5471 -1.3178
  651MOL0     H89789  -0.899   4.725   6.919 -0.1848 -0.6393 -1.5283
  651MOL0     H89790  -0.885   4.731   6.642 -0.1477  3.3289 -1.5948
  651MOL0     H89791  -1.017   4.693   6.748 -1.1881 -0.5133 -5.1106
  651MOL0     H89792  -1.059   4.853   6.574  1.4846 -0.2964 -1.1366
  651MOL0     H89793  -1.101   4.933   6.729  1.1440 -2.1765  2.8949
  651MOL0     H89794  -0.860   5.034   6.706 -2.0377 -0.7971  0.8150
  651MOL0     H89795  -0.840   4.951   6.548  0.1255  2.0211 -1.2218
  651MOL0     H89796  -1.233   5.194   6.608  1.0865 -3.1339  1.9722
  651MOL0     H89797  -1.351   5.345   6.891 -1.5982 -2.9964 -1.3036
  651MOL0     H89798  -1.392   5.292   6.731 -0.8623  1.1003  0.6236
  651MOL0     H89799  -1.348   5.462   6.751 -2.3858  0.2277 -2.0102
  651MOL0     H89800  -0.973   5.421   7.298 -1.9679 -0.2633  1.3500
  651MOL0     H89801  -0.933   5.591   7.471 -1.2928  0.7109  0.3703
  651MOL0     H89802  -1.055   5.974   7.555 -0.0527  0.2832  0.3474
  651MOL0     H89803  -1.028   6.033   7.391  0.1293  0.9886  0.9143
  651MOL0     H89804  -1.192   5.832   7.329 -1.1438 -2.4913  0.2399
  651MOL0     H89805  -1.209   5.801   7.500  1.1420 -1.1634 -1.8422
  651MOL0     H89806  -1.245   6.073   7.379  0.6726 -0.2737  1.1188
  651MOL0     H89807  -1.302   6.023   7.536 -1.5651 -3.1854  0.4897
  651MOL0     H89808  -1.475   5.891   7.474 -0.5734 -1.6807 -0.9425
  651MOL0     H89809  -1.421   5.862   7.307  1.9886  1.4148 -0.4694
  651MOL0     H89810  -1.526   6.120   7.419  2.5841  0.7952 -1.5822
  651MOL0     H89811  -1.487   6.101   7.249  0.5015  2.1147  0.7090
  651MOL0     H89812  -1.692   5.923   7.388 -1.5865 -0.1467 -0.9586
  651MOL0     H89813  -1.645   5.928   7.214  0.2400 -1.2743  0.6005
  651MOL0     H89814  -1.756   6.141   7.183  0.8649 -1.2380 -0.0666
  651MOL0     H89815  -1.761   6.171   7.362  1.4202 -2.5900  2.1456
  651MOL0     H89816  -1.982   6.120   7.306 -2.2218 -2.8325  2.7795
  651MOL0     H89817  -1.925   5.992   7.381  0.5242  1.0737 -0.5635
  651MOL0     H89818  -0.950   5.895   7.170  1.0397 -0.6342 -0.0204
  651MOL0     H89819  -0.970   5.727   7.009  0.4485 -0.0672 -0.3621
  651MOL0     H89820  -0.862   5.430   6.835 -0.7648  2.1893 -1.4031
  651MOL0     H89821  -0.813   5.270   6.659 -0.4990 -0.6414 -2.2467
  651MOL0     H89822   0.429   4.029   7.009 -1.8051  1.2048 -0.5010
  651MOL0     H89823   0.570   3.965   7.208 -5.0506  0.3652  2.8459
  651MOL0     H89824   0.703   3.984   7.549  0.2739 -1.3588  0.9166
  651MOL0     H89825   0.802   3.814   7.692  0.7609 -2.1395 -0.0230
  651MOL0     H89826   1.070   3.665   7.903  0.4163  2.4919 -0.3134
  651MOL0     H89827   0.941   3.763   7.872  0.1213  1.2176 -1.0674
  651MOL0     H89828   0.980   3.491   7.741 -1.8987 -0.3102 -2.7985
  651MOL0     H89829   0.833   3.608   7.741  1.1583  0.4503 -1.4481
  651MOL0     H89830   0.928   3.456   7.990 -1.5884 -0.7537  2.3600
  651MOL0     H89831   0.797   3.570   7.984  0.7843 -1.4117  2.4933
  651MOL0     H89832   0.796   3.311   7.819 -0.1246  0.8496 -0.2732
  651MOL0     H89833   0.664   3.428   7.835  1.2754  1.8605 -0.0126
  651MOL0     H89834   0.675   3.164   8.179  2.8591 -1.4950 -1.1543
  651MOL0     H89835   1.183   3.873   7.506 -0.2366 -0.5268 -0.8480
  651MOL0     H89836   1.107   4.019   7.232  0.7359  0.7922 -0.2877
  651MOL0     H89837   1.100   4.167   7.338 -2.6838 -0.0974  0.4126
  651MOL0     H89838   1.227   4.046   7.360  0.1072 -0.1978 -2.3736
  652MOL0     O89839   5.957   5.962  11.159 -0.3088  0.2280  0.4440
  652MOL0     C89840   5.944   5.878  11.067 -0.0161  0.5073 -0.6164
  652MOL0     O89841   5.875   5.759  11.083  0.7462  1.3296  0.1052
  652MOL0     C89842   5.795   5.732  11.193  0.0724  0.3813 -0.5933
  652MOL0     C89843   5.726   5.818  11.267  0.2629 -0.1742 -0.4411
  652MOL0     C89844   5.644   5.760  11.371 -1.6025 -0.4985  0.0953
  652MOL0     C89845   5.640   5.626  11.398 -0.1986  0.8598  1.2788
  652MOL0     O89846   5.562   5.573  11.492 -0.5794 -0.0089  0.5428
  652MOL0     C89847   5.550   5.643  11.618 -0.8568 -0.9080  0.1547
  652MOL0     C89848   5.509   5.556  11.732  0.1721  0.3325  0.1979
  652MOL0     C89849   5.604   5.433  11.749 -0.2021 -0.6980  0.2020
  652MOL0     C89850   5.569   5.346  11.867  0.0210  0.3752  0.2265
  652MOL0     C89851   5.457   5.243  11.837 -0.5477 -0.1129  0.1276
  652MOL0     C89852   5.439   5.161  11.961 -0.2281  0.1596  0.5275
  652MOL0     C89853   5.335   5.045  11.931  0.3527 -0.4554  0.0742
  652MOL0     C89854   5.312   4.969  12.070 -0.2200  0.2070  0.3479
  652MOL0     N89855   5.210   4.866  12.055 -0.2241 -0.4769  0.9675
  652MOL0     C89856   5.219   4.747  11.996 -0.2119 -0.7608  0.0330
  652MOL0     C89857   5.120   4.670  12.053 -0.2461  0.7792  0.7469
  652MOL0     C89858   5.107   4.518  12.039  0.1914 -0.0327 -0.0168
  652MOL0     C89859   5.153   4.469  11.902  0.6162 -0.3536  0.1207
  652MOL0     C89860   5.143   4.315  11.914  0.4147 -0.1896  0.1027
  652MOL0     C89861   5.213   4.252  11.798  0.5934  0.1449  1.3315
  652MOL0     O89862   5.157   4.293  11.674 -0.0627 -0.5031 -0.2278
  652MOL0     C89863   5.239   4.259  11.565 -1.5694 -0.3173 -0.2683
  652MOL0     C89864   5.299   4.145  11.530 -0.0594  0.5653 -0.0314
  652MOL0     C89865   5.391   4.136  11.417 -0.3726  0.6164  1.4273
  652MOL0     C89866   5.444   3.995  11.372  0.4477  0.0727  0.3721
  652MOL0     C89867   5.416   4.256  11.342 -0.2813  0.0612  0.0100
  652MOL0     C89868   5.490   4.260  11.219 -0.5284 -0.0581  0.1996
  652MOL0     O89869   5.448   4.359  11.124 -0.2381 -0.6849 -0.0124
  652MOL0     C89870   5.507   4.394  11.008 -0.3744 -0.5968 -0.0569
  652MOL0     C89871   5.645   4.422  10.994  0.5339  0.2537  0.6600
  652MOL0     C89872   5.689   4.476  10.878 -0.1427 -0.1786  0.0378
  652MOL0     C89873   5.609   4.499  10.771  0.1174 -0.0422  0.0129
  652MOL0     O89874   5.663   4.527  10.651 -0.5605  0.4159  0.1218
  652MOL0     C89875   5.724   4.406  10.595 -0.0570  1.0385 -1.1724
  652MOL0     C89876   5.767   4.429  10.444 -0.2789 -0.1287  0.5999
  652MOL0     C89877   5.803   4.304  10.366  0.2655  0.5276  0.0381
  652MOL0     C89878   5.935   4.234  10.427 -0.6575 -0.7341 -0.0045
  652MOL0     C89879   6.061   4.310  10.461 -0.0370 -0.2866  0.5215
  652MOL0     C89880   6.130   4.364  10.335  0.3089  0.1782  0.2735
  652MOL0     C89881   6.257   4.448  10.360 -0.1241  0.4439 -1.0692
  652MOL0     C89882   6.334   4.417  10.487  0.5571 -1.1952 -0.2666
  652MOL0    Cl89883   6.475   4.526  10.487 -0.1082 -0.1431  0.4553
  652MOL0     C89884   5.476   4.454  10.776 -0.4315  1.4655  0.1495
  652MOL0     C89885   5.423   4.407  10.897 -0.3330 -0.9795 -0.2822
  652MOL0     O89886   5.591   4.191  11.202 -0.8056  0.1500  0.4455
  652MOL0     C89887   5.356   4.370  11.379 -0.1363  0.2766 -0.3962
  652MOL0     C89888   5.267   4.379  11.488 -0.5703 -0.0664 -0.0953
  652MOL0     N89889   5.046   4.746  12.138 -0.3182  0.7882  0.1322
  652MOL0     N89890   5.107   4.859  12.145  0.1108 -0.6439  0.5449
  652MOL0     C89891   5.699   5.539  11.311  0.5106  0.5122  0.3582
  652MOL0     C89892   5.773   5.590  11.202 -0.4740 -0.2994 -0.1036
  652MOL0     C89893   6.008   5.909  10.936 -0.5890 -0.4472  0.1731
  652MOL0     C89894   6.090   6.028  10.924  0.2323 -0.8005  0.1999
  652MOL0     C89895   6.148   6.072  10.805 -0.2272 -0.3408 -0.9874
  652MOL0     C89896   6.121   5.998  10.687  0.7683  0.2350  0.1396
  652MOL0     O89897   6.161   6.053  10.568 -0.4246 -0.4990  0.6644
  652MOL0     C89898   6.093   6.024  10.441 -0.3488  0.2775  0.0832
  652MOL0     C89899   5.940   5.997  10.439 -0.0604  0.1367 -0.1016
  652MOL0     C89900   5.869   6.116  10.508 -0.3413 -0.5983  0.1519
  652MOL0     C89901   5.720   6.102  10.522  0.3626  0.0275  0.4859
  652MOL0     C89902   5.673   5.989  10.611 -0.2146 -0.5064 -0.5399
  652MOL0     C89903   5.634   5.901  10.684 -0.4363  0.8298  0.8809
  652MOL0     C89904   6.074   5.869  10.706 -0.7212  0.0784 -0.0173
  652MOL0     C89905   6.013   5.832  10.819 -1.2002  0.4915  0.3520
  652MOL0     C89906   5.968   5.693  10.816 -0.0940  0.1607  0.0709
  652MOL0     H89907   5.718   5.919  11.229  0.4754 -0.8906 -2.4898
  652MOL0     H89908   5.582   5.830  11.426 -2.7302 -3.1952  2.5203
  652MOL0     H89909   5.485   5.730  11.612 -0.0576 -0.0814  2.4861
  652MOL0     H89910   5.652   5.680  11.635 -0.2056 -2.8782  0.8129
  652MOL0     H89911   5.514   5.624  11.818 -0.8387 -3.2010  3.3039
  652MOL0     H89912   5.408   5.521  11.708  0.5199  0.4380 -1.5405
  652MOL0     H89913   5.601   5.373  11.658  2.5767  0.6763 -0.9232
  652MOL0     H89914   5.709   5.461  11.756 -0.6507  1.2709 -0.2600
  652MOL0     H89915   5.666   5.296  11.879 -0.7404 -1.2335 -0.2033
  652MOL0     H89916   5.540   5.412  11.950  0.5895 -1.3318  1.8430
  652MOL0     H89917   5.474   5.186  11.745  0.5183  1.4452 -0.6797
  652MOL0     H89918   5.359   5.291  11.839 -0.8718 -0.7509 -0.0922
  652MOL0     H89919   5.533   5.110  11.985  0.1944 -0.7095 -2.5338
  652MOL0     H89920   5.408   5.223  12.045  3.1596  1.2934  1.0558
  652MOL0     H89921   5.373   4.974  11.857  1.6529 -1.0706  1.2881
  652MOL0     H89922   5.238   5.082  11.896  0.4158 -0.7716 -0.4487
  652MOL0     H89923   5.411   4.923  12.082 -0.2273  0.4991  1.6854
  652MOL0     H89924   5.297   5.025  12.163  3.4191 -0.2274  1.3652
  652MOL0     H89925   5.297   4.702  11.936 -1.9557 -3.8487 -0.1101
  652MOL0     H89926   5.008   4.480  12.068 -1.3585 -0.5521 -4.9992
  652MOL0     H89927   5.194   4.484  12.096  0.7028 -1.3935 -1.5086
  652MOL0     H89928   5.087   4.508  11.825  0.7706 -0.0399  0.1443
  652MOL0     H89929   5.246   4.515  11.867  0.8711 -2.5778 -2.4775
  652MOL0     H89930   5.186   4.276  12.007 -0.2707  2.3862  1.6071
  652MOL0     H89931   5.036   4.293  11.905 -0.0977  2.3116 -0.6354
  652MOL0     H89932   5.315   4.293  11.807  0.3700  0.6228  1.7735
  652MOL0     H89933   5.208   4.143  11.804  3.0784 -0.3095 -1.8160
  652MOL0     H89934   5.273   4.058  11.590  1.5622 -1.8570 -2.6000
  652MOL0     H89935   5.403   3.977  11.272  4.6779  1.5146 -1.8512
  652MOL0     H89936   5.408   3.912  11.434  0.4450 -1.0230 -1.0274
  652MOL0     H89937   5.553   4.001  11.365  0.4662 -0.5872  0.0241
  652MOL0     H89938   5.710   4.422  11.082  1.2195  2.3979  0.2159
  652MOL0     H89939   5.796   4.492  10.867 -0.2744 -0.5762 -2.4857
  652MOL0     H89940   5.800   4.360  10.660  0.0848 -1.8796 -3.1818
  652MOL0     H89941   5.645   4.330  10.602 -1.0387  2.1476  0.4640
  652MOL0     H89942   5.687   4.486  10.397 -0.0741 -1.5846 -1.6737
  652MOL0     H89943   5.853   4.496  10.432 -0.8817  0.3439 -1.2729
  652MOL0     H89944   5.825   4.324  10.260 -1.0977  1.9078 -0.0140
  652MOL0     H89945   5.725   4.227  10.371  0.2489  0.5715  0.4867
  652MOL0     H89946   5.970   4.154  10.361 -0.0620  1.0151 -1.9213
  652MOL0     H89947   5.896   4.192  10.521 -2.7992  0.3388 -0.3593
  652MOL0     H89948   6.036   4.394  10.527 -1.5677  3.4428 -4.2109
  652MOL0     H89949   6.128   4.244  10.516  1.6309  0.7627 -0.1850
  652MOL0     H89950   6.053   4.431  10.296 -3.0472 -2.3632  1.9115
  652MOL0     H89951   6.153   4.281  10.268 -2.3452  0.7006 -1.4404
  652MOL0     H89952   6.229   4.552  10.377  3.4112  1.0559  2.4451
  652MOL0     H89953   6.331   4.436  10.280  0.2279  0.1937 -0.7081
  652MOL0     H89954   6.373   4.315  10.477 -0.6428 -1.7190  0.2335
  652MOL0     H89955   6.277   4.426  10.579  0.6996 -0.3331 -0.2537
  652MOL0     H89956   5.402   4.468  10.698 -1.4306  1.0174  0.9896
  652MOL0     H89957   5.318   4.386  10.919 -0.2944  0.0257  0.9613
  652MOL0     H89958   5.369   4.461  11.321  1.5450 -0.0272 -0.5503
  652MOL0     H89959   5.238   4.474  11.530  0.0826  0.2240 -0.2896
  652MOL0     H89960   5.691   5.431  11.321  0.3608  0.6029  1.3099
  652MOL0     H89961   5.821   5.527  11.127 -1.6204 -2.7502  1.1264
  652MOL0     H89962   6.102   6.097  11.007  1.4392  0.4659 -0.9735
  652MOL0     H89963   6.180   6.174  10.784  3.1954 -1.2364 -0.6907
  652MOL0     H89964   6.115   6.112  10.380 -0.4338 -1.8885 -3.3704
  652MOL0     H89965   6.144   5.947  10.382  2.8825  2.0095  0.4169
  652MOL0     H89966   5.918   5.904  10.492 -1.1306 -0.0570 -0.8529
  652MOL0     H89967   5.913   5.979  10.335  0.4091  0.8996 -0.3589
  652MOL0     H89968   5.890   6.118  10.615 -2.5866  3.0184  0.7073
  652MOL0     H89969   5.886   6.208  10.452  0.3834 -2.1965 -2.4559
  652MOL0     H89970   5.675   6.091  10.423 -1.1607  1.6687  0.9388
  652MOL0     H89971   5.679   6.199  10.554 -1.2993  0.3920 -2.4550
  652MOL0     H89972   5.593   5.820  10.739  0.3793 -0.9375 -0.9807
  652MOL0     H89973   6.086   5.808  10.616 -1.0431 -0.8878  0.5817
  652MOL0     H89974   5.860   5.696  10.827 -0.0276  2.4997  0.6258
  652MOL0     H89975   6.007   5.631  10.734  1.3882 -2.0825  2.3036
  652MOL0     H89976   6.013   5.648  10.905  2.8529  3.5142  0.5033
  653MOL0     O89977   7.264   9.961   2.834 -0.1631 -0.0735  0.4176
  653MOL0     C89978   7.255  10.072   2.783  0.8299 -0.2083  0.5342
  653MOL0     O89979   7.144  10.154   2.771 -0.5771  0.8117 -1.0091
  653MOL0     C89980   7.024  10.116   2.825  0.1971  1.0530  0.0780
  653MOL0     C89981   7.007  10.046   2.950  0.3722 -0.3757 -0.2685
  653MOL0     C89982   6.884  10.024   2.996  1.2471 -0.1397 -1.0276
  653MOL0     C89983   6.769  10.077   2.927 -0.4179  0.5646 -0.4170
  653MOL0     O89984   6.636  10.051   2.965 -0.0308  0.1406 -0.1111
  653MOL0     C89985   6.596   9.922   3.018 -0.5987  0.2374 -0.2328
  653MOL0     C89986   6.447   9.919   3.028 -0.0062  0.4848 -0.3838
  653MOL0     C89987   6.373   9.901   2.892  0.3456 -0.2219  0.5490
  653MOL0     C89988   6.227   9.904   2.902  0.9780  0.5532  0.2681
  653MOL0     C89989   6.167   9.850   2.773  0.6114 -0.6079  0.0213
  653MOL0     C89990   6.160   9.698   2.787 -0.4156 -0.3446  0.6880
  653MOL0     C89991   6.129   9.633   2.658 -0.7541  0.1032  0.3938
  653MOL0     C89992   6.173   9.492   2.643  0.1624  0.8448  0.6082
  653MOL0     N89993   6.319   9.463   2.651  0.0347 -0.2613  1.0813
  653MOL0     C89994   6.402   9.519   2.559  0.1335  0.1828  0.6340
  653MOL0     C89995   6.523   9.473   2.590  0.0133  1.1070  0.0097
  653MOL0     C89996   6.643   9.501   2.506  0.3528  0.3705 -0.0192
  653MOL0     C89997   6.714   9.614   2.595  1.2279 -0.6173 -0.0548
  653MOL0     C89998   6.823   9.686   2.528 -0.8674  0.1906 -0.1236
  653MOL0     C89999   6.893   9.788   2.627 -0.5991  0.6126 -0.4333
  653MOL0     O90000   6.967   9.879   2.540 -0.3830  0.4705 -0.0733
  653MOL0     C90001   7.086   9.842   2.478 -0.1532  0.1370  0.9401
  653MOL0     C90002   7.147   9.916   2.376  0.1794  0.6677  0.1716
  653MOL0     C90003   7.274   9.883   2.320 -0.0818  0.2020 -0.4266
  653MOL0     C90004   7.337   9.978   2.224  0.3556  0.5773  0.4104
  653MOL0     C90005   7.347   9.767   2.359  0.5249  0.4364  0.1952
  653MOL0     C90006   7.464   9.705   2.285 -0.8788 -0.4124 -0.1290
  653MOL0     O90007   7.515   9.771   2.180 -0.3981 -0.0466 -0.4582
  653MOL0     C90008   7.638   9.719   2.135  1.1710  0.3638  0.2944
  653MOL0     C90009   7.652   9.625   2.036 -0.8572 -0.0439  0.0035
  653MOL0     C90010   7.780   9.581   1.996 -0.6991  0.0051  0.0772
  653MOL0     C90011   7.900   9.638   2.050  0.2035 -0.2141 -0.5070
  653MOL0     O90012   8.023   9.607   2.001 -0.0838 -0.8226  0.0466
  653MOL0     C90013   8.136   9.628   2.083  0.3762 -0.6993 -0.4023
  653MOL0     C90014   8.253   9.546   2.040  0.2666  0.9651 -0.6044
  653MOL0     C90015   8.382   9.575   2.134  0.5409  0.1023  0.3116
  653MOL0     C90016   8.505   9.492   2.075  1.2166 -0.3391  0.2658
  653MOL0     C90017   8.632   9.527   2.142 -0.2905 -0.2009  0.2941
  653MOL0     C90018   8.690   9.661   2.091  0.3718 -0.2359  0.0385
  653MOL0     C90019   8.827   9.695   2.159 -0.3505 -0.3534  0.4240
  653MOL0     C90020   8.893   9.824   2.132  0.6412 -0.0087  0.4316
  653MOL0    Cl90021   8.904   9.838   1.950 -0.3355  0.5779  0.4778
  653MOL0     C90022   7.884   9.742   2.144  0.0843 -0.1482 -0.4764
  653MOL0     C90023   7.755   9.774   2.185 -0.2173 -0.7243  0.0458
  653MOL0     O90024   7.510   9.606   2.334  0.3379  0.2768 -0.4460
  653MOL0     C90025   7.283   9.694   2.463  0.2573 -0.0654  0.3723
  653MOL0     C90026   7.161   9.735   2.520 -0.6919 -0.2639  1.0803
  653MOL0     N90027   6.510   9.382   2.701  0.1683  0.2400  0.0829
  653MOL0     N90028   6.386   9.382   2.740 -0.6294  0.7260 -0.6979
  653MOL0     C90029   6.786  10.146   2.804  0.0621 -0.3073 -0.2075
  653MOL0     C90030   6.915  10.162   2.755  0.2873  0.4498  0.0243
  653MOL0     C90031   7.377  10.119   2.712  0.3205 -0.1983 -0.7719
  653MOL0     C90032   7.430  10.031   2.616  0.1348 -0.5338  0.3123
  653MOL0     C90033   7.523  10.076   2.529  0.3564  0.2755  0.2861
  653MOL0     C90034   7.563  10.214   2.527  0.3911  0.3080  0.0439
  653MOL0     O90035   7.664  10.270   2.448  0.6947 -0.3085 -0.3951
  653MOL0     C90036   7.715  10.194   2.344 -0.6929 -0.0330  0.7406
  653MOL0     C90037   7.783  10.291   2.238  0.0683  0.5767  0.0104
  653MOL0     C90038   7.868  10.214   2.133 -0.4239  0.6836 -0.4543
  653MOL0     C90039   8.005  10.193   2.197 -0.9673  1.2595 -0.0040
  653MOL0     C90040   8.096  10.100   2.117 -0.4344 -0.2997  0.4578
  653MOL0     C90041   8.175  10.028   2.064  0.1078 -0.2854 -0.2924
  653MOL0     C90042   7.508  10.294   2.628 -0.3585 -1.2391  0.0231
  653MOL0     C90043   7.416  10.260   2.715 -0.0039  0.7402 -0.1764
  653MOL0     C90044   7.367  10.358   2.819 -0.8036  0.2795  0.6474
  653MOL0     H90045   7.093  10.000   2.998 -0.4838 -1.1443  0.5783
  653MOL0     H90046   6.865   9.968   3.087  0.6215 -0.8691 -1.5942
  653MOL0     H90047   6.633   9.915   3.121  0.5152  1.2495 -0.5539
  653MOL0     H90048   6.628   9.839   2.954 -0.1926  0.9463 -0.9616
  653MOL0     H90049   6.404   9.840   3.091 -2.2577  3.0777  1.5746
  653MOL0     H90050   6.417  10.011   3.080  1.5259  0.0888  1.2823
  653MOL0     H90051   6.412   9.979   2.826  0.7674  1.5518  2.7819
  653MOL0     H90052   6.407   9.810   2.841  0.6720  0.6865 -0.9329
  653MOL0     H90053   6.196   9.854   2.994 -2.6415  1.7101 -0.1645
  653MOL0     H90054   6.188  10.007   2.907 -2.1484 -0.2709 -2.9706
  653MOL0     H90055   6.225   9.883   2.686 -2.0869  3.9051 -0.3729
  653MOL0     H90056   6.064   9.883   2.762  0.4730 -0.4022  1.6703
  653MOL0     H90057   6.265   9.672   2.802  0.5714  1.7011 -1.8541
  653MOL0     H90058   6.099   9.664   2.871 -1.8136 -0.0431 -0.1857
  653MOL0     H90059   6.164   9.690   2.571 -1.4783  0.7665  0.5268
  653MOL0     H90060   6.020   9.639   2.646 -0.4785  3.2991 -1.9295
  653MOL0     H90061   6.130   9.427   2.719 -0.8052  0.2976 -0.3766
  653MOL0     H90062   6.129   9.456   2.549 -0.5209  0.0880  1.2062
  653MOL0     H90063   6.369   9.587   2.480  1.7777  0.0787 -0.1881
  653MOL0     H90064   6.619   9.543   2.408 -1.9011 -4.5368 -1.9006
  653MOL0     H90065   6.707   9.413   2.492  0.1257 -0.0814  1.5846
  653MOL0     H90066   6.635   9.690   2.602 -0.3801 -2.2106 -0.0442
  653MOL0     H90067   6.736   9.565   2.690 -0.4227 -4.0104 -1.2451
  653MOL0     H90068   6.896   9.615   2.491  0.0237  1.5420 -1.0334
  653MOL0     H90069   6.777   9.735   2.442  1.7402  2.2718 -0.4378
  653MOL0     H90070   6.809   9.841   2.673 -0.8675 -0.2876  0.1567
  653MOL0     H90071   6.954   9.731   2.697  2.7499  2.7671 -1.3677
  653MOL0     H90072   7.093  10.007   2.355 -1.0526 -0.4086 -1.6413
  653MOL0     H90073   7.424  10.024   2.272 -0.0472 -3.1138  5.4507
  653MOL0     H90074   7.268  10.062   2.208  0.5548  0.6139 -0.3104
  653MOL0     H90075   7.353   9.941   2.122  1.2459 -0.5992  0.9469
  653MOL0     H90076   7.560   9.596   1.986 -0.0711 -2.6282 -0.0970
  653MOL0     H90077   7.783   9.503   1.921 -1.3095 -0.3206  0.3819
  653MOL0     H90078   8.171   9.731   2.085  1.0308 -0.9192 -0.4597
  653MOL0     H90079   8.114   9.595   2.185 -1.1273 -0.8724 -0.7461
  653MOL0     H90080   8.218   9.443   2.033 -0.4552  0.9016  2.4873
  653MOL0     H90081   8.288   9.585   1.944  0.4234  4.4557  0.7287
  653MOL0     H90082   8.368   9.552   2.240  1.1834 -0.6493  0.2384
  653MOL0     H90083   8.405   9.682   2.129 -1.5451  0.5187 -2.1046
  653MOL0     H90084   8.510   9.515   1.969 -1.0527 -1.1245 -0.0569
  653MOL0     H90085   8.486   9.387   2.097 -1.9146 -0.0388 -0.5597
  653MOL0     H90086   8.611   9.536   2.249  0.1084 -0.5323  0.4031
  653MOL0     H90087   8.698   9.441   2.129  0.1909  0.5587 -3.1635
  653MOL0     H90088   8.622   9.747   2.093  1.1550  0.3902  0.4906
  653MOL0     H90089   8.718   9.655   1.986  1.8866  5.1784 -0.1599
  653MOL0     H90090   8.906   9.622   2.137 -0.0028  0.1648 -0.1043
  653MOL0     H90091   8.802   9.693   2.265  0.6917  1.2491  0.7400
  653MOL0     H90092   8.992   9.826   2.180  0.5767 -3.0624  0.8725
  653MOL0     H90093   8.829   9.905   2.170  0.9231  0.3067  0.2414
  653MOL0     H90094   7.969   9.800   2.179 -1.7090  3.6606 -1.9308
  653MOL0     H90095   7.752   9.844   2.268 -2.2227 -0.0767 -0.4962
  653MOL0     H90096   7.327   9.600   2.493  1.9133  0.9112  1.1887
  653MOL0     H90097   7.122   9.668   2.596  0.2068  1.0581  2.7920
  653MOL0     H90098   6.703  10.189   2.749 -0.9437 -0.8972  0.7940
  653MOL0     H90099   6.941  10.206   2.659  0.6527 -1.0164 -0.5674
  653MOL0     H90100   7.381   9.935   2.602  1.9643 -1.6956  1.4781
  653MOL0     H90101   7.560   9.997   2.464  0.4093 -0.7938  1.5719
  653MOL0     H90102   7.794  10.129   2.383  0.3710  0.1044 -1.0630
  653MOL0     H90103   7.641  10.135   2.290 -0.2784 -0.8550  1.0494
  653MOL0     H90104   7.848  10.358   2.293  0.9493 -2.5897  3.1983
  653MOL0     H90105   7.696  10.340   2.194 -3.0361  0.4984  5.1814
  653MOL0     H90106   7.817  10.123   2.103 -2.7159  1.5728  0.4847
  653MOL0     H90107   7.875  10.283   2.049 -3.2509  0.9903 -0.5512
  653MOL0     H90108   8.010  10.155   2.299  3.9907  2.9335  0.6327
  653MOL0     H90109   8.062  10.285   2.181 -0.9030  0.9037 -2.1698
  653MOL0     H90110   8.248   9.966   2.016  0.5472 -0.2036  0.2542
  653MOL0     H90111   7.531  10.399   2.620 -0.4975 -1.1666  0.5235
  653MOL0     H90112   7.408  10.460   2.813  0.8557  0.0143  4.4875
  653MOL0     H90113   7.258  10.364   2.818 -0.7897  0.7607  1.3721
  653MOL0     H90114   7.396  10.311   2.913 -0.4751  0.7060  0.7664
  654MOL0     O90115   3.670   6.364   0.211 -0.2701 -0.1113 -0.2721
  654MOL0     C90116   3.604   6.324   0.119 -0.4358  0.5486 -0.8517
  654MOL0     O90117   3.646   6.297  -0.007  0.7136  0.0223  0.6871
  654MOL0     C90118   3.773   6.346  -0.047 -0.3078  0.7670 -0.4725
  654MOL0     C90119   3.800   6.489  -0.042 -0.6082 -0.4127 -0.5597
  654MOL0     C90120   3.920   6.547  -0.084 -0.8572  0.8973  0.1243
  654MOL0     C90121   4.022   6.460  -0.142 -0.6948 -0.3629 -0.7215
  654MOL0     O90122   4.134   6.517  -0.187  0.1905  0.0212 -0.4970
  654MOL0     C90123   4.200   6.623  -0.129  0.2635  0.1100 -0.2346
  654MOL0     C90124   4.339   6.639  -0.188  0.1578  0.6466  0.0168
  654MOL0     C90125   4.413   6.767  -0.134 -0.6935  0.1816 -0.2118
  654MOL0     C90126   4.556   6.760  -0.194  0.7568  0.0552 -0.4243
  654MOL0     C90127   4.650   6.667  -0.117 -0.6052 -0.1330 -0.2254
  654MOL0     C90128   4.663   6.699   0.035  0.1085 -0.6377  0.0789
  654MOL0     C90129   4.701   6.844   0.070 -0.3889 -0.1925 -0.7956
  654MOL0     C90130   4.848   6.884   0.029  0.6964 -0.1495  0.4443
  654MOL0     N90131   4.954   6.799   0.080 -0.5554  0.5194 -0.0930
  654MOL0     C90132   5.069   6.769   0.014 -0.0503  0.6261 -0.0985
  654MOL0     C90133   5.117   6.664   0.086 -0.9221 -0.2040 -0.1673
  654MOL0     C90134   5.241   6.596   0.055  0.6544  0.5508 -0.1595
  654MOL0     C90135   5.362   6.649   0.137 -0.0952  0.3002  0.2762
  654MOL0     C90136   5.463   6.530   0.128 -0.3039 -0.2306 -0.4854
  654MOL0     C90137   5.616   6.562   0.134  0.1740 -0.2801  0.0786
  654MOL0     O90138   5.639   6.655   0.242  0.3321 -0.1432  0.5481
  654MOL0     C90139   5.767   6.670   0.275  0.3471  0.0715 -1.5089
  654MOL0     C90140   5.834   6.576   0.352 -0.7379 -0.3778 -0.4463
  654MOL0     C90141   5.968   6.586   0.374 -1.0473  0.2232 -0.6364
  654MOL0     C90142   6.041   6.466   0.442  0.4566  0.5177 -0.3449
  654MOL0     C90143   6.047   6.699   0.328  0.8816 -0.0299 -1.1366
  654MOL0     C90144   6.189   6.731   0.360  1.1816 -0.0029  0.2397
  654MOL0     O90145   6.249   6.797   0.249  0.7463 -0.2785  0.0256
  654MOL0     C90146   6.369   6.859   0.261 -0.2321 -0.0292  0.2318
  654MOL0     C90147   6.441   6.915   0.371 -0.1749 -0.3299  0.7392
  654MOL0     C90148   6.566   6.961   0.354 -0.5350 -0.2114 -0.1208
  654MOL0     C90149   6.624   6.975   0.226  1.1896  0.0711  0.7830
  654MOL0     O90150   6.748   7.032   0.222 -0.0310  0.1686  0.3339
  654MOL0     C90151   6.808   7.080   0.096 -0.0969  0.6861  0.5978
  654MOL0     C90152   6.763   7.216   0.041 -0.7423 -0.1729 -0.3033
  654MOL0     C90153   6.861   7.258  -0.071 -0.4166  0.3365  0.6901
  654MOL0     C90154   6.879   7.410  -0.094  0.0629 -0.4476 -0.5712
  654MOL0     C90155   6.903   7.444  -0.234  0.2751  0.2216 -0.1670
  654MOL0     C90156   6.907   7.588  -0.258 -0.2570  0.1671  0.8212
  654MOL0     C90157   6.883   7.627  -0.399  0.2806  0.1474 -0.4151
  654MOL0     C90158   6.983   7.729  -0.452  0.0012 -0.5658 -0.1616
  654MOL0    Cl90159   7.152   7.665  -0.473 -0.3543  0.1253 -0.2592
  654MOL0     C90160   6.551   6.920   0.116 -0.0533 -0.2895 -0.4560
  654MOL0     C90161   6.434   6.859   0.130  0.1741 -0.7557 -0.1876
  654MOL0     O90162   6.240   6.702   0.465  1.4064 -0.6502 -0.5022
  654MOL0     C90163   5.978   6.798   0.255  0.8546  0.7023  0.4118
  654MOL0     C90164   5.834   6.780   0.226 -0.1192 -0.3444 -0.5293
  654MOL0     N90165   5.034   6.643   0.192 -0.6827 -0.1291  0.4416
  654MOL0     N90166   4.940   6.727   0.189 -0.3838  0.3441  0.4013
  654MOL0     C90167   3.999   6.323  -0.130 -0.1151 -0.2873 -0.4169
  654MOL0     C90168   3.877   6.269  -0.086  0.7293  0.4951 -0.4145
  654MOL0     C90169   3.470   6.301   0.158  0.6458  0.5221 -0.7803
  654MOL0     C90170   3.431   6.194   0.237  0.3807  0.2105 -1.1613
  654MOL0     C90171   3.298   6.160   0.258  0.3384 -0.2000  0.1273
  654MOL0     C90172   3.197   6.252   0.223  0.6028  0.3161  0.1076
  654MOL0     O90173   3.065   6.221   0.247  0.0836  0.3758 -0.1336
  654MOL0     C90174   2.983   6.329   0.277 -0.1562  0.7547 -0.1061
  654MOL0     C90175   2.893   6.349   0.162  0.2379 -0.0884  0.5312
  654MOL0     C90176   2.781   6.239   0.166  0.0144  0.6042 -0.2812
  654MOL0     C90177   2.695   6.232   0.041 -1.0151  0.2439 -0.2960
  654MOL0     C90178   2.571   6.156   0.071  0.0852 -0.3901  0.1451
  654MOL0     C90179   2.469   6.121   0.121  0.0434 -0.6109  0.2723
  654MOL0     C90180   3.234   6.357   0.139  0.3567 -0.0774 -0.3074
  654MOL0     C90181   3.369   6.375   0.104  0.6345  0.5086  0.3670
  654MOL0     C90182   3.383   6.483   0.002  0.4505  0.3969  0.1817
  654MOL0     H90183   3.726   6.552   0.007  0.2865 -1.1479  1.8580
  654MOL0     H90184   3.936   6.655  -0.082  1.8168  0.5527  1.3059
  654MOL0     H90185   4.223   6.615  -0.022  0.6378  1.2229 -0.2187
  654MOL0     H90186   4.150   6.717  -0.152 -1.4335 -0.1554  1.9867
  654MOL0     H90187   4.406   6.554  -0.172 -1.8732 -1.4007 -1.7325
  654MOL0     H90188   4.339   6.623  -0.297  1.8994  0.6574 -0.0210
  654MOL0     H90189   4.364   6.850  -0.187 -1.7569  0.1846  0.7414
  654MOL0     H90190   4.409   6.780  -0.026  0.5071  0.8968 -0.2363
  654MOL0     H90191   4.560   6.728  -0.299  1.6699 -3.3573  0.5313
  654MOL0     H90192   4.595   6.862  -0.203 -1.6367  0.9323 -1.5695
  654MOL0     H90193   4.748   6.682  -0.165  0.9795  1.6146  3.1634
  654MOL0     H90194   4.624   6.562  -0.131  1.1650 -0.6984  0.4283
  654MOL0     H90195   4.566   6.684   0.083  0.8253 -4.7616  0.6793
  654MOL0     H90196   4.731   6.625   0.078  0.0109 -0.3152  0.7933
  654MOL0     H90197   4.705   6.835   0.179  2.1265 -4.0771 -1.0015
  654MOL0     H90198   4.624   6.914   0.036 -0.1455 -0.2746 -1.5198
  654MOL0     H90199   4.846   6.890  -0.080  0.2087  1.1791  0.5024
  654MOL0     H90200   4.855   6.982   0.079 -0.5879 -0.6251  1.6363
  654MOL0     H90201   5.111   6.825  -0.069  0.8664  0.7080  0.4013
  654MOL0     H90202   5.262   6.605  -0.052 -0.0754  1.2468 -0.2573
  654MOL0     H90203   5.228   6.491   0.082  1.5507  0.6948  0.9245
  654MOL0     H90204   5.406   6.742   0.101  3.4128 -0.9662  0.8773
  654MOL0     H90205   5.342   6.656   0.245 -1.4240 -2.5966  0.3199
  654MOL0     H90206   5.434   6.467   0.213 -1.0817 -1.3205 -1.5259
  654MOL0     H90207   5.456   6.462   0.042  0.0941 -0.3455 -0.4288
  654MOL0     H90208   5.654   6.464   0.166 -1.0303 -0.9447 -0.4471
  654MOL0     H90209   5.653   6.593   0.036 -0.2389  0.0234  0.0163
  654MOL0     H90210   5.783   6.487   0.387 -0.8682 -0.0484  0.2202
  654MOL0     H90211   6.144   6.458   0.406  1.6952 -1.2059  3.0571
  654MOL0     H90212   5.992   6.370   0.421 -1.4497  0.8064  2.2764
  654MOL0     H90213   6.043   6.467   0.551 -1.6523 -3.3273 -0.0713
  654MOL0     H90214   6.395   6.921   0.469  0.7438 -2.5732  1.3863
  654MOL0     H90215   6.623   6.994   0.441  1.0514  1.2844 -1.6467
  654MOL0     H90216   6.917   7.086   0.109  0.5411  3.4421 -3.8046
  654MOL0     H90217   6.788   7.000   0.024 -1.7313 -0.5013  2.3042
  654MOL0     H90218   6.665   7.208  -0.007 -1.1324 -0.5601  0.5373
  654MOL0     H90219   6.761   7.292   0.120  1.3750 -1.2563  0.8899
  654MOL0     H90220   6.831   7.208  -0.164  2.5796  1.3494 -0.9609
  654MOL0     H90221   6.963   7.225  -0.051  0.9002  4.0219  0.7092
  654MOL0     H90222   6.957   7.457  -0.034 -0.2800  0.5157 -0.8518
  654MOL0     H90223   6.790   7.467  -0.068  0.7147 -0.0374  0.8807
  654MOL0     H90224   6.989   7.393  -0.277 -0.8036  0.1986 -2.4341
  654MOL0     H90225   6.820   7.402  -0.292  0.2514 -1.4657  1.0116
  654MOL0     H90226   7.012   7.610  -0.234  0.0726 -0.5467  0.0735
  654MOL0     H90227   6.844   7.654  -0.197 -0.4892 -0.2450  1.0346
  654MOL0     H90228   6.779   7.660  -0.411  0.8568  2.2583 -0.0695
  654MOL0     H90229   6.896   7.541  -0.466 -0.9029 -0.2389 -0.1771
  654MOL0     H90230   6.990   7.813  -0.383 -0.3578 -0.7439  0.0962
  654MOL0     H90231   6.959   7.767  -0.552 -0.7237  0.7372  0.4851
  654MOL0     H90232   6.576   6.945   0.014 -0.8645 -1.4185 -0.9428
  654MOL0     H90233   6.387   6.818   0.041 -0.2710  2.2498 -1.4623
  654MOL0     H90234   6.040   6.879   0.217 -0.1292  0.1253 -2.7481
  654MOL0     H90235   5.780   6.857   0.170  1.4317 -0.4833 -2.2992
  654MOL0     H90236   4.077   6.259  -0.168  1.3150 -0.8674  3.1406
  654MOL0     H90237   3.859   6.162  -0.083 -0.1873  0.6258  3.2560
  654MOL0     H90238   3.503   6.119   0.269 -0.7687 -0.7569 -0.7593
  654MOL0     H90239   3.276   6.067   0.309 -0.5850 -1.1383 -1.8459
  654MOL0     H90240   2.922   6.297   0.362  1.5201 -2.2570  0.1228
  654MOL0     H90241   3.043   6.416   0.306 -1.2303  2.4968 -2.7113
  654MOL0     H90242   2.960   6.352   0.075  1.7743  2.0005  1.7079
  654MOL0     H90243   2.840   6.444   0.149 -0.7091 -0.8272 -1.6801
  654MOL0     H90244   2.823   6.139   0.176 -2.7686 -0.6027  0.0783
  654MOL0     H90245   2.721   6.255   0.255 -0.4964 -1.6997 -0.1549
  654MOL0     H90246   2.756   6.186  -0.037  1.0376 -2.2438  2.5312
  654MOL0     H90247   2.657   6.331   0.014  1.0447  0.7275 -1.5868
  654MOL0     H90248   2.379   6.099   0.176  0.3524 -2.0949  0.2185
  654MOL0     H90249   3.160   6.422   0.092  1.6091  0.7416 -1.1896
  654MOL0     H90250   3.365   6.584   0.042  1.7271  1.3088 -1.3836
  654MOL0     H90251   3.483   6.483  -0.043 -0.3697 -0.3288 -1.7322
  654MOL0     H90252   3.312   6.472  -0.080  0.0700 -1.7178  0.7465
  655MOL0     O90253   0.456   1.620  10.055 -0.0378  0.1700 -0.2211
  655MOL0     C90254   0.420   1.498  10.056 -0.0118  0.7344 -0.5355
  655MOL0     O90255   0.498   1.392  10.079  0.3852  0.4365 -0.7188
  655MOL0     C90256   0.630   1.418  10.105  0.2585 -0.0480  0.0669
  655MOL0     C90257   0.724   1.447  10.003 -0.8254  0.7046 -0.1579
  655MOL0     C90258   0.854   1.490  10.039  0.0001 -0.0716  0.0433
  655MOL0     C90259   0.904   1.475  10.164 -0.5241 -0.3012  0.0355
  655MOL0     O90260   1.030   1.510  10.194  0.0831  0.2232 -0.0003
  655MOL0     C90261   1.028   1.650  10.202  0.5685  0.5094  0.2010
  655MOL0     C90262   1.084   1.689  10.334  0.0270 -0.4767 -0.6744
  655MOL0     C90263   1.081   1.841  10.355 -0.4047 -0.5451 -0.3612
  655MOL0     C90264   1.175   1.903  10.461 -0.1839 -0.0488 -0.2265
  655MOL0     C90265   1.167   2.055  10.492  0.7398  0.1127 -0.0874
  655MOL0     C90266   1.233   2.136  10.376 -0.5247 -0.9906  0.2900
  655MOL0     C90267   1.223   2.284  10.426 -0.0165  1.0939 -1.3073
  655MOL0     C90268   1.228   2.375  10.304 -0.4398 -0.3346  0.7007
  655MOL0     N90269   1.186   2.512  10.332 -0.5650 -0.7059  1.2309
  655MOL0     C90270   1.087   2.589  10.266  0.1286 -0.6208  0.2307
  655MOL0     C90271   1.099   2.710  10.327 -0.2316 -0.9265  0.6245
  655MOL0     C90272   1.035   2.843  10.299 -0.0370 -0.2557  0.0720
  655MOL0     C90273   1.102   2.929  10.188  0.1136 -0.2598 -0.3563
  655MOL0     C90274   1.252   2.904  10.166 -0.1348 -0.4993 -0.3117
  655MOL0     C90275   1.316   2.995  10.065 -0.0882  0.1159 -0.1087
  655MOL0     O90276   1.284   2.954   9.932  0.3458  0.2045  0.0120
  655MOL0     C90277   1.334   3.045   9.842 -0.1051 -0.1811  0.0313
  655MOL0     C90278   1.240   3.128   9.775 -0.9346 -1.1435 -0.6761
  655MOL0     C90279   1.276   3.226   9.681 -1.2271 -0.1001 -0.3238
  655MOL0     C90280   1.171   3.308   9.614 -0.4526 -0.3279 -0.1139
  655MOL0     C90281   1.419   3.244   9.655  0.2148 -0.3448 -0.7070
  655MOL0     C90282   1.472   3.355   9.566  0.4645  0.4084  0.9264
  655MOL0     O90283   1.603   3.366   9.552 -0.0730  0.2522  0.0184
  655MOL0     C90284   1.670   3.464   9.482 -0.1688 -0.4812  0.1384
  655MOL0     C90285   1.796   3.498   9.530  0.3579  0.9387  0.4574
  655MOL0     C90286   1.872   3.599   9.469  0.0180 -0.0490 -0.2672
  655MOL0     C90287   1.821   3.664   9.356  0.3827 -0.1222 -0.3187
  655MOL0     O90288   1.906   3.752   9.292 -0.1637  0.2618 -0.4673
  655MOL0     C90289   1.918   3.750   9.148 -0.1311  0.8682  0.4676
  655MOL0     C90290   2.036   3.816   9.101  0.3326 -0.9545  0.3158
  655MOL0     C90291   2.014   3.977   9.103 -0.0727  0.7343 -0.1909
  655MOL0     C90292   2.149   4.030   9.050 -0.3336 -0.7976  0.5463
  655MOL0     C90293   2.135   4.184   9.016 -0.3464 -0.0231  0.4821
  655MOL0     C90294   2.266   4.241   8.974  0.2699  0.4146  0.2840
  655MOL0     C90295   2.249   4.388   8.934  0.3555 -1.1318 -0.0881
  655MOL0     C90296   2.293   4.470   9.055  0.4403  0.1340  0.1983
  655MOL0    Cl90297   2.204   4.434   9.213 -0.0032 -0.1471  0.3804
  655MOL0     C90298   1.703   3.615   9.299  0.2715  0.1632 -0.1027
  655MOL0     C90299   1.629   3.512   9.358  0.1583  0.0414  0.5372
  655MOL0     O90300   1.391   3.434   9.512 -0.2745 -0.1105 -0.7181
  655MOL0     C90301   1.516   3.157   9.721  0.5785  0.1189  0.3939
  655MOL0     C90302   1.466   3.067   9.820 -0.2032  0.2190  0.1991
  655MOL0     N90303   1.199   2.702  10.421  0.3933  0.8700 -0.5113
  655MOL0     N90304   1.233   2.584  10.436  0.4381  0.1936  0.2147
  655MOL0     C90305   0.824   1.424  10.267  0.6056  0.0322 -0.1757
  655MOL0     C90306   0.692   1.389  10.230 -0.3426  0.0239 -0.0262
  655MOL0     C90307   0.274   1.471  10.046 -0.0639 -0.5699  0.0570
  655MOL0     C90308   0.223   1.368  10.121 -0.3278 -0.2656  0.5864
  655MOL0     C90309   0.094   1.336  10.113 -0.7740  0.3591  0.2918
  655MOL0     C90310  -0.000   1.391  10.024  0.3512  0.1395 -0.1687
  655MOL0     O90311  -0.120   1.325  10.027  0.2059 -0.6864 -0.2427
  655MOL0     C90312  -0.228   1.362   9.935 -0.8706 -0.6536  0.5208
  655MOL0     C90313  -0.303   1.481   9.991 -0.1397 -0.1683  0.1490
  655MOL0     C90314  -0.381   1.557   9.879  0.2505 -0.4455  0.3177
  655MOL0     C90315  -0.483   1.652   9.945 -0.1600  0.0337 -0.1182
  655MOL0     C90316  -0.569   1.698   9.834 -0.1133  0.0058 -1.1036
  655MOL0     C90317  -0.655   1.740   9.760  0.6229  0.9628  0.7001
  655MOL0     C90318   0.040   1.498   9.949  0.7462 -0.5003  0.5160
  655MOL0     C90319   0.174   1.543   9.962 -1.0062 -0.7339 -0.4212
  655MOL0     C90320   0.223   1.656   9.876  0.9591  0.0960 -0.8350
  655MOL0     H90321   0.682   1.448   9.903  0.8644 -0.9649 -0.9608
  655MOL0     H90322   0.915   1.523   9.956 -3.9044 -1.8569 -3.9507
  655MOL0     H90323   0.931   1.701  10.204  0.9735  1.2747  0.5578
  655MOL0     H90324   1.094   1.686  10.122  0.9186 -0.4350  0.0508
  655MOL0     H90325   1.021   1.646  10.412  2.3934 -2.2387  0.3961
  655MOL0     H90326   1.183   1.645  10.345 -0.3499 -1.9236 -2.5462
  655MOL0     H90327   1.094   1.894  10.260  2.0906 -3.1947 -1.6660
  655MOL0     H90328   0.979   1.868  10.383 -1.4644 -3.1575 -1.3745
  655MOL0     H90329   1.161   1.856  10.559  1.0177 -0.2778 -0.1536
  655MOL0     H90330   1.277   1.875  10.433 -0.5406  0.5848 -2.3454
  655MOL0     H90331   1.217   2.082  10.585  1.5244 -0.1314 -0.4297
  655MOL0     H90332   1.063   2.088  10.496  0.3729 -0.7914 -1.4964
  655MOL0     H90333   1.340   2.115  10.369 -0.3796 -0.0866 -0.3107
  655MOL0     H90334   1.180   2.112  10.284  0.7464 -0.5044 -0.6014
  655MOL0     H90335   1.302   2.304  10.498 -1.0823  2.3031 -0.4402
  655MOL0     H90336   1.135   2.302  10.487  1.2127 -0.1796  0.9573
  655MOL0     H90337   1.333   2.369  10.273 -0.6854 -0.2763 -0.1708
  655MOL0     H90338   1.159   2.335  10.229 -3.6480  2.2171  2.0295
  655MOL0     H90339   1.031   2.554  10.180  1.3150 -1.8970 -0.0461
  655MOL0     H90340   1.035   2.906  10.388  2.9792 -0.3880  0.2577
  655MOL0     H90341   0.930   2.827  10.271  0.0292 -0.7478  0.0969
  655MOL0     H90342   1.051   2.917  10.093  0.6895 -0.1387 -0.6865
  655MOL0     H90343   1.095   3.031  10.226 -0.5613 -0.1329 -0.8044
  655MOL0     H90344   1.300   2.924  10.262 -1.7937  1.3698  0.2008
  655MOL0     H90345   1.274   2.800  10.140 -2.3140 -0.6846 -1.6832
  655MOL0     H90346   1.301   3.100  10.092  2.0107  0.6222 -0.6754
  655MOL0     H90347   1.424   2.992  10.083 -0.2688  0.7366  1.1542
  655MOL0     H90348   1.134   3.121   9.801 -1.0561  1.7439 -0.1001
  655MOL0     H90349   1.180   3.413   9.640  0.7861 -0.6949  1.0464
  655MOL0     H90350   1.071   3.275   9.642 -1.4419  2.4887 -0.0468
  655MOL0     H90351   1.176   3.292   9.505 -2.4195  0.4465 -0.3600
  655MOL0     H90352   1.825   3.451   9.623  0.2182 -0.2911 -0.0879
  655MOL0     H90353   1.971   3.628   9.504 -0.1691 -0.2487  0.4439
  655MOL0     H90354   1.917   3.648   9.110  2.4363  0.3457  1.5779
  655MOL0     H90355   1.837   3.797   9.092 -1.4337 -2.4854 -0.6995
  655MOL0     H90356   2.124   3.794   9.161  3.5757  2.8203 -2.5073
  655MOL0     H90357   2.053   3.779   8.999 -2.7845 -1.4065 -0.1522
  655MOL0     H90358   1.976   4.025   9.194 -6.1287 -1.9630 -0.7986
  655MOL0     H90359   1.926   4.003   9.043 -0.9720  1.2727  1.3056
  655MOL0     H90360   2.171   3.979   8.956 -0.5701  2.9134 -1.7126
  655MOL0     H90361   2.232   4.017   9.120 -1.0834  0.2177  1.6714
  655MOL0     H90362   2.063   4.190   8.934 -0.3940 -2.0166  0.3360
  655MOL0     H90363   2.093   4.237   9.103  0.8950 -0.3986  1.3386
  655MOL0     H90364   2.292   4.204   8.874 -0.4911  1.5824 -0.3731
  655MOL0     H90365   2.335   4.225   9.057 -0.7216  2.6069  1.6340
  655MOL0     H90366   2.149   4.419   8.903  0.3510  1.0526  1.7987
  655MOL0     H90367   2.321   4.421   8.859  1.6326 -1.3413  1.0075
  655MOL0     H90368   2.280   4.577   9.036 -0.4105 -0.3719 -2.4811
  655MOL0     H90369   2.399   4.455   9.080  1.1365  1.5026 -1.7144
  655MOL0     H90370   1.669   3.662   9.207  3.2024 -0.7853 -1.7846
  655MOL0     H90371   1.538   3.497   9.301  1.5359 -0.6894 -1.6080
  655MOL0     H90372   1.620   3.153   9.690  0.9053 -0.7439  1.5110
  655MOL0     H90373   1.529   2.991   9.864  0.1683 -0.0198 -0.7232
  655MOL0     H90374   0.853   1.393  10.366 -2.3521 -4.5095 -0.3919
  655MOL0     H90375   0.630   1.361  10.314  1.8954  1.6068  2.2740
  655MOL0     H90376   0.295   1.319  10.186  0.9572 -0.6690 -1.0783
  655MOL0     H90377   0.060   1.266  10.188  0.9543 -1.8856 -0.8939
  655MOL0     H90378  -0.181   1.370   9.836  0.7524  1.6552  1.3784
  655MOL0     H90379  -0.298   1.278   9.936 -1.2052 -0.4661 -1.5933
  655MOL0     H90380  -0.227   1.545  10.036 -0.9629 -0.1732  1.6051
  655MOL0     H90381  -0.369   1.452  10.072  0.1629  1.6834  1.0872
  655MOL0     H90382  -0.314   1.618   9.818 -0.2122 -1.9455 -1.8014
  655MOL0     H90383  -0.437   1.492   9.812  0.5247  0.2396 -0.5880
  655MOL0     H90384  -0.436   1.734  10.001 -3.0463  1.5742  0.2030
  655MOL0     H90385  -0.551   1.603  10.015 -0.1005  1.2056  0.7754
  655MOL0     H90386  -0.712   1.789   9.684  1.4660 -2.3215 -2.3307
  655MOL0     H90387  -0.025   1.543   9.874  0.0905 -2.9393 -0.4856
  655MOL0     H90388   0.267   1.615   9.785 -0.9045 -2.9623 -0.5201
  655MOL0     H90389   0.136   1.717   9.848 -0.3399 -1.0690  0.4615
  655MOL0     H90390   0.287   1.724   9.933 -0.3062 -0.7115  1.6964
  656MOL0     O90391   0.220   0.295  10.191  0.0810  0.0641  0.4071
  656MOL0     C90392   0.216   0.199  10.106  0.0824 -0.3191  0.1740
  656MOL0     O90393   0.318   0.129  10.061 -0.8123  0.2877  0.3115
  656MOL0     C90394   0.454   0.148  10.092 -0.2446 -0.3252  0.6853
  656MOL0     C90395   0.543   0.047  10.047 -0.2335  0.4124  0.0112
  656MOL0     C90396   0.683   0.075  10.061 -0.5838 -0.2900 -0.2553
  656MOL0     C90397   0.741   0.185  10.124  0.0972 -0.0193 -0.0088
  656MOL0     O90398   0.879   0.195  10.128  0.4356 -0.3328  0.6833
  656MOL0     C90399   0.934   0.271  10.245  1.1240 -0.0132  0.0292
  656MOL0     C90400   1.085   0.255  10.262 -0.7597  0.2668  0.0057
  656MOL0     C90401   1.131   0.107  10.285 -0.3365 -0.5866 -0.2909
  656MOL0     C90402   1.279   0.100  10.314  0.2342  0.0014  0.8734
  656MOL0     C90403   1.324  -0.050  10.328 -0.2033 -0.3335 -0.0405
  656MOL0     C90404   1.486  -0.062  10.316 -0.0581  0.0031  0.2493
  656MOL0     C90405   1.528  -0.209  10.360  0.9518 -0.2659 -0.6128
  656MOL0     C90406   1.680  -0.210  10.397  0.2927  0.1289 -0.0230
  656MOL0     N90407   1.770  -0.161  10.290  0.1373 -0.3443 -0.1070
  656MOL0     C90408   1.847  -0.055  10.320 -0.6106 -0.4425  0.1747
  656MOL0     C90409   1.943  -0.069  10.223  0.4354  0.2437 -0.2543
  656MOL0     C90410   2.065   0.018  10.201 -0.5408 -0.5906  0.2963
  656MOL0     C90411   2.172  -0.042  10.113 -0.6021  0.2209 -0.2235
  656MOL0     C90412   2.251  -0.160  10.177  0.0612 -1.0467 -0.6550
  656MOL0     C90413   2.358  -0.105  10.275 -0.2335  0.4008 -0.3129
  656MOL0     O90414   2.428  -0.213  10.332 -0.8255 -0.4760  0.4464
  656MOL0     C90415   2.556  -0.181  10.375  0.0347  0.6937 -0.0723
  656MOL0     C90416   2.620  -0.055  10.395  0.8390  0.2014 -0.5766
  656MOL0     C90417   2.755  -0.039  10.445 -0.1920  0.3523  0.3055
  656MOL0     C90418   2.814   0.102  10.455 -0.3275  0.2485 -0.1132
  656MOL0     C90419   2.829  -0.158  10.465 -0.0530 -1.0589 -0.0374
  656MOL0     C90420   2.970  -0.149  10.516  1.1110 -0.6322  0.3192
  656MOL0     O90421   3.044  -0.251  10.473 -0.0296  0.0953 -0.5061
  656MOL0     C90422   3.176  -0.258  10.500 -0.1121  1.3587  0.0320
  656MOL0     C90423   3.243  -0.363  10.572 -0.2683  0.8472  0.1173
  656MOL0     C90424   3.380  -0.383  10.568  0.4385  0.3090 -0.2308
  656MOL0     C90425   3.458  -0.290  10.513  1.1833 -0.0783 -0.5659
  656MOL0     O90426   3.595  -0.299  10.532 -0.2979  0.3343  0.3071
  656MOL0     C90427   3.671  -0.318  10.412  0.7837  0.5483 -0.6307
  656MOL0     C90428   3.794  -0.403  10.448 -0.1742 -0.0865 -1.3209
  656MOL0     C90429   3.855  -0.340  10.577  0.3780 -0.3504  0.4194
  656MOL0     C90430   3.954  -0.448  10.638 -0.4855  0.5547 -0.2263
  656MOL0     C90431   4.040  -0.378  10.744  0.3333 -0.7346 -0.7792
  656MOL0     C90432   4.164  -0.315  10.675 -0.2603  0.4855  0.1702
  656MOL0     C90433   4.256  -0.241  10.766  0.5579 -0.8097 -0.1888
  656MOL0     C90434   4.362  -0.329  10.825 -0.4147 -0.1459  0.5126
  656MOL0    Cl90435   4.466  -0.222  10.917 -0.0049 -0.4343 -0.1662
  656MOL0     C90436   3.402  -0.183  10.447  0.4821 -0.8782  0.4071
  656MOL0     C90437   3.258  -0.160  10.436 -1.3213 -0.0748 -0.8364
  656MOL0     O90438   3.006  -0.057  10.593  0.2560 -0.3289  0.1900
  656MOL0     C90439   2.772  -0.282  10.444 -0.3416  0.0427  0.0943
  656MOL0     C90440   2.640  -0.293  10.401  0.0104  0.5064 -0.7525
  656MOL0     N90441   1.924  -0.183  10.144  0.0124 -0.2217  0.2701
  656MOL0     N90442   1.815  -0.233  10.188 -0.1424 -0.7410  0.0059
  656MOL0     C90443   0.648   0.278  10.179 -0.0548 -0.1442 -1.0881
  656MOL0     C90444   0.511   0.262  10.162  0.1211 -0.5542  0.5344
  656MOL0     C90445   0.075   0.149  10.080  0.2342  0.1379 -0.0704
  656MOL0     C90446  -0.020   0.253  10.102 -0.1304  0.8366  0.2834
  656MOL0     C90447  -0.153   0.227  10.083 -0.1700  0.4113  0.4381
  656MOL0     C90448  -0.203   0.101  10.050 -1.2454 -1.0986 -0.0997
  656MOL0     O90449  -0.340   0.072  10.042 -0.0144  0.0815  0.3092
  656MOL0     C90450  -0.386  -0.022   9.955 -0.3721  0.8047 -0.5408
  656MOL0     C90451  -0.523   0.002   9.901 -0.2425  0.3746  0.7179
  656MOL0     C90452  -0.624   0.010  10.014 -0.0403 -0.2734 -0.5247
  656MOL0     C90453  -0.772  -0.029   9.975  0.0662  0.0767  0.0557
  656MOL0     C90454  -0.829   0.095   9.912  0.3723  0.2503 -0.5354
  656MOL0     C90455  -0.875   0.198   9.864  0.6289 -0.2795 -0.6509
  656MOL0     C90456  -0.113   0.000  10.033 -0.2623 -0.3860  0.0797
  656MOL0     C90457   0.024   0.027  10.033  0.2522 -1.3741 -0.5809
  656MOL0     C90458   0.116  -0.088  10.000 -0.5516  0.0438 -0.3526
  656MOL0     H90459   0.503  -0.040   9.995 -3.8419  1.7321  0.3069
  656MOL0     H90460   0.747   0.005  10.007  1.0673  1.1016 -0.2162
  656MOL0     H90461   0.883   0.233  10.334  3.4310  0.0038  1.4415
  656MOL0     H90462   0.910   0.376  10.226  3.4393  0.0237 -3.7163
  656MOL0     H90463   1.138   0.310  10.184 -1.5354 -0.0797 -0.7832
  656MOL0     H90464   1.108   0.295  10.362 -2.8567 -1.1452  1.1189
  656MOL0     H90465   1.081   0.068  10.373  1.1409 -0.2309  0.7423
  656MOL0     H90466   1.107   0.053  10.193 -2.2849 -0.3912  0.0701
  656MOL0     H90467   1.323   0.145  10.224 -1.7820  0.5836  0.1066
  656MOL0     H90468   1.305   0.160  10.401  1.6342 -0.7883  1.0207
  656MOL0     H90469   1.286  -0.123  10.256 -2.2138 -1.6258  2.2077
  656MOL0     H90470   1.289  -0.076  10.428  1.1926  0.3407  0.6598
  656MOL0     H90471   1.523  -0.035  10.217 -0.5510  0.1365  0.1001
  656MOL0     H90472   1.527   0.003  10.394 -2.1325  1.3421  0.2915
  656MOL0     H90473   1.487  -0.294  10.305 -1.0227 -2.2752  3.5888
  656MOL0     H90474   1.482  -0.236  10.455  0.8742 -0.4968 -0.7139
  656MOL0     H90475   1.697  -0.169  10.498  0.5975 -1.7051  0.7088
  656MOL0     H90476   1.699  -0.317  10.410 -0.6810  0.1312  1.8351
  656MOL0     H90477   1.829   0.010  10.404 -2.6330 -1.0835  0.2742
  656MOL0     H90478   2.112   0.032  10.298 -0.5994  1.3818  0.0773
  656MOL0     H90479   2.030   0.117  10.172  0.2453 -0.2913  0.3430
  656MOL0     H90480   2.131  -0.088  10.023  0.6408 -0.4091 -0.4863
  656MOL0     H90481   2.251   0.027  10.082  0.6819 -1.7950 -1.6835
  656MOL0     H90482   2.191  -0.238  10.225  0.7316 -0.8587  0.5058
  656MOL0     H90483   2.298  -0.216  10.095 -0.7764 -1.9624 -0.5262
  656MOL0     H90484   2.423  -0.035  10.222 -0.8198  2.5232  1.6155
  656MOL0     H90485   2.314  -0.050  10.359 -2.0367 -1.1090 -0.2102
  656MOL0     H90486   2.554   0.028  10.371  1.3099 -0.0555 -3.0038
  656MOL0     H90487   2.806   0.141  10.557  0.6071  0.9017 -0.2855
  656MOL0     H90488   2.755   0.166  10.390 -1.0068 -1.7717 -1.6017
  656MOL0     H90489   2.913   0.096  10.410 -1.2167 -2.0865 -1.9718
  656MOL0     H90490   3.190  -0.449  10.613  2.1289 -1.8266 -1.9348
  656MOL0     H90491   3.431  -0.464  10.620 -1.2941  1.5332  3.7463
  656MOL0     H90492   3.613  -0.377  10.341 -2.5676  0.4125  1.9653
  656MOL0     H90493   3.707  -0.220  10.379 -0.3283  0.5861 -1.7941
  656MOL0     H90494   3.758  -0.506  10.456 -2.6979  0.6393 -2.1735
  656MOL0     H90495   3.868  -0.406  10.367 -1.5067  2.2055 -2.7498
  656MOL0     H90496   3.784  -0.340  10.660  0.3723 -1.9354  0.4533
  656MOL0     H90497   3.897  -0.240  10.565  2.8830 -1.2707  0.8333
  656MOL0     H90498   4.021  -0.482  10.558 -0.6111  0.7179 -0.4055
  656MOL0     H90499   3.894  -0.529  10.679 -1.6362  1.1025 -0.7736
  656MOL0     H90500   3.976  -0.298  10.781 -0.9865  0.0223 -4.2752
  656MOL0     H90501   4.077  -0.449  10.819  4.5642  1.8496 -0.0890
  656MOL0     H90502   4.136  -0.244  10.597  0.1797 -0.6206 -1.0173
  656MOL0     H90503   4.209  -0.395  10.616 -2.5058  1.6816 -3.4907
  656MOL0     H90504   4.210  -0.195  10.854 -3.2959 -1.0829 -1.8621
  656MOL0     H90505   4.297  -0.164  10.700  0.3452 -0.2335  0.3372
  656MOL0     H90506   4.419  -0.377  10.745 -1.1348 -1.6767  0.8767
  656MOL0     H90507   4.321  -0.413  10.881  0.2514 -1.6063 -1.1002
  656MOL0     H90508   3.468  -0.105  10.409 -2.3101  0.4824 -2.0366
  656MOL0     H90509   3.222  -0.075  10.379 -1.3208  1.1521  0.8840
  656MOL0     H90510   2.833  -0.368  10.469  1.1855  1.1952  0.5244
  656MOL0     H90511   2.586  -0.387  10.400 -0.2249  0.5958  1.1412
  656MOL0     H90512   0.688   0.362  10.235  0.4883 -0.0313 -1.6383
  656MOL0     H90513   0.458   0.344  10.208  1.1876  2.5886 -3.2676
  656MOL0     H90514   0.001   0.351  10.144 -0.8634  1.0516  0.1633
  656MOL0     H90515  -0.231   0.301  10.100  1.6294  2.8247 -1.2424
  656MOL0     H90516  -0.328  -0.053   9.868 -3.0629 -2.7207 -1.3282
  656MOL0     H90517  -0.388  -0.113  10.017  0.0109  0.3571 -1.1785
  656MOL0     H90518  -0.556  -0.078   9.834 -0.1548  0.9191  0.0231
  656MOL0     H90519  -0.516   0.089   9.835  1.8417 -1.9892 -2.4850
  656MOL0     H90520  -0.594  -0.052  10.100 -1.1512 -1.1265 -0.7295
  656MOL0     H90521  -0.620   0.111  10.055 -0.0533 -0.3198 -0.4077
  656MOL0     H90522  -0.836  -0.036  10.063  1.2171  1.7197  1.0888
  656MOL0     H90523  -0.776  -0.122   9.917  1.1190 -0.3514  0.6278
  656MOL0     H90524  -0.908   0.293   9.830 -0.9435  0.2506  2.0585
  656MOL0     H90525  -0.141  -0.092   9.984  2.4847 -0.0756 -2.4015
  656MOL0     H90526   0.139  -0.105   9.895 -0.7658  0.4386 -0.4672
  656MOL0     H90527   0.215  -0.077  10.046 -1.0265  0.3305  0.6391
  656MOL0     H90528   0.071  -0.180  10.038  0.2785 -0.0833  0.3609
  657MOL0     O90529  10.411  11.115  10.609  0.3310 -0.2413  0.8261
  657MOL0     C90530  10.301  11.093  10.550 -1.1776  0.3128  0.5908
  657MOL0     O90531  10.242  11.181  10.460  0.0662 -0.3233 -0.3677
  657MOL0     C90532  10.290  11.307  10.437  0.0719 -0.0194  0.3695
  657MOL0     C90533  10.413  11.322  10.379  0.1036 -0.4681  0.0235
  657MOL0     C90534  10.471  11.443  10.363 -0.4455 -0.4276 -0.0060
  657MOL0     C90535  10.395  11.555  10.392 -1.3015  0.0299 -0.1513
  657MOL0     O90536  10.431  11.687  10.378 -0.4084  0.1489 -0.1406
  657MOL0     C90537  10.560  11.707  10.320 -1.2358 -0.2945  0.9345
  657MOL0     C90538  10.669  11.710  10.425 -0.3013  0.3392 -0.2019
  657MOL0     C90539  10.646  11.832  10.511 -0.3824  0.5614  0.0260
  657MOL0     C90540  10.780  11.860  10.578  0.0408 -0.2308  0.0872
  657MOL0     C90541  10.803  11.993  10.642  0.4491  0.3866 -0.0230
  657MOL0     C90542  10.908  11.972  10.750  0.0577  0.2444 -0.2213
  657MOL0     C90543  10.922  12.082  10.854  0.4182 -0.6105 -0.3218
  657MOL0     C90544  10.964  12.219  10.807 -0.5944 -0.0192  0.1411
  657MOL0     N90545  11.108  12.235  10.787  0.7645 -0.2877  0.3522
  657MOL0     C90546  11.191  12.289  10.880 -0.7560  0.4619  0.6263
  657MOL0     C90547  11.310  12.292  10.814  0.5447 -0.2969  1.0444
  657MOL0     C90548  11.436  12.337  10.860  0.3595 -0.5949 -0.0762
  657MOL0     C90549  11.535  12.221  10.872  0.8299 -0.0826  0.5726
  657MOL0     C90550  11.668  12.252  10.934  0.5736 -0.5822 -0.2658
  657MOL0     C90551  11.735  12.138  11.005  0.5847  0.4122  0.2337
  657MOL0     O90552  11.830  12.083  10.915  0.0073  0.5589 -0.6246
  657MOL0     C90553  11.968  12.117  10.918  0.6310 -0.7494  0.6394
  657MOL0     C90554  12.027  12.221  10.982 -0.0048  0.5630 -0.1361
  657MOL0     C90555  12.166  12.229  10.973  0.0718  0.3202  0.1753
  657MOL0     C90556  12.216  12.339  11.058  0.5904 -0.5132 -0.6859
  657MOL0     C90557  12.246  12.155  10.887 -0.7076 -0.3258 -0.0636
  657MOL0     C90558  12.386  12.163  10.865 -0.5316  0.0843 -0.1309
  657MOL0     O90559  12.432  12.140  10.732 -0.3228  0.3036 -0.5094
  657MOL0     C90560  12.566  12.138  10.714 -0.4016  0.6711 -0.1306
  657MOL0     C90561  12.639  12.022  10.719 -0.0817 -0.0519  0.0404
  657MOL0     C90562  12.775  12.025  10.687  0.3939  0.6391 -1.0096
  657MOL0     C90563  12.844  12.139  10.651  0.2113 -0.4354 -0.0775
  657MOL0     O90564  12.976  12.136  10.615 -0.4141 -0.2821 -0.1192
  657MOL0     C90565  12.987  12.116  10.476 -0.6741  0.0363  0.5864
  657MOL0     C90566  13.137  12.078  10.453 -0.2554 -0.9223 -0.4260
  657MOL0     C90567  13.171  12.057  10.306 -0.2279  0.3622  0.2452
  657MOL0     C90568  13.285  11.952  10.289  0.2529 -0.8204  0.3842
  657MOL0     C90569  13.316  11.961  10.137  1.5390  0.2692  0.1249
  657MOL0     C90570  13.407  11.858  10.085  0.6486  0.4415  0.3968
  657MOL0     C90571  13.549  11.867  10.141  0.1916  0.8389  0.0298
  657MOL0     C90572  13.645  11.783  10.063  0.8307 -0.3056 -0.1934
  657MOL0    Cl90573  13.793  11.790  10.150 -0.0531  0.3739 -0.6449
  657MOL0     C90574  12.771  12.258  10.651 -0.2246  0.2872 -0.0957
  657MOL0     C90575  12.633  12.255  10.681 -0.4862 -0.1320  0.1997
  657MOL0     O90576  12.458  12.221  10.953 -1.0096  0.8725  0.6310
  657MOL0     C90577  12.177  12.051  10.819  1.2700  0.3967  0.4039
  657MOL0     C90578  12.039  12.039  10.838 -0.9039 -0.0424  0.0646
  657MOL0     N90579  11.291  12.256  10.681  0.1553  0.5459 -0.5239
  657MOL0     N90580  11.173  12.215  10.668 -0.1563 -0.3460 -0.0413
  657MOL0     C90581  10.273  11.544  10.441 -0.0025 -0.1035 -0.6383
  657MOL0     C90582  10.226  11.421  10.479 -0.3454 -0.3411  0.1973
  657MOL0     C90583  10.229  10.959  10.578  0.1219  0.6901 -0.3313
  657MOL0     C90584  10.088  10.956  10.546 -0.5334  0.1791  0.3373
  657MOL0     C90585  10.013  10.836  10.554  0.2208  0.7074  0.6680
  657MOL0     C90586  10.066  10.715  10.595  0.1212  0.5388 -0.0653
  657MOL0     O90587   9.982  10.607  10.598  0.0676  0.2631 -0.1112
  657MOL0     C90588  10.045  10.478  10.626  0.8292 -0.6338  0.2910
  657MOL0     C90589   9.933  10.368  10.624 -1.0944  0.3339 -0.4005
  657MOL0     C90590   9.815  10.378  10.727 -0.0382  0.2606  0.5987
  657MOL0     C90591   9.708  10.271  10.710 -0.0145  0.5426  0.5656
  657MOL0     C90592   9.756  10.135  10.696  0.6023 -0.4905 -0.0303
  657MOL0     C90593   9.777  10.011  10.701 -0.0133 -0.0169 -0.5628
  657MOL0     C90594  10.208  10.717  10.615 -0.5343  0.0276 -0.6339
  657MOL0     C90595  10.289  10.836  10.621  0.0593 -0.6386 -0.1425
  657MOL0     C90596  10.435  10.830  10.657 -1.6492 -0.3068  0.0246
  657MOL0     H90597  10.463  11.232  10.346 -0.5696 -0.3174 -1.4914
  657MOL0     H90598  10.572  11.452  10.325 -0.5342 -0.2918 -0.2145
  657MOL0     H90599  10.557  11.804  10.270  0.8530 -0.6005  0.1278
  657MOL0     H90600  10.588  11.641  10.237  1.4858  0.3681  1.2387
  657MOL0     H90601  10.659  11.620  10.487 -0.6322  0.9351  0.6281
  657MOL0     H90602  10.761  11.706  10.366 -0.2213  2.1276 -0.2457
  657MOL0     H90603  10.609  11.919  10.455 -1.1331  1.2653  1.5450
  657MOL0     H90604  10.571  11.811  10.588  2.4982  0.1180  2.9312
  657MOL0     H90605  10.796  11.774  10.644  0.8135  0.3795  0.7216
  657MOL0     H90606  10.852  11.862  10.495 -1.7859  3.7623 -1.6612
  657MOL0     H90607  10.710  12.019  10.694  1.6472  1.7081  1.6046
  657MOL0     H90608  10.833  12.066  10.567  1.8769 -0.0351  0.1112
  657MOL0     H90609  10.887  11.886  10.814  3.7484  0.5538  1.6381
  657MOL0     H90610  11.001  11.947  10.697  0.1127 -0.4885  0.2182
  657MOL0     H90611  10.996  12.057  10.931 -0.4765  0.6864  1.0167
  657MOL0     H90612  10.830  12.086  10.912  0.5434 -3.2033  0.1786
  657MOL0     H90613  10.910  12.251  10.717 -0.9694 -0.2440  0.2817
  657MOL0     H90614  10.929  12.282  10.889 -0.8755 -0.9603  0.7575
  657MOL0     H90615  11.172  12.303  10.986  0.8378  0.9548  0.8682
  657MOL0     H90616  11.433  12.382  10.959  0.3133 -0.4527 -0.1440
  657MOL0     H90617  11.478  12.396  10.778 -0.2368 -2.0697 -1.4866
  657MOL0     H90618  11.489  12.146  10.937  0.5257  0.8389  1.4655
  657MOL0     H90619  11.540  12.156  10.784 -0.4687 -5.0959  3.7697
  657MOL0     H90620  11.741  12.299  10.868  0.0612  2.1731  0.9547
  657MOL0     H90621  11.660  12.334  11.007  1.6219 -3.1082  2.9332
  657MOL0     H90622  11.789  12.180  11.090 -2.3583 -1.3615  3.2406
  657MOL0     H90623  11.658  12.072  11.046 -1.2310  1.7004 -0.9060
  657MOL0     H90624  11.963  12.276  11.050  1.6555 -1.3765  3.2429
  657MOL0     H90625  12.293  12.293  11.122 -0.6828 -2.1055 -0.2310
  657MOL0     H90626  12.143  12.386  11.124  1.6106  0.1108  0.0358
  657MOL0     H90627  12.253  12.422  10.997  0.2338  0.8006  0.8229
  657MOL0     H90628  12.596  11.927  10.750 -3.0224  1.8186  2.2865
  657MOL0     H90629  12.833  11.933  10.690 -0.0623  0.3724  0.3141
  657MOL0     H90630  12.925  12.038  10.431  0.1794  2.4836 -6.0795
  657MOL0     H90631  12.962  12.207  10.420 -1.2811  1.0152  2.3858
  657MOL0     H90632  13.191  12.163  10.496 -0.7506  0.2845 -2.0549
  657MOL0     H90633  13.142  11.993  10.522 -2.0376  0.9885  2.2675
  657MOL0     H90634  13.187  12.149  10.248 -2.4066  0.1798 -0.7546
  657MOL0     H90635  13.079  12.017  10.262  0.4515  0.2389 -1.1451
  657MOL0     H90636  13.253  11.848  10.304 -2.0283 -0.7903 -3.1124
  657MOL0     H90637  13.382  11.976  10.333  1.1231 -1.5785 -1.0222
  657MOL0     H90638  13.219  11.960  10.087  0.8185  0.5044  1.4533
  657MOL0     H90639  13.351  12.062  10.113  0.1111  0.8156  0.2541
  657MOL0     H90640  13.417  11.872   9.977  0.5759  0.6317  0.4147
  657MOL0     H90641  13.369  11.758  10.109  1.8948  0.6321  3.7245
  657MOL0     H90642  13.545  11.827  10.243 -0.5808  2.1233  0.5179
  657MOL0     H90643  13.590  11.968  10.144  3.4785 -0.3765  1.1946
  657MOL0     H90644  13.654  11.842   9.971  0.4814  2.1366  1.2576
  657MOL0     H90645  13.603  11.686  10.035 -0.8664  1.6119 -5.5701
  657MOL0     H90646  12.824  12.348  10.622  0.0130  0.2593  0.2489
  657MOL0     H90647  12.574  12.345  10.674  0.6897  0.5670 -1.0773
  657MOL0     H90648  12.234  11.980  10.760  0.6953 -1.5219  2.0247
  657MOL0     H90649  11.991  11.955  10.790 -1.9584  0.4834  0.1698
  657MOL0     H90650  10.206  11.627  10.460  0.4048  0.7025 -2.5019
  657MOL0     H90651  10.134  11.414  10.536 -0.3125 -3.6698  0.0461
  657MOL0     H90652  10.031  11.034  10.497  0.0700  0.1426 -0.4501
  657MOL0     H90653   9.911  10.831  10.519  1.0680  1.8869 -2.3310
  657MOL0     H90654  10.116  10.449  10.547  1.0200 -1.7854  0.8693
  657MOL0     H90655  10.105  10.475  10.717 -1.1791 -0.4678  1.6745
  657MOL0     H90656   9.985  10.277  10.656  0.2082  0.5013 -1.9145
  657MOL0     H90657   9.901  10.351  10.521 -2.2568 -3.7119  0.4286
  657MOL0     H90658   9.854  10.373  10.829  2.5170 -0.5506 -0.3317
  657MOL0     H90659   9.752  10.465  10.708  0.9384  1.0413  0.8271
  657MOL0     H90660   9.650  10.290  10.619  1.7767  1.4130 -0.4711
  657MOL0     H90661   9.635  10.271  10.791 -0.8087 -0.1605 -0.1315
  657MOL0     H90662   9.795   9.905  10.701 -0.6518 -0.1307 -0.8138
  657MOL0     H90663  10.261  10.625  10.632  0.9309  0.8708 -0.5128
  657MOL0     H90664  10.502  10.872  10.581  1.2973 -1.2360  1.9686
  657MOL0     H90665  10.446  10.898  10.742 -0.7048 -1.8983  1.2271
  657MOL0     H90666  10.466  10.727  10.677 -1.2592 -0.3397 -0.6982
  658MOL0     O90667   3.271   7.617   1.165  0.0256  0.2964 -0.2212
  658MOL0     C90668   3.390   7.596   1.147  0.2416 -1.1499 -0.2999
  658MOL0     O90669   3.490   7.591   1.238 -0.2609 -0.3946  0.1920
  658MOL0     C90670   3.462   7.609   1.371 -0.1659 -0.2764  0.1192
  658MOL0     C90671   3.547   7.542   1.457  1.1591  0.4745  0.1430
  658MOL0     C90672   3.537   7.555   1.592  0.2238 -0.0500 -0.0134
  658MOL0     C90673   3.450   7.644   1.658  0.5049 -0.0144 -0.0936
  658MOL0     O90674   3.440   7.665   1.790 -0.2239 -0.4326  0.0049
  658MOL0     C90675   3.502   7.568   1.885  0.2991 -0.0032  0.6017
  658MOL0     C90676   3.567   7.629   2.005 -0.7604 -0.1577  0.5625
  658MOL0     C90677   3.666   7.730   1.948  0.2867 -0.1600 -1.0716
  658MOL0     C90678   3.746   7.808   2.056  0.3866  1.0050  0.5596
  658MOL0     C90679   3.835   7.720   2.139 -0.5785  1.1851 -0.0529
  658MOL0     C90680   3.912   7.806   2.244  0.4295  0.1173 -0.4129
  658MOL0     C90681   4.010   7.728   2.333 -0.3071  0.5251 -0.5555
  658MOL0     C90682   3.956   7.712   2.473 -0.0103 -0.5764  0.0219
  658MOL0     N90683   4.029   7.624   2.567  0.4914 -0.2394 -0.0038
  658MOL0     C90684   4.157   7.658   2.593  0.3143  0.1703 -0.3838
  658MOL0     C90685   4.224   7.545   2.623 -0.1562  0.6383  0.1902
  658MOL0     C90686   4.370   7.527   2.633  0.1759 -0.6564  0.5283
  658MOL0     C90687   4.445   7.583   2.507  0.6987  0.5789  0.1023
  658MOL0     C90688   4.434   7.493   2.388 -0.4396 -0.1324 -0.0871
  658MOL0     C90689   4.306   7.484   2.302 -0.5447  0.9618 -0.4225
  658MOL0     O90690   4.341   7.399   2.182 -0.7643  0.7153 -0.3326
  658MOL0     C90691   4.246   7.407   2.082 -0.7758 -0.5130 -0.0431
  658MOL0     C90692   4.114   7.387   2.097 -0.4281 -0.3341 -0.8375
  658MOL0     C90693   4.027   7.400   1.985 -0.0610 -0.5015 -0.3508
  658MOL0     C90694   3.880   7.382   2.013  0.1855 -0.6082 -0.9369
  658MOL0     C90695   4.072   7.413   1.855 -0.7526  0.8162 -0.0747
  658MOL0     C90696   3.989   7.426   1.732  0.1532  0.5787 -0.3904
  658MOL0     O90697   4.062   7.405   1.613 -0.3216 -0.2346 -0.0309
  658MOL0     C90698   4.000   7.440   1.497 -0.6328  0.3247  0.6723
  658MOL0     C90699   4.002   7.347   1.394  1.4918  0.4169  0.5158
  658MOL0     C90700   3.928   7.384   1.282  0.5860 -0.4024 -0.1615
  658MOL0     C90701   3.871   7.508   1.267 -0.8021  0.1918 -0.9053
  658MOL0     O90702   3.811   7.529   1.145 -0.4471 -0.1575  0.0894
  658MOL0     C90703   3.786   7.668   1.103  0.2625 -1.9213 -0.0842
  658MOL0     C90704   3.782   7.670   0.942  0.4306 -0.1818 -0.7958
  658MOL0     C90705   3.928   7.685   0.878 -0.1895 -0.6917 -1.6933
  658MOL0     C90706   3.987   7.833   0.898  1.0996  0.8738  0.3462
  658MOL0     C90707   4.117   7.858   0.823 -0.9423  0.9215 -0.1426
  658MOL0     C90708   4.234   7.767   0.875  0.5988  0.1617  0.1685
  658MOL0     C90709   4.372   7.832   0.868  0.1560 -0.2693  0.0479
  658MOL0     C90710   4.487   7.746   0.924  0.5705  0.4828 -0.7291
  658MOL0    Cl90711   4.645   7.820   0.933  0.7348 -0.2616 -0.1338
  658MOL0     C90712   3.889   7.604   1.364 -0.4225  0.4818  0.1845
  658MOL0     C90713   3.937   7.565   1.482 -0.1707 -0.0242 -0.5564
  658MOL0     O90714   3.873   7.459   1.744  0.0919  0.2018 -0.6141
  658MOL0     C90715   4.214   7.434   1.840  0.1358  0.3445 -0.2198
  658MOL0     C90716   4.298   7.428   1.952 -0.0124  0.9609  0.2592
  658MOL0     N90717   4.127   7.440   2.621 -0.1205  0.6465 -0.8577
  658MOL0     N90718   4.011   7.488   2.581  0.0406 -0.2421  0.0965
  658MOL0     C90719   3.367   7.711   1.561  0.5500  0.0474 -0.7209
  658MOL0     C90720   3.366   7.694   1.422 -0.4517  0.2672  0.4446
  658MOL0     C90721   3.419   7.544   1.020 -0.1663  0.3593  0.8990
  658MOL0     C90722   3.523   7.449   1.002 -0.1568  0.2288 -0.5958
  658MOL0     C90723   3.566   7.407   0.876 -0.1632 -0.1374  0.3107
  658MOL0     C90724   3.508   7.451   0.761 -0.4240  0.7872  0.2372
  658MOL0     O90725   3.557   7.394   0.649  0.2803 -0.2893  0.1183
  658MOL0     C90726   3.493   7.428   0.527 -0.8638 -0.8197  0.2894
  658MOL0     C90727   3.552   7.344   0.415  0.0058  0.3403  0.2738
  658MOL0     C90728   3.546   7.196   0.446  0.3371 -0.1255  0.1334
  658MOL0     C90729   3.411   7.128   0.470  0.7575 -0.2244  0.9496
  658MOL0     C90730   3.313   7.153   0.359 -0.0764 -0.3591 -0.2928
  658MOL0     C90731   3.219   7.175   0.285  0.7151 -0.1223  0.6333
  658MOL0     C90732   3.413   7.554   0.773  0.1025  0.2336 -0.2709
  658MOL0     C90733   3.370   7.604   0.895  0.2310  0.8112 -0.4058
  658MOL0     C90734   3.269   7.711   0.891 -0.1422  0.1272 -0.3630
  658MOL0     H90735   3.627   7.480   1.417 -0.6893 -2.6870  1.0144
  658MOL0     H90736   3.605   7.495   1.651  0.2716 -0.4383 -0.4613
  658MOL0     H90737   3.567   7.494   1.837 -1.6272 -0.8094 -0.9333
  658MOL0     H90738   3.419   7.505   1.919 -1.4922  0.0702 -3.1080
  658MOL0     H90739   3.497   7.691   2.062  3.5840  5.3213  0.8342
  658MOL0     H90740   3.612   7.555   2.072 -0.4630 -2.2713 -1.8053
  658MOL0     H90741   3.734   7.667   1.890 -2.6697 -2.4335 -2.3250
  658MOL0     H90742   3.631   7.809   1.881 -0.0100  3.5847  3.0047
  658MOL0     H90743   3.805   7.890   2.013  1.4138  0.0618  0.1302
  658MOL0     H90744   3.688   7.857   2.135 -1.1149 -1.9331  1.4441
  658MOL0     H90745   3.901   7.657   2.080 -1.5535  1.4731 -1.5038
  658MOL0     H90746   3.778   7.648   2.198  2.1024 -1.2714 -0.2496
  658MOL0     H90747   3.976   7.877   2.191  3.3623 -1.2090  1.1261
  658MOL0     H90748   3.838   7.865   2.300  0.8923  0.2403  0.0796
  658MOL0     H90749   4.104   7.783   2.332 -0.2422  0.4262 -0.0588
  658MOL0     H90750   4.037   7.628   2.296 -0.1787  0.9733 -1.7098
  658MOL0     H90751   3.966   7.808   2.524 -0.1261 -1.6603  2.1956
  658MOL0     H90752   3.852   7.677   2.468 -0.1383 -0.0597 -1.2296
  658MOL0     H90753   4.202   7.757   2.591 -1.2966  1.1193  2.7875
  658MOL0     H90754   4.399   7.423   2.650  2.2118 -0.1316  0.5131
  658MOL0     H90755   4.420   7.583   2.712  0.6036 -1.6846  1.0047
  658MOL0     H90756   4.397   7.678   2.481  0.5603  0.4273 -0.2037
  658MOL0     H90757   4.552   7.582   2.533  1.8360 -2.0266 -3.7564
  658MOL0     H90758   4.514   7.535   2.326 -1.2843  1.2627 -0.2838
  658MOL0     H90759   4.455   7.393   2.428  1.7458  0.6674  0.9212
  658MOL0     H90760   4.213   7.451   2.348 -1.0674  2.1025 -0.6429
  658MOL0     H90761   4.279   7.580   2.258 -0.7919  1.2725  0.4082
  658MOL0     H90762   4.069   7.369   2.194 -2.6227  0.2045 -1.7007
  658MOL0     H90763   3.824   7.469   1.978  1.2555  0.8668  0.8781
  658MOL0     H90764   3.860   7.371   2.120  1.6302 -1.9698 -0.7666
  658MOL0     H90765   3.831   7.304   1.954 -1.9601 -1.4362  1.7224
  658MOL0     H90766   4.051   7.251   1.412  1.8589  0.2740 -1.0903
  658MOL0     H90767   3.932   7.323   1.192  3.5711  2.1166 -1.9333
  658MOL0     H90768   3.692   7.701   1.149  0.8696  1.4894 -0.9883
  658MOL0     H90769   3.864   7.739   1.134 -1.4517 -1.4172  3.6111
  658MOL0     H90770   3.742   7.574   0.908 -0.5452 -0.8162  1.8600
  658MOL0     H90771   3.712   7.747   0.908 -3.4235 -3.4200 -1.0524
  658MOL0     H90772   3.905   7.672   0.772 -0.3971 -0.5753 -1.6628
  658MOL0     H90773   3.991   7.610   0.926 -0.4956 -0.1248 -0.3614
  658MOL0     H90774   4.006   7.865   1.001 -0.6484  1.2592  0.5890
  658MOL0     H90775   3.915   7.905   0.858 -0.4994  0.0495  1.5883
  658MOL0     H90776   4.095   7.838   0.718 -4.0329  0.9621  0.4088
  658MOL0     H90777   4.149   7.961   0.836 -3.1965  1.5960  0.5300
  658MOL0     H90778   4.226   7.674   0.818 -0.7846  0.5679 -0.3193
  658MOL0     H90779   4.203   7.732   0.974 -3.3247 -3.5387 -2.0368
  658MOL0     H90780   4.373   7.923   0.929 -1.2463 -0.4391  0.3503
  658MOL0     H90781   4.400   7.847   0.763 -2.2065 -1.5070 -0.8346
  658MOL0     H90782   4.476   7.658   0.860 -1.6682  0.6863 -0.7095
  658MOL0     H90783   4.462   7.725   1.028  1.7022 -3.1685 -1.0838
  658MOL0     H90784   3.866   7.709   1.345  3.0367  0.8282 -3.2110
  658MOL0     H90785   3.951   7.639   1.559  2.0564 -1.8599  0.9285
  658MOL0     H90786   4.260   7.448   1.743  0.3450  1.9736  0.0888
  658MOL0     H90787   4.404   7.445   1.936 -0.0469  1.4128  0.4812
  658MOL0     H90788   3.307   7.789   1.606 -0.7768 -2.2648  1.8242
  658MOL0     H90789   3.292   7.747   1.363 -0.2070 -0.4940 -0.5754
  658MOL0     H90790   3.566   7.400   1.089  0.0680  0.4754 -0.5676
  658MOL0     H90791   3.634   7.323   0.887 -1.3058 -0.8640  2.5036
  658MOL0     H90792   3.384   7.427   0.530 -0.8750  0.9547  1.5013
  658MOL0     H90793   3.530   7.528   0.502 -2.4905 -0.6783 -1.8178
  658MOL0     H90794   3.656   7.373   0.398  0.1831 -0.4586 -0.0617
  658MOL0     H90795   3.494   7.368   0.326  1.0527 -1.4515 -0.9655
  658MOL0     H90796   3.611   7.138   0.379  2.4277  0.4666  1.5466
  658MOL0     H90797   3.599   7.184   0.541 -2.1288  1.6577  1.8425
  658MOL0     H90798   3.373   7.156   0.569  0.6487  2.0349  0.3344
  658MOL0     H90799   3.430   7.020   0.476 -0.4402 -0.5347 -0.2908
  658MOL0     H90800   3.145   7.200   0.212  1.1085  3.9325  1.4236
  658MOL0     H90801   3.378   7.601   0.681  1.1195 -0.5028 -1.0531
  658MOL0     H90802   3.298   7.781   0.812  1.4115 -0.1401 -0.0655
  658MOL0     H90803   3.177   7.660   0.862  1.6873 -2.8832 -1.2471
  658MOL0     H90804   3.250   7.774   0.979 -0.0730  0.6337 -0.7090
  659MOL0     O90805   9.546   8.908   2.001 -0.8944 -0.0747 -0.1749
  659MOL0     C90806   9.496   8.820   2.077  0.2744  0.2264  0.3470
  659MOL0     O90807   9.553   8.754   2.179 -0.0974  0.1837  0.0336
  659MOL0     C90808   9.686   8.775   2.209 -0.0191 -0.3699  0.3244
  659MOL0     C90809   9.790   8.823   2.126 -0.8626 -0.2364 -0.8286
  659MOL0     C90810   9.921   8.809   2.180  0.5126 -0.1743  0.0750
  659MOL0     C90811   9.950   8.769   2.310 -0.0655  0.8126 -0.2266
  659MOL0     O90812  10.082   8.768   2.355  0.6087  0.4674  0.4845
  659MOL0     C90813  10.119   8.697   2.466  0.8264 -0.0974 -1.1831
  659MOL0     C90814  10.268   8.686   2.475 -0.0260  0.5593  0.9580
  659MOL0     C90815  10.334   8.824   2.459  0.8776 -0.2779 -0.0579
  659MOL0     C90816  10.482   8.817   2.507 -0.0152  0.6301  0.3027
  659MOL0     C90817  10.572   8.727   2.422 -0.1437  0.1923  0.3980
  659MOL0     C90818  10.720   8.719   2.476  0.5429  0.1978  2.0065
  659MOL0     C90819  10.820   8.680   2.373  0.5792 -0.3251 -0.2859
  659MOL0     C90820  10.818   8.764   2.247  0.0053  0.5630  0.4903
  659MOL0     N90821  10.956   8.779   2.198 -0.0397 -0.2420  0.7502
  659MOL0     C90822  11.011   8.711   2.092 -0.0332 -0.4894 -0.5090
  659MOL0     C90823  11.141   8.752   2.077  0.0034  0.4074 -0.7844
  659MOL0     C90824  11.238   8.713   1.970 -0.6582  0.5922  0.1615
  659MOL0     C90825  11.295   8.574   1.999  0.4373  0.3028  0.7835
  659MOL0     C90826  11.328   8.505   1.864 -0.2289 -1.6240 -0.2944
  659MOL0     C90827  11.353   8.358   1.893  0.0961 -0.0695  0.0256
  659MOL0     O90828  11.475   8.337   1.968 -0.0783  1.1646 -0.0150
  659MOL0     C90829  11.590   8.304   1.901 -0.6992  0.7909  0.0380
  659MOL0     C90830  11.700   8.273   1.995  0.4904  0.1934  0.0464
  659MOL0     C90831  11.825   8.225   1.942  0.5566 -0.5785 -0.3456
  659MOL0     C90832  11.919   8.190   2.056 -0.3765  0.7966  1.2495
  659MOL0     C90833  11.845   8.215   1.805  0.5219 -0.8121 -0.1604
  659MOL0     C90834  11.963   8.151   1.745  0.9824 -0.8821 -0.2105
  659MOL0     O90835  12.080   8.139   1.819 -0.2983 -0.0821 -0.0086
  659MOL0     C90836  12.154   8.035   1.786 -0.1887  0.2712  0.6923
  659MOL0     C90837  12.114   7.905   1.824  0.1594 -0.5412 -0.6085
  659MOL0     C90838  12.201   7.797   1.792 -0.2033  0.5416 -0.4814
  659MOL0     C90839  12.318   7.817   1.722  0.0526  0.1717  0.3076
  659MOL0     O90840  12.392   7.705   1.689 -0.2393 -0.0846 -0.4878
  659MOL0     C90841  12.537   7.718   1.653 -0.8679  0.4310  0.2216
  659MOL0     C90842  12.586   7.577   1.642  0.3953  0.9177  0.0804
  659MOL0     C90843  12.728   7.550   1.588  0.0822 -0.7744 -0.0774
  659MOL0     C90844  12.750   7.614   1.449  0.1866  0.0067  0.6261
  659MOL0     C90845  12.886   7.588   1.373  0.1011  0.6495 -0.1253
  659MOL0     C90846  12.890   7.443   1.322 -0.0357 -0.2189 -0.3682
  659MOL0     C90847  13.030   7.412   1.258  0.5078  0.1080  0.2914
  659MOL0     C90848  13.024   7.270   1.210  1.0963  0.0726  0.5864
  659MOL0    Cl90849  12.947   7.265   1.041  0.1596 -0.1296 -0.6247
  659MOL0     C90850  12.344   7.945   1.679 -0.7834  0.0593  0.7546
  659MOL0     C90851  12.269   8.058   1.717 -0.3232  0.8775  1.0366
  659MOL0     O90852  11.945   8.104   1.632 -0.4816 -0.6190 -0.0013
  659MOL0     C90853  11.739   8.256   1.720  0.9580 -0.3922  0.7856
  659MOL0     C90854  11.609   8.287   1.763 -0.3728 -0.1099 -0.4922
  659MOL0     N90855  11.146   8.860   2.161 -0.4524 -0.6438  0.3224
  659MOL0     N90856  11.043   8.874   2.233 -0.7903  0.4536 -0.1786
  659MOL0     C90857   9.843   8.740   2.398  0.5191 -0.8282 -0.0102
  659MOL0     C90858   9.713   8.744   2.346 -0.2823  0.0090 -0.7025
  659MOL0     C90859   9.351   8.798   2.049 -0.4525 -0.3491  1.0785
  659MOL0     C90860   9.300   8.812   1.913  0.3251  0.4771  0.6017
  659MOL0     C90861   9.170   8.799   1.880 -0.1045  0.9316  0.7720
  659MOL0     C90862   9.076   8.752   1.977 -1.0098  0.5365  0.1258
  659MOL0     O90863   8.952   8.711   1.943  0.8167  0.7802 -1.0537
  659MOL0     C90864   8.919   8.656   1.818  0.2966  0.7119 -0.2154
  659MOL0     C90865   8.800   8.554   1.842 -0.3048  0.1941 -0.1702
  659MOL0     C90866   8.774   8.459   1.723 -0.3821  0.9261  0.2571
  659MOL0     C90867   8.890   8.374   1.688 -0.3173  0.3783 -0.4639
  659MOL0     C90868   8.924   8.282   1.804  0.1273  0.1435 -0.7483
  659MOL0     C90869   8.943   8.193   1.886  0.0959  0.2176  0.0474
  659MOL0     C90870   9.119   8.750   2.109  0.4400 -0.1146 -0.5396
  659MOL0     C90871   9.252   8.771   2.149 -0.4896 -0.5251 -0.7569
  659MOL0     C90872   9.293   8.756   2.295  0.7270 -0.5569  0.0600
  659MOL0     H90873   9.777   8.859   2.025 -0.1052 -0.1139 -0.8901
  659MOL0     H90874  10.005   8.831   2.115  0.2922  0.2464 -0.0681
  659MOL0     H90875  10.078   8.595   2.463  1.6963 -0.4425 -3.7753
  659MOL0     H90876  10.090   8.758   2.552 -2.0686 -3.0290  0.1400
  659MOL0     H90877  10.305   8.656   2.573 -4.4480  1.1356  3.0710
  659MOL0     H90878  10.294   8.611   2.401  2.3269  1.5220  0.7231
  659MOL0     H90879  10.341   8.847   2.352 -0.5447 -1.2058 -0.3721
  659MOL0     H90880  10.270   8.893   2.515 -0.2362 -3.1308  2.5130
  659MOL0     H90881  10.526   8.915   2.487  2.6180 -0.4995  0.1196
  659MOL0     H90882  10.476   8.776   2.608  2.1666  0.7787  0.5313
  659MOL0     H90883  10.571   8.750   2.315  1.9657 -0.1357  0.2659
  659MOL0     H90884  10.542   8.623   2.433 -1.0003  0.5810  2.1680
  659MOL0     H90885  10.742   8.815   2.524  0.2135  0.2962  1.9632
  659MOL0     H90886  10.723   8.642   2.554  0.2896 -1.6867  0.2432
  659MOL0     H90887  10.806   8.575   2.345 -0.8780  0.2143 -1.7195
  659MOL0     H90888  10.917   8.689   2.423 -0.8527  1.7370  2.3748
  659MOL0     H90889  10.756   8.715   2.171  3.4714  0.7783 -2.8028
  659MOL0     H90890  10.768   8.860   2.260 -1.7087 -0.4232  1.6329
  659MOL0     H90891  10.954   8.645   2.028  0.1624 -0.6348 -0.5349
  659MOL0     H90892  11.315   8.788   1.991 -1.4984  0.9541  2.1822
  659MOL0     H90893  11.191   8.725   1.873  0.5238  0.7774 -0.4068
  659MOL0     H90894  11.395   8.581   2.043  1.0629 -0.2568 -0.5020
  659MOL0     H90895  11.223   8.523   2.063 -1.7146  1.8920 -0.2476
  659MOL0     H90896  11.239   8.524   1.803  1.5031  0.4549 -2.3818
  659MOL0     H90897  11.410   8.540   1.801 -1.1093 -0.8108 -1.0232
  659MOL0     H90898  11.268   8.322   1.952 -1.0310  1.5259 -0.5412
  659MOL0     H90899  11.349   8.310   1.795  1.8482 -0.1176 -0.0408
  659MOL0     H90900  11.689   8.267   2.103 -0.0867  3.8529  0.3402
  659MOL0     H90901  11.972   8.097   2.032  0.4438  1.7089 -0.6312
  659MOL0     H90902  11.857   8.160   2.141  0.2179  0.8013  1.6891
  659MOL0     H90903  11.997   8.262   2.081  0.2860 -0.3637  2.6585
  659MOL0     H90904  12.015   7.899   1.869  0.1039 -0.7393 -0.7528
  659MOL0     H90905  12.183   7.696   1.829  0.2453 -0.4491 -2.7963
  659MOL0     H90906  12.555   7.764   1.555  0.3962 -0.1153  0.1796
  659MOL0     H90907  12.589   7.778   1.729  0.1138 -1.9325  1.5274
  659MOL0     H90908  12.587   7.537   1.744  2.4009  0.2537 -0.1426
  659MOL0     H90909  12.512   7.522   1.583  0.9329 -0.0251  0.2552
  659MOL0     H90910  12.734   7.441   1.597 -1.6933 -0.8878 -0.0263
  659MOL0     H90911  12.804   7.589   1.657 -0.8536 -0.3438  0.7409
  659MOL0     H90912  12.749   7.723   1.452  1.0496  0.2041 -2.4788
  659MOL0     H90913  12.659   7.594   1.392  0.2934 -0.3037  0.5612
  659MOL0     H90914  12.903   7.658   1.291  0.5331  1.1622  0.3856
  659MOL0     H90915  12.953   7.613   1.456 -0.5916  1.2305  0.2719
  659MOL0     H90916  12.812   7.435   1.246 -0.8631 -1.4877  0.5609
  659MOL0     H90917  12.864   7.375   1.404 -0.1404 -0.4884 -0.6231
  659MOL0     H90918  13.117   7.434   1.321  3.0295 -0.4277 -2.7699
  659MOL0     H90919  13.040   7.479   1.172 -0.4571  1.0821  0.9159
  659MOL0     H90920  12.971   7.203   1.278 -1.9276  1.0087 -0.7158
  659MOL0     H90921  13.129   7.238   1.202  1.5420  1.2038  1.5503
  659MOL0     H90922  12.427   7.958   1.611  0.0825  0.8911  1.9236
  659MOL0     H90923  12.305   8.158   1.691 -0.2438  0.3526 -1.0663
  659MOL0     H90924  11.755   8.259   1.613  1.3138 -1.3574  0.8069
  659MOL0     H90925  11.533   8.315   1.692  1.0441  2.7620 -1.0012
  659MOL0     H90926   9.880   8.708   2.495  1.5346 -0.0092 -0.1050
  659MOL0     H90927   9.641   8.693   2.409  1.2673 -0.8875  0.4423
  659MOL0     H90928   9.367   8.834   1.831 -1.5047  3.1723 -0.3321
  659MOL0     H90929   9.142   8.814   1.776 -1.2499  1.4280  1.1333
  659MOL0     H90930   8.894   8.742   1.756  0.5684  1.5323  0.7922
  659MOL0     H90931   9.005   8.604   1.773  0.9258  0.1571  1.5298
  659MOL0     H90932   8.711   8.613   1.867 -1.0253 -1.3406  1.0228
  659MOL0     H90933   8.829   8.497   1.930  0.8126  1.9480  0.6575
  659MOL0     H90934   8.689   8.398   1.754  0.9176 -1.5578 -0.7626
  659MOL0     H90935   8.750   8.524   1.638 -0.4373  1.5028  0.7114
  659MOL0     H90936   8.974   8.434   1.650 -0.2728 -1.0318 -2.7928
  659MOL0     H90937   8.860   8.305   1.609 -2.8605 -0.3467  1.0178
  659MOL0     H90938   8.970   8.112   1.951 -0.3920  1.2828  1.6373
  659MOL0     H90939   9.046   8.736   2.188  1.3062 -0.6969  0.1769
  659MOL0     H90940   9.329   8.853   2.331  0.8361 -1.0596  1.3839
  659MOL0     H90941   9.207   8.730   2.358 -0.8379  0.7900 -1.4258
  659MOL0     H90942   9.361   8.671   2.303 -0.5674 -1.6151  0.1824
  660MOL0     O90943   4.819   9.020   8.204 -0.7637  0.3759 -0.2683
  660MOL0     C90944   4.745   9.121   8.199 -0.8638 -0.3668 -0.4389
  660MOL0     O90945   4.796   9.251   8.228 -0.2120  0.2705 -0.4235
  660MOL0     C90946   4.919   9.262   8.285  0.6586 -0.3490 -0.4247
  660MOL0     C90947   4.916   9.375   8.366 -0.2099 -1.1024 -0.5223
  660MOL0     C90948   5.027   9.407   8.443 -0.3423  0.0639  0.4379
  660MOL0     C90949   5.153   9.342   8.419  0.1103 -0.0442 -0.1869
  660MOL0     O90950   5.278   9.379   8.463 -0.2572  0.0022  0.7839
  660MOL0     C90951   5.298   9.509   8.518  0.4267  0.6618 -0.1962
  660MOL0     C90952   5.444   9.554   8.506  1.7100  0.6965  0.4119
  660MOL0     C90953   5.542   9.479   8.599  0.1456  0.1586  0.9255
  660MOL0     C90954   5.674   9.552   8.609  0.3950  0.3964  0.6252
  660MOL0     C90955   5.781   9.475   8.674  0.8141 -0.4970  0.4253
  660MOL0     C90956   5.854   9.376   8.594 -0.4007  0.4626  0.4076
  660MOL0     C90957   6.000   9.403   8.561  0.1182  0.2053 -1.1613
  660MOL0     C90958   6.081   9.425   8.692  0.0393  0.5364 -0.0595
  660MOL0     N90959   6.223   9.410   8.677 -0.2046 -0.4590 -0.1643
  660MOL0     C90960   6.308   9.518   8.648 -0.9720  0.1351  0.1801
  660MOL0     C90961   6.434   9.457   8.669 -0.2924 -0.6036  0.6334
  660MOL0     C90962   6.560   9.539   8.670  0.1588 -0.1360 -0.1440
  660MOL0     C90963   6.611   9.556   8.528 -0.9927  0.1558  0.1719
  660MOL0     C90964   6.723   9.649   8.524 -0.5204 -0.1172  0.6762
  660MOL0     C90965   6.805   9.617   8.399  0.6670  0.0605  0.3112
  660MOL0     O90966   6.862   9.479   8.412  0.4008  0.3426  0.2517
  660MOL0     C90967   6.985   9.458   8.345  0.6610  1.3037 -0.3854
  660MOL0     C90968   6.997   9.368   8.238 -0.5526  0.1495  0.0553
  660MOL0     C90969   7.119   9.359   8.173 -1.7324 -0.0729  0.2053
  660MOL0     C90970   7.133   9.264   8.056 -0.1033 -0.0277 -0.2740
  660MOL0     C90971   7.231   9.427   8.232  0.3559 -0.6026  0.2138
  660MOL0     C90972   7.359   9.426   8.170 -0.0055 -0.3029  0.8015
  660MOL0     O90973   7.398   9.313   8.104  0.4073  0.0783  0.5402
  660MOL0     C90974   7.515   9.329   8.039  0.2835 -0.0222  0.4966
  660MOL0     C90975   7.638   9.301   8.111  0.2172  0.5060  0.4613
  660MOL0     C90976   7.761   9.314   8.046 -0.2078  0.9501 -0.2559
  660MOL0     C90977   7.769   9.359   7.912  0.4945 -0.0854 -0.5583
  660MOL0     O90978   7.897   9.383   7.863 -1.1301 -0.4720 -0.1775
  660MOL0     C90979   7.918   9.412   7.724 -0.9058  0.2362  0.4573
  660MOL0     C90980   7.888   9.280   7.651 -0.5235  0.6855  0.0256
  660MOL0     C90981   7.998   9.177   7.682 -0.3995  0.1561  0.7185
  660MOL0     C90982   8.010   9.061   7.580 -0.6656 -0.5401 -0.2016
  660MOL0     C90983   8.130   8.971   7.613 -0.1329  0.4557 -0.2667
  660MOL0     C90984   8.253   9.037   7.562  0.2649 -0.2204  0.5440
  660MOL0     C90985   8.343   8.926   7.496  0.6699  0.0022 -0.1219
  660MOL0     C90986   8.453   8.990   7.407 -0.6584  0.1576 -0.0419
  660MOL0    Cl90987   8.395   9.114   7.292  0.1795 -0.0931 -0.0725
  660MOL0     C90988   7.648   9.399   7.850  0.1008  1.0329  0.4257
  660MOL0     C90989   7.522   9.389   7.913  0.4264  0.1028 -0.3642
  660MOL0     O90990   7.422   9.532   8.177  0.0818 -0.0647 -0.0574
  660MOL0     C90991   7.217   9.513   8.344 -0.2736  0.2323  0.2598
  660MOL0     C90992   7.092   9.528   8.395 -0.7979  0.5371 -0.2017
  660MOL0     N90993   6.424   9.327   8.709 -0.4302  0.0925  0.6434
  660MOL0     N90994   6.303   9.303   8.711  0.0591 -0.4941 -0.1806
  660MOL0     C90995   5.152   9.225   8.340  0.4148 -0.2064  0.3880
  660MOL0     C90996   5.040   9.185   8.278 -0.2815 -0.3993  0.5387
  660MOL0     C90997   4.611   9.116   8.148  0.6263 -0.5145  0.6345
  660MOL0     C90998   4.517   9.187   8.222  0.0564  0.6082 -0.0340
  660MOL0     C90999   4.390   9.196   8.181  1.1083  0.3746  0.3468
  660MOL0     C91000   4.352   9.147   8.054 -0.3981  0.3334 -0.1134
  660MOL0     O91001   4.222   9.143   8.004  0.4191  0.6857 -0.2597
  660MOL0     C91002   4.098   9.197   8.068 -0.4023  0.4000 -0.2121
  660MOL0     C91003   3.979   9.129   7.999  0.2241  0.2864 -0.1387
  660MOL0     C91004   3.844   9.187   8.055  0.4069  0.2204  0.4873
  660MOL0     C91005   3.721   9.113   7.990 -0.4678 -0.0116 -0.6111
  660MOL0     C91006   3.709   8.972   8.030  0.5430  0.4573  0.2333
  660MOL0     C91007   3.682   8.862   8.047 -0.5180  0.2803  0.4125
  660MOL0     C91008   4.446   9.074   7.978  1.1523  0.7544  0.0616
  660MOL0     C91009   4.574   9.062   8.027  0.1678  0.4884  0.0492
  660MOL0     C91010   4.674   8.976   7.945  1.0492 -0.2491  0.4913
  660MOL0     H91011   4.830   9.440   8.378  1.0737  0.5202  0.2567
  660MOL0     H91012   5.018   9.499   8.499  1.0624  0.8122 -0.5260
  660MOL0     H91013   5.268   9.518   8.623 -0.1692  0.3732 -0.3385
  660MOL0     H91014   5.235   9.585   8.470 -0.2663 -0.2821 -0.7934
  660MOL0     H91015   5.480   9.558   8.403 -1.6119  1.1877 -0.8782
  660MOL0     H91016   5.440   9.661   8.531 -1.3854  1.6758 -3.1550
  660MOL0     H91017   5.504   9.446   8.695  1.4333  0.2685  1.4938
  660MOL0     H91018   5.554   9.387   8.542 -0.1166 -1.4030  3.2872
  660MOL0     H91019   5.712   9.578   8.509  1.1758 -2.7148  0.0144
  660MOL0     H91020   5.655   9.639   8.673  3.1747  0.4640  1.4836
  660MOL0     H91021   5.747   9.429   8.767 -0.2926  0.0976  0.3284
  660MOL0     H91022   5.849   9.558   8.694 -0.6010  0.8780 -0.2293
  660MOL0     H91023   5.859   9.275   8.635 -3.6688  0.3886  0.8535
  660MOL0     H91024   5.811   9.374   8.494 -1.0339  0.6351  0.6719
  660MOL0     H91025   5.999   9.495   8.502  0.3231  1.2814  0.4636
  660MOL0     H91026   6.035   9.322   8.495 -3.6518 -1.3618 -1.4650
  660MOL0     H91027   6.062   9.525   8.729  2.1473 -0.0233  2.8620
  660MOL0     H91028   6.051   9.352   8.768  3.8916  0.2416  1.4404
  660MOL0     H91029   6.287   9.620   8.617  0.3721  0.9040  1.6220
  660MOL0     H91030   6.644   9.488   8.718  2.4776  1.1658 -2.5774
  660MOL0     H91031   6.539   9.635   8.718  0.0593  0.9079 -2.1827
  660MOL0     H91032   6.645   9.457   8.499  0.1851  0.5714  0.0947
  660MOL0     H91033   6.542   9.601   8.456 -0.0155 -1.0230 -1.5393
  660MOL0     H91034   6.688   9.753   8.532 -0.5783 -0.2314  2.4426
  660MOL0     H91035   6.792   9.639   8.608 -1.9693 -1.0257  1.8093
  660MOL0     H91036   6.757   9.629   8.301  2.4391  1.7253 -0.4276
  660MOL0     H91037   6.884   9.693   8.389  1.3962 -0.9597 -2.8897
  660MOL0     H91038   6.915   9.332   8.177 -0.9007  2.0845 -0.7016
  660MOL0     H91039   7.039   9.222   8.019 -0.3560 -0.2339  0.5811
  660MOL0     H91040   7.193   9.178   8.088 -2.5988 -0.7703  2.9187
  660MOL0     H91041   7.189   9.308   7.973  1.1312 -0.7708  0.1472
  660MOL0     H91042   7.648   9.272   8.215 -0.2238  1.5228  0.7953
  660MOL0     H91043   7.857   9.285   8.087 -0.2442 -0.0600 -0.8289
  660MOL0     H91044   7.877   9.502   7.678  1.1126  0.3295 -1.2574
  660MOL0     H91045   8.026   9.427   7.717 -0.8733 -0.5108 -0.9791
  660MOL0     H91046   7.786   9.246   7.672 -0.2685 -1.2771 -1.5011
  660MOL0     H91047   7.892   9.308   7.545  0.2521  3.0004  0.6164
  660MOL0     H91048   7.981   9.134   7.781  0.4048  1.8094  1.6052
  660MOL0     H91049   8.096   9.225   7.680 -0.4976  0.4075 -2.0672
  660MOL0     H91050   8.015   9.095   7.477 -1.0590 -0.7688 -0.2995
  660MOL0     H91051   7.924   8.994   7.594  0.5770 -1.8424  1.6907
  660MOL0     H91052   8.134   8.948   7.720  0.9724  2.5971  0.2216
  660MOL0     H91053   8.111   8.874   7.568  2.9939  1.0873 -3.4174
  660MOL0     H91054   8.309   9.087   7.642 -2.0065  0.7599  1.6101
  660MOL0     H91055   8.231   9.119   7.493  3.4438 -1.2695 -1.9937
  660MOL0     H91056   8.280   8.864   7.432 -1.5319 -1.6318  3.3221
  660MOL0     H91057   8.383   8.855   7.570 -0.6795  1.1022  1.7691
  660MOL0     H91058   8.500   8.903   7.362 -2.0558 -1.7270  1.9091
  660MOL0     H91059   8.511   9.053   7.475 -0.0565  0.3983 -0.7676
  660MOL0     H91060   7.653   9.445   7.752  0.6330 -1.2345 -0.6717
  660MOL0     H91061   7.428   9.416   7.865  0.4733 -0.3264 -0.7099
  660MOL0     H91062   7.302   9.572   8.375 -0.8365  0.6428  1.0762
  660MOL0     H91063   7.064   9.595   8.476  1.9143  1.9759 -0.3250
  660MOL0     H91064   5.233   9.156   8.320  2.8113  1.6766  2.7056
  660MOL0     H91065   5.031   9.089   8.228 -3.4093 -0.7388  1.5279
  660MOL0     H91066   4.547   9.219   8.321  3.8070 -3.3653  0.3707
  660MOL0     H91067   4.323   9.264   8.233  1.0540 -0.6022  1.5874
  660MOL0     H91068   4.093   9.157   8.170  1.6199 -0.8181 -0.5396
  660MOL0     H91069   4.093   9.306   8.062  1.3107  0.5261  0.0946
  660MOL0     H91070   3.970   9.024   8.029  2.5390 -0.1027 -0.6575
  660MOL0     H91071   3.986   9.140   7.891 -0.8237  1.2382 -0.1371
  660MOL0     H91072   3.844   9.174   8.164 -4.1253  0.4172  0.6759
  660MOL0     H91073   3.844   9.294   8.032 -2.9739 -0.1739 -2.0362
  660MOL0     H91074   3.747   9.113   7.884 -0.5279  3.4892 -0.7324
  660MOL0     H91075   3.622   9.157   8.006 -1.6646 -2.7637  0.2155
  660MOL0     H91076   3.674   8.760   8.079  1.2063  0.3306  1.0542
  660MOL0     H91077   4.416   9.032   7.883 -0.8902  2.2748 -0.0431
  660MOL0     H91078   4.720   8.902   8.011  4.2056  0.5911 -0.5716
  660MOL0     H91079   4.629   8.937   7.853  1.0738 -0.1291  0.4274
  660MOL0     H91080   4.763   9.031   7.912  0.9762  1.2222  2.5239
  661MOL0     O91081   4.650   0.008   3.649  0.1519 -0.0485 -0.0059
  661MOL0     C91082   4.660  -0.051   3.749  1.2902  0.2016 -0.5461
  661MOL0     O91083   4.764  -0.044   3.830  0.4209  0.3321  0.9040
  661MOL0     C91084   4.890  -0.003   3.782 -0.1172  0.9150  0.1217
  661MOL0     C91085   4.979   0.053   3.875 -0.3709 -0.1452  0.1386
  661MOL0     C91086   5.109   0.096   3.840 -0.0289  0.4120 -1.2929
  661MOL0     C91087   5.148   0.080   3.709  0.3132  0.3350  0.4318
  661MOL0     O91088   5.272   0.119   3.658 -1.2565  0.2978 -0.1769
  661MOL0     C91089   5.394   0.092   3.729  0.0224 -0.2351 -0.5410
  661MOL0     C91090   5.460   0.229   3.740 -0.6012  0.4298 -0.0307
  661MOL0     C91091   5.394   0.322   3.837  0.4705  0.4660 -0.0946
  661MOL0     C91092   5.447   0.309   3.978 -0.1387  0.6364  0.1023
  661MOL0     C91093   5.391   0.418   4.064  0.4239 -0.0531  0.4157
  661MOL0     C91094   5.441   0.557   4.023  1.0826  0.7800  0.1582
  661MOL0     C91095   5.589   0.572   4.026  0.4922 -0.3148  0.8301
  661MOL0     C91096   5.641   0.548   4.171  1.1495 -0.8525  0.1167
  661MOL0     N91097   5.768   0.612   4.210 -0.9323 -0.6803 -0.0618
  661MOL0     C91098   5.881   0.606   4.129  0.1617  0.0547 -0.2279
  661MOL0     C91099   5.974   0.678   4.195  0.1759  0.5316 -0.2135
  661MOL0     C91100   6.107   0.730   4.146 -0.1733  0.4818 -0.5926
  661MOL0     C91101   6.154   0.657   4.017  0.5715  0.0720  0.0478
  661MOL0     C91102   6.153   0.505   4.002 -1.4658  0.7550  0.3860
  661MOL0     C91103   6.126   0.462   3.858 -0.5955 -0.6360  0.0507
  661MOL0     O91104   5.984   0.498   3.828 -0.4456  0.2367  0.4421
  661MOL0     C91105   5.941   0.506   3.695  0.3912  0.0069 -0.9244
  661MOL0     C91106   6.018   0.575   3.598 -0.1844  0.4531  0.2984
  661MOL0     C91107   5.966   0.588   3.466 -0.2207 -0.1267  0.6430
  661MOL0     C91108   6.063   0.654   3.369  0.5238  0.2473 -0.0444
  661MOL0     C91109   5.838   0.539   3.431  0.4799 -0.2712  0.1863
  661MOL0     C91110   5.786   0.557   3.296 -0.0064  0.2456 -0.9513
  661MOL0     O91111   5.701   0.461   3.252 -0.8429  0.2181 -0.1043
  661MOL0     C91112   5.626   0.477   3.140  0.3747  0.3430  0.8812
  661MOL0     C91113   5.489   0.477   3.148  0.0195 -0.4407 -0.4584
  661MOL0     C91114   5.405   0.477   3.032 -0.6242 -0.6393  0.2710
  661MOL0     C91115   5.468   0.487   2.910 -0.2949  0.1964 -0.3012
  661MOL0     O91116   5.391   0.483   2.801 -0.4713 -0.1827 -0.1018
  661MOL0     C91117   5.325   0.356   2.772  0.8751  0.4233 -0.3996
  661MOL0     C91118   5.181   0.388   2.772  0.0297  0.2937 -0.1606
  661MOL0     C91119   5.133   0.467   2.655 -0.0263 -0.6615  0.6509
  661MOL0     C91120   4.983   0.468   2.635  0.5869  0.2336  0.7521
  661MOL0     C91121   4.950   0.497   2.487 -0.3580 -0.5890 -0.1535
  661MOL0     C91122   5.008   0.624   2.419 -0.1283 -0.3670  0.2981
  661MOL0     C91123   4.947   0.651   2.280 -0.1846 -0.5166 -0.6214
  661MOL0     C91124   4.992   0.791   2.239  0.6210 -0.2287 -0.0500
  661MOL0    Cl91125   5.176   0.804   2.224  0.0420 -0.1174  0.6308
  661MOL0     C91126   5.608   0.505   2.902 -0.0926 -0.7387 -0.0565
  661MOL0     C91127   5.688   0.505   3.015 -0.0510 -0.3144 -0.5608
  661MOL0     O91128   5.812   0.652   3.225 -0.1394 -0.0724  0.3204
  661MOL0     C91129   5.766   0.463   3.531 -0.2659  0.9288  0.4718
  661MOL0     C91130   5.818   0.447   3.657  0.2810  0.4675 -0.4156
  661MOL0     N91131   5.917   0.721   4.309  0.6548  0.1597  0.2770
  661MOL0     N91132   5.794   0.697   4.315  0.4304 -0.0448  0.7862
  661MOL0     C91133   5.062   0.015   3.622 -0.5218 -1.2813  0.1964
  661MOL0     C91134   4.937  -0.019   3.652  0.3376  0.4484 -0.1873
  661MOL0     C91135   4.564  -0.157   3.779  1.2797  0.3467  0.3734
  661MOL0     C91136   4.597  -0.267   3.856  0.0725  0.5253 -0.2176
  661MOL0     C91137   4.516  -0.382   3.863  0.4944 -0.6454  0.3542
  661MOL0     C91138   4.386  -0.381   3.818  0.1033  0.8308  0.5662
  661MOL0     O91139   4.316  -0.504   3.837 -0.1895  0.9155  0.0927
  661MOL0     C91140   4.176  -0.495   3.817 -0.4928 -0.5512  0.7952
  661MOL0     C91141   4.111  -0.624   3.883 -1.1783 -0.2965  0.1298
  661MOL0     C91142   3.956  -0.617   3.864 -1.1070  0.2790 -0.0177
  661MOL0     C91143   3.899  -0.766   3.856  0.0024  0.3238 -0.0050
  661MOL0     C91144   3.946  -0.834   3.732  0.7072  0.2337  1.0905
  661MOL0     C91145   3.979  -0.896   3.625  0.1409 -0.4917 -0.3222
  661MOL0     C91146   4.342  -0.266   3.741  0.3450  0.7827  0.5568
  661MOL0     C91147   4.436  -0.161   3.715  0.5571  0.5743 -0.3250
  661MOL0     C91148   4.384  -0.058   3.621  0.1759 -0.5201  0.3089
  661MOL0     H91149   4.961   0.070   3.981  1.0714  4.0305 -0.0968
  661MOL0     H91150   5.175   0.144   3.912 -1.9655  1.1340  0.0919
  661MOL0     H91151   5.449   0.018   3.671  1.7087 -0.0393  0.7527
  661MOL0     H91152   5.380   0.045   3.826 -1.6070  1.8716  0.3226
  661MOL0     H91153   5.558   0.193   3.772 -0.2814  0.5310 -0.8732
  661MOL0     H91154   5.476   0.277   3.643 -0.3312  2.0766  0.7871
  661MOL0     H91155   5.445   0.413   3.806  1.4991  0.8480  2.5385
  661MOL0     H91156   5.285   0.327   3.828  0.4940  1.6841  0.2046
  661MOL0     H91157   5.423   0.215   4.029 -2.6460  2.6167  2.9276
  661MOL0     H91158   5.556   0.307   3.970 -0.2057 -1.9770 -1.1781
  661MOL0     H91159   5.425   0.404   4.167 -0.5367  3.5408  1.3398
  661MOL0     H91160   5.282   0.414   4.068  0.3884  1.2908  3.2318
  661MOL0     H91161   5.414   0.579   3.919 -1.6697  0.3813  0.7137
  661MOL0     H91162   5.388   0.630   4.084 -1.7600 -1.1894  0.2339
  661MOL0     H91163   5.621   0.672   3.997 -2.7685  0.1881 -1.5935
  661MOL0     H91164   5.634   0.506   3.952  0.4096  3.9229 -3.4287
  661MOL0     H91165   5.565   0.595   4.235  0.3454 -1.0067 -0.7061
  661MOL0     H91166   5.656   0.440   4.180 -1.6872 -1.2620  0.9490
  661MOL0     H91167   5.880   0.570   4.026  0.8280 -0.7224  0.0251
  661MOL0     H91168   6.183   0.722   4.224  1.5432  0.1878 -2.2034
  661MOL0     H91169   6.109   0.838   4.127 -1.1333  0.9959  1.8945
  661MOL0     H91170   6.088   0.696   3.939  2.6545 -1.3738 -2.6136
  661MOL0     H91171   6.256   0.692   4.000  0.2622  1.0525  0.1567
  661MOL0     H91172   6.247   0.463   4.037 -2.7314 -2.0185  0.7627
  661MOL0     H91173   6.087   0.452   4.072 -1.4462 -1.8277 -1.3752
  661MOL0     H91174   6.195   0.525   3.801 -1.1312  1.2045  1.3435
  661MOL0     H91175   6.151   0.356   3.843  1.3793 -0.3698  1.1280
  661MOL0     H91176   6.118   0.609   3.621  1.1661 -3.8890  1.7416
  661MOL0     H91177   6.088   0.599   3.278  0.4395 -0.1526  0.1704
  661MOL0     H91178   6.156   0.681   3.419  0.2348  3.7522 -1.1659
  661MOL0     H91179   6.028   0.755   3.345  0.1564 -0.2388 -1.7201
  661MOL0     H91180   5.445   0.463   3.246  0.3371 -0.0637 -0.2616
  661MOL0     H91181   5.297   0.480   3.042 -0.7945  2.1431 -1.2582
  661MOL0     H91182   5.358   0.289   2.693  2.8735 -0.7767  1.3259
  661MOL0     H91183   5.322   0.285   2.855 -1.1640  3.2367  2.1883
  661MOL0     H91184   5.143   0.285   2.770  0.9117 -0.0471 -0.0719
  661MOL0     H91185   5.157   0.437   2.866  1.0272  1.5277 -0.5270
  661MOL0     H91186   5.170   0.419   2.564 -2.7700  0.1628 -1.0181
  661MOL0     H91187   5.165   0.571   2.657 -2.3741  0.2784 -2.7151
  661MOL0     H91188   4.935   0.538   2.703  0.2795  0.3144  0.4564
  661MOL0     H91189   4.931   0.378   2.669 -1.6367 -0.1572 -3.0832
  661MOL0     H91190   4.988   0.407   2.438  1.8889 -1.7004  3.3403
  661MOL0     H91191   4.841   0.498   2.479 -0.4302 -2.5905  0.2342
  661MOL0     H91192   5.116   0.606   2.409 -0.4285 -0.8120 -4.0574
  661MOL0     H91193   4.989   0.711   2.483 -1.4706  0.3285 -0.9896
  661MOL0     H91194   4.839   0.668   2.283  0.4790  6.1206  1.0520
  661MOL0     H91195   4.987   0.586   2.202  0.3174 -1.4734  0.4046
  661MOL0     H91196   4.949   0.860   2.313 -2.2260 -0.1242 -1.6706
  661MOL0     H91197   4.955   0.823   2.142 -1.0580  2.2933  1.3305
  661MOL0     H91198   5.660   0.500   2.807  1.4599  2.9142  0.4060
  661MOL0     H91199   5.796   0.513   3.008 -0.1901  1.9450 -0.8443
  661MOL0     H91200   5.667   0.430   3.500  0.7464  0.0045 -2.0102
  661MOL0     H91201   5.764   0.382   3.725  2.2204 -1.8263 -0.9270
  661MOL0     H91202   5.110  -0.004   3.526  2.6025  1.3400  1.0514
  661MOL0     H91203   4.873  -0.066   3.578  1.0827 -1.2181  0.1808
  661MOL0     H91204   4.692  -0.272   3.909  0.8278 -2.6055 -1.6403
  661MOL0     H91205   4.547  -0.474   3.912  1.5581 -0.2247  0.4975
  661MOL0     H91206   4.126  -0.400   3.839  0.3521  0.0369  0.2303
  661MOL0     H91207   4.150  -0.511   3.712 -2.7128 -1.4847  1.4174
  661MOL0     H91208   4.134  -0.649   3.988  0.2182 -3.6092 -0.8227
  661MOL0     H91209   4.154  -0.707   3.827 -0.8623  0.6102 -0.9920
  661MOL0     H91210   3.908  -0.573   3.952 -2.4724 -2.8231  0.9513
  661MOL0     H91211   3.930  -0.555   3.778 -1.8177 -1.3398 -1.0307
  661MOL0     H91212   3.789  -0.772   3.859  0.0044  0.5740  0.9606
  661MOL0     H91213   3.934  -0.820   3.944  0.0680  0.0053 -0.2281
  661MOL0     H91214   4.028  -0.933   3.538 -1.0777  0.4147 -1.4369
  661MOL0     H91215   4.242  -0.265   3.698  0.7984 -0.3064 -0.5878
  661MOL0     H91216   4.292  -0.086   3.569  0.3762 -2.4531  0.9263
  661MOL0     H91217   4.376   0.044   3.660 -0.7373 -0.2731 -0.4790
  661MOL0     H91218   4.458  -0.056   3.541  1.1560  1.2387  1.2106
  662MOL0     O91219   6.630   0.568   1.576  1.4520  0.3548  0.8443
  662MOL0     C91220   6.706   0.498   1.507 -1.0126 -0.1949 -0.3328
  662MOL0     O91221   6.815   0.433   1.554  0.3983  0.4161 -0.0774
  662MOL0     C91222   6.881   0.445   1.678  0.2607 -0.1575  1.0121
  662MOL0     C91223   6.845   0.521   1.780  0.6758  0.0996  0.6477
  662MOL0     C91224   6.911   0.514   1.906  0.2836 -0.5795 -0.5914
  662MOL0     C91225   7.038   0.450   1.922 -0.7758  0.7386  0.3147
  662MOL0     O91226   7.111   0.447   2.041  0.1502 -1.0371  0.5478
  662MOL0     C91227   7.160   0.327   2.096 -0.7088 -0.4818 -0.6194
  662MOL0     C91228   7.206   0.353   2.241  0.0404 -0.6343 -0.7745
  662MOL0     C91229   7.259   0.225   2.306  1.0734  0.5546 -0.2438
  662MOL0     C91230   7.301   0.247   2.449 -0.4998 -0.1714  0.5740
  662MOL0     C91231   7.441   0.301   2.477  0.1329  0.1005  0.0557
  662MOL0     C91232   7.466   0.307   2.626  0.0260  0.4865  0.1644
  662MOL0     C91233   7.609   0.358   2.664 -0.2316  0.3907 -0.1650
  662MOL0     C91234   7.607   0.368   2.819  0.6145 -0.1252  0.7204
  662MOL0     N91235   7.732   0.432   2.872  0.4529 -0.5693  0.3509
  662MOL0     C91236   7.745   0.570   2.873 -0.4655  0.3633 -0.0085
  662MOL0     C91237   7.834   0.594   2.973 -0.2971  0.3235  0.0710
  662MOL0     C91238   7.871   0.727   3.018  0.1744 -0.2019 -0.2700
  662MOL0     C91239   7.785   0.800   3.123  0.9428  0.2024 -0.4618
  662MOL0     C91240   7.632   0.824   3.079 -0.5763 -0.6732 -0.6156
  662MOL0     C91241   7.623   0.952   2.995  0.4997 -0.5534  0.2680
  662MOL0     O91242   7.611   0.926   2.853  0.1784  0.6347 -0.0543
  662MOL0     C91243   7.497   0.851   2.810  0.1099  0.6619  0.0786
  662MOL0     C91244   7.495   0.795   2.689  0.5025  0.7858  1.0116
  662MOL0     C91245   7.386   0.734   2.627  0.0040  0.3935  0.4052
  662MOL0     C91246   7.402   0.688   2.486  0.4116 -1.0341  0.8020
  662MOL0     C91247   7.257   0.727   2.698 -0.7291  0.1850 -0.3973
  662MOL0     C91248   7.131   0.666   2.649  0.7740 -0.5501  0.7508
  662MOL0     O91249   7.022   0.692   2.730 -1.0517 -0.3284 -0.6723
  662MOL0     C91250   6.904   0.633   2.695  0.1136  0.7605 -1.0528
  662MOL0     C91251   6.881   0.495   2.734  0.3015 -0.8434  0.6904
  662MOL0     C91252   6.753   0.439   2.709  0.4405  0.1041 -1.3258
  662MOL0     C91253   6.650   0.507   2.643  0.1702 -0.3339  0.3949
  662MOL0     O91254   6.535   0.432   2.608  0.1386  0.3309  0.0916
  662MOL0     C91255   6.417   0.503   2.549 -1.1089  0.1028 -0.3467
  662MOL0     C91256   6.344   0.408   2.453  1.0536  1.0116 -0.3735
  662MOL0     C91257   6.435   0.338   2.359 -0.4601  0.3336 -0.3753
  662MOL0     C91258   6.522   0.436   2.280  0.9303  0.1039 -0.1209
  662MOL0     C91259   6.591   0.381   2.161  0.2399 -0.3998 -0.0930
  662MOL0     C91260   6.698   0.285   2.195  0.4096  0.1368  0.6204
  662MOL0     C91261   6.820   0.355   2.265 -0.0896 -1.2676  0.2831
  662MOL0     C91262   6.858   0.271   2.384  0.0208 -0.3226  0.0114
  662MOL0    Cl91263   6.902   0.100   2.328  0.1786  0.1266 -0.1888
  662MOL0     C91264   6.686   0.636   2.591  0.4734  0.2409 -0.0683
  662MOL0     C91265   6.803   0.696   2.630  0.5149 -0.4550  0.4079
  662MOL0     O91266   7.134   0.588   2.553  0.1777  0.0653  0.7912
  662MOL0     C91267   7.268   0.765   2.834 -0.5204  0.0660  0.0460
  662MOL0     C91268   7.386   0.830   2.888  0.9845 -0.1789  0.2181
  662MOL0     N91269   7.862   0.471   3.042 -0.0803  0.0601 -0.2030
  662MOL0     N91270   7.794   0.381   2.973 -0.1162 -0.4164  0.1809
  662MOL0     C91271   7.078   0.375   1.810  0.1689  1.5038 -0.6941
  662MOL0     C91272   7.002   0.369   1.696 -1.0519 -0.2399 -0.9611
  662MOL0     C91273   6.680   0.469   1.363 -0.3586  0.3557  0.7007
  662MOL0     C91274   6.782   0.408   1.275  0.1499  0.0563 -0.1308
  662MOL0     C91275   6.755   0.378   1.143  0.3333 -0.4833 -0.2722
  662MOL0     C91276   6.634   0.411   1.087  0.4461 -0.6150  0.7578
  662MOL0     O91277   6.633   0.388   0.950 -0.9493 -0.1635  0.1795
  662MOL0     C91278   6.518   0.429   0.874  0.4900  0.7847  0.0981
  662MOL0     C91279   6.549   0.419   0.727  0.4968 -0.4075 -0.3959
  662MOL0     C91280   6.566   0.281   0.674  1.2514 -0.2209  0.0579
  662MOL0     C91281   6.619   0.274   0.537 -0.6344  0.0314 -0.4147
  662MOL0     C91282   6.756   0.339   0.514  0.1984  0.1304 -0.0950
  662MOL0     C91283   6.864   0.393   0.513 -0.0515  0.3096  0.5942
  662MOL0     C91284   6.536   0.478   1.167 -1.0946  0.3410 -0.0807
  662MOL0     C91285   6.559   0.504   1.305  0.3672 -0.0380  0.0106
  662MOL0     C91286   6.444   0.571   1.375  0.3160 -0.2083  0.0831
  662MOL0     H91287   6.748   0.568   1.773  0.6137 -0.1349 -0.2593
  662MOL0     H91288   6.882   0.586   1.982  1.0083 -0.6889 -0.1961
  662MOL0     H91289   7.249   0.295   2.041  1.2944  2.2411  0.8120
  662MOL0     H91290   7.076   0.256   2.098 -1.3313  0.2571 -0.2530
  662MOL0     H91291   7.284   0.429   2.248  0.0347 -0.6677 -0.2678
  662MOL0     H91292   7.119   0.396   2.291 -1.7921 -2.3358 -2.3242
  662MOL0     H91293   7.177   0.152   2.304  1.6442 -0.1938  1.6024
  662MOL0     H91294   7.345   0.184   2.253  1.0949  0.7129 -0.3306
  662MOL0     H91295   7.226   0.317   2.487  2.0595  2.4451  1.1089
  662MOL0     H91296   7.293   0.151   2.502 -1.4303 -1.1077 -1.1670
  662MOL0     H91297   7.464   0.401   2.439  1.6430  0.0986  0.9150
  662MOL0     H91298   7.515   0.227   2.443  0.3738  0.7403 -0.8623
  662MOL0     H91299   7.394   0.381   2.661 -0.5175  0.1470 -0.2319
  662MOL0     H91300   7.439   0.214   2.677  0.7147  0.2881  0.1834
  662MOL0     H91301   7.637   0.457   2.626  3.1712 -0.9212 -1.4234
  662MOL0     H91302   7.684   0.286   2.629  0.2074  1.6684 -2.0020
  662MOL0     H91303   7.524   0.436   2.840  1.0066  1.6089 -2.7015
  662MOL0     H91304   7.595   0.268   2.863 -1.5058  0.0854  0.7547
  662MOL0     H91305   7.694   0.638   2.805 -0.9174 -1.8220 -2.0100
  662MOL0     H91306   7.883   0.792   2.931  1.5518  2.7446  1.9589
  662MOL0     H91307   7.966   0.720   3.071  0.0558  3.2527  0.6546
  662MOL0     H91308   7.781   0.729   3.206  0.4735 -0.3635 -0.9635
  662MOL0     H91309   7.828   0.891   3.166  2.1651 -0.1436 -0.9077
  662MOL0     H91310   7.588   0.736   3.033 -1.0419 -0.0320 -1.4190
  662MOL0     H91311   7.581   0.836   3.175  2.5486  2.2382  0.9085
  662MOL0     H91312   7.542   1.019   3.023 -0.3026 -0.1292 -2.6957
  662MOL0     H91313   7.714   1.012   2.998 -0.2725  0.7536 -1.0686
  662MOL0     H91314   7.574   0.802   2.615 -1.7870 -1.4774 -1.9621
  662MOL0     H91315   7.507   0.689   2.458 -0.0378 -0.4037 -1.0332
  662MOL0     H91316   7.354   0.764   2.423  2.6313  3.5421  4.0063
  662MOL0     H91317   7.354   0.593   2.462  0.5595 -0.4731 -1.9985
  662MOL0     H91318   6.962   0.432   2.770 -1.4633 -2.5609  1.8294
  662MOL0     H91319   6.740   0.336   2.741  1.7628 -0.3434 -2.1982
  662MOL0     H91320   6.347   0.551   2.619 -1.1455 -0.9198  0.3505
  662MOL0     H91321   6.461   0.584   2.490  1.7597  0.7167  2.3817
  662MOL0     H91322   6.308   0.327   2.517 -0.9141  0.5052 -2.0271
  662MOL0     H91323   6.261   0.462   2.406 -1.8956 -1.4891  1.5810
  662MOL0     H91324   6.368   0.281   2.294  0.1801 -1.5268  0.5489
  662MOL0     H91325   6.504   0.269   2.408  1.4515  1.1441 -1.7793
  662MOL0     H91326   6.595   0.487   2.344  2.7413 -0.9820 -1.2319
  662MOL0     H91327   6.443   0.495   2.233 -0.2337 -1.8865 -0.7458
  662MOL0     H91328   6.516   0.328   2.102  0.7146 -0.4189 -0.6849
  662MOL0     H91329   6.631   0.473   2.118  0.3851  1.2237  3.2233
  662MOL0     H91330   6.729   0.248   2.096  3.0239 -1.8775  2.0697
  662MOL0     H91331   6.655   0.202   2.251 -1.4772  0.6898  0.0771
  662MOL0     H91332   6.810   0.462   2.283 -0.4533 -0.9814 -1.4390
  662MOL0     H91333   6.914   0.353   2.210 -0.1538  3.2529 -0.3655
  662MOL0     H91334   6.776   0.259   2.457  0.1162  2.0327  0.5928
  662MOL0     H91335   6.940   0.326   2.432 -0.2480  1.7285 -1.7115
  662MOL0     H91336   6.621   0.690   2.522  0.5360 -2.9263 -2.8618
  662MOL0     H91337   6.833   0.793   2.592  0.9394 -0.4997  0.6257
  662MOL0     H91338   7.180   0.754   2.897 -1.8742  2.0528 -1.3784
  662MOL0     H91339   7.364   0.868   2.987  0.6180  4.1020 -1.2989
  662MOL0     H91340   7.168   0.316   1.822 -0.9598  0.3448  4.9732
  662MOL0     H91341   7.036   0.310   1.612  1.4085  0.6376 -0.6547
  662MOL0     H91342   6.875   0.378   1.322 -0.4486  2.7649  3.1546
  662MOL0     H91343   6.838   0.334   1.088  1.4549  3.1784 -1.8104
  662MOL0     H91344   6.435   0.364   0.900  0.3930  0.2269 -1.4970
  662MOL0     H91345   6.477   0.528   0.897 -1.9285 -1.1150  5.8676
  662MOL0     H91346   6.639   0.481   0.717  1.0506 -0.7758  1.7583
  662MOL0     H91347   6.476   0.472   0.666  0.1402  0.6582  0.9158
  662MOL0     H91348   6.635   0.235   0.746 -0.1776  0.8568  2.2397
  662MOL0     H91349   6.474   0.224   0.689 -1.4332  4.0052  1.4508
  662MOL0     H91350   6.555   0.322   0.462  0.1654 -1.9918 -2.5168
  662MOL0     H91351   6.637   0.170   0.509  2.3243  0.8351 -2.0078
  662MOL0     H91352   6.955   0.444   0.487  0.9698 -2.3287 -1.5331
  662MOL0     H91353   6.442   0.512   1.125 -3.8478 -3.1156  2.6534
  662MOL0     H91354   6.411   0.512   1.461  1.1795  0.9405  1.2340
  662MOL0     H91355   6.474   0.670   1.410 -0.6140 -0.0065  0.3191
  662MOL0     H91356   6.359   0.594   1.311  0.3325 -0.1829  0.0702
  663MOL0     O91357   8.856   0.344   2.285  0.3922 -0.5919 -0.2224
  663MOL0     C91358   8.906   0.439   2.339  0.1681 -0.6032 -0.4725
  663MOL0     O91359   9.038   0.459   2.332  0.1356  0.2022 -0.1782
  663MOL0     C91360   9.116   0.388   2.253 -0.4547 -1.0389  0.6886
  663MOL0     C91361   9.164   0.260   2.292 -0.2893  0.2610  0.4952
  663MOL0     C91362   9.257   0.194   2.208 -0.8643  0.3361 -0.6097
  663MOL0     C91363   9.297   0.251   2.087 -0.1478  0.6327  0.8053
  663MOL0     O91364   9.400   0.184   2.020  1.0635 -0.9758  0.0630
  663MOL0     C91365   9.345   0.110   1.913  0.4195 -0.0740  0.2592
  663MOL0     C91366   9.464   0.086   1.818  0.6471 -0.3465 -0.4019
  663MOL0     C91367   9.559  -0.022   1.869 -0.7791  0.0894 -0.3707
  663MOL0     C91368   9.675  -0.040   1.768  0.2097 -1.1848 -0.1673
  663MOL0     C91369   9.794  -0.129   1.815 -0.0093 -0.5063 -0.1008
  663MOL0     C91370   9.874  -0.166   1.686  0.4654 -0.3789 -0.5027
  663MOL0     C91371  10.004  -0.240   1.718  0.6456  0.2158 -0.4564
  663MOL0     C91372  10.101  -0.260   1.602  0.0425 -0.1837  0.3150
  663MOL0     N91373  10.146  -0.131   1.539  0.1327  0.3740  0.2531
  663MOL0     C91374  10.235  -0.051   1.592 -0.2592  1.0912 -0.7480
  663MOL0     C91375  10.263   0.044   1.495  0.0565 -0.1126 -0.1643
  663MOL0     C91376  10.366   0.151   1.506  0.5065 -0.5442 -0.2146
  663MOL0     C91377  10.467   0.126   1.617 -0.3857 -0.6193  0.3136
  663MOL0     C91378  10.577   0.232   1.604  0.4936 -0.5741 -0.7518
  663MOL0     C91379  10.704   0.193   1.672  0.2569  0.4547  0.3968
  663MOL0     O91380  10.775   0.313   1.684 -0.2488 -0.5896 -0.2280
  663MOL0     C91381  10.909   0.317   1.736 -0.4492  0.6137  0.4807
  663MOL0     C91382  10.980   0.436   1.730  0.0280  0.7310 -0.4589
  663MOL0     C91383  11.096   0.449   1.790 -0.5975 -0.0775 -0.1945
  663MOL0     C91384  11.140   0.595   1.804  0.0624  0.2395 -0.2252
  663MOL0     C91385  11.164   0.344   1.846  0.1746  0.2393  0.1868
  663MOL0     C91386  11.305   0.350   1.901  1.3437 -0.2802 -0.7036
  663MOL0     O91387  11.359   0.231   1.942 -0.1867 -0.2237 -0.2310
  663MOL0     C91388  11.485   0.227   1.984 -0.7781 -0.7632 -0.0836
  663MOL0     C91389  11.587   0.209   1.888  0.6333  0.2478 -0.8142
  663MOL0     C91390  11.724   0.209   1.926  0.2572 -0.1476  0.2987
  663MOL0     C91391  11.763   0.231   2.060 -0.0509  0.1369 -0.0510
  663MOL0     O91392  11.901   0.242   2.093  0.4684 -0.2417 -0.1276
  663MOL0     C91393  11.943   0.227   2.234 -0.7010  0.3020  0.5819
  663MOL0     C91394  12.096   0.216   2.258  0.8245  0.0526  0.2862
  663MOL0     C91395  12.176   0.336   2.211  0.4524  0.2767 -0.7994
  663MOL0     C91396  12.317   0.335   2.270  0.4530 -0.0299 -0.3388
  663MOL0     C91397  12.407   0.460   2.249 -0.0387  0.1734  0.1806
  663MOL0     C91398  12.537   0.467   2.330  0.7318 -0.0099  0.9786
  663MOL0     C91399  12.626   0.580   2.274 -1.1385  0.0344 -0.3580
  663MOL0     C91400  12.553   0.711   2.268 -0.0441 -0.7139  0.2945
  663MOL0    Cl91401  12.659   0.854   2.238  0.5926  0.2452  0.5886
  663MOL0     C91402  11.662   0.253   2.152  0.2517 -1.0858 -0.3336
  663MOL0     C91403  11.524   0.246   2.120  0.2881 -0.7074  0.4802
  663MOL0     O91404  11.356   0.461   1.922 -0.0707  0.0491 -0.2969
  663MOL0     C91405  11.095   0.212   1.844  0.0214 -0.8459  0.2904
  663MOL0     C91406  10.972   0.200   1.786  0.1031 -0.7988 -1.1118
  663MOL0     N91407  10.185   0.013   1.383  0.1077  0.0300 -0.0796
  663MOL0     N91408  10.110  -0.089   1.415 -0.6106 -0.1981  0.4646
  663MOL0     C91409   9.246   0.373   2.050 -0.2018 -0.1746 -0.8339
  663MOL0     C91410   9.152   0.443   2.121 -0.1657  0.2903 -0.0711
  663MOL0     C91411   8.823   0.542   2.410  0.1819 -0.4102 -0.1715
  663MOL0     C91412   8.876   0.602   2.529 -0.6026  0.0589  0.6208
  663MOL0     C91413   8.813   0.704   2.598 -0.1504  0.5265  0.2090
  663MOL0     C91414   8.689   0.751   2.557 -0.3657 -0.6799  0.6962
  663MOL0     O91415   8.629   0.849   2.633 -0.0027 -0.0289 -0.1802
  663MOL0     C91416   8.500   0.907   2.610  0.0653  0.0166  0.3909
  663MOL0     C91417   8.477   1.026   2.701 -0.3188 -0.0748 -0.8997
  663MOL0     C91418   8.591   1.122   2.725  0.5002 -0.4346 -0.8046
  663MOL0     C91419   8.667   1.165   2.611 -0.4698 -0.3220  0.0104
  663MOL0     C91420   8.564   1.223   2.524 -0.0247 -0.0212 -0.3812
  663MOL0     C91421   8.478   1.274   2.459 -0.5007  0.6140  0.0210
  663MOL0     C91422   8.623   0.683   2.450 -0.0479 -0.7643 -0.8658
  663MOL0     C91423   8.693   0.587   2.369 -1.0412  0.1575  0.3960
  663MOL0     C91424   8.620   0.517   2.261 -0.4922  0.3820  0.8568
  663MOL0     H91425   9.127   0.216   2.384 -1.5205  0.3999  0.0886
  663MOL0     H91426   9.284   0.094   2.240 -2.8851 -0.0020  0.1877
  663MOL0     H91427   9.276   0.169   1.852  0.1859  0.3553  0.9310
  663MOL0     H91428   9.305   0.014   1.948 -3.0987  0.6814 -1.2804
  663MOL0     H91429   9.426   0.062   1.718 -2.8598 -0.4439  0.8151
  663MOL0     H91430   9.512   0.184   1.806 -1.3976  0.9921  1.5237
  663MOL0     H91431   9.607   0.020   1.958 -1.2147  3.0477 -1.4092
  663MOL0     H91432   9.499  -0.112   1.886  0.0211 -0.1587  1.3544
  663MOL0     H91433   9.627  -0.091   1.684 -1.3222  1.7173 -1.1946
  663MOL0     H91434   9.710   0.055   1.726 -1.0710 -0.8581 -0.5420
  663MOL0     H91435   9.771  -0.230   1.851 -2.1246 -1.2590 -3.1696
  663MOL0     H91436   9.867  -0.088   1.886  1.4492  0.1791 -1.9077
  663MOL0     H91437   9.816  -0.232   1.620 -1.1425 -1.4362  1.8399
  663MOL0     H91438   9.889  -0.080   1.620 -1.0781 -1.0737 -1.8424
  663MOL0     H91439   9.986  -0.333   1.772  1.5600 -0.3930 -1.1872
  663MOL0     H91440  10.049  -0.176   1.795  0.6295 -0.4336  0.0941
  663MOL0     H91441  10.186  -0.315   1.644  0.6388  1.0328  0.7815
  663MOL0     H91442  10.053  -0.326   1.530  3.0242 -2.6174  0.3693
  663MOL0     H91443  10.283  -0.055   1.690 -1.1028  0.1256 -0.3565
  663MOL0     H91444  10.311   0.245   1.517  2.0737  0.7944 -2.7939
  663MOL0     H91445  10.417   0.162   1.409 -1.6602 -0.2179 -1.3718
  663MOL0     H91446  10.433   0.132   1.721  0.3828 -0.0511  0.5438
  663MOL0     H91447  10.519   0.030   1.614  5.9485  2.1855  2.8004
  663MOL0     H91448  10.595   0.269   1.503 -3.5327 -0.7018 -1.6729
  663MOL0     H91449  10.545   0.322   1.656  2.3077  0.8836 -2.0112
  663MOL0     H91450  10.699   0.141   1.768  1.9488  0.1561  0.3418
  663MOL0     H91451  10.752   0.120   1.606 -1.2102  1.2787 -1.7007
  663MOL0     H91452  10.934   0.522   1.683 -1.9581 -0.2381 -0.3558
  663MOL0     H91453  11.238   0.614   1.759  0.4890 -3.8822 -1.4106
  663MOL0     H91454  11.129   0.624   1.909 -2.5146 -2.2930  0.3215
  663MOL0     H91455  11.078   0.661   1.741 -1.5427  0.1047  1.1425
  663MOL0     H91456  11.549   0.185   1.789  0.0656  1.0655 -0.7967
  663MOL0     H91457  11.792   0.205   1.842 -2.1426  2.7505 -2.0285
  663MOL0     H91458  11.901   0.311   2.290 -0.8397  1.5621 -1.3211
  663MOL0     H91459  11.912   0.128   2.270  1.7758 -0.7551 -0.0239
  663MOL0     H91460  12.126   0.184   2.358  0.1903 -0.2179  0.3965
  663MOL0     H91461  12.122   0.126   2.200 -1.1894 -0.3380 -0.0907
  663MOL0     H91462  12.135   0.432   2.243 -3.0327 -0.8676 -1.4406
  663MOL0     H91463  12.200   0.342   2.105  0.8966  3.5146 -0.6171
  663MOL0     H91464  12.365   0.242   2.237 -0.2389 -0.0798 -1.2613
  663MOL0     H91465  12.309   0.315   2.377 -1.0131 -1.1559 -0.6193
  663MOL0     H91466  12.428   0.457   2.141 -0.1858 -0.9108  0.1725
  663MOL0     H91467  12.349   0.549   2.273 -1.8077 -1.0735  0.7302
  663MOL0     H91468  12.591   0.375   2.309 -0.2676 -0.3055 -0.4568
  663MOL0     H91469  12.526   0.478   2.438 -0.9131 -1.8669  1.0626
  663MOL0     H91470  12.657   0.556   2.172  2.8133  0.7166  0.5162
  663MOL0     H91471  12.718   0.588   2.332 -0.7475 -0.7317 -0.8629
  663MOL0     H91472  12.521   0.725   2.371  2.1918  1.1416  0.8147
  663MOL0     H91473  12.478   0.706   2.188  1.6073  1.4351 -1.5437
  663MOL0     H91474  11.685   0.285   2.253 -2.4180  2.0980 -0.5828
  663MOL0     H91475  11.444   0.266   2.190  1.3345  0.9332  1.2519
  663MOL0     H91476  11.147   0.127   1.886  0.7174 -0.1348  0.9097
  663MOL0     H91477  10.926   0.102   1.786  0.2453 -0.9333  1.4535
  663MOL0     H91478   9.273   0.409   1.952 -0.2991 -1.2729 -1.2759
  663MOL0     H91479   9.106   0.530   2.077 -0.0505 -1.1225 -3.2668
  663MOL0     H91480   8.967   0.561   2.573  0.0944  0.0441 -0.7956
  663MOL0     H91481   8.865   0.726   2.691  1.1509  0.9509 -0.5866
  663MOL0     H91482   8.500   0.945   2.508 -0.7201  0.3395  0.5023
  663MOL0     H91483   8.420   0.834   2.624  0.3066 -0.9426 -2.5607
  663MOL0     H91484   8.450   0.992   2.801  3.6684  1.6558  1.0048
  663MOL0     H91485   8.390   1.081   2.664  1.8230  2.8850 -1.9748
  663MOL0     H91486   8.563   1.212   2.781  1.9249 -0.4714  0.0301
  663MOL0     H91487   8.647   1.071   2.804  0.2091  1.6876  0.8607
  663MOL0     H91488   8.716   1.081   2.562  1.5024  1.9779 -2.2247
  663MOL0     H91489   8.742   1.232   2.654  0.7009  0.5881 -3.1464
  663MOL0     H91490   8.402   1.338   2.418  1.7482  1.8585 -2.4945
  663MOL0     H91491   8.520   0.700   2.420  0.5580  1.3612 -1.8776
  663MOL0     H91492   8.600   0.412   2.282 -0.9869 -0.8927 -4.4155
  663MOL0     H91493   8.523   0.563   2.241 -0.7211 -0.1739  0.6767
  663MOL0     H91494   8.657   0.519   2.157 -2.9224 -1.3796 -0.1372
  664MOL0     O91495   3.089   6.290  10.364 -0.1664 -1.0158  0.1258
  664MOL0     C91496   3.007   6.197  10.357  0.2503  0.2338 -0.0961
  664MOL0     O91497   3.029   6.063  10.349 -0.7628  0.5767 -0.2399
  664MOL0     C91498   3.165   6.029  10.346 -0.1278 -1.1004 -0.2166
  664MOL0     C91499   3.222   5.959  10.453 -0.5178  0.5285 -0.7466
  664MOL0     C91500   3.349   5.917  10.463 -0.5906  0.0048  0.5852
  664MOL0     C91501   3.434   5.950  10.357 -0.0996  0.6351  0.2610
  664MOL0     O91502   3.564   5.906  10.369 -0.0358  0.3879 -0.3210
  664MOL0     C91503   3.647   5.920  10.255  0.0839  0.0450  0.1867
  664MOL0     C91504   3.780   5.857  10.297  1.0730 -0.0915 -0.2181
  664MOL0     C91505   3.895   5.895  10.200  0.1834 -0.8507 -0.0952
  664MOL0     C91506   3.936   6.042  10.217 -0.2409 -0.1490  0.2846
  664MOL0     C91507   3.997   6.105  10.089 -0.0275 -0.3226  0.3182
  664MOL0     C91508   3.874   6.156  10.005 -0.8644 -0.1664 -0.4664
  664MOL0     C91509   3.925   6.233   9.880  0.6732  0.0853 -0.7556
  664MOL0     C91510   3.969   6.370   9.923  0.1931  0.0836 -0.9018
  664MOL0     N91511   4.045   6.444   9.816 -0.1136  0.0280  0.2591
  664MOL0     C91512   3.985   6.516   9.707  0.0252  0.0650 -0.3666
  664MOL0     C91513   4.085   6.533   9.621 -0.1063 -0.1000 -0.0935
  664MOL0     C91514   4.071   6.601   9.486  0.2584  0.6555  0.1094
  664MOL0     C91515   4.077   6.756   9.496 -0.2118 -0.8328  0.6574
  664MOL0     C91516   4.078   6.840   9.365  0.0248  0.6818 -0.2528
  664MOL0     C91517   4.121   6.977   9.361 -0.1835  0.1727 -0.1563
  664MOL0     O91518   4.145   7.018   9.225  0.2387 -0.1993 -0.3187
  664MOL0     C91519   4.034   7.063   9.152 -0.9316 -0.7493 -0.6091
  664MOL0     C91520   3.901   7.074   9.192  0.3797 -0.7041 -0.7496
  664MOL0     C91521   3.797   7.121   9.108 -0.5621 -0.3867  0.6162
  664MOL0     C91522   3.659   7.149   9.159 -0.3763  0.2167 -0.3318
  664MOL0     C91523   3.817   7.156   8.972  0.0800 -0.7688  0.5940
  664MOL0     C91524   3.710   7.213   8.884 -0.0260 -0.8233  0.3111
  664MOL0     O91525   3.604   7.135   8.842 -1.4388 -0.1860 -0.0423
  664MOL0     C91526   3.502   7.193   8.778 -0.4151  0.9648  1.0724
  664MOL0     C91527   3.507   7.224   8.646  0.6191 -0.4744 -1.2885
  664MOL0     C91528   3.399   7.277   8.582  0.2180 -0.7658 -0.3168
  664MOL0     C91529   3.276   7.297   8.646 -0.1096  0.1001  0.3495
  664MOL0     O91530   3.183   7.377   8.584  0.2678  0.7394  0.1038
  664MOL0     C91531   3.044   7.355   8.613 -0.0992 -0.1093 -0.3834
  664MOL0     C91532   2.995   7.224   8.562  0.5557  0.2507  0.2975
  664MOL0     C91533   2.852   7.179   8.616  0.3131  0.4125 -0.2326
  664MOL0     C91534   2.843   7.157   8.771  0.6602  0.3908 -0.0298
  664MOL0     C91535   2.708   7.107   8.823  1.3445 -0.0863 -0.1152
  664MOL0     C91536   2.609   7.231   8.866  0.4997  1.3341 -0.1604
  664MOL0     C91537   2.459   7.194   8.878 -0.6829  0.3255  0.6563
  664MOL0     C91538   2.402   7.193   8.740 -0.2919  0.5898  0.5922
  664MOL0    Cl91539   2.225   7.193   8.736 -0.0662 -0.1206 -0.2134
  664MOL0     C91540   3.252   7.244   8.779  0.6202  0.4354  0.7549
  664MOL0     C91541   3.378   7.198   8.842 -0.0460  0.0937  0.2610
  664MOL0     O91542   3.730   7.332   8.855 -0.3172 -1.1469 -0.0615
  664MOL0     C91543   3.952   7.160   8.936  0.0064 -0.2421 -0.3061
  664MOL0     C91544   4.054   7.115   9.023  0.2017  0.8712  0.8467
  664MOL0     N91545   4.199   6.478   9.670  0.0498 -0.5193  0.5801
  664MOL0     N91546   4.172   6.417   9.783 -0.8437 -0.0067 -0.4109
  664MOL0     C91547   3.388   6.018  10.239 -0.1874  0.8121  0.5541
  664MOL0     C91548   3.257   6.057  10.237  0.5750 -0.2143 -0.2369
  664MOL0     C91549   2.864   6.224  10.358  0.6864 -0.6218  0.4319
  664MOL0     C91550   2.780   6.149  10.268  0.3417 -0.3096 -0.4525
  664MOL0     C91551   2.642   6.181  10.253 -0.3840  0.1803 -0.0532
  664MOL0     C91552   2.584   6.294  10.321 -0.7984 -0.4517  0.2310
  664MOL0     O91553   2.452   6.315  10.300  0.1906 -0.5601  0.1575
  664MOL0     C91554   2.387   6.442  10.295  0.0989 -0.4477 -0.6650
  664MOL0     C91555   2.252   6.426  10.373  0.2003 -0.5530  0.6062
  664MOL0     C91556   2.161   6.310  10.310  0.1934 -0.3675  0.0327
  664MOL0     C91557   2.112   6.349  10.167  0.3372  0.0773 -0.3405
  664MOL0     C91558   2.008   6.451  10.185  0.0741 -0.0141 -0.0354
  664MOL0     C91559   1.927   6.536  10.218  0.1901 -0.2974  0.7081
  664MOL0     C91560   2.668   6.363  10.410  0.1011 -0.2470  0.3116
  664MOL0     C91561   2.802   6.336  10.427  0.1525  0.3581 -0.6572
  664MOL0     C91562   2.876   6.430  10.520 -1.5092 -0.0896  0.1079
  664MOL0     H91563   3.152   5.922  10.527  1.2338  0.3217  0.8832
  664MOL0     H91564   3.395   5.870  10.549  1.3193  2.2100  0.8681
  664MOL0     H91565   3.669   6.023  10.226 -0.0808  0.1699  0.5066
  664MOL0     H91566   3.609   5.886  10.158 -0.0857  2.5022 -0.6727
  664MOL0     H91567   3.803   5.905  10.392 -1.2218  0.9409 -0.1252
  664MOL0     H91568   3.763   5.750  10.308  1.0201  0.0469  1.2678
  664MOL0     H91569   3.988   5.841  10.218  0.7037  0.5168  1.4824
  664MOL0     H91570   3.860   5.882  10.097  1.6708  0.8238 -0.8570
  664MOL0     H91571   3.852   6.100  10.257 -1.3006 -0.0839 -1.9087
  664MOL0     H91572   4.010   6.044  10.298 -2.2156 -1.2460  2.2345
  664MOL0     H91573   4.059   6.035  10.033 -1.3081 -1.4516  0.2805
  664MOL0     H91574   4.067   6.187  10.111 -1.7131  1.5371 -0.8451
  664MOL0     H91575   3.821   6.068   9.968  2.0657 -2.1872 -0.2406
  664MOL0     H91576   3.805   6.220  10.061 -2.9449 -1.1420 -1.8010
  664MOL0     H91577   3.837   6.250   9.818 -0.0739  1.0715  0.5233
  664MOL0     H91578   3.998   6.173   9.825 -0.3313 -0.8899 -1.0506
  664MOL0     H91579   3.893   6.441   9.955  2.5485  3.6067 -2.4472
  664MOL0     H91580   4.037   6.365  10.009 -1.7521 -0.5178  0.6856
  664MOL0     H91581   3.880   6.539   9.691  0.2493 -0.0911 -2.2315
  664MOL0     H91582   3.972   6.596   9.440 -0.0063  3.1916  0.2954
  664MOL0     H91583   4.140   6.559   9.412 -0.3826  4.0183 -2.6526
  664MOL0     H91584   3.986   6.782   9.552 -0.6118 -0.6387 -0.0710
  664MOL0     H91585   4.156   6.792   9.562 -2.4224  1.8904  2.0449
  664MOL0     H91586   4.147   6.781   9.304  0.9938 -0.2288  1.6707
  664MOL0     H91587   3.977   6.844   9.322 -0.1330  1.9716  0.1972
  664MOL0     H91588   4.049   7.047   9.404  1.5738  2.0785 -0.1566
  664MOL0     H91589   4.214   6.983   9.418  0.4841 -3.1771 -0.6855
  664MOL0     H91590   3.877   7.064   9.297 -1.7880  3.1151 -0.6851
  664MOL0     H91591   3.665   7.196   9.258  2.2803  1.5699 -1.0385
  664MOL0     H91592   3.608   7.053   9.165  2.8655 -1.5549  1.4879
  664MOL0     H91593   3.597   7.220   9.103 -1.4856  0.5868  1.2857
  664MOL0     H91594   3.595   7.199   8.588  2.3090  1.1621  0.4131
  664MOL0     H91595   3.409   7.316   8.482  3.1025  0.4737  0.3465
  664MOL0     H91596   3.026   7.362   8.720 -1.3549 -0.0225 -0.5854
  664MOL0     H91597   2.990   7.441   8.573  0.9298  2.7456  3.8321
  664MOL0     H91598   2.988   7.231   8.453  1.8462  1.4352  0.2649
  664MOL0     H91599   3.066   7.145   8.589  2.8853  0.8197 -3.3774
  664MOL0     H91600   2.831   7.082   8.570 -2.9273 -0.3589  2.5009
  664MOL0     H91601   2.773   7.250   8.589 -0.1878 -0.4690 -1.1509
  664MOL0     H91602   2.865   7.254   8.818  0.2731  1.2757 -1.6154
  664MOL0     H91603   2.917   7.082   8.799  0.2664  0.1358  0.3340
  664MOL0     H91604   2.661   7.043   8.748 -0.3904  0.1014  0.7629
  664MOL0     H91605   2.716   7.040   8.909  0.9520 -1.5011 -1.1455
  664MOL0     H91606   2.603   7.307   8.788 -1.6687  0.6405 -0.7193
  664MOL0     H91607   2.645   7.275   8.959 -0.6910  0.5756  0.6886
  664MOL0     H91608   2.414   7.267   8.947 -0.3907 -0.9857  2.3091
  664MOL0     H91609   2.455   7.095   8.925 -0.2517 -0.4594 -0.8872
  664MOL0     H91610   2.443   7.112   8.679 -0.9617  1.3792 -0.9665
  664MOL0     H91611   2.423   7.285   8.683 -1.1524 -1.5730 -3.6746
  664MOL0     H91612   3.161   7.259   8.835 -0.4174 -0.4439 -0.6120
  664MOL0     H91613   3.384   7.162   8.944 -0.2741 -0.1754  0.1827
  664MOL0     H91614   3.982   7.192   8.837  1.4153 -0.3951  0.0546
  664MOL0     H91615   4.154   7.127   8.983 -1.1695  2.1016 -2.5765
  664MOL0     H91616   3.452   6.036  10.153  2.1900 -2.1986  1.4864
  664MOL0     H91617   3.218   6.103  10.147 -0.2042  1.4542  0.8925
  664MOL0     H91618   2.815   6.065  10.210 -0.9574 -0.9329 -0.3759
  664MOL0     H91619   2.581   6.133  10.177 -0.6061 -0.8760  0.7735
  664MOL0     H91620   2.452   6.507  10.355  2.1526 -1.1045 -2.0533
  664MOL0     H91621   2.383   6.495  10.199  1.0859  0.8198 -0.0511
  664MOL0     H91622   2.201   6.522  10.383 -1.1532 -1.0368 -1.2111
  664MOL0     H91623   2.279   6.397  10.475  2.1468  1.5756  0.7846
  664MOL0     H91624   2.213   6.214  10.306  2.6402  0.8204  1.3807
  664MOL0     H91625   2.075   6.296  10.376  0.5190  3.1884  1.4086
  664MOL0     H91626   2.080   6.256  10.119  2.2614 -1.5217  1.2995
  664MOL0     H91627   2.195   6.395  10.112  0.0565  0.1631 -0.6942
  664MOL0     H91628   1.853   6.611  10.239  0.7443  0.6367 -0.5642
  664MOL0     H91629   2.615   6.448  10.452 -0.7029 -0.7712  0.3632
  664MOL0     H91630   2.804   6.473  10.591 -0.5259 -3.1094  3.2367
  664MOL0     H91631   2.955   6.390  10.585 -1.1038  2.5601  1.3841
  664MOL0     H91632   2.920   6.504  10.452 -0.3362 -1.1307 -0.3102
  665MOL0     O91633  10.359   0.443   6.160  0.2825  0.4232 -0.2154
  665MOL0     C91634  10.386   0.565   6.180  0.2973 -0.5417  1.1037
  665MOL0     O91635  10.518   0.618   6.192  0.4799  0.1895 -0.3549
  665MOL0     C91636  10.610   0.531   6.141 -0.0520  0.6192 -0.6863
  665MOL0     C91637  10.661   0.439   6.236 -0.5789  0.1582 -0.3446
  665MOL0     C91638  10.747   0.334   6.187 -0.9258  0.2700  0.3245
  665MOL0     C91639  10.795   0.348   6.050 -0.3525 -0.1598  0.4176
  665MOL0     O91640  10.887   0.256   6.029  0.0852 -0.3122 -0.4319
  665MOL0     C91641  10.876   0.205   5.894  0.2548  0.1447 -0.3610
  665MOL0     C91642  10.977   0.082   5.874 -0.0258  0.3121  0.3051
  665MOL0     C91643  11.116   0.102   5.928 -0.6711  0.1821 -0.3738
  665MOL0     C91644  11.204  -0.015   5.925  0.5739 -0.2190 -0.9549
  665MOL0     C91645  11.321   0.011   5.819  0.1950 -0.5792 -0.2975
  665MOL0     C91646  11.394  -0.113   5.777 -0.1868 -0.4799  0.4206
  665MOL0     C91647  11.483  -0.094   5.657  0.1308  0.3339  0.2268
  665MOL0     C91648  11.573  -0.208   5.631  0.1823  0.8757 -0.0946
  665MOL0     N91649  11.630  -0.209   5.496  0.1878 -0.5699 -0.1708
  665MOL0     C91650  11.565  -0.252   5.379 -0.7523  0.4309 -0.3686
  665MOL0     C91651  11.658  -0.250   5.282 -0.1231  0.0405  0.9455
  665MOL0     C91652  11.646  -0.292   5.139  0.6806 -0.2499  0.0329
  665MOL0     C91653  11.679  -0.435   5.127 -0.4179  0.3055 -0.4053
  665MOL0     C91654  11.814  -0.475   5.190 -0.0234  1.2504  0.5147
  665MOL0     C91655  11.927  -0.398   5.130 -0.5924  0.1217  0.6014
  665MOL0     O91656  11.941  -0.424   4.991  0.0606  0.5407  0.8508
  665MOL0     C91657  12.063  -0.411   4.938  0.0440 -0.1528 -0.0398
  665MOL0     C91658  12.098  -0.496   4.832 -0.4937 -0.3924  0.4466
  665MOL0     C91659  12.229  -0.471   4.770  1.1351 -0.8032  0.4432
  665MOL0     C91660  12.275  -0.570   4.662  0.4776 -0.1247  0.5253
  665MOL0     C91661  12.298  -0.349   4.797 -0.1944  0.0233  0.4451
  665MOL0     C91662  12.431  -0.295   4.726 -0.8004  0.3942  0.0035
  665MOL0     O91663  12.518  -0.216   4.800  0.1394  0.1586 -0.9857
  665MOL0     C91664  12.643  -0.189   4.743  0.0717 -0.8006  0.7567
  665MOL0     C91665  12.745  -0.281   4.730  0.0433 -0.2848  0.9470
  665MOL0     C91666  12.875  -0.245   4.677  0.4278  0.1694 -0.7696
  665MOL0     C91667  12.895  -0.117   4.620 -0.3509 -0.1222  0.1353
  665MOL0     O91668  13.016  -0.074   4.573  0.2140  0.0701  0.0959
  665MOL0     C91669  13.129  -0.163   4.558 -0.0344  0.2072 -1.1731
  665MOL0     C91670  13.174  -0.154   4.409  0.2622  0.2891  0.6206
  665MOL0     C91671  13.322  -0.189   4.395 -0.3424  0.1875 -0.1147
  665MOL0     C91672  13.426  -0.081   4.442 -0.4398  0.4955  0.1538
  665MOL0     C91673  13.581  -0.128   4.424  0.7632  1.0957  0.2162
  665MOL0     C91674  13.676  -0.020   4.380  0.6987 -0.9343 -0.1867
  665MOL0     C91675  13.824  -0.056   4.391  0.3181  0.3860  0.5281
  665MOL0     C91676  13.861  -0.201   4.372 -0.4221 -0.0766  0.0060
  665MOL0    Cl91677  13.818  -0.261   4.208 -0.1526  0.4581  0.4706
  665MOL0     C91678  12.785  -0.033   4.609  0.1905  0.0172 -0.6016
  665MOL0     C91679  12.669  -0.063   4.684  0.7231 -1.2304 -0.7659
  665MOL0     O91680  12.452  -0.323   4.606  0.1663  0.5164 -0.9816
  665MOL0     C91681  12.251  -0.264   4.900 -0.7853  0.2961 -0.3222
  665MOL0     C91682  12.132  -0.295   4.970 -1.5294  0.0708 -0.3072
  665MOL0     N91683  11.782  -0.214   5.338  0.3608 -0.1818 -0.0199
  665MOL0     N91684  11.758  -0.184   5.461 -0.1442  0.7541 -0.0898
  665MOL0     C91685  10.740   0.446   5.958  0.1704  0.9042  0.1364
  665MOL0     C91686  10.653   0.541   6.009 -0.6925 -0.1033  0.0647
  665MOL0     C91687  10.277   0.680   6.185  0.9009  0.8193 -0.3083
  665MOL0     C91688  10.320   0.808   6.217 -0.2879 -0.1269  0.6124
  665MOL0     C91689  10.229   0.908   6.243 -0.0731 -0.6840 -0.2290
  665MOL0     C91690  10.093   0.887   6.234  1.0423 -0.4521  0.1629
  665MOL0     O91691   9.999   0.986   6.265  1.0917 -0.4002  0.1619
  665MOL0     C91692  10.027   1.127   6.224  0.3409  0.0515 -0.2720
  665MOL0     C91693   9.899   1.200   6.166 -0.3281  0.1645  0.6622
  665MOL0     C91694   9.857   1.134   6.035  0.0203 -0.2506  0.0450
  665MOL0     C91695   9.942   1.169   5.912  0.4423 -0.1933  0.1511
  665MOL0     C91696  10.072   1.107   5.917 -0.5779  0.4902 -0.5028
  665MOL0     C91697  10.182   1.060   5.937 -0.1821 -0.1189 -0.8439
  665MOL0     C91698  10.046   0.757   6.188 -0.6124  0.8123 -0.5526
  665MOL0     C91699  10.137   0.657   6.164  0.1013 -0.5883  1.1062
  665MOL0     C91700  10.074   0.518   6.131 -0.2748  0.3619  0.6379
  665MOL0     H91701  10.636   0.434   6.342  0.9850  0.4399  0.0671
  665MOL0     H91702  10.796   0.250   6.234  1.6943  0.9881 -0.9458
  665MOL0     H91703  10.901   0.287   5.825  0.4648 -0.5145 -1.0750
  665MOL0     H91704  10.778   0.166   5.867  0.8287 -4.2144  2.7260
  665MOL0     H91705  10.935  -0.005   5.927  1.9097 -1.0843 -0.3591
  665MOL0     H91706  10.989   0.064   5.767  0.3380 -0.7931  0.5127
  665MOL0     H91707  11.164   0.190   5.885 -2.0094 -0.9982 -4.7870
  665MOL0     H91708  11.106   0.128   6.034  0.6755  2.2750 -0.7119
  665MOL0     H91709  11.254  -0.038   6.020  0.6490  2.4953 -0.2472
  665MOL0     H91710  11.147  -0.103   5.897  0.9953 -0.9372  0.3665
  665MOL0     H91711  11.394   0.080   5.862 -1.0588  0.0390  0.8786
  665MOL0     H91712  11.279   0.055   5.729  3.0021 -1.2432 -2.0865
  665MOL0     H91713  11.468  -0.145   5.852  1.2117 -0.8057 -1.0578
  665MOL0     H91714  11.320  -0.189   5.750 -0.5430  0.1177 -0.2898
  665MOL0     H91715  11.551  -0.010   5.649 -0.1180  0.3668 -2.2476
  665MOL0     H91716  11.422  -0.081   5.567  0.6178  1.5892  0.0636
  665MOL0     H91717  11.662  -0.210   5.695 -0.0108 -0.7717  0.1525
  665MOL0     H91718  11.521  -0.302   5.651 -0.4917  1.0776 -0.8154
  665MOL0     H91719  11.464  -0.292   5.370 -1.5854  2.4717 -0.7745
  665MOL0     H91720  11.713  -0.238   5.072 -0.5591 -1.8160 -2.6633
  665MOL0     H91721  11.542  -0.283   5.106  1.1334  1.5373 -1.0433
  665MOL0     H91722  11.609  -0.495   5.186  0.0788  0.7038  0.6075
  665MOL0     H91723  11.653  -0.470   5.027  0.2539 -3.0624  0.4745
  665MOL0     H91724  11.808  -0.461   5.298 -0.5206 -1.1208  0.8361
  665MOL0     H91725  11.829  -0.581   5.167 -0.0308  1.4280 -0.3437
  665MOL0     H91726  11.918  -0.290   5.143 -1.1454  0.2286 -0.5072
  665MOL0     H91727  12.014  -0.441   5.180 -1.2790 -1.9679  0.1229
  665MOL0     H91728  12.040  -0.580   4.796  1.2016 -0.9759 -1.0477
  665MOL0     H91729  12.194  -0.641   4.647 -2.3872  3.0182  0.0580
  665MOL0     H91730  12.369  -0.622   4.682  0.9313 -1.0809 -3.3019
  665MOL0     H91731  12.299  -0.517   4.569  1.7293 -1.0391  0.3088
  665MOL0     H91732  12.719  -0.379   4.768  2.0243 -0.5897  1.5981
  665MOL0     H91733  12.956  -0.317   4.681 -2.0531 -2.7580  1.5697
  665MOL0     H91734  13.204  -0.144   4.636 -2.0330  1.0811  0.6403
  665MOL0     H91735  13.104  -0.266   4.581 -2.7590  0.7225 -1.5438
  665MOL0     H91736  13.114  -0.226   4.353 -0.6018  0.2721  1.5485
  665MOL0     H91737  13.150  -0.059   4.360 -0.4377 -0.5178 -0.6533
  665MOL0     H91738  13.344  -0.202   4.288  0.8989  0.9265  0.0357
  665MOL0     H91739  13.348  -0.277   4.454  0.8884  2.0057  2.1896
  665MOL0     H91740  13.413  -0.061   4.548 -2.7187  2.4104 -0.3871
  665MOL0     H91741  13.416   0.011   4.383  3.6863  1.8228  1.2024
  665MOL0     H91742  13.602  -0.184   4.515  1.3692  0.7763 -0.1150
  665MOL0     H91743  13.579  -0.200   4.342  2.3773 -0.4251  1.4407
  665MOL0     H91744  13.653   0.067   4.443 -3.1168 -2.9533  1.5625
  665MOL0     H91745  13.663   0.010   4.276  0.6388  1.5756  0.4793
  665MOL0     H91746  13.844  -0.015   4.490  0.9295 -1.0445  1.0203
  665MOL0     H91747  13.885   0.005   4.324  1.3904 -1.1576  0.0472
  665MOL0     H91748  13.797  -0.256   4.441 -1.3796  1.6057  0.5297
  665MOL0     H91749  13.967  -0.215   4.393  0.0082 -0.7831 -2.3153
  665MOL0     H91750  12.796   0.064   4.562 -1.9472 -0.0886 -1.4612
  665MOL0     H91751  12.593   0.015   4.680  0.9648 -0.9925 -0.6838
  665MOL0     H91752  12.310  -0.173   4.912 -1.7480  1.0662 -1.1915
  665MOL0     H91753  12.084  -0.227   5.040  2.1252  0.7906  1.7248
  665MOL0     H91754  10.773   0.450   5.854  0.9722 -1.1133  0.2682
  665MOL0     H91755  10.602   0.606   5.937 -0.8686 -1.1947 -0.8288
  665MOL0     H91756  10.424   0.838   6.222  0.9460 -2.5820 -4.1299
  665MOL0     H91757  10.270   0.993   6.296  0.0001 -0.2578 -0.9474
  665MOL0     H91758  10.054   1.183   6.314 -2.0595 -0.9837  1.1955
  665MOL0     H91759  10.112   1.124   6.156  0.5152  3.1739 -0.3120
  665MOL0     H91760   9.919   1.306   6.150 -2.0662  0.6079  1.2305
  665MOL0     H91761   9.823   1.189   6.244 -0.2477 -0.6311  0.6383
  665MOL0     H91762   9.854   1.025   6.039 -0.5865 -0.2503 -0.3915
  665MOL0     H91763   9.750   1.154   6.025 -0.4032 -2.6164 -0.7034
  665MOL0     H91764   9.960   1.276   5.906  1.1289 -0.2743  0.6889
  665MOL0     H91765   9.893   1.120   5.826  0.0786 -1.2134  0.9132
  665MOL0     H91766  10.272   1.015   5.974 -1.3486 -0.6895  1.4831
  665MOL0     H91767   9.939   0.736   6.182 -0.7244  0.9285  0.8040
  665MOL0     H91768  10.059   0.450   6.215 -1.5307 -1.2041 -0.7820
  665MOL0     H91769   9.985   0.541   6.071  1.3935 -0.9166 -2.5845
  665MOL0     H91770  10.131   0.460   6.058 -3.4918 -1.8127 -0.3596
  666MOL0     O91771   0.236   5.499  10.342  0.5660 -0.0403 -0.1063
  666MOL0     C91772   0.170   5.593  10.395  0.2781  0.2051 -0.9207
  666MOL0     O91773   0.217   5.714  10.436  0.0842  0.4322  0.0459
  666MOL0     C91774   0.353   5.727  10.442  0.6321 -0.8910  0.4173
  666MOL0     C91775   0.435   5.648  10.514  0.2971 -0.4592  0.2426
  666MOL0     C91776   0.566   5.671  10.516 -0.7779 -0.1493 -1.3563
  666MOL0     C91777   0.626   5.786  10.458  0.5612 -0.0692 -0.0933
  666MOL0     O91778   0.756   5.816  10.474  0.2072  0.0756 -0.5577
  666MOL0     C91779   0.843   5.718  10.426 -0.5055 -0.3350 -0.5005
  666MOL0     C91780   0.969   5.798  10.375 -0.2294 -0.3496  0.0872
  666MOL0     C91781   1.084   5.719  10.321 -0.2933  0.1412  0.2043
  666MOL0     C91782   1.199   5.811  10.261 -0.6770  1.4111 -0.6009
  666MOL0     C91783   1.173   5.886  10.124 -0.4893 -0.1059 -0.4727
  666MOL0     C91784   1.302   5.958  10.075 -0.3734 -0.4171 -0.3118
  666MOL0     C91785   1.272   6.012   9.941 -0.1102 -0.6228 -0.0114
  666MOL0     C91786   1.405   6.096   9.894 -0.6983 -0.3380 -0.0659
  666MOL0     N91787   1.395   6.173   9.771 -0.3175 -0.7613 -0.7651
  666MOL0     C91788   1.276   6.210   9.714  0.6938 -0.3859 -0.5829
  666MOL0     C91789   1.307   6.268   9.600  0.1528 -0.6041  0.1986
  666MOL0     C91790   1.213   6.320   9.497 -0.0458  0.2968 -0.0010
  666MOL0     C91791   1.119   6.419   9.556 -0.0547 -0.7452  0.4080
  666MOL0     C91792   1.038   6.506   9.451  0.4818  0.7219 -0.1261
  666MOL0     C91793   0.926   6.569   9.536  0.0981 -0.4584 -0.3526
  666MOL0     O91794   0.817   6.482   9.556  0.5107 -0.6990  0.0100
  666MOL0     C91795   0.707   6.527   9.626  0.0452 -0.0704  0.4208
  666MOL0     C91796   0.672   6.663   9.649  0.2831  0.1875  1.1224
  666MOL0     C91797   0.555   6.696   9.710 -0.8240 -0.3006  0.0147
  666MOL0     C91798   0.535   6.846   9.725 -0.4617  0.3797 -1.0871
  666MOL0     C91799   0.469   6.595   9.753 -0.0098 -0.1378 -1.4323
  666MOL0     C91800   0.330   6.639   9.817  0.3803  0.2262 -0.1054
  666MOL0     O91801   0.276   6.763   9.811  0.2083 -0.3526  0.4959
  666MOL0     C91802   0.190   6.804   9.915 -0.6315  0.6736  0.1270
  666MOL0     C91803   0.057   6.837   9.879  0.8354 -0.1869 -0.4086
  666MOL0     C91804  -0.028   6.880   9.979  0.5835  0.1764  0.2563
  666MOL0     C91805  -0.001   6.882  10.119  0.3560 -0.2298  0.1763
  666MOL0     O91806  -0.103   6.929  10.199 -0.0804  0.9374  0.5529
  666MOL0     C91807  -0.078   6.937  10.344  0.7829  0.0829  0.0725
  666MOL0     C91808  -0.200   6.996  10.415 -0.1070  0.4626 -0.3982
  666MOL0     C91809  -0.254   7.130  10.341 -0.4001 -0.0250  0.3582
  666MOL0     C91810  -0.397   7.158  10.385 -0.1790 -0.1503  0.5561
  666MOL0     C91811  -0.449   7.280  10.315  0.9096 -0.2183  1.0860
  666MOL0     C91812  -0.583   7.334  10.358  0.1172 -0.3128  0.2634
  666MOL0     C91813  -0.608   7.397  10.497 -0.3186  0.1685  0.5920
  666MOL0     C91814  -0.556   7.536  10.486  0.4414 -0.5117 -0.6141
  666MOL0    Cl91815  -0.672   7.636  10.396  0.4582 -0.1738  0.0921
  666MOL0     C91816   0.131   6.845  10.154 -0.0491  0.0340  0.2882
  666MOL0     C91817   0.219   6.805  10.053  0.1106  0.4903 -0.2358
  666MOL0     O91818   0.278   6.543   9.875 -0.1164  0.9379  0.4940
  666MOL0     C91819   0.506   6.460   9.738  0.7504  0.5900  0.3018
  666MOL0     C91820   0.617   6.431   9.663 -0.9331 -0.3036 -0.0888
  666MOL0     N91821   1.448   6.271   9.597  0.2524  0.6076  0.1154
  666MOL0     N91822   1.499   6.225   9.704  0.2234  0.1283  0.3795
  666MOL0     C91823   0.541   5.867  10.392 -0.3617 -0.5014  0.2140
  666MOL0     C91824   0.406   5.834  10.373 -0.9458  1.0679 -0.2712
  666MOL0     C91825   0.020   5.567  10.414 -0.3521  0.3190  0.1359
  666MOL0     C91826  -0.046   5.464  10.349  0.1264  1.0070  0.4536
  666MOL0     C91827  -0.170   5.416  10.380  0.5449 -0.4926 -0.9994
  666MOL0     C91828  -0.245   5.474  10.479  0.3116  0.7330  0.0301
  666MOL0     O91829  -0.363   5.411  10.497  0.2542  0.2451 -0.1764
  666MOL0     C91830  -0.436   5.446  10.624 -0.1039 -0.9194  0.1512
  666MOL0     C91831  -0.352   5.419  10.755 -0.0260  0.2626 -0.3133
  666MOL0     C91832  -0.430   5.451  10.888  0.3841 -0.0711 -0.5178
  666MOL0     C91833  -0.562   5.376  10.920 -0.5283  0.5474 -0.0063
  666MOL0     C91834  -0.671   5.403  10.823 -0.0868 -0.1864  0.4537
  666MOL0     C91835  -0.739   5.452  10.743  0.6664  0.2012 -0.0086
  666MOL0     C91836  -0.198   5.594  10.528 -0.3417 -0.2682 -0.4244
  666MOL0     C91837  -0.065   5.639  10.505 -0.8939 -0.2997 -0.4198
  666MOL0     C91838  -0.025   5.747  10.594  0.8940  0.9428  0.0612
  666MOL0     H91839   0.395   5.562  10.566 -1.1259  0.1303  0.1831
  666MOL0     H91840   0.631   5.607  10.574 -1.2342 -0.4178 -1.1328
  666MOL0     H91841   0.799   5.645  10.357  1.4597 -3.9111  1.6953
  666MOL0     H91842   0.873   5.647  10.504 -2.5219  0.3949  1.0618
  666MOL0     H91843   0.927   5.868  10.303 -0.0996  1.9138  2.1028
  666MOL0     H91844   1.001   5.857  10.461  1.1637 -1.3565  0.2928
  666MOL0     H91845   1.127   5.658  10.401  1.4408  0.9279 -0.0702
  666MOL0     H91846   1.039   5.655  10.245 -1.3632 -0.6691  1.4697
  666MOL0     H91847   1.235   5.877  10.340  0.4271 -0.9683  0.9983
  666MOL0     H91848   1.292   5.756  10.244 -0.1322  2.1253 -0.0322
  666MOL0     H91849   1.088   5.954  10.127  0.8719  1.6825  1.8446
  666MOL0     H91850   1.151   5.803  10.058  1.3342 -0.7241 -0.3730
  666MOL0     H91851   1.317   6.041  10.144 -2.7743 -2.2856  2.7719
  666MOL0     H91852   1.393   5.897  10.070  0.7994  1.3734 -2.2643
  666MOL0     H91853   1.181   6.072   9.937  0.5480  0.5132  1.1249
  666MOL0     H91854   1.259   5.929   9.871 -1.7051 -1.7587  1.5435
  666MOL0     H91855   1.449   6.162   9.970 -0.3690  2.1952 -2.2812
  666MOL0     H91856   1.483   6.024   9.865 -0.6063 -0.7492  1.1406
  666MOL0     H91857   1.183   6.191   9.768  2.1374 -2.5843  1.3234
  666MOL0     H91858   1.163   6.236   9.449  1.1516 -0.1061 -0.6007
  666MOL0     H91859   1.265   6.373   9.415  0.4235 -0.9960 -0.5606
  666MOL0     H91860   1.054   6.375   9.632  1.2174 -3.2634  0.1532
  666MOL0     H91861   1.183   6.493   9.604  0.2407 -2.5153  2.9312
  666MOL0     H91862   1.109   6.580   9.412 -0.3605  1.9524  0.5737
  666MOL0     H91863   0.995   6.446   9.370  2.3039  0.8424 -1.2518
  666MOL0     H91864   0.971   6.605   9.629  4.5460  0.8445 -2.6999
  666MOL0     H91865   0.897   6.663   9.489  0.5760  1.5757  3.0829
  666MOL0     H91866   0.737   6.739   9.607  0.9251  0.0246  1.7965
  666MOL0     H91867   0.505   6.872   9.827  1.5941 -2.0278  0.2467
  666MOL0     H91868   0.462   6.876   9.649  1.3667 -1.5728 -3.7972
  666MOL0     H91869   0.632   6.895   9.711 -0.5514  0.4905 -1.3334
  666MOL0     H91870   0.024   6.849   9.777 -1.5299 -2.4202 -0.0270
  666MOL0     H91871  -0.120   6.932   9.953 -0.5496 -1.0100  1.7131
  666MOL0     H91872  -0.078   6.835  10.385  0.2676 -0.8681 -2.1213
  666MOL0     H91873   0.012   6.996  10.363 -0.6212  2.3797  0.0334
  666MOL0     H91874  -0.275   6.916  10.404  2.7813 -2.2351 -2.2474
  666MOL0     H91875  -0.173   6.992  10.521  1.4204 -1.3754 -0.8080
  666MOL0     H91876  -0.258   7.121  10.232  1.6507  0.7552  0.1642
  666MOL0     H91877  -0.199   7.219  10.376 -1.4889  0.2870  1.3326
  666MOL0     H91878  -0.395   7.180  10.492  0.5014  0.0892  0.5011
  666MOL0     H91879  -0.465   7.073  10.380  0.3715 -0.6617  1.5623
  666MOL0     H91880  -0.371   7.354  10.336  0.6004  0.0151  1.4235
  666MOL0     H91881  -0.447   7.256  10.208  2.7628 -1.3642  1.3507
  666MOL0     H91882  -0.653   7.250  10.349 -0.4937  0.1363  0.8558
  666MOL0     H91883  -0.611   7.404  10.279 -0.3182  0.9590  1.5078
  666MOL0     H91884  -0.559   7.342  10.578  0.1684 -0.0683  0.1469
  666MOL0     H91885  -0.713   7.395  10.527 -0.5966 -2.1251 -0.3314
  666MOL0     H91886  -0.460   7.542  10.433 -0.0125  2.4536 -1.2731
  666MOL0     H91887  -0.530   7.584  10.580  0.7481  0.1956 -1.0462
  666MOL0     H91888   0.153   6.845  10.260 -1.0411  1.0036  0.5041
  666MOL0     H91889   0.311   6.764  10.091 -1.4380 -0.6518  2.5665
  666MOL0     H91890   0.447   6.377   9.776  0.7292  1.0029  1.2107
  666MOL0     H91891   0.646   6.326   9.659 -2.5338 -0.9016  2.2009
  666MOL0     H91892   0.586   5.956  10.347 -1.2289  1.2651  2.6049
  666MOL0     H91893   0.344   5.898  10.311 -2.5887 -0.9299 -0.8166
  666MOL0     H91894   0.000   5.397  10.277 -1.8417 -0.7901  0.7586
  666MOL0     H91895  -0.196   5.325  10.328  0.1485 -0.4900 -0.8080
  666MOL0     H91896  -0.470   5.550  10.626 -0.4720 -1.0391  1.9832
  666MOL0     H91897  -0.524   5.381  10.627 -1.9358  1.3835 -0.2276
  666MOL0     H91898  -0.262   5.480  10.765 -0.7832  1.3017  0.3966
  666MOL0     H91899  -0.337   5.310  10.761  0.4885  0.4018  1.7426
  666MOL0     H91900  -0.358   5.441  10.970  0.3253 -1.3024 -0.5982
  666MOL0     H91901  -0.465   5.555  10.892 -0.9444 -0.5313  0.8287
  666MOL0     H91902  -0.597   5.400  11.021 -1.2679  2.3762 -0.6469
  666MOL0     H91903  -0.542   5.268  10.923 -2.1951  0.2407  1.6814
  666MOL0     H91904  -0.786   5.507  10.664  0.1915  2.6820  1.8781
  666MOL0     H91905  -0.267   5.644  10.595  1.5480  0.4199  1.1159
  666MOL0     H91906  -0.002   5.841  10.543  2.4130 -0.6812 -2.4822
  666MOL0     H91907  -0.108   5.763  10.663  1.5333  0.5749  0.9238
  666MOL0     H91908   0.057   5.710  10.656  1.4756  3.2765  0.7980
  667MOL0     O91909  10.909   9.075  10.259 -0.1362  0.4318  0.1657
  667MOL0     C91910  10.988   9.151  10.317  0.0395 -0.7303  0.6290
  667MOL0     O91911  11.044   9.134  10.433  0.5052 -0.2170 -0.2347
  667MOL0     C91912  11.031   9.006  10.486  0.0453 -0.0053  0.3573
  667MOL0     C91913  10.945   9.002  10.595 -0.1651  0.5957  0.4026
  667MOL0     C91914  10.920   8.881  10.664  0.1326  0.8580  0.4815
  667MOL0     C91915  10.992   8.769  10.624 -0.3552  0.7433  0.3098
  667MOL0     O91916  10.956   8.655  10.699  0.5894  0.5068  0.7235
  667MOL0     C91917  11.049   8.556  10.730  0.9201  0.6827  0.9908
  667MOL0     C91918  11.046   8.441  10.635 -0.1146 -0.1803  1.2325
  667MOL0     C91919  11.146   8.325  10.675 -0.1974 -0.6241 -0.4582
  667MOL0     C91920  11.291   8.381  10.674  0.7406  0.5387 -0.6603
  667MOL0     C91921  11.385   8.264  10.711  0.3522 -0.3416  0.0972
  667MOL0     C91922  11.528   8.294  10.667 -0.0479 -0.5069 -0.3179
  667MOL0     C91923  11.618   8.170  10.694  0.3287 -0.4340  0.8014
  667MOL0     C91924  11.756   8.173  10.635 -0.1087 -0.0380  0.5829
  667MOL0     N91925  11.849   8.261  10.708 -0.3776  0.4172  0.1757
  667MOL0     C91926  11.928   8.360  10.649  0.6736 -0.2922  0.6128
  667MOL0     C91927  12.025   8.385  10.734  0.7457 -0.1199 -0.9434
  667MOL0     C91928  12.137   8.480  10.717  0.7444 -1.6607  0.0967
  667MOL0     C91929  12.276   8.410  10.736 -1.2219 -0.7748 -0.0426
  667MOL0     C91930  12.389   8.518  10.745 -0.0335  1.1400 -0.1156
  667MOL0     C91931  12.511   8.445  10.794 -0.3496  0.7032 -0.0212
  667MOL0     O91932  12.572   8.367  10.690  0.1377 -0.9124  0.0616
  667MOL0     C91933  12.706   8.339  10.708  0.4939  0.7769 -0.0181
  667MOL0     C91934  12.775   8.273  10.596  0.3368  0.0553  0.3357
  667MOL0     C91935  12.912   8.238  10.606 -0.7511  0.5295 -0.3911
  667MOL0     C91936  12.957   8.175  10.488  0.2940  0.4749 -0.2260
  667MOL0     C91937  12.989   8.270  10.718 -0.7027 -0.7863  0.0691
  667MOL0     C91938  13.137   8.247  10.714  0.5177  0.9003  0.0005
  667MOL0     O91939  13.201   8.195  10.605 -1.6315 -0.5860  0.5309
  667MOL0     C91940  13.332   8.165  10.611  0.1046  0.1931  0.7607
  667MOL0     C91941  13.419   8.253  10.542 -0.9670 -0.2434 -0.5168
  667MOL0     C91942  13.557   8.241  10.547 -0.5202 -0.5533 -0.8892
  667MOL0     C91943  13.619   8.137  10.617 -0.2907  0.4616 -0.3394
  667MOL0     O91944  13.762   8.143  10.631  0.5888  1.5701 -0.1885
  667MOL0     C91945  13.822   8.065  10.747  0.2830 -0.6258  1.0390
  667MOL0     C91946  13.803   8.132  10.874 -0.4136  0.5042  0.2838
  667MOL0     C91947  13.854   8.033  10.987 -0.8186 -0.2238  0.6401
  667MOL0     C91948  13.848   8.108  11.125 -0.8143  0.0732  0.6854
  667MOL0     C91949  13.939   8.044  11.230 -0.5906 -0.0910 -0.5715
  667MOL0     C91950  14.088   8.094  11.211 -0.6607 -0.0514 -0.0997
  667MOL0     C91951  14.162   8.111  11.342 -0.0459 -0.5215  0.4550
  667MOL0     C91952  14.313   8.146  11.331 -0.9715 -0.7001  0.1332
  667MOL0    Cl91953  14.326   8.312  11.260 -0.4342 -0.3573  0.2787
  667MOL0     C91954  13.535   8.051  10.695 -0.4849 -0.4572  0.8635
  667MOL0     C91955  13.393   8.067  10.692  0.0854  0.3923  1.0535
  667MOL0     O91956  13.195   8.280  10.808 -0.4898 -0.0087 -1.3351
  667MOL0     C91957  12.922   8.332  10.828 -0.1133  0.7072  0.4100
  667MOL0     C91958  12.782   8.357  10.828 -0.5709 -0.1396  0.0133
  667MOL0     N91959  12.015   8.310  10.849  0.5604 -0.2431  0.2421
  667MOL0     N91960  11.895   8.251  10.837 -0.0160 -0.6220  0.8786
  667MOL0     C91961  11.079   8.772  10.517 -0.5571 -0.5413  0.3140
  667MOL0     C91962  11.100   8.891  10.455  0.2843  0.2051  0.0889
  667MOL0     C91963  11.016   9.267  10.228 -0.0715  0.1980  1.0533
  667MOL0     C91964  10.905   9.318  10.157 -0.1177 -0.4859  0.2204
  667MOL0     C91965  10.916   9.414  10.054  0.5184 -0.6262 -0.1486
  667MOL0     C91966  11.040   9.478  10.026  0.3501  0.0669  0.0431
  667MOL0     O91967  11.050   9.585   9.930 -0.6477  0.1182  0.2359
  667MOL0     C91968  11.185   9.634   9.885 -0.1109 -0.6652 -0.7743
  667MOL0     C91969  11.250   9.735   9.985  0.3017 -0.5436  0.0181
  667MOL0     C91970  11.158   9.851  10.021  0.7780  0.0008  0.0113
  667MOL0     C91971  11.217   9.925  10.144 -0.2196  0.5395 -0.1789
  667MOL0     C91972  11.145  10.045  10.173 -0.2017  0.2069  0.7980
  667MOL0     C91973  11.083  10.146  10.204 -0.9603 -0.6051 -0.5817
  667MOL0     C91974  11.151   9.423  10.096  0.3375  0.5955  0.1602
  667MOL0     C91975  11.137   9.320  10.190  0.1165 -0.4727  0.0202
  667MOL0     C91976  11.265   9.302  10.273 -0.2820 -0.0129 -0.6870
  667MOL0     H91977  10.887   9.088  10.626 -0.9170 -0.6783  2.8329
  667MOL0     H91978  10.842   8.872  10.739 -1.4310 -0.8766 -1.2406
  667MOL0     H91979  11.026   8.512  10.828 -0.2651  0.2623  0.5387
  667MOL0     H91980  11.149   8.601  10.732  1.9782 -0.1387 -6.2271
  667MOL0     H91981  10.945   8.400  10.624  0.0831 -0.1479 -1.1735
  667MOL0     H91982  11.074   8.477  10.536  0.1261 -2.3651  0.4558
  667MOL0     H91983  11.135   8.303  10.781  2.2800  0.9521  0.2170
  667MOL0     H91984  11.140   8.235  10.612 -1.1291  0.2800 -1.7211
  667MOL0     H91985  11.311   8.410  10.570  0.6663 -0.5737 -1.0039
  667MOL0     H91986  11.309   8.469  10.736 -0.7272  1.8861 -2.0508
  667MOL0     H91987  11.348   8.183  10.648 -1.4059 -0.4788  1.2532
  667MOL0     H91988  11.390   8.249  10.819  1.4765  1.4184  0.3426
  667MOL0     H91989  11.524   8.314  10.559 -2.7634 -1.8089 -0.5348
  667MOL0     H91990  11.569   8.383  10.716 -1.4534  1.4701 -2.5005
  667MOL0     H91991  11.556   8.090  10.653 -1.9877  2.6364 -2.2787
  667MOL0     H91992  11.616   8.170  10.804  3.0379 -3.1402  0.9567
  667MOL0     H91993  11.788   8.069  10.629 -2.6890 -0.8195 -4.2321
  667MOL0     H91994  11.758   8.208  10.532  1.8814 -2.5783 -0.3532
  667MOL0     H91995  11.904   8.412  10.557 -1.7781  1.4668  2.1181
  667MOL0     H91996  12.121   8.555  10.795  0.3221 -2.0546  0.4025
  667MOL0     H91997  12.122   8.527  10.620 -0.5909  1.2341  1.5877
  667MOL0     H91998  12.277   8.353  10.829  1.4731 -0.0465  0.4383
  667MOL0     H91999  12.297   8.341  10.654  0.4541  0.4052 -0.6448
  667MOL0     H92000  12.412   8.563  10.648  0.2870 -1.0387 -1.1229
  667MOL0     H92001  12.360   8.600  10.811  0.3004  1.4592 -0.3599
  667MOL0     H92002  12.576   8.529  10.820 -0.3388  1.1106 -1.2933
  667MOL0     H92003  12.498   8.382  10.882 -0.9404  1.8100  0.7016
  667MOL0     H92004  12.713   8.246  10.511 -0.2199  0.5745  0.5663
  667MOL0     H92005  12.869   8.138  10.434 -1.5252  3.3330  0.5951
  667MOL0     H92006  13.014   8.083  10.505  2.6954  1.7999 -0.7276
  667MOL0     H92007  13.011   8.253  10.435  0.0220  3.2765  3.2450
  667MOL0     H92008  13.380   8.335  10.483 -2.4780 -1.0969 -0.7515
  667MOL0     H92009  13.616   8.320  10.503 -0.9733 -0.3457 -1.1299
  667MOL0     H92010  13.792   7.960  10.744  0.1575 -0.5878  0.9086
  667MOL0     H92011  13.929   8.045  10.738  0.2007 -0.8407  0.4784
  667MOL0     H92012  13.860   8.225  10.870  0.4420 -0.0392 -0.5294
  667MOL0     H92013  13.696   8.152  10.885 -1.3623 -0.4084 -4.9903
  667MOL0     H92014  13.958   8.007  10.965 -0.5082  1.7698 -0.4833
  667MOL0     H92015  13.797   7.941  11.003 -0.2827 -0.5235  0.8686
  667MOL0     H92016  13.745   8.094  11.156 -0.2492 -2.7548  1.5916
  667MOL0     H92017  13.863   8.216  11.114 -2.2309  0.1860 -0.3386
  667MOL0     H92018  13.901   8.081  11.325 -0.7239  0.9374 -1.0078
  667MOL0     H92019  13.944   7.935  11.223  1.0127  0.0124 -1.7888
  667MOL0     H92020  14.097   8.190  11.161 -2.0764  0.1093 -0.0982
  667MOL0     H92021  14.147   8.027  11.147  0.1457  0.4117  0.1509
  667MOL0     H92022  14.155   8.021  11.403 -1.3023 -0.3555  0.5810
  667MOL0     H92023  14.121   8.191  11.403  0.0051 -1.7080  2.1010
  667MOL0     H92024  14.366   8.086  11.257 -0.4104  1.0137 -0.9088
  667MOL0     H92025  14.355   8.141  11.432  0.3565  1.0228 -0.2933
  667MOL0     H92026  13.576   7.974  10.760  0.5568  0.3441  1.1883
  667MOL0     H92027  13.338   8.000  10.758 -1.8937 -1.4357 -2.1549
  667MOL0     H92028  12.980   8.344  10.920 -3.4761  3.0001  2.4807
  667MOL0     H92029  12.720   8.403  10.905 -0.4815 -2.9757  1.9507
  667MOL0     H92030  11.143   8.689  10.489  1.0581  1.2439 -1.5995
  667MOL0     H92031  11.189   8.892  10.392  2.5076  0.8928  3.0281
  667MOL0     H92032  10.804   9.281  10.171 -0.2827  0.0021  0.3164
  667MOL0     H92033  10.833   9.461  10.002  0.9360 -0.9207 -1.1268
  667MOL0     H92034  11.255   9.551   9.876  0.8999 -0.2458  2.1437
  667MOL0     H92035  11.175   9.674   9.783  0.8347  2.7185  0.3183
  667MOL0     H92036  11.341   9.774   9.938  2.9396 -1.9940  3.4778
  667MOL0     H92037  11.280   9.686  10.078  1.7181  2.3991  1.2555
  667MOL0     H92038  11.166   9.910   9.929 -0.1978  0.3466  0.1360
  667MOL0     H92039  11.056   9.815  10.041  1.5044 -4.3492 -2.7525
  667MOL0     H92040  11.326   9.941  10.140  0.1227 -1.1070  1.1314
  667MOL0     H92041  11.200   9.852  10.224  0.5201 -1.1162 -1.4644
  667MOL0     H92042  11.034  10.239  10.221 -0.9198 -0.9740  2.1221
  667MOL0     H92043  11.249   9.467  10.078  0.0695  1.4888  0.8302
  667MOL0     H92044  11.349   9.297  10.203  0.1591  1.0070 -0.2416
  667MOL0     H92045  11.267   9.380  10.349 -2.0102  0.4269 -1.0501
  667MOL0     H92046  11.267   9.202  10.318  0.6376  0.1715 -0.2970
  668MOL0     O92047   6.844   8.458   6.366  0.4241  0.0372 -0.4961
  668MOL0     C92048   6.791   8.556   6.327  0.5405  0.8997  0.9005
  668MOL0     O92049   6.835   8.648   6.232 -0.1389  0.3027  0.7532
  668MOL0     C92050   6.964   8.654   6.184 -0.3426  0.1933 -0.7016
  668MOL0     C92051   6.972   8.725   6.068 -0.4771  0.1916 -0.4639
  668MOL0     C92052   7.090   8.760   6.007 -0.6036  0.7763 -0.0005
  668MOL0     C92053   7.211   8.706   6.061  0.4764  0.3675 -0.5024
  668MOL0     O92054   7.342   8.724   6.022 -0.3901 -0.6647 -0.7920
  668MOL0     C92055   7.370   8.803   5.903 -0.8442 -0.6734 -0.5267
  668MOL0     C92056   7.518   8.830   5.891  0.3495  0.6098  0.3137
  668MOL0     C92057   7.605   8.699   5.882  0.5455 -0.2604 -0.3000
  668MOL0     C92058   7.585   8.627   5.751 -0.1627  0.2901 -0.2237
  668MOL0     C92059   7.642   8.480   5.750 -1.1177 -1.9416 -0.1125
  668MOL0     C92060   7.652   8.441   5.606  0.4126  0.5929  0.2687
  668MOL0     C92061   7.718   8.307   5.595 -0.7823  0.1222 -0.0420
  668MOL0     C92062   7.713   8.271   5.443  0.0886  0.1426 -0.4962
  668MOL0     N92063   7.742   8.138   5.384 -0.5192  0.3016 -0.3879
  668MOL0     C92064   7.781   8.029   5.456  0.0100 -1.1859  0.8982
  668MOL0     C92065   7.762   7.916   5.381 -1.0674  0.3346  0.6891
  668MOL0     C92066   7.800   7.785   5.431 -0.4266 -0.0069  0.4038
  668MOL0     C92067   7.692   7.729   5.520 -0.1584  0.1969 -0.1728
  668MOL0     C92068   7.558   7.726   5.438  0.2347 -0.6992  0.1543
  668MOL0     C92069   7.488   7.596   5.435 -0.9977  0.4911  0.1982
  668MOL0     O92070   7.443   7.547   5.561  1.0858  0.5089 -0.2183
  668MOL0     C92071   7.311   7.599   5.583 -0.8825 -0.3570 -0.1943
  668MOL0     C92072   7.277   7.679   5.692  0.1584  0.1868 -0.4286
  668MOL0     C92073   7.146   7.721   5.725 -1.1102 -0.5037  0.6622
  668MOL0     C92074   7.136   7.789   5.853 -0.9856 -0.6440  1.2111
  668MOL0     C92075   7.038   7.671   5.646  0.6807  0.2006 -0.2178
  668MOL0     C92076   6.887   7.675   5.675  0.6756 -0.1620 -0.0128
  668MOL0     O92077   6.815   7.599   5.590  0.0090  0.6005  0.2961
  668MOL0     C92078   6.680   7.573   5.613  0.1437  0.3777  0.8686
  668MOL0     C92079   6.586   7.611   5.517 -1.3151 -0.1169 -0.0039
  668MOL0     C92080   6.454   7.588   5.546 -0.5827  0.0316 -0.2513
  668MOL0     C92081   6.410   7.529   5.672  0.4686 -1.1273 -0.1240
  668MOL0     O92082   6.276   7.508   5.687 -0.1854  0.5234 -0.1893
  668MOL0     C92083   6.242   7.384   5.741 -0.7594  0.5666 -0.3355
  668MOL0     C92084   6.089   7.363   5.745  0.3373  0.1320 -0.7165
  668MOL0     C92085   6.055   7.227   5.798  0.4702 -0.0129 -0.4877
  668MOL0     C92086   5.904   7.205   5.815 -0.8752  0.1938  0.0502
  668MOL0     C92087   5.870   7.061   5.868  0.3739 -0.9040  0.9159
  668MOL0     C92088   5.716   7.028   5.851  0.6517  0.1214  0.4731
  668MOL0     C92089   5.617   7.131   5.912  0.3319  0.0804 -0.2202
  668MOL0     C92090   5.631   7.116   6.067  0.1001 -0.2915 -0.0683
  668MOL0    Cl92091   5.559   6.962   6.121 -0.7540  0.1161  0.4501
  668MOL0     C92092   6.511   7.510   5.768  0.8919  0.8817  0.2682
  668MOL0     C92093   6.647   7.529   5.734  0.7914  0.5976 -0.7161
  668MOL0     O92094   6.843   7.747   5.769  0.5952  0.9988  0.2323
  668MOL0     C92095   7.076   7.589   5.537  0.0152  0.3684  1.0611
  668MOL0     C92096   7.204   7.559   5.505  0.3422 -0.1998  0.5895
  668MOL0     N92097   7.719   7.962   5.262  0.3442 -0.0042 -0.1928
  668MOL0     N92098   7.696   8.096   5.264  0.5506  0.4581 -0.2149
  668MOL0     C92099   7.196   8.629   6.181 -0.7853 -0.3018 -0.2572
  668MOL0     C92100   7.079   8.614   6.252  0.6568 -0.2681 -0.4097
  668MOL0     C92101   6.641   8.573   6.344 -0.4867  0.9002 -0.0329
  668MOL0     C92102   6.560   8.649   6.251  0.6164  0.0034  0.3188
  668MOL0     C92103   6.421   8.659   6.266 -0.4617 -0.0089  0.1988
  668MOL0     C92104   6.352   8.619   6.377 -0.3406  0.3789 -0.2570
  668MOL0     O92105   6.219   8.638   6.383 -0.0128 -0.4789 -0.8491
  668MOL0     C92106   6.146   8.556   6.484  0.4869 -0.3949  1.1044
  668MOL0     C92107   5.990   8.607   6.490  0.5301 -0.9187 -0.0454
  668MOL0     C92108   5.928   8.612   6.352 -0.0794  0.6640  0.3975
  668MOL0     C92109   5.778   8.637   6.347  0.1257  0.3647  0.2951
  668MOL0     C92110   5.729   8.627   6.204 -0.3683 -0.1160  0.0730
  668MOL0     C92111   5.696   8.639   6.089  0.1018 -0.2438  0.0744
  668MOL0     C92112   6.431   8.542   6.463 -0.6238  0.2116 -1.4025
  668MOL0     C92113   6.568   8.517   6.457 -0.3592 -0.4377  1.5227
  668MOL0     C92114   6.631   8.443   6.571 -0.2375  1.1423 -0.4632
  668MOL0     H92115   6.882   8.753   6.013 -2.6206 -1.9947  1.7168
  668MOL0     H92116   7.089   8.836   5.929 -1.6336  0.2297 -0.5391
  668MOL0     H92117   7.330   8.903   5.920  1.2152  0.1788 -0.3828
  668MOL0     H92118   7.310   8.763   5.820 -4.2314 -1.5995  2.1461
  668MOL0     H92119   7.545   8.896   5.807  3.9653 -1.2041 -0.1478
  668MOL0     H92120   7.552   8.886   5.978 -0.7355 -0.0487  1.1804
  668MOL0     H92121   7.710   8.726   5.887  0.6142 -0.5979  0.0962
  668MOL0     H92122   7.566   8.636   5.962 -1.8034  2.7826  1.1743
  668MOL0     H92123   7.478   8.619   5.730 -0.1377  1.1251 -0.7368
  668MOL0     H92124   7.625   8.689   5.670 -2.0779  1.7350 -0.1495
  668MOL0     H92125   7.569   8.421   5.807 -2.3115 -0.0551  0.3967
  668MOL0     H92126   7.744   8.464   5.787 -1.8589 -2.0072  2.0637
  668MOL0     H92127   7.546   8.438   5.576  0.3338 -0.5218  0.6413
  668MOL0     H92128   7.702   8.507   5.535 -1.7539  0.6997 -1.2766
  668MOL0     H92129   7.670   8.230   5.656  1.5655 -0.8955  0.6461
  668MOL0     H92130   7.823   8.297   5.626 -0.5540  0.1208 -0.7996
  668MOL0     H92131   7.620   8.301   5.393  1.3303  1.1386 -2.3055
  668MOL0     H92132   7.792   8.338   5.408 -0.8982  0.6193 -1.9393
  668MOL0     H92133   7.811   8.037   5.561 -1.7734  0.6893  1.3188
  668MOL0     H92134   7.895   7.792   5.486  2.3902  1.2081 -4.0851
  668MOL0     H92135   7.806   7.723   5.342 -2.4461 -0.2158  0.3704
  668MOL0     H92136   7.727   7.636   5.566  3.2783  1.6564  0.4477
  668MOL0     H92137   7.679   7.799   5.602  2.0707 -0.3134  0.6658
  668MOL0     H92138   7.484   7.776   5.501 -2.7394 -0.9339 -2.9193
  668MOL0     H92139   7.560   7.760   5.334 -0.0434  1.0305  0.6877
  668MOL0     H92140   7.413   7.606   5.356 -0.3380  0.9427 -0.3804
  668MOL0     H92141   7.553   7.517   5.395  0.7887  2.1499 -0.3672
  668MOL0     H92142   7.353   7.700   5.767 -1.0207 -0.0181  0.8666
  668MOL0     H92143   7.222   7.852   5.878  0.7950 -1.2834 -2.5584
  668MOL0     H92144   7.124   7.705   5.921 -3.0052  0.4433  2.2900
  668MOL0     H92145   7.044   7.848   5.849 -2.0244 -2.2137 -2.3704
  668MOL0     H92146   6.612   7.660   5.424  1.8948  0.9421  1.2825
  668MOL0     H92147   6.376   7.608   5.474  0.1689 -0.9440 -1.3855
  668MOL0     H92148   6.285   7.308   5.676 -0.3178  0.8145 -0.3406
  668MOL0     H92149   6.286   7.379   5.841  0.7055  2.0766 -0.8586
  668MOL0     H92150   6.033   7.433   5.806 -0.1674  0.1394 -1.1828
  668MOL0     H92151   6.052   7.366   5.642 -0.1163 -1.8976 -0.6617
  668MOL0     H92152   6.098   7.219   5.898 -2.6657 -0.4121  0.9369
  668MOL0     H92153   6.094   7.150   5.731  0.4311  1.3477 -2.1325
  668MOL0     H92154   5.867   7.207   5.711 -1.3346 -0.5301  0.1890
  668MOL0     H92155   5.860   7.282   5.879 -1.5380 -0.0633 -0.0805
  668MOL0     H92156   5.929   6.981   5.821 -0.2715 -1.2561  0.6904
  668MOL0     H92157   5.893   7.057   5.975  1.4332 -0.4570  0.7134
  668MOL0     H92158   5.708   6.934   5.907  1.2286 -0.5471 -0.5390
  668MOL0     H92159   5.693   7.020   5.744  0.3314  1.3873  0.4251
  668MOL0     H92160   5.514   7.108   5.883  0.1412 -1.8926  1.7400
  668MOL0     H92161   5.638   7.236   5.892  1.4809  0.2091  1.4278
  668MOL0     H92162   5.568   7.194   6.111 -1.4451 -1.9364  0.7824
  668MOL0     H92163   5.733   7.131   6.102 -0.4919 -0.4997  1.8525
  668MOL0     H92164   6.491   7.472   5.868 -0.2203  2.0315  0.5136
  668MOL0     H92165   6.717   7.515   5.816 -0.5367  1.5637  0.6395
  668MOL0     H92166   7.006   7.547   5.465  1.6145  0.3585 -0.5441
  668MOL0     H92167   7.223   7.489   5.424 -1.0882  0.8370 -0.7234
  668MOL0     H92168   7.287   8.591   6.226 -1.2178 -1.1228 -0.0656
  668MOL0     H92169   7.074   8.564   6.348 -0.2577  0.6498  0.0495
  668MOL0     H92170   6.608   8.700   6.167 -1.2578  1.0505 -0.1630
  668MOL0     H92171   6.370   8.725   6.197  0.1908  1.4614  1.0928
  668MOL0     H92172   6.150   8.451   6.454  0.5051 -0.0362 -0.2106
  668MOL0     H92173   6.198   8.559   6.580 -0.3012 -0.0665  1.5375
  668MOL0     H92174   5.992   8.704   6.539  0.6146 -0.0421 -1.7109
  668MOL0     H92175   5.938   8.540   6.559 -0.8564  1.8144  1.7365
  668MOL0     H92176   5.979   8.690   6.294  0.3969 -1.1395 -1.7513
  668MOL0     H92177   5.947   8.514   6.307  3.9007  0.1093  2.8487
  668MOL0     H92178   5.758   8.737   6.387  1.6982  0.5982  0.5680
  668MOL0     H92179   5.723   8.568   6.412 -0.8630  2.0504  1.3302
  668MOL0     H92180   5.676   8.650   5.985  0.1620  0.5249  0.1366
  668MOL0     H92181   6.392   8.494   6.551 -0.0909  1.8425 -0.2165
  668MOL0     H92182   6.638   8.335   6.554 -0.8985  0.1248  4.2313
  668MOL0     H92183   6.728   8.481   6.606  0.3100 -0.8213  0.3018
  668MOL0     H92184   6.574   8.440   6.665 -0.3600 -0.9674 -0.5551
  669MOL0     O92185   5.714  11.088   6.002 -0.0232  0.1286  0.4025
  669MOL0     C92186   5.678  11.107   5.887  0.0840 -0.7073  0.4500
  669MOL0     O92187   5.765  11.107   5.787  0.3441  0.3393  0.6133
  669MOL0     C92188   5.897  11.087   5.816 -0.7021 -0.4524  0.2606
  669MOL0     C92189   5.989  11.195   5.803  0.4032  0.1251  1.2419
  669MOL0     C92190   6.131  11.169   5.817  0.5364  0.7055 -0.8204
  669MOL0     C92191   6.176  11.036   5.837  0.1254 -0.5363  0.7646
  669MOL0     O92192   6.310  11.023   5.856  0.0001 -1.4787  0.1525
  669MOL0     C92193   6.372  10.906   5.813 -0.6291 -0.2681  0.1451
  669MOL0     C92194   6.528  10.923   5.829  0.1084 -0.3182  0.2538
  669MOL0     C92195   6.601  10.842   5.728  0.6076 -0.3998 -0.2285
  669MOL0     C92196   6.746  10.880   5.726 -0.5117 -0.6154 -0.0692
  669MOL0     C92197   6.830  10.842   5.603 -0.3112  0.1845 -0.2671
  669MOL0     C92198   6.829  10.697   5.547  0.3855 -0.1043 -0.0893
  669MOL0     C92199   6.954  10.669   5.470  0.3881  0.5685  0.2425
  669MOL0     C92200   6.954  10.524   5.427  0.3329 -0.2594 -0.0854
  669MOL0     N92201   7.067  10.490   5.337 -0.1079  0.1937 -0.2519
  669MOL0     C92202   7.115  10.561   5.238 -0.2874 -0.1777  0.3138
  669MOL0     C92203   7.224  10.497   5.199  0.6758 -0.5865 -0.0361
  669MOL0     C92204   7.311  10.542   5.089 -0.2958 -0.4022  0.4723
  669MOL0     C92205   7.380  10.674   5.117  0.2147 -0.6140 -0.2227
  669MOL0     C92206   7.445  10.728   4.987  0.1688  0.6284 -0.4503
  669MOL0     C92207   7.519  10.855   5.028  0.5191 -0.0285  0.3483
  669MOL0     O92208   7.571  10.916   4.910  0.5346  0.3150 -0.2249
  669MOL0     C92209   7.500  11.004   4.832 -0.4444 -0.8312  0.1220
  669MOL0     C92210   7.362  11.018   4.832  0.3098 -0.9191  0.3456
  669MOL0     C92211   7.301  11.117   4.755  1.0648  0.7619  0.0725
  669MOL0     C92212   7.148  11.121   4.762  0.2257 -0.3263  0.3038
  669MOL0     C92213   7.389  11.194   4.667 -0.1046 -0.3468 -0.0942
  669MOL0     C92214   7.332  11.303   4.572 -0.6581  0.3700  0.6287
  669MOL0     O92215   7.417  11.347   4.474  0.5348  0.4995 -0.1190
  669MOL0     C92216   7.373  11.459   4.405 -0.2351 -0.3374 -0.0198
  669MOL0     C92217   7.261  11.457   4.314 -0.6400  0.7347  0.6821
  669MOL0     C92218   7.212  11.577   4.261  0.4189 -0.0026 -0.1188
  669MOL0     C92219   7.276  11.694   4.277  0.8266  0.5717 -0.2348
  669MOL0     O92220   7.242  11.810   4.213  0.8208 -0.4103 -0.5570
  669MOL0     C92221   7.153  11.787   4.106  0.1776 -0.2127  0.0284
  669MOL0     C92222   7.147  11.919   4.030  0.0952 -0.6705 -0.7237
  669MOL0     C92223   7.078  11.899   3.892  0.4319 -0.4104  0.3352
  669MOL0     C92224   6.923  11.867   3.898  0.0520  0.2345 -0.1474
  669MOL0     C92225   6.849  11.895   3.766 -0.2806 -0.1953  0.1622
  669MOL0     C92226   6.699  11.898   3.795  0.6918 -0.1094  0.7866
  669MOL0     C92227   6.608  11.933   3.672 -0.6048  0.2250  0.1124
  669MOL0     C92228   6.607  12.087   3.646  0.2043 -0.3839 -0.6352
  669MOL0    Cl92229   6.618  12.129   3.468 -0.2128 -0.4172  0.1046
  669MOL0     C92230   7.388  11.699   4.352 -0.2729  0.5697  0.2139
  669MOL0     C92231   7.433  11.582   4.415  0.0561 -0.3704 -0.7259
  669MOL0     O92232   7.231  11.356   4.603 -0.1859 -0.3108  0.1457
  669MOL0     C92233   7.522  11.171   4.675 -0.3927 -0.1107  0.5166
  669MOL0     C92234   7.578  11.075   4.753 -0.2702 -0.5089 -0.1933
  669MOL0     N92235   7.247  10.383   5.276  0.2366  0.1828  0.4695
  669MOL0     N92236   7.157  10.386   5.352  0.4279  0.0747  0.5120
  669MOL0     C92237   6.085  10.926   5.848  0.2233 -0.2299 -0.8097
  669MOL0     C92238   5.947  10.958   5.845  0.5289  0.3402 -0.6546
  669MOL0     C92239   5.531  11.127   5.866 -0.5701  1.2381  1.6984
  669MOL0     C92240   5.489  11.117   5.734  0.0618 -0.2671  0.1355
  669MOL0     C92241   5.355  11.128   5.700 -0.4569 -1.0166 -0.8992
  669MOL0     C92242   5.256  11.140   5.797  0.4343 -0.3944 -0.0859
  669MOL0     O92243   5.119  11.136   5.766 -0.6012 -0.7906 -0.3365
  669MOL0     C92244   5.063  11.272   5.775 -0.2172 -0.5711  0.6097
  669MOL0     C92245   4.919  11.269   5.822  0.1859 -0.4550 -0.2569
  669MOL0     C92246   4.820  11.202   5.724  1.0375 -0.2712 -0.3356
  669MOL0     C92247   4.698  11.163   5.790  0.1493 -0.8228 -0.9131
  669MOL0     C92248   4.705  11.030   5.855  0.2599 -1.0720 -0.2544
  669MOL0     C92249   4.712  10.930   5.907 -0.6404  0.2656 -0.6831
  669MOL0     C92250   5.300  11.156   5.933  0.4900  0.1987  1.1396
  669MOL0     C92251   5.437  11.152   5.966 -0.6668  0.9837  0.4213
  669MOL0     C92252   5.471  11.202   6.102  0.2621  0.3925  0.1977
  669MOL0     H92253   5.955  11.296   5.780  0.1595 -0.1644  0.3095
  669MOL0     H92254   6.199  11.253   5.807  1.9978 -0.4561 -1.0813
  669MOL0     H92255   6.355  10.870   5.711  2.8087  1.0431 -1.0247
  669MOL0     H92256   6.328  10.829   5.877 -1.9716  2.8281  3.2036
  669MOL0     H92257   6.548  11.030   5.824 -1.2988  0.0861  2.1131
  669MOL0     H92258   6.561  10.894   5.929 -2.4422 -0.5012  1.1099
  669MOL0     H92259   6.599  10.738   5.763  0.0729  0.2252  1.7398
  669MOL0     H92260   6.566  10.858   5.626  3.8118 -0.6016 -1.4649
  669MOL0     H92261   6.771  10.984   5.748  2.1265 -0.6873 -2.2459
  669MOL0     H92262   6.788  10.822   5.808 -1.9665 -1.4759  0.1000
  669MOL0     H92263   6.934  10.872   5.621 -0.1501 -0.5621  0.0680
  669MOL0     H92264   6.801  10.908   5.520 -0.1204 -1.0904 -1.3873
  669MOL0     H92265   6.820  10.628   5.631  0.0858  0.4048  0.3113
  669MOL0     H92266   6.736  10.696   5.490  1.3630  3.4525 -2.0661
  669MOL0     H92267   7.039  10.697   5.532  1.6634  1.6035 -1.8566
  669MOL0     H92268   6.956  10.730   5.379  2.4617  0.0626 -0.1040
  669MOL0     H92269   6.957  10.459   5.514 -1.4806 -1.6675 -1.0059
  669MOL0     H92270   6.863  10.485   5.381  0.5636  0.8479 -1.5794
  669MOL0     H92271   7.092  10.662   5.207  1.0307 -0.9866 -4.0618
  669MOL0     H92272   7.258  10.542   4.993  3.3185 -1.7727 -1.7742
  669MOL0     H92273   7.393  10.472   5.066  0.1055  1.4177 -5.1630
  669MOL0     H92274   7.317  10.754   5.158  2.8035  0.8387  1.1739
  669MOL0     H92275   7.456  10.643   5.189  1.1099  0.0661 -0.8432
  669MOL0     H92276   7.521  10.663   4.943  0.0395  1.6100 -2.2006
  669MOL0     H92277   7.372  10.737   4.906 -1.1648 -1.0577  0.4708
  669MOL0     H92278   7.450  10.926   5.076 -0.6757 -0.3585 -0.8043
  669MOL0     H92279   7.596  10.824   5.099 -0.5116 -0.9438  1.1043
  669MOL0     H92280   7.300  10.954   4.894 -1.0847  1.4122  1.4774
  669MOL0     H92281   7.107  11.205   4.820 -0.8778  0.0881 -1.0060
  669MOL0     H92282   7.106  11.033   4.811 -0.3622  0.0226  0.4484
  669MOL0     H92283   7.110  11.118   4.659  1.7800  0.6670 -0.3352
  669MOL0     H92284   7.224  11.362   4.278  1.1626  0.7017 -1.2682
  669MOL0     H92285   7.129  11.570   4.192  3.1979  4.2722 -4.6597
  669MOL0     H92286   7.199  11.729   4.025 -0.5865 -0.2339 -0.3955
  669MOL0     H92287   7.052  11.752   4.130  1.3983 -3.0619  1.5625
  669MOL0     H92288   7.091  11.990   4.092  1.4107 -1.6440  1.6972
  669MOL0     H92289   7.249  11.955   4.012 -0.5802  0.6079 -2.2125
  669MOL0     H92290   7.125  11.821   3.831 -0.3242  0.6760 -1.7668
  669MOL0     H92291   7.079  11.995   3.839  1.7351  0.0078  1.0746
  669MOL0     H92292   6.881  11.937   3.971  0.5767  3.5467 -2.8052
  669MOL0     H92293   6.907  11.765   3.933 -1.1578 -0.5627 -2.8509
  669MOL0     H92294   6.900  11.983   3.726  4.1509 -1.2334  2.7922
  669MOL0     H92295   6.860  11.804   3.706  1.1893 -1.4282  2.1635
  669MOL0     H92296   6.678  11.977   3.868  0.9037  1.1312 -0.4636
  669MOL0     H92297   6.665  11.800   3.831 -0.2766 -0.1668 -0.2241
  669MOL0     H92298   6.505  11.898   3.686  0.5625 -3.0033  1.5349
  669MOL0     H92299   6.640  11.890   3.577  0.3956  0.7472  0.1921
  669MOL0     H92300   6.694  12.129   3.697  0.0480 -2.2807  1.3073
  669MOL0     H92301   6.516  12.125   3.694  0.3694 -1.1761  0.3257
  669MOL0     H92302   7.456  11.783   4.358 -0.4115  0.5789  2.3666
  669MOL0     H92303   7.530  11.587   4.464 -0.6769  1.6236  0.6629
  669MOL0     H92304   7.576  11.242   4.614 -0.6279 -2.1513 -2.2451
  669MOL0     H92305   7.685  11.063   4.747 -0.5172 -2.0977 -2.5531
  669MOL0     H92306   6.110  10.822   5.866 -0.1584  0.3674  5.0360
  669MOL0     H92307   5.873  10.880   5.860  0.5782  0.1981 -1.1161
  669MOL0     H92308   5.563  11.106   5.655  0.1429  0.9382  0.0247
  669MOL0     H92309   5.321  11.125   5.597  2.1424  1.6617 -2.0086
  669MOL0     H92310   5.122  11.349   5.826 -3.5807  2.8096 -0.1307
  669MOL0     H92311   5.054  11.312   5.674  0.2181  1.9910  1.5243
  669MOL0     H92312   4.893  11.373   5.846 -1.4844 -0.8884 -0.0387
  669MOL0     H92313   4.912  11.215   5.917 -0.7350  0.9714  0.5329
  669MOL0     H92314   4.783  11.265   5.643 -3.6978  1.0596  2.4733
  669MOL0     H92315   4.876  11.117   5.685 -0.6210 -1.8970  0.6731
  669MOL0     H92316   4.619  11.158   5.715  1.2056 -0.1607 -2.1105
  669MOL0     H92317   4.664  11.251   5.845 -1.2140 -0.3622 -2.4032
  669MOL0     H92318   4.729  10.836   5.957 -0.2202 -0.1448 -1.5765
  669MOL0     H92319   5.218  11.186   5.998 -1.0647 -1.8679  0.2683
  669MOL0     H92320   5.496  11.120   6.170 -1.2131 -0.0003  0.3176
  669MOL0     H92321   5.550  11.277   6.092 -0.9815  1.7548  0.2564
  669MOL0     H92322   5.381  11.246   6.146 -0.7955  0.2481 -1.7172
  670MOL0     O92323   6.168   4.702   5.148  1.0016  0.2287  0.4124
  670MOL0     C92324   6.132   4.723   5.035 -0.1209  0.0351  0.3015
  670MOL0     O92325   6.179   4.829   4.959 -0.0411 -0.0700 -0.3177
  670MOL0     C92326   6.287   4.908   4.997  0.3021  0.3749  0.5956
  670MOL0     C92327   6.275   5.049   4.991  0.3544  0.0526  0.0329
  670MOL0     C92328   6.382   5.127   5.030  1.1457  0.0812 -0.8385
  670MOL0     C92329   6.497   5.068   5.090  0.5532 -0.0537 -0.1945
  670MOL0     O92330   6.606   5.151   5.114 -0.2937 -0.3916 -0.1267
  670MOL0     C92331   6.665   5.135   5.242  0.2373  0.3840 -0.3804
  670MOL0     C92332   6.649   5.270   5.322  0.2090  0.5853  0.5522
  670MOL0     C92333   6.735   5.268   5.446 -0.2595 -0.4926 -0.0467
  670MOL0     C92334   6.694   5.139   5.529  1.2516  0.1274  0.2739
  670MOL0     C92335   6.733   5.132   5.672  0.1521 -0.0873 -0.0716
  670MOL0     C92336   6.657   5.011   5.729 -0.2569  0.1414 -1.0688
  670MOL0     C92337   6.720   4.952   5.856 -1.1745 -0.8524  0.1553
  670MOL0     C92338   6.764   5.054   5.965  0.9957  0.0556  0.1373
  670MOL0     N92339   6.652   5.147   5.998  0.6509  0.5302  0.6576
  670MOL0     C92340   6.674   5.286   6.025  0.0352  0.2078  0.1339
  670MOL0     C92341   6.545   5.318   6.067  0.0270  0.3162 -0.4855
  670MOL0     C92342   6.488   5.447   6.126  0.9655 -0.0710 -0.1523
  670MOL0     C92343   6.547   5.585   6.098 -0.4421  0.4280  0.2766
  670MOL0     C92344   6.690   5.597   6.144 -0.0670 -0.1027 -0.4736
  670MOL0     C92345   6.732   5.744   6.151 -0.3018  0.2096  0.0518
  670MOL0     O92346   6.704   5.787   6.284 -0.5259  0.4030 -0.8258
  670MOL0     C92347   6.739   5.914   6.312 -0.5456 -0.0311 -0.6091
  670MOL0     C92348   6.670   5.971   6.417 -0.6955  0.5473 -0.7282
  670MOL0     C92349   6.694   6.096   6.470  0.7057 -0.1404  0.6112
  670MOL0     C92350   6.600   6.141   6.586  0.7455  0.6294  0.5933
  670MOL0     C92351   6.800   6.173   6.409 -0.7933  0.6565 -0.6810
  670MOL0     C92352   6.830   6.317   6.452  0.5076  0.6905  0.2374
  670MOL0     O92353   6.915   6.386   6.376  0.2910  1.3378 -0.3969
  670MOL0     C92354   6.915   6.522   6.383  0.5333  0.3866 -0.1798
  670MOL0     C92355   6.991   6.587   6.479  0.2874  0.0132  0.5790
  670MOL0     C92356   6.986   6.734   6.489 -0.0411  0.0724 -0.5446
  670MOL0     C92357   6.901   6.804   6.405 -0.0797 -0.3257  0.5719
  670MOL0     O92358   6.906   6.947   6.413  0.0413  1.0850  0.6351
  670MOL0     C92359   6.779   7.011   6.428  0.0108 -0.8083  1.0944
  670MOL0     C92360   6.777   7.159   6.476  0.1039 -0.1008  0.1026
  670MOL0     C92361   6.821   7.163   6.619 -0.0518  0.2570 -0.0786
  670MOL0     C92362   6.784   7.307   6.675  0.0761  0.9548  0.4380
  670MOL0     C92363   6.842   7.346   6.810 -0.8717  0.3057 -0.1860
  670MOL0     C92364   6.843   7.499   6.845  0.7173  0.3611  0.4336
  670MOL0     C92365   6.882   7.523   6.982  0.4914 -1.0849 -0.1586
  670MOL0     C92366   7.019   7.472   7.026 -0.8954 -0.4041  0.5244
  670MOL0    Cl92367   7.082   7.539   7.185  0.1610  0.1116 -0.1569
  670MOL0     C92368   6.816   6.731   6.316 -0.1859  0.6302  1.4815
  670MOL0     C92369   6.831   6.594   6.300  0.1569  0.2975  0.0836
  670MOL0     O92370   6.773   6.370   6.552 -0.2415  0.9830 -0.0100
  670MOL0     C92371   6.878   6.118   6.295 -0.0731  0.1334  0.5088
  670MOL0     C92372   6.836   5.991   6.246  0.3125  0.2472 -0.2372
  670MOL0     N92373   6.458   5.212   6.042  0.9788 -0.3195 -0.0383
  670MOL0     N92374   6.518   5.111   6.019 -0.0863  0.5387 -0.1394
  670MOL0     C92375   6.516   4.928   5.089  0.5559 -0.2995 -0.0628
  670MOL0     C92376   6.408   4.847   5.042  0.0846 -0.1656  0.4909
  670MOL0     C92377   6.027   4.635   4.975  0.0197 -1.4708 -0.3874
  670MOL0     C92378   6.008   4.642   4.840  0.7516 -0.5819 -0.3079
  670MOL0     C92379   5.914   4.560   4.779  0.0889  0.1029 -0.0835
  670MOL0     C92380   5.832   4.471   4.851 -0.3839  0.4612 -0.7788
  670MOL0     O92381   5.735   4.407   4.783 -0.7464  0.0285  0.4777
  670MOL0     C92382   5.619   4.392   4.854  0.0577  0.2923 -0.0711
  670MOL0     C92383   5.509   4.398   4.750  0.2671  0.0442 -0.6376
  670MOL0     C92384   5.472   4.535   4.682  0.4030  0.8465  0.2156
  670MOL0     C92385   5.554   4.551   4.553 -0.0242 -0.5252 -1.1227
  670MOL0     C92386   5.521   4.681   4.486 -0.2461  0.7068 -0.4446
  670MOL0     C92387   5.490   4.786   4.440  0.6350  0.1768 -0.2210
  670MOL0     C92388   5.861   4.461   4.985 -0.4238  0.1563 -0.4044
  670MOL0     C92389   5.958   4.539   5.051  0.4184  0.4235  0.1639
  670MOL0     C92390   5.984   4.487   5.193  0.1381 -0.3191  0.4823
  670MOL0     H92391   6.183   5.088   4.948 -0.3876 -2.8721 -1.3420
  670MOL0     H92392   6.391   5.234   5.010  3.1466  0.0909 -0.1631
  670MOL0     H92393   6.772   5.116   5.236  0.0841 -0.6209 -0.0699
  670MOL0     H92394   6.618   5.054   5.298 -0.2996 -0.6400 -2.2398
  670MOL0     H92395   6.687   5.356   5.268 -0.1194 -0.9266 -2.2526
  670MOL0     H92396   6.542   5.284   5.341 -0.3808 -3.0970  0.8433
  670MOL0     H92397   6.839   5.274   5.411  0.7485 -2.0296  2.4371
  670MOL0     H92398   6.725   5.353   5.515  2.3690 -0.0969 -0.0193
  670MOL0     H92399   6.585   5.127   5.526  1.1880  0.8269 -0.6007
  670MOL0     H92400   6.748   5.056   5.481  1.5022  1.6345 -2.2184
  670MOL0     H92401   6.714   5.225   5.726  0.7699 -0.6200  1.1057
  670MOL0     H92402   6.840   5.110   5.674  0.1537 -0.4741 -2.4194
  670MOL0     H92403   6.550   5.032   5.744 -0.1542 -0.1054  0.1278
  670MOL0     H92404   6.660   4.929   5.656  0.6104  0.5106 -1.4689
  670MOL0     H92405   6.810   4.906   5.815 -1.0869 -0.4581 -0.0963
  670MOL0     H92406   6.647   4.883   5.900 -0.8472 -1.0077  0.4557
  670MOL0     H92407   6.804   5.014   6.059  2.8841  3.3741  0.9139
  670MOL0     H92408   6.840   5.115   5.914  0.1411  0.3208 -0.8451
  670MOL0     H92409   6.766   5.342   6.034 -0.0472  0.2777  0.5589
  670MOL0     H92410   6.504   5.436   6.234  0.2901  0.3542 -0.0036
  670MOL0     H92411   6.379   5.448   6.118  0.7543 -1.9629  1.7008
  670MOL0     H92412   6.538   5.600   5.990 -2.0046  0.4043  0.3742
  670MOL0     H92413   6.484   5.666   6.137  1.8825  3.0154 -1.0512
  670MOL0     H92414   6.721   5.545   6.234  2.1576  0.7869 -0.6497
  670MOL0     H92415   6.761   5.557   6.071  0.6375 -1.7667  1.0621
  670MOL0     H92416   6.839   5.759   6.133  0.1500  0.2863  2.4991
  670MOL0     H92417   6.681   5.805   6.076 -2.5752  1.1097  2.1656
  670MOL0     H92418   6.596   5.916   6.474 -0.0379  0.8616  0.4668
  670MOL0     H92419   6.531   6.065   6.624 -0.2842  0.7745 -0.8883
  670MOL0     H92420   6.530   6.218   6.551 -0.2212 -1.9530 -4.0187
  670MOL0     H92421   6.663   6.163   6.672 -0.2505 -0.3517  1.6170
  670MOL0     H92422   7.055   6.536   6.551  1.3452 -0.2338 -0.5124
  670MOL0     H92423   7.041   6.778   6.571  0.0196  1.1493 -1.1472
  670MOL0     H92424   6.721   7.007   6.335  0.1605  1.5708  0.8307
  670MOL0     H92425   6.723   6.949   6.498 -1.3293 -3.5487 -2.0878
  670MOL0     H92426   6.840   7.226   6.416  0.3880 -1.8964 -1.7064
  670MOL0     H92427   6.674   7.194   6.468 -0.4882 -2.1230 -2.1875
  670MOL0     H92428   6.928   7.140   6.621 -0.0447  0.3268  0.9039
  670MOL0     H92429   6.769   7.085   6.676  0.5580  0.9348  1.4630
  670MOL0     H92430   6.678   7.333   6.683  0.5285  2.6115  1.8635
  670MOL0     H92431   6.815   7.381   6.600 -1.1337 -1.2529 -2.4440
  670MOL0     H92432   6.774   7.295   6.879  0.6130  0.5386  1.5433
  670MOL0     H92433   6.942   7.303   6.825 -0.3727  0.5743 -2.4155
  670MOL0     H92434   6.741   7.537   6.839  0.8786  0.9741  1.3593
  670MOL0     H92435   6.897   7.563   6.774  0.9356  2.1949  2.1576
  670MOL0     H92436   6.808   7.486   7.053  1.7411  0.8410  2.2918
  670MOL0     H92437   6.883   7.631   6.998  0.5699 -1.2753  1.2194
  670MOL0     H92438   7.091   7.492   6.946 -2.9370 -1.0059 -1.5943
  670MOL0     H92439   7.027   7.364   7.034  0.2033 -0.2093  3.1979
  670MOL0     H92440   6.743   6.783   6.255 -1.1359 -0.1948  1.8824
  670MOL0     H92441   6.759   6.540   6.239 -2.4799  3.3990  0.1892
  670MOL0     H92442   6.959   6.171   6.247 -0.4941 -0.7463 -1.2832
  670MOL0     H92443   6.894   5.933   6.175 -0.6179 -3.0568  1.4910
  670MOL0     H92444   6.611   4.879   5.108  0.3200 -0.7430 -0.0023
  670MOL0     H92445   6.434   4.744   5.022  2.3739  0.8121 -2.2686
  670MOL0     H92446   6.080   4.700   4.783  2.7314 -3.2615 -0.7102
  670MOL0     H92447   5.911   4.552   4.670  2.7507  0.2947 -0.2326
  670MOL0     H92448   5.623   4.293   4.900 -0.7197 -0.5369 -1.7006
  670MOL0     H92449   5.605   4.462   4.936  3.0354  1.4759 -0.4276
  670MOL0     H92450   5.423   4.372   4.812 -0.8781  2.0391 -1.3093
  670MOL0     H92451   5.520   4.310   4.686 -1.8379 -1.6774  1.2033
  670MOL0     H92452   5.364   4.530   4.663 -0.0424 -1.5468  2.6333
  670MOL0     H92453   5.491   4.610   4.759 -3.4650  1.4908  0.7437
  670MOL0     H92454   5.533   4.466   4.487 -3.7017 -2.3679  1.9935
  670MOL0     H92455   5.660   4.561   4.575 -0.0345  2.8385 -2.0503
  670MOL0     H92456   5.440   4.873   4.403  0.4159  1.4079  2.6687
  670MOL0     H92457   5.813   4.383   5.044  0.0054  2.1277  2.8265
  670MOL0     H92458   5.988   4.574   5.260  1.4817 -0.4645  0.6072
  670MOL0     H92459   5.906   4.429   5.243 -0.0104 -0.9402 -0.4392
  670MOL0     H92460   6.078   4.433   5.199 -0.2626 -1.2697 -1.2477
  671MOL0     O92461   4.067   5.634   4.709 -0.2327  0.2788 -0.6002
  671MOL0     C92462   4.014   5.658   4.601  0.3084 -0.0431  0.7033
  671MOL0     O92463   4.077   5.716   4.491  0.0361 -0.6715  0.4317
  671MOL0     C92464   4.210   5.707   4.493  0.4329 -0.3759  0.7936
  671MOL0     C92465   4.279   5.814   4.551 -0.5071 -0.4101  0.2052
  671MOL0     C92466   4.418   5.824   4.552 -0.0293  0.6681  0.1664
  671MOL0     C92467   4.497   5.721   4.484  0.1301  0.3503 -0.1807
  671MOL0     O92468   4.631   5.712   4.486  0.4758 -0.6606  0.3038
  671MOL0     C92469   4.706   5.827   4.490 -0.0823  0.7910  0.4449
  671MOL0     C92470   4.848   5.790   4.493  0.2839  0.0556  0.0284
  671MOL0     C92471   4.897   5.730   4.618 -0.0138 -0.3436  0.8951
  671MOL0     C92472   5.049   5.710   4.608  0.6296 -0.4614 -0.2886
  671MOL0     C92473   5.090   5.594   4.699  0.6352  0.0214  0.0971
  671MOL0     C92474   5.069   5.620   4.849 -0.8043 -0.2383 -0.4091
  671MOL0     C92475   5.154   5.527   4.931 -0.4462  0.0369 -0.1125
  671MOL0     C92476   5.133   5.546   5.085 -0.6897 -0.2789  0.0946
  671MOL0     N92477   5.191   5.674   5.128 -0.4674 -0.5966 -0.1768
  671MOL0     C92478   5.322   5.702   5.108 -0.0108  0.1801 -0.9225
  671MOL0     C92479   5.337   5.816   5.186 -0.7757  0.1688  0.3859
  671MOL0     C92480   5.457   5.896   5.201 -0.2702  0.4137  0.0499
  671MOL0     C92481   5.425   6.043   5.191  0.3073 -0.1275  0.2230
  671MOL0     C92482   5.551   6.132   5.194  0.8976 -0.8984  1.0964
  671MOL0     C92483   5.502   6.278   5.160 -0.8803  0.7812 -0.5426
  671MOL0     O92484   5.499   6.308   5.014  0.1785  0.0636 -0.6664
  671MOL0     C92485   5.623   6.356   4.973 -0.0935 -0.8277 -0.3981
  671MOL0     C92486   5.720   6.273   4.907 -0.3782 -0.4544  0.2256
  671MOL0     C92487   5.839   6.326   4.855  0.5288  0.0401  0.4942
  671MOL0     C92488   5.942   6.221   4.808  0.2838  0.0270  0.8140
  671MOL0     C92489   5.859   6.467   4.854 -1.4498 -0.0238  0.6582
  671MOL0     C92490   5.974   6.529   4.777  0.4130 -0.1011 -0.0448
  671MOL0     O92491   6.013   6.646   4.830  0.4257  0.1136 -0.1842
  671MOL0     C92492   6.061   6.736   4.749 -0.7810  0.8111  0.3773
  671MOL0     C92493   6.189   6.722   4.683  0.7568  0.4547  0.0734
  671MOL0     C92494   6.225   6.811   4.590  0.4993  0.3356  0.1513
  671MOL0     C92495   6.147   6.925   4.558 -0.4432  0.2401  1.8863
  671MOL0     O92496   6.200   7.012   4.467 -0.2079 -0.8881 -0.1204
  671MOL0     C92497   6.118   7.100   4.398  0.2279 -1.2104 -0.2256
  671MOL0     C92498   6.130   7.075   4.235 -0.5420 -0.0472  0.0924
  671MOL0     C92499   6.276   7.116   4.189  0.2736  0.5832  0.0978
  671MOL0     C92500   6.279   7.107   4.032 -0.6212 -0.0290  0.1856
  671MOL0     C92501   6.420   7.114   3.994  0.7006 -0.5272  0.0326
  671MOL0     C92502   6.439   7.137   3.834  0.3021 -0.8301  1.0719
  671MOL0     C92503   6.590   7.107   3.793 -0.1146 -0.7295  0.0701
  671MOL0     C92504   6.617   7.154   3.651 -1.1716  0.8231  0.1655
  671MOL0    Cl92505   6.778   7.103   3.592  0.3544 -0.1520 -0.1422
  671MOL0     C92506   6.021   6.940   4.622 -0.7367 -0.9854  0.3399
  671MOL0     C92507   5.982   6.847   4.717  0.1122  0.5159 -0.2527
  671MOL0     O92508   6.034   6.473   4.685 -0.2089  0.0592 -0.2479
  671MOL0     C92509   5.766   6.552   4.914 -0.3124  1.0012 -0.0256
  671MOL0     C92510   5.649   6.495   4.975  0.4279  0.0764  0.6176
  671MOL0     N92511   5.217   5.845   5.243 -0.2012 -0.1157  0.4307
  671MOL0     N92512   5.127   5.759   5.213  0.0668  0.4269  0.0915
  671MOL0     C92513   4.428   5.625   4.411  0.0750  0.4192  0.2253
  671MOL0     C92514   4.282   5.606   4.416  0.0454  0.1419  0.3444
  671MOL0     C92515   3.872   5.641   4.587 -0.1532 -0.1945 -1.4640
  671MOL0     C92516   3.797   5.728   4.504 -0.3426  0.1689  0.6746
  671MOL0     C92517   3.657   5.716   4.499  0.2510 -0.0393 -0.2471
  671MOL0     C92518   3.589   5.631   4.581 -0.7455  0.2866 -0.8121
  671MOL0     O92519   3.452   5.614   4.556 -0.6633 -0.5025 -0.2235
  671MOL0     C92520   3.387   5.501   4.613 -0.0239  0.3240 -0.3171
  671MOL0     C92521   3.230   5.495   4.594  0.5192  0.1501  0.2051
  671MOL0     C92522   3.167   5.360   4.640  0.4483 -0.7394 -0.5046
  671MOL0     C92523   3.034   5.341   4.575 -0.2037  1.0553 -0.1158
  671MOL0     C92524   2.982   5.205   4.606  0.0555 -1.2812  0.1330
  671MOL0     C92525   2.957   5.095   4.618 -0.2106 -0.1229  0.2038
  671MOL0     C92526   3.669   5.545   4.663  0.2539 -0.2122  0.1024
  671MOL0     C92527   3.810   5.544   4.658  1.2510 -0.3734 -0.0596
  671MOL0     C92528   3.884   5.438   4.753  0.0381 -0.9919 -0.2365
  671MOL0     H92529   4.230   5.901   4.594  2.7447  0.8348  1.6965
  671MOL0     H92530   4.471   5.904   4.603 -2.0673  1.3025  1.3799
  671MOL0     H92531   4.688   5.876   4.586 -0.3930  0.5486  0.5101
  671MOL0     H92532   4.688   5.892   4.404  1.6720 -0.2758 -0.8228
  671MOL0     H92533   4.866   5.731   4.402  1.7986  0.9370 -0.2832
  671MOL0     H92534   4.911   5.878   4.477  1.3663 -0.6533  0.2467
  671MOL0     H92535   4.874   5.797   4.701 -2.8572 -1.8371  1.4353
  671MOL0     H92536   4.845   5.635   4.634 -0.5131 -0.1557  0.4094
  671MOL0     H92537   5.075   5.699   4.503  3.3711  3.2450 -0.2034
  671MOL0     H92538   5.098   5.796   4.654 -0.9880 -1.2928  3.4254
  671MOL0     H92539   5.194   5.572   4.675  0.5641  0.8613 -1.0507
  671MOL0     H92540   5.036   5.507   4.659  0.5864 -0.5559  1.3534
  671MOL0     H92541   5.105   5.721   4.869 -0.9073 -0.0433 -1.1560
  671MOL0     H92542   4.962   5.607   4.867 -0.3977 -2.2153  0.9158
  671MOL0     H92543   5.261   5.540   4.913 -0.1942 -0.3383  1.0497
  671MOL0     H92544   5.142   5.420   4.908  0.6539 -0.0663 -0.2765
  671MOL0     H92545   5.028   5.527   5.111 -1.6495 -0.0779 -3.1954
  671MOL0     H92546   5.187   5.469   5.141  1.5876  0.2061 -1.3071
  671MOL0     H92547   5.394   5.644   5.050 -0.4343 -2.8077  1.2920
  671MOL0     H92548   5.524   5.862   5.121 -2.8322 -1.5775 -1.3747
  671MOL0     H92549   5.500   5.867   5.297 -1.1204 -0.6298  0.1208
  671MOL0     H92550   5.363   6.076   5.107 -0.4784  1.7192  1.4713
  671MOL0     H92551   5.361   6.067   5.276 -1.0160 -0.4578 -0.6400
  671MOL0     H92552   5.592   6.127   5.295  0.1323  1.4227  1.5796
  671MOL0     H92553   5.621   6.094   5.119  0.2068 -0.3806  0.1638
  671MOL0     H92554   5.404   6.289   5.208  1.1585 -0.5024  4.4629
  671MOL0     H92555   5.573   6.343   5.211 -0.6377 -0.8035  1.2263
  671MOL0     H92556   5.694   6.168   4.893 -1.3813  0.0392 -1.9574
  671MOL0     H92557   6.032   6.236   4.870 -0.1392  2.4571  0.9360
  671MOL0     H92558   5.978   6.229   4.705 -0.2396 -0.2303  0.6064
  671MOL0     H92559   5.910   6.117   4.820 -0.0120 -0.2918 -2.1600
  671MOL0     H92560   6.253   6.636   4.692  0.3878  0.0440 -0.9851
  671MOL0     H92561   6.325   6.808   4.547 -0.0623  1.8861 -1.3777
  671MOL0     H92562   6.010   7.089   4.415 -0.2884  4.3357  1.8658
  671MOL0     H92563   6.142   7.204   4.421 -0.4851 -1.1844  0.4729
  671MOL0     H92564   6.109   6.969   4.217 -0.8511  0.0688 -0.2089
  671MOL0     H92565   6.059   7.139   4.182 -0.6969 -0.3712 -0.0925
  671MOL0     H92566   6.350   7.045   4.227 -1.2123 -1.3165 -0.4414
  671MOL0     H92567   6.295   7.223   4.203  2.3305  0.3735 -0.7741
  671MOL0     H92568   6.218   7.183   3.982 -1.5963 -1.0241 -0.1589
  671MOL0     H92569   6.230   7.016   3.997  1.0799 -1.4799  1.3844
  671MOL0     H92570   6.455   7.208   4.038 -0.5613 -0.9283  2.0094
  671MOL0     H92571   6.474   7.026   4.029  0.5355 -0.6866 -0.1121
  671MOL0     H92572   6.425   7.241   3.804  1.9009 -1.4329 -2.2054
  671MOL0     H92573   6.367   7.076   3.780  1.4671 -1.4437  0.1607
  671MOL0     H92574   6.605   6.998   3.797  0.5656 -0.5982  1.6406
  671MOL0     H92575   6.659   7.156   3.862 -0.4520  2.1478 -1.5014
  671MOL0     H92576   6.611   7.263   3.639  1.2532  1.2363  1.9230
  671MOL0     H92577   6.539   7.130   3.578 -2.1585  3.1524  0.3448
  671MOL0     H92578   5.962   7.031   4.610  0.1307 -0.4145  0.3138
  671MOL0     H92579   5.889   6.864   4.770  0.2146 -1.0254  0.4862
  671MOL0     H92580   5.781   6.659   4.911 -4.0613  1.7597  1.9527
  671MOL0     H92581   5.586   6.569   5.024  0.9743  0.2981  0.9961
  671MOL0     H92582   4.495   5.569   4.346  0.7931  0.7428  0.6682
  671MOL0     H92583   4.233   5.529   4.356  1.1586  0.5724 -1.1475
  671MOL0     H92584   3.847   5.808   4.451 -0.5569 -0.1059  0.0422
  671MOL0     H92585   3.599   5.780   4.433  0.9974 -1.0151 -1.9140
  671MOL0     H92586   3.437   5.409   4.579  0.0062  0.2381 -0.0446
  671MOL0     H92587   3.412   5.494   4.719 -1.2435 -3.0991 -0.1114
  671MOL0     H92588   3.198   5.511   4.490 -3.4035 -2.5382  0.7891
  671MOL0     H92589   3.184   5.571   4.658 -0.9474  0.5342 -1.2240
  671MOL0     H92590   3.238   5.285   4.603  3.3179  2.1571 -1.3450
  671MOL0     H92591   3.157   5.347   4.748  1.5420  0.5404 -0.2300
  671MOL0     H92592   3.051   5.346   4.467  0.9919  4.9450  0.0961
  671MOL0     H92593   2.967   5.420   4.610  0.7083  1.3848  0.9292
  671MOL0     H92594   2.944   4.989   4.632  1.3090 -0.7237 -2.2562
  671MOL0     H92595   3.630   5.458   4.713  3.7757  0.2751  4.2604
  671MOL0     H92596   3.814   5.356   4.775 -0.2707 -1.0318 -1.3083
  671MOL0     H92597   3.971   5.398   4.701 -1.5055 -1.5860 -2.4807
  671MOL0     H92598   3.909   5.485   4.849 -2.2008  0.0071 -0.0761
  672MOL0     O92599  11.310  10.660   3.162  0.0823  0.2387 -0.2682
  672MOL0     C92600  11.370  10.572   3.099  0.5292 -0.0931  0.4703
  672MOL0     O92601  11.471  10.484   3.135 -0.6608 -0.2380  0.4359
  672MOL0     C92602  11.523  10.462   3.262 -0.2576 -0.4481  0.0039
  672MOL0     C92603  11.483  10.523   3.378  1.1778  0.1668 -0.3762
  672MOL0     C92604  11.546  10.502   3.506  0.7045  0.5986  0.2677
  672MOL0     C92605  11.641  10.399   3.510 -0.0460 -0.2056  0.4394
  672MOL0     O92606  11.709  10.363   3.618 -0.7041  0.0548  0.1146
  672MOL0     C92607  11.665  10.414   3.744 -0.2559  0.3471 -0.6186
  672MOL0     C92608  11.719  10.330   3.861 -0.4590 -0.5371 -0.4148
  672MOL0     C92609  11.865  10.356   3.901 -0.4347  0.3036  1.4909
  672MOL0     C92610  11.916  10.263   4.006  0.6514 -0.7532  1.0531
  672MOL0     C92611  12.041  10.312   4.070 -0.1848  0.5760  0.4937
  672MOL0     C92612  12.143  10.377   3.977 -0.4036  0.0406  0.0236
  672MOL0     C92613  12.270  10.402   4.055 -0.3048 -0.4657  0.6635
  672MOL0     C92614  12.376  10.461   3.956  0.8581  0.8254  0.1888
  672MOL0     N92615  12.509  10.482   3.998 -0.5637 -0.2236  0.0086
  672MOL0     C92616  12.579  10.599   3.999  1.0404  0.2055 -0.1453
  672MOL0     C92617  12.699  10.567   4.047 -0.2050 -0.1563  0.1558
  672MOL0     C92618  12.816  10.656   4.092  0.6153 -0.3553 -0.9834
  672MOL0     C92619  12.925  10.688   3.986  0.0392 -0.4931  0.2230
  672MOL0     C92620  13.010  10.574   3.943  0.1688  0.5988 -0.0949
  672MOL0     C92621  13.104  10.616   3.830 -0.5195 -0.2263  0.3312
  672MOL0     O92622  13.206  10.705   3.884  0.0195 -0.5986  0.2474
  672MOL0     C92623  13.297  10.759   3.802 -0.2518  0.5715  0.5365
  672MOL0     C92624  13.398  10.817   3.873 -0.2574 -0.4532  0.6485
  672MOL0     C92625  13.502  10.885   3.812  0.3890  0.3103  0.1377
  672MOL0     C92626  13.598  10.966   3.894 -0.2678 -0.1372  0.6535
  672MOL0     C92627  13.500  10.886   3.669  0.0652 -0.2031  0.1439
  672MOL0     C92628  13.618  10.939   3.594 -0.4329 -1.0182 -0.0612
  672MOL0     O92629  13.649  10.866   3.485 -0.7662  0.4203 -0.6444
  672MOL0     C92630  13.690  10.937   3.384 -0.3874  0.5192 -0.0612
  672MOL0     C92631  13.590  11.007   3.305 -0.1360 -0.0658 -0.2153
  672MOL0     C92632  13.614  11.087   3.196  0.2507 -0.2935 -0.1359
  672MOL0     C92633  13.753  11.102   3.161  0.8599  0.1403  0.5318
  672MOL0     O92634  13.766  11.190   3.060 -0.1373  0.5156 -0.5140
  672MOL0     C92635  13.887  11.256   3.039  1.6344  1.3044  0.4815
  672MOL0     C92636  13.860  11.376   2.967 -1.0727 -0.4354 -1.1357
  672MOL0     C92637  13.777  11.494   3.033 -0.6430 -0.1959  0.0164
  672MOL0     C92638  13.799  11.618   2.941 -0.2970 -0.7280  0.0590
  672MOL0     C92639  13.695  11.732   2.987  0.6251  0.0605  0.1058
  672MOL0     C92640  13.698  11.859   2.905 -0.9008  1.0428  0.8297
  672MOL0     C92641  13.617  11.981   2.950 -0.0513  0.5654  0.4142
  672MOL0     C92642  13.628  12.099   2.868 -0.6853 -0.3833  0.7029
  672MOL0    Cl92643  13.584  12.083   2.688  0.3992 -0.4930 -0.3616
  672MOL0     C92644  13.854  11.040   3.229 -0.6956  0.7311  0.0661
  672MOL0     C92645  13.820  10.954   3.337 -0.7184  0.2247 -0.0221
  672MOL0     O92646  13.665  11.040   3.622 -0.4298 -0.6178 -0.1284
  672MOL0     C92647  13.403  10.818   3.596 -0.2275 -0.3448  0.7427
  672MOL0     C92648  13.303  10.748   3.670  0.0459 -0.7512 -0.2090
  672MOL0     N92649  12.705  10.427   4.069  1.2575 -0.6201  0.0985
  672MOL0     N92650  12.588  10.374   4.031  0.5591 -0.0872  0.3906
  672MOL0     C92651  11.668  10.327   3.395 -1.3787  0.3386 -0.6240
  672MOL0     C92652  11.623  10.364   3.268  0.6056  0.0271 -0.9000
  672MOL0     C92653  11.324  10.553   2.956 -0.4490 -0.3187  0.6036
  672MOL0     C92654  11.423  10.568   2.855  0.8263  0.4445  0.1468
  672MOL0     C92655  11.383  10.544   2.712 -0.7119 -0.5208  0.4078
  672MOL0     C92656  11.252  10.516   2.673 -0.2369  0.1317  0.2602
  672MOL0     O92657  11.225  10.482   2.541  0.0251  0.2477 -0.0444
  672MOL0     C92658  11.096  10.435   2.498  0.2553 -0.6119 -0.5945
  672MOL0     C92659  11.085  10.478   2.357  0.0595  0.1063  1.4522
  672MOL0     C92660  10.969  10.398   2.279 -1.0489  0.2446  0.0987
  672MOL0     C92661  10.970  10.434   2.128 -0.3793 -0.2718 -0.1261
  672MOL0     C92662  11.104  10.452   2.064 -0.6045 -0.3199 -0.5270
  672MOL0     C92663  11.221  10.466   2.017  0.5422  0.9382  0.1605
  672MOL0     C92664  11.159  10.509   2.777  0.4626 -0.6217  0.2950
  672MOL0     C92665  11.186  10.530   2.914 -0.6843 -0.1727  0.1382
  672MOL0     C92666  11.075  10.503   3.013 -0.1452 -1.2407  0.2476
  672MOL0     H92667  11.411  10.604   3.372  1.6300  0.6098  0.0100
  672MOL0     H92668  11.527  10.562   3.594  0.5081 -0.8287  1.2294
  672MOL0     H92669  11.556  10.413   3.757 -0.0268 -1.8125  2.2265
  672MOL0     H92670  11.702  10.515   3.763  1.1455 -0.1612 -0.5385
  672MOL0     H92671  11.656  10.360   3.946  0.6002 -1.3811  0.7188
  672MOL0     H92672  11.691  10.226   3.848 -2.9050  0.0854 -0.5126
  672MOL0     H92673  11.930  10.358   3.813 -2.2637  1.6628  0.0921
  672MOL0     H92674  11.870  10.460   3.933 -4.7487  2.1022 -2.5342
  672MOL0     H92675  11.832  10.234   4.070  0.9505 -2.1297  0.8373
  672MOL0     H92676  11.935  10.176   3.943 -0.6942 -0.8472  0.7441
  672MOL0     H92677  12.086  10.229   4.126 -0.6715  0.7927  1.2310
  672MOL0     H92678  12.022  10.389   4.145  0.4348  3.3615 -2.0351
  672MOL0     H92679  12.162  10.312   3.892  2.2411 -0.8052  1.1627
  672MOL0     H92680  12.108  10.477   3.951 -1.0616 -0.8149 -2.6856
  672MOL0     H92681  12.305  10.316   4.113 -0.3146 -0.4365  0.7130
  672MOL0     H92682  12.249  10.478   4.131 -0.4403 -0.5757  0.7359
  672MOL0     H92683  12.386  10.384   3.878 -1.9616  1.6282 -1.1245
  672MOL0     H92684  12.344  10.554   3.907 -0.7358  0.4334  0.4262
  672MOL0     H92685  12.547  10.701   3.979  2.6293  0.5751 -0.9763
  672MOL0     H92686  12.858  10.606   4.180  4.2569  1.5428 -1.4276
  672MOL0     H92687  12.775  10.751   4.126 -0.7793  0.0296 -3.4916
  672MOL0     H92688  12.867  10.735   3.906  0.9654  3.9763  1.8814
  672MOL0     H92689  12.989  10.771   4.017 -1.4346  1.3157 -1.2628
  672MOL0     H92690  13.075  10.545   4.026 -1.7000  1.7556  1.8494
  672MOL0     H92691  12.952  10.486   3.916  0.1409  0.7889 -0.6920
  672MOL0     H92692  13.151  10.529   3.783 -0.1751 -0.0338  0.3192
  672MOL0     H92693  13.050  10.678   3.757 -0.2978  1.2607  1.3764
  672MOL0     H92694  13.389  10.803   3.980 -0.5319 -1.5371  0.5020
  672MOL0     H92695  13.697  10.923   3.876 -0.4535  0.2102 -1.4379
  672MOL0     H92696  13.569  10.953   3.999 -0.9047 -1.3902  0.3484
  672MOL0     H92697  13.599  11.070   3.862 -1.4216 -0.2718  0.1154
  672MOL0     H92698  13.493  10.987   3.350  1.9336 -0.9275  4.5195
  672MOL0     H92699  13.533  11.135   3.143 -0.7001 -1.0590  0.5962
  672MOL0     H92700  13.940  11.270   3.133  2.7321  0.1422  0.0726
  672MOL0     H92701  13.947  11.190   2.976 -3.1323 -1.0049 -2.2147
  672MOL0     H92702  13.958  11.417   2.940  0.9474 -3.7982  0.4094
  672MOL0     H92703  13.802  11.352   2.877 -1.2649 -1.0649 -0.8464
  672MOL0     H92704  13.818  11.502   3.134 -3.2250 -0.9127  1.1916
  672MOL0     H92705  13.672  11.464   3.031 -0.1796 -1.8884 -0.9884
  672MOL0     H92706  13.778  11.587   2.838 -0.5457  1.2615 -0.5380
  672MOL0     H92707  13.903  11.653   2.950  0.6791 -2.9844 -1.4045
  672MOL0     H92708  13.594  11.693   2.975  0.6383  0.2723 -0.7654
  672MOL0     H92709  13.709  11.744   3.095 -2.8234  0.8841  0.5670
  672MOL0     H92710  13.660  11.828   2.807  0.0616  0.0739  0.7393
  672MOL0     H92711  13.803  11.885   2.888 -0.8148 -0.5029 -1.3149
  672MOL0     H92712  13.653  12.008   3.050 -0.2970  1.9382  0.1593
  672MOL0     H92713  13.511  11.956   2.959  0.3536 -0.6725  2.3236
  672MOL0     H92714  13.727  12.145   2.879 -1.0488  1.0218 -1.3702
  672MOL0     H92715  13.550  12.161   2.913  0.8187  2.2321 -0.0488
  672MOL0     H92716  13.956  11.048   3.193 -0.6306 -0.2568  0.0040
  672MOL0     H92717  13.898  10.900   3.390 -2.2650 -1.5286  0.5767
  672MOL0     H92718  13.388  10.817   3.489 -2.4456  2.2448  0.9172
  672MOL0     H92719  13.215  10.700   3.626  1.1062 -2.8916 -0.1454
  672MOL0     H92720  11.745  10.251   3.397 -1.3121  0.3500 -2.0410
  672MOL0     H92721  11.654  10.303   3.184 -0.1408  1.2592 -2.1186
  672MOL0     H92722  11.527  10.588   2.880  0.7017  1.1468  0.1090
  672MOL0     H92723  11.471  10.557   2.649 -2.0771 -0.3333 -1.5331
  672MOL0     H92724  11.099  10.326   2.488  0.0330 -0.5403 -1.5692
  672MOL0     H92725  11.004  10.470   2.546  0.2005  0.6644 -1.5581
  672MOL0     H92726  11.180  10.453   2.309  0.3308  1.1002  1.4371
  672MOL0     H92727  11.071  10.587   2.350  1.0203  0.2548  1.6244
  672MOL0     H92728  10.975  10.289   2.291  1.2367  0.0137 -2.2952
  672MOL0     H92729  10.873  10.438   2.312 -1.5903  1.0704 -2.2661
  672MOL0     H92730  10.920  10.530   2.114 -0.6172 -0.0271  2.0626
  672MOL0     H92731  10.912  10.354   2.081 -1.3057 -1.9892  3.5164
  672MOL0     H92732  11.321  10.485   1.983  1.0183  1.2160  1.6453
  672MOL0     H92733  11.057  10.483   2.751  0.6559 -2.6392  1.3848
  672MOL0     H92734  10.987  10.457   2.969 -1.4196  1.0558  0.2647
  672MOL0     H92735  11.118  10.434   3.087  1.5114 -1.2623 -0.6727
  672MOL0     H92736  11.044  10.599   3.055 -2.9216 -0.2839 -3.4713
  673MOL0     O92737   3.108   9.708   3.320  0.8688  0.7453  0.2086
  673MOL0     C92738   3.026   9.796   3.349 -0.3837  0.2155  0.7676
  673MOL0     O92739   3.056   9.929   3.337  0.5192 -0.0338 -0.0187
  673MOL0     C92740   3.174   9.960   3.262 -0.5872  0.5771 -0.1252
  673MOL0     C92741   3.254  10.050   3.330  0.2426  0.5115 -1.1936
  673MOL0     C92742   3.373  10.101   3.272  0.2921  0.0631  0.8171
  673MOL0     C92743   3.406  10.061   3.141 -0.5810 -0.1873 -1.0609
  673MOL0     O92744   3.526  10.110   3.094 -0.1197  0.3691 -0.8789
  673MOL0     C92745   3.614  10.021   3.030 -1.0511  0.0533 -0.8784
  673MOL0     C92746   3.742  10.089   2.988  0.5341 -0.2180  0.5034
  673MOL0     C92747   3.700  10.201   2.902 -0.0447  0.8701 -0.2850
  673MOL0     C92748   3.823  10.290   2.865 -0.9275 -0.3364 -0.4074
  673MOL0     C92749   3.784  10.399   2.774  0.1934 -0.8855  0.5812
  673MOL0     C92750   3.894  10.507   2.763  1.0872  0.0091 -0.5375
  673MOL0     C92751   3.851  10.637   2.689 -0.7163 -0.5828 -0.0814
  673MOL0     C92752   3.959  10.752   2.718  0.2396  0.9970  0.6366
  673MOL0     N92753   4.085  10.769   2.631 -0.1873  0.0688 -0.4189
  673MOL0     C92754   4.152  10.679   2.555 -0.3285  0.0955  0.1325
  673MOL0     C92755   4.241  10.762   2.494 -0.2816 -0.4188 -0.0853
  673MOL0     C92756   4.342  10.716   2.400  0.4724 -0.6693  0.5100
  673MOL0     C92757   4.480  10.770   2.435 -0.1794  0.3401 -0.3249
  673MOL0     C92758   4.596  10.704   2.363 -0.7756 -0.3572 -0.1854
  673MOL0     C92759   4.737  10.764   2.391  0.1607  0.1910 -0.1078
  673MOL0     O92760   4.737  10.905   2.389 -0.8370 -0.9942  0.4231
  673MOL0     C92761   4.856  10.970   2.366  0.0393 -0.2306  0.6346
  673MOL0     C92762   4.865  11.099   2.417  0.3237  0.2038 -0.4026
  673MOL0     C92763   4.986  11.164   2.421  0.6420 -0.2312  0.6319
  673MOL0     C92764   4.963  11.303   2.478 -0.7668 -0.8993  0.1336
  673MOL0     C92765   5.111  11.103   2.381  1.1641 -1.0580  0.2586
  673MOL0     C92766   5.245  11.167   2.408 -1.0420  0.5840  0.8187
  673MOL0     O92767   5.353  11.087   2.393  0.1545  0.2835  0.0350
  673MOL0     C92768   5.466  11.150   2.390 -0.3246 -0.0328 -0.4618
  673MOL0     C92769   5.556  11.106   2.488 -0.3609  0.1289 -0.2331
  673MOL0     C92770   5.688  11.157   2.490 -0.1082  0.2471 -0.3507
  673MOL0     C92771   5.729  11.253   2.401 -0.5352 -0.1299  1.0722
  673MOL0     O92772   5.856  11.307   2.402 -0.2370 -0.9600  0.0366
  673MOL0     C92773   5.946  11.283   2.518 -0.0097  0.0386 -0.0746
  673MOL0     C92774   6.060  11.385   2.507 -0.0641 -1.4392  0.4701
  673MOL0     C92775   6.167  11.337   2.407  0.6254  1.1366  0.0618
  673MOL0     C92776   6.306  11.379   2.452  0.5681  0.2581  0.3187
  673MOL0     C92777   6.410  11.404   2.341 -0.2550  0.8658 -0.1917
  673MOL0     C92778   6.430  11.282   2.253 -0.6213 -0.3268  0.1266
  673MOL0     C92779   6.541  11.308   2.149  0.0396  0.0417  0.2429
  673MOL0     C92780   6.590  11.179   2.089 -0.0448 -0.4220 -0.6618
  673MOL0    Cl92781   6.461  11.109   1.987  0.1999  0.0622 -0.3383
  673MOL0     C92782   5.649  11.285   2.296 -0.0856  0.5386  0.6533
  673MOL0     C92783   5.512  11.245   2.288  0.5133 -0.2069 -0.5063
  673MOL0     O92784   5.254  11.279   2.450  0.3243  0.2927  0.4168
  673MOL0     C92785   5.098  10.974   2.335  0.1323 -0.0302  0.0370
  673MOL0     C92786   4.975  10.910   2.321  0.6498  0.4282 -0.2108
  673MOL0     N92787   4.227  10.894   2.532  0.4418 -0.2765 -0.2469
  673MOL0     N92788   4.123  10.899   2.605  0.2868  0.6563  0.3721
  673MOL0     C92789   3.317   9.982   3.069 -0.3476  0.8160  0.2694
  673MOL0     C92790   3.200   9.931   3.125  0.0530  0.3878  0.2495
  673MOL0     C92791   2.904   9.762   3.425 -0.7951  0.0810  0.1272
  673MOL0     C92792   2.860   9.852   3.519 -1.4168  0.0935  0.5974
  673MOL0     C92793   2.763   9.823   3.604  0.5727 -0.1804 -0.9098
  673MOL0     C92794   2.703   9.700   3.611  1.1639 -0.3026 -0.1423
  673MOL0     O92795   2.619   9.665   3.712  0.1770 -0.0213 -0.8266
  673MOL0     C92796   2.476   9.653   3.677  0.7565 -0.5835  0.4496
  673MOL0     C92797   2.389   9.688   3.788 -0.2512  0.0452 -0.3902
  673MOL0     C92798   2.356   9.563   3.867 -0.0385  0.2406  0.4899
  673MOL0     C92799   2.293   9.584   4.010 -0.8551  0.8362  0.0941
  673MOL0     C92800   2.158   9.633   3.997 -0.5689 -0.2432  0.5590
  673MOL0     C92801   2.042   9.658   3.992  0.3018  0.6175  0.7728
  673MOL0     C92802   2.749   9.605   3.521 -0.7601  0.6394 -0.1034
  673MOL0     C92803   2.857   9.635   3.429  0.5394 -0.2307  0.7277
  673MOL0     C92804   2.899   9.518   3.334  1.0105  0.0374 -0.1971
  673MOL0     H92805   3.235  10.051   3.437  0.4847 -2.1360 -1.0549
  673MOL0     H92806   3.440  10.173   3.318  1.2677  0.1616 -0.6829
  673MOL0     H92807   3.558   9.984   2.943 -2.9577 -0.3822  0.4690
  673MOL0     H92808   3.631   9.935   3.095  0.6055  0.2730 -0.9739
  673MOL0     H92809   3.786  10.127   3.080 -1.5725 -3.3840  3.0755
  673MOL0     H92810   3.808  10.019   2.936  0.7771  0.5097 -0.1786
  673MOL0     H92811   3.641  10.173   2.814 -0.9872  0.2551  0.5157
  673MOL0     H92812   3.630  10.269   2.951 -0.6360  0.8682 -1.1028
  673MOL0     H92813   3.847  10.341   2.959 -4.2434 -0.8158  0.8495
  673MOL0     H92814   3.902  10.223   2.831 -1.2027 -1.9415  1.8709
  673MOL0     H92815   3.685  10.438   2.800  1.7531  3.1846  1.3122
  673MOL0     H92816   3.785  10.356   2.674  1.7882  1.2016 -0.3892
  673MOL0     H92817   3.922  10.539   2.864  0.4639 -0.8276 -0.0918
  673MOL0     H92818   3.984  10.460   2.722  0.8756  0.3621 -1.4194
  673MOL0     H92819   3.758  10.675   2.731 -0.7624 -0.5354 -0.2244
  673MOL0     H92820   3.839  10.628   2.580 -1.0810  3.6101 -0.5251
  673MOL0     H92821   3.907  10.849   2.717 -0.0657  0.8402 -0.7900
  673MOL0     H92822   3.973  10.737   2.826  2.9448 -0.0284  0.2177
  673MOL0     H92823   4.132  10.574   2.537 -2.4377  0.6312 -0.9669
  673MOL0     H92824   4.316  10.740   2.296  0.0492 -1.8618  0.3229
  673MOL0     H92825   4.344  10.608   2.380 -0.3635 -0.4986 -0.5854
  673MOL0     H92826   4.482  10.879   2.426 -0.3088  0.3747  0.0449
  673MOL0     H92827   4.494  10.737   2.539 -0.4372  1.4055  0.0580
  673MOL0     H92828   4.600  10.598   2.391 -0.8289 -0.7564 -1.6142
  673MOL0     H92829   4.581  10.723   2.257 -1.0001 -1.0426 -0.2809
  673MOL0     H92830   4.778  10.727   2.485  2.1426 -2.7131 -1.9510
  673MOL0     H92831   4.799  10.718   2.313 -0.4616 -2.0548  0.6431
  673MOL0     H92832   4.772  11.151   2.439  0.2110  0.2733 -1.0502
  673MOL0     H92833   5.029  11.381   2.439 -3.1826  0.3178 -1.7904
  673MOL0     H92834   4.979  11.304   2.586  4.8187 -3.5114 -0.3306
  673MOL0     H92835   4.864  11.342   2.452 -0.2715 -0.9740 -2.0745
  673MOL0     H92836   5.538  11.045   2.577  0.5513  0.0196 -0.1199
  673MOL0     H92837   5.742  11.126   2.578 -1.4651  0.1815  0.4785
  673MOL0     H92838   5.893  11.290   2.613  0.6295 -2.0276  0.4901
  673MOL0     H92839   5.991  11.183   2.516  2.5932  1.1243  0.4474
  673MOL0     H92840   6.019  11.484   2.487  1.9099 -0.5317  0.6806
  673MOL0     H92841   6.118  11.383   2.600  2.5958  0.3219 -1.0229
  673MOL0     H92842   6.140  11.376   2.308 -0.7643 -2.3752 -1.0659
  673MOL0     H92843   6.171  11.229   2.394  1.9410  1.1010  0.5550
  673MOL0     H92844   6.345  11.306   2.525  0.3767  0.9048  1.0802
  673MOL0     H92845   6.297  11.473   2.507 -2.7281 -0.7908  1.8539
  673MOL0     H92846   6.384  11.488   2.276 -3.2532  0.1768 -0.0506
  673MOL0     H92847   6.504  11.424   2.393  0.9211  1.5125 -2.4497
  673MOL0     H92848   6.342  11.251   2.197  0.1138  0.7379 -1.7198
  673MOL0     H92849   6.467  11.196   2.309 -0.8008 -0.1819  0.4675
  673MOL0     H92850   6.631  11.348   2.195 -1.0702  2.0895  0.7639
  673MOL0     H92851   6.504  11.387   2.084 -0.3514  0.3482  0.8229
  673MOL0     H92852   6.630  11.106   2.161  0.4691 -1.7316 -2.2139
  673MOL0     H92853   6.677  11.204   2.027  1.9671  0.8246  2.4030
  673MOL0     H92854   5.684  11.345   2.213 -1.2690 -2.6126 -2.3795
  673MOL0     H92855   5.447  11.284   2.210  1.0338  0.4709 -0.6122
  673MOL0     H92856   5.180  10.932   2.277 -1.6655  0.4802 -3.1110
  673MOL0     H92857   4.988  10.813   2.274  4.5601  0.9973 -0.6858
  673MOL0     H92858   3.337   9.973   2.962  0.9039 -0.8861  0.6017
  673MOL0     H92859   3.134   9.867   3.067  2.0500 -0.8287 -0.7878
  673MOL0     H92860   2.899   9.954   3.524  1.4482 -0.8508 -0.4595
  673MOL0     H92861   2.726   9.900   3.670 -1.8481 -2.0816  0.1243
  673MOL0     H92862   2.458   9.724   3.595  2.4458  0.1928  0.7145
  673MOL0     H92863   2.474   9.550   3.641 -0.4556 -0.4074 -0.0492
  673MOL0     H92864   2.298   9.723   3.738  1.1061  0.5843 -2.5770
  673MOL0     H92865   2.441   9.766   3.845  1.8874  0.9305 -3.3440
  673MOL0     H92866   2.287   9.506   3.804  1.1289 -1.3532  0.5788
  673MOL0     H92867   2.451   9.509   3.875  0.6225  0.9551 -1.8792
  673MOL0     H92868   2.361   9.645   4.071  1.7127 -0.8123 -0.9404
  673MOL0     H92869   2.279   9.482   4.048  1.2511 -0.2782 -1.9061
  673MOL0     H92870   1.938   9.681   3.981 -0.4387 -2.7108 -0.1030
  673MOL0     H92871   2.703   9.507   3.522  0.4247 -0.0698 -3.6549
  673MOL0     H92872   2.946   9.544   3.239 -0.8812  2.1238 -0.6365
  673MOL0     H92873   2.969   9.472   3.405  0.4719  1.8580  1.6165
  673MOL0     H92874   2.818   9.447   3.319  2.5392 -1.5388 -1.4203
  674MOL0     O92875  10.846   4.807   1.746 -0.6344  0.1252  0.0392
  674MOL0     C92876  10.895   4.698   1.714 -0.1335  0.1095 -0.2207
  674MOL0     O92877  11.035   4.682   1.712 -0.1017 -0.4154  0.4831
  674MOL0     C92878  11.107   4.769   1.795  0.0858  0.8711 -0.1182
  674MOL0     C92879  11.092   4.788   1.929 -0.1174 -0.0066  0.0355
  674MOL0     C92880  11.164   4.883   1.996  0.3763  0.5893 -0.8055
  674MOL0     C92881  11.254   4.961   1.925  0.0890 -0.2386  0.4675
  674MOL0     O92882  11.322   5.049   1.999  0.4883 -0.4624  0.3217
  674MOL0     C92883  11.404   5.148   1.934 -0.1579  0.5680  0.3866
  674MOL0     C92884  11.495   5.207   2.042  0.6475 -1.1569 -0.4660
  674MOL0     C92885  11.562   5.322   1.977  0.4896 -0.0293 -0.7488
  674MOL0     C92886  11.623   5.413   2.092 -0.2306 -0.3869 -0.2479
  674MOL0     C92887  11.705   5.526   2.025  0.4055 -0.0424  0.7797
  674MOL0     C92888  11.740   5.646   2.116  0.1058  0.2544 -0.0952
  674MOL0     C92889  11.816   5.758   2.033  0.0038 -0.1718  0.1842
  674MOL0     C92890  11.949   5.702   1.968 -0.6043 -0.3026  0.4133
  674MOL0     N92891  12.040   5.816   1.919  0.8810 -0.3191  0.0222
  674MOL0     C92892  12.064   5.822   1.787  0.4654  0.1230 -0.1844
  674MOL0     C92893  12.135   5.940   1.777 -0.1491 -0.3053 -0.8229
  674MOL0     C92894  12.217   5.994   1.654 -0.2500 -0.5678  0.6785
  674MOL0     C92895  12.368   5.972   1.689  0.2535  0.3427 -0.4535
  674MOL0     C92896  12.418   5.832   1.652  0.7700  0.2653  0.5759
  674MOL0     C92897  12.392   5.733   1.767  0.8272  0.4873  0.0390
  674MOL0     O92898  12.486   5.633   1.797  0.0745 -0.2174  0.2439
  674MOL0     C92899  12.610   5.659   1.847 -0.0131  0.4200  0.7535
  674MOL0     C92900  12.704   5.556   1.849 -0.6458  0.6935 -0.2824
  674MOL0     C92901  12.837   5.571   1.892  0.1480 -0.6707 -0.0545
  674MOL0     C92902  12.933   5.456   1.896  0.4379 -0.1821 -0.6890
  674MOL0     C92903  12.874   5.691   1.952 -0.5153 -0.0691 -0.7816
  674MOL0     C92904  13.007   5.715   2.013 -0.1524  0.0654 -0.7801
  674MOL0     O92905  13.000   5.775   2.137 -0.1930 -0.5054 -0.3220
  674MOL0     C92906  13.111   5.776   2.225  0.5848  0.5957 -0.2228
  674MOL0     C92907  13.209   5.672   2.228  0.3345  0.1049  0.3171
  674MOL0     C92908  13.322   5.677   2.310  0.3034  0.5009 -0.6711
  674MOL0     C92909  13.341   5.789   2.393 -0.3291 -1.3817  1.0167
  674MOL0     O92910  13.457   5.813   2.465 -0.1165 -0.1342 -0.5222
  674MOL0     C92911  13.570   5.818   2.375 -0.4924 -0.1478 -0.1802
  674MOL0     C92912  13.679   5.864   2.466 -0.4454 -0.0712 -0.0620
  674MOL0     C92913  13.795   5.762   2.472  0.1156  0.1889 -0.3507
  674MOL0     C92914  13.914   5.807   2.546  0.5746 -0.5408 -0.4082
  674MOL0     C92915  13.903   5.802   2.699  0.1791 -0.1206 -1.0077
  674MOL0     C92916  14.048   5.814   2.739 -0.2256 -0.2420 -0.1557
  674MOL0     C92917  14.043   5.814   2.893 -0.1203  0.3153  0.8094
  674MOL0     C92918  14.180   5.791   2.951 -0.7516  0.5372  0.5287
  674MOL0    Cl92919  14.232   5.625   2.913 -0.2236 -0.3678 -0.5105
  674MOL0     C92920  13.238   5.885   2.397  0.3906 -0.4418  0.3830
  674MOL0     C92921  13.127   5.881   2.313 -0.6689 -0.9447  0.3252
  674MOL0     O92922  13.114   5.680   1.953 -0.4561 -0.5855  0.0802
  674MOL0     C92923  12.778   5.788   1.968  0.6958 -0.4130  0.2170
  674MOL0     C92924  12.644   5.772   1.911  0.1303  0.3346 -0.0113
  674MOL0     N92925  12.126   6.004   1.909 -0.4877 -0.9259  1.0717
  674MOL0     N92926  12.067   5.931   1.990 -0.2559  0.0953 -0.0288
  674MOL0     C92927  11.264   4.945   1.785 -1.0942  0.0389 -0.8089
  674MOL0     C92928  11.196   4.849   1.719  0.0325  0.6180 -0.2133
  674MOL0     C92929  10.806   4.597   1.652 -0.4684  0.1453 -0.2303
  674MOL0     C92930  10.678   4.634   1.616  0.0798 -0.1548 -0.6923
  674MOL0     C92931  10.590   4.534   1.590 -1.5330 -0.2260 -0.1502
  674MOL0     C92932  10.620   4.400   1.597 -0.2189  0.7088  0.3953
  674MOL0     O92933  10.531   4.296   1.559  0.0774 -0.6018  0.0075
  674MOL0     C92934  10.387   4.325   1.581 -0.3661 -0.3822 -0.6722
  674MOL0     C92935  10.319   4.188   1.616 -0.7721  0.0135 -0.2499
  674MOL0     C92936  10.247   4.120   1.505  0.3504 -0.1796 -0.0586
  674MOL0     C92937  10.206   3.970   1.537 -0.1936  0.2260  0.7364
  674MOL0     C92938  10.155   3.916   1.410 -0.0252 -0.0381  0.0140
  674MOL0     C92939  10.121   3.871   1.298  0.2177 -0.6087 -0.0524
  674MOL0     C92940  10.753   4.368   1.620 -0.6165 -0.2573  0.0408
  674MOL0     C92941  10.847   4.462   1.657  1.2717  0.6284 -0.6817
  674MOL0     C92942  10.982   4.411   1.717  0.2374 -0.4227 -0.1785
  674MOL0     H92943  11.015   4.734   1.983 -2.4102  0.5226 -2.5486
  674MOL0     H92944  11.146   4.903   2.101  2.6085  3.4450 -0.8296
  674MOL0     H92945  11.341   5.218   1.879 -0.6746 -1.4557 -1.7388
  674MOL0     H92946  11.475   5.100   1.866 -0.0987 -0.6042  1.2547
  674MOL0     H92947  11.429   5.244   2.121  0.4585  0.2139 -1.2378
  674MOL0     H92948  11.566   5.134   2.080  0.4405 -1.3337 -0.4109
  674MOL0     H92949  11.639   5.300   1.902 -1.5034  1.4263 -3.3991
  674MOL0     H92950  11.486   5.380   1.925 -0.0139 -1.0384 -1.1532
  674MOL0     H92951  11.550   5.467   2.152 -0.9488 -3.5410  1.9853
  674MOL0     H92952  11.688   5.354   2.157 -0.1700 -3.8989 -3.1593
  674MOL0     H92953  11.650   5.563   1.938 -0.2356  0.0859  1.2342
  674MOL0     H92954  11.801   5.488   1.989 -0.6287 -1.4386 -0.6172
  674MOL0     H92955  11.649   5.697   2.151  0.1862 -0.3086  0.9915
  674MOL0     H92956  11.786   5.610   2.209 -1.1679  1.1323  0.9209
  674MOL0     H92957  11.838   5.838   2.104 -2.0673  0.1229  0.5401
  674MOL0     H92958  11.757   5.782   1.944 -0.9418 -3.4987 -0.2110
  674MOL0     H92959  12.016   5.648   2.035  0.0941  0.8273  0.6548
  674MOL0     H92960  11.918   5.641   1.883  0.8985 -0.0367 -0.3534
  674MOL0     H92961  12.038   5.751   1.709 -1.6844  0.7825 -0.1108
  674MOL0     H92962  12.210   6.100   1.628 -1.4806 -1.3170 -2.5901
  674MOL0     H92963  12.173   5.953   1.563 -0.2985 -1.5108  1.1102
  674MOL0     H92964  12.412   6.049   1.626  0.0129  0.1573 -0.8458
  674MOL0     H92965  12.381   5.990   1.797 -3.5460 -0.1084  0.2051
  674MOL0     H92966  12.363   5.794   1.566  2.4631  1.3526 -1.0476
  674MOL0     H92967  12.527   5.832   1.644  0.9454  1.2170  2.3449
  674MOL0     H92968  12.374   5.792   1.857 -3.9430  0.8643 -0.9148
  674MOL0     H92969  12.303   5.673   1.747  0.4279 -0.0914  2.9939
  674MOL0     H92970  12.679   5.465   1.797 -1.8612  1.3848 -0.9639
  674MOL0     H92971  12.992   5.451   1.988  0.5208 -1.4667 -0.7858
  674MOL0     H92972  13.004   5.469   1.814  1.6440  1.0681  0.5079
  674MOL0     H92973  12.873   5.364   1.899 -0.8572  0.6782  1.4285
  674MOL0     H92974  13.198   5.582   2.168 -5.5118 -0.4832  1.6925
  674MOL0     H92975  13.397   5.599   2.308  2.3531  2.3980 -1.3945
  674MOL0     H92976  13.581   5.720   2.326 -0.5010  1.6806 -4.2314
  674MOL0     H92977  13.556   5.892   2.296  1.1531 -1.0669 -1.4139
  674MOL0     H92978  13.725   5.960   2.439 -0.7330 -0.1504 -0.8844
  674MOL0     H92979  13.635   5.886   2.563 -1.7507  1.0473 -0.8605
  674MOL0     H92980  13.823   5.742   2.368 -1.3842 -0.3001 -0.6960
  674MOL0     H92981  13.756   5.666   2.506 -0.6493  0.0649 -1.5024
  674MOL0     H92982  13.941   5.908   2.516 -0.7200 -0.8251 -2.7791
  674MOL0     H92983  13.996   5.742   2.513 -0.0546 -0.9261 -1.2613
  674MOL0     H92984  13.852   5.896   2.726  5.1695  2.0585  2.3287
  674MOL0     H92985  13.861   5.713   2.747  1.1573 -0.1552 -0.1980
  674MOL0     H92986  14.080   5.912   2.703 -1.4438 -0.0836 -0.8824
  674MOL0     H92987  14.109   5.732   2.700  0.9491 -0.3186  1.7501
  674MOL0     H92988  13.985   5.733   2.937  1.0242  0.5728  2.9165
  674MOL0     H92989  14.004   5.908   2.935  1.6309  0.5670  1.9753
  674MOL0     H92990  14.170   5.799   3.060 -0.1755  2.7729  0.4622
  674MOL0     H92991  14.245   5.867   2.908  0.2087  0.0653  1.1139
  674MOL0     H92992  13.242   5.961   2.474  1.0553  1.4236 -1.3824
  674MOL0     H92993  13.049   5.952   2.339  0.9088  0.3448  1.8266
  674MOL0     H92994  12.796   5.882   2.019 -0.2370 -0.6345  0.9703
  674MOL0     H92995  12.569   5.850   1.918  0.9015  1.0271  0.7094
  674MOL0     H92996  11.324   5.010   1.722 -0.9410  1.6301  0.8996
  674MOL0     H92997  11.213   4.834   1.612  1.6611  2.1681 -0.2135
  674MOL0     H92998  10.646   4.738   1.611  1.2602  0.2114 -0.8865
  674MOL0     H92999  10.492   4.580   1.582 -0.8793  2.0681  3.0729
  674MOL0     H93000  10.379   4.394   1.665  1.4074 -1.9774  0.8954
  674MOL0     H93001  10.330   4.365   1.496  0.2110 -0.5899 -1.1705
  674MOL0     H93002  10.250   4.196   1.700  1.0462 -2.6592  1.6632
  674MOL0     H93003  10.394   4.116   1.649  0.3343 -0.4476 -3.4393
  674MOL0     H93004  10.150   4.169   1.489 -0.7255 -1.9953  0.6433
  674MOL0     H93005  10.303   4.118   1.411  0.8772  0.2540  0.2422
  674MOL0     H93006  10.135   3.956   1.619 -1.9849  0.2969 -0.7636
  674MOL0     H93007  10.305   3.924   1.550  0.9008  1.8849 -1.1744
  674MOL0     H93008  10.073   3.828   1.212  0.5584  0.9360 -1.0488
  674MOL0     H93009  10.780   4.266   1.595  0.5876  0.6598 -2.9009
  674MOL0     H93010  11.050   4.428   1.633 -3.0224  4.1613 -2.3374
  674MOL0     H93011  11.020   4.450   1.812  4.1979  0.6566 -1.9681
  674MOL0     H93012  10.970   4.306   1.746  4.5832 -0.3978  2.6177
  675MOL0     O93013   4.480   3.689   7.438  1.1286  0.3748  0.0831
  675MOL0     C93014   4.496   3.753   7.541 -0.0274 -0.0724  0.4938
  675MOL0     O93015   4.616   3.818   7.572 -0.5375  0.6078  0.6437
  675MOL0     C93016   4.739   3.767   7.539  0.0910 -0.5510 -0.5125
  675MOL0     C93017   4.764   3.632   7.515 -0.1851  0.3074 -0.0204
  675MOL0     C93018   4.892   3.579   7.490  0.2102 -0.4500 -0.4313
  675MOL0     C93019   5.001   3.665   7.493 -0.3789 -0.4393  0.6541
  675MOL0     O93020   5.131   3.628   7.473 -0.0147 -0.2613 -0.2245
  675MOL0     C93021   5.166   3.511   7.396 -0.7443  0.2916  1.8280
  675MOL0     C93022   5.322   3.485   7.397  0.3234 -0.4572  0.2655
  675MOL0     C93023   5.358   3.459   7.539  0.6617 -0.1145 -0.2230
  675MOL0     C93024   5.507   3.441   7.543  0.2746  0.3083 -0.1477
  675MOL0     C93025   5.571   3.423   7.684  1.0419  0.7303 -1.0147
  675MOL0     C93026   5.717   3.366   7.672  0.7356  0.3054  1.2111
  675MOL0     C93027   5.809   3.450   7.578 -0.3784 -0.4311 -0.4006
  675MOL0     C93028   5.809   3.416   7.430 -0.6450 -0.9908 -0.6106
  675MOL0     N93029   5.856   3.283   7.389 -0.2762  0.1805 -0.4818
  675MOL0     C93030   5.851   3.245   7.264 -0.5456  0.1333  0.4565
  675MOL0     C93031   5.915   3.122   7.256  0.3647  0.4471  0.0600
  675MOL0     C93032   5.972   3.054   7.130  0.6539 -1.0027  0.3011
  675MOL0     C93033   6.101   3.126   7.091  0.9366  0.2156  0.3065
  675MOL0     C93034   6.186   3.034   7.004 -1.1199  0.6175 -0.2126
  675MOL0     C93035   6.307   3.103   6.952 -0.9031 -0.0821  0.0854
  675MOL0     O93036   6.398   3.015   6.878 -0.8901  0.3447 -0.0463
  675MOL0     C93037   6.528   3.066   6.856 -0.0609 -0.2691 -0.5819
  675MOL0     C93038   6.634   2.990   6.805  0.7107 -0.7109  1.1765
  675MOL0     C93039   6.769   3.036   6.797 -0.4522  0.1650  0.0622
  675MOL0     C93040   6.866   2.929   6.747 -0.3884 -0.0031  0.1849
  675MOL0     C93041   6.802   3.167   6.824  0.1236  0.2797 -0.6947
  675MOL0     C93042   6.941   3.235   6.802 -0.1635  0.1049  0.0674
  675MOL0     O93043   6.949   3.369   6.771  0.2559 -0.0554 -0.4490
  675MOL0     C93044   7.057   3.434   6.724  0.9925  0.0510  0.3393
  675MOL0     C93045   7.134   3.401   6.613  0.4151 -0.7356 -0.3919
  675MOL0     C93046   7.249   3.474   6.574  0.2660 -0.5508  0.0737
  675MOL0     C93047   7.281   3.592   6.651  0.1359 -0.8879 -0.3116
  675MOL0     O93048   7.395   3.663   6.619  0.2545  1.0385 -0.4191
  675MOL0     C93049   7.401   3.805   6.643  0.4711  0.1086 -0.6527
  675MOL0     C93050   7.490   3.836   6.762 -0.1460  0.2845  0.0679
  675MOL0     C93051   7.426   3.952   6.844 -0.4685 -0.8449  0.0604
  675MOL0     C93052   7.505   4.004   6.972 -0.6989 -0.1847 -0.4128
  675MOL0     C93053   7.629   4.092   6.927  0.2920 -0.4198  0.3314
  675MOL0     C93054   7.724   4.127   7.037  0.6547  0.3918 -0.9024
  675MOL0     C93055   7.648   4.173   7.168  1.0044 -0.7036  0.3445
  675MOL0     C93056   7.737   4.235   7.275 -0.6734  0.2795 -0.3074
  675MOL0    Cl93057   7.842   4.113   7.349  0.0631  0.3707  0.5427
  675MOL0     C93058   7.205   3.626   6.757 -0.4399  0.1133  0.5340
  675MOL0     C93059   7.093   3.551   6.801  0.0518  1.0918  0.6344
  675MOL0     O93060   7.033   3.157   6.781  0.5981 -0.8803  0.0211
  675MOL0     C93061   6.701   3.246   6.880  0.1990 -0.2032  0.4961
  675MOL0     C93062   6.567   3.198   6.884 -0.4005 -0.3660 -0.8613
  675MOL0     N93063   5.965   3.094   7.382  0.5382  0.3657  0.0385
  675MOL0     N93064   5.925   3.184   7.466  0.1260  0.4490  0.5182
  675MOL0     C93065   4.978   3.809   7.528  0.1175 -0.1001  0.5541
  675MOL0     C93066   4.849   3.852   7.546  0.5869 -0.6324  0.3664
  675MOL0     C93067   4.381   3.760   7.634  0.1296  0.4775 -0.6235
  675MOL0     C93068   4.409   3.787   7.768 -0.2416 -0.1717 -0.0043
  675MOL0     C93069   4.317   3.814   7.872  0.6789 -1.3462  0.1199
  675MOL0     C93070   4.187   3.804   7.840 -0.0492  0.3965  0.5632
  675MOL0     O93071   4.088   3.824   7.938 -0.2911 -0.0193 -0.8961
  675MOL0     C93072   4.063   3.963   7.949  1.2320  0.2483 -0.6388
  675MOL0     C93073   3.940   3.992   8.035  0.9229  0.1644  0.0823
  675MOL0     C93074   3.818   3.906   7.992 -1.0985  0.2584 -0.2830
  675MOL0     C93075   3.689   3.946   8.069  0.7916 -0.4497 -0.1979
  675MOL0     C93076   3.655   3.852   8.182 -0.1003  0.0367 -0.4918
  675MOL0     C93077   3.619   3.776   8.273 -0.7497  0.4671 -0.8565
  675MOL0     C93078   4.148   3.760   7.708 -0.1944 -0.4105 -0.6530
  675MOL0     C93079   4.242   3.747   7.606 -0.3777  0.0619 -0.0113
  675MOL0     C93080   4.186   3.716   7.470 -0.7315 -0.3115  1.1546
  675MOL0     H93081   4.678   3.565   7.510 -0.5869  0.8968 -1.3995
  675MOL0     H93082   4.902   3.472   7.470  0.3545 -0.3165 -1.1090
  675MOL0     H93083   5.131   3.544   7.297 -0.0979  2.7807  2.3588
  675MOL0     H93084   5.117   3.418   7.426 -0.1639 -1.9410 -3.1483
  675MOL0     H93085   5.345   3.399   7.333 -4.2700 -2.9034  1.4092
  675MOL0     H93086   5.355   3.584   7.365 -1.4561 -0.9350 -3.6775
  675MOL0     H93087   5.338   3.543   7.606  3.1357  0.4730 -0.1156
  675MOL0     H93088   5.303   3.368   7.564 -0.0231  0.2342 -0.4522
  675MOL0     H93089   5.538   3.351   7.489  0.2896 -0.1716  0.6458
  675MOL0     H93090   5.542   3.537   7.504  1.0406 -0.4685 -1.4654
  675MOL0     H93091   5.506   3.355   7.740  1.4691  2.0955  1.2856
  675MOL0     H93092   5.568   3.522   7.730  1.4603  0.5487 -0.5917
  675MOL0     H93093   5.752   3.352   7.774  0.2087 -0.7503  1.2587
  675MOL0     H93094   5.722   3.266   7.628  0.9891 -0.5345  3.0510
  675MOL0     H93095   5.913   3.439   7.612 -0.2595 -4.0437 -1.4697
  675MOL0     H93096   5.784   3.556   7.588 -0.3791 -0.1501 -2.8269
  675MOL0     H93097   5.713   3.439   7.383 -2.0392 -4.1670  0.3987
  675MOL0     H93098   5.883   3.489   7.395 -1.6637  1.5422  2.1534
  675MOL0     H93099   5.816   3.304   7.179  1.1557  0.2869 -0.1866
  675MOL0     H93100   5.907   3.061   7.043  1.2530 -2.9773 -0.3628
  675MOL0     H93101   5.983   2.947   7.150  5.6583 -1.1338 -1.7358
  675MOL0     H93102   6.080   3.209   7.023 -1.9549 -1.8488 -1.5312
  675MOL0     H93103   6.160   3.148   7.181  2.1359 -2.3562  0.2436
  675MOL0     H93104   6.225   2.948   7.058  1.8162 -0.3732 -3.5412
  675MOL0     H93105   6.134   2.991   6.917  1.1406 -1.6885 -0.5247
  675MOL0     H93106   6.300   3.194   6.892  2.0314  0.2835  0.1117
  675MOL0     H93107   6.355   3.139   7.045 -0.0470 -1.8635  0.3734
  675MOL0     H93108   6.621   2.886   6.777  1.7683 -0.0679 -2.1301
  675MOL0     H93109   6.928   2.899   6.831  2.9240  1.9640 -1.3612
  675MOL0     H93110   6.928   2.955   6.661  0.2004  1.1136  0.9325
  675MOL0     H93111   6.811   2.837   6.724  0.5180 -0.6893  0.7063
  675MOL0     H93112   7.109   3.299   6.583 -0.0014 -0.6330 -0.4065
  675MOL0     H93113   7.325   3.438   6.506  1.1527 -0.4502  0.9822
  675MOL0     H93114   7.440   3.859   6.556  2.8793 -0.8107 -0.2409
  675MOL0     H93115   7.299   3.842   6.654 -0.2887 -2.0802  0.0832
  675MOL0     H93116   7.490   3.742   6.818 -1.2520  0.2724  0.0641
  675MOL0     H93117   7.593   3.852   6.730  0.7463 -0.4614  2.3667
  675MOL0     H93118   7.338   3.907   6.892 -0.2781 -1.3587 -0.0712
  675MOL0     H93119   7.409   4.034   6.774  3.5598 -1.1210 -1.4961
  675MOL0     H93120   7.538   3.914   7.024  1.1451 -0.2743 -1.6258
  675MOL0     H93121   7.440   4.060   7.041  0.0173  0.4275 -0.2231
  675MOL0     H93122   7.685   4.040   6.849  2.5089 -2.2243  2.9729
  675MOL0     H93123   7.586   4.180   6.878 -1.1618 -0.7174  1.0089
  675MOL0     H93124   7.798   4.198   6.999  0.0563  1.3053 -0.3949
  675MOL0     H93125   7.780   4.037   7.065 -3.1735 -1.5541  1.3262
  675MOL0     H93126   7.604   4.077   7.200  0.4316 -1.0903 -1.4634
  675MOL0     H93127   7.579   4.253   7.141  1.9150  0.2997  0.9386
  675MOL0     H93128   7.684   4.276   7.360  0.0923 -0.0068  0.3202
  675MOL0     H93129   7.798   4.314   7.231 -1.2968  1.0102  0.1338
  675MOL0     H93130   7.227   3.719   6.809 -0.1544  1.2975 -1.6006
  675MOL0     H93131   7.042   3.584   6.890  0.5154  0.8361  1.0028
  675MOL0     H93132   6.721   3.346   6.916 -1.8815  0.6507 -0.5633
  675MOL0     H93133   6.495   3.263   6.931  0.1611 -1.5821  1.8608
  675MOL0     H93134   5.055   3.885   7.537 -0.3270  0.2202  1.7213
  675MOL0     H93135   4.835   3.957   7.566  2.5270  0.0831 -1.6207
  675MOL0     H93136   4.509   3.766   7.807  0.7933 -0.3850 -2.5806
  675MOL0     H93137   4.354   3.827   7.974  0.5762 -2.9877  0.3875
  675MOL0     H93138   4.148   4.021   7.987  1.1216  0.6686 -1.0153
  675MOL0     H93139   4.047   4.000   7.847  0.7169 -0.4906 -0.8341
  675MOL0     H93140   3.917   4.099   8.030  0.9556  0.2854  1.8882
  675MOL0     H93141   3.952   3.989   8.143 -0.7969  1.2569  0.3372
  675MOL0     H93142   3.798   3.938   7.890  1.8868  0.2585 -0.9442
  675MOL0     H93143   3.846   3.801   8.001  0.4605  0.5551 -1.3708
  675MOL0     H93144   3.609   3.935   7.994 -1.6393  0.9381  2.0098
  675MOL0     H93145   3.686   4.052   8.097  0.2846 -0.5458  0.1357
  675MOL0     H93146   3.594   3.715   8.357 -0.8710  0.3254 -0.9948
  675MOL0     H93147   4.040   3.752   7.699 -0.3230  1.5606 -1.3631
  675MOL0     H93148   4.212   3.798   7.403  0.7009 -3.1909 -2.1075
  675MOL0     H93149   4.228   3.621   7.436 -2.4911 -1.1471  1.1942
  675MOL0     H93150   4.077   3.708   7.480 -0.9181 -1.0224 -1.0246
  676MOL0     O93151   3.543   5.229   1.452 -0.3833  0.5436 -0.3456
  676MOL0     C93152   3.548   5.348   1.442 -0.6741 -1.2659  0.4938
  676MOL0     O93153   3.667   5.421   1.417  0.5674 -0.0541  0.2825
  676MOL0     C93154   3.778   5.375   1.478 -0.6924  0.2068 -0.1461
  676MOL0     C93155   3.889   5.458   1.459  0.8662 -0.7427 -0.4735
  676MOL0     C93156   4.010   5.432   1.516  0.5877 -0.3678 -0.0079
  676MOL0     C93157   4.030   5.311   1.590  0.1943  0.5384  0.6253
  676MOL0     O93158   4.142   5.297   1.658 -0.1162  0.7683  0.4738
  676MOL0     C93159   4.201   5.169   1.648  0.9734 -0.2453  0.2476
  676MOL0     C93160   4.338   5.180   1.704  0.0667 -0.2093  1.4933
  676MOL0     C93161   4.351   5.253   1.840  0.0651  0.6962  0.0512
  676MOL0     C93162   4.471   5.214   1.910 -0.8640 -0.6428 -0.0106
  676MOL0     C93163   4.597   5.279   1.850  0.3800  0.3964  0.5038
  676MOL0     C93164   4.718   5.243   1.936  0.4371  0.0786  0.7078
  676MOL0     C93165   4.851   5.297   1.886 -0.4607 -0.9024 -1.3445
  676MOL0     C93166   4.964   5.221   1.963  0.3418 -0.7572  0.1312
  676MOL0     N93167   5.091   5.253   1.909 -0.6692 -0.1840  0.8865
  676MOL0     C93168   5.176   5.164   1.837  0.1406 -0.0859 -0.0297
  676MOL0     C93169   5.282   5.243   1.823 -0.2646 -0.2878  0.5577
  676MOL0     C93170   5.409   5.198   1.767 -0.6524  0.3846 -0.4727
  676MOL0     C93171   5.490   5.115   1.875  0.5578 -0.8443  0.1008
  676MOL0     C93172   5.454   4.963   1.884  0.9332  0.0096 -0.1580
  676MOL0     C93173   5.480   4.880   1.758 -0.1033  0.1234 -0.1113
  676MOL0     O93174   5.600   4.926   1.713  0.6176  0.1001 -0.3365
  676MOL0     C93175   5.616   4.906   1.575  0.4642 -0.5201  0.8037
  676MOL0     C93176   5.547   4.984   1.475  0.9615  0.8087  0.8057
  676MOL0     C93177   5.577   4.980   1.336  0.6351 -0.4612  0.1832
  676MOL0     C93178   5.491   5.051   1.229 -0.1974 -0.6820 -0.2992
  676MOL0     C93179   5.696   4.912   1.297 -1.5981 -0.8203  0.1427
  676MOL0     C93180   5.743   4.920   1.163  0.3859  0.1440  1.6087
  676MOL0     O93181   5.737   4.802   1.089  0.3826 -0.5425  0.4201
  676MOL0     C93182   5.783   4.808   0.959 -0.5525  0.1436  0.0785
  676MOL0     C93183   5.708   4.875   0.853  0.1190 -0.3384  0.9963
  676MOL0     C93184   5.773   4.903   0.733  0.5243  1.0683  0.4730
  676MOL0     C93185   5.895   4.837   0.700  1.0547 -0.1276  0.3044
  676MOL0     O93186   5.968   4.871   0.592 -0.2178 -0.2325 -0.0954
  676MOL0     C93187   6.053   4.776   0.512 -0.2770 -0.5520  0.2998
  676MOL0     C93188   5.981   4.650   0.454  0.0486  0.0539 -0.1128
  676MOL0     C93189   6.076   4.572   0.358  0.1672 -0.2958 -0.6365
  676MOL0     C93190   6.055   4.608   0.207 -0.8126  0.5187 -0.3124
  676MOL0     C93191   6.154   4.547   0.117  0.4507 -0.1032 -0.5825
  676MOL0     C93192   6.201   4.646   0.008 -0.8256  0.1830  0.8333
  676MOL0     C93193   6.303   4.592  -0.096  0.2617  0.0838 -0.4747
  676MOL0     C93194   6.431   4.544  -0.030 -0.9281  1.0951  0.3477
  676MOL0    Cl93195   6.559   4.668  -0.029  0.0898 -0.4990  0.1910
  676MOL0     C93196   5.958   4.758   0.796 -0.8079 -0.4770 -0.7205
  676MOL0     C93197   5.911   4.753   0.928  0.3819 -0.9050 -0.6452
  676MOL0     O93198   5.789   5.030   1.122 -0.3676 -0.1653 -0.1440
  676MOL0     C93199   5.773   4.845   1.389 -0.4765  0.2482 -0.7335
  676MOL0     C93200   5.734   4.856   1.525  0.3077  0.6648 -0.0470
  676MOL0     N93201   5.267   5.369   1.877 -0.8416  0.3659  0.1299
  676MOL0     N93202   5.147   5.378   1.911 -0.1609 -0.2856  0.3445
  676MOL0     C93203   3.919   5.238   1.612 -0.5243  0.5607  0.5289
  676MOL0     C93204   3.796   5.261   1.557 -0.3816 -0.3379  0.1435
  676MOL0     C93205   3.423   5.422   1.420 -0.6219  0.7049  0.5910
  676MOL0     C93206   3.435   5.548   1.357  1.1388 -0.5404  0.2369
  676MOL0     C93207   3.323   5.634   1.332 -0.8367  0.2572  0.2775
  676MOL0     C93208   3.196   5.594   1.374 -0.8273 -0.5109  0.4142
  676MOL0     O93209   3.096   5.684   1.360 -0.8822  0.3924 -0.6094
  676MOL0     C93210   2.962   5.631   1.377  0.1693 -0.3496 -0.8670
  676MOL0     C93211   2.879   5.751   1.329 -0.0763  1.1796  0.8702
  676MOL0     C93212   2.726   5.743   1.364  0.3610 -0.4330  0.8253
  676MOL0     C93213   2.650   5.866   1.309 -0.3166  0.2697  0.0677
  676MOL0     C93214   2.596   5.848   1.175 -0.1371  0.5884  0.5999
  676MOL0     C93215   2.535   5.830   1.074  0.2413 -0.3865 -0.1235
  676MOL0     C93216   3.185   5.472   1.449  0.0710  0.5282 -0.2082
  676MOL0     C93217   3.296   5.392   1.468 -0.4946  0.0455 -0.6031
  676MOL0     C93218   3.280   5.265   1.551  0.4432 -0.4780  0.5838
  676MOL0     H93219   3.876   5.533   1.382  3.1108 -0.9005 -1.0782
  676MOL0     H93220   4.085   5.510   1.508 -1.3635  1.4789 -1.6959
  676MOL0     H93221   4.214   5.138   1.544 -0.1149  2.0954 -0.6575
  676MOL0     H93222   4.149   5.091   1.705 -1.5838  1.2372  0.1217
  676MOL0     H93223   4.374   5.077   1.705  1.1800  0.0692 -1.1506
  676MOL0     H93224   4.406   5.227   1.632  0.2184 -1.8272  0.5500
  676MOL0     H93225   4.354   5.360   1.816 -1.2636  1.0095  1.1700
  676MOL0     H93226   4.268   5.222   1.903  2.2779 -3.0780  1.4450
  676MOL0     H93227   4.467   5.243   2.015 -1.1297  1.3588 -0.5171
  676MOL0     H93228   4.485   5.106   1.912  1.2777 -0.3932  1.0765
  676MOL0     H93229   4.579   5.386   1.857 -0.4905  0.1574  2.6001
  676MOL0     H93230   4.621   5.262   1.744  1.0881  1.9259  0.3960
  676MOL0     H93231   4.696   5.284   2.035  1.2620 -0.9726  1.3420
  676MOL0     H93232   4.719   5.135   1.949 -2.7519 -0.4508 -1.9375
  676MOL0     H93233   4.867   5.403   1.905 -0.1996 -1.0742 -0.5698
  676MOL0     H93234   4.844   5.290   1.777  0.6367  0.7589 -1.5572
  676MOL0     H93235   4.958   5.251   2.068 -1.9198 -1.7194  0.3379
  676MOL0     H93236   4.956   5.112   1.970  0.2060 -0.7656 -0.1557
  676MOL0     H93237   5.166   5.062   1.803  0.7034 -0.1898  0.0957
  676MOL0     H93238   5.461   5.291   1.746  0.8092 -0.4149 -0.5330
  676MOL0     H93239   5.398   5.149   1.670 -1.6359  3.9058 -2.3153
  676MOL0     H93240   5.595   5.129   1.849  0.1060 -0.7720 -1.8024
  676MOL0     H93241   5.471   5.161   1.972 -0.8795  0.2359 -0.6510
  676MOL0     H93242   5.514   4.917   1.963  2.5024 -2.0609 -2.4002
  676MOL0     H93243   5.349   4.941   1.902  1.2109 -0.1620  1.3136
  676MOL0     H93244   5.488   4.777   1.794 -2.5741  0.4220  1.6225
  676MOL0     H93245   5.394   4.894   1.691 -0.3978  0.5138  0.3362
  676MOL0     H93246   5.458   5.043   1.494  2.0676  3.9262 -2.7195
  676MOL0     H93247   5.462   4.973   1.158  3.5926 -2.6469  0.0229
  676MOL0     H93248   5.542   5.137   1.184  0.0988  0.5190  2.1881
  676MOL0     H93249   5.400   5.088   1.276  0.5441 -3.1797  3.5669
  676MOL0     H93250   5.606   4.907   0.870 -1.5312 -4.5324  0.1431
  676MOL0     H93251   5.722   4.972   0.668  1.0925 -0.1044 -1.2782
  676MOL0     H93252   6.096   4.828   0.426 -0.8117  0.7128  0.7600
  676MOL0     H93253   6.141   4.743   0.568 -0.4108  1.2127  1.6595
  676MOL0     H93254   5.955   4.585   0.539  1.6631  0.1555  0.4898
  676MOL0     H93255   5.884   4.668   0.406 -0.1074 -1.3352 -0.3412
  676MOL0     H93256   6.066   4.463   0.368 -0.5257 -0.1715  0.1274
  676MOL0     H93257   6.177   4.592   0.394  0.2256  1.8362 -1.8351
  676MOL0     H93258   6.071   4.716   0.197  1.7632 -0.0425 -5.2844
  676MOL0     H93259   5.958   4.579   0.164 -0.9581 -0.7548  0.8082
  676MOL0     H93260   6.234   4.506   0.178  0.8274  1.0994 -0.2366
  676MOL0     H93261   6.107   4.459   0.072  3.3503 -1.3133 -1.4441
  676MOL0     H93262   6.261   4.723   0.057  0.9411 -2.2236  2.6812
  676MOL0     H93263   6.124   4.699  -0.048  0.9764  0.3482 -1.6568
  676MOL0     H93264   6.316   4.664  -0.178 -2.3192  0.7349 -0.4043
  676MOL0     H93265   6.257   4.506  -0.145 -1.3229  0.7438 -0.1884
  676MOL0     H93266   6.465   4.462  -0.094 -4.2499 -1.2999  1.3875
  676MOL0     H93267   6.408   4.501   0.068  0.7250 -1.3494 -0.2504
  676MOL0     H93268   6.050   4.709   0.766  0.7353  0.9999  1.3387
  676MOL0     H93269   5.964   4.707   1.011 -1.1604  0.1742  1.0234
  676MOL0     H93270   5.864   4.792   1.360  0.3207  1.4354 -0.4438
  676MOL0     H93271   5.793   4.818   1.608  1.6715  2.6257 -0.0350
  676MOL0     H93272   3.921   5.161   1.689  0.8529 -1.9147 -1.8000
  676MOL0     H93273   3.716   5.190   1.569 -0.8234 -0.0731 -1.0773
  676MOL0     H93274   3.527   5.579   1.310  0.8870 -2.4784 -1.7134
  676MOL0     H93275   3.341   5.732   1.289 -1.5529  0.6799  0.9158
  676MOL0     H93276   2.955   5.553   1.301  0.0099 -2.5035  1.2491
  676MOL0     H93277   2.945   5.591   1.477  0.0238 -3.2601 -1.9668
  676MOL0     H93278   2.893   5.758   1.221  2.8732  1.0045  1.1562
  676MOL0     H93279   2.910   5.845   1.377 -1.7459  2.4273 -0.3849
  676MOL0     H93280   2.691   5.647   1.324  1.6857 -0.5311 -0.1847
  676MOL0     H93281   2.712   5.737   1.472  0.3847  0.4613  0.8834
  676MOL0     H93282   2.702   5.962   1.312 -3.3390  2.0934 -1.2561
  676MOL0     H93283   2.565   5.863   1.376 -0.3142 -1.0173  0.0383
  676MOL0     H93284   2.478   5.813   0.985 -0.6631  0.0447  0.3616
  676MOL0     H93285   3.087   5.437   1.483  0.7124 -0.5293  0.6452
  676MOL0     H93286   3.179   5.265   1.593  0.2426  0.8367  0.1612
  676MOL0     H93287   3.281   5.184   1.478 -1.6749 -0.5400  0.5757
  676MOL0     H93288   3.355   5.245   1.628 -0.7465 -3.2526  1.1525
  677MOL0     O93289   9.068   4.873   1.390 -0.2363  0.5745  0.2697
  677MOL0     C93290   9.093   4.823   1.282 -0.5034  0.6659  0.1080
  677MOL0     O93291   9.208   4.848   1.204  1.0290  0.0068 -0.0582
  677MOL0     C93292   9.312   4.928   1.235 -0.7438  0.8252 -0.3058
  677MOL0     C93293   9.391   4.971   1.124  0.0305 -0.5712  0.1756
  677MOL0     C93294   9.494   5.069   1.142 -0.2467 -0.8334 -0.0457
  677MOL0     C93295   9.513   5.139   1.259  0.1932 -0.7934 -0.0682
  677MOL0     O93296   9.613   5.234   1.265 -0.7222 -0.3005  0.3145
  677MOL0     C93297   9.650   5.308   1.389 -0.5062 -0.0547  1.1618
  677MOL0     C93298   9.702   5.451   1.349 -0.2767  0.2573  0.7912
  677MOL0     C93299   9.848   5.448   1.311  0.4399 -0.3515 -0.4487
  677MOL0     C93300   9.949   5.460   1.418  0.0578  0.5258  0.4757
  677MOL0     C93301  10.091   5.421   1.361 -0.0309  0.2235 -0.3033
  677MOL0     C93302  10.195   5.477   1.457  0.1650  0.1799  0.3203
  677MOL0     C93303  10.339   5.421   1.437  0.7035 -0.7041  0.7153
  677MOL0     C93304  10.417   5.517   1.342 -0.6921 -0.1690  0.3212
  677MOL0     N93305  10.559   5.492   1.315 -0.1209  0.3996 -0.0567
  677MOL0     C93306  10.624   5.407   1.220  0.0941 -1.2793 -0.0351
  677MOL0     C93307  10.761   5.422   1.242  0.4332 -0.6849 -0.3123
  677MOL0     C93308  10.865   5.365   1.156  0.6731  0.3085 -0.6029
  677MOL0     C93309  10.854   5.428   1.020  0.0536 -0.0395 -0.5597
  677MOL0     C93310  10.834   5.583   1.022 -1.0830  0.1542 -0.0990
  677MOL0     C93311  10.955   5.646   1.086 -0.8396 -0.4511 -0.9059
  677MOL0     O93312  10.959   5.790   1.053  0.0944 -0.0359  0.7489
  677MOL0     C93313  11.038   5.878   1.120  0.6153  0.6006  0.6179
  677MOL0     C93314  10.984   5.996   1.169 -0.0154  1.2837  0.7223
  677MOL0     C93315  11.066   6.090   1.236  0.0413  0.1612 -0.8325
  677MOL0     C93316  10.998   6.214   1.286 -0.4996 -0.1151  0.0250
  677MOL0     C93317  11.207   6.070   1.251  0.3043 -0.9703 -0.0366
  677MOL0     C93318  11.301   6.167   1.299  0.6561  0.0451  0.5021
  677MOL0     O93319  11.277   6.298   1.307  0.5832 -0.0188  0.0067
  677MOL0     C93320  11.346   6.364   1.406 -0.1528  0.7300 -0.3237
  677MOL0     C93321  11.432   6.467   1.368 -0.3405  0.5084 -0.5394
  677MOL0     C93322  11.490   6.556   1.459 -0.3846 -0.2489  1.2042
  677MOL0     C93323  11.467   6.537   1.591  0.2444 -0.3240 -0.1759
  677MOL0     O93324  11.532   6.629   1.674 -0.0079  0.6322 -0.1176
  677MOL0     C93325  11.525   6.619   1.819 -0.2259 -0.4206  0.2490
  677MOL0     C93326  11.640   6.690   1.883 -0.4516 -0.6553  0.7032
  677MOL0     C93327  11.765   6.599   1.864 -0.8787  0.5204  0.3223
  677MOL0     C93328  11.888   6.670   1.925  0.1568 -0.3791  0.0169
  677MOL0     C93329  11.990   6.565   1.992  0.3274  0.2522 -0.4191
  677MOL0     C93330  12.045   6.451   1.904  0.4059  0.6136  0.2018
  677MOL0     C93331  12.157   6.375   1.988  0.0889 -0.2450 -0.5450
  677MOL0     C93332  12.256   6.314   1.893  0.4691  1.5783  0.7328
  677MOL0    Cl93333  12.346   6.426   1.794 -0.1554 -0.4620  0.0756
  677MOL0     C93334  11.385   6.421   1.634  0.0077  0.1438  0.5275
  677MOL0     C93335  11.313   6.343   1.543  0.3261 -0.3154 -0.2253
  677MOL0     O93336  11.395   6.112   1.355 -0.2597 -0.5254  0.1583
  677MOL0     C93337  11.261   5.954   1.194  0.4001  0.4175  0.6024
  677MOL0     C93338  11.174   5.854   1.136 -0.6356 -0.1031 -0.0793
  677MOL0     N93339  10.774   5.502   1.359  0.1209  0.7024  0.4936
  677MOL0     N93340  10.658   5.547   1.399  0.3193 -0.3768 -0.3369
  677MOL0     C93341   9.437   5.086   1.372  0.0735 -1.0349  0.5258
  677MOL0     C93342   9.336   4.988   1.357  0.0192  1.1774 -0.8927
  677MOL0     C93343   8.988   4.747   1.206  0.3030 -0.1942 -0.1184
  677MOL0     C93344   8.941   4.790   1.076 -0.0201  1.2736 -0.8745
  677MOL0     C93345   8.843   4.722   1.014 -0.3334 -0.1373 -0.2847
  677MOL0     C93346   8.780   4.608   1.071  0.8969 -0.6179 -0.1036
  677MOL0     O93347   8.697   4.532   0.996  0.0472  0.0426 -0.5691
  677MOL0     C93348   8.598   4.599   0.914  0.1366 -0.4158 -0.4074
  677MOL0     C93349   8.511   4.700   0.998  0.0652  0.1710 -0.0379
  677MOL0     C93350   8.419   4.626   1.104  0.1388 -0.0723 -0.7536
  677MOL0     C93351   8.364   4.725   1.211  0.4652 -0.1639  0.2648
  677MOL0     C93352   8.259   4.814   1.153 -0.5080  0.8095  0.0204
  677MOL0     C93353   8.165   4.868   1.102 -0.4177 -0.8365 -0.5506
  677MOL0     C93354   8.827   4.567   1.195  0.0032 -0.5288  0.3209
  677MOL0     C93355   8.926   4.635   1.262  0.4308 -0.3210 -0.5620
  677MOL0     C93356   8.968   4.567   1.384  0.2863 -0.1214  0.4255
  677MOL0     H93357   9.379   4.910   1.035 -1.8679 -0.9337  0.6472
  677MOL0     H93358   9.560   5.099   1.060  0.6845 -1.5076  0.4362
  677MOL0     H93359   9.723   5.238   1.430 -0.5051 -0.5636  0.3120
  677MOL0     H93360   9.568   5.324   1.460 -0.9317 -1.1162  0.9377
  677MOL0     H93361   9.641   5.493   1.269  1.3111  1.0860 -0.0200
  677MOL0     H93362   9.692   5.519   1.434 -1.1056  0.7395  0.3255
  677MOL0     H93363   9.878   5.371   1.240  2.7389  1.0226 -1.0485
  677MOL0     H93364   9.868   5.530   1.242 -0.5844 -1.6186 -2.3754
  677MOL0     H93365   9.941   5.558   1.466  0.9660  2.2353 -2.6114
  677MOL0     H93366   9.922   5.385   1.493 -1.9923  1.3655  0.6247
  677MOL0     H93367  10.103   5.471   1.265 -2.9128  2.9558  0.6000
  677MOL0     H93368  10.095   5.311   1.360 -1.0582  0.1021  2.3886
  677MOL0     H93369  10.198   5.585   1.437 -1.2561  0.7329  2.7185
  677MOL0     H93370  10.162   5.471   1.561 -0.1989 -0.3837  0.1757
  677MOL0     H93371  10.333   5.324   1.387  3.0378 -0.1852 -0.7124
  677MOL0     H93372  10.395   5.420   1.532 -0.5207 -0.0400  1.4675
  677MOL0     H93373  10.367   5.519   1.245 -1.1050 -0.3206  0.5288
  677MOL0     H93374  10.412   5.622   1.372  0.9074 -0.7661  3.0304
  677MOL0     H93375  10.576   5.354   1.138 -4.4516  0.0081  1.4702
  677MOL0     H93376  10.872   5.256   1.163  1.0558  0.3787  0.3203
  677MOL0     H93377  10.963   5.392   1.197 -0.1037  1.7205  0.4356
  677MOL0     H93378  10.938   5.398   0.956  2.5449 -1.9084  3.1687
  677MOL0     H93379  10.760   5.395   0.975  0.0348  0.4327 -0.8742
  677MOL0     H93380  10.827   5.624   0.920  1.3896  0.5678 -0.1678
  677MOL0     H93381  10.743   5.613   1.074 -2.2536 -3.2402  0.0172
  677MOL0     H93382  10.962   5.631   1.194 -0.4134 -0.8537 -0.9869
  677MOL0     H93383  11.047   5.604   1.045 -1.6992 -0.3530 -3.0366
  677MOL0     H93384  10.881   6.014   1.141  0.2436  0.3839 -0.9682
  677MOL0     H93385  11.020   6.300   1.222  0.3406 -0.4562 -0.1629
  677MOL0     H93386  11.038   6.234   1.386  0.3420  2.8433 -0.8031
  677MOL0     H93387  10.892   6.189   1.293 -0.4036 -0.0757  2.2824
  677MOL0     H93388  11.455   6.481   1.263 -0.3122  2.4465 -0.3157
  677MOL0     H93389  11.543   6.645   1.428 -2.3261  0.6300  0.2240
  677MOL0     H93390  11.435   6.662   1.864  0.6617  2.8009 -0.7626
  677MOL0     H93391  11.533   6.515   1.852  1.5543  0.1740  1.8455
  677MOL0     H93392  11.651   6.788   1.835 -1.8205 -0.8341 -0.0082
  677MOL0     H93393  11.619   6.701   1.989  0.1133 -1.3561  0.8944
  677MOL0     H93394  11.777   6.579   1.757 -3.4599 -2.2473  0.4216
  677MOL0     H93395  11.744   6.506   1.919  1.5680 -2.2305 -2.9381
  677MOL0     H93396  11.844   6.732   2.004 -4.1770 -1.7528 -1.0547
  677MOL0     H93397  11.932   6.737   1.852  0.7877 -0.0162  0.7195
  677MOL0     H93398  12.068   6.627   2.037  0.1040 -0.4099  0.9324
  677MOL0     H93399  11.949   6.504   2.073  1.6718 -0.9694 -0.6271
  677MOL0     H93400  12.096   6.488   1.814  2.9859 -1.7284  0.5577
  677MOL0     H93401  11.959   6.388   1.876  0.2343  1.2198 -0.6761
  677MOL0     H93402  12.116   6.309   2.064  0.9175  1.6226  1.6668
  677MOL0     H93403  12.210   6.458   2.036 -0.3445 -0.9246  1.1590
  677MOL0     H93404  12.207   6.244   1.824  4.1159 -2.7565  2.0627
  677MOL0     H93405  12.316   6.246   1.955 -0.3180 -0.9318 -1.1100
  677MOL0     H93406  11.370   6.407   1.741  1.6137 -1.0611  0.6301
  677MOL0     H93407  11.254   6.262   1.583  0.9869  1.2677  4.5998
  677MOL0     H93408  11.367   5.936   1.206  0.0175 -0.3199  3.5165
  677MOL0     H93409  11.216   5.760   1.102  2.3225  1.7546 -2.0197
  677MOL0     H93410   9.466   5.122   1.470 -2.0148  1.1737  0.4095
  677MOL0     H93411   9.292   4.950   1.449  2.1244  1.7887  0.4499
  677MOL0     H93412   8.967   4.883   1.028 -1.1721  2.0094 -0.1114
  677MOL0     H93413   8.807   4.758   0.919  2.0859  1.6300 -0.6355
  677MOL0     H93414   8.648   4.644   0.828  1.1534 -1.7824 -0.5741
  677MOL0     H93415   8.530   4.535   0.856 -0.5630  1.7316 -2.0604
  677MOL0     H93416   8.447   4.750   0.924  0.8480  2.1451  0.5396
  677MOL0     H93417   8.567   4.781   1.044 -0.8834  1.3428 -0.8601
  677MOL0     H93418   8.337   4.564   1.067 -1.3188  1.1979  0.2239
  677MOL0     H93419   8.483   4.564   1.167  1.1413  1.0096 -0.6681
  677MOL0     H93420   8.440   4.797   1.245  0.2113  1.1287 -1.7319
  677MOL0     H93421   8.335   4.664   1.296 -0.2359 -0.3840 -0.1286
  677MOL0     H93422   8.075   4.912   1.064 -2.0344 -1.6166  2.1432
  677MOL0     H93423   8.782   4.480   1.242 -0.6030  0.3332  1.3891
  677MOL0     H93424   8.984   4.459   1.369 -0.4512 -0.6982  3.1428
  677MOL0     H93425   9.067   4.597   1.421 -0.0115  1.0341  0.3080
  677MOL0     H93426   8.885   4.587   1.452 -0.0138  0.3459 -0.0815
  678MOL0     O93427  10.734   9.219   2.720  0.0437 -0.3510 -0.3845
  678MOL0     C93428  10.676   9.212   2.614  0.3353  0.3334 -0.5984
  678MOL0     O93429  10.734   9.212   2.492  0.3327 -0.0570 -0.5999
  678MOL0     C93430  10.866   9.239   2.492 -0.9592 -0.0716  0.0226
  678MOL0     C93431  10.918   9.367   2.520 -0.2533 -0.3185  0.3783
  678MOL0     C93432  11.055   9.385   2.509 -0.1143  0.0199 -0.1153
  678MOL0     C93433  11.143   9.282   2.474  0.4800  0.6047  1.1271
  678MOL0     O93434  11.278   9.290   2.457 -0.5538  0.6052 -0.2697
  678MOL0     C93435  11.354   9.320   2.574  0.9297 -0.2784 -1.0734
  678MOL0     C93436  11.508   9.297   2.559  0.3481  0.5454 -0.4043
  678MOL0     C93437  11.548   9.152   2.548 -0.1756 -0.0026 -1.2174
  678MOL0     C93438  11.697   9.152   2.541 -0.0541 -0.4301  0.0485
  678MOL0     C93439  11.766   9.016   2.501 -1.1757 -0.7102 -0.4929
  678MOL0     C93440  11.917   9.007   2.552  0.0613  0.7270 -0.4304
  678MOL0     C93441  12.001   9.137   2.547  0.6408 -0.2496 -0.1870
  678MOL0     C93442  12.136   9.109   2.627  0.9756  0.3495  0.6453
  678MOL0     N93443  12.244   9.173   2.561  0.1881 -0.7477  0.9161
  678MOL0     C93444  12.265   9.308   2.531  0.3313  1.3147 -0.7245
  678MOL0     C93445  12.376   9.304   2.456  0.3601 -0.2579 -0.1400
  678MOL0     C93446  12.445   9.414   2.382 -0.7251  0.7360  0.7350
  678MOL0     C93447  12.431   9.385   2.228  0.0541 -0.5146 -0.4368
  678MOL0     C93448  12.517   9.274   2.160 -0.6739  0.8091 -0.5028
  678MOL0     C93449  12.658   9.252   2.202  1.6477  0.5999 -0.3668
  678MOL0     O93450  12.736   9.364   2.168  0.0917  0.2964  0.2518
  678MOL0     C93451  12.859   9.362   2.227  1.3428  1.2650 -0.4837
  678MOL0     C93452  12.972   9.299   2.170 -0.2323 -0.6133 -0.0207
  678MOL0     C93453  13.095   9.280   2.241  0.0558 -0.1531  0.5206
  678MOL0     C93454  13.216   9.236   2.163 -1.3248 -0.3169  0.0076
  678MOL0     C93455  13.105   9.315   2.375 -0.3793 -0.3868 -0.9646
  678MOL0     C93456  13.214   9.281   2.466  0.1033 -0.5585 -0.2049
  678MOL0     O93457  13.208   9.323   2.594  0.5217 -0.3842  0.1681
  678MOL0     C93458  13.328   9.320   2.657 -0.1237 -0.1403  0.4791
  678MOL0     C93459  13.345   9.217   2.759  0.0590  0.4349 -0.1087
  678MOL0     C93460  13.459   9.216   2.834  0.3887 -0.3957 -1.2613
  678MOL0     C93461  13.571   9.302   2.801  0.1726 -0.1240  0.2701
  678MOL0     O93462  13.688   9.311   2.865  0.1415 -0.2902  0.0088
  678MOL0     C93463  13.713   9.234   2.984 -0.2726  0.1727 -0.0925
  678MOL0     C93464  13.830   9.305   3.061 -0.1850  0.1850 -0.1933
  678MOL0     C93465  13.866   9.248   3.198  0.4266 -0.1132  0.3215
  678MOL0     C93466  13.935   9.111   3.186  0.1534  0.5314  0.2561
  678MOL0     C93467  13.932   9.027   3.317 -0.6880 -0.1843 -0.0995
  678MOL0     C93468  13.958   8.878   3.305  0.0873 -0.4529 -0.2509
  678MOL0     C93469  13.968   8.814   3.448 -0.3718 -1.3077 -0.0562
  678MOL0     C93470  13.833   8.809   3.521 -0.1873  0.3577  0.5822
  678MOL0    Cl93471  13.740   8.675   3.448  0.0088  0.6187  0.1029
  678MOL0     C93472  13.557   9.395   2.696 -0.3044 -0.2430  0.0350
  678MOL0     C93473  13.437   9.412   2.627  0.8773  0.3397 -1.0332
  678MOL0     O93474  13.308   9.208   2.431 -0.1162 -0.0264  0.3672
  678MOL0     C93475  12.991   9.371   2.444 -0.4030 -0.0434  0.4926
  678MOL0     C93476  12.872   9.397   2.369 -0.1529 -0.4518 -0.3432
  678MOL0     N93477  12.422   9.174   2.449  0.3068 -0.0970  0.1116
  678MOL0     N93478  12.342   9.097   2.508  0.3552  0.9100  0.1650
  678MOL0     C93479  11.092   9.164   2.424  0.3629  0.6842 -0.2983
  678MOL0     C93480  10.957   9.133   2.436 -0.3441  0.4617 -0.7966
  678MOL0     C93481  10.530   9.213   2.613  0.8330 -0.6398  0.5372
  678MOL0     C93482  10.462   9.196   2.489  0.5333  0.4331 -0.3597
  678MOL0     C93483  10.323   9.194   2.479  0.1446  0.3923  0.1127
  678MOL0     C93484  10.245   9.189   2.590  0.2092 -0.4225  0.6398
  678MOL0     O93485  10.108   9.191   2.589  0.2239  0.5951  0.0593
  678MOL0     C93486  10.032   9.208   2.467 -1.4135 -0.1770 -0.7612
  678MOL0     C93487   9.887   9.200   2.492 -0.4782 -0.4703  0.1658
  678MOL0     C93488   9.848   9.057   2.471  0.3999  0.0396 -0.1487
  678MOL0     C93489   9.707   9.033   2.521  0.5863 -0.5327 -0.4703
  678MOL0     C93490   9.593   9.085   2.441  0.2105 -0.2381  0.5360
  678MOL0     C93491   9.492   9.120   2.384 -0.4548 -0.0550  0.5754
  678MOL0     C93492  10.308   9.202   2.704 -0.1681  0.6149 -0.9717
  678MOL0     C93493  10.443   9.210   2.729 -0.2694 -0.0760  0.1013
  678MOL0     C93494  10.481   9.217   2.875  0.3461  0.5784 -0.8058
  678MOL0     H93495  10.856   9.454   2.537  1.2168  0.6689  0.8647
  678MOL0     H93496  11.096   9.478   2.547 -0.5509  0.7518 -1.3807
  678MOL0     H93497  11.312   9.253   2.648 -0.5166  2.3123  0.6145
  678MOL0     H93498  11.342   9.427   2.596  1.7215  0.0497 -2.1156
  678MOL0     H93499  11.547   9.348   2.471  1.5117 -1.4631 -1.1324
  678MOL0     H93500  11.549   9.336   2.652 -3.3279  1.6643  0.9281
  678MOL0     H93501  11.509   9.089   2.629  1.1957  0.3577 -0.2420
  678MOL0     H93502  11.505   9.110   2.456  1.5786  1.6597 -2.8824
  678MOL0     H93503  11.733   9.225   2.467  0.6470 -1.2727 -0.4688
  678MOL0     H93504  11.728   9.182   2.641 -2.1634  1.0563  0.3169
  678MOL0     H93505  11.767   9.008   2.391 -2.6102 -0.8721 -0.5228
  678MOL0     H93506  11.705   8.939   2.550  0.3259 -1.4284  0.2987
  678MOL0     H93507  11.911   8.973   2.656 -2.3463 -0.0981 -0.7841
  678MOL0     H93508  11.973   8.928   2.500  0.6568  1.0851 -0.3443
  678MOL0     H93509  11.944   9.222   2.585  0.3201  0.5553 -2.3222
  678MOL0     H93510  12.023   9.164   2.443 -0.0492 -1.7790 -0.7658
  678MOL0     H93511  12.139   9.147   2.730  5.1775 -0.3080  0.9401
  678MOL0     H93512  12.157   9.002   2.641  0.2507  0.3712  2.1422
  678MOL0     H93513  12.192   9.387   2.544  1.2510  2.3018 -1.3967
  678MOL0     H93514  12.544   9.423   2.430 -1.7010  1.2450  2.7745
  678MOL0     H93515  12.392   9.509   2.395 -1.3490  0.5149 -0.1484
  678MOL0     H93516  12.325   9.369   2.204  0.6055 -2.9236 -1.5618
  678MOL0     H93517  12.454   9.476   2.171  0.0758 -1.0574 -1.3176
  678MOL0     H93518  12.468   9.181   2.194  1.7592 -0.0333  0.9685
  678MOL0     H93519  12.518   9.275   2.051  1.2446  0.8878 -0.5212
  678MOL0     H93520  12.651   9.237   2.311  0.5813  1.7262 -0.2542
  678MOL0     H93521  12.690   9.158   2.158  0.1039 -1.1417  1.9962
  678MOL0     H93522  12.960   9.261   2.069 -0.2128 -1.0961  0.1596
  678MOL0     H93523  13.188   9.231   2.057  0.4199  2.3688 -0.6776
  678MOL0     H93524  13.235   9.131   2.191  1.3839  0.7340  2.6502
  678MOL0     H93525  13.300   9.304   2.182 -0.7637 -0.8274 -0.5775
  678MOL0     H93526  13.260   9.151   2.778  0.1660  0.1244 -0.6529
  678MOL0     H93527  13.481   9.136   2.904  0.9876  1.2318  0.4894
  678MOL0     H93528  13.623   9.237   3.045 -3.5220  0.0877 -4.4477
  678MOL0     H93529  13.730   9.129   2.958 -0.8953  0.1281 -0.3158
  678MOL0     H93530  13.921   9.295   3.002 -1.6154 -2.1287 -2.1884
  678MOL0     H93531  13.795   9.407   3.080 -0.8010 -0.1315  0.3965
  678MOL0     H93532  13.780   9.248   3.266  0.8761  0.2950  0.9142
  678MOL0     H93533  13.925   9.325   3.249 -0.8685  0.6760  0.6680
  678MOL0     H93534  14.036   9.136   3.152 -0.5493  1.9633 -0.9029
  678MOL0     H93535  13.883   9.050   3.112 -1.0168 -0.8355  2.1099
  678MOL0     H93536  13.996   9.065   3.397 -3.6013 -0.8163  2.7116
  678MOL0     H93537  13.831   9.044   3.355 -0.2977  2.5891 -0.0981
  678MOL0     H93538  14.058   8.872   3.261 -0.8130  2.2778 -3.0232
  678MOL0     H93539  13.878   8.836   3.243  0.0206  0.7226 -1.0060
  678MOL0     H93540  14.044   8.867   3.506 -0.5345 -0.5730 -0.5056
  678MOL0     H93541  14.012   8.714   3.446  0.8958 -0.7984  1.0075
  678MOL0     H93542  13.771   8.899   3.509  1.1831  1.0830 -1.7253
  678MOL0     H93543  13.850   8.779   3.624  3.3243 -1.0243 -0.2465
  678MOL0     H93544  13.639   9.460   2.668 -0.4005  0.4657  1.3463
  678MOL0     H93545  13.422   9.492   2.555  1.0918  0.0822 -1.3690
  678MOL0     H93546  12.999   9.406   2.547  1.4900  0.7210  0.1154
  678MOL0     H93547  12.792   9.445   2.424  0.1085  0.5397 -0.8158
  678MOL0     H93548  11.148   9.098   2.359  0.0420 -0.0807  0.1795
  678MOL0     H93549  10.914   9.045   2.389 -2.4259  0.2750  1.2824
  678MOL0     H93550  10.528   9.189   2.403  0.3923  4.6377 -0.9886
  678MOL0     H93551  10.266   9.194   2.387  0.3333  2.8056 -0.0695
  678MOL0     H93552  10.053   9.309   2.429 -1.3410 -0.7363 -2.2871
  678MOL0     H93553  10.066   9.140   2.388 -0.4199  1.4399 -1.7900
  678MOL0     H93554   9.831   9.270   2.429 -0.2906  0.2564  0.7992
  678MOL0     H93555   9.867   9.238   2.592  1.4272  2.2560 -0.3668
  678MOL0     H93556   9.852   9.026   2.366 -4.3699 -1.9058 -0.0003
  678MOL0     H93557   9.922   8.994   2.522  2.5880  0.9226 -2.0590
  678MOL0     H93558   9.713   9.077   2.621  0.0687  0.0512 -0.6849
  678MOL0     H93559   9.695   8.925   2.525  0.1044 -0.4623  0.5694
  678MOL0     H93560   9.409   9.154   2.325  0.0751  3.0666  1.4299
  678MOL0     H93561  10.232   9.216   2.780  0.6088  1.3336 -0.3091
  678MOL0     H93562  10.528   9.120   2.896 -1.7442 -0.9047 -2.4888
  678MOL0     H93563  10.553   9.299   2.882  0.4720  0.4010  0.0738
  678MOL0     H93564  10.395   9.234   2.940  0.1087  0.2512 -1.0244
  679MOL0     O93565   4.280   5.620   2.275  0.3745 -0.9961  0.0727
  679MOL0     C93566   4.209   5.698   2.341 -0.3490 -0.4165  0.3394
  679MOL0     O93567   4.248   5.766   2.450 -0.7246 -0.2394  0.4518
  679MOL0     C93568   4.374   5.744   2.504 -0.0578  0.2678 -1.2879
  679MOL0     C93569   4.416   5.858   2.570 -0.0980 -0.3526  0.3746
  679MOL0     C93570   4.543   5.864   2.636  0.2240  0.1455 -0.5641
  679MOL0     C93571   4.620   5.744   2.634 -0.1550  0.7329 -0.3091
  679MOL0     O93572   4.733   5.753   2.709 -0.8302 -0.1892  0.2047
  679MOL0     C93573   4.861   5.703   2.653 -0.5488  0.1004  0.5349
  679MOL0     C93574   4.973   5.780   2.727  0.1319 -0.7103  0.0802
  679MOL0     C93575   5.113   5.714   2.709  0.0165  0.4513 -0.2599
  679MOL0     C93576   5.220   5.817   2.758 -0.0875 -0.2306  0.7376
  679MOL0     C93577   5.353   5.741   2.783 -0.2590  0.5200 -0.8925
  679MOL0     C93578   5.410   5.700   2.643 -0.0968  0.3339 -0.4440
  679MOL0     C93579   5.556   5.648   2.665 -0.1633 -0.2424 -0.3036
  679MOL0     C93580   5.623   5.590   2.540 -0.9029 -0.0312 -0.6972
  679MOL0     N93581   5.686   5.686   2.442  0.0436 -0.4396 -0.5687
  679MOL0     C93582   5.623   5.785   2.373  0.9478 -0.5032  0.3917
  679MOL0     C93583   5.696   5.826   2.278  0.1884 -0.5818 -1.0370
  679MOL0     C93584   5.661   5.928   2.171  0.5031 -0.9315 -0.8924
  679MOL0     C93585   5.564   5.876   2.065 -0.0091  0.4859 -0.3983
  679MOL0     C93586   5.652   5.807   1.956  0.5568 -0.7575 -0.3945
  679MOL0     C93587   5.563   5.769   1.830 -0.7054 -0.1001 -0.0320
  679MOL0     O93588   5.487   5.877   1.778  0.3308 -0.0618 -0.1183
  679MOL0     C93589   5.358   5.883   1.816 -0.0939  0.7398  0.7223
  679MOL0     C93590   5.285   5.786   1.884 -0.0403 -0.0478 -1.5693
  679MOL0     C93591   5.140   5.795   1.894  0.1883  0.0456 -0.3137
  679MOL0     C93592   5.075   5.677   1.952 -0.1562  0.4900  0.3936
  679MOL0     C93593   5.077   5.906   1.845 -0.2313 -0.0050 -0.2035
  679MOL0     C93594   4.930   5.916   1.852  0.2271  0.2535  0.4540
  679MOL0     O93595   4.894   6.040   1.818  0.0224 -0.1367 -0.0261
  679MOL0     C93596   4.762   6.066   1.795  0.8722 -0.0422  0.2679
  679MOL0     C93597   4.666   5.998   1.711  0.9556  0.9330 -0.3574
  679MOL0     C93598   4.522   6.027   1.707 -0.8311  0.0031 -0.5077
  679MOL0     C93599   4.478   6.129   1.793  0.2158 -0.5428  1.3689
  679MOL0     O93600   4.352   6.181   1.757 -0.9655  0.3618  0.1107
  679MOL0     C93601   4.311   6.290   1.839 -0.5854 -0.4200  0.1068
  679MOL0     C93602   4.165   6.311   1.809  0.3006  1.5403  0.7014
  679MOL0     C93603   4.118   6.423   1.898  0.0807  0.8894  0.5128
  679MOL0     C93604   3.961   6.453   1.882 -0.4952  0.5934 -0.2319
  679MOL0     C93605   3.900   6.528   2.002  0.0087 -0.0122 -0.4073
  679MOL0     C93606   3.744   6.537   1.996  0.3735 -0.1008  1.1436
  679MOL0     C93607   3.679   6.620   1.893  0.3138 -0.1559 -0.2186
  679MOL0     C93608   3.532   6.583   1.890 -1.1278  0.0358 -0.2191
  679MOL0    Cl93609   3.444   6.632   2.036 -0.4054  0.3351 -0.0097
  679MOL0     C93610   4.575   6.197   1.872 -0.3275  0.2140  0.2869
  679MOL0     C93611   4.709   6.165   1.884  0.3147  0.2275  0.0069
  679MOL0     O93612   4.851   5.825   1.886  0.6606 -0.4715  0.6459
  679MOL0     C93613   5.153   6.007   1.789 -0.2656  0.6449 -0.0067
  679MOL0     C93614   5.288   5.987   1.762 -0.5768 -0.0588  0.0610
  679MOL0     N93615   5.818   5.760   2.291 -0.0032 -0.5351 -0.8329
  679MOL0     N93616   5.805   5.673   2.384  0.1841 -1.4815  0.8295
  679MOL0     C93617   4.570   5.621   2.579  0.3557  0.8151  0.3398
  679MOL0     C93618   4.437   5.617   2.523  0.4877 -0.4159  0.1696
  679MOL0     C93619   4.069   5.721   2.292  0.3337 -0.2693  0.4282
  679MOL0     C93620   4.040   5.644   2.172 -0.6006 -0.0366  0.0744
  679MOL0     C93621   3.922   5.658   2.103 -1.0198 -0.7033  0.9469
  679MOL0     C93622   3.824   5.750   2.136  0.1295 -0.5689 -0.6193
  679MOL0     O93623   3.720   5.756   2.043 -0.4492  0.3085 -0.4975
  679MOL0     C93624   3.625   5.860   2.082  0.6612  0.1783  0.0269
  679MOL0     C93625   3.506   5.871   1.979 -0.3309  0.2500  0.2385
  679MOL0     C93626   3.403   5.978   2.025 -0.8573  0.6800 -0.8550
  679MOL0     C93627   3.280   5.994   1.943 -0.5083 -0.4812 -0.2456
  679MOL0     C93628   3.189   5.883   1.973 -0.5870 -0.0811 -0.2631
  679MOL0     C93629   3.121   5.781   2.009 -1.0318  0.2174  1.3224
  679MOL0     C93630   3.838   5.824   2.258 -0.3871 -0.2408  0.3429
  679MOL0     C93631   3.961   5.805   2.337 -1.0551 -0.3705  0.3128
  679MOL0     C93632   3.994   5.910   2.438 -0.6382  0.5882 -0.4585
  679MOL0     H93633   4.354   5.948   2.570 -0.6138 -0.6874  2.0172
  679MOL0     H93634   4.568   5.958   2.684 -2.3258 -0.5570  2.4320
  679MOL0     H93635   4.871   5.718   2.545  1.3441  2.5697  0.9517
  679MOL0     H93636   4.879   5.596   2.663  0.6039  0.4355  2.7050
  679MOL0     H93637   4.982   5.884   2.695 -0.6677 -1.3619 -2.4837
  679MOL0     H93638   4.950   5.790   2.833 -0.2030  2.1855 -0.1921
  679MOL0     H93639   5.122   5.624   2.770 -1.8410 -0.0979 -0.7406
  679MOL0     H93640   5.125   5.671   2.609 -3.2471 -1.2653 -0.0325
  679MOL0     H93641   5.235   5.895   2.683  0.5923  0.9679  2.0606
  679MOL0     H93642   5.193   5.869   2.851  0.7583 -1.6500  1.8111
  679MOL0     H93643   5.330   5.653   2.844 -1.6727 -1.1688 -3.6496
  679MOL0     H93644   5.424   5.802   2.839 -5.2714  3.4270  3.1387
  679MOL0     H93645   5.338   5.630   2.599  1.0168 -0.1483 -1.5843
  679MOL0     H93646   5.418   5.788   2.579  0.6202 -0.0962 -0.9667
  679MOL0     H93647   5.545   5.558   2.727 -3.1761 -3.0889 -4.4433
  679MOL0     H93648   5.607   5.732   2.713 -1.0735  0.0734  0.1265
  679MOL0     H93649   5.696   5.517   2.576  0.2339  1.9186  1.1541
  679MOL0     H93650   5.564   5.523   2.476  2.7248 -1.9559 -2.3447
  679MOL0     H93651   5.520   5.820   2.376  0.1234 -2.7222  0.1555
  679MOL0     H93652   5.754   5.962   2.126 -0.3851  1.9221 -0.7388
  679MOL0     H93653   5.610   6.006   2.227 -1.2589 -1.6048 -1.4576
  679MOL0     H93654   5.479   5.815   2.099 -1.3201 -0.4462 -4.7508
  679MOL0     H93655   5.522   5.965   2.016 -0.7328  0.5545  0.3171
  679MOL0     H93656   5.723   5.881   1.919 -1.0671  1.6558  0.9662
  679MOL0     H93657   5.703   5.719   1.995 -0.5735 -2.4226 -2.4853
  679MOL0     H93658   5.645   5.754   1.758  0.5885 -0.3480  1.4422
  679MOL0     H93659   5.510   5.674   1.835  3.4360 -2.9151 -2.3759
  679MOL0     H93660   5.329   5.699   1.931 -0.9748 -0.1771 -0.8865
  679MOL0     H93661   5.157   5.620   1.997  2.3765  1.6112 -2.4092
  679MOL0     H93662   5.025   5.627   1.868 -1.2111  0.8571  0.7865
  679MOL0     H93663   4.993   5.698   2.021 -1.2511 -0.3966 -0.6083
  679MOL0     H93664   4.696   5.907   1.660 -3.0399 -0.5601 -0.4115
  679MOL0     H93665   4.461   5.971   1.637  0.6365 -1.7179 -0.5005
  679MOL0     H93666   4.324   6.255   1.942 -1.5291  3.5039  1.7714
  679MOL0     H93667   4.374   6.377   1.819  1.1584 -1.8570 -0.8591
  679MOL0     H93668   4.153   6.331   1.702 -0.0371 -0.4196  0.3289
  679MOL0     H93669   4.117   6.220   1.846  0.6925  2.1588  2.8549
  679MOL0     H93670   4.178   6.513   1.881  1.1451  0.4956  1.9312
  679MOL0     H93671   4.138   6.383   1.998  0.2355 -0.7266 -0.1329
  679MOL0     H93672   3.906   6.362   1.856 -1.6006  1.4806 -1.1325
  679MOL0     H93673   3.946   6.498   1.783  1.5647 -1.7686 -1.7523
  679MOL0     H93674   3.933   6.475   2.092 -1.2496 -0.1971 -0.0322
  679MOL0     H93675   3.940   6.630   2.003  0.3811 -0.1265  1.7063
  679MOL0     H93676   3.726   6.572   2.099  0.0251 -0.9059  1.3658
  679MOL0     H93677   3.705   6.436   1.983 -2.4791  0.5925  3.1680
  679MOL0     H93678   3.719   6.603   1.793  0.4264 -1.5437  0.0466
  679MOL0     H93679   3.689   6.724   1.926  0.4487  0.4028 -1.9460
  679MOL0     H93680   3.522   6.474   1.889 -1.4901  0.0232  1.4676
  679MOL0     H93681   3.473   6.631   1.811  0.3279  3.0844  0.4163
  679MOL0     H93682   4.540   6.278   1.935 -3.9557 -0.4531 -0.6336
  679MOL0     H93683   4.768   6.216   1.960  2.5383 -1.4356 -0.4812
  679MOL0     H93684   5.110   6.099   1.750 -2.3842  0.3794  1.5249
  679MOL0     H93685   5.342   6.063   1.706 -0.1252  0.7201  1.4939
  679MOL0     H93686   4.611   5.521   2.591  2.6220  1.6276 -0.1554
  679MOL0     H93687   4.392   5.524   2.489  2.2010 -1.0138 -0.6019
  679MOL0     H93688   4.097   5.555   2.146 -0.8951 -1.3267  3.3978
  679MOL0     H93689   3.899   5.602   2.012 -1.0347  0.8345 -0.0354
  679MOL0     H93690   3.576   5.838   2.177 -1.0758 -1.3110 -1.1279
  679MOL0     H93691   3.672   5.958   2.086 -3.1751  2.4194 -2.6110
  679MOL0     H93692   3.447   5.779   1.977 -0.8890  0.5800  1.0838
  679MOL0     H93693   3.563   5.885   1.886  0.5266  0.3538  0.7648
  679MOL0     H93694   3.369   5.963   2.128 -2.2658 -0.8036 -1.4837
  679MOL0     H93695   3.461   6.071   2.023 -1.4260  1.0501 -2.9371
  679MOL0     H93696   3.292   6.003   1.835 -1.3404 -1.4304 -0.4372
  679MOL0     H93697   3.236   6.086   1.985 -1.1884 -1.1829  0.6328
  679MOL0     H93698   3.064   5.692   2.030  0.2806 -1.3775 -1.4461
  679MOL0     H93699   3.762   5.894   2.293 -0.5992 -1.8931  3.5150
  679MOL0     H93700   3.905   5.967   2.465 -1.7807 -0.8598 -0.9674
  679MOL0     H93701   4.042   5.857   2.521 -1.9188  1.0100  0.5837
  679MOL0     H93702   4.072   5.980   2.406 -1.3012  2.2340  1.3267
  680MOL0     O93703   5.298   4.722   5.435  0.2267  0.1257  0.1918
  680MOL0     C93704   5.247   4.761   5.539 -0.2854 -0.4132 -0.2241
  680MOL0     O93705   5.307   4.848   5.631  0.3136  0.0364  0.1613
  680MOL0     C93706   5.446   4.842   5.638  0.4004 -0.3430  0.3908
  680MOL0     C93707   5.515   4.746   5.707  0.3054  0.0758  0.3548
  680MOL0     C93708   5.647   4.754   5.742  0.3788 -0.6607  0.1716
  680MOL0     C93709   5.728   4.846   5.668  0.4428  0.0879 -0.7103
  680MOL0     O93710   5.860   4.854   5.682  0.5214  0.4850  0.3354
  680MOL0     C93711   5.902   4.940   5.790 -0.0374  0.0892 -0.4193
  680MOL0     C93712   6.050   4.930   5.793  0.0415 -0.3056  0.2158
  680MOL0     C93713   6.127   5.028   5.888 -0.1007  0.2890  0.5123
  680MOL0     C93714   6.112   4.996   6.040  0.5788  0.0704  0.1972
  680MOL0     C93715   6.015   5.072   6.125  0.2875 -0.4954  0.3480
  680MOL0     C93716   6.075   5.209   6.175 -0.2593 -0.4752 -0.1357
  680MOL0     C93717   6.156   5.175   6.294 -0.1483  0.3667 -0.1765
  680MOL0     C93718   6.224   5.298   6.346 -0.1454  0.1146 -0.1145
  680MOL0     N93719   6.310   5.288   6.461 -0.4034  0.0622 -0.0188
  680MOL0     C93720   6.272   5.276   6.595  1.1896 -0.2988  1.0792
  680MOL0     C93721   6.379   5.306   6.667 -0.0127 -0.4583  1.3241
  680MOL0     C93722   6.357   5.313   6.812  0.1826 -0.4975  0.5840
  680MOL0     C93723   6.463   5.355   6.900 -0.1163  0.0569 -0.0934
  680MOL0     C93724   6.543   5.488   6.867 -0.3796  0.0468  0.2033
  680MOL0     C93725   6.614   5.553   6.984  0.5105 -0.1393 -0.5030
  680MOL0     O93726   6.699   5.459   7.050 -0.1821 -0.1650 -0.1461
  680MOL0     C93727   6.808   5.505   7.127 -0.0298  0.0344 -0.7501
  680MOL0     C93728   6.826   5.640   7.163 -0.3699 -0.4159 -0.2282
  680MOL0     C93729   6.935   5.690   7.227  0.2357 -0.2332  0.5498
  680MOL0     C93730   6.939   5.840   7.262 -0.4267 -0.4282 -0.2830
  680MOL0     C93731   7.035   5.601   7.256 -0.6172 -0.9274 -0.3578
  680MOL0     C93732   7.163   5.663   7.312  0.5919  0.6387 -0.2676
  680MOL0     O93733   7.183   5.660   7.454 -0.9711  0.8071  0.6738
  680MOL0     C93734   7.283   5.729   7.524  0.8013  1.1310  0.2304
  680MOL0     C93735   7.401   5.779   7.474 -0.0690  0.8317  0.2505
  680MOL0     C93736   7.479   5.859   7.544 -0.6165  1.0163  0.5027
  680MOL0     C93737   7.457   5.890   7.682  0.0056 -0.3964  0.1268
  680MOL0     O93738   7.523   5.992   7.748 -0.0068  0.9308 -0.1922
  680MOL0     C93739   7.615   6.070   7.668  0.3656  0.5864 -0.0190
  680MOL0     C93740   7.683   6.180   7.748 -0.2194  0.8642  0.0211
  680MOL0     C93741   7.713   6.297   7.657 -0.0919 -0.6110 -0.0580
  680MOL0     C93742   7.786   6.404   7.731  0.4119 -0.3378 -0.3311
  680MOL0     C93743   7.845   6.517   7.634  0.0613 -0.1357 -0.8466
  680MOL0     C93744   7.912   6.616   7.725 -0.1813 -1.1960 -0.8486
  680MOL0     C93745   7.939   6.757   7.654  0.4425  0.3452  0.0781
  680MOL0     C93746   7.993   6.863   7.757 -0.7778  0.3214 -0.5816
  680MOL0    Cl93747   8.017   7.023   7.670  0.3812  0.0303 -0.1747
  680MOL0     C93748   7.337   5.830   7.739 -0.3944  0.3512 -0.2081
  680MOL0     C93749   7.254   5.743   7.659 -0.2359 -0.8108 -0.0018
  680MOL0     O93750   7.230   5.731   7.232 -0.5903 -0.2319  0.0484
  680MOL0     C93751   7.028   5.466   7.235  0.1151  0.5176  0.6029
  680MOL0     C93752   6.910   5.417   7.173  0.3560 -0.5778 -0.0311
  680MOL0     N93753   6.482   5.331   6.582 -0.1370 -1.2035 -0.1241
  680MOL0     N93754   6.439   5.314   6.460  0.2101 -0.2783  0.3084
  680MOL0     C93755   5.668   4.935   5.588  0.5189  0.0476  0.7394
  680MOL0     C93756   5.525   4.941   5.574 -0.6210  0.4397  0.0880
  680MOL0     C93757   5.110   4.713   5.572 -0.1749 -0.0014 -0.0076
  680MOL0     C93758   5.022   4.677   5.465 -0.7578 -0.6975 -1.1126
  680MOL0     C93759   4.887   4.655   5.482 -0.4209 -0.1468 -0.0143
  680MOL0     C93760   4.847   4.628   5.614  0.8697  0.5788 -0.1474
  680MOL0     O93761   4.722   4.586   5.643 -0.2728 -0.1943 -0.2380
  680MOL0     C93762   4.614   4.602   5.550  1.0508  0.4604  0.1577
  680MOL0     C93763   4.479   4.562   5.630 -0.5470 -0.3368  0.0792
  680MOL0     C93764   4.447   4.646   5.748  0.9905 -0.0757  0.1016
  680MOL0     C93765   4.317   4.603   5.829 -0.1353  0.5723 -0.0301
  680MOL0     C93766   4.205   4.619   5.742 -0.6619 -0.3431 -0.5897
  680MOL0     C93767   4.106   4.636   5.670 -0.3677  0.8331 -0.3233
  680MOL0     C93768   4.930   4.654   5.722  0.1841  0.0026  0.7252
  680MOL0     C93769   5.062   4.697   5.700 -0.5186 -0.0339 -0.1250
  680MOL0     C93770   5.144   4.705   5.825 -0.7094 -0.3643 -0.3112
  680MOL0     H93771   5.446   4.671   5.746 -1.3952 -0.9130 -3.9238
  680MOL0     H93772   5.693   4.678   5.805  0.4918 -1.1843 -0.5193
  680MOL0     H93773   5.866   4.889   5.880  0.9693 -2.6132 -1.4512
  680MOL0     H93774   5.866   5.042   5.772 -1.0817 -0.3524 -0.9401
  680MOL0     H93775   6.083   4.827   5.807  2.1291  0.6185  3.2621
  680MOL0     H93776   6.096   4.968   5.701  2.3048 -0.8509  1.0598
  680MOL0     H93777   6.232   5.006   5.865  0.3325  3.2122 -0.8586
  680MOL0     H93778   6.113   5.135   5.869  0.9576  0.4978  0.8788
  680MOL0     H93779   6.088   4.889   6.039  0.3001  0.0958  1.8370
  680MOL0     H93780   6.214   5.004   6.080  0.2823  1.3850  0.7364
  680MOL0     H93781   5.975   5.014   6.209  1.0323 -1.0866  0.2966
  680MOL0     H93782   5.933   5.101   6.058 -0.8296  0.0031  1.8820
  680MOL0     H93783   6.146   5.245   6.101  1.3331  1.0697  2.0028
  680MOL0     H93784   5.996   5.283   6.194 -0.7219 -0.8455 -0.5864
  680MOL0     H93785   6.230   5.100   6.265  0.5206 -0.2736  2.8429
  680MOL0     H93786   6.091   5.137   6.373  0.7419 -0.6000  0.1067
  680MOL0     H93787   6.285   5.347   6.269  0.6192  3.2099  2.2536
  680MOL0     H93788   6.139   5.366   6.361  0.1281  0.3627  0.3248
  680MOL0     H93789   6.169   5.252   6.619  0.8402 -0.5381 -0.5214
  680MOL0     H93790   6.306   5.222   6.846 -1.1859  0.2474  0.5870
  680MOL0     H93791   6.270   5.377   6.829  1.6210  1.6042  0.3498
  680MOL0     H93792   6.423   5.373   7.001  0.8005  1.1338  0.0955
  680MOL0     H93793   6.531   5.269   6.903  3.2490  2.3734 -2.3973
  680MOL0     H93794   6.619   5.463   6.792 -2.3562  0.4366 -2.0261
  680MOL0     H93795   6.480   5.562   6.817  0.4205  0.2315 -0.5599
  680MOL0     H93796   6.660   5.633   6.926 -0.9789 -0.5994 -2.4099
  680MOL0     H93797   6.540   5.589   7.056  2.9820 -0.3836  2.3646
  680MOL0     H93798   6.763   5.719   7.123  0.7187  1.8724  2.3271
  680MOL0     H93799   6.896   5.857   7.361 -1.9546 -0.3248 -0.9188
  680MOL0     H93800   6.888   5.904   7.189 -1.3204 -1.7188 -0.8248
  680MOL0     H93801   7.039   5.878   7.242  0.4126 -2.5051 -0.2736
  680MOL0     H93802   7.436   5.768   7.372 -2.5047  1.7333 -0.7445
  680MOL0     H93803   7.565   5.904   7.494 -0.2963 -1.0430 -0.8918
  680MOL0     H93804   7.695   6.015   7.618  1.2967  1.0888  0.8755
  680MOL0     H93805   7.557   6.122   7.591  0.5019 -1.4265 -1.5462
  680MOL0     H93806   7.621   6.224   7.827 -0.3879  1.0361 -0.2077
  680MOL0     H93807   7.774   6.130   7.784 -1.2422 -0.2062  1.1990
  680MOL0     H93808   7.622   6.328   7.604 -0.7684 -2.3126  0.0442
  680MOL0     H93809   7.785   6.263   7.581  2.4658  1.5239  1.2478
  680MOL0     H93810   7.866   6.358   7.790  0.3979 -1.3283 -1.0690
  680MOL0     H93811   7.716   6.463   7.791 -0.5082  0.3715 -2.0480
  680MOL0     H93812   7.924   6.498   7.561  0.0715 -2.9930 -0.1694
  680MOL0     H93813   7.757   6.556   7.581  1.3124  2.3422 -1.2742
  680MOL0     H93814   8.011   6.585   7.761 -0.7489 -2.8966 -0.6557
  680MOL0     H93815   7.848   6.639   7.811 -1.0729 -0.3951 -1.7167
  680MOL0     H93816   7.846   6.797   7.611 -0.8580 -2.8155 -0.2902
  680MOL0     H93817   8.010   6.738   7.573  0.5411  1.1635 -0.0431
  680MOL0     H93818   8.089   6.830   7.796 -2.2183 -1.6949  1.4872
  680MOL0     H93819   7.923   6.881   7.839  1.2741  0.8816  1.1320
  680MOL0     H93820   7.304   5.869   7.835 -2.6446  1.6379 -1.4167
  680MOL0     H93821   7.157   5.711   7.693 -0.1017 -0.5935  0.5922
  680MOL0     H93822   7.102   5.389   7.255 -1.6676 -1.5320 -0.2610
  680MOL0     H93823   6.885   5.313   7.154 -0.3380 -0.7292  1.6346
  680MOL0     H93824   5.738   5.003   5.539 -0.8635  0.2535 -1.0682
  680MOL0     H93825   5.471   5.019   5.522 -1.9433 -0.6395 -0.2117
  680MOL0     H93826   5.067   4.688   5.367  1.8475  1.6036  0.1959
  680MOL0     H93827   4.834   4.622   5.394  0.7850  0.3384 -0.9419
  680MOL0     H93828   4.608   4.707   5.519  1.5795  0.5147  0.2388
  680MOL0     H93829   4.635   4.540   5.462  1.2870  0.9652 -0.1479
  680MOL0     H93830   4.488   4.457   5.661 -1.8089 -0.4603  0.0543
  680MOL0     H93831   4.392   4.571   5.565 -0.5522  4.0006  0.4470
  680MOL0     H93832   4.538   4.645   5.809 -1.2829  1.8121  3.9033
  680MOL0     H93833   4.437   4.749   5.713  2.3294 -0.9387 -3.2863
  680MOL0     H93834   4.312   4.664   5.920  4.7114  0.3205  0.6797
  680MOL0     H93835   4.326   4.497   5.857  1.7074  0.9323  0.9355
  680MOL0     H93836   4.016   4.640   5.612 -0.5850 -5.0879 -1.0192
  680MOL0     H93837   4.879   4.636   5.816 -1.2302 -0.9231 -0.1719
  680MOL0     H93838   5.185   4.806   5.821  2.9252 -1.7017 -1.0162
  680MOL0     H93839   5.084   4.691   5.915 -0.2474  1.2634  0.2931
  680MOL0     H93840   5.226   4.633   5.829 -0.2888 -0.0221 -1.9584
  681MOL0     O93841   7.769   9.261   4.274 -0.1661  0.7009  0.3973
  681MOL0     C93842   7.732   9.324   4.373 -1.1473  0.3710 -0.1323
  681MOL0     O93843   7.826   9.394   4.448  0.2314 -0.1852 -0.5433
  681MOL0     C93844   7.958   9.392   4.409 -1.3662  0.1978  0.1650
  681MOL0     C93845   7.992   9.428   4.277 -0.0853 -0.6624  0.2511
  681MOL0     C93846   8.120   9.417   4.231  0.2913  0.2587  0.1803
  681MOL0     C93847   8.222   9.355   4.313  0.2352  0.3833 -0.7707
  681MOL0     O93848   8.352   9.330   4.281 -0.3252 -0.0663  0.9685
  681MOL0     C93849   8.396   9.373   4.149  0.0015  0.1417 -0.7997
  681MOL0     C93850   8.544   9.347   4.149  0.0633 -0.0577 -0.1991
  681MOL0     C93851   8.607   9.408   4.023  0.3977 -0.4781 -0.0050
  681MOL0     C93852   8.757   9.393   4.033  0.0939 -0.0311 -0.5180
  681MOL0     C93853   8.830   9.430   3.907 -0.0793  0.4589  0.4175
  681MOL0     C93854   8.857   9.582   3.905 -0.5497 -0.0127  0.0370
  681MOL0     C93855   8.934   9.637   4.036  0.5746  0.0555  0.3157
  681MOL0     C93856   8.998   9.777   4.026 -0.7330  0.6367  0.7597
  681MOL0     N93857   9.044   9.806   3.896 -0.6454  0.4453  0.5462
  681MOL0     C93858   8.961   9.864   3.801 -0.3049  0.5738  0.1462
  681MOL0     C93859   9.051   9.892   3.697 -1.2018 -0.7565 -0.8090
  681MOL0     C93860   9.015   9.988   3.579 -0.2848  0.5640  0.0814
  681MOL0     C93861   9.106   9.971   3.449 -0.3642  0.0233 -0.1327
  681MOL0     C93862   9.207  10.091   3.436 -0.2795 -0.0514 -0.3611
  681MOL0     C93863   9.302  10.096   3.551  0.0604  1.0563 -1.4766
  681MOL0     O93864   9.400  10.185   3.519 -0.8096  0.1822  0.0075
  681MOL0     C93865   9.521  10.189   3.594 -0.0094 -0.7292 -0.3038
  681MOL0     C93866   9.548  10.108   3.703  0.4760  0.2499  0.3922
  681MOL0     C93867   9.673  10.106   3.762  0.8682 -0.4409  0.0888
  681MOL0     C93868   9.696   9.989   3.853  0.8724  0.1846  0.3484
  681MOL0     C93869   9.771  10.200   3.724  0.6221 -0.4448 -0.4854
  681MOL0     C93870   9.897  10.216   3.802 -0.3382 -0.3219 -0.1672
  681MOL0     O93871   9.896  10.185   3.933  0.7363 -0.1874 -0.5307
  681MOL0     C93872  10.013  10.201   4.011  0.5196  0.3145 -0.6957
  681MOL0     C93873  10.055  10.085   4.088  0.3477 -0.5745 -0.6648
  681MOL0     C93874  10.165  10.091   4.176  0.8248 -0.5992 -0.1023
  681MOL0     C93875  10.245  10.205   4.196 -0.5744  0.4069  0.2634
  681MOL0     O93876  10.352  10.194   4.277 -0.6416 -0.4050 -1.0126
  681MOL0     C93877  10.445  10.305   4.281  0.4525 -0.0702  0.1831
  681MOL0     C93878  10.574  10.292   4.360 -0.0894  0.5896 -1.0595
  681MOL0     C93879  10.679  10.224   4.267  0.7799 -0.0141 -0.5421
  681MOL0     C93880  10.779  10.135   4.349 -0.5583  0.9210  1.3680
  681MOL0     C93881  10.885  10.205   4.432  0.4689 -0.6466 -0.2797
  681MOL0     C93882  10.963  10.108   4.523 -0.0625 -0.3786 -0.2127
  681MOL0     C93883  11.077  10.172   4.609 -0.1562  0.1312  0.4851
  681MOL0     C93884  11.019  10.254   4.723 -0.5191 -0.6082  0.2441
  681MOL0    Cl93885  10.942  10.154   4.860 -0.7172  0.0270  0.0683
  681MOL0     C93886  10.193  10.323   4.130 -0.0277 -0.1365  0.7580
  681MOL0     C93887  10.084  10.323   4.035  0.0160  0.5440  0.5068
  681MOL0     O93888   9.999  10.260   3.749  0.0937 -0.1650 -0.0823
  681MOL0     C93889   9.749  10.279   3.615 -0.3389  0.2680 -0.0752
  681MOL0     C93890   9.625  10.278   3.545 -0.1750  0.2015  0.5535
  681MOL0     N93891   9.177   9.858   3.736  0.4859 -0.2827 -0.4341
  681MOL0     N93892   9.173   9.811   3.855  0.7990 -0.9302  0.3020
  681MOL0     C93893   8.189   9.329   4.444 -0.9836 -0.2170  0.4219
  681MOL0     C93894   8.061   9.341   4.489  0.0396  0.2650  0.5371
  681MOL0     C93895   7.591   9.341   4.394 -0.5012 -0.4334 -0.6518
  681MOL0     C93896   7.541   9.451   4.472 -1.0202 -0.6089  0.1362
  681MOL0     C93897   7.406   9.460   4.492  0.1330 -0.8129  0.6565
  681MOL0     C93898   7.314   9.357   4.458 -0.6349 -0.7791  0.3973
  681MOL0     O93899   7.186   9.361   4.507  0.0434 -0.4544 -0.1126
  681MOL0     C93900   7.131   9.237   4.547 -0.4508  0.4892 -0.0366
  681MOL0     C93901   6.990   9.264   4.594 -0.5605 -0.3244 -0.2413
  681MOL0     C93902   6.899   9.326   4.486  0.2006  0.5426  0.3223
  681MOL0     C93903   6.755   9.331   4.518 -0.1117  0.7916  0.4076
  681MOL0     C93904   6.707   9.199   4.504  0.1403  0.5335  0.4027
  681MOL0     C93905   6.655   9.089   4.501  0.5182  0.3766  0.1771
  681MOL0     C93906   7.361   9.252   4.381  0.8957  0.3523 -0.5378
  681MOL0     C93907   7.501   9.238   4.350 -0.3792 -0.5118 -0.1587
  681MOL0     C93908   7.539   9.106   4.274  0.3541  0.1407  0.6596
  681MOL0     H93909   7.916   9.480   4.219  1.2116  2.2404  0.9496
  681MOL0     H93910   8.136   9.441   4.127 -0.5151 -2.4266 -0.6605
  681MOL0     H93911   8.387   9.481   4.136 -1.4245  0.2830  0.9041
  681MOL0     H93912   8.339   9.329   4.067 -0.4296  0.6784 -0.7948
  681MOL0     H93913   8.583   9.399   4.238 -1.2157  1.7067 -0.6200
  681MOL0     H93914   8.559   9.239   4.157 -1.1306 -0.1829  0.4880
  681MOL0     H93915   8.562   9.357   3.938 -1.9722 -1.7921  1.9054
  681MOL0     H93916   8.594   9.516   4.013 -1.5398 -0.6724  0.0976
  681MOL0     H93917   8.801   9.444   4.120  1.1147  0.4509 -1.2898
  681MOL0     H93918   8.785   9.290   4.059 -0.0550 -1.0999 -4.1212
  681MOL0     H93919   8.770   9.391   3.824  2.5247 -1.6333 -0.6435
  681MOL0     H93920   8.919   9.366   3.916 -0.5711  0.0872  5.4891
  681MOL0     H93921   8.900   9.603   3.806 -0.0494 -1.7091 -0.1311
  681MOL0     H93922   8.764   9.638   3.900 -0.9997 -0.6089  1.3294
  681MOL0     H93923   9.016   9.570   4.062  2.2869  2.2291  0.7867
  681MOL0     H93924   8.855   9.646   4.111 -0.5148  0.6632 -0.8667
  681MOL0     H93925   8.924   9.854   4.050 -1.4253  0.8523 -1.7991
  681MOL0     H93926   9.079   9.775   4.099  0.4269 -2.9265 -0.4120
  681MOL0     H93927   8.858   9.899   3.801 -0.4183  0.2568  0.7665
  681MOL0     H93928   9.022  10.088   3.620  2.0135  0.1603  0.7952
  681MOL0     H93929   8.912   9.971   3.546  0.5944 -2.6845 -1.4368
  681MOL0     H93930   9.164   9.878   3.459  4.1435  2.4813 -0.6074
  681MOL0     H93931   9.037   9.964   3.365 -1.4021 -2.3372  0.8179
  681MOL0     H93932   9.256  10.073   3.340 -1.8328 -1.1232 -0.9832
  681MOL0     H93933   9.148  10.183   3.439 -0.0982  0.1389 -2.0191
  681MOL0     H93934   9.247  10.105   3.645  1.1763 -1.8876 -0.4403
  681MOL0     H93935   9.345   9.996   3.552 -0.2576  0.9185 -1.5102
  681MOL0     H93936   9.477  10.036   3.742 -0.3521 -0.0138 -1.5310
  681MOL0     H93937   9.684  10.011   3.960 -0.8220 -1.6715  0.5914
  681MOL0     H93938   9.797   9.954   3.831  0.4510 -1.6020  1.0908
  681MOL0     H93939   9.628   9.906   3.831  1.2831 -0.1872  0.4779
  681MOL0     H93940  10.018   9.984   4.074 -1.1889 -0.1444 -0.0164
  681MOL0     H93941  10.176  10.004   4.240 -0.6435 -1.7406 -1.3289
  681MOL0     H93942  10.451  10.341   4.179 -0.1740  3.3323  1.2325
  681MOL0     H93943  10.392  10.381   4.339  1.5043 -0.1533  1.3117
  681MOL0     H93944  10.606  10.391   4.393 -0.0281  0.3069 -0.2602
  681MOL0     H93945  10.547  10.221   4.438  0.8612 -1.0362 -2.1514
  681MOL0     H93946  10.733  10.303   4.213 -0.5477  1.2289 -0.1212
  681MOL0     H93947  10.629  10.166   4.190  0.2413 -0.7455  0.3378
  681MOL0     H93948  10.830  10.075   4.273 -0.4643  1.6576  0.8406
  681MOL0     H93949  10.717  10.058   4.396 -2.2683  1.1869 -0.3286
  681MOL0     H93950  10.952  10.258   4.363 -0.1539  0.9780  0.3261
  681MOL0     H93951  10.835  10.281   4.491  2.6626  0.9165 -0.3111
  681MOL0     H93952  11.006  10.048   4.443 -1.3839 -0.3474 -0.9676
  681MOL0     H93953  10.898  10.039   4.579  0.0932 -0.7241 -0.4550
  681MOL0     H93954  11.143  10.230   4.545  0.2823  0.7121  1.4427
  681MOL0     H93955  11.145  10.099   4.654  1.7054  1.3449 -0.2354
  681MOL0     H93956  10.953  10.335   4.690  2.1882  1.7623  0.2725
  681MOL0     H93957  11.108  10.311   4.750  0.9274 -2.0254 -1.2771
  681MOL0     H93958  10.237  10.420   4.148 -0.2083 -0.1377  1.2006
  681MOL0     H93959  10.053  10.419   3.994 -0.4139  0.4744  0.6605
  681MOL0     H93960   9.814  10.360   3.586  3.6003 -1.5878  2.6280
  681MOL0     H93961   9.603  10.338   3.457 -2.1915  1.3755  1.7657
  681MOL0     H93962   8.275   9.304   4.506 -0.3243 -2.7309 -1.3304
  681MOL0     H93963   8.071   9.323   4.596 -3.0886  1.8429  1.2008
  681MOL0     H93964   7.614   9.526   4.503  2.0687 -3.1116 -0.5541
  681MOL0     H93965   7.376   9.547   4.550 -0.4942  1.9334 -3.3896
  681MOL0     H93966   7.120   9.179   4.455 -1.3575  1.9007 -0.8567
  681MOL0     H93967   7.192   9.183   4.620  1.5059  1.6942 -0.6715
  681MOL0     H93968   7.002   9.335   4.676 -0.3944  3.4782 -3.2908
  681MOL0     H93969   6.951   9.170   4.635 -0.3388  0.1314  1.0572
  681MOL0     H93970   6.927   9.427   4.455 -1.8437  0.8561 -0.6469
  681MOL0     H93971   6.907   9.257   4.402 -0.1790 -1.1923  1.6522
  681MOL0     H93972   6.705   9.406   4.456  2.7514  5.1872  2.8692
  681MOL0     H93973   6.735   9.361   4.622 -2.2861  0.1107  0.2361
  681MOL0     H93974   6.589   9.005   4.497 -1.2494  1.7045 -0.0933
  681MOL0     H93975   7.289   9.174   4.360 -1.4043  1.4465  2.4691
  681MOL0     H93976   7.573   9.127   4.172 -3.6134 -2.0299 -1.3481
  681MOL0     H93977   7.626   9.065   4.326 -0.9456 -0.8629  2.1058
  681MOL0     H93978   7.454   9.038   4.269  1.7818 -1.6661 -1.1490
  682MOL0     O93979   2.353  10.632   2.657 -0.4412  0.0235  0.0015
  682MOL0     C93980   2.283  10.537   2.704  0.2751 -0.9218 -0.1910
  682MOL0     O93981   2.241  10.431   2.633 -0.7074  0.1834 -0.3316
  682MOL0     C93982   2.315  10.398   2.530 -0.4239  0.6568  1.6370
  682MOL0     C93983   2.253  10.328   2.423 -0.5297 -1.1073 -0.4943
  682MOL0     C93984   2.331  10.271   2.325 -0.0267  0.0222 -0.1793
  682MOL0     C93985   2.465  10.290   2.299  0.4275 -0.4470 -0.6464
  682MOL0     O93986   2.524  10.242   2.185 -0.1199 -0.2583 -0.2663
  682MOL0     C93987   2.649  10.300   2.135  0.4928  0.1889  0.2439
  682MOL0     C93988   2.699  10.215   2.009 -0.3493  0.0660  0.1328
  682MOL0     C93989   2.826  10.270   1.935  0.3363  0.4572  0.1599
  682MOL0     C93990   2.949  10.253   2.024 -0.2825 -0.8646  1.0847
  682MOL0     C93991   3.062  10.331   1.949  0.0623  0.3378 -0.6988
  682MOL0     C93992   3.195  10.337   2.026  0.0045  0.5817  0.6904
  682MOL0     C93993   3.317  10.368   1.940  0.0711 -0.1569  0.6213
  682MOL0     C93994   3.440  10.362   2.026 -0.3372 -0.0105  0.1300
  682MOL0     N93995   3.562  10.331   1.963  0.3988 -0.0627  0.7615
  682MOL0     C93996   3.660  10.417   1.927  0.0347 -0.2732  0.8645
  682MOL0     C93997   3.773  10.345   1.891 -1.4899 -0.6604 -0.2068
  682MOL0     C93998   3.900  10.409   1.837 -0.1771  0.2477 -0.6314
  682MOL0     C93999   4.019  10.311   1.801 -0.2461  0.0193  0.5583
  682MOL0     C94000   4.118  10.371   1.702  0.0557  0.6230 -0.1925
  682MOL0     C94001   4.239  10.285   1.658 -0.0949 -0.9353 -0.0186
  682MOL0     O94002   4.323  10.289   1.771 -0.6810  0.2040 -0.3373
  682MOL0     C94003   4.458  10.264   1.740 -0.1069 -0.0651 -0.8130
  682MOL0     C94004   4.545  10.293   1.849  0.0401 -0.1862 -0.1285
  682MOL0     C94005   4.683  10.261   1.842  0.1379 -0.4656  0.0599
  682MOL0     C94006   4.767  10.323   1.958  0.0183 -0.2095  0.0163
  682MOL0     C94007   4.727  10.195   1.724 -0.0230 -0.8512 -0.4293
  682MOL0     C94008   4.869  10.159   1.711 -0.3666 -0.0280  0.2101
  682MOL0     O94009   4.958  10.225   1.792  0.1232  0.3812  0.8208
  682MOL0     C94010   5.092  10.199   1.779  0.4764 -0.0793 -0.0357
  682MOL0     C94011   5.163  10.238   1.898 -0.7445 -0.0481 -0.5185
  682MOL0     C94012   5.303  10.233   1.901  0.3630  0.0288  0.2403
  682MOL0     C94013   5.369  10.191   1.787 -0.3648  0.7927  0.4251
  682MOL0     O94014   5.507  10.185   1.769  0.6052 -0.1141  0.5965
  682MOL0     C94015   5.585  10.210   1.884 -0.1203 -0.3692 -0.0070
  682MOL0     C94016   5.736  10.207   1.860 -0.8243  0.8255 -0.0442
  682MOL0     C94017   5.788  10.330   1.795 -0.5626 -0.0018  0.4164
  682MOL0     C94018   5.938  10.310   1.750  0.1282 -0.5441  0.0605
  682MOL0     C94019   6.008  10.455   1.726 -0.5918  0.1532  0.1040
  682MOL0     C94020   6.157  10.439   1.698  0.2999  0.3685 -0.4661
  682MOL0     C94021   6.212  10.586   1.666  1.3358 -0.3147 -0.0904
  682MOL0     C94022   6.185  10.674   1.783  1.0304  0.4535 -0.1381
  682MOL0    Cl94023   6.249  10.835   1.733 -0.1077 -0.2347 -0.1647
  682MOL0     C94024   5.306  10.150   1.668  0.4264  0.5445  0.2602
  682MOL0     C94025   5.166  10.155   1.667 -0.4493 -0.1982  0.2744
  682MOL0     O94026   4.901  10.067   1.629  0.3925 -0.6002 -0.5192
  682MOL0     C94027   4.636  10.158   1.624 -0.9432 -0.3339  0.2790
  682MOL0     C94028   4.499  10.185   1.631 -1.2775  0.4597 -0.8000
  682MOL0     N94029   3.748  10.214   1.914  1.2639 -0.1952  0.0741
  682MOL0     N94030   3.619  10.208   1.949 -0.3074  0.2678 -0.7724
  682MOL0     C94031   2.532  10.340   2.412 -0.0665 -0.4439 -0.2895
  682MOL0     C94032   2.459  10.404   2.521 -0.4241  0.2910 -0.3749
  682MOL0     C94033   2.263  10.528   2.850  0.1435 -0.6606 -0.4622
  682MOL0     C94034   2.242  10.401   2.915  0.5860  0.1678  0.7312
  682MOL0     C94035   2.233  10.385   3.050  0.3031  0.9605  0.7279
  682MOL0     C94036   2.231  10.494   3.132 -0.7385 -0.5069 -0.1746
  682MOL0     O94037   2.231  10.470   3.270  0.4456  0.4921 -0.1960
  682MOL0     C94038   2.255  10.576   3.357  0.2491  0.1091  0.5383
  682MOL0     C94039   2.283  10.524   3.498  0.2137 -0.6512 -0.0313
  682MOL0     C94040   2.160  10.480   3.561  0.1737  0.6774 -0.2373
  682MOL0     C94041   2.190  10.447   3.707 -0.3175  0.1155  0.4816
  682MOL0     C94042   2.067  10.440   3.782 -0.7702 -0.0362  0.5842
  682MOL0     C94043   1.970  10.441   3.852  0.2484 -0.0250 -0.0239
  682MOL0     C94044   2.227  10.622   3.074 -0.2636 -0.1293 -0.2540
  682MOL0     C94045   2.247  10.638   2.939  0.5407  0.4402  0.1134
  682MOL0     C94046   2.258  10.779   2.888  0.1305  0.5953 -0.0798
  682MOL0     H94047   2.146  10.311   2.427 -0.6896  0.0023  0.3090
  682MOL0     H94048   2.273  10.215   2.252 -0.6929  0.1267  0.2632
  682MOL0     H94049   2.730  10.291   2.208  1.5468  1.4309 -0.7129
  682MOL0     H94050   2.637  10.402   2.097 -1.8602  0.1077  0.6642
  682MOL0     H94051   2.733  10.117   2.043 -0.7155 -0.4630 -0.9794
  682MOL0     H94052   2.615  10.199   1.940  0.4351  0.1194 -0.8563
  682MOL0     H94053   2.848  10.219   1.841  1.4187 -1.5882  1.4529
  682MOL0     H94054   2.801  10.374   1.912 -1.6174 -0.1925 -0.8973
  682MOL0     H94055   2.941  10.306   2.119  1.0036  0.3738  0.5420
  682MOL0     H94056   2.982  10.149   2.037  2.8609 -0.2119 -0.5477
  682MOL0     H94057   3.024  10.434   1.945 -5.2030 -1.1806  1.3415
  682MOL0     H94058   3.084  10.286   1.851 -0.7158 -1.5849 -0.0407
  682MOL0     H94059   3.185  10.415   2.102 -0.8526  0.9320  0.2360
  682MOL0     H94060   3.198  10.240   2.077  1.4227 -0.8025 -1.8493
  682MOL0     H94061   3.302  10.470   1.904  2.0396  0.1621  0.6394
  682MOL0     H94062   3.321  10.299   1.855 -2.2038 -1.5708  1.5616
  682MOL0     H94063   3.453  10.461   2.072  2.0598 -0.6176  0.9344
  682MOL0     H94064   3.436  10.284   2.102  0.1623 -0.0436  0.1312
  682MOL0     H94065   3.655  10.526   1.921  2.7674 -0.0905  0.6472
  682MOL0     H94066   3.933  10.467   1.924 -2.3750 -2.4539  2.2503
  682MOL0     H94067   3.884  10.475   1.752 -0.9508 -2.4273 -2.6977
  682MOL0     H94068   4.083  10.290   1.887  1.3234 -1.7278 -0.9712
  682MOL0     H94069   3.988  10.221   1.749 -0.0575 -0.6677  1.6001
  682MOL0     H94070   4.063  10.394   1.610  0.6804 -0.0724 -0.7543
  682MOL0     H94071   4.151  10.463   1.751  2.1453 -0.1425 -0.0518
  682MOL0     H94072   4.200  10.184   1.640 -2.2484 -0.6983  2.5923
  682MOL0     H94073   4.283  10.318   1.563  0.2529 -3.3545 -0.7637
  682MOL0     H94074   4.500  10.341   1.935 -1.9258 -0.0979 -1.1662
  682MOL0     H94075   4.849  10.387   1.924 -1.8877  1.6537 -1.3484
  682MOL0     H94076   4.821  10.239   2.003 -2.3616 -0.2480  3.1257
  682MOL0     H94077   4.715  10.364   2.044  2.5116 -1.7747  2.4374
  682MOL0     H94078   5.106  10.273   1.984 -0.7620  0.5851 -0.7851
  682MOL0     H94079   5.347  10.286   1.984 -1.8821  1.2874  0.7210
  682MOL0     H94080   5.564  10.305   1.935 -1.7047 -0.6367 -0.0999
  682MOL0     H94081   5.568  10.133   1.960  4.5460 -3.0135 -1.2844
  682MOL0     H94082   5.792  10.187   1.952 -3.0054 -1.9080  0.8447
  682MOL0     H94083   5.755  10.122   1.794 -0.3409  0.1987  0.8730
  682MOL0     H94084   5.774  10.409   1.869  0.8066  1.0034 -0.3489
  682MOL0     H94085   5.721  10.377   1.723  0.4801  3.6415  1.6285
  682MOL0     H94086   5.939  10.245   1.662  3.2421  0.7601 -0.9939
  682MOL0     H94087   5.988  10.238   1.815 -2.0922 -2.2788 -0.0558
  682MOL0     H94088   5.957  10.512   1.648  0.9270  0.2450 -0.8615
  682MOL0     H94089   6.009  10.512   1.819  0.6925  0.9525 -0.3876
  682MOL0     H94090   6.180  10.379   1.609  0.3093 -0.4899  0.1097
  682MOL0     H94091   6.211  10.396   1.783  1.4489  1.0184 -0.8419
  682MOL0     H94092   6.180  10.633   1.573 -2.1574 -2.2114 -0.0234
  682MOL0     H94093   6.319  10.589   1.646  1.3582  1.1535  0.1212
  682MOL0     H94094   6.245  10.636   1.866  1.0424  2.0696  0.6401
  682MOL0     H94095   6.082  10.685   1.818  0.8320 -1.6096 -0.0008
  682MOL0     H94096   5.362  10.113   1.583 -2.4488  2.1618 -2.5718
  682MOL0     H94097   5.116  10.136   1.572  3.2854  1.2380 -2.2404
  682MOL0     H94098   4.676  10.104   1.539  0.9999  2.9664 -1.0828
  682MOL0     H94099   4.428  10.140   1.563  0.0279 -2.0994 -0.5856
  682MOL0     H94100   2.640  10.351   2.413 -0.1638  0.9835  2.1905
  682MOL0     H94101   2.524  10.448   2.596  0.0041  1.3814 -1.3504
  682MOL0     H94102   2.250  10.312   2.853 -1.9305  1.9189 -2.4352
  682MOL0     H94103   2.236  10.283   3.087  2.1956 -0.4695 -2.8385
  682MOL0     H94104   2.344  10.624   3.314 -1.7006  0.2871 -3.7396
  682MOL0     H94105   2.171  10.645   3.356 -0.4416 -0.7147 -0.9248
  682MOL0     H94106   2.328  10.610   3.547 -1.5323  0.7561 -0.7761
  682MOL0     H94107   2.359  10.445   3.501  0.3729 -0.5148 -0.4152
  682MOL0     H94108   2.084  10.559   3.554  0.6332  1.0118 -1.7444
  682MOL0     H94109   2.126  10.389   3.511 -1.8783  2.1649 -1.7226
  682MOL0     H94110   2.266  10.513   3.748 -1.1495  1.1542  0.3863
  682MOL0     H94111   2.235  10.347   3.696  1.5209  0.9230  0.2548
  682MOL0     H94112   1.884  10.432   3.916  0.7096 -0.1491  0.5893
  682MOL0     H94113   2.231  10.711   3.135 -1.9830 -0.7201  0.8039
  682MOL0     H94114   2.227  10.797   2.785  1.2578 -1.4792 -0.8424
  682MOL0     H94115   2.199  10.851   2.945  0.4880 -0.1715  1.3173
  682MOL0     H94116   2.362  10.815   2.889 -0.1499  1.5528  2.4236
  683MOL0     O94117   4.653   3.163   5.530  0.7779  0.1385 -0.0714
  683MOL0     C94118   4.736   3.089   5.578 -0.4567  0.5430  0.0675
  683MOL0     O94119   4.763   2.965   5.521 -0.5977 -0.3576 -0.0565
  683MOL0     C94120   4.677   2.918   5.425  0.6657  0.2411  0.1760
  683MOL0     C94121   4.588   2.812   5.453  0.0000 -0.6297 -0.3731
  683MOL0     C94122   4.496   2.772   5.350 -0.0998 -0.7919 -0.2915
  683MOL0     C94123   4.497   2.816   5.221 -0.0993  0.0793  0.3050
  683MOL0     O94124   4.419   2.759   5.118 -0.2720  0.5553  0.5968
  683MOL0     C94125   4.383   2.834   5.006  0.3057  0.3289 -0.2526
  683MOL0     C94126   4.261   2.768   4.925 -0.5791 -0.1150  0.3460
  683MOL0     C94127   4.129   2.752   5.005 -0.5906  0.2485 -0.1323
  683MOL0     C94128   4.014   2.838   4.945 -0.2807  0.0526 -0.2278
  683MOL0     C94129   3.905   2.855   5.049  0.8803  0.0057 -1.0290
  683MOL0     C94130   3.784   2.953   5.023 -0.4104  0.2764 -0.0186
  683MOL0     C94131   3.825   3.096   4.994 -0.4651  0.0878  0.5214
  683MOL0     C94132   3.918   3.165   5.102 -0.3518  0.2326  0.5655
  683MOL0     N94133   3.863   3.146   5.237  0.3040 -0.1247  0.6978
  683MOL0     C94134   3.739   3.188   5.277 -0.5727 -0.0493  0.1762
  683MOL0     C94135   3.714   3.122   5.389 -0.1166 -0.0624 -1.6478
  683MOL0     C94136   3.596   3.114   5.478  0.1253  0.0902 -0.3581
  683MOL0     C94137   3.499   3.238   5.482  0.3981  0.1316  0.1120
  683MOL0     C94138   3.381   3.212   5.581 -0.1570 -0.6332  0.3288
  683MOL0     C94139   3.306   3.342   5.637  0.1682  0.7925 -0.6377
  683MOL0     O94140   3.407   3.439   5.649  0.0662 -0.6854 -0.3588
  683MOL0     C94141   3.375   3.577   5.654  0.8973  0.5528 -0.3004
  683MOL0     C94142   3.249   3.624   5.670 -0.0402  0.0522  0.5207
  683MOL0     C94143   3.218   3.766   5.676 -0.5461 -1.1243  0.5742
  683MOL0     C94144   3.085   3.815   5.727 -0.3982 -0.2651  0.6688
  683MOL0     C94145   3.329   3.855   5.684  0.5864 -0.8226 -0.4190
  683MOL0     C94146   3.336   4.004   5.716  0.4872 -0.4285 -0.4527
  683MOL0     O94147   3.453   4.080   5.695  0.1195  0.0109 -0.1507
  683MOL0     C94148   3.450   4.215   5.741  0.5952 -0.0508  0.1559
  683MOL0     C94149   3.403   4.314   5.652 -0.2828 -0.8223 -0.8633
  683MOL0     C94150   3.395   4.448   5.700  0.8627 -0.4291  0.2254
  683MOL0     C94151   3.450   4.480   5.823 -0.1242 -0.1925 -0.0944
  683MOL0     O94152   3.461   4.610   5.854  0.3227 -0.0120  0.7855
  683MOL0     C94153   3.576   4.674   5.797 -0.2777 -0.5037 -0.6448
  683MOL0     C94154   3.712   4.625   5.857 -0.0608  0.2048 -0.7534
  683MOL0     C94155   3.734   4.667   5.998 -0.8568  0.5962 -0.1774
  683MOL0     C94156   3.868   4.619   6.042  1.0624 -0.9206 -0.3355
  683MOL0     C94157   3.882   4.658   6.193 -0.3909  0.2029  0.6648
  683MOL0     C94158   4.033   4.634   6.231  0.1376 -0.4098  0.2170
  683MOL0     C94159   4.064   4.493   6.261  0.6766  0.1286 -0.5430
  683MOL0     C94160   4.207   4.466   6.315  0.1539  0.2695  0.4651
  683MOL0    Cl94161   4.331   4.493   6.174  0.0660 -0.3056  0.1195
  683MOL0     C94162   3.500   4.383   5.905 -0.0677 -0.8259  0.7305
  683MOL0     C94163   3.496   4.250   5.868 -0.8119  0.7122  0.3408
  683MOL0     O94164   3.237   4.050   5.772  0.7418 -0.0370 -0.1697
  683MOL0     C94165   3.457   3.798   5.671  0.0112 -0.3539 -0.2620
  683MOL0     C94166   3.478   3.660   5.650 -0.1460  0.2052 -0.3857
  683MOL0     N94167   3.829   3.051   5.425  0.7785 -0.4000 -0.1813
  683MOL0     N94168   3.914   3.068   5.327 -0.0894  0.5215 -0.0281
  683MOL0     C94169   4.590   2.921   5.192 -0.2484  1.4725 -1.1380
  683MOL0     C94170   4.674   2.967   5.293  0.1749 -0.4874 -1.5350
  683MOL0     C94171   4.838   3.151   5.668 -0.8533 -0.1337 -0.3199
  683MOL0     C94172   4.936   3.060   5.719  0.4889  0.1381  0.6444
  683MOL0     C94173   5.030   3.098   5.815 -0.0641 -0.0303 -0.5361
  683MOL0     C94174   5.038   3.236   5.857  0.4498 -0.2486  0.8340
  683MOL0     O94175   5.130   3.286   5.953  0.8548 -0.0252  0.0484
  683MOL0     C94176   5.242   3.214   6.004  0.6961  0.0457  1.2661
  683MOL0     C94177   5.373   3.289   6.013  0.3692  0.4531 -0.3940
  683MOL0     C94178   5.361   3.415   6.086  0.8133 -0.9058 -0.9128
  683MOL0     C94179   5.502   3.478   6.111  0.8680  0.2405 -0.2600
  683MOL0     C94180   5.584   3.410   6.208  0.3350 -0.1253 -0.8260
  683MOL0     C94181   5.652   3.356   6.302  0.1870  0.2549  0.3986
  683MOL0     C94182   4.942   3.319   5.813 -0.3389 -1.6078 -0.4879
  683MOL0     C94183   4.842   3.286   5.716 -0.0360  0.3230  1.0261
  683MOL0     C94184   4.754   3.392   5.690 -0.2356  0.6114 -0.2070
  683MOL0     H94185   4.586   2.768   5.552  0.0818  0.9783  0.3909
  683MOL0     H94186   4.423   2.691   5.356  1.8011 -2.4649  1.9991
  683MOL0     H94187   4.474   2.840   4.946  1.2459 -1.8684  0.8574
  683MOL0     H94188   4.349   2.933   5.037 -0.7300 -0.5021  1.3748
  683MOL0     H94189   4.246   2.825   4.832 -1.3459 -0.5714  0.1822
  683MOL0     H94190   4.305   2.674   4.890  1.9080  0.8146  0.8062
  683MOL0     H94191   4.093   2.650   5.019 -0.3190  0.1685 -0.0033
  683MOL0     H94192   4.154   2.801   5.100  1.7500  1.2823 -1.2017
  683MOL0     H94193   4.054   2.935   4.913  0.7610  0.3075  1.7043
  683MOL0     H94194   3.975   2.793   4.853 -0.3702 -0.8162  0.2187
  683MOL0     H94195   3.963   2.893   5.134  2.2068  2.7704 -3.0107
  683MOL0     H94196   3.851   2.763   5.072 -0.1445  0.7122 -0.5122
  683MOL0     H94197   3.734   2.909   4.937  1.1666 -2.8139  0.4945
  683MOL0     H94198   3.717   2.950   5.109  0.5250  0.7137  0.7365
  683MOL0     H94199   3.728   3.146   4.986 -0.3375  0.0392 -2.2438
  683MOL0     H94200   3.876   3.103   4.897 -2.3666  1.2505 -0.4706
  683MOL0     H94201   4.013   3.113   5.090 -1.3241 -1.2480 -1.3292
  683MOL0     H94202   3.926   3.272   5.081  0.3466  0.1813  0.5552
  683MOL0     H94203   3.668   3.259   5.237 -0.1091 -0.4278 -1.3884
  683MOL0     H94204   3.635   3.088   5.577  1.8692  0.0943 -1.0067
  683MOL0     H94205   3.536   3.028   5.446 -0.9288  1.1011 -1.1570
  683MOL0     H94206   3.562   3.326   5.497  1.3622 -0.4808 -0.2495
  683MOL0     H94207   3.468   3.261   5.379  2.0165  0.2036 -0.3973
  683MOL0     H94208   3.315   3.144   5.528 -1.1219  0.6230 -0.1316
  683MOL0     H94209   3.428   3.163   5.667 -1.2755  1.5284  2.3122
  683MOL0     H94210   3.239   3.378   5.558  0.0175 -0.5338 -1.1432
  683MOL0     H94211   3.257   3.318   5.732 -0.3183 -0.5905 -1.2110
  683MOL0     H94212   3.164   3.557   5.676 -0.9942  1.3272  2.2345
  683MOL0     H94213   3.012   3.735   5.744 -1.1260  0.3776  0.6433
  683MOL0     H94214   3.048   3.890   5.655 -1.0138 -0.2698  0.9684
  683MOL0     H94215   3.104   3.859   5.825 -1.6653  1.7898  0.0693
  683MOL0     H94216   3.371   4.287   5.552 -0.8486 -0.1022 -0.8855
  683MOL0     H94217   3.358   4.523   5.631  2.4444  1.9666  1.8260
  683MOL0     H94218   3.574   4.680   5.688  0.7332 -1.4767 -0.7451
  683MOL0     H94219   3.568   4.776   5.835 -0.7856 -1.8560  3.2977
  683MOL0     H94220   3.714   4.516   5.847 -3.0291  0.2131 -2.5453
  683MOL0     H94221   3.790   4.671   5.797 -2.4389  2.6985 -2.1260
  683MOL0     H94222   3.660   4.629   6.070  0.0965 -2.3764 -0.6041
  683MOL0     H94223   3.727   4.776   6.006  1.7364  1.0890 -2.9175
  683MOL0     H94224   3.936   4.674   5.976 -1.1859  3.6935  0.7217
  683MOL0     H94225   3.891   4.515   6.018  2.6363 -0.2599 -1.8390
  683MOL0     H94226   3.872   4.765   6.211  1.1674  0.1844  1.8855
  683MOL0     H94227   3.814   4.609   6.263 -0.6271 -0.5729 -0.0833
  683MOL0     H94228   4.044   4.685   6.327  0.9537  1.5347 -0.8576
  683MOL0     H94229   4.106   4.665   6.156  1.9897 -1.6837  1.3943
  683MOL0     H94230   4.047   4.434   6.170 -3.0929 -0.3938  0.3324
  683MOL0     H94231   4.001   4.457   6.343 -1.9035 -0.2655 -2.5261
  683MOL0     H94232   4.218   4.363   6.350  1.2401  0.3537  0.4078
  683MOL0     H94233   4.232   4.538   6.394  2.3154 -0.2856  0.3393
  683MOL0     H94234   3.551   4.413   5.996  0.7445 -0.0673  0.0541
  683MOL0     H94235   3.549   4.172   5.922 -0.0802  0.2690 -0.9970
  683MOL0     H94236   3.548   3.858   5.673 -1.3624  1.9577  2.9052
  683MOL0     H94237   3.571   3.608   5.634 -1.7035 -2.6139 -0.8937
  683MOL0     H94238   4.607   2.963   5.094  1.9039  0.3109 -1.3296
  683MOL0     H94239   4.754   3.038   5.276  2.1495 -0.8606  4.2507
  683MOL0     H94240   4.941   2.955   5.691 -1.4708  0.9300 -3.4377
  683MOL0     H94241   5.095   3.021   5.855 -0.0952 -1.8796 -3.7050
  683MOL0     H94242   5.225   3.173   6.104  3.6174  1.8087  2.6399
  683MOL0     H94243   5.259   3.136   5.929 -1.1730  0.9904 -0.2292
  683MOL0     H94244   5.404   3.317   5.912 -1.5617 -0.0741 -1.1630
  683MOL0     H94245   5.444   3.219   6.060  1.3734  0.8809 -1.2210
  683MOL0     H94246   5.289   3.478   6.032 -0.5621 -0.1357  1.6386
  683MOL0     H94247   5.313   3.396   6.183 -2.2846  2.2093 -1.6482
  683MOL0     H94248   5.484   3.579   6.147 -1.3189 -0.5992  1.1877
  683MOL0     H94249   5.556   3.496   6.018 -1.8536  1.6239 -1.6673
  683MOL0     H94250   5.711   3.311   6.378 -1.9023 -0.8515  1.4670
  683MOL0     H94251   4.933   3.410   5.871 -0.5920 -1.2181 -1.1202
  683MOL0     H94252   4.803   3.454   5.614  1.7104 -0.2357  0.2892
  683MOL0     H94253   4.655   3.370   5.648 -0.5089  3.4540 -1.3031
  683MOL0     H94254   4.730   3.441   5.785  0.5452 -1.8905  1.3610
  684MOL0     O94255   0.811   2.056   0.702 -0.0118 -0.3124 -0.0864
  684MOL0     C94256   0.885   2.043   0.795  0.2044 -0.5501  0.3049
  684MOL0     O94257   0.849   2.063   0.927  0.5854  0.3105  0.3825
  684MOL0     C94258   0.717   2.110   0.939  0.5214  0.2146 -0.3920
  684MOL0     C94259   0.617   2.029   0.993  0.1721  0.5873 -0.1921
  684MOL0     C94260   0.485   2.071   1.005  0.4465  0.2883 -0.4954
  684MOL0     C94261   0.444   2.191   0.974 -0.0052  0.4653 -0.3699
  684MOL0     O94262   0.318   2.252   0.990  0.0754  0.2090  0.1018
  684MOL0     C94263   0.219   2.169   1.068  0.8991  0.1237 -0.3098
  684MOL0     C94264   0.080   2.243   1.075 -0.3106 -0.9165 -0.4550
  684MOL0     C94265   0.004   2.222   0.945 -0.6872  0.3228  0.2017
  684MOL0     C94266  -0.129   2.293   0.939 -0.7640 -0.2336  0.3629
  684MOL0     C94267  -0.188   2.267   0.810 -0.0896 -0.4420  0.1430
  684MOL0     C94268  -0.322   2.343   0.778 -0.9226 -0.6257  0.3789
  684MOL0     C94269  -0.432   2.323   0.887  0.1914 -0.5425  0.1383
  684MOL0     C94270  -0.569   2.351   0.830 -0.0577  0.2159 -0.4180
  684MOL0     N94271  -0.665   2.343   0.943 -1.0801  0.6409 -0.3419
  684MOL0     C94272  -0.724   2.450   0.994 -0.0340 -0.0966 -0.2679
  684MOL0     C94273  -0.806   2.405   1.093  0.1941  0.4399  0.4160
  684MOL0     C94274  -0.896   2.482   1.181  0.3270 -0.0682  0.0143
  684MOL0     C94275  -0.853   2.452   1.323 -0.4353  0.1920  0.4704
  684MOL0     C94276  -0.921   2.541   1.434 -0.3203 -0.0704  0.4306
  684MOL0     C94277  -0.890   2.511   1.583  0.4367 -0.0564  0.8364
  684MOL0     O94278  -0.743   2.528   1.596  0.1519 -0.0548  0.0711
  684MOL0     C94279  -0.668   2.454   1.684  0.0922  0.3220 -0.4435
  684MOL0     C94280  -0.733   2.378   1.786  0.0902 -0.9767 -0.0967
  684MOL0     C94281  -0.659   2.300   1.878 -0.3882  0.7452  1.2944
  684MOL0     C94282  -0.741   2.223   1.984 -0.4095 -0.4956 -0.3882
  684MOL0     C94283  -0.517   2.288   1.866  0.3633  0.5068 -0.2634
  684MOL0     C94284  -0.429   2.195   1.945  0.5759  0.3377 -0.3959
  684MOL0     O94285  -0.313   2.242   1.987 -0.2913 -0.0459 -0.2359
  684MOL0     C94286  -0.244   2.188   2.096 -0.1343 -0.3256 -0.5960
  684MOL0     C94287  -0.215   2.054   2.112  0.7216  0.5316  0.3183
  684MOL0     C94288  -0.131   2.006   2.210  0.3624  0.3505 -0.2439
  684MOL0     C94289  -0.093   2.102   2.303 -1.2392 -0.0429 -0.3650
  684MOL0     O94290   0.001   2.054   2.393 -0.4635  0.1391 -0.6421
  684MOL0     C94291  -0.041   2.056   2.522  0.2597  0.1679  0.6217
  684MOL0     C94292   0.061   1.954   2.586 -0.3559  0.2590  0.4997
  684MOL0     C94293   0.042   1.942   2.740  0.0988  1.3198  1.0660
  684MOL0     C94294  -0.091   1.888   2.788  0.0273 -0.5152  0.3394
  684MOL0     C94295  -0.105   1.865   2.942 -0.4172 -0.5598  0.0377
  684MOL0     C94296  -0.067   1.994   3.034 -0.2904 -0.0001  0.4525
  684MOL0     C94297  -0.117   1.976   3.187  0.0241 -0.4496  0.3219
  684MOL0     C94298  -0.101   2.107   3.270 -0.3691 -0.5945  0.2538
  684MOL0    Cl94299  -0.188   2.248   3.194 -0.0892 -0.1561 -0.0042
  684MOL0     C94300  -0.132   2.238   2.293  0.3132  0.2634  0.1975
  684MOL0     C94301  -0.208   2.279   2.189 -0.8147  0.2223 -0.4357
  684MOL0     O94302  -0.469   2.078   1.965  0.5720  0.0330 -0.6359
  684MOL0     C94303  -0.456   2.376   1.775  0.4074  0.3486  1.4808
  684MOL0     C94304  -0.531   2.460   1.681  0.4937 -0.1775  0.0010
  684MOL0     N94305  -0.787   2.267   1.102  0.6051  0.5903  0.1812
  684MOL0     N94306  -0.709   2.236   1.006  0.6633  0.5782  0.4925
  684MOL0     C94307   0.548   2.280   0.946 -0.1903 -1.0999 -0.0719
  684MOL0     C94308   0.678   2.243   0.920 -0.3829  0.4985  0.0479
  684MOL0     C94309   1.031   2.007   0.776 -0.3319 -0.4924 -0.5789
  684MOL0     C94310   1.069   1.932   0.663 -0.2369  0.4445  0.1581
  684MOL0     C94311   1.195   1.892   0.647 -0.8447 -0.5934 -0.6430
  684MOL0     C94312   1.302   1.944   0.724  0.3583  0.5254  0.5125
  684MOL0     O94313   1.426   1.902   0.698 -0.2554  0.4368  0.9328
  684MOL0     C94314   1.526   1.913   0.801  0.1522  0.6082 -0.9622
  684MOL0     C94315   1.652   1.861   0.737 -1.0040  0.5287  0.4629
  684MOL0     C94316   1.776   1.883   0.821  0.0333  0.9557  0.4472
  684MOL0     C94317   1.901   1.840   0.753  0.2680  0.1943  0.5979
  684MOL0     C94318   2.009   1.850   0.849  0.5466  0.2334  0.2468
  684MOL0     C94319   2.085   1.857   0.940  0.5952 -0.0176  0.4647
  684MOL0     C94320   1.268   2.027   0.828 -0.1734  0.2613 -0.0975
  684MOL0     C94321   1.131   2.050   0.869 -1.6419 -0.5767  0.2409
  684MOL0     C94322   1.106   2.137   0.990  0.4713  0.6006  0.3545
  684MOL0     H94323   0.630   1.922   1.005  2.8244  0.5401 -2.3923
  684MOL0     H94324   0.418   1.998   1.050 -1.5698  0.7377 -2.6108
  684MOL0     H94325   0.255   2.160   1.171 -1.0330 -2.3206  0.2521
  684MOL0     H94326   0.223   2.070   1.021 -0.6605  1.1178 -2.6981
  684MOL0     H94327   0.016   2.203   1.154  2.2653  1.4952  3.1329
  684MOL0     H94328   0.101   2.348   1.094  1.0590 -1.1387 -0.6215
  684MOL0     H94329   0.072   2.251   0.864 -1.6004 -3.6662 -2.2553
  684MOL0     H94330  -0.020   2.117   0.929  0.2009  0.3338 -1.5122
  684MOL0     H94331  -0.203   2.251   1.009 -1.7517  0.8278 -0.0052
  684MOL0     H94332  -0.117   2.399   0.962  4.8169 -0.5450  0.0578
  684MOL0     H94333  -0.197   2.160   0.786 -3.5786  0.5650 -4.5742
  684MOL0     H94334  -0.115   2.307   0.738  0.3938  1.5590  1.6496
  684MOL0     H94335  -0.301   2.447   0.753 -3.1238 -0.5661 -1.4981
  684MOL0     H94336  -0.352   2.301   0.682 -3.0953 -0.2647  0.8567
  684MOL0     H94337  -0.408   2.382   0.976  2.7801 -1.5709  0.2282
  684MOL0     H94338  -0.433   2.217   0.917  1.7965 -0.2818  1.2612
  684MOL0     H94339  -0.577   2.454   0.795  0.9315  0.7495  0.8423
  684MOL0     H94340  -0.596   2.285   0.747 -0.4985  1.5030 -1.3188
  684MOL0     H94341  -0.715   2.546   0.944 -1.3925 -1.1286 -2.6377
  684MOL0     H94342  -1.000   2.447   1.169  0.9240 -1.9238 -0.0490
  684MOL0     H94343  -0.878   2.587   1.156 -1.5162  0.2940  0.0396
  684MOL0     H94344  -0.874   2.348   1.353  2.1420  0.2255  2.7580
  684MOL0     H94345  -0.744   2.457   1.328 -0.5116  1.3963  1.5422
  684MOL0     H94346  -0.879   2.636   1.398  1.2790 -1.8717 -2.9361
  684MOL0     H94347  -1.031   2.544   1.432 -0.4813  1.9142  3.9895
  684MOL0     H94348  -0.932   2.583   1.655 -0.0388 -0.4556  0.9608
  684MOL0     H94349  -0.918   2.409   1.608  2.1610 -0.3059  1.9230
  684MOL0     H94350  -0.841   2.383   1.801  0.0320  0.7364 -0.9437
  684MOL0     H94351  -0.688   2.138   2.027  0.7041  0.8681  1.0267
  684MOL0     H94352  -0.836   2.185   1.944 -0.1316 -0.2821 -1.2737
  684MOL0     H94353  -0.773   2.288   2.066 -1.2391 -0.3874 -0.7902
  684MOL0     H94354  -0.242   1.982   2.034  0.3466 -0.0008  0.9308
  684MOL0     H94355  -0.118   1.899   2.226 -0.5987  0.4300  1.1931
  684MOL0     H94356  -0.030   2.157   2.562 -0.0215  1.0165 -1.3155
  684MOL0     H94357  -0.148   2.033   2.528  0.0137 -0.1066 -2.6282
  684MOL0     H94358   0.038   1.857   2.542  1.6547  0.3615 -0.9212
  684MOL0     H94359   0.164   1.975   2.557  0.5477 -1.6925  2.0199
  684MOL0     H94360   0.062   2.039   2.786  3.1290  1.2913  0.0395
  684MOL0     H94361   0.115   1.871   2.780 -0.1062 -1.1500 -2.4037
  684MOL0     H94362  -0.101   1.793   2.736  2.0656  0.7641 -2.6492
  684MOL0     H94363  -0.184   1.937   2.757 -1.9633 -3.1040  1.8207
  684MOL0     H94364  -0.210   1.839   2.955 -0.3296 -1.4381 -0.9015
  684MOL0     H94365  -0.047   1.776   2.969  0.8567  0.5212  1.0726
  684MOL0     H94366  -0.103   2.086   2.986 -0.7480 -1.7825 -2.9331
  684MOL0     H94367   0.041   2.007   3.037 -0.3414  0.5477 -0.0801
  684MOL0     H94368  -0.063   1.895   3.236  2.9396  1.0045 -0.3006
  684MOL0     H94369  -0.221   1.940   3.185  0.0145 -0.4040 -0.7304
  684MOL0     H94370  -0.000   2.143   3.295 -2.4247  3.5115  3.9301
  684MOL0     H94371  -0.140   2.078   3.368 -0.7765 -1.6489 -0.2043
  684MOL0     H94372  -0.094   2.299   2.374 -2.0227  0.7313  1.0119
  684MOL0     H94373  -0.260   2.374   2.193 -2.6513 -0.7810  0.7997
  684MOL0     H94374  -0.348   2.377   1.767  0.2746 -0.9449 -2.4176
  684MOL0     H94375  -0.484   2.518   1.602  0.9531  1.4623  1.4018
  684MOL0     H94376   0.525   2.385   0.932  3.0928 -0.3840 -1.0061
  684MOL0     H94377   0.761   2.309   0.896 -0.0601  0.3591  0.7312
  684MOL0     H94378   0.998   1.900   0.588 -1.6116 -1.9434  2.3236
  684MOL0     H94379   1.224   1.838   0.558 -0.8816 -1.4271 -0.1652
  684MOL0     H94380   1.548   2.018   0.824  0.5783  0.4781 -0.7618
  684MOL0     H94381   1.491   1.867   0.894  1.0803  0.6395 -0.5929
  684MOL0     H94382   1.678   1.913   0.644  1.3468  0.7886  1.1981
  684MOL0     H94383   1.648   1.758   0.700  0.6168  1.1999 -1.8510
  684MOL0     H94384   1.781   1.986   0.860 -2.2997  0.5860  1.9421
  684MOL0     H94385   1.760   1.817   0.907  3.7661 -1.1037 -0.2523
  684MOL0     H94386   1.925   1.897   0.663 -1.1497  0.3717  0.3085
  684MOL0     H94387   1.879   1.741   0.712 -1.3415  0.3843  0.9054
  684MOL0     H94388   2.145   1.866   1.029  3.3337 -1.1862 -1.1349
  684MOL0     H94389   1.332   2.078   0.899 -2.7860  0.7953  2.0288
  684MOL0     H94390   1.200   2.155   1.043  2.3661 -2.4637 -1.6642
  684MOL0     H94391   1.063   2.236   0.970  0.4522  0.3904 -0.6501
  684MOL0     H94392   1.039   2.093   1.065  1.3891 -2.7887 -0.6635
  685MOL0     O94393   5.476   4.801   6.683 -0.5704  0.8038 -0.1959
  685MOL0     C94394   5.464   4.819   6.801  0.4769 -0.0090 -0.4374
  685MOL0     O94395   5.520   4.746   6.899  0.1970 -0.3010 -1.0573
  685MOL0     C94396   5.629   4.670   6.860 -1.0142 -0.2396 -0.4967
  685MOL0     C94397   5.634   4.536   6.843 -0.5644 -0.1282  0.0795
  685MOL0     C94398   5.754   4.468   6.816 -0.1378 -0.8729 -0.0297
  685MOL0     C94399   5.872   4.536   6.789 -0.9492 -0.1312  0.0354
  685MOL0     O94400   5.980   4.457   6.757 -0.0981  0.2727 -0.2915
  685MOL0     C94401   6.108   4.492   6.807  0.5087  0.3838  0.4319
  685MOL0     C94402   6.214   4.427   6.718  0.2260 -0.5797  0.8474
  685MOL0     C94403   6.349   4.494   6.739  0.1637  0.2481 -0.5172
  685MOL0     C94404   6.462   4.458   6.644  0.0210 -0.1225 -0.4144
  685MOL0     C94405   6.563   4.576   6.634  0.0296 -0.0981  1.3860
  685MOL0     C94406   6.635   4.598   6.765  0.6952  0.2019 -0.4433
  685MOL0     C94407   6.755   4.690   6.756 -0.6580  0.7097 -0.2271
  685MOL0     C94408   6.888   4.611   6.717  0.5345 -0.5617  0.8571
  685MOL0     N94409   6.995   4.705   6.695 -0.0239 -0.2321  0.0562
  685MOL0     C94410   7.045   4.788   6.784 -0.1803 -0.6997  0.3090
  685MOL0     C94411   7.128   4.862   6.706 -0.2952  0.5385  0.8211
  685MOL0     C94412   7.218   4.969   6.767 -0.2250 -0.0305  0.6206
  685MOL0     C94413   7.160   5.119   6.741  0.0237 -0.0700  0.2452
  685MOL0     C94414   7.068   5.153   6.857  0.2705 -0.0921  0.4614
  685MOL0     C94415   6.989   5.288   6.829  0.4484  0.1725  0.4101
  685MOL0     O94416   7.074   5.397   6.846 -1.4813 -0.6539  0.7435
  685MOL0     C94417   7.026   5.522   6.845 -0.0199 -0.1684 -0.3227
  685MOL0     C94418   6.915   5.571   6.771  0.1851 -1.4558  0.3801
  685MOL0     C94419   6.872   5.702   6.761  0.4038  1.0875 -0.9668
  685MOL0     C94420   6.763   5.735   6.660  0.5724 -0.5104  0.1156
  685MOL0     C94421   6.940   5.789   6.847  0.5101 -1.0415 -0.2557
  685MOL0     C94422   6.901   5.931   6.855 -0.7012 -0.2862 -0.2422
  685MOL0     O94423   6.964   6.009   6.956 -0.5235 -0.5237 -0.1290
  685MOL0     C94424   6.923   6.133   6.993  0.7648  0.2156  0.7157
  685MOL0     C94425   6.861   6.228   6.916 -0.7266  0.8455 -0.8652
  685MOL0     C94426   6.824   6.342   6.983 -0.0589 -0.1118  0.1318
  685MOL0     C94427   6.849   6.366   7.120 -0.3684 -0.3904  0.0431
  685MOL0     O94428   6.809   6.482   7.183 -0.2368  0.4728 -0.4815
  685MOL0     C94429   6.900   6.540   7.283 -0.2037 -0.3416  0.7848
  685MOL0     C94430   7.018   6.588   7.215  0.7823  0.5941 -0.6782
  685MOL0     C94431   7.110   6.686   7.305  0.7790  0.6382  0.5904
  685MOL0     C94432   7.229   6.723   7.219 -0.1496  0.2812 -0.3042
  685MOL0     C94433   7.308   6.846   7.270  1.5442  0.1438 -0.0976
  685MOL0     C94434   7.421   6.803   7.355 -1.2235  0.4030 -0.1595
  685MOL0     C94435   7.519   6.907   7.392 -0.4933  0.5281  0.3994
  685MOL0     C94436   7.599   6.859   7.507  1.0377  0.4472  0.2892
  685MOL0    Cl94437   7.507   6.816   7.660 -0.2152  0.4908 -0.1323
  685MOL0     C94438   6.915   6.273   7.196 -0.4873 -0.2334  0.6143
  685MOL0     C94439   6.961   6.156   7.130 -0.3886 -0.2718  1.1606
  685MOL0     O94440   6.804   5.969   6.794  0.5290 -0.3888  0.5580
  685MOL0     C94441   7.042   5.751   6.931  0.2359  0.3421  0.8608
  685MOL0     C94442   7.089   5.620   6.917  0.1466 -0.5747 -0.4347
  685MOL0     N94443   7.118   4.822   6.575 -0.1230 -0.4319 -0.0641
  685MOL0     N94444   7.034   4.725   6.570 -0.2577 -0.2334 -0.0114
  685MOL0     C94445   5.871   4.673   6.813 -0.2213  0.1055 -0.0903
  685MOL0     C94446   5.747   4.741   6.850  0.1644 -0.3359  0.9244
  685MOL0     C94447   5.378   4.929   6.848 -0.9929  0.8722 -0.1407
  685MOL0     C94448   5.282   4.983   6.761 -0.3919 -0.6792 -0.2251
  685MOL0     C94449   5.192   5.090   6.794  0.2360  0.5882  0.0547
  685MOL0     C94450   5.207   5.143   6.923 -0.4658 -0.1858  0.0990
  685MOL0     O94451   5.144   5.253   6.963  0.2655  0.0088 -1.0611
  685MOL0     C94452   5.037   5.322   6.892  0.5203  0.9680  0.1852
  685MOL0     C94453   5.104   5.415   6.789  0.1292  1.6440 -0.6134
  685MOL0     C94454   5.005   5.498   6.707 -0.4329  0.5614 -0.2398
  685MOL0     C94455   5.077   5.566   6.595 -0.5598  0.0843  0.8134
  685MOL0     C94456   5.003   5.687   6.553 -0.1389 -0.0520  0.5215
  685MOL0     C94457   4.965   5.785   6.502  0.4306  0.6503  0.0144
  685MOL0     C94458   5.301   5.092   7.008 -0.0772  0.3184  0.3406
  685MOL0     C94459   5.392   4.993   6.979  0.3605 -0.8453  0.4132
  685MOL0     C94460   5.502   4.963   7.076  0.4457  0.0716 -0.1148
  685MOL0     H94461   5.543   4.480   6.857  0.6011 -2.1155  0.0592
  685MOL0     H94462   5.759   4.361   6.834 -0.6539 -0.5420  2.4612
  685MOL0     H94463   6.126   4.453   6.907 -1.5178 -1.7098  0.0722
  685MOL0     H94464   6.122   4.600   6.821  2.2297 -0.0007  1.9063
  685MOL0     H94465   6.216   4.322   6.747 -2.2475 -0.5589  1.3052
  685MOL0     H94466   6.188   4.444   6.613  2.0992  0.8105  0.5605
  685MOL0     H94467   6.331   4.600   6.724  0.6946  0.3704 -0.3286
  685MOL0     H94468   6.387   4.487   6.842  0.9278  0.2068 -0.7949
  685MOL0     H94469   6.518   4.370   6.677  0.9397 -0.3915 -2.4924
  685MOL0     H94470   6.429   4.433   6.542 -1.2346 -2.8809  0.5780
  685MOL0     H94471   6.499   4.655   6.595 -1.3031 -0.6961  2.2825
  685MOL0     H94472   6.638   4.545   6.562  0.4237 -3.8160  3.1504
  685MOL0     H94473   6.565   4.654   6.828 -0.7887 -1.9527 -0.0810
  685MOL0     H94474   6.658   4.510   6.825 -1.4504 -0.5602 -0.6302
  685MOL0     H94475   6.772   4.742   6.851  1.3977  1.7106 -1.0812
  685MOL0     H94476   6.748   4.773   6.684  1.3180  0.3021 -0.9633
  685MOL0     H94477   6.914   4.539   6.795  1.4946  0.3828  1.4323
  685MOL0     H94478   6.879   4.553   6.625  0.2651  0.2608  0.3562
  685MOL0     H94479   7.031   4.791   6.891  3.0453  2.7318  0.8494
  685MOL0     H94480   7.315   4.959   6.716 -0.7258  3.4531 -1.3409
  685MOL0     H94481   7.255   4.952   6.868 -0.9892 -2.3679  0.5542
  685MOL0     H94482   7.223   5.206   6.723  0.0343  0.3178  1.9741
  685MOL0     H94483   7.100   5.117   6.649  3.6410  0.8414 -2.3767
  685MOL0     H94484   6.987   5.082   6.877 -0.7424  1.3973  1.9242
  685MOL0     H94485   7.124   5.173   6.949  1.2277 -1.7679  0.2932
  685MOL0     H94486   6.948   5.280   6.728  2.7010 -0.6440 -0.5086
  685MOL0     H94487   6.909   5.297   6.903 -0.6967  3.5355 -1.0618
  685MOL0     H94488   6.869   5.506   6.697 -0.0182  2.1390 -3.0071
  685MOL0     H94489   6.803   5.794   6.577 -1.0404  1.2073  0.5040
  685MOL0     H94490   6.674   5.778   6.706 -1.2813 -2.4246 -1.4697
  685MOL0     H94491   6.734   5.641   6.612 -0.2731  1.1086 -2.7438
  685MOL0     H94492   6.842   6.219   6.809  0.6874 -1.2172 -1.0024
  685MOL0     H94493   6.770   6.416   6.925  1.1053  0.2605 -0.5123
  685MOL0     H94494   6.846   6.629   7.318 -3.1807 -2.4638  2.0073
  685MOL0     H94495   6.922   6.485   7.375 -0.2969  0.9337  1.5935
  685MOL0     H94496   7.076   6.502   7.182  1.5078  1.0295 -0.5638
  685MOL0     H94497   6.996   6.642   7.122  2.9361  2.2302 -0.3275
  685MOL0     H94498   7.138   6.639   7.400 -1.2441 -1.3193  0.2961
  685MOL0     H94499   7.053   6.776   7.328  1.6539  1.0756  1.0849
  685MOL0     H94500   7.191   6.748   7.119  3.6525 -3.4708 -3.0671
  685MOL0     H94501   7.291   6.634   7.207 -1.4789 -0.9604  1.5028
  685MOL0     H94502   7.346   6.905   7.186  0.6264  0.5840 -0.2108
  685MOL0     H94503   7.248   6.921   7.322 -0.3936 -1.6485  0.3578
  685MOL0     H94504   7.479   6.728   7.301  1.6288  2.3441  0.0186
  685MOL0     H94505   7.382   6.759   7.448  2.7570 -1.3141  0.9103
  685MOL0     H94506   7.465   6.996   7.427 -1.9437 -0.6088  1.1556
  685MOL0     H94507   7.590   6.938   7.315  0.9018  2.6082  2.3653
  685MOL0     H94508   7.672   6.935   7.536 -0.0155  1.8004 -0.4270
  685MOL0     H94509   7.650   6.767   7.479 -0.3978  0.1542 -1.6426
  685MOL0     H94510   6.956   6.280   7.296  2.2438  1.9392 -0.5310
  685MOL0     H94511   7.010   6.072   7.178  0.8574  1.2451  2.6474
  685MOL0     H94512   7.099   5.823   6.988  2.1157  1.1899 -1.8669
  685MOL0     H94513   7.183   5.597   6.967  0.9962  2.9432 -0.1357
  685MOL0     H94514   5.964   4.726   6.795  0.5858 -1.4787 -0.7659
  685MOL0     H94515   5.745   4.848   6.867  0.2249 -0.0092 -0.8785
  685MOL0     H94516   5.271   4.943   6.661 -1.4604  0.3703 -0.5574
  685MOL0     H94517   5.117   5.124   6.723 -0.0127  0.6187  0.3317
  685MOL0     H94518   4.982   5.242   6.843  3.1632 -0.3317 -0.8330
  685MOL0     H94519   4.966   5.385   6.947 -2.0154  0.3984 -2.1896
  685MOL0     H94520   5.169   5.360   6.721  0.3026 -1.1989  1.6275
  685MOL0     H94521   5.166   5.486   6.845  0.0320  0.5495  0.9608
  685MOL0     H94522   4.930   5.428   6.670 -0.4627  1.3221 -1.6646
  685MOL0     H94523   4.957   5.570   6.774  0.4655  3.2292 -2.2958
  685MOL0     H94524   5.078   5.509   6.501  1.8487  1.5839 -0.1691
  685MOL0     H94525   5.183   5.584   6.611  1.0411 -2.2449 -4.5916
  685MOL0     H94526   4.924   5.872   6.454  0.2316  1.0709  0.9262
  685MOL0     H94527   5.318   5.142   7.103 -0.9162 -0.7806  1.0958
  685MOL0     H94528   5.512   5.042   7.152  0.8458  0.7735 -0.8805
  685MOL0     H94529   5.501   4.860   7.114 -2.0010  0.2969  0.5547
  685MOL0     H94530   5.602   4.968   7.030  0.9017 -0.9233  0.7204
  686MOL0     O94531   1.752   7.255  10.168 -0.4386  0.4642  0.6720
  686MOL0     C94532   1.644   7.206  10.177  0.1996 -0.5146 -0.9063
  686MOL0     O94533   1.614   7.081  10.219  0.3424 -0.1665 -0.8386
  686MOL0     C94534   1.733   7.011  10.240  0.2290 -0.3202  0.8678
  686MOL0     C94535   1.789   7.002  10.369 -0.1348 -0.4151 -0.6855
  686MOL0     C94536   1.915   6.946  10.389  0.2555  0.3016  0.0521
  686MOL0     C94537   1.989   6.893  10.277 -0.2557  0.2268  0.4918
  686MOL0     O94538   2.114   6.841  10.291 -0.0840  0.0086  0.0046
  686MOL0     C94539   2.184   6.846  10.417 -0.2231 -0.4209 -0.1052
  686MOL0     C94540   2.326   6.810  10.398  0.0266 -0.2644 -0.6616
  686MOL0     C94541   2.397   6.813  10.538 -1.5254 -0.8270 -1.1948
  686MOL0     C94542   2.543   6.775  10.515 -0.4704  0.5382 -0.1503
  686MOL0     C94543   2.623   6.799  10.645  0.3209  0.3728  0.1988
  686MOL0     C94544   2.771   6.805  10.623  0.2616 -0.0970  0.6315
  686MOL0     C94545   2.844   6.860  10.748  0.0018 -0.3833  0.4537
  686MOL0     C94546   2.998   6.849  10.735  0.0844 -0.6005 -0.6701
  686MOL0     N94547   3.048   6.710  10.746  0.1325  0.7752  0.3572
  686MOL0     C94548   3.135   6.661  10.655  0.0805  0.3793  0.4637
  686MOL0     C94549   3.159   6.537  10.707  0.8454 -0.0314 -0.5822
  686MOL0     C94550   3.235   6.429  10.630  0.8204 -0.3798 -0.7263
  686MOL0     C94551   3.375   6.392  10.694 -0.1201  0.3032  0.1912
  686MOL0     C94552   3.427   6.257  10.644 -0.6864  0.5628  0.1507
  686MOL0     C94553   3.545   6.248  10.544  0.0226 -0.0029 -0.0275
  686MOL0     O94554   3.674   6.293  10.587 -0.4100 -0.0189  0.4350
  686MOL0     C94555   3.733   6.387  10.507  0.3863  0.2608 -0.1544
  686MOL0     C94556   3.687   6.521  10.498  0.2448  0.1818 -0.0779
  686MOL0     C94557   3.764   6.616  10.420  0.3477  0.2789  0.5749
  686MOL0     C94558   3.713   6.760  10.404 -0.1640  1.3175 -0.8668
  686MOL0     C94559   3.873   6.568  10.354 -0.4848 -0.3599 -0.4602
  686MOL0     C94560   3.963   6.645  10.269  0.0055  0.0921 -0.4813
  686MOL0     O94561   4.024   6.566  10.163 -0.3510 -0.1601 -0.2863
  686MOL0     C94562   4.102   6.635  10.068 -0.2952 -0.2746  0.8847
  686MOL0     C94563   4.227   6.595  10.040  0.2969  0.8288  0.3574
  686MOL0     C94564   4.298   6.658   9.938 -0.2192  0.0339 -0.9690
  686MOL0     C94565   4.232   6.766   9.863  0.6653  0.8825 -1.1751
  686MOL0     O94566   4.289   6.843   9.772 -0.0385 -0.7969 -0.3204
  686MOL0     C94567   4.428   6.813   9.742 -0.2486 -0.3960 -0.3255
  686MOL0     C94568   4.484   6.905   9.628  0.2451  0.1246 -1.0994
  686MOL0     C94569   4.520   7.049   9.670 -0.5432  0.6235 -0.2734
  686MOL0     C94570   4.550   7.130   9.548  0.1012 -0.2727  0.1913
  686MOL0     C94571   4.565   7.277   9.574 -0.1081  0.5883  0.0412
  686MOL0     C94572   4.693   7.289   9.675 -0.4956 -1.4000  1.0879
  686MOL0     C94573   4.740   7.433   9.665  0.1703 -0.6489 -0.9269
  686MOL0     C94574   4.694   7.521   9.787  0.4935 -0.5535  0.0382
  686MOL0    Cl94575   4.732   7.432   9.942  0.0281  0.2157  0.2860
  686MOL0     C94576   4.095   6.792   9.885 -0.2094 -0.1447 -0.2131
  686MOL0     C94577   4.036   6.726   9.993  0.5243  0.2119  0.2379
  686MOL0     O94578   4.003   6.758  10.298 -0.2739  0.1364  0.7603
  686MOL0     C94579   3.916   6.434  10.372  0.1399  0.4169  0.5190
  686MOL0     C94580   3.846   6.344  10.438  0.2273 -0.9174 -0.4124
  686MOL0     N94581   3.095   6.515  10.826 -0.2711  0.2172 -0.1108
  686MOL0     N94582   3.033   6.625  10.852  0.6287  0.0855 -1.4831
  686MOL0     C94583   1.935   6.900  10.147  0.2862 -0.2062 -0.2548
  686MOL0     C94584   1.806   6.960  10.131  0.0138  0.6741 -0.0621
  686MOL0     C94585   1.519   7.276  10.128 -0.5579  0.7564  0.1270
  686MOL0     C94586   1.394   7.212  10.140 -0.4969 -0.7923  0.0619
  686MOL0     C94587   1.281   7.274  10.092 -1.1793  0.0379  0.7436
  686MOL0     C94588   1.288   7.409  10.045  0.0006 -0.6058 -0.1970
  686MOL0     O94589   1.179   7.474   9.984 -0.0289 -0.1787 -0.3687
  686MOL0     C94590   1.071   7.390   9.939  0.2384  0.3242 -0.3551
  686MOL0     C94591   1.102   7.302   9.810  0.5673 -0.2870  0.1030
  686MOL0     C94592   1.150   7.398   9.697  0.2802 -0.1334  0.2503
  686MOL0     C94593   1.188   7.315   9.569 -0.5640  0.0198  0.6619
  686MOL0     C94594   1.183   7.391   9.439 -0.2493  0.8330 -1.0710
  686MOL0     C94595   1.170   7.463   9.345 -0.1565 -0.5716 -0.3346
  686MOL0     C94596   1.408   7.473  10.040  1.1530 -0.4071 -0.1336
  686MOL0     C94597   1.525   7.409  10.065  0.8062 -0.5128 -0.5098
  686MOL0     C94598   1.646   7.482  10.030 -0.1113  0.4772 -0.6712
  686MOL0     H94599   1.724   7.024  10.453  0.6187 -0.3053 -0.1174
  686MOL0     H94600   1.954   6.931  10.489  0.7977 -0.4831 -0.2580
  686MOL0     H94601   2.131   6.793  10.497 -0.0936  1.5235  1.3416
  686MOL0     H94602   2.179   6.950  10.449 -1.7766 -0.1658 -1.0441
  686MOL0     H94603   2.336   6.707  10.362 -1.0869 -0.9395  0.8119
  686MOL0     H94604   2.380   6.877  10.332  1.3702 -1.0221 -0.3640
  686MOL0     H94605   2.386   6.916  10.573  2.0588 -1.4166  2.3513
  686MOL0     H94606   2.355   6.746  10.613  1.2641 -1.1673  0.1737
  686MOL0     H94607   2.542   6.673  10.478  0.5287 -0.0674  1.3918
  686MOL0     H94608   2.602   6.833  10.443  1.0693  1.2396  1.5784
  686MOL0     H94609   2.609   6.713  10.711  0.3864  1.5762  1.8437
  686MOL0     H94610   2.585   6.887  10.697  0.7787  0.5239  0.2895
  686MOL0     H94611   2.802   6.701  10.608 -0.5527 -0.2361 -0.1871
  686MOL0     H94612   2.791   6.871  10.539 -2.1884  0.9617  0.7825
  686MOL0     H94613   2.814   6.810  10.840  2.0849  2.1069  2.6588
  686MOL0     H94614   2.819   6.966  10.745  0.8245 -0.1275  1.6789
  686MOL0     H94615   3.027   6.898  10.642 -0.9198  0.8513 -0.2493
  686MOL0     H94616   3.046   6.912  10.810 -1.0813 -1.2641  0.6778
  686MOL0     H94617   3.159   6.701  10.557 -1.0694  1.6185  0.6492
  686MOL0     H94618   3.241   6.461  10.526  2.0194  0.8463 -0.3119
  686MOL0     H94619   3.167   6.344  10.626  2.3466 -1.7536  0.9340
  686MOL0     H94620   3.455   6.466  10.689  0.2601 -0.1471 -0.4461
  686MOL0     H94621   3.352   6.382  10.800 -0.1894  2.0353  0.3598
  686MOL0     H94622   3.471   6.215  10.735 -1.4839 -0.4105  0.1065
  686MOL0     H94623   3.345   6.187  10.628 -0.1773 -0.3163  1.2474
  686MOL0     H94624   3.555   6.147  10.503 -1.1557 -1.6737  3.4131
  686MOL0     H94625   3.507   6.316  10.467 -1.2142  1.1913  1.5704
  686MOL0     H94626   3.601   6.553  10.555 -0.4997 -2.7412  0.6147
  686MOL0     H94627   3.770   6.812  10.326 -1.2801  1.6436 -1.4820
  686MOL0     H94628   3.731   6.817  10.496 -1.1852  2.0402 -1.0963
  686MOL0     H94629   3.606   6.768  10.383 -0.8483 -1.2858  1.1283
  686MOL0     H94630   4.269   6.513  10.098 -0.7143 -0.1354 -0.2153
  686MOL0     H94631   4.404   6.634   9.929 -0.4156 -0.8568 -0.9896
  686MOL0     H94632   4.490   6.829   9.830 -1.0277  0.6921  0.0475
  686MOL0     H94633   4.442   6.710   9.709  0.3927  0.2025 -2.0548
  686MOL0     H94634   4.583   6.866   9.604  1.0642  0.7784  0.9842
  686MOL0     H94635   4.417   6.911   9.541  0.2911  2.8481 -1.0201
  686MOL0     H94636   4.615   7.045   9.723  0.8317  1.6644 -2.5257
  686MOL0     H94637   4.441   7.086   9.736  0.4873 -1.7509  2.4712
  686MOL0     H94638   4.466   7.114   9.479  3.3787 -0.5577 -4.1982
  686MOL0     H94639   4.634   7.090   9.490 -1.5282 -2.0895 -1.0865
  686MOL0     H94640   4.573   7.342   9.487  3.2678  1.5491  0.9366
  686MOL0     H94641   4.478   7.307   9.634  1.1690  1.8532  1.3304
  686MOL0     H94642   4.778   7.239   9.627  0.5399  2.0671 -1.0100
  686MOL0     H94643   4.692   7.244   9.775  1.1214 -2.1868  0.7855
  686MOL0     H94644   4.709   7.487   9.575 -0.2037  1.6467  0.4915
  686MOL0     H94645   4.848   7.438   9.677  0.3329 -1.7839 -1.7751
  686MOL0     H94646   4.585   7.532   9.779  0.7016  0.2629 -2.4537
  686MOL0     H94647   4.737   7.622   9.785  0.1526 -0.3301  1.9271
  686MOL0     H94648   4.040   6.867   9.830  0.1658 -0.0706 -0.4954
  686MOL0     H94649   3.932   6.747  10.016  0.2209  1.5856 -2.0954
  686MOL0     H94650   4.001   6.391  10.320 -0.8707 -0.7566 -0.2045
  686MOL0     H94651   3.884   6.243  10.449  0.9285 -0.3980  2.8324
  686MOL0     H94652   1.982   6.855  10.060 -1.1900  2.3538 -2.5578
  686MOL0     H94653   1.766   6.972  10.031  0.7593  3.7242 -0.1023
  686MOL0     H94654   1.383   7.118  10.193 -0.4005 -0.4077  0.7771
  686MOL0     H94655   1.184   7.226  10.081 -3.1501  4.0992 -2.1342
  686MOL0     H94656   1.036   7.323  10.018 -1.1558  0.0059 -1.2189
  686MOL0     H94657   0.982   7.450   9.918  1.7256  1.8437 -2.8004
  686MOL0     H94658   1.003   7.266   9.782 -0.3797  0.3101  2.4565
  686MOL0     H94659   1.177   7.229   9.842  0.9179  0.0211 -0.0113
  686MOL0     H94660   1.083   7.481   9.672 -2.6856 -2.1279  1.1699
  686MOL0     H94661   1.244   7.445   9.730 -0.2813  1.8593 -0.7709
  686MOL0     H94662   1.122   7.231   9.544  1.7552 -1.6514 -0.2252
  686MOL0     H94663   1.288   7.270   9.578 -0.1450  0.7750 -0.1323
  686MOL0     H94664   1.148   7.524   9.260  2.1884 -0.4274 -0.9005
  686MOL0     H94665   1.409   7.571   9.993  0.1866  0.1662  0.9720
  686MOL0     H94666   1.628   7.575   9.974 -2.9002  0.6734  0.3691
  686MOL0     H94667   1.706   7.510  10.117 -1.3373  1.8509 -0.2339
  686MOL0     H94668   1.702   7.416   9.963  0.6468  0.9001 -0.4643
  687MOL0     O94669   6.252   9.676   8.340 -0.0206  0.3169  0.3736
  687MOL0     C94670   6.199   9.792   8.351 -0.1522  0.4673  0.6245
  687MOL0     O94671   6.266   9.913   8.370 -0.2288  0.2010 -0.1298
  687MOL0     C94672   6.405   9.928   8.354 -0.1882  0.6024  0.5773
  687MOL0     C94673   6.467  10.043   8.414  0.4536  0.1505 -0.9609
  687MOL0     C94674   6.605  10.063   8.405 -0.5175  0.1774  0.1041
  687MOL0     C94675   6.686   9.975   8.329  0.4155 -0.7569  0.6366
  687MOL0     O94676   6.818  10.012   8.314 -0.6188  0.0020 -0.6243
  687MOL0     C94677   6.884   9.999   8.188 -0.1914  0.6964  0.1640
  687MOL0     C94678   7.004  10.092   8.186 -0.4711  0.1641  0.5451
  687MOL0     C94679   7.125  10.029   8.265 -0.0332  0.0171  0.4444
  687MOL0     C94680   7.248  10.117   8.292 -0.4823  0.3691 -0.8177
  687MOL0     C94681   7.358  10.041   8.353  0.0669 -0.5588  0.5132
  687MOL0     C94682   7.443   9.969   8.253  0.0989 -0.0536  0.0034
  687MOL0     C94683   7.542   9.866   8.315 -0.5653 -0.5760 -0.4846
  687MOL0     C94684   7.634   9.803   8.209  0.7928 -0.4558  0.7404
  687MOL0     N94685   7.747   9.725   8.264 -0.3321  0.5538  0.3035
  687MOL0     C94686   7.805   9.634   8.172  0.1549 -0.1376  0.1234
  687MOL0     C94687   7.933   9.634   8.208  0.3195  0.1510  0.3475
  687MOL0     C94688   8.050   9.552   8.157 -0.1768  0.2582 -0.0386
  687MOL0     C94689   8.139   9.647   8.067  0.5575 -0.3769 -0.0093
  687MOL0     C94690   8.222   9.748   8.149  0.0283  0.5690 -0.2500
  687MOL0     C94691   8.367   9.719   8.147  0.4328 -0.2196  0.8696
  687MOL0     O94692   8.428   9.773   8.024 -0.7375  0.4009  0.0442
  687MOL0     C94693   8.553   9.828   8.017  0.5824  0.3389  0.8393
  687MOL0     C94694   8.655   9.752   7.983  0.5571 -0.0598  0.4717
  687MOL0     C94695   8.787   9.794   7.962 -0.0357 -0.2403 -0.2136
  687MOL0     C94696   8.887   9.694   7.921  0.6803  0.5516  0.4431
  687MOL0     C94697   8.822   9.928   8.003  0.7440  1.0998 -0.3894
  687MOL0     C94698   8.955   9.998   8.003  0.4043 -0.2663 -0.6440
  687MOL0     O94699   8.953  10.130   8.019 -0.5312 -0.2906 -0.3546
  687MOL0     C94700   9.061  10.191   8.072 -1.3139 -1.2690 -0.7343
  687MOL0     C94701   9.178  10.203   7.998 -0.0531  0.6664  0.0810
  687MOL0     C94702   9.289  10.272   8.052 -0.1444 -0.3354  0.0741
  687MOL0     C94703   9.287  10.319   8.185 -0.0840  0.6030  0.2782
  687MOL0     O94704   9.393  10.387   8.235  0.1531 -0.0570  0.2263
  687MOL0     C94705   9.517  10.329   8.219  0.2888  0.1386  0.4103
  687MOL0     C94706   9.600  10.358   8.351  1.0266 -0.7971 -0.6714
  687MOL0     C94707   9.726  10.280   8.361  0.1468 -0.1743  0.9399
  687MOL0     C94708   9.824  10.311   8.241 -0.0373  0.9868  0.8633
  687MOL0     C94709   9.964  10.258   8.271  0.0508 -0.4330  0.2197
  687MOL0     C94710  10.065  10.307   8.178 -0.7032 -0.5404 -0.2241
  687MOL0     C94711  10.194  10.272   8.246  0.5382 -0.1965  0.8690
  687MOL0     C94712  10.311  10.277   8.139  0.9782 -0.4104  0.6551
  687MOL0    Cl94713  10.335  10.444   8.079 -0.2238 -0.2892  0.1535
  687MOL0     C94714   9.170  10.302   8.256  0.4738  0.8978 -0.3351
  687MOL0     C94715   9.056  10.241   8.198 -0.3352 -0.6399 -0.0001
  687MOL0     O94716   9.054   9.925   7.982  0.3820 -0.2591 -0.4700
  687MOL0     C94717   8.709  10.012   8.030  0.2500 -0.2361 -0.6766
  687MOL0     C94718   8.578   9.960   8.051  0.5172 -0.9372 -0.6979
  687MOL0     N94719   7.949   9.726   8.312 -0.3786  0.2485  0.5997
  687MOL0     N94720   7.835   9.780   8.345 -0.4791 -0.4905  0.5304
  687MOL0     C94721   6.624   9.871   8.255 -0.0495  0.5948  0.8163
  687MOL0     C94722   6.486   9.850   8.261  0.3038 -0.9906 -0.0265
  687MOL0     C94723   6.057   9.797   8.347 -0.3528 -1.0876 -0.7159
  687MOL0     C94724   5.989   9.861   8.455  0.1135 -0.3340  0.6952
  687MOL0     C94725   5.849   9.866   8.462 -0.3860  0.0695 -0.4746
  687MOL0     C94726   5.768   9.809   8.364  0.2362  0.9205  0.2765
  687MOL0     O94727   5.630   9.838   8.380  0.6115  0.5591  0.3104
  687MOL0     C94728   5.549   9.839   8.258 -0.7084  0.1445 -0.4248
  687MOL0     C94729   5.517   9.980   8.210 -0.4866 -0.3290 -0.4353
  687MOL0     C94730   5.604  10.032   8.095  0.6688  0.8794 -1.1490
  687MOL0     C94731   5.596  10.184   8.086 -0.9739  0.2198  0.2641
  687MOL0     C94732   5.712  10.234   7.999  1.4417 -0.6550 -0.6847
  687MOL0     C94733   5.788  10.289   7.928 -0.5033  1.0910  0.1542
  687MOL0     C94734   5.835   9.744   8.252  0.5492 -1.1405 -0.0905
  687MOL0     C94735   5.975   9.732   8.243 -0.8782  0.1981  0.2228
  687MOL0     C94736   6.031   9.646   8.133 -0.1497 -0.0817 -0.3465
  687MOL0     H94737   6.400  10.108   8.469 -1.0692 -2.7795  0.9440
  687MOL0     H94738   6.660  10.144   8.451  0.1042  0.0895 -0.4697
  687MOL0     H94739   6.816  10.014   8.104 -1.0828 -3.6906 -0.1177
  687MOL0     H94740   6.925   9.898   8.180  2.3137  1.6487  0.0380
  687MOL0     H94741   7.032  10.116   8.083 -2.4012  2.8570  0.5364
  687MOL0     H94742   6.974  10.181   8.243 -0.1716 -0.5544  1.8584
  687MOL0     H94743   7.094  10.000   8.365 -3.8327  1.6517 -0.0844
  687MOL0     H94744   7.144   9.933   8.216  2.0979 -0.2381  1.6519
  687MOL0     H94745   7.285  10.152   8.195 -3.5413  0.5437 -2.0493
  687MOL0     H94746   7.219  10.204   8.352 -0.7260  0.4416 -1.0403
  687MOL0     H94747   7.321   9.978   8.434 -2.1268  0.4558  0.3616
  687MOL0     H94748   7.427  10.106   8.407 -0.9468 -1.0151  2.4237
  687MOL0     H94749   7.364   9.923   8.193  0.1843  1.7195 -1.5579
  687MOL0     H94750   7.496  10.044   8.194 -0.6313  0.1800 -0.3676
  687MOL0     H94751   7.499   9.791   8.382  0.7049 -1.6035 -0.7659
  687MOL0     H94752   7.606   9.929   8.378 -0.2037 -1.8222  0.4492
  687MOL0     H94753   7.571   9.737   8.149 -0.9352  0.9086  1.0159
  687MOL0     H94754   7.677   9.885   8.150 -0.9149  1.6331  2.2692
  687MOL0     H94755   7.762   9.584   8.086 -0.6167  0.2608  0.2627
  687MOL0     H94756   8.014   9.466   8.100  1.5781 -1.5139  1.3723
  687MOL0     H94757   8.114   9.504   8.231  0.7476 -2.3751 -2.3579
  687MOL0     H94758   8.196   9.585   7.997 -0.9877 -0.9647 -0.8065
  687MOL0     H94759   8.069   9.701   8.003 -1.3110 -1.2766  1.1829
  687MOL0     H94760   8.204   9.846   8.104  1.4367  0.8578 -0.2408
  687MOL0     H94761   8.188   9.734   8.252 -1.6671 -0.5239 -0.9094
  687MOL0     H94762   8.395   9.761   8.244 -0.4101  0.6834  0.7353
  687MOL0     H94763   8.381   9.612   8.161  2.6534 -0.0891  0.1640
  687MOL0     H94764   8.620   9.654   7.955  1.6721 -0.3420 -0.0192
  687MOL0     H94765   8.827   9.619   7.869 -1.6671  1.4967  1.6170
  687MOL0     H94766   8.929   9.646   8.010  0.6170  0.6869  0.5472
  687MOL0     H94767   8.961   9.733   7.851  0.5324 -1.5556 -0.9680
  687MOL0     H94768   9.178  10.164   7.897  0.4177  4.3592 -1.5191
  687MOL0     H94769   9.370  10.289   7.981 -1.2790  6.1930 -0.2764
  687MOL0     H94770   9.506  10.220   8.212 -0.4120  0.2883 -1.8217
  687MOL0     H94771   9.562  10.351   8.122  2.0944 -3.0303  0.3868
  687MOL0     H94772   9.614  10.464   8.376 -0.8652 -0.8006  0.6635
  687MOL0     H94773   9.536  10.322   8.432  2.0171  0.7387  0.8806
  687MOL0     H94774   9.709  10.173   8.377  3.3743 -0.8989  0.1420
  687MOL0     H94775   9.777  10.321   8.449 -1.0723  2.1202  0.6584
  687MOL0     H94776   9.832  10.420   8.238 -1.3344  1.2259  3.6137
  687MOL0     H94777   9.798  10.259   8.148  1.3303 -1.8035  1.9027
  687MOL0     H94778   9.986  10.298   8.370 -0.9149  1.0751 -0.1472
  687MOL0     H94779   9.974  10.149   8.273 -0.7758 -0.6677 -2.9187
  687MOL0     H94780  10.047  10.414   8.167 -0.4625 -0.0697  2.9633
  687MOL0     H94781  10.068  10.256   8.081 -1.3773 -3.6423  1.2705
  687MOL0     H94782  10.196  10.166   8.270  2.5111 -0.6664 -1.0356
  687MOL0     H94783  10.223  10.332   8.332 -0.7037  0.3895  0.9054
  687MOL0     H94784  10.290  10.217   8.050  4.4363  0.2019 -0.7313
  687MOL0     H94785  10.403  10.236   8.181  0.6436 -0.2746  1.5288
  687MOL0     H94786   9.179  10.349   8.354  2.2174 -0.8272  0.4011
  687MOL0     H94787   8.969  10.240   8.263 -0.0259  3.2794  0.6735
  687MOL0     H94788   8.725  10.117   8.051  0.3616  0.0443 -2.0961
  687MOL0     H94789   8.498  10.032   8.069  1.6479  0.0394  0.6394
  687MOL0     H94790   6.683   9.800   8.198  0.4161  0.6614  1.2139
  687MOL0     H94791   6.440   9.759   8.222  0.7112  0.4509 -4.3743
  687MOL0     H94792   6.046   9.913   8.531  2.3565  1.3066 -1.9034
  687MOL0     H94793   5.799   9.927   8.536  1.5321  3.1515 -1.5405
  687MOL0     H94794   5.582   9.781   8.172 -1.3190 -0.7666 -0.0560
  687MOL0     H94795   5.454   9.787   8.274 -0.9828 -0.2323 -2.9965
  687MOL0     H94796   5.518  10.052   8.293 -1.3359 -1.4946  0.6299
  687MOL0     H94797   5.414   9.978   8.172  0.1405 -3.1098 -2.2917
  687MOL0     H94798   5.704   9.990   8.110 -0.0681  0.0361  2.1875
  687MOL0     H94799   5.558   9.996   8.002 -1.0482  2.4564 -0.9503
  687MOL0     H94800   5.605  10.219   8.189  0.7345 -0.6669  0.4539
  687MOL0     H94801   5.499  10.209   8.041 -1.9100 -1.7986  1.0297
  687MOL0     H94802   5.854  10.336   7.858 -0.9537  1.4582 -0.0249
  687MOL0     H94803   5.773   9.701   8.173 -0.4068  1.1574 -0.6527
  687MOL0     H94804   6.113   9.700   8.085 -0.0231 -0.9709 -1.1558
  687MOL0     H94805   6.054   9.548   8.175 -3.3860 -0.6445  0.3337
  687MOL0     H94806   5.956   9.624   8.057  0.1801 -1.5137 -0.2922
  688MOL0     O94807   8.320   4.805   4.232 -0.6846 -0.5404  0.7078
  688MOL0     C94808   8.334   4.690   4.267 -0.5929  0.8037 -0.4114
  688MOL0     O94809   8.298   4.637   4.395 -0.7126  0.3223  0.6376
  688MOL0     C94810   8.225   4.722   4.469  0.6275 -0.3687 -0.9088
  688MOL0     C94811   8.084   4.713   4.483  0.3039 -0.5678  0.3220
  688MOL0     C94812   8.015   4.801   4.569  0.8680  0.1919  1.0203
  688MOL0     C94813   8.085   4.889   4.648  0.3212  0.0175 -0.0807
  688MOL0     O94814   8.013   4.981   4.731 -0.2921  0.1735  0.1245
  688MOL0     C94815   7.894   5.031   4.665  0.2778 -0.9620  0.0787
  688MOL0     C94816   7.865   5.177   4.707 -0.0952  0.2563  0.7762
  688MOL0     C94817   7.973   5.273   4.678  0.0604 -0.0037 -0.0845
  688MOL0     C94818   7.930   5.409   4.747  0.8819 -0.1095  0.0321
  688MOL0     C94819   8.046   5.490   4.787  0.6663 -0.1980 -0.2242
  688MOL0     C94820   8.128   5.530   4.663 -0.0839  0.4414  0.5097
  688MOL0     C94821   8.227   5.631   4.702 -1.3871  0.3119  0.3867
  688MOL0     C94822   8.186   5.778   4.699 -0.0586  0.3256 -0.3134
  688MOL0     N94823   8.308   5.868   4.728  0.9780 -0.3714 -0.4748
  688MOL0     C94824   8.390   5.931   4.637  1.4157  0.1967  0.9327
  688MOL0     C94825   8.482   5.987   4.717 -0.1673 -0.5846  0.4274
  688MOL0     C94826   8.596   6.069   4.663 -0.5173  0.2796  0.3098
  688MOL0     C94827   8.731   6.035   4.727  0.2755  0.0825  0.8670
  688MOL0     C94828   8.835   6.146   4.686 -0.1938 -0.4057  0.5260
  688MOL0     C94829   8.969   6.148   4.763  0.0692 -0.7101 -0.0495
  688MOL0     O94830   9.024   6.023   4.739  0.4847 -0.5108  0.2920
  688MOL0     C94831   9.161   6.008   4.743  0.7087  0.5173 -0.6943
  688MOL0     C94832   9.215   5.887   4.692 -0.0703  0.2755  0.1110
  688MOL0     C94833   9.344   5.865   4.696  0.0327 -0.1979  0.8129
  688MOL0     C94834   9.376   5.726   4.654 -0.1122  0.8266 -0.6636
  688MOL0     C94835   9.431   5.949   4.756 -0.8954 -0.9264  0.1404
  688MOL0     C94836   9.576   5.914   4.765 -0.6409 -0.9467  0.0119
  688MOL0     O94837   9.636   5.960   4.877  0.6583 -0.1031 -0.3525
  688MOL0     C94838   9.768   5.916   4.921  0.9506 -0.2533 -0.2959
  688MOL0     C94839   9.794   5.784   4.966  0.8142  0.3771  0.5158
  688MOL0     C94840   9.925   5.753   5.018 -0.4362 -0.3490  0.8914
  688MOL0     C94841  10.015   5.855   5.032 -0.6025 -0.7058 -0.5405
  688MOL0     O94842  10.137   5.828   5.091  0.3915 -0.1217  0.0818
  688MOL0     C94843  10.186   5.927   5.178  0.2982 -0.3540 -0.1496
  688MOL0     C94844  10.316   5.863   5.235 -0.1026  0.2852 -0.4983
  688MOL0     C94845  10.311   5.722   5.298 -0.0331 -0.0287 -0.0805
  688MOL0     C94846  10.276   5.736   5.452  0.4734  0.6126  0.3567
  688MOL0     C94847  10.260   5.600   5.535 -0.2889  0.2111 -0.4889
  688MOL0     C94848  10.380   5.504   5.543 -0.5887  0.0691 -0.0160
  688MOL0     C94849  10.502   5.574   5.607  0.4540  0.6374  0.9064
  688MOL0     C94850  10.619   5.482   5.613  0.2474 -0.4628 -0.0820
  688MOL0    Cl94851  10.589   5.307   5.611 -0.3385 -0.1236 -0.2225
  688MOL0     C94852   9.983   5.991   4.987 -0.0613 -1.0775 -0.5292
  688MOL0     C94853   9.863   6.010   4.921  0.3086 -0.1191  0.2852
  688MOL0     O94854   9.631   5.867   4.666 -0.1336  0.4170 -0.0349
  688MOL0     C94855   9.386   6.070   4.793 -0.1485  0.0006 -0.4469
  688MOL0     C94856   9.251   6.104   4.792 -0.7328 -0.8381 -0.5458
  688MOL0     N94857   8.449   5.957   4.851 -0.7544 -0.4227 -0.5258
  688MOL0     N94858   8.344   5.888   4.855  0.4814  0.1758 -0.3144
  688MOL0     C94859   8.224   4.892   4.636 -0.0274 -0.6734  0.9767
  688MOL0     C94860   8.295   4.809   4.553 -0.5126 -0.2867 -0.0136
  688MOL0     C94861   8.410   4.593   4.186  1.1873  0.1973  0.2919
  688MOL0     C94862   8.422   4.455   4.231 -0.1634  0.1346 -0.6031
  688MOL0     C94863   8.481   4.359   4.149 -0.0441  0.4630  0.8932
  688MOL0     C94864   8.548   4.391   4.034  0.1649 -0.4296 -0.2469
  688MOL0     O94865   8.615   4.306   3.952 -0.5952 -0.1167  0.1137
  688MOL0     C94866   8.677   4.189   4.004 -0.3707 -0.5845  0.8199
  688MOL0     C94867   8.801   4.229   4.085 -0.7460  0.0229 -0.2974
  688MOL0     C94868   8.853   4.116   4.169  0.2643 -0.7588 -0.3365
  688MOL0     C94869   8.928   4.189   4.286  0.1708 -0.2995  0.8539
  688MOL0     C94870   9.020   4.114   4.371 -0.4011  0.2671 -0.5487
  688MOL0     C94871   9.093   4.042   4.441  0.2405 -0.5818  0.6033
  688MOL0     C94872   8.537   4.524   3.988  0.3498  0.2415 -0.9761
  688MOL0     C94873   8.468   4.625   4.062  0.1649 -0.2225 -0.2462
  688MOL0     C94874   8.456   4.758   3.981 -0.4035  0.6081  0.7224
  688MOL0     H94875   8.036   4.643   4.416  1.5470  0.0266 -1.2539
  688MOL0     H94876   7.906   4.796   4.568  0.8063  1.2407  0.4993
  688MOL0     H94877   7.810   4.962   4.679 -0.1483 -0.6633 -0.8893
  688MOL0     H94878   7.901   5.054   4.559 -5.4787  2.4870 -0.0053
  688MOL0     H94879   7.767   5.210   4.670  0.1398  0.5357  0.4015
  688MOL0     H94880   7.847   5.166   4.814 -3.4687 -1.5263  0.1938
  688MOL0     H94881   8.076   5.249   4.709 -0.8744 -2.0813  1.6736
  688MOL0     H94882   7.968   5.301   4.573 -0.1751  0.3029  0.0089
  688MOL0     H94883   7.864   5.468   4.683  3.2338  1.6269 -0.9345
  688MOL0     H94884   7.870   5.389   4.835  0.7828  0.1621  0.0258
  688MOL0     H94885   8.092   5.439   4.872 -0.8696 -2.0670 -0.4237
  688MOL0     H94886   8.005   5.575   4.841  0.9582 -1.2121  1.6698
  688MOL0     H94887   8.170   5.440   4.617 -1.4577 -1.4369  2.7595
  688MOL0     H94888   8.063   5.562   4.581  0.9320 -1.3008 -1.0829
  688MOL0     H94889   8.310   5.634   4.631 -1.1864 -0.7479  0.5593
  688MOL0     H94890   8.254   5.594   4.801 -1.7718 -0.4725  0.2088
  688MOL0     H94891   8.142   5.802   4.602 -3.4288 -0.6815  0.7990
  688MOL0     H94892   8.103   5.792   4.769 -0.7681 -0.6779 -0.9220
  688MOL0     H94893   8.385   5.929   4.529 -1.4843  0.0300  1.0052
  688MOL0     H94894   8.582   6.177   4.673 -0.1275  0.3154  0.5046
  688MOL0     H94895   8.622   6.049   4.559  0.4074 -0.3686  0.6470
  688MOL0     H94896   8.719   6.034   4.835  0.3862 -2.2106  0.9054
  688MOL0     H94897   8.761   5.934   4.698 -0.3222 -0.1016  0.8710
  688MOL0     H94898   8.858   6.133   4.580  2.3704  1.7007  0.7195
  688MOL0     H94899   8.806   6.252   4.690  2.3210  0.3943 -0.3584
  688MOL0     H94900   9.027   6.232   4.725  0.1748  1.3786  4.0777
  688MOL0     H94901   8.953   6.161   4.871 -0.8494 -1.1473 -0.1208
  688MOL0     H94902   9.153   5.809   4.648 -1.4247  1.3174  0.1077
  688MOL0     H94903   9.473   5.681   4.680  0.6550  1.9106 -1.5668
  688MOL0     H94904   9.375   5.717   4.545  0.9230 -0.2887 -0.6113
  688MOL0     H94905   9.300   5.661   4.697  1.5190 -0.1801  0.8284
  688MOL0     H94906   9.722   5.702   4.967 -0.5488  1.4491 -1.7336
  688MOL0     H94907   9.950   5.657   5.063  1.0918  0.5014  1.9598
  688MOL0     H94908  10.222   6.012   5.119  1.1956 -1.2301 -0.8987
  688MOL0     H94909  10.112   5.958   5.252  0.2391  1.3519 -0.8903
  688MOL0     H94910  10.387   5.851   5.153  0.0069 -2.4852 -0.0725
  688MOL0     H94911  10.358   5.928   5.312 -1.6174  0.6013  0.0953
  688MOL0     H94912  10.410   5.675   5.294  0.5541  1.1816 -0.2208
  688MOL0     H94913  10.231   5.658   5.259 -1.9727  0.6167  2.5437
  688MOL0     H94914  10.181   5.790   5.451 -0.4849 -1.0183 -0.3422
  688MOL0     H94915  10.350   5.799   5.502  1.4547 -0.8664  0.8382
  688MOL0     H94916  10.226   5.643   5.630  2.0575  0.7887  0.1719
  688MOL0     H94917  10.181   5.543   5.486  0.6566 -0.2297 -1.5500
  688MOL0     H94918  10.405   5.477   5.440 -0.3922 -3.2237  0.7718
  688MOL0     H94919  10.352   5.407   5.585  1.0211 -0.4337 -0.0402
  688MOL0     H94920  10.468   5.599   5.708  0.3008  0.3388  0.9298
  688MOL0     H94921  10.530   5.665   5.554  1.3164 -1.2747 -2.1306
  688MOL0     H94922  10.674   5.512   5.703  1.1034  2.4394 -1.4546
  688MOL0     H94923  10.687   5.502   5.530  1.6801 -1.9166  0.6872
  688MOL0     H94924  10.056   6.068   5.010  1.1748 -2.5106  0.6186
  688MOL0     H94925   9.837   6.111   4.891 -3.0172 -0.0759  2.6990
  688MOL0     H94926   9.453   6.142   4.839 -1.4330  1.4399 -0.7707
  688MOL0     H94927   9.219   6.201   4.830 -4.3826 -1.5869 -1.3675
  688MOL0     H94928   8.272   4.964   4.702 -1.4393  0.5231  0.7414
  688MOL0     H94929   8.403   4.812   4.550 -0.3961 -1.5611  1.3905
  688MOL0     H94930   8.385   4.435   4.331  0.9266  3.4978  0.6273
  688MOL0     H94931   8.478   4.253   4.171 -0.0575 -0.5899 -3.3842
  688MOL0     H94932   8.610   4.128   4.066 -0.3486 -1.4112  0.0503
  688MOL0     H94933   8.702   4.131   3.915 -0.8380  1.5113 -0.7337
  688MOL0     H94934   8.777   4.318   4.144 -0.2159 -0.4979  0.7170
  688MOL0     H94935   8.885   4.266   4.025 -0.3555 -0.6184 -0.1576
  688MOL0     H94936   8.773   4.061   4.220 -0.7190  0.5016 -0.4811
  688MOL0     H94937   8.917   4.051   4.108  0.0124 -1.6149  0.2814
  688MOL0     H94938   8.854   4.234   4.353 -0.9573 -2.8014  1.3875
  688MOL0     H94939   8.991   4.272   4.251  0.4115 -0.1448  1.6215
  688MOL0     H94940   9.135   3.977   4.514  0.8907 -0.6929  0.1387
  688MOL0     H94941   8.581   4.550   3.893  0.1101 -1.1630 -1.4914
  688MOL0     H94942   8.350   4.765   3.955  0.0646  2.0829 -0.9679
  688MOL0     H94943   8.486   4.845   4.039 -1.4248  4.1180 -3.4591
  688MOL0     H94944   8.521   4.756   3.893 -0.9454  0.3084  0.3185
  689MOL0     O94945   6.922   7.004   8.919  0.2531  0.9652 -0.1301
  689MOL0     C94946   6.841   6.974   8.834 -0.4436  0.0382  0.5380
  689MOL0     O94947   6.870   6.941   8.701 -0.2142  0.8018 -0.1571
  689MOL0     C94948   6.999   6.926   8.668  0.1128  0.9246  0.4573
  689MOL0     C94949   7.077   6.824   8.716  0.0756  1.0283 -0.8809
  689MOL0     C94950   7.211   6.824   8.696 -0.3404  0.7104 -0.4538
  689MOL0     C94951   7.269   6.909   8.610  0.2236  0.9388  1.2823
  689MOL0     O94952   7.404   6.894   8.575 -0.1254 -0.1175  0.0667
  689MOL0     C94953   7.476   7.008   8.530  0.3892 -0.5008 -0.0076
  689MOL0     C94954   7.620   7.002   8.578  0.7568  0.0509 -0.6365
  689MOL0     C94955   7.705   7.103   8.511 -0.5069  0.3579 -0.3718
  689MOL0     C94956   7.844   7.103   8.572  0.4512 -0.2105  0.7472
  689MOL0     C94957   7.921   6.973   8.534  0.6553  0.1812  0.0041
  689MOL0     C94958   8.064   6.982   8.596 -0.7742  0.1294 -0.0792
  689MOL0     C94959   8.136   6.846   8.599  0.8191 -0.9899 -1.0837
  689MOL0     C94960   8.253   6.841   8.694 -0.3592  0.2842 -0.1668
  689MOL0     N94961   8.362   6.936   8.662  0.3424 -0.3563  0.4972
  689MOL0     C94962   8.461   6.918   8.569 -0.1745 -1.0682 -0.1324
  689MOL0     C94963   8.548   7.022   8.590  0.0922  0.0179  1.3764
  689MOL0     C94964   8.678   7.041   8.519 -0.3460 -0.2740  0.6369
  689MOL0     C94965   8.804   7.000   8.600  0.8696  0.3104 -0.3018
  689MOL0     C94966   8.811   7.086   8.726  0.6420 -0.0497 -0.0891
  689MOL0     C94967   8.949   7.065   8.785 -0.4022 -0.3255  0.6415
  689MOL0     O94968   9.041   7.142   8.700 -0.2144 -0.3113 -0.4052
  689MOL0     C94969   9.173   7.141   8.741  0.3986 -0.4622 -0.2137
  689MOL0     C94970   9.211   7.090   8.868 -0.1174 -0.1732 -0.3066
  689MOL0     C94971   9.352   7.075   8.900  0.0421  0.6207 -0.3518
  689MOL0     C94972   9.388   7.002   9.022 -0.0263  0.0387  0.1707
  689MOL0     C94973   9.442   7.120   8.801 -0.0225 -0.2483  0.3709
  689MOL0     C94974   9.588   7.103   8.827  0.5883 -0.6355  0.6092
  689MOL0     O94975   9.659   7.092   8.717 -0.5640 -0.1378  0.2506
  689MOL0     C94976   9.787   7.041   8.728 -0.6841  0.7754  0.5115
  689MOL0     C94977   9.823   6.908   8.769 -0.5222  0.2156  0.2439
  689MOL0     C94978   9.957   6.864   8.792 -0.6039 -0.7180  0.4672
  689MOL0     C94979  10.054   6.959   8.771  0.0572  0.0924 -0.5888
  689MOL0     O94980  10.192   6.924   8.784  0.2062  0.1111  0.0708
  689MOL0     C94981  10.229   6.808   8.865 -0.1067 -0.3475 -0.1620
  689MOL0     C94982  10.377   6.806   8.888 -0.1800 -0.6150  0.5972
  689MOL0     C94983  10.450   6.785   8.754  0.0273 -0.1582 -0.1823
  689MOL0     C94984  10.602   6.772   8.790  0.1131 -0.5055  0.2262
  689MOL0     C94985  10.696   6.746   8.660  0.3371 -0.4611 -0.0038
  689MOL0     C94986  10.833   6.729   8.705 -0.3287  0.5078 -0.6242
  689MOL0     C94987  10.895   6.862   8.757  0.4342 -0.1753  0.0456
  689MOL0     C94988  11.037   6.818   8.821 -0.4161 -0.4356 -0.4257
  689MOL0    Cl94989  11.129   6.966   8.880  0.1299  0.2270  0.2543
  689MOL0     C94990  10.023   7.085   8.705 -1.2986  0.2237 -0.7273
  689MOL0     C94991   9.892   7.126   8.696  0.1839  0.8953 -0.3491
  689MOL0     O94992   9.637   7.091   8.940  0.0122  0.3456  0.7675
  689MOL0     C94993   9.400   7.169   8.674 -0.6329 -0.3500 -0.1656
  689MOL0     C94994   9.267   7.179   8.646  0.3208  0.4307  0.4965
  689MOL0     N94995   8.500   7.105   8.687 -0.1771 -0.0375  0.0697
  689MOL0     N94996   8.387   7.052   8.724 -0.2140 -0.0788  0.3817
  689MOL0     C94997   7.193   7.003   8.538  0.2543 -0.5578  0.0274
  689MOL0     C94998   7.059   7.006   8.567  1.4793  0.3967 -0.3603
  689MOL0     C94999   6.693   6.991   8.857  0.6286 -1.0378 -0.1695
  689MOL0     C95000   6.610   6.928   8.762 -0.3956  0.7035  0.1228
  689MOL0     C95001   6.468   6.916   8.781  0.0073 -0.0848  0.7404
  689MOL0     C95002   6.404   6.967   8.892 -0.1864 -0.9598 -0.1160
  689MOL0     O95003   6.267   6.965   8.920 -0.8169  0.4187 -0.3652
  689MOL0     C95004   6.184   6.980   8.804 -0.1010  0.9179  0.7085
  689MOL0     C95005   6.037   6.986   8.830 -0.4105 -0.6632 -0.6784
  689MOL0     C95006   5.955   6.944   8.719  0.1000 -0.4026  0.8936
  689MOL0     C95007   5.812   6.992   8.742  0.2363  0.6909 -0.0042
  689MOL0     C95008   5.738   6.925   8.848  0.1561 -0.0058  0.6585
  689MOL0     C95009   5.669   6.887   8.937  0.2482  0.1866 -0.8054
  689MOL0     C95010   6.485   7.037   8.984 -0.2766  0.5628 -0.8708
  689MOL0     C95011   6.622   7.043   8.975 -0.3533 -0.1137 -0.4146
  689MOL0     C95012   6.705   7.087   9.092  0.1105  0.5114 -0.6627
  689MOL0     H95013   7.037   6.757   8.791 -0.8015  0.1795 -2.0711
  689MOL0     H95014   7.272   6.746   8.741  1.1936 -0.6996 -4.5597
  689MOL0     H95015   7.432   7.107   8.547  0.2997 -0.4351 -0.6005
  689MOL0     H95016   7.474   7.001   8.421  0.8518  0.4856 -0.0870
  689MOL0     H95017   7.617   7.021   8.685 -2.8550 -2.3382 -0.1503
  689MOL0     H95018   7.655   6.899   8.560  1.6034  0.5184 -1.8383
  689MOL0     H95019   7.713   7.099   8.402  1.6710 -0.7905 -0.2178
  689MOL0     H95020   7.663   7.201   8.536 -1.3295 -0.7912  3.4760
  689MOL0     H95021   7.902   7.189   8.537 -2.0134  1.2661  0.0718
  689MOL0     H95022   7.832   7.097   8.680  0.4126 -2.1140  0.6738
  689MOL0     H95023   7.931   6.958   8.426  0.2635 -2.7807  0.3076
  689MOL0     H95024   7.868   6.888   8.577 -0.5469  0.5023 -0.7906
  689MOL0     H95025   8.129   7.050   8.540  0.3744 -0.0555  0.9971
  689MOL0     H95026   8.054   7.026   8.696  0.4564 -0.9602  0.5469
  689MOL0     H95027   8.166   6.824   8.496 -1.3820 -4.0259 -1.2013
  689MOL0     H95028   8.058   6.780   8.636 -0.1591  0.0399 -1.2468
  689MOL0     H95029   8.216   6.855   8.796  0.9386 -1.4452  0.5945
  689MOL0     H95030   8.282   6.736   8.684 -1.4180 -0.2124  1.4923
  689MOL0     H95031   8.467   6.836   8.498 -4.0906 -1.6202 -0.0915
  689MOL0     H95032   8.683   7.141   8.477 -2.8859 -1.5476 -3.1908
  689MOL0     H95033   8.688   6.977   8.431  1.4366 -1.6145  1.7350
  689MOL0     H95034   8.813   6.894   8.627  3.9170  0.3782 -0.6544
  689MOL0     H95035   8.892   7.024   8.539  1.4610 -0.4755  0.2160
  689MOL0     H95036   8.787   7.192   8.714  0.4021 -0.2830 -1.8134
  689MOL0     H95037   8.737   7.044   8.795 -0.4151 -2.5588 -2.6039
  689MOL0     H95038   8.953   7.115   8.882 -2.5474  0.7753  0.2122
  689MOL0     H95039   8.979   6.960   8.792 -0.3151 -0.5150 -1.7421
  689MOL0     H95040   9.137   7.056   8.939 -1.3337 -0.7168 -1.7763
  689MOL0     H95041   9.485   6.952   9.019  0.0027  0.1327 -0.8285
  689MOL0     H95042   9.323   6.916   9.045  1.9908 -1.8259 -0.7668
  689MOL0     H95043   9.382   7.070   9.108  0.6066 -0.0571  0.2911
  689MOL0     H95044   9.745   6.833   8.778 -2.1736  1.5982 -1.6551
  689MOL0     H95045   9.971   6.759   8.817 -2.3902 -1.0297  0.2581
  689MOL0     H95046  10.183   6.814   8.963 -4.1260  0.6619 -1.9252
  689MOL0     H95047  10.192   6.716   8.817 -0.2773 -1.9467  2.8053
  689MOL0     H95048  10.410   6.900   8.933 -0.1854 -0.9945  1.4201
  689MOL0     H95049  10.393   6.716   8.949 -0.4927 -1.4073 -0.4652
  689MOL0     H95050  10.440   6.878   8.698  2.6184  0.0840 -0.3391
  689MOL0     H95051  10.417   6.706   8.685  0.4472 -0.3802 -0.1307
  689MOL0     H95052  10.613   6.689   8.860 -2.3852 -0.1187  1.2001
  689MOL0     H95053  10.629   6.861   8.848  2.2199 -0.5388 -0.6206
  689MOL0     H95054  10.656   6.663   8.602  0.7906 -0.0609 -0.9086
  689MOL0     H95055  10.683   6.833   8.594  1.0299 -2.3780 -2.8559
  689MOL0     H95056  10.891   6.690   8.620  1.6922 -0.7358  1.2032
  689MOL0     H95057  10.841   6.663   8.792 -1.0730  2.3583  0.9298
  689MOL0     H95058  10.830   6.906   8.833  1.3611  1.5667 -0.1238
  689MOL0     H95059  10.899   6.930   8.671 -3.4147 -0.5082 -0.5841
  689MOL0     H95060  11.099   6.755   8.756 -1.9073 -0.6095 -1.7554
  689MOL0     H95061  11.025   6.748   8.904  1.8111 -0.2285  0.1158
  689MOL0     H95062  10.104   7.144   8.664 -2.4662  0.2911 -3.0563
  689MOL0     H95063   9.872   7.220   8.645 -1.6365  0.6001 -0.2431
  689MOL0     H95064   9.463   7.219   8.602 -0.2024  2.8927  2.2784
  689MOL0     H95065   9.227   7.213   8.552  0.7058  1.3167  0.6455
  689MOL0     H95066   7.240   7.077   8.473  2.7861  1.4138  3.7064
  689MOL0     H95067   6.998   7.084   8.523  0.9450  0.5257  0.5862
  689MOL0     H95068   6.651   6.872   8.679 -0.9400 -1.9826  1.5688
  689MOL0     H95069   6.424   6.860   8.699  1.2809 -2.4795  1.6131
  689MOL0     H95070   6.219   7.072   8.755  0.9574  1.6821  2.7879
  689MOL0     H95071   6.211   6.898   8.737  1.1636  3.2201 -1.8182
  689MOL0     H95072   6.019   7.089   8.862  0.8405 -0.5303 -0.3449
  689MOL0     H95073   6.012   6.931   8.921 -0.0473 -0.0379 -0.1910
  689MOL0     H95074   5.990   6.993   8.629  3.5145  2.2748  3.4284
  689MOL0     H95075   5.958   6.835   8.709 -1.6028 -0.5032  1.0959
  689MOL0     H95076   5.771   6.980   8.641 -0.5109  1.6974  0.1650
  689MOL0     H95077   5.805   7.098   8.767 -1.5445  1.1140 -2.0079
  689MOL0     H95078   5.608   6.844   9.014  2.9647 -0.5487  1.0835
  689MOL0     H95079   6.438   7.069   9.076 -0.1751 -0.8882 -0.2929
  689MOL0     H95080   6.634   7.094   9.176 -0.7269 -3.0339 -0.9375
  689MOL0     H95081   6.785   7.017   9.115 -0.2782 -0.3718 -1.9012
  689MOL0     H95082   6.751   7.186   9.085 -0.8917  1.3219  2.3778
  690MOL0     O95083  11.362   1.041   2.908 -0.0787 -0.4054 -0.2044
  690MOL0     C95084  11.362   1.101   3.018  0.7007  0.3113  0.1428
  690MOL0     O95085  11.340   1.237   3.034 -0.4221 -0.8283 -0.2604
  690MOL0     C95086  11.296   1.315   2.928  0.5485 -0.8393 -0.0717
  690MOL0     C95087  11.361   1.438   2.912 -0.2735 -0.0577  0.0633
  690MOL0     C95088  11.359   1.506   2.787  0.5012 -0.2410 -1.1104
  690MOL0     C95089  11.251   1.475   2.694 -0.8142 -0.4817 -0.0871
  690MOL0     O95090  11.249   1.557   2.583 -0.0040  0.6513 -0.1061
  690MOL0     C95091  11.362   1.567   2.509 -0.4309  0.5099  0.2726
  690MOL0     C95092  11.331   1.653   2.385  0.2262  0.0590  0.1614
  690MOL0     C95093  11.241   1.582   2.289 -0.5138  0.5775 -0.4763
  690MOL0     C95094  11.209   1.674   2.176  0.0009  0.9859 -0.4037
  690MOL0     C95095  11.102   1.607   2.092  0.1117  0.2895 -0.6424
  690MOL0     C95096  11.051   1.678   1.969  0.2009  0.1394 -0.0001
  690MOL0     C95097  10.934   1.607   1.892  0.8972 -0.3625  0.3295
  690MOL0     C95098  10.976   1.511   1.782 -0.9093 -0.1043 -0.5916
  690MOL0     N95099  11.045   1.577   1.673 -0.1286  0.3365 -0.9150
  690MOL0     C95100  11.180   1.574   1.640  1.0303  0.0981 -0.3421
  690MOL0     C95101  11.186   1.638   1.524  0.5071 -0.3221  0.7354
  690MOL0     C95102  11.313   1.683   1.449 -0.1508  0.3700  0.3960
  690MOL0     C95103  11.350   1.585   1.341 -0.4087  0.8527  0.5935
  690MOL0     C95104  11.473   1.640   1.269 -0.0140 -0.6894 -0.7046
  690MOL0     C95105  11.447   1.743   1.168 -0.0005 -0.5038 -0.3173
  690MOL0     O95106  11.562   1.766   1.090 -0.2423  0.4765 -0.3338
  690MOL0     C95107  11.686   1.764   1.143  1.1163 -0.5560 -0.3801
  690MOL0     C95108  11.778   1.684   1.081  0.6952 -0.1271  0.3387
  690MOL0     C95109  11.908   1.671   1.131  0.2600 -0.5974  0.9534
  690MOL0     C95110  11.994   1.571   1.066  0.4471  0.7839  0.5001
  690MOL0     C95111  11.954   1.767   1.223  0.4727 -0.1109 -0.6356
  690MOL0     C95112  12.099   1.771   1.257  0.5955  0.2488  0.4921
  690MOL0     O95113  12.184   1.724   1.165  0.1738  0.1829 -0.0775
  690MOL0     C95114  12.313   1.727   1.202 -0.1886 -0.7038  0.2595
  690MOL0     C95115  12.407   1.796   1.127 -0.6095  0.0065  0.7464
  690MOL0     C95116  12.540   1.790   1.152 -0.3993  0.4057  0.7267
  690MOL0     C95117  12.584   1.695   1.252 -0.7669 -0.1983  0.8142
  690MOL0     O95118  12.717   1.663   1.266 -0.1561 -0.2890 -0.1718
  690MOL0     C95119  12.816   1.668   1.155 -1.0811 -0.2784 -0.4527
  690MOL0     C95120  12.784   1.559   1.047 -0.0435 -0.0217  0.5165
  690MOL0     C95121  12.893   1.533   0.940  0.5373  0.2823  0.2652
  690MOL0     C95122  13.029   1.474   0.990  0.5806 -0.2288  1.1258
  690MOL0     C95123  13.015   1.324   1.041  0.1704 -0.7202 -0.2731
  690MOL0     C95124  13.156   1.273   1.055 -0.9788  0.9282 -0.6567
  690MOL0     C95125  13.168   1.118   1.045  0.5343 -1.3224 -0.6541
  690MOL0     C95126  13.278   1.057   1.135 -0.4295  0.5120  0.6024
  690MOL0    Cl95127  13.420   1.152   1.142  0.0892  0.2260  0.0958
  690MOL0     C95128  12.494   1.626   1.339  0.4114 -1.1441 -0.0846
  690MOL0     C95129  12.357   1.641   1.311  0.7122 -0.6752 -0.5565
  690MOL0     O95130  12.122   1.853   1.346 -0.1785  0.4431  0.7259
  690MOL0     C95131  11.859   1.858   1.279  0.0000  0.2736  0.2989
  690MOL0     C95132  11.728   1.855   1.241  0.4387 -0.3560 -0.4681
  690MOL0     N95133  11.061   1.680   1.484  0.0037  0.3055 -0.0958
  690MOL0     N95134  10.982   1.657   1.583 -0.0702 -0.0478 -0.2924
  690MOL0     C95135  11.176   1.362   2.711  0.6187  0.6948 -0.5745
  690MOL0     C95136  11.197   1.289   2.834 -0.2937  1.2664 -0.2351
  690MOL0     C95137  11.399   1.013   3.134  0.2564  0.4591 -0.4912
  690MOL0     C95138  11.408   0.874   3.110 -0.0959  0.0147  0.3611
  690MOL0     C95139  11.436   0.780   3.211  0.9477  0.2676 -0.3676
  690MOL0     C95140  11.460   0.821   3.346  0.1912  0.7397  0.2708
  690MOL0     O95141  11.499   0.732   3.445  0.0140  0.3990 -0.4812
  690MOL0     C95142  11.553   0.607   3.397  0.3811 -0.6691 -0.4904
  690MOL0     C95143  11.649   0.545   3.495 -0.3105 -0.1139  0.3629
  690MOL0     C95144  11.774   0.625   3.498 -0.1273  0.1680 -0.0812
  690MOL0     C95145  11.863   0.580   3.620  0.2917 -0.2066  0.0514
  690MOL0     C95146  11.981   0.669   3.625 -0.0309 -0.3076  0.2858
  690MOL0     C95147  12.074   0.746   3.647  1.0232 -0.5944 -0.1568
  690MOL0     C95148  11.435   0.957   3.377 -0.0162 -0.5502  0.8370
  690MOL0     C95149  11.406   1.053   3.272 -0.4008 -0.5389 -0.1403
  690MOL0     C95150  11.397   1.197   3.315  0.0854  0.0823 -0.2168
  690MOL0     H95151  11.441   1.461   2.982  2.1077 -1.1737 -2.1572
  690MOL0     H95152  11.434   1.584   2.787  0.3295 -0.0681 -0.5907
  690MOL0     H95153  11.395   1.473   2.463 -0.3052  1.3093 -1.3406
  690MOL0     H95154  11.440   1.618   2.566  1.1151 -1.1306 -0.2614
  690MOL0     H95155  11.290   1.745   2.428  1.3865  0.7532 -0.1749
  690MOL0     H95156  11.420   1.676   2.325 -0.3228  1.2064 -0.2428
  690MOL0     H95157  11.282   1.486   2.256 -2.5988  0.8137 -4.3804
  690MOL0     H95158  11.147   1.554   2.337 -0.0276 -0.3542 -0.0320
  690MOL0     H95159  11.169   1.762   2.228 -1.3569 -0.5846  1.3087
  690MOL0     H95160  11.302   1.689   2.120  1.5904 -1.8427  1.2581
  690MOL0     H95161  11.013   1.590   2.152  0.1511 -1.7179 -1.0650
  690MOL0     H95162  11.140   1.507   2.067 -0.8493 -0.6161  1.3009
  690MOL0     H95163  11.023   1.779   2.001 -1.5518 -0.3114 -0.0466
  690MOL0     H95164  11.136   1.685   1.900  1.6479 -2.6515  1.3162
  690MOL0     H95165  10.871   1.686   1.852  0.3015 -0.5726  0.8358
  690MOL0     H95166  10.881   1.552   1.970  1.5076 -2.0320 -0.3667
  690MOL0     H95167  11.036   1.437   1.836 -0.3436  1.3107  0.8036
  690MOL0     H95168  10.889   1.449   1.757 -0.5717 -0.6573 -0.4183
  690MOL0     H95169  11.259   1.540   1.706  0.5458  0.2779  0.3581
  690MOL0     H95170  11.392   1.705   1.521 -1.6203  1.1609  1.8352
  690MOL0     H95171  11.289   1.773   1.391 -1.2425 -0.3676 -0.3440
  690MOL0     H95172  11.370   1.486   1.382  1.3134  2.2419  3.4741
  690MOL0     H95173  11.275   1.586   1.262 -1.4587 -2.8607  1.3380
  690MOL0     H95174  11.537   1.683   1.346  0.6325 -2.4268 -0.2246
  690MOL0     H95175  11.524   1.558   1.217  2.1758  1.7770 -2.7071
  690MOL0     H95176  11.362   1.722   1.102 -4.1599 -0.4153  4.4413
  690MOL0     H95177  11.421   1.839   1.213 -3.1433 -0.2572 -2.3176
  690MOL0     H95178  11.748   1.618   1.000 -1.7871  1.4905 -0.1459
  690MOL0     H95179  11.941   1.504   0.996  2.5239 -0.8332  0.3641
  690MOL0     H95180  12.043   1.496   1.130 -2.3839 -1.5310  0.1879
  690MOL0     H95181  12.071   1.624   1.010  0.2634  1.1628  0.6085
  690MOL0     H95182  12.379   1.861   1.045 -2.1276  1.7060  2.4838
  690MOL0     H95183  12.608   1.852   1.095 -0.6453 -2.3936 -3.0270
  690MOL0     H95184  12.825   1.768   1.110  0.4879 -0.0938  0.1926
  690MOL0     H95185  12.918   1.662   1.196 -0.6700  1.2214 -1.1877
  690MOL0     H95186  12.749   1.471   1.102  2.8379 -0.5477  1.6977
  690MOL0     H95187  12.700   1.601   0.991  0.2961 -0.1702 -0.1202
  690MOL0     H95188  12.906   1.627   0.885 -1.2025 -0.6634 -1.9129
  690MOL0     H95189  12.852   1.458   0.872 -0.2882  0.2275  0.8080
  690MOL0     H95190  13.063   1.541   1.069  0.4452 -1.4620  2.2731
  690MOL0     H95191  13.096   1.479   0.903  2.9642 -2.3453  2.6963
  690MOL0     H95192  12.960   1.325   1.135 -0.8332 -1.2734 -0.8394
  690MOL0     H95193  12.959   1.271   0.963 -1.0929 -2.5927  1.7938
  690MOL0     H95194  13.192   1.302   1.154 -2.2292 -0.3209  0.2043
  690MOL0     H95195  13.222   1.320   0.982  2.4378  0.4153  1.8371
  690MOL0     H95196  13.203   1.105   0.942 -0.7098 -0.5090 -1.2135
  690MOL0     H95197  13.072   1.068   1.060 -1.1994  2.4759  3.0395
  690MOL0     H95198  13.286   0.954   1.100  0.6698  1.3900 -1.9904
  690MOL0     H95199  13.243   1.044   1.238 -1.3931  1.1134  0.3671
  690MOL0     H95200  12.537   1.559   1.412  0.0282 -1.2087  0.0836
  690MOL0     H95201  12.288   1.582   1.369  0.9873 -0.1528  0.3137
  690MOL0     H95202  11.896   1.918   1.362 -2.1625  0.0989  1.4731
  690MOL0     H95203  11.656   1.928   1.277  2.2132  2.0134 -1.4676
  690MOL0     H95204  11.094   1.333   2.647  0.4422 -0.9342  0.3485
  690MOL0     H95205  11.144   1.194   2.826  1.4943  0.2836 -0.8921
  690MOL0     H95206  11.393   0.835   3.010 -1.2046  2.8531 -0.7055
  690MOL0     H95207  11.434   0.675   3.186 -1.5142 -0.5797  2.7672
  690MOL0     H95208  11.465   0.542   3.386 -1.3248  1.8672 -3.4102
  690MOL0     H95209  11.613   0.616   3.305  6.1683 -1.3419  2.7624
  690MOL0     H95210  11.668   0.446   3.453 -0.4813  0.8172 -2.0474
  690MOL0     H95211  11.602   0.539   3.594 -0.0019  0.2936  0.5390
  690MOL0     H95212  11.817   0.609   3.398 -0.8057 -0.3511 -0.2939
  690MOL0     H95213  11.759   0.732   3.511  1.0427  0.2568  0.6792
  690MOL0     H95214  11.900   0.480   3.595  0.4646 -0.7448  2.2903
  690MOL0     H95215  11.804   0.571   3.712 -1.1017 -0.6180 -0.8537
  690MOL0     H95216  12.157   0.813   3.650 -0.8560  2.1404 -3.1230
  690MOL0     H95217  11.455   0.989   3.479 -0.6229 -0.0553  0.8057
  690MOL0     H95218  11.409   1.207   3.423  3.5225  1.0021 -0.5685
  690MOL0     H95219  11.474   1.256   3.263  0.3010 -0.8154 -0.9268
  690MOL0     H95220  11.294   1.230   3.296 -0.1721 -1.1803 -1.1710
  691MOL0     O95221   9.890   2.709   2.940 -0.0171  1.2279  0.5129
  691MOL0     C95222   9.869   2.603   2.878 -0.1948  0.3234 -0.4860
  691MOL0     O95223   9.956   2.543   2.796 -0.3108  0.7789 -0.5873
  691MOL0     C95224  10.088   2.568   2.806 -1.2316  0.2832  1.0986
  691MOL0     C95225  10.143   2.642   2.700  0.2555 -0.6067 -0.4047
  691MOL0     C95226  10.278   2.655   2.702 -0.5809 -0.5449  0.0257
  691MOL0     C95227  10.361   2.587   2.803 -0.3159  0.0483  0.5989
  691MOL0     O95228  10.497   2.587   2.790  0.2276 -0.2814  0.0770
  691MOL0     C95229  10.557   2.658   2.683  0.6625 -0.1223 -0.2664
  691MOL0     C95230  10.704   2.667   2.692 -0.2528  0.3499 -0.6757
  691MOL0     C95231  10.729   2.762   2.817 -0.0182  0.4352 -0.2288
  691MOL0     C95232  10.876   2.735   2.874 -0.0433 -0.3144  0.0679
  691MOL0     C95233  10.983   2.765   2.780 -0.2252 -0.0705 -0.3951
  691MOL0     C95234  10.976   2.906   2.720 -0.3631 -0.3442 -0.0273
  691MOL0     C95235  11.106   2.950   2.654  0.3947  0.0305  0.4289
  691MOL0     C95236  11.112   3.097   2.625  0.2731 -0.7437 -0.2159
  691MOL0     N95237  11.238   3.134   2.562  0.0987 -1.1934  1.0813
  691MOL0     C95238  11.353   3.189   2.623 -0.0939 -0.4170  0.8977
  691MOL0     C95239  11.452   3.174   2.536 -0.1048 -0.3454  0.9454
  691MOL0     C95240  11.595   3.194   2.568 -0.3227  1.2653 -0.1136
  691MOL0     C95241  11.670   3.247   2.440  0.9355 -0.8090  0.7137
  691MOL0     C95242  11.804   3.307   2.486  0.1680  0.2015 -1.3159
  691MOL0     C95243  11.898   3.214   2.554  0.5369  0.2967  0.2972
  691MOL0     O95244  12.024   3.270   2.575  0.7156  0.3771 -0.3216
  691MOL0     C95245  12.123   3.190   2.629 -0.5236  0.1665  0.1776
  691MOL0     C95246  12.122   3.059   2.673 -0.7037 -0.2269 -0.4483
  691MOL0     C95247  12.244   2.996   2.723 -0.5594  0.4490 -0.3862
  691MOL0     C95248  12.224   2.852   2.757 -0.2324  0.6695 -0.0982
  691MOL0     C95249  12.351   3.065   2.763  0.4837 -0.3290  0.0843
  691MOL0     C95250  12.451   3.003   2.847 -0.6784  0.0948 -0.4330
  691MOL0     O95251  12.578   3.027   2.808  0.2131  0.4031 -0.0613
  691MOL0     C95252  12.674   2.926   2.803  0.0186  0.5609 -0.9320
  691MOL0     C95253  12.676   2.796   2.857 -0.3764 -0.6033  0.4316
  691MOL0     C95254  12.782   2.709   2.839  0.2626  0.0393 -0.4684
  691MOL0     C95255  12.898   2.755   2.769 -0.2985 -0.7749  0.3007
  691MOL0     O95256  13.013   2.687   2.760 -0.4018 -1.0444  0.2700
  691MOL0     C95257  13.054   2.635   2.889 -0.0797 -0.2730 -0.2501
  691MOL0     C95258  13.193   2.588   2.896 -0.5588  0.4148 -0.4843
  691MOL0     C95259  13.250   2.523   2.765 -0.8546  0.0091  0.1704
  691MOL0     C95260  13.404   2.498   2.779  0.9665 -0.4506 -0.1905
  691MOL0     C95261  13.480   2.453   2.653  0.9707 -0.2945 -0.3569
  691MOL0     C95262  13.635   2.449   2.688 -0.3769  0.3393 -0.0145
  691MOL0     C95263  13.698   2.390   2.559  0.2386  0.4171 -0.6931
  691MOL0     C95264  13.849   2.382   2.553  0.1005 -0.3172  0.5816
  691MOL0    Cl95265  13.925   2.533   2.623  0.3488  0.1854  0.0686
  691MOL0     C95266  12.894   2.883   2.704  0.1037  1.1377  0.6352
  691MOL0     C95267  12.781   2.959   2.724 -0.4092 -0.5749  0.1160
  691MOL0     O95268  12.417   2.943   2.952  0.1399 -0.5653  0.4873
  691MOL0     C95269  12.343   3.204   2.725  0.4849  0.3148 -0.1273
  691MOL0     C95270  12.233   3.267   2.670 -0.0518  0.1402 -0.0086
  691MOL0     N95271  11.401   3.123   2.417 -0.6603 -0.8367  0.7159
  691MOL0     N95272  11.273   3.109   2.425  0.2607 -0.0957 -0.5818
  691MOL0     C95273  10.301   2.514   2.907 -0.0174 -0.5759  0.6247
  691MOL0     C95274  10.165   2.503   2.906  0.2844 -0.1363 -0.1435
  691MOL0     C95275   9.739   2.542   2.895  0.4405  0.4369 -0.3145
  691MOL0     C95276   9.628   2.623   2.918  0.2804 -0.4499  0.3129
  691MOL0     C95277   9.497   2.569   2.923  0.5157  0.0941 -0.0267
  691MOL0     C95278   9.480   2.432   2.928 -0.3783 -0.0752  0.2670
  691MOL0     O95279   9.353   2.382   2.935 -0.4040 -0.0772 -0.2324
  691MOL0     C95280   9.330   2.248   2.991  0.1049  1.3460 -0.4423
  691MOL0     C95281   9.220   2.241   3.092  0.0661  0.1439 -0.5461
  691MOL0     C95282   9.236   2.144   3.204 -1.1105  0.1359  0.4047
  691MOL0     C95283   9.326   2.199   3.310  0.4514 -0.6439 -1.0764
  691MOL0     C95284   9.235   2.260   3.416 -0.2083 -0.6386 -0.1284
  691MOL0     C95285   9.158   2.332   3.488  0.2113 -0.0264  0.4935
  691MOL0     C95286   9.599   2.350   2.928 -0.3195 -1.3685 -0.1220
  691MOL0     C95287   9.732   2.402   2.914  0.6350 -0.3762  0.8945
  691MOL0     C95288   9.848   2.307   2.897 -0.5428  0.3350 -0.3974
  691MOL0     H95289  10.081   2.694   2.627 -1.4508 -2.1294 -0.1109
  691MOL0     H95290  10.312   2.705   2.612 -4.3723 -0.8560 -1.7812
  691MOL0     H95291  10.520   2.761   2.678  2.1407  0.4054 -0.8488
  691MOL0     H95292  10.534   2.609   2.588 -0.1181 -1.8236  0.7551
  691MOL0     H95293  10.740   2.564   2.704  2.6056  0.9616 -3.0618
  691MOL0     H95294  10.749   2.705   2.601  0.3328  1.4329  0.0422
  691MOL0     H95295  10.718   2.868   2.793  1.7451  1.0370  1.3353
  691MOL0     H95296  10.665   2.735   2.901 -0.0109 -0.7290 -0.5760
  691MOL0     H95297  10.877   2.802   2.960 -3.4469 -0.8597  0.6934
  691MOL0     H95298  10.884   2.635   2.918 -1.3782  0.0486  1.2244
  691MOL0     H95299  10.981   2.690   2.700  1.8123 -2.1490  1.3833
  691MOL0     H95300  11.083   2.748   2.821  0.1123 -0.3966 -1.3285
  691MOL0     H95301  10.898   2.913   2.644 -1.5616  0.3924  1.2228
  691MOL0     H95302  10.958   2.974   2.804 -0.1052 -0.4715  0.1354
  691MOL0     H95303  11.113   2.893   2.561  0.0163 -0.7249  0.8587
  691MOL0     H95304  11.194   2.929   2.716  0.9248 -1.5475 -0.7917
  691MOL0     H95305  11.033   3.122   2.554  3.2677  1.8076 -3.0046
  691MOL0     H95306  11.098   3.152   2.719 -0.8856 -1.2261 -0.0892
  691MOL0     H95307  11.359   3.213   2.729 -0.1965  0.2775  0.7538
  691MOL0     H95308  11.646   3.100   2.591  0.0141  2.0450  2.6695
  691MOL0     H95309  11.588   3.258   2.656  3.8436 -1.2975  2.4203
  691MOL0     H95310  11.689   3.164   2.371  1.1164  1.5959 -2.3307
  691MOL0     H95311  11.613   3.322   2.385  2.1654 -0.5640 -0.2895
  691MOL0     H95312  11.854   3.338   2.394 -1.1525 -0.0711 -2.1545
  691MOL0     H95313  11.789   3.389   2.556  0.9086  0.2005 -1.1543
  691MOL0     H95314  11.863   3.157   2.641  0.2672 -2.2021 -1.3381
  691MOL0     H95315  11.919   3.133   2.484 -1.0934  0.9513 -1.0130
  691MOL0     H95316  12.030   3.003   2.664 -1.9971  0.7963  4.0410
  691MOL0     H95317  12.309   2.783   2.754 -1.6842 -1.2289  0.7807
  691MOL0     H95318  12.137   2.808   2.707  1.1855 -0.1308 -1.9931
  691MOL0     H95319  12.203   2.857   2.864 -2.1252  0.2052 -0.4174
  691MOL0     H95320  12.588   2.768   2.915  0.3413 -2.8076  0.5683
  691MOL0     H95321  12.786   2.613   2.889  3.0521  1.0540  1.4917
  691MOL0     H95322  13.036   2.711   2.967  1.1191 -0.4414  0.2094
  691MOL0     H95323  12.996   2.544   2.907  0.7120 -1.0887 -1.7238
  691MOL0     H95324  13.254   2.676   2.915  2.7840 -1.8197 -0.0385
  691MOL0     H95325  13.220   2.518   2.975  1.1433  1.7123  0.1218
  691MOL0     H95326  13.236   2.603   2.692 -1.9721  1.6576  2.0804
  691MOL0     H95327  13.196   2.434   2.732  0.0159 -1.4810  2.4881
  691MOL0     H95328  13.428   2.432   2.862  0.3286 -1.4464 -0.7712
  691MOL0     H95329  13.437   2.600   2.797  1.3697 -0.5247 -0.4921
  691MOL0     H95330  13.440   2.354   2.632 -3.6658  0.6890  2.5076
  691MOL0     H95331  13.461   2.514   2.564  1.1581 -3.4023 -2.6991
  691MOL0     H95332  13.650   2.382   2.772 -2.0590 -0.6195 -0.4241
  691MOL0     H95333  13.653   2.553   2.717 -2.0487  0.2132  1.6482
  691MOL0     H95334  13.658   2.452   2.478 -1.1260  0.1806 -0.2295
  691MOL0     H95335  13.671   2.288   2.531  1.4761 -0.5434  1.3669
  691MOL0     H95336  13.872   2.378   2.447  0.9343  0.3347  0.7317
  691MOL0     H95337  13.886   2.288   2.595  1.8416 -1.4429 -3.0703
  691MOL0     H95338  12.969   2.928   2.640  1.4890  0.3107  1.6288
  691MOL0     H95339  12.782   3.057   2.676 -1.4943 -1.2546 -1.3775
  691MOL0     H95340  12.420   3.273   2.760  0.1343  0.1151  1.0683
  691MOL0     H95341  12.221   3.367   2.630  1.4099  0.0526 -0.7197
  691MOL0     H95342  10.361   2.462   2.980  1.3477 -0.3192 -0.2638
  691MOL0     H95343  10.128   2.431   2.978  2.5185  0.6890  1.9235
  691MOL0     H95344   9.637   2.731   2.918 -0.3548 -0.3818 -1.0306
  691MOL0     H95345   9.403   2.618   2.948 -1.0697 -1.6824 -2.0068
  691MOL0     H95346   9.311   2.172   2.915  2.1880  0.4047 -0.0893
  691MOL0     H95347   9.419   2.210   3.042 -0.7949  0.8815  0.8001
  691MOL0     H95348   9.126   2.229   3.037  0.6177 -1.2110 -1.2361
  691MOL0     H95349   9.215   2.341   3.135  2.9147  0.1793 -0.1099
  691MOL0     H95350   9.135   2.126   3.239 -1.0463  0.2994  0.6764
  691MOL0     H95351   9.281   2.051   3.167 -1.3088  0.7249 -1.4130
  691MOL0     H95352   9.402   2.268   3.272  0.5222 -0.1228 -0.0169
  691MOL0     H95353   9.377   2.116   3.359  0.7710  1.4025  2.3596
  691MOL0     H95354   9.101   2.406   3.541  0.4494  0.4408  0.1054
  691MOL0     H95355   9.587   2.242   2.938 -1.2676 -1.1742  1.2230
  691MOL0     H95356   9.928   2.343   2.962  1.1347 -0.6998 -1.7917
  691MOL0     H95357   9.806   2.208   2.920 -0.7172  0.9479  2.2378
  691MOL0     H95358   9.876   2.301   2.791 -3.0929 -1.8288 -1.0585
  692MOL0     O95359   4.249   2.710   4.337  0.1530  0.3707  0.4925
  692MOL0     C95360   4.150   2.633   4.315 -0.7445 -0.3607  0.0953
  692MOL0     O95361   4.145   2.535   4.214 -0.2867 -0.1159  0.3094
  692MOL0     C95362   4.257   2.523   4.132  0.2159 -0.5573 -0.1750
  692MOL0     C95363   4.371   2.471   4.185 -0.5589  0.0802  0.3377
  692MOL0     C95364   4.489   2.466   4.106 -0.8483  0.6737 -0.4612
  692MOL0     C95365   4.490   2.485   3.966 -0.3211 -0.4929 -0.9114
  692MOL0     O95366   4.592   2.462   3.886 -0.9152  0.1549 -0.1740
  692MOL0     C95367   4.716   2.421   3.942  0.2294 -0.1893 -0.7297
  692MOL0     C95368   4.722   2.274   3.942 -0.8285  0.1744  0.1128
  692MOL0     C95369   4.843   2.237   4.027 -0.5391 -0.4833 -0.2500
  692MOL0     C95370   4.849   2.087   4.047 -0.2334 -0.2634  0.1737
  692MOL0     C95371   4.990   2.035   4.087  0.3377  0.2796  0.3466
  692MOL0     C95372   5.098   2.052   3.975  0.3661  0.1787  0.0460
  692MOL0     C95373   5.221   1.970   4.000  0.1323 -0.0707  0.4912
  692MOL0     C95374   5.343   2.034   3.939  0.4604  0.2610 -0.4077
  692MOL0     N95375   5.462   1.954   3.976 -0.4344  0.6344  0.0816
  692MOL0     C95376   5.562   1.983   4.073  0.6054  0.0128  0.0957
  692MOL0     C95377   5.639   1.875   4.084  0.4192 -0.0974 -1.0168
  692MOL0     C95378   5.757   1.870   4.168 -0.0984 -0.5238 -0.5855
  692MOL0     C95379   5.856   1.980   4.133  0.6491 -0.1439 -0.3207
  692MOL0     C95380   6.004   1.947   4.161 -0.0543  0.6288  0.0118
  692MOL0     C95381   6.031   1.916   4.309  0.8048 -0.6501 -0.0745
  692MOL0     O95382   6.163   1.875   4.317 -0.6094  0.2616  0.0025
  692MOL0     C95383   6.260   1.970   4.331 -0.0846  0.2782  0.0637
  692MOL0     C95384   6.387   1.915   4.349 -0.3266 -0.6279  0.6971
  692MOL0     C95385   6.495   1.994   4.352 -0.2328  0.8425  0.0475
  692MOL0     C95386   6.627   1.918   4.354  0.0010 -0.5837  1.0737
  692MOL0     C95387   6.485   2.140   4.352 -0.4032 -1.1561 -0.0739
  692MOL0     C95388   6.603   2.231   4.373  0.2906 -1.1089 -0.2692
  692MOL0     O95389   6.632   2.317   4.265 -0.5567 -0.7003  0.2503
  692MOL0     C95390   6.735   2.410   4.266  0.4325  1.2090  0.0223
  692MOL0     C95391   6.852   2.386   4.335 -0.3624  0.1041  0.9120
  692MOL0     C95392   6.952   2.475   4.340 -0.6220  0.4448  0.5707
  692MOL0     C95393   6.946   2.600   4.274 -0.1735  0.2818  0.5721
  692MOL0     O95394   7.052   2.694   4.258  0.1916 -0.5009 -0.2395
  692MOL0     C95395   7.163   2.671   4.344 -0.3843 -0.2940 -0.3821
  692MOL0     C95396   7.254   2.796   4.334  0.3815  0.6533 -1.0824
  692MOL0     C95397   7.371   2.778   4.434 -0.6511  0.4341 -0.3115
  692MOL0     C95398   7.478   2.894   4.420 -0.1406  0.7053 -0.5447
  692MOL0     C95399   7.594   2.871   4.515 -0.2801 -0.0869 -0.4541
  692MOL0     C95400   7.565   2.910   4.660  1.4551  0.3968 -0.9428
  692MOL0     C95401   7.690   2.896   4.747 -0.4536  0.3197 -0.9985
  692MOL0     C95402   7.665   2.944   4.887 -0.0736 -0.1852 -0.4101
  692MOL0    Cl95403   7.687   3.122   4.891  0.1401 -0.4416  0.3427
  692MOL0     C95404   6.830   2.614   4.195 -0.2092  0.3920  0.1241
  692MOL0     C95405   6.721   2.526   4.191  0.6377 -0.5894 -0.2947
  692MOL0     O95406   6.670   2.230   4.477 -0.1756  0.2535 -0.3260
  692MOL0     C95407   6.362   2.196   4.327  0.7585 -0.3721  0.0325
  692MOL0     C95408   6.244   2.117   4.333 -0.7221 -0.2311  0.1665
  692MOL0     N95409   5.590   1.785   3.986  0.3116  0.4170  0.0163
  692MOL0     N95410   5.485   1.825   3.926 -0.3801 -0.1595 -0.6938
  692MOL0     C95411   4.364   2.518   3.912  0.3839 -0.4303 -0.4829
  692MOL0     C95412   4.249   2.543   3.993 -0.5301 -0.1924  0.8604
  692MOL0     C95413   4.023   2.675   4.369  0.5588 -0.2845 -0.0110
  692MOL0     C95414   3.907   2.682   4.283  0.4111 -0.1308  0.3828
  692MOL0     C95415   3.797   2.747   4.334 -0.1084 -0.4506 -0.1199
  692MOL0     C95416   3.788   2.791   4.462 -0.5702  0.1068 -0.0670
  692MOL0     O95417   3.692   2.873   4.510  0.0502 -0.3230  0.1264
  692MOL0     C95418   3.556   2.875   4.458 -0.0295 -0.2468 -0.2815
  692MOL0     C95419   3.468   2.755   4.504 -0.3964  0.2762  0.6111
  692MOL0     C95420   3.463   2.756   4.657 -0.1682 -0.1934  0.0494
  692MOL0     C95421   3.378   2.636   4.707  0.7758 -1.4818 -0.3611
  692MOL0     C95422   3.371   2.637   4.854 -0.2220  0.4768  0.1607
  692MOL0     C95423   3.386   2.637   4.981 -0.1019  0.3443  1.0072
  692MOL0     C95424   3.897   2.757   4.546  0.8455 -0.4711  0.1174
  692MOL0     C95425   4.013   2.706   4.499  0.0162 -1.0000 -1.0670
  692MOL0     C95426   4.116   2.673   4.611  0.0756 -0.1445  0.7873
  692MOL0     H95427   4.370   2.455   4.292 -0.6299 -0.9146  0.2011
  692MOL0     H95428   4.577   2.431   4.158 -0.4517  0.6555 -1.1294
  692MOL0     H95429   4.740   2.475   4.034 -2.1571  1.7115 -1.1190
  692MOL0     H95430   4.799   2.462   3.883 -0.4172  3.8722  0.8831
  692MOL0     H95431   4.625   2.232   3.969 -2.4818  2.3604 -1.9070
  692MOL0     H95432   4.738   2.237   3.840 -1.8374  1.3785 -0.5196
  692MOL0     H95433   4.936   2.268   3.977 -0.8584  2.6090  0.8343
  692MOL0     H95434   4.843   2.275   4.130  1.8137 -1.6355  0.2473
  692MOL0     H95435   4.771   2.053   4.117  0.4727 -0.5685  0.8247
  692MOL0     H95436   4.820   2.027   3.960 -1.4575 -0.7093  0.8532
  692MOL0     H95437   4.974   1.930   4.114 -2.1916 -0.5195 -3.4789
  692MOL0     H95438   5.030   2.093   4.171  1.4789  4.7182 -2.8773
  692MOL0     H95439   5.050   2.015   3.885 -0.8813  0.2948  0.6488
  692MOL0     H95440   5.114   2.159   3.961 -1.5558  0.7082  1.4625
  692MOL0     H95441   5.204   1.866   3.968  2.9663 -1.9317  4.2241
  692MOL0     H95442   5.241   1.960   4.107 -0.0371 -0.6389  0.4740
  692MOL0     H95443   5.337   2.035   3.830  0.7933 -3.3338 -0.5795
  692MOL0     H95444   5.356   2.138   3.971 -2.1463 -0.0034  1.9350
  692MOL0     H95445   5.552   2.074   4.130  1.2787  0.3235 -0.2695
  692MOL0     H95446   5.805   1.779   4.130 -1.0846 -0.5248 -1.9040
  692MOL0     H95447   5.727   1.853   4.272  0.4663 -1.8170 -0.6172
  692MOL0     H95448   5.842   2.012   4.030 -1.2616  2.2796  0.6084
  692MOL0     H95449   5.833   2.069   4.191  0.2295  0.0978 -0.8487
  692MOL0     H95450   6.028   1.853   4.111 -1.6807 -0.6330  1.4698
  692MOL0     H95451   6.071   2.031   4.138  3.7343 -2.3780 -0.9354
  692MOL0     H95452   6.009   2.005   4.369  2.4849 -0.4444  0.2938
  692MOL0     H95453   5.975   1.828   4.340  0.3175  0.2364  1.7101
  692MOL0     H95454   6.403   1.808   4.354 -0.7635 -0.7031  0.4852
  692MOL0     H95455   6.627   1.843   4.434 -0.3548 -1.5533  0.1883
  692MOL0     H95456   6.710   1.984   4.383  0.2391 -2.0116  3.9650
  692MOL0     H95457   6.649   1.856   4.267  0.9091  1.5241 -0.2842
  692MOL0     H95458   6.868   2.290   4.384 -1.5811 -0.0736  1.0025
  692MOL0     H95459   7.046   2.447   4.387  0.4329 -1.7640 -2.4969
  692MOL0     H95460   7.130   2.668   4.448 -1.2870  2.0556 -0.5593
  692MOL0     H95461   7.219   2.580   4.319  1.6809  1.1902 -1.4307
  692MOL0     H95462   7.287   2.803   4.230 -0.2463 -1.6591 -1.4929
  692MOL0     H95463   7.200   2.886   4.367 -0.5608 -0.4859  0.6769
  692MOL0     H95464   7.418   2.682   4.411 -0.4965  0.6325 -0.8511
  692MOL0     H95465   7.338   2.768   4.538 -2.0205  1.5597 -0.6058
  692MOL0     H95466   7.431   2.992   4.436  0.8010  0.9133  1.2721
  692MOL0     H95467   7.532   2.899   4.325  1.1849 -2.0594 -0.0304
  692MOL0     H95468   7.624   2.767   4.501  2.2089  0.6888 -1.5625
  692MOL0     H95469   7.676   2.935   4.480  0.5964 -0.1181  1.4490
  692MOL0     H95470   7.484   2.848   4.698  3.9212 -2.6692 -0.2892
  692MOL0     H95471   7.536   3.016   4.665  1.7442  0.4338  1.6352
  692MOL0     H95472   7.776   2.951   4.708  0.0677  0.4511  0.2646
  692MOL0     H95473   7.714   2.790   4.761 -1.7838  0.3453  2.6149
  692MOL0     H95474   7.727   2.902   4.967 -1.8514 -1.7116  0.2393
  692MOL0     H95475   7.562   2.923   4.919  0.0332  1.3068  1.0188
  692MOL0     H95476   6.810   2.700   4.131 -0.5706  1.8943  2.1325
  692MOL0     H95477   6.638   2.567   4.134  0.5793 -2.5103 -1.6802
  692MOL0     H95478   6.347   2.303   4.323 -0.8582 -0.5928 -0.6240
  692MOL0     H95479   6.145   2.161   4.325 -1.3840 -1.5639  0.6338
  692MOL0     H95480   4.354   2.512   3.804 -3.6980 -0.6106 -0.2773
  692MOL0     H95481   4.155   2.566   3.944  1.2987  0.6595 -2.5490
  692MOL0     H95482   3.902   2.659   4.177  3.9988 -0.4937  0.1453
  692MOL0     H95483   3.714   2.765   4.267 -1.1892 -0.6181  1.1300
  692MOL0     H95484   3.515   2.970   4.493  2.0438  1.1882 -1.5268
  692MOL0     H95485   3.560   2.887   4.349 -1.8630 -0.5838 -0.4194
  692MOL0     H95486   3.508   2.661   4.463  2.4841  1.3236  0.7534
  692MOL0     H95487   3.369   2.783   4.468 -0.1731  0.1746 -0.1017
  692MOL0     H95488   3.564   2.767   4.697  0.9600 -1.1862 -2.3456
  692MOL0     H95489   3.410   2.847   4.687  1.1017  0.3540  0.7163
  692MOL0     H95490   3.415   2.538   4.675  0.0404 -1.5089 -1.1667
  692MOL0     H95491   3.273   2.631   4.677  0.9862 -5.1362 -0.8451
  692MOL0     H95492   3.397   2.648   5.087 -1.1513  0.3179  1.1289
  692MOL0     H95493   3.892   2.789   4.650 -2.0280  0.0698 -0.1177
  692MOL0     H95494   4.077   2.628   4.702  0.9165 -1.9737  0.2964
  692MOL0     H95495   4.181   2.596   4.566 -1.3161 -0.4058 -0.9022
  692MOL0     H95496   4.175   2.763   4.628 -0.6792  0.6773 -0.6913
  693MOL0     O95497   4.918   2.434   5.386  0.4154 -0.4305 -0.5048
  693MOL0     C95498   4.868   2.526   5.461 -0.3958  0.1785  1.2053
  693MOL0     O95499   4.928   2.648   5.477  0.0484 -0.2930  0.3542
  693MOL0     C95500   5.034   2.673   5.394 -0.4017 -0.5629  0.2790
  693MOL0     C95501   5.012   2.749   5.277  0.4420  0.2094 -0.0772
  693MOL0     C95502   5.118   2.796   5.198 -1.0919 -0.3679 -0.3087
  693MOL0     C95503   5.247   2.774   5.232 -0.3653 -0.2981  0.2339
  693MOL0     O95504   5.356   2.830   5.164 -0.5154  0.0629  0.3090
  693MOL0     C95505   5.332   2.934   5.064  0.3268  0.6583  0.0810
  693MOL0     C95506   5.470   2.965   5.002 -0.4000 -0.0185 -0.1677
  693MOL0     C95507   5.560   3.028   5.101  0.2941 -0.2701 -0.9003
  693MOL0     C95508   5.684   3.067   5.030 -0.4138 -0.3321 -1.1281
  693MOL0     C95509   5.777   3.151   5.137  0.1478  0.3282  0.0769
  693MOL0     C95510   5.839   3.054   5.258  0.0166  0.5803  0.3346
  693MOL0     C95511   5.882   3.144   5.371 -0.2066 -0.5758  0.0071
  693MOL0     C95512   5.985   3.256   5.330  0.7743 -0.2898 -0.6385
  693MOL0     N95513   5.969   3.384   5.414 -1.1211  0.5717 -0.2655
  693MOL0     C95514   6.078   3.464   5.448  0.1946  0.4715 -0.6586
  693MOL0     C95515   6.028   3.588   5.471 -0.0881  0.2822 -0.4468
  693MOL0     C95516   6.114   3.707   5.515 -0.1514 -0.2783  0.2697
  693MOL0     C95517   6.179   3.787   5.405 -0.3996  0.4401  0.2107
  693MOL0     C95518   6.281   3.709   5.317 -0.2274  0.2968  0.7807
  693MOL0     C95519   6.402   3.674   5.387 -0.0627 -0.0573  0.1522
  693MOL0     O95520   6.476   3.797   5.404  0.4755 -0.3895  0.3781
  693MOL0     C95521   6.536   3.848   5.290 -0.1732 -1.0960 -0.1845
  693MOL0     C95522   6.627   3.949   5.335 -0.0216  0.4741  0.8994
  693MOL0     C95523   6.722   4.009   5.253  0.4129 -1.3755  0.3061
  693MOL0     C95524   6.791   4.126   5.313  0.9925  0.2483 -0.4189
  693MOL0     C95525   6.731   3.964   5.119  1.2507  0.2855  0.3342
  693MOL0     C95526   6.840   4.006   5.032  0.2620  0.1652  0.7165
  693MOL0     O95527   6.842   4.134   5.003 -0.3829 -0.0347 -0.4167
  693MOL0     C95528   6.958   4.202   4.992  0.8458 -0.0427 -0.0505
  693MOL0     C95529   7.068   4.190   5.076  0.3170  0.2094  1.2583
  693MOL0     C95530   7.167   4.293   5.077 -0.9715 -0.8955  0.4798
  693MOL0     C95531   7.155   4.412   5.005  0.3713 -0.0465 -0.8773
  693MOL0     O95532   7.244   4.513   4.998  0.6515 -0.0664  0.1017
  693MOL0     C95533   7.381   4.498   5.034  0.0157  0.1205 -0.6017
  693MOL0     C95534   7.475   4.590   4.973 -0.1867  0.0151  0.7695
  693MOL0     C95535   7.435   4.735   4.988 -1.2180  0.0708 -0.1291
  693MOL0     C95536   7.527   4.830   4.912  0.1295 -1.2175  0.2226
  693MOL0     C95537   7.440   4.950   4.863 -1.0378 -0.5645  0.1908
  693MOL0     C95538   7.517   5.079   4.812 -0.9207  0.2281  0.3408
  693MOL0     C95539   7.412   5.176   4.743 -0.2680 -0.1486 -0.3874
  693MOL0     C95540   7.465   5.309   4.695  0.7900 -0.2092 -0.1159
  693MOL0    Cl95541   7.557   5.386   4.826  0.0813  0.0248 -0.1075
  693MOL0     C95542   7.050   4.419   4.914  0.5455 -0.1208 -0.0302
  693MOL0     C95543   6.952   4.320   4.915 -0.0538 -0.0357  0.2544
  693MOL0     O95544   6.935   3.920   5.019 -0.0215 -0.4917 -0.1992
  693MOL0     C95545   6.650   3.861   5.078  0.7022 -0.0883  0.3570
  693MOL0     C95546   6.553   3.800   5.161 -1.4149  0.2514  1.1687
  693MOL0     N95547   5.889   3.580   5.439  0.0284 -0.6148 -0.1666
  693MOL0     N95548   5.854   3.458   5.403 -0.4097  0.4292  0.0764
  693MOL0     C95549   5.276   2.699   5.347  0.0965  0.7410  0.4051
  693MOL0     C95550   5.169   2.652   5.431  0.3537 -0.0414 -0.3180
  693MOL0     C95551   4.735   2.510   5.532  0.5108  0.5244  0.2198
  693MOL0     C95552   4.733   2.552   5.672  0.0608  0.8140  0.6556
  693MOL0     C95553   4.612   2.554   5.743  0.4849  0.0750  0.0952
  693MOL0     C95554   4.491   2.522   5.680  0.7417 -1.0827 -0.0810
  693MOL0     O95555   4.361   2.543   5.743  0.5500  0.0494  0.7264
  693MOL0     C95556   4.351   2.530   5.886 -0.9749  0.2443  0.3812
  693MOL0     C95557   4.204   2.534   5.940 -0.2234 -0.9862  0.0930
  693MOL0     C95558   4.165   2.676   5.992  0.0793  0.8130 -0.9196
  693MOL0     C95559   4.193   2.801   5.908  1.2003 -0.0029  0.3698
  693MOL0     C95560   4.078   2.826   5.821 -0.3530 -0.0676 -1.2971
  693MOL0     C95561   3.999   2.848   5.735  0.6375 -0.3480  0.9069
  693MOL0     C95562   4.494   2.479   5.542 -0.3438 -0.4125  0.8219
  693MOL0     C95563   4.617   2.471   5.468  1.1486 -0.6643  0.1397
  693MOL0     C95564   4.617   2.412   5.332  0.5247  0.5363  0.4176
  693MOL0     H95565   4.910   2.773   5.250  1.0444  1.2513 -1.5409
  693MOL0     H95566   5.100   2.847   5.104  3.0308  1.0203 -0.5231
  693MOL0     H95567   5.286   3.023   5.108 -0.6697  0.1683  0.0557
  693MOL0     H95568   5.261   2.901   4.987 -0.6958 -0.9005  1.6288
  693MOL0     H95569   5.515   2.867   4.982 -0.6937 -0.6910  2.1643
  693MOL0     H95570   5.470   3.032   4.916  0.4159  0.7492  0.4054
  693MOL0     H95571   5.513   3.115   5.146  2.5471  1.9663 -2.5601
  693MOL0     H95572   5.595   2.959   5.179  1.3970  0.4056 -0.7697
  693MOL0     H95573   5.745   2.979   5.005  0.8402  0.4096 -0.7696
  693MOL0     H95574   5.665   3.116   4.934 -1.2222 -0.5410 -1.0810
  693MOL0     H95575   5.724   3.236   5.181  2.0076  1.3274  0.4903
  693MOL0     H95576   5.861   3.193   5.080  0.7146  1.6531  1.8264
  693MOL0     H95577   5.767   2.985   5.304  1.2154 -1.4657 -0.6790
  693MOL0     H95578   5.915   2.988   5.216 -1.2495  0.4162 -1.8576
  693MOL0     H95579   5.929   3.084   5.450  1.4918  1.5441  0.6946
  693MOL0     H95580   5.791   3.185   5.415  0.3291 -1.3102  1.8854
  693MOL0     H95581   6.082   3.206   5.335  2.1130  2.2364  0.6023
  693MOL0     H95582   5.962   3.300   5.232 -1.8262  0.5262  0.2480
  693MOL0     H95583   6.181   3.431   5.447  0.1352  0.1723 -3.1121
  693MOL0     H95584   6.181   3.671   5.593  0.5754 -0.6922 -0.5364
  693MOL0     H95585   6.046   3.762   5.581 -1.5766 -2.1519  0.4485
  693MOL0     H95586   6.091   3.823   5.350 -0.8362  1.5738  1.5728
  693MOL0     H95587   6.232   3.874   5.445  1.2776 -1.3982  2.1932
  693MOL0     H95588   6.234   3.616   5.284  0.1418  0.5586 -0.5583
  693MOL0     H95589   6.295   3.766   5.224 -3.0783 -0.2153 -0.0580
  693MOL0     H95590   6.377   3.636   5.487 -1.3648 -2.5603 -1.0137
  693MOL0     H95591   6.459   3.599   5.331  2.3359  2.9225 -1.7034
  693MOL0     H95592   6.611   3.975   5.440  0.6302  2.9090  0.4547
  693MOL0     H95593   6.733   4.167   5.396 -1.5970 -1.9379 -1.0243
  693MOL0     H95594   6.803   4.206   5.240  2.3875 -0.1685 -0.6867
  693MOL0     H95595   6.892   4.098   5.346  1.1804  0.4841 -0.7930
  693MOL0     H95596   7.081   4.106   5.144 -0.8413  0.3129  1.6407
  693MOL0     H95597   7.247   4.287   5.149  2.6843  3.4792 -2.6894
  693MOL0     H95598   7.403   4.520   5.138  0.8817  0.8216 -0.9216
  693MOL0     H95599   7.410   4.398   5.003 -1.4384  0.4851 -3.5509
  693MOL0     H95600   7.572   4.551   5.005 -1.2446 -3.3887  0.1795
  693MOL0     H95601   7.477   4.573   4.865 -0.8298 -2.0215  1.0413
  693MOL0     H95602   7.440   4.768   5.092  0.8226  1.8772 -0.7330
  693MOL0     H95603   7.330   4.747   4.957 -2.4181 -2.1128  2.6990
  693MOL0     H95604   7.579   4.784   4.828  2.0213 -1.8232  1.6414
  693MOL0     H95605   7.601   4.878   4.977 -0.3095  1.2300 -0.9695
  693MOL0     H95606   7.382   4.918   4.776 -0.8177  0.9100 -0.5375
  693MOL0     H95607   7.376   4.973   4.948 -0.0165  0.4975  0.6979
  693MOL0     H95608   7.594   5.058   4.738 -1.6570  0.7840 -0.6130
  693MOL0     H95609   7.566   5.132   4.894  1.0528  1.3786 -1.4856
  693MOL0     H95610   7.340   5.202   4.821  1.5117 -0.5413  1.4735
  693MOL0     H95611   7.352   5.123   4.668  0.0192 -2.0845  0.6702
  693MOL0     H95612   7.372   5.365   4.685  0.1715 -1.1905 -0.0436
  693MOL0     H95613   7.520   5.290   4.602 -0.7645  0.9149 -1.3127
  693MOL0     H95614   7.046   4.511   4.857 -0.8568  0.6055  1.1632
  693MOL0     H95615   6.870   4.331   4.844  1.0389 -1.8038 -1.4071
  693MOL0     H95616   6.663   3.806   4.985 -1.6232  2.1404 -1.4439
  693MOL0     H95617   6.503   3.707   5.138  1.3450 -1.1112  0.1837
  693MOL0     H95618   5.373   2.675   5.389  0.4192 -0.1073 -0.7652
  693MOL0     H95619   5.184   2.595   5.522 -1.1520 -1.1305 -0.7183
  693MOL0     H95620   4.818   2.584   5.732  0.9440  0.7438 -0.5058
  693MOL0     H95621   4.611   2.588   5.846  0.3268  0.6076 -0.0800
  693MOL0     H95622   4.401   2.442   5.929  0.2703  0.9892  0.5069
  693MOL0     H95623   4.398   2.620   5.926  1.3273 -0.8529  0.2860
  693MOL0     H95624   4.202   2.460   6.021  0.2919  1.4138  2.4126
  693MOL0     H95625   4.138   2.501   5.858  1.8897  2.8882 -3.5381
  693MOL0     H95626   4.060   2.685   6.020  0.2484  0.2046 -0.0560
  693MOL0     H95627   4.227   2.690   6.081 -0.8448 -1.4246  0.1498
  693MOL0     H95628   4.276   2.790   5.837  0.2237  0.5420 -0.8941
  693MOL0     H95629   4.212   2.895   5.960 -0.7156  0.8894 -0.4508
  693MOL0     H95630   3.931   2.879   5.658  2.6436 -6.1813 -4.0644
  693MOL0     H95631   4.401   2.434   5.507 -0.0780  0.0056 -0.5035
  693MOL0     H95632   4.694   2.334   5.323 -1.3693 -1.1767 -2.8766
  693MOL0     H95633   4.525   2.354   5.319  1.1777 -0.5149  0.3590
  693MOL0     H95634   4.635   2.476   5.245  1.8897 -2.7369 -1.9171
  694MOL0     O95635   9.647   8.195   4.750  0.0996  0.9474  0.0987
  694MOL0     C95636   9.577   8.260   4.828  0.5478 -0.4647 -0.4800
  694MOL0     O95637   9.623   8.372   4.906  0.8026 -0.0087 -0.1898
  694MOL0     C95638   9.751   8.398   4.898  0.0425  0.3315 -0.2150
  694MOL0     C95639   9.830   8.337   4.985 -0.3549  0.4217 -0.2414
  694MOL0     C95640   9.971   8.357   4.971 -0.0591 -0.7538  0.4486
  694MOL0     C95641  10.030   8.436   4.880 -0.2523  0.4249 -0.9535
  694MOL0     O95642  10.162   8.434   4.880 -0.3066  0.1080 -0.9244
  694MOL0     C95643  10.236   8.551   4.824 -0.1496  0.2782  0.0143
  694MOL0     C95644  10.278   8.509   4.685  0.4696 -0.5721 -0.2335
  694MOL0     C95645  10.357   8.626   4.617  0.4799 -0.6573  0.0212
  694MOL0     C95646  10.325   8.631   4.461 -0.4651  0.6157 -0.6666
  694MOL0     C95647  10.332   8.490   4.404  0.0483  0.5694 -0.4269
  694MOL0     C95648  10.288   8.477   4.255 -0.6280  0.0056 -0.1819
  694MOL0     C95649  10.271   8.327   4.208  0.2769 -0.5986  0.2326
  694MOL0     C95650  10.379   8.231   4.262 -0.3632  0.0240  0.6433
  694MOL0     N95651  10.519   8.257   4.212  0.1070  0.2837 -0.2016
  694MOL0     C95652  10.616   8.324   4.282 -0.0422 -0.4476  0.0969
  694MOL0     C95653  10.718   8.342   4.188  0.1541 -0.4028  0.9237
  694MOL0     C95654  10.845   8.397   4.198 -0.5093  0.0376 -0.5784
  694MOL0     C95655  10.845   8.549   4.182  0.6133  0.1441  0.1295
  694MOL0     C95656  10.802   8.591   4.037 -1.3580  0.0223  0.2924
  694MOL0     C95657  10.809   8.743   4.031 -0.1005 -0.0502  0.4868
  694MOL0     O95658  10.945   8.793   4.043 -0.5948  0.2883 -0.1925
  694MOL0     C95659  11.031   8.779   3.938  0.1514 -0.2277  0.4818
  694MOL0     C95660  10.988   8.730   3.815 -1.0047  0.3090  0.1667
  694MOL0     C95661  11.081   8.724   3.706  0.5789 -0.2599  0.0648
  694MOL0     C95662  11.034   8.690   3.561  0.5913 -0.6048 -0.0579
  694MOL0     C95663  11.215   8.762   3.724  0.0469  1.0499 -0.2580
  694MOL0     C95664  11.324   8.757   3.616 -0.3476 -0.2268  0.0417
  694MOL0     O95665  11.438   8.840   3.631  0.1239  0.2010 -0.1295
  694MOL0     C95666  11.554   8.819   3.559 -0.2949 -0.1129  0.3649
  694MOL0     C95667  11.636   8.704   3.578 -0.0630  0.5691 -0.0007
  694MOL0     C95668  11.757   8.695   3.516  0.7764 -0.4444 -0.0729
  694MOL0     C95669  11.793   8.788   3.420 -0.0721 -0.0546  0.2818
  694MOL0     O95670  11.914   8.777   3.361 -0.7784  0.4263 -0.3374
  694MOL0     C95671  12.006   8.892   3.373 -0.2522  0.3466  0.2402
  694MOL0     C95672  12.147   8.853   3.336 -0.2637  0.3540 -0.1696
  694MOL0     C95673  12.239   8.963   3.390 -0.1382  0.0863  0.0589
  694MOL0     C95674  12.378   8.926   3.333 -0.0416 -0.6114 -0.0599
  694MOL0     C95675  12.471   9.035   3.391  0.2614  0.2507 -0.4551
  694MOL0     C95676  12.622   9.003   3.370 -0.2808  0.3815  0.8104
  694MOL0     C95677  12.656   8.995   3.219 -0.3187  0.6799  0.7387
  694MOL0     C95678  12.802   8.945   3.192 -0.3153 -0.3057  0.1044
  694MOL0    Cl95679  12.922   9.076   3.197 -0.3522  0.0960 -0.3849
  694MOL0     C95680  11.709   8.897   3.387  0.5119 -0.2124 -0.3104
  694MOL0     C95681  11.586   8.906   3.455  0.3571 -0.2544  0.0334
  694MOL0     O95682  11.308   8.689   3.518  0.8133  0.8364  0.4508
  694MOL0     C95683  11.255   8.805   3.853  0.0838  0.3331  0.7561
  694MOL0     C95684  11.163   8.818   3.958  0.2217  0.7451  0.0928
  694MOL0     N95685  10.681   8.272   4.072 -0.1440 -0.4334 -0.3384
  694MOL0     N95686  10.566   8.221   4.089 -0.3500  0.4999  0.1012
  694MOL0     C95687   9.945   8.507   4.796  0.4115  0.7780  0.0920
  694MOL0     C95688   9.805   8.489   4.800 -0.3132  0.8725 -1.0514
  694MOL0     C95689   9.432   8.222   4.849 -0.3219  0.4957 -0.2894
  694MOL0     C95690   9.367   8.268   4.964 -0.0075 -0.3992  0.6800
  694MOL0     C95691   9.236   8.229   4.994 -0.2447  0.5563 -0.2803
  694MOL0     C95692   9.167   8.149   4.910 -0.1554  0.1567 -0.0842
  694MOL0     O95693   9.043   8.095   4.926  0.1795 -0.8144 -0.5944
  694MOL0     C95694   8.938   8.164   4.858 -0.8635 -0.0902 -0.3298
  694MOL0     C95695   8.823   8.069   4.863  0.8054 -0.2057  0.3529
  694MOL0     C95696   8.682   8.131   4.841  0.3852  0.1281  0.7157
  694MOL0     C95697   8.608   8.053   4.737  0.1436  0.2472 -0.0305
  694MOL0     C95698   8.501   8.138   4.699  0.5680  0.8565 -0.4109
  694MOL0     C95699   8.410   8.200   4.648  0.1322  0.2564 -0.3212
  694MOL0     C95700   9.223   8.112   4.787  0.5942  0.2923  0.3174
  694MOL0     C95701   9.356   8.141   4.754 -0.9479 -1.4916  0.6121
  694MOL0     C95702   9.416   8.089   4.628 -0.2414 -0.7844 -0.1310
  694MOL0     H95703   9.792   8.269   5.060 -0.5545 -1.0331 -1.6027
  694MOL0     H95704  10.034   8.313   5.048  1.0933  0.6308  0.3525
  694MOL0     H95705  10.324   8.565   4.887  0.2917  1.4506 -0.8138
  694MOL0     H95706  10.185   8.648   4.821  1.2488  1.0403 -0.3951
  694MOL0     H95707  10.340   8.420   4.695 -2.4439 -2.6091  1.1617
  694MOL0     H95708  10.184   8.485   4.635 -1.1771  2.5615  1.0120
  694MOL0     H95709  10.328   8.726   4.651  0.1698 -0.0982 -1.7935
  694MOL0     H95710  10.464   8.620   4.637  0.3607  0.7695  1.2712
  694MOL0     H95711  10.228   8.679   4.444 -0.5125  0.3813 -1.0904
  694MOL0     H95712  10.396   8.703   4.418 -0.0350  0.0896 -0.8414
  694MOL0     H95713  10.279   8.413   4.461 -0.5582  0.5895 -0.9389
  694MOL0     H95714  10.437   8.466   4.425  0.1478  2.7256  1.9379
  694MOL0     H95715  10.186   8.516   4.253 -0.9017 -0.7124 -1.4636
  694MOL0     H95716  10.350   8.538   4.188 -1.1552  0.3582 -0.3523
  694MOL0     H95717  10.260   8.320   4.099 -0.3362 -2.7977  0.3905
  694MOL0     H95718  10.172   8.292   4.239 -1.3687 -0.7637 -4.3882
  694MOL0     H95719  10.385   8.228   4.371  1.9267 -1.4214  0.5414
  694MOL0     H95720  10.345   8.128   4.248 -0.1295 -0.2682  2.1296
  694MOL0     H95721  10.601   8.359   4.384  0.0971 -2.9475  1.0384
  694MOL0     H95722  10.907   8.361   4.115 -0.2850  0.1586 -0.4647
  694MOL0     H95723  10.899   8.356   4.283  0.3782  0.2136 -1.0490
  694MOL0     H95724  10.781   8.596   4.258  1.0339  0.6342  0.1823
  694MOL0     H95725  10.946   8.583   4.205  0.1743 -0.0752  2.7005
  694MOL0     H95726  10.872   8.546   3.966 -1.3834 -1.8153  1.3877
  694MOL0     H95727  10.699   8.558   4.019 -2.0897  2.0515  0.4309
  694MOL0     H95728  10.752   8.784   3.947  0.3641 -1.4455 -0.5547
  694MOL0     H95729  10.748   8.779   4.114 -2.2541  1.5407 -1.6491
  694MOL0     H95730  10.886   8.700   3.793 -1.1905  0.7469  0.4379
  694MOL0     H95731  11.072   8.773   3.501 -0.4224  0.4457  0.7159
  694MOL0     H95732  10.925   8.683   3.556  0.6833 -1.5974 -1.0898
  694MOL0     H95733  11.082   8.598   3.524  2.9433  0.6314 -0.3037
  694MOL0     H95734  11.602   8.636   3.655 -0.7070 -1.7655 -2.2116
  694MOL0     H95735  11.815   8.603   3.529 -0.0694 -0.9435  0.2393
  694MOL0     H95736  11.966   8.975   3.314 -1.0243 -0.6296 -0.6669
  694MOL0     H95737  12.005   8.919   3.479 -0.2938  3.9545 -0.5593
  694MOL0     H95738  12.174   8.762   3.392  2.9100  3.7136  4.4982
  694MOL0     H95739  12.154   8.843   3.227  0.1953 -0.5173 -0.0696
  694MOL0     H95740  12.245   8.961   3.499  0.8411  2.8445  0.1174
  694MOL0     H95741  12.199   9.059   3.357 -0.6302 -0.1664 -0.0894
  694MOL0     H95742  12.376   8.924   3.224 -2.2443  0.1652 -0.0860
  694MOL0     H95743  12.415   8.828   3.365 -0.5938 -1.4340 -1.7937
  694MOL0     H95744  12.451   9.132   3.344  1.1236  0.2289 -0.9041
  694MOL0     H95745  12.453   9.041   3.498  0.2928  0.8833 -0.4813
  694MOL0     H95746  12.617   8.902   3.409 -3.0805 -0.7016 -1.9366
  694MOL0     H95747  12.701   9.061   3.418  0.9252 -0.2391 -0.3582
  694MOL0     H95748  12.647   9.095   3.174  1.7186  0.8317  0.5393
  694MOL0     H95749  12.588   8.922   3.176  0.0925  0.4351  0.4926
  694MOL0     H95750  12.807   8.897   3.094 -4.7926 -0.3374 -0.3133
  694MOL0     H95751  12.821   8.869   3.268  0.0884  2.0297  2.4897
  694MOL0     H95752  11.741   8.976   3.319  1.1808 -0.9859 -0.9081
  694MOL0     H95753  11.515   8.988   3.445 -0.4648 -0.6164  2.2834
  694MOL0     H95754  11.358   8.833   3.871  0.5631 -1.2025  0.5620
  694MOL0     H95755  11.181   8.855   4.059  0.6042 -0.7669  0.6121
  694MOL0     H95756   9.986   8.576   4.724 -2.5456  3.0615  0.4214
  694MOL0     H95757   9.746   8.536   4.722  0.6881  1.3602 -1.5311
  694MOL0     H95758   9.417   8.329   5.038  2.5096 -2.2245  0.6392
  694MOL0     H95759   9.205   8.257   5.094  1.5857 -1.3527  0.9311
  694MOL0     H95760   8.927   8.264   4.901 -2.8925 -1.0010  1.4594
  694MOL0     H95761   8.971   8.173   4.754  0.4353  0.5298  0.1127
  694MOL0     H95762   8.825   8.025   4.963 -0.1747  2.9725  1.8965
  694MOL0     H95763   8.834   7.998   4.780 -0.9068 -2.0346  1.5783
  694MOL0     H95764   8.620   8.124   4.932 -1.0280  0.4444 -0.1942
  694MOL0     H95765   8.699   8.236   4.816 -0.5798  0.3179  0.7911
  694MOL0     H95766   8.562   7.961   4.774 -1.0711  1.0637  0.4996
  694MOL0     H95767   8.667   8.023   4.650 -0.9826 -0.9024 -0.4305
  694MOL0     H95768   8.327   8.255   4.608 -0.2474  0.4136  0.6389
  694MOL0     H95769   9.149   8.068   4.720  1.2775 -1.0355  0.3997
  694MOL0     H95770   9.475   8.165   4.575 -1.5680  0.8111  0.5627
  694MOL0     H95771   9.488   8.010   4.649  1.2482 -0.3075 -2.8798
  694MOL0     H95772   9.343   8.046   4.559  0.3937 -0.0249 -1.3195
  695MOL0     O95773  10.062   9.372   2.140  0.0615 -0.4111 -0.2757
  695MOL0     C95774  10.037   9.479   2.199  0.2188 -0.5853  1.0366
  695MOL0     O95775  10.134   9.567   2.239 -0.1962 -0.7371 -0.3926
  695MOL0     C95776  10.254   9.546   2.181  0.3974  0.7703  0.0083
  695MOL0     C95777  10.347   9.470   2.247 -0.3578 -0.6021  0.5632
  695MOL0     C95778  10.475   9.464   2.193 -0.1535 -0.1518 -0.1384
  695MOL0     C95779  10.506   9.518   2.059  0.6235 -0.0585  0.5266
  695MOL0     O95780  10.630   9.518   1.997  0.2849 -0.5785 -0.7566
  695MOL0     C95781  10.743   9.471   2.080  0.7962  0.3876 -0.3923
  695MOL0     C95782  10.865   9.451   1.991  0.4661 -0.7179 -0.1405
  695MOL0     C95783  10.989   9.457   2.080  0.3055 -0.5547 -0.2132
  695MOL0     C95784  11.107   9.460   1.982 -0.1424 -0.7228 -0.1673
  695MOL0     C95785  11.228   9.394   2.047  0.8210  0.5546  0.4175
  695MOL0     C95786  11.203   9.236   2.070 -0.8836 -0.7768 -0.7587
  695MOL0     C95787  11.336   9.158   2.071 -1.2416 -0.6212  0.4101
  695MOL0     C95788  11.421   9.172   2.197 -0.0842  0.5799 -0.0012
  695MOL0     N95789  11.556   9.117   2.187 -0.3554 -0.0881  0.2375
  695MOL0     C95790  11.669   9.184   2.153  0.1512 -0.4226  0.1464
  695MOL0     C95791  11.759   9.085   2.114 -0.1796  0.1860 -0.2657
  695MOL0     C95792  11.896   9.124   2.057  0.4120 -0.6665  0.8253
  695MOL0     C95793  12.006   9.051   2.142  0.8370 -0.7764 -0.6558
  695MOL0     C95794  12.140   9.099   2.083 -0.2660 -0.3655 -0.3285
  695MOL0     C95795  12.183   9.048   1.940  0.0014  0.6476 -1.0230
  695MOL0     O95796  12.288   9.140   1.897  0.2593 -0.8670 -0.4395
  695MOL0     C95797  12.370   9.075   1.803 -0.0004  0.3926 -0.0408
  695MOL0     C95798  12.330   9.016   1.688  0.3927  0.4691  0.2201
  695MOL0     C95799  12.424   8.967   1.590  0.4298 -0.6481  0.4997
  695MOL0     C95800  12.363   8.937   1.458 -0.4978 -0.1943 -0.3367
  695MOL0     C95801  12.554   8.948   1.616  0.2223 -0.2226 -0.5221
  695MOL0     C95802  12.666   8.901   1.524  0.6419 -0.4018 -0.2086
  695MOL0     O95803  12.614   8.826   1.422  0.1772 -0.4352  0.0157
  695MOL0     C95804  12.702   8.752   1.349  0.4193 -0.0991  1.0102
  695MOL0     C95805  12.758   8.627   1.396 -0.4742 -0.3769 -0.6015
  695MOL0     C95806  12.844   8.552   1.315  0.8416 -0.4344 -0.2716
  695MOL0     C95807  12.877   8.607   1.184  0.1536  0.5673 -0.1908
  695MOL0     O95808  12.960   8.540   1.099  0.3574  0.8996  0.1528
  695MOL0     C95809  13.075   8.613   1.055  0.2513  0.0627  0.2285
  695MOL0     C95810  13.167   8.516   0.986  0.8570  0.1528 -0.7512
  695MOL0     C95811  13.280   8.602   0.924  0.6034  0.1526 -0.8236
  695MOL0     C95812  13.407   8.514   0.904 -0.1605  0.1591  1.1312
  695MOL0     C95813  13.521   8.567   0.810  1.3719 -0.2014  0.0665
  695MOL0     C95814  13.657   8.507   0.817 -0.4481 -0.2782 -0.5387
  695MOL0     C95815  13.745   8.558   0.705 -0.4985 -0.0355 -0.6265
  695MOL0     C95816  13.901   8.539   0.722  1.0648  0.1353 -0.6159
  695MOL0    Cl95817  13.963   8.644   0.857 -0.4453 -0.4256 -0.1546
  695MOL0     C95818  12.820   8.728   1.140  0.7484 -0.3397  0.2194
  695MOL0     C95819  12.743   8.797   1.223  0.0362 -0.1472 -0.5905
  695MOL0     O95820  12.787   8.924   1.546  1.0461 -0.5358 -1.3445
  695MOL0     C95821  12.588   8.990   1.751  0.9323  0.3034 -0.6693
  695MOL0     C95822  12.497   9.053   1.843 -0.4075  0.3811  0.0076
  695MOL0     N95823  11.697   8.959   2.134 -0.2304  0.2627 -0.9643
  695MOL0     N95824  11.582   8.983   2.179  0.6824 -0.0344 -0.5125
  695MOL0     C95825  10.400   9.571   1.988  0.0572  0.1368  0.6578
  695MOL0     C95826  10.278   9.589   2.049 -0.0955 -1.1998  0.2389
  695MOL0     C95827   9.901   9.495   2.246 -0.3200  0.0384  0.4690
  695MOL0     C95828   9.886   9.582   2.361 -0.2273  0.2647  0.3810
  695MOL0     C95829   9.752   9.606   2.414 -0.7624  0.6688  0.0045
  695MOL0     C95830   9.640   9.542   2.351 -0.3645 -0.5666  0.3852
  695MOL0     O95831   9.517   9.574   2.403 -0.1231 -0.5326  0.4375
  695MOL0     C95832   9.399   9.522   2.354  0.7763 -0.0202  0.1509
  695MOL0     C95833   9.273   9.569   2.430  0.0035  0.6707  0.3838
  695MOL0     C95834   9.147   9.494   2.392 -0.0977  0.4549  0.0140
  695MOL0     C95835   9.024   9.531   2.478 -0.6967 -0.2320  0.8306
  695MOL0     C95836   8.927   9.435   2.440 -0.1458  0.0361 -0.1362
  695MOL0     C95837   8.841   9.366   2.399  0.4693  1.1988  0.4122
  695MOL0     C95838   9.661   9.466   2.240  0.0595  0.7642 -0.1771
  695MOL0     C95839   9.786   9.437   2.186  1.1416 -0.0719 -0.1624
  695MOL0     C95840   9.792   9.338   2.070 -0.2009  0.4594 -0.0390
  695MOL0     H95841  10.328   9.423   2.344 -1.9662  1.4319  1.2864
  695MOL0     H95842  10.546   9.416   2.259 -0.8986 -1.8901 -0.5484
  695MOL0     H95843  10.710   9.380   2.130 -1.0462  0.8474 -0.7009
  695MOL0     H95844  10.756   9.548   2.157  0.1700  0.6734 -0.5688
  695MOL0     H95845  10.854   9.354   1.943 -0.7188 -0.6358 -0.0545
  695MOL0     H95846  10.857   9.521   1.907 -0.3662  0.0326  0.5449
  695MOL0     H95847  11.003   9.549   2.137 -0.7573  1.0333 -2.3941
  695MOL0     H95848  10.996   9.370   2.146 -0.6529  0.6550  1.5720
  695MOL0     H95849  11.082   9.417   1.885  2.3199 -0.7017 -0.8888
  695MOL0     H95850  11.128   9.567   1.967  0.8451 -0.6669  1.3893
  695MOL0     H95851  11.232   9.443   2.144 -2.6125  1.3396  0.2909
  695MOL0     H95852  11.323   9.414   1.997  0.0260  0.0801 -1.3733
  695MOL0     H95853  11.144   9.213   2.159 -0.0544  1.2322  0.3985
  695MOL0     H95854  11.146   9.195   1.987 -0.7847  1.6389 -2.1234
  695MOL0     H95855  11.389   9.196   1.983  0.4013 -0.8776  1.2464
  695MOL0     H95856  11.317   9.051   2.055  0.4742 -0.9074  0.1084
  695MOL0     H95857  11.424   9.279   2.217 -0.1329  0.4795  0.5553
  695MOL0     H95858  11.379   9.114   2.279  1.4912 -1.4683 -0.5281
  695MOL0     H95859  11.669   9.293   2.154 -3.8694 -0.2851  0.9391
  695MOL0     H95860  11.905   9.233   2.062 -0.9824 -0.5659  2.7665
  695MOL0     H95861  11.896   9.090   1.954 -0.7973  2.8537 -0.4921
  695MOL0     H95862  11.997   9.082   2.247 -1.0376  0.8172 -1.2239
  695MOL0     H95863  11.979   8.945   2.132 -0.7484 -0.8449  2.7536
  695MOL0     H95864  12.137   9.208   2.085  0.1024 -0.3481  1.8913
  695MOL0     H95865  12.214   9.072   2.159 -0.3621  1.2094  0.3527
  695MOL0     H95866  12.213   8.943   1.932 -1.6850  0.0374  0.0286
  695MOL0     H95867  12.106   9.057   1.863  2.3850 -0.8220 -3.7570
  695MOL0     H95868  12.227   9.041   1.665  0.0361  2.3251  3.2802
  695MOL0     H95869  12.420   8.991   1.382 -0.2153  1.5996  1.0798
  695MOL0     H95870  12.258   8.960   1.440  0.2746  1.6211 -3.0637
  695MOL0     H95871  12.376   8.828   1.452 -0.2246 -0.1440 -0.6875
  695MOL0     H95872  12.720   8.593   1.492 -1.1454  0.0092 -0.7204
  695MOL0     H95873  12.879   8.458   1.355  2.0569 -0.0035 -0.2569
  695MOL0     H95874  13.047   8.693   0.985  0.4821 -1.1004 -1.2322
  695MOL0     H95875  13.127   8.658   1.140  1.7659 -0.1337 -0.5685
  695MOL0     H95876  13.203   8.438   1.054 -1.7147 -2.7560 -2.4719
  695MOL0     H95877  13.118   8.458   0.907 -0.3658  0.2769 -0.1042
  695MOL0     H95878  13.311   8.680   0.995 -1.1964  1.4546 -1.4196
  695MOL0     H95879  13.253   8.654   0.832  1.1065  0.9993 -0.5051
  695MOL0     H95880  13.378   8.415   0.868  0.0974  0.8829 -1.2630
  695MOL0     H95881  13.457   8.513   1.002  1.9063  1.8675  0.1739
  695MOL0     H95882  13.477   8.560   0.711  3.0954  0.7649 -0.8190
  695MOL0     H95883  13.531   8.674   0.830 -1.4617 -0.1373  1.6118
  695MOL0     H95884  13.643   8.399   0.806 -0.0839 -0.1211 -3.3190
  695MOL0     H95885  13.699   8.528   0.916 -0.9759 -1.5847 -0.0203
  695MOL0     H95886  13.734   8.666   0.694 -1.2745  0.3562  2.7289
  695MOL0     H95887  13.699   8.516   0.616  0.5397 -0.0492 -1.1721
  695MOL0     H95888  13.950   8.552   0.625  0.4282  0.8666 -0.8474
  695MOL0     H95889  13.916   8.436   0.756  0.1762  0.3295  0.4181
  695MOL0     H95890  12.858   8.771   1.048 -0.7020 -3.2229 -1.8695
  695MOL0     H95891  12.712   8.898   1.199 -0.8473 -0.8992 -3.0226
  695MOL0     H95892  12.694   8.984   1.776  0.9282 -1.7798 -0.9319
  695MOL0     H95893  12.541   9.084   1.938 -0.4980  4.0562 -0.9988
  695MOL0     H95894  10.420   9.607   1.887  0.8679  0.0203  0.7694
  695MOL0     H95895  10.194   9.638   2.001  0.4464 -0.8755 -0.3962
  695MOL0     H95896   9.964   9.638   2.412  0.0971  1.8550 -1.6923
  695MOL0     H95897   9.746   9.668   2.503 -1.0698 -0.3584  0.7112
  695MOL0     H95898   9.385   9.536   2.247  1.0402 -3.2079 -0.4154
  695MOL0     H95899   9.411   9.413   2.354 -0.4840 -0.2844 -3.3977
  695MOL0     H95900   9.258   9.673   2.399 -2.6254 -0.2744 -1.9945
  695MOL0     H95901   9.300   9.554   2.535 -0.4862  1.7282  0.6823
  695MOL0     H95902   9.136   9.519   2.286  5.2775  4.0016 -0.0628
  695MOL0     H95903   9.178   9.391   2.408  0.6763  0.7684  0.5874
  695MOL0     H95904   8.987   9.629   2.449  1.0107 -0.1243 -1.1676
  695MOL0     H95905   9.027   9.531   2.587  0.0476 -2.0328  0.8554
  695MOL0     H95906   8.759   9.306   2.365  0.4403  0.6824  1.3643
  695MOL0     H95907   9.576   9.424   2.186  2.5635 -2.0644 -2.2264
  695MOL0     H95908   9.817   9.384   1.974 -0.8979 -0.9181 -0.9136
  695MOL0     H95909   9.871   9.263   2.075 -0.4418  0.1577 -0.7102
  695MOL0     H95910   9.699   9.282   2.062 -0.4679  1.0900 -1.6004
  696MOL0     O95911   6.495   4.167  10.232  0.1246 -0.0942  0.3072
  696MOL0     C95912   6.416   4.079  10.268 -0.0076  0.3362  0.1522
  696MOL0     O95913   6.308   4.039  10.184 -0.0873  0.3874 -1.2393
  696MOL0     C95914   6.320   4.059  10.051  0.1493 -0.1008  0.3341
  696MOL0     C95915   6.330   4.186   9.991  0.8593  0.3597 -0.0421
  696MOL0     C95916   6.371   4.201   9.859  0.1870 -0.0045  0.0739
  696MOL0     C95917   6.385   4.095   9.778  0.0144  0.1718  0.7488
  696MOL0     O95918   6.408   4.118   9.641  0.8433  0.4037  0.5002
  696MOL0     C95919   6.520   4.038   9.586 -0.2912  0.5422  0.4040
  696MOL0     C95920   6.562   4.116   9.469 -0.4977  0.1029  0.6511
  696MOL0     C95921   6.608   4.257   9.483 -0.2153  0.6439  0.7415
  696MOL0     C95922   6.650   4.334   9.357 -0.9295  0.2213 -0.0314
  696MOL0     C95923   6.687   4.483   9.393 -0.9577  0.3654  0.4188
  696MOL0     C95924   6.706   4.586   9.278 -1.0548  0.2481 -0.3803
  696MOL0     C95925   6.578   4.595   9.181 -0.6049  0.5760  0.0019
  696MOL0     C95926   6.592   4.711   9.083 -0.3761 -0.3013 -0.2036
  696MOL0     N95927   6.662   4.832   9.128  0.5276 -0.1674  0.2268
  696MOL0     C95928   6.601   4.925   9.203 -0.6046 -0.6799  0.5471
  696MOL0     C95929   6.686   5.021   9.217 -0.8165  0.6322  0.0065
  696MOL0     C95930   6.677   5.132   9.307  0.6495  0.3264 -0.5882
  696MOL0     C95931   6.712   5.259   9.233 -0.1645  0.1804  0.0067
  696MOL0     C95932   6.666   5.373   9.325  0.9263 -0.1292 -0.2522
  696MOL0     C95933   6.699   5.510   9.275  0.1749 -0.3532 -0.0124
  696MOL0     O95934   6.840   5.523   9.267 -0.6619 -0.2517 -1.0454
  696MOL0     C95935   6.895   5.653   9.261 -0.6456 -0.7192 -0.3341
  696MOL0     C95936   6.823   5.771   9.261 -0.0827 -0.3386  0.6021
  696MOL0     C95937   6.883   5.895   9.266  0.8489 -0.4774 -0.1093
  696MOL0     C95938   6.801   6.016   9.248 -0.3550 -0.1822  0.1904
  696MOL0     C95939   7.023   5.901   9.281  0.2531 -0.1464 -0.1056
  696MOL0     C95940   7.100   6.029   9.297 -0.1405  0.6262 -0.4366
  696MOL0     O95941   7.234   6.009   9.301 -0.0566  0.1518 -0.3838
  696MOL0     C95942   7.321   6.087   9.366 -0.4595  0.4165 -0.2421
  696MOL0     C95943   7.428   6.017   9.415 -0.3764 -0.8544 -0.0162
  696MOL0     C95944   7.528   6.092   9.487 -0.4359 -0.6919 -0.4578
  696MOL0     C95945   7.519   6.230   9.512 -0.6529 -0.8294  0.3734
  696MOL0     O95946   7.611   6.307   9.590  0.5238 -0.0769  0.4999
  696MOL0     C95947   7.715   6.220   9.648  0.4674  0.3851  0.8053
  696MOL0     C95948   7.814   6.320   9.709  0.1987  0.3287 -0.0074
  696MOL0     C95949   7.923   6.366   9.612 -0.1946 -0.5610  0.9275
  696MOL0     C95950   8.012   6.468   9.684  0.5856 -0.7275 -0.5926
  696MOL0     C95951   8.124   6.530   9.598 -0.0831 -0.3790  0.5944
  696MOL0     C95952   8.213   6.418   9.514 -0.9339  0.5191  0.6329
  696MOL0     C95953   8.329   6.480   9.441  0.8253 -0.3016  0.3322
  696MOL0     C95954   8.442   6.383   9.415  0.3146  0.5591 -0.1685
  696MOL0    Cl95955   8.569   6.456   9.321  0.2905  0.2163 -0.6558
  696MOL0     C95956   7.405   6.291   9.459 -1.0787  0.9614 -0.3059
  696MOL0     C95957   7.304   6.227   9.383  0.0890 -0.2692 -0.3115
  696MOL0     O95958   7.041   6.126   9.332  0.8810 -0.1309 -0.1286
  696MOL0     C95959   7.096   5.776   9.294 -0.9620 -0.2310 -1.5522
  696MOL0     C95960   7.033   5.658   9.274  0.2562 -0.0881  0.1493
  696MOL0     N95961   6.795   4.996   9.131  0.3331  0.4847  0.3594
  696MOL0     N95962   6.783   4.877   9.083  0.2489  0.8187  0.0013
  696MOL0     C95963   6.363   3.968   9.827 -0.0347 -0.4810  0.0032
  696MOL0     C95964   6.335   3.945   9.965 -0.2988  0.0142 -0.1196
  696MOL0     C95965   6.428   4.021  10.401  0.5219  0.1928 -0.1609
  696MOL0     C95966   6.325   3.925  10.442  1.0718 -0.2168 -0.2457
  696MOL0     C95967   6.335   3.848  10.561 -0.3967  0.2449 -0.1111
  696MOL0     C95968   6.438   3.876  10.656 -0.3362 -0.1310 -0.8912
  696MOL0     O95969   6.443   3.830  10.787  0.5524 -0.7134  0.5085
  696MOL0     C95970   6.384   3.705  10.795 -0.1241  0.5407  0.3394
  696MOL0     C95971   6.425   3.641  10.920  1.1218  0.1174 -0.3254
  696MOL0     C95972   6.381   3.730  11.038 -0.8663 -0.1809 -0.9282
  696MOL0     C95973   6.380   3.652  11.180  0.3328 -0.1938 -0.2429
  696MOL0     C95974   6.280   3.548  11.190 -0.4247 -0.3744 -0.2978
  696MOL0     C95975   6.202   3.456  11.190 -0.2376  0.1558  0.2385
  696MOL0     C95976   6.528   3.981  10.613  1.0081 -0.0308  0.0492
  696MOL0     C95977   6.534   4.056  10.493  0.1710  0.3169 -0.0298
  696MOL0     C95978   6.637   4.167  10.482 -0.2910  0.4042 -0.4327
  696MOL0     H95979   6.301   4.272  10.050 -2.4407  0.2543 -1.3189
  696MOL0     H95980   6.386   4.298   9.811  4.2787  0.2929  1.4923
  696MOL0     H95981   6.483   3.940   9.554 -0.3492 -1.2068  5.0928
  696MOL0     H95982   6.595   4.022   9.665  0.3397  2.3802  0.2184
  696MOL0     H95983   6.631   4.058   9.407 -1.2431 -0.2725  0.1573
  696MOL0     H95984   6.470   4.117   9.408 -1.1403 -2.1046  1.4761
  696MOL0     H95985   6.539   4.313   9.547  1.2505  2.5560  0.7122
  696MOL0     H95986   6.696   4.260   9.548  0.4613  1.3575 -0.1862
  696MOL0     H95987   6.732   4.281   9.307 -1.0514 -0.2028  0.2097
  696MOL0     H95988   6.569   4.334   9.284 -1.3054 -1.5968  0.3440
  696MOL0     H95989   6.771   4.475   9.463 -0.7674 -1.0510  0.0576
  696MOL0     H95990   6.601   4.527   9.444 -1.7121 -0.8536  0.2313
  696MOL0     H95991   6.718   4.688   9.315  0.8453  0.0593 -0.3949
  696MOL0     H95992   6.798   4.574   9.220 -0.2849  0.4935  0.7659
  696MOL0     H95993   6.488   4.629   9.233 -1.8837  0.1278 -1.8153
  696MOL0     H95994   6.569   4.502   9.124  3.0632 -0.4599  0.8855
  696MOL0     H95995   6.651   4.672   9.000  0.3593 -2.7285  1.3398
  696MOL0     H95996   6.494   4.734   9.040  0.3084 -1.0962 -2.3011
  696MOL0     H95997   6.507   4.913   9.256 -0.9228 -0.4990  0.0325
  696MOL0     H95998   6.740   5.103   9.391  0.1330 -0.6798 -0.5310
  696MOL0     H95999   6.576   5.125   9.348  0.4620  2.1759 -0.6403
  696MOL0     H96000   6.818   5.262   9.205 -0.7934  0.0994 -2.5731
  696MOL0     H96001   6.664   5.266   9.135  2.9722 -0.3717 -1.6971
  696MOL0     H96002   6.557   5.360   9.324  1.0509 -1.6766 -3.1532
  696MOL0     H96003   6.707   5.346   9.423  1.0816  0.2082 -0.2239
  696MOL0     H96004   6.644   5.531   9.182 -1.0177  0.4328  0.8414
  696MOL0     H96005   6.652   5.568   9.355 -1.9544 -1.3310 -0.4781
  696MOL0     H96006   6.716   5.760   9.253 -0.0692 -0.4820  0.6240
  696MOL0     H96007   6.699   5.998   9.213  0.2175  0.1544 -1.7842
  696MOL0     H96008   6.845   6.081   9.172 -2.2602 -0.6698 -1.4478
  696MOL0     H96009   6.795   6.072   9.341 -0.0702  2.3266 -1.2156
  696MOL0     H96010   7.439   5.917   9.375  4.3019  0.5684 -3.0592
  696MOL0     H96011   7.617   6.034   9.508 -1.8106 -2.7439 -0.0423
  696MOL0     H96012   7.678   6.140   9.712  2.5842 -2.3700 -1.2096
  696MOL0     H96013   7.772   6.161   9.576  2.4064  1.9650  0.9825
  696MOL0     H96014   7.770   6.417   9.734 -2.5275  0.0116 -2.8588
  696MOL0     H96015   7.860   6.286   9.801 -1.7149 -1.1620  0.4626
  696MOL0     H96016   7.890   6.414   9.519 -0.3189  0.5094  1.5188
  696MOL0     H96017   7.989   6.280   9.593  1.6140  1.4490 -3.1325
  696MOL0     H96018   8.056   6.424   9.773  2.1434 -0.0141 -0.9784
  696MOL0     H96019   7.952   6.549   9.726 -1.2685 -2.1918 -0.2867
  696MOL0     H96020   8.080   6.596   9.522  0.3874 -0.0519  0.6013
  696MOL0     H96021   8.185   6.601   9.654 -1.1343  0.0492  1.2335
  696MOL0     H96022   8.154   6.365   9.438  2.1078 -0.6141 -1.1348
  696MOL0     H96023   8.252   6.334   9.572  0.7247 -1.6981 -3.2937
  696MOL0     H96024   8.374   6.566   9.492  0.6847  0.4769 -0.8254
  696MOL0     H96025   8.291   6.521   9.347  0.4219 -1.8245 -0.1900
  696MOL0     H96026   8.413   6.297   9.354 -1.6838  0.8073  0.3527
  696MOL0     H96027   8.479   6.337   9.508 -1.2388 -0.7291 -0.1444
  696MOL0     H96028   7.389   6.392   9.497 -0.5191 -0.1526  3.2229
  696MOL0     H96029   7.221   6.283   9.342 -1.1339 -2.6238 -1.2482
  696MOL0     H96030   7.201   5.776   9.322 -1.5202 -0.3529  0.7567
  696MOL0     H96031   7.089   5.567   9.296 -2.4828 -1.9839 -0.2258
  696MOL0     H96032   6.370   3.880   9.764  1.9416 -0.1452 -0.3216
  696MOL0     H96033   6.335   3.848  10.013  0.7233  0.2328  0.3446
  696MOL0     H96034   6.241   3.915  10.375  0.3088 -1.0568  0.7914
  696MOL0     H96035   6.251   3.792  10.600 -0.2044 -1.3392 -1.8382
  696MOL0     H96036   6.275   3.716  10.791  0.0302  2.2511  0.1522
  696MOL0     H96037   6.407   3.643  10.708  1.9270 -0.8587  1.8168
  696MOL0     H96038   6.532   3.623  10.934  0.5689 -2.0442  1.8902
  696MOL0     H96039   6.374   3.545  10.933  1.3032  0.1836  1.0973
  696MOL0     H96040   6.445   3.815  11.062 -0.5804 -0.5882 -0.2252
  696MOL0     H96041   6.276   3.759  11.024 -0.4456  1.3533 -1.0789
  696MOL0     H96042   6.379   3.725  11.261  2.0108 -2.8661  2.3744
  696MOL0     H96043   6.476   3.606  11.206  0.7328  1.2582  0.9950
  696MOL0     H96044   6.117   3.391  11.180 -2.1138  2.4553  0.4522
  696MOL0     H96045   6.602   4.000  10.690  1.6539 -1.5242 -0.1635
  696MOL0     H96046   6.716   4.143  10.410  0.0544 -2.8354  0.8670
  696MOL0     H96047   6.599   4.268  10.463 -0.8888  0.4417  0.8508
  696MOL0     H96048   6.692   4.187  10.574 -1.7314 -0.5255  0.6909
  697MOL0     O96049   6.104   4.354   5.636  0.7263 -1.1058 -0.0889
  697MOL0     C96050   6.081   4.242   5.587 -0.1034  0.0022 -0.4820
  697MOL0     O96051   6.175   4.142   5.558 -0.8840  0.5646 -0.9606
  697MOL0     C96052   6.306   4.157   5.592 -0.3871 -0.2128  1.0184
  697MOL0     C96053   6.382   4.072   5.670 -0.4162 -0.4966 -0.4334
  697MOL0     C96054   6.518   4.094   5.699  0.7917 -0.0324  0.2079
  697MOL0     C96055   6.584   4.196   5.649 -0.0398 -0.1415  0.0118
  697MOL0     O96056   6.718   4.207   5.686  0.0424 -0.2106 -0.2425
  697MOL0     C96057   6.762   4.333   5.726  0.4446  0.3477  0.4387
  697MOL0     C96058   6.823   4.415   5.618  0.1878 -0.3203  0.4659
  697MOL0     C96059   6.977   4.431   5.630 -0.8839  0.0379  0.5554
  697MOL0     C96060   7.048   4.458   5.496  0.7303 -0.0566 -0.0580
  697MOL0     C96061   7.202   4.476   5.500  0.1736 -0.9220  0.4833
  697MOL0     C96062   7.251   4.602   5.570  0.4856  0.3854 -0.0629
  697MOL0     C96063   7.401   4.632   5.553 -0.5315  0.1074 -0.0513
  697MOL0     C96064   7.446   4.636   5.406  0.6630 -0.2225  0.0622
  697MOL0     N96065   7.589   4.658   5.380  0.1318  0.4728 -0.7587
  697MOL0     C96066   7.675   4.749   5.437  0.3962 -0.6652 -0.0405
  697MOL0     C96067   7.792   4.721   5.391  0.0936 -0.6521 -0.7996
  697MOL0     C96068   7.913   4.785   5.438 -0.0577 -0.1237  0.5100
  697MOL0     C96069   7.952   4.729   5.571 -0.5491  0.0390  0.0080
  697MOL0     C96070   8.090   4.760   5.619  0.0574 -0.3297 -0.0917
  697MOL0     C96071   8.112   4.895   5.684 -0.2949  0.6637 -0.2460
  697MOL0     O96072   8.250   4.916   5.710 -0.7086  0.0859  0.5988
  697MOL0     C96073   8.282   5.046   5.702 -0.3865 -0.8258 -0.2154
  697MOL0     C96074   8.301   5.112   5.583 -0.0400 -0.1752 -0.0312
  697MOL0     C96075   8.356   5.242   5.579 -0.0759  0.0169  0.1174
  697MOL0     C96076   8.385   5.293   5.436 -0.4798 -0.4851  0.6207
  697MOL0     C96077   8.384   5.317   5.699  0.5902 -0.0349  0.2916
  697MOL0     C96078   8.453   5.460   5.701 -0.2299  0.1200 -0.4106
  697MOL0     O96079   8.427   5.533   5.812  1.2034  0.3527 -0.5795
  697MOL0     C96080   8.516   5.638   5.843 -0.5023  0.2746 -0.4883
  697MOL0     C96081   8.455   5.757   5.891 -0.0591 -1.0959  0.3919
  697MOL0     C96082   8.537   5.865   5.929 -0.2638 -0.7991  0.3735
  697MOL0     C96083   8.681   5.864   5.922 -0.8945  0.7750  0.4797
  697MOL0     O96084   8.773   5.955   5.972 -0.6444 -0.3856  0.5884
  697MOL0     C96085   8.746   6.019   6.092 -0.5920  0.1330  0.1833
  697MOL0     C96086   8.883   6.057   6.152 -0.1730  0.0446  0.0513
  697MOL0     C96087   8.996   6.092   6.048 -0.0474  0.1709 -0.3436
  697MOL0     C96088   9.111   6.175   6.115  0.3498  0.9370 -0.3946
  697MOL0     C96089   9.215   6.202   6.007  0.6073  0.3834  0.4084
  697MOL0     C96090   9.340   6.264   6.056 -0.2522  0.0210 -0.1684
  697MOL0     C96091   9.421   6.311   5.936 -0.6730  0.7153  0.5539
  697MOL0     C96092   9.559   6.360   5.982 -0.4784 -0.0067  0.0155
  697MOL0    Cl96093   9.529   6.502   6.089 -0.4225  0.5239 -0.0089
  697MOL0     C96094   8.734   5.742   5.876 -0.5853 -0.4338 -0.6033
  697MOL0     C96095   8.660   5.634   5.832  0.8796 -0.1382  0.4586
  697MOL0     O96096   8.525   5.494   5.605 -0.1274 -0.2493 -0.1690
  697MOL0     C96097   8.356   5.254   5.810  0.6302  1.1487 -0.0729
  697MOL0     C96098   8.310   5.119   5.819  0.6445 -1.1233 -0.2754
  697MOL0     N96099   7.785   4.606   5.311  0.2432  0.6649  0.5036
  697MOL0     N96100   7.659   4.573   5.304 -0.3045  0.2758 -0.0998
  697MOL0     C96101   6.514   4.290   5.571 -0.6994  0.5120 -0.0274
  697MOL0     C96102   6.379   4.268   5.545 -0.8995 -0.3587  0.6346
  697MOL0     C96103   5.936   4.212   5.556 -0.3621 -1.1224 -0.2135
  697MOL0     C96104   5.899   4.076   5.528 -0.0533 -0.0170  0.3499
  697MOL0     C96105   5.768   4.027   5.512 -0.2383 -0.2176  0.1529
  697MOL0     C96106   5.664   4.121   5.509 -0.4980 -0.2761 -0.1402
  697MOL0     O96107   5.531   4.083   5.500 -0.7316 -0.4549  0.5980
  697MOL0     C96108   5.480   3.976   5.588  0.1231 -0.6169 -0.1950
  697MOL0     C96109   5.426   4.043   5.713 -0.3282  0.2666 -0.4200
  697MOL0     C96110   5.390   3.927   5.810  1.0179 -0.1036 -0.2488
  697MOL0     C96111   5.357   3.993   5.944  0.7480  0.1657 -0.4328
  697MOL0     C96112   5.265   3.913   6.022  0.3952 -0.1170  0.4453
  697MOL0     C96113   5.197   3.848   6.092 -0.0346  0.2478  0.2949
  697MOL0     C96114   5.693   4.254   5.524 -0.5117 -0.8382  0.8904
  697MOL0     C96115   5.828   4.307   5.547  0.0248  0.4737  0.7979
  697MOL0     C96116   5.842   4.457   5.542  0.0088 -1.4758  0.0827
  697MOL0     H96117   6.325   3.990   5.712 -1.7736  0.2611 -0.7246
  697MOL0     H96118   6.561   4.022   5.767  0.3398  0.1933  0.7429
  697MOL0     H96119   6.834   4.331   5.808  1.0447  0.9501 -0.0662
  697MOL0     H96120   6.676   4.394   5.758 -0.6128 -1.4378  1.1383
  697MOL0     H96121   6.787   4.381   5.520 -0.1975  4.2325 -1.2062
  697MOL0     H96122   6.777   4.514   5.620 -3.1239 -1.6956  3.7286
  697MOL0     H96123   6.996   4.519   5.692 -4.0547  1.2220  0.0188
  697MOL0     H96124   7.033   4.348   5.675  2.4036 -0.0073 -3.0598
  697MOL0     H96125   7.028   4.381   5.421  1.0887  1.5162 -1.8473
  697MOL0     H96126   7.006   4.546   5.448  0.9115 -0.5609 -1.1877
  697MOL0     H96127   7.226   4.492   5.394 -1.2995 -2.7637 -0.1843
  697MOL0     H96128   7.251   4.386   5.540 -0.1140 -1.2271  0.1610
  697MOL0     H96129   7.197   4.692   5.541  1.4164  0.8360 -0.4295
  697MOL0     H96130   7.236   4.586   5.677  0.4044 -3.5228 -0.5013
  697MOL0     H96131   7.463   4.559   5.606  0.6467  0.1617 -1.3051
  697MOL0     H96132   7.407   4.727   5.606 -1.3289 -0.4195  1.0168
  697MOL0     H96133   7.428   4.535   5.368  1.0790  0.7449 -2.9235
  697MOL0     H96134   7.385   4.702   5.344 -0.6022 -0.3992  1.0745
  697MOL0     H96135   7.638   4.817   5.513  0.2351 -0.6318 -0.1509
  697MOL0     H96136   7.904   4.894   5.446  2.8121  0.3624 -1.2178
  697MOL0     H96137   7.995   4.756   5.371 -1.5241  1.0556 -1.9541
  697MOL0     H96138   7.879   4.762   5.646 -0.7121 -2.0465  0.8300
  697MOL0     H96139   7.948   4.620   5.569  1.1931 -0.0453 -1.4728
  697MOL0     H96140   8.131   4.691   5.693 -1.8200 -1.6820 -0.2649
  697MOL0     H96141   8.152   4.747   5.530 -1.0059  1.0194 -1.0716
  697MOL0     H96142   8.080   4.978   5.621 -1.8403  0.7136  0.5728
  697MOL0     H96143   8.056   4.896   5.778  1.4755 -3.2453  1.0613
  697MOL0     H96144   8.274   5.054   5.495  1.8618 -0.5019 -0.4281
  697MOL0     H96145   8.378   5.399   5.412  4.4445 -0.3828 -1.5700
  697MOL0     H96146   8.312   5.239   5.375  1.1335 -1.2329 -0.7269
  697MOL0     H96147   8.490   5.264   5.423 -0.4923 -0.4238  0.3750
  697MOL0     H96148   8.349   5.775   5.905  0.3168  0.8347  1.1614
  697MOL0     H96149   8.485   5.954   5.965  0.6815  0.1364 -0.5027
  697MOL0     H96150   8.697   6.115   6.072 -4.1899 -1.6149 -0.2931
  697MOL0     H96151   8.674   5.966   6.155 -0.4221  2.3718  2.4226
  697MOL0     H96152   8.859   6.147   6.209 -1.8670  0.2970 -0.9991
  697MOL0     H96153   8.914   5.964   6.202  1.0805 -1.0720 -2.6196
  697MOL0     H96154   8.969   6.148   5.957  2.9265  1.2587 -0.6584
  697MOL0     H96155   9.037   5.997   6.013 -1.3652 -0.1501 -1.0947
  697MOL0     H96156   9.159   6.132   6.203 -1.7712  0.9925  0.8746
  697MOL0     H96157   9.070   6.274   6.138  0.7353  1.2414 -0.9869
  697MOL0     H96158   9.244   6.104   5.969 -0.1543  1.0151 -1.9540
  697MOL0     H96159   9.171   6.271   5.934 -1.4745 -1.5490 -0.2844
  697MOL0     H96160   9.395   6.192   6.116  2.1748  1.0942 -0.9873
  697MOL0     H96161   9.314   6.348   6.121  0.7705  1.8008 -1.9252
  697MOL0     H96162   9.361   6.394   5.896 -0.4626  0.5953 -0.0269
  697MOL0     H96163   9.430   6.226   5.868 -0.0808 -0.6118  2.2409
  697MOL0     H96164   9.620   6.391   5.896 -2.5688  2.8575 -0.6048
  697MOL0     H96165   9.610   6.277   6.032  0.2302  0.5441  0.2239
  697MOL0     H96166   8.841   5.726   5.886 -0.9807 -1.7101  4.9431
  697MOL0     H96167   8.716   5.547   5.798 -0.3695 -0.2467 -1.4617
  697MOL0     H96168   8.377   5.313   5.898 -0.6651 -2.1435  2.6769
  697MOL0     H96169   8.286   5.080   5.917 -2.9874  1.2729 -0.0093
  697MOL0     H96170   6.562   4.379   5.531  0.7432 -0.4212 -0.4336
  697MOL0     H96171   6.329   4.339   5.480 -2.1183 -0.3660  1.5382
  697MOL0     H96172   5.980   4.004   5.524 -0.4093 -0.4626  1.0510
  697MOL0     H96173   5.741   3.925   5.489 -0.4784 -0.0962 -0.1099
  697MOL0     H96174   5.395   3.927   5.540 -0.6283  1.5221 -1.1231
  697MOL0     H96175   5.561   3.905   5.609 -0.0586 -0.3132  1.6631
  697MOL0     H96176   5.333   4.097   5.691  0.6161  2.8105  1.3585
  697MOL0     H96177   5.488   4.117   5.765 -0.9589 -1.0876  2.4705
  697MOL0     H96178   5.315   3.861   5.766  2.6240 -0.7148 -2.2559
  697MOL0     H96179   5.467   3.855   5.839  0.4975  0.1851  2.0036
  697MOL0     H96180   5.299   4.085   5.931  2.0666  1.1691  0.4787
  697MOL0     H96181   5.443   4.026   6.003 -0.0307  1.6430 -0.0740
  697MOL0     H96182   5.128   3.785   6.144  1.6691 -2.2270 -0.2466
  697MOL0     H96183   5.613   4.326   5.513 -1.6080 -1.7059  2.7377
  697MOL0     H96184   5.813   4.501   5.638  0.6859  2.2911 -1.2635
  697MOL0     H96185   5.940   4.494   5.511 -1.1029 -1.7721 -4.4215
  697MOL0     H96186   5.770   4.495   5.469 -1.3081 -0.9906  1.5759
  698MOL0     O96187  10.400   6.189   5.149 -0.1010 -0.0343 -0.8971
  698MOL0     C96188  10.299   6.261   5.149 -0.0657 -0.7633 -0.5695
  698MOL0     O96189  10.251   6.315   5.262 -0.5035  0.0365 -0.6132
  698MOL0     C96190  10.320   6.309   5.383 -0.1895  0.5792 -0.3062
  698MOL0     C96191  10.322   6.186   5.458 -0.1223  0.0602  0.5985
  698MOL0     C96192  10.412   6.184   5.569 -0.7739 -0.7621 -0.2260
  698MOL0     C96193  10.481   6.293   5.611 -0.5190 -0.6856  0.0202
  698MOL0     O96194  10.585   6.280   5.708 -0.2751 -0.2524 -0.1777
  698MOL0     C96195  10.719   6.329   5.693 -0.0613 -0.6861 -0.4572
  698MOL0     C96196  10.783   6.338   5.839 -0.8728 -0.3865 -0.2882
  698MOL0     C96197  10.747   6.241   5.947 -0.0491  0.2369  0.4226
  698MOL0     C96198  10.839   6.251   6.074  0.6914  0.3173  0.3556
  698MOL0     C96199  10.982   6.208   6.075 -1.1476 -0.3143 -0.1800
  698MOL0     C96200  11.003   6.059   6.047  1.0579  0.1139 -0.6778
  698MOL0     C96201  11.137   5.998   6.070 -0.1338 -0.2442  0.0993
  698MOL0     C96202  11.185   6.013   6.210 -0.9554 -0.1898  0.1272
  698MOL0     N96203  11.309   5.931   6.226 -0.1744  0.3532  0.4624
  698MOL0     C96204  11.418   5.964   6.150  0.1679 -0.2862 -0.3171
  698MOL0     C96205  11.517   5.889   6.204 -0.3841 -0.2247  0.0370
  698MOL0     C96206  11.659   5.889   6.154 -0.8563  0.1948 -0.6615
  698MOL0     C96207  11.762   5.890   6.269 -0.6461 -0.0112 -0.0260
  698MOL0     C96208  11.791   5.745   6.313 -0.3909 -0.0232  0.0552
  698MOL0     C96209  11.877   5.721   6.430 -0.0410 -0.5120 -0.5795
  698MOL0     O96210  12.008   5.773   6.408 -0.2897 -0.0804 -0.4374
  698MOL0     C96211  12.108   5.701   6.359 -0.6113  0.0888  0.0331
  698MOL0     C96212  12.093   5.577   6.291  0.6159  0.0543 -0.6387
  698MOL0     C96213  12.207   5.509   6.249 -0.2986 -0.4082 -0.1095
  698MOL0     C96214  12.177   5.385   6.170  0.8228  0.1781  1.3359
  698MOL0     C96215  12.335   5.555   6.285 -0.2502 -0.3719 -0.8198
  698MOL0     C96216  12.460   5.487   6.233  1.0635 -0.9378 -0.1944
  698MOL0     O96217  12.562   5.574   6.220 -0.9039  0.0317 -0.2040
  698MOL0     C96218  12.680   5.519   6.168  0.3132 -0.1481  0.9165
  698MOL0     C96219  12.785   5.468   6.233 -0.6232 -0.2022  0.2191
  698MOL0     C96220  12.898   5.417   6.172 -0.2743  0.6451 -0.1320
  698MOL0     C96221  12.921   5.430   6.032 -0.4719  0.1694 -0.8545
  698MOL0     O96222  13.025   5.377   5.961  0.2266 -0.2346  0.2060
  698MOL0     C96223  13.128   5.309   6.044 -0.3270  0.2676  0.2773
  698MOL0     C96224  13.251   5.268   5.956  0.9838  0.0640  0.0641
  698MOL0     C96225  13.386   5.258   6.038  0.1261  0.0688  0.4273
  698MOL0     C96226  13.492   5.240   5.937  0.1294 -0.2753 -0.1748
  698MOL0     C96227  13.630   5.187   5.979 -0.5235 -0.4217 -0.2148
  698MOL0     C96228  13.724   5.254   6.082  0.5262 -0.4028 -0.0039
  698MOL0     C96229  13.853   5.191   6.127  0.6879  0.0759  0.4681
  698MOL0     C96230  13.818   5.062   6.192 -0.4827  0.3533  0.5628
  698MOL0    Cl96231  13.972   4.960   6.211 -0.5152  0.1755  0.1815
  698MOL0     C96232  12.808   5.482   5.957  0.4665 -0.4812  0.0418
  698MOL0     C96233  12.688   5.522   6.022  1.2491  0.6794  0.4562
  698MOL0     O96234  12.453   5.367   6.213  0.0492 -0.2285 -0.5104
  698MOL0     C96235  12.354   5.677   6.356  0.5323  0.2444  0.1565
  698MOL0     C96236  12.242   5.749   6.393  0.1104 -0.6289  0.3166
  698MOL0     N96237  11.462   5.803   6.299  1.5411  0.4186  0.2103
  698MOL0     N96238  11.338   5.826   6.307 -0.2870  0.6458  1.1480
  698MOL0     C96239  10.467   6.414   5.543  0.7888 -0.3349 -0.2400
  698MOL0     C96240  10.385   6.424   5.436 -0.1822 -0.1539 -0.4591
  698MOL0     C96241  10.234   6.294   5.013 -0.1148 -0.4619 -0.3262
  698MOL0     C96242  10.109   6.365   5.014  0.4823 -0.0638 -0.0715
  698MOL0     C96243  10.043   6.379   4.895 -0.0088  0.3313  0.5421
  698MOL0     C96244  10.100   6.346   4.772  0.4056  0.3908  0.2238
  698MOL0     O96245  10.027   6.347   4.652  0.2349  0.4836  0.0462
  698MOL0     C96246   9.979   6.225   4.594 -0.2369 -0.1358 -0.5364
  698MOL0     C96247   9.892   6.238   4.464 -0.1344  0.3191 -0.4811
  698MOL0     C96248   9.753   6.304   4.473 -1.2239 -0.2267 -0.5138
  698MOL0     C96249   9.637   6.222   4.534 -0.1258 -0.3475 -0.9618
  698MOL0     C96250   9.515   6.301   4.524 -0.0089 -0.3107  0.4834
  698MOL0     C96251   9.423   6.374   4.484 -0.3387  0.3065  0.0472
  698MOL0     C96252  10.231   6.288   4.770 -0.3699  0.0337 -0.7207
  698MOL0     C96253  10.295   6.249   4.888  0.0857 -1.0229 -1.1252
  698MOL0     C96254  10.425   6.178   4.870 -0.5882  0.4384  0.0793
  698MOL0     H96255  10.286   6.089   5.425  1.3090 -0.9156  1.8148
  698MOL0     H96256  10.437   6.094   5.625 -2.8255  0.0398  2.1534
  698MOL0     H96257  10.711   6.427   5.644  0.5578 -1.0577 -1.3362
  698MOL0     H96258  10.769   6.270   5.615  0.5802 -0.2954 -0.3495
  698MOL0     H96259  10.892   6.344   5.837 -0.3128 -2.8481  4.8080
  698MOL0     H96260  10.747   6.429   5.887 -0.8164 -1.3915  1.8052
  698MOL0     H96261  10.646   6.273   5.976 -0.3691 -1.3266  1.1593
  698MOL0     H96262  10.742   6.141   5.903 -0.3797  1.0054 -1.3776
  698MOL0     H96263  10.837   6.347   6.125  1.0461  0.2994  0.4104
  698MOL0     H96264  10.775   6.210   6.153 -0.9801  2.0794 -0.0006
  698MOL0     H96265  11.026   6.229   6.173  1.8122 -0.9141 -1.2639
  698MOL0     H96266  11.039   6.272   6.007  3.0333 -3.2100  0.1660
  698MOL0     H96267  10.930   6.011   6.112 -2.8674  2.0697 -3.2459
  698MOL0     H96268  10.962   6.040   5.947 -1.8240  3.0344 -0.1979
  698MOL0     H96269  11.210   6.041   6.001  0.7996 -2.4681 -0.3923
  698MOL0     H96270  11.140   5.893   6.038  2.3723  0.3407 -1.9569
  698MOL0     H96271  11.209   6.117   6.232 -0.8274 -0.0873 -0.4788
  698MOL0     H96272  11.117   5.973   6.286 -1.2125 -2.1179 -1.0384
  698MOL0     H96273  11.419   6.035   6.067 -0.1597  2.8241  2.1315
  698MOL0     H96274  11.674   5.990   6.114  1.8283  0.3254  0.4395
  698MOL0     H96275  11.683   5.809   6.083 -0.2286 -0.4734  0.2787
  698MOL0     H96276  11.857   5.943   6.263  0.1939 -0.9442  3.1285
  698MOL0     H96277  11.708   5.938   6.351 -0.5779 -0.0127  0.0188
  698MOL0     H96278  11.705   5.681   6.333  0.8381 -1.5529  0.6726
  698MOL0     H96279  11.839   5.699   6.225  2.2307 -1.2584  2.0079
  698MOL0     H96280  11.824   5.765   6.515 -0.0925 -5.3370  2.2529
  698MOL0     H96281  11.880   5.617   6.464  4.3207 -0.3724  0.0038
  698MOL0     H96282  11.996   5.538   6.265  0.4918 -0.3588  0.3982
  698MOL0     H96283  12.255   5.350   6.102 -1.0073 -2.0612  0.2468
  698MOL0     H96284  12.091   5.406   6.106  0.3200  2.0082  2.5472
  698MOL0     H96285  12.146   5.299   6.229 -1.4433  0.1132  0.1504
  698MOL0     H96286  12.778   5.453   6.340 -0.7180 -1.0822  0.0956
  698MOL0     H96287  12.961   5.365   6.243 -0.7813 -1.4796 -1.1455
  698MOL0     H96288  13.160   5.361   6.135  0.6188  2.0710 -1.0163
  698MOL0     H96289  13.085   5.214   6.078  0.4138  0.4878  1.9148
  698MOL0     H96290  13.237   5.166   5.917  2.7729  0.5467 -2.0143
  698MOL0     H96291  13.263   5.341   5.876  0.9563 -0.0072 -0.0057
  698MOL0     H96292  13.385   5.180   6.115  0.0807 -0.4635 -0.1113
  698MOL0     H96293  13.424   5.348   6.089  0.8155 -0.6302  1.1891
  698MOL0     H96294  13.512   5.335   5.887  5.2097 -1.2786 -0.5198
  698MOL0     H96295  13.462   5.162   5.867  2.8847 -0.0826 -1.7005
  698MOL0     H96296  13.614   5.085   6.013  2.0891 -2.2287 -3.7944
  698MOL0     H96297  13.693   5.171   5.892  0.9724  2.5329  0.2046
  698MOL0     H96298  13.661   5.270   6.170 -0.4652 -3.3158 -0.1018
  698MOL0     H96299  13.754   5.352   6.042  2.3136 -0.0386  2.0723
  698MOL0     H96300  13.905   5.258   6.197 -1.6439 -0.9773  3.4241
  698MOL0     H96301  13.917   5.181   6.039 -0.0891  2.3705 -0.4485
  698MOL0     H96302  13.758   4.997   6.128 -0.7837 -1.3588  2.5118
  698MOL0     H96303  13.760   5.074   6.284 -0.6959 -0.4433  0.5411
  698MOL0     H96304  12.812   5.479   5.849  2.4624  0.2095  0.0586
  698MOL0     H96305  12.607   5.561   5.961 -0.7984 -1.6020  1.5627
  698MOL0     H96306  12.456   5.707   6.378  0.8895  1.1125 -2.4552
  698MOL0     H96307  12.250   5.839   6.454  0.6616 -1.0018  0.7949
  698MOL0     H96308  10.539   6.492   5.567 -0.2396  0.5625 -0.0005
  698MOL0     H96309  10.393   6.516   5.378  4.4426 -0.7365 -1.1076
  698MOL0     H96310  10.063   6.389   5.109  1.2983 -1.1175  0.6207
  698MOL0     H96311   9.943   6.417   4.880  0.2173  0.1457 -1.6133
  698MOL0     H96312  10.059   6.152   4.580 -0.8473 -0.8051 -0.6076
  698MOL0     H96313   9.912   6.176   4.665 -0.8465 -0.8205 -1.5646
  698MOL0     H96314   9.884   6.131   4.439 -1.2380 -0.3321  2.2563
  698MOL0     H96315   9.954   6.304   4.404  1.5955 -0.5591  0.2649
  698MOL0     H96316   9.761   6.395   4.533  4.1788 -1.2421  0.8163
  698MOL0     H96317   9.732   6.338   4.371  0.5449 -1.6481 -1.4242
  698MOL0     H96318   9.649   6.199   4.640  1.4699 -2.0996 -1.4659
  698MOL0     H96319   9.614   6.128   4.483 -2.9422  0.4641 -1.3599
  698MOL0     H96320   9.339   6.435   4.458 -1.0470 -1.4825 -2.1997
  698MOL0     H96321  10.277   6.267   4.675  2.6528 -0.6884  0.7797
  698MOL0     H96322  10.442   6.092   4.935  2.1405  1.9841  1.6042
  698MOL0     H96323  10.422   6.143   4.767  1.7197  0.2478  0.0288
  698MOL0     H96324  10.515   6.238   4.882 -0.6333  0.5792 -0.2774
  699MOL0     O96325  10.217   6.417   1.555 -0.0700 -0.1785  0.3458
  699MOL0     C96326  10.142   6.431   1.652 -0.1384  0.2027  0.3545
  699MOL0     O96327  10.184   6.459   1.779  1.0600 -0.2913  0.1561
  699MOL0     C96328  10.318   6.472   1.795  0.8715  0.6646  0.5728
  699MOL0     C96329  10.379   6.600   1.790 -0.1432 -0.7914  0.7202
  699MOL0     C96330  10.518   6.598   1.768  0.2471  0.9212 -0.3299
  699MOL0     C96331  10.593   6.479   1.755  1.5933  0.1464 -0.3514
  699MOL0     O96332  10.718   6.478   1.702 -0.3535 -0.9245  0.2646
  699MOL0     C96333  10.820   6.576   1.738  0.4517  1.1439 -0.4154
  699MOL0     C96334  10.961   6.532   1.703  0.0227 -0.2201 -1.2563
  699MOL0     C96335  10.974   6.502   1.544  0.1160 -0.2647 -0.2699
  699MOL0     C96336  10.933   6.628   1.463 -0.3085 -0.1790  0.7047
  699MOL0     C96337  10.964   6.635   1.308  0.0952 -0.4779 -0.5468
  699MOL0     C96338  11.122   6.639   1.299  0.1461 -0.1949  0.2173
  699MOL0     C96339  11.173   6.687   1.170  0.7504 -0.2490 -0.0363
  699MOL0     C96340  11.149   6.837   1.148  0.6897 -0.7854  0.6275
  699MOL0     N96341  11.247   6.898   1.051  0.7724 -0.1587  0.2913
  699MOL0     C96342  11.333   7.005   1.074 -0.1534 -0.1871 -0.5084
  699MOL0     C96343  11.417   7.013   0.971  1.0562 -0.3888 -0.0317
  699MOL0     C96344  11.527   7.123   0.952  0.1098 -0.2779  0.5863
  699MOL0     C96345  11.626   7.086   0.845 -0.3874 -0.0747 -0.2274
  699MOL0     C96346  11.721   7.206   0.810 -0.1429 -0.2523 -0.4563
  699MOL0     C96347  11.761   7.205   0.658 -0.2824  0.5018 -0.7053
  699MOL0     O96348  11.827   7.079   0.619 -0.4764 -0.1890 -0.0611
  699MOL0     C96349  11.959   7.064   0.644 -0.5342 -0.1217  0.0051
  699MOL0     C96350  11.997   6.927   0.623  0.2552 -1.1039  0.1277
  699MOL0     C96351  12.120   6.883   0.661  0.0429  0.1413  0.3232
  699MOL0     C96352  12.158   6.743   0.609 -0.2214  0.2538  0.1418
  699MOL0     C96353  12.213   6.982   0.711  0.6103  0.3346 -0.0686
  699MOL0     C96354  12.359   6.967   0.735 -0.0127  0.7291  0.5080
  699MOL0     O96355  12.412   6.851   0.782 -0.1452  0.6587  0.4010
  699MOL0     C96356  12.545   6.820   0.765  0.1480  0.0330  0.1128
  699MOL0     C96357  12.579   6.718   0.675  0.4439 -0.1324 -0.3955
  699MOL0     C96358  12.710   6.673   0.675  0.2613  0.2475 -0.2671
  699MOL0     C96359  12.814   6.718   0.746 -1.4420  0.0296 -0.5457
  699MOL0     O96360  12.943   6.670   0.739 -0.0743  0.2546  0.7762
  699MOL0     C96361  12.985   6.589   0.622  0.5501  0.2110  0.4312
  699MOL0     C96362  12.960   6.442   0.638 -0.4329  0.7130 -0.1309
  699MOL0     C96363  12.997   6.367   0.513  0.0571  0.5032  0.2331
  699MOL0     C96364  13.150   6.349   0.499 -0.0039 -0.2732 -0.5721
  699MOL0     C96365  13.166   6.295   0.358  0.0261 -0.6654 -0.0487
  699MOL0     C96366  13.312   6.269   0.322 -0.5608  0.9900  0.5562
  699MOL0     C96367  13.333   6.281   0.167 -0.7803  0.0388 -0.1312
  699MOL0     C96368  13.431   6.177   0.119  0.3072 -0.8601 -0.6453
  699MOL0    Cl96369  13.604   6.237   0.184  0.3695 -0.1023 -0.6406
  699MOL0     C96370  12.788   6.826   0.827 -0.4673  0.1686  0.2544
  699MOL0     C96371  12.655   6.874   0.843  0.0568  1.1052  0.2905
  699MOL0     O96372  12.432   7.065   0.712  0.3617 -0.5661  0.3525
  699MOL0     C96373  12.173   7.117   0.738 -0.8287  0.2700  0.5040
  699MOL0     C96374  12.044   7.152   0.698 -0.5862 -0.6951 -0.1937
  699MOL0     N96375  11.373   6.918   0.878 -1.4352 -0.6236 -0.2912
  699MOL0     N96376  11.271   6.852   0.928  0.2187  0.0614 -0.1962
  699MOL0     C96377  10.530   6.357   1.757  0.1310  0.7886 -0.0052
  699MOL0     C96378  10.392   6.357   1.781  0.0604  0.9972  0.1680
  699MOL0     C96379  10.002   6.404   1.637 -0.3671  0.2050  0.3317
  699MOL0     C96380   9.864   6.472   1.778  1.2924  0.0785  0.1411
  699MOL0     C96381   9.656   6.448   1.740  0.1362 -0.1630 -0.2131
  699MOL0     C96382   9.592   6.354   1.561 -0.4879  0.1594 -0.3122
  699MOL0     O96383   9.461   6.330   1.533 -0.4135 -0.4144  0.0829
  699MOL0     C96384   9.439   6.266   1.410  0.1739  0.1947  0.4754
  699MOL0     C96385   9.286   6.259   1.378 -1.1090  0.2057  0.6399
  699MOL0     C96386   9.258   6.212   1.227 -0.0645 -0.0495  0.4278
  699MOL0     C96387   9.107   6.212   1.203  0.5215 -0.1089 -0.1464
  699MOL0     C96388   9.073   6.265   1.069  0.1114 -0.5442 -0.1458
  699MOL0     C96389   9.044   6.306   0.958 -0.6999  0.0708  0.7919
  699MOL0     C96390   9.737   6.288   1.419  0.5972  0.1271  0.6917
  699MOL0     C96391   9.940   6.311   1.457 -0.4616  0.3011  0.4327
  699MOL0     C96392  10.037   6.256   1.360 -0.4641  0.1961  0.8926
  699MOL0     H96393  10.331   6.697   1.782  0.3146 -0.7219 -2.5651
  699MOL0     H96394  10.562   6.696   1.751  2.0564  0.4373  1.2346
  699MOL0     H96395  10.818   6.587   1.847  1.1113 -1.6480 -0.0303
  699MOL0     H96396  10.795   6.677   1.703 -0.0498  0.8972 -0.7829
  699MOL0     H96397  11.030   6.609   1.739 -0.7121 -0.7302  1.4294
  699MOL0     H96398  10.984   6.443   1.762 -1.7753  1.3052  1.9797
  699MOL0     H96399  11.079   6.476   1.530  0.1269 -1.0226  1.1096
  699MOL0     H96400  10.915   6.414   1.515  0.7096 -1.1973  1.2765
  699MOL0     H96401  10.824   6.633   1.469 -0.4533 -1.5417 -0.2212
  699MOL0     H96402  10.972   6.717   1.512  1.2095 -0.0763 -0.5832
  699MOL0     H96403  10.922   6.731   1.276 -0.5153 -0.6960 -0.4099
  699MOL0     H96404  10.926   6.547   1.256 -2.0645 -1.2117  2.0289
  699MOL0     H96405  11.163   6.700   1.380 -0.2220  0.4758 -0.0961
  699MOL0     H96406  11.154   6.535   1.314  3.5518  0.6400 -0.3826
  699MOL0     H96407  11.113   6.650   1.086 -0.5279  1.3145  0.1301
  699MOL0     H96408  11.275   6.651   1.158  1.0484  0.3704  0.5626
  699MOL0     H96409  11.050   6.861   1.108  1.1978 -0.8486 -0.7204
  699MOL0     H96410  11.144   6.902   1.236  0.3992  2.7635 -1.7717
  699MOL0     H96411  11.342   7.053   1.171 -1.1580 -0.7678 -0.1098
  699MOL0     H96412  11.577   7.154   1.045  0.0327 -0.8956  0.8348
  699MOL0     H96413  11.470   7.211   0.918  3.8025  2.0776 -0.0638
  699MOL0     H96414  11.681   7.000   0.884  1.2558 -0.4665 -3.1164
  699MOL0     H96415  11.570   7.053   0.757  2.0716  1.5297 -2.5569
  699MOL0     H96416  11.667   7.297   0.837  0.2559 -0.3190  0.6019
  699MOL0     H96417  11.813   7.200   0.869  0.3599  2.0891 -0.9262
  699MOL0     H96418  11.670   7.203   0.597 -1.0413 -1.8081  0.3972
  699MOL0     H96419  11.819   7.293   0.627 -2.1994  1.7812 -0.8428
  699MOL0     H96420  11.921   6.860   0.583 -1.5136  1.4659 -1.0682
  699MOL0     H96421  12.255   6.696   0.626 -2.6479 -5.6678  0.0750
  699MOL0     H96422  12.129   6.732   0.504 -0.2840 -0.3208  0.2158
  699MOL0     H96423  12.085   6.674   0.653  2.8844 -0.7690  4.2939
  699MOL0     H96424  12.510   6.680   0.600  0.5142  1.0606 -1.1018
  699MOL0     H96425  12.726   6.582   0.617 -1.5560 -0.9714  1.0453
  699MOL0     H96426  12.934   6.634   0.536  0.1197  0.7991  0.9811
  699MOL0     H96427  13.093   6.605   0.621  0.4274  1.5577  2.4540
  699MOL0     H96428  13.025   6.402   0.716 -0.7627  1.4558  0.5244
  699MOL0     H96429  12.859   6.414   0.669  0.1511 -0.5732  0.7073
  699MOL0     H96430  12.958   6.421   0.427 -1.4770 -1.4126 -0.3266
  699MOL0     H96431  12.942   6.273   0.506  0.5980  0.2802 -1.4904
  699MOL0     H96432  13.182   6.277   0.575 -0.3217  0.5037  0.3047
  699MOL0     H96433  13.201   6.441   0.527 -1.0553  0.0705  0.2834
  699MOL0     H96434  13.102   6.208   0.342  0.9260 -1.3687  0.0874
  699MOL0     H96435  13.136   6.372   0.285  0.3926 -3.1846 -3.0709
  699MOL0     H96436  13.346   6.171   0.357 -0.9486  0.5987 -0.1246
  699MOL0     H96437  13.381   6.340   0.366  1.1345  0.5590 -1.2629
  699MOL0     H96438  13.360   6.382   0.136  1.2619  0.2715  2.1737
  699MOL0     H96439  13.240   6.246   0.119  0.9359 -3.3929 -1.3120
  699MOL0     H96440  13.445   6.159   0.012  1.7485 -3.9349 -0.0688
  699MOL0     H96441  13.394   6.080   0.155 -0.0732  0.4485  2.8305
  699MOL0     H96442  12.870   6.869   0.884 -2.3970  0.4468  3.0397
  699MOL0     H96443  12.645   6.955   0.915 -1.8592 -0.0225  1.3885
  699MOL0     H96444  12.231   7.197   0.782  0.1994  0.6889 -1.4904
  699MOL0     H96445  12.012   7.255   0.708 -0.0864 -0.6861  1.9133
  699MOL0     H96446  10.580   6.262   1.738 -2.5447 -0.4951 -1.3553
  699MOL0     H96447  10.338   6.262   1.773 -0.7387  1.6087 -3.6321
  699MOL0     H96448   9.897   6.532   1.862  0.0452  1.8332 -0.5593
  699MOL0     H96449   9.586   6.474   1.818  0.9689  2.5287 -0.2447
  699MOL0     H96450   9.482   6.317   1.324 -1.0112 -3.0127 -2.2379
  699MOL0     H96451   9.486   6.168   1.420  1.3613  0.4241 -2.1104
  699MOL0     H96452   9.254   6.363   1.386 -1.1604  0.6643 -3.5226
  699MOL0     H96453   9.227   6.196   1.446 -0.1034  0.1322  1.4723
  699MOL0     H96454   9.316   6.268   1.153 -3.9632  0.1034 -2.8579
  699MOL0     H96455   9.295   6.110   1.209 -0.4124 -0.2021  0.5637
  699MOL0     H96456   9.071   6.276   1.284  0.7376  1.0087 -0.9138
  699MOL0     H96457   9.069   6.110   1.215 -1.2319  0.7178  2.1029
  699MOL0     H96458   9.016   6.363   0.872  1.5563  1.4217  0.8674
  699MOL0     H96459   9.714   6.236   1.326  3.0444  3.0437 -1.7570
  699MOL0     H96460   9.978   6.213   1.279  0.2512  0.6933  0.0858
  699MOL0     H96461  10.093   6.339   1.316  0.1350 -1.7775 -2.3639
  699MOL0     H96462  10.112   6.194   1.410  1.2909  0.1083 -1.6598
  700MOL0     O96463   9.208   0.629   6.323  0.5876 -0.3853 -0.6413
  700MOL0     C96464   9.178   0.735   6.381  0.9499 -0.4877 -0.5791
  700MOL0     O96465   9.161   0.751   6.518  0.3273  0.1327  0.1085
  700MOL0     C96466   9.154   0.641   6.594  0.0986 -0.5425 -1.0306
  700MOL0     C96467   9.271   0.601   6.663 -0.5717 -1.1004  0.4284
  700MOL0     C96468   9.269   0.487   6.739 -0.0123  0.3236 -0.0104
  700MOL0     C96469   9.150   0.409   6.747 -0.8987 -0.8924 -0.1765
  700MOL0     O96470   9.147   0.278   6.793 -0.2789 -0.9161  0.2097
  700MOL0     C96471   9.270   0.215   6.841  0.2157  0.3302 -0.2063
  700MOL0     C96472   9.249   0.070   6.848  0.1360  0.5221  0.2380
  700MOL0     C96473   9.137   0.027   6.939 -0.3698 -0.9921  0.4245
  700MOL0     C96474   9.142  -0.127   6.954  0.2070  0.2950  0.0094
  700MOL0     C96475   9.012  -0.188   7.005 -1.0920 -0.0759 -0.0296
  700MOL0     C96476   8.994  -0.149   7.152 -0.3682  0.1760 -0.2745
  700MOL0     C96477   8.886  -0.233   7.221  0.1239  0.4037  0.1547
  700MOL0     C96478   8.756  -0.228   7.150  1.3678 -0.2785  0.2742
  700MOL0     N96479   8.638  -0.294   7.225 -0.7898 -0.0979 -0.2552
  700MOL0     C96480   8.648  -0.367   7.346  0.1768  0.1804 -0.0480
  700MOL0     C96481   8.520  -0.417   7.352 -0.4199 -0.2087  0.6312
  700MOL0     C96482   8.466  -0.510   7.451  0.5459  0.7001 -0.3708
  700MOL0     C96483   8.431  -0.639   7.387 -0.5836 -0.0969  0.5165
  700MOL0     C96484   8.548  -0.744   7.370  0.7116 -0.4231  0.1492
  700MOL0     C96485   8.638  -0.705   7.250  0.6889 -0.3272 -0.0374
  700MOL0     O96486   8.776  -0.706   7.294  0.2890  0.3449  0.4659
  700MOL0     C96487   8.874  -0.658   7.222 -0.2522 -0.8184  0.8718
  700MOL0     C96488   8.868  -0.649   7.077 -0.2221 -0.7891  0.3589
  700MOL0     C96489   8.973  -0.599   7.008  0.1286  0.9524 -0.2770
  700MOL0     C96490   8.958  -0.575   6.860 -0.9608  0.3254  0.3824
  700MOL0     C96491   9.091  -0.572   7.072 -0.1529 -0.8982  0.1999
  700MOL0     C96492   9.216  -0.547   7.006 -0.0284  0.3424 -0.1202
  700MOL0     O96493   9.304  -0.474   7.076  0.1728  0.4754  0.2690
  700MOL0     C96494   9.438  -0.494   7.042  0.5163  0.1289  0.0059
  700MOL0     C96495   9.493  -0.455   6.925  0.4807 -0.2571 -0.6856
  700MOL0     C96496   9.628  -0.488   6.899 -0.3397  0.5585  0.8813
  700MOL0     C96497   9.720  -0.544   6.990  0.4997 -0.8864 -0.1602
  700MOL0     O96498   9.854  -0.579   6.979  0.2297 -0.5183 -0.6693
  700MOL0     C96499   9.914  -0.565   6.851  0.3597  0.4511 -0.2988
  700MOL0     C96500  10.065  -0.588   6.859 -0.2672 -0.5693  0.5240
  700MOL0     C96501  10.119  -0.723   6.887 -0.5169 -0.1708  0.0410
  700MOL0     C96502  10.079  -0.824   6.780 -0.3402  0.2865  0.1446
  700MOL0     C96503  10.151  -0.956   6.811 -0.7049  0.2208  0.0731
  700MOL0     C96504  10.054  -1.079   6.798 -1.4373  0.4343  0.6053
  700MOL0     C96505  10.137  -1.205   6.827  0.3992 -0.5690  0.5711
  700MOL0     C96506  10.058  -1.331   6.788 -0.4456  0.0942 -0.7031
  700MOL0    Cl96507  10.049  -1.354   6.609 -0.2117  0.3877 -0.7642
  700MOL0     C96508   9.659  -0.572   7.114  0.3399 -0.4765 -0.0640
  700MOL0     C96509   9.524  -0.547   7.144  0.3553  0.7540  0.5207
  700MOL0     O96510   9.235  -0.585   6.890  0.8060  0.4633  0.6947
  700MOL0     C96511   9.103  -0.577   7.219  0.3422 -0.2600 -0.2158
  700MOL0     C96512   8.992  -0.619   7.292 -0.1403  0.2984 -0.3650
  700MOL0     N96513   8.435  -0.365   7.256  0.4706 -0.9268 -0.3373
  700MOL0     N96514   8.514  -0.290   7.179  0.8869  0.3992 -0.7005
  700MOL0     C96515   9.032   0.452   6.680  0.4449  0.1022 -0.0289
  700MOL0     C96516   9.034   0.564   6.598  0.1397 -0.4093 -0.2378
  700MOL0     C96517   9.180   0.870   6.313 -0.0804 -0.4552  0.5706
  700MOL0     C96518   9.237   0.982   6.389 -0.2369  0.4684  0.5188
  700MOL0     C96519   9.254   1.107   6.339 -0.5843 -0.3544  0.0825
  700MOL0     C96520   9.229   1.125   6.201  0.4164  0.6996 -0.2905
  700MOL0     O96521   9.226   1.252   6.153 -0.1218 -0.5917  0.4927
  700MOL0     C96522   9.305   1.277   6.029 -0.2737  0.2877  0.2117
  700MOL0     C96523   9.452   1.253   6.067  0.2809 -0.8009 -0.3269
  700MOL0     C96524   9.510   1.328   6.193 -0.0183  0.2672  0.3663
  700MOL0     C96525   9.527   1.484   6.180  0.1229 -0.0486 -1.0679
  700MOL0     C96526   9.620   1.504   6.070 -0.4172  0.4481 -0.0914
  700MOL0     C96527   9.721   1.520   6.004 -0.6165  0.3345 -0.6109
  700MOL0     C96528   9.184   1.018   6.120  0.1691 -0.1940 -0.2400
  700MOL0     C96529   9.154   0.891   6.178  0.6258  0.1085  0.4837
  700MOL0     C96530   9.097   0.785   6.078  0.3201 -0.4809 -0.8241
  700MOL0     H96531   9.348   0.678   6.658 -1.2506 -0.3832  0.6681
  700MOL0     H96532   9.363   0.449   6.778 -1.6601 -1.1542  2.9460
  700MOL0     H96533   9.298   0.264   6.935 -2.0087  1.5284 -0.0874
  700MOL0     H96534   9.344   0.241   6.765 -1.8651 -1.5255 -3.0729
  700MOL0     H96535   9.223   0.058   6.742 -0.2653 -0.9108  0.4803
  700MOL0     H96536   9.344   0.020   6.867  0.8926  1.8767  0.0994
  700MOL0     H96537   9.152   0.070   7.039 -2.1036  0.2150  0.2095
  700MOL0     H96538   9.045   0.062   6.892  0.6453 -0.5553 -1.3401
  700MOL0     H96539   9.165  -0.180   6.861 -0.0124  2.0128 -1.0612
  700MOL0     H96540   9.223  -0.153   7.023  1.1475  0.1417 -1.1200
  700MOL0     H96541   9.011  -0.297   6.999  0.9731 -0.2843  2.0868
  700MOL0     H96542   8.926  -0.151   6.948 -3.3224 -3.8766  0.4925
  700MOL0     H96543   9.090  -0.170   7.200  1.1315  0.3414 -3.0090
  700MOL0     H96544   8.968  -0.043   7.158 -0.3555  0.2907 -1.9184
  700MOL0     H96545   8.865  -0.186   7.318 -2.6504  1.2176 -0.7207
  700MOL0     H96546   8.932  -0.331   7.226  0.7800  0.5450 -2.2603
  700MOL0     H96547   8.735  -0.122   7.132  1.2029 -0.6520 -1.9885
  700MOL0     H96548   8.756  -0.278   7.052  0.3595  1.4123 -0.6384
  700MOL0     H96549   8.738  -0.385   7.403 -0.5865 -2.7237  0.3744
  700MOL0     H96550   8.374  -0.462   7.486 -1.1475 -3.5600  1.6317
  700MOL0     H96551   8.531  -0.525   7.538  0.0604 -3.9080 -0.5505
  700MOL0     H96552   8.356  -0.692   7.445 -1.0997 -2.9063 -2.4636
  700MOL0     H96553   8.381  -0.633   7.290 -0.6328 -2.4115  0.3489
  700MOL0     H96554   8.611  -0.737   7.460  0.4457 -0.9783  0.3835
  700MOL0     H96555   8.508  -0.846   7.365 -3.7488  1.1117  0.2962
  700MOL0     H96556   8.616  -0.770   7.165  1.6011  0.0828 -0.6047
  700MOL0     H96557   8.624  -0.607   7.204  1.4754  0.4279  1.2633
  700MOL0     H96558   8.775  -0.677   7.029 -1.7433  0.4998  2.4188
  700MOL0     H96559   8.851  -0.556   6.847 -1.4538 -0.7662  2.4406
  700MOL0     H96560   8.999  -0.659   6.803 -1.0741 -0.6601  1.7125
  700MOL0     H96561   9.010  -0.488   6.819  1.5579 -0.9060  0.7639
  700MOL0     H96562   9.423  -0.405   6.860  1.0952 -0.8392 -1.8366
  700MOL0     H96563   9.667  -0.467   6.800  2.5438  2.6599  2.3138
  700MOL0     H96564   9.870  -0.645   6.790  1.6361 -0.1059 -0.5241
  700MOL0     H96565   9.900  -0.464   6.812 -0.2624  0.7821  0.7391
  700MOL0     H96566  10.107  -0.555   6.764 -2.2739 -0.3474 -0.3266
  700MOL0     H96567  10.108  -0.521   6.934  2.0841 -1.2775 -0.1071
  700MOL0     H96568  10.097  -0.762   6.987  1.8072  0.4555  0.8713
  700MOL0     H96569  10.228  -0.731   6.880 -0.3848  1.6980 -0.4896
  700MOL0     H96570  10.109  -0.789   6.681 -1.1278 -1.8033 -0.8983
  700MOL0     H96571   9.970  -0.836   6.775 -0.1552 -1.3957 -0.2583
  700MOL0     H96572  10.235  -0.972   6.742 -1.3584  0.0542 -0.7001
  700MOL0     H96573  10.194  -0.947   6.911  3.8720  0.0296 -1.6382
  700MOL0     H96574  10.008  -1.081   6.699 -1.1696  0.5951  0.4791
  700MOL0     H96575   9.971  -1.060   6.868 -2.8098 -0.1786 -0.7993
  700MOL0     H96576  10.157  -1.202   6.934 -0.0438  3.1785  0.6528
  700MOL0     H96577  10.231  -1.202   6.772  0.5182  2.2163  0.7971
  700MOL0     H96578   9.966  -1.329   6.847 -0.1723  2.4467 -0.2539
  700MOL0     H96579  10.111  -1.416   6.832 -1.2309  0.1948  0.5051
  700MOL0     H96580   9.730  -0.601   7.190  0.5774 -0.4436 -0.2735
  700MOL0     H96581   9.480  -0.596   7.230 -0.1936 -2.8279 -1.5888
  700MOL0     H96582   9.195  -0.550   7.270  0.8617 -2.1434 -0.0828
  700MOL0     H96583   8.978  -0.619   7.400 -0.0383  0.7303 -0.3526
  700MOL0     H96584   8.945   0.387   6.690 -0.1878  0.5586 -2.0635
  700MOL0     H96585   8.955   0.621   6.550 -2.8969 -1.2313  3.2778
  700MOL0     H96586   9.255   0.962   6.494  1.6264 -1.6664 -0.1070
  700MOL0     H96587   9.296   1.184   6.403  1.0371 -2.4979  1.7414
  700MOL0     H96588   9.269   1.210   5.951  0.5443 -1.7053  1.4630
  700MOL0     H96589   9.293   1.383   6.004 -0.0458  0.0071 -1.1399
  700MOL0     H96590   9.517   1.287   5.986  0.8305  2.7078  1.3927
  700MOL0     H96591   9.466   1.147   6.087 -0.0369 -1.3378 -2.6267
  700MOL0     H96592   9.450   1.310   6.282 -2.8073  2.1283 -0.9908
  700MOL0     H96593   9.606   1.281   6.216  0.7166 -0.3119 -3.2369
  700MOL0     H96594   9.569   1.524   6.272 -0.8703  2.2981 -1.5549
  700MOL0     H96595   9.431   1.535   6.166 -0.0006  1.2948  3.3916
  700MOL0     H96596   9.809   1.534   5.945  0.1705  0.1950  0.5086
  700MOL0     H96597   9.158   1.041   6.017  0.9507 -2.0643 -0.9006
  700MOL0     H96598   9.034   0.829   6.000 -1.2661  1.5543  1.4189
  700MOL0     H96599   9.182   0.725   6.044  0.6560 -1.3509  1.3576
  700MOL0     H96600   9.032   0.714   6.130  3.3212 -3.0723 -0.3509
  701MOL0     O96601   1.160   2.040   8.391 -0.4319  0.3998 -0.3546
  701MOL0     C96602   1.164   2.092   8.281 -0.3542 -0.5893  0.1468
  701MOL0     O96603   1.062   2.176   8.238 -0.5376 -0.9258  0.9250
  701MOL0     C96604   0.951   2.201   8.314  0.6563 -1.4002 -0.1113
  701MOL0     C96605   0.851   2.101   8.338 -0.2327 -0.6035  0.7164
  701MOL0     C96606   0.732   2.139   8.414 -0.0106  0.2352  0.0154
  701MOL0     C96607   0.725   2.264   8.472 -0.2353  0.5617  0.5507
  701MOL0     O96608   0.627   2.309   8.557 -0.4974  0.6347 -0.0709
  701MOL0     C96609   0.541   2.199   8.611  0.5321 -0.2478 -0.7208
  701MOL0     C96610   0.427   2.247   8.706  0.6011  0.9172 -0.1750
  701MOL0     C96611   0.480   2.339   8.826 -0.2385 -0.3692  0.8038
  701MOL0     C96612   0.497   2.493   8.797  0.2730 -0.8899  0.0572
  701MOL0     C96613   0.560   2.562   8.916 -0.5609 -0.1392  0.7127
  701MOL0     C96614   0.716   2.561   8.923  0.3024 -0.6598  0.0800
  701MOL0     C96615   0.792   2.573   8.790 -0.3117 -0.4794  0.3021
  701MOL0     C96616   0.941   2.607   8.809  0.1857  0.0692 -0.7128
  701MOL0     N96617   1.018   2.492   8.859 -0.6759  0.5984 -0.2201
  701MOL0     C96618   1.069   2.393   8.785 -0.6459  0.1512 -0.4792
  701MOL0     C96619   1.146   2.306   8.869 -0.5983 -0.6103  1.4283
  701MOL0     C96620   1.197   2.172   8.836 -0.8188  0.5385 -0.2940
  701MOL0     C96621   1.342   2.153   8.844  0.1242  0.4601 -0.4131
  701MOL0     C96622   1.389   2.008   8.833 -0.4285 -0.8496 -0.2457
  701MOL0     C96623   1.525   1.975   8.882 -1.1099 -0.6792  0.4772
  701MOL0     O96624   1.620   2.079   8.840  0.1169  0.7487 -0.0142
  701MOL0     C96625   1.754   2.075   8.868  0.9087  0.1219 -0.1992
  701MOL0     C96626   1.820   1.957   8.900  0.5142 -0.7666 -0.0332
  701MOL0     C96627   1.963   1.949   8.914  0.2119 -0.3922 -0.3658
  701MOL0     C96628   2.018   1.812   8.922  0.8842  0.0311 -0.1689
  701MOL0     C96629   2.038   2.073   8.903 -0.0179 -0.8505  0.0057
  701MOL0     C96630   2.180   2.092   8.927 -0.0039 -0.0345 -0.3011
  701MOL0     O96631   2.234   2.213   8.952 -0.1118  0.1635 -0.0709
  701MOL0     C96632   2.370   2.210   8.959 -0.2245 -0.2966 -0.7622
  701MOL0     C96633   2.425   2.247   9.079  0.3731 -0.3829 -0.3947
  701MOL0     C96634   2.564   2.255   9.094 -0.6142  0.3820 -1.1260
  701MOL0     C96635   2.651   2.209   8.990 -0.0815 -0.1576 -0.8907
  701MOL0     O96636   2.786   2.220   9.009 -0.3878 -0.0513  0.1412
  701MOL0     C96637   2.842   2.356   9.043 -0.6618  0.5035  0.3592
  701MOL0     C96638   2.967   2.386   8.952  0.3238  0.1923 -0.5231
  701MOL0     C96639   3.043   2.516   8.983 -0.3796 -0.2898 -0.7153
  701MOL0     C96640   3.120   2.554   8.871 -0.2864 -0.7172  0.4275
  701MOL0     C96641   3.216   2.678   8.894  0.2145  0.2792 -0.7601
  701MOL0     C96642   3.283   2.721   8.753 -0.3825 -0.7167 -0.3162
  701MOL0     C96643   3.391   2.627   8.705 -0.8733  0.0853 -0.7087
  701MOL0     C96644   3.351   2.541   8.586 -1.0112  0.2365 -0.0067
  701MOL0    Cl96645   3.266   2.628   8.446  0.5144  0.2539 -0.0129
  701MOL0     C96646   2.592   2.170   8.871  0.5384  0.7169  0.3193
  701MOL0     C96647   2.448   2.162   8.853 -0.2765  1.0768 -0.0721
  701MOL0     O96648   2.243   1.987   8.943 -0.6900 -0.0953  0.4332
  701MOL0     C96649   1.962   2.190   8.880  0.0664  0.3433  0.0571
  701MOL0     C96650   1.831   2.186   8.849 -0.2029  0.1115 -0.7408
  701MOL0     N96651   1.144   2.369   8.983  0.1371  0.6197  0.2055
  701MOL0     N96652   1.070   2.479   8.980  0.0272  0.7318  0.1672
  701MOL0     C96653   0.822   2.356   8.442  0.1118 -1.2874  0.2555
  701MOL0     C96654   0.933   2.329   8.363  0.2449  0.2444  1.0275
  701MOL0     C96655   1.281   2.073   8.188 -0.2398 -0.1189  0.4638
  701MOL0     C96656   1.279   2.137   8.064 -0.3211  0.9625  0.5339
  701MOL0     C96657   1.376   2.131   7.962 -0.1766 -0.7218 -0.4880
  701MOL0     C96658   1.484   2.042   7.992  0.5670 -0.4475  0.5849
  701MOL0     O96659   1.571   2.026   7.888 -0.4602  0.1474  0.2949
  701MOL0     C96660   1.712   2.002   7.916  0.0898  0.6209 -0.5171
  701MOL0     C96661   1.804   2.087   7.829  0.5914  0.3492  0.0745
  701MOL0     C96662   1.826   2.226   7.893  0.5867 -0.1904 -0.2530
  701MOL0     C96663   1.700   2.314   7.907  0.3671  0.2869 -0.2676
  701MOL0     C96664   1.670   2.380   7.773 -0.2869 -0.8438  0.1286
  701MOL0     C96665   1.646   2.431   7.664 -0.2033  1.2085 -0.5568
  701MOL0     C96666   1.498   1.983   8.116 -0.0404 -0.5813 -0.4783
  701MOL0     C96667   1.394   1.994   8.210  0.8858  0.8008 -0.7132
  701MOL0     C96668   1.428   1.916   8.332  0.2405 -0.4162  0.2567
  701MOL0     H96669   0.854   2.003   8.291 -1.1172 -1.0166  1.4940
  701MOL0     H96670   0.655   2.065   8.432 -1.6126  0.9859 -3.1161
  701MOL0     H96671   0.613   2.145   8.674 -0.2183  0.9994  1.3251
  701MOL0     H96672   0.506   2.126   8.538 -0.8000 -0.7779  0.3929
  701MOL0     H96673   0.352   2.306   8.653 -0.9797  0.0087  0.9498
  701MOL0     H96674   0.375   2.164   8.755 -0.7961  1.9530  0.1604
  701MOL0     H96675   0.402   2.329   8.902 -2.6571  0.7448 -1.3821
  701MOL0     H96676   0.572   2.296   8.868  0.7097 -0.1408 -0.9531
  701MOL0     H96677   0.552   2.508   8.704 -0.4245  0.2314 -0.1829
  701MOL0     H96678   0.399   2.538   8.780  0.1273 -1.7562 -1.6624
  701MOL0     H96679   0.529   2.505   9.003  1.7277 -2.4584  0.1243
  701MOL0     H96680   0.531   2.667   8.900  3.7068  1.3749  1.4223
  701MOL0     H96681   0.738   2.648   8.986  1.9243 -1.9696  1.4282
  701MOL0     H96682   0.754   2.476   8.981 -0.2169  0.2727  1.8743
  701MOL0     H96683   0.756   2.657   8.730  0.6501 -1.2321 -1.4053
  701MOL0     H96684   0.779   2.490   8.721  1.3226 -1.5018  1.1443
  701MOL0     H96685   0.966   2.634   8.706 -0.7882  3.6371 -0.1351
  701MOL0     H96686   0.952   2.690   8.880 -1.5981  0.1337 -0.4510
  701MOL0     H96687   1.044   2.371   8.682 -0.9179  0.2257 -0.4276
  701MOL0     H96688   1.167   2.130   8.740 -3.2738 -1.4790  1.2347
  701MOL0     H96689   1.158   2.100   8.909  0.0872 -1.3620 -1.6125
  701MOL0     H96690   1.384   2.216   8.765 -1.3689  2.3043  0.1945
  701MOL0     H96691   1.372   2.198   8.940 -1.2799 -0.3506  0.4360
  701MOL0     H96692   1.321   1.941   8.886  2.4534 -5.3698 -1.7332
  701MOL0     H96693   1.379   1.965   8.733 -1.0931 -1.2601 -0.0091
  701MOL0     H96694   1.527   1.987   8.991  1.4283 -0.1931  0.4521
  701MOL0     H96695   1.543   1.873   8.849 -0.4353 -0.4860  0.2263
  701MOL0     H96696   1.757   1.869   8.896  0.3270 -0.7131  1.3068
  701MOL0     H96697   2.074   1.807   9.016 -0.3356  2.4651  0.7601
  701MOL0     H96698   2.085   1.793   8.837  1.0787 -0.5950  0.1190
  701MOL0     H96699   1.947   1.729   8.919 -0.4717  1.0544  1.6317
  701MOL0     H96700   2.365   2.274   9.165 -1.9082 -5.3473 -0.0740
  701MOL0     H96701   2.603   2.293   9.187  0.2185  2.6411 -2.3243
  701MOL0     H96702   2.768   2.435   9.026  0.2161  1.0596 -1.0787
  701MOL0     H96703   2.865   2.365   9.149 -0.5894 -0.8316  0.4709
  701MOL0     H96704   3.035   2.300   8.958 -0.4366 -0.4321 -0.5776
  701MOL0     H96705   2.929   2.394   8.850  0.9347  1.0451 -0.6835
  701MOL0     H96706   3.108   2.503   9.070  2.3330 -1.0496 -2.7271
  701MOL0     H96707   2.984   2.604   9.009  1.5219  2.2161 -4.0397
  701MOL0     H96708   3.065   2.594   8.785  1.9894 -0.1669 -0.8450
  701MOL0     H96709   3.187   2.473   8.842 -1.5959 -0.5298 -3.7422
  701MOL0     H96710   3.166   2.761   8.944  3.2362  2.5325 -1.1744
  701MOL0     H96711   3.287   2.642   8.969 -1.6463  0.0099  0.9747
  701MOL0     H96712   3.336   2.808   8.793 -2.6355  1.3413 -1.5679
  701MOL0     H96713   3.200   2.741   8.685 -0.4994  4.5012  0.9359
  701MOL0     H96714   3.432   2.570   8.788  2.6466  1.4691 -1.3379
  701MOL0     H96715   3.473   2.690   8.670 -0.2436 -2.1615 -3.7375
  701MOL0     H96716   3.285   2.468   8.634  2.2287 -2.6114  0.5306
  701MOL0     H96717   3.441   2.495   8.543 -1.0342  1.7812 -1.8219
  701MOL0     H96718   2.648   2.151   8.780  1.2835  0.8568  0.7429
  701MOL0     H96719   2.405   2.135   8.757 -2.2470 -1.9629  1.4910
  701MOL0     H96720   2.013   2.285   8.869  1.6151 -0.2361  1.8193
  701MOL0     H96721   1.787   2.278   8.813  3.1390  2.2684  0.2002
  701MOL0     H96722   0.817   2.456   8.483 -1.2722 -0.9111 -0.7494
  701MOL0     H96723   1.011   2.404   8.349  0.3181 -0.0515 -0.2301
  701MOL0     H96724   1.194   2.199   8.037 -1.4125 -1.3333 -1.7660
  701MOL0     H96725   1.369   2.195   7.875 -0.6440  1.4094  1.0305
  701MOL0     H96726   1.746   2.025   8.018  1.3872  2.8649 -1.4034
  701MOL0     H96727   1.734   1.895   7.905 -3.9243 -0.6340  1.5067
  701MOL0     H96728   1.756   2.088   7.731 -2.0486  0.7251  1.2656
  701MOL0     H96729   1.904   2.046   7.817  0.4183  0.4536 -2.1410
  701MOL0     H96730   1.849   2.215   7.999  0.9362  4.0960  0.2934
  701MOL0     H96731   1.910   2.279   7.848 -1.7183  2.0887 -2.2046
  701MOL0     H96732   1.713   2.405   7.966  3.6047  1.4016 -2.4532
  701MOL0     H96733   1.613   2.262   7.948  0.5925  1.4210  1.7668
  701MOL0     H96734   1.616   2.476   7.572 -0.2536 -2.5427 -2.5673
  701MOL0     H96735   1.580   1.917   8.138 -0.6226 -0.5706  2.0602
  701MOL0     H96736   1.351   1.843   8.358 -0.0420  1.0068  4.0971
  701MOL0     H96737   1.520   1.863   8.306 -0.3785 -0.8838 -1.0506
  701MOL0     H96738   1.450   1.980   8.418 -3.3564  0.9079  0.3788
  702MOL0     O96739   1.332   8.407   5.005  0.0859 -0.1277  0.1507
  702MOL0     C96740   1.328   8.284   4.996 -0.1583 -0.3357  0.6021
  702MOL0     O96741   1.438   8.211   4.947  0.8590 -0.6459  0.2566
  702MOL0     C96742   1.559   8.266   4.934  0.1316 -0.5297  0.9151
  702MOL0     C96743   1.618   8.293   4.814 -0.2961 -0.1974  0.1193
  702MOL0     C96744   1.740   8.359   4.810 -0.0231 -0.3095 -0.0979
  702MOL0     C96745   1.807   8.407   4.923  0.8463 -0.9767  0.5144
  702MOL0     O96746   1.908   8.497   4.917 -0.7607  0.8141 -0.3539
  702MOL0     C96747   2.008   8.481   4.818  0.1137  0.4827 -0.4436
  702MOL0     C96748   2.149   8.516   4.859  0.3373 -0.8008 -0.2851
  702MOL0     C96749   2.210   8.436   4.974  0.1169 -0.7619  0.9255
  702MOL0     C96750   2.346   8.384   4.940  0.6403  0.1213  0.3865
  702MOL0     C96751   2.370   8.283   5.053  0.4915  0.4264  0.7616
  702MOL0     C96752   2.452   8.156   5.020  0.0122  0.1044 -0.4554
  702MOL0     C96753   2.508   8.103   5.158  0.3195 -0.1564  1.4925
  702MOL0     C96754   2.601   7.986   5.128 -0.0878 -0.4476 -0.2270
  702MOL0     N96755   2.694   7.949   5.245  0.2907 -0.4559  0.2789
  702MOL0     C96756   2.742   8.035   5.339  0.0513 -0.0670 -0.0221
  702MOL0     C96757   2.800   7.956   5.439  0.4820  1.3505  0.4042
  702MOL0     C96758   2.872   8.004   5.563 -0.8046  0.4804  0.6088
  702MOL0     C96759   2.986   8.112   5.527  0.4564  0.6323  0.5758
  702MOL0     C96760   3.001   8.215   5.637 -0.5720  0.2378 -0.3616
  702MOL0     C96761   3.133   8.288   5.621  0.3267  1.0782 -0.5181
  702MOL0     O96762   3.147   8.382   5.726  0.9100  0.3674  0.7511
  702MOL0     C96763   3.241   8.479   5.711 -0.9631 -0.2546  0.3715
  702MOL0     C96764   3.201   8.607   5.736  1.0416  0.2508  0.9643
  702MOL0     C96765   3.282   8.721   5.697  0.2523 -0.3078  0.1898
  702MOL0     C96766   3.219   8.854   5.719  0.0328 -0.4554  0.0427
  702MOL0     C96767   3.413   8.699   5.655  0.0526 -0.2707 -0.0434
  702MOL0     C96768   3.512   8.805   5.634  0.7416 -0.1309 -0.6072
  702MOL0     O96769   3.609   8.814   5.729  0.1255  0.6392 -0.3776
  702MOL0     C96770   3.714   8.904   5.713  1.0822  0.3152 -0.0635
  702MOL0     C96771   3.841   8.860   5.671  0.2989  0.2423  0.6262
  702MOL0     C96772   3.946   8.951   5.666  0.2628  0.0070  0.7149
  702MOL0     C96773   3.935   9.087   5.704 -0.8391  0.8410  0.2369
  702MOL0     O96774   4.034   9.178   5.715 -0.4771  0.3453  0.2179
  702MOL0     C96775   4.160   9.172   5.652 -0.0792  0.9340  0.5139
  702MOL0     C96776   4.133   9.158   5.504  0.0739  0.1743 -0.2312
  702MOL0     C96777   4.239   9.238   5.421 -0.5391  0.2314 -0.8750
  702MOL0     C96778   4.349   9.138   5.365 -0.5686 -0.2846 -0.1708
  702MOL0     C96779   4.482   9.146   5.455 -0.0398 -0.1970 -0.2006
  702MOL0     C96780   4.598   9.059   5.408  0.1415  0.9169 -0.1642
  702MOL0     C96781   4.725   9.099   5.469  0.7644 -0.2582  0.0069
  702MOL0     C96782   4.845   9.004   5.451  0.3629  0.3551  0.5886
  702MOL0    Cl96783   4.861   8.928   5.291  0.4129 -0.1166 -0.2562
  702MOL0     C96784   3.812   9.127   5.750  0.5663  1.0275  0.4274
  702MOL0     C96785   3.698   9.035   5.761  0.4690 -0.1499 -0.0756
  702MOL0     O96786   3.509   8.859   5.528  0.0448 -0.1507  1.1139
  702MOL0     C96787   3.462   8.567   5.637  0.1864 -1.3615  0.3956
  702MOL0     C96788   3.371   8.460   5.657  0.2548  0.4108 -0.0806
  702MOL0     N96789   2.799   7.824   5.388  0.0579  0.2155 -0.8184
  702MOL0     N96790   2.744   7.830   5.270 -0.3687  0.5975  0.6812
  702MOL0     C96791   1.739   8.385   5.042 -0.5586 -0.0286  0.2623
  702MOL0     C96792   1.628   8.307   5.051 -0.3066  0.4703  0.5453
  702MOL0     C96793   1.205   8.212   5.025  0.7980  0.1279  0.3695
  702MOL0     C96794   1.091   8.291   5.077 -0.3956  0.1751 -0.0536
  702MOL0     C96795   0.970   8.226   5.108 -0.7361 -0.5657 -0.3207
  702MOL0     C96796   0.950   8.086   5.088 -0.5450 -0.8424  0.1850
  702MOL0     O96797   0.846   8.006   5.125 -0.1499 -0.7622 -0.7747
  702MOL0     C96798   0.740   8.061   5.201  0.8225  0.0875 -0.0439
  702MOL0     C96799   0.670   7.936   5.246  1.0091 -0.2565  0.9535
  702MOL0     C96800   0.588   7.866   5.139  0.8440 -0.0655 -0.2897
  702MOL0     C96801   0.480   7.947   5.067 -0.1429  0.1113 -0.4358
  702MOL0     C96802   0.387   7.855   5.001  0.5499  0.5497 -0.2321
  702MOL0     C96803   0.328   7.771   4.942 -0.6618  1.0088 -0.2782
  702MOL0     C96804   1.057   8.022   5.028  0.3764  0.7733  0.8961
  702MOL0     C96805   1.177   8.077   4.988 -0.3955  0.3822 -0.5177
  702MOL0     C96806   1.263   7.978   4.904 -0.2772 -0.5637  1.2517
  702MOL0     H96807   1.582   8.250   4.722  3.6043 -0.2052 -1.5797
  702MOL0     H96808   1.783   8.368   4.711 -0.8151  2.3122 -0.2820
  702MOL0     H96809   1.986   8.553   4.739  0.2805  0.4750 -0.4956
  702MOL0     H96810   2.008   8.380   4.776  1.8882  0.8272 -1.3644
  702MOL0     H96811   2.209   8.531   4.769  0.3520 -1.9319 -0.4745
  702MOL0     H96812   2.141   8.622   4.886 -1.8117 -1.2522  1.1125
  702MOL0     H96813   2.208   8.488   5.070  0.5625 -3.6082  2.6130
  702MOL0     H96814   2.139   8.354   4.988 -3.6788  1.5941 -2.4580
  702MOL0     H96815   2.349   8.339   4.840  4.6946 -0.0227  0.3906
  702MOL0     H96816   2.429   8.455   4.933  3.4344 -2.9435 -0.2400
  702MOL0     H96817   2.274   8.246   5.090 -0.8787 -0.2507 -3.0190
  702MOL0     H96818   2.430   8.333   5.130 -0.0787  1.9011  0.2889
  702MOL0     H96819   2.390   8.075   4.982 -0.6769 -0.9669  2.6706
  702MOL0     H96820   2.540   8.182   4.960  0.5766  1.1850  0.7861
  702MOL0     H96821   2.430   8.076   5.229  0.4861  0.7036  2.0115
  702MOL0     H96822   2.555   8.188   5.209 -1.4981  1.1149  1.1269
  702MOL0     H96823   2.534   7.903   5.106 -1.5090  1.1413 -2.3174
  702MOL0     H96824   2.665   8.008   5.041 -1.2030  0.6774 -0.7940
  702MOL0     H96825   2.740   8.143   5.338  0.9864 -0.0252  1.0201
  702MOL0     H96826   2.900   7.925   5.633 -0.1976  0.3964  0.2729
  702MOL0     H96827   2.786   8.052   5.611 -1.7826 -1.5414  1.0154
  702MOL0     H96828   3.077   8.051   5.520 -1.9169 -3.1306 -0.0571
  702MOL0     H96829   2.965   8.154   5.428  0.7839 -0.6109 -0.0519
  702MOL0     H96830   2.922   8.291   5.635 -0.7302  0.0922  0.2312
  702MOL0     H96831   3.022   8.168   5.734  0.4532  1.9796  0.3101
  702MOL0     H96832   3.211   8.213   5.637 -1.3728 -0.5733  0.4007
  702MOL0     H96833   3.128   8.342   5.526 -1.2052  1.9877  0.0357
  702MOL0     H96834   3.101   8.619   5.776  0.9329 -2.3507  1.6317
  702MOL0     H96835   3.274   8.915   5.791  2.0345 -0.6783 -1.2229
  702MOL0     H96836   3.121   8.837   5.764  0.1309 -1.5843 -0.1355
  702MOL0     H96837   3.232   8.901   5.621  0.8108 -1.3805 -0.3241
  702MOL0     H96838   3.843   8.763   5.623  0.0149 -0.3133  1.6921
  702MOL0     H96839   4.040   8.916   5.626  1.2727  3.2177 -0.0383
  702MOL0     H96840   4.214   9.261   5.688  0.9614 -0.1339  1.6907
  702MOL0     H96841   4.217   9.085   5.685  0.0228 -0.7308 -3.4945
  702MOL0     H96842   4.127   9.052   5.479  0.4227  0.1991 -0.4321
  702MOL0     H96843   4.032   9.195   5.486 -0.6082 -0.4614  2.0126
  702MOL0     H96844   4.281   9.322   5.477  1.0430 -1.5087  0.7263
  702MOL0     H96845   4.184   9.275   5.334 -1.1643 -0.5807 -0.8333
  702MOL0     H96846   4.383   9.158   5.263 -0.0300 -0.5493 -0.0483
  702MOL0     H96847   4.315   9.034   5.360  1.3377 -0.9578 -0.0351
  702MOL0     H96848   4.512   9.252   5.456 -0.6504  0.0401 -2.3047
  702MOL0     H96849   4.464   9.114   5.558  1.1324  0.8863  0.3651
  702MOL0     H96850   4.606   9.060   5.299  1.1742  3.3670 -0.1388
  702MOL0     H96851   4.574   8.958   5.442 -0.6269  0.4035 -2.1070
  702MOL0     H96852   4.728   9.123   5.576  1.4752 -0.9334  0.1524
  702MOL0     H96853   4.746   9.184   5.403 -2.3889 -0.7090 -1.7852
  702MOL0     H96854   4.813   8.924   5.518 -3.0662  1.9858  1.1431
  702MOL0     H96855   4.939   9.055   5.475  0.8973  0.3200 -1.3041
  702MOL0     H96856   3.795   9.226   5.792 -0.0033  0.7769  0.8038
  702MOL0     H96857   3.604   9.071   5.803 -0.6685 -2.9870  0.0315
  702MOL0     H96858   3.563   8.540   5.607 -0.7003 -4.2205 -0.3792
  702MOL0     H96859   3.411   8.359   5.656 -2.1659 -0.6090 -0.6418
  702MOL0     H96860   1.765   8.430   5.137  1.0340 -0.8289  0.2381
  702MOL0     H96861   1.590   8.303   5.153  1.3970 -1.0661  1.1894
  702MOL0     H96862   1.102   8.396   5.105 -1.6698  0.4082 -0.3821
  702MOL0     H96863   0.880   8.267   5.152 -0.9093 -1.3868  0.1131
  702MOL0     H96864   0.770   8.119   5.289  0.0075  2.5711 -1.3135
  702MOL0     H96865   0.679   8.127   5.139 -0.7295  0.4913  1.8319
  702MOL0     H96866   0.604   7.972   5.325  0.2318 -0.5954  0.4779
  702MOL0     H96867   0.741   7.864   5.288  2.3344  2.1030  3.0064
  702MOL0     H96868   0.655   7.820   5.065  1.3374 -0.5758  0.4698
  702MOL0     H96869   0.545   7.774   5.180 -1.0067  0.3048 -1.3015
  702MOL0     H96870   0.519   7.994   4.976 -2.4598 -1.2070 -2.2406
  702MOL0     H96871   0.438   8.024   5.133  0.2606 -1.2150  1.4266
  702MOL0     H96872   0.270   7.692   4.898  0.2144  0.5005 -0.5451
  702MOL0     H96873   1.041   7.917   5.005 -1.2813  0.6833  2.2558
  702MOL0     H96874   1.250   7.875   4.939 -3.1659 -0.6872  0.1010
  702MOL0     H96875   1.224   7.975   4.802  0.8362 -0.5009  0.8192
  702MOL0     H96876   1.369   7.998   4.918 -0.2049 -0.7911  1.0322
  703MOL0     O96877   6.316   3.150   1.854 -0.0490 -0.4464  0.1825
  703MOL0     C96878   6.312   3.183   1.976  0.0911  0.3037  0.0445
  703MOL0     O96879   6.269   3.101   2.086 -0.1498  0.2507  0.6892
  703MOL0     C96880   6.274   2.969   2.052  0.9092  0.2575 -0.6932
  703MOL0     C96881   6.168   2.911   1.973 -0.4284 -1.1053 -0.5227
  703MOL0     C96882   6.180   2.774   1.929 -0.0694 -0.3673  0.3317
  703MOL0     C96883   6.301   2.706   1.946 -0.2547  0.7770  0.2983
  703MOL0     O96884   6.320   2.579   1.899  0.5440  0.3567  0.6940
  703MOL0     C96885   6.242   2.524   1.795  0.1482 -0.0204 -0.0843
  703MOL0     C96886   6.312   2.405   1.732 -0.5706  0.2827  0.3681
  703MOL0     C96887   6.423   2.449   1.632 -0.0848 -1.0651  1.2320
  703MOL0     C96888   6.532   2.557   1.682  0.0539  0.6557  0.0419
  703MOL0     C96889   6.644   2.577   1.574 -0.2368  0.5260  0.1842
  703MOL0     C96890   6.767   2.658   1.620 -0.1592  0.4986 -0.6719
  703MOL0     C96891   6.894   2.660   1.532 -0.4712 -0.5928  0.2949
  703MOL0     C96892   6.876   2.723   1.388  0.1319  0.1542  0.3437
  703MOL0     N96893   7.015   2.761   1.335  0.3301 -0.2381  0.7611
  703MOL0     C96894   7.048   2.838   1.224 -0.3144  0.0938 -0.2438
  703MOL0     C96895   7.181   2.862   1.231  0.2086 -0.1752  0.7372
  703MOL0     C96896   7.254   2.951   1.133 -0.3331  0.5151 -0.6787
  703MOL0     C96897   7.372   3.033   1.182  0.3777  1.2350  0.2264
  703MOL0     C96898   7.348   3.153   1.272  0.3619  0.2952  0.1264
  703MOL0     C96899   7.250   3.129   1.397  0.0004 -0.1593  0.3125
  703MOL0     O96900   7.251   3.262   1.475  0.7337  1.4621 -0.5412
  703MOL0     C96901   7.156   3.267   1.570  0.1824 -0.3286 -0.5438
  703MOL0     C96902   7.027   3.297   1.546 -0.2773  0.5913  0.1395
  703MOL0     C96903   6.934   3.325   1.647  0.8382 -0.0852 -0.5454
  703MOL0     C96904   6.798   3.385   1.605  0.2100  0.2372  0.5525
  703MOL0     C96905   6.973   3.323   1.782 -1.1834  0.2588 -0.3213
  703MOL0     C96906   6.889   3.373   1.892  0.3157 -0.2508  0.6711
  703MOL0     O96907   6.867   3.282   1.999  0.1451  0.2516 -0.8592
  703MOL0     C96908   6.780   3.311   2.101 -1.0078 -0.3445  0.5816
  703MOL0     C96909   6.826   3.410   2.199 -0.0585  0.3119 -0.2171
  703MOL0     C96910   6.733   3.450   2.300  0.1049  0.2673  0.4021
  703MOL0     C96911   6.607   3.386   2.309 -0.2189  0.0306 -0.5844
  703MOL0     O96912   6.512   3.423   2.406  0.2293 -0.4440 -0.0015
  703MOL0     C96913   6.498   3.564   2.445  0.0986 -0.4299  0.1247
  703MOL0     C96914   6.375   3.581   2.524  0.0406 -0.8495  0.5733
  703MOL0     C96915   6.348   3.725   2.568 -0.4136  0.1992 -0.3086
  703MOL0     C96916   6.223   3.762   2.641 -0.4924 -0.8630 -0.2028
  703MOL0     C96917   6.135   3.857   2.560  0.6297  0.3608 -0.4085
  703MOL0     C96918   6.203   3.995   2.552 -0.6811 -0.5620  0.1467
  703MOL0     C96919   6.129   4.090   2.465  0.2673  0.1684  0.6778
  703MOL0     C96920   6.219   4.200   2.409  0.6334  0.0205  0.1606
  703MOL0    Cl96921   6.333   4.162   2.288 -0.3614  0.0143 -0.0503
  703MOL0     C96922   6.572   3.291   2.215 -0.1050 -1.2898  0.0004
  703MOL0     C96923   6.651   3.249   2.104  1.0372 -0.6857 -0.4697
  703MOL0     O96924   6.844   3.480   1.875 -0.1197 -0.5772 -0.3194
  703MOL0     C96925   7.108   3.277   1.806  0.3721 -0.5684 -0.1773
  703MOL0     C96926   7.197   3.251   1.701  0.1197  0.5736 -0.1560
  703MOL0     N96927   7.232   2.803   1.347  0.3884  0.3468  0.7057
  703MOL0     N96928   7.130   2.747   1.403  0.1457  0.0150  0.0355
  703MOL0     C96929   6.408   2.772   2.016 -0.1581 -0.6240  0.4267
  703MOL0     C96930   6.393   2.904   2.068 -0.4257  0.4672 -0.2992
  703MOL0     C96931   6.314   3.331   2.000  0.5191 -0.1275  0.3213
  703MOL0     C96932   6.273   3.370   2.127  0.4391  0.7726  0.7837
  703MOL0     C96933   6.251   3.509   2.153 -0.4596  0.0082 -0.1985
  703MOL0     C96934   6.281   3.608   2.051 -0.3758  0.1460  0.4248
  703MOL0     O96935   6.267   3.737   2.098  0.3076  0.4428 -0.4576
  703MOL0     C96936   6.241   3.842   2.003 -1.1700 -0.0185  0.7757
  703MOL0     C96937   6.100   3.828   1.941  0.4281 -0.4371  0.6959
  703MOL0     C96938   5.992   3.838   2.054 -0.1091 -0.0400 -0.1656
  703MOL0     C96939   5.848   3.856   2.003 -1.1040 -0.1996 -0.2629
  703MOL0     C96940   5.743   3.884   2.096  0.0489  0.4463 -0.3727
  703MOL0     C96941   5.673   3.918   2.183  0.4219 -0.0437 -0.3768
  703MOL0     C96942   6.340   3.574   1.927  0.0903  0.0495 -1.1117
  703MOL0     C96943   6.360   3.433   1.904 -0.0438  0.0917 -1.0644
  703MOL0     C96944   6.408   3.406   1.770 -0.2543 -0.6088 -0.1668
  703MOL0     H96945   6.067   2.949   1.987 -1.0564 -3.4824  2.7837
  703MOL0     H96946   6.098   2.710   1.896  0.7568 -1.7070  0.8106
  703MOL0     H96947   6.221   2.603   1.722  0.7863 -0.6400 -0.9505
  703MOL0     H96948   6.145   2.497   1.838  0.4627 -1.0623 -0.0190
  703MOL0     H96949   6.356   2.340   1.809 -0.3391 -0.0038 -0.0028
  703MOL0     H96950   6.246   2.337   1.677  2.7021 -1.5656 -1.5460
  703MOL0     H96951   6.481   2.362   1.600  1.4718  0.5379 -0.5263
  703MOL0     H96952   6.367   2.494   1.549  1.1517 -0.5138  0.6765
  703MOL0     H96953   6.492   2.657   1.702  1.3063  1.4933 -1.4402
  703MOL0     H96954   6.575   2.515   1.773 -5.1579 -0.8290  2.2182
  703MOL0     H96955   6.606   2.617   1.480 -0.4548  0.9658  0.4575
  703MOL0     H96956   6.667   2.474   1.547 -3.9054 -0.6629  1.0510
  703MOL0     H96957   6.729   2.760   1.634 -0.9795  0.3883 -1.9336
  703MOL0     H96958   6.811   2.618   1.712 -0.2776  0.6639 -0.5434
  703MOL0     H96959   6.933   2.558   1.530  0.4081 -0.2922  1.1748
  703MOL0     H96960   6.963   2.718   1.594 -0.9009  0.0210  0.2094
  703MOL0     H96961   6.844   2.642   1.322  0.4627 -0.5519  1.0277
  703MOL0     H96962   6.801   2.801   1.401 -0.2595 -0.5261  2.8369
  703MOL0     H96963   6.982   2.882   1.151  0.2569  2.7262  0.7287
  703MOL0     H96964   7.180   3.021   1.094  0.4366  1.9665  0.3589
  703MOL0     H96965   7.290   2.893   1.048  0.3021  0.4181 -0.3496
  703MOL0     H96966   7.447   2.970   1.230  1.3386 -0.4109 -3.1259
  703MOL0     H96967   7.408   3.083   1.092 -2.8492 -0.4271 -2.1840
  703MOL0     H96968   7.440   3.193   1.317 -0.2735 -0.4193  2.1604
  703MOL0     H96969   7.302   3.233   1.213  0.0346 -1.0562 -1.5065
  703MOL0     H96970   7.155   3.098   1.354  0.0051  0.7737 -0.4022
  703MOL0     H96971   7.279   3.040   1.454 -0.7747  0.2480  1.3819
  703MOL0     H96972   6.995   3.309   1.443 -0.2470  0.7016  0.1427
  703MOL0     H96973   6.783   3.357   1.500  1.5134  0.1236  0.3836
  703MOL0     H96974   6.796   3.494   1.601 -1.2130  0.2177 -2.3359
  703MOL0     H96975   6.713   3.345   1.661  0.2381  1.2048  1.3129
  703MOL0     H96976   6.921   3.459   2.184 -0.7727  1.2017 -2.1706
  703MOL0     H96977   6.770   3.533   2.359  1.4676  0.8218 -1.1537
  703MOL0     H96978   6.589   3.582   2.503  1.4867 -3.3154 -0.9763
  703MOL0     H96979   6.503   3.626   2.355 -0.4505 -0.2684  0.2019
  703MOL0     H96980   6.283   3.551   2.472 -0.9301  1.2147  0.9756
  703MOL0     H96981   6.400   3.543   2.623  2.2556 -0.2587  0.2962
  703MOL0     H96982   6.350   3.786   2.477 -0.6152  0.1406 -0.3510
  703MOL0     H96983   6.433   3.759   2.629 -0.3419 -0.7909  0.1522
  703MOL0     H96984   6.246   3.818   2.732 -4.6675  1.4623 -0.3435
  703MOL0     H96985   6.172   3.670   2.670 -0.8728 -0.0067  2.0217
  703MOL0     H96986   6.107   3.816   2.463 -2.4950  1.6623 -0.1584
  703MOL0     H96987   6.043   3.872   2.616 -0.9529 -2.5151 -2.0104
  703MOL0     H96988   6.310   3.996   2.528 -0.3186 -2.2899  1.4797
  703MOL0     H96989   6.200   4.032   2.655  1.0709  0.7945 -0.2268
  703MOL0     H96990   6.051   4.142   2.521 -2.1430 -0.0994 -2.1967
  703MOL0     H96991   6.071   4.033   2.391  0.5322  0.7745 -0.0102
  703MOL0     H96992   6.271   4.248   2.492  0.4705  0.7052 -0.1220
  703MOL0     H96993   6.151   4.265   2.353 -0.9469 -0.9155  0.9406
  703MOL0     H96994   6.468   3.264   2.228 -0.3697  0.7426  3.5723
  703MOL0     H96995   6.609   3.184   2.028 -1.0314 -1.5440  1.3334
  703MOL0     H96996   7.153   3.255   1.902  1.3328  2.7614  0.2662
  703MOL0     H96997   7.291   3.208   1.734  1.4197  2.2349 -1.5091
  703MOL0     H96998   6.500   2.714   2.020 -0.5232 -1.1194  1.7189
  703MOL0     H96999   6.472   2.960   2.116 -0.5351 -0.0739  0.5324
  703MOL0     H97000   6.242   3.292   2.196 -0.9795 -2.5788 -3.1973
  703MOL0     H97001   6.222   3.541   2.253  0.7342  2.1824 -0.4895
  703MOL0     H97002   6.247   3.942   2.046 -0.6230 -0.5338  1.9361
  703MOL0     H97003   6.317   3.854   1.925  0.1739  6.3595  2.5458
  703MOL0     H97004   6.097   3.723   1.911  0.5705 -0.2281 -0.0710
  703MOL0     H97005   6.074   3.889   1.854 -0.6597 -1.9425 -0.0983
  703MOL0     H97006   5.994   3.747   2.115 -0.6251  0.4685  0.6305
  703MOL0     H97007   6.033   3.910   2.126  1.8139 -1.5959  0.3709
  703MOL0     H97008   5.820   3.766   1.948 -0.3597 -0.6938  0.1477
  703MOL0     H97009   5.854   3.937   1.929  1.5011  0.8190  0.9381
  703MOL0     H97010   5.600   3.946   2.256 -0.0561  0.5078 -1.0583
  703MOL0     H97011   6.373   3.657   1.865  1.8765  1.1134  1.1197
  703MOL0     H97012   6.451   3.497   1.726  0.1310 -1.7277 -2.2524
  703MOL0     H97013   6.480   3.324   1.761  1.0519  0.0326  3.1221
  703MOL0     H97014   6.318   3.379   1.715 -0.1570 -1.1995 -0.0384
  704MOL0     O97015   9.969   1.192   8.283  0.3258  0.1631  0.4650
  704MOL0     C97016   9.988   1.080   8.228  0.3254  0.6453 -0.0679
  704MOL0     O97017  10.108   1.026   8.201  0.4661 -0.2294 -0.4827
  704MOL0     C97018  10.218   1.096   8.242 -0.2732 -0.5341  0.8466
  704MOL0     C97019  10.267   1.196   8.151  0.5292  1.0961  0.6531
  704MOL0     C97020  10.382   1.259   8.182  0.4386 -0.2338  1.2482
  704MOL0     C97021  10.460   1.203   8.276  0.0318 -0.4813  0.4157
  704MOL0     O97022  10.585   1.258   8.304  0.5803 -0.6115 -0.3479
  704MOL0     C97023  10.606   1.400   8.264 -0.4118  0.3904  0.0551
  704MOL0     C97024  10.743   1.438   8.340  0.1547 -0.1564  0.1399
  704MOL0     C97025  10.760   1.589   8.309  0.2648  0.1101 -0.0243
  704MOL0     C97026  10.849   1.654   8.411 -0.0925  0.0104 -0.3247
  704MOL0     C97027  10.893   1.796   8.374  0.6892 -0.6678  0.2192
  704MOL0     C97028  10.972   1.871   8.476  0.0869  0.4614 -0.9497
  704MOL0     C97029  10.951   2.017   8.437  0.1656 -0.0597 -0.1041
  704MOL0     C97030  11.034   2.105   8.522  0.1406  0.3593 -0.3905
  704MOL0     N97031  10.961   2.226   8.529 -0.1926 -0.0736 -0.3253
  704MOL0     C97032  10.913   2.292   8.428 -0.0890 -0.2168 -1.0502
  704MOL0     C97033  10.829   2.382   8.474 -0.0648  0.1205  0.3182
  704MOL0     C97034  10.767   2.497   8.394 -0.6244  0.7921  0.3873
  704MOL0     C97035  10.781   2.625   8.458 -0.9701  0.3127 -0.6865
  704MOL0     C97036  10.913   2.662   8.514 -0.0962 -0.9107 -0.5933
  704MOL0     C97037  10.947   2.816   8.527  0.5601  0.3244 -0.3858
  704MOL0     O97038  10.882   2.873   8.650 -0.0933 -0.2621 -0.4445
  704MOL0     C97039  10.914   3.004   8.687  0.0122  0.1063 -0.5045
  704MOL0     C97040  11.015   3.084   8.647 -0.1210  0.3776  0.1076
  704MOL0     C97041  11.041   3.217   8.700  0.1754 -0.8207  0.0207
  704MOL0     C97042  11.163   3.289   8.655  0.6565 -1.2575  0.3749
  704MOL0     C97043  10.952   3.269   8.794 -0.3959 -0.0930 -0.4763
  704MOL0     C97044  10.970   3.392   8.872  0.2915 -0.9547  0.5049
  704MOL0     O97045  10.860   3.426   8.953 -0.6434  0.2558  0.2197
  704MOL0     C97046  10.885   3.545   9.005 -0.2754 -0.0792 -0.7814
  704MOL0     C97047  10.857   3.658   8.924 -0.3376  0.5172  0.4653
  704MOL0     C97048  10.887   3.783   8.976 -1.0276  0.1150 -0.4493
  704MOL0     C97049  10.929   3.796   9.109 -0.9001  0.2540 -0.8491
  704MOL0     O97050  10.942   3.922   9.167  0.4696 -0.6068 -0.1104
  704MOL0     C97051  11.070   3.980   9.141 -0.1872  0.1138  0.6655
  704MOL0     C97052  11.083   4.112   9.219 -0.1833  0.3012 -0.7717
  704MOL0     C97053  11.191   4.088   9.331  0.7943  0.9850  0.5895
  704MOL0     C97054  11.131   4.000   9.441  0.0446  0.2955  0.0893
  704MOL0     C97055  11.225   4.018   9.565  0.5824 -0.1664  0.7237
  704MOL0     C97056  11.182   4.143   9.646 -0.5824  0.4220 -0.3029
  704MOL0     C97057  11.251   4.154   9.786  0.8554 -0.2888 -0.2943
  704MOL0     C97058  11.407   4.158   9.788  0.1401  0.4131 -0.0198
  704MOL0    Cl97059  11.473   4.205   9.943 -0.3460 -0.0335  0.1022
  704MOL0     C97060  10.945   3.685   9.185 -1.1821 -0.3062  0.4519
  704MOL0     C97061  10.925   3.549   9.139  0.5907  0.0209  0.2570
  704MOL0     O97062  11.085   3.441   8.875  0.7162  0.6115 -0.1557
  704MOL0     C97063  10.853   3.177   8.840 -0.0675  0.3734  0.0645
  704MOL0     C97064  10.830   3.053   8.785  0.3410 -0.1034  0.3642
  704MOL0     N97065  10.824   2.370   8.618  0.1231 -0.5147 -0.0153
  704MOL0     N97066  10.907   2.275   8.639  0.3780 -0.4044 -0.0296
  704MOL0     C97067  10.427   1.094   8.353 -0.6453  0.3343  0.1547
  704MOL0     C97068  10.297   1.037   8.338 -0.1423  0.0170  0.7010
  704MOL0     C97069   9.873   0.997   8.203 -0.6163 -0.3935 -0.0977
  704MOL0     C97070   9.878   0.915   8.086  0.5917 -1.1803 -0.1128
  704MOL0     C97071   9.780   0.824   8.061  1.0608  0.6300 -0.0220
  704MOL0     C97072   9.674   0.803   8.148  0.2817 -0.0819  1.2367
  704MOL0     O97073   9.575   0.704   8.132  0.3756 -0.7064  0.0877
  704MOL0     C97074   9.518   0.673   8.004 -0.0738  0.8688 -0.6095
  704MOL0     C97075   9.426   0.774   7.936 -0.1527 -0.6750  0.5464
  704MOL0     C97076   9.314   0.848   8.015  0.0490 -1.6189 -0.0360
  704MOL0     C97077   9.186   0.768   8.021 -0.1557  0.3535  0.2884
  704MOL0     C97078   9.125   0.774   8.151  0.7107 -0.2379 -1.5124
  704MOL0     C97079   9.066   0.778   8.263  0.1688 -0.8481  0.4612
  704MOL0     C97080   9.664   0.890   8.266 -0.2782  0.4165 -0.0993
  704MOL0     C97081   9.769   0.985   8.297  1.0324 -0.4994 -0.5762
  704MOL0     C97082   9.749   1.066   8.421  0.6012 -0.8598 -0.3361
  704MOL0     H97083  10.220   1.222   8.057 -1.0813 -2.7437  0.2271
  704MOL0     H97084  10.412   1.342   8.118 -1.0572  0.7534  1.7645
  704MOL0     H97085  10.520   1.458   8.299 -0.1673  0.1250  1.1557
  704MOL0     H97086  10.625   1.405   8.157  2.1509  0.8914  0.4568
  704MOL0     H97087  10.723   1.432   8.448 -0.4025  2.7565  0.2708
  704MOL0     H97088  10.821   1.377   8.294 -2.7633 -1.1733 -4.0346
  704MOL0     H97089  10.813   1.598   8.214  2.2649 -0.5205  0.9764
  704MOL0     H97090  10.660   1.634   8.303 -0.8869 -2.4875 -2.6278
  704MOL0     H97091  10.790   1.645   8.502 -2.1494 -0.3618 -1.6152
  704MOL0     H97092  10.937   1.591   8.423 -1.8804 -2.0387  3.4963
  704MOL0     H97093  10.801   1.852   8.356  0.2919 -0.6504  2.1292
  704MOL0     H97094  10.955   1.797   8.283 -0.2846  1.0130 -0.4699
  704MOL0     H97095  10.931   1.843   8.574 -0.0140  0.0384 -1.1117
  704MOL0     H97096  11.078   1.847   8.466  0.0824  0.5382 -1.1842
  704MOL0     H97097  10.844   2.036   8.448  0.0723 -0.7013  0.1786
  704MOL0     H97098  10.973   2.026   8.330 -0.2355  1.1162 -0.0983
  704MOL0     H97099  11.052   2.057   8.619 -1.0821 -0.9253 -0.7730
  704MOL0     H97100  11.130   2.121   8.473  0.8776 -0.1477  0.8339
  704MOL0     H97101  10.943   2.269   8.326  1.9294 -2.8906  0.0074
  704MOL0     H97102  10.661   2.476   8.377 -1.0395  1.8161  1.5658
  704MOL0     H97103  10.822   2.504   8.299 -0.1993 -0.7689  0.5008
  704MOL0     H97104  10.759   2.702   8.383  1.9213  3.0251  0.9778
  704MOL0     H97105  10.712   2.631   8.542 -2.7918 -0.5856 -2.0661
  704MOL0     H97106  10.918   2.617   8.614 -0.2067 -1.0028 -0.6298
  704MOL0     H97107  10.985   2.612   8.448  0.5957  0.0965 -0.6239
  704MOL0     H97108  11.056   2.820   8.531  0.5126  2.5257 -0.5179
  704MOL0     H97109  10.913   2.871   8.439  0.7114 -0.2021 -0.7853
  704MOL0     H97110  11.082   3.047   8.571 -1.9838  0.6834 -1.7985
  704MOL0     H97111  11.138   3.393   8.634  0.0105 -1.8998 -2.4318
  704MOL0     H97112  11.181   3.252   8.554 -1.5410 -2.1002  0.2309
  704MOL0     H97113  11.247   3.278   8.724  2.6482 -2.1207 -2.0643
  704MOL0     H97114  10.808   3.647   8.828 -0.8356  0.2699  0.7428
  704MOL0     H97115  10.861   3.878   8.931 -0.5682  0.3635 -0.1922
  704MOL0     H97116  11.156   3.913   9.153 -0.4129 -0.1745  0.6746
  704MOL0     H97117  11.068   4.014   9.037 -1.1519 -0.0151  0.6373
  704MOL0     H97118  11.120   4.184   9.146  1.0498  0.4210 -0.0469
  704MOL0     H97119  10.984   4.148   9.248 -1.1142 -0.1733 -3.1413
  704MOL0     H97120  11.218   4.183   9.379  1.6161 -0.0858  2.3245
  704MOL0     H97121  11.278   4.040   9.285 -1.3590 -0.9487 -1.8196
  704MOL0     H97122  11.132   3.896   9.406  3.4825  0.6465 -1.3596
  704MOL0     H97123  11.028   4.028   9.461 -0.1211  2.0720 -2.6385
  704MOL0     H97124  11.205   3.927   9.623 -1.3729  0.1472  0.6314
  704MOL0     H97125  11.330   4.016   9.535 -0.0420  3.1033 -2.3466
  704MOL0     H97126  11.075   4.147   9.664 -0.1238  2.4452  2.5484
  704MOL0     H97127  11.214   4.232   9.592  0.9523  2.5862  3.7661
  704MOL0     H97128  11.218   4.084   9.863  1.2009 -0.2971 -0.1527
  704MOL0     H97129  11.212   4.250   9.820  0.6531 -0.6488  0.5269
  704MOL0     H97130  11.450   4.225   9.712  0.8645  2.4168  2.0569
  704MOL0     H97131  11.444   4.056   9.772  2.1784  0.8229  1.6251
  704MOL0     H97132  10.990   3.694   9.283 -2.1638  1.3739  0.7786
  704MOL0     H97133  10.943   3.465   9.207  1.1741  0.3835  0.5584
  704MOL0     H97134  10.792   3.202   8.926  0.4973 -0.3628  0.6879
  704MOL0     H97135  10.745   2.992   8.813  1.0391  0.2939  3.8392
  704MOL0     H97136  10.492   1.053   8.429  1.8979  0.2395 -1.9096
  704MOL0     H97137  10.269   0.948   8.394 -0.2664 -0.8609 -0.7182
  704MOL0     H97138   9.963   0.930   8.021  0.9764 -1.6984  0.2627
  704MOL0     H97139   9.777   0.767   7.969  1.3080  0.7594 -0.1115
  704MOL0     H97140   9.596   0.655   7.929 -0.0795  1.1857 -0.6955
  704MOL0     H97141   9.459   0.585   8.029 -1.3298  2.2102  1.4262
  704MOL0     H97142   9.377   0.732   7.848 -0.8520 -1.7695  1.4341
  704MOL0     H97143   9.495   0.856   7.911 -2.1223  1.4513  1.6843
  704MOL0     H97144   9.344   0.860   8.119 -3.5776  0.8041  0.9193
  704MOL0     H97145   9.290   0.947   7.974  1.3523  1.2462  5.1780
  704MOL0     H97146   9.210   0.666   7.989  0.4732  1.3695 -2.8460
  704MOL0     H97147   9.122   0.800   7.938 -1.7908 -0.7088  1.0935
  704MOL0     H97148   9.003   0.786   8.349 -1.4518 -0.8420 -0.6954
  704MOL0     H97149   9.577   0.882   8.331  0.9937 -0.6696  1.5513
  704MOL0     H97150   9.709   0.993   8.492 -0.3572 -1.0304 -1.0188
  704MOL0     H97151   9.836   1.109   8.470 -0.6929 -0.2671  1.5738
  704MOL0     H97152   9.683   1.150   8.394  3.3851  1.6540  0.2047
  705MOL0     O97153   0.366   1.836   7.904  0.5694 -0.3970 -0.1199
  705MOL0     C97154   0.461   1.788   7.973  0.2130 -0.2136  0.8519
  705MOL0     O97155   0.518   1.850   8.087  0.0251  0.1053  0.1058
  705MOL0     C97156   0.492   1.983   8.105  0.1943  0.3136 -0.1369
  705MOL0     C97157   0.360   2.023   8.136  0.4577  0.4168  0.0578
  705MOL0     C97158   0.334   2.154   8.167  0.5456 -0.6365  0.4112
  705MOL0     C97159   0.427   2.257   8.164 -0.2338 -0.1052 -0.0323
  705MOL0     O97160   0.380   2.372   8.198  0.6703  0.3409 -0.3498
  705MOL0     C97161   0.461   2.455   8.283 -0.1196  0.2853 -0.0079
  705MOL0     C97162   0.378   2.525   8.390  0.0456  0.2329 -0.4571
  705MOL0     C97163   0.266   2.611   8.329  0.2748 -0.4768  0.2490
  705MOL0     C97164   0.220   2.709   8.435 -1.0444 -0.4505 -0.6695
  705MOL0     C97165   0.096   2.797   8.401 -0.6536 -0.0479 -0.3190
  705MOL0     C97166   0.041   2.866   8.528 -0.5888  0.3199  1.0500
  705MOL0     C97167   0.150   2.919   8.624 -0.6772 -1.1024 -0.0008
  705MOL0     C97168   0.101   2.964   8.766 -0.5401 -0.4014 -0.3075
  705MOL0     N97169   0.088   2.846   8.848  0.8004 -0.3517  0.9599
  705MOL0     C97170   0.187   2.770   8.894  0.0567 -0.0306 -0.5847
  705MOL0     C97171   0.135   2.682   8.973  0.6494  0.3303  0.2618
  705MOL0     C97172   0.205   2.576   9.055  0.3872  0.4882 -0.4280
  705MOL0     C97173   0.149   2.425   9.042 -0.4656  0.5648 -0.3989
  705MOL0     C97174   0.196   2.334   9.159 -0.0447  0.2713 -0.1179
  705MOL0     C97175   0.103   2.216   9.180  0.6638 -0.6042 -0.5421
  705MOL0     O97176   0.136   2.098   9.102  0.2305 -0.1074  0.1364
  705MOL0     C97177   0.183   1.978   9.166 -0.3988 -0.6195 -1.0521
  705MOL0     C97178   0.274   1.977   9.271 -1.1319 -0.2036  0.3372
  705MOL0     C97179   0.321   1.860   9.333  0.3076  0.5653  0.4301
  705MOL0     C97180   0.428   1.868   9.442  0.1408 -0.3186 -0.1747
  705MOL0     C97181   0.263   1.741   9.292  0.8561  0.2148  0.1123
  705MOL0     C97182   0.299   1.605   9.343  0.1523  0.6087 -0.2737
  705MOL0     O97183   0.264   1.497   9.260  0.5400 -0.0951  0.1834
  705MOL0     C97184   0.290   1.366   9.288 -0.2455  0.2822  0.0095
  705MOL0     C97185   0.261   1.307   9.414  0.8309  0.0055 -0.0060
  705MOL0     C97186   0.281   1.164   9.424 -0.4047  0.3370 -0.5207
  705MOL0     C97187   0.326   1.093   9.313 -0.0460 -0.3069  0.5888
  705MOL0     O97188   0.354   0.958   9.317  0.5516 -0.3110  0.2886
  705MOL0     C97189   0.232   0.886   9.281 -0.0336 -0.4884  0.2017
  705MOL0     C97190   0.224   0.769   9.381 -0.3463 -0.6184  0.8650
  705MOL0     C97191   0.114   0.688   9.329  0.4042  0.2071 -0.5603
  705MOL0     C97192   0.091   0.565   9.414  0.2778  0.4418 -0.3728
  705MOL0     C97193  -0.041   0.486   9.380  0.4041 -0.7556  0.0350
  705MOL0     C97194  -0.158   0.573   9.332  0.0560  0.1900  0.9419
  705MOL0     C97195  -0.271   0.490   9.290 -0.8490  0.8359  0.2352
  705MOL0     C97196  -0.368   0.562   9.206 -0.0885 -0.1565  0.0613
  705MOL0    Cl97197  -0.438   0.693   9.306  0.0699 -0.0815 -0.1127
  705MOL0     C97198   0.361   1.167   9.194 -0.6264  0.5465 -0.9488
  705MOL0     C97199   0.342   1.297   9.183  0.4422 -0.8205 -0.0513
  705MOL0     O97200   0.338   1.585   9.456 -0.6094  0.1655  0.1904
  705MOL0     C97201   0.186   1.739   9.177  0.4576  0.4276  0.1817
  705MOL0     C97202   0.132   1.850   9.122 -0.0375 -0.2247  0.6152
  705MOL0     N97203  -0.002   2.705   8.976  0.4271 -0.8783  0.0087
  705MOL0     N97204  -0.028   2.806   8.903  0.1317  0.0375  0.7764
  705MOL0     C97205   0.558   2.219   8.135 -0.1736  0.0236 -0.3096
  705MOL0     C97206   0.594   2.078   8.108  0.1808 -1.2522 -0.2002
  705MOL0     C97207   0.512   1.645   7.940 -0.7249  0.4845  0.3558
  705MOL0     C97208   0.424   1.571   7.865  0.4066  0.1191  0.2061
  705MOL0     C97209   0.461   1.446   7.818  0.5986  1.1677 -0.3334
  705MOL0     C97210   0.574   1.385   7.873 -0.0340 -0.1100  0.0991
  705MOL0     O97211   0.587   1.245   7.850  0.1352 -1.1615  0.2406
  705MOL0     C97212   0.717   1.198   7.861  0.2820 -0.9949  0.0308
  705MOL0     C97213   0.743   1.069   7.778  0.5053 -0.5113 -0.4007
  705MOL0     C97214   0.680   0.951   7.844  0.1259  0.5614 -0.6124
  705MOL0     C97215   0.749   0.809   7.820  0.1239 -0.0673  0.0308
  705MOL0     C97216   0.694   0.709   7.920 -0.1959 -0.2140 -0.5846
  705MOL0     C97217   0.628   0.646   7.997  0.6205  0.3358 -1.0466
  705MOL0     C97218   0.655   1.455   7.957 -0.3548 -0.2134  0.3657
  705MOL0     C97219   0.631   1.590   7.989  0.0047 -0.1844 -0.4444
  705MOL0     C97220   0.734   1.654   8.078 -0.1941  0.4199  0.8076
  705MOL0     H97221   0.282   1.949   8.154  2.1881 -1.2667  0.9879
  705MOL0     H97222   0.234   2.188   8.191 -0.3703 -2.0490 -1.1786
  705MOL0     H97223   0.534   2.516   8.229 -0.3203 -0.7768 -1.5446
  705MOL0     H97224   0.521   2.391   8.349  1.6091  2.1138  0.2959
  705MOL0     H97225   0.324   2.453   8.452  1.1408  0.3659  0.7056
  705MOL0     H97226   0.449   2.582   8.451  0.2304  0.4141 -0.8347
  705MOL0     H97227   0.302   2.664   8.240  0.0324  0.0898  0.4841
  705MOL0     H97228   0.183   2.559   8.280 -0.9866  2.9998 -1.6855
  705MOL0     H97229   0.205   2.649   8.525  0.7247  1.1224  0.7615
  705MOL0     H97230   0.309   2.771   8.453  1.4558 -4.2115  1.3292
  705MOL0     H97231   0.018   2.738   8.353  1.1835 -1.3325 -1.9257
  705MOL0     H97232   0.138   2.865   8.326  0.6524 -3.1335 -2.6079
  705MOL0     H97233  -0.023   2.948   8.494 -0.5552  0.3064  0.9523
  705MOL0     H97234  -0.009   2.791   8.591  0.9852 -2.6723 -1.0079
  705MOL0     H97235   0.199   3.007   8.581  1.0709 -0.8790  2.2802
  705MOL0     H97236   0.230   2.848   8.647 -0.7392 -0.7901  1.2505
  705MOL0     H97237   0.166   3.037   8.815  0.2812 -0.2263 -1.6185
  705MOL0     H97238  -0.001   3.002   8.764  0.7763  3.7415  0.7947
  705MOL0     H97239   0.293   2.792   8.885 -0.0525  0.1133 -1.6586
  705MOL0     H97240   0.209   2.611   9.158  1.1674  0.3295 -0.3951
  705MOL0     H97241   0.310   2.572   9.025  0.4435 -1.1322 -0.1351
  705MOL0     H97242   0.040   2.428   9.031 -0.5948  3.0657  0.8309
  705MOL0     H97243   0.188   2.378   8.951 -1.0407  0.1558 -0.4407
  705MOL0     H97244   0.296   2.297   9.138  0.1895  0.9474 -0.1925
  705MOL0     H97245   0.185   2.401   9.244 -2.4593  1.3162 -1.1434
  705MOL0     H97246   0.105   2.201   9.289 -4.0500 -0.3193 -0.2051
  705MOL0     H97247   0.000   2.244   9.156  1.0676 -0.9335 -2.8397
  705MOL0     H97248   0.308   2.071   9.314 -0.4557 -0.9817  1.5598
  705MOL0     H97249   0.474   1.966   9.459 -0.7135  0.0053  0.3055
  705MOL0     H97250   0.516   1.804   9.426  0.2173  0.2961 -2.5558
  705MOL0     H97251   0.384   1.838   9.537 -0.5932 -1.4349 -0.8462
  705MOL0     H97252   0.238   1.364   9.503  4.7186  0.2471  1.0357
  705MOL0     H97253   0.258   1.111   9.516  0.2108 -1.8423 -1.5494
  705MOL0     H97254   0.138   0.940   9.295  0.0303 -0.7909  1.9222
  705MOL0     H97255   0.238   0.856   9.176  0.3672  2.9737 -0.8961
  705MOL0     H97256   0.322   0.721   9.375 -0.4756 -0.7970  0.0303
  705MOL0     H97257   0.201   0.808   9.481 -2.7899  3.0193 -0.9036
  705MOL0     H97258   0.138   0.643   9.232  0.9890 -1.5068  0.3378
  705MOL0     H97259   0.024   0.751   9.319  0.5392  0.1269 -2.8820
  705MOL0     H97260   0.081   0.593   9.519  2.0056 -1.0261  0.2396
  705MOL0     H97261   0.180   0.501   9.407 -1.0698 -1.6877  0.7639
  705MOL0     H97262  -0.010   0.416   9.302  2.1657  1.3039 -1.2283
  705MOL0     H97263  -0.078   0.433   9.468  0.0075  1.5664  1.3419
  705MOL0     H97264  -0.127   0.644   9.254 -0.0783  1.4790  2.0208
  705MOL0     H97265  -0.187   0.637   9.416 -1.6271 -0.1654  0.6615
  705MOL0     H97266  -0.316   0.445   9.378 -0.1497  2.4857  1.4907
  705MOL0     H97267  -0.230   0.418   9.219  1.1446  0.4433  1.7109
  705MOL0     H97268  -0.444   0.493   9.169 -0.8045  1.2043 -1.1555
  705MOL0     H97269  -0.312   0.616   9.128 -3.1821  5.1770  0.9998
  705MOL0     H97270   0.403   1.107   9.114  0.6200  0.6548 -0.4029
  705MOL0     H97271   0.349   1.350   9.088 -0.9075 -5.1282 -2.8626
  705MOL0     H97272   0.150   1.647   9.132 -0.9051  0.6097  0.8400
  705MOL0     H97273   0.062   1.848   9.039  0.0968 -0.5390  0.5049
  705MOL0     H97274   0.635   2.295   8.137 -0.7214  0.5699  1.9450
  705MOL0     H97275   0.698   2.048   8.109 -0.1286 -2.5367 -2.1168
  705MOL0     H97276   0.342   1.614   7.809  0.7465  0.2757 -0.1772
  705MOL0     H97277   0.403   1.376   7.760 -0.6227  0.5024  1.6068
  705MOL0     H97278   0.789   1.263   7.810 -1.2509 -1.2859 -2.6960
  705MOL0     H97279   0.740   1.189   7.967 -0.5698  0.5985  0.3830
  705MOL0     H97280   0.847   1.042   7.760  0.3542 -2.6090  1.4474
  705MOL0     H97281   0.699   1.096   7.681  1.8093 -1.5156 -1.3072
  705MOL0     H97282   0.661   0.971   7.950 -2.2958 -0.1691 -0.8449
  705MOL0     H97283   0.577   0.941   7.809  0.2572 -1.0707 -0.6252
  705MOL0     H97284   0.855   0.827   7.841  0.4026 -0.4911 -0.9540
  705MOL0     H97285   0.745   0.767   7.719 -2.8891 -0.7278  0.3481
  705MOL0     H97286   0.561   0.596   8.064  0.1304 -1.1491 -2.5608
  705MOL0     H97287   0.744   1.402   7.990  0.5295  0.9481 -0.0758
  705MOL0     H97288   0.708   1.668   8.184 -0.9144 -3.0711  1.1961
  705MOL0     H97289   0.830   1.601   8.075 -1.8740 -2.7610 -1.0305
  705MOL0     H97290   0.748   1.750   8.028 -1.1302  0.1223 -0.0566
  706MOL0     O97291   4.888   2.201  10.131 -0.2920  0.4196  0.2651
  706MOL0     C97292   4.812   2.233  10.040  0.7117 -0.1756  0.1491
  706MOL0     O97293   4.818   2.354   9.978 -0.2488 -0.2896  0.5519
  706MOL0     C97294   4.940   2.418   9.981  0.3223  0.2333  0.4286
  706MOL0     C97295   5.014   2.452  10.095  0.4471  0.1602  0.0214
  706MOL0     C97296   5.121   2.526  10.082  0.3012 -0.7178  0.1461
  706MOL0     C97297   5.177   2.561   9.960 -0.2348  0.2519  0.1300
  706MOL0     O97298   5.296   2.636   9.960  0.1251  0.6485  0.5491
  706MOL0     C97299   5.334   2.714   9.847 -0.4327 -1.3083  0.1255
  706MOL0     C97300   5.444   2.812   9.871  0.2507  0.2586 -0.4264
  706MOL0     C97301   5.388   2.913   9.977  0.2475  0.3993 -0.6130
  706MOL0     C97302   5.496   3.019   9.996  0.1233 -0.3669 -0.2747
  706MOL0     C97303   5.484   3.119  10.112 -0.0839  0.0685 -0.9679
  706MOL0     C97304   5.609   3.205  10.149 -0.5376 -0.4894 -0.3173
  706MOL0     C97305   5.711   3.126  10.225 -0.5777  0.4704 -0.9737
  706MOL0     C97306   5.845   3.201  10.250  0.7776 -0.1284  0.4825
  706MOL0     N97307   5.919   3.122  10.350  0.3738 -0.7559  0.3229
  706MOL0     C97308   5.906   3.151  10.480 -0.2973  0.5682 -0.6547
  706MOL0     C97309   6.006   3.093  10.546  0.1657  0.0056  1.2806
  706MOL0     C97310   6.041   3.109  10.688 -0.5805 -0.6268 -0.1654
  706MOL0     C97311   6.138   3.225  10.688 -0.0468 -0.1952 -1.1266
  706MOL0     C97312   6.198   3.263  10.824 -0.6359 -0.0086  0.5881
  706MOL0     C97313   6.344   3.238  10.845 -0.0593  0.6449 -0.7436
  706MOL0     O97314   6.424   3.328  10.764  0.5371  0.0276 -0.8593
  706MOL0     C97315   6.558   3.332  10.796  0.4428 -0.2016 -1.0215
  706MOL0     C97316   6.625   3.241  10.876 -0.1867  0.6450 -0.2575
  706MOL0     C97317   6.762   3.248  10.903  0.7583  0.1870 -0.7847
  706MOL0     C97318   6.825   3.138  10.984 -0.0299 -0.8778  0.6056
  706MOL0     C97319   6.835   3.356  10.842  0.1074 -0.4204  0.5755
  706MOL0     C97320   6.978   3.388  10.847 -0.3254 -0.2759 -0.0644
  706MOL0     O97321   7.027   3.517  10.826  0.2133 -0.2819  0.3359
  706MOL0     C97322   7.160   3.548  10.819 -0.4540 -0.6431 -0.1429
  706MOL0     C97323   7.269   3.475  10.762 -0.0257  0.2131  1.0044
  706MOL0     C97324   7.402   3.524  10.738  0.4350  0.8306  0.1659
  706MOL0     C97325   7.437   3.644  10.792  0.0899  0.4500 -0.3334
  706MOL0     O97326   7.569   3.686  10.802  0.6452  0.4234  0.0588
  706MOL0     C97327   7.667   3.608  10.727  0.0817  0.1546 -0.3726
  706MOL0     C97328   7.803   3.689  10.708  1.0482 -0.0483  0.0747
  706MOL0     C97329   7.900   3.639  10.590  0.1533  0.8290 -0.9977
  706MOL0     C97330   8.001   3.748  10.569 -0.2972 -0.2777  0.7254
  706MOL0     C97331   8.108   3.716  10.452 -0.5789  0.8516 -0.2897
  706MOL0     C97332   8.194   3.823  10.391  0.0688  0.5079  0.3201
  706MOL0     C97333   8.272   3.906  10.496  0.0584 -0.2730 -0.1416
  706MOL0     C97334   8.345   4.024  10.428  0.5506 -0.3150 -0.6101
  706MOL0    Cl97335   8.440   4.102  10.553  0.3444 -0.6035  0.0075
  706MOL0     C97336   7.333   3.722  10.849  1.0054  0.3706 -0.1826
  706MOL0     C97337   7.193   3.676  10.864  0.2112 -0.7521  0.1214
  706MOL0     O97338   7.055   3.300  10.889 -0.6236 -0.2195  0.8410
  706MOL0     C97339   6.769   3.439  10.759 -0.1015  0.3288  0.1392
  706MOL0     C97340   6.633   3.428  10.737  0.0943  0.1862  1.2554
  706MOL0     N97341   6.089   3.034  10.448  0.3236 -0.0073  0.9795
  706MOL0     N97342   6.039   3.055  10.331  0.0312 -0.3705 -0.5137
  706MOL0     C97343   5.100   2.530   9.842 -0.1476 -0.5760  0.1890
  706MOL0     C97344   4.994   2.455   9.860 -0.2647  0.0536  0.6959
  706MOL0     C97345   4.701   2.151   9.989  0.1447  0.8615  0.1244
  706MOL0     C97346   4.574   2.208   9.995 -0.4233  0.1373 -0.2640
  706MOL0     C97347   4.461   2.139   9.938  0.1040 -0.2649  0.3499
  706MOL0     C97348   4.479   2.013   9.882  0.4916 -0.2119 -0.0418
  706MOL0     O97349   4.382   1.933   9.827  0.9608 -0.1013  0.8350
  706MOL0     C97350   4.249   1.983   9.786 -0.2425  0.1944 -1.9288
  706MOL0     C97351   4.192   1.907   9.669 -0.5293  0.4607 -0.1489
  706MOL0     C97352   4.171   1.757   9.711  0.4592 -0.3359 -0.2241
  706MOL0     C97353   4.129   1.654   9.603 -0.6028 -0.1452  0.3108
  706MOL0     C97354   4.037   1.718   9.510 -0.1680  0.2888 -0.9035
  706MOL0     C97355   3.967   1.772   9.426  0.4235 -1.0162 -0.3239
  706MOL0     C97356   4.600   1.952   9.896  0.5725  0.0820 -0.6553
  706MOL0     C97357   4.716   2.017   9.948  1.1670  0.1577  0.2517
  706MOL0     C97358   4.850   1.958   9.931 -0.4446 -0.0580  0.3815
  706MOL0     H97359   4.970   2.422  10.190  1.8056 -0.2780  0.5295
  706MOL0     H97360   5.164   2.579  10.167 -2.4591  0.5051  0.9128
  706MOL0     H97361   5.245   2.767   9.812 -0.4908 -1.2427  0.3676
  706MOL0     H97362   5.372   2.652   9.765 -0.2383 -1.2329  0.1570
  706MOL0     H97363   5.532   2.760   9.910  0.5636  0.5285 -0.7616
  706MOL0     H97364   5.470   2.873   9.784  0.7806  5.2369  2.8031
  706MOL0     H97365   5.300   2.969   9.944 -0.3597 -0.6306 -0.7865
  706MOL0     H97366   5.365   2.858  10.069 -0.0273  0.7265 -0.4831
  706MOL0     H97367   5.594   2.969   9.999  1.0351  1.3114 -0.7144
  706MOL0     H97368   5.480   3.080   9.907  1.7162  0.5419  0.0179
  706MOL0     H97369   5.450   3.064  10.200 -1.3541  0.1614 -1.3695
  706MOL0     H97370   5.404   3.190  10.091  0.3073  1.0375  0.6674
  706MOL0     H97371   5.655   3.254  10.063  1.6497  1.4673  1.8551
  706MOL0     H97372   5.583   3.291  10.210  0.8971 -0.4723  0.3089
  706MOL0     H97373   5.748   3.043  10.163  0.1865  0.0760 -0.0062
  706MOL0     H97374   5.666   3.075  10.310 -1.2339  2.6014  0.0355
  706MOL0     H97375   5.894   3.218  10.154 -1.3224  1.5592 -0.3779
  706MOL0     H97376   5.828   3.299  10.296  3.0866 -0.0550  1.3123
  706MOL0     H97377   5.823   3.201  10.530 -0.5908 -1.0295  0.5508
  706MOL0     H97378   6.095   3.022  10.726  0.9580  0.1715 -0.4793
  706MOL0     H97379   5.948   3.130  10.742 -0.1978  0.5616  0.0503
  706MOL0     H97380   6.227   3.207  10.627 -0.5617  0.4657 -2.0871
  706MOL0     H97381   6.083   3.312  10.653 -2.6027 -1.0664  0.3920
  706MOL0     H97382   6.168   3.366  10.847 -2.3284 -0.4081  0.3681
  706MOL0     H97383   6.148   3.203  10.900 -0.8428  0.4328  0.8046
  706MOL0     H97384   6.361   3.255  10.951 -1.2697  1.0441 -0.5882
  706MOL0     H97385   6.364   3.132  10.829 -1.7310 -0.3046  2.6310
  706MOL0     H97386   6.567   3.164  10.926  2.9406 -1.0139  1.1174
  706MOL0     H97387   6.741   3.081  11.025  0.2781 -1.5769  0.2984
  706MOL0     H97388   6.891   3.179  11.061  1.6210  1.9057 -2.0507
  706MOL0     H97389   6.879   3.066  10.921  4.0670 -0.7938  3.6034
  706MOL0     H97390   7.238   3.377  10.729  1.4043 -0.9673  2.9697
  706MOL0     H97391   7.471   3.456  10.689  1.7399  2.7665 -0.7958
  706MOL0     H97392   7.686   3.514  10.779 -2.6086 -0.4741 -0.3586
  706MOL0     H97393   7.621   3.580  10.632  0.2675 -1.6160  0.0169
  706MOL0     H97394   7.784   3.794  10.682  0.9013  0.0519  0.5587
  706MOL0     H97395   7.857   3.689  10.803  0.7448  1.2438  0.2688
  706MOL0     H97396   7.845   3.612  10.499 -1.1342 -0.1668  0.0253
  706MOL0     H97397   7.960   3.553  10.622  1.8619  1.7535 -1.6120
  706MOL0     H97398   8.044   3.765  10.668 -1.6337  0.9986  1.1258
  706MOL0     H97399   7.950   3.839  10.535 -1.0222 -0.2017  1.9505
  706MOL0     H97400   8.174   3.638  10.490 -1.3111  0.1747 -0.3831
  706MOL0     H97401   8.056   3.671  10.366 -2.5401 -0.1800  1.3453
  706MOL0     H97402   8.132   3.889  10.329 -0.8983 -0.0168  0.7082
  706MOL0     H97403   8.268   3.773  10.326  0.9511 -1.5510  2.7368
  706MOL0     H97404   8.345   3.836  10.538 -0.6268 -0.8643  0.0798
  706MOL0     H97405   8.204   3.943  10.573  0.4368  0.2952 -0.0775
  706MOL0     H97406   8.263   4.091  10.397 -1.2699 -1.3513  1.6553
  706MOL0     H97407   8.402   3.990  10.341  3.2368 -3.5577  2.1660
  706MOL0     H97408   7.350   3.823  10.884 -5.5087  1.5796  0.6532
  706MOL0     H97409   7.125   3.755  10.896  0.9178  0.1933 -0.6332
  706MOL0     H97410   6.824   3.519  10.709 -0.2932  0.0184 -0.5782
  706MOL0     H97411   6.579   3.495  10.671  1.4938 -1.8037 -2.1434
  706MOL0     H97412   5.125   2.554   9.739 -0.2842  2.1218  0.7191
  706MOL0     H97413   4.952   2.428   9.764 -1.8207  0.8206  1.1351
  706MOL0     H97414   4.560   2.311  10.028 -2.3336 -0.3994  0.7208
  706MOL0     H97415   4.364   2.186   9.929  0.5379  0.8112  1.1188
  706MOL0     H97416   4.186   1.969   9.874  0.9834  0.3553 -0.9855
  706MOL0     H97417   4.253   2.090   9.762 -2.5094  0.9674  0.5586
  706MOL0     H97418   4.253   1.917   9.579 -1.5584  1.5544 -0.7587
  706MOL0     H97419   4.094   1.954   9.653 -0.2876  1.2577  0.6151
  706MOL0     H97420   4.266   1.715   9.745  0.5688  0.6936  0.8084
  706MOL0     H97421   4.101   1.772   9.794 -0.6930 -0.0403 -1.2236
  706MOL0     H97422   4.071   1.571   9.646  1.2518 -0.8718  1.4958
  706MOL0     H97423   4.212   1.602   9.554 -1.4993 -1.5284  0.2049
  706MOL0     H97424   3.907   1.809   9.345 -0.6337  0.3495  1.0271
  706MOL0     H97425   4.606   1.855   9.847 -2.3346 -0.3017 -0.4328
  706MOL0     H97426   4.881   1.923  10.030  1.5467  0.0114 -0.1772
  706MOL0     H97427   4.835   1.884   9.852 -2.5647 -0.1269  0.7951
  706MOL0     H97428   4.917   2.037   9.895  0.9929 -0.9676  0.9610
  707MOL0     O97429   0.637   9.135   3.761  0.3195  0.6647 -0.1377
  707MOL0     C97430   0.546   9.133   3.840  0.4371 -0.3701 -0.0963
  707MOL0     O97431   0.548   9.086   3.962  0.0581 -0.2034  0.1201
  707MOL0     C97432   0.664   9.031   4.013 -0.0267 -0.8336 -0.0136
  707MOL0     C97433   0.639   8.919   4.089 -0.1162 -0.2058 -1.0879
  707MOL0     C97434   0.741   8.852   4.160 -0.2061 -0.1290 -1.0791
  707MOL0     C97435   0.874   8.901   4.150 -1.1608  0.4654 -0.9388
  707MOL0     O97436   0.984   8.846   4.206  0.0502  0.1156  0.6562
  707MOL0     C97437   1.005   8.697   4.207 -0.0113  0.0259  0.3784
  707MOL0     C97438   1.153   8.657   4.257 -0.3803 -0.4979 -0.0489
  707MOL0     C97439   1.263   8.731   4.169  0.1921 -0.0822 -0.0138
  707MOL0     C97440   1.316   8.625   4.072  0.2757 -0.1273 -0.2931
  707MOL0     C97441   1.424   8.672   3.973  1.0877 -0.3463  0.8188
  707MOL0     C97442   1.561   8.677   4.041  0.3000  0.1067  0.4085
  707MOL0     C97443   1.613   8.537   4.086 -0.5224  0.4567 -0.3110
  707MOL0     C97444   1.763   8.521   4.058  0.7953 -0.0862 -0.5854
  707MOL0     N97445   1.839   8.613   4.145 -0.5009 -0.0101 -0.6044
  707MOL0     C97446   1.856   8.593   4.280 -0.5800  0.3250  0.1040
  707MOL0     C97447   1.956   8.683   4.312 -0.8665  0.5831 -0.2366
  707MOL0     C97448   1.988   8.704   4.457 -0.5222 -0.1466 -0.0379
  707MOL0     C97449   2.097   8.813   4.480  0.4130  0.3580  0.2771
  707MOL0     C97450   2.235   8.732   4.501  0.7373 -0.6367  0.0250
  707MOL0     C97451   2.338   8.848   4.537  0.6444 -0.5585  0.3002
  707MOL0     O97452   2.286   8.931   4.648 -0.0627 -0.1404  0.7132
  707MOL0     C97453   2.314   8.889   4.775 -0.3330  0.6846  0.6481
  707MOL0     C97454   2.428   8.822   4.820 -0.1418  0.4644  0.9039
  707MOL0     C97455   2.437   8.775   4.949 -0.3023 -0.6159  0.0698
  707MOL0     C97456   2.552   8.689   4.991  0.0529 -0.5906  0.2666
  707MOL0     C97457   2.344   8.816   5.047 -0.9309  0.5470 -0.3265
  707MOL0     C97458   2.346   8.787   5.196 -0.6674  0.8967  0.1937
  707MOL0     O97459   2.235   8.818   5.269  0.0752 -0.3239  0.7415
  707MOL0     C97460   2.243   8.811   5.403 -0.5143  0.3733 -0.6341
  707MOL0     C97461   2.340   8.863   5.487 -1.2978 -0.4669  0.3742
  707MOL0     C97462   2.348   8.836   5.623 -1.0029 -0.0332  0.6286
  707MOL0     C97463   2.260   8.749   5.684  0.5893 -0.0627 -0.2552
  707MOL0     O97464   2.262   8.749   5.823  0.1884 -0.1960 -1.1160
  707MOL0     C97465   2.162   8.665   5.891  0.2713  0.4511  1.2386
  707MOL0     C97466   2.163   8.511   5.851 -0.9871  1.2334 -0.7111
  707MOL0     C97467   2.150   8.417   5.979 -0.0375 -0.5015  0.3348
  707MOL0     C97468   2.017   8.435   6.056 -0.7567  0.5197  0.5254
  707MOL0     C97469   1.996   8.347   6.179 -0.3470  0.3542 -0.4150
  707MOL0     C97470   1.875   8.398   6.258 -0.9646  0.1735 -0.6589
  707MOL0     C97471   1.866   8.346   6.409 -0.5335 -0.2384 -0.0139
  707MOL0     C97472   1.993   8.390   6.489 -0.3833 -0.4196 -0.1216
  707MOL0    Cl97473   1.959   8.372   6.670  0.2497  0.3207  0.2803
  707MOL0     C97474   2.147   8.711   5.605  0.1355  0.2027 -0.2560
  707MOL0     C97475   2.146   8.737   5.463  0.4277  0.5315  0.5672
  707MOL0     O97476   2.452   8.738   5.245  0.6500  0.4993 -0.0548
  707MOL0     C97477   2.238   8.897   5.000  0.2591  0.4672  0.1280
  707MOL0     C97478   2.219   8.916   4.866 -0.1170 -0.4814  0.0798
  707MOL0     N97479   1.989   8.758   4.203 -0.7039 -0.2021  0.3472
  707MOL0     N97480   1.912   8.723   4.103  0.4969  0.3718 -0.3502
  707MOL0     C97481   0.897   9.023   4.076  0.5618  0.1959  0.2545
  707MOL0     C97482   0.795   9.086   4.002  0.4405  0.1395 -0.8286
  707MOL0     C97483   0.410   9.185   3.798 -0.4997 -0.9928 -0.2160
  707MOL0     C97484   0.312   9.091   3.773 -0.3737  0.2295 -0.2130
  707MOL0     C97485   0.178   9.129   3.739  0.9309  0.0697  0.0482
  707MOL0     C97486   0.147   9.263   3.719  0.3880  0.1754  0.2957
  707MOL0     O97487   0.020   9.290   3.671 -0.4474 -0.3265  0.4560
  707MOL0     C97488  -0.041   9.415   3.664 -0.9507 -0.2212  0.3614
  707MOL0     C97489  -0.105   9.449   3.798  0.6753 -0.1921 -0.5364
  707MOL0     C97490  -0.209   9.349   3.835 -0.2736  0.5861  0.0322
  707MOL0     C97491  -0.279   9.377   3.961  0.7535  0.7108 -0.2610
  707MOL0     C97492  -0.393   9.467   3.944 -0.3442 -0.6388 -0.3704
  707MOL0     C97493  -0.483   9.554   3.937 -0.3409 -0.4054  0.2334
  707MOL0     C97494   0.254   9.352   3.726  0.4077  0.1960  0.2412
  707MOL0     C97495   0.383   9.316   3.764  0.4728  0.1724  0.1262
  707MOL0     C97496   0.489   9.413   3.728 -0.0762 -0.0520 -0.0490
  707MOL0     H97497   0.541   8.876   4.106 -1.6760  3.6391  0.9565
  707MOL0     H97498   0.719   8.773   4.231  2.8053  0.3474  0.5587
  707MOL0     H97499   0.995   8.667   4.102  2.3359  2.5018 -0.6473
  707MOL0     H97500   0.933   8.654   4.278 -0.6261  0.6677  0.1608
  707MOL0     H97501   1.172   8.677   4.363 -0.3793 -1.9910  0.2599
  707MOL0     H97502   1.174   8.550   4.244  0.2790 -0.6066  1.5773
  707MOL0     H97503   1.207   8.801   4.107 -3.0767 -2.4031  0.0435
  707MOL0     H97504   1.335   8.786   4.230 -0.3046  0.6553 -0.0707
  707MOL0     H97505   1.353   8.544   4.135 -2.9084  0.6607  2.9310
  707MOL0     H97506   1.227   8.583   4.025  0.8313 -1.6468 -0.0468
  707MOL0     H97507   1.405   8.772   3.932  4.0832 -0.2598 -0.6610
  707MOL0     H97508   1.433   8.605   3.888  1.1287 -1.1821  1.4705
  707MOL0     H97509   1.636   8.722   3.977 -0.5145  0.1312 -0.5535
  707MOL0     H97510   1.554   8.738   4.132  3.2208  0.9328  0.1727
  707MOL0     H97511   1.556   8.452   4.048 -0.0053 -0.3621  0.7066
  707MOL0     H97512   1.603   8.516   4.193 -1.3661 -4.6519 -1.1570
  707MOL0     H97513   1.807   8.421   4.066  1.5881  0.4263  2.5069
  707MOL0     H97514   1.775   8.543   3.951  1.6321 -1.8084 -0.8888
  707MOL0     H97515   1.809   8.529   4.354  0.2295  1.3199  1.5522
  707MOL0     H97516   2.002   8.610   4.510 -1.5397  1.3301  3.1659
  707MOL0     H97517   1.899   8.743   4.508  1.0171  1.7511  1.3433
  707MOL0     H97518   2.101   8.892   4.404 -1.4911 -1.3091 -1.6640
  707MOL0     H97519   2.071   8.868   4.571  0.7528 -0.1409  0.6781
  707MOL0     H97520   2.219   8.657   4.579 -1.6497  1.5109  1.7995
  707MOL0     H97521   2.272   8.680   4.413  0.7634 -0.2292 -0.2088
  707MOL0     H97522   2.440   8.815   4.557  0.7296 -1.1343 -1.0257
  707MOL0     H97523   2.325   8.906   4.445 -2.9734 -1.9752 -0.2216
  707MOL0     H97524   2.519   8.815   4.762 -0.7541  0.9885 -0.1498
  707MOL0     H97525   2.518   8.590   5.023 -3.1903 -1.0597 -3.7401
  707MOL0     H97526   2.615   8.742   5.063 -0.3951  1.7642 -0.9660
  707MOL0     H97527   2.624   8.667   4.912  2.5447 -2.2931  2.8275
  707MOL0     H97528   2.407   8.941   5.450 -1.9937 -0.5739 -1.1834
  707MOL0     H97529   2.434   8.876   5.675 -0.4884  0.5333 -0.6207
  707MOL0     H97530   2.197   8.665   5.995  2.0382  0.1674  0.6710
  707MOL0     H97531   2.065   8.712   5.877  0.2576  0.0985  0.0687
  707MOL0     H97532   2.078   8.480   5.789 -0.4418 -0.7508 -0.5425
  707MOL0     H97533   2.255   8.496   5.795 -0.6477  2.6030 -0.5482
  707MOL0     H97534   2.240   8.424   6.040 -0.2106 -2.7084  0.9263
  707MOL0     H97535   2.136   8.312   5.950  3.0627 -1.3604  1.5423
  707MOL0     H97536   1.932   8.434   5.986 -0.2829 -0.2546 -0.0668
  707MOL0     H97537   2.028   8.531   6.107  1.0436  2.1691 -2.6214
  707MOL0     H97538   1.991   8.242   6.150 -0.4428 -0.1584  1.3327
  707MOL0     H97539   2.080   8.351   6.248 -2.0251 -0.3912  1.7946
  707MOL0     H97540   1.787   8.360   6.206 -0.3891 -1.5951 -0.3761
  707MOL0     H97541   1.861   8.507   6.261 -0.1217  0.2766 -0.3052
  707MOL0     H97542   1.858   8.237   6.406 -4.6798 -0.1730  1.5015
  707MOL0     H97543   1.768   8.374   6.450 -2.2408 -1.9625 -2.5822
  707MOL0     H97544   2.025   8.490   6.457 -0.0130 -0.6124 -0.3550
  707MOL0     H97545   2.073   8.316   6.482  1.5531  1.5748 -0.1586
  707MOL0     H97546   2.069   8.650   5.649  2.3167 -0.7389  2.5784
  707MOL0     H97547   2.054   8.702   5.417  0.2779  0.9531  0.5465
  707MOL0     H97548   2.153   8.930   5.060 -2.7297 -1.3246 -2.7475
  707MOL0     H97549   2.120   8.954   4.840 -0.5938 -2.7442 -1.7275
  707MOL0     H97550   0.995   9.068   4.078 -0.4729  2.7254  3.7211
  707MOL0     H97551   0.802   9.179   3.947 -1.6762  1.5394  1.0739
  707MOL0     H97552   0.339   8.986   3.779 -0.8803  0.0520 -0.8687
  707MOL0     H97553   0.101   9.054   3.728  2.1827 -1.2460 -0.0650
  707MOL0     H97554   0.024   9.498   3.634 -2.4895  2.5846  3.9697
  707MOL0     H97555  -0.120   9.413   3.589 -3.1745  1.9407  2.4358
  707MOL0     H97556  -0.150   9.549   3.789  0.1370 -0.6057 -3.5798
  707MOL0     H97557  -0.023   9.449   3.871  1.3768 -0.6876 -1.3118
  707MOL0     H97558  -0.286   9.329   3.760  0.4463  1.3179 -0.9316
  707MOL0     H97559  -0.158   9.256   3.861 -1.2649 -0.1763 -0.6784
  707MOL0     H97560  -0.203   9.401   4.036 -1.9637 -0.8822  3.3248
  707MOL0     H97561  -0.320   9.287   4.009 -1.0251  1.8058  0.4047
  707MOL0     H97562  -0.547   9.640   3.932  0.5586  0.2792  0.3736
  707MOL0     H97563   0.242   9.451   3.685  0.0065  0.8007  1.7618
  707MOL0     H97564   0.587   9.370   3.754  0.0323  0.4736  0.4328
  707MOL0     H97565   0.492   9.428   3.620  0.7223 -0.3403 -0.0730
  707MOL0     H97566   0.478   9.514   3.769  0.8986 -0.1615  0.5219
  708MOL0     O97567   2.822   1.602   9.118 -0.0073 -0.3375  0.2116
  708MOL0     C97568   2.740   1.679   9.167  0.2223  0.2240 -0.6695
  708MOL0     O97569   2.764   1.777   9.253  0.0768 -0.4069 -0.2424
  708MOL0     C97570   2.884   1.777   9.309 -0.7495 -0.1021 -0.0189
  708MOL0     C97571   2.971   1.878   9.279  0.1572  0.9565 -0.0619
  708MOL0     C97572   3.094   1.880   9.343  1.0205 -0.1835 -1.2392
  708MOL0     C97573   3.137   1.777   9.432  0.4061 -0.7018 -0.3744
  708MOL0     O97574   3.270   1.770   9.487 -0.3146 -0.4290 -0.6215
  708MOL0     C97575   3.363   1.878   9.450 -0.7610  0.1597 -0.3684
  708MOL0     C97576   3.497   1.847   9.510  0.6471  0.9408 -0.3929
  708MOL0     C97577   3.561   1.709   9.475 -0.1517  0.1669  0.3590
  708MOL0     C97578   3.593   1.687   9.323 -0.5024 -0.2507  0.0537
  708MOL0     C97579   3.637   1.539   9.314  0.4031 -1.0369 -0.1836
  708MOL0     C97580   3.656   1.502   9.164  0.0875  0.9212 -0.4716
  708MOL0     C97581   3.787   1.568   9.112  0.0450 -0.3201 -0.1783
  708MOL0     C97582   3.761   1.694   9.026 -0.4358 -1.5324  0.2941
  708MOL0     N97583   3.845   1.813   9.085  0.1807 -0.2253  0.3809
  708MOL0     C97584   3.988   1.828   9.074  0.6181  0.1274  0.5744
  708MOL0     C97585   4.013   1.954   9.118 -0.3112  0.1542 -0.4130
  708MOL0     C97586   4.147   2.027   9.125 -0.5613  0.2630  0.0798
  708MOL0     C97587   4.265   1.949   9.176 -0.2778 -0.7230  0.9848
  708MOL0     C97588   4.385   2.040   9.197 -0.4907  0.3351 -0.0384
  708MOL0     C97589   4.460   2.060   9.060  0.5643 -0.0739 -0.7030
  708MOL0     O97590   4.560   2.166   9.075  0.5478  0.1294 -0.4357
  708MOL0     C97591   4.686   2.137   9.119 -0.7493  1.0130 -0.2164
  708MOL0     C97592   4.776   2.244   9.111  0.2566 -0.0946  0.0600
  708MOL0     C97593   4.908   2.245   9.168  1.0733  0.8130  0.1131
  708MOL0     C97594   4.986   2.365   9.160  0.8257  0.6134  0.4699
  708MOL0     C97595   4.947   2.127   9.232  0.0910 -0.7139  0.1736
  708MOL0     C97596   5.082   2.107   9.286 -0.4269 -0.2206  0.0148
  708MOL0     O97597   5.155   2.218   9.337  0.5050  0.7927  0.3914
  708MOL0     C97598   5.287   2.204   9.350 -0.9020  0.1060  0.9284
  708MOL0     C97599   5.350   2.252   9.460  0.5426  0.6759 -0.2881
  708MOL0     C97600   5.490   2.242   9.485  0.3388  0.8261 -0.4741
  708MOL0     C97601   5.572   2.186   9.394  0.1350 -0.3868  0.1701
  708MOL0     O97602   5.701   2.166   9.429  1.1530  0.4938 -0.3161
  708MOL0     C97603   5.787   2.154   9.312  0.0273  0.0685 -0.8716
  708MOL0     C97604   5.933   2.143   9.349 -0.0036  0.0349  0.3847
  708MOL0     C97605   6.007   2.280   9.356  0.2017 -0.3974 -0.0110
  708MOL0     C97606   6.150   2.268   9.322  0.2245  0.3087 -0.3169
  708MOL0     C97607   6.203   2.407   9.321  0.8799  0.1776  0.1315
  708MOL0     C97608   6.356   2.417   9.290 -0.4838 -0.5064  0.1758
  708MOL0     C97609   6.460   2.365   9.389 -0.8826  0.5551 -0.1287
  708MOL0     C97610   6.607   2.393   9.333 -0.2662  0.7555 -0.7148
  708MOL0    Cl97611   6.689   2.496   9.478 -0.0388  0.7140 -0.0567
  708MOL0     C97612   5.511   2.135   9.279  0.1001  0.1591  0.1933
  708MOL0     C97613   5.374   2.145   9.256  0.0564  0.3954 -0.3697
  708MOL0     O97614   5.118   1.986   9.287 -0.1791 -0.0410  0.0105
  708MOL0     C97615   4.861   2.017   9.222 -0.2587 -0.0717  0.7757
  708MOL0     C97616   4.736   2.016   9.169  0.6319  0.0504 -0.5134
  708MOL0     N97617   3.894   2.015   9.151  0.1618 -0.0399  0.5234
  708MOL0     N97618   3.798   1.931   9.130  0.4714  0.0551 -0.2329
  708MOL0     C97619   3.048   1.676   9.461  0.4832  0.0969 -1.1117
  708MOL0     C97620   2.919   1.668   9.392 -0.2989  1.2362 -0.0785
  708MOL0     C97621   2.602   1.638   9.126  0.4792 -0.3694 -1.3130
  708MOL0     C97622   2.566   1.504   9.107 -0.2267 -0.3988 -0.7361
  708MOL0     C97623   2.435   1.463   9.071 -0.6875  0.5400  0.0081
  708MOL0     C97624   2.332   1.558   9.059 -0.4310  0.6107  0.2921
  708MOL0     O97625   2.206   1.514   9.044  0.3519  0.0248  0.3274
  708MOL0     C97626   2.182   1.379   9.013  0.4800  0.2907  0.0053
  708MOL0     C97627   2.030   1.380   8.979  0.0642  0.4167 -0.0492
  708MOL0     C97628   1.932   1.354   9.089 -0.5661  0.4517  0.3153
  708MOL0     C97629   1.793   1.336   9.036 -0.4092  0.7918 -0.4101
  708MOL0     C97630   1.728   1.457   8.987  0.3457  0.3829  0.1124
  708MOL0     C97631   1.675   1.570   8.974 -0.2317  0.6434 -0.1907
  708MOL0     C97632   2.358   1.695   9.081  0.0154  0.5826  0.1506
  708MOL0     C97633   2.490   1.731   9.111  0.9365  0.1256 -0.3586
  708MOL0     C97634   2.511   1.879   9.137  0.0871  0.4336 -0.4321
  708MOL0     H97635   2.941   1.959   9.213  0.5947  0.5197 -0.8072
  708MOL0     H97636   3.163   1.963   9.339  2.3183 -0.9544  1.8416
  708MOL0     H97637   3.325   1.974   9.486 -2.5969 -0.6192 -0.1266
  708MOL0     H97638   3.377   1.879   9.341 -0.2848  2.6865 -0.3412
  708MOL0     H97639   3.561   1.928   9.473 -0.0725  1.1524 -1.2189
  708MOL0     H97640   3.498   1.848   9.619  1.6747 -0.0282 -0.3741
  708MOL0     H97641   3.654   1.696   9.531 -0.6870 -1.4500  0.9329
  708MOL0     H97642   3.485   1.640   9.513 -2.5491  1.0446 -2.4444
  708MOL0     H97643   3.506   1.713   9.262 -0.5421  0.4986  0.4311
  708MOL0     H97644   3.676   1.756   9.310  0.2057 -0.8315  1.2619
  708MOL0     H97645   3.547   1.482   9.336 -1.0040  1.0940 -0.1379
  708MOL0     H97646   3.723   1.522   9.380  0.6041 -1.0338 -0.4412
  708MOL0     H97647   3.669   1.394   9.154  2.6368  1.2348 -1.1364
  708MOL0     H97648   3.563   1.531   9.114 -0.9215 -1.4255 -0.0976
  708MOL0     H97649   3.838   1.481   9.070 -1.1300 -1.6671  1.1010
  708MOL0     H97650   3.845   1.609   9.195  1.5275  1.9345 -2.1737
  708MOL0     H97651   3.785   1.674   8.921  3.0080 -0.0085  0.6454
  708MOL0     H97652   3.658   1.724   9.044  0.4964  1.4701  1.2369
  708MOL0     H97653   4.064   1.756   9.044  2.5278  2.3503 -0.2495
  708MOL0     H97654   4.136   2.112   9.193 -1.7541 -0.0073  0.2442
  708MOL0     H97655   4.173   2.066   9.026 -1.9612  1.2155  0.0452
  708MOL0     H97656   4.238   1.897   9.269  1.6935 -0.7363  1.5993
  708MOL0     H97657   4.300   1.867   9.113  2.9875 -0.2305  1.9572
  708MOL0     H97658   4.355   2.134   9.243 -0.6207  0.8706 -1.1903
  708MOL0     H97659   4.456   1.996   9.267 -2.3770 -0.2554  1.5867
  708MOL0     H97660   4.498   1.965   9.022 -1.6213 -1.2639 -0.1084
  708MOL0     H97661   4.387   2.096   8.987  0.4565 -0.0909 -0.6041
  708MOL0     H97662   4.749   2.340   9.069 -4.4748 -1.8919 -1.6661
  708MOL0     H97663   5.088   2.342   9.129  0.9565  1.2385  0.4191
  708MOL0     H97664   4.986   2.413   9.259 -1.5732 -0.1080  0.8862
  708MOL0     H97665   4.938   2.431   9.087  0.9623 -0.4779 -0.6350
  708MOL0     H97666   5.284   2.304   9.529 -1.1674 -1.1377 -0.4592
  708MOL0     H97667   5.524   2.284   9.579 -2.0603  2.7503 -0.3695
  708MOL0     H97668   5.768   2.060   9.261 -0.7545 -1.3281  1.8284
  708MOL0     H97669   5.773   2.245   9.253 -0.8016 -0.5890 -1.7231
  708MOL0     H97670   5.941   2.082   9.440  0.8600 -1.1073 -0.4210
  708MOL0     H97671   5.985   2.085   9.272 -1.4811 -0.0467 -0.5739
  708MOL0     H97672   6.001   2.330   9.453 -1.8602  1.7995 -1.1638
  708MOL0     H97673   5.952   2.344   9.286 -0.3249 -1.4754 -0.6205
  708MOL0     H97674   6.159   2.218   9.225  0.2125 -0.9833  0.3213
  708MOL0     H97675   6.212   2.209   9.390 -0.6153 -0.2874 -0.0522
  708MOL0     H97676   6.145   2.476   9.258  1.1317  1.6099  1.4051
  708MOL0     H97677   6.205   2.446   9.423  2.0885  0.3728  0.0418
  708MOL0     H97678   6.367   2.526   9.288  3.3104 -0.7471 -0.5930
  708MOL0     H97679   6.380   2.371   9.194  1.9895 -1.0217  0.9508
  708MOL0     H97680   6.441   2.261   9.416 -1.7194  0.6352 -0.3935
  708MOL0     H97681   6.448   2.411   9.488 -1.5934 -0.7837  0.4323
  708MOL0     H97682   6.610   2.447   9.238 -0.6983  0.7441 -0.7371
  708MOL0     H97683   6.654   2.294   9.324 -1.6852 -0.1614  1.0683
  708MOL0     H97684   5.568   2.077   9.208 -1.5323 -0.8516 -0.3445
  708MOL0     H97685   5.333   2.089   9.174 -0.1971 -1.2005  0.8011
  708MOL0     H97686   4.884   1.919   9.264  1.4164  0.4705  1.1727
  708MOL0     H97687   4.680   1.922   9.177 -1.1455  1.2164  2.5966
  708MOL0     H97688   3.080   1.604   9.536  2.3381  2.1895  0.2279
  708MOL0     H97689   2.841   1.598   9.423 -1.1130  3.1357  2.5717
  708MOL0     H97690   2.649   1.433   9.107 -0.6364 -0.8783 -1.5173
  708MOL0     H97691   2.435   1.360   9.037  4.1949  1.4040 -3.7251
  708MOL0     H97692   2.224   1.351   8.916 -0.9169 -2.2005  0.0510
  708MOL0     H97693   2.207   1.300   9.084 -0.8443  1.1748  1.5298
  708MOL0     H97694   2.010   1.314   8.894 -1.3783 -2.0636  2.0691
  708MOL0     H97695   2.002   1.470   8.925  0.1920 -0.1784 -1.1462
  708MOL0     H97696   1.967   1.262   9.137 -1.8933 -1.6976 -2.5583
  708MOL0     H97697   1.939   1.442   9.154  0.6730 -0.5347  1.5981
  708MOL0     H97698   1.735   1.294   9.119  1.2922 -0.9063 -0.0220
  708MOL0     H97699   1.793   1.258   8.959 -0.6056  0.8791 -0.5009
  708MOL0     H97700   1.643   1.673   8.974  0.3235  0.8173  0.1752
  708MOL0     H97701   2.286   1.777   9.077 -0.8670 -0.1462  0.7169
  708MOL0     H97702   2.506   1.891   9.246 -1.0471 -0.7506 -0.3323
  708MOL0     H97703   2.605   1.924   9.104 -0.7655  1.3532 -1.6804
  708MOL0     H97704   2.433   1.939   9.090 -1.2075  0.0078  1.0707
  709MOL0     O97705   7.828   8.095   7.910  0.5264 -0.4577 -0.0332
  709MOL0     C97706   7.733   8.156   7.959 -1.4188  0.6758  0.4896
  709MOL0     O97707   7.650   8.101   8.054  0.0645 -0.0589 -0.4391
  709MOL0     C97708   7.699   7.997   8.128  0.6467 -0.8993 -0.5317
  709MOL0     C97709   7.684   7.863   8.090 -0.1601 -1.3500  0.3592
  709MOL0     C97710   7.729   7.766   8.174 -0.6734  0.5853 -0.1770
  709MOL0     C97711   7.773   7.791   8.303  0.1723  0.0155 -1.1357
  709MOL0     O97712   7.803   7.685   8.386 -0.2591 -0.0065  1.0667
  709MOL0     C97713   7.726   7.576   8.394  0.3497  0.2198  0.7568
  709MOL0     C97714   7.603   7.612   8.481 -0.0154 -0.2512  0.2840
  709MOL0     C97715   7.535   7.490   8.544  0.7939 -0.5961  0.6580
  709MOL0     C97716   7.410   7.541   8.609  0.2053  0.1929  0.3226
  709MOL0     C97717   7.336   7.415   8.673 -0.4591 -0.2829  0.1113
  709MOL0     C97718   7.193   7.438   8.725 -0.2272  0.0878  0.8259
  709MOL0     C97719   7.108   7.317   8.757 -0.1797 -0.1882 -0.9088
  709MOL0     C97720   7.176   7.235   8.871  0.4130  0.0570  0.4274
  709MOL0     N97721   7.152   7.289   9.000  0.6993  0.9207 -0.4742
  709MOL0     C97722   7.048   7.257   9.083  1.0332 -0.0633 -0.2316
  709MOL0     C97723   7.070   7.319   9.199 -0.2235 -0.8505 -0.6088
  709MOL0     C97724   7.007   7.302   9.334 -0.0622  0.0702  0.8540
  709MOL0     C97725   7.049   7.173   9.411  1.2971 -1.0107 -0.8916
  709MOL0     C97726   6.942   7.152   9.522  0.5128 -0.3900  0.0342
  709MOL0     C97727   6.957   7.018   9.585  0.6377 -0.3478 -0.1598
  709MOL0     O97728   6.971   6.903   9.503  0.4564  0.4960 -0.0278
  709MOL0     C97729   6.852   6.854   9.471  0.1222 -0.1067  0.3009
  709MOL0     C97730   6.788   6.753   9.542  0.0622 -1.0682 -0.7315
  709MOL0     C97731   6.654   6.713   9.513  0.2086 -0.9751  0.1572
  709MOL0     C97732   6.586   6.622   9.618  0.4387  0.7529  0.2905
  709MOL0     C97733   6.595   6.758   9.392  0.2647 -0.3644  0.5791
  709MOL0     C97734   6.457   6.733   9.342  0.6092 -0.0541  0.4865
  709MOL0     O97735   6.364   6.724   9.437 -0.2061  0.0079 -0.6575
  709MOL0     C97736   6.228   6.713   9.406 -0.1078 -0.1719 -0.4757
  709MOL0     C97737   6.144   6.619   9.471 -0.0069 -0.2928 -0.7478
  709MOL0     C97738   6.021   6.585   9.415 -0.7096  0.1486 -0.3539
  709MOL0     C97739   5.971   6.647   9.301 -0.4763 -0.3686 -0.0593
  709MOL0     O97740   5.860   6.600   9.237  0.3965  0.5791  0.1907
  709MOL0     C97741   5.775   6.494   9.286  0.0813  0.5518  0.0884
  709MOL0     C97742   5.663   6.473   9.183  0.1614  0.6423 -0.2749
  709MOL0     C97743   5.552   6.381   9.245  0.3547 -0.2780  0.4626
  709MOL0     C97744   5.554   6.246   9.176 -0.3932 -0.2086  0.3333
  709MOL0     C97745   5.460   6.145   9.244  0.0406 -0.1167 -0.0683
  709MOL0     C97746   5.398   6.040   9.144  0.5509  0.8035  0.1288
  709MOL0     C97747   5.301   5.951   9.226  0.1145 -0.3786 -0.8552
  709MOL0     C97748   5.187   5.878   9.144  0.1437 -0.1090 -0.1949
  709MOL0    Cl97749   5.249   5.726   9.081  0.0217 -0.0550 -0.0792
  709MOL0     C97750   6.044   6.749   9.242  0.1521  0.0330 -0.2998
  709MOL0     C97751   6.166   6.790   9.299 -0.2725 -0.8769  0.4306
  709MOL0     O97752   6.442   6.717   9.227  0.6272  0.2640  0.3360
  709MOL0     C97753   6.675   6.839   9.303 -0.2883  0.5317  0.2515
  709MOL0     C97754   6.797   6.881   9.343 -0.1214  0.2184 -0.1002
  709MOL0     N97755   7.180   7.401   9.186 -0.5813 -0.0183  0.2519
  709MOL0     N97756   7.224   7.386   9.062  0.1390  0.0264 -0.9932
  709MOL0     C97757   7.782   7.922   8.344  0.3243 -0.1109 -0.1295
  709MOL0     C97758   7.747   8.027   8.256  0.6009  0.0729 -0.2930
  709MOL0     C97759   7.702   8.288   7.904 -0.3504  0.6355 -0.8673
  709MOL0     C97760   7.747   8.318   7.775 -0.7751  0.4161  0.9284
  709MOL0     C97761   7.737   8.440   7.718 -0.1972 -0.1092 -0.0495
  709MOL0     C97762   7.672   8.539   7.787 -0.4741 -0.6516  0.2717
  709MOL0     O97763   7.670   8.667   7.735  0.1060  0.2004 -0.3843
  709MOL0     C97764   7.614   8.782   7.798  0.1681  0.5318  0.0713
  709MOL0     C97765   7.660   8.914   7.729  0.3534  0.4776 -0.0075
  709MOL0     C97766   7.588   9.037   7.785  0.2309  0.1780 -0.6046
  709MOL0     C97767   7.453   9.066   7.705 -0.3894  0.0995  0.3474
  709MOL0     C97768   7.475   9.142   7.584 -0.0981 -0.3988 -0.7512
  709MOL0     C97769   7.509   9.214   7.489  0.5189  0.6087  0.4615
  709MOL0     C97770   7.625   8.515   7.912  0.4479 -0.0771 -0.4296
  709MOL0     C97771   7.636   8.397   7.971 -1.2104  0.6707  0.4392
  709MOL0     C97772   7.579   8.382   8.113 -1.1455 -0.6180 -0.1636
  709MOL0     H97773   7.651   7.846   7.988 -1.2594  1.8529  0.0607
  709MOL0     H97774   7.726   7.664   8.136 -1.3754 -0.7675  3.1109
  709MOL0     H97775   7.775   7.493   8.446  1.8341  0.7281  0.2013
  709MOL0     H97776   7.698   7.535   8.296  0.0925 -0.5760  1.1540
  709MOL0     H97777   7.643   7.674   8.563  1.5446  2.0395 -2.0641
  709MOL0     H97778   7.520   7.658   8.426 -1.0412 -0.7825  1.3425
  709MOL0     H97779   7.512   7.419   8.465 -1.1560  2.9705 -2.2999
  709MOL0     H97780   7.608   7.449   8.614  3.1155  3.4670  0.9413
  709MOL0     H97781   7.445   7.608   8.688 -1.0483 -1.0895  2.0600
  709MOL0     H97782   7.343   7.604   8.549 -0.7838 -1.5066 -0.4531
  709MOL0     H97783   7.389   7.378   8.761 -0.0243  3.5089  1.6351
  709MOL0     H97784   7.337   7.324   8.613  1.0366 -1.3571  1.6744
  709MOL0     H97785   7.217   7.496   8.814  2.0076  0.9979 -0.2990
  709MOL0     H97786   7.142   7.505   8.656  0.2205  1.5687  1.8858
  709MOL0     H97787   7.111   7.258   8.665 -0.6891 -0.4279 -0.7738
  709MOL0     H97788   7.009   7.351   8.788  0.5370  0.0585  1.2924
  709MOL0     H97789   7.140   7.132   8.861  2.4590 -0.7251  0.5489
  709MOL0     H97790   7.284   7.235   8.854  0.3928  3.5683 -0.2782
  709MOL0     H97791   6.971   7.182   9.067  0.6043  0.2270  0.4118
  709MOL0     H97792   6.899   7.312   9.322 -0.5882 -2.5919  2.5153
  709MOL0     H97793   7.034   7.390   9.394 -0.5937  3.0461 -2.8650
  709MOL0     H97794   7.038   7.091   9.339 -0.5306  1.0082 -3.0776
  709MOL0     H97795   7.147   7.186   9.456  1.0800  0.7013 -0.8561
  709MOL0     H97796   6.940   7.231   9.597  2.7305  0.0861 -0.3345
  709MOL0     H97797   6.842   7.159   9.479  0.2471 -1.7699  0.3507
  709MOL0     H97798   7.044   7.033   9.650  0.4779 -1.2236  0.2647
  709MOL0     H97799   6.874   7.004   9.654  1.8352 -1.7179  1.0791
  709MOL0     H97800   6.840   6.709   9.627 -1.3954 -2.8390 -0.6838
  709MOL0     H97801   6.628   6.640   9.717 -3.8330  1.7850  2.1702
  709MOL0     H97802   6.617   6.520   9.593 -1.2974  0.7102 -2.0589
  709MOL0     H97803   6.477   6.631   9.631  0.5367 -0.2167  2.0856
  709MOL0     H97804   6.172   6.558   9.556 -1.9550 -0.2113 -0.0007
  709MOL0     H97805   5.974   6.505   9.471 -2.0833  2.2614  1.6956
  709MOL0     H97806   5.832   6.403   9.302 -0.8000  0.1269  0.9538
  709MOL0     H97807   5.735   6.523   9.383 -0.3560  1.8287 -0.4418
  709MOL0     H97808   5.612   6.563   9.147  2.6592  1.7835 -1.1289
  709MOL0     H97809   5.709   6.425   9.097  1.4135 -0.8822  1.1904
  709MOL0     H97810   5.452   6.426   9.246  1.0977  1.5647 -1.0952
  709MOL0     H97811   5.568   6.357   9.350  0.7892 -2.5045 -0.0405
  709MOL0     H97812   5.658   6.215   9.176  1.1359  3.9467  3.9088
  709MOL0     H97813   5.517   6.268   9.075 -0.2449 -0.3992  0.2362
  709MOL0     H97814   5.512   6.097   9.327 -0.0817 -2.4838 -1.2854
  709MOL0     H97815   5.380   6.206   9.286 -0.9599 -0.8130 -0.9088
  709MOL0     H97816   5.474   5.972   9.103  1.3753  1.6890  0.1342
  709MOL0     H97817   5.344   6.087   9.062  0.7594  1.5241  0.4035
  709MOL0     H97818   5.242   6.016   9.292  1.0310 -0.3340 -0.0537
  709MOL0     H97819   5.353   5.884   9.296 -3.0686 -0.1585  1.9879
  709MOL0     H97820   5.142   5.948   9.073  0.3816  0.2577  0.0081
  709MOL0     H97821   5.100   5.863   9.208 -0.0568  0.1326 -0.4094
  709MOL0     H97822   5.987   6.780   9.155 -1.1180 -1.0130  0.1164
  709MOL0     H97823   6.222   6.864   9.244 -2.1655  1.9444  2.0436
  709MOL0     H97824   6.638   6.860   9.203  1.7645 -1.5395 -1.0351
  709MOL0     H97825   6.861   6.943   9.281  2.2211 -0.8829  1.0579
  709MOL0     H97826   7.819   7.938   8.445  0.1326 -3.7424  0.6582
  709MOL0     H97827   7.751   8.129   8.291  0.0863 -0.3485  1.0539
  709MOL0     H97828   7.792   8.245   7.708 -0.2214  0.4910  1.2056
  709MOL0     H97829   7.780   8.445   7.619  0.9548  1.2954  0.4790
  709MOL0     H97830   7.507   8.759   7.799  0.4502 -1.3627 -2.3035
  709MOL0     H97831   7.644   8.785   7.903  0.1901 -2.2093  0.2082
  709MOL0     H97832   7.626   8.912   7.625  0.5149 -2.2724 -0.0710
  709MOL0     H97833   7.770   8.917   7.729  0.3880  1.0999 -1.9113
  709MOL0     H97834   7.576   9.024   7.893  2.4016  2.3684 -0.0042
  709MOL0     H97835   7.652   9.125   7.774 -0.8253  0.9377 -0.9318
  709MOL0     H97836   7.381   9.128   7.760  0.6502  1.4931  0.1878
  709MOL0     H97837   7.399   8.973   7.688  0.4679 -0.3280 -0.0721
  709MOL0     H97838   7.526   9.263   7.396 -1.3318 -3.5885 -2.4014
  709MOL0     H97839   7.565   8.598   7.948 -0.9614  0.3531 -3.4512
  709MOL0     H97840   7.664   8.378   8.181 -1.2326 -0.8354 -0.0672
  709MOL0     H97841   7.522   8.470   8.145  0.9717  1.4040 -1.6463
  709MOL0     H97842   7.526   8.290   8.136  2.1800 -2.2677  1.6420
  710MOL0     O97843   4.408   4.494   2.154  0.0478 -0.3661  0.2773
  710MOL0     C97844   4.350   4.389   2.134  0.2396  0.0232  0.4429
  710MOL0     O97845   4.403   4.292   2.063 -0.2148  0.5854 -0.7011
  710MOL0     C97846   4.518   4.308   1.997 -0.7006 -0.0870  0.4663
  710MOL0     C97847   4.510   4.297   1.856 -0.0952  0.2513  0.1693
  710MOL0     C97848   4.630   4.318   1.775 -0.8638  1.0516 -0.9624
  710MOL0     C97849   4.749   4.345   1.850 -0.0230 -0.2196  0.2612
  710MOL0     O97850   4.871   4.361   1.790  0.1326 -0.1088  0.0191
  710MOL0     C97851   4.876   4.389   1.647  0.3386  0.2213 -0.2391
  710MOL0     C97852   5.017   4.446   1.620  0.3668  0.0692 -0.4826
  710MOL0     C97853   5.027   4.515   1.487  0.0634  0.5683  0.3960
  710MOL0     C97854   5.073   4.426   1.379 -0.0287 -0.3375  0.0924
  710MOL0     C97855   5.040   4.498   1.241  0.2350 -0.1452 -0.4136
  710MOL0     C97856   4.898   4.463   1.181 -0.0845 -1.1449  0.1660
  710MOL0     C97857   4.907   4.448   1.028  0.2001  0.3517  0.3697
  710MOL0     C97858   4.971   4.563   0.940 -0.4271  0.7428 -0.3119
  710MOL0     N97859   4.874   4.686   0.947  0.3781  0.7931 -0.2750
  710MOL0     C97860   4.794   4.724   0.845  0.1559 -0.6068  0.1315
  710MOL0     C97861   4.745   4.841   0.882 -0.2552  0.3687  0.3060
  710MOL0     C97862   4.654   4.915   0.790 -0.6531 -0.4865  0.8109
  710MOL0     C97863   4.727   4.974   0.668 -0.0789 -0.6344  0.1496
  710MOL0     C97864   4.837   5.075   0.697  0.0635  0.7144 -0.4776
  710MOL0     C97865   4.909   5.129   0.575 -0.0870  0.5006  0.2520
  710MOL0     O97866   4.807   5.179   0.475  0.4629  0.8516 -0.0448
  710MOL0     C97867   4.862   5.208   0.353  0.8775 -0.1834  0.3996
  710MOL0     C97868   4.783   5.198   0.242  1.5848  0.2114 -0.0357
  710MOL0     C97869   4.828   5.231   0.113 -0.0724 -0.1254  0.4459
  710MOL0     C97870   4.743   5.218  -0.012  0.8461  0.9671 -0.6836
  710MOL0     C97871   4.959   5.281   0.106  0.9700  0.2359  0.4647
  710MOL0     C97872   5.022   5.319  -0.016  0.2306  0.4736 -0.2234
  710MOL0     O97873   5.063   5.443  -0.026 -0.3548  0.3944 -0.1993
  710MOL0     C97874   5.123   5.483  -0.143  0.3732 -0.5250 -0.3288
  710MOL0     C97875   5.251   5.544  -0.125  0.5753 -0.9661 -0.9534
  710MOL0     C97876   5.320   5.579  -0.240 -1.0506  0.4514 -0.4667
  710MOL0     C97877   5.262   5.561  -0.366 -0.0574 -0.1619  0.0407
  710MOL0     O97878   5.340   5.599  -0.471 -0.1864 -0.0941  0.5490
  710MOL0     C97879   5.267   5.640  -0.587  0.4122 -0.9318  0.4271
  710MOL0     C97880   5.342   5.725  -0.690 -0.3316 -0.8738  0.0815
  710MOL0     C97881   5.254   5.755  -0.814  0.1822  0.2746  0.4534
  710MOL0     C97882   5.330   5.825  -0.927 -0.2706  0.4074 -0.2746
  710MOL0     C97883   5.231   5.902  -1.015  1.2702 -0.2104 -0.4684
  710MOL0     C97884   5.264   5.930  -1.169 -0.5484 -0.1665  0.4371
  710MOL0     C97885   5.383   6.021  -1.204 -1.3627  0.2429 -0.2006
  710MOL0     C97886   5.391   6.024  -1.364  0.1585 -0.6781  0.2683
  710MOL0    Cl97887   5.231   6.079  -1.432 -0.0700  0.6036 -0.0876
  710MOL0     C97888   5.128   5.503  -0.392 -1.0803 -0.7265 -0.1328
  710MOL0     C97889   5.063   5.460  -0.270 -0.3385  0.1724  0.0127
  710MOL0     O97890   5.036   5.230  -0.099  0.6474 -0.2725 -0.2142
  710MOL0     C97891   5.044   5.290   0.213 -0.1127 -0.8350 -0.3322
  710MOL0     C97892   4.991   5.262   0.343 -0.5463 -0.4456 -0.8676
  710MOL0     N97893   4.798   4.870   1.009 -0.0875  0.3183 -0.2085
  710MOL0     N97894   4.870   4.773   1.051  0.4371 -1.1886  0.2491
  710MOL0     C97895   4.756   4.367   1.987  0.3250  0.0985 -0.7420
  710MOL0     C97896   4.636   4.349   2.056 -0.3741  0.3346 -0.1618
  710MOL0     C97897   4.230   4.363   2.208 -1.0369 -0.8567  0.4815
  710MOL0     C97898   4.188   4.229   2.222  0.3129  0.3387 -0.3100
  710MOL0     C97899   4.082   4.199   2.308  0.0172  0.1034  0.2367
  710MOL0     C97900   3.997   4.293   2.368 -0.7448 -0.0136 -0.3009
  710MOL0     O97901   3.886   4.264   2.446  0.3215  0.2801  0.5803
  710MOL0     C97902   3.793   4.367   2.461 -0.3469 -0.3189  0.3705
  710MOL0     C97903   3.671   4.325   2.546 -1.1754  0.4487  0.0694
  710MOL0     C97904   3.589   4.207   2.498 -0.3410  0.3795  0.5421
  710MOL0     C97905   3.462   4.181   2.580  1.1241  0.2043 -0.0971
  710MOL0     C97906   3.359   4.279   2.549 -0.2862  0.7045 -0.1952
  710MOL0     C97907   3.268   4.342   2.513 -0.2347  0.2234  0.5918
  710MOL0     C97908   4.034   4.427   2.338  0.4513 -0.4159 -0.2663
  710MOL0     C97909   4.146   4.465   2.262  0.5956  0.2205  0.2615
  710MOL0     C97910   4.149   4.609   2.211  0.9472  0.2653 -0.5173
  710MOL0     H97911   4.415   4.281   1.807 -0.8950  0.6354  1.5278
  710MOL0     H97912   4.622   4.302   1.667 -3.3450  0.7425 -0.7868
  710MOL0     H97913   4.798   4.458   1.615  0.0589  0.4422  0.8985
  710MOL0     H97914   4.870   4.298   1.586 -0.7135  0.8349 -1.0925
  710MOL0     H97915   5.041   4.524   1.694  4.4042 -1.8625  0.5365
  710MOL0     H97916   5.087   4.363   1.634  1.5573  0.6225 -2.6835
  710MOL0     H97917   4.927   4.550   1.459 -0.6225 -2.9801 -2.4504
  710MOL0     H97918   5.104   4.592   1.492  1.6365 -0.9161  0.2222
  710MOL0     H97919   5.180   4.408   1.387 -0.4439 -2.6227  1.2000
  710MOL0     H97920   5.020   4.330   1.382 -2.3113  0.8524  0.8412
  710MOL0     H97921   5.127   4.476   1.179  0.7229  3.5919 -1.2882
  710MOL0     H97922   5.040   4.607   1.249 -2.9317 -0.0815  0.1524
  710MOL0     H97923   4.853   4.375   1.227  1.0358 -1.0092  1.6131
  710MOL0     H97924   4.833   4.550   1.196  1.0916  0.5922 -3.6280
  710MOL0     H97925   4.810   4.429   0.981  1.1751 -4.3891 -0.2185
  710MOL0     H97926   4.957   4.354   1.006 -0.3522 -0.0489  0.7715
  710MOL0     H97927   5.068   4.582   0.988  1.2586  0.8706 -3.4532
  710MOL0     H97928   4.985   4.531   0.836 -0.4186  0.4333 -0.2156
  710MOL0     H97929   4.762   4.664   0.760 -0.5323  2.5349 -1.9664
  710MOL0     H97930   4.605   4.997   0.842  0.1704  0.9171 -0.5335
  710MOL0     H97931   4.568   4.854   0.759 -0.6846 -1.1855  2.1710
  710MOL0     H97932   4.775   4.906   0.597  0.0755  0.2657 -0.6209
  710MOL0     H97933   4.656   5.034   0.610  0.9777 -0.8081 -1.3800
  710MOL0     H97934   4.800   5.158   0.757 -0.6862  1.2450 -1.6242
  710MOL0     H97935   4.915   5.024   0.754  0.9007  1.1654 -1.2014
  710MOL0     H97936   4.969   5.214   0.606 -1.0191  1.5013 -0.6097
  710MOL0     H97937   4.977   5.050   0.541  0.0127  0.0009  1.5729
  710MOL0     H97938   4.681   5.165   0.255  1.1133  0.4923 -2.5318
  710MOL0     H97939   4.755   5.114  -0.044 -0.7474 -0.9772  4.0911
  710MOL0     H97940   4.769   5.291  -0.088  2.8732  2.2049  1.0809
  710MOL0     H97941   4.640   5.244   0.015  0.7831  0.4326 -0.3810
  710MOL0     H97942   5.284   5.562  -0.023 -0.7519  1.8123 -0.8935
  710MOL0     H97943   5.420   5.619  -0.226 -1.3154  1.0453 -0.2274
  710MOL0     H97944   5.230   5.552  -0.641  0.4983  0.0536 -1.3004
  710MOL0     H97945   5.182   5.699  -0.553 -0.2325 -3.1933  3.1032
  710MOL0     H97946   5.369   5.824  -0.653 -3.7644 -0.0533  0.7691
  710MOL0     H97947   5.421   5.659  -0.727 -0.3103  0.3570 -2.2642
  710MOL0     H97948   5.178   5.823  -0.773 -0.4830 -0.2727  0.1561
  710MOL0     H97949   5.193   5.668  -0.841 -0.3744 -0.2136  3.0487
  710MOL0     H97950   5.380   5.738  -0.971 -2.1609 -1.4831  1.0741
  710MOL0     H97951   5.401   5.883  -0.867 -1.3794  2.4212 -0.8451
  710MOL0     H97952   5.135   5.851  -1.028  1.5240 -1.0412  0.7504
  710MOL0     H97953   5.219   5.999  -0.966  0.4658  1.0830 -3.0262
  710MOL0     H97954   5.179   5.983  -1.213  0.9395 -0.1033 -2.6865
  710MOL0     H97955   5.273   5.833  -1.220 -0.0620  0.4899 -0.7744
  710MOL0     H97956   5.477   5.984  -1.161 -1.5728 -0.0725 -0.0101
  710MOL0     H97957   5.358   6.115  -1.153  1.5660 -0.2148  2.4086
  710MOL0     H97958   5.414   5.924  -1.400  2.3766 -0.8346  1.9193
  710MOL0     H97959   5.462   6.095  -1.409 -1.5153 -2.1167 -5.4282
  710MOL0     H97960   5.096   5.488  -0.494 -0.2429 -0.6101 -0.4181
  710MOL0     H97961   4.964   5.415  -0.275  0.1719 -1.3481  2.1320
  710MOL0     H97962   5.147   5.318   0.194  1.0366 -4.7081 -0.7503
  710MOL0     H97963   5.052   5.273   0.431  0.4015 -1.6787 -1.3369
  710MOL0     H97964   4.842   4.388   2.050 -0.7521  1.5120  0.3539
  710MOL0     H97965   4.639   4.373   2.162  2.0103  1.7928 -0.4987
  710MOL0     H97966   4.242   4.145   2.180  0.0027  0.7613 -1.6154
  710MOL0     H97967   4.058   4.094   2.325 -1.2789  0.2937 -0.3336
  710MOL0     H97968   3.839   4.453   2.512  0.5816 -0.3980 -0.3147
  710MOL0     H97969   3.759   4.420   2.372  0.2863  0.4810  0.5930
  710MOL0     H97970   3.606   4.413   2.554 -0.6089  0.7709  1.2200
  710MOL0     H97971   3.721   4.302   2.641  1.0106  1.0624 -0.8663
  710MOL0     H97972   3.559   4.226   2.394  1.2429 -0.9751 -0.2290
  710MOL0     H97973   3.660   4.124   2.494 -1.6714 -0.7525 -1.2871
  710MOL0     H97974   3.497   4.174   2.684  1.7798 -0.4827 -0.3491
  710MOL0     H97975   3.412   4.085   2.563 -2.4973  1.3503  2.8179
  710MOL0     H97976   3.186   4.401   2.478  0.8977  1.9703  0.7586
  710MOL0     H97977   3.967   4.509   2.358  0.2373  0.3291 -3.4858
  710MOL0     H97978   4.148   4.604   2.102  2.7103 -4.9639 -0.5517
  710MOL0     H97979   4.069   4.677   2.241 -0.5476 -2.1140  1.2799
  710MOL0     H97980   4.244   4.651   2.245  0.4524  3.3779 -2.5337
  711MOL0     O97981   5.387  11.201   3.808  0.5901  0.2478  0.5568
  711MOL0     C97982   5.421  11.097   3.757 -0.0053 -0.2547  1.3321
  711MOL0     O97983   5.511  11.009   3.802  0.2243 -0.1667 -0.0597
  711MOL0     C97984   5.559  11.036   3.927 -0.1703 -0.8966 -0.0344
  711MOL0     C97985   5.480  11.037   4.043  0.6808  0.3406  0.7562
  711MOL0     C97986   5.533  11.062   4.174 -0.0901  0.2355 -0.1448
  711MOL0     C97987   5.671  11.093   4.185 -0.6234 -0.3044  0.3542
  711MOL0     O97988   5.712  11.138   4.310  0.2708 -0.4954  0.6813
  711MOL0     C97989   5.843  11.103   4.352 -0.0941  0.2952 -0.0998
  711MOL0     C97990   5.885  11.184   4.477 -0.7864  0.0788 -0.0808
  711MOL0     C97991   6.025  11.153   4.546 -0.1542  0.8308  0.2092
  711MOL0     C97992   6.053  11.010   4.585  0.1999  0.7514 -0.1136
  711MOL0     C97993   6.178  11.012   4.676  0.2361  0.5286 -0.1714
  711MOL0     C97994   6.311  11.006   4.597 -0.0143  0.0121  0.5906
  711MOL0     C97995   6.414  10.988   4.712 -0.1792  0.3975 -0.5735
  711MOL0     C97996   6.556  11.010   4.652  0.9046  0.8662  0.6511
  711MOL0     N97997   6.585  10.900   4.565 -0.2209  0.8267 -0.5162
  711MOL0     C97998   6.593  10.904   4.431 -1.0754  0.7501 -0.0365
  711MOL0     C97999   6.639  10.779   4.404 -0.2118  0.2046 -0.8486
  711MOL0     C98000   6.680  10.729   4.273  0.2646  0.1641  0.3865
  711MOL0     C98001   6.830  10.756   4.237 -0.3682 -0.2038  0.4425
  711MOL0     C98002   6.940  10.687   4.327 -0.3554  0.0379 -1.2341
  711MOL0     C98003   6.971  10.764   4.463 -0.0922  0.2616  0.5293
  711MOL0     O98004   7.051  10.883   4.430 -0.2571 -0.2578  0.0652
  711MOL0     C98005   7.188  10.874   4.433 -0.6460  0.6357 -0.0329
  711MOL0     C98006   7.259  10.968   4.366  0.4378 -0.9998 -1.0529
  711MOL0     C98007   7.399  10.974   4.372 -1.3760  0.0608  0.4411
  711MOL0     C98008   7.463  11.077   4.287 -0.5182  0.6844  0.2623
  711MOL0     C98009   7.468  10.875   4.451 -0.3025  0.0047  0.4186
  711MOL0     C98010   7.625  10.873   4.467  0.1853  0.1515 -0.0329
  711MOL0     O98011   7.665  10.800   4.568 -0.3461  0.0631 -0.3805
  711MOL0     C98012   7.803  10.761   4.593 -0.2624 -1.9889  0.8920
  711MOL0     C98013   7.916  10.833   4.541  0.6771  0.2386  0.3430
  711MOL0     C98014   8.047  10.793   4.572 -0.4377 -0.1265  0.5349
  711MOL0     C98015   8.071  10.698   4.668 -0.2581  0.2853 -0.2130
  711MOL0     O98016   8.208  10.687   4.703  0.0500  0.7319  0.0088
  711MOL0     C98017   8.254  10.616   4.815  0.1105 -0.3126 -0.3556
  711MOL0     C98018   8.403  10.594   4.783  0.4564  0.3821  1.1185
  711MOL0     C98019   8.486  10.720   4.770  0.3064  0.3526  0.3861
  711MOL0     C98020   8.637  10.704   4.797  0.0179  0.1717 -0.8684
  711MOL0     C98021   8.706  10.605   4.705 -0.0687  0.2695 -0.3726
  711MOL0     C98022   8.850  10.619   4.724 -0.5101  0.2732  0.0301
  711MOL0     C98023   8.930  10.521   4.632 -0.1224 -0.5498  0.3037
  711MOL0     C98024   9.085  10.546   4.653 -0.2913 -0.2460  0.0523
  711MOL0    Cl98025   9.190  10.416   4.567  0.7222 -0.2315  0.2480
  711MOL0     C98026   7.962  10.628   4.723  0.8109 -0.0372 -0.5642
  711MOL0     C98027   7.835  10.660   4.682 -0.0064 -0.6838  0.0294
  711MOL0     O98028   7.693  10.903   4.371  0.2991 -0.0175 -0.1864
  711MOL0     C98029   7.388  10.774   4.515 -0.7856 -0.9714 -0.2279
  711MOL0     C98030   7.251  10.785   4.514  0.8369  0.0437 -0.3503
  711MOL0     N98031   6.643  10.698   4.511 -0.2257  0.3874  0.7525
  711MOL0     N98032   6.603  10.775   4.609 -0.0350  0.3160 -0.3505
  711MOL0     C98033   5.752  11.077   4.067  0.5046  0.0988 -0.2265
  711MOL0     C98034   5.696  11.053   3.951 -0.2804 -0.4231 -0.2447
  711MOL0     C98035   5.349  11.061   3.633  0.9394 -0.3020  0.3924
  711MOL0     C98036   5.259  11.161   3.587  0.4469 -0.1959  0.8453
  711MOL0     C98037   5.188  11.128   3.467 -0.1995  0.1508  0.2246
  711MOL0     C98038   5.192  11.013   3.395 -0.1426  0.3854  0.2236
  711MOL0     O98039   5.133  11.010   3.269 -0.4748  0.9611 -0.2124
  711MOL0     C98040   5.157  10.893   3.178  0.3033 -0.2626  0.2659
  711MOL0     C98041   5.098  10.943   3.053  0.3540 -0.8930  0.8949
  711MOL0     C98042   5.102  10.842   2.936 -0.4081  0.5408 -0.5675
  711MOL0     C98043   5.069  10.896   2.796 -0.3391  0.8474 -0.9111
  711MOL0     C98044   5.154  11.008   2.756  0.0770 -0.5107 -0.8025
  711MOL0     C98045   5.197  11.121   2.733  0.2283  0.3129  0.4318
  711MOL0     C98046   5.283  10.921   3.446 -0.3971 -0.8026  0.2301
  711MOL0     C98047   5.349  10.939   3.566  0.5198  0.0875  0.3474
  711MOL0     C98048   5.413  10.822   3.635 -0.8083  0.0717 -0.5066
  711MOL0     H98049   5.373  11.032   4.023  1.1128 -0.9354 -1.6096
  711MOL0     H98050   5.480  11.078   4.268 -0.3576  2.1349 -0.5834
  711MOL0     H98051   5.925  11.119   4.282  0.1065 -1.3733 -0.2862
  711MOL0     H98052   5.843  11.000   4.389 -2.9631  0.0365 -0.6199
  711MOL0     H98053   5.873  11.289   4.450 -0.5850  0.5699  1.6358
  711MOL0     H98054   5.806  11.163   4.549 -0.6958 -0.1855 -0.0569
  711MOL0     H98055   6.107  11.187   4.483 -0.2168 -2.1061 -1.6459
  711MOL0     H98056   6.042  11.200   4.643 -0.0191 -0.0957  0.6397
  711MOL0     H98057   5.964  10.966   4.631 -0.1134 -1.0309 -2.2419
  711MOL0     H98058   6.066  10.944   4.499  0.1388 -1.7129  1.6710
  711MOL0     H98059   6.179  10.922   4.738 -0.6294  0.5665 -0.0953
  711MOL0     H98060   6.185  11.088   4.754  2.5235 -0.9721  1.2099
  711MOL0     H98061   6.299  10.923   4.526 -1.5780  0.3970  0.3654
  711MOL0     H98062   6.331  11.098   4.541  3.1131 -0.8034  0.1706
  711MOL0     H98063   6.398  10.895   4.767  2.1316 -0.5500 -1.3906
  711MOL0     H98064   6.395  11.070   4.782  0.9503  2.2965 -2.3767
  711MOL0     H98065   6.561  11.096   4.584 -0.7526  1.6875  1.4884
  711MOL0     H98066   6.626  11.019   4.735  5.0065 -4.6345 -1.6068
  711MOL0     H98067   6.564  10.988   4.369  0.4454  1.4465  0.1517
  711MOL0     H98068   6.621  10.780   4.196  3.7708  3.0432 -0.6420
  711MOL0     H98069   6.650  10.624   4.262 -1.2018  0.4329  1.4388
  711MOL0     H98070   6.840  10.715   4.136 -0.8504  0.2993  0.1820
  711MOL0     H98071   6.847  10.863   4.220  2.1169 -0.1268  2.6648
  711MOL0     H98072   6.892  10.595   4.363 -1.9725  2.2706  2.9160
  711MOL0     H98073   7.035  10.666   4.277 -0.6249 -0.3122 -1.6026
  711MOL0     H98074   6.884  10.807   4.512 -0.5019 -0.9922  0.9479
  711MOL0     H98075   7.014  10.695   4.536 -1.5334  1.6164  2.7504
  711MOL0     H98076   7.201  11.046   4.318  1.7870  0.9712  0.3861
  711MOL0     H98077   7.526  11.030   4.212 -0.3721  1.1511  0.0895
  711MOL0     H98078   7.522  11.144   4.350  0.1420 -0.6586  1.1265
  711MOL0     H98079   7.380  11.133   4.242 -2.0692 -3.6961 -3.0561
  711MOL0     H98080   7.902  10.921   4.480  2.6765  1.0014  0.8952
  711MOL0     H98081   8.142  10.839   4.546  0.5411 -2.0716  0.4981
  711MOL0     H98082   8.236  10.672   4.907  0.9090 -1.4680  0.5338
  711MOL0     H98083   8.210  10.516   4.823 -2.2062  0.3277 -3.3830
  711MOL0     H98084   8.440  10.527   4.861 -2.8001 -0.0924  2.4428
  711MOL0     H98085   8.411  10.535   4.690  2.7085  1.6486  0.4354
  711MOL0     H98086   8.442  10.790   4.843  1.1363  0.6013  0.6531
  711MOL0     H98087   8.465  10.766   4.673  0.8751  3.8162  1.7344
  711MOL0     H98088   8.649  10.671   4.900 -1.8319 -1.9359 -1.2599
  711MOL0     H98089   8.679  10.805   4.796  0.1864  0.2005  1.8029
  711MOL0     H98090   8.678  10.502   4.728  1.6550 -0.4262 -1.2598
  711MOL0     H98091   8.701  10.618   4.597  2.9829 -1.7212 -0.8621
  711MOL0     H98092   8.867  10.606   4.831  1.9444  2.1043 -0.0632
  711MOL0     H98093   8.880  10.721   4.699 -1.7757  0.5338 -0.4953
  711MOL0     H98094   8.914  10.532   4.525 -1.8315 -2.2695  0.3224
  711MOL0     H98095   8.905  10.416   4.653  1.0602 -1.0613 -0.6837
  711MOL0     H98096   9.102  10.539   4.761  1.6156 -1.5320 -0.2864
  711MOL0     H98097   9.108  10.647   4.616 -0.9235  0.1458  0.6961
  711MOL0     H98098   7.984  10.550   4.795  2.5402  1.7392  0.9713
  711MOL0     H98099   7.756  10.603   4.730  0.5785 -1.8152 -0.2994
  711MOL0     H98100   7.445  10.695   4.565  1.3785 -2.0327 -3.9325
  711MOL0     H98101   7.202  10.719   4.585 -1.0394  1.4075 -0.3299
  711MOL0     H98102   5.860  11.079   4.065  0.6519 -0.7700  2.3531
  711MOL0     H98103   5.748  11.022   3.861 -1.5206  1.6474 -1.7630
  711MOL0     H98104   5.255  11.260   3.633 -1.3534 -1.1942  3.0009
  711MOL0     H98105   5.124  11.208   3.431 -0.0316  0.8856  1.4643
  711MOL0     H98106   5.255  10.845   3.170  0.1716 -1.1310  2.8756
  711MOL0     H98107   5.092  10.810   3.210  0.2146 -0.5733 -0.6778
  711MOL0     H98108   5.145  11.039   3.032  2.6068 -1.6537  2.1216
  711MOL0     H98109   4.990  10.957   3.066 -0.0336 -2.0164 -0.7678
  711MOL0     H98110   5.201  10.799   2.919  0.8361  2.9314  0.3044
  711MOL0     H98111   5.028  10.769   2.972  3.1117 -2.8350  0.4628
  711MOL0     H98112   4.963  10.921   2.790 -0.6468 -0.5829 -2.0961
  711MOL0     H98113   5.085  10.829   2.711  0.1270 -1.5024  0.9090
  711MOL0     H98114   5.220  11.226   2.725  1.3140 -0.0446 -3.8057
  711MOL0     H98115   5.310  10.828   3.397  0.5277 -0.3626 -0.1309
  711MOL0     H98116   5.523  10.827   3.635 -0.8434  0.9880 -0.5927
  711MOL0     H98117   5.380  10.819   3.740 -0.1789 -1.7249 -0.3328
  711MOL0     H98118   5.383  10.730   3.586  0.6761  0.1162 -1.5648
  712MOL0     O98119   8.645   5.166   3.412 -0.1529 -0.1934  0.0947
  712MOL0     C98120   8.741   5.106   3.458  0.2310  0.7335 -0.1824
  712MOL0     O98121   8.857   5.089   3.389  0.1677 -0.5696  0.2770
  712MOL0     C98122   8.874   5.141   3.264 -0.6032  0.7710  0.9726
  712MOL0     C98123   8.849   5.059   3.159  0.1210 -0.3450  0.1117
  712MOL0     C98124   8.899   5.100   3.029  0.3045  0.4393 -0.7578
  712MOL0     C98125   8.932   5.225   2.997 -0.1328  0.0347 -0.6619
  712MOL0     O98126   8.965   5.244   2.874  0.3446  0.0261  0.0854
  712MOL0     C98127   8.995   5.382   2.836  0.8537  0.1862 -0.1201
  712MOL0     C98128   9.011   5.375   2.685 -0.4836  1.1324 -0.0697
  712MOL0     C98129   9.035   5.523   2.635  0.9291 -0.2060 -0.1628
  712MOL0     C98130   9.045   5.530   2.482 -0.1930 -0.1821  0.3674
  712MOL0     C98131   9.092   5.666   2.427  0.3102  0.1663  0.3867
  712MOL0     C98132   9.009   5.796   2.457  0.6752  0.6022  0.2344
  712MOL0     C98133   8.863   5.766   2.429 -0.2385 -0.7188  0.2352
  712MOL0     C98134   8.782   5.896   2.400 -0.3163  0.1600  0.2478
  712MOL0     N98135   8.647   5.866   2.347  0.3595  1.1149 -0.1541
  712MOL0     C98136   8.531   5.871   2.427 -0.6788  0.4525 -0.0113
  712MOL0     C98137   8.431   5.834   2.343  0.5311  0.7376 -0.5165
  712MOL0     C98138   8.285   5.815   2.380 -0.9109 -0.2790 -0.6299
  712MOL0     C98139   8.267   5.751   2.518  0.3131 -0.0858 -0.0460
  712MOL0     C98140   8.127   5.732   2.557  0.1060  0.2418  0.0774
  712MOL0     C98141   8.053   5.617   2.487 -0.2598 -0.3757  0.4035
  712MOL0     O98142   8.123   5.492   2.503  0.4237  0.6842  0.2342
  712MOL0     C98143   8.078   5.397   2.414 -0.0733 -0.3815  0.0846
  712MOL0     C98144   8.168   5.289   2.414  1.1189  0.8110  0.4994
  712MOL0     C98145   8.146   5.173   2.340  0.3587 -0.1938 -0.4281
  712MOL0     C98146   8.261   5.069   2.337 -0.3073  0.3529 -0.7273
  712MOL0     C98147   8.031   5.156   2.255 -0.6777 -0.8213  0.2547
  712MOL0     C98148   7.984   5.039   2.184 -0.2402 -1.1898  0.9682
  712MOL0     O98149   8.072   4.953   2.156 -0.8229  0.3813 -0.0169
  712MOL0     C98150   8.033   4.847   2.074  0.6085 -0.2666 -1.0366
  712MOL0     C98151   8.059   4.853   1.936  0.0380  0.1806  0.1363
  712MOL0     C98152   8.012   4.756   1.847  0.7722  0.4761 -0.9081
  712MOL0     C98153   7.922   4.653   1.897  0.2367  0.2291 -0.6771
  712MOL0     O98154   7.866   4.566   1.802  0.3203 -0.1694 -0.0820
  712MOL0     C98155   7.761   4.486   1.843 -0.4149  0.2597 -0.1146
  712MOL0     C98156   7.804   4.352   1.909 -0.2984 -0.1391  0.4578
  712MOL0     C98157   7.833   4.251   1.796  0.1824  0.2537 -0.5248
  712MOL0     C98158   7.849   4.106   1.837 -0.2953 -0.7614  0.1755
  712MOL0     C98159   7.931   4.028   1.728 -0.2435 -0.1718  0.4216
  712MOL0     C98160   7.832   4.023   1.598 -0.2048  0.3860 -0.9391
  712MOL0     C98161   7.909   3.968   1.482 -0.4839 -0.1318 -0.6926
  712MOL0     C98162   7.810   3.912   1.380 -1.3633  0.2157  0.5437
  712MOL0    Cl98163   7.700   4.029   1.305  0.1936 -0.6646 -0.6210
  712MOL0     C98164   7.889   4.661   2.039  0.2728 -0.3040  0.5486
  712MOL0     C98165   7.946   4.751   2.121 -0.7534  0.2476  0.1899
  712MOL0     O98166   7.870   5.039   2.132  0.3344  0.1747 -0.4191
  712MOL0     C98167   7.950   5.269   2.256  0.0800 -0.4710 -0.3123
  712MOL0     C98168   7.963   5.391   2.337  0.1913  1.0726  0.6672
  712MOL0     N98169   8.482   5.793   2.220  0.2862 -0.2196 -0.5498
  712MOL0     N98170   8.612   5.816   2.226 -0.3908 -0.3665  0.2828
  712MOL0     C98171   8.947   5.314   3.107  0.8634 -0.1117  0.3059
  712MOL0     C98172   8.916   5.271   3.235  0.1173 -0.5196  0.3733
  712MOL0     C98173   8.751   5.059   3.604 -0.3376 -0.2581 -0.4959
  712MOL0     C98174   8.873   5.008   3.646 -0.6558 -0.5347  0.4875
  712MOL0     C98175   8.891   4.973   3.777 -0.7615  0.6079 -0.0415
  712MOL0     C98176   8.786   4.980   3.873 -0.0556 -0.8058  0.6538
  712MOL0     O98177   8.791   4.958   4.005  0.4605 -0.2169  0.0463
  712MOL0     C98178   8.897   4.875   4.061 -0.1716 -0.0416 -0.6953
  712MOL0     C98179   8.873   4.875   4.212  0.2706  0.2429  0.6612
  712MOL0     C98180   8.751   4.782   4.245  0.0744 -0.5626 -0.2621
  712MOL0     C98181   8.787   4.692   4.365 -0.7907  0.5474 -0.8684
  712MOL0     C98182   8.805   4.756   4.497  0.4656 -0.5079  0.2530
  712MOL0     C98183   8.818   4.821   4.598 -0.2036  0.1970 -0.0062
  712MOL0     C98184   8.666   5.032   3.830 -0.5491 -0.0251 -0.0230
  712MOL0     C98185   8.642   5.083   3.699 -0.1083  0.3351 -0.0366
  712MOL0     C98186   8.514   5.151   3.658 -0.5112  0.3463 -0.0070
  712MOL0     H98187   8.833   4.955   3.187  3.4298 -0.9086  0.2883
  712MOL0     H98188   8.896   5.025   2.951  0.1863 -1.2168  0.7831
  712MOL0     H98189   9.084   5.428   2.879 -0.6698  2.9305  0.3550
  712MOL0     H98190   8.915   5.450   2.866  0.3286 -0.6262  0.3417
  712MOL0     H98191   9.094   5.308   2.658 -1.4758 -0.8617  1.5934
  712MOL0     H98192   8.918   5.340   2.642 -0.4887 -0.0605  0.8669
  712MOL0     H98193   8.950   5.587   2.662 -0.4119 -2.0343  0.1771
  712MOL0     H98194   9.126   5.559   2.683  0.4130 -0.5974  1.1511
  712MOL0     H98195   9.136   5.472   2.467  0.1712  0.0334  1.6104
  712MOL0     H98196   8.957   5.503   2.424 -0.4347  0.4870  0.4099
  712MOL0     H98197   9.093   5.648   2.319  1.5799  0.2430  0.3744
  712MOL0     H98198   9.196   5.683   2.455  0.9457 -2.0971 -0.4434
  712MOL0     H98199   9.018   5.836   2.558 -0.5416  0.5110  0.3911
  712MOL0     H98200   9.043   5.880   2.396 -1.8470  1.4853 -0.0592
  712MOL0     H98201   8.817   5.715   2.514 -2.2186 -1.5581 -1.2606
  712MOL0     H98202   8.865   5.704   2.339  1.3064 -0.4502  0.0581
  712MOL0     H98203   8.772   5.953   2.493 -0.6197  1.2542 -0.4337
  712MOL0     H98204   8.838   5.959   2.330  1.1617 -0.8033  0.5129
  712MOL0     H98205   8.531   5.893   2.533  0.8363 -3.3343  0.9554
  712MOL0     H98206   8.239   5.760   2.298  1.7596 -0.8642 -1.8587
  712MOL0     H98207   8.228   5.909   2.380  1.4245  1.2256 -0.2135
  712MOL0     H98208   8.322   5.657   2.528 -0.1403 -0.6688 -2.3760
  712MOL0     H98209   8.316   5.823   2.584 -0.5406  0.7044 -0.2581
  712MOL0     H98210   8.124   5.702   2.662  0.9433  0.0451  0.0481
  712MOL0     H98211   8.068   5.824   2.557 -0.9246 -0.3546 -1.8289
  712MOL0     H98212   7.954   5.612   2.532 -0.0700 -0.4337  0.8207
  712MOL0     H98213   8.051   5.637   2.379  0.7400 -1.4302  0.1541
  712MOL0     H98214   8.264   5.300   2.464  0.1803 -1.9130  3.2020
  712MOL0     H98215   8.236   4.967   2.369 -0.6735  0.8071  0.4895
  712MOL0     H98216   8.329   5.099   2.417  0.2304  0.9911 -1.4110
  712MOL0     H98217   8.324   5.085   2.249  2.5771  0.2461  1.1795
  712MOL0     H98218   8.120   4.930   1.890 -2.2919  3.2678  1.7554
  712MOL0     H98219   8.045   4.754   1.744  2.4636 -0.0070 -0.3836
  712MOL0     H98220   7.694   4.546   1.904 -2.6260 -1.1826 -0.9907
  712MOL0     H98221   7.702   4.454   1.756  2.5597 -0.5322 -2.0079
  712MOL0     H98222   7.895   4.371   1.965 -0.5826  2.7826  0.0593
  712MOL0     H98223   7.739   4.303   1.982  0.6219 -1.9520  0.1289
  712MOL0     H98224   7.933   4.278   1.760  1.0323 -1.2382  0.5789
  712MOL0     H98225   7.762   4.272   1.716 -1.1759  1.1852  0.8620
  712MOL0     H98226   7.751   4.060   1.851  0.2487 -1.7502  0.8569
  712MOL0     H98227   7.912   4.118   1.926 -1.4326  0.3220  0.8610
  712MOL0     H98228   8.030   4.074   1.725 -0.2913  0.2268  2.9713
  712MOL0     H98229   7.956   3.926   1.757  0.7654 -0.5342 -1.5578
  712MOL0     H98230   7.807   4.127   1.576 -2.1705  0.4152  1.1475
  712MOL0     H98231   7.742   3.963   1.615 -0.3633  1.5686  3.4372
  712MOL0     H98232   7.979   3.891   1.516  0.1443 -0.0611 -1.7532
  712MOL0     H98233   7.960   4.045   1.422 -1.3685 -0.4142 -1.8590
  712MOL0     H98234   7.759   3.827   1.427  2.8021 -2.6696  0.3536
  712MOL0     H98235   7.878   3.864   1.310 -0.6651  1.6401  0.2307
  712MOL0     H98236   7.825   4.586   2.084 -0.2032 -1.3823 -1.7491
  712MOL0     H98237   7.918   4.774   2.223 -0.0766  0.1154  0.4054
  712MOL0     H98238   7.856   5.253   2.204  0.4863  0.2713 -1.3195
  712MOL0     H98239   7.893   5.474   2.334  0.2025  1.0685  0.3324
  712MOL0     H98240   8.979   5.416   3.089  0.1582 -0.2437 -2.2303
  712MOL0     H98241   8.921   5.348   3.312  1.8354 -0.3134  0.1067
  712MOL0     H98242   8.950   4.979   3.575 -1.1783 -1.7320  0.3842
  712MOL0     H98243   8.974   4.906   3.798  1.1202  2.3231 -1.6222
  712MOL0     H98244   8.895   4.773   4.021  2.9373 -1.5473  2.4122
  712MOL0     H98245   8.995   4.914   4.032 -1.2589  1.1761 -3.0680
  712MOL0     H98246   8.856   4.971   4.261  0.3800  0.5319  0.1441
  712MOL0     H98247   8.959   4.829   4.261  0.1973 -2.5388 -1.5795
  712MOL0     H98248   8.662   4.838   4.275  0.1364 -0.5304 -0.1356
  712MOL0     H98249   8.725   4.714   4.163 -3.6890 -1.0190  1.1106
  712MOL0     H98250   8.874   4.627   4.349 -0.6480  0.5577 -0.1664
  712MOL0     H98251   8.704   4.623   4.385 -2.0869  1.9567 -1.1835
  712MOL0     H98252   8.841   4.877   4.686 -0.5603 -2.4037  1.8559
  712MOL0     H98253   8.593   5.052   3.908  0.1027 -0.4689  0.7131
  712MOL0     H98254   8.540   5.252   3.625  3.7894 -0.2256  1.0149
  712MOL0     H98255   8.465   5.105   3.572  1.6802 -0.0058 -1.1237
  712MOL0     H98256   8.446   5.152   3.744 -0.9988 -0.3418 -0.3759
  713MOL0     O98257   2.783   5.584   0.977  0.0782 -0.3118  0.5858
  713MOL0     C98258   2.875   5.536   0.916 -0.2989  0.4106  0.4666
  713MOL0     O98259   2.874   5.431   0.825  0.4655 -0.3052  0.2704
  713MOL0     C98260   2.747   5.366   0.793  0.2572  0.0320  0.4366
  713MOL0     C98261   2.749   5.231   0.760 -1.0680  0.3803 -0.7344
  713MOL0     C98262   2.634   5.162   0.716  0.1486  0.6843  0.2252
  713MOL0     C98263   2.511   5.227   0.696  0.1278  0.1568  0.0189
  713MOL0     O98264   2.411   5.160   0.631  0.5941  0.2226  0.2942
  713MOL0     C98265   2.442   5.086   0.513  0.9263  0.1107 -0.6497
  713MOL0     C98266   2.513   5.147   0.394  0.3008  0.2742 -0.6462
  713MOL0     C98267   2.437   5.272   0.330 -0.9614 -0.3813 -0.0622
  713MOL0     C98268   2.308   5.234   0.255 -0.2242 -0.2976 -0.2004
  713MOL0     C98269   2.346   5.179   0.115  0.8764 -0.0761 -0.4348
  713MOL0     C98270   2.226   5.147   0.033  0.7909  0.4565  0.3094
  713MOL0     C98271   2.141   5.268   0.003 -0.9760 -0.2398  0.3531
  713MOL0     C98272   2.015   5.221  -0.078 -0.7052 -0.1737 -0.6313
  713MOL0     N98273   2.047   5.175  -0.214  0.7104  0.1823 -0.3150
  713MOL0     C98274   2.113   5.246  -0.313  0.1430  0.0855 -0.9983
  713MOL0     C98275   2.130   5.160  -0.417 -0.6717 -0.1685 -0.0460
  713MOL0     C98276   2.191   5.184  -0.551  0.6712 -0.2977 -0.3111
  713MOL0     C98277   2.341   5.138  -0.574  0.2368  0.1162  0.1849
  713MOL0     C98278   2.396   5.173  -0.705  0.2039  0.1141 -0.6370
  713MOL0     C98279   2.538   5.122  -0.716 -0.2826  0.2201  0.3185
  713MOL0     O98280   2.596   5.145  -0.845  0.2121  0.6114  0.1971
  713MOL0     C98281   2.731   5.155  -0.833 -0.4630  0.8640 -0.1353
  713MOL0     C98282   2.806   5.040  -0.838 -0.1224  0.2834  0.5609
  713MOL0     C98283   2.943   5.038  -0.826 -0.3581 -0.7981 -0.0936
  713MOL0     C98284   3.022   4.919  -0.842  0.0871  0.2741  0.2691
  713MOL0     C98285   3.004   5.167  -0.814 -0.1526  0.1779  0.4274
  713MOL0     C98286   3.147   5.174  -0.813 -1.2821 -0.3451  0.2997
  713MOL0     O98287   3.202   5.260  -0.908 -0.3252  0.4165 -0.4033
  713MOL0     C98288   3.332   5.288  -0.884  0.1083 -0.2418  0.2854
  713MOL0     C98289   3.356   5.424  -0.872 -0.5775 -0.2133 -0.1149
  713MOL0     C98290   3.483   5.473  -0.866 -0.3866  0.2844  0.1733
  713MOL0     C98291   3.591   5.383  -0.854  0.5834 -0.4897  0.1605
  713MOL0     O98292   3.723   5.412  -0.846 -0.4552  0.6761 -0.5250
  713MOL0     C98293   3.751   5.522  -0.928 -0.4848 -0.2489 -0.1706
  713MOL0     C98294   3.898   5.557  -0.932  1.5952 -0.1451 -0.1973
  713MOL0     C98295   3.939   5.636  -0.811 -0.2480 -0.1195  0.9736
  713MOL0     C98296   3.932   5.559  -0.684  0.1451  0.3888 -0.5490
  713MOL0     C98297   3.996   5.652  -0.579  0.1058  1.0110  0.2304
  713MOL0     C98298   4.029   5.588  -0.437  0.3454  0.4838 -0.0691
  713MOL0     C98299   4.136   5.479  -0.456  0.5720 -0.0199  0.5557
  713MOL0     C98300   4.200   5.439  -0.321  0.8888  0.2503  0.5908
  713MOL0    Cl98301   4.235   5.587  -0.216  0.0393 -0.3109 -0.3743
  713MOL0     C98302   3.561   5.246  -0.870 -0.4379 -0.0790 -0.9221
  713MOL0     C98303   3.435   5.190  -0.879 -0.9775  0.0924  0.3958
  713MOL0     O98304   3.207   5.123  -0.722  0.4990 -0.1805  0.2491
  713MOL0     C98305   2.931   5.287  -0.807  0.4250 -0.5788 -0.8028
  713MOL0     C98306   2.791   5.281  -0.820 -0.7640 -0.0606 -0.3517
  713MOL0     N98307   2.076   5.042  -0.377  0.2570  1.2735 -0.0028
  713MOL0     N98308   2.034   5.049  -0.252  1.0221  0.2885  0.6747
  713MOL0     C98309   2.502   5.354   0.745  0.5135 -0.6614  0.6432
  713MOL0     C98310   2.618   5.426   0.795 -0.0390 -0.1273 -0.0598
  713MOL0     C98311   3.017   5.586   0.940  0.0483 -0.4093  0.2373
  713MOL0     C98312   3.110   5.502   1.000 -1.2559  0.3042 -0.1676
  713MOL0     C98313   3.237   5.538   1.022 -0.6690  0.5942  0.1124
  713MOL0     C98314   3.288   5.659   0.980 -0.0360  0.1426 -0.1805
  713MOL0     O98315   3.428   5.677   0.982  0.6310 -0.0441 -0.3974
  713MOL0     C98316   3.489   5.760   0.879  0.2285  0.0763 -0.2108
  713MOL0     C98317   3.640   5.742   0.896 -0.4058 -0.7275  0.2565
  713MOL0     C98318   3.711   5.781   0.761 -0.2446 -0.7796 -0.6134
  713MOL0     C98319   3.852   5.825   0.787  0.3075  0.7335  0.2387
  713MOL0     C98320   3.857   5.944   0.877 -0.0501 -0.3590 -0.5138
  713MOL0     C98321   3.880   6.033   0.959 -1.3851  0.2599  0.2625
  713MOL0     C98322   3.196   5.749   0.922 -0.4999 -0.1213  0.3251
  713MOL0     C98323   3.057   5.715   0.907 -0.3180  0.1018 -0.3010
  713MOL0     C98324   2.967   5.819   0.845  0.1031  1.1607  1.0150
  713MOL0     H98325   2.836   5.169   0.777 -0.6344  0.8127 -1.3398
  713MOL0     H98326   2.642   5.058   0.688 -1.8739  0.2648  1.0787
  713MOL0     H98327   2.353   5.032   0.480  0.5619 -0.0750  0.5800
  713MOL0     H98328   2.502   5.000   0.546  3.7084  1.2456 -2.3442
  713MOL0     H98329   2.612   5.182   0.424 -0.0305 -1.0975  2.3597
  713MOL0     H98330   2.524   5.068   0.319  0.7811  1.8276 -2.3093
  713MOL0     H98331   2.414   5.342   0.411  0.7161  0.6575 -0.4446
  713MOL0     H98332   2.506   5.320   0.260 -1.8154  2.7394  1.0451
  713MOL0     H98333   2.251   5.159   0.310 -1.8067  0.6329 -0.5027
  713MOL0     H98334   2.249   5.326   0.254 -0.4052 -0.3640  1.5150
  713MOL0     H98335   2.419   5.098   0.126  0.3832 -0.3777  0.6784
  713MOL0     H98336   2.400   5.258   0.061  0.4186  0.4837 -0.0822
  713MOL0     H98337   2.261   5.108  -0.064 -0.2276  1.7327 -0.6133
  713MOL0     H98338   2.157   5.071   0.071 -0.5656  0.5107 -1.8686
  713MOL0     H98339   2.199   5.336  -0.061  1.2908  0.8633  3.3628
  713MOL0     H98340   2.114   5.323   0.094 -0.2392 -0.0240  0.4505
  713MOL0     H98341   1.961   5.141  -0.026  0.8402  0.4500  2.1491
  713MOL0     H98342   1.946   5.303  -0.102  0.8663  0.7605 -2.2071
  713MOL0     H98343   2.145   5.350  -0.308 -0.7192  0.3923 -1.5455
  713MOL0     H98344   2.178   5.292  -0.564  0.2758 -0.3245 -0.1520
  713MOL0     H98345   2.131   5.130  -0.625 -0.1582  1.5539 -1.0766
  713MOL0     H98346   2.408   5.182  -0.499 -1.0799  1.7455  0.4674
  713MOL0     H98347   2.353   5.029  -0.566 -1.8744 -0.0320  3.0750
  713MOL0     H98348   2.330   5.117  -0.771 -0.6330  0.1577  0.1411
  713MOL0     H98349   2.404   5.279  -0.732  1.9253 -0.0820 -1.0343
  713MOL0     H98350   2.606   5.171  -0.647  1.5353  2.3424 -2.7737
  713MOL0     H98351   2.536   5.016  -0.686 -0.4541 -0.4417 -1.8621
  713MOL0     H98352   2.746   4.950  -0.847 -0.2965 -0.0044  3.4136
  713MOL0     H98353   3.123   4.924  -0.882  0.5173 -0.7081  1.1749
  713MOL0     H98354   2.967   4.845  -0.902  2.5019 -0.0187 -1.7591
  713MOL0     H98355   3.032   4.874  -0.743 -1.4070 -2.2293 -0.6028
  713MOL0     H98356   3.276   5.496  -0.882  0.7228  1.1653 -0.8881
  713MOL0     H98357   3.504   5.578  -0.846 -0.5622  0.8271 -2.2760
  713MOL0     H98358   3.730   5.504  -1.034 -0.2210  1.0044 -0.4475
  713MOL0     H98359   3.692   5.608  -0.894  1.9015  2.1568 -1.7842
  713MOL0     H98360   3.961   5.469  -0.948  3.1388  0.4592  2.1731
  713MOL0     H98361   3.912   5.622  -1.019  0.6731 -0.8540 -0.9003
  713MOL0     H98362   3.892   5.734  -0.802 -1.3263 -0.3092 -1.5365
  713MOL0     H98363   4.040   5.661  -0.842 -1.3169  1.6984 -1.3809
  713MOL0     H98364   3.989   5.468  -0.697  0.1665  0.4090 -0.5945
  713MOL0     H98365   3.831   5.529  -0.652  0.8500 -0.8917  0.5743
  713MOL0     H98366   4.092   5.692  -0.613  2.2701  0.6931  5.0937
  713MOL0     H98367   3.936   5.741  -0.559 -0.9774  0.5720 -0.9602
  713MOL0     H98368   3.941   5.538  -0.395  0.1420  1.0476  0.1768
  713MOL0     H98369   4.045   5.668  -0.365 -2.5141  0.9622  0.1566
  713MOL0     H98370   4.209   5.519  -0.527  1.0778  2.0317  2.1259
  713MOL0     H98371   4.094   5.394  -0.511 -2.9263  3.1479 -2.1624
  713MOL0     H98372   4.289   5.379  -0.344  0.5431  0.1139 -0.4470
  713MOL0     H98373   4.134   5.376  -0.260  0.0829  0.1812 -0.3334
  713MOL0     H98374   3.646   5.179  -0.882  0.4734  0.9930 -0.5631
  713MOL0     H98375   3.417   5.083  -0.887  4.0693 -0.9737 -0.1079
  713MOL0     H98376   2.979   5.383  -0.795  0.6403 -0.5245 -1.9856
  713MOL0     H98377   2.735   5.374  -0.818 -0.1307  0.3226  1.5588
  713MOL0     H98378   2.413   5.413   0.729  0.8192 -0.5095 -0.5930
  713MOL0     H98379   2.607   5.530   0.823  3.9107 -0.0021  1.6610
  713MOL0     H98380   3.074   5.406   1.036  1.2314 -1.5253 -2.2028
  713MOL0     H98381   3.305   5.470   1.071 -1.1428 -1.0534 -1.4098
  713MOL0     H98382   3.449   5.729   0.782  0.5023  1.3140 -0.7396
  713MOL0     H98383   3.467   5.865   0.902 -1.2759  0.0673 -1.4437
  713MOL0     H98384   3.663   5.636   0.912 -2.1889 -1.6777 -2.7034
  713MOL0     H98385   3.675   5.797   0.985 -2.0791 -1.6685  1.5621
  713MOL0     H98386   3.714   5.690   0.699 -1.1202  0.2541 -2.2624
  713MOL0     H98387   3.652   5.856   0.707 -0.0284  0.7209  1.1533
  713MOL0     H98388   3.906   5.844   0.694 -2.0724  1.9716 -0.9609
  713MOL0     H98389   3.892   5.740   0.843 -1.6178  0.1723  0.8480
  713MOL0     H98390   3.871   6.105   1.037 -0.4353  0.2001  0.4313
  713MOL0     H98391   3.226   5.844   0.880 -0.6090  0.9041  2.4758
  713MOL0     H98392   2.980   5.914   0.898 -1.0922  0.4720  2.6126
  713MOL0     H98393   3.008   5.844   0.747 -0.9143  0.9142  0.5094
  713MOL0     H98394   2.862   5.794   0.828  1.0807 -1.9442 -1.6269
  714MOL0     O98395  10.839   8.573  10.090 -1.0636 -0.4712  0.7500
  714MOL0     C98396  10.868   8.577  10.210 -0.4925 -0.1535 -0.5077
  714MOL0     O98397  10.963   8.490  10.271  0.2353  0.6552  0.4245
  714MOL0     C98398  11.043   8.411  10.197 -1.0695  0.3427  0.3299
  714MOL0     C98399  11.147   8.463  10.126 -1.0760  1.0729 -0.8451
  714MOL0     C98400  11.238   8.383  10.050  0.0490  0.1817 -0.0405
  714MOL0     C98401  11.223   8.247  10.060 -0.3085 -0.1018  0.7274
  714MOL0     O98402  11.318   8.180   9.994  0.1689  0.4398  0.0576
  714MOL0     C98403  11.327   8.039   9.993  1.4843 -1.0184  0.7982
  714MOL0     C98404  11.470   7.989   9.961  0.7194 -0.1299  0.4835
  714MOL0     C98405  11.529   8.072   9.846  0.0184 -0.6149 -0.0081
  714MOL0     C98406  11.655   8.017   9.782  0.0764  0.0991  0.6569
  714MOL0     C98407  11.778   8.017   9.882 -0.1396 -0.3770  0.2255
  714MOL0     C98408  11.909   7.983   9.808 -0.0977 -0.4047 -0.0911
  714MOL0     C98409  11.896   7.848   9.739  0.6373  0.3928  0.0504
  714MOL0     C98410  12.042   7.820   9.681 -0.0956  0.0579 -0.6901
  714MOL0     N98411  12.067   7.694   9.623  0.8095 -0.2978  0.5167
  714MOL0     C98412  12.188   7.652   9.567  0.4096  0.1662  0.3166
  714MOL0     C98413  12.165   7.519   9.530  0.3094 -1.1710  0.5938
  714MOL0     C98414  12.271   7.440   9.467 -0.3872 -0.0958 -0.5052
  714MOL0     C98415  12.244   7.317   9.381  0.2555 -0.4417  0.6511
  714MOL0     C98416  12.240   7.189   9.464 -0.6676  0.5546 -0.9039
  714MOL0     C98417  12.279   7.061   9.388 -0.3017  0.5832  0.2204
  714MOL0     O98418  12.278   6.950   9.478  0.0528  0.7950  0.1827
  714MOL0     C98419  12.406   6.918   9.530  0.4578  0.2275 -0.3924
  714MOL0     C98420  12.415   6.926   9.673  0.0996 -0.8338  0.2029
  714MOL0     C98421  12.526   6.871   9.737  0.3646 -0.4117 -0.3954
  714MOL0     C98422  12.535   6.902   9.883  0.2529  0.1784 -0.2774
  714MOL0     C98423  12.629   6.824   9.657  0.0622 -0.3913 -0.2252
  714MOL0     C98424  12.753   6.767   9.704 -0.2215  0.1892 -0.3496
  714MOL0     O98425  12.874   6.803   9.647  0.3774  0.2783 -0.2067
  714MOL0     C98426  12.988   6.737   9.685 -0.2790  0.0758 -0.2546
  714MOL0     C98427  13.006   6.601   9.645 -0.4549  0.4862 -0.5122
  714MOL0     C98428  13.121   6.534   9.692 -0.2431 -0.2533  0.0322
  714MOL0     C98429  13.210   6.594   9.782  0.2460 -0.5193  0.9001
  714MOL0     O98430  13.309   6.510   9.825 -0.3494  0.4881  0.1482
  714MOL0     C98431  13.281   6.384   9.890 -0.1928 -0.0360  0.5634
  714MOL0     C98432  13.321   6.273   9.797  0.6583  0.9222  0.4194
  714MOL0     C98433  13.472   6.290   9.741 -0.0823  0.0286  0.7021
  714MOL0     C98434  13.508   6.188   9.634  0.1073 -0.3832 -0.7674
  714MOL0     C98435  13.515   6.042   9.685  0.2139 -0.4167 -0.0390
  714MOL0     C98436  13.571   5.963   9.561  2.1975 -0.0860 -0.4989
  714MOL0     C98437  13.550   5.811   9.578 -0.2598  0.0883 -0.4715
  714MOL0     C98438  13.629   5.742   9.467  0.2113 -0.1964  0.0406
  714MOL0    Cl98439  13.807   5.747   9.495  0.0186  0.0169  0.3245
  714MOL0     C98440  13.201   6.726   9.812  0.2538 -0.5119  0.7425
  714MOL0     C98441  13.083   6.794   9.770 -0.5050 -0.0598 -0.2232
  714MOL0     O98442  12.745   6.692   9.796  0.8154  0.1061  0.6231
  714MOL0     C98443  12.619   6.832   9.518 -0.3358  0.4632 -0.5836
  714MOL0     C98444  12.515   6.878   9.454  0.3251 -0.1680  0.5162
  714MOL0     N98445  12.037   7.486   9.548  0.0102 -0.2595  0.1227
  714MOL0     N98446  11.979   7.594   9.599  0.1389  0.1188 -0.1499
  714MOL0     C98447  11.115   8.192  10.134  0.2982  0.3498  1.1881
  714MOL0     C98448  11.028   8.272  10.211 -0.4104  0.7379  0.5335
  714MOL0     C98449  10.772   8.640  10.303 -0.1125 -0.2662  1.5795
  714MOL0     C98450  10.765   8.581  10.432 -0.5156  0.9852  0.3880
  714MOL0     C98451  10.675   8.620  10.526  1.7012  0.2037  0.0211
  714MOL0     C98452  10.592   8.737  10.501 -0.1198 -0.2446 -0.3318
  714MOL0     O98453  10.501   8.793  10.592  0.0523  0.8187  0.2376
  714MOL0     C98454  10.507   8.747  10.728  0.0599 -0.4036  0.0490
  714MOL0     C98455  10.407   8.820  10.819 -0.1398  0.3075 -0.1972
  714MOL0     C98456  10.389   8.763  10.962 -0.8151 -0.2437  0.5910
  714MOL0     C98457  10.256   8.818  11.019  0.0837 -0.3641 -0.0891
  714MOL0     C98458  10.257   8.800  11.163 -0.5970  0.3299  0.3422
  714MOL0     C98459  10.253   8.800  11.283 -0.1933 -0.2724 -0.5107
  714MOL0     C98460  10.596   8.790  10.370 -0.3454 -0.2496  0.6050
  714MOL0     C98461  10.685   8.746  10.271  0.0790  0.4822 -0.2869
  714MOL0     C98462  10.676   8.813  10.132  0.4321  0.3891 -0.4098
  714MOL0     H98463  11.159   8.570  10.113 -1.0338  1.0804 -0.7430
  714MOL0     H98464  11.319   8.427   9.992 -0.7010 -1.5224 -2.5272
  714MOL0     H98465  11.243   7.987   9.945 -0.2239  1.1867  1.2394
  714MOL0     H98466  11.308   8.005  10.096 -0.0813  0.9881  1.2342
  714MOL0     H98467  11.533   8.003  10.048 -0.6449  1.2997  1.2936
  714MOL0     H98468  11.452   7.887   9.926 -1.0553 -0.1270  1.2490
  714MOL0     H98469  11.461   8.070   9.760  0.8785 -1.7581 -0.6928
  714MOL0     H98470  11.544   8.172   9.887  0.1441 -1.5589  2.3672
  714MOL0     H98471  11.637   7.919   9.738  0.7289 -0.2968  1.2392
  714MOL0     H98472  11.680   8.086   9.702 -2.6157  0.3978 -0.0131
  714MOL0     H98473  11.755   7.956   9.970  1.0954  0.5396  1.2195
  714MOL0     H98474  11.797   8.118   9.918 -1.0152  0.4633 -1.5511
  714MOL0     H98475  11.937   8.068   9.745  0.2823  0.7318  1.5365
  714MOL0     H98476  11.990   7.973   9.881 -1.9671  1.4436  2.4159
  714MOL0     H98477  11.818   7.854   9.663  0.1131  1.5970  0.6716
  714MOL0     H98478  11.866   7.762   9.800 -3.1465  0.1304 -1.9188
  714MOL0     H98479  12.077   7.900   9.615  0.4595 -1.7965 -2.7255
  714MOL0     H98480  12.120   7.815   9.759 -1.5394  0.4214  0.8263
  714MOL0     H98481  12.282   7.706   9.565  0.0883  0.7144 -0.4058
  714MOL0     H98482  12.343   7.413   9.545 -1.8213  1.6577  1.5561
  714MOL0     H98483  12.315   7.512   9.397 -0.4608  2.1349  1.5877
  714MOL0     H98484  12.160   7.332   9.312  1.1882 -0.0732 -0.4286
  714MOL0     H98485  12.336   7.302   9.324  0.2929 -2.2617  1.1362
  714MOL0     H98486  12.300   7.199   9.555  0.5272  0.5501 -1.6707
  714MOL0     H98487  12.138   7.167   9.496 -0.3914 -0.1868 -0.5048
  714MOL0     H98488  12.203   7.045   9.311  1.2312  0.9371 -1.4302
  714MOL0     H98489  12.373   7.074   9.334 -0.5432  1.1235 -0.0792
  714MOL0     H98490  12.334   6.976   9.725  2.1939  0.1870  2.7178
  714MOL0     H98491  12.461   6.973   9.921 -0.1891  1.7081 -3.5560
  714MOL0     H98492  12.634   6.946   9.901  0.5222 -0.7766  0.6316
  714MOL0     H98493  12.528   6.806   9.935  0.2382 -0.0961 -0.7800
  714MOL0     H98494  12.935   6.539   9.592 -1.2803 -0.5340  1.6677
  714MOL0     H98495  13.130   6.428   9.671  1.9115 -0.3118  1.0084
  714MOL0     H98496  13.341   6.379   9.981  0.6132 -1.3894 -0.0039
  714MOL0     H98497  13.176   6.369   9.916 -0.8590 -2.1561 -2.6110
  714MOL0     H98498  13.317   6.173   9.841  0.1239 -0.9657 -3.4273
  714MOL0     H98499  13.253   6.263   9.711  1.2962 -0.8450  0.0858
  714MOL0     H98500  13.549   6.278   9.817 -0.8350 -3.0316  1.1185
  714MOL0     H98501  13.478   6.389   9.696 -0.1078  0.1396  0.9449
  714MOL0     H98502  13.606   6.227   9.603 -0.8314  3.4425  0.4402
  714MOL0     H98503  13.439   6.199   9.550 -0.9903  2.2423  0.3639
  714MOL0     H98504  13.573   6.032   9.777 -2.3246 -0.2562  1.6803
  714MOL0     H98505  13.413   6.011   9.709  0.0194  0.7205  0.6507
  714MOL0     H98506  13.671   5.993   9.530  1.3977  2.1224 -1.1533
  714MOL0     H98507  13.502   5.972   9.477 -0.2174  0.2835  1.3951
  714MOL0     H98508  13.446   5.788   9.554  0.4224 -2.6220 -1.1778
  714MOL0     H98509  13.581   5.772   9.676 -0.0082 -3.9145 -1.9794
  714MOL0     H98510  13.594   5.793   9.377 -1.4392 -0.7923  0.3106
  714MOL0     H98511  13.591   5.640   9.460  4.8252 -2.0491 -2.0818
  714MOL0     H98512  13.276   6.762   9.882 -1.7646  1.6798  1.9175
  714MOL0     H98513  13.063   6.893   9.810 -2.5279 -0.1119 -0.9762
  714MOL0     H98514  12.698   6.796   9.453 -1.7636  0.1464 -2.2074
  714MOL0     H98515  12.516   6.877   9.346 -0.3537 -1.8031  0.5005
  714MOL0     H98516  11.113   8.084  10.125  2.5199  0.3176  0.5560
  714MOL0     H98517  10.937   8.242  10.264 -0.4247  0.2217  0.2218
  714MOL0     H98518  10.825   8.495  10.460 -0.6996  1.2290  1.5669
  714MOL0     H98519  10.679   8.566  10.621  3.6934 -0.0274 -0.1544
  714MOL0     H98520  10.479   8.641  10.731 -2.2219  0.1558  0.1998
  714MOL0     H98521  10.604   8.777  10.769  0.0264  1.1827 -0.9483
  714MOL0     H98522  10.314   8.828  10.762 -0.3925 -0.8779  0.0294
  714MOL0     H98523  10.459   8.916  10.829 -0.0177  0.2815 -0.5368
  714MOL0     H98524  10.385   8.653  10.960  2.0560 -0.4146  0.5028
  714MOL0     H98525  10.475   8.799  11.019  0.9062  0.3872 -2.2056
  714MOL0     H98526  10.172   8.767  10.969 -2.0861  3.2496 -0.5308
  714MOL0     H98527  10.250   8.925  10.995  0.9183 -0.4452 -0.6903
  714MOL0     H98528  10.231   8.819  11.386 -1.1431 -1.1551 -0.5401
  714MOL0     H98529  10.527   8.870  10.345 -0.8698 -1.1504 -0.8971
  714MOL0     H98530  10.636   8.915  10.141 -2.8332 -0.9539  1.8264
  714MOL0     H98531  10.780   8.814  10.097  1.2214 -1.5612  1.6574
  714MOL0     H98532  10.615   8.748  10.068  0.8883 -1.3446  0.8555
  715MOL0     O98533   8.616   2.123   3.220  0.9444  0.6807  0.2949
  715MOL0     C98534   8.636   2.022   3.279  0.0500 -0.3856 -0.5265
  715MOL0     O98535   8.704   1.914   3.232  0.4801  0.3751  0.1907
  715MOL0     C98536   8.755   1.928   3.108 -0.5573  0.1717  0.3678
  715MOL0     C98537   8.895   1.950   3.092  0.8967 -0.0608  0.6805
  715MOL0     C98538   8.957   1.957   2.965  0.3787 -0.6171 -0.2236
  715MOL0     C98539   8.880   1.946   2.851  0.1993  0.2743 -0.0407
  715MOL0     O98540   8.935   1.950   2.733  0.0119 -0.0599 -0.9186
  715MOL0     C98541   9.052   2.037   2.714 -0.1471  0.4214 -0.1497
  715MOL0     C98542   9.100   2.030   2.569 -1.3784  0.6050  1.1360
  715MOL0     C98543   9.157   1.888   2.535  0.3872 -0.1839  0.0513
  715MOL0     C98544   9.265   1.910   2.421 -0.5301  0.7526  0.4231
  715MOL0     C98545   9.304   1.776   2.357  0.1948 -0.8625 -0.4057
  715MOL0     C98546   9.391   1.782   2.227  0.4397  0.6310 -0.0449
  715MOL0     C98547   9.289   1.817   2.108 -0.0893  0.4267  0.8444
  715MOL0     C98548   9.360   1.899   2.007 -0.4723  0.1565  0.0225
  715MOL0     N98549   9.474   1.827   1.952 -0.2725 -0.4161  0.2757
  715MOL0     C98550   9.605   1.845   1.983 -0.2021 -0.2227  0.4474
  715MOL0     C98551   9.676   1.776   1.888 -0.4432  0.7032 -0.5508
  715MOL0     C98552   9.822   1.721   1.894  0.1659 -0.5077 -0.2203
  715MOL0     C98553   9.845   1.603   1.996 -0.4756  0.0726  1.1526
  715MOL0     C98554   9.998   1.571   2.018  0.1567 -0.3545 -0.1184
  715MOL0     C98555  10.021   1.446   2.107  0.1114 -0.4148  0.8123
  715MOL0     O98556  10.157   1.418   2.139 -0.4285 -0.0758  0.4950
  715MOL0     C98557  10.238   1.363   2.046 -0.2987  0.0600  0.2711
  715MOL0     C98558  10.360   1.328   2.095 -1.1006  0.8609 -0.2451
  715MOL0     C98559  10.469   1.282   2.021  0.6864  0.0534  0.0037
  715MOL0     C98560  10.607   1.291   2.078 -0.0613  0.0092 -0.2160
  715MOL0     C98561  10.437   1.241   1.894 -0.8140  0.8873  0.6079
  715MOL0     C98562  10.525   1.168   1.806 -0.6441  1.3897  0.3100
  715MOL0     O98563  10.662   1.142   1.844  0.0033  0.2061 -0.4289
  715MOL0     C98564  10.734   1.058   1.760 -0.3926 -0.0095 -0.8575
  715MOL0     C98565  10.726   0.918   1.766 -0.5185  0.2642 -0.1901
  715MOL0     C98566  10.808   0.835   1.677 -0.4094 -0.5470 -0.1634
  715MOL0     C98567  10.910   0.897   1.590  0.4989  0.2990 -1.3404
  715MOL0     O98568  11.020   0.827   1.533  0.3090  0.1017  0.0807
  715MOL0     C98569  10.968   0.719   1.453 -0.2638 -0.0931 -0.6479
  715MOL0     C98570  11.081   0.666   1.369  0.9303 -0.3009 -0.0647
  715MOL0     C98571  11.029   0.563   1.276 -0.3256  0.7378 -0.3520
  715MOL0     C98572  10.929   0.460   1.324 -0.2927  0.9852  0.2926
  715MOL0     C98573  10.931   0.347   1.225  0.0614 -0.2650 -0.0967
  715MOL0     C98574  10.831   0.238   1.274  0.2208 -0.0067 -0.8897
  715MOL0     C98575  10.838   0.115   1.178 -0.4535  0.7438  0.1002
  715MOL0     C98576  10.823  -0.018   1.245  0.0715  0.0699 -0.0079
  715MOL0    Cl98577  10.671  -0.030   1.333 -0.1214  0.1859 -0.3130
  715MOL0     C98578  10.917   1.039   1.592 -0.0238 -0.3085 -0.4253
  715MOL0     C98579  10.829   1.114   1.676 -0.1465  0.0941 -0.7192
  715MOL0     O98580  10.483   1.135   1.696  0.1399  0.1932 -0.9642
  715MOL0     C98581  10.312   1.278   1.834  0.4901  0.3781  0.3483
  715MOL0     C98582  10.217   1.339   1.916 -0.6634  0.4295 -0.0120
  715MOL0     N98583   9.584   1.744   1.781 -0.3050  1.0711 -0.3891
  715MOL0     N98584   9.467   1.773   1.824  0.7632  0.0880 -0.2622
  715MOL0     C98585   8.738   1.931   2.863  0.3139  1.1349  0.2041
  715MOL0     C98586   8.680   1.919   2.988  0.4467  0.1674  0.4117
  715MOL0     C98587   8.560   2.024   3.413 -0.9702  0.2542  1.0533
  715MOL0     C98588   8.516   2.146   3.473  0.1265 -0.2076  0.2275
  715MOL0     C98589   8.454   2.155   3.602  0.3362 -0.3216  0.1662
  715MOL0     C98590   8.444   2.043   3.683 -0.4330  0.2081 -0.2790
  715MOL0     O98591   8.393   2.057   3.811 -0.3717  0.0156  0.8107
  715MOL0     C98592   8.485   2.124   3.905  0.5547 -0.1229  0.5080
  715MOL0     C98593   8.408   2.227   3.989  0.7452  0.2873 -0.5713
  715MOL0     C98594   8.310   2.167   4.094 -0.4816  0.6312  0.2457
  715MOL0     C98595   8.169   2.144   4.037  0.1106  0.0043  0.9651
  715MOL0     C98596   8.077   2.063   4.126 -0.2533  0.2294 -0.9123
  715MOL0     C98597   8.006   2.005   4.199  0.1591 -0.5613  0.6405
  715MOL0     C98598   8.465   1.919   3.618 -1.0632 -0.3324 -0.1548
  715MOL0     C98599   8.517   1.904   3.482  0.4120  0.2789 -0.2946
  715MOL0     C98600   8.543   1.757   3.443  0.4702 -0.3313  1.2020
  715MOL0     H98601   8.951   1.952   3.185  0.7713  3.5027  0.8162
  715MOL0     H98602   9.065   1.968   2.968  0.8592 -2.4892 -4.1690
  715MOL0     H98603   9.138   2.024   2.781  1.3891  0.8092 -1.9439
  715MOL0     H98604   9.018   2.138   2.735  1.9704  1.5226 -1.6623
  715MOL0     H98605   9.026   2.061   2.495 -0.2961  0.5268 -0.0184
  715MOL0     H98606   9.181   2.101   2.552 -0.6259 -0.6578 -1.0276
  715MOL0     H98607   9.206   1.858   2.628 -0.5788  1.8809  1.2754
  715MOL0     H98608   9.078   1.815   2.513 -0.4240 -0.6685  3.8562
  715MOL0     H98609   9.226   1.982   2.349  0.0511 -0.7684 -1.5212
  715MOL0     H98610   9.352   1.958   2.467 -2.2429 -0.6112  5.8789
  715MOL0     H98611   9.215   1.717   2.335 -1.6802  0.6145  2.5987
  715MOL0     H98612   9.358   1.729   2.440 -2.7175 -0.0216  2.1529
  715MOL0     H98613   9.471   1.857   2.229  0.3054  0.7667  0.1821
  715MOL0     H98614   9.443   1.687   2.210  0.8325  1.0024 -0.9993
  715MOL0     H98615   9.208   1.877   2.150  0.5062  1.2581  0.8412
  715MOL0     H98616   9.248   1.731   2.054  2.7853  0.1479 -1.1280
  715MOL0     H98617   9.293   1.913   1.922  0.7218  0.0857 -0.9553
  715MOL0     H98618   9.396   1.997   2.041 -0.1810  0.8151 -2.0704
  715MOL0     H98619   9.639   1.893   2.075 -3.7372 -1.3112  2.4987
  715MOL0     H98620   9.884   1.808   1.915 -0.6526  0.4808 -1.7271
  715MOL0     H98621   9.849   1.682   1.795 -1.2864 -2.6957  0.1672
  715MOL0     H98622   9.801   1.642   2.089  0.5840  0.2505  1.5935
  715MOL0     H98623   9.800   1.513   1.954  0.9640  0.3400 -1.1289
  715MOL0     H98624  10.046   1.551   1.922  0.2825 -2.9831  0.4076
  715MOL0     H98625  10.065   1.645   2.062  0.5268  0.1135 -1.4388
  715MOL0     H98626   9.979   1.479   2.202  1.1280  1.6828  0.5801
  715MOL0     H98627   9.975   1.356   2.065  0.5810  0.0276 -0.7185
  715MOL0     H98628  10.387   1.357   2.196  1.2736  0.0175 -0.5529
  715MOL0     H98629  10.657   1.195   2.090  0.7470  0.4688  0.1519
  715MOL0     H98630  10.604   1.338   2.177 -0.6908  0.7562 -0.5767
  715MOL0     H98631  10.669   1.351   2.011 -3.3200  0.5442 -3.0262
  715MOL0     H98632  10.664   0.873   1.843  0.2474  0.4414  0.5375
  715MOL0     H98633  10.819   0.727   1.687 -0.2066 -0.4046  1.5216
  715MOL0     H98634  10.940   0.637   1.519  3.9737  0.9409  2.9731
  715MOL0     H98635  10.885   0.749   1.389 -0.3117  0.3927 -0.3703
  715MOL0     H98636  11.116   0.745   1.301 -3.4134 -0.2434 -2.6604
  715MOL0     H98637  11.163   0.635   1.434 -1.0492 -0.2812  2.6133
  715MOL0     H98638  11.122   0.510   1.256  0.2013  1.0920  1.0317
  715MOL0     H98639  10.989   0.605   1.183 -0.2193 -0.8774 -1.1621
  715MOL0     H98640  10.828   0.498   1.345  0.4689  3.4362 -0.1249
  715MOL0     H98641  10.979   0.435   1.418 -1.9183  1.4268  1.3169
  715MOL0     H98642  10.897   0.387   1.129 -0.2594  0.8869  0.4799
  715MOL0     H98643  11.034   0.312   1.216  1.2110  2.4513  1.1923
  715MOL0     H98644  10.726   0.269   1.285 -0.4400 -0.0571 -5.2457
  715MOL0     H98645  10.855   0.203   1.374 -0.5607 -4.0530 -1.9275
  715MOL0     H98646  10.922   0.118   1.108  0.2054 -0.9169  0.7865
  715MOL0     H98647  10.752   0.114   1.111 -0.7146 -1.2298  0.4121
  715MOL0     H98648  10.906  -0.035   1.315 -0.5441  0.4964  0.8447
  715MOL0     H98649  10.824  -0.101   1.174  1.1420 -0.2394  0.3438
  715MOL0     H98650  10.985   1.096   1.529 -1.4052  1.3774 -0.4818
  715MOL0     H98651  10.822   1.222   1.681 -3.6886  0.0161 -1.4036
  715MOL0     H98652  10.280   1.262   1.731 -1.5101  1.3153  0.7777
  715MOL0     H98653  10.118   1.354   1.874 -0.7661  0.2689  0.1659
  715MOL0     H98654   8.690   1.935   2.766 -0.9989 -1.2147  0.6702
  715MOL0     H98655   8.572   1.913   2.998  0.5509 -1.5268  0.7245
  715MOL0     H98656   8.524   2.234   3.411  0.1188 -1.0232 -0.9830
  715MOL0     H98657   8.412   2.251   3.629 -0.1421  1.1641 -4.8499
  715MOL0     H98658   8.528   2.044   3.966  3.0471  0.9980  0.3411
  715MOL0     H98659   8.571   2.163   3.850 -0.2132 -0.7077 -1.1588
  715MOL0     H98660   8.352   2.308   3.942 -1.9013 -0.9557  0.2147
  715MOL0     H98661   8.482   2.286   4.043 -1.8363  1.7176  1.7115
  715MOL0     H98662   8.341   2.070   4.133 -1.2858  0.1036 -0.3851
  715MOL0     H98663   8.310   2.236   4.179 -2.2011  2.1244 -0.8684
  715MOL0     H98664   8.192   2.099   3.940 -1.4638  0.9321  0.1194
  715MOL0     H98665   8.126   2.243   4.018  0.2644 -0.3837 -1.7493
  715MOL0     H98666   7.939   1.957   4.267  0.9250  0.3031  2.0591
  715MOL0     H98667   8.444   1.826   3.669 -0.3688  0.2550  1.2469
  715MOL0     H98668   8.453   1.725   3.390  2.3992 -0.2092 -2.5049
  715MOL0     H98669   8.630   1.745   3.378 -1.5506 -1.3686 -1.5062
  715MOL0     H98670   8.556   1.686   3.525  0.8525 -0.0010  1.4297
  716MOL0     O98671   4.404   0.351   8.841 -0.8703 -0.2653 -0.4539
  716MOL0     C98672   4.424   0.232   8.820 -0.8459 -0.2919 -0.0903
  716MOL0     O98673   4.542   0.163   8.830 -0.4520 -0.5389 -0.5921
  716MOL0     C98674   4.653   0.236   8.870  0.3487  0.6411  0.5252
  716MOL0     C98675   4.723   0.316   8.785  0.9579  0.4876  0.8068
  716MOL0     C98676   4.848   0.373   8.814  0.0990 -0.1899  0.3177
  716MOL0     C98677   4.899   0.359   8.951 -0.0026 -0.3415  1.2546
  716MOL0     O98678   5.019   0.417   8.983  0.0860  0.6435 -0.0127
  716MOL0     C98679   5.103   0.469   8.882  0.1757  0.4031  0.9115
  716MOL0     C98680   5.211   0.553   8.951  0.4546  0.0318  0.0553
  716MOL0     C98681   5.336   0.578   8.871 -0.2642  0.7484 -0.2488
  716MOL0     C98682   5.431   0.451   8.863  0.1032 -0.5183  0.3866
  716MOL0     C98683   5.573   0.511   8.854 -1.2555  0.2148  0.5905
  716MOL0     C98684   5.655   0.388   8.813 -0.6307  0.6302  1.0483
  716MOL0     C98685   5.785   0.438   8.746 -0.2923 -0.8686 -0.4604
  716MOL0     C98686   5.890   0.482   8.853 -0.3260  1.1017  0.4801
  716MOL0     N98687   6.035   0.477   8.813 -0.1311 -0.2120  0.0545
  716MOL0     C98688   6.107   0.359   8.798  0.9027  0.4165 -1.0495
  716MOL0     C98689   6.225   0.411   8.754  0.3456 -0.2303 -0.7094
  716MOL0     C98690   6.358   0.344   8.732 -0.0033 -0.9922  0.4122
  716MOL0     C98691   6.346   0.204   8.672 -0.1332 -0.6977  0.9233
  716MOL0     C98692   6.278   0.230   8.526 -0.3681  0.5767 -0.6431
  716MOL0     C98693   6.282   0.094   8.454 -0.0898  0.7844 -0.1956
  716MOL0     O98694   6.199  -0.009   8.512 -0.3143 -0.3153  0.6039
  716MOL0     C98695   6.061   0.005   8.521  0.3864 -0.0254 -0.3122
  716MOL0     C98696   5.986   0.096   8.447 -0.0239 -0.6024 -0.5457
  716MOL0     C98697   5.844   0.090   8.438  0.6685 -0.1571 -0.9510
  716MOL0     C98698   5.784   0.175   8.325 -0.6364 -0.3696 -0.2388
  716MOL0     C98699   5.776  -0.009   8.518  0.4143 -0.2807  0.5129
  716MOL0     C98700   5.621  -0.014   8.530  0.1804 -0.9702 -0.5818
  716MOL0     O98701   5.534   0.019   8.431 -0.1380 -0.1150  1.0705
  716MOL0     C98702   5.393   0.039   8.460  0.2305  0.4435  0.7143
  716MOL0     C98703   5.339   0.116   8.561 -0.1822  0.1515  0.3963
  716MOL0     C98704   5.195   0.116   8.585 -0.3268 -0.5575 -0.4993
  716MOL0     C98705   5.113   0.032   8.506 -0.8316 -0.5304  0.2785
  716MOL0     O98706   4.982   0.038   8.548 -0.0857  0.1325 -0.1486
  716MOL0     C98707   4.902  -0.074   8.510 -0.7402 -0.1436  0.5446
  716MOL0     C98708   4.767  -0.066   8.582 -0.9806  0.0921 -0.3538
  716MOL0     C98709   4.683  -0.195   8.585  0.0208 -0.1054  0.8786
  716MOL0     C98710   4.540  -0.159   8.625  0.2844  0.1127  0.9014
  716MOL0     C98711   4.451  -0.282   8.638 -0.2804  0.0012 -0.7135
  716MOL0     C98712   4.311  -0.257   8.705  0.8945  1.0799  0.8134
  716MOL0     C98713   4.241  -0.396   8.713 -0.3610  0.4344 -0.9398
  716MOL0     C98714   4.097  -0.381   8.768 -0.3267 -0.8738  0.8811
  716MOL0    Cl98715   4.007  -0.312   8.623 -0.0392 -0.2745  0.3184
  716MOL0     C98716   5.169  -0.041   8.402 -0.5611  0.0002  1.2251
  716MOL0     C98717   5.310  -0.035   8.381  0.2247 -0.1833  0.2750
  716MOL0     O98718   5.583  -0.054   8.641  0.3296  0.4482  0.3886
  716MOL0     C98719   5.854  -0.099   8.593  0.5561  0.3347 -0.7667
  716MOL0     C98720   5.992  -0.088   8.598 -0.7928 -0.2176  0.2129
  716MOL0     N98721   6.230   0.552   8.758 -0.1346  0.1316 -0.0577
  716MOL0     N98722   6.114   0.590   8.793  0.0162 -0.4664 -0.1923
  716MOL0     C98723   4.822   0.280   9.036 -0.2431 -0.7138  0.7112
  716MOL0     C98724   4.705   0.223   9.001  0.4627 -0.2319 -0.4254
  716MOL0     C98725   4.318   0.162   8.750 -0.0564  0.9063 -0.5821
  716MOL0     C98726   4.207   0.119   8.823  0.9539  0.4514  0.7457
  716MOL0     C98727   4.105   0.048   8.766 -0.6131 -0.3763 -0.1339
  716MOL0     C98728   4.097   0.029   8.626  0.8492 -0.7792 -0.1802
  716MOL0     O98729   3.988  -0.027   8.570  0.1061 -0.1875  0.0267
  716MOL0     C98730   3.863   0.046   8.570  0.1035  0.8112 -0.2399
  716MOL0     C98731   3.740  -0.048   8.562 -0.0048 -1.1991 -0.7011
  716MOL0     C98732   3.716  -0.136   8.429 -0.1544 -0.6914  0.2517
  716MOL0     C98733   3.586  -0.209   8.441  0.7777  0.4638 -0.0436
  716MOL0     C98734   3.456  -0.134   8.452 -0.3486 -0.0535  0.3858
  716MOL0     C98735   3.343  -0.089   8.466 -0.3553 -0.8093  0.7924
  716MOL0     C98736   4.196   0.096   8.555  0.0512 -0.0153  0.1731
  716MOL0     C98737   4.306   0.154   8.610 -0.7416  0.1981 -0.4937
  716MOL0     C98738   4.426   0.188   8.512 -0.4926 -0.5966  0.0021
  716MOL0     H98739   4.678   0.324   8.686  0.0837  1.3466  1.2586
  716MOL0     H98740   4.906   0.418   8.734 -0.6832  1.7645  0.8080
  716MOL0     H98741   5.061   0.537   8.807  1.9275 -0.6101 -1.0617
  716MOL0     H98742   5.151   0.387   8.828  2.2751  1.6725  0.7432
  716MOL0     H98743   5.181   0.650   8.993 -0.3639 -0.3093  0.2697
  716MOL0     H98744   5.244   0.496   9.038 -1.0890 -1.4956 -0.3127
  716MOL0     H98745   5.323   0.627   8.774  1.5255  1.1842 -0.3153
  716MOL0     H98746   5.389   0.652   8.932  0.1760 -1.1604  1.8175
  716MOL0     H98747   5.430   0.389   8.953 -0.2253 -0.3858  0.4755
  716MOL0     H98748   5.396   0.395   8.775 -1.1565  1.0865 -0.1896
  716MOL0     H98749   5.618   0.545   8.948 -0.8991 -0.4538  0.6676
  716MOL0     H98750   5.572   0.596   8.785 -1.8873  1.6890  2.3421
  716MOL0     H98751   5.681   0.314   8.889  2.2855  0.5188  0.0726
  716MOL0     H98752   5.601   0.330   8.738  2.1484 -0.2688 -0.3731
  716MOL0     H98753   5.769   0.510   8.666 -1.2255 -0.0058  0.4731
  716MOL0     H98754   5.823   0.349   8.694  0.4147 -0.2454 -1.0329
  716MOL0     H98755   5.872   0.586   8.885 -0.2787  2.1261 -2.5468
  716MOL0     H98756   5.878   0.420   8.943 -1.1883 -1.0255 -1.0324
  716MOL0     H98757   6.066   0.260   8.810 -0.1726  0.9908  0.3144
  716MOL0     H98758   6.412   0.338   8.828  0.7061 -0.4122  0.0656
  716MOL0     H98759   6.416   0.406   8.663  0.3592 -1.3031  0.4325
  716MOL0     H98760   6.449   0.168   8.671  0.0100 -0.3805  2.0879
  716MOL0     H98761   6.283   0.155   8.747 -0.1471  0.7969  1.9282
  716MOL0     H98762   6.180   0.276   8.508 -1.0342 -0.7491 -0.5544
  716MOL0     H98763   6.352   0.295   8.479  0.9577  0.6349  1.3881
  716MOL0     H98764   6.253   0.112   8.350  3.7539 -0.1704 -1.5792
  716MOL0     H98765   6.379   0.044   8.457 -1.5939 -2.3685 -0.7031
  716MOL0     H98766   6.043   0.162   8.382  0.5163 -3.4779 -3.2214
  716MOL0     H98767   5.849   0.166   8.237 -0.3771  1.7210 -0.3062
  716MOL0     H98768   5.778   0.281   8.351  3.7965 -0.1295  0.6218
  716MOL0     H98769   5.685   0.140   8.295  0.0763 -3.0682  0.3197
  716MOL0     H98770   5.407   0.168   8.627 -1.7916  0.6899  1.7263
  716MOL0     H98771   5.152   0.185   8.657 -1.3864 -0.0377 -1.5865
  716MOL0     H98772   4.876  -0.076   8.404  0.5725 -0.0607  0.2143
  716MOL0     H98773   4.952  -0.169   8.530 -0.0669  0.2291  0.6542
  716MOL0     H98774   4.792  -0.046   8.686  0.4948 -0.2441 -0.6271
  716MOL0     H98775   4.713   0.017   8.534  1.2696  1.5236 -0.5449
  716MOL0     H98776   4.717  -0.274   8.653  1.6041  0.6948  1.0664
  716MOL0     H98777   4.676  -0.233   8.483  0.2978  2.5220 -0.1832
  716MOL0     H98778   4.501  -0.089   8.550 -0.2675 -0.0680  1.0148
  716MOL0     H98779   4.540  -0.103   8.719 -1.2386  0.1448  0.8967
  716MOL0     H98780   4.439  -0.314   8.534 -0.9441  1.8989 -1.2515
  716MOL0     H98781   4.503  -0.359   8.696 -0.3971  0.3723 -0.1104
  716MOL0     H98782   4.248  -0.193   8.643 -0.2700  1.0518  1.9386
  716MOL0     H98783   4.317  -0.228   8.810 -0.1655  1.3285  0.8104
  716MOL0     H98784   4.299  -0.462   8.778  0.8304 -1.3608 -3.6551
  716MOL0     H98785   4.250  -0.447   8.617  2.9982  1.8059 -1.5015
  716MOL0     H98786   4.090  -0.299   8.840  2.2687  1.3017 -1.0992
  716MOL0     H98787   4.060  -0.477   8.802  0.2221 -1.9629 -1.3936
  716MOL0     H98788   5.110  -0.111   8.343  0.8651 -0.5195  0.3538
  716MOL0     H98789   5.352  -0.089   8.297 -0.3757 -1.7853  0.9499
  716MOL0     H98790   5.806  -0.166   8.664 -0.5003  1.9155  0.0574
  716MOL0     H98791   6.053  -0.147   8.666  0.9286  1.0158 -0.1953
  716MOL0     H98792   4.859   0.260   9.136 -1.1467 -1.4447  0.9170
  716MOL0     H98793   4.646   0.164   9.070  2.0538  0.9181  2.0963
  716MOL0     H98794   4.211   0.123   8.932  0.8417 -1.7566  0.8760
  716MOL0     H98795   4.040   0.018   8.847  0.6497 -0.3072  0.9315
  716MOL0     H98796   3.861   0.120   8.650  3.3534  2.1016 -1.2280
  716MOL0     H98797   3.862   0.112   8.482 -0.1905  1.0320 -0.0745
  716MOL0     H98798   3.651   0.012   8.583  0.4261  0.1733 -2.4620
  716MOL0     H98799   3.745  -0.112   8.650 -0.4655  0.3939  0.5442
  716MOL0     H98800   3.713  -0.067   8.345  2.0313  1.8745  2.1153
  716MOL0     H98801   3.795  -0.210   8.418  2.3885  2.0427 -1.1728
  716MOL0     H98802   3.586  -0.270   8.531 -0.0272  2.6723  1.5532
  716MOL0     H98803   3.580  -0.278   8.356 -0.2183  0.5940 -0.0914
  716MOL0     H98804   3.243  -0.051   8.476  0.4308  0.8084  3.1440
  716MOL0     H98805   4.154   0.117   8.457  2.4370  1.8620 -0.5273
  716MOL0     H98806   4.459   0.101   8.454  1.9704  0.5932 -0.4821
  716MOL0     H98807   4.403   0.266   8.439 -0.8570 -0.7180 -0.0151
  716MOL0     H98808   4.513   0.218   8.571 -1.6828  3.1630  0.1033
  717MOL0     O98809   1.858   5.408   8.338  0.1475  0.2466 -0.5938
  717MOL0     C98810   1.798   5.320   8.278  0.0514  1.0341 -0.4255
  717MOL0     O98811   1.823   5.183   8.295  0.1474  0.2150 -0.5127
  717MOL0     C98812   1.891   5.134   8.402  0.2329  0.5625 -0.1902
  717MOL0     C98813   2.031   5.139   8.410 -0.0349 -0.6742  0.3855
  717MOL0     C98814   2.097   5.103   8.527  0.6130  0.2095 -0.2113
  717MOL0     C98815   2.021   5.082   8.645  1.1907 -0.5914  0.1871
  717MOL0     O98816   2.088   5.063   8.761  1.6257 -0.0159 -0.9844
  717MOL0     C98817   2.021   5.119   8.876  0.4654 -0.5724 -0.3058
  717MOL0     C98818   2.131   5.145   8.981  0.4721  0.3317  0.1796
  717MOL0     C98819   2.179   5.024   9.055  0.4395  0.0606  0.6233
  717MOL0     C98820   2.194   5.046   9.204 -0.6275  0.1285 -0.1760
  717MOL0     C98821   2.246   4.922   9.281 -0.0908 -0.4273  0.0242
  717MOL0     C98822   2.393   4.887   9.238  0.4943 -0.6103 -0.4476
  717MOL0     C98823   2.442   4.783   9.340  0.2944 -0.8920  0.3768
  717MOL0     C98824   2.583   4.738   9.289  0.5443  1.4874 -0.3034
  717MOL0     N98825   2.687   4.843   9.298  0.1274  0.3358 -0.1861
  717MOL0     C98826   2.727   4.884   9.418 -0.7367 -0.1048  0.1482
  717MOL0     C98827   2.808   4.990   9.386 -0.1425 -0.5955 -0.0270
  717MOL0     C98828   2.880   5.100   9.463  0.5622  0.5950  0.1236
  717MOL0     C98829   3.012   5.046   9.526 -0.0921  0.2809 -0.2551
  717MOL0     C98830   3.111   5.000   9.412  0.2674  0.0844 -0.4664
  717MOL0     C98831   3.248   4.984   9.469  0.8777  0.2538  0.3606
  717MOL0     O98832   3.324   5.100   9.455 -0.4162 -0.1508 -0.9013
  717MOL0     C98833   3.448   5.099   9.517  0.4797  0.5733  0.7902
  717MOL0     C98834   3.509   4.991   9.590  0.3339 -0.3769  0.3061
  717MOL0     C98835   3.640   4.998   9.634  0.0738  0.2810 -0.1986
  717MOL0     C98836   3.692   4.862   9.686 -0.2452 -0.6447 -0.2054
  717MOL0     C98837   3.712   5.114   9.622 -0.5638  0.3685 -0.1654
  717MOL0     C98838   3.842   5.149   9.678 -0.0808  0.2371 -0.7688
  717MOL0     O98839   3.919   5.256   9.634 -0.2383  0.1158  0.3152
  717MOL0     C98840   4.044   5.279   9.686 -0.8113  0.1470 -0.2729
  717MOL0     C98841   4.133   5.186   9.748  0.5293  0.5269  0.2436
  717MOL0     C98842   4.256   5.222   9.811  0.7069 -0.0690 -0.2289
  717MOL0     C98843   4.282   5.357   9.825 -0.3523 -0.6998  1.4058
  717MOL0     O98844   4.380   5.394   9.908 -0.3012 -0.4531  0.1040
  717MOL0     C98845   4.459   5.503   9.876 -0.2592 -0.0132 -0.1089
  717MOL0     C98846   4.588   5.524   9.960 -0.3656  0.2383 -0.2731
  717MOL0     C98847   4.676   5.397   9.971  0.1000 -0.4492  0.2502
  717MOL0     C98848   4.794   5.432  10.039  0.0368 -0.3086 -0.3586
  717MOL0     C98849   4.875   5.312  10.076 -1.0416 -0.0669  0.6730
  717MOL0     C98850   4.930   5.239   9.946  0.0590  0.6666  1.0097
  717MOL0     C98851   5.018   5.123   9.986  1.1429  0.0360 -0.4452
  717MOL0     C98852   5.068   5.064   9.862 -0.5948 -0.7208  0.6764
  717MOL0    Cl98853   5.209   5.152   9.825  0.1886 -0.3633  0.0916
  717MOL0     C98854   4.195   5.456   9.772 -1.0016  0.2785 -0.2645
  717MOL0     C98855   4.073   5.413   9.705 -0.8824 -0.3930  0.8053
  717MOL0     O98856   3.877   5.070   9.767 -0.2945  0.8003 -0.2506
  717MOL0     C98857   3.653   5.224   9.552  1.1857 -0.0930 -0.0196
  717MOL0     C98858   3.528   5.212   9.502 -0.0550 -0.0142  0.2362
  717MOL0     N98859   2.796   5.011   9.247  0.0907  0.2120 -0.4738
  717MOL0     N98860   2.726   4.921   9.197 -0.1189  0.1639  0.0528
  717MOL0     C98861   1.872   5.084   8.638 -0.1416  0.5083  0.1619
  717MOL0     C98862   1.815   5.111   8.513  0.3514 -0.6099  0.3963
  717MOL0     C98863   1.702   5.359   8.169 -0.5608  0.6501 -0.4120
  717MOL0     C98864   1.745   5.468   8.086 -0.5804 -0.5189 -0.0273
  717MOL0     C98865   1.679   5.501   7.966 -0.0260  0.6826  0.4030
  717MOL0     C98866   1.552   5.435   7.939 -0.0790 -0.5512 -0.8502
  717MOL0     O98867   1.471   5.490   7.839  0.4254 -0.7914  0.0168
  717MOL0     C98868   1.342   5.438   7.801 -0.2780  0.9366 -0.3546
  717MOL0     C98869   1.362   5.321   7.705  0.1491 -0.0489 -0.6431
  717MOL0     C98870   1.377   5.367   7.564 -0.1948 -0.2514  0.1791
  717MOL0     C98871   1.246   5.395   7.500  0.0763 -0.2438 -0.5660
  717MOL0     C98872   1.266   5.450   7.366  0.0210 -0.0023  0.6274
  717MOL0     C98873   1.297   5.494   7.257 -0.5188  0.4345  0.2438
  717MOL0     C98874   1.515   5.328   8.020 -0.3481  0.3917 -0.1604
  717MOL0     C98875   1.591   5.280   8.127  0.2243  0.0779 -0.1210
  717MOL0     C98876   1.528   5.163   8.214  0.0173  0.0750  0.6623
  717MOL0     H98877   2.079   5.184   8.324  3.1848 -1.3033  1.7271
  717MOL0     H98878   2.205   5.097   8.519  0.7886  0.0122  1.8874
  717MOL0     H98879   1.950   5.045   8.915 -0.4455 -0.2759 -1.3399
  717MOL0     H98880   1.984   5.220   8.860  1.1380 -0.3711 -0.6362
  717MOL0     H98881   2.223   5.185   8.939  0.8178  0.9238  1.4634
  717MOL0     H98882   2.082   5.218   9.046  0.7425 -0.6737  1.5462
  717MOL0     H98883   2.094   4.955   9.047  0.8352 -0.4658  0.9247
  717MOL0     H98884   2.267   4.972   9.016 -1.2902 -0.6335 -2.7617
  717MOL0     H98885   2.268   5.126   9.210 -1.9861  1.4899 -0.8038
  717MOL0     H98886   2.103   5.081   9.254 -0.8034 -0.0369 -0.3744
  717MOL0     H98887   2.181   4.840   9.252 -1.5148 -0.1300  2.1710
  717MOL0     H98888   2.240   4.932   9.390  0.0935 -1.0960  0.0966
  717MOL0     H98889   2.400   4.840   9.140  0.0762 -1.4028 -0.1038
  717MOL0     H98890   2.462   4.972   9.241 -1.9451  1.4471  0.2029
  717MOL0     H98891   2.366   4.705   9.344 -1.5652  0.8179  0.0062
  717MOL0     H98892   2.437   4.833   9.438  1.3958  0.1717 -0.0685
  717MOL0     H98893   2.617   4.659   9.356 -2.5685 -0.2173 -0.5698
  717MOL0     H98894   2.572   4.711   9.184 -3.0642 -0.7382  0.4779
  717MOL0     H98895   2.688   4.851   9.513 -2.5545 -1.2458 -0.9417
  717MOL0     H98896   2.827   5.133   9.553 -0.6673  0.1046 -0.3929
  717MOL0     H98897   2.889   5.189   9.401  0.1893 -0.1025 -0.9732
  717MOL0     H98898   3.066   5.116   9.591 -0.9481 -1.2068  2.2003
  717MOL0     H98899   2.987   4.966   9.596  3.7044  1.6224  3.0172
  717MOL0     H98900   3.076   4.903   9.376 -2.6134 -0.4099  3.1474
  717MOL0     H98901   3.109   5.071   9.328  0.4126 -0.0805 -0.6091
  717MOL0     H98902   3.261   4.948   9.572 -1.3271 -2.4091 -0.1962
  717MOL0     H98903   3.306   4.912   9.410  1.7518  0.9125  0.3967
  717MOL0     H98904   3.460   4.896   9.610  0.3804 -0.5855 -0.5439
  717MOL0     H98905   3.706   4.855   9.795  1.2593  1.7762 -0.1628
  717MOL0     H98906   3.781   4.838   9.627  0.0334  0.8883 -0.4505
  717MOL0     H98907   3.618   4.785   9.663 -0.2013  0.0613 -3.0082
  717MOL0     H98908   4.118   5.079   9.749  0.2460  0.4505 -2.8021
  717MOL0     H98909   4.328   5.144   9.837  0.4255 -0.9668 -1.9988
  717MOL0     H98910   4.480   5.517   9.769  1.3164 -0.0002  0.1769
  717MOL0     H98911   4.404   5.593   9.906  0.9553  0.6089  0.3321
  717MOL0     H98912   4.637   5.609   9.911  1.7084 -0.7630 -0.0056
  717MOL0     H98913   4.557   5.550  10.062 -1.1266 -2.7031  0.3260
  717MOL0     H98914   4.692   5.354   9.872 -3.1276  1.4172 -1.2398
  717MOL0     H98915   4.618   5.328  10.032  0.6410 -1.4194 -0.3203
  717MOL0     H98916   4.763   5.485  10.130  0.4549  0.6904 -0.7755
  717MOL0     H98917   4.850   5.502   9.975 -1.2493  0.6393 -0.4906
  717MOL0     H98918   4.964   5.349  10.126 -0.0097  2.3648 -2.5954
  717MOL0     H98919   4.813   5.242  10.133 -1.4056 -0.4121 -0.1215
  717MOL0     H98920   4.996   5.307   9.891 -2.1221  0.5048 -2.0885
  717MOL0     H98921   4.855   5.200   9.877  0.5569  0.0140  0.8265
  717MOL0     H98922   4.957   5.053  10.044 -1.3800  2.8328  0.5593
  717MOL0     H98923   5.101   5.151  10.052  2.8508 -1.3605 -1.8895
  717MOL0     H98924   5.010   5.083   9.771  0.3125  0.4208  0.3014
  717MOL0     H98925   5.096   4.958   9.867  1.5708 -0.4283 -2.2037
  717MOL0     H98926   4.214   5.562   9.782 -1.6713  0.1776  3.2642
  717MOL0     H98927   4.001   5.486   9.667 -1.2003 -1.4971 -0.8064
  717MOL0     H98928   3.706   5.319   9.555 -2.2181  1.9807  2.4066
  717MOL0     H98929   3.492   5.300   9.450  3.1339  0.9931 -0.4810
  717MOL0     H98930   1.813   5.060   8.726  1.7459 -1.1527  1.0376
  717MOL0     H98931   1.707   5.113   8.504  0.4057 -0.8323 -0.4499
  717MOL0     H98932   1.837   5.522   8.106 -1.9002  2.0347 -0.3455
  717MOL0     H98933   1.715   5.575   7.894 -2.6405  0.2608 -1.5034
  717MOL0     H98934   1.299   5.386   7.888 -0.8367 -0.0912 -1.2117
  717MOL0     H98935   1.263   5.507   7.771 -0.9858  1.1839  1.8576
  717MOL0     H98936   1.271   5.259   7.706 -0.6592  1.1085 -0.7099
  717MOL0     H98937   1.454   5.267   7.728  1.1496  1.8892  0.0533
  717MOL0     H98938   1.447   5.451   7.551 -1.8334  0.9213 -1.6590
  717MOL0     H98939   1.415   5.281   7.509 -0.0248 -0.0965  0.0496
  717MOL0     H98940   1.191   5.466   7.563  0.7154 -0.3767  0.1541
  717MOL0     H98941   1.192   5.300   7.493  0.3598 -0.6650  1.9556
  717MOL0     H98942   1.306   5.518   7.153  1.2056  1.4790  0.6108
  717MOL0     H98943   1.426   5.270   7.997  1.7781 -3.2957  0.0692
  717MOL0     H98944   1.439   5.113   8.175  0.9926 -2.1286  1.0730
  717MOL0     H98945   1.604   5.084   8.215 -0.1440 -0.0840  0.4576
  717MOL0     H98946   1.515   5.200   8.316  3.3178  1.5891  0.6459
  718MOL0     O98947   7.738   2.781   3.974  0.0764  0.1493 -0.3286
  718MOL0     C98948   7.673   2.874   3.919  1.3173  0.5132 -0.5291
  718MOL0     O98949   7.723   2.988   3.860 -0.9063 -0.3150 -0.5411
  718MOL0     C98950   7.854   3.032   3.872 -0.6534  1.0228  0.7445
  718MOL0     C98951   7.959   2.972   3.949 -0.4427  0.2856  0.8355
  718MOL0     C98952   8.093   3.008   3.939 -1.6330  0.2273  0.3909
  718MOL0     C98953   8.129   3.108   3.845  0.0036  0.3180 -1.7141
  718MOL0     O98954   8.260   3.142   3.821 -0.0803  0.2414  0.1338
  718MOL0     C98955   8.312   3.250   3.904 -0.5742  0.9343  0.2980
  718MOL0     C98956   8.391   3.200   4.024 -0.7725  0.3639 -0.4872
  718MOL0     C98957   8.527   3.125   3.983  0.4425 -0.0938 -0.1230
  718MOL0     C98958   8.596   3.037   4.092 -0.5493 -0.3969  0.4079
  718MOL0     C98959   8.740   3.002   4.046 -0.7027 -0.0679  0.7594
  718MOL0     C98960   8.803   2.881   4.120  0.1208 -0.5510  0.1137
  718MOL0     C98961   8.937   2.841   4.056  0.6767  0.1752 -0.5386
  718MOL0     C98962   9.009   2.731   4.126  0.3482 -0.3966 -0.1973
  718MOL0     N98963   9.096   2.762   4.244 -0.4958  0.1158  0.0082
  718MOL0     C98964   9.215   2.832   4.232 -0.1730 -1.4712  0.1336
  718MOL0     C98965   9.291   2.811   4.338 -0.0520 -1.1460 -0.5288
  718MOL0     C98966   9.423   2.860   4.366 -0.7101 -0.5980  0.1565
  718MOL0     C98967   9.442   3.010   4.397  0.4725  0.0778  0.9247
  718MOL0     C98968   9.418   3.105   4.277  0.4565 -0.3388  0.8203
  718MOL0     C98969   9.517   3.090   4.162 -0.5002 -0.0319  0.2156
  718MOL0     O98970   9.648   3.074   4.220 -0.6071 -0.4215  0.2642
  718MOL0     C98971   9.752   3.072   4.128  0.8754  0.4451  1.1192
  718MOL0     C98972   9.750   3.100   3.989  0.5299 -0.9329 -0.4912
  718MOL0     C98973   9.852   3.070   3.899 -0.5177  0.0897 -0.4668
  718MOL0     C98974   9.833   3.084   3.755 -0.1346 -0.4655 -0.2394
  718MOL0     C98975   9.974   3.022   3.957  0.7392  0.4768 -0.0411
  718MOL0     C98976  10.098   2.988   3.885 -0.3196  0.1466  0.1083
  718MOL0     O98977  10.219   2.999   3.952 -0.1557  0.3337 -0.5727
  718MOL0     C98978  10.331   2.978   3.868  0.7998  1.5400 -0.3442
  718MOL0     C98979  10.367   3.055   3.751  0.3735  0.1665  0.0266
  718MOL0     C98980  10.475   3.008   3.670  0.2911  0.0117  0.7485
  718MOL0     C98981  10.549   2.894   3.699  0.4825 -0.5427  0.8697
  718MOL0     O98982  10.638   2.847   3.607  0.3510  0.8594 -0.0841
  718MOL0     C98983  10.755   2.781   3.673  0.2684 -0.2064 -0.2432
  718MOL0     C98984  10.878   2.832   3.604 -0.1427  0.5308  0.6183
  718MOL0     C98985  10.903   2.980   3.642 -0.0586 -0.0425 -0.5401
  718MOL0     C98986  11.008   3.067   3.572  0.2560 -0.1565  0.3078
  718MOL0     C98987  11.043   3.184   3.659 -0.8221  0.2434 -0.7811
  718MOL0     C98988  11.164   3.255   3.613 -0.3010 -0.4259  0.0963
  718MOL0     C98989  11.195   3.374   3.704  0.4854 -0.7210 -0.2244
  718MOL0     C98990  11.274   3.481   3.632 -0.1469 -0.6482 -0.3937
  718MOL0    Cl98991  11.286   3.630   3.716  0.1284  0.0529  0.6839
  718MOL0     C98992  10.508   2.820   3.806 -0.7216 -0.8697  0.1014
  718MOL0     C98993  10.410   2.865   3.898 -0.4975  0.3841  0.6111
  718MOL0     O98994  10.087   2.964   3.762  0.5891  0.1744  0.7039
  718MOL0     C98995   9.981   3.006   4.093 -0.2552 -0.1430 -0.8420
  718MOL0     C98996   9.876   3.035   4.181 -0.7392  0.6991  0.8129
  718MOL0     N98997   9.211   2.727   4.416 -0.0801  1.1577 -0.5445
  718MOL0     N98998   9.095   2.704   4.370  0.2071  0.9722 -0.0709
  718MOL0     C98999   8.028   3.168   3.766 -0.5384  0.2457  0.4791
  718MOL0     C99000   7.894   3.133   3.781  0.1237 -0.3269 -0.5466
  718MOL0     C99001   7.515   2.861   3.916  0.2033  0.6061  0.6977
  718MOL0     C99002   7.427   2.955   3.851  0.6399  0.0930 -0.8951
  718MOL0     C99003   7.290   2.946   3.845  0.4369 -0.3102  0.1054
  718MOL0     C99004   7.233   2.838   3.903 -0.5840  0.3518 -0.0170
  718MOL0     O99005   7.095   2.827   3.920 -0.0034  0.7789  0.3409
  718MOL0     C99006   7.001   2.898   3.841 -0.9019  0.1786  0.1221
  718MOL0     C99007   6.916   2.800   3.765  0.2033  0.3389  0.0655
  718MOL0     C99008   6.824   2.708   3.843  0.3735  0.6090 -0.6612
  718MOL0     C99009   6.743   2.621   3.746 -0.1564  0.0681 -0.3135
  718MOL0     C99010   6.639   2.549   3.805  0.5755 -0.3049  0.3662
  718MOL0     C99011   6.559   2.476   3.865 -0.1793 -1.2241  0.0220
  718MOL0     C99012   7.303   2.748   3.980  0.0119 -0.2129 -0.4739
  718MOL0     C99013   7.443   2.754   3.981  0.5216  1.4887  0.6221
  718MOL0     C99014   7.504   2.635   4.063 -0.0550  0.5891 -0.3182
  718MOL0     H99015   7.939   2.893   4.021 -5.7795 -0.1544 -0.7022
  718MOL0     H99016   8.171   2.964   4.001 -0.7186  1.8920  0.4913
  718MOL0     H99017   8.224   3.301   3.942 -0.1646  0.5004  1.8876
  718MOL0     H99018   8.374   3.319   3.846  0.3284  2.0888  2.5439
  718MOL0     H99019   8.437   3.289   4.069  3.0903 -1.1193 -1.0532
  718MOL0     H99020   8.340   3.143   4.102  1.4759  0.2108  0.9694
  718MOL0     H99021   8.510   3.058   3.898  0.0169 -3.4290  2.4275
  718MOL0     H99022   8.600   3.201   3.951  1.7002 -2.0146 -2.1343
  718MOL0     H99023   8.609   3.097   4.183 -0.7010  2.9804 -1.6258
  718MOL0     H99024   8.532   2.950   4.101 -0.7976 -0.2318  0.2456
  718MOL0     H99025   8.803   3.089   4.066  0.6845 -0.6267 -0.9210
  718MOL0     H99026   8.745   2.981   3.939 -1.6192 -0.5481  0.7983
  718MOL0     H99027   8.814   2.906   4.226  2.1639 -3.0234  0.6004
  718MOL0     H99028   8.741   2.792   4.111  0.6251 -0.9253  0.2939
  718MOL0     H99029   9.002   2.928   4.044  0.2574  0.6990  0.7703
  718MOL0     H99030   8.901   2.813   3.956 -2.0836  2.1910 -0.2423
  718MOL0     H99031   8.932   2.658   4.154 -0.4734  0.6737  0.4099
  718MOL0     H99032   9.066   2.682   4.047 -0.1710  0.9665 -1.4679
  718MOL0     H99033   9.244   2.885   4.142 -1.6643 -0.4104  0.2571
  718MOL0     H99034   9.490   2.845   4.281  1.4935  4.6304  0.5989
  718MOL0     H99035   9.452   2.808   4.457  0.3280  0.9452  0.7508
  718MOL0     H99036   9.362   3.019   4.471 -0.6853 -0.0716 -0.2687
  718MOL0     H99037   9.530   3.028   4.459  0.4263  0.0787  0.9904
  718MOL0     H99038   9.317   3.087   4.240 -1.1862  1.5158  3.9821
  718MOL0     H99039   9.422   3.205   4.321 -1.9620  0.3270 -0.3124
  718MOL0     H99040   9.504   2.997   4.106  1.2638  0.4897 -1.1224
  718MOL0     H99041   9.504   3.176   4.095  0.4567  0.4675  0.6607
  718MOL0     H99042   9.654   3.124   3.944 -2.1000 -2.3277  3.7271
  718MOL0     H99043   9.900   3.160   3.716 -1.2342  0.1078 -1.0846
  718MOL0     H99044   9.732   3.113   3.724  0.4569  4.6840  1.8044
  718MOL0     H99045   9.856   2.991   3.702  0.9282 -0.1506 -0.3401
  718MOL0     H99046  10.310   3.145   3.729  0.9330  0.5831  0.2474
  718MOL0     H99047  10.508   3.061   3.582 -1.8444 -2.5337 -1.7927
  718MOL0     H99048  10.763   2.802   3.780  1.3618  0.2168 -0.4040
  718MOL0     H99049  10.751   2.672   3.679 -1.2567 -0.1280  1.0648
  718MOL0     H99050  10.968   2.771   3.618 -0.5493 -0.5900 -1.2003
  718MOL0     H99051  10.849   2.829   3.498  0.2467  1.1707  0.4912
  718MOL0     H99052  10.939   2.978   3.745 -0.4601 -0.4327 -0.4062
  718MOL0     H99053  10.807   3.033   3.642 -0.8973 -1.3334 -3.3618
  718MOL0     H99054  10.962   3.114   3.485  0.9020  2.2123  1.1767
  718MOL0     H99055  11.099   3.013   3.546 -0.8451 -0.6035 -3.0951
  718MOL0     H99056  10.953   3.246   3.667 -1.3249 -0.4577 -0.8640
  718MOL0     H99057  11.076   3.144   3.755  1.3926  2.0914 -0.6892
  718MOL0     H99058  11.140   3.290   3.512 -0.4304 -0.4284  0.1258
  718MOL0     H99059  11.246   3.183   3.608 -2.7735 -3.4141 -0.4376
  718MOL0     H99060  11.257   3.339   3.787  0.6133 -0.4814 -0.2204
  718MOL0     H99061  11.104   3.427   3.730  0.4140  1.5406 -4.2183
  718MOL0     H99062  11.237   3.503   3.531 -0.2425  1.2769  0.0321
  718MOL0     H99063  11.374   3.437   3.627 -1.4456 -4.8035  3.5077
  718MOL0     H99064  10.559   2.725   3.823 -1.2547 -1.6302 -2.1136
  718MOL0     H99065  10.396   2.808   3.989  3.5243 -2.7625 -0.4155
  718MOL0     H99066  10.068   2.957   4.133 -0.8187  0.8175  1.7660
  718MOL0     H99067   9.866   3.007   4.285 -0.7322  0.6559  0.8020
  718MOL0     H99068   8.058   3.231   3.682 -1.1873 -1.3969 -1.0456
  718MOL0     H99069   7.813   3.178   3.725  1.2152  2.9105  0.2413
  718MOL0     H99070   7.480   3.033   3.796  0.2624  0.5323 -0.6451
  718MOL0     H99071   7.233   3.016   3.783  3.0801 -0.7389 -3.1174
  718MOL0     H99072   6.933   2.962   3.899  0.6956  2.9665 -0.9138
  718MOL0     H99073   7.049   2.964   3.769  1.3285  0.2183  1.5541
  718MOL0     H99074   6.974   2.752   3.686  3.5735 -1.0404  3.0665
  718MOL0     H99075   6.838   2.851   3.708 -1.0447 -0.6001  0.8783
  718MOL0     H99076   6.890   2.644   3.901 -0.5374 -0.9149 -1.2563
  718MOL0     H99077   6.753   2.759   3.909 -0.8566 -0.7183 -0.9162
  718MOL0     H99078   6.809   2.542   3.709 -0.5583  0.8767 -2.9975
  718MOL0     H99079   6.716   2.690   3.665  3.2182  2.9521  0.7346
  718MOL0     H99080   6.498   2.401   3.910  1.7397 -2.4990  0.5884
  718MOL0     H99081   7.248   2.681   4.044  2.9599 -0.7662  1.6671
  718MOL0     H99082   7.589   2.593   4.008  0.4554  0.9234  0.2070
  718MOL0     H99083   7.535   2.669   4.162  2.0285 -0.4934 -0.5367
  718MOL0     H99084   7.426   2.562   4.086 -0.0088  0.2770 -1.0910
  719MOL0     O99085   2.988   5.904   7.945 -0.1845 -0.7688 -0.5301
  719MOL0     C99086   2.901   5.868   7.864  0.5164 -0.8106  0.5424
  719MOL0     O99087   2.919   5.764   7.778  0.3523 -0.2054 -0.4694
  719MOL0     C99088   3.050   5.709   7.770  0.2245 -0.0211  1.1126
  719MOL0     C99089   3.111   5.714   7.642  0.4339 -0.5376  0.0207
  719MOL0     C99090   3.220   5.633   7.607 -0.1674  0.7221 -0.2396
  719MOL0     C99091   3.281   5.562   7.709  0.1712 -0.0646 -0.4652
  719MOL0     O99092   3.402   5.493   7.690  0.4713  0.3501  0.1090
  719MOL0     C99093   3.382   5.366   7.612  0.4381  0.2658 -0.1849
  719MOL0     C99094   3.511   5.344   7.531 -0.5728  0.3374 -0.0882
  719MOL0     C99095   3.643   5.323   7.622  0.2361  0.6295  0.9690
  719MOL0     C99096   3.759   5.235   7.554 -0.4908 -0.1024  0.0181
  719MOL0     C99097   3.863   5.190   7.658  0.2238  0.9273  0.2351
  719MOL0     C99098   3.909   5.303   7.745 -0.6319  0.8944  0.1073
  719MOL0     C99099   4.006   5.281   7.866 -0.4022 -0.1913  0.0732
  719MOL0     C99100   4.159   5.273   7.828 -0.7569 -0.5943 -0.1580
  719MOL0     N99101   4.204   5.144   7.783  0.2670 -0.0085  0.6248
  719MOL0     C99102   4.161   5.017   7.826  0.2873  0.7207 -0.4777
  719MOL0     C99103   4.230   4.921   7.755 -0.5907 -0.0711  0.5954
  719MOL0     C99104   4.208   4.773   7.769  0.6666 -0.7638  0.1884
  719MOL0     C99105   4.315   4.690   7.835 -0.1373 -0.3291  0.7579
  719MOL0     C99106   4.421   4.661   7.726  0.7201  0.2411  0.5653
  719MOL0     C99107   4.556   4.614   7.770  0.5463 -0.8127  0.0508
  719MOL0     O99108   4.641   4.580   7.654  0.2268 -0.5750  0.7344
  719MOL0     C99109   4.768   4.603   7.673 -0.4305  0.1327 -0.2979
  719MOL0     C99110   4.838   4.578   7.792 -1.3859  0.0020  0.2908
  719MOL0     C99111   4.975   4.614   7.802 -0.1241  1.0310  0.4924
  719MOL0     C99112   5.031   4.610   7.942 -0.2009  0.4729  0.3811
  719MOL0     C99113   5.041   4.663   7.678  0.8060  0.1273  0.1699
  719MOL0     C99114   5.180   4.714   7.681  0.8228 -0.8655 -0.4181
  719MOL0     O99115   5.267   4.619   7.704 -0.1416  0.2223 -0.5067
  719MOL0     C99116   5.394   4.661   7.709 -0.0354  0.5619 -1.0960
  719MOL0     C99117   5.469   4.634   7.824  0.1497  0.2372  0.3861
  719MOL0     C99118   5.606   4.634   7.817 -1.0899 -0.8950 -0.4192
  719MOL0     C99119   5.672   4.662   7.698 -0.2495  0.5375 -0.4745
  719MOL0     O99120   5.813   4.647   7.700  0.1624 -1.4008  0.0543
  719MOL0     C99121   5.907   4.661   7.589 -0.0751  0.5105  0.7785
  719MOL0     C99122   5.928   4.807   7.564 -0.1459 -0.5928  0.6828
  719MOL0     C99123   5.994   4.874   7.687  0.2142 -0.7008  0.0316
  719MOL0     C99124   6.029   5.021   7.643  0.4302 -0.2771 -0.7902
  719MOL0     C99125   6.115   5.092   7.748  0.6041  0.0873  0.4485
  719MOL0     C99126   6.273   5.068   7.742  0.3854 -0.3073  0.2513
  719MOL0     C99127   6.347   5.167   7.828 -1.3329 -0.9139 -0.4588
  719MOL0     C99128   6.338   5.150   7.976 -1.1567 -0.5046 -0.1754
  719MOL0    Cl99129   6.439   5.015   8.017 -0.2958 -0.1438 -0.1362
  719MOL0     C99130   5.600   4.676   7.585  0.6429 -0.2550 -0.1233
  719MOL0     C99131   5.457   4.678   7.588 -1.4014  0.4957  0.5190
  719MOL0     O99132   5.213   4.828   7.646 -0.3989 -0.9585 -0.3719
  719MOL0     C99133   4.972   4.668   7.552  0.2932 -0.0318  0.5803
  719MOL0     C99134   4.834   4.637   7.560 -0.0122 -0.7801  0.2469
  719MOL0     N99135   4.313   4.989   7.661 -0.4505  0.2150 -0.2896
  719MOL0     N99136   4.295   5.119   7.680  0.1146  0.6207 -0.0381
  719MOL0     C99137   3.220   5.552   7.837 -0.0754 -0.7217  0.4895
  719MOL0     C99138   3.105   5.632   7.870  0.1709  0.2045  0.4607
  719MOL0     C99139   2.771   5.943   7.838  0.6466  0.1639  0.0665
  719MOL0     C99140   2.714   5.938   7.711 -0.0220  1.0205 -0.9481
  719MOL0     C99141   2.589   5.998   7.678 -0.3724  0.2127 -0.5243
  719MOL0     C99142   2.520   6.069   7.769 -0.0801 -0.3757  0.0679
  719MOL0     O99143   2.404   6.133   7.728 -0.2443  0.0876 -0.3761
  719MOL0     C99144   2.292   6.144   7.816  0.9558  0.2267 -0.2396
  719MOL0     C99145   2.165   6.199   7.739  1.0731 -0.3269 -0.2244
  719MOL0     C99146   2.056   6.214   7.847  0.8156 -0.1385 -0.5179
  719MOL0     C99147   1.923   6.280   7.797  0.7058  0.2918 -0.2036
  719MOL0     C99148   1.823   6.318   7.898 -0.8614 -0.5059  0.9906
  719MOL0     C99149   1.737   6.349   7.976 -0.0797 -0.2047 -0.5444
  719MOL0     C99150   2.573   6.071   7.902  0.4671  0.0828 -0.3710
  719MOL0     C99151   2.695   6.009   7.934 -0.1520 -0.9705  0.5582
  719MOL0     C99152   2.724   5.997   8.085  0.1899 -0.2204 -0.4075
  719MOL0     H99153   3.061   5.773   7.566  2.7431 -0.3502 -1.4334
  719MOL0     H99154   3.239   5.655   7.503  0.6246  0.2370 -0.2031
  719MOL0     H99155   3.296   5.375   7.545  1.5922  0.8297 -1.6555
  719MOL0     H99156   3.372   5.278   7.675  1.7391 -0.8128 -1.3979
  719MOL0     H99157   3.505   5.251   7.474  0.5901  1.1135 -1.5378
  719MOL0     H99158   3.535   5.431   7.469  3.3266  0.7057  1.6515
  719MOL0     H99159   3.674   5.423   7.653  1.6880  0.5142 -0.0686
  719MOL0     H99160   3.615   5.280   7.719 -0.6783  2.3077  1.5010
  719MOL0     H99161   3.716   5.144   7.513  1.7965 -1.8483  1.2819
  719MOL0     H99162   3.801   5.284   7.465 -0.0191 -0.2579  0.1501
  719MOL0     H99163   3.951   5.153   7.605 -0.3776 -1.1081  0.5682
  719MOL0     H99164   3.823   5.113   7.725  1.1753 -2.7715 -3.0743
  719MOL0     H99165   3.938   5.392   7.688 -0.2214 -1.0742 -2.9547
  719MOL0     H99166   3.818   5.338   7.795 -1.2928 -1.2499  0.5242
  719MOL0     H99167   3.974   5.195   7.926  0.8651 -0.9382 -0.2940
  719MOL0     H99168   4.002   5.363   7.939  0.8790 -3.6589  4.5397
  719MOL0     H99169   4.192   5.343   7.752  2.1095 -1.9434 -0.3017
  719MOL0     H99170   4.219   5.290   7.918 -1.2578  1.3932 -0.1496
  719MOL0     H99171   4.083   5.002   7.901  2.1617 -1.1686  1.2377
  719MOL0     H99172   4.189   4.738   7.667 -1.1871  0.0904  0.1959
  719MOL0     H99173   4.109   4.759   7.813  0.4061  1.9588  0.6324
  719MOL0     H99174   4.357   4.747   7.918 -1.7839  0.9922  0.7296
  719MOL0     H99175   4.279   4.596   7.878 -0.6482 -0.6721 -0.3862
  719MOL0     H99176   4.376   4.587   7.659 -0.7811  0.9249  0.7827
  719MOL0     H99177   4.428   4.748   7.660  1.4136 -1.9792 -2.4874
  719MOL0     H99178   4.600   4.691   7.834  0.6288  0.4979 -1.5048
  719MOL0     H99179   4.534   4.531   7.838  2.8425  0.0095  1.9383
  719MOL0     H99180   4.781   4.556   7.882  0.5412  0.4097  1.6988
  719MOL0     H99181   5.117   4.677   7.955  0.1480 -0.1473  1.3958
  719MOL0     H99182   5.057   4.513   7.987  0.1369  0.3006 -0.1792
  719MOL0     H99183   4.954   4.648   8.010 -0.7464 -1.9494  1.2379
  719MOL0     H99184   5.412   4.610   7.913 -1.0319  0.1158 -0.3821
  719MOL0     H99185   5.668   4.638   7.906  0.7406 -1.7657 -1.5747
  719MOL0     H99186   6.006   4.621   7.614  0.5660 -0.1702 -2.3311
  719MOL0     H99187   5.875   4.612   7.497  0.6335  0.9402  0.2895
  719MOL0     H99188   6.005   4.815   7.487  0.9458  1.3945  1.8967
  719MOL0     H99189   5.839   4.868   7.546 -1.2906 -3.0268 -2.8688
  719MOL0     H99190   6.089   4.829   7.718  0.6699 -0.1028 -0.4836
  719MOL0     H99191   5.928   4.888   7.773 -0.0046 -0.2422 -0.2072
  719MOL0     H99192   5.935   5.076   7.631 -0.3493 -1.0128  1.3668
  719MOL0     H99193   6.076   5.020   7.544  0.2121 -0.4430 -0.8928
  719MOL0     H99194   6.098   5.198   7.726  0.0752 -0.0983 -0.0619
  719MOL0     H99195   6.078   5.078   7.850  1.1668 -3.3387  0.2762
  719MOL0     H99196   6.293   5.071   7.634  0.0185  1.5146  0.2041
  719MOL0     H99197   6.287   4.966   7.778  1.7857 -1.1916 -2.5076
  719MOL0     H99198   6.315   5.271   7.815 -2.1912 -0.9613  0.9917
  719MOL0     H99199   6.448   5.161   7.786 -0.9861  0.0632  0.2009
  719MOL0     H99200   6.239   5.132   8.020  0.3442 -1.3688  3.1535
  719MOL0     H99201   6.368   5.242   8.027 -0.7768 -1.2780  1.0222
  719MOL0     H99202   5.652   4.687   7.491  0.5055 -0.0369 -0.1755
  719MOL0     H99203   5.393   4.669   7.501  0.9001  0.2952 -1.2488
  719MOL0     H99204   5.018   4.700   7.459 -0.1408 -3.3682 -0.9455
  719MOL0     H99205   4.770   4.649   7.472  0.4513  2.4066  0.2499
  719MOL0     H99206   3.258   5.487   7.915 -0.3826  0.9611  2.1220
  719MOL0     H99207   3.077   5.640   7.974  2.7480  2.6926  1.1102
  719MOL0     H99208   2.761   5.889   7.626  3.3001  1.0543  0.6996
  719MOL0     H99209   2.547   5.992   7.579  0.2637  2.1415 -0.9450
  719MOL0     H99210   2.271   6.046   7.860  1.2802 -0.5885 -1.7989
  719MOL0     H99211   2.328   6.213   7.892  0.3176 -0.1131  0.3744
  719MOL0     H99212   2.133   6.124   7.667  5.1107 -0.8306 -1.7528
  719MOL0     H99213   2.182   6.301   7.704  0.8075 -0.8539 -2.0060
  719MOL0     H99214   2.052   6.111   7.885 -0.6521 -0.3570 -1.2075
  719MOL0     H99215   2.099   6.270   7.931 -1.4452 -2.1398  2.1624
  719MOL0     H99216   1.868   6.205   7.740  0.3255 -1.1250  1.9356
  719MOL0     H99217   1.945   6.362   7.728  1.3266  3.4637  3.4109
  719MOL0     H99218   1.671   6.367   8.058  1.3939 -0.5845  0.7902
  719MOL0     H99219   2.520   6.127   7.978  0.1483  2.1070 -1.9871
  719MOL0     H99220   2.741   5.890   8.100  0.8039 -0.5685 -3.1211
  719MOL0     H99221   2.820   6.044   8.109 -0.9091  0.9343  2.0570
  719MOL0     H99222   2.647   6.041   8.149  0.5461 -0.8280  0.4593
  720MOL0     O99223   3.422   8.170   2.122 -0.5600 -0.5018 -0.1899
  720MOL0     C99224   3.312   8.126   2.143  0.2670  0.4410  1.3551
  720MOL0     O99225   3.263   8.091   2.269  0.7705  0.3547 -0.1041
  720MOL0     C99226   3.351   8.064   2.372 -0.2143 -0.2595  0.2590
  720MOL0     C99227   3.477   8.011   2.343 -0.6699  0.7210  0.0778
  720MOL0     C99228   3.569   7.979   2.441  0.5206 -0.4378 -0.0209
  720MOL0     C99229   3.537   7.997   2.576 -0.3971 -0.6616 -0.3917
  720MOL0     O99230   3.631   7.955   2.665  0.7436  0.6417 -0.7312
  720MOL0     C99231   3.691   8.064   2.722  0.2024  0.1532 -0.3779
  720MOL0     C99232   3.761   8.026   2.854 -0.5401  1.1147 -0.1198
  720MOL0     C99233   3.830   7.888   2.838 -0.9465 -0.7900  0.2059
  720MOL0     C99234   3.920   7.876   2.964  0.1869 -0.0062  0.7553
  720MOL0     C99235   3.927   7.721   2.996 -0.2404 -0.2105  0.0388
  720MOL0     C99236   4.037   7.681   3.094  0.9765 -0.2421 -0.0003
  720MOL0     C99237   4.042   7.532   3.119 -0.2867  0.4136  0.2866
  720MOL0     C99238   4.112   7.459   2.998  0.9290  0.4745  0.1662
  720MOL0     N99239   4.174   7.338   3.046 -0.3126  0.2488 -0.4003
  720MOL0     C99240   4.109   7.219   3.047  0.8654  0.2094  0.6936
  720MOL0     C99241   4.204   7.126   3.078  0.0855 -0.7494 -0.2062
  720MOL0     C99242   4.167   6.984   3.070  0.2247  0.2080  0.1363
  720MOL0     C99243   4.156   6.928   3.210  0.3693 -0.4286 -0.7314
  720MOL0     C99244   4.144   6.779   3.223 -0.1291 -0.5321 -0.0368
  720MOL0     C99245   4.282   6.715   3.198  0.4515 -0.2044  0.7710
  720MOL0     O99246   4.390   6.789   3.267  0.3210 -0.3090 -0.3165
  720MOL0     C99247   4.508   6.786   3.196 -0.3764  0.1411 -0.0972
  720MOL0     C99248   4.589   6.899   3.204  0.1883  0.3513 -0.1510
  720MOL0     C99249   4.728   6.888   3.161  0.3611 -0.1318  0.0426
  720MOL0     C99250   4.814   7.011   3.165 -0.3775  0.2440 -0.2787
  720MOL0     C99251   4.769   6.763   3.098  0.3951  0.4210 -0.4876
  720MOL0     C99252   4.888   6.749   3.019 -0.2930  0.3497 -1.5690
  720MOL0     O99253   4.957   6.628   3.053 -0.0914 -0.6553  0.2381
  720MOL0     C99254   5.081   6.617   3.010  0.0362  0.8510  0.1738
  720MOL0     C99255   5.172   6.721   3.016 -0.6256 -0.6377  1.0101
  720MOL0     C99256   5.306   6.705   2.982 -0.5675  0.6673 -0.6312
  720MOL0     C99257   5.357   6.580   2.933 -0.6374  0.1730 -0.0286
  720MOL0     O99258   5.494   6.558   2.909 -0.5469 -0.3788  0.0408
  720MOL0     C99259   5.585   6.584   3.015  0.8434  0.7342 -0.3131
  720MOL0     C99260   5.726   6.622   2.967 -0.3931  0.0183 -0.3010
  720MOL0     C99261   5.714   6.743   2.878 -0.3096  0.0823  0.3506
  720MOL0     C99262   5.861   6.775   2.822 -0.0766  0.3757 -0.5692
  720MOL0     C99263   5.866   6.917   2.761  0.0076  0.4857 -0.2756
  720MOL0     C99264   5.790   6.934   2.629 -0.5125 -0.0163  0.3417
  720MOL0     C99265   5.801   7.079   2.589 -0.1312 -0.2836  0.5602
  720MOL0     C99266   5.700   7.118   2.475 -0.9789  0.6922  0.3963
  720MOL0    Cl99267   5.693   7.288   2.409  0.3697  0.2254 -0.6155
  720MOL0     C99268   5.273   6.473   2.931  0.0146  0.2009 -0.1511
  720MOL0     C99269   5.139   6.491   2.976 -0.5439 -0.0835 -0.2693
  720MOL0     O99270   4.910   6.826   2.923 -0.1954 -0.1260 -0.0257
  720MOL0     C99271   4.689   6.655   3.098 -0.6507 -0.2379  0.1966
  720MOL0     C99272   4.562   6.663   3.146  0.2129 -0.3858  0.2651
  720MOL0     N99273   4.327   7.193   3.097  0.5695  0.0541 -0.0767
  720MOL0     N99274   4.303   7.322   3.082  0.2415  0.2281 -0.6347
  720MOL0     C99275   3.412   8.051   2.603  0.0409  0.3533 -0.5120
  720MOL0     C99276   3.324   8.080   2.504  0.1197  0.2790 -0.4827
  720MOL0     C99277   3.219   8.089   2.025 -0.6795 -0.1176  0.7208
  720MOL0     C99278   3.086   8.109   2.044 -0.7294 -0.4181  0.2343
  720MOL0     C99279   2.994   8.078   1.944 -0.0014 -1.0669 -1.2655
  720MOL0     C99280   3.036   8.031   1.816 -0.2100  0.2598  0.3408
  720MOL0     O99281   2.930   8.000   1.740 -0.6230 -0.6249  0.6163
  720MOL0     C99282   2.958   7.994   1.603  1.6447  0.4833  0.7590
  720MOL0     C99283   2.922   8.122   1.517  0.2712 -0.1257 -0.2437
  720MOL0     C99284   2.775   8.164   1.503 -0.0154  0.5344 -0.4670
  720MOL0     C99285   2.673   8.043   1.458 -0.3947 -0.0653  0.7778
  720MOL0     C99286   2.535   8.099   1.449 -0.0163 -0.1148 -0.6403
  720MOL0     C99287   2.423   8.141   1.431 -0.6014 -0.0138 -0.0191
  720MOL0     C99288   3.174   8.014   1.793 -0.0508  0.6896  0.1040
  720MOL0     C99289   3.261   8.056   1.891  0.2686 -0.5319  0.0441
  720MOL0     C99290   3.398   8.028   1.859  0.5660 -0.1044 -0.2885
  720MOL0     H99291   3.514   7.978   2.247  0.7086 -1.2442  1.1989
  720MOL0     H99292   3.661   7.936   2.403  0.9127 -2.6201  3.0898
  720MOL0     H99293   3.610   8.132   2.752  0.8954  0.0960  1.7754
  720MOL0     H99294   3.763   8.101   2.650 -1.0719  4.0264  0.0718
  720MOL0     H99295   3.833   8.100   2.891  2.0824 -0.7650 -1.1231
  720MOL0     H99296   3.679   8.032   2.926 -1.7403  1.0850 -1.4466
  720MOL0     H99297   3.761   7.803   2.837  2.2747 -3.5848 -0.5095
  720MOL0     H99298   3.880   7.883   2.741 -1.9990  1.9056 -0.5600
  720MOL0     H99299   4.018   7.920   2.945 -0.4943  0.2576 -2.8444
  720MOL0     H99300   3.869   7.930   3.045 -0.5969  0.8174 -0.2656
  720MOL0     H99301   3.934   7.664   2.902  2.8567 -1.2961  0.8391
  720MOL0     H99302   3.832   7.685   3.037 -0.6127  0.0980 -0.5285
  720MOL0     H99303   4.132   7.713   3.051  1.4745  2.0487  2.5695
  720MOL0     H99304   4.004   7.722   3.190 -1.9375  2.0329 -1.7840
  720MOL0     H99305   3.940   7.494   3.126 -0.2139 -0.2465 -1.7502
  720MOL0     H99306   4.102   7.510   3.208 -1.3576  0.0329  0.9338
  720MOL0     H99307   4.033   7.431   2.927  0.3407  2.3293  0.0406
  720MOL0     H99308   4.183   7.530   2.953  0.2081  1.6353  0.8226
  720MOL0     H99309   4.005   7.205   3.018  0.9333  1.1659 -0.0485
  720MOL0     H99310   4.225   6.912   3.011 -1.2915 -0.2937 -0.8058
  720MOL0     H99311   4.066   6.978   3.028  0.9210 -3.4970 -1.4167
  720MOL0     H99312   4.236   6.967   3.274 -0.0593 -0.5032 -0.1390
  720MOL0     H99313   4.070   6.974   3.260  1.7026  1.6518 -0.2273
  720MOL0     H99314   4.110   6.758   3.325  2.5303  0.1386  1.0762
  720MOL0     H99315   4.066   6.744   3.154 -3.2260 -0.4061  3.1029
  720MOL0     H99316   4.290   6.613   3.238  3.1365 -0.8064 -1.0362
  720MOL0     H99317   4.296   6.707   3.090  0.9579 -1.8215  0.9345
  720MOL0     H99318   4.552   6.992   3.246  1.2553  1.5481 -1.7240
  720MOL0     H99319   4.817   7.058   3.066 -2.3969  0.3852 -0.3126
  720MOL0     H99320   4.919   6.983   3.168 -0.6931 -1.0310 -0.7452
  720MOL0     H99321   4.781   7.082   3.241  2.1127 -0.3388  1.4762
  720MOL0     H99322   5.145   6.816   3.059  0.2514  0.0005  0.1904
  720MOL0     H99323   5.369   6.790   3.006 -0.1168  0.2515 -0.3308
  720MOL0     H99324   5.545   6.669   3.071  1.6857  2.0872 -1.6703
  720MOL0     H99325   5.586   6.493   3.076  1.3879  2.8415  3.1402
  720MOL0     H99326   5.795   6.623   3.052 -0.7600  0.4798 -0.0052
  720MOL0     H99327   5.763   6.538   2.908  1.1189  0.3556  0.1236
  720MOL0     H99328   5.685   6.828   2.942 -0.1182  1.4876 -1.3695
  720MOL0     H99329   5.645   6.718   2.797  0.4122 -3.4238  0.6552
  720MOL0     H99330   5.889   6.702   2.745  0.6791  0.5337 -0.4476
  720MOL0     H99331   5.925   6.773   2.911  0.6876  1.3364 -1.0823
  720MOL0     H99332   5.820   6.988   2.830  1.7403 -1.5525  3.2779
  720MOL0     H99333   5.973   6.930   2.742 -0.2652  0.3236 -2.0667
  720MOL0     H99334   5.686   6.902   2.636 -0.4432 -0.0677  1.2710
  720MOL0     H99335   5.843   6.887   2.546  1.6342  1.9810  0.4767
  720MOL0     H99336   5.902   7.092   2.551  0.0422 -1.1317  0.7078
  720MOL0     H99337   5.783   7.145   2.674 -0.7665 -1.1895  1.1522
  720MOL0     H99338   5.599   7.089   2.505 -0.7470  1.8143  2.4265
  720MOL0     H99339   5.728   7.056   2.389 -0.9076  0.3018  0.6951
  720MOL0     H99340   5.317   6.377   2.909 -3.0804 -1.4986  0.4528
  720MOL0     H99341   5.068   6.411   2.959  0.4125 -0.9882 -0.0495
  720MOL0     H99342   4.721   6.565   3.046 -1.8456 -0.1949 -0.6495
  720MOL0     H99343   4.496   6.577   3.137  2.4006 -2.0396 -0.9667
  720MOL0     H99344   3.376   8.069   2.703 -1.1517  2.2292 -1.2186
  720MOL0     H99345   3.227   8.106   2.545  1.2783  2.5990  1.0002
  720MOL0     H99346   3.050   8.147   2.140  0.3720  0.5951  0.2713
  720MOL0     H99347   2.888   8.094   1.958 -0.0264  0.1965 -2.6518
  720MOL0     H99348   3.064   7.980   1.582  1.6380  2.1588 -0.6802
  720MOL0     H99349   2.907   7.902   1.570 -0.8781  1.2557  2.1765
  720MOL0     H99350   2.975   8.123   1.422  0.5485 -0.5354 -0.0959
  720MOL0     H99351   2.969   8.208   1.566 -2.0647  1.6870 -0.9895
  720MOL0     H99352   2.741   8.220   1.591 -0.1517  1.4064 -1.0606
  720MOL0     H99353   2.769   8.240   1.425 -4.0440 -0.8768 -1.7641
  720MOL0     H99354   2.673   7.973   1.542 -5.4622  2.3849  3.2525
  720MOL0     H99355   2.699   8.000   1.361 -1.5351  1.3326 -0.1864
  720MOL0     H99356   2.324   8.172   1.406 -0.2037  0.9852 -0.4017
  720MOL0     H99357   3.206   7.964   1.702 -1.8684 -2.0109  0.8157
  720MOL0     H99358   3.452   8.123   1.857 -2.1295  1.5460  0.3876
  720MOL0     H99359   3.438   7.966   1.940  2.8503  0.7660 -0.6730
  720MOL0     H99360   3.415   7.960   1.774 -0.1596  0.4378 -0.8702
  721MOL0     O99361   0.462   5.325  11.208  0.7228  0.2681 -0.3492
  721MOL0     C99362   0.349   5.363  11.250 -0.1371  0.3225 -0.0310
  721MOL0     O99363   0.335   5.461  11.347 -0.5797 -0.1715  0.0092
  721MOL0     C99364   0.450   5.532  11.371 -0.0720  0.1656 -0.1831
  721MOL0     C99365   0.564   5.487  11.440  0.2808  0.6740  0.7795
  721MOL0     C99366   0.675   5.576  11.453 -0.5721  0.1685 -0.0895
  721MOL0     C99367   0.678   5.708  11.394  0.4577  0.5061 -0.4098
  721MOL0     O99368   0.786   5.787  11.407  0.1705  0.0818  0.0439
  721MOL0     C99369   0.886   5.766  11.508 -0.3529 -0.1113  0.9912
  721MOL0     C99370   1.013   5.846  11.464 -0.0776  0.6167 -0.3083
  721MOL0     C99371   1.002   5.998  11.504 -0.5522 -0.0095  0.0480
  721MOL0     C99372   1.059   6.014  11.644  0.7008 -0.2190 -0.6745
  721MOL0     C99373   1.019   6.149  11.704 -0.0512  0.0965  0.0511
  721MOL0     C99374   1.080   6.188  11.834  0.0605  0.1832 -0.0592
  721MOL0     C99375   1.006   6.297  11.910 -0.8719  0.4190 -0.7322
  721MOL0     C99376   1.093   6.353  12.024 -0.9230 -0.6031  0.1833
  721MOL0     N99377   1.116   6.252  12.127  0.5163  0.2824 -0.3093
  721MOL0     C99378   1.018   6.174  12.187 -0.5296 -0.9362  0.2102
  721MOL0     C99379   1.090   6.088  12.264  0.5766  0.4210  0.2974
  721MOL0     C99380   1.037   5.982  12.351 -0.0765  0.3176 -0.3502
  721MOL0     C99381   1.019   6.043  12.493 -0.0195 -0.4059  0.3211
  721MOL0     C99382   0.912   6.156  12.513 -0.0982 -0.3423  0.5403
  721MOL0     C99383   0.899   6.190  12.655 -1.0049  0.3676  0.7239
  721MOL0     O99384   0.850   6.074  12.726 -0.0808 -0.2305  0.4664
  721MOL0     C99385   0.722   6.039  12.701  0.1607  0.3986  0.0942
  721MOL0     C99386   0.626   6.112  12.627  0.3993 -1.7458  0.1163
  721MOL0     C99387   0.500   6.055  12.594  0.3222 -0.7781 -0.9341
  721MOL0     C99388   0.404   6.136  12.513 -0.2132  0.0171  0.5479
  721MOL0     C99389   0.476   5.918  12.624 -0.2469  0.0760  0.7558
  721MOL0     C99390   0.355   5.837  12.572 -0.4816 -0.4657 -0.5306
  721MOL0     O99391   0.234   5.871  12.591 -0.3106 -0.2951 -0.5514
  721MOL0     C99392   0.135   5.775  12.556  0.2833 -0.0407  0.4837
  721MOL0     C99393   0.081   5.714  12.665 -0.0158  0.8171  0.4840
  721MOL0     C99394  -0.027   5.621  12.645 -0.0104  0.2434 -0.3080
  721MOL0     C99395  -0.051   5.567  12.514  0.2193 -0.6640 -0.4258
  721MOL0     O99396  -0.151   5.472  12.498  0.0510 -0.3105 -0.5357
  721MOL0     C99397  -0.139   5.357  12.580  1.0346  0.0824  0.3796
  721MOL0     C99398  -0.048   5.258  12.508 -0.2283  0.3722  0.0028
  721MOL0     C99399  -0.075   5.118  12.564 -0.5933  0.5398 -0.0151
  721MOL0     C99400  -0.015   5.016  12.470  0.6651 -0.4571  0.4981
  721MOL0     C99401  -0.062   4.877  12.515 -0.2146  0.3288 -0.5545
  721MOL0     C99402   0.029   4.780  12.426 -0.4090  1.4384 -0.0249
  721MOL0     C99403   0.023   4.629  12.467 -0.7224  0.3418  0.2037
  721MOL0     C99404  -0.124   4.575  12.472  0.4238  0.7305 -0.1063
  721MOL0    Cl99405  -0.155   4.398  12.473 -0.7235  0.0352 -0.4349
  721MOL0     C99406   0.013   5.631  12.404  0.2198 -0.0533 -0.3538
  721MOL0     C99407   0.107   5.730  12.430 -0.4005  0.0030  1.0136
  721MOL0     O99408   0.385   5.735  12.506  0.4306  0.4884  0.1267
  721MOL0     C99409   0.565   5.846  12.699  0.2462 -0.1198  0.0172
  721MOL0     C99410   0.690   5.905  12.731  0.4631 -0.2439  0.6931
  721MOL0     N99411   1.225   6.112  12.238 -0.0882  0.9394 -0.2431
  721MOL0     N99412   1.242   6.207  12.156 -0.9213 -0.2938  0.3859
  721MOL0     C99413   0.565   5.745  11.326  0.0484  0.7377 -0.1375
  721MOL0     C99414   0.459   5.660  11.311 -0.5657  0.7228 -0.0496
  721MOL0     C99415   0.237   5.280  11.208  0.6638  0.2317  0.0420
  721MOL0     C99416   0.247   5.143  11.187  0.3915  0.1796 -0.2505
  721MOL0     C99417   0.135   5.060  11.164 -0.4542 -0.0510 -0.6824
  721MOL0     C99418   0.013   5.112  11.141  0.9681  1.0306 -0.6281
  721MOL0     O99419  -0.090   5.029  11.094 -0.0288  0.7448  0.1446
  721MOL0     C99420  -0.224   5.084  11.060 -0.5946  0.2016  0.6929
  721MOL0     C99421  -0.330   4.973  11.045 -0.2580  0.2226  0.3087
  721MOL0     C99422  -0.367   4.911  11.185  0.8186 -0.0097  0.9260
  721MOL0     C99423  -0.480   4.807  11.178  0.0180  0.3495 -0.9792
  721MOL0     C99424  -0.481   4.729  11.058  0.4174 -0.4021  0.4572
  721MOL0     C99425  -0.486   4.654  10.960 -0.1683 -0.6197 -0.7931
  721MOL0     C99426   0.001   5.258  11.153  0.4587  0.3012  0.1937
  721MOL0     C99427   0.112   5.338  11.188  0.0116 -0.3822  0.5116
  721MOL0     C99428   0.083   5.482  11.200 -0.1048  0.4535 -0.5382
  721MOL0     H99429   0.576   5.383  11.471 -1.2613 -0.2672 -1.5297
  721MOL0     H99430   0.758   5.530  11.505  1.0178 -0.5993 -3.0453
  721MOL0     H99431   0.921   5.663  11.502  1.3350  0.4890 -0.1358
  721MOL0     H99432   0.846   5.795  11.606 -3.0147  0.1224 -0.0720
  721MOL0     H99433   1.103   5.802  11.508 -2.2141 -2.2599  1.5696
  721MOL0     H99434   1.030   5.832  11.357  2.7039 -0.4256  0.2073
  721MOL0     H99435   1.046   6.059  11.424  0.4994 -2.2684 -1.2043
  721MOL0     H99436   0.893   6.011  11.510 -0.5674 -0.6996  1.6443
  721MOL0     H99437   1.032   5.939  11.719  3.5092  0.0332  0.7344
  721MOL0     H99438   1.167   5.997  11.641  0.9241 -0.5950  3.4986
  721MOL0     H99439   0.912   6.142  11.725 -1.6607  2.3043 -5.5590
  721MOL0     H99440   1.025   6.235  11.636 -0.0402 -0.3761 -0.5490
  721MOL0     H99441   1.074   6.093  11.888 -1.2974  0.0671 -0.3796
  721MOL0     H99442   1.185   6.215  11.820 -0.2925  2.6464  1.3020
  721MOL0     H99443   0.919   6.252  11.958  0.0613 -0.1157  0.5181
  721MOL0     H99444   0.970   6.372  11.839 -2.2985 -1.3206 -1.9580
  721MOL0     H99445   1.192   6.375  11.983  0.7608 -1.2946  3.5361
  721MOL0     H99446   1.054   6.445  12.069 -1.0469  0.3570 -1.7700
  721MOL0     H99447   0.909   6.179  12.184 -0.4619 -0.0135 -1.5886
  721MOL0     H99448   1.107   5.899  12.355 -1.5127 -0.9038  1.8979
  721MOL0     H99449   0.944   5.934  12.318 -1.7819  0.5690  3.4712
  721MOL0     H99450   0.999   5.957  12.557  0.2820 -0.5994  0.1601
  721MOL0     H99451   1.111   6.090  12.528 -1.3777  1.7148  1.2260
  721MOL0     H99452   0.947   6.247  12.464  0.4624 -0.5426  0.5543
  721MOL0     H99453   0.822   6.134  12.455  1.9572  2.1086 -4.1248
  721MOL0     H99454   0.997   6.224  12.690 -1.1204  1.6149 -0.0921
  721MOL0     H99455   0.836   6.279  12.655  0.4292  1.4519 -0.5049
  721MOL0     H99456   0.643   6.217  12.604 -1.0753 -1.1892  1.4105
  721MOL0     H99457   0.462   6.211  12.457  1.3209 -2.5507 -1.5402
  721MOL0     H99458   0.317   6.182  12.561  0.4073  1.4449  0.3656
  721MOL0     H99459   0.355   6.078  12.435 -0.1199 -1.1589  1.3295
  721MOL0     H99460   0.111   5.712  12.769 -0.2333 -0.3438  0.5420
  721MOL0     H99461  -0.084   5.590  12.731  0.6429 -0.5582 -0.1445
  721MOL0     H99462  -0.108   5.373  12.684  1.1511 -0.4648  0.4319
  721MOL0     H99463  -0.240   5.316  12.590  0.2408 -0.0977 -5.2617
  721MOL0     H99464  -0.062   5.261  12.399 -0.0571  0.8858 -0.0053
  721MOL0     H99465   0.055   5.282  12.538  0.0737 -3.6419  3.0142
  721MOL0     H99466  -0.182   5.095  12.570 -0.2771 -1.7207 -1.7808
  721MOL0     H99467  -0.035   5.098  12.664 -0.4450 -1.2975 -0.4080
  721MOL0     H99468   0.094   5.021  12.475  0.8394 -1.6834 -1.2052
  721MOL0     H99469  -0.035   5.037  12.364  3.2143 -0.7291 -0.0979
  721MOL0     H99470  -0.061   4.864  12.623 -2.7827  2.0923 -0.2321
  721MOL0     H99471  -0.165   4.874  12.478 -1.1780  2.3445  1.6961
  721MOL0     H99472   0.136   4.805  12.431  0.2463 -1.1891  0.5717
  721MOL0     H99473  -0.005   4.791  12.323 -0.0807 -1.0760 -0.4612
  721MOL0     H99474   0.076   4.609  12.561  0.1006  0.7248 -0.1756
  721MOL0     H99475   0.068   4.568  12.389 -0.7101  1.7219 -0.9055
  721MOL0     H99476  -0.147   4.598  12.368 -0.3864 -2.1933 -0.6618
  721MOL0     H99477  -0.199   4.623  12.536  0.9055  2.5091 -0.7946
  721MOL0     H99478   0.005   5.602  12.300 -2.0889  1.3962 -0.6343
  721MOL0     H99479   0.167   5.774  12.351  0.4397  1.3891  2.3702
  721MOL0     H99480   0.534   5.748  12.732 -0.1522 -0.1104 -0.3223
  721MOL0     H99481   0.756   5.852  12.799 -0.8046 -2.5779  0.2427
  721MOL0     H99482   0.564   5.836  11.266 -0.1340  0.2640 -0.8637
  721MOL0     H99483   0.375   5.690  11.250 -0.1633  0.3952 -0.7775
  721MOL0     H99484   0.339   5.087  11.200 -0.0308 -0.3159  0.7297
  721MOL0     H99485   0.140   4.952  11.160 -2.1897 -0.2454  1.0268
  721MOL0     H99486  -0.247   5.147  11.146 -1.4252 -2.2783  2.3935
  721MOL0     H99487  -0.209   5.155  10.978  2.3866  1.3944  2.1094
  721MOL0     H99488  -0.288   4.898  10.977 -2.4781  1.4710 -2.6811
  721MOL0     H99489  -0.426   5.002  11.001 -0.1814  1.8968  1.1619
  721MOL0     H99490  -0.276   4.871  11.231  0.7785  0.4378  1.4066
  721MOL0     H99491  -0.405   4.993  11.247 -2.6456 -1.9750  1.6490
  721MOL0     H99492  -0.571   4.867  11.188  0.1885  0.2470  2.3982
  721MOL0     H99493  -0.469   4.753  11.273  2.8609  3.7428  0.8424
  721MOL0     H99494  -0.483   4.582  10.881 -0.9506 -1.9020  0.2995
  721MOL0     H99495  -0.099   5.296  11.132  0.2072 -0.3149  0.2509
  721MOL0     H99496   0.166   5.540  11.159 -0.1112 -0.6323 -2.1900
  721MOL0     H99497  -0.009   5.514  11.149  0.9940  0.7839 -2.4033
  721MOL0     H99498   0.075   5.503  11.307  0.9043  0.1460 -0.3928
  722MOL0     O99499   9.186   6.850   2.967 -0.0910  0.1412 -0.9739
  722MOL0     C99500   9.171   6.732   2.999  0.5206  0.7373  0.2114
  722MOL0     O99501   9.270   6.649   3.031 -0.9379 -0.0483 -0.0215
  722MOL0     C99502   9.396   6.705   3.035 -0.0598 -0.0401  0.2299
  722MOL0     C99503   9.436   6.756   3.160  0.3603  0.6145 -0.7671
  722MOL0     C99504   9.567   6.802   3.164  1.8242 -0.1686 -0.7261
  722MOL0     C99505   9.651   6.797   3.059 -1.3615 -0.0822  0.2197
  722MOL0     O99506   9.788   6.819   3.045  0.5457  0.2323 -0.6063
  722MOL0     C99507   9.823   6.951   3.100  0.1329 -0.1013 -0.0057
  722MOL0     C99508   9.978   6.973   3.096  1.4447  0.7153  0.0927
  722MOL0     C99509  10.013   7.121   3.102  0.3937  0.1456  0.5960
  722MOL0     C99510  10.143   7.153   3.187 -0.1418  0.6073  0.3743
  722MOL0     C99511  10.221   7.285   3.149  0.9378  0.1808 -0.5499
  722MOL0     C99512  10.293   7.332   3.276  0.4771  0.0460  0.8307
  722MOL0     C99513  10.368   7.464   3.243 -1.7353  0.2412 -0.1754
  722MOL0     C99514  10.280   7.579   3.201  0.2581 -0.4452 -0.0338
  722MOL0     N99515  10.348   7.714   3.200 -0.1401 -0.0362  0.5209
  722MOL0     C99516  10.407   7.761   3.309  0.0688 -1.5393  0.1439
  722MOL0     C99517  10.444   7.881   3.271  0.7622  0.0568 -0.3748
  722MOL0     C99518  10.532   7.972   3.356  0.0731 -0.5031 -0.1593
  722MOL0     C99519  10.682   7.973   3.315 -0.7444 -0.2041 -0.3560
  722MOL0     C99520  10.757   7.839   3.368 -0.2450  0.5699 -0.1358
  722MOL0     C99521  10.903   7.816   3.335 -0.5247 -0.0531 -0.3521
  722MOL0     O99522  11.000   7.825   3.447  0.3244  0.5005  0.5466
  722MOL0     C99523  11.133   7.839   3.412 -0.8984 -0.4073 -0.5933
  722MOL0     C99524  11.181   7.942   3.339 -0.4807  0.0787 -0.4398
  722MOL0     C99525  11.317   7.953   3.308 -0.2556 -0.3652  0.4377
  722MOL0     C99526  11.366   8.079   3.238 -0.6517  0.9030 -0.9501
  722MOL0     C99527  11.409   7.849   3.341  0.3232 -0.1812  0.5232
  722MOL0     C99528  11.555   7.836   3.301 -0.0490  0.2585  0.2107
  722MOL0     O99529  11.625   7.725   3.340 -0.4121 -0.1509 -0.1697
  722MOL0     C99530  11.763   7.727   3.358  0.0532 -0.0123 -0.2532
  722MOL0     C99531  11.826   7.603   3.375  0.1385  0.3782  0.2566
  722MOL0     C99532  11.963   7.591   3.409  0.0859  0.1166 -0.4480
  722MOL0     C99533  12.039   7.702   3.442  0.1488  0.7498  0.7389
  722MOL0     O99534  12.174   7.698   3.487  0.5102 -0.0665  0.2026
  722MOL0     C99535  12.205   7.596   3.584  0.5081 -0.5501  0.3675
  722MOL0     C99536  12.323   7.627   3.668 -0.5265 -0.8131  0.3662
  722MOL0     C99537  12.439   7.676   3.587 -0.2846 -0.4664 -0.7171
  722MOL0     C99538  12.558   7.708   3.684  0.1459 -0.2784 -1.0398
  722MOL0     C99539  12.694   7.744   3.616 -0.2973  0.4991  0.5559
  722MOL0     C99540  12.791   7.804   3.726 -0.2880 -0.6333 -0.3000
  722MOL0     C99541  12.931   7.838   3.654  0.5402 -0.1413 -0.0516
  722MOL0     C99542  13.031   7.889   3.761  0.0431 -0.5018 -0.1284
  722MOL0    Cl99543  13.135   7.744   3.836  0.3321 -0.3473 -0.1178
  722MOL0     C99544  11.975   7.831   3.424  0.0345 -0.4876  0.3102
  722MOL0     C99545  11.838   7.842   3.381 -0.0373  0.2647  0.7077
  722MOL0     O99546  11.598   7.918   3.217 -0.2001  0.3082 -0.2492
  722MOL0     C99547  11.357   7.742   3.413  0.3134  0.3257  0.0600
  722MOL0     C99548  11.218   7.738   3.450  0.1660  0.6571  0.5405
  722MOL0     N99549  10.424   7.903   3.133 -0.0717  0.4465 -0.1812
  722MOL0     N99550  10.360   7.794   3.095 -0.3147  0.5633 -0.2216
  722MOL0     C99551   9.596   6.763   2.935  0.4954 -0.2197  0.2693
  722MOL0     C99552   9.473   6.712   2.920 -0.5199  0.8580  0.4913
  722MOL0     C99553   9.031   6.683   2.990  0.2627 -0.0759  0.3354
  722MOL0     C99554   8.952   6.662   3.108 -0.8200 -1.2613  0.7390
  722MOL0     C99555   8.819   6.616   3.099  0.1469  0.4211 -0.1958
  722MOL0     C99556   8.756   6.587   2.979  0.7617  0.0410 -0.0466
  722MOL0     O99557   8.626   6.540   2.985 -0.1659  0.1575 -0.2495
  722MOL0     C99558   8.549   6.554   2.864  1.0138 -0.3393  0.5146
  722MOL0     C99559   8.410   6.497   2.875 -0.4056 -0.2418  0.1601
  722MOL0     C99560   8.413   6.361   2.957  0.2373  0.5024  0.0711
  722MOL0     C99561   8.276   6.319   3.009  0.1085  0.9968  0.3417
  722MOL0     C99562   8.223   6.413   3.114  0.6187 -0.1767 -0.1433
  722MOL0     C99563   8.186   6.485   3.204 -0.5966 -0.0585 -0.3197
  722MOL0     C99564   8.834   6.611   2.872  0.3915 -0.7446 -0.3399
  722MOL0     C99565   8.967   6.662   2.868 -0.3063 -0.6627 -0.1704
  722MOL0     C99566   9.035   6.701   2.735 -0.5106  0.8355  0.1425
  722MOL0     H99567   9.379   6.749   3.251  0.3057 -1.9218 -0.9276
  722MOL0     H99568   9.612   6.833   3.258 -0.6876  0.5438  0.3175
  722MOL0     H99569   9.786   6.961   3.203  1.5835  0.9923  0.4436
  722MOL0     H99570   9.770   7.026   3.042 -1.9720 -0.1635  1.7124
  722MOL0     H99571  10.013   6.917   3.183 -1.3122 -1.7638 -0.2234
  722MOL0     H99572  10.007   6.923   3.003 -0.3242 -2.0562  0.8822
  722MOL0     H99573  10.031   7.152   2.999 -2.9600 -0.6281 -0.3333
  722MOL0     H99574   9.932   7.181   3.143  1.6872  3.4206 -1.2222
  722MOL0     H99575  10.132   7.138   3.295  1.5391  3.3806  1.0300
  722MOL0     H99576  10.211   7.070   3.163  1.5770  2.1636 -0.3780
  722MOL0     H99577  10.148   7.359   3.115  1.0161  0.6473  0.2998
  722MOL0     H99578  10.290   7.265   3.066  0.8695 -2.6241 -0.0389
  722MOL0     H99579  10.225   7.335   3.361 -0.5351 -1.2294  0.1085
  722MOL0     H99580  10.376   7.265   3.299  0.3253  0.0865  1.5122
  722MOL0     H99581  10.443   7.450   3.165 -1.4276  1.4209 -0.1137
  722MOL0     H99582  10.418   7.496   3.335 -2.4477  2.6644 -0.5415
  722MOL0     H99583  10.251   7.559   3.097  2.4060  1.1954 -1.0147
  722MOL0     H99584  10.195   7.581   3.270  0.0030 -1.3808 -0.2978
  722MOL0     H99585  10.408   7.727   3.412 -4.0052  0.2819  1.0160
  722MOL0     H99586  10.503   7.959   3.461 -4.8673 -2.3303 -1.4664
  722MOL0     H99587  10.505   8.076   3.333  2.4958  0.6759  1.8480
  722MOL0     H99588  10.700   7.989   3.208  2.0347  1.5725  0.2817
  722MOL0     H99589  10.740   8.047   3.370  0.3072 -1.5300  0.3927
  722MOL0     H99590  10.766   7.851   3.476 -1.6410  1.4803 -0.0972
  722MOL0     H99591  10.696   7.752   3.342  0.5329 -0.4609  1.3554
  722MOL0     H99592  10.913   7.715   3.294 -0.6799 -2.8487  5.4316
  722MOL0     H99593  10.938   7.890   3.263  2.6911 -0.5788  0.4866
  722MOL0     H99594  11.116   8.023   3.307 -1.6722 -0.3028  0.9425
  722MOL0     H99595  11.456   8.119   3.285 -0.1371 -2.7483  1.6053
  722MOL0     H99596  11.289   8.157   3.235 -1.0926  0.8086  3.0620
  722MOL0     H99597  11.383   8.050   3.134 -1.5297  0.0885 -0.8797
  722MOL0     H99598  11.786   7.505   3.354 -0.0505  0.7240 -1.1289
  722MOL0     H99599  12.009   7.492   3.410 -0.1437  0.0081  0.8150
  722MOL0     H99600  12.121   7.579   3.651 -0.1854 -0.2220 -0.4108
  722MOL0     H99601  12.204   7.508   3.518 -2.8292 -0.6737  0.4411
  722MOL0     H99602  12.284   7.704   3.734 -0.6170  2.0292 -2.7275
  722MOL0     H99603  12.348   7.534   3.719  1.1469 -0.3898  0.3586
  722MOL0     H99604  12.429   7.765   3.525  1.0383 -0.2540 -0.6492
  722MOL0     H99605  12.471   7.592   3.525  1.9526  0.4609 -0.9152
  722MOL0     H99606  12.556   7.630   3.761 -0.9730 -1.5489 -2.2940
  722MOL0     H99607  12.533   7.797   3.742  3.2169 -0.1477  0.2615
  722MOL0     H99608  12.736   7.652   3.575 -0.0800  0.7667  0.1815
  722MOL0     H99609  12.680   7.822   3.540  1.5889  0.1770 -0.1739
  722MOL0     H99610  12.806   7.728   3.804 -1.1427  0.2162  0.7257
  722MOL0     H99611  12.749   7.883   3.790 -1.2716 -1.2056 -0.2277
  722MOL0     H99612  12.921   7.917   3.579  3.0448 -3.1494 -3.9597
  722MOL0     H99613  12.968   7.749   3.602 -1.7487 -2.0110  1.2733
  722MOL0     H99614  12.978   7.943   3.841 -1.5161 -2.5551  0.3225
  722MOL0     H99615  13.091   7.967   3.713  1.8429 -1.3198  0.6898
  722MOL0     H99616  12.032   7.919   3.451 -3.2441  1.3553  1.8028
  722MOL0     H99617  11.801   7.943   3.366  1.8482  1.2712  2.2305
  722MOL0     H99618  11.420   7.661   3.449 -0.1794  0.0803  0.3934
  722MOL0     H99619  11.182   7.659   3.517  0.3746  0.9074  0.9516
  722MOL0     H99620   9.657   6.780   2.846 -1.6846 -0.0303 -1.2603
  722MOL0     H99621   9.445   6.686   2.819 -0.1442  3.3683 -0.3065
  722MOL0     H99622   9.019   6.678   3.192  0.6063  1.4401 -0.7476
  722MOL0     H99623   8.760   6.605   3.190  0.9416  1.9562  0.5500
  722MOL0     H99624   8.545   6.655   2.821 -0.3538  0.0962  1.6009
  722MOL0     H99625   8.601   6.501   2.784 -1.0442  0.7360 -1.6529
  722MOL0     H99626   8.358   6.483   2.780 -0.6832 -0.3853  0.3299
  722MOL0     H99627   8.345   6.570   2.925 -1.2478 -0.6629 -0.2947
  722MOL0     H99628   8.446   6.286   2.884 -1.0196 -0.8229  0.8172
  722MOL0     H99629   8.482   6.367   3.042 -1.5115 -0.0698  1.6026
  722MOL0     H99630   8.274   6.221   3.057 -2.5393  1.4509  1.3004
  722MOL0     H99631   8.199   6.308   2.933 -0.3393 -0.8653  1.0123
  722MOL0     H99632   8.150   6.533   3.292  0.1661 -2.8389  1.6237
  722MOL0     H99633   8.790   6.603   2.774 -0.9311  0.0912  0.1673
  722MOL0     H99634   9.010   6.629   2.657  0.8195  0.8810 -0.3472
  722MOL0     H99635   9.005   6.803   2.711 -0.5025  0.5662 -1.0402
  722MOL0     H99636   9.143   6.697   2.751  0.2457 -2.8151 -3.8463
  723MOL0     O99637   0.050   3.302   9.760 -0.3400 -0.3914 -0.0805
  723MOL0     C99638   0.006   3.308   9.645  0.0078  0.7711 -0.0556
  723MOL0     O99639   0.062   3.252   9.536 -0.9600 -0.0570  0.2399
  723MOL0     C99640   0.185   3.202   9.533 -0.4351  0.4445  0.4722
  723MOL0     C99641   0.258   3.147   9.641  0.4332 -0.3051 -0.1749
  723MOL0     C99642   0.393   3.116   9.618  0.1517 -0.1098 -0.7680
  723MOL0     C99643   0.455   3.129   9.498  0.5880  0.2672 -0.3199
  723MOL0     O99644   0.581   3.081   9.501  0.3991  0.7616  0.2906
  723MOL0     C99645   0.673   3.102   9.390  0.2890  0.0254  0.2874
  723MOL0     C99646   0.747   3.231   9.410 -0.3125 -0.6819  0.2376
  723MOL0     C99647   0.831   3.273   9.287 -0.1307 -0.0324 -0.2295
  723MOL0     C99648   0.902   3.407   9.326 -1.0368  0.8047 -0.5490
  723MOL0     C99649   1.017   3.451   9.232  0.6139 -0.1992 -0.5998
  723MOL0     C99650   1.113   3.554   9.298  0.3371  0.3884  0.4757
  723MOL0     C99651   1.246   3.564   9.219  0.3505  0.7705  0.2801
  723MOL0     C99652   1.238   3.641   9.086 -0.2209  0.6712  1.3779
  723MOL0     N99653   1.371   3.644   9.021  0.4866 -0.1159 -0.1599
  723MOL0     C99654   1.439   3.536   8.977 -0.0614  0.8599  0.7097
  723MOL0     C99655   1.560   3.584   8.957  0.0277  0.1138 -0.3270
  723MOL0     C99656   1.682   3.508   8.899  0.8035 -0.3882 -0.0764
  723MOL0     C99657   1.647   3.360   8.857  0.2710 -0.3655 -0.7752
  723MOL0     C99658   1.774   3.274   8.811  0.6979 -0.5780  0.2892
  723MOL0     C99659   1.731   3.131   8.769 -0.9599  0.4414 -0.1652
  723MOL0     O99660   1.839   3.043   8.716 -0.0132  0.2962 -0.8430
  723MOL0     C99661   1.966   3.088   8.748  0.1638  0.6127  0.3313
  723MOL0     C99662   2.040   3.162   8.654 -0.0299  0.0804 -0.3859
  723MOL0     C99663   2.163   3.216   8.685  0.9850  0.7840  0.5827
  723MOL0     C99664   2.225   3.318   8.592  0.4401 -0.0857  0.3835
  723MOL0     C99665   2.224   3.176   8.805 -0.0281  0.2475 -0.2024
  723MOL0     C99666   2.368   3.201   8.836 -0.1008 -0.6636  0.0273
  723MOL0     O99667   2.404   3.206   8.973  0.5300  0.2566 -0.5479
  723MOL0     C99668   2.530   3.239   8.998 -1.6448 -0.3155 -0.4861
  723MOL0     C99669   2.621   3.138   9.033 -0.4387 -0.5267  0.5719
  723MOL0     C99670   2.764   3.169   9.051 -0.1753 -0.7285  0.3243
  723MOL0     C99671   2.804   3.307   9.046  0.1653 -0.3069 -0.2926
  723MOL0     O99672   2.936   3.323   9.097  1.0801 -0.0080 -1.0606
  723MOL0     C99673   2.981   3.458   9.124 -0.6251 -0.2326 -0.1420
  723MOL0     C99674   3.043   3.545   9.006 -0.2505 -0.7975 -0.1056
  723MOL0     C99675   3.189   3.501   8.943  0.1483  0.1953 -0.6176
  723MOL0     C99676   3.299   3.493   9.053 -0.3032  0.3073  0.2382
  723MOL0     C99677   3.432   3.435   8.990  0.9680  0.0645  0.8284
  723MOL0     C99678   3.526   3.368   9.097 -0.2159 -0.4506  0.0013
  723MOL0     C99679   3.642   3.311   9.023 -0.1841  0.1554  0.6676
  723MOL0     C99680   3.754   3.263   9.122  0.7596  0.0848 -0.5149
  723MOL0    Cl99681   3.896   3.192   9.064  0.1580 -0.2321 -0.4566
  723MOL0     C99682   2.710   3.401   9.013  0.1526  0.1920 -0.5165
  723MOL0     C99683   2.579   3.368   8.975  0.2052 -0.5858  0.2220
  723MOL0     O99684   2.446   3.231   8.742  0.2183 -0.5107  0.7199
  723MOL0     C99685   2.151   3.103   8.899  0.0026  0.1140  0.2865
  723MOL0     C99686   2.022   3.059   8.872 -0.4802  0.0463 -0.8805
  723MOL0     N99687   1.566   3.715   8.994  0.0460 -0.4277  0.9282
  723MOL0     N99688   1.449   3.758   9.025 -0.0913 -0.7217 -0.0045
  723MOL0     C99689   0.384   3.179   9.391 -0.4478 -0.7732 -0.7795
  723MOL0     C99690   0.251   3.212   9.411 -0.2490 -0.3996 -0.3993
  723MOL0     C99691  -0.120   3.390   9.616 -0.1233  0.0096  0.1740
  723MOL0     C99692  -0.143   3.440   9.487  0.3997 -0.5498  0.1851
  723MOL0     C99693  -0.260   3.514   9.464 -0.4967 -0.4653 -0.2634
  723MOL0     C99694  -0.357   3.546   9.566 -0.4392  0.5128 -0.0733
  723MOL0     O99695  -0.454   3.627   9.522  0.0754 -0.1933 -0.3880
  723MOL0     C99696  -0.536   3.698   9.618 -0.3247  0.1348 -0.0623
  723MOL0     C99697  -0.660   3.749   9.539  0.1976  0.5289 -0.6900
  723MOL0     C99698  -0.743   3.634   9.496  0.3847 -0.1209 -0.8958
  723MOL0     C99699  -0.833   3.588   9.610 -0.0705 -0.2678  0.3731
  723MOL0     C99700  -0.934   3.493   9.562 -0.0504 -0.2977  0.1998
  723MOL0     C99701  -0.995   3.419   9.491 -0.4772  0.3241  0.3211
  723MOL0     C99702  -0.331   3.500   9.696  0.2754 -1.1570 -0.2951
  723MOL0     C99703  -0.215   3.429   9.721 -0.0963  0.7744  0.4723
  723MOL0     C99704  -0.208   3.378   9.864  0.2172 -0.3985 -0.7923
  723MOL0     H99705   0.213   3.135   9.739 -1.0907  0.1670 -0.7787
  723MOL0     H99706   0.447   3.071   9.701  0.4832  0.7810 -0.4870
  723MOL0     H99707   0.610   3.102   9.300 -1.1985 -1.9520  1.2438
  723MOL0     H99708   0.742   3.017   9.394  3.0149  2.1233  1.1076
  723MOL0     H99709   0.676   3.311   9.432  1.5364  0.9363  0.6097
  723MOL0     H99710   0.802   3.214   9.504 -1.4733  0.6211  1.1901
  723MOL0     H99711   0.905   3.196   9.264 -1.1870 -1.5212  1.0912
  723MOL0     H99712   0.767   3.295   9.202  3.3563  1.7018 -2.6073
  723MOL0     H99713   0.833   3.490   9.342 -2.2068 -0.5271  1.7648
  723MOL0     H99714   0.946   3.392   9.425  2.0210 -2.6616 -2.2066
  723MOL0     H99715   0.963   3.497   9.149 -1.0367 -1.4534 -0.2760
  723MOL0     H99716   1.073   3.364   9.196  0.1406 -0.7223 -0.0910
  723MOL0     H99717   1.070   3.655   9.302  0.0247  0.3760 -1.4923
  723MOL0     H99718   1.145   3.511   9.393 -0.4122 -1.8624 -0.2264
  723MOL0     H99719   1.279   3.463   9.194 -0.6174 -0.2019  2.6455
  723MOL0     H99720   1.324   3.603   9.286  0.4583 -0.3445  0.8233
  723MOL0     H99721   1.163   3.596   9.020 -0.0432  2.2482  0.0477
  723MOL0     H99722   1.207   3.743   9.110 -1.6996  0.5930 -0.0243
  723MOL0     H99723   1.405   3.434   8.966  1.7108 -0.1141  3.3098
  723MOL0     H99724   1.765   3.520   8.969  0.4597  1.7686  0.0354
  723MOL0     H99725   1.710   3.556   8.805  2.2658 -0.6062  0.2359
  723MOL0     H99726   1.606   3.314   8.947 -0.0029  2.3588  0.6012
  723MOL0     H99727   1.578   3.355   8.773  1.2895 -0.3953 -1.6269
  723MOL0     H99728   1.827   3.318   8.725 -0.5549  1.6843  0.5894
  723MOL0     H99729   1.833   3.262   8.902  1.4029  0.9010  0.0695
  723MOL0     H99730   1.684   3.082   8.855  1.2970  0.5989  1.2509
  723MOL0     H99731   1.664   3.141   8.684  1.2843  1.2907 -1.9242
  723MOL0     H99732   2.000   3.183   8.555  1.5883  1.2533 -0.8296
  723MOL0     H99733   2.150   3.375   8.537  0.7439 -0.5609 -0.5325
  723MOL0     H99734   2.296   3.268   8.526  1.4702  1.8632 -0.0538
  723MOL0     H99735   2.285   3.398   8.637 -0.3714  1.7596 -1.6410
  723MOL0     H99736   2.579   3.038   9.025  1.2526 -1.1491 -2.9436
  723MOL0     H99737   2.834   3.087   9.058 -0.6025 -1.5251 -2.8442
  723MOL0     H99738   2.895   3.516   9.160 -1.3094  0.3217 -2.4873
  723MOL0     H99739   3.057   3.441   9.200  0.0151 -0.9022 -0.9130
  723MOL0     H99740   2.972   3.551   8.923  1.2430 -0.7271 -1.4469
  723MOL0     H99741   3.062   3.648   9.037 -0.7867  0.0900 -2.4841
  723MOL0     H99742   3.218   3.549   8.850 -2.6714  1.2743 -1.0252
  723MOL0     H99743   3.176   3.395   8.919  0.0709  0.6479 -2.7708
  723MOL0     H99744   3.269   3.432   9.139  2.1626 -2.5184 -0.7142
  723MOL0     H99745   3.313   3.595   9.090 -1.9427  0.3974  0.7048
  723MOL0     H99746   3.395   3.349   8.934  3.9685 -1.6251  1.2645
  723MOL0     H99747   3.460   3.509   8.915 -1.7396  0.2089 -0.1558
  723MOL0     H99748   3.474   3.296   9.160  3.8578 -1.5679  2.4647
  723MOL0     H99749   3.559   3.444   9.169  1.4413 -0.2925 -0.8575
  723MOL0     H99750   3.697   3.385   8.965  3.5579 -1.9711  1.1594
  723MOL0     H99751   3.600   3.236   8.956  0.3620  0.5024 -0.0759
  723MOL0     H99752   3.709   3.194   9.193  2.1505 -0.5754 -0.2472
  723MOL0     H99753   3.776   3.352   9.183 -2.3602  1.5422 -1.3120
  723MOL0     H99754   2.743   3.505   9.015 -0.9191  0.5287  0.0445
  723MOL0     H99755   2.507   3.444   8.945  0.4123 -0.5453 -0.1815
  723MOL0     H99756   2.207   3.086   8.991 -0.1902  0.8452  0.5429
  723MOL0     H99757   1.968   3.010   8.953 -0.2868  2.1597  0.6024
  723MOL0     H99758   0.423   3.198   9.291 -0.9337 -1.2244 -1.0601
  723MOL0     H99759   0.191   3.247   9.327 -1.4734 -3.3011 -0.8589
  723MOL0     H99760  -0.067   3.422   9.412  0.6311  1.3926 -0.0843
  723MOL0     H99761  -0.277   3.548   9.363  0.1972  1.4811  0.2303
  723MOL0     H99762  -0.574   3.641   9.704  1.9134 -1.9449 -0.3570
  723MOL0     H99763  -0.477   3.784   9.653 -1.1199  0.7274 -0.1470
  723MOL0     H99764  -0.616   3.792   9.448  1.5141  1.6238  0.4187
  723MOL0     H99765  -0.713   3.824   9.598 -0.4646  0.1906 -0.8479
  723MOL0     H99766  -0.808   3.661   9.412  1.1601 -1.0652 -1.8236
  723MOL0     H99767  -0.681   3.549   9.466 -0.9245 -0.0865 -4.0945
  723MOL0     H99768  -0.874   3.675   9.661 -1.4296 -0.8196  0.2750
  723MOL0     H99769  -0.778   3.542   9.693 -1.5512 -0.6639  1.1812
  723MOL0     H99770  -1.044   3.348   9.428  2.2447 -0.3273 -1.1976
  723MOL0     H99771  -0.402   3.524   9.774  0.9359  1.1241 -0.3048
  723MOL0     H99772  -0.108   3.377   9.907  0.4546 -0.2010 -1.3343
  723MOL0     H99773  -0.279   3.433   9.925  0.3843  1.1231 -1.9189
  723MOL0     H99774  -0.238   3.273   9.868  0.9214 -0.5714  1.1567
  724MOL0     O99775  10.050   6.851   9.293 -0.0671 -0.0909 -0.3073
  724MOL0     C99776  10.079   6.940   9.374  0.6065  0.0349 -0.4337
  724MOL0     O99777  10.179   6.935   9.465 -0.0344 -1.0410 -0.6956
  724MOL0     C99778  10.258   6.822   9.466 -0.3389 -0.3226  0.4496
  724MOL0     C99779  10.277   6.761   9.595  0.4547  0.2764  1.2396
  724MOL0     C99780  10.365   6.649   9.603  0.2979 -0.0652  0.1255
  724MOL0     C99781  10.427   6.608   9.478  1.1821  0.4447 -0.0513
  724MOL0     O99782  10.498   6.490   9.491  0.6081 -0.1178  0.0364
  724MOL0     C99783  10.425   6.375   9.451  0.2306  0.7591  0.7092
  724MOL0     C99784  10.521   6.270   9.407 -0.0484  0.3650  0.5415
  724MOL0     C99785  10.597   6.302   9.275  0.2995  0.0569  0.6223
  724MOL0     C99786  10.734   6.248   9.274 -0.6139 -0.8980  0.0648
  724MOL0     C99787  10.805   6.307   9.157 -0.4170 -0.7242 -0.8383
  724MOL0     C99788  10.959   6.300   9.169  0.2245  0.3185 -0.7970
  724MOL0     C99789  11.028   6.319   9.034  0.0510  1.7687 -0.1928
  724MOL0     C99790  11.023   6.473   9.005 -0.8415 -0.1197  0.2271
  724MOL0     N99791  11.116   6.489   8.888  0.3032 -0.2165  0.2822
  724MOL0     C99792  11.107   6.434   8.762 -0.5287  0.3087 -0.1301
  724MOL0     C99793  11.233   6.437   8.711  0.0653 -0.4561 -0.1360
  724MOL0     C99794  11.277   6.395   8.572  0.3060  0.9424  0.3440
  724MOL0     C99795  11.300   6.507   8.470  0.0741  0.2069 -0.1982
  724MOL0     C99796  11.332   6.453   8.330  0.1107 -0.4173  0.3196
  724MOL0     C99797  11.341   6.565   8.228  0.2586 -0.5617  0.7634
  724MOL0     O99798  11.243   6.677   8.244 -1.2551 -0.1318 -0.1035
  724MOL0     C99799  11.126   6.652   8.185 -0.1961 -0.2850  0.3109
  724MOL0     C99800  11.010   6.680   8.260  0.0643  0.5080 -0.6860
  724MOL0     C99801  10.886   6.661   8.211 -0.0881 -0.1955 -0.2074
  724MOL0     C99802  10.774   6.661   8.311  0.0091 -0.4774  0.0027
  724MOL0     C99803  10.866   6.627   8.067  0.0722  0.2204 -0.1577
  724MOL0     C99804  10.738   6.618   7.986  0.2426 -0.4624 -0.0818
  724MOL0     O99805  10.636   6.702   8.020  0.5370 -0.9103 -0.3504
  724MOL0     C99806  10.507   6.684   7.964 -0.1020 -0.2925  0.3282
  724MOL0     C99807  10.454   6.558   7.936 -0.1474 -0.2461 -0.9267
  724MOL0     C99808  10.331   6.547   7.874 -0.2886 -0.8892  0.4360
  724MOL0     C99809  10.243   6.656   7.868  0.9198  0.6190  0.0105
  724MOL0     O99810  10.104   6.643   7.837  0.1557  0.1773 -0.1965
  724MOL0     C99811  10.028   6.531   7.893  0.2464  0.1888  0.0942
  724MOL0     C99812   9.895   6.581   7.938 -0.0392  0.4416  1.1111
  724MOL0     C99813   9.781   6.557   7.838 -0.4315  0.0774 -0.1127
  724MOL0     C99814   9.641   6.535   7.898  0.0032 -0.2192 -0.3695
  724MOL0     C99815   9.528   6.530   7.796 -0.5048 -0.6699 -0.6096
  724MOL0     C99816   9.492   6.670   7.740 -0.2682 -0.5284 -0.2734
  724MOL0     C99817   9.398   6.668   7.611  0.5114 -0.1148 -0.8640
  724MOL0     C99818   9.340   6.806   7.565 -0.5230 -0.2649 -0.2197
  724MOL0    Cl99819   9.468   6.911   7.510 -0.3689  0.1871  0.0105
  724MOL0     C99820  10.295   6.783   7.899  0.1663 -0.0060 -1.0070
  724MOL0     C99821  10.428   6.803   7.946  0.6503  0.5147 -0.2785
  724MOL0     O99822  10.735   6.541   7.893  0.3388  0.5145 -0.1630
  724MOL0     C99823  10.984   6.611   7.991 -0.2593 -0.2523 -0.0282
  724MOL0     C99824  11.111   6.631   8.047  0.0090 -0.0166 -0.0949
  724MOL0     N99825  11.312   6.501   8.800 -0.0404  1.3264 -0.2352
  724MOL0     N99826  11.244   6.545   8.907 -0.5207 -0.6616  0.3826
  724MOL0     C99827  10.414   6.677   9.356 -0.7334  0.3772  0.5384
  724MOL0     C99828  10.337   6.791   9.359  0.2209  0.5458  0.3182
  724MOL0     C99829  10.003   7.073   9.373  0.4564 -0.3344 -0.6961
  724MOL0     C99830  10.021   7.167   9.470  0.3829 -0.2149 -0.0383
  724MOL0     C99831   9.946   7.285   9.476 -0.0192 -0.5005 -0.2324
  724MOL0     C99832   9.861   7.316   9.369 -0.1409  0.3595  0.3349
  724MOL0     O99833   9.776   7.424   9.360 -0.3841 -0.7141  0.2925
  724MOL0     C99834   9.774   7.518   9.469  0.5053 -1.1158  0.4052
  724MOL0     C99835   9.894   7.614   9.467 -0.1810  0.0188 -0.1154
  724MOL0     C99836   9.898   7.709   9.349 -0.0772 -0.2921 -0.1937
  724MOL0     C99837  10.026   7.801   9.341  0.6892 -0.2248  0.1921
  724MOL0     C99838  10.141   7.741   9.280  0.1297 -0.0515  1.2216
  724MOL0     C99839  10.229   7.670   9.230 -0.6044  0.6802  0.1963
  724MOL0     C99840   9.860   7.229   9.260  0.4070 -1.1036 -0.0565
  724MOL0     C99841   9.921   7.112   9.252  0.0749  1.0694 -0.6259
  724MOL0     C99842   9.913   7.029   9.127 -0.1380  0.1485  0.4395
  724MOL0     H99843  10.235   6.800   9.686  1.5773 -0.5455  2.1408
  724MOL0     H99844  10.388   6.595   9.695 -1.7734 -1.2716 -0.0034
  724MOL0     H99845  10.365   6.405   9.365 -1.0125 -1.5149  0.7019
  724MOL0     H99846  10.370   6.348   9.541  0.1812 -0.2698  0.3759
  724MOL0     H99847  10.587   6.237   9.488  1.1262  1.6455  0.1461
  724MOL0     H99848  10.457   6.186   9.380 -1.0468  1.4307 -0.4806
  724MOL0     H99849  10.541   6.251   9.196 -1.3918  1.5411  0.7951
  724MOL0     H99850  10.593   6.411   9.260 -1.9813  0.3498  2.7282
  724MOL0     H99851  10.786   6.274   9.367  0.8996 -1.7706 -0.5012
  724MOL0     H99852  10.740   6.139   9.269 -2.1535 -1.0012 -0.0052
  724MOL0     H99853  10.789   6.415   9.152 -0.1749 -0.2587  3.8341
  724MOL0     H99854  10.774   6.246   9.072  0.4594 -1.4684 -0.6388
  724MOL0     H99855  10.995   6.351   9.258 -2.9304  0.2254  0.6379
  724MOL0     H99856  10.995   6.200   9.196 -1.4535  0.0058  0.3923
  724MOL0     H99857  10.984   6.254   8.958  1.5225  1.4608 -0.8166
  724MOL0     H99858  11.132   6.287   9.042 -0.6210 -0.3995  0.6955
  724MOL0     H99859  10.925   6.502   8.964  0.1508  1.1356 -1.3979
  724MOL0     H99860  11.070   6.520   9.091 -0.2866 -0.8115  0.3054
  724MOL0     H99861  11.024   6.386   8.711 -0.7935  0.1837  0.4053
  724MOL0     H99862  11.207   6.322   8.531  2.7001 -0.9624 -0.6498
  724MOL0     H99863  11.371   6.339   8.583 -0.3774 -0.3558 -0.1757
  724MOL0     H99864  11.213   6.573   8.465  0.1822  0.3600 -0.0699
  724MOL0     H99865  11.391   6.560   8.500 -0.5506  1.7576 -0.9444
  724MOL0     H99866  11.428   6.400   8.338 -0.1563 -0.6677  2.4205
  724MOL0     H99867  11.257   6.381   8.296  0.4009 -0.2779 -0.6511
  724MOL0     H99868  11.441   6.605   8.244  0.2342 -0.0099 -0.3730
  724MOL0     H99869  11.361   6.531   8.126 -1.8731  2.4749 -0.8184
  724MOL0     H99870  11.020   6.715   8.363 -0.6746 -0.9003 -0.0997
  724MOL0     H99871  10.675   6.659   8.263  0.1039  0.4454 -0.2553
  724MOL0     H99872  10.785   6.751   8.373  0.8091 -2.0333  2.2324
  724MOL0     H99873  10.784   6.579   8.382 -1.3875  1.2856  2.4064
  724MOL0     H99874  10.519   6.474   7.960  0.6937  0.4384 -0.7573
  724MOL0     H99875  10.310   6.445   7.846 -0.1524 -0.5790 -0.8395
  724MOL0     H99876  10.018   6.447   7.824  0.0747 -1.2491  1.7879
  724MOL0     H99877  10.080   6.484   7.977  1.6712 -0.7162 -1.2315
  724MOL0     H99878   9.871   6.525   8.029 -1.4020 -1.3082 -0.2388
  724MOL0     H99879   9.906   6.687   7.961  0.6383  0.4095  0.9525
  724MOL0     H99880   9.807   6.471   7.775  2.7118 -0.4249  1.6979
  724MOL0     H99881   9.789   6.650   7.781  1.0716  0.8197  1.2453
  724MOL0     H99882   9.621   6.598   7.984 -0.1094  0.4943 -0.9078
  724MOL0     H99883   9.629   6.438   7.948 -0.3219  0.5286  1.0571
  724MOL0     H99884   9.565   6.456   7.725 -1.2426 -1.9209  0.2790
  724MOL0     H99885   9.429   6.499   7.828  0.2531 -2.7281 -0.0841
  724MOL0     H99886   9.573   6.738   7.715  0.5134 -1.9443 -1.8230
  724MOL0     H99887   9.442   6.720   7.823 -1.0702 -3.2148  0.9951
  724MOL0     H99888   9.313   6.602   7.632  0.8587 -0.6041 -0.9756
  724MOL0     H99889   9.454   6.634   7.523 -0.4068  0.4023 -1.6699
  724MOL0     H99890   9.295   6.861   7.648 -3.8726  2.4741 -3.4778
  724MOL0     H99891   9.260   6.796   7.491 -1.1779 -2.0414  0.6505
  724MOL0     H99892  10.235   6.873   7.904  2.0038  1.2416 -0.5480
  724MOL0     H99893  10.454   6.904   7.978 -3.4218  1.1324  1.7819
  724MOL0     H99894  10.971   6.607   7.883 -2.1695  3.0049 -0.0267
  724MOL0     H99895  11.199   6.632   7.984  0.7332  0.8498  0.8938
  724MOL0     H99896  10.442   6.636   9.260 -2.1481  1.6813 -0.4839
  724MOL0     H99897  10.323   6.845   9.266 -2.9131 -2.1158 -0.9361
  724MOL0     H99898  10.085   7.143   9.554  1.3448  2.1713 -0.0266
  724MOL0     H99899   9.974   7.353   9.555  1.8993 -0.8380 -0.5794
  724MOL0     H99900   9.684   7.576   9.445  2.3009  1.4296 -0.6253
  724MOL0     H99901   9.755   7.459   9.559  1.3066 -1.1551  0.5553
  724MOL0     H99902   9.990   7.565   9.450 -0.5200  0.3384 -3.7128
  724MOL0     H99903   9.889   7.665   9.563 -0.2273  0.1126 -0.1676
  724MOL0     H99904   9.882   7.654   9.255  1.1579  0.8706 -1.1128
  724MOL0     H99905   9.812   7.777   9.354  0.9717  1.1128 -0.7934
  724MOL0     H99906  10.054   7.822   9.445 -1.1666 -0.8602  0.8556
  724MOL0     H99907  10.005   7.887   9.277 -1.2915 -0.4974  0.3971
  724MOL0     H99908  10.303   7.603   9.192  1.1096  2.5643  0.0478
  724MOL0     H99909   9.796   7.263   9.179  1.4066  1.7547  0.2255
  724MOL0     H99910   9.891   6.923   9.137 -3.9725  0.5161 -2.1304
  724MOL0     H99911   9.841   7.065   9.053 -0.1395 -3.1509 -1.3652
  724MOL0     H99912  10.007   7.035   9.070  1.9340  1.5307  3.6778
  725MOL0     O99913   9.079   7.014  10.336 -0.5777  0.2829  0.2235
  725MOL0     C99914   9.048   7.085  10.239 -0.1939 -1.9957  0.0340
  725MOL0     O99915   9.134   7.187  10.186 -0.0277  0.0609 -0.0650
  725MOL0     C99916   9.232   7.221  10.272  0.9127  0.3682 -0.2681
  725MOL0     C99917   9.356   7.155  10.255 -0.5638  0.4439 -0.0413
  725MOL0     C99918   9.469   7.187  10.338  0.7746  0.4702 -0.1631
  725MOL0     C99919   9.449   7.276  10.447 -0.2656 -0.1232 -0.5539
  725MOL0     O99920   9.545   7.326  10.540 -0.6349  0.3875 -0.0567
  725MOL0     C99921   9.653   7.229  10.564 -0.1592 -1.2503  0.1735
  725MOL0     C99922   9.687   7.238  10.711 -0.6991 -0.3607  0.3506
  725MOL0     C99923   9.814   7.160  10.756  0.2360 -0.4065  0.4876
  725MOL0     C99924   9.937   7.249  10.716 -0.7260 -0.3863 -0.4354
  725MOL0     C99925  10.059   7.181  10.761 -0.9824 -0.0757 -0.0264
  725MOL0     C99926  10.114   7.191  10.906  0.2805  0.1963 -0.0616
  725MOL0     C99927  10.254   7.133  10.905  1.1163  0.9183 -0.8826
  725MOL0     C99928  10.325   7.119  11.046  1.0240 -0.3896 -0.7585
  725MOL0     N99929  10.360   7.258  11.080  0.6667 -0.2151 -0.2619
  725MOL0     C99930  10.304   7.341  11.172 -0.0338 -0.0341  0.1038
  725MOL0     C99931  10.403   7.439  11.189  0.2718 -0.6931 -0.0993
  725MOL0     C99932  10.396   7.549  11.285  0.2692 -0.1926 -1.0887
  725MOL0     C99933  10.503   7.530  11.389 -0.3271 -0.3592 -0.4818
  725MOL0     C99934  10.478   7.620  11.521  0.5487  0.4308 -0.3350
  725MOL0     C99935  10.589   7.712  11.573  0.1149 -0.1269 -0.9038
  725MOL0     O99936  10.630   7.797  11.474 -0.4676  0.1743 -0.4691
  725MOL0     C99937  10.708   7.905  11.510  0.5456 -0.9436 -0.8664
  725MOL0     C99938  10.641   8.004  11.590  0.1030 -1.2167  0.2198
  725MOL0     C99939  10.702   8.126  11.627 -0.4216 -0.0674  0.0090
  725MOL0     C99940  10.631   8.210  11.735  0.2651  0.0277  0.3013
  725MOL0     C99941  10.825   8.167  11.565 -0.3018 -0.7378  0.0944
  725MOL0     C99942  10.888   8.305  11.581  0.5171  0.3523 -0.0775
  725MOL0     O99943  10.975   8.347  11.482  0.1317 -1.0130 -0.7777
  725MOL0     C99944  11.084   8.425  11.515  0.4866  1.0137 -0.6405
  725MOL0     C99945  11.078   8.561  11.481 -0.8972  0.4288  0.2966
  725MOL0     C99946  11.183   8.639  11.523 -0.3878  0.0730 -0.0521
  725MOL0     C99947  11.301   8.577  11.556  0.1409 -0.0342  0.3880
  725MOL0     O99948  11.409   8.662  11.553 -0.0816  0.3857 -0.2640
  725MOL0     C99949  11.548   8.610  11.564 -0.4353  0.5086  0.4711
  725MOL0     C99950  11.655   8.715  11.543 -0.6060 -0.1660 -0.7105
  725MOL0     C99951  11.791   8.638  11.556  0.3317  0.2732 -0.2648
  725MOL0     C99952  11.918   8.716  11.569 -0.0404 -0.1219 -0.3983
  725MOL0     C99953  11.992   8.691  11.699 -0.1748 -0.0521 -0.1734
  725MOL0     C99954  12.125   8.765  11.731 -0.1275 -0.3741  0.5085
  725MOL0     C99955  12.163   8.722  11.875 -0.8227  0.0195 -0.7105
  725MOL0     C99956  12.287   8.812  11.921 -0.2078  0.1905  0.3576
  725MOL0    Cl99957  12.239   8.987  11.973 -0.0071  0.2113 -0.3268
  725MOL0     C99958  11.310   8.439  11.591  0.7114 -0.2176 -0.3521
  725MOL0     C99959  11.195   8.365  11.580  0.1193  0.3183 -0.3685
  725MOL0     O99960  10.891   8.363  11.692  0.5861  1.0824  0.2945
  725MOL0     C99961  10.888   8.078  11.478 -0.4077  1.2849  0.5076
  725MOL0     C99962  10.831   7.951  11.452 -0.1654  0.2938  0.3599
  725MOL0     N99963  10.513   7.418  11.105  0.3044  0.5942  0.5963
  725MOL0     N99964  10.481   7.303  11.042  0.2389 -0.2780 -0.0463
  725MOL0     C99965   9.324   7.347  10.453 -0.6660  0.3864 -0.0746
  725MOL0     C99966   9.217   7.316  10.368  0.3578 -0.1211 -0.9143
  725MOL0     C99967   8.910   7.085  10.197 -0.8681  0.8031  0.2054
  725MOL0     C99968   8.836   6.964  10.216 -0.1552  0.7204 -0.5500
  725MOL0     C99969   8.715   6.942  10.151 -0.2902 -0.4656  0.5459
  725MOL0     C99970   8.655   7.056  10.087 -0.4098  0.3869  0.4102
  725MOL0     O99971   8.543   7.021  10.018  0.7923  0.4392 -0.4268
  725MOL0     C99972   8.481   7.119   9.935 -0.7538  0.1014  0.7688
  725MOL0     C99973   8.400   7.056   9.826  0.2125  0.4790 -0.2194
  725MOL0     C99974   8.267   6.988   9.877 -0.6007  0.5003  0.1212
  725MOL0     C99975   8.257   6.835   9.841  0.4113 -0.1705 -0.4098
  725MOL0     C99976   8.182   6.762   9.944  1.1158  0.3577 -0.2675
  725MOL0     C99977   8.108   6.695  10.008  0.1999 -0.1938 -0.1411
  725MOL0     C99978   8.714   7.184  10.087  0.4280 -0.4070  0.0372
  725MOL0     C99979   8.846   7.192  10.128 -0.6591  0.0624 -0.9457
  725MOL0     C99980   8.906   7.325  10.113  0.0541 -0.7784  0.1487
  725MOL0     H99981   9.379   7.095  10.167 -1.4732  3.0941 -2.1961
  725MOL0     H99982   9.564   7.138  10.322  0.9482  1.3557 -2.0687
  725MOL0     H99983   9.734   7.279  10.509 -3.2342  1.5394 -2.2008
  725MOL0     H99984   9.636   7.129  10.523 -0.0820  0.1580 -3.7551
  725MOL0     H99985   9.696   7.344  10.737  0.6957  0.2546 -2.2545
  725MOL0     H99986   9.601   7.192  10.761  1.2632 -4.2609  0.4739
  725MOL0     H99987   9.812   7.129  10.861  3.4516  0.0452  0.7809
  725MOL0     H99988   9.808   7.068  10.697  0.3782 -1.3435  1.8905
  725MOL0     H99989   9.942   7.286  10.613  0.1056  1.5109  0.2320
  725MOL0     H99990   9.932   7.344  10.771  0.2948  0.3531 -1.5675
  725MOL0     H99991  10.134   7.219  10.690 -0.3772  0.4446  0.8721
  725MOL0     H99992  10.043   7.077  10.732  0.5478  0.3287 -2.7012
  725MOL0     H99993  10.138   7.295  10.929  2.2882 -0.4920  1.2319
  725MOL0     H99994  10.044   7.143  10.975 -1.1350  1.4793 -0.5337
  725MOL0     H99995  10.322   7.181  10.835  0.6949 -0.3924 -2.2421
  725MOL0     H99996  10.233   7.029  10.877  0.8388  1.1454 -1.5354
  725MOL0     H99997  10.274   7.059  11.122  2.5813 -1.0208 -0.1837
  725MOL0     H99998  10.420   7.070  11.023  0.6140 -0.4278 -2.4600
  725MOL0     H99999  10.208   7.330  11.222 -0.9238  2.2362 -0.9656
  725MOL0     H    0  10.294   7.548  11.325 -0.2812  1.2021 -2.3451
  725MOL0     H    1  10.378   7.642  11.231 -3.0983 -1.0844 -1.7244
  725MOL0     H    2  10.499   7.426  11.424 -1.0355 -0.7869 -1.7786
  725MOL0     H    3  10.602   7.560  11.354 -0.5889  0.1807 -0.7717
  725MOL0     H    4  10.398   7.692  11.502  0.9431  0.5737 -1.4996
  725MOL0     H    5  10.451   7.562  11.610  3.0899 -3.4804 -1.8724
  725MOL0     H    6  10.552   7.769  11.659  1.9166 -1.6975  1.0197
  725MOL0     H    7  10.665   7.643  11.612 -0.0081 -0.9472 -2.0637
  725MOL0     H    8  10.549   7.983  11.643 -0.7865  1.0867 -0.3024
  725MOL0     H    9  10.559   8.154  11.796  0.5492  1.7008  2.2453
  725MOL0     H   10  10.576   8.292  11.688 -0.7325 -0.0824  1.2265
  725MOL0     H   11  10.706   8.238  11.808  0.1565 -0.7294  0.7219
  725MOL0     H   12  10.991   8.611  11.440 -0.2525  2.3188  1.1433
  725MOL0     H   13  11.163   8.744  11.503  2.0058  0.5613 -0.2018
  725MOL0     H   14  11.548   8.572  11.667  0.9524 -2.5059 -0.5325
  725MOL0     H   15  11.561   8.531  11.489  0.7362 -1.4816  2.6288
  725MOL0     H   16  11.641   8.765  11.447 -2.6168  0.1640 -0.2905
  725MOL0     H   17  11.657   8.800  11.612 -0.1528  1.2473 -2.3882
  725MOL0     H   18  11.794   8.576  11.466 -2.8205  0.6939 -0.7820
  725MOL0     H   19  11.788   8.559  11.633  0.5154  0.7890  0.2801
  725MOL0     H   20  11.898   8.824  11.573  1.1484  0.1147 -0.7049
  725MOL0     H   21  11.992   8.707  11.490 -1.5257  1.3212 -2.0465
  725MOL0     H   22  11.926   8.714  11.784  5.6919  0.6896  4.9463
  725MOL0     H   23  12.009   8.583  11.698 -1.4706 -0.2658 -0.3022
  725MOL0     H   24  12.103   8.872  11.739  0.4079 -0.3331  1.6559
  725MOL0     H   25  12.192   8.730  11.652 -1.7156  0.2862 -1.1980
  725MOL0     H   26  12.207   8.622  11.869  0.2678  0.4601 -0.4387
  725MOL0     H   27  12.080   8.730  11.946 -2.0201  2.6694 -2.2589
  725MOL0     H   28  12.359   8.811  11.839 -1.5197  0.2458 -0.8369
  725MOL0     H   29  12.337   8.784  12.014 -0.7015  0.4244  0.7042
  725MOL0     H   30  11.400   8.405  11.641 -0.2193  0.7092  2.1349
  725MOL0     H   31  11.184   8.262  11.612  1.6794  0.7400  1.7837
  725MOL0     H   32  10.984   8.117  11.448 -0.9348  1.4321 -1.0626
  725MOL0     H   33  10.881   7.876  11.392  1.1555  2.6401 -1.6091
  725MOL0     H   34   9.315   7.421  10.531  1.5413 -0.5431  1.1473
  725MOL0     H   35   9.120   7.361  10.388  1.3647  0.9323  2.0767
  725MOL0     H   36   8.879   6.873  10.256  0.5780  0.8232 -1.0752
  725MOL0     H   37   8.658   6.850  10.142 -0.9441  0.0171 -0.5046
  725MOL0     H   38   8.413   7.185   9.989 -1.3325 -1.6157  2.2315
  725MOL0     H   39   8.558   7.178   9.885 -1.3272  1.3473  1.3132
  725MOL0     H   40   8.463   6.987   9.769 -1.4226 -0.1899 -1.3108
  725MOL0     H   41   8.371   7.142   9.765  0.4801  0.0183 -1.0137
  725MOL0     H   42   8.262   7.006   9.985 -1.9568  1.7155 -0.1037
  725MOL0     H   43   8.185   7.047   9.835 -0.8138  0.6864  0.7944
  725MOL0     H   44   8.361   6.800   9.835 -0.2259 -1.8560 -3.4718
  725MOL0     H   45   8.213   6.821   9.742  0.8135 -0.6142 -0.5310
  725MOL0     H   46   8.053   6.631  10.074  1.2621 -0.1785  0.7885
  725MOL0     H   47   8.665   7.266  10.035  0.0850 -2.2677 -2.8121
  725MOL0     H   48   8.941   7.373  10.206  0.5154 -0.8518  0.0163
  725MOL0     H   49   8.991   7.328  10.044 -0.9733  0.2953 -1.1017
  725MOL0     H   50   8.841   7.398  10.064  1.8212 -0.0460 -1.2035
  726MOL0     O   51   0.545  11.291   6.890  0.2711 -0.0638  0.2013
  726MOL0     C   52   0.562  11.174   6.856 -0.9175 -0.6264  0.4483
  726MOL0     O   53   0.651  11.131   6.764  0.1571  0.9794 -0.2423
  726MOL0     C   54   0.759  11.202   6.726 -0.1669 -0.4421  0.2974
  726MOL0     C   55   0.775  11.225   6.583 -0.7115 -0.1368 -0.4463
  726MOL0     C   56   0.896  11.293   6.529  0.6784 -0.3728  0.1313
  726MOL0     C   57   0.977  11.356   6.625  0.3612 -0.3538 -0.0127
  726MOL0     O   58   1.097  11.433   6.610 -0.0635  0.4795 -0.9432
  726MOL0     C   59   1.110  11.499   6.484 -0.0058 -0.5368 -0.2796
  726MOL0     C   60   1.251  11.564   6.507 -0.3453 -0.6580  1.0474
  726MOL0     C   61   1.297  11.660   6.394  0.2928  0.0335 -0.5490
  726MOL0     C   62   1.289  11.614   6.250 -0.3732  0.4183  0.6541
  726MOL0     C   63   1.316  11.726   6.149 -0.0200 -0.5787 -0.2433
  726MOL0     C   64   1.459  11.760   6.125  0.1375  0.5554 -0.1759
  726MOL0     C   65   1.462  11.898   6.054  0.3706  1.2802 -0.1573
  726MOL0     C   66   1.594  11.943   5.985  0.5329 -0.0407  0.0154
  726MOL0     N   67   1.699  11.967   6.081 -0.1034 -0.4362 -0.0560
  726MOL0     C   68   1.799  11.875   6.105 -1.2032  0.6165 -0.7795
  726MOL0     C   69   1.890  11.951   6.176  0.1296  0.2794  0.7526
  726MOL0     C   70   2.023  11.891   6.218 -0.8176 -0.7718  1.0497
  726MOL0     C   71   2.069  11.935   6.360  0.0941 -0.6116 -0.3346
  726MOL0     C   72   2.180  11.847   6.423 -0.5745 -0.3052  0.2206
  726MOL0     C   73   2.309  11.853   6.334  0.2938 -0.0575 -1.0165
  726MOL0     O   74   2.419  11.798   6.412  0.0175  0.4381 -0.3292
  726MOL0     C   75   2.533  11.771   6.343 -0.1135  0.2941  0.4440
  726MOL0     C   76   2.620  11.676   6.391 -0.3055  0.1047 -0.2716
  726MOL0     C   77   2.752  11.646   6.337 -0.2537 -0.4886  1.4197
  726MOL0     C   78   2.857  11.560   6.413  0.0616 -0.5743  0.8016
  726MOL0     C   79   2.785  11.702   6.208 -0.0080 -0.5064  0.5753
  726MOL0     C   80   2.907  11.668   6.136  0.1011 -0.1632 -0.6128
  726MOL0     O   81   2.938  11.530   6.127  0.5950 -0.1080  0.0881
  726MOL0     C   82   3.055  11.486   6.093 -0.3429  0.6861 -0.5021
  726MOL0     C   83   3.177  11.514   6.155 -0.2610 -0.3686  0.5321
  726MOL0     C   84   3.298  11.468   6.100 -0.0859 -0.2147  0.9442
  726MOL0     C   85   3.297  11.360   6.008 -0.6447  0.1088 -0.1025
  726MOL0     O   86   3.411  11.293   5.973  0.2708  0.0187  0.2474
  726MOL0     C   87   3.441  11.276   5.832 -0.1513 -0.1534 -0.9307
  726MOL0     C   88   3.584  11.328   5.824  0.7295 -0.5768 -0.6030
  726MOL0     C   89   3.701  11.245   5.888 -0.3222 -0.4521  0.0635
  726MOL0     C   90   3.742  11.125   5.805  0.2817  0.0866 -0.0014
  726MOL0     C   91   3.809  11.020   5.895 -0.5781 -0.4216 -0.4620
  726MOL0     C   92   3.954  11.058   5.938 -0.0813  0.8718  0.2763
  726MOL0     C   93   3.993  10.950   6.040  0.5240  0.2947  0.9157
  726MOL0     C   94   4.136  10.955   6.085  0.0504 -0.4503  0.8798
  726MOL0    Cl   95   4.173  10.805   6.188  0.1615  0.1846 -0.4813
  726MOL0     C   96   3.172  11.326   5.958 -0.0530 -0.1088 -0.3774
  726MOL0     C   97   3.057  11.384   5.999 -0.6032  0.0299  0.8555
  726MOL0     O   98   2.977  11.767   6.109 -0.0062  0.1553  0.4063
  726MOL0     C   99   2.692  11.791   6.156  0.1445  0.0997  0.4136
  726MOL0     C  100   2.571  11.825   6.222 -0.7598 -0.1732 -0.0757
  726MOL0     N  101   1.841  12.082   6.196 -0.1186 -0.0815 -0.1327
  726MOL0     N  102   1.731  12.093   6.137  0.5700  0.4327  0.1706
  726MOL0     C  103   0.954  11.334   6.765  0.2411 -0.0972 -0.5916
  726MOL0     C  104   0.850  11.260   6.813  0.1744  0.4860 -0.5506
  726MOL0     C  105   0.463  11.078   6.903 -0.0492  0.6516 -0.4376
  726MOL0     C  106   0.489  10.937   6.874  0.2501 -0.3133  0.0688
  726MOL0     C  107   0.404  10.836   6.906 -0.0345 -0.2279 -0.4047
  726MOL0     C  108   0.277  10.868   6.949 -0.3080  0.0562  0.1325
  726MOL0     O  109   0.174  10.780   6.964  0.5460 -0.0395 -0.2506
  726MOL0     C  110   0.183  10.647   6.918  0.1191 -0.7768  0.7992
  726MOL0     C  111   0.044  10.579   6.943  0.0014  0.0093  0.0502
  726MOL0     C  112  -0.049  10.613   6.823 -0.9579 -0.1414  0.6959
  726MOL0     C  113  -0.190  10.548   6.843  0.6207 -0.3967 -0.6492
  726MOL0     C  114  -0.281  10.559   6.724  0.3932 -0.2038  0.4410
  726MOL0     C  115  -0.363  10.569   6.629 -0.4307  0.1103 -0.8070
  726MOL0     C  116   0.251  11.002   6.988 -0.5230  0.1672 -0.4096
  726MOL0     C  117   0.335  11.107   6.954  0.3682  0.1343  0.1203
  726MOL0     C  118   0.289  11.256   6.976  0.3253 -0.0598 -0.3584
  726MOL0     H  119   0.697  11.191   6.515 -0.2801  3.6172 -3.1388
  726MOL0     H  120   0.917  11.300   6.423  0.8694  0.9350  0.2454
  726MOL0     H  121   1.040  11.583   6.474 -0.2468 -0.7740 -0.5752
  726MOL0     H  122   1.105  11.424   6.405 -1.2944 -2.1583  1.2511
  726MOL0     H  123   1.246  11.629   6.595 -0.6884  1.3246 -0.3658
  726MOL0     H  124   1.328  11.490   6.530 -2.6421 -2.7692  2.3702
  726MOL0     H  125   1.230  11.744   6.413  1.7046  0.9083  0.8254
  726MOL0     H  126   1.395  11.699   6.424  0.4955 -0.2581 -0.8215
  726MOL0     H  127   1.366  11.537   6.235  1.1540  2.0269 -0.0429
  726MOL0     H  128   1.198  11.562   6.218 -0.4191  0.8597  0.0494
  726MOL0     H  129   1.248  11.809   6.169 -0.4784 -0.1054 -3.3593
  726MOL0     H  130   1.284  11.682   6.054 -1.9805 -0.8398  0.4733
  726MOL0     H  131   1.513  11.768   6.220  0.4271 -1.1285 -0.1743
  726MOL0     H  132   1.518  11.679   6.082  0.8356 -1.8452  4.6061
  726MOL0     H  133   1.433  11.980   6.119 -0.0495  0.1265  1.1677
  726MOL0     H  134   1.386  11.887   5.976  1.0995 -0.3721 -0.6930
  726MOL0     H  135   1.629  11.880   5.903 -1.3145  1.4142 -2.0151
  726MOL0     H  136   1.572  12.035   5.930 -1.9095  0.7531  2.1492
  726MOL0     H  137   1.806  11.783   6.048  0.2836  1.3209 -1.8058
  726MOL0     H  138   2.093  11.931   6.144  0.2327 -0.3049  2.2818
  726MOL0     H  139   2.038  11.784   6.200  1.4827 -0.3581  0.1581
  726MOL0     H  140   2.101  12.039   6.366  0.4441 -0.7842  1.0142
  726MOL0     H  141   1.976  11.929   6.418  0.4486 -1.3524  0.1655
  726MOL0     H  142   2.192  11.880   6.526 -1.9171  0.1971  0.2284
  726MOL0     H  143   2.145  11.743   6.424 -0.4994 -0.3282  1.3724
  726MOL0     H  144   2.298  11.801   6.238 -1.6424  1.8466 -1.8922
  726MOL0     H  145   2.339  11.953   6.303  1.5074 -1.0073 -3.1322
  726MOL0     H  146   2.584  11.628   6.481 -1.2905  2.6411  0.7942
  726MOL0     H  147   2.952  11.612   6.403 -0.4986  0.2254 -0.7270
  726MOL0     H  148   2.867  11.456   6.381  1.4996 -0.5794  1.1960
  726MOL0     H  149   2.829  11.562   6.519  3.6332  3.1354  1.9160
  726MOL0     H  150   3.183  11.591   6.232 -0.1662 -0.5902  0.7462
  726MOL0     H  151   3.393  11.490   6.147  0.7879 -2.3400  0.2965
  726MOL0     H  152   3.441  11.170   5.806  0.3917 -0.3851 -0.0171
  726MOL0     H  153   3.378  11.332   5.762 -1.7122 -1.8422 -0.9456
  726MOL0     H  154   3.605  11.357   5.720  0.9664 -0.1674 -0.4454
  726MOL0     H  155   3.593  11.423   5.877  0.2087  0.7487 -2.7354
  726MOL0     H  156   3.668  11.213   5.987 -0.3763 -2.1165 -0.4701
  726MOL0     H  157   3.795  11.301   5.888  0.8221 -2.1448 -2.9155
  726MOL0     H  158   3.803  11.149   5.717 -0.6855 -1.2617 -1.0833
  726MOL0     H  159   3.655  11.078   5.759 -1.7789  1.2191  2.4883
  726MOL0     H  160   3.750  10.999   5.985  0.4080  1.5552  0.7162
  726MOL0     H  161   3.804  10.927   5.838  1.5419  0.3571 -2.0222
  726MOL0     H  162   3.968  11.155   5.986 -1.4295  1.9839 -1.4507
  726MOL0     H  163   4.017  11.047   5.849 -0.5471  0.8156 -0.0456
  726MOL0     H  164   3.975  10.860   5.982 -1.2827  0.4093  1.2503
  726MOL0     H  165   3.930  10.953   6.130 -0.4128 -2.3665  0.4369
  726MOL0     H  166   4.149  11.036   6.157  0.9554 -2.6762  3.3624
  726MOL0     H  167   4.202  10.955   5.997  1.7336 -1.3766  2.0922
  726MOL0     H  168   3.172  11.248   5.882  1.9893  1.7375 -2.4347
  726MOL0     H  169   2.963  11.352   5.957  0.2104 -2.1740  0.5895
  726MOL0     H  170   2.725  11.835   6.063 -1.1684 -0.1614 -0.2089
  726MOL0     H  171   2.516  11.908   6.178 -0.8424 -1.9750 -3.7604
  726MOL0     H  172   1.027  11.385   6.826 -0.1841  0.0887 -0.2325
  726MOL0     H  173   0.843  11.242   6.919  1.1679 -2.0209 -0.8546
  726MOL0     H  174   0.588  10.919   6.832  1.0818  2.3102  0.6924
  726MOL0     H  175   0.424  10.730   6.889  2.4880  0.2638 -0.8408
  726MOL0     H  176   0.216  10.640   6.814 -1.2260 -1.7239  0.4130
  726MOL0     H  177   0.256  10.592   6.978  0.6921 -2.5128 -1.3656
  726MOL0     H  178   0.014  10.617   7.041  1.7703  2.1442 -0.1648
  726MOL0     H  179   0.060  10.471   6.942  0.5823  0.0422  2.1685
  726MOL0     H  180  -0.046  10.723   6.823  0.1982 -0.1424  1.9959
  726MOL0     H  181   0.006  10.567   6.741 -3.0677 -0.7281 -0.4523
  726MOL0     H  182  -0.234  10.611   6.921  1.1310  1.8922 -2.1143
  726MOL0     H  183  -0.180  10.447   6.882 -0.5713 -0.8011 -1.3266
  726MOL0     H  184  -0.431  10.567   6.547 -1.6698  2.0240  0.0920
  726MOL0     H  185   0.158  11.040   7.030  0.2427  1.8104 -0.1203
  726MOL0     H  186   0.183  11.274   6.997  0.5901  0.8718  0.2721
  726MOL0     H  187   0.341  11.289   7.066  1.3667  2.3832 -1.7520
  726MOL0     H  188   0.310  11.327   6.895  2.3974  1.3725  1.2856
  727MOL0     O  189   9.026  10.851  10.808 -0.5620  0.4170  0.3502
  727MOL0     C  190   8.928  10.783  10.783  0.2293 -0.7717 -0.0583
  727MOL0     O  191   8.899  10.722  10.664 -0.1928 -0.2426 -0.1289
  727MOL0     C  192   8.976  10.719  10.551 -0.0416 -0.0650 -0.1517
  727MOL0     C  193   8.951  10.613  10.461  0.1577  0.2000  0.6265
  727MOL0     C  194   9.023  10.595  10.345 -0.5544  0.0088  0.1832
  727MOL0     C  195   9.127  10.684  10.315 -1.0709  0.8518 -0.2889
  727MOL0     O  196   9.198  10.650  10.198  0.2711 -0.1103  0.5486
  727MOL0     C  197   9.335  10.691  10.187 -0.2415  0.4271 -0.4682
  727MOL0     C  198   9.419  10.612  10.092 -0.7873  1.3664 -0.3022
  727MOL0     C  199   9.369  10.619   9.946  0.0082 -0.0662  0.0505
  727MOL0     C  200   9.490  10.602   9.854  0.6071 -0.2060  0.9759
  727MOL0     C  201   9.556  10.737   9.838 -0.1202 -0.2472 -0.5423
  727MOL0     C  202   9.682  10.719   9.760  1.0902 -0.2645 -0.3692
  727MOL0     C  203   9.698  10.845   9.665  0.4294  0.3897 -0.4871
  727MOL0     C  204   9.713  10.971   9.751  0.2237 -0.7418 -0.1304
  727MOL0     N  205   9.859  10.980   9.790  0.1029  0.2870  1.2316
  727MOL0     C  206   9.951  11.043   9.709 -0.4272  1.0272 -0.0473
  727MOL0     C  207  10.067  11.016   9.785  0.7209 -0.0098 -0.1386
  727MOL0     C  208  10.195  11.073   9.747 -0.0904 -0.0012  0.8418
  727MOL0     C  209  10.295  10.974   9.696 -0.1418  0.8642 -0.3984
  727MOL0     C  210  10.429  11.028   9.665  0.6136  0.9096 -0.9221
  727MOL0     C  211  10.442  11.086   9.529  0.3425 -0.4054 -0.1280
  727MOL0     O  212  10.578  11.119   9.489  0.2713  0.1678 -0.2946
  727MOL0     C  213  10.615  11.245   9.513 -0.6736 -0.6607  0.8829
  727MOL0     C  214  10.738  11.283   9.459  0.2833  0.1537 -0.9535
  727MOL0     C  215  10.800  11.403   9.468  0.2369 -0.6421 -0.3037
  727MOL0     C  216  10.942  11.400   9.405  0.8136  0.2356  0.4443
  727MOL0     C  217  10.731  11.510   9.523 -1.2436  0.0869 -0.1137
  727MOL0     C  218  10.774  11.654   9.514 -0.8603  0.0358  0.1255
  727MOL0     O  219  10.708  11.736   9.592 -0.6746 -0.0709 -0.3368
  727MOL0     C  220  10.708  11.870   9.567  0.1430 -0.0956  0.2895
  727MOL0     C  221  10.725  11.956   9.676 -0.4377 -0.3152  0.0023
  727MOL0     C  222  10.722  12.097   9.657  0.0331 -0.1532  0.6123
  727MOL0     C  223  10.659  12.149   9.551 -0.2676  0.4243 -0.7888
  727MOL0     O  224  10.618  12.276   9.526 -0.7680  0.5266 -0.4641
  727MOL0     C  225  10.657  12.393   9.600  0.9080  0.6686  0.3349
  727MOL0     C  226  10.587  12.519   9.545  0.0458 -0.3878 -0.8557
  727MOL0     C  227  10.645  12.661   9.588 -0.1749  0.7030  0.4921
  727MOL0     C  228  10.792  12.669   9.531  0.3237 -0.5571  0.4397
  727MOL0     C  229  10.846  12.812   9.559 -0.9495  0.1211 -0.5890
  727MOL0     C  230  10.999  12.820   9.531  0.2564  0.2659  0.2123
  727MOL0     C  231  11.049  12.969   9.509  0.3172  0.3353  0.3994
  727MOL0     C  232  11.063  12.996   9.354  0.4371 -0.5596 -0.2454
  727MOL0    Cl  233  11.048  13.170   9.323  0.0029 -0.1630  0.2922
  727MOL0     C  234  10.631  12.061   9.445  0.6361 -0.1344  0.3513
  727MOL0     C  235  10.655  11.929   9.452  0.3026 -0.0968 -0.8418
  727MOL0     O  236  10.835  11.692   9.419 -0.1851  0.0572 -0.0537
  727MOL0     C  237  10.604  11.482   9.581  0.3880 -0.0451  0.2591
  727MOL0     C  238  10.549  11.351   9.571 -0.1964 -0.7755 -0.1311
  727MOL0     N  239  10.036  10.959   9.906 -0.3087  0.1635 -0.0529
  727MOL0     N  240   9.910  10.944   9.911  0.0446 -0.5921 -0.7443
  727MOL0     C  241   9.144  10.797  10.392 -0.2917  0.0391 -0.5180
  727MOL0     C  242   9.066  10.813  10.511 -0.3472 -0.7548 -0.2971
  727MOL0     C  243   8.829  10.756  10.893 -0.0302  0.1082 -0.4626
  727MOL0     C  244   8.709  10.685  10.854  0.8523  0.1054  0.1453
  727MOL0     C  245   8.612  10.660  10.956 -0.2831 -1.0872 -0.3612
  727MOL0     C  246   8.622  10.719  11.081  0.5058  0.1185  0.1277
  727MOL0     O  247   8.509  10.715  11.169 -0.0826  0.3981  0.2250
  727MOL0     C  248   8.510  10.722  11.307  0.0228 -0.2922  0.6447
  727MOL0     C  249   8.462  10.857  11.373  0.7167 -0.9142 -0.4752
  727MOL0     C  250   8.444  10.869  11.530 -0.9878 -0.1386  0.4208
  727MOL0     C  251   8.390  11.003  11.565  0.6129 -0.2941 -0.1252
  727MOL0     C  252   8.475  11.109  11.576  0.0613 -0.7494  0.6083
  727MOL0     C  253   8.542  11.213  11.579 -0.0908 -0.6248 -0.5347
  727MOL0     C  254   8.744  10.783  11.115 -0.3818  1.5102 -0.7931
  727MOL0     C  255   8.843  10.811  11.019  0.3059 -0.3474 -0.4252
  727MOL0     C  256   8.956  10.894  11.075  0.5789 -0.1941 -0.7542
  727MOL0     H  257   8.866  10.545  10.462  0.0640 -0.0326 -3.6863
  727MOL0     H  258   9.000  10.520  10.270 -2.0269  0.1933  0.4156
  727MOL0     H  259   9.383  10.694  10.285  1.0080  2.6038 -1.0722
  727MOL0     H  260   9.334  10.794  10.150 -1.2265  1.3957  2.0582
  727MOL0     H  261   9.521  10.650  10.108 -1.5239  3.3275 -0.0617
  727MOL0     H  262   9.421  10.508  10.128 -0.9781  1.3777 -0.2603
  727MOL0     H  263   9.307  10.531   9.929 -1.7488  1.0268  0.5546
  727MOL0     H  264   9.307  10.701   9.909  4.9064  3.7961 -0.7708
  727MOL0     H  265   9.559  10.522   9.883  0.8788 -0.5208 -0.4640
  727MOL0     H  266   9.450  10.572   9.757 -0.1723 -1.6558  1.7063
  727MOL0     H  267   9.572  10.771   9.940 -1.5536  1.5651 -0.8628
  727MOL0     H  268   9.488  10.808   9.790  3.1932  2.7767 -1.1877
  727MOL0     H  269   9.768  10.706   9.826  1.6796  0.0333 -1.0630
  727MOL0     H  270   9.686  10.634   9.691  2.2063 -2.4543  2.2000
  727MOL0     H  271   9.605  10.861   9.611  0.1007  1.2698  0.3130
  727MOL0     H  272   9.770  10.821   9.586 -1.8737  3.4359 -3.8142
  727MOL0     H  273   9.685  11.069   9.710  0.9276 -0.3512  0.2852
  727MOL0     H  274   9.648  10.960   9.839  0.3888 -1.6869 -0.1203
  727MOL0     H  275   9.944  11.099   9.616 -0.2726  1.4575  0.1967
  727MOL0     H  276  10.242  11.124   9.831 -2.0620 -1.1460  2.7606
  727MOL0     H  277  10.181  11.160   9.683  0.7283  1.9965  3.2074
  727MOL0     H  278  10.309  10.895   9.771 -1.0246  1.7185  0.7027
  727MOL0     H  279  10.249  10.931   9.606  0.4657 -0.7194  0.0158
  727MOL0     H  280  10.458  11.098   9.745 -0.5096  1.6310 -1.1307
  727MOL0     H  281  10.487  10.936   9.673  1.1926  1.4070  2.4515
  727MOL0     H  282  10.410  11.008   9.459  2.2123 -1.9819  0.6823
  727MOL0     H  283  10.376  11.172   9.516 -0.1030 -0.8181 -0.6427
  727MOL0     H  284  10.788  11.203   9.404  3.2913 -1.4392  3.4934
  727MOL0     H  285  11.011  11.343   9.468  0.4866  0.7697  1.3112
  727MOL0     H  286  10.983  11.501   9.398 -1.4794  1.2515  0.6161
  727MOL0     H  287  10.929  11.348   9.309  3.4638 -1.1163  0.7315
  727MOL0     H  288  10.757  11.917   9.772  0.2685  3.7895  1.6721
  727MOL0     H  289  10.755  12.168   9.732 -0.8678 -0.8574  1.7175
  727MOL0     H  290  10.639  12.375   9.707 -2.9046  0.4236 -0.2085
  727MOL0     H  291  10.763  12.401   9.575  1.1103  0.1823  1.0143
  727MOL0     H  292  10.585  12.508   9.436 -0.9949 -0.7196 -0.8160
  727MOL0     H  293  10.487  12.521   9.590  1.7633  2.5534  3.4427
  727MOL0     H  294  10.636  12.667   9.697  1.4616  3.2015  0.5656
  727MOL0     H  295  10.585  12.740   9.543  1.4403  1.5959 -0.1807
  727MOL0     H  296  10.791  12.642   9.425  2.1213 -0.3632  0.3325
  727MOL0     H  297  10.851  12.586   9.573 -4.8687 -4.4965  0.8774
  727MOL0     H  298  10.793  12.872   9.484  0.9140 -0.7861 -2.7568
  727MOL0     H  299  10.814  12.848   9.657 -2.4033  0.5328 -1.1848
  727MOL0     H  300  11.024  12.762   9.442  2.5895  0.1921  0.8373
  727MOL0     H  301  11.065  12.777   9.607  1.2071 -0.5109 -1.0249
  727MOL0     H  302  11.147  12.976   9.556  0.1921  0.0552  0.7028
  727MOL0     H  303  10.992  13.043   9.567  2.2787  2.1117  0.1866
  727MOL0     H  304  10.979  12.953   9.300 -0.8803  3.5508 -1.8381
  727MOL0     H  305  11.161  12.959   9.322  0.2580  0.0562 -1.5877
  727MOL0     H  306  10.594  12.096   9.350  3.3240 -2.3139 -1.6628
  727MOL0     H  307  10.635  11.861   9.370  2.2187 -3.1552  1.0161
  727MOL0     H  308  10.546  11.561   9.628 -2.2141 -0.4113 -2.1005
  727MOL0     H  309  10.461  11.327   9.630  0.1299 -1.1341  0.2185
  727MOL0     H  310   9.229  10.860  10.367  1.0223  0.3696  3.8691
  727MOL0     H  311   9.083  10.904  10.569 -0.3263 -1.5867  1.0422
  727MOL0     H  312   8.687  10.653  10.753  2.5282  0.6678 -0.4235
  727MOL0     H  313   8.520  10.606  10.939 -0.9783 -0.2112  0.4998
  727MOL0     H  314   8.445  10.641  11.342  0.5957 -0.9075  0.2967
  727MOL0     H  315   8.608  10.696  11.348 -0.2267 -0.0750  1.4111
  727MOL0     H  316   8.360  10.874  11.336  0.5455  0.3990  0.5298
  727MOL0     H  317   8.525  10.940  11.340  0.0918  0.3514  1.4036
  727MOL0     H  318   8.385  10.794  11.583  0.2387 -0.0863  1.9567
  727MOL0     H  319   8.547  10.869  11.567 -0.7110 -0.3315 -0.3397
  727MOL0     H  320   8.353  10.997  11.668  2.7794 -0.0931  0.7180
  727MOL0     H  321   8.305  11.041  11.508  0.2307  2.4679  2.0390
  727MOL0     H  322   8.581  11.312  11.582 -1.2609 -0.1204  3.2701
  727MOL0     H  323   8.752  10.821  11.216  0.6204 -1.4594  0.3600
  727MOL0     H  324   9.045  10.833  11.090  2.1708  2.4867  1.9923
  727MOL0     H  325   8.978  10.974  11.003  2.2309  0.2319  0.1696
  727MOL0     H  326   8.924  10.938  11.170  4.1334  1.1120  0.0048
  728MOL0     O  327   6.341   1.122   4.726  0.2105 -0.2237  0.6547
  728MOL0     C  328   6.245   1.194   4.744 -0.8443 -0.2814 -0.0913
  728MOL0     O  329   6.237   1.291   4.854 -0.7030 -0.5434 -0.3228
  728MOL0     C  330   6.353   1.306   4.931  0.3273  0.2224 -0.2712
  728MOL0     C  331   6.413   1.430   4.948 -1.3709 -0.3556 -0.1369
  728MOL0     C  332   6.530   1.447   5.040  0.1730 -0.1206 -0.1309
  728MOL0     C  333   6.575   1.329   5.099 -0.6120  0.5245 -0.1637
  728MOL0     O  334   6.694   1.319   5.170  0.4708  0.0222 -0.5294
  728MOL0     C  335   6.763   1.438   5.214 -0.6159  0.2041  0.4629
  728MOL0     C  336   6.894   1.404   5.283  0.2643  0.6663  0.1377
  728MOL0     C  337   6.990   1.338   5.181  0.0813  0.3437  0.1745
  728MOL0     C  338   7.105   1.427   5.128 -0.8523 -0.1689  0.1195
  728MOL0     C  339   7.190   1.349   5.029  0.4874  0.5370 -0.8451
  728MOL0     C  340   7.321   1.426   4.993 -0.1490 -0.5532  0.6633
  728MOL0     C  341   7.411   1.359   4.882  0.2211 -0.0020  0.0734
  728MOL0     C  342   7.471   1.226   4.926  0.3208 -0.1430 -0.5342
  728MOL0     N  343   7.542   1.237   5.055 -0.5866 -0.0384 -0.3668
  728MOL0     C  344   7.650   1.326   5.073  0.0369  0.8201 -0.2537
  728MOL0     C  345   7.671   1.329   5.211  0.5339 -0.5777 -0.3248
  728MOL0     C  346   7.766   1.413   5.278 -0.8107  0.1314 -0.6813
  728MOL0     C  347   7.848   1.326   5.378 -0.4920 -0.6844 -0.8397
  728MOL0     C  348   7.920   1.427   5.462 -0.0425  0.2112 -0.7660
  728MOL0     C  349   8.004   1.349   5.557 -0.1061  0.2419 -0.2531
  728MOL0     O  350   8.103   1.431   5.617 -0.0199 -0.2870  0.2519
  728MOL0     C  351   8.071   1.478   5.737  0.9200 -0.3496 -0.3001
  728MOL0     C  352   8.134   1.417   5.842 -0.3396  0.5492  0.0771
  728MOL0     C  353   8.085   1.435   5.971  0.1873 -0.6191 -0.0083
  728MOL0     C  354   8.141   1.361   6.086  0.7312  1.0172  0.1970
  728MOL0     C  355   7.982   1.534   5.990  0.2855 -0.7524  0.2243
  728MOL0     C  356   7.922   1.563   6.130 -0.0882  0.2548 -0.3095
  728MOL0     O  357   7.883   1.688   6.147  0.3793 -0.5760  0.3234
  728MOL0     C  358   7.826   1.704   6.270  0.2169 -0.1981 -0.0371
  728MOL0     C  359   7.692   1.694   6.280 -0.2802 -1.1893  0.9267
  728MOL0     C  360   7.626   1.724   6.400  0.5171  0.2765 -0.6612
  728MOL0     C  361   7.704   1.754   6.519 -0.5290  0.0859 -0.7787
  728MOL0     O  362   7.663   1.771   6.648 -0.6282 -0.2240 -0.2160
  728MOL0     C  363   7.544   1.821   6.688 -0.9652  0.3520 -0.3901
  728MOL0     C  364   7.549   1.840   6.839  0.9303  0.1955 -0.8604
  728MOL0     C  365   7.520   1.702   6.915 -0.2179 -0.8179  0.7977
  728MOL0     C  366   7.369   1.683   6.934 -0.4823  0.4932 -0.8916
  728MOL0     C  367   7.337   1.571   7.025 -0.4453  0.4988  0.3673
  728MOL0     C  368   7.193   1.541   7.053  1.1330 -0.1762 -0.0591
  728MOL0     C  369   7.153   1.407   7.004  0.4370 -0.2811  0.6285
  728MOL0     C  370   7.001   1.392   6.986  0.0924 -1.1537  0.1449
  728MOL0    Cl  371   6.913   1.421   7.138  0.0175 -0.7056  0.0992
  728MOL0     C  372   7.836   1.753   6.503  0.1018  0.5233 -0.9880
  728MOL0     C  373   7.902   1.716   6.384 -0.0925 -0.5073  0.2690
  728MOL0     O  374   7.891   1.467   6.206  0.4297  0.1382  0.3712
  728MOL0     C  375   7.934   1.612   5.880 -0.0881  0.6488  0.2677
  728MOL0     C  376   7.974   1.579   5.748  0.2741 -0.3083 -0.9445
  728MOL0     N  377   7.582   1.242   5.263  0.6734  0.7558  0.6939
  728MOL0     N  378   7.510   1.185   5.174 -0.5874  0.1835  0.4687
  728MOL0     C  379   6.503   1.211   5.090  0.2312 -0.7428  1.1217
  728MOL0     C  380   6.388   1.207   5.016 -0.2583  0.3439  0.2049
  728MOL0     C  381   6.122   1.174   4.649 -0.0873 -1.4221 -0.2973
  728MOL0     C  382   6.019   1.262   4.682 -0.3510 -0.8262 -0.0209
  728MOL0     C  383   5.895   1.246   4.627 -0.4044  0.1210  0.2005
  728MOL0     C  384   5.868   1.148   4.534  0.4105 -0.2689  0.1675
  728MOL0     O  385   5.754   1.128   4.461  1.0905 -0.5493 -0.2840
  728MOL0     C  386   5.638   1.208   4.484 -0.3392  0.0481 -0.8085
  728MOL0     C  387   5.563   1.178   4.614 -0.5372 -0.2094  0.2445
  728MOL0     C  388   5.467   1.057   4.600  0.5313 -0.0884 -0.4889
  728MOL0     C  389   5.532   0.939   4.526 -0.0313  0.0389 -0.0028
  728MOL0     C  390   5.438   0.827   4.529 -0.0103  0.3584  0.8524
  728MOL0     C  391   5.357   0.735   4.547  0.8090  0.7891  0.0565
  728MOL0     C  392   5.969   1.061   4.501  0.7915 -0.8137  0.2998
  728MOL0     C  393   6.108   1.079   4.543 -0.0124  0.8498  0.1522
  728MOL0     C  394   6.215   0.990   4.483 -0.9738  0.4359  0.2505
  728MOL0     H  395   6.379   1.510   4.883 -1.3575 -1.2721 -1.3077
  728MOL0     H  396   6.578   1.543   5.058  1.1582 -0.6162 -0.0474
  728MOL0     H  397   6.687   1.494   5.270  0.5597  0.7783  1.5551
  728MOL0     H  398   6.795   1.514   5.143  1.3150  2.6999  3.7107
  728MOL0     H  399   6.942   1.494   5.322 -0.1024  1.2190 -0.6643
  728MOL0     H  400   6.874   1.343   5.372 -2.0107 -0.8395 -1.2939
  728MOL0     H  401   7.043   1.266   5.245  0.6936  0.8728  0.2662
  728MOL0     H  402   6.932   1.293   5.099 -3.0532  1.1947  1.7944
  728MOL0     H  403   7.059   1.512   5.077  0.7438  0.5862 -0.1209
  728MOL0     H  404   7.162   1.470   5.212  0.3223 -0.1769 -0.6491
  728MOL0     H  405   7.140   1.343   4.932  2.1678  1.4085 -1.8273
  728MOL0     H  406   7.222   1.253   5.070 -1.6962  0.0939 -0.0780
  728MOL0     H  407   7.290   1.524   4.956 -0.7135 -1.5785 -1.7541
  728MOL0     H  408   7.384   1.448   5.080  1.6639  1.9542 -1.1261
  728MOL0     H  409   7.498   1.416   4.849 -0.7038  0.6706 -1.2943
  728MOL0     H  410   7.359   1.341   4.787  2.2137 -0.2042 -1.0313
  728MOL0     H  411   7.396   1.147   4.928  2.1449 -1.9938  1.3891
  728MOL0     H  412   7.547   1.203   4.850  1.3089 -2.2196  0.9640
  728MOL0     H  413   7.691   1.388   4.995 -0.6904 -0.0809 -1.3849
  728MOL0     H  414   7.723   1.498   5.330  0.3126 -0.2888  1.0153
  728MOL0     H  415   7.844   1.453   5.212  0.6318 -0.5857  0.5190
  728MOL0     H  416   7.786   1.259   5.437 -2.2014  2.5731  1.4093
  728MOL0     H  417   7.925   1.273   5.321  1.2876 -0.1345  0.9308
  728MOL0     H  418   7.982   1.495   5.404 -0.3986 -0.3654 -1.8379
  728MOL0     H  419   7.846   1.477   5.525  3.2230  1.3388  2.5088
  728MOL0     H  420   7.942   1.303   5.636  0.7593 -0.5756 -0.0352
  728MOL0     H  421   8.046   1.264   5.503 -1.1480 -0.5341  0.1115
  728MOL0     H  422   8.212   1.345   5.824 -0.4845 -0.0397  1.7141
  728MOL0     H  423   8.100   1.260   6.087 -1.5764  1.8378 -1.5812
  728MOL0     H  424   8.130   1.399   6.188 -0.9266 -0.2174  0.5201
  728MOL0     H  425   8.249   1.355   6.072  0.8756  0.3011  1.4858
  728MOL0     H  426   7.640   1.650   6.195 -0.0794  1.1988 -0.5340
  728MOL0     H  427   7.518   1.711   6.408  0.0789  1.7705 -3.0554
  728MOL0     H  428   7.524   1.919   6.643 -3.1035  1.4215  2.5054
  728MOL0     H  429   7.460   1.759   6.655 -1.0296  0.4683 -0.4489
  728MOL0     H  430   7.648   1.879   6.866  1.4342 -0.4515 -1.7614
  728MOL0     H  431   7.470   1.910   6.871  2.4589  1.0497  1.3088
  728MOL0     H  432   7.570   1.714   7.011  2.3127  4.1293 -0.7399
  728MOL0     H  433   7.573   1.626   6.857  0.5151  2.0411 -2.7345
  728MOL0     H  434   7.322   1.681   6.835  0.0600 -1.2450 -1.1462
  728MOL0     H  435   7.326   1.768   6.990  3.0826  1.8101  0.1122
  728MOL0     H  436   7.390   1.484   6.986  2.4575  1.1526  2.4883
  728MOL0     H  437   7.396   1.585   7.116 -0.4602 -1.4754  0.7212
  728MOL0     H  438   7.143   1.622   7.000  2.0126  1.4709  1.5045
  728MOL0     H  439   7.173   1.547   7.161 -2.6344 -1.5418 -0.5415
  728MOL0     H  440   7.200   1.336   7.072 -0.1208  0.9612  2.3659
  728MOL0     H  441   7.187   1.398   6.900 -2.7043  2.7504 -0.8860
  728MOL0     H  442   6.976   1.294   6.944 -3.4145 -0.0173 -0.7105
  728MOL0     H  443   6.967   1.461   6.909  0.2020  0.0428  1.1427
  728MOL0     H  444   7.894   1.771   6.593 -1.8423  2.3844 -0.0170
  728MOL0     H  445   8.010   1.717   6.372  0.0398 -1.0893  1.3161
  728MOL0     H  446   7.859   1.691   5.884 -0.3264  0.8696 -3.8797
  728MOL0     H  447   7.934   1.618   5.655 -1.9553 -2.4612 -0.9701
  728MOL0     H  448   6.551   1.135   5.151  1.6760 -2.4503 -1.9352
  728MOL0     H  449   6.327   1.117   5.013  0.4440 -0.1068 -0.6847
  728MOL0     H  450   6.043   1.342   4.751 -1.2250  0.7414 -1.4455
  728MOL0     H  451   5.815   1.314   4.655 -0.3125  0.0752  0.5752
  728MOL0     H  452   5.669   1.313   4.476  0.0925 -0.0003  0.0489
  728MOL0     H  453   5.563   1.194   4.406 -2.1938 -0.2802  0.9323
  728MOL0     H  454   5.510   1.268   4.647  1.0737  0.2028  1.8868
  728MOL0     H  455   5.638   1.158   4.691  0.5034 -0.3526 -0.7821
  728MOL0     H  456   5.412   1.026   4.689  0.6017  0.6613 -0.1744
  728MOL0     H  457   5.384   1.090   4.537 -1.5270  0.2624  2.1985
  728MOL0     H  458   5.629   0.916   4.572 -1.2339 -0.2120  2.5666
  728MOL0     H  459   5.561   0.971   4.426 -1.4059 -2.9220 -1.4593
  728MOL0     H  460   5.274   0.686   4.595  2.1029 -1.3636  0.2254
  728MOL0     H  461   5.955   0.990   4.420 -2.9225 -3.2892  2.7862
  728MOL0     H  462   6.297   1.028   4.422 -1.5617 -3.0516 -3.1209
  728MOL0     H  463   6.249   0.913   4.552  0.6738  1.0690  0.1913
  728MOL0     H  464   6.161   0.931   4.408  0.2693 -0.2980 -0.0921
  729MOL0     O  465   3.671   5.312   1.905 -0.5030  0.0762  0.6399
  729MOL0     C  466   3.575   5.309   1.985 -0.2944  0.0875  0.3689
  729MOL0     O  467   3.577   5.270   2.116 -0.4626  0.1165  0.5472
  729MOL0     C  468   3.697   5.237   2.171 -0.5574  0.1053 -0.1387
  729MOL0     C  469   3.804   5.326   2.165 -0.1947 -0.1435  1.0002
  729MOL0     C  470   3.902   5.313   2.259  0.9946 -0.3487 -0.2576
  729MOL0     C  471   3.905   5.207   2.353 -0.1587  1.1353 -0.2719
  729MOL0     O  472   3.986   5.202   2.458  0.1025  0.6360 -0.1794
  729MOL0     C  473   4.118   5.201   2.422  0.9753 -0.1992  0.5462
  729MOL0     C  474   4.195   5.242   2.548  0.3980  1.3722 -0.0335
  729MOL0     C  475   4.346   5.213   2.530  0.3871 -0.2063 -0.5248
  729MOL0     C  476   4.427   5.250   2.655  0.0836  0.3874 -0.0391
  729MOL0     C  477   4.578   5.231   2.627 -0.5028 -0.5537 -0.3510
  729MOL0     C  478   4.653   5.225   2.769 -0.1285  0.3632  0.3571
  729MOL0     C  479   4.801   5.188   2.781  0.0116  0.6620  0.7689
  729MOL0     C  480   4.898   5.307   2.751  0.5868  0.5689 -0.3357
  729MOL0     N  481   5.032   5.270   2.802  0.2821  0.3501  0.1476
  729MOL0     C  482   5.095   5.339   2.901  0.3170 -0.3905  1.0397
  729MOL0     C  483   5.205   5.269   2.927  0.5642  0.8343 -0.2897
  729MOL0     C  484   5.326   5.309   3.008  0.3166 -0.6800 -0.5083
  729MOL0     C  485   5.444   5.208   3.011 -0.6082 -0.6422  0.5551
  729MOL0     C  486   5.551   5.238   3.121 -0.0508  0.4273 -0.3695
  729MOL0     C  487   5.642   5.352   3.072  1.2227  0.1611 -0.5583
  729MOL0     O  488   5.603   5.472   3.139  0.1645  0.4462  0.1896
  729MOL0     C  489   5.669   5.587   3.105 -0.5076 -0.0864  0.0577
  729MOL0     C  490   5.650   5.704   3.184  0.1954 -0.2056  0.1002
  729MOL0     C  491   5.710   5.825   3.157  0.7106  0.3314 -0.2196
  729MOL0     C  492   5.657   5.944   3.218  0.3595 -0.7047 -0.1018
  729MOL0     C  493   5.811   5.832   3.059 -0.5311 -0.0091  0.4842
  729MOL0     C  494   5.890   5.956   3.023  0.2927 -0.2947  0.2332
  729MOL0     O  495   5.912   5.966   2.891 -0.3649 -0.8171  0.7679
  729MOL0     C  496   5.958   6.095   2.859 -0.1222 -0.2116  0.0439
  729MOL0     C  497   6.096   6.117   2.861  0.0107 -0.4018  0.8251
  729MOL0     C  498   6.147   6.236   2.815  0.1572  0.1035 -0.5015
  729MOL0     C  499   6.057   6.341   2.777  0.3964  0.5120 -0.2971
  729MOL0     O  500   6.086   6.476   2.743 -0.4806 -0.0286  0.6411
  729MOL0     C  501   6.216   6.533   2.762 -0.2761  1.2686  0.6547
  729MOL0     C  502   6.228   6.668   2.693  0.2731  0.1170 -0.2184
  729MOL0     C  503   6.343   6.764   2.743 -0.1430 -0.3937 -0.0477
  729MOL0     C  504   6.373   6.865   2.628  0.0213  0.8830  0.0838
  729MOL0     C  505   6.273   6.990   2.632 -0.0764  0.2867 -0.6504
  729MOL0     C  506   6.294   7.094   2.526 -1.0073  0.2261  0.5444
  729MOL0     C  507   6.300   7.040   2.385 -0.0619 -0.7150  0.6983
  729MOL0     C  508   6.283   7.158   2.276  0.1988 -0.4348 -0.5013
  729MOL0    Cl  509   6.270   7.100   2.104  0.3098  0.3269  0.1848
  729MOL0     C  510   5.918   6.312   2.783 -0.3729 -0.3592  0.3016
  729MOL0     C  511   5.866   6.189   2.812  0.0209 -0.0605  0.3797
  729MOL0     O  512   5.918   6.040   3.108 -0.9709 -0.4611  0.5495
  729MOL0     C  513   5.835   5.722   2.979  0.6154  0.4781 -0.2281
  729MOL0     C  514   5.768   5.601   3.002  0.8544  0.5280  0.0862
  729MOL0     N  515   5.200   5.148   2.853  0.2333 -0.1129 -0.4748
  729MOL0     N  516   5.096   5.154   2.775  0.0605  0.3287  0.5307
  729MOL0     C  517   3.811   5.103   2.339  0.9279  0.7263 -0.0045
  729MOL0     C  518   3.701   5.125   2.259  0.2537 -1.7878  0.8077
  729MOL0     C  519   3.445   5.353   1.932 -0.1642 -0.6536  0.5462
  729MOL0     C  520   3.337   5.285   1.982 -0.0354  0.5040 -0.1434
  729MOL0     C  521   3.212   5.330   1.947  0.0741  1.3513 -0.0440
  729MOL0     C  522   3.184   5.439   1.873 -0.5131  0.8446 -0.0546
  729MOL0     O  523   3.056   5.481   1.843  0.4929 -0.3887  0.0561
  729MOL0     C  524   2.956   5.389   1.824 -0.4115  0.8322 -0.5691
  729MOL0     C  525   2.843   5.464   1.756 -0.5016  0.3420  0.2082
  729MOL0     C  526   2.711   5.385   1.738 -0.6322 -0.7249 -0.3980
  729MOL0     C  527   2.586   5.476   1.729 -0.4453  0.3477  0.6380
  729MOL0     C  528   2.467   5.403   1.675 -0.4272 -0.0700  0.4288
  729MOL0     C  529   2.379   5.338   1.623 -0.9584 -0.1575 -0.2490
  729MOL0     C  530   3.287   5.516   1.830  0.4135 -0.2322  0.1626
  729MOL0     C  531   3.421   5.470   1.854 -0.4892  0.3348  0.0994
  729MOL0     C  532   3.533   5.552   1.796 -0.0827 -0.5113 -0.3190
  729MOL0     H  533   3.796   5.419   2.109 -0.3096  0.0587  1.3520
  729MOL0     H  534   3.964   5.401   2.274  0.0618  0.3475 -0.3663
  729MOL0     H  535   4.144   5.273   2.344 -1.8572  0.0517 -0.2805
  729MOL0     H  536   4.153   5.106   2.380  2.2122  0.6066 -0.3224
  729MOL0     H  537   4.180   5.349   2.564 -3.3512  0.5451  3.5587
  729MOL0     H  538   4.151   5.192   2.635 -0.4833  0.0643 -1.1852
  729MOL0     H  539   4.369   5.110   2.503 -1.0812 -0.8243  0.4530
  729MOL0     H  540   4.387   5.285   2.459  0.2739  0.4470  0.0600
  729MOL0     H  541   4.407   5.353   2.684  1.0573  0.5960 -0.0666
  729MOL0     H  542   4.400   5.187   2.740  1.0542 -1.8935 -1.3176
  729MOL0     H  543   4.624   5.307   2.561  0.3615 -0.9243 -0.1884
  729MOL0     H  544   4.587   5.133   2.580  0.8050 -1.1842  1.1474
  729MOL0     H  545   4.649   5.323   2.816  1.7848  1.2878 -1.2529
  729MOL0     H  546   4.602   5.152   2.832  0.3219 -2.1431 -1.9668
  729MOL0     H  547   4.831   5.110   2.711 -2.3261 -1.1592  1.6653
  729MOL0     H  548   4.820   5.144   2.879  0.8441  0.8560  0.7041
  729MOL0     H  549   4.894   5.321   2.643 -1.5194 -1.4900 -0.6076
  729MOL0     H  550   4.865   5.397   2.805 -0.2585  0.4704 -0.6762
  729MOL0     H  551   5.066   5.436   2.941  0.1518  0.1151 -0.2597
  729MOL0     H  552   5.301   5.331   3.112  0.2893 -0.8685 -0.4735
  729MOL0     H  553   5.365   5.406   2.976 -0.6553  0.9888  2.8875
  729MOL0     H  554   5.406   5.108   3.035  0.4199 -0.9642  0.8938
  729MOL0     H  555   5.489   5.200   2.912 -1.7158  1.1743 -0.1523
  729MOL0     H  556   5.517   5.258   3.223  1.5719 -2.4973  0.8524
  729MOL0     H  557   5.623   5.157   3.136 -0.4846  0.1098  0.0150
  729MOL0     H  558   5.746   5.328   3.098  0.1251 -0.3104  4.1609
  729MOL0     H  559   5.643   5.369   2.964 -0.9897  1.0788 -0.4756
  729MOL0     H  560   5.572   5.690   3.258  0.2752 -0.7675  0.0894
  729MOL0     H  561   5.712   5.973   3.308 -2.8632 -2.9331  2.8712
  729MOL0     H  562   5.558   5.914   3.256  0.6002 -2.1383 -0.5530
  729MOL0     H  563   5.647   6.019   3.139 -0.1383 -2.6537 -1.9661
  729MOL0     H  564   6.160   6.034   2.888 -2.0766 -1.9758  1.1007
  729MOL0     H  565   6.253   6.255   2.806  1.0094 -3.3556  0.7184
  729MOL0     H  566   6.244   6.542   2.868 -0.1834 -1.9796  0.9986
  729MOL0     H  567   6.285   6.466   2.710 -0.5787  0.1214  1.6884
  729MOL0     H  568   6.235   6.656   2.585 -1.8387  3.8818 -0.9573
  729MOL0     H  569   6.142   6.734   2.708  1.3593  1.0460  2.8051
  729MOL0     H  570   6.437   6.713   2.767  0.4004  1.1670  1.2964
  729MOL0     H  571   6.304   6.802   2.838  0.3672 -1.4403  0.5972
  729MOL0     H  572   6.378   6.813   2.532 -0.7631 -0.7858  0.9031
  729MOL0     H  573   6.476   6.902   2.639  0.7067 -1.3625  2.1123
  729MOL0     H  574   6.175   6.950   2.606  0.1162  2.0859 -4.8276
  729MOL0     H  575   6.273   7.027   2.735 -4.1484 -0.3211 -0.2837
  729MOL0     H  576   6.388   7.147   2.543 -0.0371 -0.3088 -2.5426
  729MOL0     H  577   6.211   7.165   2.527 -2.7756 -1.7148  2.4334
  729MOL0     H  578   6.232   6.955   2.373 -1.4039  0.2369  1.3085
  729MOL0     H  579   6.397   6.993   2.364  0.3391  0.3919 -0.0557
  729MOL0     H  580   6.365   7.229   2.292  0.4246 -1.0005  0.9768
  729MOL0     H  581   6.190   7.207   2.305  0.4152  0.0274 -0.5849
  729MOL0     H  582   5.847   6.384   2.742 -0.0711  0.9680  1.9854
  729MOL0     H  583   5.764   6.157   2.795 -0.5344  0.1688  2.9670
  729MOL0     H  584   5.914   5.725   2.904 -0.6232  0.4437 -1.5679
  729MOL0     H  585   5.794   5.527   2.928 -0.8530  0.2877 -0.3095
  729MOL0     H  586   3.809   5.027   2.417 -0.5970  0.1826 -0.5253
  729MOL0     H  587   3.608   5.071   2.272 -2.1637  2.0555  0.9005
  729MOL0     H  588   3.365   5.195   2.037  0.7227 -0.0476 -1.3698
  729MOL0     H  589   3.131   5.264   1.976  0.7101 -0.8424 -2.8315
  729MOL0     H  590   2.978   5.305   1.758  2.1477  2.6792 -2.2862
  729MOL0     H  591   2.928   5.342   1.919 -0.8998  2.0171 -0.0997
  729MOL0     H  592   2.883   5.501   1.661  1.5309 -5.0114 -1.4047
  729MOL0     H  593   2.811   5.558   1.801 -2.0116  0.0501 -0.1969
  729MOL0     H  594   2.727   5.313   1.657  0.9442 -2.0774  1.0102
  729MOL0     H  595   2.704   5.319   1.826  0.4630 -0.7366 -0.3044
  729MOL0     H  596   2.612   5.553   1.656 -0.3810  0.6768  1.0012
  729MOL0     H  597   2.565   5.531   1.821 -1.0245 -1.5567  1.7013
  729MOL0     H  598   2.308   5.269   1.581 -0.3391 -1.8735  1.3814
  729MOL0     H  599   3.267   5.605   1.771 -0.9025  1.9373  3.6016
  729MOL0     H  600   3.483   5.638   1.751 -3.0289 -0.4287  2.7280
  729MOL0     H  601   3.607   5.574   1.873 -2.5146 -0.6145  2.1961
  729MOL0     H  602   3.581   5.503   1.710 -0.7003  0.0831 -1.0241
  730MOL0     O  603   6.517   5.646   5.265 -0.5729  0.7210  0.5909
  730MOL0     C  604   6.408   5.631   5.314  0.1981  0.6508  0.7318
  730MOL0     O  605   6.367   5.693   5.430 -0.2176 -0.4122  0.8252
  730MOL0     C  606   6.464   5.747   5.509 -0.8914 -0.2940 -0.1610
  730MOL0     C  607   6.476   5.884   5.525  0.1459  0.7236 -0.0999
  730MOL0     C  608   6.577   5.943   5.602 -0.3394  0.3090  0.8015
  730MOL0     C  609   6.670   5.866   5.669 -0.5146  0.5461  0.3449
  730MOL0     O  610   6.781   5.919   5.730 -0.4536  0.0321  0.3692
  730MOL0     C  611   6.843   6.042   5.694  0.2474  0.8709 -0.3058
  730MOL0     C  612   6.929   6.094   5.804 -0.4048 -0.3838  0.6401
  730MOL0     C  613   6.854   6.107   5.929  0.3810 -0.5433 -0.1274
  730MOL0     C  614   6.713   6.158   5.914 -0.3117 -0.3056  0.2240
  730MOL0     C  615   6.643   6.152   6.047 -0.3209 -0.5777  0.0971
  730MOL0     C  616   6.502   6.209   6.018  0.0338 -0.0406 -0.3713
  730MOL0     C  617   6.409   6.195   6.143  0.1341 -0.0329  0.4938
  730MOL0     C  618   6.441   6.274   6.267 -0.5076  0.7348 -0.0126
  730MOL0     N  619   6.412   6.417   6.268  0.2542 -0.4952 -0.1431
  730MOL0     C  620   6.443   6.499   6.376 -0.2777 -0.3085  0.3902
  730MOL0     C  621   6.426   6.631   6.334  0.4088  0.6236 -0.3496
  730MOL0     C  622   6.439   6.752   6.413 -0.3729 -0.2047  0.0374
  730MOL0     C  623   6.305   6.797   6.472 -0.4804 -0.7186  0.7821
  730MOL0     C  624   6.303   6.945   6.505 -0.6710 -0.0262  0.4516
  730MOL0     C  625   6.404   6.998   6.605  0.4651 -0.4895 -1.2019
  730MOL0     O  626   6.389   6.950   6.739  0.2182 -0.0888 -0.0291
  730MOL0     C  627   6.397   7.048   6.835  0.4578  0.6678  0.3554
  730MOL0     C  628   6.306   7.055   6.935  0.6024  0.1351  0.3002
  730MOL0     C  629   6.299   7.159   7.031 -0.5482  1.3069 -1.1484
  730MOL0     C  630   6.198   7.140   7.141 -0.4101 -0.0465  0.8845
  730MOL0     C  631   6.387   7.270   7.020 -0.3784 -0.4773  0.1689
  730MOL0     C  632   6.392   7.384   7.116 -1.1923 -0.3349  0.5523
  730MOL0     O  633   6.299   7.386   7.203  0.2765  0.0985 -0.6290
  730MOL0     C  634   6.279   7.495   7.281  1.0540 -0.7764 -0.6077
  730MOL0     C  635   6.306   7.489   7.420 -0.5034  0.2960  0.8776
  730MOL0     C  636   6.270   7.596   7.503  0.2034  1.3212  0.4831
  730MOL0     C  637   6.188   7.700   7.454 -0.6657 -0.2982 -0.0754
  730MOL0     O  638   6.141   7.800   7.532  0.7410  0.5639  0.1837
  730MOL0     C  639   6.244   7.847   7.621 -0.5319  0.8552  0.9914
  730MOL0     C  640   6.203   7.991   7.652 -0.5548 -0.2298  0.5658
  730MOL0     C  641   6.198   8.100   7.536  0.4716 -0.1946 -0.0481
  730MOL0     C  642   6.062   8.096   7.466 -0.6890 -0.2662  0.3704
  730MOL0     C  643   6.048   8.229   7.396  0.6047  0.0876  0.5122
  730MOL0     C  644   5.936   8.240   7.298  0.1363 -0.4160 -0.0799
  730MOL0     C  645   5.794   8.191   7.362 -0.8377 -0.3809 -0.4950
  730MOL0     C  646   5.682   8.242   7.271 -0.2022 -0.4087  0.2026
  730MOL0    Cl  647   5.527   8.203   7.354 -0.3802  0.0460 -0.0189
  730MOL0     C  648   6.166   7.709   7.318 -0.3486  0.7795 -0.1650
  730MOL0     C  649   6.208   7.601   7.238  0.8846  0.1442 -0.5297
  730MOL0     O  650   6.488   7.467   7.106 -0.3645 -0.5012  0.5503
  730MOL0     C  651   6.493   7.256   6.923 -0.6332 -0.7275  0.4659
  730MOL0     C  652   6.498   7.146   6.834 -0.7320  0.2062 -0.3062
  730MOL0     N  653   6.389   6.623   6.198  0.1797  0.1065 -0.1538
  730MOL0     N  654   6.383   6.494   6.164  0.3541 -0.0884 -0.3715
  730MOL0     C  655   6.650   5.730   5.662  0.2000 -0.1046  0.6568
  730MOL0     C  656   6.549   5.672   5.583  0.0153  0.1780 -0.5861
  730MOL0     C  657   6.309   5.552   5.225  0.0790 -0.9305  0.1586
  730MOL0     C  658   6.342   5.518   5.089  0.7755 -0.5854 -0.6943
  730MOL0     C  659   6.256   5.447   5.007 -0.0295 -0.0591  0.7658
  730MOL0     C  660   6.137   5.401   5.059  0.6255 -0.5552 -0.0699
  730MOL0     O  661   6.049   5.337   4.978  0.5870  0.2280  0.3359
  730MOL0     C  662   5.946   5.260   5.040  0.5668  0.3317  0.1724
  730MOL0     C  663   5.895   5.158   4.940 -0.0919  0.0529  0.1671
  730MOL0     C  664   5.830   5.030   5.003 -0.3425  0.4716 -0.0691
  730MOL0     C  665   5.791   4.940   4.885 -0.1916 -0.4534 -0.8862
  730MOL0     C  666   5.677   4.984   4.803 -0.5643  0.2094  0.0477
  730MOL0     C  667   5.604   5.039   4.729  0.2626  0.0515  0.6137
  730MOL0     C  668   6.098   5.455   5.184  0.3173 -0.7192 -0.9952
  730MOL0     C  669   6.183   5.522   5.264  0.4322  0.7283  0.3368
  730MOL0     C  670   6.120   5.556   5.397 -0.0734  0.2241 -0.3023
  730MOL0     H  671   6.404   5.946   5.472 -0.7530  0.0111  0.2625
  730MOL0     H  672   6.581   6.051   5.586 -0.3349 -0.0759 -2.5533
  730MOL0     H  673   6.762   6.112   5.670  0.5322  0.9149 -1.1681
  730MOL0     H  674   6.913   6.023   5.613 -0.0641  0.1948 -0.4255
  730MOL0     H  675   7.004   6.019   5.830  0.6510  0.0338 -1.0204
  730MOL0     H  676   6.988   6.186   5.792 -0.4525  0.1256  3.6053
  730MOL0     H  677   6.852   6.004   5.967  2.7688 -1.9552 -3.3360
  730MOL0     H  678   6.899   6.175   6.002 -2.3481 -0.5217  1.6735
  730MOL0     H  679   6.732   6.261   5.883  0.8045  0.8177  4.0747
  730MOL0     H  680   6.655   6.090   5.852  0.0218  0.4669 -0.9814
  730MOL0     H  681   6.704   6.208   6.118  0.6183 -0.3921 -0.8413
  730MOL0     H  682   6.636   6.046   6.076  0.9239 -0.4539  0.9339
  730MOL0     H  683   6.520   6.315   5.995 -0.1020  0.7270  2.6320
  730MOL0     H  684   6.458   6.158   5.932 -0.0544  0.4676 -0.6309
  730MOL0     H  685   6.427   6.092   6.176 -1.0023 -1.0892 -1.9950
  730MOL0     H  686   6.305   6.220   6.124  0.8349  2.4711 -0.4053
  730MOL0     H  687   6.378   6.241   6.349 -1.4790 -1.0935 -1.4174
  730MOL0     H  688   6.549   6.258   6.283  0.2882  4.1784 -1.2120
  730MOL0     H  689   6.493   6.465   6.465  0.7205 -1.2500 -0.4952
  730MOL0     H  690   6.471   6.835   6.350  3.6033 -0.5544  1.3137
  730MOL0     H  691   6.515   6.734   6.490 -1.1226 -0.2027  0.7919
  730MOL0     H  692   6.229   6.778   6.396  1.2763 -2.1814 -0.7008
  730MOL0     H  693   6.287   6.731   6.557 -0.0545 -0.2627  1.2289
  730MOL0     H  694   6.323   6.991   6.408 -0.0997 -3.3944 -1.1854
  730MOL0     H  695   6.204   6.974   6.543 -1.1542 -1.5791  0.4576
  730MOL0     H  696   6.504   6.978   6.567  2.3487  4.1867  0.5710
  730MOL0     H  697   6.392   7.106   6.610 -0.1223 -0.5916  3.4285
  730MOL0     H  698   6.239   6.970   6.941 -1.6354  1.7444 -0.6832
  730MOL0     H  699   6.253   7.108   7.230  0.3833 -0.6167  0.1936
  730MOL0     H  700   6.133   7.055   7.121  1.3610 -1.0589 -0.9232
  730MOL0     H  701   6.140   7.231   7.165 -1.0895 -0.0847 -0.5356
  730MOL0     H  702   6.358   7.404   7.463  0.2270  0.1214 -0.3289
  730MOL0     H  703   6.302   7.594   7.607  1.5980  1.5738  0.0846
  730MOL0     H  704   6.248   7.793   7.716  1.4661  2.0279  1.6299
  730MOL0     H  705   6.342   7.849   7.574  0.9713  0.8106  3.8807
  730MOL0     H  706   6.114   7.988   7.715  0.7458  0.8088  2.5325
  730MOL0     H  707   6.290   8.028   7.707  1.1611 -3.2288  0.1266
  730MOL0     H  708   6.275   8.101   7.458 -0.4923 -2.6198 -1.1147
  730MOL0     H  709   6.206   8.192   7.595  1.0101 -0.2742  0.0059
  730MOL0     H  710   5.986   8.098   7.544  1.0363 -0.0102  2.1450
  730MOL0     H  711   6.058   8.009   7.400  0.6684 -0.6904  0.8129
  730MOL0     H  712   6.049   8.316   7.462  0.1361 -0.8505  1.7776
  730MOL0     H  713   6.125   8.249   7.321 -0.7301 -0.0708 -0.9556
  730MOL0     H  714   5.954   8.179   7.209  1.0098  1.9655 -1.6359
  730MOL0     H  715   5.930   8.347   7.274 -0.3008 -0.3022  0.5013
  730MOL0     H  716   5.778   8.225   7.465  2.3939 -0.8088  0.2256
  730MOL0     H  717   5.799   8.082   7.373 -0.6135 -0.2461  1.0221
  730MOL0     H  718   5.700   8.194   7.175  0.2868  3.2782 -1.7322
  730MOL0     H  719   5.683   8.350   7.257  0.0170 -0.4301  0.0563
  730MOL0     H  720   6.119   7.801   7.285 -1.9029  0.2485  0.4653
  730MOL0     H  721   6.181   7.608   7.133 -4.3163  0.6935  0.5700
  730MOL0     H  722   6.575   7.327   6.911 -0.7804 -0.6940 -0.4216
  730MOL0     H  723   6.583   7.125   6.770 -0.5035 -2.6712  0.7927
  730MOL0     H  724   6.723   5.669   5.712  0.5502 -2.6791 -2.6512
  730MOL0     H  725   6.538   5.564   5.580 -0.5815  0.0710  2.2478
  730MOL0     H  726   6.436   5.551   5.046  1.1115  0.2055  0.5990
  730MOL0     H  727   6.281   5.429   4.903 -0.8888  0.2912  0.4828
  730MOL0     H  728   5.989   5.210   5.127  2.2013  1.3238 -0.0349
  730MOL0     H  729   5.864   5.326   5.067  1.0174  1.2703 -0.6743
  730MOL0     H  730   5.980   5.128   4.879  0.3197 -0.8877  1.1555
  730MOL0     H  731   5.823   5.211   4.877 -1.4591  0.3133  1.8692
  730MOL0     H  732   5.913   4.979   5.053 -0.2096  0.6284 -0.1289
  730MOL0     H  733   5.743   5.054   5.066 -0.5712  2.1450 -0.9828
  730MOL0     H  734   5.770   4.836   4.912 -2.2616 -0.2572 -1.6012
  730MOL0     H  735   5.879   4.925   4.822  0.0574 -1.7793 -0.2741
  730MOL0     H  736   5.537   5.105   4.678 -0.5148  0.3137  1.9050
  730MOL0     H  737   5.994   5.445   5.214  0.7647  2.0748  2.0709
  730MOL0     H  738   6.193   5.556   5.478 -1.8506 -0.2767  1.3683
  730MOL0     H  739   6.089   5.661   5.397  0.7677  0.4806 -0.0829
  730MOL0     H  740   6.046   5.480   5.420  1.9294 -1.8959 -0.5349
  731MOL0     O  741   0.443   6.170   8.283 -0.0509  0.3202 -0.4755
  731MOL0     C  742   0.453   6.149   8.404 -0.7824 -1.3342 -0.1532
  731MOL0     O  743   0.529   6.045   8.464  1.0901 -0.7861  0.3002
  731MOL0     C  744   0.636   5.993   8.397 -0.2780  0.2382 -0.5009
  731MOL0     C  745   0.729   6.065   8.322  0.1742 -0.1701 -0.3023
  731MOL0     C  746   0.829   6.005   8.248  0.1823 -0.8173 -0.5858
  731MOL0     C  747   0.833   5.862   8.244  0.5395  0.6030 -0.3195
  731MOL0     O  748   0.905   5.777   8.162 -0.2371 -0.7135  0.2304
  731MOL0     C  749   0.956   5.839   8.049 -0.6504 -0.5820  0.3162
  731MOL0     C  750   1.027   5.743   7.961 -0.3602  0.2219 -1.3166
  731MOL0     C  751   1.159   5.689   8.023  0.2516  0.6834 -0.0205
  731MOL0     C  752   1.265   5.794   8.047 -0.1029 -0.5533  0.0802
  731MOL0     C  753   1.355   5.749   8.160 -0.3600 -0.2121 -0.6149
  731MOL0     C  754   1.477   5.821   8.187  0.1063 -0.4559  0.7029
  731MOL0     C  755   1.542   5.765   8.314 -0.3059  0.0395  0.5096
  731MOL0     C  756   1.654   5.845   8.362 -0.0434 -0.6258 -0.2200
  731MOL0     N  757   1.790   5.818   8.307  0.5712 -0.5740 -0.1921
  731MOL0     C  758   1.877   5.720   8.354  0.4932  0.6140  0.4827
  731MOL0     C  759   1.974   5.703   8.261  0.9453 -0.8011  0.1682
  731MOL0     C  760   2.094   5.625   8.252  0.1492  0.8237  0.0827
  731MOL0     C  761   2.211   5.691   8.313  0.5530 -0.2720  0.3741
  731MOL0     C  762   2.304   5.784   8.229 -0.2285  0.6031  0.6510
  731MOL0     C  763   2.398   5.696   8.148 -0.6764  0.5137  0.4293
  731MOL0     O  764   2.446   5.776   8.034 -0.0124  0.5537 -0.9524
  731MOL0     C  765   2.517   5.705   7.937  0.5190 -0.3297  1.0319
  731MOL0     C  766   2.453   5.686   7.814  0.2497  0.5107 -0.4198
  731MOL0     C  767   2.511   5.600   7.717  0.3613  0.1232 -0.1951
  731MOL0     C  768   2.424   5.579   7.592  0.7561  0.1608 -0.1446
  731MOL0     C  769   2.642   5.543   7.744 -0.3272  0.0917  0.1984
  731MOL0     C  770   2.712   5.445   7.656 -0.4631 -0.8813  0.4590
  731MOL0     O  771   2.817   5.372   7.702  0.9166 -0.3254  0.0078
  731MOL0     C  772   2.883   5.272   7.628  0.1319 -0.1369  0.3152
  731MOL0     C  773   2.835   5.178   7.536 -0.0322  0.6636  0.1326
  731MOL0     C  774   2.915   5.068   7.500 -0.1930 -0.3203 -0.2830
  731MOL0     C  775   3.046   5.056   7.539  0.0566  0.1580  0.2358
  731MOL0     O  776   3.129   4.949   7.504 -0.1797  0.9035  0.0412
  731MOL0     C  777   3.144   4.917   7.371  0.0635 -0.2731  0.1786
  731MOL0     C  778   3.232   4.799   7.342 -0.1569  0.0781  0.8768
  731MOL0     C  779   3.375   4.806   7.390  0.1667 -0.3091 -0.2238
  731MOL0     C  780   3.470   4.698   7.329  0.5945 -0.5691  0.4765
  731MOL0     C  781   3.610   4.694   7.391 -0.5647  0.8449 -0.0089
  731MOL0     C  782   3.678   4.833   7.404 -0.3131  0.4693 -0.2333
  731MOL0     C  783   3.834   4.822   7.391  0.4638 -1.0250  0.6075
  731MOL0     C  784   3.902   4.745   7.498  0.2382 -0.2023  0.2207
  731MOL0    Cl  785   3.877   4.847   7.651  0.4614 -0.1396 -0.5842
  731MOL0     C  786   3.093   5.156   7.625  0.1071  0.3512 -0.0567
  731MOL0     C  787   3.009   5.259   7.674 -1.1054  0.1144 -1.1311
  731MOL0     O  788   2.666   5.426   7.542 -0.0998  0.5044 -0.3326
  731MOL0     C  789   2.697   5.564   7.865 -0.5195  0.0157 -0.4061
  731MOL0     C  790   2.638   5.652   7.955  0.3860 -0.0007 -0.3352
  731MOL0     N  791   1.946   5.805   8.168  0.5364  0.4609  0.1704
  731MOL0     N  792   1.842   5.879   8.197  0.6039 -0.1404  0.5293
  731MOL0     C  793   0.747   5.789   8.330 -0.4765  0.2394 -0.3566
  731MOL0     C  794   0.657   5.856   8.409  0.0698  0.2213 -0.3875
  731MOL0     C  795   0.379   6.237   8.485  1.0888 -0.2415 -1.1517
  731MOL0     C  796   0.373   6.198   8.698 -0.1550  0.2269  0.5228
  731MOL0     C  797   0.295   6.344   8.826  0.3724  0.1377  1.1119
  731MOL0     C  798   0.227   6.529   8.755 -0.0696  0.0804  0.7024
  731MOL0     O  799   0.182   6.618   8.848 -0.5010  0.1960 -0.4010
  731MOL0     C  800   0.115   6.732   8.789 -0.2156 -0.2956  0.6068
  731MOL0     C  801   0.113   6.837   8.897 -0.6678  0.0620  0.0990
  731MOL0     C  802   0.003   6.791   9.004  0.1137 -0.1774 -0.3501
  731MOL0     C  803   0.023   6.859   9.135 -0.1514  0.4696 -0.4670
  731MOL0     C  804   0.013   7.000   9.117 -0.3978  0.1841  0.2670
  731MOL0     C  805   0.026   7.126   9.084 -0.7883 -0.0088 -0.0864
  731MOL0     C  806   0.228   6.566   8.551  0.6486  1.1235 -0.2471
  731MOL0     C  807   0.302   6.422   8.412  1.6069 -0.0838  1.1488
  731MOL0     C  808   0.299   6.450   8.261 -0.4835  0.2006 -0.0580
  731MOL0     H  809   0.726   6.173   8.315 -0.2173 -0.2027 -0.6446
  731MOL0     H  810   0.901   6.070   8.201  2.8691 -2.2576  1.2386
  731MOL0     H  811   1.024   5.922   8.072  0.5817 -1.2602 -0.7823
  731MOL0     H  812   0.871   5.887   7.999  1.6801  2.8102 -0.8191
  731MOL0     H  813   0.964   5.657   7.935  1.7803 -0.7686 -3.7005
  731MOL0     H  814   1.062   5.778   7.863 -0.4321 -2.4280 -2.3958
  731MOL0     H  815   1.133   5.637   8.116  2.3922  1.0508  0.8383
  731MOL0     H  816   1.212   5.610   7.971 -0.8099 -0.0519 -0.0150
  731MOL0     H  817   1.335   5.812   7.964 -1.5125 -1.4912 -1.3561
  731MOL0     H  818   1.226   5.892   8.077  2.4754  0.4046  0.6435
  731MOL0     H  819   1.383   5.646   8.139  3.3513  0.2379  1.2955
  731MOL0     H  820   1.303   5.746   8.256  1.3873  2.2972  0.5370
  731MOL0     H  821   1.549   5.823   8.105 -0.0707  2.3890  0.5170
  731MOL0     H  822   1.451   5.927   8.192  2.1684  0.1936 -0.8043
  731MOL0     H  823   1.569   5.662   8.287 -2.2513 -0.0815 -1.3249
  731MOL0     H  824   1.469   5.764   8.396 -0.2507 -2.0200  0.5834
  731MOL0     H  825   1.631   5.948   8.334  0.9374 -0.2012  0.5005
  731MOL0     H  826   1.665   5.820   8.468  2.5136 -0.1448 -0.3231
  731MOL0     H  827   1.861   5.660   8.443 -1.9700  0.1330 -0.2219
  731MOL0     H  828   2.105   5.603   8.145  0.0159 -2.1925  0.5974
  731MOL0     H  829   2.081   5.537   8.315  0.2148 -1.7846 -3.2236
  731MOL0     H  830   2.182   5.754   8.397  0.4627 -0.0352  0.1668
  731MOL0     H  831   2.277   5.615   8.357  0.1501 -1.1037 -0.4195
  731MOL0     H  832   2.245   5.840   8.155  0.2080  1.7657  1.1606
  731MOL0     H  833   2.363   5.851   8.291 -0.0355  0.4029  0.6842
  731MOL0     H  834   2.484   5.658   8.203  0.6603  0.1562 -1.7944
  731MOL0     H  835   2.340   5.612   8.108  0.6546  0.9162 -2.6599
  731MOL0     H  836   2.350   5.716   7.793  0.1524  1.1709  0.8793
  731MOL0     H  837   2.325   5.626   7.590  0.6422 -0.0927 -0.7356
  731MOL0     H  838   2.412   5.472   7.572  0.4911  0.4080 -1.3999
  731MOL0     H  839   2.476   5.631   7.511  1.6013  1.8051  1.3884
  731MOL0     H  840   2.733   5.168   7.499  0.8818  0.0503 -2.4363
  731MOL0     H  841   2.878   4.989   7.435  0.6353 -0.7147 -0.2817
  731MOL0     H  842   3.044   4.892   7.335 -0.1207 -1.7891  1.6231
  731MOL0     H  843   3.186   5.006   7.323 -0.4536  0.7794  1.5970
  731MOL0     H  844   3.182   4.706   7.370  0.5196 -0.2579  0.9661
  731MOL0     H  845   3.236   4.796   7.233 -0.1997  0.1060  0.8746
  731MOL0     H  846   3.368   4.797   7.499 -3.2598 -0.3436 -0.3433
  731MOL0     H  847   3.412   4.905   7.361 -0.6766 -0.0156 -0.3214
  731MOL0     H  848   3.489   4.723   7.224 -1.3225  1.4091  0.5194
  731MOL0     H  849   3.426   4.599   7.346 -0.6247  0.3944  3.8156
  731MOL0     H  850   3.594   4.650   7.490  0.9532  3.0011  1.2796
  731MOL0     H  851   3.677   4.622   7.343  1.2492 -0.4656  4.0303
  731MOL0     H  852   3.663   4.873   7.504  0.2824  0.5479 -0.1667
  731MOL0     H  853   3.631   4.903   7.334 -0.8246  2.1142  1.6597
  731MOL0     H  854   3.875   4.923   7.399 -1.0160 -0.2407 -0.9944
  731MOL0     H  855   3.861   4.775   7.295 -0.8064  0.6505 -0.6322
  731MOL0     H  856   4.009   4.737   7.481  0.4321  2.5367 -0.3612
  731MOL0     H  857   3.853   4.648   7.509  0.0328 -0.3249 -1.6148
  731MOL0     H  858   3.195   5.140   7.658  0.5238 -4.4219 -2.7505
  731MOL0     H  859   3.059   5.338   7.729  2.7898 -2.6358 -0.2902
  731MOL0     H  860   2.800   5.536   7.884 -1.6609 -3.0994  1.8993
  731MOL0     H  861   2.705   5.669   8.039  0.1515 -2.3283  0.4085
  731MOL0     H  862   0.758   5.681   8.334  0.4856  0.3562  1.9998
  731MOL0     H  863   0.585   5.791   8.457  0.3646 -0.3683 -0.7266
  731MOL0     H  864   0.396   6.101   8.739 -2.3482  0.5044  2.6332
  731MOL0     H  865   0.271   6.321   8.929 -3.2547 -1.2323  0.1125
  731MOL0     H  866   0.171   6.763   8.701  1.7696  0.3785  2.0282
  731MOL0     H  867   0.009   6.715   8.768  0.0299 -1.2767  0.0832
  731MOL0     H  868   0.083   6.932   8.852 -0.7893  0.1450  0.3493
  731MOL0     H  869   0.206   6.843   8.955 -1.7605 -0.8580  2.0510
  731MOL0     H  870  -0.090   6.808   8.948 -0.3102  2.2329  0.9581
  731MOL0     H  871   0.014   6.684   9.025 -0.7702 -0.6414 -2.0452
  731MOL0     H  872   0.115   6.827   9.187 -0.9350 -2.2822 -0.5768
  731MOL0     H  873  -0.060   6.830   9.200 -0.8412  1.3973 -0.9184
  731MOL0     H  874   0.019   7.228   9.050  1.3319  0.3933  0.4837
  731MOL0     H  875   0.186   6.661   8.520 -0.4245  0.4344 -0.9403
  731MOL0     H  876   0.282   6.554   8.231 -2.3556 -0.1189 -0.1961
  731MOL0     H  877   0.397   6.415   8.227 -1.1176 -3.2887  1.3438
  731MOL0     H  878   0.222   6.397   8.205 -2.8908  1.6133  1.7255
  732MOL0     O  879   2.219  11.128   5.923  0.6469 -0.7718 -0.0408
  732MOL0     C  880   2.131  11.061   5.874 -0.5127 -0.1649  0.4705
  732MOL0     O  881   2.101  11.065   5.745  0.4005 -0.8545 -0.5259
  732MOL0     C  882   2.180  11.123   5.654  0.3312 -0.8027  0.8463
  732MOL0     C  883   2.199  11.259   5.667  0.1781  0.1461  0.3935
  732MOL0     C  884   2.266  11.335   5.570 -0.8562  0.3954 -0.0139
  732MOL0     C  885   2.336  11.264   5.470  0.1670  0.2266  0.4493
  732MOL0     O  886   2.411  11.331   5.376  0.3990 -0.0557 -0.2047
  732MOL0     C  887   2.454  11.465   5.415  0.3946  0.3947 -0.8620
  732MOL0     C  888   2.574  11.519   5.338 -0.4667 -0.4228 -0.9013
  732MOL0     C  889   2.635  11.626   5.420  0.1359 -0.5336 -0.4561
  732MOL0     C  890   2.724  11.729   5.343 -0.0454  0.1367 -0.5031
  732MOL0     C  891   2.795  11.660   5.232  0.3122  0.2117 -0.0280
  732MOL0     C  892   2.931  11.728   5.213  0.3349  0.4916  0.0983
  732MOL0     C  893   3.006  11.698   5.082 -0.3090  0.0513 -0.1706
  732MOL0     C  894   3.147  11.768   5.097 -0.1199  0.8369 -0.7441
  732MOL0     N  895   3.255  11.697   5.159  0.1632  0.9343 -0.5655
  732MOL0     C  896   3.270  11.680   5.294  0.1062  0.8929 -0.4794
  732MOL0     C  897   3.394  11.626   5.304  0.1189 -0.8836 -0.5870
  732MOL0     C  898   3.465  11.604   5.436 -0.6726 -0.5981 -0.6701
  732MOL0     C  899   3.540  11.733   5.471  0.7866  0.6927  0.0623
  732MOL0     C  900   3.601  11.742   5.606 -0.6669 -0.4878 -0.0764
  732MOL0     C  901   3.750  11.687   5.624  0.0163  0.2549 -0.2808
  732MOL0     O  902   3.754  11.548   5.583  1.0583 -0.3162 -0.5246
  732MOL0     C  903   3.862  11.469   5.598  0.4459 -0.3955  0.6073
  732MOL0     C  904   3.850  11.353   5.525 -0.2411 -0.0358  0.7812
  732MOL0     C  905   3.946  11.249   5.529  0.2094 -0.2064 -0.8429
  732MOL0     C  906   3.926  11.140   5.435 -0.2809  0.4334 -0.1282
  732MOL0     C  907   4.062  11.272   5.609 -0.0051  0.5101 -0.1941
  732MOL0     C  908   4.192  11.199   5.602  0.7429  0.3251  0.1703
  732MOL0     O  909   4.178  11.065   5.586  0.4443  0.5283 -0.0773
  732MOL0     C  910   4.287  10.976   5.592 -0.2015 -0.0508  0.1632
  732MOL0     C  911   4.346  10.937   5.474 -0.6614 -0.4817 -0.0438
  732MOL0     C  912   4.443  10.840   5.486 -0.0868  0.5190 -0.0549
  732MOL0     C  913   4.493  10.802   5.611 -0.6495  0.1469 -0.1719
  732MOL0     O  914   4.583  10.701   5.632  0.6699  0.4457  0.6042
  732MOL0     C  915   4.711  10.731   5.590  0.0133  0.8619 -0.2456
  732MOL0     C  916   4.804  10.614   5.635 -0.7679 -0.2999  1.3801
  732MOL0     C  917   4.753  10.470   5.600  0.0325  1.5088  0.3245
  732MOL0     C  918   4.729  10.444   5.456  0.1511  0.0749 -0.1479
  732MOL0     C  919   4.658  10.316   5.427 -0.3024 -0.5897 -0.0038
  732MOL0     C  920   4.746  10.196   5.471 -0.3720  0.7338  0.2849
  732MOL0     C  921   4.696  10.066   5.389 -0.6151 -0.0376  0.2187
  732MOL0     C  922   4.769   9.940   5.429 -0.6089 -0.0406  0.2540
  732MOL0    Cl  923   4.731   9.905   5.608 -0.2108 -0.1951 -0.1316
  732MOL0     C  924   4.435  10.851   5.724 -0.4884  0.7046  0.6012
  732MOL0     C  925   4.334  10.943   5.710  0.6592  0.1083 -0.6550
  732MOL0     O  926   4.302  11.245   5.637  1.1721 -0.1682  0.4877
  732MOL0     C  927   4.061  11.382   5.693  0.6532  0.2137 -0.7506
  732MOL0     C  928   3.963  11.485   5.689 -0.8847 -0.5530 -1.4349
  732MOL0     N  929   3.452  11.610   5.179 -0.4730  0.1746  0.4330
  732MOL0     N  930   3.367  11.657   5.097 -0.0892 -0.1194  1.0387
  732MOL0     C  931   2.316  11.124   5.464  0.6279  0.1038 -0.4035
  732MOL0     C  932   2.238  11.050   5.550  0.2484 -0.1230  0.0091
  732MOL0     C  933   2.058  10.972   5.970 -0.0482  0.5300  0.5897
  732MOL0     C  934   2.067  10.990   6.110 -0.0758  0.3651  0.6124
  732MOL0     C  935   2.009  10.899   6.202 -0.3604 -0.4001  0.1282
  732MOL0     C  936   1.938  10.785   6.154  0.1352  0.2031 -0.7183
  732MOL0     O  937   1.864  10.701   6.231 -0.1538  0.0768 -0.4807
  732MOL0     C  938   1.806  10.739   6.356 -0.5988  0.0001 -0.1319
  732MOL0     C  939   1.739  10.622   6.423 -0.0245 -0.2819 -0.1661
  732MOL0     C  940   1.640  10.671   6.520  0.0173 -0.1238  0.4261
  732MOL0     C  941   1.580  10.558   6.602 -0.8339 -0.6211  0.0235
  732MOL0     C  942   1.471  10.498   6.533  0.8962 -0.2453  0.4531
  732MOL0     C  943   1.385  10.435   6.476  0.1787 -0.5560 -0.9387
  732MOL0     C  944   1.924  10.774   6.014  0.1765 -0.3603 -0.7381
  732MOL0     C  945   1.968  10.872   5.928 -0.8870 -0.7626  0.2822
  732MOL0     C  946   1.912  10.854   5.786 -1.2301 -0.0699 -0.1281
  732MOL0     H  947   2.158  11.313   5.751  1.6491  0.9045  0.6574
  732MOL0     H  948   2.267  11.443   5.582 -0.2249  0.7254 -2.5104
  732MOL0     H  949   2.482  11.454   5.520 -1.7391 -1.2475 -0.4017
  732MOL0     H  950   2.380  11.546   5.416  0.2209  0.2950  1.5892
  732MOL0     H  951   2.629  11.426   5.328  2.0142  0.3514  3.1007
  732MOL0     H  952   2.540  11.545   5.238 -0.6254 -1.6029 -1.1591
  732MOL0     H  953   2.559  11.687   5.470  2.1914  1.2263  0.7476
  732MOL0     H  954   2.696  11.579   5.498  0.6924 -0.4916 -0.8541
  732MOL0     H  955   2.659  11.812   5.317 -0.0332 -0.4709 -2.6019
  732MOL0     H  956   2.796  11.770   5.415  1.6981 -0.1943 -1.9827
  732MOL0     H  957   2.743  11.644   5.137 -1.1035  3.4486  0.0790
  732MOL0     H  958   2.823  11.558   5.262 -2.2731 -0.2798  0.9739
  732MOL0     H  959   2.923  11.837   5.219 -1.5105  0.7453 -3.9199
  732MOL0     H  960   2.999  11.692   5.291  0.6990 -0.2716 -0.5683
  732MOL0     H  961   2.951  11.740   4.997 -0.7250  0.9437  0.5359
  732MOL0     H  962   3.020  11.592   5.058 -0.7975  0.3632 -2.0458
  732MOL0     H  963   3.188  11.781   4.996  0.3195  0.7396 -0.5783
  732MOL0     H  964   3.149  11.871   5.131 -0.5755  0.6136 -0.0009
  732MOL0     H  965   3.196  11.700   5.371  2.3132  1.2865  1.6688
  732MOL0     H  966   3.533  11.518   5.439  2.3021  1.5840  2.3746
  732MOL0     H  967   3.392  11.582   5.514  1.1735  0.7430  1.5744
  732MOL0     H  968   3.618  11.753   5.397  3.2135 -1.2964  1.8924
  732MOL0     H  969   3.470  11.817   5.465  0.7628  0.5975 -1.1677
  732MOL0     H  970   3.610  11.847   5.635  0.8133 -0.2455 -1.3232
  732MOL0     H  971   3.535  11.695   5.680  0.2866  1.5290  2.1914
  732MOL0     H  972   3.820  11.744   5.562 -1.8293  0.0283 -2.7370
  732MOL0     H  973   3.778  11.695   5.729  1.1315 -0.4104 -0.5044
  732MOL0     H  974   3.769  11.343   5.454  0.2535 -0.5724  0.2789
  732MOL0     H  975   3.988  11.153   5.346  0.4224 -1.6679 -0.0070
  732MOL0     H  976   3.824  11.136   5.397 -0.7631  1.3889  1.0208
  732MOL0     H  977   3.967  11.048   5.479  2.6006  1.0442 -1.2618
  732MOL0     H  978   4.307  10.970   5.378 -1.2860 -0.5059  0.1942
  732MOL0     H  979   4.493  10.810   5.394  0.5439  0.3443  0.3345
  732MOL0     H  980   4.707  10.723   5.481 -2.9819 -1.1629 -0.1302
  732MOL0     H  981   4.748  10.828   5.625  0.3021 -0.0545  2.1990
  732MOL0     H  982   4.901  10.630   5.588 -2.3254  1.5535 -1.4454
  732MOL0     H  983   4.815  10.621   5.744  1.4240  2.9690  1.0718
  732MOL0     H  984   4.667  10.441   5.661  0.3981 -0.3597  0.0176
  732MOL0     H  985   4.828  10.398   5.635 -1.9560  0.3148  2.3846
  732MOL0     H  986   4.822  10.459   5.400  0.1514  1.0866  0.0978
  732MOL0     H  987   4.655  10.519   5.423 -1.4706 -1.5259 -0.3115
  732MOL0     H  988   4.560  10.305   5.475 -1.9765 -0.4455 -3.1077
  732MOL0     H  989   4.647  10.314   5.318 -0.7316 -2.6162  0.0350
  732MOL0     H  990   4.742  10.186   5.580  1.6342  0.9157  0.4129
  732MOL0     H  991   4.844  10.221   5.430 -0.4123  0.3956 -0.0263
  732MOL0     H  992   4.703  10.079   5.280  0.6752 -0.1110  0.2759
  732MOL0     H  993   4.591  10.059   5.419 -0.6033  1.8347  0.7973
  732MOL0     H  994   4.877   9.948   5.416 -0.9605  0.6667 -3.3789
  732MOL0     H  995   4.727   9.855   5.375 -1.1997  0.3710  0.0471
  732MOL0     H  996   4.465  10.819   5.823  0.2173  0.9286  0.4610
  732MOL0     H  997   4.292  10.981   5.803  0.9926 -0.7368 -0.1551
  732MOL0     H  998   4.139  11.391   5.768  0.6905 -0.3687 -0.7155
  732MOL0     H  999   3.966  11.573   5.752  0.0124 -1.4642 -0.1539
  732MOL0     H 1000   2.349  11.073   5.374 -1.0962  2.8363 -2.7612
  732MOL0     H 1001   2.207  10.946   5.543  3.3130 -1.1007 -0.4868
  732MOL0     H 1002   2.139  11.066   6.136  1.2072 -0.1567 -1.2334
  732MOL0     H 1003   2.027  10.924   6.306 -0.0193 -3.4303  0.8760
  732MOL0     H 1004   1.883  10.785   6.419 -0.0201 -0.5948 -0.3982
  732MOL0     H 1005   1.732  10.815   6.326 -0.7409  0.2446  0.8005
  732MOL0     H 1006   1.823  10.572   6.474  0.4911  1.8723  1.2508
  732MOL0     H 1007   1.694  10.556   6.348 -0.2460  2.1193 -2.2863
  732MOL0     H 1008   1.682  10.746   6.588 -1.7625  1.2303  0.1067
  732MOL0     H 1009   1.557  10.715   6.464 -0.5770 -1.9032 -0.1574
  732MOL0     H 1010   1.535  10.596   6.694 -2.9897 -1.0999 -0.7557
  732MOL0     H 1011   1.660  10.486   6.617  1.1043  0.7027 -3.0884
  732MOL0     H 1012   1.306  10.370   6.445  0.5701 -2.9986  2.6140
  732MOL0     H 1013   1.867  10.692   5.973  0.3625  0.8417 -3.6077
  732MOL0     H 1014   1.849  10.765   5.776 -3.0890  1.0529  0.9880
  732MOL0     H 1015   1.865  10.941   5.739  1.9270  0.8411 -1.8338
  732MOL0     H 1016   1.997  10.836   5.720 -1.5732  2.0356 -1.2459
  733MOL0     O 1017   9.094   8.378   4.539  0.0566 -0.1254  0.4354
  733MOL0     C 1018   9.088   8.483   4.604  1.1465  0.2422  0.3802
  733MOL0     O 1019   9.184   8.582   4.602 -0.0528 -1.0077  0.1867
  733MOL0     C 1020   9.306   8.560   4.548 -0.7061 -0.0544  0.0595
  733MOL0     C 1021   9.396   8.461   4.587  0.2826 -0.7361 -0.2025
  733MOL0     C 1022   9.505   8.432   4.502 -0.2921 -0.6565 -0.8607
  733MOL0     C 1023   9.526   8.508   4.394 -0.0920  0.1221  0.3966
  733MOL0     O 1024   9.640   8.477   4.328 -0.3513 -0.5265  0.3250
  733MOL0     C 1025   9.700   8.561   4.231  0.0498 -1.1920  0.6815
  733MOL0     C 1026   9.848   8.557   4.237  0.1616  0.7542  0.2523
  733MOL0     C 1027   9.924   8.607   4.113  0.6862  0.0291  0.9237
  733MOL0     C 1028   9.971   8.492   4.008 -0.5554 -0.4754 -0.2653
  733MOL0     C 1029  10.060   8.525   3.884 -0.2585  0.0985 -0.0495
  733MOL0     C 1030  10.198   8.560   3.929 -0.4985 -0.4665 -0.5922
  733MOL0     C 1031  10.278   8.636   3.815  0.7185  0.6057 -0.4438
  733MOL0     C 1032  10.402   8.713   3.858 -0.7633  0.4545  0.2136
  733MOL0     N 1033  10.383   8.804   3.967 -0.2911  0.7806  0.0404
  733MOL0     C 1034  10.282   8.898   3.974 -1.2642  0.4700  0.6449
  733MOL0     C 1035  10.312   8.966   4.084 -0.5345 -0.0199 -0.2587
  733MOL0     C 1036  10.244   9.090   4.141 -0.5493 -0.0048  0.6183
  733MOL0     C 1037  10.342   9.207   4.171 -0.8332 -0.1046 -0.0266
  733MOL0     C 1038  10.275   9.342   4.185 -0.0975  0.2099  0.0051
  733MOL0     C 1039  10.197   9.336   4.313  0.0396  0.5565 -0.1165
  733MOL0     O 1040  10.270   9.296   4.435  0.0510 -0.6547 -0.3315
  733MOL0     C 1041  10.204   9.212   4.525  0.1130 -0.1794 -0.3217
  733MOL0     C 1042  10.093   9.255   4.594 -0.3375 -0.3156 -0.0668
  733MOL0     C 1043  10.016   9.172   4.683 -0.3993  0.4945  0.0270
  733MOL0     C 1044   9.891   9.218   4.745 -0.4133 -0.7946  0.2307
  733MOL0     C 1045  10.060   9.034   4.687  1.1420 -1.4251  0.5676
  733MOL0     C 1046   9.991   8.928   4.773 -0.1801  0.3645  0.3697
  733MOL0     O 1047   9.885   8.957   4.860 -0.3054 -0.4241  0.3882
  733MOL0     C 1048   9.845   8.883   4.969  0.1848  0.1132  0.0783
  733MOL0     C 1049   9.747   8.937   5.050  0.8371  0.5627  0.2149
  733MOL0     C 1050   9.690   8.874   5.166 -0.3490 -0.1238  0.4166
  733MOL0     C 1051   9.748   8.752   5.204  0.2309 -0.2098  0.0413
  733MOL0     O 1052   9.713   8.671   5.310  0.3962  0.2275  0.1404
  733MOL0     C 1053   9.578   8.678   5.346  0.6751 -0.2071 -0.2917
  733MOL0     C 1054   9.539   8.569   5.440 -0.6883 -0.6117 -0.3964
  733MOL0     C 1055   9.538   8.426   5.385 -0.3236  0.5539 -0.6584
  733MOL0     C 1056   9.668   8.359   5.373 -0.6345  0.4819  0.3471
  733MOL0     C 1057   9.652   8.206   5.380  0.1822  0.6102  0.2841
  733MOL0     C 1058   9.548   8.156   5.273 -0.3247  0.8197  0.5162
  733MOL0     C 1059   9.515   8.006   5.268 -0.0408 -0.7976 -0.0149
  733MOL0     C 1060   9.451   7.940   5.386  0.0168 -0.2766  0.1704
  733MOL0    Cl 1061   9.285   7.980   5.424  0.0369  0.0234 -0.0203
  733MOL0     C 1062   9.839   8.699   5.120 -0.7352  0.6297 -0.2581
  733MOL0     C 1063   9.894   8.768   5.018 -0.6776  0.2184  0.7400
  733MOL0     O 1064  10.028   8.813   4.750  0.4899 -0.0362  0.4202
  733MOL0     C 1065  10.169   8.995   4.601 -0.8900  0.6246  0.5157
  733MOL0     C 1066  10.238   9.076   4.522 -0.0826 -0.3558  0.0235
  733MOL0     N 1067  10.420   8.911   4.149 -0.0411 -0.6534 -0.3463
  733MOL0     N 1068  10.466   8.822   4.070  0.1681  0.5699 -0.3146
  733MOL0     C 1069   9.449   8.618   4.357  0.4533 -0.0822 -0.5284
  733MOL0     C 1070   9.343   8.648   4.442  0.7998 -0.6310  0.2583
  733MOL0     C 1071   8.955   8.512   4.675 -0.0090 -0.0598 -0.4293
  733MOL0     C 1072   8.954   8.619   4.769 -0.7007  0.9261 -0.3915
  733MOL0     C 1073   8.835   8.654   4.836  0.6442  0.9102  0.0327
  733MOL0     C 1074   8.721   8.574   4.807 -0.3108  0.0708 -0.1699
  733MOL0     O 1075   8.599   8.614   4.853  0.1270 -0.4548  0.5055
  733MOL0     C 1076   8.568   8.588   4.990  0.3283 -1.2409  0.3262
  733MOL0     C 1077   8.486   8.461   5.005  1.5932 -0.1105  0.2201
  733MOL0     C 1078   8.548   8.371   5.108 -0.8894  0.2234  0.8734
  733MOL0     C 1079   8.504   8.379   5.247  0.4392 -0.5281  0.2692
  733MOL0     C 1080   8.556   8.513   5.297 -0.5427  0.3747 -0.4033
  733MOL0     C 1081   8.589   8.624   5.337  0.5806 -0.4371 -0.5657
  733MOL0     C 1082   8.726   8.479   4.710 -0.2239  0.3875 -0.1823
  733MOL0     C 1083   8.844   8.446   4.641  0.2428  1.0634 -1.1651
  733MOL0     C 1084   8.827   8.349   4.522 -0.0356 -0.7805 -0.1345
  733MOL0     H 1085   9.375   8.392   4.668  2.3228  0.6399  1.6238
  733MOL0     H 1086   9.585   8.369   4.539 -0.6901 -1.3323 -1.1332
  733MOL0     H 1087   9.662   8.663   4.238  0.6344 -0.9302  0.1299
  733MOL0     H 1088   9.678   8.517   4.133  0.4793  0.2599 -0.1000
  733MOL0     H 1089   9.890   8.586   4.334  0.3699 -1.2219  0.7991
  733MOL0     H 1090   9.874   8.451   4.237 -2.7075 -0.0551 -1.7342
  733MOL0     H 1091   9.866   8.683   4.059 -0.0640 -0.6461  0.7461
  733MOL0     H 1092  10.018   8.650   4.149  2.3971 -0.9019 -2.1199
  733MOL0     H 1093  10.032   8.423   4.066 -2.7957 -2.2578  0.1091
  733MOL0     H 1094   9.880   8.441   3.975 -4.0208  1.7356  4.6238
  733MOL0     H 1095  10.019   8.602   3.818  0.0299 -0.4660 -0.9140
  733MOL0     H 1096  10.073   8.437   3.820  3.0260  0.3945  0.0514
  733MOL0     H 1097  10.182   8.627   4.014 -1.5045 -1.1747 -0.2008
  733MOL0     H 1098  10.266   8.475   3.947  1.9864  1.5309  0.0159
  733MOL0     H 1099  10.204   8.702   3.768  1.1515  1.8931  0.6252
  733MOL0     H 1100  10.309   8.556   3.748  0.8690 -2.3869  2.9139
  733MOL0     H 1101  10.480   8.641   3.885 -1.2305 -0.7687 -1.5462
  733MOL0     H 1102  10.433   8.783   3.780  2.0613  0.4796  1.2334
  733MOL0     H 1103  10.206   8.913   3.897  0.9713 -0.8579 -1.9997
  733MOL0     H 1104  10.189   9.061   4.231 -2.9649  0.5763 -0.5820
  733MOL0     H 1105  10.185   9.132   4.059  0.4015  2.0155  0.9039
  733MOL0     H 1106  10.415   9.186   4.249 -1.0934 -2.6118 -0.3817
  733MOL0     H 1107  10.397   9.225   4.077 -1.8388  1.1766 -0.4060
  733MOL0     H 1108  10.350   9.420   4.204 -3.1334  2.7074  2.8184
  733MOL0     H 1109  10.213   9.370   4.100 -0.1514  2.1003  0.6155
  733MOL0     H 1110  10.150   9.436   4.316  0.9948  0.9975  0.4044
  733MOL0     H 1111  10.119   9.268   4.279  0.4639  1.2127 -2.6353
  733MOL0     H 1112  10.056   9.352   4.563 -0.6763 -0.4753 -0.1654
  733MOL0     H 1113   9.802   9.197   4.685 -1.9385  2.5563  1.0900
  733MOL0     H 1114   9.890   9.327   4.744  1.1203 -0.7360 -1.6681
  733MOL0     H 1115   9.875   9.183   4.847 -0.2103 -2.7701 -0.3778
  733MOL0     H 1116   9.710   9.035   5.024 -1.2703 -0.7190 -2.0640
  733MOL0     H 1117   9.616   8.931   5.219  0.9547  2.1717 -0.0786
  733MOL0     H 1118   9.567   8.775   5.397 -1.6641 -0.8480  0.5391
  733MOL0     H 1119   9.518   8.671   5.255 -2.6609  0.1530  1.7295
  733MOL0     H 1120   9.604   8.573   5.528  0.8838  0.2943 -1.5597
  733MOL0     H 1121   9.440   8.595   5.478  0.4770  1.8741  1.2444
  733MOL0     H 1122   9.492   8.429   5.286  1.9561  0.1796 -1.7770
  733MOL0     H 1123   9.475   8.363   5.448  2.2674 -1.3585  0.1713
  733MOL0     H 1124   9.737   8.379   5.455  1.4385 -0.9778 -0.9503
  733MOL0     H 1125   9.714   8.395   5.281  0.5115 -0.3128  0.5877
  733MOL0     H 1126   9.751   8.164   5.358 -0.7743 -1.5570 -0.1359
  733MOL0     H 1127   9.627   8.175   5.482  0.6171 -1.3819 -0.1660
  733MOL0     H 1128   9.585   8.192   5.176 -2.0622 -0.1180 -0.5516
  733MOL0     H 1129   9.456   8.209   5.297 -0.0032  1.4182  0.4529
  733MOL0     H 1130   9.612   7.959   5.251  0.5644 -1.1306  3.6630
  733MOL0     H 1131   9.445   7.988   5.185  2.4727 -1.4634 -2.1104
  733MOL0     H 1132   9.509   7.957   5.477 -1.0563  1.9797  0.4998
  733MOL0     H 1133   9.437   7.833   5.366 -3.5353 -0.0125  0.5777
  733MOL0     H 1134   9.891   8.605   5.136 -0.2602  1.3618  3.2130
  733MOL0     H 1135   9.975   8.723   4.961  1.7008  2.1821  2.3434
  733MOL0     H 1136  10.208   8.894   4.610  2.0967  1.6661  0.4234
  733MOL0     H 1137  10.318   9.039   4.459 -1.7786  0.9290 -3.1070
  733MOL0     H 1138   9.468   8.684   4.272 -2.6261  0.7367 -0.6959
  733MOL0     H 1139   9.280   8.736   4.430 -1.2638 -2.1496 -0.7715
  733MOL0     H 1140   9.044   8.675   4.791 -0.5017  0.1421  0.9024
  733MOL0     H 1141   8.829   8.735   4.908 -0.6560  1.0485 -0.2047
  733MOL0     H 1142   8.657   8.588   5.053 -0.3168 -0.1182  1.2893
  733MOL0     H 1143   8.524   8.680   5.029  4.0288  1.6697 -1.6819
  733MOL0     H 1144   8.486   8.413   4.907  2.9752  0.1643  0.0709
  733MOL0     H 1145   8.382   8.491   5.023  0.6244 -1.6975 -2.3061
  733MOL0     H 1146   8.514   8.272   5.077 -0.8920  1.1901 -2.5756
  733MOL0     H 1147   8.657   8.370   5.102 -0.7768  0.2162  2.5067
  733MOL0     H 1148   8.555   8.298   5.300  2.2759  0.8873  0.7805
  733MOL0     H 1149   8.396   8.386   5.262  0.6962  0.9892  1.7330
  733MOL0     H 1150   8.612   8.718   5.383  2.1573 -1.8294  1.6751
  733MOL0     H 1151   8.638   8.420   4.683  0.4256 -1.2818  1.1136
  733MOL0     H 1152   8.857   8.388   4.424 -2.7206  1.2087 -0.2999
  733MOL0     H 1153   8.870   8.250   4.536 -0.2062 -0.7110  0.9838
  733MOL0     H 1154   8.719   8.339   4.508 -1.0861  2.8330  3.5536
  734MOL0     O 1155   2.274   4.665   0.171  0.1533  0.0069  0.2515
  734MOL0     C 1156   2.264   4.776   0.221 -0.0169 -0.2675  0.3406
  734MOL0     O 1157   2.375   4.853   0.276  0.5441  0.4571  0.7762
  734MOL0     C 1158   2.503   4.795   0.280 -0.1531  0.0475  0.7363
  734MOL0     C 1159   2.568   4.776   0.399 -0.4341  0.0229  0.5953
  734MOL0     C 1160   2.703   4.745   0.402  0.2771 -0.2573  0.3258
  734MOL0     C 1161   2.785   4.742   0.284 -0.7999 -0.1494  0.7154
  734MOL0     O 1162   2.925   4.717   0.280  1.2522  0.0808 -0.6075
  734MOL0     C 1163   3.008   4.663   0.384  0.0351  1.7589 -0.2934
  734MOL0     C 1164   3.166   4.669   0.358 -0.3250  0.0439 -0.5213
  734MOL0     C 1165   3.229   4.804   0.345 -0.3609  0.2028  0.1797
  734MOL0     C 1166   3.375   4.788   0.314 -0.5188  0.2518  0.0411
  734MOL0     C 1167   3.434   4.921   0.302  1.0725 -0.0400 -1.1091
  734MOL0     C 1168   3.583   4.916   0.283  0.1641 -0.1999  0.3065
  734MOL0     C 1169   3.631   5.045   0.214 -0.2596 -0.3746  0.0852
  734MOL0     C 1170   3.771   5.029   0.171 -0.1138 -0.9801 -0.6306
  734MOL0     N 1171   3.792   5.113   0.058  1.0833 -0.1649  0.9149
  734MOL0     C 1172   3.725   5.096  -0.059 -0.6467 -0.3823 -0.4561
  734MOL0     C 1173   3.766   5.196  -0.138  0.3108  0.5165 -0.0323
  734MOL0     C 1174   3.711   5.207  -0.284  0.2707 -0.1044  1.0140
  734MOL0     C 1175   3.822   5.194  -0.391 -0.1971 -1.2748  0.0596
  734MOL0     C 1176   3.747   5.190  -0.524  0.0103 -0.4990  0.7060
  734MOL0     C 1177   3.853   5.173  -0.636  0.0038  0.3843 -0.5118
  734MOL0     O 1178   3.919   5.045  -0.636 -0.4145  0.0570  0.5636
  734MOL0     C 1179   4.054   5.043  -0.678  0.3514 -0.4876 -0.3353
  734MOL0     C 1180   4.106   5.137  -0.760 -0.0317  0.1205  0.5249
  734MOL0     C 1181   4.242   5.140  -0.783  0.3110 -0.1907  0.4969
  734MOL0     C 1182   4.297   5.270  -0.850  0.7805  0.3361  0.4590
  734MOL0     C 1183   4.318   5.033  -0.746 -0.0296  0.0700  0.8124
  734MOL0     C 1184   4.461   5.034  -0.788  0.2070 -0.1170 -0.9298
  734MOL0     O 1185   4.507   4.937  -0.872  0.6664  0.0621  0.0763
  734MOL0     C 1186   4.636   4.915  -0.889  0.5477  0.2227 -0.0061
  734MOL0     C 1187   4.708   4.981  -0.982  0.2964 -0.1707  1.0390
  734MOL0     C 1188   4.844   4.965  -0.988  0.2259  0.3120 -0.9357
  734MOL0     C 1189   4.911   4.875  -0.905 -0.4467 -0.2198 -0.4558
  734MOL0     O 1190   5.049   4.864  -0.885  0.8503 -0.8572  0.1486
  734MOL0     C 1191   5.126   4.927  -0.992 -0.1715  0.4064  0.5294
  734MOL0     C 1192   5.271   4.891  -0.986  0.3429 -0.2326 -0.7555
  734MOL0     C 1193   5.349   4.956  -1.088 -0.0882  0.0140  0.1167
  734MOL0     C 1194   5.493   4.918  -1.067  0.7001 -0.1740 -0.2953
  734MOL0     C 1195   5.593   4.974  -1.166  0.0812  0.8576  0.1092
  734MOL0     C 1196   5.623   5.124  -1.144  0.2968  0.5417  0.0492
  734MOL0     C 1197   5.698   5.187  -1.256 -0.0516  0.6098  0.5852
  734MOL0     C 1198   5.762   5.323  -1.232  0.1956  0.0935 -0.0097
  734MOL0    Cl 1199   5.847   5.378  -1.374 -0.1618  0.0834 -0.4065
  734MOL0     C 1200   4.838   4.799  -0.815 -0.2712  0.0438 -0.9326
  734MOL0     C 1201   4.696   4.820  -0.811  0.1764 -0.1393 -0.5646
  734MOL0     O 1202   4.538   5.114  -0.726  0.5981  0.2062 -0.8646
  734MOL0     C 1203   4.258   4.924  -0.686  0.1106  0.7956 -0.3514
  734MOL0     C 1204   4.127   4.930  -0.641 -1.1007 -0.0491 -0.4189
  734MOL0     N 1205   3.852   5.281  -0.079 -0.1861  0.2623  0.1711
  734MOL0     N 1206   3.863   5.234   0.045  0.0329 -0.6432  0.1586
  734MOL0     C 1207   2.721   4.774   0.161 -0.3109 -1.1195 -0.8551
  734MOL0     C 1208   2.578   4.805   0.159 -0.5716 -0.3312  0.1720
  734MOL0     C 1209   2.136   4.838   0.235  0.1893  0.2743  0.5058
  734MOL0     C 1210   2.112   4.911   0.343  0.0077 -0.7518  0.3872
  734MOL0     C 1211   1.984   4.961   0.383 -0.3532 -0.5837  0.0131
  734MOL0     C 1212   1.883   4.934   0.289  0.0770 -0.0913  1.0149
  734MOL0     O 1213   1.753   4.985   0.289  0.3948 -0.3195  0.5138
  734MOL0     C 1214   1.709   5.059   0.401 -0.2641 -0.0011  0.9700
  734MOL0     C 1215   1.586   5.141   0.378 -1.1974 -0.6423  0.3794
  734MOL0     C 1216   1.580   5.251   0.481 -0.3599  0.5036  0.0754
  734MOL0     C 1217   1.432   5.308   0.492 -0.1586 -0.1751  0.4515
  734MOL0     C 1218   1.409   5.430   0.413  0.6308  0.3502 -0.4496
  734MOL0     C 1219   1.364   5.514   0.337 -0.2857 -0.1138  0.0334
  734MOL0     C 1220   1.902   4.855   0.179  0.9707 -0.5231 -0.4325
  734MOL0     C 1221   2.028   4.810   0.150 -0.2529  0.3006 -0.1905
  734MOL0     C 1222   2.046   4.733   0.018  0.4365 -0.3215  0.1678
  734MOL0     H 1223   2.512   4.777   0.492 -1.5398  0.0679 -0.0480
  734MOL0     H 1224   2.751   4.723   0.497  1.5830 -1.4813 -0.5618
  734MOL0     H 1225   2.983   4.557   0.398  1.0061  1.6420  0.6336
  734MOL0     H 1226   2.981   4.698   0.484  0.6751  1.6026 -0.0636
  734MOL0     H 1227   3.213   4.627   0.448  1.3402 -0.1021 -1.4239
  734MOL0     H 1228   3.188   4.608   0.270 -0.5960 -3.7117  1.7904
  734MOL0     H 1229   3.169   4.852   0.268  1.6150 -0.8575 -2.1874
  734MOL0     H 1230   3.217   4.861   0.438  1.6878 -0.8857  1.1915
  734MOL0     H 1231   3.433   4.739   0.392 -1.3723 -0.7836  0.0511
  734MOL0     H 1232   3.387   4.732   0.221 -1.1000 -1.0634  0.7261
  734MOL0     H 1233   3.412   4.981   0.391  0.5477  0.5190 -1.6033
  734MOL0     H 1234   3.384   4.966   0.215 -1.3225 -1.7267 -0.6901
  734MOL0     H 1235   3.631   4.919   0.381 -2.9814 -0.1381  1.9719
  734MOL0     H 1236   3.610   4.830   0.221  0.3977  1.0426 -1.3946
  734MOL0     H 1237   3.622   5.133   0.279 -1.4993 -1.0800  0.9103
  734MOL0     H 1238   3.563   5.060   0.130 -0.3313 -4.4587 -0.7966
  734MOL0     H 1239   3.837   5.060   0.253 -0.4771  1.7130 -1.2749
  734MOL0     H 1240   3.792   4.926   0.140  1.0511 -0.4757 -1.5748
  734MOL0     H 1241   3.649   5.023  -0.086 -2.7111  0.8450  1.6939
  734MOL0     H 1242   3.655   5.301  -0.294 -1.2425 -1.1776 -1.7075
  734MOL0     H 1243   3.628   5.137  -0.300  1.2725 -1.3485  1.0875
  734MOL0     H 1244   3.889   5.280  -0.391 -1.8973  0.3134 -4.2652
  734MOL0     H 1245   3.883   5.103  -0.380  0.1570 -1.0430  0.0401
  734MOL0     H 1246   3.675   5.107  -0.516 -1.3560  0.6990  1.3788
  734MOL0     H 1247   3.697   5.286  -0.538  0.4597 -0.0119  2.2194
  734MOL0     H 1248   3.817   5.184  -0.738 -0.5259 -2.7175 -0.7575
  734MOL0     H 1249   3.921   5.256  -0.618 -0.3985 -0.1216  4.9199
  734MOL0     H 1250   4.044   5.205  -0.818  1.6948  1.8385  0.5985
  734MOL0     H 1251   4.310   5.347  -0.773 -0.0576 -0.9653  1.9692
  734MOL0     H 1252   4.231   5.311  -0.927  0.1105  0.3158  1.0145
  734MOL0     H 1253   4.393   5.247  -0.897 -0.0878 -0.9975 -0.7234
  734MOL0     H 1254   4.658   5.056  -1.043  1.4628  1.0502  1.5475
  734MOL0     H 1255   4.895   5.029  -1.060  0.5314 -1.2976 -2.2213
  734MOL0     H 1256   5.092   4.886  -1.087  1.2970 -1.2484  0.6805
  734MOL0     H 1257   5.113   5.033  -1.015 -2.0606 -0.1793 -1.4131
  734MOL0     H 1258   5.297   4.921  -0.884  0.1446 -1.3830 -0.3564
  734MOL0     H 1259   5.291   4.783  -0.982  2.1219 -0.0282 -2.7218
  734MOL0     H 1260   5.330   5.064  -1.078  0.8967  0.4811 -2.2724
  734MOL0     H 1261   5.321   4.922  -1.189 -0.0726 -0.2388  0.1972
  734MOL0     H 1262   5.500   4.809  -1.070 -1.1221 -0.3046 -1.5582
  734MOL0     H 1263   5.519   4.955  -0.967 -3.0643  2.6728 -0.1622
  734MOL0     H 1264   5.690   4.923  -1.159  2.8946  5.5419 -0.0585
  734MOL0     H 1265   5.558   4.960  -1.269 -0.4040 -0.0514  0.3931
  734MOL0     H 1266   5.688   5.128  -1.056  0.0649  3.8862  0.1804
  734MOL0     H 1267   5.551   5.201  -1.116 -0.0375  0.0899  0.4613
  734MOL0     H 1268   5.628   5.195  -1.340  2.7682  0.3157 -1.9776
  734MOL0     H 1269   5.780   5.120  -1.286 -1.4427 -0.5042 -0.9102
  734MOL0     H 1270   5.823   5.336  -1.142  0.2399  1.9074 -0.2741
  734MOL0     H 1271   5.678   5.391  -1.220 -0.1697 -0.3221 -0.1571
  734MOL0     H 1272   4.896   4.742  -0.744  0.6344  1.6595 -0.3131
  734MOL0     H 1273   4.635   4.769  -0.737  0.9495  0.4176  0.4778
  734MOL0     H 1274   4.320   4.841  -0.654 -2.4359 -0.8600  0.5627
  734MOL0     H 1275   4.083   4.853  -0.578 -2.7727  2.7072  2.0293
  734MOL0     H 1276   2.781   4.766   0.071  0.5262 -2.8258 -0.1908
  734MOL0     H 1277   2.528   4.824   0.065  1.6474 -2.0925 -1.4998
  734MOL0     H 1278   2.199   4.931   0.404 -0.0261  1.4830 -0.1977
  734MOL0     H 1279   1.969   5.025   0.469  0.2923  1.0902 -1.0631
  734MOL0     H 1280   1.688   4.985   0.478 -0.2681 -1.8853 -0.7481
  734MOL0     H 1281   1.781   5.130   0.441 -0.8604  0.4071  1.3319
  734MOL0     H 1282   1.503   5.070   0.380 -1.2170 -0.6052  1.5880
  734MOL0     H 1283   1.581   5.184   0.277 -0.6179  0.2044  0.6985
  734MOL0     H 1284   1.612   5.209   0.577  0.7884 -1.8141 -1.2239
  734MOL0     H 1285   1.649   5.334   0.465  0.3070  0.1624  1.0782
  734MOL0     H 1286   1.403   5.339   0.593 -1.2959  0.6175 -0.0900
  734MOL0     H 1287   1.361   5.229   0.463  0.4393 -1.5437  2.5363
  734MOL0     H 1288   1.323   5.578   0.261 -0.8200 -0.7017 -0.1871
  734MOL0     H 1289   1.810   4.831   0.126 -0.6324  2.9071  0.4866
  734MOL0     H 1290   1.967   4.749  -0.057  0.1369  1.3698  0.7967
  734MOL0     H 1291   2.135   4.773  -0.031 -1.3106  2.1800 -1.2253
  734MOL0     H 1292   2.048   4.624   0.022  0.1142 -0.3773 -0.8620
  735MOL0     O 1293   0.530   9.734   9.301 -0.3514 -0.0989 -0.2101
  735MOL0     C 1294   0.458   9.638   9.325 -0.1326 -0.6129 -0.9981
  735MOL0     O 1295   0.338   9.620   9.269  0.0195  0.1560 -0.3347
  735MOL0     C 1296   0.279   9.721   9.196  0.7265  1.1533  0.5962
  735MOL0     C 1297   0.273   9.849   9.245  0.1668 -0.7439 -0.6567
  735MOL0     C 1298   0.206   9.950   9.179 -0.4585 -0.9613 -0.2577
  735MOL0     C 1299   0.155   9.931   9.048 -0.2084 -0.7730  0.2016
  735MOL0     O 1300   0.123  10.037   8.973  0.2149  0.7071 -0.0443
  735MOL0     C 1301  -0.004  10.101   8.993 -0.9137 -0.4123 -0.4053
  735MOL0     C 1302  -0.126  10.003   8.990 -0.1625  0.4925 -0.3820
  735MOL0     C 1303  -0.191   9.969   8.854  0.4170 -0.6423 -0.0083
  735MOL0     C 1304  -0.304  10.068   8.816 -0.1574  0.7091 -0.1545
  735MOL0     C 1305  -0.256  10.208   8.780  0.3605 -0.4391  0.0490
  735MOL0     C 1306  -0.374  10.311   8.756 -0.0403 -0.2603  0.3977
  735MOL0     C 1307  -0.311  10.448   8.739  0.0684 -1.1839  0.0780
  735MOL0     C 1308  -0.426  10.551   8.744  0.2502 -0.0758 -0.0395
  735MOL0     N 1309  -0.485  10.558   8.875 -0.3912  0.9162 -0.7789
  735MOL0     C 1310  -0.424  10.612   8.985 -0.3865 -0.0615  0.0232
  735MOL0     C 1311  -0.522  10.617   9.076 -0.3277  0.4540  1.0234
  735MOL0     C 1312  -0.527  10.684   9.208 -0.2478 -1.0376 -1.6197
  735MOL0     C 1313  -0.393  10.685   9.274  0.6243  0.1143 -0.8092
  735MOL0     C 1314  -0.395  10.746   9.417 -0.3557  0.6951  0.6880
  735MOL0     C 1315  -0.278  10.697   9.501 -0.4553 -0.1024 -0.2433
  735MOL0     O 1316  -0.163  10.738   9.428 -0.1672 -0.7379 -0.8630
  735MOL0     C 1317  -0.038  10.713   9.495  0.6406  0.0244  0.3254
  735MOL0     C 1318   0.079  10.800   9.469  0.6318  0.2835  0.6505
  735MOL0     C 1319   0.202  10.782   9.524  0.4251  0.6940  0.0471
  735MOL0     C 1320   0.305  10.885   9.491  0.2409 -0.5945  0.0335
  735MOL0     C 1321   0.217  10.680   9.626  0.5224  0.1327  0.0260
  735MOL0     C 1322   0.348  10.640   9.683 -0.0739  0.2938 -0.0621
  735MOL0     O 1323   0.455  10.726   9.677  0.1936 -0.2010  0.5252
  735MOL0     C 1324   0.578  10.704   9.736 -0.3326 -0.0754  0.3643
  735MOL0     C 1325   0.698  10.729   9.669 -0.4855 -0.8341  0.1059
  735MOL0     C 1326   0.820  10.683   9.727  0.9161  0.4050 -0.0100
  735MOL0     C 1327   0.823  10.618   9.845 -0.2989 -0.4184 -0.2609
  735MOL0     O 1328   0.936  10.565   9.902  1.0571  1.2874  0.2899
  735MOL0     C 1329   1.056  10.637   9.882 -0.6107 -0.4689  0.0451
  735MOL0     C 1330   1.178  10.566   9.945 -0.1445 -0.1351  0.4413
  735MOL0     C 1331   1.216  10.451   9.853  0.2511 -0.4717 -0.2479
  735MOL0     C 1332   1.276  10.495   9.717 -0.4846  0.2478 -0.2667
  735MOL0     C 1333   1.275  10.375   9.624 -0.0150 -0.7744 -0.3846
  735MOL0     C 1334   1.357  10.421   9.497  0.5089  0.0173  0.0785
  735MOL0     C 1335   1.509  10.410   9.523 -0.3414 -0.2193 -0.3153
  735MOL0     C 1336   1.599  10.452   9.411 -0.3276 -0.0339 -0.7220
  735MOL0    Cl 1337   1.602  10.632   9.388 -0.1467 -0.4004  0.1419
  735MOL0     C 1338   0.709  10.611   9.920  0.0594 -0.6234 -0.0671
  735MOL0     C 1339   0.586  10.655   9.869 -0.6021  1.3209  0.1467
  735MOL0     O 1340   0.348  10.537   9.743 -0.3359 -0.6904 -0.1203
  735MOL0     C 1341   0.103  10.597   9.654 -0.2707 -0.6820  0.1773
  735MOL0     C 1342  -0.014  10.616   9.587 -0.2616  0.8210  0.3826
  735MOL0     N 1343  -0.635  10.553   9.019  0.8243 -0.7350  0.4234
  735MOL0     N 1344  -0.614  10.513   8.898 -0.1478 -0.1555 -0.6350
  735MOL0     C 1345   0.159   9.805   8.991  0.5877  0.0672  0.0842
  735MOL0     C 1346   0.222   9.707   9.064 -0.3667  0.9220 -0.7540
  735MOL0     C 1347   0.494   9.516   9.406  0.2153 -0.1103  0.3801
  735MOL0     C 1348   0.408   9.405   9.402  1.2724  0.0876 -0.4721
  735MOL0     C 1349   0.440   9.283   9.451  0.0801  0.5086  1.3969
  735MOL0     C 1350   0.564   9.261   9.511  0.6539  0.9375 -0.0815
  735MOL0     O 1351   0.624   9.133   9.533  0.3677  0.9499  0.1213
  735MOL0     C 1352   0.549   9.010   9.511 -0.6792 -0.7321  0.7533
  735MOL0     C 1353   0.606   8.894   9.584 -0.7704  0.4141  0.3265
  735MOL0     C 1354   0.582   8.918   9.739  0.1462 -0.1496  0.4660
  735MOL0     C 1355   0.568   8.787   9.825 -0.6921  0.1643 -0.4278
  735MOL0     C 1356   0.502   8.804   9.962 -0.1777 -0.0851 -0.0358
  735MOL0     C 1357   0.447   8.802  10.070 -0.2260  0.8556 -0.3271
  735MOL0     C 1358   0.646   9.374   9.522 -0.5672 -0.9147  0.0222
  735MOL0     C 1359   0.615   9.505   9.475 -0.3812  0.3509 -0.5865
  735MOL0     C 1360   0.730   9.605   9.484  0.3093 -0.2427 -0.0852
  735MOL0     H 1361   0.307   9.870   9.345 -1.1176 -2.7530  0.2750
  735MOL0     H 1362   0.212  10.053   9.213 -0.2236 -1.6016  1.7817
  735MOL0     H 1363  -0.027  10.167   8.908 -1.8908 -0.7441 -0.4101
  735MOL0     H 1364  -0.000  10.147   9.092 -1.7735 -0.2374 -0.4448
  735MOL0     H 1365  -0.085   9.907   9.026 -1.3354  1.0741  2.8743
  735MOL0     H 1366  -0.201  10.042   9.060  0.0193  0.3111 -0.0793
  735MOL0     H 1367  -0.113   9.974   8.777  1.7257 -1.6162  1.2070
  735MOL0     H 1368  -0.236   9.869   8.850  0.3612 -0.5764 -1.8667
  735MOL0     H 1369  -0.359  10.031   8.729  1.2697 -1.2515 -0.2731
  735MOL0     H 1370  -0.377  10.071   8.899 -0.5739 -0.4069 -0.4649
  735MOL0     H 1371  -0.175  10.203   8.707  0.2596  2.6646 -0.3901
  735MOL0     H 1372  -0.211  10.252   8.870 -0.9532 -0.2467  0.6316
  735MOL0     H 1373  -0.422  10.283   8.661 -0.4654 -0.3144  0.6276
  735MOL0     H 1374  -0.447  10.295   8.836 -2.6755  1.3067 -1.5505
  735MOL0     H 1375  -0.252  10.459   8.648  0.8343  0.5068  0.7484
  735MOL0     H 1376  -0.234  10.464   8.815 -1.8633 -0.2198  1.9369
  735MOL0     H 1377  -0.388  10.650   8.717 -3.2858  1.3212 -0.3466
  735MOL0     H 1378  -0.503  10.532   8.669 -1.0073 -0.1031  1.2185
  735MOL0     H 1379  -0.333  10.670   8.996  0.5946 -1.3451 -0.9814
  735MOL0     H 1380  -0.597  10.626   9.269 -0.1346  0.6016  0.1532
  735MOL0     H 1381  -0.572  10.782   9.194 -1.0501 -1.4927 -2.3326
  735MOL0     H 1382  -0.358  10.581   9.276  3.0628  0.8825 -0.4241
  735MOL0     H 1383  -0.329  10.745   9.208 -1.7218  1.2906 -2.1090
  735MOL0     H 1384  -0.395  10.855   9.419 -3.6185  0.8314 -0.6012
  735MOL0     H 1385  -0.489  10.721   9.466  0.7770  0.3517  2.8201
  735MOL0     H 1386  -0.280  10.754   9.594  2.3208  0.6238 -0.5581
  735MOL0     H 1387  -0.283  10.589   9.515  0.1710 -0.3540 -1.7746
  735MOL0     H 1388   0.057  10.881   9.401 -0.8866 -1.5541 -1.2054
  735MOL0     H 1389   0.270  10.942   9.405 -2.1459 -3.2796 -0.9400
  735MOL0     H 1390   0.396  10.831   9.462  0.5125 -0.5888  0.8456
  735MOL0     H 1391   0.328  10.952   9.575 -0.0714 -0.6923  0.1991
  735MOL0     H 1392   0.693  10.760   9.565 -3.1474 -0.1063  0.3780
  735MOL0     H 1393   0.914  10.701   9.675  0.6536  0.6406 -0.4066
  735MOL0     H 1394   1.074  10.638   9.775 -1.0437  1.4635 -0.0438
  735MOL0     H 1395   1.043  10.735   9.929  2.2376 -0.3942  0.8905
  735MOL0     H 1396   1.258  10.640   9.947 -2.5535  2.7920 -1.9037
  735MOL0     H 1397   1.154  10.532  10.046 -3.7988 -0.6222 -0.4508
  735MOL0     H 1398   1.127  10.387   9.845 -2.0583  2.4301  0.3314
  735MOL0     H 1399   1.291  10.390   9.904 -0.7529 -1.0307  0.6176
  735MOL0     H 1400   1.378  10.534   9.725 -0.6340  1.0215 -1.7970
  735MOL0     H 1401   1.220  10.575   9.668 -0.4689 -0.2736 -1.1584
  735MOL0     H 1402   1.309  10.281   9.669 -1.4561 -1.4636 -0.6747
  735MOL0     H 1403   1.171  10.360   9.594 -0.1679 -1.8401  0.5795
  735MOL0     H 1404   1.334  10.525   9.475 -1.6295 -0.8340 -2.2461
  735MOL0     H 1405   1.331  10.359   9.410  1.5133  2.8198 -2.3868
  735MOL0     H 1406   1.534  10.305   9.542 -3.5906 -1.4773 -2.3185
  735MOL0     H 1407   1.534  10.464   9.615  1.0694 -0.7411 -0.3596
  735MOL0     H 1408   1.571  10.411   9.314  0.4109 -0.5172 -0.7351
  735MOL0     H 1409   1.698  10.411   9.432  0.1284  0.2025 -2.2841
  735MOL0     H 1410   0.711  10.576  10.022  1.1763  2.1183  0.9519
  735MOL0     H 1411   0.490  10.635   9.913 -0.2575 -2.4394 -0.4524
  735MOL0     H 1412   0.122  10.515   9.723  0.6184  1.3297  2.4793
  735MOL0     H 1413  -0.089  10.542   9.614  3.7070 -3.6696  0.5314
  735MOL0     H 1414   0.121   9.791   8.890  2.9289 -1.5549 -0.6538
  735MOL0     H 1415   0.214   9.607   9.022 -2.1960 -0.2961  2.1777
  735MOL0     H 1416   0.318   9.404   9.342  0.3402 -0.7151  0.8876
  735MOL0     H 1417   0.374   9.207   9.411 -0.4347  3.1418 -3.5115
  735MOL0     H 1418   0.445   9.028   9.539  0.3843  5.3565  2.3388
  735MOL0     H 1419   0.565   8.992   9.405 -1.6708  1.5203  0.1580
  735MOL0     H 1420   0.712   8.881   9.558 -1.1006  0.7737 -1.3412
  735MOL0     H 1421   0.552   8.804   9.554 -0.0663 -1.1108  3.2751
  735MOL0     H 1422   0.651   8.990   9.783  1.7074 -2.9824  2.9818
  735MOL0     H 1423   0.481   8.959   9.741 -0.1918 -0.9603  0.4353
  735MOL0     H 1424   0.657   8.725   9.823 -2.3661 -2.3753 -0.1767
  735MOL0     H 1425   0.501   8.718   9.773 -1.5112  0.4347  0.2563
  735MOL0     H 1426   0.402   8.793  10.167  0.8664  2.7878  0.4223
  735MOL0     H 1427   0.747   9.355   9.556  0.4723  3.3487 -0.0680
  735MOL0     H 1428   0.685   9.705   9.491 -2.1528 -0.8866 -3.6876
  735MOL0     H 1429   0.779   9.591   9.581 -1.9305 -1.9621  0.8857
  735MOL0     H 1430   0.800   9.591   9.401 -0.8084  0.8157 -1.2475
  736MOL0     O 1431   9.063  11.301   4.175 -0.0689  0.1751 -0.1827
  736MOL0     C 1432   9.000  11.333   4.073  0.2373  0.2581  0.0845
  736MOL0     O 1433   9.027  11.304   3.938 -0.2235  0.4470  0.1208
  736MOL0     C 1434   9.136  11.227   3.924 -0.0248  0.2729  0.7555
  736MOL0     C 1435   9.129  11.110   3.853  0.3309 -0.1941 -0.3069
  736MOL0     C 1436   9.243  11.041   3.818  0.0580  1.2311 -0.2544
  736MOL0     C 1437   9.368  11.087   3.864  0.5694 -0.0968 -0.8073
  736MOL0     O 1438   9.484  11.021   3.856  0.3113 -0.4109 -0.0375
  736MOL0     C 1439   9.511  10.974   3.724 -1.0776 -0.2261 -0.7487
  736MOL0     C 1440   9.662  10.985   3.692 -0.5335 -0.7093 -0.2736
  736MOL0     C 1441   9.717  11.129   3.727  0.2132 -0.3840 -0.5311
  736MOL0     C 1442   9.862  11.152   3.694  0.0585  0.7061 -0.5689
  736MOL0     C 1443   9.943  11.045   3.764 -0.1470 -0.1147  0.2675
  736MOL0     C 1444  10.094  11.082   3.783 -0.2223  0.4472 -0.3134
  736MOL0     C 1445  10.163  11.105   3.640  0.0004 -0.0657 -0.0820
  736MOL0     C 1446  10.316  11.102   3.649 -1.0035  0.5976  0.0817
  736MOL0     N 1447  10.376  10.964   3.653  0.0862 -0.1000 -0.1632
  736MOL0     C 1448  10.446  10.921   3.548  0.2604 -0.2337 -0.0441
  736MOL0     C 1449  10.472  10.792   3.570 -0.0250  0.0887  0.2661
  736MOL0     C 1450  10.570  10.710   3.478 -0.3698  0.1699 -0.5487
  736MOL0     C 1451  10.702  10.770   3.456 -0.1851  0.6847  0.7343
  736MOL0     C 1452  10.803  10.673   3.393  0.6033  0.2598 -0.2119
  736MOL0     C 1453  10.921  10.749   3.338  0.7687 -0.3328  0.0086
  736MOL0     O 1454  11.006  10.791   3.440  1.4375 -0.2705  0.1595
  736MOL0     C 1455  11.082  10.708   3.520  0.1598 -0.1104 -0.0348
  736MOL0     C 1456  11.112  10.578   3.477  0.2004  0.5007  0.5381
  736MOL0     C 1457  11.193  10.494   3.549 -0.2987  0.2405  0.2448
  736MOL0     C 1458  11.231  10.353   3.492  0.0328  0.4368 -0.3050
  736MOL0     C 1459  11.229  10.531   3.680 -0.4636  0.1874  0.4129
  736MOL0     C 1460  11.300  10.444   3.779 -0.7853  0.0758  0.8857
  736MOL0     O 1461  11.316  10.501   3.896  0.4856  1.1945 -0.7138
  736MOL0     C 1462  11.376  10.433   4.007 -0.2628  0.1434  0.2739
  736MOL0     C 1463  11.479  10.500   4.075 -0.1838 -0.1820  0.1959
  736MOL0     C 1464  11.550  10.439   4.183  0.0460  0.0089 -0.6529
  736MOL0     C 1465  11.525  10.299   4.212  0.0684 -0.5016 -0.9405
  736MOL0     O 1466  11.597  10.220   4.297  0.2439  0.0446  0.7699
  736MOL0     C 1467  11.666  10.267   4.407  0.4805 -0.3915  0.5479
  736MOL0     C 1468  11.668  10.184   4.530 -0.4158 -0.1137 -0.4827
  736MOL0     C 1469  11.775  10.235   4.630  0.0684 -0.0017  0.6588
  736MOL0     C 1470  11.758  10.163   4.763  0.2512  0.0524 -0.3328
  736MOL0     C 1471  11.620  10.130   4.820 -0.4413 -0.3916 -0.1911
  736MOL0     C 1472  11.625  10.121   4.971  0.4459  0.3825  0.2430
  736MOL0     C 1473  11.479  10.092   5.022 -0.0428 -0.6141  0.4667
  736MOL0     C 1474  11.458  10.067   5.173  0.1960  0.0695 -0.0448
  736MOL0    Cl 1475  11.491  10.218   5.257 -0.1262 -0.0405 -0.1625
  736MOL0     C 1476  11.410  10.236   4.151 -0.0957 -0.4285 -0.9570
  736MOL0     C 1477  11.343  10.308   4.053 -0.8698  0.6068 -0.1942
  736MOL0     O 1478  11.327  10.322   3.754 -0.0492 -0.3641 -0.3582
  736MOL0     C 1479  11.197  10.661   3.721 -0.4563 -0.8995  0.1688
  736MOL0     C 1480  11.123  10.748   3.643  0.2881  0.0182 -0.0769
  736MOL0     N 1481  10.425  10.753   3.691  0.1758 -0.1452 -0.4245
  736MOL0     N 1482  10.381  10.865   3.745 -0.1192  0.5819  0.0098
  736MOL0     C 1483   9.378  11.203   3.935  0.3785 -0.3401 -0.2309
  736MOL0     C 1484   9.263  11.274   3.963 -0.3769 -0.7357  0.1426
  736MOL0     C 1485   8.865  11.395   4.115  0.0852 -0.4123 -0.0395
  736MOL0     C 1486   8.791  11.333   4.221  0.1670  0.1653 -0.1032
  736MOL0     C 1487   8.663  11.385   4.246  0.7527 -0.2940  0.1769
  736MOL0     C 1488   8.619  11.495   4.175  0.7058  0.3280 -0.5917
  736MOL0     O 1489   8.500  11.544   4.207  0.3580 -1.0504 -0.3896
  736MOL0     C 1490   8.386  11.499   4.131  0.1285  1.0413  1.0580
  736MOL0     C 1491   8.312  11.601   4.043 -0.7374  0.2364 -0.7450
  736MOL0     C 1492   8.228  11.542   3.933  0.3306 -0.1478  0.5465
  736MOL0     C 1493   8.104  11.627   3.882 -0.0327 -0.2855 -0.1065
  736MOL0     C 1494   8.154  11.748   3.820  1.1392  0.0477 -0.4682
  736MOL0     C 1495   8.200  11.841   3.767 -0.0361 -0.5424 -0.7748
  736MOL0     C 1496   8.693  11.556   4.075  0.1438  0.0406  0.2994
  736MOL0     C 1497   8.821  11.501   4.038  0.0518  0.4623  0.3932
  736MOL0     C 1498   8.882  11.547   3.908  0.9172 -0.9229  0.3058
  736MOL0     H 1499   9.033  11.076   3.817 -0.4747  0.8670  0.7438
  736MOL0     H 1500   9.234  10.952   3.755 -1.4621 -0.3570  2.0342
  736MOL0     H 1501   9.459  11.033   3.647  0.6821  1.2633 -0.8830
  736MOL0     H 1502   9.480  10.870   3.708 -1.0640 -0.4775  0.7403
  736MOL0     H 1503   9.712  10.910   3.754 -0.9154 -2.2762 -1.7970
  736MOL0     H 1504   9.674  10.956   3.588 -1.9973  0.4531 -0.7964
  736MOL0     H 1505   9.666  11.203   3.664  0.8654 -0.5084 -1.2235
  736MOL0     H 1506   9.707  11.148   3.834  1.3538 -2.1197 -0.0576
  736MOL0     H 1507   9.882  11.152   3.587 -0.8073 -1.8684 -0.7935
  736MOL0     H 1508   9.895  11.248   3.734  4.8639 -1.6756  2.1382
  736MOL0     H 1509   9.942  10.960   3.695  0.4855  0.9715 -1.1249
  736MOL0     H 1510   9.899  11.021   3.862  0.5556 -1.7612  0.2047
  736MOL0     H 1511  10.111  11.162   3.856  1.6470 -0.7882  0.6882
  736MOL0     H 1512  10.139  10.999   3.839 -1.5323  0.7619  1.3063
  736MOL0     H 1513  10.142  11.209   3.615  0.7761 -0.1017 -0.9664
  736MOL0     H 1514  10.119  11.055   3.553  0.2476  0.9923 -0.8335
  736MOL0     H 1515  10.365  11.156   3.567 -1.8511  0.6918 -0.3744
  736MOL0     H 1516  10.340  11.160   3.739  2.3077 -1.8490  0.9793
  736MOL0     H 1517  10.482  10.973   3.459  1.6166 -1.2130 -0.0998
  736MOL0     H 1518  10.504  10.697   3.391 -0.1963 -1.4272 -0.4614
  736MOL0     H 1519  10.592  10.617   3.530  0.7043  0.3332 -0.6900
  736MOL0     H 1520  10.670  10.845   3.383 -3.8237 -0.0934  1.3471
  736MOL0     H 1521  10.752  10.800   3.548 -3.5682  0.7063  2.7124
  736MOL0     H 1522  10.834  10.601   3.470  4.6878  2.2279  0.2128
  736MOL0     H 1523  10.752  10.614   3.315 -0.3426  1.0483 -0.2050
  736MOL0     H 1524  10.979  10.695   3.262 -1.2317 -1.0521 -1.0568
  736MOL0     H 1525  10.878  10.837   3.289  0.1976  0.9016  2.5612
  736MOL0     H 1526  11.088  10.542   3.377 -1.7735  0.5799  0.9337
  736MOL0     H 1527  11.337  10.326   3.496 -0.5866 -2.1163  1.2183
  736MOL0     H 1528  11.190  10.341   3.391  2.3940 -0.5940 -1.2148
  736MOL0     H 1529  11.176  10.271   3.540  1.4304  0.1029  0.7659
  736MOL0     H 1530  11.500  10.599   4.036  1.8155 -0.1678  1.1569
  736MOL0     H 1531  11.626  10.496   4.235  0.6402 -1.3327 -0.0013
  736MOL0     H 1532  11.770  10.285   4.377  0.5168 -0.4788  0.6180
  736MOL0     H 1533  11.633  10.366   4.438  2.0789  0.1673  0.5468
  736MOL0     H 1534  11.565  10.188   4.565 -1.1183 -0.5367 -2.3604
  736MOL0     H 1535  11.690  10.079   4.508 -0.6434 -1.1121  3.3080
  736MOL0     H 1536  11.763  10.343   4.638  0.9424  0.4333 -2.3899
  736MOL0     H 1537  11.872  10.215   4.582 -1.0425 -0.6228 -1.4903
  736MOL0     H 1538  11.808  10.227   4.837  1.4078 -2.5040  1.2244
  736MOL0     H 1539  11.814  10.069   4.759 -1.1886 -0.8379 -0.5570
  736MOL0     H 1540  11.558  10.210   4.781 -0.4054 -1.3426 -2.3402
  736MOL0     H 1541  11.581  10.034   4.786 -0.2075 -0.1847 -1.0530
  736MOL0     H 1542  11.669  10.209   5.018  1.1225 -0.0331  0.4079
  736MOL0     H 1543  11.689  10.035   4.993  0.7133  0.6983  0.7178
  736MOL0     H 1544  11.440  10.006   4.967  3.3834 -1.3371 -1.0752
  736MOL0     H 1545  11.421  10.178   4.989  0.0631 -0.6991  0.0602
  736MOL0     H 1546  11.527   9.989   5.206  1.3485  0.7702 -0.7011
  736MOL0     H 1547  11.360  10.026   5.198 -0.7547  2.4700  0.4670
  736MOL0     H 1548  11.381  10.134   4.175 -1.2502 -0.0064 -0.4962
  736MOL0     H 1549  11.264  10.255   4.001 -0.7113 -1.2506  1.3743
  736MOL0     H 1550  11.223  10.714   3.812 -2.5714  0.0335  0.2911
  736MOL0     H 1551  11.094  10.844   3.686 -1.9860 -1.8444  2.9974
  736MOL0     H 1552   9.477  11.233   3.965  0.8071 -1.0914 -0.8534
  736MOL0     H 1553   9.277  11.362   4.025  1.1692 -0.5819 -0.3809
  736MOL0     H 1554   8.818  11.254   4.290 -1.0351 -0.2463 -0.0731
  736MOL0     H 1555   8.597  11.337   4.317  0.6502 -0.8396 -0.2803
  736MOL0     H 1556   8.407  11.418   4.061 -1.9233  0.3604  1.1458
  736MOL0     H 1557   8.316  11.456   4.204  0.3677  1.4282  1.5222
  736MOL0     H 1558   8.387  11.663   3.992  2.3228  0.1586  3.1949
  736MOL0     H 1559   8.251  11.666   4.106 -0.0635 -0.5895  0.8059
  736MOL0     H 1560   8.289  11.539   3.842 -2.7479 -1.0401 -1.6790
  736MOL0     H 1561   8.195  11.443   3.967 -1.5859  0.8944  1.9174
  736MOL0     H 1562   8.037  11.661   3.962 -1.2341 -0.8932 -0.8252
  736MOL0     H 1563   8.046  11.574   3.806 -0.1509 -0.4261  0.0796
  736MOL0     H 1564   8.244  11.926   3.718  1.0871 -0.4380  0.3441
  736MOL0     H 1565   8.655  11.642   4.020  1.0165 -0.9392 -1.9560
  736MOL0     H 1566   8.876  11.466   3.835 -1.2604 -0.2526 -0.3268
  736MOL0     H 1567   8.825  11.634   3.874  0.9536  0.0851  2.5682
  736MOL0     H 1568   8.987  11.575   3.925  1.6208 -4.1969  2.1963
  737MOL0     O 1569   8.553   7.796   4.476 -0.0163  0.4458  0.5136
  737MOL0     C 1570   8.469   7.848   4.406 -0.2013 -0.0731 -0.2841
  737MOL0     O 1571   8.501   7.920   4.292  0.0104  0.1908 -0.5092
  737MOL0     C 1572   8.625   7.948   4.261  0.0195  0.2176  0.2086
  737MOL0     C 1573   8.732   7.854   4.249 -0.2863  0.0233  0.4753
  737MOL0     C 1574   8.855   7.904   4.215 -0.2640  0.9847  0.0153
  737MOL0     C 1575   8.885   8.039   4.201  0.1286  0.6585 -0.0877
  737MOL0     O 1576   9.012   8.094   4.182 -0.6122  0.6748  0.3911
  737MOL0     C 1577   9.120   8.049   4.258 -0.4545  0.4595  0.2878
  737MOL0     C 1578   9.198   7.962   4.166 -0.9160  0.1687 -0.6945
  737MOL0     C 1579   9.319   7.898   4.235  0.5553 -0.5983 -0.3104
  737MOL0     C 1580   9.422   8.008   4.237  0.3348 -1.1881 -0.2202
  737MOL0     C 1581   9.559   7.955   4.310  0.2985 -0.8289 -0.1182
  737MOL0     C 1582   9.652   8.069   4.307  0.3386  0.2340 -0.4021
  737MOL0     C 1583   9.765   8.057   4.414  0.8102 -0.2708  0.0728
  737MOL0     C 1584   9.839   8.193   4.446 -0.6308  0.1984 -0.1076
  737MOL0     N 1585   9.977   8.170   4.503 -0.2368 -0.0209 -0.4479
  737MOL0     C 1586  10.021   8.173   4.636 -0.7911 -0.7383 -0.6120
  737MOL0     C 1587  10.156   8.148   4.631  0.0299 -0.5545  0.0885
  737MOL0     C 1588  10.255   8.124   4.746 -0.1122  0.3017  0.2689
  737MOL0     C 1589  10.398   8.139   4.695 -0.6121 -0.6399 -0.8151
  737MOL0     C 1590  10.500   8.173   4.808 -0.6471 -0.3777 -0.1239
  737MOL0     C 1591  10.644   8.175   4.752 -0.3980  0.2348  0.2358
  737MOL0     O 1592  10.659   8.270   4.645  0.5913  0.4107  0.0654
  737MOL0     C 1593  10.782   8.329   4.633  0.1189 -1.3284  0.4326
  737MOL0     C 1594  10.901   8.269   4.675  0.0919 -0.1251 -0.3852
  737MOL0     C 1595  11.033   8.325   4.652  0.3681 -0.0427  0.4443
  737MOL0     C 1596  11.149   8.235   4.693  0.8369  0.3577 -0.5488
  737MOL0     C 1597  11.041   8.450   4.582 -0.3292 -0.9861 -0.4793
  737MOL0     C 1598  11.165   8.517   4.536 -0.2896  0.1754 -0.0523
  737MOL0     O 1599  11.265   8.435   4.513 -0.6454  0.3603 -0.3121
  737MOL0     C 1600  11.396   8.482   4.508  0.3235 -0.9193 -0.4923
  737MOL0     C 1601  11.460   8.506   4.386 -0.0570  0.1326  0.9014
  737MOL0     C 1602  11.585   8.558   4.382 -0.7227 -0.4550 -0.0463
  737MOL0     C 1603  11.658   8.559   4.507  0.1099 -0.2510  0.2128
  737MOL0     O 1604  11.780   8.616   4.531  0.5103  0.4915  0.0592
  737MOL0     C 1605  11.855   8.658   4.420 -0.5673 -0.3431  0.5170
  737MOL0     C 1606  11.914   8.543   4.325 -0.0064 -0.0750 -0.2659
  737MOL0     C 1607  12.043   8.490   4.389 -0.5603 -0.1469 -0.6554
  737MOL0     C 1608  12.140   8.436   4.279  1.4535  0.9549  0.4588
  737MOL0     C 1609  12.247   8.354   4.341 -0.3331  0.5744  0.4084
  737MOL0     C 1610  12.353   8.315   4.241 -0.0259 -0.4871 -0.1059
  737MOL0     C 1611  12.451   8.220   4.313  0.2991 -0.2243 -0.1937
  737MOL0     C 1612  12.399   8.071   4.322 -0.0704  1.4900  0.0163
  737MOL0    Cl 1613  12.396   8.000   4.150 -0.2421  0.0573 -0.0822
  737MOL0     C 1614  11.596   8.522   4.623  0.2697  0.1162 -1.3329
  737MOL0     C 1615  11.457   8.492   4.634 -0.6565  0.1006 -0.2031
  737MOL0     O 1616  11.167   8.641   4.542  0.3064  0.2614 -0.1249
  737MOL0     C 1617  10.917   8.517   4.540  0.4478  0.7616  0.1365
  737MOL0     C 1618  10.789   8.455   4.561  0.0179  0.2115 -0.6604
  737MOL0     N 1619  10.193   8.124   4.502  0.5727  0.0044 -0.1048
  737MOL0     N 1620  10.086   8.129   4.430 -0.6093  0.1662  0.2343
  737MOL0     C 1621   8.772   8.129   4.197  0.1196  0.2185  0.5136
  737MOL0     C 1622   8.646   8.084   4.232  0.0061 -0.1915  0.0806
  737MOL0     C 1623   8.318   7.845   4.442 -0.2212 -0.2497  0.6243
  737MOL0     C 1624   8.235   7.900   4.342  0.1602  0.3770  0.1219
  737MOL0     C 1625   8.097   7.918   4.359 -0.3728  0.4951  0.0199
  737MOL0     C 1626   8.038   7.871   4.481  0.1219  0.2559  0.4395
  737MOL0     O 1627   7.904   7.868   4.514  0.4988 -0.1756  0.2656
  737MOL0     C 1628   7.814   7.888   4.413 -0.1954 -0.0459 -0.0600
  737MOL0     C 1629   7.807   7.765   4.316  0.8068  0.7454  0.4495
  737MOL0     C 1630   7.832   7.621   4.373  1.1187 -0.6660  0.7982
  737MOL0     C 1631   7.980   7.575   4.367 -0.0804 -0.6027  0.3287
  737MOL0     C 1632   7.994   7.428   4.358 -0.0797  0.1203  0.8310
  737MOL0     C 1633   7.999   7.309   4.363 -0.2855 -0.6309 -0.1163
  737MOL0     C 1634   8.120   7.816   4.583  0.6167  0.3839  0.5310
  737MOL0     C 1635   8.256   7.803   4.570  0.3747 -0.6280  0.0177
  737MOL0     C 1636   8.334   7.758   4.697 -0.1199 -0.6816  0.8212
  737MOL0     H 1637   8.706   7.750   4.265 -0.0798  0.3984  4.2216
  737MOL0     H 1638   8.928   7.824   4.206 -0.9848  0.3779 -0.6193
  737MOL0     H 1639   9.073   7.991   4.338  0.4273 -0.6453  0.0335
  737MOL0     H 1640   9.188   8.126   4.297  1.7225 -1.7145  1.0603
  737MOL0     H 1641   9.137   7.873   4.149  1.5257 -2.1030  1.5208
  737MOL0     H 1642   9.224   8.009   4.070  0.9506 -2.8315 -1.7894
  737MOL0     H 1643   9.285   7.864   4.333  2.9644 -0.1825  0.7599
  737MOL0     H 1644   9.355   7.812   4.178  0.5981 -1.2850  0.7267
  737MOL0     H 1645   9.448   8.037   4.135 -0.4629 -0.1662 -0.1463
  737MOL0     H 1646   9.389   8.101   4.284 -0.6276 -0.7396 -1.7242
  737MOL0     H 1647   9.598   7.869   4.255  1.0172 -0.6903  0.1616
  737MOL0     H 1648   9.551   7.911   4.410  2.2982 -1.5783 -0.2553
  737MOL0     H 1649   9.691   8.087   4.207  3.8031  0.3832  0.8327
  737MOL0     H 1650   9.600   8.163   4.329  0.3945 -0.1428  1.6112
  737MOL0     H 1651   9.832   7.981   4.372 -1.5765 -1.6322 -1.4880
  737MOL0     H 1652   9.730   8.017   4.509  1.1064  1.7721  1.1024
  737MOL0     H 1653   9.846   8.258   4.358  1.4139  2.3119  1.4909
  737MOL0     H 1654   9.785   8.248   4.524  0.7961 -1.2614  2.0079
  737MOL0     H 1655   9.956   8.192   4.720  3.6177  0.2372  2.9252
  737MOL0     H 1656  10.238   8.021   4.778 -0.9355  0.6254  0.9041
  737MOL0     H 1657  10.237   8.195   4.826 -0.6926  0.7748 -0.2684
  737MOL0     H 1658  10.428   8.048   4.641  0.6092 -1.2948  0.8947
  737MOL0     H 1659  10.396   8.226   4.629  1.8726  1.8520  2.0833
  737MOL0     H 1660  10.474   8.266   4.860 -0.8555 -2.1667  3.3116
  737MOL0     H 1661  10.491   8.101   4.891 -0.4513  1.1125  1.2482
  737MOL0     H 1662  10.715   8.190   4.835  3.2412 -0.0895 -2.5608
  737MOL0     H 1663  10.671   8.076   4.716 -0.2550 -0.6723  2.6809
  737MOL0     H 1664  10.889   8.178   4.732 -0.9507  1.7372  2.6640
  737MOL0     H 1665  11.217   8.189   4.622 -1.2355 -2.4319 -0.8761
  737MOL0     H 1666  11.118   8.154   4.760  1.8436  0.1211 -0.3548
  737MOL0     H 1667  11.211   8.297   4.759  0.6382 -0.1282  0.1165
  737MOL0     H 1668  11.400   8.510   4.295 -0.6985 -1.5160  1.2307
  737MOL0     H 1669  11.623   8.593   4.287 -0.8399 -0.3954 -0.0718
  737MOL0     H 1670  11.790   8.726   4.365  1.8643  1.2391 -0.6007
  737MOL0     H 1671  11.933   8.727   4.455 -1.3854 -0.2794  2.3463
  737MOL0     H 1672  11.843   8.461   4.305  0.3354 -0.5081  0.2500
  737MOL0     H 1673  11.927   8.591   4.228 -2.3576 -0.4517 -0.8327
  737MOL0     H 1674  12.025   8.413   4.464  1.0733  1.8972  2.0159
  737MOL0     H 1675  12.088   8.571   4.448 -2.2518 -0.3367  0.9944
  737MOL0     H 1676  12.186   8.519   4.225  0.1675  1.0947 -0.4479
  737MOL0     H 1677  12.093   8.387   4.194  3.4549  1.9333 -1.3036
  737MOL0     H 1678  12.290   8.403   4.429  1.5973  0.1214 -0.2296
  737MOL0     H 1679  12.206   8.259   4.376 -0.1808 -0.0162 -0.9413
  737MOL0     H 1680  12.412   8.403   4.213  1.9339 -1.8135 -0.4117
  737MOL0     H 1681  12.319   8.258   4.153  0.6922  1.3430 -1.6411
  737MOL0     H 1682  12.452   8.266   4.412 -1.8076  1.9506 -1.0954
  737MOL0     H 1683  12.551   8.235   4.272  2.0138 -0.4942  3.4885
  737MOL0     H 1684  12.304   8.066   4.376  0.0754  2.9110  0.4413
  737MOL0     H 1685  12.469   8.016   4.385 -0.3862  1.8142  0.6594
  737MOL0     H 1686  11.663   8.523   4.708  2.1619 -1.5986 -2.7094
  737MOL0     H 1687  11.420   8.464   4.732  4.6318 -0.4426  1.9772
  737MOL0     H 1688  10.924   8.613   4.490  2.3162  1.1029  0.9596
  737MOL0     H 1689  10.700   8.511   4.535  0.8876  1.8799 -0.1628
  737MOL0     H 1690   8.780   8.232   4.163 -0.1426 -0.7324 -2.8259
  737MOL0     H 1691   8.564   8.155   4.229  0.5145  0.4045  0.2306
  737MOL0     H 1692   8.285   7.936   4.252 -0.3815  0.1407 -0.2791
  737MOL0     H 1693   8.031   7.959   4.284  0.7041  1.0201 -0.6532
  737MOL0     H 1694   7.718   7.893   4.467 -0.0905  0.0739  0.1150
  737MOL0     H 1695   7.829   7.982   4.360 -1.0583  0.8615  1.2309
  737MOL0     H 1696   7.871   7.773   4.228  0.7603 -0.8243  0.2607
  737MOL0     H 1697   7.701   7.770   4.289  0.9705 -1.6220 -0.8113
  737MOL0     H 1698   7.790   7.621   4.474 -2.8774  1.3542 -0.6510
  737MOL0     H 1699   7.762   7.554   4.322  1.7659 -0.4491 -0.4216
  737MOL0     H 1700   8.032   7.600   4.460  1.4690  0.1029 -0.7070
  737MOL0     H 1701   8.030   7.621   4.282  0.8385  0.8593  1.6104
  737MOL0     H 1702   7.983   7.203   4.359 -0.9551 -0.5951  1.1349
  737MOL0     H 1703   8.064   7.780   4.669  1.4020 -2.1837  0.0596
  737MOL0     H 1704   8.383   7.661   4.698 -1.9143 -1.6854  3.1869
  737MOL0     H 1705   8.414   7.828   4.724 -1.3768  0.2436  2.3833
  737MOL0     H 1706   8.269   7.753   4.785  2.2302 -0.8025  2.6359
  738MOL0     O 1707   9.480  11.216   9.656 -0.2394 -0.5758 -0.2651
  738MOL0     C 1708   9.386  11.301   9.684 -0.9505  0.2590  0.1455
  738MOL0     O 1709   9.385  11.427   9.635  0.8063  0.1318 -0.6630
  738MOL0     C 1710   9.478  11.474   9.547 -0.9118  0.5254  0.2415
  738MOL0     C 1711   9.610  11.451   9.559 -0.0446  0.1208 -0.4145
  738MOL0     C 1712   9.702  11.507   9.470  0.1788  0.1003 -0.2431
  738MOL0     C 1713   9.668  11.589   9.357  0.1938 -0.6570 -0.6464
  738MOL0     O 1714   9.759  11.638   9.265 -0.7850 -0.4493  0.2801
  738MOL0     C 1715   9.809  11.531   9.187 -0.3173 -0.1255  0.3180
  738MOL0     C 1716   9.915  11.572   9.087 -0.5612  0.4737 -0.8973
  738MOL0     C 1717   9.892  11.681   8.976 -0.4568 -0.9859 -0.4184
  738MOL0     C 1718   9.996  11.677   8.862  0.0975  0.0803 -0.0106
  738MOL0     C 1719   9.954  11.775   8.747  0.7640 -1.1790 -0.6715
  738MOL0     C 1720  10.019  11.748   8.615  0.4820 -0.3479 -0.3376
  738MOL0     C 1721   9.922  11.784   8.509  0.1745  0.7025 -0.3535
  738MOL0     C 1722   9.823  11.664   8.487  0.9667 -0.1585  0.1260
  738MOL0     N 1723   9.869  11.546   8.418 -0.7074  0.4182  0.2374
  738MOL0     C 1724   9.969  11.527   8.326  0.1424 -0.9016  0.3468
  738MOL0     C 1725   9.972  11.387   8.320 -0.3523  0.2852  0.6655
  738MOL0     C 1726  10.073  11.309   8.253 -0.1424 -0.1177 -0.6481
  738MOL0     C 1727  10.215  11.353   8.305  0.2586 -0.4537 -0.3138
  738MOL0     C 1728  10.329  11.296   8.223 -0.1269 -0.0199  0.6614
  738MOL0     C 1729  10.413  11.411   8.160  0.7411 -0.2131 -0.4948
  738MOL0     O 1730  10.493  11.336   8.068 -0.6394 -1.0531 -0.4938
  738MOL0     C 1731  10.632  11.325   8.083  0.2297 -0.6623 -0.6455
  738MOL0     C 1732  10.688  11.242   7.988  0.0346 -0.1809  0.6918
  738MOL0     C 1733  10.821  11.191   8.003  0.0506 -0.0537  0.3418
  738MOL0     C 1734  10.880  11.092   7.902  0.4493 -0.1047  0.1104
  738MOL0     C 1735  10.896  11.242   8.106 -0.4503  0.2531 -0.6170
  738MOL0     C 1736  11.031  11.194   8.142  0.3525  0.9927  0.0637
  738MOL0     O 1737  11.129  11.282   8.182  0.6532 -0.2216 -0.5373
  738MOL0     C 1738  11.254  11.235   8.218  0.7219  0.6404  0.1962
  738MOL0     C 1739  11.368  11.322   8.202  0.1478  0.2794  0.1877
  738MOL0     C 1740  11.490  11.294   8.257  0.7008  0.3030  0.0304
  738MOL0     C 1741  11.507  11.177   8.329 -0.2989 -0.6943 -0.2038
  738MOL0     O 1742  11.637  11.157   8.362  0.8155  1.0487  0.0961
  738MOL0     C 1743  11.681  11.031   8.416  0.4031 -0.6551  0.0927
  738MOL0     C 1744  11.822  11.059   8.483 -1.0692 -0.3821 -0.5852
  738MOL0     C 1745  11.876  10.936   8.555 -0.1010  0.1935 -0.1684
  738MOL0     C 1746  12.009  10.952   8.619 -0.6404  0.0875  0.3290
  738MOL0     C 1747  12.051  10.831   8.703  0.4759  0.2029  0.0133
  738MOL0     C 1748  11.957  10.824   8.828  0.1041  0.5457 -0.8314
  738MOL0     C 1749  12.038  10.752   8.940 -0.2576  1.2554 -1.1251
  738MOL0     C 1750  11.988  10.782   9.087  0.7298 -0.2952  0.6344
  738MOL0    Cl 1751  12.080  10.677   9.203  0.6389 -0.1008 -0.0744
  738MOL0     C 1752  11.399  11.097   8.352 -0.2661 -0.0459 -0.8743
  738MOL0     C 1753  11.272  11.123   8.301 -0.6440 -0.0520  0.5311
  738MOL0     O 1754  11.043  11.068   8.136  0.0565 -0.7856  0.2355
  738MOL0     C 1755  10.835  11.336   8.186 -0.0683  0.0032 -0.2996
  738MOL0     C 1756  10.704  11.391   8.176 -0.1214  0.6986  0.4628
  738MOL0     N 1757   9.867  11.337   8.390 -0.4385 -0.4684 -1.0469
  738MOL0     N 1758   9.814  11.426   8.457  0.1852  0.3104  0.5731
  738MOL0     C 1759   9.533  11.616   9.349  0.6604  0.3466  0.1257
  738MOL0     C 1760   9.440  11.564   9.442 -0.7263  0.3899  0.6832
  738MOL0     C 1761   9.265  11.254   9.766 -0.8599 -0.0925 -0.3140
  738MOL0     C 1762   9.162  11.347   9.778 -0.0289 -0.6130  0.4391
  738MOL0     C 1763   9.056  11.331   9.863 -0.2926 -0.9197  0.0711
  738MOL0     C 1764   9.049  11.219   9.941  0.1612  0.2033 -0.9789
  738MOL0     O 1765   8.937  11.207  10.017 -0.8166 -0.2845  0.3673
  738MOL0     C 1766   8.927  11.130  10.136 -0.8214 -0.2701  0.0154
  738MOL0     C 1767   9.037  11.165  10.234  0.4332  0.2763 -0.0352
  738MOL0     C 1768   8.972  11.200  10.370  0.6659  1.5890  1.2710
  738MOL0     C 1769   8.900  11.333  10.374  0.1165 -0.2441 -0.2261
  738MOL0     C 1770   8.765  11.316  10.405  0.1889  0.4103 -0.2199
  738MOL0     C 1771   8.641  11.299  10.427  0.2334  0.5361 -0.1602
  738MOL0     C 1772   9.155  11.127   9.938  0.4934 -0.3394 -0.5155
  738MOL0     C 1773   9.263  11.142   9.849  0.6467 -0.0414  0.0453
  738MOL0     C 1774   9.382  11.056   9.867 -0.2471 -0.4763  0.4562
  738MOL0     H 1775   9.642  11.386   9.640 -0.5095  0.1632 -0.1950
  738MOL0     H 1776   9.806  11.485   9.492 -0.2367 -0.8299  0.8751
  738MOL0     H 1777   9.720  11.489   9.139  0.4378 -3.4864  1.6205
  738MOL0     H 1778   9.843  11.450   9.252 -2.2173 -1.0056  0.2882
  738MOL0     H 1779  10.008  11.595   9.139 -2.1479 -0.0207  2.3624
  738MOL0     H 1780   9.931  11.473   9.042 -1.7838 -0.5778  0.8889
  738MOL0     H 1781   9.794  11.666   8.932 -0.7800 -2.8049  0.8067
  738MOL0     H 1782   9.904  11.783   9.014  0.7252  0.7142 -4.8115
  738MOL0     H 1783  10.093  11.713   8.899 -0.7853  2.8939 -0.2293
  738MOL0     H 1784  10.005  11.577   8.819 -0.3237 -0.4980  1.1997
  738MOL0     H 1785   9.981  11.879   8.771  3.1500 -1.0055 -3.6352
  738MOL0     H 1786   9.845  11.784   8.741  0.9233  5.2793 -0.7642
  738MOL0     H 1787  10.107  11.809   8.595 -0.0385  0.5860  0.1693
  738MOL0     H 1788  10.057  11.645   8.606  1.6966  0.0380  0.1831
  738MOL0     H 1789   9.985  11.795   8.419  1.5046 -1.1688  0.2924
  738MOL0     H 1790   9.872  11.877   8.535  0.0286  0.3159  0.7782
  738MOL0     H 1791   9.776  11.637   8.582 -0.1112 -1.9045 -0.8639
  738MOL0     H 1792   9.745  11.698   8.418 -0.2687 -1.9361  0.5868
  738MOL0     H 1793  10.039  11.591   8.273  2.2931 -1.9196  1.8124
  738MOL0     H 1794  10.067  11.305   8.144 -0.1636 -0.8202 -0.6211
  738MOL0     H 1795  10.062  11.205   8.284 -3.7044  0.6588  1.2957
  738MOL0     H 1796  10.222  11.461   8.291  1.5548 -0.3052  1.1245
  738MOL0     H 1797  10.236  11.337   8.412 -1.3929 -0.5669  0.0179
  738MOL0     H 1798  10.378  11.241   8.305 -2.9633  0.4293  2.8027
  738MOL0     H 1799  10.284  11.232   8.146 -0.5554  2.7447 -1.5504
  738MOL0     H 1800  10.346  11.475   8.101  0.6696 -0.4320 -0.6512
  738MOL0     H 1801  10.469  11.478   8.225  2.9244  0.2039 -2.6631
  738MOL0     H 1802  10.635  11.215   7.897  1.9887  0.7972 -0.7988
  738MOL0     H 1803  10.875  10.991   7.942 -1.8178  0.2023  0.7534
  738MOL0     H 1804  10.986  11.114   7.887  0.4141  1.4714  1.7293
  738MOL0     H 1805  10.821  11.093   7.810  1.7076 -1.3519 -0.7452
  738MOL0     H 1806  11.353  11.414   8.147 -0.6055  0.0925  0.0664
  738MOL0     H 1807  11.579  11.356   8.251  1.8344 -1.1795  1.0155
  738MOL0     H 1808  11.625  10.998   8.504 -0.0116  0.6935  0.3532
  738MOL0     H 1809  11.696  10.952   8.342  1.6874  0.1517 -0.5368
  738MOL0     H 1810  11.884  11.088   8.398 -1.9173 -0.3875 -1.2168
  738MOL0     H 1811  11.814  11.140   8.556  2.0370 -1.8452  1.5986
  738MOL0     H 1812  11.888  10.852   8.486  0.9727 -0.6707  1.0379
  738MOL0     H 1813  11.808  10.906   8.635 -1.4137 -1.2229 -1.7458
  738MOL0     H 1814  12.004  11.037   8.687 -1.2399  1.7242 -1.6822
  738MOL0     H 1815  12.082  10.968   8.539 -2.1942  1.4107 -0.8952
  738MOL0     H 1816  12.052  10.734   8.651 -2.8598  0.3961 -0.6966
  738MOL0     H 1817  12.155  10.845   8.730 -0.2943  0.7356  2.9825
  738MOL0     H 1818  11.868  10.765   8.801  2.3837 -2.6373 -1.9408
  738MOL0     H 1819  11.928  10.916   8.881 -1.6120 -1.7813  2.7098
  738MOL0     H 1820  12.145  10.772   8.941  0.8987 -3.6076  1.7206
  738MOL0     H 1821  12.029  10.643   8.932  1.6581  1.0308 -0.5653
  738MOL0     H 1822  11.879  10.780   9.096  0.6490  1.8479  0.6675
  738MOL0     H 1823  12.024  10.884   9.109 -0.1305 -0.0739  1.0875
  738MOL0     H 1824  11.413  11.006   8.410  0.5874 -0.1398 -1.2148
  738MOL0     H 1825  11.199  11.043   8.315  0.7629 -1.3610  0.7630
  738MOL0     H 1826  10.898  11.389   8.257  0.4165  0.8682 -1.3466
  738MOL0     H 1827  10.662  11.474   8.232 -1.1017  3.0913 -3.4152
  738MOL0     H 1828   9.489  11.672   9.267 -0.4712 -1.6633 -0.7096
  738MOL0     H 1829   9.335  11.590   9.429 -0.8329 -0.7074 -0.9386
  738MOL0     H 1830   9.166  11.446   9.734 -2.1391 -1.7873 -2.8490
  738MOL0     H 1831   8.982  11.410   9.872 -0.5364 -1.3247  1.8687
  738MOL0     H 1832   8.823  11.136  10.169 -0.3341  1.7302  1.3750
  738MOL0     H 1833   8.939  11.030  10.094  0.2480  0.2814 -1.0515
  738MOL0     H 1834   9.090  11.257  10.209  4.1291 -2.3843 -3.1907
  738MOL0     H 1835   9.104  11.082  10.256  0.3320  0.5633  1.5111
  738MOL0     H 1836   8.901  11.120  10.390  0.6721 -0.0784 -3.9605
  738MOL0     H 1837   9.053  11.188  10.443  2.2961 -2.2959 -0.8728
  738MOL0     H 1838   8.912  11.395  10.285  1.1379 -0.9321 -0.5975
  738MOL0     H 1839   8.933  11.392  10.460  0.8512 -1.9269  0.7004
  738MOL0     H 1840   8.540  11.283  10.460  1.2171 -0.9542  2.5196
  738MOL0     H 1841   9.165  11.046  10.010 -0.8042  0.8432  1.0890
  738MOL0     H 1842   9.410  11.025   9.766 -0.9315  1.6991 -0.4834
  738MOL0     H 1843   9.459  11.128   9.897 -2.5660  1.8116  1.2828
  738MOL0     H 1844   9.368  10.979   9.943 -3.9671  0.0871  0.5342
  739MOL0     O 1845   1.721   3.424   2.605 -0.6596 -0.0633 -0.2540
  739MOL0     C 1846   1.716   3.473   2.495  0.0817 -0.6010 -0.3908
  739MOL0     O 1847   1.824   3.483   2.413 -0.2032 -0.0287  0.9925
  739MOL0     C 1848   1.945   3.429   2.456 -0.8148  0.6160 -0.0922
  739MOL0     C 1849   2.025   3.482   2.556 -0.1248  0.4790 -0.3544
  739MOL0     C 1850   2.152   3.436   2.590  0.0300  1.0287 -0.1083
  739MOL0     C 1851   2.210   3.337   2.514  0.1119 -0.2737  0.3501
  739MOL0     O 1852   2.345   3.293   2.522  0.3133  0.3403  0.3881
  739MOL0     C 1853   2.447   3.386   2.538 -1.0886 -0.3277  0.4711
  739MOL0     C 1854   2.575   3.330   2.461 -0.1032 -0.3834  0.2434
  739MOL0     C 1855   2.687   3.436   2.462  0.5698 -0.1738 -0.9277
  739MOL0     C 1856   2.833   3.373   2.450  0.0788  0.3206 -0.3835
  739MOL0     C 1857   2.942   3.474   2.467 -0.2051 -0.1066  0.6250
  739MOL0     C 1858   3.075   3.419   2.413  0.1261  0.2815  0.5390
  739MOL0     C 1859   3.177   3.527   2.437  0.4558  0.3155  0.5896
  739MOL0     C 1860   3.307   3.495   2.364 -0.0654 -0.3068  0.0518
  739MOL0     N 1861   3.365   3.366   2.400  0.1979  0.5946  0.1591
  739MOL0     C 1862   3.384   3.257   2.316 -0.4186  0.2512  0.3510
  739MOL0     C 1863   3.452   3.169   2.398 -1.1659 -1.1215  0.6507
  739MOL0     C 1864   3.507   3.032   2.356  0.2735 -0.1808  0.0041
  739MOL0     C 1865   3.663   3.035   2.356 -0.6714 -0.0189 -0.0092
  739MOL0     C 1866   3.720   2.954   2.480 -0.1231 -0.1083  0.5457
  739MOL0     C 1867   3.870   2.932   2.489  0.2117  0.2430 -0.1006
  739MOL0     O 1868   3.949   3.050   2.481 -0.0026 -0.4370  0.1573
  739MOL0     C 1869   4.074   3.036   2.547  0.2720  0.8353 -0.1018
  739MOL0     C 1870   4.104   3.111   2.667 -0.1161  0.6917  0.3178
  739MOL0     C 1871   4.234   3.110   2.726 -0.2825 -0.3007  0.5027
  739MOL0     C 1872   4.261   3.213   2.832  0.7281  0.9374  0.5829
  739MOL0     C 1873   4.329   3.028   2.656 -0.1394 -1.0010 -0.8741
  739MOL0     C 1874   4.464   3.001   2.712 -0.2360  0.0077 -0.7099
  739MOL0     O 1875   4.549   2.946   2.624 -0.6095 -0.2061 -0.0022
  739MOL0     C 1876   4.678   2.927   2.638  0.4910  0.2700  0.1526
  739MOL0     C 1877   4.738   2.840   2.550  0.4031 -0.2040 -0.2038
  739MOL0     C 1878   4.873   2.811   2.561  0.4137 -0.1083  0.3146
  739MOL0     C 1879   4.955   2.883   2.644  0.0264 -1.3243  0.0848
  739MOL0     O 1880   5.088   2.856   2.640 -0.1461 -0.1883 -0.5795
  739MOL0     C 1881   5.184   2.968   2.626  0.0919 -0.1686  0.0517
  739MOL0     C 1882   5.315   2.921   2.579 -0.4601  0.6922  1.1258
  739MOL0     C 1883   5.384   2.811   2.667 -0.1210  0.6440 -0.1783
  739MOL0     C 1884   5.524   2.775   2.637 -0.1557  0.0126  0.1092
  739MOL0     C 1885   5.629   2.893   2.672 -0.0368 -0.1374 -1.0072
  739MOL0     C 1886   5.767   2.820   2.712  0.3774 -0.6229 -0.1719
  739MOL0     C 1887   5.883   2.907   2.768 -0.3651 -0.6618  0.2098
  739MOL0     C 1888   6.020   2.832   2.764 -0.5613 -0.5577 -0.0887
  739MOL0    Cl 1889   6.010   2.670   2.849  0.2603 -0.0086  0.2973
  739MOL0     C 1890   4.896   2.969   2.733  0.3221 -0.2468 -0.1236
  739MOL0     C 1891   4.754   2.991   2.733 -0.1242 -0.5837  0.3325
  739MOL0     O 1892   4.481   3.032   2.829 -0.1972 -0.5095  0.7202
  739MOL0     C 1893   4.296   2.960   2.537  0.1929 -0.0592 -0.4420
  739MOL0     C 1894   4.174   2.968   2.481 -0.3041 -0.5721 -0.0011
  739MOL0     N 1895   3.472   3.228   2.525 -0.6766  0.0692 -0.5022
  739MOL0     N 1896   3.416   3.341   2.528 -0.1317 -0.0262 -0.0883
  739MOL0     C 1897   2.127   3.268   2.419  0.5449 -0.4723  0.2467
  739MOL0     C 1898   1.993   3.317   2.391 -0.6938 -1.0426  0.4643
  739MOL0     C 1899   1.594   3.538   2.459 -0.0725  0.2798 -0.2823
  739MOL0     C 1900   1.474   3.481   2.515  0.1587 -0.2170  0.0325
  739MOL0     C 1901   1.353   3.540   2.488  0.2430 -0.2713  0.3638
  739MOL0     C 1902   1.343   3.660   2.417  0.1525 -0.2932 -0.7021
  739MOL0     O 1903   1.210   3.713   2.409 -0.4470 -0.0184 -0.4244
  739MOL0     C 1904   1.173   3.831   2.329 -0.4468  0.7718 -0.2384
  739MOL0     C 1905   1.030   3.876   2.381  0.2676 -0.0601  0.3081
  739MOL0     C 1906   0.916   3.789   2.313 -0.9018 -0.6333 -0.5981
  739MOL0     C 1907   0.900   3.815   2.167 -0.5636  0.2595  0.3953
  739MOL0     C 1908   0.891   3.960   2.133 -1.1917  0.3241  0.7531
  739MOL0     C 1909   0.868   4.079   2.111 -0.7489  0.7750  0.2475
  739MOL0     C 1910   1.456   3.712   2.363 -0.0312 -0.0059  0.0837
  739MOL0     C 1911   1.581   3.654   2.382 -0.2466  0.8754  0.8896
  739MOL0     C 1912   1.692   3.733   2.317  0.0352 -0.0689 -0.5078
  739MOL0     H 1913   1.983   3.565   2.612 -1.3204  0.0747 -0.6161
  739MOL0     H 1914   2.195   3.476   2.681 -1.8991 -1.2855  1.9693
  739MOL0     H 1915   2.477   3.411   2.640  0.2093  3.3000 -0.6460
  739MOL0     H 1916   2.421   3.484   2.498  1.9331  0.0795 -0.7986
  739MOL0     H 1917   2.623   3.238   2.496  3.7611  1.5755  0.5188
  739MOL0     H 1918   2.545   3.306   2.358  2.3320 -1.0081 -0.3715
  739MOL0     H 1919   2.671   3.490   2.368  1.2760  0.4826 -0.6735
  739MOL0     H 1920   2.684   3.510   2.542 -3.3008 -0.3852 -0.6527
  739MOL0     H 1921   2.835   3.292   2.524 -1.8180  1.6721  1.2835
  739MOL0     H 1922   2.842   3.321   2.355  0.5155 -0.3060 -0.0077
  739MOL0     H 1923   2.949   3.502   2.573 -0.4329 -1.8097  1.1161
  739MOL0     H 1924   2.931   3.570   2.415  0.8383  0.9477  2.2517
  739MOL0     H 1925   3.096   3.331   2.474 -0.6935  1.7653  3.1133
  739MOL0     H 1926   3.066   3.393   2.307  1.4686  0.7047  0.3042
  739MOL0     H 1927   3.191   3.534   2.545 -2.0873 -2.1761  1.1824
  739MOL0     H 1928   3.129   3.620   2.404  0.2986 -0.2538 -0.8705
  739MOL0     H 1929   3.291   3.497   2.256  1.5858 -1.5283 -0.2485
  739MOL0     H 1930   3.379   3.573   2.388 -1.3650  1.3978 -1.3702
  739MOL0     H 1931   3.361   3.236   2.213  2.3012 -1.3182 -0.0369
  739MOL0     H 1932   3.482   3.014   2.252 -0.8049  1.9500 -0.1568
  739MOL0     H 1933   3.470   2.957   2.427  0.9524  0.4761  1.0921
  739MOL0     H 1934   3.703   2.999   2.261  0.0359  0.0826  0.2482
  739MOL0     H 1935   3.705   3.134   2.375  0.8277 -0.6835  0.2823
  739MOL0     H 1936   3.682   3.001   2.571 -2.4518  1.5088 -1.1635
  739MOL0     H 1937   3.665   2.860   2.490 -0.3078 -0.1250 -0.4760
  739MOL0     H 1938   3.884   2.882   2.586  2.8622 -0.0052 -0.5257
  739MOL0     H 1939   3.907   2.861   2.415 -1.4651  0.5313 -1.2768
  739MOL0     H 1940   4.029   3.179   2.706 -0.5468  0.0102  0.7074
  739MOL0     H 1941   4.299   3.156   2.916  0.7560 -0.1246 -0.1332
  739MOL0     H 1942   4.169   3.265   2.859 -0.5702 -0.8701 -0.2239
  739MOL0     H 1943   4.332   3.289   2.798 -1.8261  2.5067 -1.6485
  739MOL0     H 1944   4.680   2.793   2.472 -0.1489 -1.3761  0.8693
  739MOL0     H 1945   4.916   2.742   2.489 -0.0866 -0.7935  0.6537
  739MOL0     H 1946   5.154   3.047   2.557  0.8209 -0.8356 -1.0669
  739MOL0     H 1947   5.184   3.019   2.723 -4.2206  1.5643 -0.6288
  739MOL0     H 1948   5.307   2.870   2.482  1.7365  3.7176 -0.8091
  739MOL0     H 1949   5.383   3.006   2.572 -0.2626  0.6756  2.5610
  739MOL0     H 1950   5.332   2.718   2.644 -0.8593  0.5164  1.7951
  739MOL0     H 1951   5.370   2.834   2.773 -0.5721 -1.4697  0.2650
  739MOL0     H 1952   5.544   2.744   2.534  1.3150  1.4627 -0.0912
  739MOL0     H 1953   5.553   2.701   2.713 -1.5783  0.8940  1.5722
  739MOL0     H 1954   5.650   2.963   2.591  3.0011  1.9781  1.3350
  739MOL0     H 1955   5.590   2.954   2.754 -2.2632  0.4929 -2.4695
  739MOL0     H 1956   5.800   2.767   2.621 -0.6629 -1.0917 -0.2889
  739MOL0     H 1957   5.749   2.742   2.786  1.6481 -0.8894 -0.1276
  739MOL0     H 1958   5.859   2.936   2.871  0.2795  0.2679  0.1041
  739MOL0     H 1959   5.898   2.995   2.705 -2.2262 -1.0404 -0.8192
  739MOL0     H 1960   6.089   2.900   2.815  0.0942 -2.0669  1.1198
  739MOL0     H 1961   6.049   2.815   2.660 -0.6266 -0.1232 -0.1772
  739MOL0     H 1962   4.965   3.022   2.798  0.6973 -0.8512 -0.0200
  739MOL0     H 1963   4.719   3.060   2.809  1.7143  1.1702 -0.3066
  739MOL0     H 1964   4.369   2.899   2.485  1.5466  1.4361 -0.3415
  739MOL0     H 1965   4.159   2.924   2.384  2.0534  1.6000 -1.4871
  739MOL0     H 1966   2.169   3.178   2.374  2.6434  0.5089  0.1422
  739MOL0     H 1967   1.921   3.268   2.326 -1.0258 -2.3247  1.7466
  739MOL0     H 1968   1.481   3.390   2.574  0.1447 -0.2936 -0.0824
  739MOL0     H 1969   1.268   3.487   2.528 -0.9046  0.3863 -1.1080
  739MOL0     H 1970   1.241   3.916   2.342 -0.0138  0.2876  0.7130
  739MOL0     H 1971   1.176   3.803   2.223  2.6263  1.3617 -0.4172
  739MOL0     H 1972   1.018   3.982   2.358  1.8474  0.0290 -0.2712
  739MOL0     H 1973   1.018   3.868   2.490 -0.4032 -0.2396  0.2236
  739MOL0     H 1974   0.931   3.683   2.337 -3.1774 -0.6691  0.9322
  739MOL0     H 1975   0.824   3.813   2.366 -0.3589 -0.6379  0.3676
  739MOL0     H 1976   0.809   3.771   2.126 -1.8517  1.2477  2.0465
  739MOL0     H 1977   0.990   3.776   2.119 -0.3955 -1.6403  2.1375
  739MOL0     H 1978   0.851   4.185   2.107 -2.5293  0.7943  4.1592
  739MOL0     H 1979   1.447   3.811   2.318  1.6063  0.7069  1.2364
  739MOL0     H 1980   1.724   3.672   2.233 -1.8496 -1.8090 -0.0654
  739MOL0     H 1981   1.669   3.835   2.283  1.5450  0.9859  1.4363
  739MOL0     H 1982   1.773   3.740   2.390 -1.7366 -0.2492  1.6024
  740MOL0     O 1983   2.318   9.215   6.515 -0.2194 -0.2910  0.3076
  740MOL0     C 1984   2.389   9.150   6.590 -0.4164  0.7270  0.1859
  740MOL0     O 1985   2.521   9.158   6.596 -0.4392  0.4526 -0.1452
  740MOL0     C 1986   2.589   9.237   6.509 -0.7776 -0.1373  1.0837
  740MOL0     C 1987   2.586   9.212   6.369  0.0604  0.3388 -0.9374
  740MOL0     C 1988   2.642   9.306   6.287  0.0986 -0.3005 -0.3458
  740MOL0     C 1989   2.705   9.417   6.332 -0.2174 -0.5461 -0.4592
  740MOL0     O 1990   2.732   9.506   6.238 -0.2630  0.1261  0.1595
  740MOL0     C 1991   2.742   9.638   6.284 -0.4950 -0.4089 -0.4990
  740MOL0     C 1992   2.736   9.739   6.167  0.0694  0.4251 -0.9831
  740MOL0     C 1993   2.866   9.769   6.088  0.5505 -0.8932 -0.1836
  740MOL0     C 1994   2.934   9.635   6.055 -0.4321 -0.2258 -0.0152
  740MOL0     C 1995   3.051   9.656   5.962  0.1658  0.2032  0.0099
  740MOL0     C 1996   3.007   9.661   5.814 -0.2153  1.0167 -0.2699
  740MOL0     C 1997   3.126   9.685   5.719  0.1133 -0.3992  0.0230
  740MOL0     C 1998   3.186   9.825   5.738  0.1970 -0.3269 -0.1990
  740MOL0     N 1999   3.279   9.860   5.622 -0.6981 -0.4053 -0.1346
  740MOL0     C 2000   3.264   9.844   5.490  0.6045  0.4068  0.5875
  740MOL0     C 2001   3.380   9.892   5.439  0.2593  0.0739  1.2162
  740MOL0     C 2002   3.414   9.915   5.297 -0.3169  0.8754 -0.4951
  740MOL0     C 2003   3.475   9.799   5.211 -0.0605  0.9887 -0.0273
  740MOL0     C 2004   3.428   9.821   5.070  0.1696  0.3079  0.5386
  740MOL0     C 2005   3.447   9.691   4.994 -0.1145  0.8835 -0.4594
  740MOL0     O 2006   3.576   9.636   5.011 -0.8628 -0.3962 -0.4174
  740MOL0     C 2007   3.691   9.681   4.949 -0.5844  0.6351  0.0695
  740MOL0     C 2008   3.682   9.726   4.821 -0.6203 -0.4526  0.2980
  740MOL0     C 2009   3.802   9.749   4.749  0.2776  0.8569  0.2018
  740MOL0     C 2010   3.787   9.789   4.604  0.3434  0.0424 -0.0535
  740MOL0     C 2011   3.928   9.742   4.810 -0.3717  0.6434 -0.3788
  740MOL0     C 2012   4.068   9.767   4.748  0.3934  1.1853 -0.0859
  740MOL0     O 2013   4.166   9.790   4.838  0.5716 -0.3134 -0.6407
  740MOL0     C 2014   4.175   9.915   4.909 -0.3295 -0.4166  0.6641
  740MOL0     C 2015   4.104  10.030   4.889  0.5193 -0.6373 -0.5388
  740MOL0     C 2016   4.134  10.152   4.953  0.8556 -0.3382 -1.8247
  740MOL0     C 2017   4.238  10.151   5.046  0.1729 -0.0879 -0.0690
  740MOL0     O 2018   4.267  10.269   5.117 -0.6092 -0.0768 -0.1767
  740MOL0     C 2019   4.369  10.285   5.219 -0.7173 -0.1419 -0.2527
  740MOL0     C 2020   4.361  10.430   5.274 -0.2282  0.2508 -0.4521
  740MOL0     C 2021   4.225  10.449   5.341 -0.0679 -0.4953  0.0808
  740MOL0     C 2022   4.196  10.595   5.393  0.1836  0.1347 -0.2075
  740MOL0     C 2023   4.058  10.595   5.470  0.9165  0.1948 -0.1641
  740MOL0     C 2024   4.038  10.688   5.587 -0.8941 -0.5704 -0.2085
  740MOL0     C 2025   3.912  10.678   5.654  0.0871 -0.5375  1.0146
  740MOL0     C 2026   3.918  10.554   5.744  0.6771 -0.3922  0.0339
  740MOL0    Cl 2027   3.768  10.530   5.840 -0.0638  0.1953  0.3242
  740MOL0     C 2028   4.311  10.032   5.066  0.1508 -0.9317 -0.5906
  740MOL0     C 2029   4.276   9.915   5.011  1.0573  1.4569 -0.0586
  740MOL0     O 2030   4.084   9.782   4.625  0.8836 -0.6243  0.5733
  740MOL0     C 2031   3.936   9.697   4.951  0.6559  0.4852  0.8501
  740MOL0     C 2032   3.816   9.653   5.007 -0.5891  0.6812 -0.2496
  740MOL0     N 2033   3.468   9.922   5.537 -0.1653 -0.2120 -0.2418
  740MOL0     N 2034   3.410   9.896   5.645  0.1202  0.0417 -0.7712
  740MOL0     C 2035   2.725   9.439   6.471 -1.4808  0.4323 -0.4658
  740MOL0     C 2036   2.660   9.351   6.559  0.0308  0.7252  0.1489
  740MOL0     C 2037   2.329   9.048   6.689 -0.8849 -0.5202 -0.5818
  740MOL0     C 2038   2.417   8.987   6.789  1.6344 -0.4202  0.6598
  740MOL0     C 2039   2.368   8.889   6.881 -1.4967  0.2767  0.1329
  740MOL0     C 2040   2.231   8.865   6.888  0.1654 -0.3845  0.7199
  740MOL0     O 2041   2.161   8.778   6.964  0.7066  0.2428  0.5814
  740MOL0     C 2042   2.239   8.692   7.041  0.6287  0.1566 -0.5497
  740MOL0     C 2043   2.145   8.602   7.114  0.6765  0.5822 -0.4595
  740MOL0     C 2044   2.041   8.508   7.040 -0.0396  0.6337  0.3137
  740MOL0     C 2045   1.965   8.412   7.141  0.6197  1.3265  0.4501
  740MOL0     C 2046   1.841   8.359   7.076 -0.1087 -0.4198 -0.3376
  740MOL0     C 2047   1.735   8.300   7.028 -0.9723 -0.1773  0.5818
  740MOL0     C 2048   2.149   8.933   6.795 -0.0003  0.5376 -0.2668
  740MOL0     C 2049   2.195   9.015   6.690 -0.1023 -0.2181 -0.1095
  740MOL0     C 2050   2.089   9.061   6.591  0.0075  0.2887 -0.0359
  740MOL0     H 2051   2.534   9.124   6.332  0.6049 -0.0493 -0.7859
  740MOL0     H 2052   2.630   9.283   6.182  1.1579  0.5270 -0.6723
  740MOL0     H 2053   2.833   9.654   6.342 -2.4681  0.5267  2.5702
  740MOL0     H 2054   2.659   9.658   6.352  1.0706  0.6082  1.1834
  740MOL0     H 2055   2.651   9.714   6.103 -1.5922 -0.6690  1.5226
  740MOL0     H 2056   2.700   9.833   6.209  2.4130  0.3196  1.6106
  740MOL0     H 2057   2.833   9.821   5.997  0.5477 -0.8062 -0.1327
  740MOL0     H 2058   2.931   9.834   6.148  1.6643  0.8345 -3.0383
  740MOL0     H 2059   2.970   9.603   6.153  0.7759  1.1199  0.0063
  740MOL0     H 2060   2.867   9.554   6.025 -0.2234 -0.0740 -0.9224
  740MOL0     H 2061   3.127   9.578   5.974  0.3008 -0.4596 -3.8637
  740MOL0     H 2062   3.103   9.747   5.994  0.5700 -0.3340  0.9040
  740MOL0     H 2063   2.970   9.560   5.798 -0.7447  0.2873  4.2466
  740MOL0     H 2064   2.928   9.732   5.788 -1.7556 -0.0407  1.2870
  740MOL0     H 2065   3.097   9.667   5.615  2.7524 -3.6383 -0.3133
  740MOL0     H 2066   3.204   9.611   5.737 -0.1643 -0.6783  0.0937
  740MOL0     H 2067   3.105   9.898   5.730  1.2221  0.6578 -4.3032
  740MOL0     H 2068   3.250   9.835   5.826  2.5878 -0.6199 -1.7853
  740MOL0     H 2069   3.169   9.812   5.448 -0.5764  2.0890  1.8387
  740MOL0     H 2070   3.492   9.991   5.292  0.0510  0.4465 -1.9960
  740MOL0     H 2071   3.324   9.953   5.248 -1.9147  0.1705  1.7659
  740MOL0     H 2072   3.584   9.813   5.210 -0.2074  3.0918 -3.3283
  740MOL0     H 2073   3.454   9.703   5.259  1.3908  0.3282 -0.6455
  740MOL0     H 2074   3.329   9.866   5.066 -0.0178 -0.1694 -0.4818
  740MOL0     H 2075   3.499   9.891   5.026  2.8219 -1.4738  1.7151
  740MOL0     H 2076   3.386   9.612   5.039  0.6535  2.0134  2.8549
  740MOL0     H 2077   3.414   9.697   4.890 -1.9032 -1.1523 -0.0862
  740MOL0     H 2078   3.584   9.736   4.775 -1.5007 -0.5537  2.0431
  740MOL0     H 2079   3.851   9.871   4.570  0.4808 -0.5327 -1.2322
  740MOL0     H 2080   3.682   9.810   4.585  0.3423 -0.5784 -0.8213
  740MOL0     H 2081   3.809   9.703   4.539  2.1307  2.2002 -2.5359
  740MOL0     H 2082   4.022  10.039   4.819 -2.8466  2.2516  3.3352
  740MOL0     H 2083   4.080  10.244   4.934  0.0233 -0.3167  0.3468
  740MOL0     H 2084   4.356  10.218   5.305 -0.4038  1.9933  1.5462
  740MOL0     H 2085   4.468  10.266   5.176 -0.7605 -0.1983 -0.3274
  740MOL0     H 2086   4.439  10.454   5.347 -1.0559  0.4020  0.4172
  740MOL0     H 2087   4.369  10.494   5.186 -2.1486  0.1163 -0.7720
  740MOL0     H 2088   4.213  10.364   5.409 -0.4573 -0.2641  0.3043
  740MOL0     H 2089   4.144  10.436   5.268 -0.8536  0.3582  0.7741
  740MOL0     H 2090   4.193  10.671   5.314  0.6491  2.9668  2.3315
  740MOL0     H 2091   4.274  10.630   5.461 -1.4081  4.7203 -0.3892
  740MOL0     H 2092   3.977  10.621   5.401 -0.5983 -2.2466  0.5406
  740MOL0     H 2093   4.032  10.495   5.507 -1.1677  0.6475 -0.2823
  740MOL0     H 2094   4.040  10.788   5.542 -1.3205  0.6676  2.3258
  740MOL0     H 2095   4.124  10.689   5.654 -0.5136 -0.0265 -0.6942
  740MOL0     H 2096   3.822  10.672   5.593  0.6445  3.0382 -0.4284
  740MOL0     H 2097   3.903  10.771   5.712 -0.6939  2.1997 -3.0178
  740MOL0     H 2098   4.011  10.555   5.801  0.2286 -0.4769  0.7718
  740MOL0     H 2099   3.940  10.463   5.686  0.8411 -1.5754  1.8451
  740MOL0     H 2100   4.392  10.031   5.138 -1.2114 -0.5815  1.0127
  740MOL0     H 2101   4.332   9.824   5.030 -0.9975 -0.1448 -1.2891
  740MOL0     H 2102   4.035   9.678   4.991  0.0825  1.8425  3.0677
  740MOL0     H 2103   3.818   9.604   5.104 -0.2513 -0.7354 -0.9436
  740MOL0     H 2104   2.778   9.526   6.509  3.6092 -3.2138  1.9586
  740MOL0     H 2105   2.662   9.355   6.667  1.5523 -2.0724  0.3193
  740MOL0     H 2106   2.523   9.005   6.796  2.3566 -3.1558 -1.4282
  740MOL0     H 2107   2.430   8.834   6.951 -0.4131 -1.8804 -2.3416
  740MOL0     H 2108   2.291   8.625   6.972 -1.4043 -0.1438 -1.8859
  740MOL0     H 2109   2.315   8.736   7.107  1.5682  2.4453 -2.9507
  740MOL0     H 2110   2.075   8.664   7.172  0.2078 -1.9137  1.8373
  740MOL0     H 2111   2.204   8.541   7.183  2.7946  1.7028 -1.2084
  740MOL0     H 2112   1.961   8.571   7.000  0.1575 -0.4469 -1.9373
  740MOL0     H 2113   2.084   8.447   6.960 -1.7070 -0.9069  0.5182
  740MOL0     H 2114   1.945   8.465   7.235  2.6295  0.8792  1.1794
  740MOL0     H 2115   2.027   8.325   7.165 -1.0757 -0.3679 -0.9298
  740MOL0     H 2116   1.644   8.254   6.996 -0.7883  1.0893 -2.0105
  740MOL0     H 2117   2.042   8.923   6.807  0.0940  0.6472  0.7696
  740MOL0     H 2118   2.038   9.154   6.619 -5.3698 -2.0031 -0.9406
  740MOL0     H 2119   2.142   9.068   6.496  1.1532 -1.1842  0.4608
  740MOL0     H 2120   2.010   8.986   6.581  0.0871  0.0923  0.7078
  741MOL0     O 2121   9.302   7.137   6.302  0.3147 -0.0660  0.1048
  741MOL0     C 2122   9.319   7.059   6.393 -0.1420  0.0171 -1.5577
  741MOL0     O 2123   9.396   6.951   6.391 -0.8765 -0.2920  0.0449
  741MOL0     C 2124   9.511   6.951   6.311  0.4445  0.2042  0.1323
  741MOL0     C 2125   9.558   6.833   6.260  0.5197 -0.2103  0.2615
  741MOL0     C 2126   9.665   6.828   6.176 -0.0397 -0.2630  0.1983
  741MOL0     C 2127   9.749   6.940   6.154  0.4668 -0.5603  0.4315
  741MOL0     O 2128   9.869   6.937   6.094 -0.3610  0.0865  0.4939
  741MOL0     C 2129   9.870   6.871   5.962  0.7207 -0.4742  0.9856
  741MOL0     C 2130   9.988   6.915   5.878  0.0392 -0.1216 -0.2962
  741MOL0     C 2131  10.130   6.865   5.916  0.5726  0.1026  0.1279
  741MOL0     C 2132  10.183   6.875   6.066 -0.0255 -0.1486  0.6146
  741MOL0     C 2133  10.234   7.014   6.077 -0.2979  0.0353  0.2888
  741MOL0     C 2134  10.276   7.047   6.222  0.6405  0.7996 -0.2510
  741MOL0     C 2135  10.330   7.187   6.260 -0.2944  0.8413 -0.0212
  741MOL0     C 2136  10.221   7.293   6.255  0.0273  0.4959  0.5655
  741MOL0     N 2137  10.288   7.423   6.257 -0.4075  0.2327 -0.0761
  741MOL0     C 2138  10.301   7.500   6.148 -0.5631  0.5856 -0.4201
  741MOL0     C 2139  10.402   7.591   6.177  0.7377  0.2442  0.3503
  741MOL0     C 2140  10.461   7.698   6.088  0.4206 -0.3521  0.0165
  741MOL0     C 2141  10.599   7.748   6.131  0.1081 -0.4150  0.1796
  741MOL0     C 2142  10.649   7.857   6.032 -0.4743  0.2963 -0.0477
  741MOL0     C 2143  10.794   7.891   6.068 -0.0473 -0.2954  0.8537
  741MOL0     O 2144  10.835   8.022   6.018  0.1637  0.1664  0.3148
  741MOL0     C 2145  10.967   8.022   6.008 -0.0722  0.0398 -0.5882
  741MOL0     C 2146  11.051   8.071   6.104 -0.3649  0.2239 -0.3987
  741MOL0     C 2147  11.194   8.058   6.095  0.0781 -0.6900 -1.1360
  741MOL0     C 2148  11.272   8.101   6.226 -0.1322 -0.1256 -0.2985
  741MOL0     C 2149  11.252   8.015   5.974  0.1377 -0.4543 -0.2333
  741MOL0     C 2150  11.401   7.995   5.964 -0.3247  0.2030 -0.2374
  741MOL0     O 2151  11.440   7.981   5.833  0.1182  0.0851 -0.4441
  741MOL0     C 2152  11.568   7.958   5.801 -0.9157 -0.2953 -0.2954
  741MOL0     C 2153  11.670   8.054   5.796  0.3973 -0.8925  0.4514
  741MOL0     C 2154  11.790   8.012   5.736 -0.0064 -0.2453 -0.3969
  741MOL0     C 2155  11.825   7.878   5.710  0.9416  0.0181 -0.5336
  741MOL0     O 2156  11.950   7.853   5.655 -0.1213 -0.2370  0.2102
  741MOL0     C 2157  11.977   7.724   5.605 -0.2936 -0.2320  0.5228
  741MOL0     C 2158  12.111   7.700   5.540 -0.4871  0.0045 -0.4591
  741MOL0     C 2159  12.105   7.577   5.455  0.2511  0.2438 -0.1781
  741MOL0     C 2160  12.245   7.546   5.409  0.1273 -0.3110 -0.0776
  741MOL0     C 2161  12.236   7.491   5.265 -0.0648  0.2900 -0.7193
  741MOL0     C 2162  12.381   7.465   5.216  0.3384 -0.3991 -0.0564
  741MOL0     C 2163  12.437   7.592   5.157 -0.1106  0.0338  0.3362
  741MOL0     C 2164  12.559   7.564   5.063  0.5312  0.7302 -0.2318
  741MOL0    Cl 2165  12.696   7.681   5.083  0.1119  0.4116  0.2477
  741MOL0     C 2166  11.723   7.780   5.731 -0.0100  0.8862 -0.6349
  741MOL0     C 2167  11.594   7.825   5.767  0.7504  0.3868 -0.6939
  741MOL0     O 2168  11.476   7.994   6.062 -0.2688  0.0745 -0.7528
  741MOL0     C 2169  11.177   7.979   5.872  1.3507  0.3133  0.3555
  741MOL0     C 2170  11.027   7.975   5.892  0.1800  0.2753 -0.0261
  741MOL0     N 2171  10.426   7.570   6.303  0.2820  0.1606  0.1647
  741MOL0     N 2172  10.356   7.479   6.361 -0.3578  0.2601 -0.6431
  741MOL0     C 2173   9.705   7.057   6.208 -0.0414 -0.6258 -0.4166
  741MOL0     C 2174   9.587   7.067   6.287  0.1998  0.1646  0.1844
  741MOL0     C 2175   9.249   7.088   6.519 -0.1376 -0.3554  0.2213
  741MOL0     C 2176   9.198   7.224   6.535 -0.1438  1.0462  0.9864
  741MOL0     C 2177   9.127   7.259   6.647 -0.5736 -0.3021 -0.0397
  741MOL0     C 2178   9.087   7.169   6.748  0.4382  0.7428  0.7516
  741MOL0     O 2179   9.010   7.223   6.850  0.4550  0.7254 -0.7735
  741MOL0     C 2180   8.983   7.134   6.955  0.6983 -0.4011  0.1720
  741MOL0     C 2181   8.908   7.204   7.060  1.0250  0.1033 -0.1274
  741MOL0     C 2182   8.796   7.297   7.022  0.1307 -0.8073 -1.0674
  741MOL0     C 2183   8.849   7.442   6.982 -0.0403  0.5978 -0.1101
  741MOL0     C 2184   8.741   7.541   6.991  0.7841 -0.3334  0.6294
  741MOL0     C 2185   8.668   7.633   6.991  0.5540  0.0405  0.8582
  741MOL0     C 2186   9.136   7.035   6.739 -1.1849 -0.0888  0.4329
  741MOL0     C 2187   9.228   6.996   6.634  0.1864 -0.3246 -0.1075
  741MOL0     C 2188   9.286   6.857   6.638 -1.1274  0.1928  0.6953
  741MOL0     H 2189   9.501   6.750   6.302 -0.2048  0.2872  0.2893
  741MOL0     H 2190   9.703   6.728   6.157 -1.7022 -0.6301 -1.4564
  741MOL0     H 2191   9.785   6.896   5.899 -0.3926 -0.7165  2.3393
  741MOL0     H 2192   9.875   6.763   5.981  0.3000 -0.8914 -1.0577
  741MOL0     H 2193   9.971   6.887   5.774 -0.6703  0.3346 -0.3164
  741MOL0     H 2194   9.975   7.024   5.887 -3.0753 -0.4864  1.1540
  741MOL0     H 2195  10.122   6.758   5.893  1.7846  0.3466 -1.5914
  741MOL0     H 2196  10.198   6.904   5.841  0.1280  2.1209  0.7150
  741MOL0     H 2197  10.095   6.864   6.130  0.4109  2.2442  1.7461
  741MOL0     H 2198  10.263   6.803   6.089  1.6510  1.1419 -0.8515
  741MOL0     H 2199  10.164   7.085   6.034  0.9783  1.4728  0.5203
  741MOL0     H 2200  10.329   7.013   6.024 -0.4761 -0.3957 -0.0312
  741MOL0     H 2201  10.193   7.029   6.291 -0.1086  0.6816 -1.1452
  741MOL0     H 2202  10.360   6.982   6.248  2.1674  2.3446 -1.1400
  741MOL0     H 2203  10.408   7.223   6.192 -1.8908  1.6938 -1.4996
  741MOL0     H 2204  10.369   7.194   6.362 -0.9217  2.7575  0.1320
  741MOL0     H 2205  10.169   7.290   6.159  1.1956 -0.9011 -0.0603
  741MOL0     H 2206  10.161   7.281   6.345 -0.8876 -1.3363 -0.2365
  741MOL0     H 2207  10.249   7.492   6.053  0.4079 -0.9160 -0.8636
  741MOL0     H 2208  10.381   7.771   6.073 -0.2609 -1.2410 -0.8161
  741MOL0     H 2209  10.472   7.646   5.993 -0.6263 -2.6973  1.0869
  741MOL0     H 2210  10.571   7.790   6.227 -0.5109  0.3375 -0.3214
  741MOL0     H 2211  10.669   7.664   6.143  4.5264  2.8175 -0.4783
  741MOL0     H 2212  10.638   7.813   5.932 -1.0231 -0.6734  0.4243
  741MOL0     H 2213  10.595   7.950   6.048  1.0257  1.1538  0.2461
  741MOL0     H 2214  10.813   7.889   6.176  0.4037  0.9191  0.8034
  741MOL0     H 2215  10.856   7.810   6.028  1.0963  0.8119  0.3004
  741MOL0     H 2216  11.001   8.101   6.196 -0.9690  0.8789 -0.9256
  741MOL0     H 2217  11.357   8.165   6.203 -1.7524  2.0293 -0.6241
  741MOL0     H 2218  11.299   8.008   6.277 -0.5131  0.6534  1.3734
  741MOL0     H 2219  11.204   8.156   6.291  1.4987  3.7433 -1.5623
  741MOL0     H 2220  11.648   8.153   5.834  1.4679 -0.8091  0.8995
  741MOL0     H 2221  11.862   8.092   5.726  0.6509 -0.8216 -0.2981
  741MOL0     H 2222  11.969   7.648   5.683  1.0898 -0.4333  0.4848
  741MOL0     H 2223  11.897   7.710   5.531 -0.6305  1.8646  0.4195
  741MOL0     H 2224  12.142   7.785   5.478 -5.0164  4.3142  2.3849
  741MOL0     H 2225  12.187   7.679   5.616  1.1018 -2.2226 -2.5104
  741MOL0     H 2226  12.044   7.597   5.366  2.7348  1.8660 -1.6126
  741MOL0     H 2227  12.062   7.489   5.504  1.3680  0.0665  0.5126
  741MOL0     H 2228  12.300   7.481   5.477 -2.0762  0.1284  2.2846
  741MOL0     H 2229  12.299   7.640   5.396 -1.5041  1.1030  2.3674
  741MOL0     H 2230  12.183   7.396   5.263  1.8312 -0.8288 -0.7458
  741MOL0     H 2231  12.192   7.570   5.204 -2.4002  0.8863  1.5716
  741MOL0     H 2232  12.376   7.380   5.147  1.1688 -1.8035  1.5424
  741MOL0     H 2233  12.441   7.430   5.300  1.3448  1.4978  0.0762
  741MOL0     H 2234  12.466   7.643   5.249 -3.2475 -0.3044  1.6457
  741MOL0     H 2235  12.359   7.648   5.104  0.6950 -0.9869 -2.0382
  741MOL0     H 2236  12.519   7.593   4.966 -0.0053  0.9349  0.0464
  741MOL0     H 2237  12.590   7.459   5.064 -1.3486  0.1290  0.2587
  741MOL0     H 2238  11.742   7.675   5.710 -0.9127  0.6778 -0.4623
  741MOL0     H 2239  11.507   7.762   5.751  1.8781 -1.4815  0.2803
  741MOL0     H 2240  11.225   7.940   5.782  0.9883 -0.8660  0.6664
  741MOL0     H 2241  10.980   7.937   5.802 -1.0868 -0.6336  0.9781
  741MOL0     H 2242   9.771   7.142   6.194  3.7234 -3.0579  0.9114
  741MOL0     H 2243   9.562   7.161   6.335  1.0231  0.5956 -0.2075
  741MOL0     H 2244   9.208   7.282   6.443  0.3808 -0.4167  0.0747
  741MOL0     H 2245   9.086   7.359   6.651 -2.9884 -1.1471 -1.4062
  741MOL0     H 2246   8.920   7.054   6.915  1.4066 -1.3906  0.9676
  741MOL0     H 2247   9.084   7.097   6.978  2.1020  1.5531 -2.3655
  741MOL0     H 2248   8.980   7.253   7.126 -0.5757  1.4431  0.7150
  741MOL0     H 2249   8.864   7.126   7.123 -1.2124  2.6697  1.7247
  741MOL0     H 2250   8.735   7.259   6.939 -1.1939 -0.2314 -0.3913
  741MOL0     H 2251   8.742   7.296   7.117 -2.7144 -1.1566 -2.5736
  741MOL0     H 2252   8.897   7.444   6.884  1.5680 -0.0109  0.6157
  741MOL0     H 2253   8.932   7.477   7.044  1.2826  3.2863 -3.1354
  741MOL0     H 2254   8.607   7.721   6.984 -0.7191 -0.8837  0.0779
  741MOL0     H 2255   9.105   6.962   6.813  0.8739 -2.4921 -0.9318
  741MOL0     H 2256   9.395   6.864   6.642 -1.1512  0.7887  0.4294
  741MOL0     H 2257   9.262   6.797   6.727 -1.3033  1.0259  1.2171
  741MOL0     H 2258   9.257   6.795   6.552 -0.0895 -0.4999  0.8317
  742MOL0     O 2259   6.118   9.409  11.421  0.0899  0.2567  0.6283
  742MOL0     C 2260   6.053   9.463  11.336 -0.9153  0.4873  0.7626
  742MOL0     O 2261   6.097   9.573  11.269  0.5669 -0.8177  0.0725
  742MOL0     C 2262   6.229   9.615  11.276  0.0877 -0.2342  0.2161
  742MOL0     C 2263   6.342   9.553  11.222 -0.6055  0.0283 -0.1796
  742MOL0     C 2264   6.470   9.609  11.237  0.2748  0.2709  0.1104
  742MOL0     C 2265   6.489   9.732  11.303  0.3763  0.0921  1.0652
  742MOL0     O 2266   6.611   9.801  11.298 -0.1611 -1.0627  0.0090
  742MOL0     C 2267   6.671   9.797  11.169  0.6670 -0.8178  0.2395
  742MOL0     C 2268   6.610   9.900  11.075  0.1976  0.5155  0.8499
  742MOL0     C 2269   6.664   9.895  10.933 -0.1210 -0.5673 -0.2699
  742MOL0     C 2270   6.601  10.006  10.846 -0.0135 -0.6008  0.4206
  742MOL0     C 2271   6.671   9.988  10.714  0.0256 -0.1154  0.2336
  742MOL0     C 2272   6.633  10.086  10.603 -0.4160  0.1277  0.4539
  742MOL0     C 2273   6.486  10.095  10.566  0.4869  0.4682  0.4015
  742MOL0     C 2274   6.424   9.967  10.512  0.7227 -0.2247  0.0471
  742MOL0     N 2275   6.460   9.932  10.371 -0.4688 -0.0337 -0.2732
  742MOL0     C 2276   6.456  10.021  10.266  0.1843 -0.5426  0.2264
  742MOL0     C 2277   6.490   9.946  10.166 -0.3415  1.2613 -1.3998
  742MOL0     C 2278   6.504   9.997  10.031 -0.2063 -0.8330 -0.0260
  742MOL0     C 2279   6.643  10.053  10.009  0.7045  0.2825  0.3148
  742MOL0     C 2280   6.672  10.094   9.860  0.0892 -0.7323  0.3048
  742MOL0     C 2281   6.799  10.182   9.855 -0.1125 -0.3547  0.5851
  742MOL0     O 2282   6.848  10.159   9.728 -0.2393 -1.2175  0.0485
  742MOL0     C 2283   6.975  10.203   9.703 -0.0564 -0.3805 -0.5909
  742MOL0     C 2284   7.074  10.271   9.783 -0.1902 -0.9080 -0.2659
  742MOL0     C 2285   7.205  10.299   9.739 -0.3351  0.2315  0.1308
  742MOL0     C 2286   7.288  10.354   9.851 -0.0219  0.4555  0.2419
  742MOL0     C 2287   7.243  10.275   9.606  0.0890 -0.5880  0.2042
  742MOL0     C 2288   7.379  10.298   9.547  0.6461 -0.4222  0.2529
  742MOL0     O 2289   7.403  10.272   9.414  0.1112 -0.4337  0.1170
  742MOL0     C 2290   7.534  10.282   9.376  0.3922 -0.7010  0.4813
  742MOL0     C 2291   7.607  10.171   9.360 -0.0283  0.7920 -0.6333
  742MOL0     C 2292   7.748  10.172   9.349 -1.3296 -0.0666  0.3487
  742MOL0     C 2293   7.826  10.289   9.348 -0.4417 -0.0637  0.0904
  742MOL0     O 2294   7.963  10.281   9.355  0.1254 -0.3727  0.0499
  742MOL0     C 2295   8.038  10.378   9.430  0.6763 -0.0987  0.1608
  742MOL0     C 2296   8.187  10.329   9.444  0.1892 -0.0608 -1.0635
  742MOL0     C 2297   8.209  10.219   9.541 -0.2064  0.7740  0.6045
  742MOL0     C 2298   8.358  10.164   9.544  0.3973  0.2861  0.6674
  742MOL0     C 2299   8.376  10.046   9.451  0.3124  0.6829 -0.9778
  742MOL0     C 2300   8.516   9.979   9.470  0.4536 -0.2337 -0.0800
  742MOL0     C 2301   8.545   9.873   9.366 -0.5235  0.2543  0.2935
  742MOL0     C 2302   8.692   9.830   9.356  0.0268  1.4559  0.3278
  742MOL0    Cl 2303   8.716   9.697   9.236  0.5244  0.4075  0.0498
  742MOL0     C 2304   7.745  10.406   9.335  0.3173  0.1966 -0.1114
  742MOL0     C 2305   7.605  10.404   9.350  0.6620  1.1893 -0.2095
  742MOL0     O 2306   7.460  10.346   9.618 -0.3298 -0.1730 -0.0802
  742MOL0     C 2307   7.137  10.221   9.522  0.1612 -0.4226  0.0863
  742MOL0     C 2308   7.006  10.187   9.566  0.3460 -0.5607 -0.1885
  742MOL0     N 2309   6.519   9.817  10.205 -0.2014  0.3301 -0.0525
  742MOL0     N 2310   6.493   9.808  10.332 -0.0521 -0.5563 -0.2997
  742MOL0     C 2311   6.385   9.796  11.364  0.2326  0.8960 -0.6220
  742MOL0     C 2312   6.251   9.738  11.353 -0.6028  0.2661  0.0829
  742MOL0     C 2313   5.920   9.420  11.287  0.3886  0.3934 -0.2120
  742MOL0     C 2314   5.867   9.455  11.158 -0.8490  0.5723 -0.8935
  742MOL0     C 2315   5.736   9.436  11.129 -0.4336 -0.0424  0.0332
  742MOL0     C 2316   5.643   9.383  11.218 -0.1730 -0.0844  0.0749
  742MOL0     O 2317   5.508   9.390  11.186  0.0076  0.4910 -0.2217
  742MOL0     C 2318   5.412   9.343  11.283  0.1355  0.5756 -0.3771
  742MOL0     C 2319   5.271   9.392  11.251  0.5766 -1.1727 -0.3172
  742MOL0     C 2320   5.217   9.303  11.137  0.9017  0.3006  0.5599
  742MOL0     C 2321   5.083   9.356  11.094  0.1984  0.1950 -0.8199
  742MOL0     C 2322   5.006   9.263  11.010  0.1409 -0.0715  0.5941
  742MOL0     C 2323   4.935   9.184  10.959  0.2180  0.5105 -0.1568
  742MOL0     C 2324   5.703   9.339  11.339  1.2250 -0.3947  0.1216
  742MOL0     C 2325   5.835   9.354  11.377 -0.2460 -0.2543 -0.4626
  742MOL0     C 2326   5.871   9.314  11.518  0.4283  0.2425  0.3493
  742MOL0     H 2327   6.326   9.456  11.175 -1.1083 -0.1829  0.4204
  742MOL0     H 2328   6.545   9.547  11.187 -2.6079 -4.4159  1.0183
  742MOL0     H 2329   6.679   9.704  11.112  3.2112  0.2848 -1.4026
  742MOL0     H 2330   6.773   9.833  11.185 -0.1705  1.7273  0.2596
  742MOL0     H 2331   6.501   9.892  11.075 -0.0469  2.9334  1.5037
  742MOL0     H 2332   6.621  10.000  11.117  3.1425  0.4890  0.3643
  742MOL0     H 2333   6.773   9.894  10.937 -0.1492 -0.9487  1.2931
  742MOL0     H 2334   6.641   9.794  10.897 -5.6484  0.3943 -0.3397
  742MOL0     H 2335   6.493   9.991  10.840 -0.3165  0.9929  1.3675
  742MOL0     H 2336   6.618  10.106  10.886 -0.1219 -0.8457  1.1013
  742MOL0     H 2337   6.656   9.884  10.683 -0.6877  0.2099 -0.5590
  742MOL0     H 2338   6.779  10.001  10.730  0.1571  0.0359 -0.7141
  742MOL0     H 2339   6.684  10.182  10.617 -0.1776  0.2665 -1.1452
  742MOL0     H 2340   6.681  10.042  10.515 -3.1947 -2.9043  0.2754
  742MOL0     H 2341   6.477  10.168  10.485  1.4377 -0.1650 -0.3048
  742MOL0     H 2342   6.432  10.132  10.653 -0.5747  0.7574 -0.3673
  742MOL0     H 2343   6.462   9.888  10.578  0.1371 -0.1385  0.4905
  742MOL0     H 2344   6.316   9.967  10.529  0.3384 -0.3104 -2.1947
  742MOL0     H 2345   6.421  10.123  10.263 -1.8155 -1.0872  2.4406
  742MOL0     H 2346   6.431  10.077  10.016  2.7655  2.2849  0.9111
  742MOL0     H 2347   6.490   9.920   9.955  0.2794 -1.3883  0.4366
  742MOL0     H 2348   6.651  10.135  10.081  0.2956 -1.6986  2.7646
  742MOL0     H 2349   6.717   9.975  10.029  0.1639 -0.2755  0.1740
  742MOL0     H 2350   6.683  10.005   9.797 -0.8472 -1.8145  1.6109
  742MOL0     H 2351   6.588  10.154   9.822  0.6281  0.7259  1.3409
  742MOL0     H 2352   6.774  10.284   9.882 -2.3647 -0.3794 -1.1174
  742MOL0     H 2353   6.869  10.151   9.933 -0.1797  1.2306  1.2956
  742MOL0     H 2354   7.052  10.306   9.884  1.5368 -1.1568  0.2225
  742MOL0     H 2355   7.253  10.322   9.950  3.1476 -0.2477  1.2340
  742MOL0     H 2356   7.278  10.460   9.828 -2.5401  0.4077  0.7823
  742MOL0     H 2357   7.385  10.306   9.837 -0.1477 -0.8838  3.1563
  742MOL0     H 2358   7.554  10.080   9.384  1.1288  0.8344  2.6396
  742MOL0     H 2359   7.795  10.075   9.359 -0.0553  0.6416  1.8611
  742MOL0     H 2360   8.037  10.476   9.382  0.2288  0.4160  1.2017
  742MOL0     H 2361   7.998  10.405   9.528 -0.6016 -2.7331  0.4564
  742MOL0     H 2362   8.225  10.303   9.345 -2.0817 -1.8835 -1.5602
  742MOL0     H 2363   8.257  10.409   9.471  1.0100 -1.3019  0.7097
  742MOL0     H 2364   8.139  10.143   9.504 -2.4662  2.7210  0.6447
  742MOL0     H 2365   8.176  10.256   9.638  0.2231  0.9712  0.6766
  742MOL0     H 2366   8.390  10.129   9.643 -0.4428  0.0126  0.8435
  742MOL0     H 2367   8.425  10.248   9.522  1.1860 -0.2074  1.1007
  742MOL0     H 2368   8.294   9.974   9.462  0.4681  0.8773  2.8249
  742MOL0     H 2369   8.360  10.085   9.350 -2.0515  1.7043 -0.2690
  742MOL0     H 2370   8.516   9.937   9.571 -0.5472 -1.9689 -0.7581
  742MOL0     H 2371   8.597  10.053   9.476  2.9656 -2.7411 -0.8496
  742MOL0     H 2372   8.518   9.916   9.269  3.0462  1.5832 -0.2612
  742MOL0     H 2373   8.477   9.790   9.385 -0.5853  0.3056  0.2999
  742MOL0     H 2374   8.726   9.785   9.450  1.0594 -0.8747 -1.0671
  742MOL0     H 2375   8.757   9.908   9.314  3.3040 -0.9823  0.4293
  742MOL0     H 2376   7.792  10.504   9.331  0.7643 -0.0257 -0.5182
  742MOL0     H 2377   7.550  10.497   9.358 -1.3908  0.2784 -2.3553
  742MOL0     H 2378   7.160  10.200   9.418  2.0204  1.1823  0.1233
  742MOL0     H 2379   6.924  10.154   9.504  0.4656 -1.7749  0.2761
  742MOL0     H 2380   6.397   9.882  11.428 -1.8120  1.1427 -0.4808
  742MOL0     H 2381   6.164   9.782  11.400 -0.7856  2.4170 -2.0716
  742MOL0     H 2382   5.930   9.482  11.073 -2.1646 -0.1509 -2.1251
  742MOL0     H 2383   5.700   9.458  11.029  0.2048  1.2774  0.0760
  742MOL0     H 2384   5.403   9.235  11.298 -0.2226  0.6666  0.1202
  742MOL0     H 2385   5.446   9.390  11.376  1.7470 -0.2842 -0.4937
  742MOL0     H 2386   5.266   9.499  11.230  1.2777 -1.4776 -2.3040
  742MOL0     H 2387   5.208   9.378  11.339 -2.0378 -0.9588 -2.0416
  742MOL0     H 2388   5.282   9.307  11.049  0.2300 -2.1670 -0.1104
  742MOL0     H 2389   5.204   9.199  11.165  2.9020 -0.1130  0.0848
  742MOL0     H 2390   5.097   9.451  11.042  2.0172  0.5860  0.2798
  742MOL0     H 2391   5.020   9.379  11.180 -1.5135 -0.6924 -1.7725
  742MOL0     H 2392   4.863   9.121  10.910  2.0282 -3.4361  1.8453
  742MOL0     H 2393   5.638   9.294  11.413  1.0262 -3.7405 -1.8513
  742MOL0     H 2394   5.961   9.251  11.519  0.9883  0.8822 -2.0700
  742MOL0     H 2395   5.885   9.408  11.572  0.0776  0.7176 -0.3655
  742MOL0     H 2396   5.784   9.266  11.565  0.8519 -3.0398 -1.8428
  743MOL0     O 2397   0.512   3.182   4.793  0.0481  0.7469 -0.0937
  743MOL0     C 2398   0.558   3.167   4.680 -0.8716 -0.4543 -0.4762
  743MOL0     O 2399   0.489   3.186   4.571 -0.1357 -0.7755  0.0720
  743MOL0     C 2400   0.370   3.254   4.555  0.7761 -0.1315 -0.6781
  743MOL0     C 2401   0.321   3.345   4.650 -0.0685 -0.8091  0.2286
  743MOL0     C 2402   0.204   3.411   4.625  0.5102  0.5730 -0.5035
  743MOL0     C 2403   0.128   3.390   4.510 -0.7065 -0.2464  0.8487
  743MOL0     O 2404   0.022   3.464   4.469  0.0235 -0.0192  0.6978
  743MOL0     C 2405  -0.010   3.590   4.536 -0.3807 -0.1624 -0.0168
  743MOL0     C 2406  -0.086   3.560   4.667  0.2016 -0.0908 -0.0156
  743MOL0     C 2407  -0.210   3.648   4.679 -0.2665 -1.0666  0.7166
  743MOL0     C 2408  -0.283   3.630   4.809 -0.1194 -0.2919  0.4622
  743MOL0     C 2409  -0.430   3.593   4.803 -0.3469  0.9438 -0.0887
  743MOL0     C 2410  -0.508   3.704   4.734  0.6692  0.0133 -0.1108
  743MOL0     C 2411  -0.527   3.826   4.829  0.3077 -0.6019 -0.2428
  743MOL0     C 2412  -0.524   3.959   4.747  0.5586  0.8018  1.0293
  743MOL0     N 2413  -0.559   4.089   4.818 -0.4690 -0.0156 -0.2543
  743MOL0     C 2414  -0.588   4.101   4.952  0.0010 -0.5581  0.3885
  743MOL0     C 2415  -0.587   4.240   4.961 -0.2942  0.4869 -0.1592
  743MOL0     C 2416  -0.607   4.302   5.095 -0.3176  0.0233 -0.2510
  743MOL0     C 2417  -0.480   4.360   5.157  0.7123 -0.3631  0.5431
  743MOL0     C 2418  -0.379   4.244   5.201  0.4625 -0.6008  0.4925
  743MOL0     C 2419  -0.291   4.201   5.085 -0.1329 -0.8489  1.1686
  743MOL0     O 2420  -0.250   4.065   5.120 -0.3307 -0.0975  0.3258
  743MOL0     C 2421  -0.146   4.003   5.051  0.3651 -1.3653 -0.2416
  743MOL0     C 2422  -0.126   4.024   4.917  0.3325  0.1002 -0.0318
  743MOL0     C 2423  -0.024   3.957   4.849 -0.1807  0.3613 -0.1410
  743MOL0     C 2424  -0.010   3.992   4.702  0.3070  0.1824 -0.1302
  743MOL0     C 2425   0.062   3.868   4.928  0.3596  0.3288  0.4234
  743MOL0     C 2426   0.179   3.798   4.873 -0.0509  0.0608 -0.3101
  743MOL0     O 2427   0.281   3.772   4.953  0.4164  0.2664 -0.4431
  743MOL0     C 2428   0.392   3.718   4.901 -0.4324  0.3904 -1.2202
  743MOL0     C 2429   0.426   3.591   4.947  1.2404 -0.2201  0.2996
  743MOL0     C 2430   0.532   3.520   4.896 -0.0878  0.7135 -0.5772
  743MOL0     C 2431   0.613   3.585   4.808 -0.2737 -0.7071 -0.4267
  743MOL0     O 2432   0.728   3.525   4.753 -0.4818  0.2725 -0.7808
  743MOL0     C 2433   0.859   3.598   4.742 -0.3225  0.0319  0.7660
  743MOL0     C 2434   0.982   3.510   4.722  0.0019 -0.2701  0.7783
  743MOL0     C 2435   0.970   3.433   4.592 -0.0827 -0.1430 -0.3495
  743MOL0     C 2436   1.103   3.364   4.568  0.0424  0.2253 -0.1358
  743MOL0     C 2437   1.087   3.293   4.435  0.1850  0.3872  0.5731
  743MOL0     C 2438   1.215   3.218   4.396  0.4591 -0.2537 -0.1429
  743MOL0     C 2439   1.340   3.306   4.392 -0.3437 -0.2935 -0.4947
  743MOL0     C 2440   1.451   3.241   4.326 -0.3682 -0.5193  0.2463
  743MOL0    Cl 2441   1.603   3.342   4.325  0.2888 -0.0760 -0.3256
  743MOL0     C 2442   0.594   3.723   4.782  0.3615 -0.7090 -0.0259
  743MOL0     C 2443   0.480   3.781   4.821  0.6062 -0.8617 -0.2314
  743MOL0     O 2444   0.169   3.759   4.759 -0.7793  0.7152 -0.0864
  743MOL0     C 2445   0.042   3.841   5.064  1.0389 -0.3358 -0.1936
  743MOL0     C 2446  -0.067   3.911   5.119  0.3744 -0.0476 -0.4908
  743MOL0     N 2447  -0.541   4.299   4.845  0.2493  0.0618  0.0657
  743MOL0     N 2448  -0.519   4.206   4.754  0.0003 -0.1740  0.4300
  743MOL0     C 2449   0.175   3.305   4.416 -0.5200  0.4400  0.2698
  743MOL0     C 2450   0.292   3.228   4.438  0.1731  0.7519  0.0209
  743MOL0     C 2451   0.688   3.111   4.664 -0.9993 -0.4703  0.1787
  743MOL0     C 2452   0.712   3.034   4.536 -0.0539 -0.7921 -0.2333
  743MOL0     C 2453   0.837   2.975   4.520 -1.0703  0.0336 -0.1537
  743MOL0     C 2454   0.944   2.997   4.603 -0.4813  1.1798 -0.4050
  743MOL0     O 2455   1.075   2.945   4.585  0.6165  0.4941 -0.6145
  743MOL0     C 2456   1.121   2.860   4.480  0.0024  0.2069  0.0303
  743MOL0     C 2457   1.248   2.797   4.518  0.7736  0.0809  0.1289
  743MOL0     C 2458   1.367   2.888   4.489 -0.6909 -1.5439 -0.2234
  743MOL0     C 2459   1.495   2.807   4.512  0.8798 -0.5217 -0.2063
  743MOL0     C 2460   1.618   2.892   4.511  0.2942  0.0445  0.3340
  743MOL0     C 2461   1.714   2.964   4.504  0.1799  0.3525  0.1108
  743MOL0     C 2462   0.918   3.073   4.722 -0.2134  0.8328  1.1492
  743MOL0     C 2463   0.796   3.128   4.747  0.1636 -1.1868 -0.3941
  743MOL0     C 2464   0.792   3.218   4.873  0.1489  0.4298  0.0732
  743MOL0     H 2465   0.374   3.369   4.742 -2.3405  1.4162  1.1015
  743MOL0     H 2466   0.177   3.479   4.705  1.3671 -1.0768  1.2675
  743MOL0     H 2467  -0.066   3.663   4.477  1.0620  1.6127  0.7007
  743MOL0     H 2468   0.083   3.644   4.553 -0.0717 -0.9365  0.8452
  743MOL0     H 2469  -0.117   3.456   4.664 -1.7383  0.4789 -1.6834
  743MOL0     H 2470  -0.019   3.576   4.752  5.0235 -0.9838 -3.2923
  743MOL0     H 2471  -0.190   3.754   4.664 -0.5631 -1.0442  0.4563
  743MOL0     H 2472  -0.276   3.628   4.594 -1.7787  0.3439  1.4911
  743MOL0     H 2473  -0.229   3.548   4.858  2.0495 -0.6303 -2.2237
  743MOL0     H 2474  -0.261   3.710   4.881 -2.2185 -0.4965  1.3942
  743MOL0     H 2475  -0.466   3.593   4.907 -1.4968  3.7369 -0.4084
  743MOL0     H 2476  -0.455   3.500   4.751  1.5416  0.1525  0.3168
  743MOL0     H 2477  -0.463   3.739   4.641  1.9179  2.5046  1.3086
  743MOL0     H 2478  -0.611   3.676   4.713 -0.3844  4.1110 -1.1947
  743MOL0     H 2479  -0.448   3.831   4.904 -0.5732 -0.9340  0.7375
  743MOL0     H 2480  -0.624   3.827   4.879  0.6282  1.3807  0.4188
  743MOL0     H 2481  -0.424   3.969   4.704  0.1613 -1.0511 -0.4841
  743MOL0     H 2482  -0.589   3.951   4.659  1.5763 -0.2183  0.3319
  743MOL0     H 2483  -0.613   4.020   5.020 -3.1459 -1.8142 -2.0365
  743MOL0     H 2484  -0.648   4.242   5.176 -0.8415  2.7260  1.6023
  743MOL0     H 2485  -0.677   4.384   5.079 -0.0478  0.1327 -0.9041
  743MOL0     H 2486  -0.428   4.425   5.087 -0.6477 -0.1952 -0.3562
  743MOL0     H 2487  -0.501   4.420   5.247  0.8680  3.1723 -1.5898
  743MOL0     H 2488  -0.333   4.277   5.294 -0.0889  1.2748  0.1278
  743MOL0     H 2489  -0.430   4.149   5.221  3.2235 -1.8654  2.1630
  743MOL0     H 2490  -0.343   4.205   4.990 -3.7338 -1.6619  2.9502
  743MOL0     H 2491  -0.203   4.265   5.073 -0.2267 -1.2162 -2.8096
  743MOL0     H 2492  -0.189   4.091   4.859 -0.8231 -0.4962  0.5212
  743MOL0     H 2493   0.095   4.012   4.677  0.2870 -0.3968 -0.7155
  743MOL0     H 2494  -0.063   4.082   4.667 -0.7268 -0.7674 -1.0778
  743MOL0     H 2495  -0.023   3.904   4.639  3.6306  0.6502 -1.7221
  743MOL0     H 2496   0.365   3.544   5.023 -1.5578  1.7519 -0.5997
  743MOL0     H 2497   0.550   3.426   4.947 -1.0248  2.8777  4.4481
  743MOL0     H 2498   0.849   3.682   4.674 -0.5543 -0.8363 -0.3048
  743MOL0     H 2499   0.874   3.647   4.839 -0.0269 -0.4438  0.9680
  743MOL0     H 2500   1.073   3.571   4.725 -0.4232  0.3629  1.2285
  743MOL0     H 2501   0.990   3.438   4.803 -2.0552 -0.2029  1.0899
  743MOL0     H 2502   0.935   3.492   4.507  0.2770 -0.7667 -0.9431
  743MOL0     H 2503   0.893   3.359   4.619 -2.1533  2.1743  0.4855
  743MOL0     H 2504   1.126   3.300   4.653 -1.8927 -1.3341 -0.7243
  743MOL0     H 2505   1.183   3.439   4.564  0.8145 -0.6427 -2.0839
  743MOL0     H 2506   1.006   3.220   4.444 -1.6878  2.3562  0.5284
  743MOL0     H 2507   1.056   3.350   4.346 -0.9408 -3.2152 -1.5515
  743MOL0     H 2508   1.197   3.177   4.296  0.0912  1.7635 -0.9657
  743MOL0     H 2509   1.233   3.128   4.455  0.3627 -0.7542 -0.8648
  743MOL0     H 2510   1.373   3.346   4.488  0.1242 -1.4042 -0.1779
  743MOL0     H 2511   1.319   3.391   4.327 -2.5192  1.3253  2.1127
  743MOL0     H 2512   1.413   3.219   4.225  1.4561  0.2001 -0.6366
  743MOL0     H 2513   1.476   3.140   4.362  1.4930 -0.4228 -0.6380
  743MOL0     H 2514   0.670   3.780   4.731  0.5966  1.7978  2.8696
  743MOL0     H 2515   0.451   3.882   4.791  0.6331 -1.2682 -1.7015
  743MOL0     H 2516   0.090   3.770   5.130  0.0108  0.8039  1.8862
  743MOL0     H 2517  -0.089   3.906   5.226  2.2356  3.0408  0.1622
  743MOL0     H 2518   0.114   3.281   4.329  0.3993 -0.7708 -0.0560
  743MOL0     H 2519   0.334   3.151   4.374 -0.3166 -2.1960  2.9642
  743MOL0     H 2520   0.635   3.011   4.463  0.9794 -2.0607 -0.9638
  743MOL0     H 2521   0.836   2.906   4.437  1.7819 -0.9576  0.5472
  743MOL0     H 2522   1.041   2.789   4.458 -0.5024 -0.0900  2.5237
  743MOL0     H 2523   1.120   2.910   4.383 -2.4663 -0.2228 -0.2252
  743MOL0     H 2524   1.243   2.698   4.471 -3.7459  0.9677 -1.7626
  743MOL0     H 2525   1.245   2.780   4.626  2.7318  0.7333  0.3196
  743MOL0     H 2526   1.355   2.915   4.384  1.3874 -3.1909 -0.9743
  743MOL0     H 2527   1.364   2.982   4.545 -0.1708  0.9268 -3.9638
  743MOL0     H 2528   1.490   2.731   4.433 -2.7304  0.3510 -1.0271
  743MOL0     H 2529   1.476   2.765   4.611 -1.2903 -0.3734 -0.4967
  743MOL0     H 2530   1.794   3.036   4.502  1.3865 -0.8657  1.8087
  743MOL0     H 2531   0.996   3.092   4.794 -0.4031  2.6354  0.9260
  743MOL0     H 2532   0.750   3.317   4.855  1.9763  0.9575 -1.7531
  743MOL0     H 2533   0.733   3.158   4.942  0.4964 -2.2248 -1.7553
  743MOL0     H 2534   0.896   3.224   4.906 -0.2030  0.8744  1.1194
  744MOL0     O 2535   6.106   5.550   0.043  0.1885  0.0550  0.4029
  744MOL0     C 2536   6.099   5.441  -0.016  0.0001  0.5168 -0.8320
  744MOL0     O 2537   6.162   5.408  -0.135  0.5009 -0.0940 -0.0443
  744MOL0     C 2538   6.240   5.506  -0.191 -0.1699  0.1492  0.0159
  744MOL0     C 2539   6.379   5.506  -0.173 -0.6411  0.3796 -0.5009
  744MOL0     C 2540   6.467   5.594  -0.237 -0.1755  0.7350 -0.3710
  744MOL0     C 2541   6.412   5.687  -0.321  0.2888  0.1627  0.0522
  744MOL0     O 2542   6.493   5.773  -0.382  0.3008  0.5421  0.0989
  744MOL0     C 2543   6.473   5.917  -0.366  0.0645 -0.6411 -0.5851
  744MOL0     C 2544   6.528   5.987  -0.478 -0.2735 -0.1580 -0.1247
  744MOL0     C 2545   6.678   6.009  -0.470  0.3405  0.0881 -0.3045
  744MOL0     C 2546   6.713   6.088  -0.591  0.1722  0.9399 -0.0005
  744MOL0     C 2547   6.863   6.108  -0.587  0.5573 -0.2308  1.0431
  744MOL0     C 2548   6.910   6.173  -0.723 -0.0250 -0.5826  0.8073
  744MOL0     C 2549   7.063   6.201  -0.718  0.2072 -0.3816 -0.0292
  744MOL0     C 2550   7.116   6.281  -0.834  0.2409  0.4305  0.7290
  744MOL0     N 2551   7.042   6.410  -0.847  0.2611  0.1892  0.4569
  744MOL0     C 2552   7.041   6.506  -0.753 -0.0263  0.2169 -0.3722
  744MOL0     C 2553   6.968   6.609  -0.802  0.0085  0.3317 -0.6080
  744MOL0     C 2554   6.950   6.749  -0.742 -0.9027 -0.2828  0.8509
  744MOL0     C 2555   7.081   6.835  -0.750  0.1954 -0.4803 -0.6374
  744MOL0     C 2556   7.061   6.979  -0.725  0.2573 -0.6557  0.1663
  744MOL0     C 2557   7.188   7.071  -0.706 -0.5987  0.0719 -0.7933
  744MOL0     O 2558   7.270   7.062  -0.826  0.5362  0.4528 -0.5023
  744MOL0     C 2559   7.401   7.106  -0.831  0.4991 -1.0222 -0.2718
  744MOL0     C 2560   7.462   7.187  -0.729  0.5502 -0.3116 -1.0549
  744MOL0     C 2561   7.591   7.223  -0.736  0.1246 -0.0174  0.0470
  744MOL0     C 2562   7.646   7.320  -0.633 -0.1664  0.0568  0.3981
  744MOL0     C 2563   7.670   7.197  -0.851  0.8227  0.3183  0.7803
  744MOL0     C 2564   7.818   7.234  -0.865  0.1433  0.7277 -0.1167
  744MOL0     O 2565   7.901   7.140  -0.938 -0.2478 -0.0470  0.5309
  744MOL0     C 2566   8.027   7.168  -0.956  0.1687  0.4132  0.9593
  744MOL0     C 2567   8.071   7.280  -1.036  0.3577 -0.5489  0.5269
  744MOL0     C 2568   8.200   7.317  -1.048  0.0193 -0.0871 -0.3028
  744MOL0     C 2569   8.299   7.248  -0.981 -0.1998  0.3352 -0.0013
  744MOL0     O 2570   8.429   7.294  -0.979  0.2718  0.1686 -0.3839
  744MOL0     C 2571   8.517   7.192  -1.036  0.3566 -0.6450 -0.3721
  744MOL0     C 2572   8.654   7.183  -0.968  0.5505  0.5305 -0.2609
  744MOL0     C 2573   8.711   7.307  -0.900 -0.8109 -0.0747  0.0549
  744MOL0     C 2574   8.769   7.412  -0.995  0.0478  0.1175  0.2053
  744MOL0     C 2575   8.794   7.554  -0.934 -1.0848  0.6037 -0.9245
  744MOL0     C 2576   8.883   7.640  -1.025  0.2013  1.2918 -0.0124
  744MOL0     C 2577   8.926   7.776  -0.965  0.5356 -0.0309 -0.1915
  744MOL0     C 2578   8.817   7.866  -0.908 -0.1572 -0.0049 -0.7521
  744MOL0    Cl 2579   8.707   7.922  -1.049 -0.2540  0.2706  0.4463
  744MOL0     C 2580   8.267   7.146  -0.902 -0.5190 -0.2512  0.3005
  744MOL0     C 2581   8.133   7.099  -0.892 -0.0995 -0.4313  0.4897
  744MOL0     O 2582   7.858   7.339  -0.822  0.1166 -0.7716  0.1356
  744MOL0     C 2583   7.613   7.121  -0.952 -1.2775 -0.1956 -0.8305
  744MOL0     C 2584   7.486   7.079  -0.937  0.0574 -0.1477 -0.5268
  744MOL0     N 2585   6.928   6.568  -0.930 -0.0422 -0.1797  0.3155
  744MOL0     N 2586   6.969   6.449  -0.956 -0.0881  0.9271  0.0132
  744MOL0     C 2587   6.273   5.692  -0.337  0.3392 -0.3801 -0.0825
  744MOL0     C 2588   6.185   5.595  -0.279 -0.6440  0.1519 -0.7580
  744MOL0     C 2589   6.004   5.343   0.035 -0.0564  0.8736 -0.5364
  744MOL0     C 2590   5.957   5.242  -0.060 -0.0079  0.0794  0.2653
  744MOL0     C 2591   5.901   5.124  -0.014 -0.6783 -0.0545 -0.8036
  744MOL0     C 2592   5.867   5.109   0.121  0.2881 -0.1911 -0.6479
  744MOL0     O 2593   5.792   4.995   0.153  0.1242 -0.3373  0.3671
  744MOL0     C 2594   5.733   4.979   0.281  0.5811 -0.4349  0.9205
  744MOL0     C 2595   5.622   4.877   0.276  0.4271  0.4534 -0.5183
  744MOL0     C 2596   5.652   4.748   0.198  0.1310  0.3622 -1.5453
  744MOL0     C 2597   5.552   4.638   0.231  0.2335 -0.4204  0.1638
  744MOL0     C 2598   5.541   4.605   0.375 -0.0872  0.0047  0.0061
  744MOL0     C 2599   5.527   4.587   0.497 -0.5073 -0.7119  0.7845
  744MOL0     C 2600   5.904   5.204   0.218 -0.6610 -0.2889  0.2588
  744MOL0     C 2601   5.987   5.320   0.181 -0.0835 -0.3741  0.1702
  744MOL0     C 2602   6.059   5.405   0.288  1.1711  0.6275  0.0969
  744MOL0     H 2603   6.410   5.430  -0.103 -3.3866 -1.1316 -0.7610
  744MOL0     H 2604   6.570   5.622  -0.218 -0.2434 -0.0987  1.4087
  744MOL0     H 2605   6.520   5.956  -0.275 -0.0192  0.8823 -1.1737
  744MOL0     H 2606   6.372   5.956  -0.355  0.4686  0.6157 -1.1686
  744MOL0     H 2607   6.501   5.936  -0.571 -1.3361 -1.3470  0.8071
  744MOL0     H 2608   6.469   6.079  -0.486 -0.7050 -0.5581 -2.1066
  744MOL0     H 2609   6.700   6.062  -0.377 -3.5702  3.3792 -0.9658
  744MOL0     H 2610   6.726   5.911  -0.479 -1.1656 -0.5902 -1.3460
  744MOL0     H 2611   6.680   6.026  -0.674  0.8954  0.4469  0.0793
  744MOL0     H 2612   6.649   6.177  -0.582 -2.4479 -0.7218 -1.0165
  744MOL0     H 2613   6.904   6.008  -0.578 -0.7111 -0.8206  0.5422
  744MOL0     H 2614   6.881   6.166  -0.496 -0.6617  0.3971  0.9018
  744MOL0     H 2615   6.899   6.097  -0.800  5.7577 -1.1321  0.0426
  744MOL0     H 2616   6.859   6.270  -0.735  2.9048  1.3460  2.5271
  744MOL0     H 2617   7.115   6.105  -0.718  2.2484  0.6224 -2.2354
  744MOL0     H 2618   7.093   6.255  -0.628  0.0270 -1.1828  0.5220
  744MOL0     H 2619   7.222   6.309  -0.826  0.6916 -1.1553  0.6265
  744MOL0     H 2620   7.090   6.227  -0.926 -2.3232  1.7020  0.6171
  744MOL0     H 2621   7.099   6.506  -0.662  0.8524  1.9430 -0.8891
  744MOL0     H 2622   6.929   6.762  -0.636 -1.6770  0.8602  0.5794
  744MOL0     H 2623   6.874   6.793  -0.807 -0.7087 -0.4887  0.4776
  744MOL0     H 2624   7.157   6.803  -0.679 -0.2588 -0.5952 -0.1969
  744MOL0     H 2625   7.126   6.817  -0.848  0.8182 -0.6870 -0.3197
  744MOL0     H 2626   7.004   7.003  -0.815 -2.5615 -0.7665  1.7942
  744MOL0     H 2627   6.992   6.991  -0.641 -1.8600 -2.3994 -1.2179
  744MOL0     H 2628   7.151   7.174  -0.698  0.9720  0.5566  1.1985
  744MOL0     H 2629   7.240   7.044  -0.614  1.2946  0.3056 -1.7464
  744MOL0     H 2630   7.403   7.202  -0.639  2.6230 -0.5418  0.4132
  744MOL0     H 2631   7.706   7.278  -0.551  1.1295  3.9538  1.6945
  744MOL0     H 2632   7.561   7.372  -0.586 -0.4759 -1.6674  1.8975
  744MOL0     H 2633   7.701   7.408  -0.667  0.6056  0.7191  3.0806
  744MOL0     H 2634   7.996   7.339  -1.089 -0.7919 -3.4201 -1.2503
  744MOL0     H 2635   8.222   7.398  -1.117  1.4260 -0.4357 -0.3032
  744MOL0     H 2636   8.467   7.094  -1.038  0.5824 -0.7831  0.3686
  744MOL0     H 2637   8.522   7.231  -1.138 -1.1091 -1.4531 -0.7817
  744MOL0     H 2638   8.640   7.118  -0.881 -1.2984 -0.8804 -1.5321
  744MOL0     H 2639   8.727   7.126  -1.027  2.8766  1.6085  1.3670
  744MOL0     H 2640   8.798   7.286  -0.837  1.9061  1.3210 -2.9512
  744MOL0     H 2641   8.624   7.344  -0.845 -1.9646  0.3230 -1.9304
  744MOL0     H 2642   8.705   7.432  -1.081  2.2794  0.1001 -1.5348
  744MOL0     H 2643   8.866   7.371  -1.025  0.4456  2.1326 -1.5026
  744MOL0     H 2644   8.695   7.601  -0.930 -1.8087 -0.9153  0.3591
  744MOL0     H 2645   8.841   7.550  -0.835  2.8924  2.0994 -2.5599
  744MOL0     H 2646   8.832   7.665  -1.118 -0.5503 -1.7120 -0.4924
  744MOL0     H 2647   8.971   7.584  -1.057 -1.2248 -0.1540 -1.5960
  744MOL0     H 2648   8.976   7.837  -1.040 -1.9747 -0.5013 -2.3720
  744MOL0     H 2649   9.002   7.764  -0.887 -1.5552 -2.0691  1.6885
  744MOL0     H 2650   8.861   7.956  -0.864  0.5648 -0.9530  0.5214
  744MOL0     H 2651   8.772   7.812  -0.824  0.4948 -0.2072 -0.5279
  744MOL0     H 2652   8.341   7.093  -0.842 -0.7186 -1.7099 -0.6799
  744MOL0     H 2653   8.091   7.020  -0.832  1.3500 -1.4735  0.1843
  744MOL0     H 2654   7.679   7.096  -1.034  0.0729 -0.4347  0.2853
  744MOL0     H 2655   7.435   7.020  -1.013  0.4613 -0.8065 -0.2952
  744MOL0     H 2656   6.233   5.769  -0.403 -1.5638 -1.5573 -0.3981
  744MOL0     H 2657   6.079   5.595  -0.299 -0.8059  2.0175 -0.0900
  744MOL0     H 2658   5.969   5.252  -0.167  0.6187 -2.0213  0.0969
  744MOL0     H 2659   5.869   5.034  -0.067  0.4459  0.1218 -1.8191
  744MOL0     H 2660   5.808   4.947   0.354 -0.0515  0.2657  1.8922
  744MOL0     H 2661   5.684   5.072   0.309  2.0632  0.6471  0.0997
  744MOL0     H 2662   5.545   4.928   0.218  0.9305  0.7259 -0.9507
  744MOL0     H 2663   5.598   4.856   0.381  2.1889 -1.1908 -0.4019
  744MOL0     H 2664   5.663   4.775   0.093  1.6316 -0.2813 -1.5730
  744MOL0     H 2665   5.749   4.715   0.236 -1.2513 -1.1291  0.9538
  744MOL0     H 2666   5.598   4.544   0.197 -0.8511 -0.6537 -0.6981
  744MOL0     H 2667   5.456   4.658   0.183  1.3234  2.0837 -1.1343
  744MOL0     H 2668   5.490   4.559   0.594 -3.7128 -0.6657 -0.3282
  744MOL0     H 2669   5.887   5.185   0.323  0.6972  2.2457  1.0211
  744MOL0     H 2670   6.032   5.361   0.385  1.3824 -2.4210 -1.0982
  744MOL0     H 2671   6.164   5.423   0.265  1.3084  1.0137  0.9690
  744MOL0     H 2672   6.018   5.506   0.277 -1.2295 -0.3474 -0.5555
  745MOL0     O 2673   8.913   2.412   3.756 -0.0854  0.5317 -0.0965
  745MOL0     C 2674   8.792   2.432   3.767  0.6789  0.0966  0.1074
  745MOL0     O 2675   8.713   2.457   3.663 -0.3094  0.4352 -0.6815
  745MOL0     C 2676   8.766   2.440   3.535 -0.2066  0.0822 -0.0347
  745MOL0     C 2677   8.803   2.319   3.485 -1.4468 -0.2496  0.0487
  745MOL0     C 2678   8.844   2.295   3.349 -0.4025 -0.0850  0.8262
  745MOL0     C 2679   8.834   2.403   3.258 -0.0885  0.1543 -0.4140
  745MOL0     O 2680   8.867   2.389   3.128  0.2520 -0.1617  0.8458
  745MOL0     C 2681   8.783   2.329   3.033  0.0645 -1.0414  0.5147
  745MOL0     C 2682   8.645   2.385   3.036  0.2159  0.0942 -0.0928
  745MOL0     C 2683   8.646   2.531   2.967 -1.0805  0.3810  0.0479
  745MOL0     C 2684   8.506   2.586   2.972  0.1548  0.4351 -0.2046
  745MOL0     C 2685   8.470   2.670   2.851 -0.2276  0.4563 -0.4392
  745MOL0     C 2686   8.561   2.787   2.826  0.4599  0.2534 -0.5107
  745MOL0     C 2687   8.490   2.877   2.719  0.0886  0.0573 -0.1032
  745MOL0     C 2688   8.604   2.990   2.680  0.2720  1.2231  0.7388
  745MOL0     N 2689   8.727   2.937   2.623  0.0989  1.3491 -0.4296
  745MOL0     C 2690   8.771   2.938   2.498 -0.4850  0.0683 -0.0214
  745MOL0     C 2691   8.897   2.899   2.500  0.3640  0.0515  0.5722
  745MOL0     C 2692   8.988   2.883   2.390  0.8741  0.1786  0.7710
  745MOL0     C 2693   9.135   2.925   2.410  0.3132 -0.6512 -0.4394
  745MOL0     C 2694   9.210   2.836   2.309 -0.1984  0.1606  1.2896
  745MOL0     C 2695   9.353   2.877   2.301 -0.4577 -0.4304 -0.1337
  745MOL0     O 2696   9.426   2.784   2.218  0.0196  0.5471 -0.5526
  745MOL0     C 2697   9.555   2.808   2.177 -0.7704 -0.5737 -0.4574
  745MOL0     C 2698   9.615   2.728   2.087  1.2092  0.2546  0.5733
  745MOL0     C 2699   9.750   2.747   2.042  0.1489  0.3085 -1.0385
  745MOL0     C 2700   9.812   2.630   1.967  0.2665 -0.5681  0.1283
  745MOL0     C 2701   9.829   2.851   2.099  0.0959  0.0009  0.5441
  745MOL0     C 2702   9.971   2.873   2.073 -0.5860 -0.7773  0.6729
  745MOL0     O 2703  10.024   2.981   2.146 -0.1826  0.3019  0.7926
  745MOL0     C 2704  10.152   3.009   2.145 -0.0739 -0.6500  0.0496
  745MOL0     C 2705  10.200   3.137   2.113 -0.1245  0.0205  1.0179
  745MOL0     C 2706  10.331   3.163   2.099 -0.0696  0.6287 -0.1955
  745MOL0     C 2707  10.427   3.067   2.133  0.5487 -0.1559 -0.6743
  745MOL0     O 2708  10.552   3.109   2.142 -0.5061 -0.0404 -0.0267
  745MOL0     C 2709  10.589   3.229   2.209  0.1970  0.2147  0.6116
  745MOL0     C 2710  10.749   3.230   2.223 -0.3933 -0.3099  0.3284
  745MOL0     C 2711  10.807   3.361   2.257 -0.5456 -0.3420  0.3321
  745MOL0     C 2712  10.955   3.346   2.305 -0.5236  0.2904  0.0370
  745MOL0     C 2713  11.023   3.485   2.293 -0.1307 -0.3749  0.7536
  745MOL0     C 2714  11.174   3.485   2.361  0.8338  0.1113 -0.6829
  745MOL0     C 2715  11.174   3.526   2.512 -0.1303 -0.3297  0.3422
  745MOL0     C 2716  11.313   3.542   2.575  0.4008  0.6680  0.2519
  745MOL0    Cl 2717  11.395   3.693   2.527  0.2286  0.3318  0.2013
  745MOL0     C 2718  10.387   2.941   2.184  0.5092 -0.7039 -0.1130
  745MOL0     C 2719  10.250   2.911   2.176  0.4976 -0.1424 -0.3634
  745MOL0     O 2720  10.037   2.805   1.989 -0.6461 -1.4025 -0.3868
  745MOL0     C 2721   9.769   2.926   2.198  0.2853 -0.2945  0.2755
  745MOL0     C 2722   9.637   2.903   2.239 -0.1469  0.0004  0.3861
  745MOL0     N 2723   8.935   2.876   2.632 -0.7869  0.3169 -0.7271
  745MOL0     N 2724   8.838   2.918   2.705 -0.1638  0.0699 -0.2390
  745MOL0     C 2725   8.796   2.532   3.303  0.0421  0.4102  0.1432
  745MOL0     C 2726   8.770   2.551   3.444  0.2483 -0.1901  0.1176
  745MOL0     C 2727   8.737   2.462   3.898 -0.1247  0.5024 -0.1887
  745MOL0     C 2728   8.632   2.551   3.916  0.3022 -0.6159  0.1788
  745MOL0     C 2729   8.577   2.584   4.043  0.4037 -0.4235  0.1199
  745MOL0     C 2730   8.640   2.530   4.158 -0.1742  0.0500 -0.6378
  745MOL0     O 2731   8.603   2.597   4.269  0.3471  0.1947  0.3316
  745MOL0     C 2732   8.695   2.581   4.370 -0.0355 -0.3749  0.7693
  745MOL0     C 2733   8.664   2.656   4.490 -0.5344 -0.1444 -0.2130
  745MOL0     C 2734   8.535   2.618   4.559 -0.4044  0.1358 -0.1828
  745MOL0     C 2735   8.477   2.727   4.649  0.1591 -0.9800 -0.3788
  745MOL0     C 2736   8.569   2.772   4.751  0.2349 -0.4514 -0.5198
  745MOL0     C 2737   8.634   2.812   4.844  0.4156 -0.4296  0.0078
  745MOL0     C 2738   8.729   2.428   4.136  0.2430  0.4208 -0.2520
  745MOL0     C 2739   8.776   2.385   4.011 -0.1970 -1.2032 -0.1093
  745MOL0     C 2740   8.876   2.267   4.014 -1.1189 -0.4113  0.2550
  745MOL0     H 2741   8.820   2.233   3.549  0.2823  0.2726  0.3547
  745MOL0     H 2742   8.883   2.198   3.317 -0.4380  0.3748 -0.6727
  745MOL0     H 2743   8.776   2.224   3.065 -1.4992 -0.2136  3.1409
  745MOL0     H 2744   8.810   2.343   2.928  0.1874 -0.5322  0.6127
  745MOL0     H 2745   8.578   2.317   2.982 -1.1478  1.3368 -0.0202
  745MOL0     H 2746   8.602   2.389   3.137  1.3516  1.4067  0.3647
  745MOL0     H 2747   8.714   2.598   3.020  3.2714 -3.4902 -0.0929
  745MOL0     H 2748   8.680   2.518   2.863  1.7284  2.9715  0.4922
  745MOL0     H 2749   8.441   2.499   2.980  3.2525 -2.1631 -1.3793
  745MOL0     H 2750   8.486   2.649   3.059 -1.6882 -0.4789  0.0785
  745MOL0     H 2751   8.366   2.703   2.855  0.3172  2.2345  3.0944
  745MOL0     H 2752   8.473   2.606   2.763 -1.7618  1.4240 -1.2345
  745MOL0     H 2753   8.580   2.835   2.922 -0.7460 -0.9997  0.4050
  745MOL0     H 2754   8.655   2.745   2.789  0.4317 -0.1909 -0.0856
  745MOL0     H 2755   8.396   2.925   2.751  0.4915  1.4804 -0.9291
  745MOL0     H 2756   8.461   2.813   2.635 -0.6716  0.4116 -0.1249
  745MOL0     H 2757   8.564   3.055   2.601  3.1323  1.9204 -0.2250
  745MOL0     H 2758   8.617   3.048   2.772 -3.6703  1.5430  1.2995
  745MOL0     H 2759   8.724   2.976   2.407 -0.4388  1.6447  0.5702
  745MOL0     H 2760   8.958   2.927   2.294  0.0663 -1.2431  0.3407
  745MOL0     H 2761   8.981   2.775   2.371 -1.8397  0.4208 -0.1105
  745MOL0     H 2762   9.138   3.032   2.388  1.3178 -0.1143  1.8888
  745MOL0     H 2763   9.165   2.906   2.514 -3.0674  0.5669  0.8994
  745MOL0     H 2764   9.205   2.734   2.350  0.3260 -0.3899  0.0199
  745MOL0     H 2765   9.169   2.829   2.208  0.7916  0.2658  0.8700
  745MOL0     H 2766   9.364   2.973   2.249  0.3732  0.0428  0.8826
  745MOL0     H 2767   9.398   2.872   2.400  1.9913 -1.1193 -1.1940
  745MOL0     H 2768   9.558   2.652   2.036  2.8309 -0.6307  0.0063
  745MOL0     H 2769   9.866   2.666   1.879 -0.1767 -0.5002 -0.1211
  745MOL0     H 2770   9.735   2.557   1.938  0.6352 -0.2858 -1.6998
  745MOL0     H 2771   9.876   2.580   2.041  0.1079  0.5939  1.0855
  745MOL0     H 2772  10.127   3.217   2.105  1.1781  1.1478 -0.3689
  745MOL0     H 2773  10.350   3.259   2.054 -0.5537 -0.2196 -2.3100
  745MOL0     H 2774  10.551   3.314   2.151  2.4050  1.3984  0.7994
  745MOL0     H 2775  10.539   3.223   2.307  1.3488  0.8191  1.2626
  745MOL0     H 2776  10.787   3.155   2.294 -0.5069  1.4353  2.3204
  745MOL0     H 2777  10.776   3.205   2.120  0.5954  0.4030  0.3983
  745MOL0     H 2778  10.757   3.404   2.344  1.0439 -1.7566  2.0281
  745MOL0     H 2779  10.797   3.418   2.164 -0.7374 -1.9981 -0.7086
  745MOL0     H 2780  11.010   3.266   2.254  0.4111  0.4576  0.7679
  745MOL0     H 2781  10.970   3.313   2.408 -0.2480  0.0429 -0.0811
  745MOL0     H 2782  11.033   3.513   2.188  3.6365 -1.2918  0.7215
  745MOL0     H 2783  10.965   3.564   2.341  1.2146  2.7097 -2.3458
  745MOL0     H 2784  11.228   3.564   2.308  0.7140  2.1683  2.0350
  745MOL0     H 2785  11.217   3.386   2.343 -1.3456 -0.8263 -1.0944
  745MOL0     H 2786  11.112   3.451   2.563  0.9886 -0.9106  0.8800
  745MOL0     H 2787  11.124   3.622   2.524 -1.1447 -0.9685  1.3322
  745MOL0     H 2788  11.386   3.466   2.545  3.3316  2.4101  2.4054
  745MOL0     H 2789  11.301   3.536   2.684 -1.7952 -0.8748 -0.0083
  745MOL0     H 2790  10.457   2.859   2.197  1.8665  0.5860  1.0729
  745MOL0     H 2791  10.212   2.813   2.203  1.7604 -1.0453 -1.7082
  745MOL0     H 2792   9.816   3.009   2.250 -2.1433  0.7481  0.9484
  745MOL0     H 2793   9.583   2.969   2.307 -0.0595  1.5211 -0.9614
  745MOL0     H 2794   8.772   2.613   3.234  0.0534  0.1249 -0.2008
  745MOL0     H 2795   8.736   2.647   3.482  0.8598  0.6451 -1.3795
  745MOL0     H 2796   8.597   2.598   3.824  0.2659 -1.4099 -0.2235
  745MOL0     H 2797   8.497   2.656   4.052 -0.5043 -1.2591 -0.9931
  745MOL0     H 2798   8.711   2.475   4.391  2.5859 -0.1156  0.4318
  745MOL0     H 2799   8.794   2.619   4.345 -0.2683  0.1887  0.6825
  745MOL0     H 2800   8.655   2.762   4.464 -1.8121  0.2829  1.7607
  745MOL0     H 2801   8.748   2.644   4.558 -1.4063  0.4109  1.0041
  745MOL0     H 2802   8.454   2.605   4.486 -1.3235 -0.4758  0.9137
  745MOL0     H 2803   8.551   2.523   4.610 -0.9695 -0.9012 -1.8459
  745MOL0     H 2804   8.374   2.696   4.672 -0.8338 -2.5566 -5.5347
  745MOL0     H 2805   8.462   2.820   4.594  1.3698  1.1268  2.6050
  745MOL0     H 2806   8.686   2.853   4.928 -0.7872 -1.0864  1.1197
  745MOL0     H 2807   8.771   2.380   4.224 -1.1001  2.3427  1.5559
  745MOL0     H 2808   8.883   2.214   4.110 -2.0895 -2.0565 -0.5281
  745MOL0     H 2809   8.855   2.201   3.928 -0.3792 -0.4514  0.0983
  745MOL0     H 2810   8.977   2.306   4.000 -1.4472 -0.4103 -2.6581
  746MOL0     O 2811   4.505   8.340   8.408  0.1848 -0.1893  0.2041
  746MOL0     C 2812   4.411   8.302   8.482 -0.5156  0.2647 -0.5650
  746MOL0     O 2813   4.414   8.295   8.616  0.4118  0.4686  0.4202
  746MOL0     C 2814   4.540   8.297   8.673  0.0234 -0.2115 -0.5831
  746MOL0     C 2815   4.603   8.426   8.691 -0.1694 -0.4464 -0.7024
  746MOL0     C 2816   4.728   8.444   8.754  0.1301  0.8659  1.1573
  746MOL0     C 2817   4.788   8.329   8.812  0.1724  0.7271  0.3617
  746MOL0     O 2818   4.921   8.330   8.845 -0.8727  0.2137 -0.0460
  746MOL0     C 2819   5.013   8.416   8.768  0.5148  0.2167 -0.1390
  746MOL0     C 2820   5.158   8.382   8.816  0.6504 -0.4349  0.4432
  746MOL0     C 2821   5.262   8.454   8.725 -0.0826 -0.0402 -0.0586
  746MOL0     C 2822   5.406   8.422   8.765  0.4665 -0.6146  0.3615
  746MOL0     C 2823   5.493   8.500   8.683  0.5091 -0.6028 -0.0481
  746MOL0     C 2824   5.639   8.494   8.749  0.5243 -0.5481  0.4204
  746MOL0     C 2825   5.735   8.582   8.668  0.2539  0.0352  0.0396
  746MOL0     C 2826   5.859   8.612   8.764 -0.9540 -0.9136  0.4524
  746MOL0     N 2827   5.963   8.703   8.707  0.4182  0.6759  0.1217
  746MOL0     C 2828   6.088   8.735   8.751 -1.2049  0.4056 -0.1658
  746MOL0     C 2829   6.136   8.821   8.654 -0.1016  0.3803  0.0015
  746MOL0     C 2830   6.282   8.878   8.628  0.1366 -0.4410  0.0375
  746MOL0     C 2831   6.360   8.923   8.754 -0.9167  0.2866 -0.9314
  746MOL0     C 2832   6.491   8.989   8.726 -0.0921 -0.2763 -0.5862
  746MOL0     C 2833   6.577   9.009   8.849  0.5578 -0.6539  0.7819
  746MOL0     O 2834   6.714   9.031   8.814  0.2702  0.1457 -0.3733
  746MOL0     C 2835   6.768   9.160   8.831  0.3259  0.1664  0.3318
  746MOL0     C 2836   6.796   9.208   8.959 -0.4525  0.0067 -0.6137
  746MOL0     C 2837   6.891   9.312   8.979  0.5299  1.0056  0.1051
  746MOL0     C 2838   6.913   9.337   9.125 -0.4926  0.9226  0.3693
  746MOL0     C 2839   6.944   9.386   8.871 -1.2242 -0.6384 -0.0795
  746MOL0     C 2840   7.038   9.497   8.882 -0.5286  0.2783  0.2834
  746MOL0     O 2841   7.063   9.565   8.765 -0.7176  1.0919 -0.1585
  746MOL0     C 2842   7.155   9.665   8.774 -1.1585  0.0962 -0.1256
  746MOL0     C 2843   7.285   9.645   8.822 -0.7690 -0.0316 -0.3423
  746MOL0     C 2844   7.377   9.751   8.814 -0.6207 -0.4998 -1.2885
  746MOL0     C 2845   7.347   9.876   8.758 -0.1624 -0.2633  0.4809
  746MOL0     O 2846   7.423   9.987   8.761  0.1966 -0.0351 -0.0657
  746MOL0     C 2847   7.564   9.974   8.776 -0.3341 -0.0353  0.4789
  746MOL0     C 2848   7.627   9.934   8.643  0.1840  1.4693 -0.5076
  746MOL0     C 2849   7.766   9.879   8.673  0.2199  0.0810 -0.2268
  746MOL0     C 2850   7.754   9.734   8.715 -0.8732 -0.2371 -0.3163
  746MOL0     C 2851   7.901   9.707   8.748  0.5125 -0.4638 -0.2961
  746MOL0     C 2852   7.916   9.568   8.797 -0.3024  0.0622 -0.5058
  746MOL0     C 2853   7.909   9.546   8.956  0.8976 -0.0082  0.6240
  746MOL0     C 2854   7.842   9.413   8.986  0.2838 -0.5790 -0.3998
  746MOL0    Cl 2855   7.685   9.405   8.891 -0.1227 -0.1553 -0.0997
  746MOL0     C 2856   7.225   9.887   8.694 -0.4686 -0.0054 -0.4394
  746MOL0     C 2857   7.131   9.782   8.707  0.0274 -1.5791 -0.5326
  746MOL0     O 2858   7.093   9.520   8.990 -0.2357 -0.5241  0.6882
  746MOL0     C 2859   6.914   9.334   8.747 -0.5513  0.2944  0.1810
  746MOL0     C 2860   6.830   9.224   8.725  0.9793  0.3589  0.0524
  746MOL0     N 2861   6.039   8.834   8.558  0.2013 -0.1658  0.7036
  746MOL0     N 2862   5.940   8.771   8.596  0.4893  0.7500  0.7925
  746MOL0     C 2863   4.719   8.209   8.804 -1.0639  0.1363  1.3123
  746MOL0     C 2864   4.594   8.191   8.733 -0.0043 -0.3062 -0.6058
  746MOL0     C 2865   4.274   8.279   8.423 -0.0963 -0.4107 -0.1022
  746MOL0     C 2866   4.236   8.372   8.327 -0.1455 -0.1337 -0.3189
  746MOL0     C 2867   4.110   8.361   8.265  0.0033 -0.3318  0.1877
  746MOL0     C 2868   4.025   8.253   8.304 -0.4738 -0.6559 -0.3334
  746MOL0     O 2869   3.920   8.249   8.224  0.2605 -0.1133 -0.0047
  746MOL0     C 2870   3.832   8.134   8.221 -0.5786 -0.5616  0.6853
  746MOL0     C 2871   3.746   8.129   8.089 -0.4353  0.3826 -0.3989
  746MOL0     C 2872   3.627   8.229   8.095 -0.3509 -0.7733 -0.4724
  746MOL0     C 2873   3.508   8.215   7.993  0.3863 -0.1231  0.8101
  746MOL0     C 2874   3.552   8.220   7.850 -0.1432  0.0553 -0.0068
  746MOL0     C 2875   3.569   8.228   7.732 -0.1370  1.0117  0.0761
  746MOL0     C 2876   4.062   8.170   8.412  0.0902 -0.3833 -0.3385
  746MOL0     C 2877   4.186   8.179   8.460 -0.9734 -0.0268  0.1962
  746MOL0     C 2878   4.245   8.064   8.546  0.2638  0.2895  0.7887
  746MOL0     H 2879   4.546   8.507   8.646 -2.6352 -2.3113 -1.1562
  746MOL0     H 2880   4.776   8.541   8.765  0.3267  0.9244 -0.0849
  746MOL0     H 2881   4.997   8.524   8.779 -1.3045  0.0875 -1.2211
  746MOL0     H 2882   5.016   8.392   8.662  1.6767 -1.2366  0.1984
  746MOL0     H 2883   5.168   8.410   8.921 -0.1322  0.3361  0.3197
  746MOL0     H 2884   5.164   8.275   8.797 -0.9570 -0.2500 -1.3849
  746MOL0     H 2885   5.244   8.415   8.624 -1.6831 -2.4821  1.0549
  746MOL0     H 2886   5.250   8.562   8.719  0.8367  0.1293  0.8235
  746MOL0     H 2887   5.423   8.449   8.870 -0.3856 -0.7251  0.5399
  746MOL0     H 2888   5.418   8.318   8.735  0.3667 -0.1301 -1.4848
  746MOL0     H 2889   5.463   8.605   8.678  1.5395 -0.2406  0.9608
  746MOL0     H 2890   5.489   8.469   8.578 -2.1862  2.2258 -0.9483
  746MOL0     H 2891   5.619   8.530   8.850  1.0602 -0.4625  0.4986
  746MOL0     H 2892   5.676   8.392   8.753  1.7481 -0.2378 -1.4044
  746MOL0     H 2893   5.700   8.681   8.639  1.1213  1.0011  2.0569
  746MOL0     H 2894   5.766   8.531   8.576 -1.7690  0.6801 -1.0394
  746MOL0     H 2895   5.825   8.658   8.857 -1.2315 -1.8046  0.8066
  746MOL0     H 2896   5.912   8.518   8.785 -0.2531 -0.4769  0.6483
  746MOL0     H 2897   6.149   8.697   8.833 -0.3817  0.2292 -0.8418
  746MOL0     H 2898   6.285   8.951   8.547 -1.3166  0.0731  0.4123
  746MOL0     H 2899   6.331   8.787   8.592 -0.8304 -1.4742  1.2175
  746MOL0     H 2900   6.295   8.994   8.807 -1.1149  1.9097 -3.1949
  746MOL0     H 2901   6.381   8.843   8.826  2.0519  0.8573 -1.0223
  746MOL0     H 2902   6.556   8.925   8.666  0.8994 -0.5184  0.7138
  746MOL0     H 2903   6.479   9.084   8.672 -0.2077 -0.4359 -0.8471
  746MOL0     H 2904   6.542   9.094   8.908  3.7141  2.1292 -0.9382
  746MOL0     H 2905   6.577   8.926   8.919  5.6998  1.0128  3.2304
  746MOL0     H 2906   6.762   9.145   9.041 -0.9740 -1.5492 -1.9550
  746MOL0     H 2907   6.841   9.416   9.148 -1.5326 -0.2088  1.1297
  746MOL0     H 2908   7.019   9.359   9.143 -0.4904  0.6308  0.7313
  746MOL0     H 2909   6.879   9.251   9.183 -1.1525  0.6585 -0.3991
  746MOL0     H 2910   7.317   9.549   8.863  0.4195  0.9833  1.2039
  746MOL0     H 2911   7.472   9.741   8.867 -0.3078 -0.1021 -1.7641
  746MOL0     H 2912   7.603  10.072   8.805 -2.4538  1.3060 -0.9344
  746MOL0     H 2913   7.591   9.910   8.860  0.9964 -1.4422 -0.9390
  746MOL0     H 2914   7.570   9.853   8.598  0.1640  0.9674  0.4224
  746MOL0     H 2915   7.619  10.009   8.563 -1.2120  0.9497 -0.8776
  746MOL0     H 2916   7.817   9.933   8.754 -0.7267 -1.6972  1.6387
  746MOL0     H 2917   7.825   9.881   8.581  0.8257  2.7453  0.1323
  746MOL0     H 2918   7.725   9.672   8.630  0.6512  1.0781 -1.8651
  746MOL0     H 2919   7.689   9.716   8.801 -0.8843  2.6622  0.3649
  746MOL0     H 2920   7.966   9.722   8.661 -3.1311  3.9437 -2.6903
  746MOL0     H 2921   7.945   9.774   8.823 -0.9953 -2.4940  2.6143
  746MOL0     H 2922   8.018   9.539   8.769 -0.3623 -0.2911 -0.3628
  746MOL0     H 2923   7.854   9.497   8.741  1.3171 -0.0696 -2.2338
  746MOL0     H 2924   7.855   9.634   8.995 -0.2252 -0.0322 -0.7718
  746MOL0     H 2925   8.009   9.560   8.998  0.5056  0.2735  1.4977
  746MOL0     H 2926   7.803   9.400   9.087 -0.8366  0.8541 -0.6202
  746MOL0     H 2927   7.903   9.324   8.967  0.1090 -0.9459  0.6946
  746MOL0     H 2928   7.194   9.968   8.630 -1.9045 -2.1677 -2.6464
  746MOL0     H 2929   7.029   9.787   8.669 -0.6784  1.4676  1.3562
  746MOL0     H 2930   6.955   9.380   8.656 -2.2477  2.2559  0.3273
  746MOL0     H 2931   6.805   9.187   8.626 -0.0672 -3.0759  1.4328
  746MOL0     H 2932   4.769   8.116   8.829  2.6437  0.9263 -2.2236
  746MOL0     H 2933   4.541   8.096   8.729 -1.2999  0.4295 -2.5076
  746MOL0     H 2934   4.294   8.461   8.309  0.4606  0.2402  2.8830
  746MOL0     H 2935   4.073   8.431   8.191 -0.6911 -0.0026  0.8381
  746MOL0     H 2936   3.901   8.049   8.211 -0.6002 -0.3765 -1.3889
  746MOL0     H 2937   3.769   8.123   8.310 -2.0469 -0.5873 -0.3229
  746MOL0     H 2938   3.706   8.027   8.083 -0.0539  0.2608 -0.9962
  746MOL0     H 2939   3.811   8.147   8.002 -0.4021  2.2288 -0.0256
  746MOL0     H 2940   3.578   8.235   8.193  1.6942  3.8559  0.5004
  746MOL0     H 2941   3.674   8.327   8.086 -2.2631  0.0537 -2.7360
  746MOL0     H 2942   3.424   8.279   8.023  0.6883  0.0510  1.2905
  746MOL0     H 2943   3.469   8.113   7.998 -1.0329  0.1129 -2.6580
  746MOL0     H 2944   3.590   8.222   7.627  1.3937 -1.1472  0.4392
  746MOL0     H 2945   3.995   8.091   8.444  0.3130  0.2042  1.7833
  746MOL0     H 2946   4.250   8.095   8.651  2.9031  0.4304  0.6831
  746MOL0     H 2947   4.181   7.977   8.536 -2.4174  2.3126 -1.3039
  746MOL0     H 2948   4.351   8.050   8.522  0.4953 -1.6920  2.6431
  747MOL0     O 2949   4.591   9.803  11.020 -0.5192 -0.0149  0.4329
  747MOL0     C 2950   4.614   9.919  11.003 -0.5037 -0.9564  0.2005
  747MOL0     O 2951   4.513  10.018  10.980 -0.2925 -0.1393  0.8445
  747MOL0     C 2952   4.403   9.968  10.914 -0.2877  0.2346 -0.4994
  747MOL0     C 2953   4.280   9.949  10.984 -0.4149 -0.3167  0.3204
  747MOL0     C 2954   4.182   9.870  10.928 -0.0648 -0.0401 -0.1242
  747MOL0     C 2955   4.196   9.813  10.803 -0.6962  0.4511  0.4940
  747MOL0     O 2956   4.113   9.722  10.747  0.5199 -0.7562  0.6938
  747MOL0     C 2957   3.974   9.720  10.786  0.7146  0.0377 -0.6865
  747MOL0     C 2958   3.898   9.613  10.715  0.8036  0.5816 -0.4851
  747MOL0     C 2959   3.914   9.614  10.557 -0.3271 -0.2619 -0.3463
  747MOL0     C 2960   3.815   9.510  10.486 -0.1778 -0.0764 -0.7703
  747MOL0     C 2961   3.844   9.467  10.343 -0.8164 -0.0008 -1.4058
  747MOL0     C 2962   3.814   9.584  10.249  0.5751 -0.4052  0.2046
  747MOL0     C 2963   3.813   9.568  10.098 -0.1738 -0.4291  0.1115
  747MOL0     C 2964   3.686   9.495  10.038 -0.5404  0.5025  0.4182
  747MOL0     N 2965   3.702   9.493   9.895  0.4359  0.4885 -0.0927
  747MOL0     C 2966   3.622   9.554   9.794  0.4240  0.1743 -0.4456
  747MOL0     C 2967   3.680   9.531   9.673 -1.0260 -0.7158 -0.2702
  747MOL0     C 2968   3.639   9.589   9.543 -0.6097  0.7738  0.5937
  747MOL0     C 2969   3.668   9.477   9.435  0.3111  0.9100  0.1245
  747MOL0     C 2970   3.599   9.334   9.467  0.5448  0.5113 -0.4396
  747MOL0     C 2971   3.447   9.348   9.489 -1.0682  0.1514 -0.0117
  747MOL0     O 2972   3.415   9.374   9.631  0.6179 -0.1783 -0.2665
  747MOL0     C 2973   3.285   9.356   9.658  0.3905  0.1199  0.5141
  747MOL0     C 2974   3.225   9.225   9.666  0.2679 -0.2827 -0.2752
  747MOL0     C 2975   3.092   9.206   9.706  0.0572 -0.9421 -0.0187
  747MOL0     C 2976   3.046   9.067   9.711  0.5719 -0.0034  0.6150
  747MOL0     C 2977   3.012   9.324   9.742 -0.3644  0.4547 -0.4228
  747MOL0     C 2978   2.876   9.318   9.813 -0.2433 -0.8147  0.6518
  747MOL0     O 2979   2.800   9.214   9.785 -0.4984 -0.0908  0.3371
  747MOL0     C 2980   2.677   9.182   9.842 -0.6032  0.0892  0.0966
  747MOL0     C 2981   2.655   9.069   9.931  0.0252  0.4907 -0.0176
  747MOL0     C 2982   2.530   9.033   9.986  0.0367  0.3136  0.4453
  747MOL0     C 2983   2.418   9.104   9.936 -0.5849 -0.3299  0.7414
  747MOL0     O 2984   2.290   9.071   9.960 -0.0362  0.5581  0.0226
  747MOL0     C 2985   2.259   8.968  10.057 -0.7430  0.7650 -0.3289
  747MOL0     C 2986   2.106   8.974  10.096 -0.4822  0.1308  0.1858
  747MOL0     C 2987   2.091   9.101  10.176 -0.3507 -0.0040  0.2873
  747MOL0     C 2988   1.949   9.125  10.197 -0.2179 -0.4208 -0.5338
  747MOL0     C 2989   1.924   9.270  10.244  0.4567  0.7048  0.3888
  747MOL0     C 2990   1.773   9.285  10.278  0.2863  0.4201  0.5993
  747MOL0     C 2991   1.740   9.396  10.377  0.3079 -0.5161  0.8478
  747MOL0     C 2992   1.740   9.544  10.320 -0.4954  0.0228 -0.4434
  747MOL0    Cl 2993   1.625   9.548  10.181 -0.4689 -0.3086 -0.6807
  747MOL0     C 2994   2.438   9.204   9.848  0.0500 -0.0492 -0.9422
  747MOL0     C 2995   2.562   9.246   9.809  0.6514 -0.4314  0.2132
  747MOL0     O 2996   2.845   9.415   9.877  0.5751 -0.1008  0.3403
  747MOL0     C 2997   3.073   9.452   9.725 -0.0290 -0.4634 -0.3379
  747MOL0     C 2998   3.205   9.465   9.682  0.4877 -0.5535  0.5940
  747MOL0     N 2999   3.807   9.476   9.696  0.2087  0.9506 -1.0103
  747MOL0     N 3000   3.808   9.444   9.825  0.0128 -0.0254  0.1958
  747MOL0     C 3001   4.316   9.842  10.732  0.0828  0.7258  0.8288
  747MOL0     C 3002   4.413   9.928  10.785 -0.2328  0.0505  0.5582
  747MOL0     C 3003   4.745   9.967  10.996 -1.2277 -0.0623  0.0794
  747MOL0     C 3004   4.769  10.103  10.997 -0.2136 -0.9650 -0.2354
  747MOL0     C 3005   4.905  10.160  11.011 -0.5600  0.0557 -0.2605
  747MOL0     C 3006   5.011  10.069  11.028 -0.2793  0.2209 -0.4914
  747MOL0     O 3007   5.138  10.119  11.027 -0.8908 -0.3710 -0.5230
  747MOL0     C 3008   5.248  10.038  10.988 -0.3210 -0.2084  0.4487
  747MOL0     C 3009   5.384  10.104  11.004 -0.2353  0.1762  0.3129
  747MOL0     C 3010   5.444  10.107  11.151  0.4992 -0.3838  0.1881
  747MOL0     C 3011   5.593  10.162  11.151  0.2800  1.1347  0.1233
  747MOL0     C 3012   5.657  10.158  11.289  0.2295  0.4794  0.8976
  747MOL0     C 3013   5.698  10.152  11.407  0.6104  0.7599 -0.0461
  747MOL0     C 3014   4.983   9.930  11.028  0.0699 -0.6213 -0.1317
  747MOL0     C 3015   4.860   9.880  11.010  0.1077 -0.5849  0.8870
  747MOL0     C 3016   4.853   9.730  10.985  0.3284  0.3574 -0.3234
  747MOL0     H 3017   4.270   9.983  11.087 -0.0078 -1.2018  0.6584
  747MOL0     H 3018   4.092   9.848  10.985  0.4467 -0.3309  0.6005
  747MOL0     H 3019   3.932   9.819  10.765  0.6155  0.6313  1.8728
  747MOL0     H 3020   3.967   9.713  10.895  1.8117 -0.9831 -0.6722
  747MOL0     H 3021   3.928   9.514  10.750  0.3949  0.5337 -0.2662
  747MOL0     H 3022   3.791   9.622  10.734  0.9105  0.5491  0.1370
  747MOL0     H 3023   3.890   9.714  10.522 -1.7573 -0.7961 -0.9837
  747MOL0     H 3024   4.018   9.595  10.531  0.5928 -0.2799  2.9142
  747MOL0     H 3025   3.805   9.423  10.552  1.0557  1.0302  0.9710
  747MOL0     H 3026   3.718   9.559  10.495  0.3694  0.6549  4.9332
  747MOL0     H 3027   3.787   9.377  10.321  0.0278 -0.6636 -0.9384
  747MOL0     H 3028   3.949   9.437  10.331  0.1837  2.5535 -0.0138
  747MOL0     H 3029   3.716   9.619  10.282 -0.2687 -0.9278 -1.6608
  747MOL0     H 3030   3.893   9.655  10.277  1.7967 -1.9591  0.8190
  747MOL0     H 3031   3.906   9.515  10.074 -0.4551 -0.9610  0.1775
  747MOL0     H 3032   3.828   9.663  10.047  2.7851 -0.6470  0.4379
  747MOL0     H 3033   3.689   9.397  10.086  1.3220  1.3093  2.1180
  747MOL0     H 3034   3.596   9.548  10.072 -0.4246  0.7974  0.2704
  747MOL0     H 3035   3.523   9.599   9.796  1.6392  3.0789  0.2973
  747MOL0     H 3036   3.710   9.667   9.512  1.5177 -0.8452  1.2168
  747MOL0     H 3037   3.537   9.629   9.539 -0.5551  0.8944  0.3744
  747MOL0     H 3038   3.628   9.495   9.335  0.5111  0.1503 -0.0975
  747MOL0     H 3039   3.777   9.480   9.427  0.1919  0.6825 -3.8040
  747MOL0     H 3040   3.611   9.269   9.380 -1.3517 -3.0048  1.6897
  747MOL0     H 3041   3.644   9.275   9.547 -2.8677 -0.8538  0.6561
  747MOL0     H 3042   3.414   9.431   9.427  2.2516  2.2347  0.7693
  747MOL0     H 3043   3.394   9.258   9.456 -0.4802 -1.4692  3.0496
  747MOL0     H 3044   3.289   9.137   9.663 -1.6206 -1.9356  2.8259
  747MOL0     H 3045   3.111   9.006   9.648  0.3399  0.3853 -0.0163
  747MOL0     H 3046   2.950   9.065   9.658 -0.7401  0.3531  2.8414
  747MOL0     H 3047   3.037   9.022   9.810  1.1516  2.3401  1.8180
  747MOL0     H 3048   2.742   9.009   9.958 -0.3509  0.1078  0.3558
  747MOL0     H 3049   2.530   8.943  10.048  3.1138  0.0085  0.1997
  747MOL0     H 3050   2.295   8.871  10.021 -0.1033  0.2769  1.5165
  747MOL0     H 3051   2.310   9.007  10.146  0.0705  3.6615 -1.9289
  747MOL0     H 3052   2.053   8.969  10.001  0.0896 -1.1682 -0.0960
  747MOL0     H 3053   2.079   8.891  10.162 -0.5166  1.2273  1.6101
  747MOL0     H 3054   2.125   9.186  10.116 -0.6937  0.4011  0.6584
  747MOL0     H 3055   2.144   9.112  10.270  1.7073 -0.6492 -0.7474
  747MOL0     H 3056   1.916   9.047  10.267 -0.0412  0.2569  0.3192
  747MOL0     H 3057   1.889   9.115  10.106 -2.8011 -1.5137  1.1516
  747MOL0     H 3058   1.983   9.294  10.333  2.9409 -2.8469 -0.1029
  747MOL0     H 3059   1.946   9.345  10.167 -2.0334  0.9364 -0.1794
  747MOL0     H 3060   1.720   9.194  10.309 -2.0296  0.5727 -2.4257
  747MOL0     H 3061   1.724   9.302  10.182  2.1173  1.6503 -0.1566
  747MOL0     H 3062   1.819   9.395  10.452  0.3322 -2.0070  0.8216
  747MOL0     H 3063   1.644   9.365  10.419 -0.4740 -1.9355 -1.7677
  747MOL0     H 3064   1.838   9.587  10.298 -1.2529  2.4621  0.4923
  747MOL0     H 3065   1.704   9.604  10.405 -0.9418  0.2417 -0.7828
  747MOL0     H 3066   2.346   9.246   9.809 -0.7952 -0.8092  0.1734
  747MOL0     H 3067   2.575   9.338   9.753  0.7657  0.0137  0.9513
  747MOL0     H 3068   3.021   9.538   9.764  0.1183  0.1082 -1.3575
  747MOL0     H 3069   3.253   9.561   9.668 -0.1736 -0.0651  1.5773
  747MOL0     H 3070   4.323   9.786  10.640 -2.0974  0.4380  0.7737
  747MOL0     H 3071   4.503   9.939  10.725 -0.6830  1.9929  0.1953
  747MOL0     H 3072   4.697  10.183  10.984 -0.3451 -0.6778  1.8837
  747MOL0     H 3073   4.920  10.266  10.997  1.1748 -0.3990 -2.5527
  747MOL0     H 3074   5.247   9.951  11.055 -0.1854 -0.6002 -0.0435
  747MOL0     H 3075   5.244  10.002  10.884  1.2987 -0.7267  0.5273
  747MOL0     H 3076   5.388  10.207  10.966 -3.2173  0.7767  1.3243
  747MOL0     H 3077   5.458  10.051  10.943  1.0699  0.3634  1.6824
  747MOL0     H 3078   5.376  10.161  11.217 -3.5871 -1.5937 -2.6445
  747MOL0     H 3079   5.451  10.007  11.197  2.2310 -1.5815 -2.4470
  747MOL0     H 3080   5.582  10.261  11.106 -1.8472  1.0122  0.2524
  747MOL0     H 3081   5.651  10.094  11.089 -1.8115 -0.5058 -0.1616
  747MOL0     H 3082   5.731  10.159  11.509 -0.2644 -0.8046  0.3810
  747MOL0     H 3083   5.058   9.852  11.037 -1.1428 -1.7475  0.6546
  747MOL0     H 3084   4.783   9.686  11.057 -3.0539  3.6465 -1.2744
  747MOL0     H 3085   4.803   9.716  10.889  1.3652  1.4718 -1.0580
  747MOL0     H 3086   4.947   9.675  10.989  0.5353  0.5784 -1.6628
  748MOL0     O 3087   6.248   5.408   7.555 -0.6207  0.7110 -0.1483
  748MOL0     C 3088   6.233   5.534   7.558  0.0319  0.4544  0.6159
  748MOL0     O 3089   6.139   5.601   7.634  0.0412 -0.3852 -1.3391
  748MOL0     C 3090   6.049   5.523   7.699  0.0963  0.7373 -0.7164
  748MOL0     C 3091   5.931   5.476   7.643 -0.6943  0.3585 -0.0767
  748MOL0     C 3092   5.852   5.388   7.723 -0.3175  1.3494 -0.6718
  748MOL0     C 3093   5.882   5.354   7.859 -0.2889  0.9031 -0.1519
  748MOL0     O 3094   5.799   5.270   7.929  0.3974 -0.3408  0.0776
  748MOL0     C 3095   5.835   5.227   8.058  0.0696  0.8913 -0.1084
  748MOL0     C 3096   5.804   5.079   8.081  0.3573  0.0975 -0.4333
  748MOL0     C 3097   5.697   5.016   7.983  0.6584 -0.1719  0.2145
  748MOL0     C 3098   5.559   5.074   7.993 -0.1424  0.4734  0.1524
  748MOL0     C 3099   5.473   5.019   7.870  0.1591  0.5043 -0.0434
  748MOL0     C 3100   5.330   5.054   7.900  0.4614 -0.3871  0.3855
  748MOL0     C 3101   5.270   4.958   7.996  0.1024  0.6894 -0.1732
  748MOL0     C 3102   5.124   5.000   8.034 -0.5311  0.3631  0.1218
  748MOL0     N 3103   5.102   4.963   8.176 -0.3713  0.4761 -0.0682
  748MOL0     C 3104   5.090   4.833   8.222  0.4990  0.2462 -0.1994
  748MOL0     C 3105   5.043   4.853   8.342  0.8121 -0.4279 -0.7387
  748MOL0     C 3106   5.027   4.742   8.443  1.0133  0.1949  0.0215
  748MOL0     C 3107   5.161   4.671   8.462 -0.3161  0.2901  0.2192
  748MOL0     C 3108   5.164   4.589   8.593  0.0770  0.0116  0.1251
  748MOL0     C 3109   5.296   4.510   8.610  0.9068 -0.4630  0.8659
  748MOL0     O 3110   5.343   4.430   8.498  0.2327 -0.2802  0.7854
  748MOL0     C 3111   5.471   4.384   8.512  0.2165 -0.1599  0.6751
  748MOL0     C 3112   5.562   4.395   8.617 -0.8951 -0.2511 -0.9867
  748MOL0     C 3113   5.693   4.349   8.611 -0.2781 -0.9848  0.3466
  748MOL0     C 3114   5.776   4.350   8.736 -0.3845 -0.3888 -0.8814
  748MOL0     C 3115   5.738   4.279   8.492 -0.5808 -0.0812  0.6232
  748MOL0     C 3116   5.870   4.211   8.478  0.4688 -0.2701 -1.3426
  748MOL0     O 3117   5.880   4.123   8.370  0.1310 -0.1470  0.3841
  748MOL0     C 3118   5.995   4.060   8.335 -0.0434 -0.1624 -0.6197
  748MOL0     C 3119   6.109   4.045   8.421  0.2132  0.2368 -0.2254
  748MOL0     C 3120   6.224   3.988   8.372  1.1044 -0.2657  0.7471
  748MOL0     C 3121   6.209   3.918   8.250  0.0377 -0.4996 -0.7368
  748MOL0     O 3122   6.303   3.824   8.206 -0.1311 -1.1235 -0.2266
  748MOL0     C 3123   6.440   3.841   8.237  0.2488  0.3275  0.4224
  748MOL0     C 3124   6.524   3.728   8.175 -0.0116  0.0977  0.0367
  748MOL0     C 3125   6.505   3.596   8.247 -0.5433 -0.3252  0.1783
  748MOL0     C 3126   6.595   3.488   8.202 -0.2379  0.9391  0.1763
  748MOL0     C 3127   6.546   3.418   8.075 -0.0383 -0.7510 -0.4039
  748MOL0     C 3128   6.648   3.316   8.029 -0.4592  0.0104  0.2021
  748MOL0     C 3129   6.623   3.230   7.900 -0.9051  0.1702 -0.8945
  748MOL0     C 3130   6.581   3.318   7.788 -0.1553 -0.2382  0.3487
  748MOL0    Cl 3131   6.614   3.252   7.630 -0.2124  0.1253  0.3251
  748MOL0     C 3132   6.093   3.915   8.184  0.1807 -0.3186  0.3993
  748MOL0     C 3133   5.988   3.997   8.213  0.4950  0.4469 -0.0980
  748MOL0     O 3134   5.958   4.244   8.553  0.3276 -0.0171 -0.1085
  748MOL0     C 3135   5.646   4.292   8.382  0.5874 -0.3036  1.0029
  748MOL0     C 3136   5.517   4.331   8.398  0.0093  0.4447  0.8412
  748MOL0     N 3137   5.028   4.989   8.361  0.2495 -0.3635 -0.2229
  748MOL0     N 3138   5.055   5.055   8.255  1.3748  0.1457  0.3455
  748MOL0     C 3139   5.997   5.415   7.914  0.6005  0.3820 -0.1100
  748MOL0     C 3140   6.084   5.495   7.831  0.7781  0.4568 -1.2603
  748MOL0     C 3141   6.326   5.627   7.493  0.8733  0.5511  0.2257
  748MOL0     C 3142   6.300   5.770   7.492  0.4514  1.3446 -0.2478
  748MOL0     C 3143   6.374   5.858   7.429 -0.6531  0.5062 -0.4563
  748MOL0     C 3144   6.495   5.823   7.372  0.6372  0.1168 -0.4889
  748MOL0     O 3145   6.570   5.932   7.329  0.1587  0.1222 -0.7300
  748MOL0     C 3146   6.558   5.960   7.190  0.3533  0.3249  0.2996
  748MOL0     C 3147   6.611   6.096   7.164  1.0133  0.2797 -0.2777
  748MOL0     C 3148   6.524   6.218   7.203  0.0546 -0.3253  0.0075
  748MOL0     C 3149   6.408   6.248   7.095  0.6383  0.2067 -0.1576
  748MOL0     C 3150   6.458   6.308   6.978 -0.3512  0.1882 -0.2636
  748MOL0     C 3151   6.517   6.338   6.873  0.4360 -0.3684 -0.1637
  748MOL0     C 3152   6.536   5.690   7.373  0.2804  0.6441 -0.0004
  748MOL0     C 3153   6.453   5.585   7.435  0.4305  0.4906  0.4758
  748MOL0     C 3154   6.513   5.448   7.447 -0.1993  0.2807  0.0106
  748MOL0     H 3155   5.913   5.499   7.538  3.1350  0.9164 -0.7550
  748MOL0     H 3156   5.760   5.335   7.699  2.4031 -3.0929 -2.4598
  748MOL0     H 3157   5.769   5.279   8.129 -0.6080  0.5641 -0.4932
  748MOL0     H 3158   5.942   5.229   8.080  0.5766 -0.1004 -2.2318
  748MOL0     H 3159   5.899   5.025   8.075  1.2403  1.6450 -0.8746
  748MOL0     H 3160   5.761   5.065   8.180  1.0032  0.5801 -0.0793
  748MOL0     H 3161   5.739   5.018   7.882  2.5629 -0.5828  0.9503
  748MOL0     H 3162   5.686   4.910   8.009 -2.8464  0.1004  0.2557
  748MOL0     H 3163   5.536   5.057   8.099  0.2559  1.4412  0.4037
  748MOL0     H 3164   5.557   5.182   7.976 -2.7504  0.6648  1.1763
  748MOL0     H 3165   5.474   4.911   7.854 -0.5331  0.5501 -0.4635
  748MOL0     H 3166   5.514   5.061   7.778  3.0155  2.6596  2.0258
  748MOL0     H 3167   5.319   5.157   7.936 -2.4013  0.6996 -3.0465
  748MOL0     H 3168   5.261   5.055   7.815  0.8487  4.4367 -0.1659
  748MOL0     H 3169   5.323   4.968   8.092 -3.5074 -0.5401  2.1652
  748MOL0     H 3170   5.267   4.852   7.967 -1.0094  0.6170  0.1604
  748MOL0     H 3171   5.111   5.106   8.009  3.0687  0.6522 -1.0778
  748MOL0     H 3172   5.050   4.947   7.974  0.5170  1.6790 -2.5361
  748MOL0     H 3173   5.111   4.739   8.171 -1.6916 -0.8355  0.7882
  748MOL0     H 3174   4.943   4.680   8.410 -0.9240  2.7730 -0.2818
  748MOL0     H 3175   4.995   4.785   8.538 -1.0472  1.3526 -1.1124
  748MOL0     H 3176   5.185   4.606   8.377  0.2334  0.2470  0.4037
  748MOL0     H 3177   5.241   4.745   8.457 -1.8502  1.9350 -2.7350
  748MOL0     H 3178   5.166   4.657   8.679 -0.6146  0.3271 -0.1041
  748MOL0     H 3179   5.081   4.519   8.604 -1.1213  1.5634  1.5999
  748MOL0     H 3180   5.375   4.582   8.631  0.3403  0.8899 -1.3254
  748MOL0     H 3181   5.288   4.450   8.701 -0.6588  0.8584  1.6396
  748MOL0     H 3182   5.531   4.440   8.710 -0.4583  0.8873 -1.3742
  748MOL0     H 3183   5.871   4.402   8.722  1.2691 -2.9802 -0.0232
  748MOL0     H 3184   5.806   4.253   8.775  1.6001  1.0578  1.4305
  748MOL0     H 3185   5.718   4.398   8.816  0.8854  2.1827 -1.4048
  748MOL0     H 3186   6.120   4.079   8.523 -0.3076 -1.4339  0.4291
  748MOL0     H 3187   6.310   3.986   8.438  0.3640  3.4250  2.0454
  748MOL0     H 3188   6.487   3.928   8.191  2.4642 -2.1783 -2.4673
  748MOL0     H 3189   6.449   3.844   8.346 -0.5763 -0.0177  0.5065
  748MOL0     H 3190   6.499   3.729   8.069 -2.0379  1.8329  0.4647
  748MOL0     H 3191   6.628   3.757   8.191 -0.0021 -0.0908  0.3194
  748MOL0     H 3192   6.404   3.558   8.232  0.5720 -2.7977 -2.0990
  748MOL0     H 3193   6.499   3.604   8.356  0.8309 -2.4025  0.4709
  748MOL0     H 3194   6.594   3.418   8.286 -0.2061 -1.5199 -1.7595
  748MOL0     H 3195   6.695   3.532   8.192 -1.3907  3.6971 -0.0761
  748MOL0     H 3196   6.449   3.368   8.080  0.4024 -1.5136  0.8425
  748MOL0     H 3197   6.534   3.489   7.993  3.2955 -1.3280 -1.5427
  748MOL0     H 3198   6.669   3.248   8.112  0.4624 -0.6049 -0.5178
  748MOL0     H 3199   6.740   3.373   8.019  0.5784 -1.8399 -1.8487
  748MOL0     H 3200   6.545   3.155   7.920 -0.8166  0.4851  0.8313
  748MOL0     H 3201   6.715   3.179   7.872 -0.7274 -0.6968  1.0627
  748MOL0     H 3202   6.634   3.414   7.792  1.5893 -1.1823  0.4090
  748MOL0     H 3203   6.473   3.334   7.802 -0.1835 -0.4991  0.4242
  748MOL0     H 3204   6.079   3.844   8.102  1.7590 -0.5658  0.3267
  748MOL0     H 3205   5.897   4.006   8.154 -0.2049  2.8362  1.2194
  748MOL0     H 3206   5.675   4.235   8.294  0.7884  2.3354 -0.7615
  748MOL0     H 3207   5.450   4.316   8.314 -0.7215  0.4390  1.4118
  748MOL0     H 3208   6.020   5.413   8.020  1.3504  0.0826 -0.2756
  748MOL0     H 3209   6.180   5.535   7.862  0.7271  0.1631 -0.7226
  748MOL0     H 3210   6.206   5.808   7.531 -0.5802 -0.8326 -0.4799
  748MOL0     H 3211   6.346   5.963   7.435 -0.0092  0.6423  0.1783
  748MOL0     H 3212   6.619   5.889   7.132 -1.8817 -2.1383  0.7646
  748MOL0     H 3213   6.456   5.943   7.154  1.3868 -2.8139 -1.6501
  748MOL0     H 3214   6.626   6.119   7.058 -0.0699  2.4643  0.0076
  748MOL0     H 3215   6.707   6.103   7.216 -0.8677  0.7202  3.4371
  748MOL0     H 3216   6.484   6.203   7.304  0.7245 -0.8811  0.1984
  748MOL0     H 3217   6.582   6.311   7.204 -0.4644  0.0085  1.4749
  748MOL0     H 3218   6.321   6.304   7.130 -1.1287 -2.2648 -0.3206
  748MOL0     H 3219   6.361   6.154   7.065  4.3514 -1.5675 -1.0622
  748MOL0     H 3220   6.554   6.366   6.776 -3.1621  1.9831 -1.0634
  748MOL0     H 3221   6.634   5.667   7.333  0.6995 -0.3982  1.5545
  748MOL0     H 3222   6.620   5.461   7.428 -0.2323  2.7538  1.0882
  748MOL0     H 3223   6.503   5.415   7.550  0.9642  0.1246  0.0943
  748MOL0     H 3224   6.480   5.364   7.385 -0.8342 -0.9084  1.8802
  749MOL0     O 3225   4.300   0.741   2.974  1.1969 -0.0329 -0.1752
  749MOL0     C 3226   4.358   0.673   3.058 -0.6963  0.2124  0.3287
  749MOL0     O 3227   4.324   0.663   3.191 -0.2115 -0.1803  0.2538
  749MOL0     C 3228   4.249   0.762   3.243  1.1944 -0.3988  0.3021
  749MOL0     C 3229   4.297   0.892   3.262 -0.8059  0.0641 -0.3407
  749MOL0     C 3230   4.225   0.989   3.329 -0.4989 -0.0634 -0.2060
  749MOL0     C 3231   4.094   0.966   3.370  1.4014  0.1429  1.0643
  749MOL0     O 3232   4.030   1.078   3.423  0.0922 -0.5017 -0.4001
  749MOL0     C 3233   3.886   1.074   3.422  0.1372  0.3273  0.2794
  749MOL0     C 3234   3.828   1.204   3.471 -0.4242 -0.3168  0.4098
  749MOL0     C 3235   3.870   1.324   3.383 -0.4129 -0.7503  0.5332
  749MOL0     C 3236   3.770   1.443   3.374  0.2901  0.6203 -1.1170
  749MOL0     C 3237   3.719   1.491   3.512  0.6169  0.3367 -0.6274
  749MOL0     C 3238   3.604   1.415   3.564 -0.7057 -0.4072 -0.1120
  749MOL0     C 3239   3.496   1.498   3.622  0.4203  0.1112  0.5186
  749MOL0     C 3240   3.531   1.580   3.741  0.7387 -0.6167  0.8115
  749MOL0     N 3241   3.407   1.645   3.792 -0.4696  0.1882 -0.2165
  749MOL0     C 3242   3.366   1.771   3.756  0.3446  0.2620  0.1419
  749MOL0     C 3243   3.247   1.803   3.825  0.3119  0.6571  0.0798
  749MOL0     C 3244   3.180   1.940   3.817  0.6583  0.5170 -0.0062
  749MOL0     C 3245   3.124   1.998   3.681 -0.2243  0.4819 -0.3032
  749MOL0     C 3246   3.024   1.903   3.611 -0.0641 -0.2682  0.5722
  749MOL0     C 3247   3.084   1.788   3.536 -0.3720  0.1264 -0.1860
  749MOL0     O 3248   3.179   1.829   3.433  0.7441  0.1751 -0.6428
  749MOL0     C 3249   3.237   1.718   3.376  0.4089 -0.8432 -1.0306
  749MOL0     C 3250   3.201   1.586   3.366  0.1195  0.0252  0.9128
  749MOL0     C 3251   3.272   1.500   3.289  0.2522  0.6645 -0.1464
  749MOL0     C 3252   3.232   1.361   3.274 -0.4769  0.0057  0.0162
  749MOL0     C 3253   3.378   1.548   3.212 -0.2358 -0.4423  0.7182
  749MOL0     C 3254   3.467   1.482   3.112 -0.2903 -0.0053  0.1340
  749MOL0     O 3255   3.484   1.345   3.141 -0.4251  0.1894  0.4881
  749MOL0     C 3256   3.538   1.267   3.045  0.2735 -0.2059  0.2954
  749MOL0     C 3257   3.675   1.265   3.020 -0.4394  0.5840 -0.1159
  749MOL0     C 3258   3.724   1.166   2.929  0.9122 -0.4520 -1.2255
  749MOL0     C 3259   3.633   1.077   2.873  0.2436  0.1778 -1.1584
  749MOL0     O 3260   3.669   0.960   2.794 -0.0174 -0.0886 -0.4338
  749MOL0     C 3261   3.746   1.002   2.677 -1.0647  0.1970 -0.5071
  749MOL0     C 3262   3.887   0.941   2.690 -0.7611  0.1456  0.2286
  749MOL0     C 3263   3.988   1.031   2.618 -0.0463 -0.1227  0.3236
  749MOL0     C 3264   4.129   0.969   2.646  0.3591  0.1136  0.6269
  749MOL0     C 3265   4.236   1.050   2.576  0.7411 -1.0461 -0.3617
  749MOL0     C 3266   4.379   1.008   2.611  0.9417  0.8020  0.0863
  749MOL0     C 3267   4.482   1.054   2.507 -0.0951 -0.1963  0.0581
  749MOL0     C 3268   4.564   0.942   2.451 -0.6725  0.2360 -0.2366
  749MOL0    Cl 3269   4.634   0.844   2.586  0.1059 -0.0185  0.1508
  749MOL0     C 3270   3.500   1.069   2.910  1.6432 -0.1812 -0.9771
  749MOL0     C 3271   3.455   1.167   2.998  0.0827  0.0163 -0.5087
  749MOL0     O 3272   3.516   1.541   3.011  0.2777  0.3024  0.0395
  749MOL0     C 3273   3.413   1.677   3.222  0.4996 -0.1101  0.5209
  749MOL0     C 3274   3.353   1.768   3.306  0.8359  0.5384  1.3542
  749MOL0     N 3275   3.235   1.694   3.916 -0.1178 -0.8666 -0.2215
  749MOL0     N 3276   3.334   1.603   3.900  0.5258  0.1045  1.1305
  749MOL0     C 3277   4.045   0.838   3.354 -0.2715 -0.0544  1.0216
  749MOL0     C 3278   4.119   0.739   3.292 -0.1118  0.9501  0.8225
  749MOL0     C 3279   4.461   0.572   3.008 -0.5119 -1.0838  0.5511
  749MOL0     C 3280   4.543   0.616   2.906  0.1591  0.0494  0.0546
  749MOL0     C 3281   4.648   0.536   2.865  0.0330  0.8919 -0.0516
  749MOL0     C 3282   4.679   0.406   2.916 -0.1885 -0.3680  0.2661
  749MOL0     O 3283   4.804   0.341   2.870  0.3246  0.1524  0.5169
  749MOL0     C 3284   4.846   0.226   2.947 -0.0047 -0.3054 -0.4640
  749MOL0     C 3285   4.798   0.098   2.882  0.5304 -0.5369 -0.8530
  749MOL0     C 3286   4.837   0.068   2.742  0.0793 -0.8684 -0.4651
  749MOL0     C 3287   4.750   0.138   2.627  0.1116 -0.3625  0.5770
  749MOL0     C 3288   4.607   0.086   2.637 -0.4019  0.0675  0.7685
  749MOL0     C 3289   4.496   0.044   2.642  0.1415 -0.7636 -0.6235
  749MOL0     C 3290   4.591   0.365   3.019  0.1508  0.2891 -1.0336
  749MOL0     C 3291   4.490   0.449   3.069  0.5185 -0.6057 -0.5004
  749MOL0     C 3292   4.411   0.407   3.190  0.1875  0.1610  0.9157
  749MOL0     H 3293   4.399   0.913   3.230 -1.1916  0.0833 -1.6226
  749MOL0     H 3294   4.272   1.082   3.359  1.6745 -0.9985 -0.4881
  749MOL0     H 3295   3.850   0.990   3.483  0.3408  1.3055  1.8117
  749MOL0     H 3296   3.864   1.053   3.317  0.6509 -1.5108  0.5098
  749MOL0     H 3297   3.719   1.195   3.468 -0.4223 -1.2139  1.9232
  749MOL0     H 3298   3.871   1.217   3.570  1.1236  3.3262 -0.5638
  749MOL0     H 3299   3.966   1.369   3.413 -1.2995  1.2614  0.5282
  749MOL0     H 3300   3.888   1.275   3.287 -0.5762 -0.8079  0.5317
  749MOL0     H 3301   3.825   1.522   3.321  1.6032 -0.5756 -1.5974
  749MOL0     H 3302   3.683   1.414   3.314  0.1096  1.1301 -1.1045
  749MOL0     H 3303   3.675   1.590   3.496  2.4473  1.7135  2.1311
  749MOL0     H 3304   3.798   1.502   3.587 -2.1996  1.1018  2.4650
  749MOL0     H 3305   3.547   1.365   3.485 -2.2535  1.0643  0.0103
  749MOL0     H 3306   3.643   1.345   3.639 -2.5994 -1.1868  0.2024
  749MOL0     H 3307   3.419   1.426   3.649  0.6024 -0.1733  0.2977
  749MOL0     H 3308   3.450   1.555   3.541 -0.1236 -0.7317  0.2230
  749MOL0     H 3309   3.584   1.517   3.812  0.3478 -1.0575  0.7129
  749MOL0     H 3310   3.593   1.661   3.701 -2.2761  0.6065 -1.8692
  749MOL0     H 3311   3.400   1.828   3.670 -0.7785  0.7191 -0.0212
  749MOL0     H 3312   3.258   2.004   3.856 -1.9829  3.9771  0.0899
  749MOL0     H 3313   3.095   1.954   3.884  1.9032  2.4054  1.2440
  749MOL0     H 3314   3.067   2.085   3.715  1.7972  1.0289  1.9546
  749MOL0     H 3315   3.203   2.027   3.611  1.7846  1.8396  2.3229
  749MOL0     H 3316   2.940   1.860   3.667 -0.3571 -0.7386 -0.2197
  749MOL0     H 3317   2.981   1.975   3.541 -1.4453 -2.4382 -0.9236
  749MOL0     H 3318   3.123   1.711   3.603  0.2568 -2.9813 -3.7692
  749MOL0     H 3319   3.002   1.725   3.499 -0.4653  0.0947  0.0692
  749MOL0     H 3320   3.125   1.542   3.430 -0.0189 -2.0461 -0.5874
  749MOL0     H 3321   3.234   1.336   3.167 -2.1243 -0.7705  0.1373
  749MOL0     H 3322   3.139   1.339   3.328  0.9922 -0.0541  2.6826
  749MOL0     H 3323   3.304   1.291   3.317  0.7600  0.8128 -0.6685
  749MOL0     H 3324   3.741   1.333   3.073 -1.4075  0.6229  1.0862
  749MOL0     H 3325   3.830   1.179   2.911  1.1959 -0.7792  0.0849
  749MOL0     H 3326   3.704   0.961   2.585  0.5524 -2.4883 -0.1410
  749MOL0     H 3327   3.761   1.110   2.675  2.4032 -0.1701 -0.5571
  749MOL0     H 3328   3.902   0.945   2.799 -1.9422 -3.2391  0.6235
  749MOL0     H 3329   3.880   0.836   2.661 -2.1794  0.0121  0.9288
  749MOL0     H 3330   3.984   1.138   2.641  3.1144  0.2410 -0.3432
  749MOL0     H 3331   3.967   1.031   2.510 -0.0641  0.0708  0.3269
  749MOL0     H 3332   4.138   0.865   2.611 -0.4240 -0.4170  1.9286
  749MOL0     H 3333   4.145   0.967   2.755 -0.6187 -0.3168  0.7708
  749MOL0     H 3334   4.217   1.046   2.468  0.8420 -0.6803 -0.3941
  749MOL0     H 3335   4.228   1.154   2.609  3.4276 -0.8662  0.0136
  749MOL0     H 3336   4.373   0.899   2.599  3.8880  0.6551 -0.9181
  749MOL0     H 3337   4.413   1.027   2.713  0.0832 -1.9384  0.9813
  749MOL0     H 3338   4.555   1.126   2.543 -0.4065  0.8901 -1.3919
  749MOL0     H 3339   4.438   1.112   2.425 -0.9905  2.4789  2.3162
  749MOL0     H 3340   4.647   0.983   2.394 -1.9473  2.6215 -0.4989
  749MOL0     H 3341   4.506   0.876   2.386 -1.9254  1.0630  0.0111
  749MOL0     H 3342   3.428   0.999   2.870 -0.0932  1.1863 -0.4109
  749MOL0     H 3343   3.347   1.155   3.003  0.2816 -1.5630  0.8316
  749MOL0     H 3344   3.503   1.710   3.170  0.3391 -1.4643 -0.6606
  749MOL0     H 3345   3.393   1.867   3.323 -1.1777  0.9785  4.3754
  749MOL0     H 3346   3.948   0.798   3.382 -0.7697 -1.0687 -1.8164
  749MOL0     H 3347   4.065   0.645   3.279 -0.6678  1.4521 -0.7169
  749MOL0     H 3348   4.547   0.714   2.861  1.0200 -1.4269 -3.4786
  749MOL0     H 3349   4.734   0.562   2.803  0.2260  0.4084  0.0078
  749MOL0     H 3350   4.954   0.242   2.960 -0.6981  2.0801  5.5544
  749MOL0     H 3351   4.814   0.227   3.051 -2.0354  1.0367 -1.0482
  749MOL0     H 3352   4.689   0.092   2.875  0.5070 -3.1888  0.2832
  749MOL0     H 3353   4.830   0.012   2.942 -0.0411  0.0160  0.2695
  749MOL0     H 3354   4.941   0.102   2.733  0.2042 -1.4174 -1.2201
  749MOL0     H 3355   4.836  -0.040   2.726  0.5460 -0.7496 -1.3999
  749MOL0     H 3356   4.778   0.113   2.524 -1.8563 -0.2133 -0.0374
  749MOL0     H 3357   4.749   0.247   2.630  1.1592 -0.3527  0.9917
  749MOL0     H 3358   4.393   0.019   2.657 -0.1842  0.9109  0.2023
  749MOL0     H 3359   4.614   0.276   3.076  2.4862  1.3451 -0.1714
  749MOL0     H 3360   4.449   0.432   3.289  1.5047  1.0743  0.2205
  749MOL0     H 3361   4.307   0.439   3.186  0.5995  1.4943  0.4054
  749MOL0     H 3362   4.403   0.298   3.190  0.7861  0.0919  2.2700
  750MOL0     O 3363   1.455   3.866   6.684 -0.2556  0.2098  0.4696
  750MOL0     C 3364   1.485   3.769   6.618  0.5984 -0.1652  0.0975
  750MOL0     O 3365   1.431   3.741   6.501 -0.3075 -0.1249 -0.6460
  750MOL0     C 3366   1.325   3.806   6.443  0.5243  1.2369 -0.1723
  750MOL0     C 3367   1.332   3.837   6.304  0.8029  0.4274 -0.1095
  750MOL0     C 3368   1.209   3.888   6.250 -0.2816  0.1802 -0.3202
  750MOL0     C 3369   1.100   3.927   6.330  0.7942  0.5550  0.2847
  750MOL0     O 3370   0.979   3.955   6.261  0.5988 -0.3327 -0.0199
  750MOL0     C 3371   0.856   3.912   6.325 -0.1851  1.1977  0.6207
  750MOL0     C 3372   0.752   3.927   6.217 -0.2627  0.0206 -0.4191
  750MOL0     C 3373   0.632   3.839   6.232  0.3714  1.4368 -0.1590
  750MOL0     C 3374   0.531   3.893   6.337  0.3359 -0.2480  0.6090
  750MOL0     C 3375   0.396   3.817   6.315 -0.2012  0.5882  0.7703
  750MOL0     C 3376   0.294   3.865   6.420  0.4141  0.2613  0.5195
  750MOL0     C 3377   0.160   3.797   6.435  0.3546 -0.4135  0.9539
  750MOL0     C 3378   0.106   3.749   6.302  0.0795  0.2221 -0.1490
  750MOL0     N 3379  -0.041   3.713   6.312 -0.5579  0.2174  1.1802
  750MOL0     C 3380  -0.140   3.797   6.280  0.0048  0.0520 -0.1708
  750MOL0     C 3381  -0.252   3.716   6.256  0.0523  0.5619  0.7418
  750MOL0     C 3382  -0.383   3.763   6.211 -0.4775 -1.0435  0.2886
  750MOL0     C 3383  -0.455   3.876   6.291 -0.2340 -0.3593  0.9164
  750MOL0     C 3384  -0.469   3.847   6.438  0.5767  0.5725  0.0466
  750MOL0     C 3385  -0.500   3.980   6.515  0.1662  0.5527 -0.1907
  750MOL0     O 3386  -0.513   3.959   6.658  0.3171  0.3240  0.1228
  750MOL0     C 3387  -0.394   3.950   6.732  1.0112 -0.2418 -0.6239
  750MOL0     C 3388  -0.414   3.913   6.866 -0.6039  0.6484  0.4212
  750MOL0     C 3389  -0.307   3.873   6.953 -0.3797  0.0073  0.4201
  750MOL0     C 3390  -0.330   3.801   7.087  0.0896 -0.2151  0.5029
  750MOL0     C 3391  -0.176   3.874   6.896 -0.4647 -0.0048  0.0557
  750MOL0     C 3392  -0.046   3.821   6.958 -0.2964  0.1373  0.0756
  750MOL0     O 3393   0.052   3.798   6.868 -0.8061 -0.0322 -0.4476
  750MOL0     C 3394   0.174   3.744   6.912  0.2179  0.8915  0.3382
  750MOL0     C 3395   0.185   3.609   6.971 -0.5615  0.1134  0.5695
  750MOL0     C 3396   0.305   3.552   7.004 -0.5820  0.0577  0.5872
  750MOL0     C 3397   0.423   3.628   6.964  0.3674  0.2717  0.5119
  750MOL0     O 3398   0.544   3.567   6.964 -0.3905  0.4520 -0.1956
  750MOL0     C 3399   0.581   3.513   7.088  0.2039  0.1828  0.0602
  750MOL0     C 3400   0.731   3.478   7.087  0.2854 -0.1131 -0.4146
  750MOL0     C 3401   0.815   3.594   7.033  0.1904 -0.3040 -0.0535
  750MOL0     C 3402   0.797   3.728   7.111  0.6515  0.8539 -0.3823
  750MOL0     C 3403   0.902   3.837   7.082  0.4684  0.4178 -0.0866
  750MOL0     C 3404   0.889   3.900   6.941 -0.1981 -0.2996  0.5503
  750MOL0     C 3405   0.786   4.012   6.934 -0.1905 -0.0501 -0.2828
  750MOL0     C 3406   0.750   4.063   6.795 -0.3452 -0.0943  0.2342
  750MOL0    Cl 3407   0.681   3.937   6.702  0.4166  0.3051  0.1911
  750MOL0     C 3408   0.419   3.755   6.912 -0.0383  0.8725  0.0138
  750MOL0     C 3409   0.291   3.814   6.886 -0.3901 -0.8160  0.0828
  750MOL0     O 3410  -0.041   3.812   7.077  0.6324 -0.4978 -0.3575
  750MOL0     C 3411  -0.164   3.911   6.761 -0.5819  0.3479  0.2454
  750MOL0     C 3412  -0.264   3.950   6.683 -0.5575 -0.0413 -0.4223
  750MOL0     N 3413  -0.204   3.590   6.272 -0.2108  0.1712  0.2283
  750MOL0     N 3414  -0.087   3.589   6.310  0.2624 -0.6273  0.2563
  750MOL0     C 3415   1.107   3.911   6.464  0.5035  0.3718  0.0470
  750MOL0     C 3416   1.212   3.846   6.521 -0.4002  0.0883  0.2320
  750MOL0     C 3417   1.581   3.681   6.682  0.2189 -0.4849 -0.4934
  750MOL0     C 3418   1.590   3.556   6.624 -0.1208 -0.4316 -0.6878
  750MOL0     C 3419   1.693   3.474   6.665 -0.3219 -0.3935 -0.6302
  750MOL0     C 3420   1.784   3.510   6.761  0.4571 -0.6378 -0.0178
  750MOL0     O 3421   1.874   3.423   6.818  0.2313  0.2835 -0.7370
  750MOL0     C 3422   1.892   3.295   6.749  0.9284 -0.5897  0.9757
  750MOL0     C 3423   1.976   3.296   6.625 -0.3201 -0.4546  0.1912
  750MOL0     C 3424   1.976   3.160   6.551 -0.5558  0.0526  0.7404
  750MOL0     C 3425   2.060   3.181   6.419  0.8877  0.6680  0.9427
  750MOL0     C 3426   2.084   3.060   6.345 -0.2209  0.1883  0.1008
  750MOL0     C 3427   2.121   2.979   6.268 -0.1521  0.4782 -0.0033
  750MOL0     C 3428   1.775   3.634   6.820  0.5092 -0.4391 -0.5954
  750MOL0     C 3429   1.672   3.719   6.781  0.1373  0.3975  0.5266
  750MOL0     C 3430   1.670   3.852   6.850 -0.6099  0.6248  0.2573
  750MOL0     H 3431   1.420   3.808   6.247 -1.8653 -4.4483 -2.4084
  750MOL0     H 3432   1.198   3.901   6.143  0.3986  0.4405 -0.3628
  750MOL0     H 3433   0.836   3.977   6.410 -0.2912  1.0273  0.7275
  750MOL0     H 3434   0.857   3.806   6.352  2.8515  0.5193 -1.6505
  750MOL0     H 3435   0.716   4.028   6.200 -1.4817  0.0948  2.1819
  750MOL0     H 3436   0.809   3.892   6.130  0.4793  1.0917 -0.3726
  750MOL0     H 3437   0.576   3.839   6.138 -1.9699 -0.8342  1.1177
  750MOL0     H 3438   0.669   3.737   6.241  1.3454  1.9007  1.6061
  750MOL0     H 3439   0.569   3.894   6.439  0.3321 -0.6204  0.6165
  750MOL0     H 3440   0.511   3.998   6.314  0.1814 -0.4575 -0.2671
  750MOL0     H 3441   0.411   3.710   6.327  0.8129  0.7706  1.3185
  750MOL0     H 3442   0.355   3.833   6.215  0.7272 -1.0810  0.0901
  750MOL0     H 3443   0.347   3.872   6.515  1.4437 -0.6298  0.0376
  750MOL0     H 3444   0.267   3.967   6.392  4.5302  1.2718 -0.3778
  750MOL0     H 3445   0.104   3.878   6.481  4.7856  2.3386  2.1607
  750MOL0     H 3446   0.158   3.718   6.511 -1.6601 -1.2794  0.0570
  750MOL0     H 3447   0.119   3.828   6.228  1.3660 -1.4721 -1.8277
  750MOL0     H 3448   0.170   3.666   6.270  0.2817  0.8973 -1.5432
  750MOL0     H 3449  -0.123   3.903   6.268  1.2511 -0.2820 -1.7398
  750MOL0     H 3450  -0.448   3.677   6.192  2.1221 -3.7247  2.6865
  750MOL0     H 3451  -0.367   3.789   6.106  2.4412 -2.6614  0.2521
  750MOL0     H 3452  -0.404   3.971   6.276 -0.7475 -0.1214  0.6532
  750MOL0     H 3453  -0.559   3.890   6.262 -0.3847  0.6031  1.8871
  750MOL0     H 3454  -0.544   3.768   6.448  2.2258 -0.9672  0.6799
  750MOL0     H 3455  -0.372   3.811   6.474  1.5090 -0.0303 -2.8445
  750MOL0     H 3456  -0.428   4.062   6.504  2.8719 -1.7405 -0.4554
  750MOL0     H 3457  -0.590   4.027   6.473  0.7030  1.1914 -0.6589
  750MOL0     H 3458  -0.515   3.906   6.906  0.0950  1.7521  2.5363
  750MOL0     H 3459  -0.292   3.698   7.086  0.7699  0.0015  1.6965
  750MOL0     H 3460  -0.438   3.789   7.103  0.1489  0.7421  1.7887
  750MOL0     H 3461  -0.281   3.842   7.176  2.1317 -1.6939  0.1517
  750MOL0     H 3462   0.091   3.556   6.983 -2.1476  1.2044 -4.4786
  750MOL0     H 3463   0.305   3.456   7.054 -2.0108  0.6865  1.8518
  750MOL0     H 3464   0.564   3.590   7.164  0.3812  0.0248  0.2640
  750MOL0     H 3465   0.525   3.424   7.119  0.3751  0.6702  1.9171
  750MOL0     H 3466   0.755   3.461   7.192  0.0374  1.3878 -0.0874
  750MOL0     H 3467   0.748   3.391   7.023  1.7897  1.5174 -2.3529
  750MOL0     H 3468   0.811   3.607   6.924  0.2468  0.7293  0.0596
  750MOL0     H 3469   0.918   3.560   7.046  0.4787  0.5732  0.0298
  750MOL0     H 3470   0.801   3.708   7.219 -2.3090 -1.4958 -0.5498
  750MOL0     H 3471   0.700   3.776   7.094  0.3612  0.8688  1.1475
  750MOL0     H 3472   0.903   3.911   7.163  2.8338  1.2885 -0.8350
  750MOL0     H 3473   0.991   3.775   7.084 -1.5127 -2.6956 -0.9196
  750MOL0     H 3474   0.871   3.816   6.874 -0.3318 -1.8070  2.3983
  750MOL0     H 3475   0.986   3.944   6.914 -0.2488 -1.3241 -1.5071
  750MOL0     H 3476   0.826   4.094   6.993  1.0858  0.5187 -1.8762
  750MOL0     H 3477   0.695   3.970   6.979  0.3342 -0.6900  0.2172
  750MOL0     H 3478   0.837   4.099   6.740 -0.4008  1.3649  1.0574
  750MOL0     H 3479   0.678   4.144   6.808 -1.4405 -0.9525 -0.2847
  750MOL0     H 3480   0.513   3.802   6.886  0.8105  0.7529  2.5794
  750MOL0     H 3481   0.296   3.911   6.838  0.3324 -0.6635  0.4514
  750MOL0     H 3482  -0.069   3.901   6.709  1.8560  0.8812  4.2214
  750MOL0     H 3483  -0.251   3.975   6.579  1.1381  0.7738 -0.0486
  750MOL0     H 3484   1.028   3.949   6.528 -0.5657  1.3193 -1.7731
  750MOL0     H 3485   1.217   3.862   6.628  0.2633 -0.0894  0.2317
  750MOL0     H 3486   1.520   3.512   6.554 -4.5024  0.0459  2.9413
  750MOL0     H 3487   1.686   3.377   6.617  2.2209  0.1642 -2.3275
  750MOL0     H 3488   1.932   3.224   6.822  1.1749  0.8737  2.3187
  750MOL0     H 3489   1.797   3.252   6.717  1.2097 -1.5090  1.3518
  750MOL0     H 3490   2.078   3.323   6.656 -1.0050  1.2704  1.0457
  750MOL0     H 3491   1.936   3.376   6.563  2.6658 -0.7298 -2.3244
  750MOL0     H 3492   2.011   3.075   6.611 -1.5670 -1.3007 -0.5254
  750MOL0     H 3493   1.880   3.119   6.521 -1.3318  1.1482  1.6381
  750MOL0     H 3494   2.156   3.227   6.443  1.5675 -0.7025  0.9588
  750MOL0     H 3495   1.998   3.245   6.355 -0.3272 -0.2949  1.1166
  750MOL0     H 3496   2.162   2.903   6.204  1.5186  0.6705  0.7849
  750MOL0     H 3497   1.834   3.646   6.910  0.3738 -3.9752  0.1067
  750MOL0     H 3498   1.742   3.845   6.932  0.1217 -1.6914 -0.5123
  750MOL0     H 3499   1.679   3.942   6.787 -1.0108  0.1144 -0.5426
  750MOL0     H 3500   1.578   3.873   6.905 -0.4980  1.4433  0.1505
  751MOL0     O 3501   9.144   8.774  11.014  0.6299 -0.5859 -0.4259
  751MOL0     C 3502   9.051   8.744  11.092  0.0006  0.6172  1.1838
  751MOL0     O 3503   9.067   8.737  11.227  0.2729 -0.3902 -0.1635
  751MOL0     C 3504   9.165   8.818  11.287  0.1658  0.4375 -0.6042
  751MOL0     C 3505   9.288   8.761  11.310 -0.4550  0.7946 -0.1814
  751MOL0     C 3506   9.390   8.839  11.359 -0.6879 -1.0631 -0.3296
  751MOL0     C 3507   9.364   8.977  11.390  0.2995  0.3047 -0.1864
  751MOL0     O 3508   9.473   9.057  11.413  0.5746  0.1837 -0.4376
  751MOL0     C 3509   9.452   9.187  11.466 -0.2301 -0.2903  0.9310
  751MOL0     C 3510   9.579   9.271  11.438  0.3602  0.0808 -0.2797
  751MOL0     C 3511   9.592   9.385  11.549 -0.2644  0.3435 -0.3986
  751MOL0     C 3512   9.686   9.489  11.488  1.3472  0.2852  0.0780
  751MOL0     C 3513   9.749   9.596  11.581 -0.0337  0.2860  0.5562
  751MOL0     C 3514   9.862   9.669  11.524  0.1580 -0.4388  0.0597
  751MOL0     C 3515   9.899   9.791  11.611  0.1332  0.6036 -0.4688
  751MOL0     C 3516   9.899   9.783  11.761  0.0853 -0.9979  0.3198
  751MOL0     N 3517  10.037   9.745  11.817 -0.8580 -0.0214  0.2948
  751MOL0     C 3518  10.096   9.616  11.819  0.7784 -0.6368  0.6835
  751MOL0     C 3519  10.218   9.638  11.868  0.5646  0.4656  0.3313
  751MOL0     C 3520  10.317   9.528  11.883 -0.7603 -0.9713  0.1500
  751MOL0     C 3521  10.421   9.547  11.778  0.1065 -0.4112  0.7955
  751MOL0     C 3522  10.374   9.497  11.638  0.2256 -0.5289 -0.1526
  751MOL0     C 3523  10.495   9.513  11.536 -0.2505 -1.0059  0.1226
  751MOL0     O 3524  10.605   9.427  11.567 -0.1082 -0.1930 -0.1817
  751MOL0     C 3525  10.709   9.438  11.479  0.1810 -0.1268 -0.4252
  751MOL0     C 3526  10.695   9.392  11.349  0.6785  0.1947  0.3315
  751MOL0     C 3527  10.795   9.418  11.256  0.8615 -0.2604 -0.8410
  751MOL0     C 3528  10.762   9.385  11.114 -0.4721 -0.1040 -0.1157
  751MOL0     C 3529  10.919   9.486  11.285  1.0678  0.3235  0.1879
  751MOL0     C 3530  11.030   9.514  11.199 -0.1106  0.5672 -0.2772
  751MOL0     O 3531  11.129   9.592  11.250 -0.2214  0.3181 -0.1280
  751MOL0     C 3532  11.262   9.592  11.212  0.6218  0.7591  0.8006
  751MOL0     C 3533  11.322   9.481  11.142  0.2998 -0.2059 -0.6482
  751MOL0     C 3534  11.460   9.489  11.110  1.0331 -0.0428  0.6524
  751MOL0     C 3535  11.532   9.604  11.129 -0.1742  0.2848  0.4603
  751MOL0     O 3536  11.658   9.622  11.079  0.1674 -0.1415 -0.8984
  751MOL0     C 3537  11.739   9.512  11.044  0.4706  0.5063  0.3782
  751MOL0     C 3538  11.879   9.568  11.013  0.6497  0.4017 -0.2870
  751MOL0     C 3539  11.970   9.587  11.145  0.2513 -0.7161  0.3418
  751MOL0     C 3540  12.118   9.616  11.103 -0.5840 -0.7325 -0.6207
  751MOL0     C 3541  12.209   9.640  11.227 -0.3946 -0.0389  1.0659
  751MOL0     C 3542  12.356   9.636  11.180  0.0491  0.1054 -0.6892
  751MOL0     C 3543  12.401   9.756  11.089  0.3946 -0.3217  0.3992
  751MOL0     C 3544  12.550   9.756  11.039  0.0083  0.2280 -0.5177
  751MOL0    Cl 3545  12.650   9.629  11.102  0.3980 -0.4155  0.2415
  751MOL0     C 3546  11.477   9.708  11.207  0.1498  0.0116  0.3411
  751MOL0     C 3547  11.340   9.705  11.247  0.1634 -0.1551  0.0477
  751MOL0     O 3548  11.036   9.462  11.090  0.6600  0.0110 -0.3543
  751MOL0     C 3549  10.926   9.525  11.420  0.6526  0.4875  1.2677
  751MOL0     C 3550  10.831   9.503  11.520 -0.0888 -0.2022  0.7859
  751MOL0     N 3551  10.242   9.770  11.891  0.4307 -0.5999 -0.8977
  751MOL0     N 3552  10.128   9.839  11.871 -0.2666 -0.6846  0.0137
  751MOL0     C 3553   9.235   9.026  11.376  0.2144 -0.4683 -0.3750
  751MOL0     C 3554   9.131   8.947  11.323  0.7407 -0.1809  0.4523
  751MOL0     C 3555   8.923   8.677  11.035 -0.5108  0.2127 -0.4117
  751MOL0     C 3556   8.826   8.646  11.132 -0.3372 -0.3099 -0.7838
  751MOL0     C 3557   8.702   8.590  11.102 -0.8038  0.3557 -0.0325
  751MOL0     C 3558   8.670   8.571  10.968  0.3552  0.3542  0.6616
  751MOL0     O 3559   8.552   8.506  10.938 -0.4936  0.8686  0.0945
  751MOL0     C 3560   8.433   8.575  10.967 -0.1564 -0.9842  0.4420
  751MOL0     C 3561   8.324   8.468  10.936  0.4035 -0.4586  0.0170
  751MOL0     C 3562   8.177   8.509  10.965 -0.1189  0.0324  0.9007
  751MOL0     C 3563   8.116   8.432  11.079  0.0185 -0.1963  0.0804
  751MOL0     C 3564   8.185   8.452  11.202  0.9637 -0.1813 -0.3576
  751MOL0     C 3565   8.251   8.455  11.305  0.2967  0.8102 -0.6837
  751MOL0     C 3566   8.761   8.613  10.872  0.0393 -0.1258  0.1956
  751MOL0     C 3567   8.884   8.671  10.896  0.7125  0.5136 -0.2752
  751MOL0     C 3568   8.980   8.696  10.782 -0.0184 -0.1214 -0.2241
  751MOL0     H 3569   9.304   8.654  11.296  1.1240  0.5088  2.8770
  751MOL0     H 3570   9.491   8.802  11.374  0.4960  1.0248 -2.3769
  751MOL0     H 3571   9.432   9.173  11.572  0.5936 -0.0261  1.1331
  751MOL0     H 3572   9.376   9.249  11.417  0.4170  0.3582  0.7129
  751MOL0     H 3573   9.658   9.195  11.436 -0.1697 -0.4801 -0.2738
  751MOL0     H 3574   9.568   9.300  11.333  1.1713 -3.1482 -1.3715
  751MOL0     H 3575   9.496   9.434  11.565 -0.2419 -0.3534  2.4065
  751MOL0     H 3576   9.626   9.348  11.646 -1.0762 -1.4566 -0.7614
  751MOL0     H 3577   9.775   9.439  11.447  2.0981  0.6206  1.2580
  751MOL0     H 3578   9.637   9.529  11.399  1.8375 -0.2202 -0.4299
  751MOL0     H 3579   9.761   9.546  11.678  1.8889  0.6800  0.5613
  751MOL0     H 3580   9.667   9.669  11.580  0.6939  1.2277 -2.8585
  751MOL0     H 3581   9.955   9.611  11.521  0.0099 -0.8304  1.8980
  751MOL0     H 3582   9.840   9.708  11.425 -1.0059 -3.5279 -1.0050
  751MOL0     H 3583   9.858   9.887  11.579  1.6335  0.7580 -2.0686
  751MOL0     H 3584  10.004   9.814  11.588 -0.4162  1.6678 -2.0845
  751MOL0     H 3585   9.866   9.884  11.788  1.4915  0.0213 -1.5177
  751MOL0     H 3586   9.823   9.716  11.803 -1.6411  0.2418 -0.7180
  751MOL0     H 3587  10.064   9.515  11.794  1.7881 -1.2707  1.8205
  751MOL0     H 3588  10.272   9.428  11.879 -2.1083 -0.3681 -0.2892
  751MOL0     H 3589  10.368   9.542  11.979 -0.5389 -1.4827  0.1090
  751MOL0     H 3590  10.455   9.650  11.763 -0.6798 -0.1106  1.0607
  751MOL0     H 3591  10.508   9.483  11.799 -0.0892 -1.5904 -1.6744
  751MOL0     H 3592  10.342   9.393  11.648 -2.3686  0.4103  3.4124
  751MOL0     H 3593  10.288   9.554  11.601  2.0163  1.5186 -1.4510
  751MOL0     H 3594  10.456   9.493  11.436 -1.0916 -1.5167  0.5294
  751MOL0     H 3595  10.542   9.611  11.537  4.0796 -2.8575 -0.3060
  751MOL0     H 3596  10.600   9.342  11.332  0.1156  0.9358  1.1904
  751MOL0     H 3597  10.766   9.480  11.060  2.1585  0.5577  1.1263
  751MOL0     H 3598  10.670   9.329  11.094 -0.1426 -0.3174 -1.1087
  751MOL0     H 3599  10.836   9.325  11.060 -0.1807  1.2136 -1.2310
  751MOL0     H 3600  11.269   9.390  11.118  1.1987 -0.0941 -3.3322
  751MOL0     H 3601  11.516   9.413  11.055  5.2653  0.6987  3.4129
  751MOL0     H 3602  11.740   9.438  11.125  2.3603  2.5200  2.3174
  751MOL0     H 3603  11.709   9.461  10.952  0.6735  1.3938 -0.1839
  751MOL0     H 3604  11.932   9.500  10.946  0.6841 -0.1136  0.2587
  751MOL0     H 3605  11.867   9.660  10.955 -4.1431 -1.0366 -2.0717
  751MOL0     H 3606  11.962   9.493  11.200  0.9227 -1.0028 -0.0353
  751MOL0     H 3607  11.923   9.667  11.203  0.5831 -0.6500  0.5242
  751MOL0     H 3608  12.117   9.693  11.025  0.8376  0.3297  0.3617
  751MOL0     H 3609  12.148   9.521  11.057  1.6261  1.0977 -3.2910
  751MOL0     H 3610  12.195   9.737  11.277  1.3709  0.6151  0.3997
  751MOL0     H 3611  12.193   9.558  11.297  0.3662 -0.7560  0.4237
  751MOL0     H 3612  12.373   9.550  11.114  0.3618  0.2365 -0.7854
  751MOL0     H 3613  12.411   9.649  11.274 -1.1361  2.6194 -0.2604
  751MOL0     H 3614  12.384   9.840  11.156 -1.4594 -0.8905  0.6935
  751MOL0     H 3615  12.340   9.784  11.002  0.5620 -2.8356 -0.6258
  751MOL0     H 3616  12.605   9.845  11.068  0.4535 -0.3871  0.6102
  751MOL0     H 3617  12.561   9.740  10.932  0.2187  2.0943 -0.8030
  751MOL0     H 3618  11.541   9.792  11.231  1.5110 -1.2252  1.1809
  751MOL0     H 3619  11.303   9.788  11.307  0.2362 -2.1999  3.0955
  751MOL0     H 3620  11.019   9.570  11.453  3.6621 -0.9086 -4.2424
  751MOL0     H 3621  10.861   9.541  11.617  0.3280 -1.1821  1.0467
  751MOL0     H 3622   9.202   9.123  11.411 -3.0282 -1.4522 -0.4205
  751MOL0     H 3623   9.028   8.980  11.310  1.2613  1.1211 -0.6429
  751MOL0     H 3624   8.839   8.672  11.237 -2.2446 -1.5384 -0.1979
  751MOL0     H 3625   8.634   8.559  11.181 -0.2831 -3.9974 -1.0319
  751MOL0     H 3626   8.434   8.614  11.069 -1.1771  1.1527 -0.3053
  751MOL0     H 3627   8.418   8.667  10.909  4.0377  0.7880  1.8264
  751MOL0     H 3628   8.355   8.371  10.977  1.8005 -0.4816 -1.0410
  751MOL0     H 3629   8.326   8.453  10.828  0.2044  0.4979 -0.1281
  751MOL0     H 3630   8.167   8.617  10.975  0.6690  0.0138  2.1485
  751MOL0     H 3631   8.115   8.483  10.879  1.0428  1.0803 -0.2937
  751MOL0     H 3632   8.099   8.326  11.056  0.2351 -0.1270 -0.4093
  751MOL0     H 3633   8.016   8.475  11.091 -1.0290 -3.0307  2.4928
  751MOL0     H 3634   8.313   8.437  11.390  0.3739  1.3746 -0.6157
  751MOL0     H 3635   8.740   8.619  10.765 -0.4301 -0.5328  0.2632
  751MOL0     H 3636   8.982   8.801  10.754  0.2940 -0.2722 -0.7855
  751MOL0     H 3637   9.077   8.657  10.814  1.5016  0.2817 -3.9034
  751MOL0     H 3638   8.945   8.648  10.690  0.3166 -1.5366  0.3612
  752MOL0     O 3639   0.189  10.727   6.191 -0.0928  0.1342 -0.2325
  752MOL0     C 3640   0.175  10.844   6.162  0.8873 -0.2275  0.3852
  752MOL0     O 3641   0.279  10.930   6.152 -0.3174  0.4845 -0.3400
  752MOL0     C 3642   0.400  10.885   6.177 -0.4093 -0.8381 -0.2448
  752MOL0     C 3643   0.437  10.862   6.302 -0.2034  0.5532  0.0298
  752MOL0     C 3644   0.567  10.831   6.333 -0.6375 -0.4748 -0.0560
  752MOL0     C 3645   0.661  10.807   6.238  2.3673 -0.8002 -0.5780
  752MOL0     O 3646   0.788  10.768   6.266  0.4370  0.1377 -0.3936
  752MOL0     C 3647   0.852  10.832   6.376 -0.5527 -0.5343  0.3874
  752MOL0     C 3648   0.998  10.803   6.392 -0.6753 -1.4054  0.0638
  752MOL0     C 3649   1.076  10.813   6.257  0.5411 -0.5541 -0.4748
  752MOL0     C 3650   1.227  10.753   6.254 -0.1005  0.8587  0.4624
  752MOL0     C 3651   1.315  10.813   6.146  0.2321 -0.9323  0.4498
  752MOL0     C 3652   1.460  10.781   6.171 -0.2117  0.3698 -0.1082
  752MOL0     C 3653   1.547  10.837   6.054  0.1777 -0.6718 -0.2047
  752MOL0     C 3654   1.518  10.770   5.921  0.2259 -0.5148 -0.4271
  752MOL0     N 3655   1.547  10.622   5.926 -0.3456 -0.5638 -0.0055
  752MOL0     C 3656   1.470  10.531   5.992  0.5466  0.1599 -0.9494
  752MOL0     C 3657   1.540  10.417   5.994 -0.9368 -0.2005 -0.8159
  752MOL0     C 3658   1.506  10.291   6.069 -0.3636 -0.1986 -0.0812
  752MOL0     C 3659   1.521  10.167   5.976 -0.0736  0.1274  0.4868
  752MOL0     C 3660   1.626  10.068   6.030 -0.0106  0.7971  0.3689
  752MOL0     C 3661   1.641   9.953   5.922 -0.9061  0.3673 -0.3511
  752MOL0     O 3662   1.522   9.878   5.887 -0.1565  0.1387 -0.7010
  752MOL0     C 3663   1.453   9.805   5.983  0.7881  0.3318  0.1642
  752MOL0     C 3664   1.318   9.769   5.962 -0.5984 -0.4079 -0.1900
  752MOL0     C 3665   1.242   9.691   6.053 -0.3451 -0.2789 -0.5019
  752MOL0     C 3666   1.103   9.652   5.999  0.5947 -0.4530 -0.3731
  752MOL0     C 3667   1.306   9.636   6.167 -0.5946 -0.2328 -0.2861
  752MOL0     C 3668   1.242   9.532   6.254  0.5707  0.1333 -0.5921
  752MOL0     O 3669   1.312   9.497   6.365  0.0966 -0.7563  0.9129
  752MOL0     C 3670   1.282   9.385   6.441  0.0546 -0.3711  0.5695
  752MOL0     C 3671   1.342   9.384   6.567 -0.4621  0.1032  0.1954
  752MOL0     C 3672   1.341   9.268   6.645  0.1185 -0.0798  0.4657
  752MOL0     C 3673   1.265   9.156   6.607 -0.2394 -0.3255 -0.4432
  752MOL0     O 3674   1.256   9.042   6.688  0.2657 -0.0363  0.0249
  752MOL0     C 3675   1.371   9.017   6.777  0.2016 -0.1689  0.8377
  752MOL0     C 3676   1.358   8.891   6.848 -0.4008 -0.0628  0.4611
  752MOL0     C 3677   1.484   8.861   6.945 -0.1073 -0.1911  0.2991
  752MOL0     C 3678   1.477   8.717   6.988  0.4180  0.2636 -0.6844
  752MOL0     C 3679   1.585   8.664   7.092  0.5708 -0.0458  1.1967
  752MOL0     C 3680   1.574   8.727   7.237 -0.3188  0.5822 -0.6090
  752MOL0     C 3681   1.668   8.647   7.326  0.0848 -0.1055  0.5491
  752MOL0     C 3682   1.804   8.716   7.335 -0.6047 -0.2188  0.5710
  752MOL0    Cl 3683   1.914   8.616   7.434  0.1068 -0.4249  0.2697
  752MOL0     C 3684   1.191   9.160   6.492  0.1145  0.6851 -0.1578
  752MOL0     C 3685   1.204   9.269   6.404  0.3468 -0.9157 -0.5482
  752MOL0     O 3686   1.131   9.483   6.218  0.1441 -0.1160  0.1234
  752MOL0     C 3687   1.440   9.678   6.194 -0.1491 -0.0801  0.6288
  752MOL0     C 3688   1.513   9.763   6.103 -0.5755 -0.5620 -0.1165
  752MOL0     N 3689   1.663  10.440   5.935 -0.2652  0.6658  0.4672
  752MOL0     N 3690   1.662  10.556   5.883  0.0115  0.6990 -0.1024
  752MOL0     C 3691   0.625  10.833   6.105  0.0838  0.2409  0.1666
  752MOL0     C 3692   0.494  10.876   6.074  0.1924 -0.6384  0.4531
  752MOL0     C 3693   0.029  10.884   6.147  0.0826  0.0741 -1.1713
  752MOL0     C 3694  -0.072  10.790   6.158 -0.0099  0.1382 -0.6031
  752MOL0     C 3695  -0.207  10.828   6.137 -0.0874  0.9224  0.1092
  752MOL0     C 3696  -0.245  10.960   6.119  0.4894  0.5356 -0.4320
  752MOL0     O 3697  -0.379  10.979   6.104 -0.6852  0.5610  0.2383
  752MOL0     C 3698  -0.439  11.109   6.139  0.6614 -0.2679  0.1207
  752MOL0     C 3699  -0.545  11.138   6.028  0.8855 -0.9735  0.1093
  752MOL0     C 3700  -0.680  11.196   6.068 -0.2232 -0.3737  0.1947
  752MOL0     C 3701  -0.768  11.121   6.173  0.1968 -0.7395  0.0970
  752MOL0     C 3702  -0.914  11.148   6.164 -0.5634  0.3423 -0.8245
  752MOL0     C 3703  -1.036  11.156   6.163 -0.1863 -1.1284  0.7613
  752MOL0     C 3704  -0.149  11.064   6.111  0.5159  0.3798  0.5582
  752MOL0     C 3705  -0.010  11.018   6.125  1.4549 -0.2820 -0.6886
  752MOL0     C 3706   0.086  11.131   6.097  0.0386 -0.5276 -0.0893
  752MOL0     H 3707   0.364  10.861   6.382 -1.3824  1.3540 -0.9944
  752MOL0     H 3708   0.597  10.814   6.436 -1.4581 -1.1316  0.0839
  752MOL0     H 3709   0.804  10.798   6.468  2.7041 -1.7871  1.7738
  752MOL0     H 3710   0.838  10.940   6.360 -1.7089 -0.4000  2.1260
  752MOL0     H 3711   1.036  10.870   6.470  0.6024 -3.1904  1.0690
  752MOL0     H 3712   1.009  10.703   6.437  0.4966 -0.5983  1.6710
  752MOL0     H 3713   1.026  10.746   6.186 -0.3176 -2.7611  2.0756
  752MOL0     H 3714   1.078  10.917   6.222  2.3755 -0.2842  0.3484
  752MOL0     H 3715   1.280  10.760   6.349 -1.1449 -0.6609  1.1976
  752MOL0     H 3716   1.213  10.647   6.231 -1.0739  0.4631  2.6498
  752MOL0     H 3717   1.303  10.922   6.153 -0.2739 -0.9241 -0.3809
  752MOL0     H 3718   1.277  10.778   6.050 -2.5332 -0.3957  1.2677
  752MOL0     H 3719   1.490  10.833   6.262 -1.2342  0.8164 -0.0091
  752MOL0     H 3720   1.475  10.674   6.188  0.1059  0.1858 -1.4054
  752MOL0     H 3721   1.654  10.824   6.076 -0.4153 -2.8288  1.7729
  752MOL0     H 3722   1.531  10.945   6.049 -0.8287 -0.8214 -0.2900
  752MOL0     H 3723   1.423  10.793   5.872  0.3360 -2.5455 -1.6786
  752MOL0     H 3724   1.596  10.805   5.854  0.0353  1.9302  0.5270
  752MOL0     H 3725   1.374  10.551   6.038  0.8001  1.1209 -0.8116
  752MOL0     H 3726   1.408  10.294   6.117 -0.6818 -3.8329 -0.2071
  752MOL0     H 3727   1.574  10.283   6.155 -0.4146 -0.0304 -0.0258
  752MOL0     H 3728   1.424  10.118   5.966 -0.0386 -0.4185  2.4841
  752MOL0     H 3729   1.556  10.194   5.875 -0.4614 -1.4733 -0.1158
  752MOL0     H 3730   1.723  10.118   6.038  0.2433  0.4820 -0.6336
  752MOL0     H 3731   1.601  10.027   6.129  2.5105 -1.4954  0.1659
  752MOL0     H 3732   1.682  10.003   5.834 -1.3073  1.5371  0.0922
  752MOL0     H 3733   1.717   9.878   5.945  0.6818  0.8707 -3.3849
  752MOL0     H 3734   1.271   9.812   5.875  1.0708  0.0398 -0.9228
  752MOL0     H 3735   1.098   9.544   5.982 -3.0336 -0.5434  0.3596
  752MOL0     H 3736   1.078   9.710   5.910 -0.0476 -1.5455 -0.9314
  752MOL0     H 3737   1.019   9.678   6.064 -0.3387  0.3083 -1.8179
  752MOL0     H 3738   1.394   9.470   6.606 -3.1437  1.3884  1.2253
  752MOL0     H 3739   1.378   9.276   6.747 -2.8128 -0.5644  1.6787
  752MOL0     H 3740   1.459   9.014   6.713 -0.0985 -0.0473  0.4133
  752MOL0     H 3741   1.392   9.095   6.852 -1.0859  1.8099 -0.7353
  752MOL0     H 3742   1.261   8.891   6.898 -0.5048  0.7129  0.2740
  752MOL0     H 3743   1.362   8.820   6.764  1.8632  2.9009 -2.1858
  752MOL0     H 3744   1.482   8.925   7.034  0.0246 -1.1950  1.0525
  752MOL0     H 3745   1.583   8.870   6.901  0.7675 -1.4079  1.8834
  752MOL0     H 3746   1.468   8.648   6.903  2.0504 -0.9725  0.0943
  752MOL0     H 3747   1.377   8.707   7.030  0.2851  3.5340  0.0672
  752MOL0     H 3748   1.577   8.555   7.101 -3.4257 -0.1926 -1.6136
  752MOL0     H 3749   1.683   8.685   7.047  0.2585 -1.1627 -0.0915
  752MOL0     H 3750   1.473   8.717   7.276 -0.7025  1.8861 -1.2039
  752MOL0     H 3751   1.598   8.833   7.228 -0.3520  0.4595 -2.6961
  752MOL0     H 3752   1.673   8.541   7.301 -3.0338 -0.2580  0.2366
  752MOL0     H 3753   1.626   8.646   7.427 -0.6238 -0.2199  0.2533
  752MOL0     H 3754   1.799   8.822   7.361 -0.9313  0.0637 -0.5846
  752MOL0     H 3755   1.838   8.704   7.231 -5.3171 -2.7639 -0.9939
  752MOL0     H 3756   1.136   9.070   6.468  0.9380 -0.2376  1.2205
  752MOL0     H 3757   1.155   9.256   6.307 -1.0894 -1.2085  0.1799
  752MOL0     H 3758   1.484   9.645   6.288 -0.7569 -2.0970  0.2537
  752MOL0     H 3759   1.614   9.792   6.129 -0.3760 -1.7445  0.5275
  752MOL0     H 3760   0.701  10.813   6.030  0.8720  1.4937  0.5917
  752MOL0     H 3761   0.473  10.895   5.969  1.6288 -2.4921 -0.2332
  752MOL0     H 3762  -0.061  10.683   6.174  0.9864  0.5050  1.5124
  752MOL0     H 3763  -0.286  10.755   6.154 -1.0259  2.4426  2.9703
  752MOL0     H 3764  -0.474  11.113   6.242 -3.8010  1.2133 -1.2274
  752MOL0     H 3765  -0.363  11.186   6.126 -1.3737  1.8333  0.0887
  752MOL0     H 3766  -0.557  11.044   5.975  1.7268 -0.6883 -0.6036
  752MOL0     H 3767  -0.493  11.204   5.959  0.7193  1.5481  2.2132
  752MOL0     H 3768  -0.656  11.295   6.107  0.7345 -1.7682  3.4520
  752MOL0     H 3769  -0.736  11.211   5.975 -1.7574 -0.9343  0.9811
  752MOL0     H 3770  -0.731  11.157   6.269  3.3977  0.5787 -1.4694
  752MOL0     H 3771  -0.743  11.015   6.162 -0.4994 -0.6268 -4.9569
  752MOL0     H 3772  -1.143  11.152   6.156 -0.1392  0.2106 -2.5776
  752MOL0     H 3773  -0.169  11.169   6.093 -1.1101 -0.3959 -2.9536
  752MOL0     H 3774   0.166  11.144   6.170 -0.1076 -1.9437  0.3455
  752MOL0     H 3775   0.133  11.108   6.001 -1.2114 -2.7528 -0.2354
  752MOL0     H 3776   0.030  11.224   6.079 -1.2586 -0.8839  1.7711
  753MOL0     O 3777   4.120   1.360   7.886 -0.1637 -0.1681  0.0187
  753MOL0     C 3778   4.132   1.359   7.767 -0.7853 -0.5513  1.2603
  753MOL0     O 3779   4.034   1.317   7.670  0.7941 -0.2621 -0.6810
  753MOL0     C 3780   3.908   1.281   7.712 -1.0019  0.2091 -0.8821
  753MOL0     C 3781   3.828   1.378   7.777  0.2995 -0.0335  0.3941
  753MOL0     C 3782   3.686   1.345   7.790 -0.1643  1.2952 -0.3691
  753MOL0     C 3783   3.642   1.219   7.759  0.8199  0.8730  0.1751
  753MOL0     O 3784   3.508   1.188   7.777  0.0143  0.1852 -0.2896
  753MOL0     C 3785   3.455   1.056   7.762  0.3409 -0.2508 -0.4495
  753MOL0     C 3786   3.311   1.069   7.795 -0.0041 -0.1367  0.1928
  753MOL0     C 3787   3.225   1.122   7.683  0.1744 -0.0550  0.0110
  753MOL0     C 3788   3.247   1.265   7.625  0.5031  0.8213  0.3617
  753MOL0     C 3789   3.158   1.305   7.501 -0.8665 -0.4770  0.2861
  753MOL0     C 3790   3.011   1.264   7.493  0.4599  0.3450  0.9038
  753MOL0     C 3791   2.955   1.308   7.347 -0.1957 -0.0925 -0.4532
  753MOL0     C 3792   2.812   1.263   7.346  0.2739 -0.3973  0.4504
  753MOL0     N 3793   2.794   1.123   7.302 -1.1844  0.5371  1.1716
  753MOL0     C 3794   2.826   1.015   7.369  0.3884  0.8109 -0.8731
  753MOL0     C 3795   2.822   0.914   7.280  0.0729  0.3452 -0.0458
  753MOL0     C 3796   2.836   0.765   7.308  0.1902 -0.5457 -0.2469
  753MOL0     C 3797   2.975   0.725   7.351 -0.2732 -0.6503 -0.2069
  753MOL0     C 3798   2.994   0.596   7.270 -0.1077 -0.3176 -0.5069
  753MOL0     C 3799   3.132   0.531   7.292 -0.1284  0.0471  0.7352
  753MOL0     O 3800   3.157   0.491   7.425 -0.2664 -0.2906 -0.8523
  753MOL0     C 3801   3.261   0.404   7.444  0.4419  0.7070 -0.1463
  753MOL0     C 3802   3.384   0.422   7.379  0.3454  0.0110  0.8158
  753MOL0     C 3803   3.480   0.322   7.386  0.1857 -0.3585 -0.2307
  753MOL0     C 3804   3.603   0.335   7.307 -0.5683 -0.0328  0.2296
  753MOL0     C 3805   3.459   0.213   7.475  0.1971 -0.7391  0.2605
  753MOL0     C 3806   3.559   0.096   7.486  0.1594 -0.5150  0.0590
  753MOL0     O 3807   3.497  -0.022   7.512 -0.1953 -0.8120  0.7316
  753MOL0     C 3808   3.557  -0.147   7.513 -0.2021  0.7139  0.1650
  753MOL0     C 3809   3.483  -0.254   7.459 -0.1551 -0.5248  0.1815
  753MOL0     C 3810   3.526  -0.375   7.451 -0.0558  0.5440 -0.3158
  753MOL0     C 3811   3.652  -0.411   7.503  0.0290 -0.3699  0.5342
  753MOL0     O 3812   3.707  -0.532   7.496  0.0732 -0.1760 -0.2114
  753MOL0     C 3813   3.640  -0.644   7.439 -0.0586  0.2452 -0.7106
  753MOL0     C 3814   3.674  -0.660   7.294  0.0979 -0.1751  0.1248
  753MOL0     C 3815   3.820  -0.636   7.267 -0.1226 -0.0245  0.2374
  753MOL0     C 3816   3.872  -0.696   7.138  0.0641 -0.3557  0.3086
  753MOL0     C 3817   4.030  -0.707   7.144  0.2989  0.6001 -1.3853
  753MOL0     C 3818   4.097  -0.750   7.026 -0.1108  0.7601  0.4884
  753MOL0     C 3819   4.042  -0.883   6.965 -0.0440  0.3815  0.5051
  753MOL0     C 3820   3.976  -0.854   6.832  0.7270  0.1100  0.5658
  753MOL0    Cl 3821   4.065  -0.764   6.710 -0.3286  0.2723 -0.0097
  753MOL0     C 3822   3.720  -0.319   7.589 -0.2003  0.6046  0.2111
  753MOL0     C 3823   3.669  -0.184   7.588 -0.3569  0.9013 -0.5099
  753MOL0     O 3824   3.678   0.114   7.472 -0.1628  0.6103 -0.0615
  753MOL0     C 3825   3.345   0.207   7.556 -0.6888 -0.3268 -0.1791
  753MOL0     C 3826   3.246   0.305   7.538  0.2105  0.2646 -0.0167
  753MOL0     N 3827   2.788   0.962   7.152 -0.1077 -0.7413  0.6383
  753MOL0     N 3828   2.782   1.091   7.170 -0.2648 -0.7407  0.8834
  753MOL0     C 3829   3.728   1.125   7.698 -0.1106  0.0274 -0.3763
  753MOL0     C 3830   3.863   1.151   7.679  0.6839 -0.8011  0.3643
  753MOL0     C 3831   4.266   1.400   7.706  1.6072  0.0908  0.0926
  753MOL0     C 3832   4.380   1.407   7.789  0.7838 -0.3961 -1.1432
  753MOL0     C 3833   4.501   1.429   7.731 -0.2527 -0.1621 -0.0361
  753MOL0     C 3834   4.521   1.450   7.593 -0.2510  0.2855 -1.3881
  753MOL0     O 3835   4.649   1.470   7.548 -0.3368 -0.5075  0.0143
  753MOL0     C 3836   4.671   1.468   7.401 -0.5391 -0.4180 -1.3359
  753MOL0     C 3837   4.657   1.334   7.328 -0.2482 -0.0725 -1.1612
  753MOL0     C 3838   4.688   1.352   7.179  0.1085 -0.0376 -0.5512
  753MOL0     C 3839   4.713   1.220   7.109  0.1055  0.0861 -0.2174
  753MOL0     C 3840   4.857   1.174   7.130 -0.5628  0.1440  0.3696
  753MOL0     C 3841   4.957   1.108   7.132  0.0156  0.3307 -0.2378
  753MOL0     C 3842   4.411   1.457   7.514 -0.8059 -0.6071 -0.3530
  753MOL0     C 3843   4.281   1.436   7.572  0.4150  0.1139  0.2365
  753MOL0     C 3844   4.170   1.464   7.472  0.0846  0.0834 -0.4758
  753MOL0     H 3845   3.864   1.479   7.795  1.4598  0.0258 -1.9259
  753MOL0     H 3846   3.617   1.421   7.825  0.9732  3.3357 -2.3073
  753MOL0     H 3847   3.507   0.980   7.821 -1.4266 -2.1175 -1.1426
  753MOL0     H 3848   3.470   1.020   7.660 -3.3993  1.7665 -1.8810
  753MOL0     H 3849   3.282   0.966   7.820  0.8638 -0.5521 -0.4487
  753MOL0     H 3850   3.291   1.127   7.885  0.0648 -1.8025  1.3279
  753MOL0     H 3851   3.241   1.056   7.597  1.3497 -1.8991  1.5871
  753MOL0     H 3852   3.118   1.114   7.705 -0.2219 -1.3701 -2.1025
  753MOL0     H 3853   3.236   1.340   7.704 -1.4964 -2.3233  3.3647
  753MOL0     H 3854   3.353   1.267   7.598  0.4955 -0.8321  0.0670
  753MOL0     H 3855   3.212   1.260   7.417  2.5967  1.6281  1.1742
  753MOL0     H 3856   3.177   1.412   7.489 -1.1456 -0.3510  0.9450
  753MOL0     H 3857   3.017   1.155   7.488  2.7216  0.3999  1.3095
  753MOL0     H 3858   2.945   1.298   7.573  0.3807  0.8126  0.6410
  753MOL0     H 3859   3.009   1.244   7.276 -1.0752 -4.8851  2.7746
  753MOL0     H 3860   2.965   1.415   7.325  0.6425 -0.3644 -1.5116
  753MOL0     H 3861   2.772   1.278   7.446 -0.1624 -0.7896  0.3412
  753MOL0     H 3862   2.753   1.323   7.276  0.1392  1.2421  1.9242
  753MOL0     H 3863   2.850   1.000   7.474  1.6528  0.1428 -1.2398
  753MOL0     H 3864   2.806   0.726   7.211  0.5981  2.1994 -1.5811
  753MOL0     H 3865   2.762   0.733   7.382  1.0391 -3.6106 -0.5802
  753MOL0     H 3866   3.050   0.802   7.329 -0.6019 -1.4428 -5.6778
  753MOL0     H 3867   2.978   0.695   7.456  1.0662  0.3460  0.0661
  753MOL0     H 3868   2.915   0.522   7.287  2.4348 -3.0894  0.0753
  753MOL0     H 3869   2.993   0.625   7.165 -0.0405  1.7783  0.0353
  753MOL0     H 3870   3.129   0.441   7.230 -2.8941  0.3567  0.2668
  753MOL0     H 3871   3.214   0.591   7.252 -2.2017  0.6561 -3.0630
  753MOL0     H 3872   3.417   0.516   7.337  1.3046 -0.1883  1.0975
  753MOL0     H 3873   3.614   0.252   7.237 -1.2123 -2.1625  2.5203
  753MOL0     H 3874   3.687   0.322   7.376  0.8193  0.5159 -1.3061
  753MOL0     H 3875   3.618   0.432   7.259 -0.9276  0.2393  0.6569
  753MOL0     H 3876   3.394  -0.224   7.403  0.3672 -1.9103 -1.4778
  753MOL0     H 3877   3.473  -0.444   7.387 -0.9332  0.3156  0.6396
  753MOL0     H 3878   3.680  -0.729   7.495 -0.2464 -1.5327 -3.1247
  753MOL0     H 3879   3.531  -0.643   7.453  0.0794  1.1610  0.5297
  753MOL0     H 3880   3.657  -0.765   7.271  0.2708 -0.2992  0.5572
  753MOL0     H 3881   3.624  -0.587   7.230 -0.0640 -1.3929 -1.1887
  753MOL0     H 3882   3.870  -0.682   7.352 -1.3151 -1.4588  0.2085
  753MOL0     H 3883   3.840  -0.529   7.283  1.8956 -0.3927  0.3206
  753MOL0     H 3884   3.851  -0.630   7.053 -1.3257  0.3534  1.1715
  753MOL0     H 3885   3.834  -0.795   7.112  2.4652 -0.9821 -1.0795
  753MOL0     H 3886   4.083  -0.614   7.165  1.0573  0.5918 -3.0832
  753MOL0     H 3887   4.051  -0.774   7.228  0.3342 -0.3472 -2.1339
  753MOL0     H 3888   4.203  -0.754   7.051  0.0792 -2.6870 -0.2870
  753MOL0     H 3889   4.082  -0.675   6.948  0.1159 -1.4411 -1.8397
  753MOL0     H 3890   3.981  -0.943   7.035  0.2962  0.8803  1.2446
  753MOL0     H 3891   4.126  -0.950   6.944 -0.1884  0.3036  0.1725
  753MOL0     H 3892   3.879  -0.807   6.852  0.1069  0.3923 -2.6669
  753MOL0     H 3893   3.950  -0.949   6.786  0.0687  0.4447  0.2363
  753MOL0     H 3894   3.800  -0.346   7.657 -1.7394  0.0691  1.9029
  753MOL0     H 3895   3.723  -0.103   7.637  0.9598 -0.3213  0.1324
  753MOL0     H 3896   3.320   0.143   7.640 -0.3461  2.6445  2.3405
  753MOL0     H 3897   3.159   0.309   7.603 -1.2760  1.1465 -1.9542
  753MOL0     H 3898   3.698   1.024   7.675  0.4893  0.1334 -1.6736
  753MOL0     H 3899   3.924   1.077   7.629 -0.0745 -0.6566 -0.8233
  753MOL0     H 3900   4.372   1.374   7.892  1.9238 -0.6636 -1.1313
  753MOL0     H 3901   4.593   1.438   7.789 -1.2702 -1.2822  1.8677
  753MOL0     H 3902   4.600   1.541   7.360 -2.2032  0.2128  2.2615
  753MOL0     H 3903   4.772   1.506   7.384  0.4403 -2.0180  0.4951
  753MOL0     H 3904   4.551   1.310   7.341 -0.3821  0.0405 -2.0152
  753MOL0     H 3905   4.723   1.258   7.372 -3.1909 -1.1222  1.9241
  753MOL0     H 3906   4.605   1.395   7.122  0.3971 -1.5165 -2.1960
  753MOL0     H 3907   4.777   1.416   7.170 -0.3558  0.7914  0.5685
  753MOL0     H 3908   4.696   1.226   7.002  0.0166 -1.6466 -0.3127
  753MOL0     H 3909   4.639   1.150   7.148  0.4263  0.2631  0.7554
  753MOL0     H 3910   5.045   1.049   7.146  2.1632  2.9460 -1.6963
  753MOL0     H 3911   4.416   1.463   7.406  0.0024  1.8639 -0.2353
  753MOL0     H 3912   4.132   1.374   7.423  1.1275  0.2108 -1.5436
  753MOL0     H 3913   4.090   1.516   7.526  1.2689  2.1132 -0.5769
  753MOL0     H 3914   4.209   1.533   7.397  3.0416  1.6398  2.2294
  754MOL0     O 3915   7.110   6.980   7.016 -0.1880 -0.7856 -0.2981
  754MOL0     C 3916   7.052   6.939   6.916  0.8425 -0.8651  0.1088
  754MOL0     O 3917   7.101   6.954   6.793  0.1099  0.5469  0.5236
  754MOL0     C 3918   7.234   6.979   6.777 -1.1649 -0.3707  0.9220
  754MOL0     C 3919   7.330   6.908   6.839 -0.2760  0.5965  0.1742
  754MOL0     C 3920   7.469   6.937   6.815 -0.1902  0.5021 -0.1072
  754MOL0     C 3921   7.515   7.046   6.743 -0.1901  0.4115 -0.1320
  754MOL0     O 3922   7.648   7.061   6.740  0.0824  0.2737  0.6113
  754MOL0     C 3923   7.711   7.192   6.730  0.7812 -0.8159 -0.3534
  754MOL0     C 3924   7.859   7.177   6.759 -1.1205 -0.0780  0.2679
  754MOL0     C 3925   7.927   7.316   6.755 -0.6823  0.8443  0.7161
  754MOL0     C 3926   8.077   7.298   6.767  0.6406 -0.4809  0.3422
  754MOL0     C 3927   8.116   7.282   6.914  0.1535  0.4231 -0.4508
  754MOL0     C 3928   8.267   7.255   6.914  0.5704  0.0040  0.7748
  754MOL0     C 3929   8.328   7.246   7.053 -0.2014  0.6207 -0.4280
  754MOL0     C 3930   8.320   7.383   7.128 -0.3192 -0.0285 -0.8402
  754MOL0     N 3931   8.401   7.397   7.251 -0.2425  1.0791  0.5302
  754MOL0     C 3932   8.515   7.468   7.266 -0.4832  0.2868  0.0759
  754MOL0     C 3933   8.544   7.458   7.389 -0.6163  0.3471 -0.3077
  754MOL0     C 3934   8.666   7.526   7.452 -1.1599  0.1947  0.6017
  754MOL0     C 3935   8.805   7.453   7.464 -0.1183  0.2929 -0.2767
  754MOL0     C 3936   8.911   7.546   7.514  0.1826  0.7899 -0.1316
  754MOL0     C 3937   9.052   7.482   7.503 -0.2046  0.6981  0.9827
  754MOL0     O 3938   9.084   7.503   7.360 -1.2295 -0.0558  1.3889
  754MOL0     C 3939   9.197   7.438   7.315  0.0348  0.6629 -0.3646
  754MOL0     C 3940   9.304   7.383   7.391 -1.0719  0.0627  0.1204
  754MOL0     C 3941   9.399   7.296   7.335 -0.6377 -0.7312 -1.3395
  754MOL0     C 3942   9.497   7.236   7.434 -0.4390 -0.3856  0.8077
  754MOL0     C 3943   9.396   7.270   7.197 -0.3191 -0.8523  0.3276
  754MOL0     C 3944   9.492   7.189   7.122  0.3604 -0.4595  1.1171
  754MOL0     O 3945   9.518   7.220   6.987  0.3725 -0.2214 -0.7422
  754MOL0     C 3946   9.587   7.136   6.905 -0.4580 -0.1375  0.5347
  754MOL0     C 3947   9.534   7.116   6.778 -0.2361  1.1025 -0.0579
  754MOL0     C 3948   9.605   7.037   6.690 -0.5122  0.1764 -0.2582
  754MOL0     C 3949   9.715   6.960   6.729  0.2153  0.0863 -0.6257
  754MOL0     O 3950   9.787   6.882   6.640 -0.2010 -0.3447 -0.2198
  754MOL0     C 3951   9.820   6.939   6.519  0.1442 -1.0008  0.0869
  754MOL0     C 3952   9.955   6.882   6.481 -0.1424  0.2796 -0.1274
  754MOL0     C 3953   9.936   6.726   6.475 -0.8193 -0.0750 -0.5383
  754MOL0     C 3954  10.068   6.650   6.451  0.0998 -0.3570  0.4481
  754MOL0     C 3955  10.038   6.498   6.454  0.3737  0.0516 -0.3229
  754MOL0     C 3956  10.169   6.432   6.416  0.3949  0.0020  0.0684
  754MOL0     C 3957  10.169   6.282   6.454  0.5052 -0.0182  0.0053
  754MOL0     C 3958  10.309   6.228   6.445 -0.0092  0.0471  0.0245
  754MOL0    Cl 3959  10.441   6.311   6.538 -0.1600  0.5600  0.0308
  754MOL0     C 3960   9.758   6.969   6.858  0.8719  0.1712  0.0264
  754MOL0     C 3961   9.693   7.055   6.947 -0.1202  0.9241  0.5162
  754MOL0     O 3962   9.540   7.088   7.173  0.1728 -0.0397  0.5431
  754MOL0     C 3963   9.299   7.342   7.117 -1.1159  0.1599  0.4772
  754MOL0     C 3964   9.200   7.419   7.183 -0.1927  0.1905 -0.3622
  754MOL0     N 3965   8.464   7.374   7.457 -0.0286 -0.5534  0.0502
  754MOL0     N 3966   8.377   7.339   7.370  0.6666 -0.5560 -0.8487
  754MOL0     C 3967   7.421   7.117   6.680 -0.3164 -1.0645 -0.3624
  754MOL0     C 3968   7.280   7.094   6.698  0.1486  0.2975  0.2886
  754MOL0     C 3969   6.908   6.875   6.913 -0.9199 -0.0785  0.2028
  754MOL0     C 3970   6.885   6.767   6.818 -0.1310  0.8803  0.1597
  754MOL0     C 3971   6.763   6.708   6.813 -0.1527 -0.0664 -0.0353
  754MOL0     C 3972   6.660   6.742   6.901  0.4707 -0.0940  0.2151
  754MOL0     O 3973   6.546   6.664   6.891 -0.8483 -0.3151 -1.1423
  754MOL0     C 3974   6.442   6.684   6.981 -0.9288 -0.4012  0.4481
  754MOL0     C 3975   6.493   6.641   7.121  0.5356 -0.6610  0.6279
  754MOL0     C 3976   6.383   6.640   7.228  0.9396 -0.6031  0.0840
  754MOL0     C 3977   6.313   6.779   7.248 -0.3485  0.1214 -0.4599
  754MOL0     C 3978   6.419   6.877   7.284  0.3380 -0.2107 -0.1860
  754MOL0     C 3979   6.522   6.940   7.318  1.3677 -0.0039  0.3438
  754MOL0     C 3980   6.682   6.853   6.986 -0.4115  0.2330  0.0843
  754MOL0     C 3981   6.807   6.923   6.994 -0.2380  0.6785  0.1031
  754MOL0     C 3982   6.818   7.037   7.096 -0.4122  0.2936  0.8859
  754MOL0     H 3983   7.300   6.826   6.903 -0.4157 -0.3395 -1.0467
  754MOL0     H 3984   7.548   6.873   6.853  2.3227  2.7804 -1.1791
  754MOL0     H 3985   7.672   7.260   6.806 -1.1288  0.1224 -2.0744
  754MOL0     H 3986   7.693   7.234   6.631 -0.3207  3.6654  1.4876
  754MOL0     H 3987   7.865   7.127   6.856 -0.7288  0.1891  0.3822
  754MOL0     H 3988   7.913   7.118   6.684  0.3486  4.9903 -3.1741
  754MOL0     H 3989   7.909   7.375   6.665  2.8018  1.7251  0.4694
  754MOL0     H 3990   7.896   7.381   6.838 -3.1789  0.9090 -0.1638
  754MOL0     H 3991   8.105   7.211   6.707  0.4300  0.2391 -0.8261
  754MOL0     H 3992   8.113   7.395   6.732 -1.9179  0.7545  0.8888
  754MOL0     H 3993   8.062   7.204   6.967 -3.1460  3.1936  0.6249
  754MOL0     H 3994   8.085   7.373   6.967 -3.4398 -1.9433  1.9863
  754MOL0     H 3995   8.282   7.158   6.866  0.7499 -0.5700  1.9617
  754MOL0     H 3996   8.325   7.330   6.859  1.4939 -0.1342  1.5263
  754MOL0     H 3997   8.436   7.229   7.045 -0.0392  0.6815  1.2789
  754MOL0     H 3998   8.279   7.165   7.107 -2.2106  3.1242  1.7651
  754MOL0     H 3999   8.336   7.464   7.057  1.8376 -0.0851 -0.4643
  754MOL0     H 4000   8.220   7.394   7.173  1.8131  2.2362  4.0656
  754MOL0     H 4001   8.578   7.517   7.192  0.1513  2.7203  2.1190
  754MOL0     H 4002   8.645   7.544   7.558  2.0652  0.3440  1.3215
  754MOL0     H 4003   8.699   7.613   7.394 -0.7764  0.3316  1.0153
  754MOL0     H 4004   8.794   7.375   7.539  0.4575  1.0219  0.5858
  754MOL0     H 4005   8.832   7.400   7.373  0.7451  1.5914 -0.8045
  754MOL0     H 4006   8.906   7.638   7.455 -0.5099  1.5906  1.1412
  754MOL0     H 4007   8.896   7.576   7.618  0.8168  0.5990  0.0175
  754MOL0     H 4008   9.123   7.525   7.575  0.9562 -2.4622  1.9007
  754MOL0     H 4009   9.042   7.375   7.526  3.3914  0.3891  1.6512
  754MOL0     H 4010   9.309   7.404   7.498 -1.5350  1.7036 -0.1486
  754MOL0     H 4011   9.531   7.137   7.404  0.6668  0.0497  0.5907
  754MOL0     H 4012   9.450   7.215   7.530 -5.4508  0.8976 -1.0389
  754MOL0     H 4013   9.582   7.302   7.449  0.7754 -1.7288  0.0599
  754MOL0     H 4014   9.453   7.175   6.738  0.3816  2.7446  0.9826
  754MOL0     H 4015   9.577   7.022   6.586  1.4721 -1.0699 -0.6753
  754MOL0     H 4016   9.741   6.925   6.444  0.0261  0.4394 -0.0863
  754MOL0     H 4017   9.823   7.047   6.536 -2.0026 -0.4965 -2.0629
  754MOL0     H 4018   9.988   6.931   6.389  0.3285 -0.1452 -0.1906
  754MOL0     H 4019  10.030   6.898   6.559  0.2554  3.5738 -1.0459
  754MOL0     H 4020   9.862   6.704   6.398  0.3411  0.9105 -1.9769
  754MOL0     H 4021   9.906   6.688   6.573 -3.1488  5.0798  1.0965
  754MOL0     H 4022  10.141   6.670   6.530 -0.5158 -0.7852  1.1439
  754MOL0     H 4023  10.117   6.695   6.364  0.5539  3.6290  2.4970
  754MOL0     H 4024  10.008   6.479   6.558 -0.2838 -1.1205 -0.6978
  754MOL0     H 4025   9.955   6.468   6.390 -0.5217  1.7693 -0.0186
  754MOL0     H 4026  10.253   6.482   6.465 -0.0173  1.1210 -0.3319
  754MOL0     H 4027  10.171   6.442   6.307 -5.0110  1.7347 -0.1797
  754MOL0     H 4028  10.102   6.219   6.394 -0.5874  1.4298 -0.3705
  754MOL0     H 4029  10.134   6.279   6.558 -1.0330 -0.5302 -0.4907
  754MOL0     H 4030  10.345   6.230   6.341  2.0206 -2.7331  0.5501
  754MOL0     H 4031  10.309   6.124   6.478 -1.3036  0.2612  0.7248
  754MOL0     H 4032   9.843   6.906   6.883 -0.3394 -1.7035 -0.3570
  754MOL0     H 4033   9.741   7.092   7.036 -0.1950  0.3408  0.8052
  754MOL0     H 4034   9.291   7.324   7.010 -0.5126  0.1345  0.4351
  754MOL0     H 4035   9.120   7.453   7.117 -1.7770 -0.1847  1.3030
  754MOL0     H 4036   7.459   7.191   6.611  1.8521 -0.6772  1.1540
  754MOL0     H 4037   7.208   7.152   6.642  0.8442  0.3315 -0.6034
  754MOL0     H 4038   6.967   6.733   6.755 -0.2841  0.5603  0.1343
  754MOL0     H 4039   6.759   6.630   6.738 -1.1188 -1.1055  1.0542
  754MOL0     H 4040   6.412   6.789   6.989 -1.6846 -0.6925  1.6080
  754MOL0     H 4041   6.349   6.631   6.956 -0.7338  0.3238 -2.1089
  754MOL0     H 4042   6.577   6.697   7.163 -0.6206  2.0964 -0.4898
  754MOL0     H 4043   6.534   6.540   7.107  0.3390 -1.4384  4.5536
  754MOL0     H 4044   6.304   6.566   7.210 -1.4045  1.5245  0.8830
  754MOL0     H 4045   6.427   6.616   7.325 -2.9656  0.2838  2.3014
  754MOL0     H 4046   6.233   6.763   7.321 -0.1878 -0.7498 -0.4661
  754MOL0     H 4047   6.264   6.808   7.154 -2.2548  1.8766  0.9699
  754MOL0     H 4048   6.610   6.988   7.355  3.1029 -0.4391 -2.9078
  754MOL0     H 4049   6.606   6.893   7.053 -0.5362  3.7363 -1.9440
  754MOL0     H 4050   6.720   7.077   7.122 -1.6354 -0.1063 -2.6493
  754MOL0     H 4051   6.852   6.980   7.183  1.8471 -3.2800 -2.0054
  754MOL0     H 4052   6.885   7.114   7.056  0.3785 -0.4721  0.7259
  755MOL0     O 4053   4.312   8.240   7.093  0.8427 -0.7833 -0.0610
  755MOL0     C 4054   4.257   8.153   7.158 -0.5689 -0.6421 -0.4294
  755MOL0     O 4055   4.283   8.132   7.292  0.7199 -0.1966 -1.4998
  755MOL0     C 4056   4.369   8.210   7.365 -0.5748 -0.0063  0.6089
  755MOL0     C 4057   4.335   8.294   7.471  0.5638 -0.9059 -0.3292
  755MOL0     C 4058   4.431   8.383   7.527  0.4188  0.1412  0.4877
  755MOL0     C 4059   4.561   8.380   7.492 -0.0152  0.4608  0.8633
  755MOL0     O 4060   4.647   8.471   7.549 -0.1837 -0.2316  0.6731
  755MOL0     C 4061   4.741   8.419   7.646 -0.2657  0.6947  0.7801
  755MOL0     C 4062   4.674   8.387   7.773  0.9056  0.6264 -0.7705
  755MOL0     C 4063   4.622   8.513   7.858 -0.4706  0.0214 -1.0422
  755MOL0     C 4064   4.578   8.478   8.003 -0.3280 -0.0579 -0.1468
  755MOL0     C 4065   4.533   8.601   8.074  0.2238 -0.5680  0.4008
  755MOL0     C 4066   4.405   8.671   8.016 -0.2924 -0.0873  0.1216
  755MOL0     C 4067   4.314   8.750   8.112 -0.4944 -0.2083  0.0880
  755MOL0     C 4068   4.187   8.787   8.020 -1.1889 -0.2858 -1.1263
  755MOL0     N 4069   4.093   8.675   7.989 -0.1494  0.0741 -1.1328
  755MOL0     C 4070   4.120   8.583   7.894 -0.0586  1.5721 -0.3288
  755MOL0     C 4071   4.023   8.489   7.913  0.7343  0.5153  0.2175
  755MOL0     C 4072   3.992   8.354   7.842  0.0927 -0.2638 -0.0440
  755MOL0     C 4073   4.101   8.257   7.856  0.4452 -0.1812  1.0438
  755MOL0     C 4074   4.047   8.121   7.828  0.9675 -0.2476  0.6214
  755MOL0     C 4075   4.166   8.024   7.801 -0.5943  0.4769  0.3123
  755MOL0     O 4076   4.253   8.073   7.698 -0.6623 -0.6125 -0.0166
  755MOL0     C 4077   4.383   8.038   7.724  0.5393  0.4260  0.7202
  755MOL0     C 4078   4.457   7.985   7.616 -0.1179  0.5385  0.4022
  755MOL0     C 4079   4.586   7.923   7.629 -0.1000 -0.2719  0.8661
  755MOL0     C 4080   4.654   7.877   7.506 -0.3839  0.4815  0.6878
  755MOL0     C 4081   4.649   7.921   7.757  0.0910  0.2379 -1.1956
  755MOL0     C 4082   4.780   7.857   7.777 -0.2798  1.1545 -0.5581
  755MOL0     O 4083   4.858   7.817   7.673  0.8724  0.2073 -0.5948
  755MOL0     C 4084   4.956   7.719   7.684  0.1283 -0.4143 -0.2929
  755MOL0     C 4085   4.934   7.581   7.708 -0.2960 -0.3957 -0.2396
  755MOL0     C 4086   5.043   7.488   7.723 -0.6407 -0.6499 -0.3524
  755MOL0     C 4087   5.174   7.535   7.684  0.2466  0.5745 -0.9843
  755MOL0     O 4088   5.263   7.432   7.681  0.7054 -0.3270 -0.3330
  755MOL0     C 4089   5.398   7.447   7.634 -0.2563 -0.5138  0.1956
  755MOL0     C 4090   5.503   7.486   7.744  0.2382  0.0795 -0.2268
  755MOL0     C 4091   5.509   7.392   7.868 -1.0981  0.3611  0.8523
  755MOL0     C 4092   5.627   7.290   7.846  0.1611 -0.2410 -0.4554
  755MOL0     C 4093   5.662   7.214   7.979  0.5745  0.0725  0.2403
  755MOL0     C 4094   5.571   7.086   8.011 -0.3841  0.2382  0.3659
  755MOL0     C 4095   5.620   7.013   8.138 -0.3790 -0.6863 -0.5408
  755MOL0     C 4096   5.724   6.912   8.116  0.4537  0.4094  0.2145
  755MOL0    Cl 4097   5.787   6.826   8.265  0.3770  0.2132 -0.6500
  755MOL0     C 4098   5.195   7.672   7.650  0.1024  0.1052  0.0003
  755MOL0     C 4099   5.090   7.757   7.659  0.2799  0.3646 -0.3049
  755MOL0     O 4100   4.785   7.811   7.890 -0.0007  0.8706  0.7471
  755MOL0     C 4101   4.587   7.997   7.862  0.3519  0.2906  0.2980
  755MOL0     C 4102   4.454   8.048   7.840  0.5828 -0.1492 -0.1885
  755MOL0     N 4103   3.936   8.539   8.017 -0.3764  1.2352  0.0022
  755MOL0     N 4104   3.977   8.646   8.064 -0.0735 -0.3892  0.4998
  755MOL0     C 4105   4.601   8.299   7.387 -0.0658  0.9802  0.4260
  755MOL0     C 4106   4.509   8.215   7.329 -0.3352 -0.0385 -0.4236
  755MOL0     C 4107   4.167   8.049   7.089  0.1604 -0.0805 -0.5077
  755MOL0     C 4108   4.130   7.936   7.165  0.0580 -0.4509 -1.2271
  755MOL0     C 4109   4.055   7.836   7.106  0.2153  0.2800 -0.0809
  755MOL0     C 4110   4.008   7.846   6.978  0.0286  0.8506 -0.2468
  755MOL0     O 4111   3.909   7.754   6.947  0.1828 -0.1347 -0.1130
  755MOL0     C 4112   3.842   7.763   6.825  0.4844 -0.5760  0.7778
  755MOL0     C 4113   3.694   7.720   6.847  0.2824  0.1095  0.2978
  755MOL0     C 4114   3.597   7.828   6.905 -0.1171  0.7711  0.0994
  755MOL0     C 4115   3.612   7.840   7.063  0.3114  0.1333  0.3857
  755MOL0     C 4116   3.509   7.934   7.118 -0.8089  0.8680 -0.0244
  755MOL0     C 4117   3.438   8.022   7.176  0.7091  0.1866 -0.0743
  755MOL0     C 4118   4.049   7.944   6.895 -0.9043  0.3922 -0.1367
  755MOL0     C 4119   4.127   8.047   6.950  0.3144 -0.1238  0.3855
  755MOL0     C 4120   4.135   8.163   6.854 -0.0651 -0.7482  0.5650
  755MOL0     H 4121   4.232   8.285   7.502  0.9106 -1.4738  0.7279
  755MOL0     H 4122   4.392   8.447   7.606 -2.5105 -0.0994 -0.6130
  755MOL0     H 4123   4.825   8.487   7.663 -0.8288  1.4661  0.5393
  755MOL0     H 4124   4.788   8.326   7.614 -4.3259 -0.7603 -1.7570
  755MOL0     H 4125   4.583   8.332   7.746  0.9164 -0.2378  0.7861
  755MOL0     H 4126   4.735   8.316   7.829 -0.5735 -1.1393 -1.3115
  755MOL0     H 4127   4.707   8.582   7.865 -1.1338  0.6781  3.1485
  755MOL0     H 4128   4.541   8.571   7.811 -1.1519  0.0153  0.0974
  755MOL0     H 4129   4.501   8.400   8.010 -2.3933  1.9830  1.5083
  755MOL0     H 4130   4.663   8.435   8.057  0.5592 -1.8482 -2.7404
  755MOL0     H 4131   4.617   8.669   8.059  1.1793 -1.8858 -0.4995
  755MOL0     H 4132   4.511   8.575   8.178 -2.9896  2.0366  0.5077
  755MOL0     H 4133   4.426   8.723   7.923  0.7224  0.6724  0.7570
  755MOL0     H 4134   4.347   8.584   7.983  0.4590 -0.8184  0.6961
  755MOL0     H 4135   4.362   8.844   8.142  0.4036 -0.9223  0.9387
  755MOL0     H 4136   4.283   8.690   8.198  1.5149  0.2145  1.1691
  755MOL0     H 4137   4.135   8.861   8.083  0.9392 -0.9959  1.6763
  755MOL0     H 4138   4.207   8.841   7.927 -2.3248  0.4248 -0.9809
  755MOL0     H 4139   4.205   8.581   7.827  0.1326  1.2181 -0.0811
  755MOL0     H 4140   3.971   8.378   7.738  0.3891  0.4595  0.0574
  755MOL0     H 4141   3.903   8.309   7.888 -0.9479  2.4523  0.7876
  755MOL0     H 4142   4.187   8.276   7.791  0.6760 -2.3481  0.6416
  755MOL0     H 4143   4.136   8.264   7.959  2.2623 -1.2504  0.5576
  755MOL0     H 4144   4.004   8.080   7.920  3.4276 -1.6319  1.2407
  755MOL0     H 4145   3.986   8.116   7.738  2.9741 -2.5629 -0.7397
  755MOL0     H 4146   4.218   8.005   7.895  1.3612  2.6546 -0.2156
  755MOL0     H 4147   4.130   7.930   7.759  0.4492  0.8617 -1.5906
  755MOL0     H 4148   4.415   7.986   7.516  1.5025 -0.7502 -0.3624
  755MOL0     H 4149   4.580   7.893   7.427  2.8393  1.2307 -2.3921
  755MOL0     H 4150   4.669   7.769   7.501  2.1834  0.8138 -3.7890
  755MOL0     H 4151   4.750   7.926   7.489  0.5665 -1.7522 -0.7221
  755MOL0     H 4152   4.833   7.543   7.708 -0.1471 -1.3028 -4.3788
  755MOL0     H 4153   5.025   7.381   7.724  1.8746 -1.1425  0.1375
  755MOL0     H 4154   5.435   7.354   7.590 -2.0449 -1.4724  0.6207
  755MOL0     H 4155   5.388   7.522   7.555 -3.1245 -0.9233  0.0641
  755MOL0     H 4156   5.598   7.495   7.691 -0.0490 -1.0884 -0.9757
  755MOL0     H 4157   5.489   7.589   7.778  0.1925 -0.0164  0.0482
  755MOL0     H 4158   5.416   7.338   7.887 -0.3846 -2.4349 -2.4579
  755MOL0     H 4159   5.527   7.462   7.950 -1.3890  0.3842  0.8976
  755MOL0     H 4160   5.718   7.343   7.818  0.0407  0.9216  1.1768
  755MOL0     H 4161   5.591   7.229   7.763 -3.8841  0.4304  0.5675
  755MOL0     H 4162   5.766   7.181   7.975  0.6297  0.1492  0.8464
  755MOL0     H 4163   5.665   7.282   8.065  2.3305  0.4008 -0.0323
  755MOL0     H 4164   5.559   7.031   7.917  1.8560  0.4907 -0.1433
  755MOL0     H 4165   5.470   7.124   8.027  0.3662  1.1278  3.8472
  755MOL0     H 4166   5.532   6.979   8.194 -0.4869 -1.2999 -1.0709
  755MOL0     H 4167   5.677   7.083   8.199  1.8727 -1.5719 -1.5176
  755MOL0     H 4168   5.806   6.946   8.052 -0.2688 -2.3846 -2.4584
  755MOL0     H 4169   5.677   6.835   8.054  0.4374  1.9781 -1.8134
  755MOL0     H 4170   5.290   7.719   7.627  1.7122 -1.4087  2.9267
  755MOL0     H 4171   5.106   7.859   7.627 -1.3576  0.4889 -0.8169
  755MOL0     H 4172   4.640   8.032   7.950 -1.5974  4.4412  0.0720
  755MOL0     H 4173   4.405   8.112   7.913 -0.9604 -2.1412  0.5848
  755MOL0     H 4174   4.707   8.299   7.362 -0.3473  0.4420 -0.8570
  755MOL0     H 4175   4.536   8.156   7.243  0.9127  0.1853 -0.2003
  755MOL0     H 4176   4.147   7.929   7.272  0.3138  0.1672 -1.2220
  755MOL0     H 4177   4.025   7.749   7.163 -1.5077 -1.2574 -3.1048
  755MOL0     H 4178   3.831   7.867   6.794  2.5428  0.9112  4.3784
  755MOL0     H 4179   3.896   7.708   6.748 -1.4610 -1.3032 -0.1381
  755MOL0     H 4180   3.693   7.632   6.912 -0.8618  0.8745  1.3508
  755MOL0     H 4181   3.649   7.715   6.747 -0.6875  0.0501  0.7332
  755MOL0     H 4182   3.614   7.926   6.860  0.2643 -0.2377 -2.0933
  755MOL0     H 4183   3.490   7.808   6.894 -0.5909  0.2878  4.0488
  755MOL0     H 4184   3.707   7.886   7.093  0.0406  1.4212 -0.6270
  755MOL0     H 4185   3.610   7.737   7.102 -1.1033 -0.4703 -1.1455
  755MOL0     H 4186   3.386   8.099   7.230  4.1563  2.1575  0.7384
  755MOL0     H 4187   4.010   7.959   6.795 -2.7421 -0.2051  0.4459
  755MOL0     H 4188   4.076   8.248   6.890 -1.3412 -0.9724 -0.8762
  755MOL0     H 4189   4.237   8.199   6.838  0.1090 -0.2769  2.4990
  755MOL0     H 4190   4.098   8.129   6.756  1.0328  0.3678 -0.2747
  756MOL0     O 4191   7.808   5.285   2.805 -0.7248  0.7224 -0.0575
  756MOL0     C 4192   7.739   5.351   2.729 -1.1334  0.2583  0.2824
  756MOL0     O 4193   7.675   5.312   2.610 -0.5982  0.0305  0.2115
  756MOL0     C 4194   7.706   5.186   2.564 -0.7976 -0.1223 -0.1357
  756MOL0     C 4195   7.599   5.119   2.506  0.5733  0.5805 -0.1337
  756MOL0     C 4196   7.619   4.998   2.436 -0.8524  0.0893  1.2755
  756MOL0     C 4197   7.743   4.933   2.448  0.0711  0.7441 -0.2452
  756MOL0     O 4198   7.780   4.805   2.410  0.3478 -1.0479 -0.9108
  756MOL0     C 4199   7.688   4.706   2.372  0.0077  0.0318  0.7136
  756MOL0     C 4200   7.680   4.613   2.488  0.6451 -0.1557 -0.1908
  756MOL0     C 4201   7.798   4.518   2.502 -0.3826 -0.8065  0.6726
  756MOL0     C 4202   7.814   4.401   2.399  0.9503  0.4040 -0.7743
  756MOL0     C 4203   7.920   4.297   2.447  0.2961 -0.4308 -0.7866
  756MOL0     C 4204   7.945   4.176   2.351 -0.4340  1.1256  0.1040
  756MOL0     C 4205   7.837   4.071   2.341 -0.4853 -0.6028  0.1721
  756MOL0     C 4206   7.885   3.950   2.254  0.4233  0.3630 -0.8531
  756MOL0     N 4207   7.774   3.852   2.254  0.2548 -0.8517  0.9575
  756MOL0     C 4208   7.731   3.795   2.364  0.1698 -0.3335 -0.2851
  756MOL0     C 4209   7.638   3.712   2.318  0.2954  0.7099  0.1480
  756MOL0     C 4210   7.555   3.611   2.398 -0.1307 -0.5188 -0.5856
  756MOL0     C 4211   7.409   3.653   2.429  0.3391  0.5776 -0.2725
  756MOL0     C 4212   7.377   3.784   2.494 -0.5357  1.5264 -1.0640
  756MOL0     C 4213   7.445   3.786   2.638 -0.3551  0.1944  0.1473
  756MOL0     O 4214   7.572   3.849   2.629 -0.0295  0.1785  0.2232
  756MOL0     C 4215   7.654   3.826   2.741 -0.7523 -0.1867 -0.1505
  756MOL0     C 4216   7.642   3.728   2.840  0.1027  0.3931 -0.0413
  756MOL0     C 4217   7.739   3.717   2.943  0.4857  0.2705  0.0126
  756MOL0     C 4218   7.726   3.596   3.029 -0.5914 -0.2183  0.1554
  756MOL0     C 4219   7.861   3.790   2.933  0.4129 -0.4005 -0.0406
  756MOL0     C 4220   7.984   3.777   3.027  0.2420 -0.4287 -0.2568
  756MOL0     O 4221   8.106   3.787   2.962  0.2371  0.6141 -0.2487
  756MOL0     C 4222   8.223   3.744   3.026 -0.0916  0.3941 -0.1019
  756MOL0     C 4223   8.241   3.775   3.164  0.5912 -0.2862 -0.0763
  756MOL0     C 4224   8.340   3.716   3.230 -0.6037  0.5198  0.0092
  756MOL0     C 4225   8.428   3.624   3.173 -0.4216  0.3649  0.3215
  756MOL0     O 4226   8.527   3.567   3.245 -0.5760 -0.2806 -0.4189
  756MOL0     C 4227   8.618   3.649   3.316 -0.8511  0.1883 -0.5628
  756MOL0     C 4228   8.708   3.565   3.407  0.4824  0.0018  0.2022
  756MOL0     C 4229   8.829   3.641   3.444  0.2699  0.9665 -0.5033
  756MOL0     C 4230   8.917   3.565   3.549 -0.1889  0.3942 -0.5685
  756MOL0     C 4231   9.028   3.648   3.611 -0.5151 -0.4765 -0.0904
  756MOL0     C 4232   9.154   3.653   3.517 -0.1668 -0.3672 -0.3391
  756MOL0     C 4233   9.152   3.761   3.408 -0.1914  0.7704 -0.4160
  756MOL0     C 4234   9.288   3.832   3.392 -0.1673  0.0212 -0.4914
  756MOL0    Cl 4235   9.339   3.918   3.537 -0.0005 -0.4381 -0.1427
  756MOL0     C 4236   8.396   3.572   3.045  0.3607  0.1755 -0.1550
  756MOL0     C 4237   8.290   3.629   2.972  0.0268 -0.2948 -0.1947
  756MOL0     O 4238   7.964   3.733   3.145  0.0018 -0.0939  0.2459
  756MOL0     C 4239   7.873   3.892   2.830  0.4971  0.6153 -0.8160
  756MOL0     C 4240   7.767   3.915   2.750 -0.0577  0.0215 -0.1025
  756MOL0     N 4241   7.629   3.721   2.180 -0.2320  0.4666 -1.1000
  756MOL0     N 4242   7.705   3.814   2.150 -0.3233 -1.1449  0.5832
  756MOL0     C 4243   7.848   5.008   2.492 -0.7748 -0.8323  1.5459
  756MOL0     C 4244   7.836   5.138   2.551 -0.2316 -0.6940  0.0370
  756MOL0     C 4245   7.724   5.484   2.778 -0.4663  0.4889  0.0531
  756MOL0     C 4246   7.843   5.552   2.801 -0.1309  0.9173 -0.1375
  756MOL0     C 4247   7.845   5.682   2.836 -0.0403 -1.0754 -0.3553
  756MOL0     C 4248   7.724   5.762   2.861 -0.2645  0.0678 -0.8324
  756MOL0     O 4249   7.719   5.892   2.886 -0.2506 -0.3367 -0.5344
  756MOL0     C 4250   7.840   5.968   2.907  0.1652  0.5356  0.0719
  756MOL0     C 4251   7.886   6.020   2.771 -0.3613  0.1744 -0.3959
  756MOL0     C 4252   8.034   6.075   2.771 -0.1247  0.1885 -1.4107
  756MOL0     C 4253   8.076   6.127   2.630 -0.2514  0.7085  1.0034
  756MOL0     C 4254   8.227   6.127   2.629  0.8147 -1.1774  0.1075
  756MOL0     C 4255   8.349   6.121   2.645 -0.9421  0.4525  1.4865
  756MOL0     C 4256   7.605   5.689   2.845  0.2748 -0.0659  0.2263
  756MOL0     C 4257   7.602   5.548   2.803  0.7483  0.1114 -0.1375
  756MOL0     C 4258   7.463   5.486   2.771  0.0883 -0.0789  0.4313
  756MOL0     H 4259   7.502   5.166   2.500  0.3860  0.4619  1.5103
  756MOL0     H 4260   7.550   4.949   2.369  3.5654 -0.4470 -3.4508
  756MOL0     H 4261   7.704   4.658   2.275 -4.1353  0.5063 -0.4127
  756MOL0     H 4262   7.591   4.753   2.350  1.0051  0.8361 -2.6030
  756MOL0     H 4263   7.674   4.670   2.581  1.2026 -1.5686  0.7469
  756MOL0     H 4264   7.587   4.557   2.471  0.1819  0.2316  0.9935
  756MOL0     H 4265   7.888   4.578   2.488  0.2768 -2.0178 -0.6270
  756MOL0     H 4266   7.811   4.478   2.603 -0.7941 -4.0846 -0.4318
  756MOL0     H 4267   7.716   4.353   2.393  2.2147 -2.5529  0.5687
  756MOL0     H 4268   7.846   4.436   2.300  1.8174 -0.5579 -0.8483
  756MOL0     H 4269   7.894   4.265   2.548 -1.6833  2.8033 -0.1501
  756MOL0     H 4270   8.012   4.356   2.452  0.5501 -0.9245  0.8736
  756MOL0     H 4271   7.965   4.218   2.252  3.5164  1.1605  0.7469
  756MOL0     H 4272   8.037   4.126   2.383  0.6968  0.6428 -3.4514
  756MOL0     H 4273   7.746   4.108   2.291 -1.6963 -0.3166  2.4772
  756MOL0     H 4274   7.812   4.050   2.445 -1.1551  0.3974  0.2185
  756MOL0     H 4275   7.913   3.977   2.152  0.1700  1.9374 -0.5382
  756MOL0     H 4276   7.973   3.914   2.308  0.0887  0.2308 -0.3877
  756MOL0     H 4277   7.764   3.796   2.468  1.5295  2.5226 -0.6299
  756MOL0     H 4278   7.593   3.598   2.500  3.5651  1.3041 -1.5796
  756MOL0     H 4279   7.561   3.518   2.342  2.0381  0.4265 -2.0478
  756MOL0     H 4280   7.364   3.652   2.329  0.3885  0.3444 -0.2925
  756MOL0     H 4281   7.363   3.569   2.482  3.0425 -0.2158  0.9757
  756MOL0     H 4282   7.414   3.867   2.434  2.4507  0.3787 -0.9679
  756MOL0     H 4283   7.268   3.795   2.495 -0.8264 -0.1791 -3.7419
  756MOL0     H 4284   7.387   3.843   2.712  2.8228  0.2698  2.7964
  756MOL0     H 4285   7.442   3.680   2.665 -3.2272  0.0728 -0.3083
  756MOL0     H 4286   7.555   3.663   2.835 -1.8509  2.8333  0.5648
  756MOL0     H 4287   7.650   3.532   2.984  0.1371 -0.9897 -0.0085
  756MOL0     H 4288   7.696   3.610   3.134 -3.1270 -6.1637  0.6188
  756MOL0     H 4289   7.822   3.543   3.027 -0.6231 -0.2570 -0.4733
  756MOL0     H 4290   8.175   3.842   3.218 -0.0700 -0.9989  0.0208
  756MOL0     H 4291   8.357   3.754   3.330  2.4982  0.6534 -0.4665
  756MOL0     H 4292   8.673   3.694   3.233 -0.9773  1.1083 -0.1700
  756MOL0     H 4293   8.563   3.730   3.366 -0.4688  0.2763 -0.2763
  756MOL0     H 4294   8.656   3.532   3.497  0.5375 -1.1420 -0.1780
  756MOL0     H 4295   8.745   3.478   3.353 -2.2246 -1.0129 -0.1640
  756MOL0     H 4296   8.813   3.740   3.488  1.7988  0.5977  1.0330
  756MOL0     H 4297   8.895   3.649   3.357  0.6389 -3.4583 -0.8765
  756MOL0     H 4298   8.958   3.472   3.508  2.1972  0.9034  0.5041
  756MOL0     H 4299   8.852   3.524   3.627 -1.2783  2.2000 -0.4779
  756MOL0     H 4300   8.990   3.741   3.654 -2.7293 -1.4558  0.1935
  756MOL0     H 4301   9.064   3.599   3.702 -2.6087  0.7451  1.4888
  756MOL0     H 4302   9.168   3.562   3.458 -2.8605  0.2828 -2.2009
  756MOL0     H 4303   9.235   3.669   3.589  0.4213 -2.8436 -0.3633
  756MOL0     H 4304   9.089   3.839   3.452  1.0618  1.2581  0.5627
  756MOL0     H 4305   9.108   3.718   3.318 -1.3439 -1.2329  1.0339
  756MOL0     H 4306   9.283   3.903   3.309 -0.7573  3.0812  1.9745
  756MOL0     H 4307   9.364   3.756   3.371  2.0923  2.1271 -0.4100
  756MOL0     H 4308   8.453   3.503   2.984  2.4575  3.0342 -1.6669
  756MOL0     H 4309   8.257   3.594   2.875 -0.1296  1.9496 -0.9976
  756MOL0     H 4310   7.960   3.956   2.820  0.1629  0.9575 -1.7399
  756MOL0     H 4311   7.757   3.991   2.674 -0.4001 -1.0069 -1.1273
  756MOL0     H 4312   7.948   4.971   2.476 -0.8558 -0.2505 -0.5239
  756MOL0     H 4313   7.927   5.184   2.589 -0.9585 -0.0418  1.0707
  756MOL0     H 4314   7.942   5.508   2.798 -1.0255 -1.2146  0.0915
  756MOL0     H 4315   7.939   5.734   2.843 -0.5280 -0.3139  0.7554
  756MOL0     H 4316   7.802   6.053   2.965 -0.9920 -1.1294  1.9021
  756MOL0     H 4317   7.916   5.913   2.962  2.1809  2.5058 -0.6103
  756MOL0     H 4318   7.807   6.091   2.743  0.0810  1.4933  1.5104
  756MOL0     H 4319   7.886   5.933   2.704 -1.9078 -0.6345  0.5686
  756MOL0     H 4320   8.040   6.155   2.846 -2.0637 -1.0933  0.2527
  756MOL0     H 4321   8.101   6.000   2.814 -2.2702 -0.0276  1.9436
  756MOL0     H 4322   8.029   6.223   2.605  0.2089  0.3756 -1.3783
  756MOL0     H 4323   8.045   6.059   2.550  0.7514  1.0585  0.2976
  756MOL0     H 4324   8.456   6.113   2.640 -1.1135 -2.3774 -0.0323
  756MOL0     H 4325   7.507   5.731   2.864  0.5407  0.5006  0.3967
  756MOL0     H 4326   7.459   5.379   2.793  0.8714  0.1248  1.6392
  756MOL0     H 4327   7.385   5.541   2.824  0.4801 -0.3370  1.3003
  756MOL0     H 4328   7.443   5.488   2.664 -2.8680  0.9383  0.9014
  757MOL0     O 4329   3.890   9.139   1.997 -0.4351 -0.1148  0.0069
  757MOL0     C 4330   3.798   9.125   1.917 -0.0202  0.3078 -0.2359
  757MOL0     O 4331   3.816   9.136   1.781 -0.5783  0.0167  0.2590
  757MOL0     C 4332   3.947   9.152   1.741 -0.7883  0.8323 -1.2024
  757MOL0     C 4333   4.001   9.280   1.743 -0.8759  0.8749  0.1111
  757MOL0     C 4334   4.127   9.309   1.698  0.1002  0.4664 -1.2181
  757MOL0     C 4335   4.211   9.199   1.666 -0.1222  0.8116  0.4085
  757MOL0     O 4336   4.343   9.230   1.638  0.0306 -0.4712 -0.2155
  757MOL0     C 4337   4.428   9.144   1.569 -0.3508  0.7823  0.1302
  757MOL0     C 4338   4.417   9.165   1.415  0.3840 -0.2514 -0.9067
  757MOL0     C 4339   4.449   9.310   1.368 -0.2386  0.2707 -0.5438
  757MOL0     C 4340   4.593   9.328   1.323  0.0323 -0.1291  0.0877
  757MOL0     C 4341   4.594   9.469   1.250  0.4971 -0.0919  0.2183
  757MOL0     C 4342   4.697   9.471   1.133 -0.0934 -0.0369 -0.7058
  757MOL0     C 4343   4.683   9.607   1.060 -0.2767  0.1738  0.3284
  757MOL0     C 4344   4.798   9.640   0.961  1.2539  0.2483  0.1438
  757MOL0     N 4345   4.836   9.530   0.871  0.4122  0.4336 -0.2541
  757MOL0     C 4346   4.961   9.480   0.862  0.7759  0.7892  0.4250
  757MOL0     C 4347   4.946   9.395   0.757  0.7592  0.0135 -0.1797
  757MOL0     C 4348   5.056   9.315   0.692 -1.2744  0.4311 -0.0362
  757MOL0     C 4349   5.106   9.208   0.788  0.3360 -0.2922  0.5366
  757MOL0     C 4350   5.234   9.140   0.735  0.4598 -0.4220  0.0582
  757MOL0     C 4351   5.358   9.237   0.728 -0.6273  0.7343 -0.0142
  757MOL0     O 4352   5.468   9.168   0.779  0.5832  1.0847  0.1601
  757MOL0     C 4353   5.586   9.225   0.773 -0.8713  0.5259  0.6495
  757MOL0     C 4354   5.692   9.130   0.783  0.3302 -0.0596 -0.0681
  757MOL0     C 4355   5.833   9.176   0.779  0.1851  1.0418  0.2863
  757MOL0     C 4356   5.946   9.075   0.771 -0.7222 -0.0864  1.3133
  757MOL0     C 4357   5.854   9.316   0.794 -0.0642  0.5113 -0.7949
  757MOL0     C 4358   5.994   9.373   0.816  0.7990  0.0006 -0.0862
  757MOL0     O 4359   6.082   9.303   0.887  0.0676  0.1044 -0.2351
  757MOL0     C 4360   6.206   9.356   0.915  0.4646 -0.1969 -0.0257
  757MOL0     C 4361   6.281   9.425   0.818 -0.0477 -0.0318  0.6746
  757MOL0     C 4362   6.404   9.478   0.842 -0.6156  0.4283 -0.5686
  757MOL0     C 4363   6.464   9.453   0.968 -0.0313 -0.2632  0.3655
  757MOL0     O 4364   6.592   9.504   0.974 -0.4193  0.2909  0.2313
  757MOL0     C 4365   6.671   9.478   1.087 -0.3811  1.1641 -0.6561
  757MOL0     C 4366   6.814   9.507   1.042  0.5805 -1.6840  0.6848
  757MOL0     C 4367   6.903   9.518   1.167  0.8527  0.9579 -0.3348
  757MOL0     C 4368   7.020   9.599   1.131 -0.4453 -0.5513  0.3163
  757MOL0     C 4369   7.136   9.592   1.235 -0.0720 -0.8362  0.5822
  757MOL0     C 4370   7.133   9.670   1.369  0.0974  0.0975 -0.8831
  757MOL0     C 4371   7.245   9.627   1.459 -0.5592  0.2598 -0.4782
  757MOL0     C 4372   7.239   9.678   1.596  0.0455 -0.0408  0.1693
  757MOL0    Cl 4373   7.376   9.606   1.690  0.2538  0.1161  0.1455
  757MOL0     C 4374   6.391   9.388   1.068 -0.0130  0.6189 -0.4395
  757MOL0     C 4375   6.256   9.341   1.044  0.0855 -0.2762 -0.3185
  757MOL0     O 4376   6.009   9.491   0.768  0.3600  0.5887  0.3053
  757MOL0     C 4377   5.745   9.401   0.766  0.8535 -0.7006 -1.3787
  757MOL0     C 4378   5.615   9.360   0.749  0.5512 -0.3453  0.0858
  757MOL0     N 4379   4.814   9.385   0.729  0.4801  0.7680  0.3250
  757MOL0     N 4380   4.744   9.472   0.794 -0.0618 -0.3161 -1.0169
  757MOL0     C 4381   4.158   9.069   1.665  0.4265  0.3568  0.1500
  757MOL0     C 4382   4.025   9.048   1.693  0.7520  0.7914  0.1420
  757MOL0     C 4383   3.665   9.086   1.960  0.2661  1.0767 -0.4993
  757MOL0     C 4384   3.569   9.050   1.862  0.2092  0.8129  0.3113
  757MOL0     C 4385   3.436   9.014   1.898  0.5886  0.1110 -0.5498
  757MOL0     C 4386   3.409   8.992   2.038  0.3192 -0.0257  0.7499
  757MOL0     O 4387   3.270   8.967   2.050 -0.6792  0.3223 -0.3448
  757MOL0     C 4388   3.223   8.952   2.186 -1.1573 -0.0637 -0.0886
  757MOL0     C 4389   3.066   8.939   2.204 -0.0629 -0.1670 -0.0021
  757MOL0     C 4390   3.011   8.868   2.330 -0.1884 -0.9813 -0.2632
  757MOL0     C 4391   2.856   8.866   2.321  0.1465 -0.2345  0.4460
  757MOL0     C 4392   2.788   8.815   2.438  0.2487  0.3413 -0.6453
  757MOL0     C 4393   2.733   8.785   2.545  0.0262 -0.0008 -0.6142
  757MOL0     C 4394   3.504   8.995   2.130 -0.4704 -0.0300  0.0120
  757MOL0     C 4395   3.633   9.054   2.099  0.7316  0.0333  0.7116
  757MOL0     C 4396   3.718   9.081   2.225 -0.2942  0.0499 -0.0151
  757MOL0     H 4397   3.945   9.366   1.778 -1.7074  1.1453 -1.7893
  757MOL0     H 4398   4.155   9.413   1.678 -1.4141  0.6352 -2.6554
  757MOL0     H 4399   4.414   9.037   1.585 -1.2311  0.5514 -1.9054
  757MOL0     H 4400   4.528   9.162   1.609 -0.2354 -3.7627  2.5429
  757MOL0     H 4401   4.493   9.102   1.366 -0.3708 -2.0976  0.2091
  757MOL0     H 4402   4.314   9.139   1.391 -1.3728  3.8192  1.2933
  757MOL0     H 4403   4.380   9.311   1.284 -0.1350 -2.7483 -0.7550
  757MOL0     H 4404   4.428   9.385   1.445  3.8410 -0.3120  1.4428
  757MOL0     H 4405   4.663   9.323   1.407 -0.2074  0.3373  0.3207
  757MOL0     H 4406   4.618   9.255   1.246 -0.0048  2.7352 -2.8695
  757MOL0     H 4407   4.621   9.551   1.316  1.3410 -1.1517  1.2298
  757MOL0     H 4408   4.497   9.497   1.209  1.4209  4.1536  0.4678
  757MOL0     H 4409   4.799   9.462   1.172  0.7435  3.0598 -1.8539
  757MOL0     H 4410   4.675   9.382   1.073  2.0040 -0.5268 -0.8436
  757MOL0     H 4411   4.682   9.687   1.135 -0.4978  0.8134 -0.3467
  757MOL0     H 4412   4.584   9.617   1.013 -0.4052  1.2628  0.7942
  757MOL0     H 4413   4.771   9.718   0.888  0.3785 -1.2661 -1.2278
  757MOL0     H 4414   4.888   9.675   1.011 -0.3798  2.5727  1.6895
  757MOL0     H 4415   5.060   9.502   0.899  1.1269  1.8679 -1.0643
  757MOL0     H 4416   5.136   9.388   0.676  1.6290 -1.6377  3.5328
  757MOL0     H 4417   5.029   9.276   0.593 -0.8861  0.3948 -0.1321
  757MOL0     H 4418   5.110   9.251   0.888  0.4650  3.7132 -1.0246
  757MOL0     H 4419   5.037   9.122   0.789  1.8139 -1.7203 -2.7370
  757MOL0     H 4420   5.245   9.069   0.817 -0.3756  0.6948  1.1820
  757MOL0     H 4421   5.218   9.100   0.634  2.0084  5.2203 -2.8213
  757MOL0     H 4422   5.383   9.267   0.626  0.1096  0.6682  0.1406
  757MOL0     H 4423   5.338   9.333   0.776 -0.4586  2.3002 -2.8293
  757MOL0     H 4424   5.675   9.023   0.791 -0.1304  0.0638  0.6573
  757MOL0     H 4425   5.919   8.989   0.710 -2.3279  0.4113  1.2728
  757MOL0     H 4426   5.969   9.045   0.874 -2.0319  2.4430  2.4438
  757MOL0     H 4427   6.029   9.127   0.723 -0.7859  1.8939  3.1747
  757MOL0     H 4428   6.246   9.447   0.717  2.3707  0.1872 -0.1624
  757MOL0     H 4429   6.457   9.537   0.768  2.1337  2.1233  2.4932
  757MOL0     H 4430   6.635   9.543   1.168 -1.1302  0.1207 -0.1250
  757MOL0     H 4431   6.664   9.376   1.125 -0.3051  1.4772  0.2298
  757MOL0     H 4432   6.852   9.432   0.973  0.2986 -0.6491 -0.6532
  757MOL0     H 4433   6.811   9.608   0.998  0.1570 -1.4758  1.1842
  757MOL0     H 4434   6.926   9.417   1.201 -1.1578  0.9848  1.2422
  757MOL0     H 4435   6.850   9.570   1.247 -0.8598 -0.2708 -0.6001
  757MOL0     H 4436   6.999   9.705   1.114  0.3888 -0.7496 -2.4165
  757MOL0     H 4437   7.049   9.546   1.040 -1.5383 -0.0099 -0.3653
  757MOL0     H 4438   7.146   9.485   1.252 -1.5454 -1.2356 -0.7622
  757MOL0     H 4439   7.224   9.629   1.181  0.8594 -1.3514  1.7155
  757MOL0     H 4440   7.039   9.653   1.422  0.7987 -0.6843  0.1689
  757MOL0     H 4441   7.145   9.777   1.350 -0.4850  0.5268  0.9477
  757MOL0     H 4442   7.338   9.660   1.411 -1.0420  0.1058 -1.5505
  757MOL0     H 4443   7.236   9.520   1.477 -1.2176  0.7255  2.4752
  757MOL0     H 4444   7.146   9.638   1.636  0.4352 -0.2840  0.8574
  757MOL0     H 4445   7.240   9.788   1.595 -0.4572  0.0114  2.0424
  757MOL0     H 4446   6.440   9.377   1.164 -0.0829 -1.7332 -0.6296
  757MOL0     H 4447   6.207   9.275   1.115 -0.1433  0.6666  0.4273
  757MOL0     H 4448   5.765   9.508   0.771  1.3701 -0.6699 -3.2963
  757MOL0     H 4449   5.535   9.430   0.730  1.5040  0.1235 -2.5959
  757MOL0     H 4450   4.224   8.985   1.644 -0.9101 -0.3524 -1.5065
  757MOL0     H 4451   3.985   8.950   1.669  2.2322  0.0756  0.4521
  757MOL0     H 4452   3.592   9.060   1.757  0.7853 -1.8552  0.1366
  757MOL0     H 4453   3.357   9.004   1.825  0.5230  1.4258 -0.6688
  757MOL0     H 4454   3.272   8.872   2.242 -1.1201 -0.0393 -0.0863
  757MOL0     H 4455   3.259   9.036   2.247 -0.9866 -1.5051  1.8973
  757MOL0     H 4456   3.041   8.872   2.121  1.8408 -0.4815 -0.3851
  757MOL0     H 4457   3.017   9.034   2.183 -0.7975 -0.9280 -1.9082
  757MOL0     H 4458   3.062   8.772   2.331 -1.6687 -1.8061 -1.0158
  757MOL0     H 4459   3.038   8.929   2.417  1.7086  1.0285 -2.1195
  757MOL0     H 4460   2.823   8.805   2.236  0.6930  1.5268 -1.0807
  757MOL0     H 4461   2.827   8.969   2.299  1.3285  0.0867  0.3452
  757MOL0     H 4462   2.675   8.767   2.633  0.7093  1.0598  0.0677
  757MOL0     H 4463   3.486   8.969   2.234 -1.9834 -1.8098 -0.6475
  757MOL0     H 4464   3.798   9.153   2.206 -1.3294  1.0875 -0.5836
  757MOL0     H 4465   3.664   9.136   2.302  2.9360  2.0992  1.0188
  757MOL0     H 4466   3.751   8.987   2.270 -2.6144 -1.5043 -1.3462
  758MOL0     O 4467   9.730  11.254   3.198 -0.1494 -0.2258  0.8603
  758MOL0     C 4468   9.720  11.324   3.292  0.5584 -0.3323  0.2353
  758MOL0     O 4469   9.817  11.401   3.357  0.3663 -0.4875  0.0784
  758MOL0     C 4470   9.932  11.400   3.298 -0.3315  0.2108  0.4735
  758MOL0     C 4471   9.977  11.520   3.234  0.3578  0.0302 -0.1071
  758MOL0     C 4472  10.098  11.523   3.166  0.0477  0.1084 -0.8675
  758MOL0     C 4473  10.184  11.416   3.167  0.0662  0.7639 -0.4767
  758MOL0     O 4474  10.292  11.402   3.082  0.8716  0.7999 -0.1114
  758MOL0     C 4475  10.357  11.523   3.052 -0.4811 -0.5313  0.6146
  758MOL0     C 4476  10.459  11.504   2.940 -0.9005 -1.0927 -0.5367
  758MOL0     C 4477  10.592  11.468   3.005  0.3630  0.0600  0.5898
  758MOL0     C 4478  10.695  11.458   2.891 -0.4657 -0.0141  0.0100
  758MOL0     C 4479  10.849  11.466   2.914 -0.1328  0.7464 -0.1777
  758MOL0     C 4480  10.872  11.549   3.038 -0.5464 -1.5200 -0.4313
  758MOL0     C 4481  11.013  11.562   3.092 -0.8060  0.6614 -0.1017
  758MOL0     C 4482  11.107  11.634   2.990 -0.3188  0.9969 -0.0265
  758MOL0     N 4483  11.215  11.694   3.067  0.4777 -0.7430  0.3087
  758MOL0     C 4484  11.320  11.620   3.112 -0.9520  0.2707  0.0605
  758MOL0     C 4485  11.391  11.708   3.181  0.1255  0.5437 -0.6129
  758MOL0     C 4486  11.519  11.671   3.269 -0.1164 -0.5173 -0.2195
  758MOL0     C 4487  11.650  11.739   3.211 -0.5698 -0.8992  0.6641
  758MOL0     C 4488  11.782  11.675   3.259  0.1087 -0.7402 -0.2040
  758MOL0     C 4489  11.900  11.744   3.205  0.0816 -0.8633 -0.1162
  758MOL0     O 4490  11.905  11.722   3.066 -0.2279 -0.0256  0.2679
  758MOL0     C 4491  12.028  11.742   3.005 -0.8989  0.1874 -0.2081
  758MOL0     C 4492  12.139  11.814   3.050  0.1980 -0.2450 -0.2503
  758MOL0     C 4493  12.247  11.837   2.972 -0.2380 -1.0746  0.0952
  758MOL0     C 4494  12.365  11.889   3.038 -0.5690  0.2370 -0.4916
  758MOL0     C 4495  12.250  11.782   2.839 -0.0460 -0.6555  0.5595
  758MOL0     C 4496  12.364  11.792   2.749 -0.6930  0.3777  0.2251
  758MOL0     O 4497  12.495  11.791   2.806  0.0484 -0.3274  0.2315
  758MOL0     C 4498  12.609  11.794   2.726  0.3249  0.5399  0.3705
  758MOL0     C 4499  12.624  11.706   2.617 -0.3004 -0.2591  0.4151
  758MOL0     C 4500  12.727  11.720   2.532 -0.1117 -0.7254 -0.0155
  758MOL0     C 4501  12.827  11.812   2.558  0.4789  0.7268  0.0437
  758MOL0     O 4502  12.943  11.828   2.481  0.7333  0.0114 -0.0464
  758MOL0     C 4503  12.945  11.748   2.358 -0.9884  0.3474  0.0731
  758MOL0     C 4504  13.079  11.787   2.281 -0.1075  0.1154 -0.2294
  758MOL0     C 4505  13.104  11.689   2.163 -0.1873  0.3236  0.6734
  758MOL0     C 4506  13.249  11.701   2.109  0.5341 -0.4476  0.0162
  758MOL0     C 4507  13.276  11.623   1.982  0.1207  0.5369 -0.0727
  758MOL0     C 4508  13.205  11.675   1.854  1.0889  0.4539 -0.7105
  758MOL0     C 4509  13.282  11.638   1.726 -0.4410 -0.6762  0.0924
  758MOL0     C 4510  13.260  11.745   1.613  0.1064  0.8593 -0.5136
  758MOL0    Cl 4511  13.107  11.705   1.539  0.3143  0.1836 -0.1133
  758MOL0     C 4512  12.813  11.903   2.666 -0.0044  0.4645  0.0320
  758MOL0     C 4513  12.705  11.893   2.748 -0.6682  0.2272 -0.7263
  758MOL0     O 4514  12.335  11.796   2.627 -0.2991  1.0433  0.2454
  758MOL0     C 4515  12.136  11.720   2.796 -0.4509 -0.2334  0.0618
  758MOL0     C 4516  12.034  11.691   2.882 -0.1767  0.7043 -0.7650
  758MOL0     N 4517  11.332  11.828   3.176  0.0459 -0.2753 -0.2799
  758MOL0     N 4518  11.229  11.827   3.109  0.4123  0.5025  0.2274
  758MOL0     C 4519  10.144  11.308   3.231  0.0887 -0.2136 -0.6376
  758MOL0     C 4520  10.016  11.285   3.295 -0.3783 -0.9322 -0.2846
  758MOL0     C 4521   9.584  11.336   3.357  0.4482  0.9630  1.1776
  758MOL0     C 4522   9.549  11.455   3.420  0.1441 -0.5408 -0.2314
  758MOL0     C 4523   9.426  11.467   3.485 -1.4098 -0.3967  0.0337
  758MOL0     C 4524   9.338  11.348   3.491  0.1422  0.0573  0.2789
  758MOL0     O 4525   9.220  11.335   3.553  0.2181 -0.3870 -0.2806
  758MOL0     C 4526   9.156  11.439   3.628 -0.4053 -0.3857  0.3307
  758MOL0     C 4527   9.061  11.529   3.540  0.7079  0.0930 -1.0618
  758MOL0     C 4528   8.927  11.449   3.526  0.4970 -0.3266  0.0886
  758MOL0     C 4529   8.816  11.520   3.460  0.0758 -0.1072  0.8084
  758MOL0     C 4530   8.813  11.531   3.316 -0.5905  0.1144  0.3036
  758MOL0     C 4531   8.806  11.513   3.192  0.0800  1.8716 -0.5524
  758MOL0     C 4532   9.384  11.231   3.451 -0.2032  0.3675  0.0019
  758MOL0     C 4533   9.496  11.226   3.368 -0.2673 -0.0568  0.2760
  758MOL0     C 4534   9.530  11.087   3.320  0.4093 -0.3637 -0.2828
  758MOL0     H 4535   9.919  11.612   3.229  1.7834  0.9207 -1.0594
  758MOL0     H 4536  10.136  11.615   3.123  1.1645  1.1196  2.0171
  758MOL0     H 4537  10.392  11.578   3.139 -0.9275 -0.2988  0.6540
  758MOL0     H 4538  10.291  11.586   2.992 -1.8844 -2.8411 -0.4208
  758MOL0     H 4539  10.427  11.421   2.875 -1.2674 -2.7424  1.6525
  758MOL0     H 4540  10.466  11.597   2.882  3.0883 -0.5976  0.4341
  758MOL0     H 4541  10.615  11.557   3.064  2.3329  1.2710 -1.8168
  758MOL0     H 4542  10.577  11.384   3.073  1.8751  0.3509  1.3050
  758MOL0     H 4543  10.677  11.362   2.841  1.5416 -2.2856  3.2294
  758MOL0     H 4544  10.680  11.545   2.828  0.2719  0.5468  0.5846
  758MOL0     H 4545  10.896  11.499   2.821 -2.5778  0.3082 -1.6468
  758MOL0     H 4546  10.878  11.364   2.940  2.8530  1.7504  0.9039
  758MOL0     H 4547  10.834  11.647   3.005  1.9378 -0.3153  0.0573
  758MOL0     H 4548  10.812  11.526   3.127  1.2757 -0.2842  1.2065
  758MOL0     H 4549  11.054  11.462   3.109 -3.4826 -0.1640  2.4873
  758MOL0     H 4550  11.017  11.601   3.194  0.8031 -0.8487  0.4724
  758MOL0     H 4551  11.133  11.562   2.911  1.4952  0.0660  1.3476
  758MOL0     H 4552  11.041  11.703   2.937 -0.0615  0.7737 -0.6611
  758MOL0     H 4553  11.339  11.515   3.094  2.0938  0.5156  1.2558
  758MOL0     H 4554  11.531  11.563   3.274  1.0519 -0.4769 -1.3742
  758MOL0     H 4555  11.493  11.703   3.370 -0.9227 -0.8800 -0.3096
  758MOL0     H 4556  11.634  11.725   3.103  0.8031 -1.6050  0.5375
  758MOL0     H 4557  11.654  11.848   3.220 -0.3620 -0.9358  1.0364
  758MOL0     H 4558  11.785  11.668   3.368 -1.2185  1.4444  0.0325
  758MOL0     H 4559  11.783  11.572   3.221  3.4542 -1.9649  2.7124
  758MOL0     H 4560  11.900  11.850   3.230  0.9857 -1.2736  1.7533
  758MOL0     H 4561  11.991  11.697   3.244 -0.4315 -1.9781 -0.2091
  758MOL0     H 4562  12.134  11.842   3.155  2.2294 -3.7333  0.9579
  758MOL0     H 4563  12.340  11.940   3.131 -0.3839  1.0389 -0.8757
  758MOL0     H 4564  12.410  11.968   2.978 -1.1844  0.5466 -0.5494
  758MOL0     H 4565  12.436  11.810   3.065 -0.8105  0.3927  0.6470
  758MOL0     H 4566  12.550  11.627   2.606  1.9332 -2.2037 -1.5934
  758MOL0     H 4567  12.748  11.641   2.461  3.5887  1.1625 -1.2787
  758MOL0     H 4568  12.948  11.641   2.379 -1.4134 -0.1717 -2.1987
  758MOL0     H 4569  12.853  11.769   2.304 -2.8408  2.5215  3.7235
  758MOL0     H 4570  13.074  11.892   2.250  0.5332 -0.3201 -1.8958
  758MOL0     H 4571  13.166  11.777   2.346 -0.7093 -2.5720  0.2825
  758MOL0     H 4572  13.023  11.700   2.091  0.0484  0.3585  0.4106
  758MOL0     H 4573  13.092  11.585   2.194  2.4159 -1.0131 -2.2897
  758MOL0     H 4574  13.319  11.677   2.190  1.6797  1.0060 -0.4892
  758MOL0     H 4575  13.267  11.808   2.097  2.9686 -0.7395  0.4678
  758MOL0     H 4576  13.385  11.616   1.972 -0.0299 -0.7424 -1.0441
  758MOL0     H 4577  13.243  11.519   1.985 -0.0489  0.5528 -1.1043
  758MOL0     H 4578  13.182  11.780   1.870 -0.1590 -0.2702  3.4308
  758MOL0     H 4579  13.108  11.626   1.845  0.2867  1.9545 -0.5475
  758MOL0     H 4580  13.242  11.540   1.697 -3.0424  0.1896  0.4648
  758MOL0     H 4581  13.389  11.633   1.746 -0.2522  4.4377  1.6727
  758MOL0     H 4582  13.351  11.731   1.552  0.9209 -0.6623  0.9673
  758MOL0     H 4583  13.249  11.845   1.656  0.8564  0.7414 -0.0155
  758MOL0     H 4584  12.889  11.976   2.692 -0.6959  0.0207  3.9127
  758MOL0     H 4585  12.699  11.947   2.842  0.3015 -0.4158 -0.2800
  758MOL0     H 4586  12.133  11.679   2.696 -0.2081 -2.4214  0.8784
  758MOL0     H 4587  11.939  11.660   2.841 -0.9670 -0.0543  1.5122
  758MOL0     H 4588  10.211  11.223   3.228 -0.4358 -0.6118 -1.8594
  758MOL0     H 4589   9.997  11.187   3.338 -0.0702 -1.2087 -0.7703
  758MOL0     H 4590   9.619  11.537   3.404  1.4865 -1.8151 -1.2053
  758MOL0     H 4591   9.405  11.565   3.526  2.0047  0.9771 -1.1404
  758MOL0     H 4592   9.114  11.407   3.724  3.0104 -3.0775  1.1310
  758MOL0     H 4593   9.236  11.506   3.663  0.2177 -0.5610 -0.6959
  758MOL0     H 4594   9.115  11.546   3.446 -1.1225  0.9082 -2.0188
  758MOL0     H 4595   9.044  11.623   3.592 -0.9287 -1.4534  1.3834
  758MOL0     H 4596   8.954  11.370   3.455  0.1810  1.3779 -2.0156
  758MOL0     H 4597   8.893  11.428   3.628 -1.1040  2.7139  0.3096
  758MOL0     H 4598   8.822  11.621   3.502  1.8999 -0.4939  1.5413
  758MOL0     H 4599   8.726  11.470   3.498 -0.4763  1.1798  1.2563
  758MOL0     H 4600   8.795  11.499   3.086  1.9681 -2.2562 -0.3586
  758MOL0     H 4601   9.321  11.143   3.460 -0.2797 -0.0064 -3.1054
  758MOL0     H 4602   9.515  11.072   3.212  0.2057 -1.8495 -0.0793
  758MOL0     H 4603   9.633  11.056   3.339 -0.4082 -2.9764  0.3837
  758MOL0     H 4604   9.463  11.025   3.381 -1.4054  2.0462  0.3224
  759MOL0     O 4605  10.908   7.896   4.821 -0.3577 -0.0141 -0.5462
  759MOL0     C 4606  10.861   7.895   4.934 -0.6481 -0.6926 -0.2231
  759MOL0     O 4607  10.934   7.913   5.040  0.0040 -0.4352 -0.4995
  759MOL0     C 4608  11.071   7.923   5.029 -0.3083  0.2836  0.3242
  759MOL0     C 4609  11.148   7.815   5.013  0.2129 -0.2675 -0.2086
  759MOL0     C 4610  11.285   7.825   4.995 -1.8213 -0.1581  0.0839
  759MOL0     C 4611  11.355   7.948   4.993  0.3495  0.6705  0.2696
  759MOL0     O 4612  11.491   7.947   4.978  0.6717 -0.2577  0.3102
  759MOL0     C 4613  11.559   8.075   4.968 -0.8019 -0.1389 -0.0938
  759MOL0     C 4614  11.517   8.166   4.848  1.1689 -0.2493  0.4822
  759MOL0     C 4615  11.521   8.073   4.725  0.0264 -0.2781  0.6944
  759MOL0     C 4616  11.503   8.156   4.591  0.4983 -0.6715  0.3423
  759MOL0     C 4617  11.494   8.050   4.482  0.3436 -0.5657  0.2122
  759MOL0     C 4618  11.474   8.109   4.338  0.3623  0.4749  0.3268
  759MOL0     C 4619  11.436   7.996   4.236  0.3456  0.2502  0.2134
  759MOL0     C 4620  11.417   8.043   4.095 -0.0038 -0.1776  0.2192
  759MOL0     N 4621  11.357   7.946   4.008 -0.7319  0.0012 -0.1675
  759MOL0     C 4622  11.219   7.938   4.001 -0.3520  0.3705  0.0260
  759MOL0     C 4623  11.183   7.829   3.929  0.3209 -0.2548  0.5047
  759MOL0     C 4624  11.049   7.792   3.890  0.1273 -0.0086 -0.0335
  759MOL0     C 4625  10.985   7.720   4.020 -0.0294 -0.1436  0.4912
  759MOL0     C 4626  11.058   7.607   4.090 -0.0116 -0.2839 -0.2663
  759MOL0     C 4627  11.038   7.479   4.011  0.6870  0.0938  0.2725
  759MOL0     O 4628  11.133   7.469   3.905 -0.4561  0.7841  0.6150
  759MOL0     C 4629  11.097   7.373   3.806 -0.0369 -0.0878 -0.1968
  759MOL0     C 4630  11.010   7.266   3.837 -0.5517 -0.5331  0.4085
  759MOL0     C 4631  10.976   7.177   3.732  1.5330  0.5853 -0.5265
  759MOL0     C 4632  10.872   7.074   3.766  0.4712  0.1332 -0.4317
  759MOL0     C 4633  11.041   7.184   3.604  0.6759  0.3615 -0.9079
  759MOL0     C 4634  11.027   7.078   3.498  0.1396 -0.0742  0.3709
  759MOL0     O 4635  10.978   6.953   3.530  0.3731  0.3329 -0.3233
  759MOL0     C 4636  10.966   6.850   3.434 -0.6323  0.7055  0.5737
  759MOL0     C 4637  11.074   6.754   3.421 -0.9193 -0.1129 -0.0904
  759MOL0     C 4638  11.073   6.653   3.330 -0.3583  0.6472  0.0066
  759MOL0     C 4639  10.956   6.640   3.248  0.4491  0.4235 -0.4302
  759MOL0     O 4640  10.931   6.535   3.160  0.3345 -0.2175  0.4682
  759MOL0     C 4641  10.998   6.414   3.167 -0.6513  0.0452  0.0385
  759MOL0     C 4642  11.044   6.397   3.026 -0.1304  0.3454  0.6099
  759MOL0     C 4643  11.137   6.490   2.953 -0.2893 -0.2435 -0.3627
  759MOL0     C 4644  11.282   6.475   3.001 -1.0282 -0.0574  0.6223
  759MOL0     C 4645  11.363   6.559   2.896  1.0923  0.1303  0.1029
  759MOL0     C 4646  11.510   6.564   2.937 -0.2828  0.4929  0.1123
  759MOL0     C 4647  11.537   6.648   3.065  0.7745  0.2465 -0.6415
  759MOL0     C 4648  11.684   6.665   3.090 -1.3580 -0.2136  0.4107
  759MOL0    Cl 4649  11.761   6.514   3.109  0.0853  0.3971 -0.0520
  759MOL0     C 4650  10.859   6.732   3.258 -0.0436 -0.6443  0.5876
  759MOL0     C 4651  10.865   6.842   3.343 -0.7940  0.4350 -0.0187
  759MOL0     O 4652  11.062   7.103   3.380  0.1136 -0.7271 -0.5923
  759MOL0     C 4653  11.126   7.298   3.581 -0.1348 -0.1569  0.3921
  759MOL0     C 4654  11.156   7.389   3.679  0.9336 -0.2388 -0.0800
  759MOL0     N 4655  11.301   7.770   3.892  0.0318  0.3375  0.0357
  759MOL0     N 4656  11.404   7.837   3.942  0.4494  0.9847  0.3027
  759MOL0     C 4657  11.270   8.063   5.017  0.3275  0.5637 -0.3867
  759MOL0     C 4658  11.133   8.050   5.033  0.2323  1.1211  0.0445
  759MOL0     C 4659  10.722   7.877   4.956  0.0314  0.5089 -0.0995
  759MOL0     C 4660  10.671   7.928   5.066 -0.3725 -0.1516 -0.3019
  759MOL0     C 4661  10.538   7.916   5.105  1.4768  0.0663  0.1873
  759MOL0     C 4662  10.448   7.834   5.029  0.3780 -1.4754  1.1228
  759MOL0     O 4663  10.319   7.850   5.070 -0.1894  0.4692 -0.1062
  759MOL0     C 4664  10.221   7.779   5.000  0.5660  0.3113 -0.0147
  759MOL0     C 4665  10.095   7.823   5.074 -0.4359  0.8507  0.6927
  759MOL0     C 4666  10.070   7.964   5.082  0.8011 -0.3756  1.6498
  759MOL0     C 4667   9.931   8.014   5.118  0.1202  0.0574 -0.1941
  759MOL0     C 4668   9.839   7.990   5.010 -0.2641  0.0632 -0.4080
  759MOL0     C 4669   9.750   7.989   4.932  0.4337  0.0115  0.1901
  759MOL0     C 4670  10.499   7.800   4.900  0.1391 -0.1655 -0.0435
  759MOL0     C 4671  10.636   7.806   4.872  0.0806 -0.2451  0.5162
  759MOL0     C 4672  10.685   7.745   4.748  1.0011  0.1752 -0.0345
  759MOL0     H 4673  11.103   7.717   4.999 -0.0890 -0.1177 -0.3005
  759MOL0     H 4674  11.348   7.737   4.987 -2.8428 -0.8560 -0.6477
  759MOL0     H 4675  11.666   8.050   4.974 -1.3315 -2.4920  0.2137
  759MOL0     H 4676  11.544   8.125   5.064  1.2510 -0.0982  0.2714
  759MOL0     H 4677  11.416   8.206   4.857  2.0459  2.6967 -1.3165
  759MOL0     H 4678  11.587   8.248   4.833 -0.8177  1.0392 -2.9168
  759MOL0     H 4679  11.616   8.021   4.714 -0.9003 -2.0950  0.7679
  759MOL0     H 4680  11.444   7.995   4.737 -2.2130  2.1852  3.9194
  759MOL0     H 4681  11.408   8.210   4.603  1.0084  0.1085  0.9837
  759MOL0     H 4682  11.593   8.216   4.575  0.3515 -1.1017 -2.6648
  759MOL0     H 4683  11.405   7.987   4.487  1.3626 -2.0503  0.1758
  759MOL0     H 4684  11.588   7.995   4.483  1.2713  0.9592  0.9117
  759MOL0     H 4685  11.393   8.182   4.339  0.0859  0.3678 -3.2088
  759MOL0     H 4686  11.564   8.165   4.310  0.0809  0.3193 -0.9398
  759MOL0     H 4687  11.357   7.932   4.275  3.0337 -2.5296  1.5455
  759MOL0     H 4688  11.522   7.929   4.229  1.7785  1.6477  2.8606
  759MOL0     H 4689  11.349   8.128   4.102 -1.0435 -0.7468 -1.9480
  759MOL0     H 4690  11.512   8.082   4.056 -1.5127  2.1147 -1.4783
  759MOL0     H 4691  11.148   8.013   4.033  1.6462  3.4633 -2.2817
  759MOL0     H 4692  11.052   7.721   3.807  0.9680 -1.2192  0.9909
  759MOL0     H 4693  10.995   7.885   3.870  3.4791  1.8112 -1.4673
  759MOL0     H 4694  10.976   7.794   4.100 -0.3210 -0.6487  0.9283
  759MOL0     H 4695  10.882   7.688   4.004  0.3663 -2.3281  1.8731
  759MOL0     H 4696  11.161   7.637   4.110 -0.4948  1.2332  0.0610
  759MOL0     H 4697  11.015   7.577   4.186 -1.6975 -0.9264 -1.1821
  759MOL0     H 4698  11.063   7.392   4.072  2.1467 -1.4701 -2.3335
  759MOL0     H 4699  10.937   7.466   3.973  0.3827 -1.2673  1.4541
  759MOL0     H 4700  10.968   7.254   3.936 -0.5252  2.0664  0.8005
  759MOL0     H 4701  10.917   6.979   3.796 -0.7257 -0.6232 -0.9641
  759MOL0     H 4702  10.800   7.060   3.686 -0.5113 -0.8584  0.5796
  759MOL0     H 4703  10.814   7.096   3.857  2.1719 -1.3034  1.0847
  759MOL0     H 4704  11.164   6.770   3.481  0.0140  1.0778 -1.7255
  759MOL0     H 4705  11.154   6.580   3.323 -1.2548 -0.3815  0.0987
  759MOL0     H 4706  11.079   6.407   3.240 -1.2499 -0.6673  0.6554
  759MOL0     H 4707  10.930   6.333   3.198 -0.9681 -0.1617 -1.1724
  759MOL0     H 4708  11.090   6.297   3.021  0.4429  0.6644 -2.7597
  759MOL0     H 4709  10.957   6.407   2.961  3.2347  0.8495 -4.3349
  759MOL0     H 4710  11.098   6.592   2.960 -1.0167 -0.5298 -0.1982
  759MOL0     H 4711  11.120   6.464   2.848  0.2394 -1.4740 -0.1619
  759MOL0     H 4712  11.306   6.371   2.978  3.2750  1.0427 -0.7914
  759MOL0     H 4713  11.295   6.505   3.106  0.6463  3.2788 -0.3979
  759MOL0     H 4714  11.354   6.518   2.795  0.2677  1.4813 -0.3973
  759MOL0     H 4715  11.318   6.658   2.884  0.1200 -0.4571 -1.3956
  759MOL0     H 4716  11.572   6.604   2.856  0.3865 -3.0097 -1.3142
  759MOL0     H 4717  11.560   6.469   2.963  0.6096 -0.2973 -3.8543
  759MOL0     H 4718  11.498   6.598   3.155  0.9368 -1.1140 -1.3016
  759MOL0     H 4719  11.484   6.743   3.050  0.7097  0.5869  1.4573
  759MOL0     H 4720  11.703   6.726   3.179  2.9968 -3.1033  1.8004
  759MOL0     H 4721  11.718   6.717   3.001  0.8135 -1.0581  0.6904
  759MOL0     H 4722  10.764   6.723   3.207 -2.1259 -3.8082  4.4641
  759MOL0     H 4723  10.785   6.915   3.347 -1.7647 -0.6064  0.1373
  759MOL0     H 4724  11.189   7.310   3.493  5.0263  1.1939  3.8159
  759MOL0     H 4725  11.209   7.477   3.645  1.5235 -1.1478 -1.6078
  759MOL0     H 4726  11.312   8.162   5.003 -1.0429  0.9719 -1.9010
  759MOL0     H 4727  11.078   8.143   5.029 -2.3691 -0.3575 -0.5437
  759MOL0     H 4728  10.728   7.984   5.139 -0.8791  1.1960 -0.8884
  759MOL0     H 4729  10.505   7.962   5.198  2.4817  1.9404 -0.3517
  759MOL0     H 4730  10.220   7.800   4.893 -1.5317 -0.1718 -0.1293
  759MOL0     H 4731  10.237   7.671   5.009  0.6341  0.4191  1.2857
  759MOL0     H 4732  10.089   7.765   5.167  0.6081 -1.6749 -0.6862
  759MOL0     H 4733  10.016   7.771   5.019  1.1858 -0.4248 -0.5836
  759MOL0     H 4734  10.137   8.009   5.157  1.7552  0.8416  0.1383
  759MOL0     H 4735  10.100   8.005   4.985  0.4066 -0.3574  1.5336
  759MOL0     H 4736   9.939   8.122   5.136  0.8309  0.8016 -4.0727
  759MOL0     H 4737   9.898   7.963   5.209 -1.3410  1.9802  0.4419
  759MOL0     H 4738   9.669   7.985   4.861  0.2963  3.5446 -0.0170
  759MOL0     H 4739  10.441   7.739   4.831 -1.8193  0.6970  0.7553
  759MOL0     H 4740  10.621   7.667   4.708  0.7610 -0.0870  0.8313
  759MOL0     H 4741  10.698   7.824   4.673  1.6249  0.8921  0.8037
  759MOL0     H 4742  10.774   7.686   4.772  0.3193 -0.9051 -0.0933
  760MOL0     O 4743   2.641   4.393   2.536 -0.1244  0.3858  0.5783
  760MOL0     C 4744   2.649   4.427   2.656 -0.0567 -1.2310 -0.1182
  760MOL0     O 4745   2.546   4.433   2.748 -0.3728 -0.4403 -0.0226
  760MOL0     C 4746   2.411   4.415   2.723  0.6149 -0.5322 -0.5029
  760MOL0     C 4747   2.317   4.450   2.822  0.1378 -0.2890 -0.5034
  760MOL0     C 4748   2.183   4.465   2.790 -0.6273  0.3489 -0.1588
  760MOL0     C 4749   2.137   4.413   2.668 -0.4685  0.1096  0.1580
  760MOL0     O 4750   2.000   4.418   2.636  0.8627 -0.0288 -0.2195
  760MOL0     C 4751   1.898   4.410   2.738  0.2807  0.4811  0.0355
  760MOL0     C 4752   1.778   4.333   2.666 -0.0223 -0.9085  0.1676
  760MOL0     C 4753   1.727   4.394   2.533  0.0606  0.1220 -0.0302
  760MOL0     C 4754   1.614   4.310   2.497  0.0758 -0.0512 -0.0806
  760MOL0     C 4755   1.558   4.342   2.356  0.0883  0.4117  0.9341
  760MOL0     C 4756   1.483   4.226   2.290  0.4589  0.2384  1.0279
  760MOL0     C 4757   1.402   4.280   2.168 -0.2850  0.5219 -0.9822
  760MOL0     C 4758   1.319   4.185   2.090 -0.6551 -0.4735  1.0470
  760MOL0     N 4759   1.383   4.067   2.039 -0.0918 -0.1317  0.3432
  760MOL0     C 4760   1.471   4.071   1.934  0.6615  0.1573 -0.4329
  760MOL0     C 4761   1.512   3.944   1.944 -0.3114  0.3703 -0.4050
  760MOL0     C 4762   1.622   3.878   1.873 -0.0419 -0.0352  0.5489
  760MOL0     C 4763   1.597   3.856   1.724 -0.6992 -0.6519  0.0205
  760MOL0     C 4764   1.730   3.826   1.654  0.2937  0.0959 -0.2523
  760MOL0     C 4765   1.806   3.951   1.606 -0.4200  1.0753  0.0347
  760MOL0     O 4766   1.920   3.901   1.534  0.7096 -0.6403 -0.5627
  760MOL0     C 4767   1.922   3.869   1.395  1.2460 -0.2839 -0.0554
  760MOL0     C 4768   2.023   3.787   1.348 -0.6310 -0.2938  0.5375
  760MOL0     C 4769   2.046   3.767   1.211  0.4754  0.1264  0.4226
  760MOL0     C 4770   2.168   3.685   1.175 -0.5624 -0.1099  0.9406
  760MOL0     C 4771   1.949   3.829   1.128  0.0853  0.7860  0.8395
  760MOL0     C 4772   1.961   3.805   0.984 -0.2463 -1.1222 -0.3680
  760MOL0     O 4773   2.003   3.687   0.949  0.3056  0.3033  0.4045
  760MOL0     C 4774   1.986   3.650   0.816  0.0601  0.8122 -0.0322
  760MOL0     C 4775   1.909   3.537   0.786  0.6761 -0.0148  0.2588
  760MOL0     C 4776   1.887   3.496   0.652  0.6676  0.3429  0.5288
  760MOL0     C 4777   1.955   3.558   0.549  0.2223 -0.0736  0.3467
  760MOL0     O 4778   1.959   3.507   0.419 -0.4778  0.1235 -1.1293
  760MOL0     C 4779   1.838   3.533   0.343  0.7192  0.7383 -0.5246
  760MOL0     C 4780   1.843   3.655   0.252 -0.4161  0.2467  0.3041
  760MOL0     C 4781   1.820   3.792   0.321  0.4982  1.0441  0.3160
  760MOL0     C 4782   1.848   3.899   0.216 -0.2670 -0.1432 -0.8174
  760MOL0     C 4783   1.826   4.034   0.279 -0.9845  0.6042  0.3690
  760MOL0     C 4784   1.908   4.151   0.207  0.2489  0.6178  0.2475
  760MOL0     C 4785   1.908   4.281   0.291  0.0409 -0.9338  0.3803
  760MOL0     C 4786   1.976   4.399   0.214  1.0583 -0.3073  0.4621
  760MOL0    Cl 4787   1.875   4.450   0.091  0.5167 -0.0116  0.1787
  760MOL0     C 4788   2.036   3.667   0.573  0.8369 -0.7237 -0.0873
  760MOL0     C 4789   2.052   3.710   0.709 -0.1431  0.1884 -0.2040
  760MOL0     O 4790   1.920   3.895   0.906 -0.2643 -0.1832  0.0180
  760MOL0     C 4791   1.840   3.902   1.174 -0.4409  0.4504  0.5633
  760MOL0     C 4792   1.825   3.908   1.308  0.1116  0.0010 -0.4888
  760MOL0     N 4793   1.467   3.880   2.060 -0.6874 -0.3043  0.8329
  760MOL0     N 4794   1.379   3.951   2.103 -0.5840 -1.1984  0.2528
  760MOL0     C 4795   2.226   4.356   2.575 -0.4144  0.1580 -0.9929
  760MOL0     C 4796   2.360   4.369   2.602 -0.8775 -0.1750 -0.2784
  760MOL0     C 4797   2.789   4.458   2.704  0.9965 -0.1227  0.9082
  760MOL0     C 4798   2.897   4.479   2.614  0.5923  0.7532 -0.2161
  760MOL0     C 4799   3.025   4.514   2.648  0.2060 -1.0368 -0.4537
  760MOL0     C 4800   3.062   4.521   2.783 -0.4457 -0.3078  1.2891
  760MOL0     O 4801   3.192   4.567   2.803  0.4308 -0.8372  0.0250
  760MOL0     C 4802   3.228   4.586   2.943 -0.8248 -0.0889  0.4729
  760MOL0     C 4803   3.375   4.629   2.926 -1.3446 -0.5934 -0.2673
  760MOL0     C 4804   3.467   4.535   2.849  0.2778  0.5864  1.0091
  760MOL0     C 4805   3.495   4.397   2.910  0.5351  0.3743 -0.0447
  760MOL0     C 4806   3.542   4.412   3.046 -0.0261 -0.0922 -0.3961
  760MOL0     C 4807   3.591   4.414   3.157  0.6881 -0.0169  0.4717
  760MOL0     C 4808   2.967   4.489   2.882 -0.1681 -0.1184 -0.2887
  760MOL0     C 4809   2.830   4.449   2.845 -0.3463  0.1811  0.5651
  760MOL0     C 4810   2.750   4.394   2.959  0.4967  0.0979  0.0780
  760MOL0     H 4811   2.362   4.483   2.915 -1.5299  0.5648  0.0327
  760MOL0     H 4812   2.107   4.491   2.864 -0.2188 -4.3252  2.2832
  760MOL0     H 4813   1.858   4.509   2.759 -1.7207 -0.3096  0.1142
  760MOL0     H 4814   1.942   4.357   2.823 -0.2682 -0.0790 -0.0199
  760MOL0     H 4815   1.804   4.228   2.648 -1.2267 -1.0472 -0.8960
  760MOL0     H 4816   1.691   4.341   2.732 -0.3427  1.7431 -0.5033
  760MOL0     H 4817   1.721   4.502   2.547  1.0597 -0.1396  3.4340
  760MOL0     H 4818   1.802   4.377   2.455 -2.3048  0.7701 -2.5753
  760MOL0     H 4819   1.640   4.204   2.499 -0.8768 -0.3172  2.8652
  760MOL0     H 4820   1.536   4.321   2.573  0.2267 -1.9273  0.3990
  760MOL0     H 4821   1.646   4.363   2.295  0.6967 -2.1552  0.8091
  760MOL0     H 4822   1.499   4.433   2.365  1.3144  1.5020 -1.3514
  760MOL0     H 4823   1.568   4.161   2.269  0.2860 -0.2102  1.7008
  760MOL0     H 4824   1.413   4.183   2.362  1.6615 -3.8506  0.0430
  760MOL0     H 4825   1.482   4.323   2.106  1.4641 -1.6964 -0.4115
  760MOL0     H 4826   1.341   4.365   2.200 -1.8012 -0.9186  0.1064
  760MOL0     H 4827   1.228   4.167   2.147 -2.5357  2.0252 -0.9306
  760MOL0     H 4828   1.298   4.242   1.999  1.5945 -1.4254 -0.1610
  760MOL0     H 4829   1.506   4.149   1.867  3.1092 -1.7547 -1.5417
  760MOL0     H 4830   1.654   3.784   1.918 -2.0342 -0.7252  0.6180
  760MOL0     H 4831   1.704   3.951   1.869 -1.0423  1.0608 -0.8789
  760MOL0     H 4832   1.534   3.767   1.713 -1.3569 -0.2594  0.5583
  760MOL0     H 4833   1.551   3.933   1.660  5.3861  1.6225 -2.3673
  760MOL0     H 4834   1.807   3.777   1.715  0.3675 -1.0236 -1.2135
  760MOL0     H 4835   1.721   3.756   1.570 -0.1963 -0.9188  0.6199
  760MOL0     H 4836   1.746   4.020   1.546  0.0599  1.4723  0.0062
  760MOL0     H 4837   1.837   4.006   1.696  0.1420 -1.7902  1.7111
  760MOL0     H 4838   2.098   3.750   1.418 -0.8515  1.4505  1.7540
  760MOL0     H 4839   2.149   3.579   1.156  1.6671 -0.0108 -2.8624
  760MOL0     H 4840   2.233   3.674   1.262  2.6529  2.9399 -0.8614
  760MOL0     H 4841   2.216   3.737   1.092  1.7898 -3.0294  0.2901
  760MOL0     H 4842   1.849   3.486   0.861 -0.5306 -0.2854 -0.8499
  760MOL0     H 4843   1.837   3.402   0.631 -1.7302  1.6308  0.1103
  760MOL0     H 4844   1.836   3.446   0.277 -0.1061  0.6012 -0.3384
  760MOL0     H 4845   1.743   3.527   0.398 -0.4878 -3.1516 -2.6125
  760MOL0     H 4846   1.942   3.647   0.205 -1.4278 -2.0310 -1.6117
  760MOL0     H 4847   1.760   3.651   0.182 -1.2612  2.3447  1.1221
  760MOL0     H 4848   1.882   3.803   0.410  0.9591  1.9368 -0.0933
  760MOL0     H 4849   1.714   3.798   0.347  1.0597  1.0219  2.8342
  760MOL0     H 4850   1.785   3.908   0.127 -0.5193  0.9232 -0.5457
  760MOL0     H 4851   1.953   3.892   0.187 -0.2936 -0.4504 -0.8461
  760MOL0     H 4852   1.718   4.054   0.284 -1.6138 -2.1157 -0.6950
  760MOL0     H 4853   1.856   4.032   0.384  1.2985  2.4824 -0.1650
  760MOL0     H 4854   1.872   4.146   0.104  1.4288 -3.2786 -0.1129
  760MOL0     H 4855   2.013   4.122   0.191 -0.3015 -0.2474 -2.3093
  760MOL0     H 4856   1.962   4.266   0.385  2.5188  0.2599 -0.7566
  760MOL0     H 4857   1.805   4.309   0.313  0.3031 -2.0430  3.6468
  760MOL0     H 4858   2.066   4.374   0.156  1.3627  1.8517 -0.0667
  760MOL0     H 4859   2.000   4.481   0.283  0.8852 -0.4859  0.7364
  760MOL0     H 4860   2.095   3.718   0.498  1.3680 -1.0326  0.1171
  760MOL0     H 4861   2.112   3.797   0.732  1.6765 -0.7956 -1.0206
  760MOL0     H 4862   1.763   3.943   1.110  2.0351  3.5130 -0.7129
  760MOL0     H 4863   1.729   3.934   1.350 -0.6530 -0.0369 -2.1283
  760MOL0     H 4864   2.181   4.305   2.490  0.0414 -0.4626 -0.8683
  760MOL0     H 4865   2.427   4.330   2.526 -1.2813  1.3301 -1.4608
  760MOL0     H 4866   2.873   4.483   2.508  0.1390 -2.0523 -0.3010
  760MOL0     H 4867   3.081   4.558   2.566 -0.4166 -1.1622 -0.9600
  760MOL0     H 4868   3.156   4.659   2.980 -0.1950  1.3402 -1.0065
  760MOL0     H 4869   3.219   4.490   2.995 -1.6732  0.1151  0.7149
  760MOL0     H 4870   3.405   4.635   3.031  2.7411  1.1485 -1.3272
  760MOL0     H 4871   3.381   4.729   2.882  0.8488  0.0828  1.3396
  760MOL0     H 4872   3.442   4.528   2.742  0.8731  1.1087  0.8293
  760MOL0     H 4873   3.560   4.591   2.843  0.9827 -0.6644 -1.8482
  760MOL0     H 4874   3.563   4.343   2.843 -0.0287 -1.1906  0.6214
  760MOL0     H 4875   3.407   4.334   2.901  1.4384 -0.8825 -0.3939
  760MOL0     H 4876   3.647   4.398   3.247  2.5247  1.4929 -0.3380
  760MOL0     H 4877   3.005   4.479   2.983 -0.4992 -0.1998 -0.1698
  760MOL0     H 4878   2.661   4.457   2.962  1.5991  1.7038  0.3316
  760MOL0     H 4879   2.718   4.294   2.928  3.3685 -0.7173 -0.5372
  760MOL0     H 4880   2.812   4.380   3.048  1.1028  1.8407 -0.0259
  761MOL0     O 4881   2.342   6.072   6.143  0.3211  0.3580  0.1800
  761MOL0     C 4882   2.262   6.037   6.231  0.5945 -0.7349  0.0919
  761MOL0     O 4883   2.295   5.996   6.352 -0.1769 -0.5563 -1.0702
  761MOL0     C 4884   2.430   5.986   6.386  0.1735  0.2801 -0.6533
  761MOL0     C 4885   2.543   5.966   6.304 -0.7890 -0.3455  0.1748
  761MOL0     C 4886   2.675   5.965   6.357  0.1521 -0.1308 -0.1620
  761MOL0     C 4887   2.697   5.993   6.494 -1.0715  0.0130  0.3863
  761MOL0     O 4888   2.825   5.996   6.530 -0.0281  1.0267  0.3174
  761MOL0     C 4889   2.871   6.014   6.665  0.2409 -0.1281  0.2167
  761MOL0     C 4890   3.016   5.973   6.671 -0.8535 -0.1566  0.9121
  761MOL0     C 4891   3.065   5.935   6.810 -0.0754  0.6873 -0.0011
  761MOL0     C 4892   3.179   5.839   6.813 -0.1536  0.0840  0.1181
  761MOL0     C 4893   3.135   5.685   6.824  0.4836  0.1034  0.2402
  761MOL0     C 4894   3.266   5.600   6.834  0.5687 -0.5656  0.2140
  761MOL0     C 4895   3.237   5.460   6.811 -0.1822  1.2808  0.5321
  761MOL0     C 4896   3.357   5.358   6.824  1.2683 -0.5374  0.1059
  761MOL0     N 4897   3.466   5.386   6.732 -0.8716  0.5502  1.0715
  761MOL0     C 4898   3.584   5.446   6.762 -0.0624 -0.5640 -0.2754
  761MOL0     C 4899   3.653   5.436   6.637  0.0622 -0.1954 -0.4846
  761MOL0     C 4900   3.792   5.479   6.607 -0.5608 -0.6131 -0.7388
  761MOL0     C 4901   3.899   5.365   6.614  0.0198  0.1586  0.1481
  761MOL0     C 4902   3.895   5.290   6.750  0.2755  0.5130 -0.6948
  761MOL0     C 4903   4.011   5.191   6.768  0.2405  0.7704  0.8875
  761MOL0     O 4904   4.134   5.236   6.706 -0.3309 -0.4941  0.1887
  761MOL0     C 4905   4.243   5.264   6.787  1.1608 -0.2223  0.3276
  761MOL0     C 4906   4.358   5.189   6.770  0.4602  0.6542 -0.0699
  761MOL0     C 4907   4.459   5.199   6.869 -0.9344 -0.0799  1.0977
  761MOL0     C 4908   4.569   5.093   6.858  0.2815 -0.0378  0.2218
  761MOL0     C 4909   4.467   5.309   6.953  0.3766  0.4562 -0.5206
  761MOL0     C 4910   4.583   5.347   7.039 -0.1487  0.1159 -0.0559
  761MOL0     O 4911   4.566   5.438   7.147 -0.2493 -0.6828  0.4153
  761MOL0     C 4912   4.662   5.485   7.236  0.1365 -0.9831  0.3514
  761MOL0     C 4913   4.681   5.434   7.366  0.5640 -0.8488  0.3077
  761MOL0     C 4914   4.774   5.484   7.446  1.0200  0.4841  0.1570
  761MOL0     C 4915   4.849   5.601   7.406  0.3543 -0.4624  0.3214
  761MOL0     O 4916   4.951   5.641   7.489 -0.1243 -0.3530 -0.0368
  761MOL0     C 4917   4.919   5.730   7.594  0.2565 -0.0107 -0.3665
  761MOL0     C 4918   5.005   5.701   7.714 -0.3096 -0.1156  0.3648
  761MOL0     C 4919   4.964   5.792   7.833 -0.1456 -0.5190 -1.1726
  761MOL0     C 4920   5.059   5.776   7.957 -1.1044  0.3350  0.2438
  761MOL0     C 4921   4.997   5.862   8.064 -0.5621 -0.2519 -0.7278
  761MOL0     C 4922   5.078   5.842   8.193  0.5800  0.2559 -0.5427
  761MOL0     C 4923   5.220   5.908   8.181  0.1976 -0.5830  0.5046
  761MOL0     C 4924   5.292   5.888   8.318  0.3540  0.8342 -0.3839
  761MOL0    Cl 4925   5.209   5.970   8.454  0.1540 -0.1130 -0.5041
  761MOL0     C 4926   4.839   5.654   7.272 -0.0774  0.5130 -0.6555
  761MOL0     C 4927   4.748   5.591   7.195  0.6126 -0.2041 -0.2244
  761MOL0     O 4928   4.694   5.300   7.006  0.1622  0.1324  0.0382
  761MOL0     C 4929   4.348   5.390   6.962 -0.3533 -1.1233  0.7818
  761MOL0     C 4930   4.234   5.365   6.884  0.1643  0.5618 -0.8127
  761MOL0     N 4931   3.571   5.385   6.539 -0.3450 -0.5446  0.0950
  761MOL0     N 4932   3.463   5.350   6.598 -0.6142  0.2694 -0.2556
  761MOL0     C 4933   2.588   6.016   6.569 -0.1872 -0.2334  0.9424
  761MOL0     C 4934   2.457   6.017   6.520  0.1054  0.7860  0.1522
  761MOL0     C 4935   2.112   6.045   6.190 -0.8886 -0.7703 -0.1718
  761MOL0     C 4936   2.026   6.026   6.296  0.3702  0.1275 -0.9338
  761MOL0     C 4937   1.887   6.034   6.275  0.6624 -0.9183  0.0646
  761MOL0     C 4938   1.840   6.041   6.144 -0.2559  0.1173  0.3265
  761MOL0     O 4939   1.710   6.048   6.098  0.4714  0.3772 -0.1392
  761MOL0     C 4940   1.605   6.036   6.190  0.2414 -0.0465 -0.6009
  761MOL0     C 4941   1.470   6.047   6.118 -0.2913  0.4362  0.5255
  761MOL0     C 4942   1.450   5.934   6.009  0.4638 -0.6660  0.7400
  761MOL0     C 4943   1.316   5.914   5.946 -0.4656 -0.0607  0.0389
  761MOL0     C 4944   1.213   5.884   6.045  0.2001 -0.9811 -0.4040
  761MOL0     C 4945   1.112   5.895   6.118 -0.1458 -0.9872 -0.1874
  761MOL0     C 4946   1.926   6.055   6.039  0.3382 -0.5924 -0.3446
  761MOL0     C 4947   2.062   6.052   6.056 -0.5122  0.5937  0.2899
  761MOL0     C 4948   2.142   6.080   5.927  0.1771  0.7612 -0.1793
  761MOL0     H 4949   2.531   5.951   6.197  0.2866  1.1233 -0.1987
  761MOL0     H 4950   2.752   5.951   6.282 -1.7569 -0.8668 -2.1199
  761MOL0     H 4951   2.814   5.948   6.730 -0.4379  1.8845  1.7805
  761MOL0     H 4952   2.849   6.116   6.698 -1.3180 -0.0054 -1.1284
  761MOL0     H 4953   3.009   5.882   6.611 -3.0562 -1.1084  2.4879
  761MOL0     H 4954   3.083   6.043   6.619  0.0546 -0.3348  1.8158
  761MOL0     H 4955   3.088   6.020   6.875  2.2561 -0.3376  0.6226
  761MOL0     H 4956   2.976   5.890   6.856 -1.7275 -0.1466 -3.6463
  761MOL0     H 4957   3.227   5.850   6.715 -0.9488 -1.0961 -0.4193
  761MOL0     H 4958   3.250   5.853   6.896  1.4166 -0.9631 -0.9987
  761MOL0     H 4959   3.074   5.657   6.737 -2.3096  1.3386  1.6778
  761MOL0     H 4960   3.086   5.676   6.921 -0.8295 -1.0094 -0.4812
  761MOL0     H 4961   3.344   5.636   6.766  1.0680 -2.5002 -0.3052
  761MOL0     H 4962   3.303   5.627   6.933 -1.5226  1.9279  0.4267
  761MOL0     H 4963   3.192   5.444   6.712 -2.7419 -0.0083  1.7818
  761MOL0     H 4964   3.153   5.421   6.870  2.4716 -0.7249  3.2806
  761MOL0     H 4965   3.396   5.366   6.926  2.4260  0.0459 -0.3742
  761MOL0     H 4966   3.325   5.254   6.811 -4.5379  0.8521  0.5601
  761MOL0     H 4967   3.623   5.499   6.849  4.1819  1.2328 -2.9092
  761MOL0     H 4968   3.823   5.565   6.667 -0.0574  0.5717 -2.5857
  761MOL0     H 4969   3.795   5.538   6.515  2.2478  0.6493  0.0592
  761MOL0     H 4970   3.872   5.305   6.526  1.0129 -0.7719  0.4503
  761MOL0     H 4971   3.998   5.404   6.590  0.6304 -2.2545 -1.7025
  761MOL0     H 4972   3.923   5.364   6.826  1.4379 -2.2744  1.7922
  761MOL0     H 4973   3.796   5.249   6.770  0.3813  0.0602 -1.0848
  761MOL0     H 4974   4.019   5.176   6.876 -3.4346  1.0954  1.3212
  761MOL0     H 4975   3.978   5.097   6.721 -1.7020  2.7363 -2.0391
  761MOL0     H 4976   4.354   5.103   6.704 -2.2241  1.4780 -1.1165
  761MOL0     H 4977   4.586   5.037   6.950  1.5340  3.3976  2.2251
  761MOL0     H 4978   4.662   5.145   6.834 -0.6651  1.0867 -1.2442
  761MOL0     H 4979   4.552   5.023   6.774  0.7753 -3.9109  3.0757
  761MOL0     H 4980   4.622   5.345   7.388  0.2442 -0.9818 -0.9519
  761MOL0     H 4981   4.809   5.442   7.540  3.2663  2.4217  0.2814
  761MOL0     H 4982   4.939   5.828   7.551  0.1687 -0.9335 -2.7011
  761MOL0     H 4983   4.812   5.725   7.617  0.3261 -2.6175 -0.3366
  761MOL0     H 4984   5.014   5.597   7.748  2.9769  0.8941  3.1369
  761MOL0     H 4985   5.104   5.738   7.688 -0.4439 -1.0169 -1.6197
  761MOL0     H 4986   4.858   5.776   7.853 -0.5729  2.5621 -0.4365
  761MOL0     H 4987   4.970   5.896   7.798  3.4880  0.0292  0.6507
  761MOL0     H 4988   5.156   5.808   7.916 -0.9411 -1.1432 -0.6159
  761MOL0     H 4989   5.061   5.669   7.977 -1.3280  0.3021  0.0893
  761MOL0     H 4990   5.003   5.966   8.032  0.5886 -0.5621 -1.5940
  761MOL0     H 4991   4.890   5.840   8.077 -0.6363 -0.0108 -0.9091
  761MOL0     H 4992   5.092   5.736   8.216  1.5858  0.4102 -0.3821
  761MOL0     H 4993   5.025   5.892   8.274  2.3099 -0.2000  0.9484
  761MOL0     H 4994   5.213   6.014   8.154 -1.3005 -1.0207 -0.9331
  761MOL0     H 4995   5.274   5.859   8.100 -1.1579  1.3844 -1.7115
  761MOL0     H 4996   5.391   5.934   8.306  1.9433 -2.1410  0.3725
  761MOL0     H 4997   5.299   5.780   8.333 -0.1539  0.6929 -1.1054
  761MOL0     H 4998   4.908   5.734   7.246  1.7557 -0.6303  0.3907
  761MOL0     H 4999   4.725   5.636   7.099  1.1744 -1.7351 -1.1202
  761MOL0     H 5000   4.361   5.475   7.028  2.5872 -0.9154  0.0700
  761MOL0     H 5001   4.143   5.423   6.894 -1.5246 -2.2355  1.7675
  761MOL0     H 5002   2.608   6.045   6.672 -0.5790  0.0226  0.9481
  761MOL0     H 5003   2.379   6.052   6.587  1.2799  2.3962  0.7435
  761MOL0     H 5004   2.057   6.013   6.399  1.2197  3.7302 -0.5957
  761MOL0     H 5005   1.812   6.015   6.352  0.9232 -4.9754 -0.4409
  761MOL0     H 5006   1.607   5.937   6.238 -4.6415 -0.7113 -1.2412
  761MOL0     H 5007   1.601   6.124   6.254 -2.9062  1.1133 -2.1785
  761MOL0     H 5008   1.463   6.146   6.073 -1.4722  0.6019  1.0432
  761MOL0     H 5009   1.397   6.047   6.200 -0.1182 -2.7125  0.8220
  761MOL0     H 5010   1.523   5.957   5.931  0.1255  1.6626  1.0475
  761MOL0     H 5011   1.475   5.836   6.050 -1.8839 -2.1209 -1.0076
  761MOL0     H 5012   1.318   5.837   5.869 -0.3339 -2.1716  2.0536
  761MOL0     H 5013   1.294   6.004   5.887 -0.9933 -1.2673 -1.6767
  761MOL0     H 5014   1.024   5.917   6.174  0.0654  1.2571 -0.6461
  761MOL0     H 5015   1.879   6.081   5.944  0.0681  0.0268 -0.0453
  761MOL0     H 5016   2.075   6.070   5.841  0.1360  0.7543 -0.1465
  761MOL0     H 5017   2.195   6.176   5.935  0.4820  0.5887 -0.0990
  761MOL0     H 5018   2.221   6.009   5.905 -1.4981 -1.2975  0.1752
  762MOL0     O 5019   3.315   7.107   9.221  0.1381  0.3897  0.1998
  762MOL0     C 5020   3.263   7.180   9.304 -0.0142  0.0167 -0.3002
  762MOL0     O 5021   3.265   7.152   9.441 -0.1325 -0.1552  0.5806
  762MOL0     C 5022   3.353   7.060   9.505 -0.0693  0.4238 -0.3021
  762MOL0     C 5023   3.462   6.988   9.457 -0.3361 -0.7407  0.1907
  762MOL0     C 5024   3.545   6.903   9.539  0.8387 -0.9636  0.3558
  762MOL0     C 5025   3.522   6.908   9.676  0.4456  1.2819  0.2667
  762MOL0     O 5026   3.619   6.834   9.744  0.1052  0.3613  0.2365
  762MOL0     C 5027   3.571   6.773   9.864  0.6354 -0.6560  0.0646
  762MOL0     C 5028   3.666   6.662   9.915 -0.3689 -1.2212 -0.5118
  762MOL0     C 5029   3.627   6.608  10.057 -0.0370  0.3559 -0.8998
  762MOL0     C 5030   3.547   6.470  10.050  0.1596  0.6747  1.3332
  762MOL0     C 5031   3.496   6.419  10.185  0.0131 -0.5976  0.1933
  762MOL0     C 5032   3.396   6.511  10.262 -0.0093 -0.2143  0.2261
  762MOL0     C 5033   3.272   6.543  10.171  0.3921  0.1739 -0.8453
  762MOL0     C 5034   3.159   6.629  10.231 -0.3889  0.4309 -0.4201
  762MOL0     N 5035   3.193   6.775  10.227  0.2500  0.1273 -0.1155
  762MOL0     C 5036   3.196   6.860  10.117 -1.1279  0.9906 -0.7683
  762MOL0     C 5037   3.227   6.986  10.178 -0.1738 -0.1084  0.5387
  762MOL0     C 5038   3.232   7.122  10.106  0.2866 -0.7145  1.0187
  762MOL0     C 5039   3.121   7.213  10.164  0.5711  0.7249 -0.3520
  762MOL0     C 5040   3.092   7.337  10.089 -0.0736  0.6041 -0.1952
  762MOL0     C 5041   3.073   7.316   9.934  0.7575  0.3478 -0.1587
  762MOL0     O 5042   3.011   7.430   9.871 -0.5058  0.2203  0.2360
  762MOL0     C 5043   3.074   7.554   9.856  0.2912  0.3906  0.3519
  762MOL0     C 5044   3.005   7.659   9.798 -0.3636 -0.1601  0.1778
  762MOL0     C 5045   3.056   7.785   9.797  0.4974 -0.4605  0.0239
  762MOL0     C 5046   2.967   7.887   9.732  0.2821  0.3519 -0.3029
  762MOL0     C 5047   3.193   7.810   9.818 -1.1333  0.3365 -0.4719
  762MOL0     C 5048   3.252   7.942   9.811 -1.1655 -0.1473 -0.5205
  762MOL0     O 5049   3.389   7.936   9.817 -0.4883 -0.6325  0.3919
  762MOL0     C 5050   3.471   8.052   9.799 -0.3013  0.7771  0.5357
  762MOL0     C 5051   3.597   8.049   9.864  0.2468 -0.5781 -0.1715
  762MOL0     C 5052   3.685   8.159   9.855 -0.3221  0.1985 -0.9965
  762MOL0     C 5053   3.656   8.272   9.772  1.3378  0.6220  0.1712
  762MOL0     O 5054   3.756   8.369   9.752 -0.7036 -0.2814  0.2649
  762MOL0     C 5055   3.713   8.499   9.751  0.1392 -1.1595  0.2885
  762MOL0     C 5056   3.813   8.587   9.819 -0.0970  0.1918 -0.1783
  762MOL0     C 5057   3.791   8.733   9.828  0.2073 -0.5440 -0.4799
  762MOL0     C 5058   3.883   8.799   9.930  0.4183  0.1675  0.0493
  762MOL0     C 5059   4.038   8.805   9.905  0.6493  0.1976  0.3281
  762MOL0     C 5060   4.107   8.875  10.022 -1.0030  0.6012  0.6688
  762MOL0     C 5061   4.261   8.866  10.018 -0.3136 -0.1913  0.8147
  762MOL0     C 5062   4.304   8.742  10.094 -0.3345  0.6277  0.6474
  762MOL0    Cl 5063   4.261   8.762  10.270  0.5136  0.2967 -0.4298
  762MOL0     C 5064   3.537   8.269   9.700  0.3112  0.2772  0.3634
  762MOL0     C 5065   3.441   8.166   9.722 -0.7963  0.7668 -0.1945
  762MOL0     O 5066   3.184   8.044   9.811 -0.0155 -0.7855 -0.6201
  762MOL0     C 5067   3.276   7.698   9.859 -0.8216  0.9026 -0.7102
  762MOL0     C 5068   3.212   7.575   9.891  0.0421 -0.1694  0.0103
  762MOL0     N 5069   3.250   6.969  10.315  0.1869  0.4902 -0.1634
  762MOL0     N 5070   3.243   6.840  10.338  0.3090 -0.1033  0.3849
  762MOL0     C 5071   3.406   6.971   9.728  0.3950  0.2563  0.5006
  762MOL0     C 5072   3.328   7.048   9.643 -0.4339 -0.7063 -0.4046
  762MOL0     C 5073   3.172   7.294   9.274 -0.6846 -0.1480  0.7763
  762MOL0     C 5074   3.202   7.411   9.346 -0.4979  0.9101 -0.0843
  762MOL0     C 5075   3.138   7.522   9.318  0.1165  0.7527  0.4761
  762MOL0     C 5076   3.055   7.533   9.201 -0.8010  0.3019  0.9477
  762MOL0     O 5077   3.018   7.666   9.167 -0.4759  0.1818 -0.3181
  762MOL0     C 5078   2.939   7.690   9.048  0.2457 -0.2086 -0.0154
  762MOL0     C 5079   2.795   7.677   9.081  0.3707  0.7515  0.4226
  762MOL0     C 5080   2.740   7.786   9.178  0.3618  0.2312 -0.3014
  762MOL0     C 5081   2.591   7.763   9.205 -0.1779 -1.0060 -0.1041
  762MOL0     C 5082   2.536   7.886   9.270  0.1468 -0.7407  0.7123
  762MOL0     C 5083   2.495   7.984   9.325 -0.2482  0.2410 -0.2296
  762MOL0     C 5084   3.018   7.418   9.141  0.5065  0.2014  0.6292
  762MOL0     C 5085   3.076   7.295   9.174  0.1930  0.3638 -1.1725
  762MOL0     C 5086   3.038   7.176   9.102  0.2823  0.4426  0.3362
  762MOL0     H 5087   3.493   6.993   9.353 -0.6065 -4.0228 -0.1528
  762MOL0     H 5088   3.636   6.862   9.497  2.7154  3.7856 -0.7848
  762MOL0     H 5089   3.474   6.724   9.855  0.0443  0.3247  0.9539
  762MOL0     H 5090   3.566   6.853   9.939 -2.6151 -2.5419  2.0890
  762MOL0     H 5091   3.660   6.583   9.839  0.4130 -0.9242 -0.8935
  762MOL0     H 5092   3.768   6.701   9.907 -0.4274 -1.3224 -2.3418
  762MOL0     H 5093   3.709   6.589  10.127  0.5648 -5.1182 -2.6486
  762MOL0     H 5094   3.562   6.682  10.104  1.3568  1.4423 -0.6031
  762MOL0     H 5095   3.465   6.484   9.978 -0.8312 -1.8075  1.8680
  762MOL0     H 5096   3.618   6.397  10.012  0.1033  1.1358  0.2949
  762MOL0     H 5097   3.579   6.407  10.257  0.0408  1.8221  0.6574
  762MOL0     H 5098   3.435   6.332  10.163 -3.3976  2.0297 -1.6391
  762MOL0     H 5099   3.362   6.479  10.361  0.3209  0.0040  0.4115
  762MOL0     H 5100   3.452   6.602  10.286  1.4134 -1.0064  0.0525
  762MOL0     H 5101   3.230   6.442  10.157  1.0136 -0.8880  3.5542
  762MOL0     H 5102   3.313   6.590  10.081  4.2151 -0.0267  0.6446
  762MOL0     H 5103   3.072   6.612  10.168  0.0194 -4.9076  0.0545
  762MOL0     H 5104   3.145   6.587  10.331  1.2321 -0.5844 -0.5745
  762MOL0     H 5105   3.167   6.846  10.013  2.6975 -3.8252 -1.5382
  762MOL0     H 5106   3.213   7.105   9.999  2.1425  0.6827  0.4242
  762MOL0     H 5107   3.324   7.179  10.122 -1.0688  1.9070  0.0559
  762MOL0     H 5108   3.030   7.152  10.163  0.6623  0.5537 -2.5236
  762MOL0     H 5109   3.136   7.232  10.270  1.9948 -3.9695  0.5110
  762MOL0     H 5110   3.004   7.386  10.132 -0.3018  0.2158 -0.2156
  762MOL0     H 5111   3.162   7.421  10.092 -2.7521  3.0981 -2.0070
  762MOL0     H 5112   3.163   7.299   9.874  1.2113  0.4347  0.4905
  762MOL0     H 5113   3.010   7.228   9.919  1.4110 -0.6850  2.6574
  762MOL0     H 5114   2.901   7.634   9.779 -0.4841  0.6589 -0.2870
  762MOL0     H 5115   2.949   7.983   9.781 -3.0686  0.1653 -0.9293
  762MOL0     H 5116   2.865   7.848   9.736  0.1103  0.7174 -0.9030
  762MOL0     H 5117   2.996   7.911   9.629  1.0249  0.1745 -0.1420
  762MOL0     H 5118   3.635   7.957   9.906  2.6686 -0.4293 -1.8567
  762MOL0     H 5119   3.783   8.158   9.902 -1.5385  1.2223  1.8044
  762MOL0     H 5120   3.695   8.533   9.649  0.4786  2.7451  1.3350
  762MOL0     H 5121   3.626   8.509   9.817  0.2896 -0.8903  0.4525
  762MOL0     H 5122   3.841   8.554   9.919 -1.9143  3.1140  1.4122
  762MOL0     H 5123   3.900   8.572   9.754 -1.4219 -2.2414 -1.5537
  762MOL0     H 5124   3.687   8.743   9.860  0.5979 -3.1595  1.9766
  762MOL0     H 5125   3.813   8.778   9.730  0.1547 -2.5937 -1.4864
  762MOL0     H 5126   3.851   8.755  10.025  0.5456  1.5096  0.7420
  762MOL0     H 5127   3.852   8.903   9.940 -1.3520 -0.0522 -2.1257
  762MOL0     H 5128   4.076   8.702   9.905  1.2303  0.3741  2.0296
  762MOL0     H 5129   4.061   8.850   9.808  2.3987 -1.0400  0.1280
  762MOL0     H 5130   4.060   8.835  10.113 -1.3817  4.0942  2.1458
  762MOL0     H 5131   4.082   8.981  10.028 -3.5023  0.0604  0.9971
  762MOL0     H 5132   4.307   8.959  10.053  1.0412 -0.6227  0.2416
  762MOL0     H 5133   4.287   8.860   9.912 -0.8591  2.1333  0.4814
  762MOL0     H 5134   4.413   8.735  10.093 -0.4376 -1.1500  0.1892
  762MOL0     H 5135   4.256   8.651  10.058  0.5019 -0.3727  1.9546
  762MOL0     H 5136   3.524   8.352   9.632 -0.2398 -0.4867 -0.4909
  762MOL0     H 5137   3.358   8.171   9.653 -2.1841  0.2347  1.3573
  762MOL0     H 5138   3.384   7.692   9.871 -0.7560  3.1351  0.1527
  762MOL0     H 5139   3.270   7.486   9.913  0.2735  0.1047  0.5260
  762MOL0     H 5140   3.378   6.960   9.833  0.3356  0.0931  0.4685
  762MOL0     H 5141   3.241   7.096   9.687 -1.1495 -0.3080 -2.1917
  762MOL0     H 5142   3.276   7.415   9.426 -0.0414  0.3373 -0.4651
  762MOL0     H 5143   3.162   7.608   9.380  0.5945  1.4826 -0.6769
  762MOL0     H 5144   2.947   7.787   8.997 -0.9043 -0.5034 -0.8080
  762MOL0     H 5145   2.974   7.616   8.976 -0.7318  0.4269 -1.1952
  762MOL0     H 5146   2.767   7.574   9.102 -1.8770  1.1487 -0.3369
  762MOL0     H 5147   2.738   7.685   8.988  1.2045 -1.8716 -0.3873
  762MOL0     H 5148   2.793   7.777   9.273  3.3999  2.4890 -1.6361
  762MOL0     H 5149   2.764   7.885   9.139 -1.0606  1.1513  1.0517
  762MOL0     H 5150   2.566   7.680   9.272 -0.0914 -0.0096  1.2216
  762MOL0     H 5151   2.532   7.750   9.114 -0.1157  0.3747 -0.3697
  762MOL0     H 5152   2.458   8.056   9.394  0.6979  0.8909 -0.3760
  762MOL0     H 5153   2.934   7.414   9.072  1.2936 -0.5383 -0.3195
  762MOL0     H 5154   2.967   7.196   9.021 -2.6081 -3.1566  1.7317
  762MOL0     H 5155   3.122   7.124   9.054 -0.0701  1.5934 -1.6262
  762MOL0     H 5156   2.996   7.112   9.180  3.1931 -0.2010  1.5080
  763MOL0     O 5157   1.347   5.651   2.789  0.0626 -0.3502  0.5070
  763MOL0     C 5158   1.427   5.701   2.708  0.0740  0.0160  0.2788
  763MOL0     O 5159   1.406   5.748   2.583 -0.1933 -0.4700 -0.8715
  763MOL0     C 5160   1.290   5.739   2.506 -0.3181  0.2669  0.7336
  763MOL0     C 5161   1.314   5.694   2.371 -0.6944 -0.0740 -0.1763
  763MOL0     C 5162   1.209   5.668   2.286  0.3320  0.4140  0.4436
  763MOL0     C 5163   1.076   5.689   2.330 -0.3819  0.5051 -0.6207
  763MOL0     O 5164   0.973   5.656   2.249  0.2663  0.2871  0.1174
  763MOL0     C 5165   0.977   5.521   2.213  0.5341  0.0226 -0.1591
  763MOL0     C 5166   0.841   5.488   2.163 -0.2868 -0.4772  0.9798
  763MOL0     C 5167   0.728   5.541   2.258 -0.3509 -0.5408  0.8274
  763MOL0     C 5168   0.731   5.479   2.402 -0.1248 -0.4647 -0.0430
  763MOL0     C 5169   0.610   5.512   2.497  0.5463 -0.2166 -0.3149
  763MOL0     C 5170   0.487   5.422   2.471  0.0107  0.8497  0.3909
  763MOL0     C 5171   0.367   5.459   2.555 -0.1575  0.6064 -0.4359
  763MOL0     C 5172   0.236   5.403   2.489  0.3351 -0.5685 -0.2560
  763MOL0     N 5173   0.223   5.257   2.477 -0.1741 -0.0499  0.0386
  763MOL0     C 5174   0.273   5.163   2.559  0.1788  0.0241  0.0834
  763MOL0     C 5175   0.253   5.050   2.501  0.5316  0.5149  1.3024
  763MOL0     C 5176   0.273   4.909   2.550 -0.3539  0.1633 -0.6390
  763MOL0     C 5177   0.346   4.818   2.458  0.7132  0.7200  0.2928
  763MOL0     C 5178   0.311   4.662   2.480 -0.3428 -0.7164 -0.3613
  763MOL0     C 5179   0.393   4.602   2.595  0.0215 -0.3743  0.8712
  763MOL0     O 5180   0.529   4.595   2.564 -0.3216 -0.0488 -0.2812
  763MOL0     C 5181   0.621   4.561   2.657 -0.7839  0.0552  0.2444
  763MOL0     C 5182   0.593   4.510   2.782  0.1047 -0.4450 -0.4113
  763MOL0     C 5183   0.687   4.474   2.878 -0.6166 -0.0440 -0.4241
  763MOL0     C 5184   0.627   4.420   3.005  0.0957  0.4216 -0.8575
  763MOL0     C 5185   0.819   4.493   2.851 -0.0291  0.2819 -0.3108
  763MOL0     C 5186   0.928   4.468   2.947 -0.3130 -0.0662  0.0214
  763MOL0     O 5187   0.946   4.345   2.992 -0.3827  0.1724  0.5653
  763MOL0     C 5188   1.003   4.329   3.118  0.1542  0.6205 -0.7163
  763MOL0     C 5189   1.136   4.352   3.160  0.5464  0.8811  0.7738
  763MOL0     C 5190   1.182   4.330   3.290  0.2040  0.0754  0.4112
  763MOL0     C 5191   1.095   4.270   3.385  0.2242  0.3393  0.4300
  763MOL0     O 5192   1.163   4.228   3.492  0.3349 -0.4002 -0.2985
  763MOL0     C 5193   1.098   4.189   3.612  0.1575  0.0717 -0.6062
  763MOL0     C 5194   1.198   4.152   3.720 -0.1500 -0.7708  0.6354
  763MOL0     C 5195   1.261   4.016   3.687  0.0918 -0.6166  0.0100
  763MOL0     C 5196   1.341   3.965   3.812  0.8771 -0.0619  0.3601
  763MOL0     C 5197   1.372   3.812   3.810  0.2632  0.2803  0.2638
  763MOL0     C 5198   1.453   3.764   3.937  0.4464 -0.0330  0.0425
  763MOL0     C 5199   1.599   3.801   3.951 -0.1751  0.2869  0.0799
  763MOL0     C 5200   1.662   3.771   4.094 -0.0545  1.0909  0.7307
  763MOL0    Cl 5201   1.641   3.606   4.119 -0.2239 -0.2955 -0.1752
  763MOL0     C 5202   0.955   4.257   3.352 -0.4014  0.6652  1.0089
  763MOL0     C 5203   0.918   4.285   3.216 -0.9609 -0.2063 -0.7811
  763MOL0     O 5204   0.999   4.569   2.963 -0.6880 -0.1043 -0.0165
  763MOL0     C 5205   0.846   4.541   2.726  0.2058 -0.2776  0.7603
  763MOL0     C 5206   0.751   4.575   2.628 -0.3883 -0.1747 -0.1725
  763MOL0     N 5207   0.193   5.076   2.371 -0.3637 -0.6953 -0.3905
  763MOL0     N 5208   0.162   5.200   2.367 -0.3520 -0.2392 -0.2519
  763MOL0     C 5209   1.049   5.730   2.464 -0.2539 -0.1029 -0.2278
  763MOL0     C 5210   1.160   5.757   2.551  0.2553 -0.5963  0.1501
  763MOL0     C 5211   1.561   5.702   2.771 -0.6439 -0.3530  0.9603
  763MOL0     C 5212   1.662   5.692   2.676  0.5102 -0.7657 -0.4340
  763MOL0     C 5213   1.792   5.685   2.713  0.4679  0.9665  0.1385
  763MOL0     C 5214   1.831   5.679   2.843 -0.0254 -0.3075 -0.7870
  763MOL0     O 5215   1.960   5.681   2.886 -0.6959  0.4570 -0.9390
  763MOL0     C 5216   2.048   5.767   2.818  0.4484  1.0990  1.4829
  763MOL0     C 5217   2.120   5.867   2.914 -0.5564  0.5916  0.5690
  763MOL0     C 5218   2.214   5.793   3.012  0.0155  0.3778  0.2638
  763MOL0     C 5219   2.295   5.908   3.082  0.2791 -0.2809  0.1791
  763MOL0     C 5220   2.208   6.004   3.155  0.2693 -0.0245 -0.3545
  763MOL0     C 5221   2.136   6.087   3.210 -0.0116 -0.1849  0.4999
  763MOL0     C 5222   1.736   5.692   2.940  1.2558 -0.8023  0.1796
  763MOL0     C 5223   1.598   5.717   2.910  0.0954 -0.8582  0.7395
  763MOL0     C 5224   1.502   5.751   3.021  0.1237 -0.2991  0.2303
  763MOL0     H 5225   1.416   5.683   2.335 -0.5983  2.0157 -0.6616
  763MOL0     H 5226   1.240   5.639   2.186  2.3693 -2.1090  1.6787
  763MOL0     H 5227   0.984   5.462   2.305 -0.8815 -0.0396 -0.0760
  763MOL0     H 5228   1.060   5.503   2.145  1.7273  2.1993  0.6282
  763MOL0     H 5229   0.832   5.550   2.073  0.8638 -1.4856  0.1391
  763MOL0     H 5230   0.834   5.382   2.136 -2.7541 -0.2956  0.6446
  763MOL0     H 5231   0.730   5.650   2.256  1.0208 -0.5538 -0.4561
  763MOL0     H 5232   0.632   5.515   2.213 -0.8262  3.7980 -1.1615
  763MOL0     H 5233   0.759   5.374   2.402  2.7962  0.2256 -1.4081
  763MOL0     H 5234   0.815   5.521   2.458  0.4804  1.2834 -2.0867
  763MOL0     H 5235   0.577   5.615   2.480 -0.2470 -0.3278  0.4703
  763MOL0     H 5236   0.645   5.500   2.600  0.9957  0.1207 -0.4233
  763MOL0     H 5237   0.465   5.434   2.364  1.5932 -1.0226 -0.1965
  763MOL0     H 5238   0.516   5.319   2.491 -0.8397  0.6925  0.8476
  763MOL0     H 5239   0.363   5.568   2.561 -0.4225  0.5183  1.8263
  763MOL0     H 5240   0.385   5.424   2.657  1.9635  3.3501  0.2323
  763MOL0     H 5241   0.141   5.438   2.530  0.6641 -0.1457  0.1407
  763MOL0     H 5242   0.233   5.461   2.396 -1.9520 -3.4401 -2.1649
  763MOL0     H 5243   0.310   5.167   2.661  2.8178 -1.4340 -0.6994
  763MOL0     H 5244   0.171   4.872   2.570 -0.4901  0.2626 -1.1540
  763MOL0     H 5245   0.342   4.907   2.635  0.3450 -1.7260 -1.2060
  763MOL0     H 5246   0.310   4.835   2.357 -5.7978  2.9408  2.4614
  763MOL0     H 5247   0.453   4.838   2.452  1.1388 -1.7720 -2.9161
  763MOL0     H 5248   0.204   4.663   2.503 -0.8061 -0.9764 -2.3701
  763MOL0     H 5249   0.326   4.606   2.388 -0.7615  0.3345 -1.0814
  763MOL0     H 5250   0.374   4.662   2.684  0.3111 -2.1060  2.1559
  763MOL0     H 5251   0.351   4.503   2.613 -0.5466 -0.5332 -1.1287
  763MOL0     H 5252   0.494   4.482   2.816  0.7992  1.0608  3.3699
  763MOL0     H 5253   0.696   4.390   3.084 -2.5941 -2.1397  0.7027
  763MOL0     H 5254   0.574   4.331   2.969 -0.4369  1.7858 -3.7232
  763MOL0     H 5255   0.559   4.495   3.045 -0.8240 -1.0298  0.4064
  763MOL0     H 5256   1.197   4.394   3.081  0.9490  0.6563  0.9584
  763MOL0     H 5257   1.282   4.359   3.320  0.8265  0.1401 -1.5932
  763MOL0     H 5258   1.042   4.276   3.645  1.4152  0.2686  1.1878
  763MOL0     H 5259   1.028   4.105   3.604 -2.1332  1.8199  0.0430
  763MOL0     H 5260   1.282   4.220   3.703 -0.3383 -0.3970  1.1796
  763MOL0     H 5261   1.154   4.173   3.817  0.0057  0.1320  0.5178
  763MOL0     H 5262   1.330   4.019   3.603 -0.1901 -1.5113 -0.2692
  763MOL0     H 5263   1.183   3.942   3.667  0.5985 -0.8845 -1.0121
  763MOL0     H 5264   1.285   3.985   3.904  0.6449 -0.7223  0.3744
  763MOL0     H 5265   1.434   4.022   3.815  0.4538  0.6000  1.1035
  763MOL0     H 5266   1.280   3.756   3.789  1.3075 -1.3247 -0.2589
  763MOL0     H 5267   1.440   3.801   3.725  1.4434 -0.2890  1.2488
  763MOL0     H 5268   1.440   3.656   3.927  0.7512 -0.1041  0.4084
  763MOL0     H 5269   1.404   3.800   4.028 -0.0408  1.1751 -0.6721
  763MOL0     H 5270   1.613   3.907   3.929 -1.9791  0.4980 -0.2363
  763MOL0     H 5271   1.663   3.753   3.877  1.8301  0.8820  1.3405
  763MOL0     H 5272   1.612   3.835   4.167  0.3782  0.7759  1.3202
  763MOL0     H 5273   1.768   3.794   4.084 -0.0374  0.4072 -1.0786
  763MOL0     H 5274   0.886   4.192   3.405  0.2855 -0.9058  0.0404
  763MOL0     H 5275   0.819   4.260   3.180 -1.7246 -0.2507  1.2530
  763MOL0     H 5276   0.944   4.571   2.692 -0.3054  2.6068  1.5236
  763MOL0     H 5277   0.790   4.616   2.535 -1.9024  1.9359  0.0687
  763MOL0     H 5278   0.945   5.746   2.494 -0.5390  1.7114 -2.0408
  763MOL0     H 5279   1.151   5.773   2.658 -1.6016 -1.3063  0.1442
  763MOL0     H 5280   1.626   5.700   2.574 -2.8695 -0.4462  0.6737
  763MOL0     H 5281   1.864   5.671   2.633 -0.5405  0.0026 -0.6432
  763MOL0     H 5282   2.117   5.710   2.754 -3.6461 -0.0762 -2.4379
  763MOL0     H 5283   1.992   5.829   2.748 -0.0990 -0.1132  0.8092
  763MOL0     H 5284   2.043   5.927   2.962 -0.2532  0.4886  1.1980
  763MOL0     H 5285   2.182   5.931   2.850 -1.9836 -0.0768 -1.5935
  763MOL0     H 5286   2.161   5.729   3.083  1.0936 -0.7083  0.1204
  763MOL0     H 5287   2.285   5.727   2.962 -1.0883  0.5589 -1.6712
  763MOL0     H 5288   2.362   5.960   3.013  0.2147  0.3626  0.5926
  763MOL0     H 5289   2.369   5.871   3.154  3.7395 -0.7382 -3.2565
  763MOL0     H 5290   2.077   6.150   3.273  0.0156  1.0321 -0.6554
  763MOL0     H 5291   1.772   5.697   3.042  3.0765  1.3922 -0.4780
  763MOL0     H 5292   1.468   5.660   3.071  1.9130 -0.9234  0.3771
  763MOL0     H 5293   1.533   5.836   3.083 -1.6523  2.0210 -1.8350
  763MOL0     H 5294   1.412   5.788   2.971 -0.8926  0.3462  2.4324
  764MOL0     O 5295   7.427   4.951   0.819 -0.4827  0.0427  0.2246
  764MOL0     C 5296   7.312   4.923   0.834 -0.3186 -1.0682  0.3364
  764MOL0     O 5297   7.229   5.009   0.902 -0.5174 -0.3474  0.6532
  764MOL0     C 5298   7.275   5.103   0.985  0.5108 -0.0022 -0.9415
  764MOL0     C 5299   7.324   5.219   0.928 -0.2339  0.8021  0.4272
  764MOL0     C 5300   7.374   5.322   1.009 -0.4329  0.6846  0.5808
  764MOL0     C 5301   7.374   5.306   1.153  0.4782 -0.5018 -0.1720
  764MOL0     O 5302   7.421   5.411   1.232 -0.3315 -0.3268  0.5941
  764MOL0     C 5303   7.538   5.375   1.299  0.1277 -1.1468  0.1938
  764MOL0     C 5304   7.671   5.404   1.218 -0.6341  0.3237  0.3165
  764MOL0     C 5305   7.797   5.401   1.303 -0.2643 -0.7414  0.4204
  764MOL0     C 5306   7.921   5.417   1.221 -0.4275  0.3680  0.2442
  764MOL0     C 5307   8.042   5.407   1.307  0.4407  0.3349 -0.3725
  764MOL0     C 5308   8.162   5.404   1.216 -1.1881  0.2878  0.4999
  764MOL0     C 5309   8.300   5.402   1.286 -0.9330 -0.2928 -0.1736
  764MOL0     C 5310   8.321   5.262   1.363  0.1332 -0.1374 -0.1652
  764MOL0     N 5311   8.437   5.265   1.457 -0.6470  0.9247 -0.0667
  764MOL0     C 5312   8.514   5.150   1.486 -0.3255 -0.4187  1.3646
  764MOL0     C 5313   8.608   5.194   1.575  0.3895  0.3936  1.4984
  764MOL0     C 5314   8.729   5.130   1.640  0.5494 -0.0334  0.0989
  764MOL0     C 5315   8.851   5.210   1.601 -0.3540  0.4563  0.5982
  764MOL0     C 5316   8.983   5.178   1.675  0.2167  0.0304 -0.1313
  764MOL0     C 5317   9.109   5.224   1.603  0.1719  0.7111 -0.3827
  764MOL0     O 5318   9.215   5.150   1.667 -1.1213 -0.2471  0.1187
  764MOL0     C 5319   9.329   5.215   1.716 -0.0919  0.2810  1.0576
  764MOL0     C 5320   9.382   5.337   1.673  0.3834 -0.2436 -1.0375
  764MOL0     C 5321   9.506   5.389   1.715  0.0250 -0.0123 -0.3964
  764MOL0     C 5322   9.537   5.529   1.672  0.1059 -0.1624  0.1211
  764MOL0     C 5323   9.591   5.315   1.800 -0.2802 -0.7091 -0.3570
  764MOL0     C 5324   9.725   5.353   1.858  0.2419  0.0589  0.3505
  764MOL0     O 5325   9.806   5.259   1.911 -0.2849 -0.3529  0.5127
  764MOL0     C 5326   9.930   5.306   1.944 -0.3845 -0.5347 -0.0909
  764MOL0     C 5327  10.018   5.358   1.846 -0.0288  0.7572  0.1296
  764MOL0     C 5328  10.144   5.417   1.878 -0.0639  0.0786  0.0884
  764MOL0     C 5329  10.190   5.418   2.010 -0.1569 -0.1086  0.2916
  764MOL0     O 5330  10.322   5.464   2.033 -0.0866  0.7110  0.1333
  764MOL0     C 5331  10.391   5.554   1.942  0.4541 -0.8021 -0.1380
  764MOL0     C 5332  10.524   5.577   1.998 -0.6624  0.7515 -0.2487
  764MOL0     C 5333  10.549   5.634   2.143  0.6062 -0.1535  0.0768
  764MOL0     C 5334  10.699   5.683   2.155 -1.2637 -0.4298 -0.6697
  764MOL0     C 5335  10.733   5.724   2.301 -0.0193  0.6065 -0.1152
  764MOL0     C 5336  10.878   5.740   2.312  0.1031  0.3212  0.0309
  764MOL0     C 5337  10.902   5.814   2.453  0.1606 -0.7032  0.3368
  764MOL0     C 5338  11.044   5.851   2.469 -1.5104 -0.4869  0.1763
  764MOL0    Cl 5339  11.096   5.973   2.342  0.3566 -0.0834 -0.1896
  764MOL0     C 5340  10.112   5.360   2.113 -0.2359  0.9042  0.4076
  764MOL0     C 5341   9.981   5.302   2.078 -0.1666  0.0841 -0.1272
  764MOL0     O 5342   9.750   5.474   1.855  0.0756 -0.5138  0.4759
  764MOL0     C 5343   9.547   5.184   1.823 -0.3988 -0.7040  0.7637
  764MOL0     C 5344   9.418   5.138   1.794  0.7628 -0.6697  0.4394
  764MOL0     N 5345   8.583   5.332   1.585  0.0970  0.5105  0.3282
  764MOL0     N 5346   8.492   5.370   1.515  0.2120  0.2495 -0.9889
  764MOL0     C 5347   7.335   5.183   1.209  0.5748  0.7614 -0.4684
  764MOL0     C 5348   7.285   5.082   1.123 -0.8902 -0.2483 -0.1751
  764MOL0     C 5349   7.264   4.799   0.789  0.1273  0.1231  0.3680
  764MOL0     C 5350   7.353   4.685   0.782  1.0213 -0.1827 -0.0605
  764MOL0     C 5351   7.302   4.565   0.729  0.2686  0.4339 -0.1292
  764MOL0     C 5352   7.169   4.552   0.682  0.8206  0.2156 -0.8187
  764MOL0     O 5353   7.105   4.442   0.632  0.3447  0.1462 -0.7422
  764MOL0     C 5354   7.159   4.309   0.687 -0.3581 -0.6166  0.7607
  764MOL0     C 5355   7.054   4.201   0.698  0.0833 -0.2301  0.3551
  764MOL0     C 5356   7.125   4.070   0.692  0.2977 -0.1743 -0.6736
  764MOL0     C 5357   7.017   3.965   0.686  0.2382 -0.1232 -0.1261
  764MOL0     C 5358   7.066   3.834   0.711 -0.1268  0.2076 -0.6337
  764MOL0     C 5359   7.098   3.719   0.741  0.0163  0.2626  0.4124
  764MOL0     C 5360   7.090   4.663   0.686  0.3661  0.3401 -0.3587
  764MOL0     C 5361   7.130   4.790   0.737  0.1603 -0.0073  0.6965
  764MOL0     C 5362   7.029   4.910   0.743 -0.9531  0.4872  0.2038
  764MOL0     H 5363   7.310   5.232   0.821 -1.2379 -0.6359  0.3579
  764MOL0     H 5364   7.395   5.417   0.960 -1.5778  1.0990  0.8713
  764MOL0     H 5365   7.552   5.274   1.338  1.7680  0.9487  6.2311
  764MOL0     H 5366   7.544   5.443   1.385 -2.5819  0.7119 -0.9518
  764MOL0     H 5367   7.682   5.327   1.141  3.8700  0.7357  0.3182
  764MOL0     H 5368   7.657   5.504   1.175  1.8863  1.1492  1.2670
  764MOL0     H 5369   7.793   5.474   1.384 -0.0856  0.1493 -0.3521
  764MOL0     H 5370   7.794   5.300   1.346  0.6148 -1.1155 -0.3416
  764MOL0     H 5371   7.921   5.335   1.148 -2.6513 -1.1015  1.7710
  764MOL0     H 5372   7.908   5.508   1.161  2.5706  0.4228 -0.4961
  764MOL0     H 5373   8.039   5.311   1.359  3.3363  1.2260  1.7540
  764MOL0     H 5374   8.063   5.485   1.382  5.4642 -0.4803 -0.5340
  764MOL0     H 5375   8.160   5.316   1.150  2.5835  1.3087 -1.2454
  764MOL0     H 5376   8.159   5.483   1.141 -2.4567  0.5437  0.7906
  764MOL0     H 5377   8.298   5.486   1.356  1.9420 -1.5479  1.6104
  764MOL0     H 5378   8.380   5.406   1.212 -0.9218  0.8299 -0.1096
  764MOL0     H 5379   8.230   5.238   1.419  0.1646  0.2712  0.0679
  764MOL0     H 5380   8.333   5.175   1.299 -2.0512 -1.2270  0.7881
  764MOL0     H 5381   8.510   5.044   1.459 -3.7034 -0.1421  0.2736
  764MOL0     H 5382   8.729   5.026   1.607  2.4131 -0.4979  1.4302
  764MOL0     H 5383   8.709   5.134   1.748 -3.2129  2.4289 -0.4922
  764MOL0     H 5384   8.868   5.185   1.496  2.6916 -1.4450  1.4000
  764MOL0     H 5385   8.829   5.317   1.602 -1.0880  0.4762 -3.4014
  764MOL0     H 5386   8.972   5.232   1.770 -0.7520 -1.5860  0.7175
  764MOL0     H 5387   8.992   5.074   1.707 -0.3592 -0.3686 -1.2245
  764MOL0     H 5388   9.097   5.198   1.498  0.7396  0.8309 -0.4830
  764MOL0     H 5389   9.118   5.332   1.623  1.4249  0.7165 -0.8592
  764MOL0     H 5390   9.331   5.413   1.615  0.9888  1.2235  0.2468
  764MOL0     H 5391   9.642   5.540   1.644  0.0402  1.7180  0.4306
  764MOL0     H 5392   9.517   5.600   1.753 -0.6023  2.0085 -1.8418
  764MOL0     H 5393   9.475   5.565   1.590  1.3264 -1.1075 -1.2604
  764MOL0     H 5394  10.008   5.342   1.739  0.2117 -3.0273  0.5271
  764MOL0     H 5395  10.197   5.446   1.788  1.0547  1.6140  1.1813
  764MOL0     H 5396  10.398   5.503   1.846 -1.6492 -0.8160 -0.3225
  764MOL0     H 5397  10.340   5.650   1.939  1.2985 -0.3566 -1.8975
  764MOL0     H 5398  10.579   5.483   1.987 -1.1637  0.6297 -1.9146
  764MOL0     H 5399  10.581   5.653   1.944  0.0853 -0.2220 -0.8481
  764MOL0     H 5400  10.536   5.551   2.213 -1.3001  0.8009  0.9437
  764MOL0     H 5401  10.480   5.715   2.170  0.6196 -0.1695  0.1584
  764MOL0     H 5402  10.720   5.773   2.097 -4.0441  0.6168 -0.2254
  764MOL0     H 5403  10.767   5.602   2.125 -2.2368 -0.9471 -1.5513
  764MOL0     H 5404  10.678   5.815   2.330 -1.0351 -0.1550  0.4254
  764MOL0     H 5405  10.693   5.640   2.358 -0.4476  0.7593 -0.1868
  764MOL0     H 5406  10.917   5.793   2.225 -0.2617  0.3174 -0.1326
  764MOL0     H 5407  10.925   5.641   2.306 -0.2896  0.2319 -2.1984
  764MOL0     H 5408  10.881   5.745   2.535  1.6924 -0.7788  0.6865
  764MOL0     H 5409  10.840   5.904   2.448  1.4416  0.1487 -3.0852
  764MOL0     H 5410  11.111   5.765   2.464  1.4881  1.6030  1.3068
  764MOL0     H 5411  11.065   5.893   2.568  3.6781  0.3704 -1.0237
  764MOL0     H 5412  10.141   5.350   2.217  3.9117  1.8875 -0.4910
  764MOL0     H 5413   9.929   5.246   2.154  0.9605  2.4814  2.6072
  764MOL0     H 5414   9.600   5.108   1.879 -1.9230 -1.9498  0.5927
  764MOL0     H 5415   9.389   5.041   1.835  1.9168 -0.2770  2.2917
  764MOL0     H 5416   7.334   5.164   1.316 -0.3301 -0.7861 -0.7168
  764MOL0     H 5417   7.256   4.982   1.153  0.8742 -0.2484  1.7102
  764MOL0     H 5418   7.458   4.698   0.807  1.2536 -1.6382 -0.1881
  764MOL0     H 5419   7.364   4.476   0.721  1.0794  0.6037  2.9478
  764MOL0     H 5420   7.235   4.263   0.624 -1.0372 -2.4189  1.1731
  764MOL0     H 5421   7.195   4.326   0.789 -0.8639 -0.8719  0.9863
  764MOL0     H 5422   6.989   4.210   0.611  1.6378  0.0862 -0.8244
  764MOL0     H 5423   6.996   4.211   0.791  0.3384  3.5063  0.2316
  764MOL0     H 5424   7.180   4.068   0.598 -0.2403  0.8986 -1.0261
  764MOL0     H 5425   7.187   4.045   0.780  2.7344  0.4234 -2.1274
  764MOL0     H 5426   6.960   3.961   0.593  1.9591 -2.5852 -1.1878
  764MOL0     H 5427   6.943   3.994   0.761 -0.3927  0.6270 -1.0249
  764MOL0     H 5428   7.142   3.626   0.770  0.0617  0.0931 -0.1885
  764MOL0     H 5429   6.990   4.645   0.648  0.4277  2.0491 -1.4113
  764MOL0     H 5430   7.008   4.947   0.844  3.0034  1.5129  0.8072
  764MOL0     H 5431   7.060   5.002   0.692  0.3832  0.3244  0.7062
  764MOL0     H 5432   6.939   4.881   0.689 -1.2022  1.3413  0.1374
  765MOL0     O 5433   3.714   6.087   3.352  0.7383  0.1290 -0.2943
  765MOL0     C 5434   3.665   6.063   3.466  0.7951  0.1680  0.6648
  765MOL0     O 5435   3.731   6.075   3.587 -1.0626 -0.3261 -0.2282
  765MOL0     C 5436   3.870   6.053   3.595  0.6937  0.7400 -0.2331
  765MOL0     C 5437   3.951   6.119   3.692  0.0350 -0.6836  0.1084
  765MOL0     C 5438   4.092   6.108   3.689  0.5034  0.5377 -0.3193
  765MOL0     C 5439   4.159   6.029   3.595  0.7529 -1.1675 -0.0171
  765MOL0     O 5440   4.296   6.014   3.589 -0.2471 -0.2364 -0.3699
  765MOL0     C 5441   4.365   6.137   3.578 -0.3124 -0.9019  0.3988
  765MOL0     C 5442   4.507   6.107   3.504 -0.1892  0.2193 -0.2245
  765MOL0     C 5443   4.594   6.033   3.602 -0.5371  0.1386 -0.2772
  765MOL0     C 5444   4.732   6.000   3.552 -0.2132 -0.3973  0.3260
  765MOL0     C 5445   4.815   5.943   3.669 -0.2521 -0.2918 -0.1851
  765MOL0     C 5446   4.799   5.787   3.663  0.9031 -0.3602 -0.8395
  765MOL0     C 5447   4.927   5.726   3.601  0.0850 -0.1100 -0.7083
  765MOL0     C 5448   4.914   5.577   3.587 -0.0993  0.1545 -0.1542
  765MOL0     N 5449   5.023   5.530   3.497 -0.0476 -0.5163 -0.3514
  765MOL0     C 5450   5.156   5.512   3.531  0.1422 -0.6787 -0.6012
  765MOL0     C 5451   5.204   5.417   3.448 -0.7741 -0.1191 -0.1984
  765MOL0     C 5452   5.339   5.345   3.475  0.4902 -0.2205  0.5194
  765MOL0     C 5453   5.341   5.254   3.595 -0.8403 -0.2942  0.4059
  765MOL0     C 5454   5.319   5.110   3.556  0.3472 -1.0089  0.6245
  765MOL0     C 5455   5.434   5.047   3.480  0.4926 -0.1006 -0.1948
  765MOL0     O 5456   5.563   5.065   3.551  0.3211  0.1897 -0.0065
  765MOL0     C 5457   5.672   5.106   3.474 -0.4369 -0.7928  0.1170
  765MOL0     C 5458   5.727   5.027   3.367  0.0292 -0.0520  0.1229
  765MOL0     C 5459   5.824   5.070   3.279  0.0443  0.1520  0.8393
  765MOL0     C 5460   5.859   4.982   3.163 -0.1576  0.0146 -0.5463
  765MOL0     C 5461   5.881   5.204   3.302  0.1756 -0.2375 -0.4271
  765MOL0     C 5462   5.984   5.275   3.214 -1.0493 -0.1589 -0.0049
  765MOL0     O 5463   5.990   5.412   3.237 -0.2549  0.4969  0.6067
  765MOL0     C 5464   6.056   5.500   3.158 -0.1899  0.7524 -0.0868
  765MOL0     C 5465   6.077   5.630   3.208 -0.4975  0.6676 -0.0687
  765MOL0     C 5466   6.157   5.730   3.136 -0.4959  0.4651 -0.2419
  765MOL0     C 5467   6.196   5.696   3.005  0.1766  0.4658 -0.1831
  765MOL0     O 5468   6.268   5.776   2.919 -0.4583 -0.2503 -0.5773
  765MOL0     C 5469   6.378   5.847   2.993  0.0020  0.4150  0.5024
  765MOL0     C 5470   6.511   5.765   2.996 -0.2975 -0.4397  0.4317
  765MOL0     C 5471   6.567   5.726   2.855 -0.2508  0.2268  0.2196
  765MOL0     C 5472   6.640   5.849   2.790 -0.2066  0.7603  0.7006
  765MOL0     C 5473   6.770   5.898   2.859  0.6974 -0.5544  0.6094
  765MOL0     C 5474   6.860   5.975   2.765  0.4727 -0.4860  0.4694
  765MOL0     C 5475   6.790   6.089   2.691 -0.8658 -0.5091  0.3939
  765MOL0     C 5476   6.906   6.167   2.625  1.2656  0.6606 -0.0716
  765MOL0    Cl 5477   6.850   6.316   2.528  0.2649  0.0481  0.0178
  765MOL0     C 5478   6.165   5.570   2.946 -0.5376 -0.1887 -1.0824
  765MOL0     C 5479   6.095   5.472   3.023 -0.1570  1.0818  1.1974
  765MOL0     O 5480   6.040   5.215   3.124  0.0584  0.3376  0.4593
  765MOL0     C 5481   5.823   5.285   3.409  0.4463 -1.4051  0.2036
  765MOL0     C 5482   5.736   5.223   3.491  1.0472 -0.3255 -0.4897
  765MOL0     N 5483   5.109   5.400   3.349 -0.5440  0.5880  0.5996
  765MOL0     N 5484   4.997   5.455   3.385  0.3537 -0.4709  0.3177
  765MOL0     C 5485   4.080   5.952   3.510  0.6026  0.3209  0.0035
  765MOL0     C 5486   3.940   5.971   3.506  0.3120  0.4229  0.8858
  765MOL0     C 5487   3.513   6.029   3.475  0.5382  1.3013 -0.5704
  765MOL0     C 5488   3.468   6.024   3.610  0.5964  1.1680 -0.4824
  765MOL0     C 5489   3.326   6.017   3.630  0.3029 -0.3429  0.2810
  765MOL0     C 5490   3.241   6.006   3.528  0.4041 -0.0044  0.0737
  765MOL0     O 5491   3.108   6.022   3.558 -0.4497 -0.1742 -0.4445
  765MOL0     C 5492   3.002   5.985   3.465 -0.4017 -0.5193 -0.6037
  765MOL0     C 5493   2.968   5.836   3.473  1.0411 -0.5679 -0.4583
  765MOL0     C 5494   2.844   5.796   3.392  0.4391 -0.8829 -0.7373
  765MOL0     C 5495   2.715   5.847   3.460  0.2392 -0.4624  0.0351
  765MOL0     C 5496   2.607   5.763   3.398 -0.1047 -0.2785  0.0160
  765MOL0     C 5497   2.508   5.721   3.345 -0.8227 -0.2266 -0.0335
  765MOL0     C 5498   3.298   6.009   3.392  0.3137 -1.5960 -0.6370
  765MOL0     C 5499   3.432   6.011   3.362  0.6509 -0.8088 -0.2157
  765MOL0     C 5500   3.466   6.001   3.214 -0.4965 -0.4468 -0.8934
  765MOL0     H 5501   3.910   6.176   3.775 -1.8644 -2.8724  0.7776
  765MOL0     H 5502   4.139   6.159   3.772 -0.5138 -1.6028  1.7060
  765MOL0     H 5503   4.372   6.179   3.678  0.0483  1.1090 -0.4054
  765MOL0     H 5504   4.318   6.215   3.517 -0.1538 -0.8303  0.3686
  765MOL0     H 5505   4.500   6.050   3.411  2.8648 -0.5056 -0.1275
  765MOL0     H 5506   4.562   6.199   3.482  0.1580 -0.3516 -1.8485
  765MOL0     H 5507   4.605   6.105   3.684 -2.7244  0.2873 -0.0521
  765MOL0     H 5508   4.542   5.939   3.619 -0.9570 -0.1884 -2.9929
  765MOL0     H 5509   4.735   5.936   3.463  0.0439  0.5543 -0.3602
  765MOL0     H 5510   4.777   6.093   3.517  1.5575 -1.5138 -0.5270
  765MOL0     H 5511   4.770   5.985   3.759 -3.1965  0.8346 -2.0411
  765MOL0     H 5512   4.920   5.965   3.647 -1.0026  1.3155 -2.5678
  765MOL0     H 5513   4.798   5.750   3.766  0.7247 -0.6748 -0.9558
  765MOL0     H 5514   4.704   5.763   3.616  0.4772 -0.5338  0.0819
  765MOL0     H 5515   5.014   5.750   3.663  1.2449 -1.9579 -1.5342
  765MOL0     H 5516   4.938   5.782   3.507 -1.3725  0.9751 -0.2754
  765MOL0     H 5517   4.915   5.534   3.687  0.1823  0.1067 -0.1773
  765MOL0     H 5518   4.821   5.554   3.533  0.5252 -0.1095 -1.1369
  765MOL0     H 5519   5.204   5.550   3.620  0.6467 -0.7728 -0.8324
  765MOL0     H 5520   5.418   5.420   3.469 -0.4487  0.6874 -1.2420
  765MOL0     H 5521   5.350   5.297   3.378  0.2205  1.8714 -0.6062
  765MOL0     H 5522   5.438   5.263   3.645 -1.2301  1.3521  0.9298
  765MOL0     H 5523   5.266   5.296   3.663  0.0245  2.0868  0.0052
  765MOL0     H 5524   5.303   5.050   3.646  3.4092  1.9294  3.4171
  765MOL0     H 5525   5.226   5.111   3.497  0.6946  1.1589  0.0080
  765MOL0     H 5526   5.419   4.941   3.460  1.1546 -0.7192  2.2884
  765MOL0     H 5527   5.443   5.104   3.387  0.1116  2.3288  1.1691
  765MOL0     H 5528   5.703   4.925   3.341  0.4339  0.1091 -0.9411
  765MOL0     H 5529   5.791   4.899   3.148 -1.9215  1.6181 -1.8720
  765MOL0     H 5530   5.955   4.933   3.184  0.1474  1.1079  0.8024
  765MOL0     H 5531   5.876   5.037   3.070 -0.2502 -2.4940 -2.1042
  765MOL0     H 5532   6.038   5.668   3.302  1.4646  1.1545  0.6017
  765MOL0     H 5533   6.187   5.821   3.186 -2.4874 -0.8347  3.7972
  765MOL0     H 5534   6.395   5.942   2.942 -1.4501  0.6583  0.4073
  765MOL0     H 5535   6.358   5.857   3.100 -0.7019  0.4159  0.3776
  765MOL0     H 5536   6.590   5.824   3.044 -0.4701  2.6512 -2.6455
  765MOL0     H 5537   6.493   5.675   3.055  0.6440  0.3430  1.9857
  765MOL0     H 5538   6.495   5.689   2.782  0.2746  0.2064 -0.2920
  765MOL0     H 5539   6.636   5.644   2.877  1.7856  2.3770  2.5336
  765MOL0     H 5540   6.572   5.933   2.778 -0.0539  1.1223  2.2037
  765MOL0     H 5541   6.660   5.816   2.687 -0.1273  0.1345  0.9099
  765MOL0     H 5542   6.749   5.964   2.944 -0.9176 -0.1805 -0.0433
  765MOL0     H 5543   6.831   5.819   2.904  0.1076 -2.2021 -1.3605
  765MOL0     H 5544   6.903   5.900   2.698 -0.6128 -1.8756  1.2444
  765MOL0     H 5545   6.940   6.015   2.828  0.9402 -0.6891  0.0075
  765MOL0     H 5546   6.737   6.154   2.762 -2.3892 -0.0910 -1.0725
  765MOL0     H 5547   6.716   6.047   2.623 -0.0366 -2.3546  0.5721
  765MOL0     H 5548   6.960   6.108   2.551 -0.1359 -0.0136 -0.5848
  765MOL0     H 5549   6.981   6.200   2.698  0.5805 -1.4517  1.6921
  765MOL0     H 5550   6.208   5.551   2.849 -0.1229 -0.4718 -0.8494
  765MOL0     H 5551   6.074   5.385   2.961 -0.4814  1.5635  0.6198
  765MOL0     H 5552   5.849   5.390   3.421 -2.2737 -0.5162 -0.8176
  765MOL0     H 5553   5.702   5.257   3.588  0.3785 -0.4009 -0.6920
  765MOL0     H 5554   4.131   5.898   3.430  1.7014  0.8028  0.3581
  765MOL0     H 5555   3.885   5.917   3.429  0.6508 -1.6410  1.9950
  765MOL0     H 5556   3.536   6.032   3.694  3.3628  2.7648 -2.6661
  765MOL0     H 5557   3.289   6.013   3.732  1.4853 -0.6674  0.7179
  765MOL0     H 5558   2.916   6.034   3.512  2.0417  1.9618  1.6404
  765MOL0     H 5559   3.013   6.020   3.361 -2.4908  1.5963 -0.1938
  765MOL0     H 5560   2.950   5.828   3.581 -2.7680  1.5741 -0.7517
  765MOL0     H 5561   3.050   5.771   3.441 -1.0667 -4.0859  0.7473
  765MOL0     H 5562   2.843   5.829   3.288  0.5229  1.7684  0.0359
  765MOL0     H 5563   2.839   5.687   3.401 -1.3128 -1.2950 -4.6334
  765MOL0     H 5564   2.678   5.945   3.431 -0.6423 -2.1008 -5.5623
  765MOL0     H 5565   2.722   5.837   3.569 -2.8328  2.3347  0.6403
  765MOL0     H 5566   2.444   5.663   3.283  0.5932 -2.5457  0.5483
  765MOL0     H 5567   3.228   6.011   3.309  0.2486  1.1373 -0.5996
  765MOL0     H 5568   3.379   5.987   3.150 -0.7312 -0.1975 -0.6370
  765MOL0     H 5569   3.512   6.093   3.178  0.9361 -0.6800  0.2553
  765MOL0     H 5570   3.533   5.917   3.194  1.7352  0.9617  0.2487
  766MOL0     O 5571   5.879   5.038   8.941  0.4360 -0.3405 -0.7307
  766MOL0     C 5572   5.884   5.146   8.877 -0.0887 -0.0267 -0.4721
  766MOL0     O 5573   6.001   5.206   8.833  0.0791  0.3599  0.3256
  766MOL0     C 5574   6.100   5.116   8.790 -0.0591  0.3680 -0.0089
  766MOL0     C 5575   6.155   5.031   8.883 -0.6924 -0.3043 -0.5205
  766MOL0     C 5576   6.267   4.956   8.843 -0.7593  0.6347  0.3146
  766MOL0     C 5577   6.329   4.964   8.723 -0.1516  0.4415  0.7638
  766MOL0     O 5578   6.445   4.884   8.702 -0.5460 -0.0268 -0.1552
  766MOL0     C 5579   6.510   4.894   8.570  0.9184 -0.0455 -0.0114
  766MOL0     C 5580   6.646   4.835   8.584 -0.0723  1.2429  0.4527
  766MOL0     C 5581   6.736   4.868   8.461  0.9971 -0.7792  0.0038
  766MOL0     C 5582   6.805   5.005   8.468  0.2323  0.3980 -0.2888
  766MOL0     C 5583   6.918   5.016   8.372 -0.1778 -0.1880  0.9188
  766MOL0     C 5584   7.031   4.909   8.401  1.1654  0.0164 -1.2069
  766MOL0     C 5585   7.154   4.946   8.324  0.9209 -0.7037  0.0318
  766MOL0     C 5586   7.265   4.861   8.397 -0.2775  0.1503  0.1858
  766MOL0     N 5587   7.400   4.894   8.349 -1.4479  0.3555  0.2398
  766MOL0     C 5588   7.466   5.018   8.350  0.0363 -0.2823  0.5574
  766MOL0     C 5589   7.566   5.010   8.253 -0.0021 -0.8608  0.7833
  766MOL0     C 5590   7.660   5.124   8.212 -0.7731 -0.2346  0.6955
  766MOL0     C 5591   7.793   5.081   8.141  0.1542 -0.6363  0.6917
  766MOL0     C 5592   7.880   5.207   8.106  0.7570  0.8312 -0.3474
  766MOL0     C 5593   8.010   5.171   8.033 -0.1502  1.2729  0.7087
  766MOL0     O 5594   8.089   5.069   8.096 -0.4756 -0.4480 -0.0162
  766MOL0     C 5595   8.219   5.053   8.067 -0.6214 -0.1377 -0.3040
  766MOL0     C 5596   8.287   4.944   8.134 -0.6456 -0.1105 -0.0012
  766MOL0     C 5597   8.425   4.916   8.115  0.8533 -0.4549  0.2613
  766MOL0     C 5598   8.486   4.812   8.197  0.1750  0.4348  0.8610
  766MOL0     C 5599   8.498   5.012   8.042  0.5798 -0.3297  0.1633
  766MOL0     C 5600   8.655   5.002   8.021  0.2212 -0.1615 -0.9288
  766MOL0     O 5601   8.729   4.926   8.107  0.4004 -0.2856 -0.2288
  766MOL0     C 5602   8.860   4.935   8.116 -0.2766 -0.3067 -0.4737
  766MOL0     C 5603   8.930   4.815   8.098 -0.0907 -0.1286  0.6557
  766MOL0     C 5604   9.070   4.818   8.105  0.2036  0.1446 -0.2990
  766MOL0     C 5605   9.145   4.936   8.131  0.0885 -0.1745  0.2435
  766MOL0     O 5606   9.273   4.952   8.137  0.5310  0.6599  0.5445
  766MOL0     C 5607   9.351   4.838   8.126  0.1519  0.0751 -0.5576
  766MOL0     C 5608   9.497   4.884   8.121  0.4252  0.2325 -0.0310
  766MOL0     C 5609   9.596   4.756   8.145  0.3738 -0.1949 -0.0083
  766MOL0     C 5610   9.744   4.791   8.189 -0.0471  0.3765 -0.6239
  766MOL0     C 5611   9.758   4.848   8.327 -0.5974  0.0657  0.7258
  766MOL0     C 5612   9.677   4.779   8.439 -0.0800 -0.4198 -0.0247
  766MOL0     C 5613   9.725   4.847   8.574  0.3811  1.1380 -0.5336
  766MOL0     C 5614   9.610   4.861   8.677  0.4562 -0.4673  0.2703
  766MOL0    Cl 5615   9.473   4.956   8.635 -0.1125  0.0137  0.1169
  766MOL0     C 5616   9.067   5.053   8.147 -0.4763 -0.8064 -0.0115
  766MOL0     C 5617   8.925   5.062   8.138  0.5748  0.1465  0.0680
  766MOL0     O 5618   8.701   5.055   7.921 -0.5326 -0.0464  0.3032
  766MOL0     C 5619   8.433   5.121   7.984 -1.1552 -0.0695 -0.7379
  766MOL0     C 5620   8.303   5.143   7.994  0.2651  0.6290 -0.3127
  766MOL0     N 5621   7.557   4.888   8.204  0.6190 -0.3891  0.6615
  766MOL0     N 5622   7.463   4.819   8.263  0.3503  0.4221  0.8018
  766MOL0     C 5623   6.259   5.032   8.621 -0.7341  0.1631  0.2243
  766MOL0     C 5624   6.149   5.109   8.656 -0.0285 -0.2339  0.7267
  766MOL0     C 5625   5.760   5.223   8.838 -0.2915  0.3421 -0.6235
  766MOL0     C 5626   5.769   5.344   8.778 -0.7715 -0.0704  0.4562
  766MOL0     C 5627   5.663   5.423   8.730 -0.0676  0.3723  0.9875
  766MOL0     C 5628   5.535   5.382   8.747  0.6104  0.2715 -0.7753
  766MOL0     O 5629   5.419   5.441   8.699 -0.0822 -0.3924 -0.2694
  766MOL0     C 5630   5.428   5.569   8.642 -0.4550 -0.9643 -0.1577
  766MOL0     C 5631   5.288   5.607   8.598  0.7264 -0.9761 -0.1716
  766MOL0     C 5632   5.218   5.653   8.728 -0.3273  0.7612 -0.5030
  766MOL0     C 5633   5.100   5.751   8.713 -0.7653  0.0480 -0.0367
  766MOL0     C 5634   4.986   5.732   8.805 -0.3350 -0.2321 -0.5408
  766MOL0     C 5635   4.898   5.718   8.881  0.6335 -0.6673 -0.6760
  766MOL0     C 5636   5.513   5.260   8.816 -0.0404  0.4772 -0.4329
  766MOL0     C 5637   5.626   5.183   8.870  0.0190 -0.8817  0.6531
  766MOL0     C 5638   5.595   5.051   8.946 -0.4499 -0.0734  0.1896
  766MOL0     H 5639   6.122   5.040   8.986 -1.0375 -2.2158 -0.4148
  766MOL0     H 5640   6.324   4.904   8.919 -0.4227  0.1788 -0.2395
  766MOL0     H 5641   6.529   5.000   8.548  0.2654  0.0815  0.0012
  766MOL0     H 5642   6.460   4.844   8.487  0.3559 -0.6508  0.6753
  766MOL0     H 5643   6.696   4.862   8.678 -0.1464 -0.0740  0.8891
  766MOL0     H 5644   6.645   4.727   8.599 -0.7890  1.0151 -1.0458
  766MOL0     H 5645   6.805   4.785   8.442 -0.2765 -1.7676 -0.4850
  766MOL0     H 5646   6.688   4.861   8.363 -1.9195 -0.4842  1.3241
  766MOL0     H 5647   6.739   5.092   8.454  1.0644  0.6920 -2.9749
  766MOL0     H 5648   6.854   5.005   8.566 -1.7245 -0.9222  0.7567
  766MOL0     H 5649   6.955   5.119   8.372  0.7270 -0.4968  1.2295
  766MOL0     H 5650   6.894   5.005   8.266  1.3706  0.2249  0.4972
  766MOL0     H 5651   7.052   4.890   8.506  1.4928  0.1874 -1.2370
  766MOL0     H 5652   6.992   4.813   8.366 -2.8157  1.0062  0.0322
  766MOL0     H 5653   7.178   5.052   8.340 -1.3602  0.1295 -1.5590
  766MOL0     H 5654   7.134   4.929   8.217 -3.5409  0.4884  0.4806
  766MOL0     H 5655   7.255   4.879   8.504 -0.4212 -3.6833  0.9688
  766MOL0     H 5656   7.255   4.754   8.378  3.4545 -0.2658 -0.3024
  766MOL0     H 5657   7.442   5.114   8.393  0.7556  0.4332 -0.5923
  766MOL0     H 5658   7.671   5.171   8.310  0.2333 -0.5211  0.7322
  766MOL0     H 5659   7.615   5.193   8.140  1.0651  0.4619  0.1763
  766MOL0     H 5660   7.846   5.021   8.214  1.1963 -0.1287  0.3720
  766MOL0     H 5661   7.768   5.015   8.057  0.8301  0.9644 -0.8292
  766MOL0     H 5662   7.815   5.257   8.035 -0.5267  1.0483  0.9248
  766MOL0     H 5663   7.883   5.270   8.196 -2.2665 -0.9497  1.1790
  766MOL0     H 5664   7.992   5.148   7.927  0.6486  3.5834  0.0221
  766MOL0     H 5665   8.067   5.264   8.022 -1.2932  2.0594  1.2878
  766MOL0     H 5666   8.229   4.878   8.198  1.4626 -2.5656 -0.4842
  766MOL0     H 5667   8.525   4.731   8.134  0.8043  0.6054  1.0260
  766MOL0     H 5668   8.409   4.778   8.266 -1.1729  1.9857  0.1816
  766MOL0     H 5669   8.565   4.850   8.263 -0.8839  0.5851  2.0702
  766MOL0     H 5670   8.872   4.726   8.076  0.6367 -0.0824 -1.6742
  766MOL0     H 5671   9.115   4.722   8.081 -5.2522 -3.6481  2.4015
  766MOL0     H 5672   9.332   4.778   8.216  0.5152  0.6089 -0.1154
  766MOL0     H 5673   9.312   4.776   8.045 -2.4424  0.2511  0.4603
  766MOL0     H 5674   9.514   4.933   8.025  2.3380 -0.6884 -0.2039
  766MOL0     H 5675   9.522   4.958   8.197  2.3188 -1.2286  0.8491
  766MOL0     H 5676   9.601   4.694   8.055  1.5129 -1.2624  0.7682
  766MOL0     H 5677   9.553   4.680   8.210  1.7076 -1.1307 -0.1687
  766MOL0     H 5678   9.779   4.856   8.109  0.1423 -0.7414 -1.4731
  766MOL0     H 5679   9.813   4.706   8.195 -0.1214  0.3994  1.0636
  766MOL0     H 5680   9.863   4.870   8.351  0.1851  1.0807 -2.9544
  766MOL0     H 5681   9.716   4.949   8.327 -0.3656  0.3539 -3.5864
  766MOL0     H 5682   9.690   4.671   8.447 -3.4519 -0.8017  1.9489
  766MOL0     H 5683   9.570   4.799   8.434  0.0737  1.7954  2.9429
  766MOL0     H 5684   9.748   4.953   8.560 -1.8010  1.7029 -0.2123
  766MOL0     H 5685   9.802   4.784   8.620  0.8427 -0.6397 -3.4918
  766MOL0     H 5686   9.638   4.895   8.777 -0.9359 -2.0508  1.2430
  766MOL0     H 5687   9.573   4.761   8.700  0.5838 -0.1842  1.7766
  766MOL0     H 5688   9.134   5.138   8.153  0.1366 -0.5677 -5.4235
  766MOL0     H 5689   8.868   5.153   8.147  0.2346 -0.1574  1.0241
  766MOL0     H 5690   8.493   5.192   7.928  1.4815 -1.5518  0.0779
  766MOL0     H 5691   8.262   5.225   7.935  1.3456  0.1451 -1.8075
  766MOL0     H 5692   6.294   5.026   8.518 -1.0530  0.0623  0.1201
  766MOL0     H 5693   6.090   5.160   8.582 -0.3752 -0.8007  0.6042
  766MOL0     H 5694   5.868   5.388   8.774 -0.8046 -0.0335 -3.0400
  766MOL0     H 5695   5.668   5.521   8.684 -4.3595  0.4858  0.3531
  766MOL0     H 5696   5.473   5.645   8.706  1.6532 -2.9620  0.8623
  766MOL0     H 5697   5.495   5.570   8.556 -1.8854  4.0235 -1.5741
  766MOL0     H 5698   5.238   5.523   8.549  1.3080 -0.3860 -1.8180
  766MOL0     H 5699   5.287   5.693   8.530  0.0809 -0.4429  0.4838
  766MOL0     H 5700   5.198   5.558   8.779  0.9920  0.4199 -0.5784
  766MOL0     H 5701   5.287   5.705   8.797  3.3704  1.3945 -4.2583
  766MOL0     H 5702   5.049   5.738   8.617 -0.6706  1.3391 -0.2748
  766MOL0     H 5703   5.150   5.848   8.723  1.6693 -1.3530  2.7749
  766MOL0     H 5704   4.825   5.730   8.958  0.8263 -0.1152 -0.5799
  766MOL0     H 5705   5.412   5.221   8.829 -0.2305  0.8059 -0.8995
  766MOL0     H 5706   5.654   5.052   9.038 -2.8416  1.0973  1.8076
  766MOL0     H 5707   5.491   5.052   8.982 -1.0006  3.7252 -1.0459
  766MOL0     H 5708   5.626   4.964   8.886 -0.4668 -1.6345  2.3439
  767MOL0     O 5709   3.274   2.754   7.740 -0.1734 -0.6080 -0.7132
  767MOL0     C 5710   3.236   2.663   7.810  0.5309  0.4138  0.3439
  767MOL0     O 5711   3.303   2.549   7.834 -0.0989 -0.2350  0.8606
  767MOL0     C 5712   3.396   2.501   7.745 -0.2441  0.3490  0.4784
  767MOL0     C 5713   3.424   2.539   7.610 -0.1991  1.1649  0.3360
  767MOL0     C 5714   3.526   2.475   7.539 -0.0685  0.0698 -0.4523
  767MOL0     C 5715   3.593   2.369   7.596  0.2394 -0.8223 -0.5584
  767MOL0     O 5716   3.699   2.317   7.513 -0.2259  0.5063 -0.6291
  767MOL0     C 5717   3.823   2.307   7.579 -0.3781  0.2361  0.4735
  767MOL0     C 5718   3.916   2.233   7.479 -0.8618  0.5305 -0.0923
  767MOL0     C 5719   4.062   2.207   7.542  0.0119  0.4104 -0.5242
  767MOL0     C 5720   4.173   2.171   7.447  0.0150 -0.0767 -0.0750
  767MOL0     C 5721   4.238   2.284   7.364  0.4236  1.3670 -0.5042
  767MOL0     C 5722   4.390   2.264   7.350 -0.2085  0.3993 -0.3350
  767MOL0     C 5723   4.461   2.338   7.469  0.0365 -0.0243 -0.0037
  767MOL0     C 5724   4.612   2.306   7.470 -0.2570 -0.0446 -0.0539
  767MOL0     N 5725   4.658   2.341   7.608  0.2337  0.0197 -0.0875
  767MOL0     C 5726   4.747   2.442   7.642 -0.3025 -0.2879 -0.3359
  767MOL0     C 5727   4.791   2.426   7.770 -0.8837  0.9358 -0.1895
  767MOL0     C 5728   4.868   2.538   7.836 -0.3538 -0.3204 -1.0756
  767MOL0     C 5729   5.020   2.512   7.822 -0.4386  0.0341  0.1205
  767MOL0     C 5730   5.061   2.369   7.876 -0.8804  0.8886 -0.5068
  767MOL0     C 5731   5.202   2.326   7.835 -0.0883  0.3276 -0.4552
  767MOL0     O 5732   5.297   2.395   7.923 -0.3041 -0.3768 -0.2778
  767MOL0     C 5733   5.415   2.327   7.941 -0.2283 -0.0676 -0.6185
  767MOL0     C 5734   5.475   2.234   7.850 -0.5900  0.4509  0.1506
  767MOL0     C 5735   5.593   2.163   7.876  0.2472 -0.1518  0.3027
  767MOL0     C 5736   5.633   2.055   7.782 -0.3805  0.1828  0.4822
  767MOL0     C 5737   5.658   2.188   7.997  0.1190 -0.2271 -0.6559
  767MOL0     C 5738   5.791   2.134   8.039 -0.5601 -0.0301 -0.6185
  767MOL0     O 5739   5.849   2.197   8.145  0.1857 -0.3529 -0.3896
  767MOL0     C 5740   5.969   2.151   8.186 -0.6805  0.6906 -1.3661
  767MOL0     C 5741   5.982   2.015   8.247  0.5395  0.1999  1.0458
  767MOL0     C 5742   6.110   1.979   8.290 -0.0341 -0.2661 -0.4674
  767MOL0     C 5743   6.223   2.061   8.263  0.2985  0.1517 -0.5949
  767MOL0     O 5744   6.345   1.994   8.280 -0.6259  0.0682  0.1345
  767MOL0     C 5745   6.455   2.077   8.317  0.2662 -0.2077  0.8793
  767MOL0     C 5746   6.580   1.993   8.356 -0.2830 -0.0017  0.6617
  767MOL0     C 5747   6.690   2.092   8.375  0.2926 -0.0133  0.0479
  767MOL0     C 5748   6.824   2.022   8.350  0.2628 -0.0067  0.4720
  767MOL0     C 5749   6.933   2.129   8.322  0.0156 -0.1713 -0.1483
  767MOL0     C 5750   6.954   2.237   8.433  0.4814  0.1815  0.2805
  767MOL0     C 5751   7.064   2.339   8.393 -0.9999 -0.4358 -0.0546
  767MOL0     C 5752   7.097   2.432   8.518  0.0671  0.4846  0.2444
  767MOL0    Cl 5753   7.228   2.349   8.617 -0.0443  0.1082 -0.4379
  767MOL0     C 5754   6.210   2.195   8.221  0.8224 -0.1348  0.0422
  767MOL0     C 5755   6.079   2.241   8.187  0.5793 -0.1705 -0.6474
  767MOL0     O 5756   5.851   2.049   7.977 -0.2308 -0.5497  0.3515
  767MOL0     C 5757   5.605   2.292   8.077 -0.8976  0.1960  0.1007
  767MOL0     C 5758   5.485   2.357   8.057 -0.3916 -0.5484 -0.5057
  767MOL0     N 5759   4.725   2.308   7.815  0.4328  0.4407 -0.0781
  767MOL0     N 5760   4.654   2.256   7.719 -0.8214  0.4868 -0.1469
  767MOL0     C 5761   3.570   2.335   7.727  0.6514 -0.7898  0.0915
  767MOL0     C 5762   3.467   2.394   7.799  0.6156  0.0563 -0.2726
  767MOL0     C 5763   3.117   2.688   7.895  0.1648 -0.1618  0.5588
  767MOL0     C 5764   3.103   2.647   8.031  0.2106 -0.5348  0.5387
  767MOL0     C 5765   3.005   2.680   8.118  0.0924  0.4327  0.5817
  767MOL0     C 5766   2.899   2.761   8.076 -0.1090  0.6521 -0.5128
  767MOL0     O 5767   2.805   2.806   8.156 -0.3859 -0.4648 -0.4396
  767MOL0     C 5768   2.791   2.732   8.280  0.1641 -0.4807 -0.4499
  767MOL0     C 5769   2.663   2.754   8.358  0.4402 -0.2392 -0.8785
  767MOL0     C 5770   2.539   2.714   8.286 -0.0327  0.5042 -0.0575
  767MOL0     C 5771   2.409   2.743   8.361 -0.3100  0.4699  0.2458
  767MOL0     C 5772   2.372   2.883   8.347  0.5068  0.3579  0.5552
  767MOL0     C 5773   2.335   2.991   8.341 -1.0888 -0.1153  0.6385
  767MOL0     C 5774   2.895   2.789   7.944  0.3903  0.5935 -0.2490
  767MOL0     C 5775   2.999   2.760   7.852 -0.6901 -0.0673 -0.5730
  767MOL0     C 5776   2.979   2.829   7.721  0.1217  0.5144 -0.7060
  767MOL0     H 5777   3.362   2.611   7.557 -1.8362 -0.4447 -0.0539
  767MOL0     H 5778   3.551   2.515   7.441  0.7021  0.3102 -0.1666
  767MOL0     H 5779   3.816   2.236   7.663 -1.4833 -0.3309 -0.0739
  767MOL0     H 5780   3.860   2.405   7.611  0.5054 -0.4703  1.7401
  767MOL0     H 5781   3.882   2.136   7.442 -1.8287  1.5254 -1.9325
  767MOL0     H 5782   3.919   2.290   7.386  0.0093 -1.5210 -1.3909
  767MOL0     H 5783   4.085   2.303   7.590  0.8880  0.2684 -0.6396
  767MOL0     H 5784   4.043   2.139   7.626 -2.7443  1.5278 -0.1210
  767MOL0     H 5785   4.246   2.130   7.517 -0.3212 -0.7500 -0.1139
  767MOL0     H 5786   4.147   2.091   7.377  1.5654 -0.7833  0.1146
  767MOL0     H 5787   4.218   2.382   7.407  0.2474  0.7765  0.8211
  767MOL0     H 5788   4.193   2.268   7.265  1.5290 -0.1430 -0.8014
  767MOL0     H 5789   4.434   2.164   7.355 -1.1035  0.0315  0.6045
  767MOL0     H 5790   4.428   2.317   7.263  0.8745  0.0337 -0.1072
  767MOL0     H 5791   4.423   2.316   7.569  1.3025 -0.6361  0.3643
  767MOL0     H 5792   4.458   2.446   7.452  0.4525 -0.2899 -2.0406
  767MOL0     H 5793   4.614   2.197   7.472 -0.1389 -0.0528  2.4308
  767MOL0     H 5794   4.670   2.365   7.399 -0.0570  2.5629  2.0965
  767MOL0     H 5795   4.788   2.509   7.568  3.9245 -0.4115  1.6172
  767MOL0     H 5796   4.839   2.541   7.942  2.3497 -2.7714 -0.1594
  767MOL0     H 5797   4.852   2.635   7.787 -2.9396 -0.9715 -1.6739
  767MOL0     H 5798   5.043   2.514   7.715  0.8736  4.5662  0.2514
  767MOL0     H 5799   5.070   2.586   7.885  0.6862 -2.9767  3.0405
  767MOL0     H 5800   5.052   2.356   7.984 -1.4395 -2.1163 -0.8231
  767MOL0     H 5801   4.999   2.289   7.834  2.9245 -1.7956 -1.4613
  767MOL0     H 5802   5.213   2.217   7.840  3.1706  0.6231  1.9146
  767MOL0     H 5803   5.225   2.356   7.732 -2.2120  0.4929 -0.9280
  767MOL0     H 5804   5.424   2.216   7.756 -1.0477  1.0372  0.2806
  767MOL0     H 5805   5.658   1.963   7.836 -0.5102 -1.7193 -2.5034
  767MOL0     H 5806   5.724   2.086   7.731  1.0330 -1.4190  1.9032
  767MOL0     H 5807   5.560   2.032   7.704  0.0606 -1.8004  0.6056
  767MOL0     H 5808   5.895   1.952   8.257  0.2818  0.7224  2.1872
  767MOL0     H 5809   6.126   1.885   8.342  1.3307  0.1449 -0.0829
  767MOL0     H 5810   6.471   2.142   8.231 -1.4506 -0.1286  0.5981
  767MOL0     H 5811   6.437   2.152   8.394  1.0117 -0.7186  1.5778
  767MOL0     H 5812   6.562   1.946   8.454 -3.5062 -0.7157 -0.1828
  767MOL0     H 5813   6.614   1.912   8.290  1.7937 -0.1409  1.7985
  767MOL0     H 5814   6.688   2.147   8.469 -1.7732  0.1391 -0.0400
  767MOL0     H 5815   6.685   2.169   8.297 -0.2097  1.0683  1.1115
  767MOL0     H 5816   6.807   1.957   8.263 -2.1448 -1.1760  1.7157
  767MOL0     H 5817   6.846   1.957   8.434  2.0953 -0.7034 -0.5078
  767MOL0     H 5818   7.026   2.073   8.313  0.3807  0.2374  0.9624
  767MOL0     H 5819   6.910   2.184   8.230 -2.2969 -0.1977  0.3637
  767MOL0     H 5820   6.974   2.193   8.531  3.2998 -1.8610 -1.0832
  767MOL0     H 5821   6.856   2.287   8.431 -0.3327 -1.0127  3.8429
  767MOL0     H 5822   7.018   2.393   8.310 -2.3321 -2.2931 -0.5975
  767MOL0     H 5823   7.156   2.287   8.364 -0.4855  0.4137  0.0335
  767MOL0     H 5824   7.006   2.449   8.576 -1.5165  1.4327 -2.3144
  767MOL0     H 5825   7.143   2.527   8.490  0.8211  0.7121  2.1429
  767MOL0     H 5826   6.293   2.264   8.206  0.6558  0.1140  0.2470
  767MOL0     H 5827   6.057   2.341   8.151 -0.9015  0.3229  1.4236
  767MOL0     H 5828   5.655   2.328   8.166 -1.6047  1.6517 -0.0614
  767MOL0     H 5829   5.442   2.427   8.127  1.0305 -2.0432  1.9878
  767MOL0     H 5830   3.636   2.256   7.761  5.8490  3.2300  0.6927
  767MOL0     H 5831   3.448   2.357   7.900 -0.1636  2.4144  0.5062
  767MOL0     H 5832   3.175   2.581   8.080  1.4466 -1.0970 -1.8899
  767MOL0     H 5833   3.023   2.638   8.217 -0.6836  1.7382  1.3106
  767MOL0     H 5834   2.799   2.625   8.257 -0.9186 -1.2515  2.3625
  767MOL0     H 5835   2.878   2.759   8.340  2.4125 -1.4080 -3.0718
  767MOL0     H 5836   2.653   2.861   8.382 -0.0582 -1.0393  3.1886
  767MOL0     H 5837   2.658   2.719   8.462 -3.3703 -0.8490 -1.0935
  767MOL0     H 5838   2.534   2.755   8.185  0.8818  0.6297 -0.0558
  767MOL0     H 5839   2.549   2.605   8.276 -1.0562  0.5426 -1.9661
  767MOL0     H 5840   2.416   2.712   8.465 -2.2326  1.7262  0.7962
  767MOL0     H 5841   2.327   2.681   8.324 -1.7269  0.8849  2.5255
  767MOL0     H 5842   2.318   3.095   8.324  0.4781  0.1760  0.7347
  767MOL0     H 5843   2.806   2.838   7.908 -0.4896  0.1945  1.2952
  767MOL0     H 5844   3.066   2.815   7.656  0.5454 -2.1544  0.3174
  767MOL0     H 5845   2.898   2.783   7.664 -0.7238  0.2829  0.6213
  767MOL0     H 5846   2.969   2.934   7.751 -1.1774  1.0664 -2.8362
  768MOL0     O 5847   3.862   3.621   1.319  0.5599 -0.2902 -0.2003
  768MOL0     C 5848   3.954   3.591   1.401  0.2455  0.1605  0.0184
  768MOL0     O 5849   4.081   3.550   1.370 -0.5618  0.1250  0.0564
  768MOL0     C 5850   4.139   3.598   1.250  0.2344 -0.7498  0.3112
  768MOL0     C 5851   4.220   3.518   1.178 -0.8738  0.3479 -0.0952
  768MOL0     C 5852   4.289   3.559   1.061  1.1491 -0.1054 -1.0293
  768MOL0     C 5853   4.281   3.695   1.029 -0.7709 -0.3374  0.1245
  768MOL0     O 5854   4.356   3.748   0.927  0.4571  0.8021  0.5136
  768MOL0     C 5855   4.325   3.870   0.863 -0.2438 -0.0212  0.2921
  768MOL0     C 5856   4.409   3.895   0.736  0.7865  0.0772 -0.7026
  768MOL0     C 5857   4.371   3.795   0.627 -0.2882  0.4511  0.1264
  768MOL0     C 5858   4.424   3.829   0.493 -0.7004  0.1246  0.1345
  768MOL0     C 5859   4.331   3.799   0.376  1.3597  0.3035  1.0515
  768MOL0     C 5860   4.384   3.851   0.238  0.8979  0.2162  0.0556
  768MOL0     C 5861   4.492   3.763   0.180  0.1806  0.4511  0.0065
  768MOL0     C 5862   4.511   3.783   0.036 -0.2035  0.1694 -0.5489
  768MOL0     N 5863   4.615   3.705  -0.026 -0.7744  0.2642 -0.0089
  768MOL0     C 5864   4.672   3.735  -0.149 -0.1095 -0.2493 -0.4647
  768MOL0     C 5865   4.781   3.655  -0.146 -0.2481 -0.0464 -0.1958
  768MOL0     C 5866   4.895   3.655  -0.246 -0.3765 -0.0595 -0.3582
  768MOL0     C 5867   5.035   3.602  -0.199  0.3858  0.5984 -0.4768
  768MOL0     C 5868   5.087   3.687  -0.085  0.5711 -0.3199  1.1207
  768MOL0     C 5869   5.197   3.626  -0.002 -0.0058 -0.3514  0.5985
  768MOL0     O 5870   5.227   3.711   0.105 -0.0197  0.4439 -0.8513
  768MOL0     C 5871   5.152   3.705   0.217  0.2328 -0.1141 -0.6338
  768MOL0     C 5872   5.197   3.767   0.330  0.4334  0.0352  0.1768
  768MOL0     C 5873   5.145   3.739   0.454 -0.2847 -0.2742  0.5408
  768MOL0     C 5874   5.222   3.808   0.570  0.9519  0.3297  0.1440
  768MOL0     C 5875   5.032   3.645   0.472  0.2626  1.0532 -0.1901
  768MOL0     C 5876   4.970   3.603   0.592  0.7478  0.6528  0.2595
  768MOL0     O 5877   4.873   3.508   0.583  0.1309  0.1314 -0.0956
  768MOL0     C 5878   4.807   3.449   0.688 -0.2222 -0.6306 -0.0907
  768MOL0     C 5879   4.803   3.310   0.701 -0.3251 -0.7360  0.0378
  768MOL0     C 5880   4.746   3.249   0.813  0.3188 -0.1425  0.0205
  768MOL0     C 5881   4.663   3.333   0.898 -0.3025  0.2627  0.0413
  768MOL0     O 5882   4.584   3.278   0.989  0.0146  0.2060 -0.4837
  768MOL0     C 5883   4.481   3.192   0.927  0.1687  0.0449  0.5405
  768MOL0     C 5884   4.376   3.158   1.033 -0.5160  0.2836 -0.0401
  768MOL0     C 5885   4.275   3.047   0.989 -0.0996 -1.1586  0.3610
  768MOL0     C 5886   4.173   3.038   1.107 -0.4545  0.7256 -0.0157
  768MOL0     C 5887   4.059   2.943   1.060 -0.1176 -0.3443 -0.3261
  768MOL0     C 5888   3.948   2.935   1.162 -0.3188  0.0858 -0.1700
  768MOL0     C 5889   3.822   2.857   1.115 -0.2800 -0.6058 -0.4304
  768MOL0     C 5890   3.745   2.928   1.004  0.2997  0.6228 -0.5140
  768MOL0    Cl 5891   3.575   2.957   1.054  0.1659  0.1160  0.3908
  768MOL0     C 5892   4.657   3.473   0.878  0.2887  0.5200 -0.1519
  768MOL0     C 5893   4.738   3.526   0.778  0.0767 -1.2131 -0.1828
  768MOL0     O 5894   4.999   3.660   0.693 -0.5781 -0.3265 -0.2395
  768MOL0     C 5895   4.976   3.591   0.353 -0.4894  0.0688  0.0343
  768MOL0     C 5896   5.030   3.623   0.233 -0.8297 -0.2252  0.0118
  768MOL0     N 5897   4.782   3.582  -0.030  1.6990  0.5583 -0.2518
  768MOL0     N 5898   4.677   3.602   0.038 -0.7551  0.1926 -0.6031
  768MOL0     C 5899   4.207   3.784   1.111 -0.5412  1.1048  0.4001
  768MOL0     C 5900   4.133   3.735   1.217  0.7730  0.2142  0.2177
  768MOL0     C 5901   3.917   3.580   1.553 -1.2050 -0.7209 -0.0748
  768MOL0     C 5902   3.796   3.636   1.598  0.1742 -0.5652  0.3180
  768MOL0     C 5903   3.770   3.647   1.740  0.2730 -0.3547  0.4606
  768MOL0     C 5904   3.849   3.585   1.840 -0.0211 -0.6603 -0.5291
  768MOL0     O 5905   3.826   3.587   1.975  0.1240 -0.0433  0.5928
  768MOL0     C 5906   3.684   3.568   2.006 -0.3536  0.1394  0.0616
  768MOL0     C 5907   3.616   3.447   1.949 -0.4621 -0.2660  0.5606
  768MOL0     C 5908   3.668   3.316   2.001 -0.1718  0.1729 -0.4212
  768MOL0     C 5909   3.644   3.189   1.925  0.7400  0.0477 -0.0776
  768MOL0     C 5910   3.500   3.157   1.936 -0.8081 -0.0067 -0.4132
  768MOL0     C 5911   3.391   3.110   1.962 -0.6143 -0.7452 -0.0502
  768MOL0     C 5912   3.964   3.521   1.793 -0.6252  0.4771  0.5871
  768MOL0     C 5913   4.007   3.524   1.657  0.9277 -0.7577  0.0777
  768MOL0     C 5914   4.142   3.475   1.627  0.4277 -0.2637  0.7722
  768MOL0     H 5915   4.235   3.416   1.210 -1.9646  0.0393 -0.5612
  768MOL0     H 5916   4.351   3.490   1.004  0.3451 -1.2362 -0.5774
  768MOL0     H 5917   4.340   3.951   0.935  0.2409  0.8716 -0.7836
  768MOL0     H 5918   4.221   3.865   0.831 -0.2107 -0.8460  0.3007
  768MOL0     H 5919   4.378   3.994   0.702  0.7675 -0.2640 -1.6929
  768MOL0     H 5920   4.516   3.903   0.759  0.9842 -1.6632 -0.9033
  768MOL0     H 5921   4.410   3.700   0.663 -1.5922 -1.3101 -2.7404
  768MOL0     H 5922   4.264   3.772   0.621 -0.3750  1.1002 -2.0928
  768MOL0     H 5923   4.458   3.933   0.494 -0.1858 -0.0317 -0.4416
  768MOL0     H 5924   4.513   3.768   0.478 -0.3642  1.0183 -1.9091
  768MOL0     H 5925   4.226   3.830   0.389  0.2501  0.9395 -5.9224
  768MOL0     H 5926   4.326   3.690   0.369  0.2829  0.2106  2.5656
  768MOL0     H 5927   4.304   3.872   0.167  0.4081  1.9371  1.0554
  768MOL0     H 5928   4.426   3.952   0.249  0.6253  0.3067  0.2661
  768MOL0     H 5929   4.463   3.658   0.194 -3.4892  1.4943  1.6873
  768MOL0     H 5930   4.588   3.764   0.233 -0.0563 -0.9977  0.5184
  768MOL0     H 5931   4.416   3.763  -0.014 -0.5600  3.5985 -1.4924
  768MOL0     H 5932   4.532   3.887   0.007  1.2584 -0.3662 -1.5441
  768MOL0     H 5933   4.632   3.806  -0.221 -0.8954 -1.1641 -0.9627
  768MOL0     H 5934   4.909   3.760  -0.277 -0.3640 -0.0364 -0.2750
  768MOL0     H 5935   4.880   3.605  -0.342 -2.3370  3.3159 -1.9916
  768MOL0     H 5936   5.027   3.496  -0.173 -1.8652  0.5214 -1.2810
  768MOL0     H 5937   5.117   3.602  -0.272  0.2153  1.2767 -0.6759
  768MOL0     H 5938   5.140   3.772  -0.129 -0.3539 -0.5852 -0.5720
  768MOL0     H 5939   5.005   3.727  -0.025  0.5472  0.5486  0.5200
  768MOL0     H 5940   5.159   3.528   0.029 -1.8265  0.3819  0.8011
  768MOL0     H 5941   5.285   3.615  -0.066 -0.8608 -2.0838 -0.3512
  768MOL0     H 5942   5.272   3.846   0.327 -0.7513  1.1722 -0.6224
  768MOL0     H 5943   5.202   3.916   0.572  0.1522  0.3059 -2.4845
  768MOL0     H 5944   5.330   3.792   0.564  0.6840 -1.3345 -0.8759
  768MOL0     H 5945   5.187   3.757   0.660  0.3867  0.2478 -0.1143
  768MOL0     H 5946   4.857   3.251   0.627  1.3155  0.6364  0.0966
  768MOL0     H 5947   4.768   3.143   0.814  1.3453  0.0650  0.4373
  768MOL0     H 5948   4.432   3.240   0.842  0.0105 -0.4829  0.3252
  768MOL0     H 5949   4.523   3.095   0.896  0.6329  1.0060 -2.0703
  768MOL0     H 5950   4.440   3.129   1.117  0.7638 -2.2051 -1.7378
  768MOL0     H 5951   4.324   3.248   1.067  1.7966  1.0970  1.6031
  768MOL0     H 5952   4.323   2.952   0.964  0.5108 -1.2639  1.8225
  768MOL0     H 5953   4.223   3.082   0.900  0.6114  3.1137  1.4056
  768MOL0     H 5954   4.143   3.143   1.116 -0.4904  0.7359 -0.2701
  768MOL0     H 5955   4.216   3.002   1.202  2.1978 -0.7841 -1.6471
  768MOL0     H 5956   4.017   2.991   0.972 -1.2293 -1.6628 -0.5540
  768MOL0     H 5957   4.094   2.844   1.027 -0.8875 -0.7047 -0.1008
  768MOL0     H 5958   3.907   3.030   1.199  3.5594  0.8211  2.9589
  768MOL0     H 5959   3.989   2.888   1.252 -3.8316 -0.2318  1.4098
  768MOL0     H 5960   3.761   2.841   1.204  0.1662 -0.5015 -0.1047
  768MOL0     H 5961   3.856   2.756   1.091  1.3465 -0.8156  2.2685
  768MOL0     H 5962   3.748   2.868   0.913  3.3184  0.8833 -0.6749
  768MOL0     H 5963   3.796   3.023   0.986  0.7441 -0.0503 -3.2874
  768MOL0     H 5964   4.589   3.531   0.940 -1.8249  0.0657 -1.9309
  768MOL0     H 5965   4.738   3.633   0.762 -0.5753 -1.0788  0.6217
  768MOL0     H 5966   4.891   3.523   0.355 -1.1977  0.8140 -2.0304
  768MOL0     H 5967   4.990   3.595   0.136 -0.5845 -0.3712 -0.0486
  768MOL0     H 5968   4.208   3.893   1.114  3.9074  1.2880 -0.1675
  768MOL0     H 5969   4.064   3.798   1.271  2.3976  0.8232  1.6911
  768MOL0     H 5970   3.734   3.682   1.522  3.7293  5.9143  0.5577
  768MOL0     H 5971   3.682   3.702   1.774  2.4642  0.3897  5.9424
  768MOL0     H 5972   3.674   3.560   2.115 -0.7253 -1.6138 -0.0863
  768MOL0     H 5973   3.625   3.655   1.974 -2.6104 -1.3362  0.0380
  768MOL0     H 5974   3.635   3.443   1.841  1.1206 -0.8825  0.8370
  768MOL0     H 5975   3.509   3.455   1.971 -0.8087 -2.0523 -0.3387
  768MOL0     H 5976   3.777   3.328   2.006 -0.0164 -1.4664  0.9412
  768MOL0     H 5977   3.646   3.322   2.108  2.7845 -1.5887  0.3969
  768MOL0     H 5978   3.701   3.110   1.975 -0.6680 -0.6768  0.4510
  768MOL0     H 5979   3.673   3.200   1.820  1.2209  1.0237  0.1442
  768MOL0     H 5980   3.296   3.061   1.972  0.3669 -2.2187  4.0708
  768MOL0     H 5981   4.031   3.480   1.868  2.2789 -0.4243 -2.3107
  768MOL0     H 5982   4.181   3.413   1.708  0.3575  0.0097  1.0132
  768MOL0     H 5983   4.136   3.400   1.547  0.7936  0.3578  0.1544
  768MOL0     H 5984   4.209   3.551   1.586 -2.2122 -0.2692 -4.3384
  769MOL0     O 5985   3.686   3.582   8.705  0.9744  0.6423  0.5107
  769MOL0     C 5986   3.630   3.484   8.647  0.7854 -1.0378 -0.5183
  769MOL0     O 5987   3.685   3.365   8.620 -0.2887 -0.0446 -0.2967
  769MOL0     C 5988   3.828   3.361   8.640  0.4641  0.1052  0.4790
  769MOL0     C 5989   3.890   3.301   8.752 -0.4938 -0.0094  1.0794
  769MOL0     C 5990   4.029   3.289   8.758  0.3776 -0.6256 -0.7030
  769MOL0     C 5991   4.105   3.326   8.653 -0.3136 -0.4013  0.6937
  769MOL0     O 5992   4.234   3.287   8.640 -0.1258  0.2155  0.1458
  769MOL0     C 5993   4.247   3.147   8.647 -0.5776  0.3808 -0.2852
  769MOL0     C 5994   4.343   3.107   8.537 -0.1198 -0.1522  0.1818
  769MOL0     C 5995   4.487   3.154   8.546 -0.2166  0.2604 -0.5622
  769MOL0     C 5996   4.565   3.128   8.420  0.2445  0.2557  0.0090
  769MOL0     C 5997   4.503   3.189   8.290  0.5134 -0.7704  0.5115
  769MOL0     C 5998   4.633   3.216   8.193  1.0339 -0.3624 -0.4410
  769MOL0     C 5999   4.717   3.089   8.169  0.9514 -0.0530  0.4846
  769MOL0     C 6000   4.812   3.112   8.046  0.8939  0.7148  0.1510
  769MOL0     N 6001   4.923   3.009   8.041 -0.5541 -0.4266  0.6721
  769MOL0     C 6002   5.024   2.986   8.132 -0.1166  0.4481  0.3640
  769MOL0     C 6003   5.106   2.894   8.068 -0.4765  0.8512  0.2891
  769MOL0     C 6004   5.234   2.847   8.145  0.4080  0.3622 -0.3924
  769MOL0     C 6005   5.341   2.811   8.034 -0.2142 -0.1710  0.0562
  769MOL0     C 6006   5.452   2.758   8.106 -0.4660 -0.5369 -0.0055
  769MOL0     C 6007   5.561   2.707   8.013  0.1493 -0.3452  0.2419
  769MOL0     O 6008   5.685   2.679   8.089 -0.0734  0.3296 -0.1437
  769MOL0     C 6009   5.795   2.624   8.027  0.4063 -0.2573 -0.4555
  769MOL0     C 6010   5.788   2.538   7.918 -0.0282  0.0014 -0.4385
  769MOL0     C 6011   5.901   2.484   7.855  0.5796 -0.5372 -0.9943
  769MOL0     C 6012   5.874   2.392   7.746  0.0396  0.0949  1.1959
  769MOL0     C 6013   6.026   2.512   7.919  0.6970 -0.3532  0.2881
  769MOL0     C 6014   6.145   2.451   7.875  0.1938 -0.2158 -0.2416
  769MOL0     O 6015   6.175   2.453   7.742  0.5593 -0.0624 -0.5244
  769MOL0     C 6016   6.280   2.378   7.692 -0.4492  0.2039 -0.8397
  769MOL0     C 6017   6.402   2.441   7.708  0.8378  0.2450 -0.2447
  769MOL0     C 6018   6.513   2.368   7.667 -0.0815 -0.4666 -0.0794
  769MOL0     C 6019   6.507   2.242   7.610  0.7467 -1.1417  0.5444
  769MOL0     O 6020   6.616   2.175   7.574 -0.6543  0.1384 -0.2871
  769MOL0     C 6021   6.616   2.038   7.549  0.4206 -0.3436 -0.6768
  769MOL0     C 6022   6.750   2.006   7.501 -0.1031  0.3127  0.1618
  769MOL0     C 6023   6.866   2.037   7.594 -0.0494 -0.7207  0.3621
  769MOL0     C 6024   7.005   2.014   7.527  0.7101  0.2976 -0.2247
  769MOL0     C 6025   7.112   2.011   7.644 -0.5294  0.5201  0.0533
  769MOL0     C 6026   7.250   2.025   7.582 -0.2073 -0.0633 -0.4436
  769MOL0     C 6027   7.368   2.002   7.674  0.7079  0.5872 -0.6577
  769MOL0     C 6028   7.495   1.940   7.612 -0.2409 -0.0540  0.5628
  769MOL0    Cl 6029   7.584   2.073   7.521  0.4836 -0.3887  0.3487
  769MOL0     C 6030   6.381   2.185   7.600  0.4818  0.0162  0.3995
  769MOL0     C 6031   6.269   2.250   7.648 -0.1635 -1.1456  0.1883
  769MOL0     O 6032   6.223   2.400   7.956  0.0336 -0.9696 -0.0883
  769MOL0     C 6033   6.037   2.603   8.024 -0.0334  0.0981  0.0761
  769MOL0     C 6034   5.922   2.654   8.083 -0.4020 -0.1979 -0.2065
  769MOL0     N 6035   5.065   2.868   7.940 -0.2293 -0.0811 -0.6087
  769MOL0     N 6036   4.953   2.932   7.927  0.1213  0.0587  0.1760
  769MOL0     C 6037   4.039   3.381   8.540  0.3431  0.8656 -0.3226
  769MOL0     C 6038   3.900   3.407   8.538  0.0067 -0.2761 -0.3342
  769MOL0     C 6039   3.485   3.503   8.613  0.0676 -0.5092  0.4609
  769MOL0     C 6040   3.407   3.391   8.591  0.3471  0.8345 -0.4893
  769MOL0     C 6041   3.266   3.400   8.555 -0.3678 -0.1681  0.1871
  769MOL0     C 6042   3.203   3.531   8.557 -0.3913  0.4887 -0.1751
  769MOL0     O 6043   3.066   3.550   8.523 -0.0621 -1.1575 -0.4962
  769MOL0     C 6044   2.977   3.436   8.526 -0.0654 -0.0378 -0.0826
  769MOL0     C 6045   2.830   3.463   8.515  0.3801 -0.4118  0.1692
  769MOL0     C 6046   2.776   3.518   8.644  0.8307 -1.1897  0.4181
  769MOL0     C 6047   2.621   3.511   8.630 -0.3149  0.9825 -0.8143
  769MOL0     C 6048   2.557   3.608   8.543 -0.6057  0.1371 -0.3768
  769MOL0     C 6049   2.508   3.698   8.474  0.1008 -0.4547  1.5414
  769MOL0     C 6050   3.276   3.642   8.589  0.1950  1.0683 -0.1592
  769MOL0     C 6051   3.415   3.627   8.621 -0.1674 -0.0631 -0.3160
  769MOL0     C 6052   3.486   3.759   8.638 -0.2240  0.0974 -0.4100
  769MOL0     H 6053   3.829   3.262   8.833  0.2483  0.4313  1.8702
  769MOL0     H 6054   4.070   3.231   8.840  3.5303 -0.4136 -1.9705
  769MOL0     H 6055   4.154   3.090   8.637  0.1871 -0.7621 -1.1113
  769MOL0     H 6056   4.292   3.126   8.744 -3.1040  0.3527  0.9744
  769MOL0     H 6057   4.362   2.999   8.537  1.4875  0.0721  2.0547
  769MOL0     H 6058   4.281   3.141   8.454  0.6234 -1.0924 -0.7950
  769MOL0     H 6059   4.489   3.262   8.567  2.1814 -0.3191  3.0039
  769MOL0     H 6060   4.535   3.104   8.630  0.2893  0.9994 -0.3960
  769MOL0     H 6061   4.663   3.175   8.433 -0.6478  1.6553  2.3548
  769MOL0     H 6062   4.578   3.020   8.405  3.4045  0.5330  0.0922
  769MOL0     H 6063   4.461   3.287   8.313  3.4775 -0.1903  4.2716
  769MOL0     H 6064   4.427   3.126   8.241  1.7913 -0.9636 -1.3391
  769MOL0     H 6065   4.605   3.252   8.093  3.3868  0.9558 -0.6758
  769MOL0     H 6066   4.685   3.305   8.228 -1.2703  2.3680 -3.3408
  769MOL0     H 6067   4.648   3.015   8.127  0.9735  2.4314 -4.7423
  769MOL0     H 6068   4.774   3.049   8.252 -0.6172 -0.4024  1.4428
  769MOL0     H 6069   4.751   3.118   7.956  0.5802  4.1069  0.4916
  769MOL0     H 6070   4.861   3.209   8.058 -2.7063  2.5915  0.9690
  769MOL0     H 6071   5.024   3.020   8.235  1.9785 -0.6675  0.7745
  769MOL0     H 6072   5.212   2.762   8.210  0.6105 -1.2935 -2.4029
  769MOL0     H 6073   5.257   2.940   8.198  2.6622  0.6434 -1.7387
  769MOL0     H 6074   5.299   2.731   7.971 -2.4287 -0.9409  2.3563
  769MOL0     H 6075   5.372   2.899   7.977 -0.0836  0.9851  1.8660
  769MOL0     H 6076   5.495   2.836   8.169 -2.9085 -0.7078  2.0164
  769MOL0     H 6077   5.424   2.675   8.171 -0.6560  1.3314  2.4296
  769MOL0     H 6078   5.528   2.620   7.954  0.8348  1.4281 -3.0091
  769MOL0     H 6079   5.590   2.769   7.927  1.7814  0.7605  1.5227
  769MOL0     H 6080   5.691   2.525   7.871 -0.1084  0.4922 -0.4091
  769MOL0     H 6081   5.914   2.435   7.654 -1.0374  2.9466  1.9334
  769MOL0     H 6082   5.768   2.385   7.720  0.1134 -2.6983  1.3501
  769MOL0     H 6083   5.895   2.288   7.772 -2.0346 -0.2718  1.6108
  769MOL0     H 6084   6.396   2.541   7.749 -2.4701  0.6933 -1.5174
  769MOL0     H 6085   6.608   2.421   7.667  0.9195 -1.9141 -3.7667
  769MOL0     H 6086   6.597   1.989   7.645  0.1346 -0.9946 -1.0607
  769MOL0     H 6087   6.540   2.004   7.479  0.8089  0.3606 -1.4580
  769MOL0     H 6088   6.752   1.903   7.465 -1.0085 -0.1620  1.4287
  769MOL0     H 6089   6.758   2.074   7.416 -1.5056  0.6130  0.2470
  769MOL0     H 6090   6.856   1.981   7.687 -2.3564  0.1339  0.6885
  769MOL0     H 6091   6.863   2.142   7.627  0.4290 -0.9325  1.0963
  769MOL0     H 6092   7.020   2.094   7.454 -1.1226  0.0239 -0.9348
  769MOL0     H 6093   7.002   1.913   7.486  3.3736  1.0526 -2.6923
  769MOL0     H 6094   7.106   2.082   7.726  3.6674 -0.9678  1.9131
  769MOL0     H 6095   7.103   1.907   7.678 -0.9842  0.4793 -0.1786
  769MOL0     H 6096   7.253   2.125   7.539 -0.9914 -0.4303 -1.3929
  769MOL0     H 6097   7.250   1.954   7.499  0.9127  0.9807 -1.3766
  769MOL0     H 6098   7.334   1.928   7.747  2.8461  0.3965  0.2147
  769MOL0     H 6099   7.403   2.092   7.724  1.6725  0.6072 -1.3393
  769MOL0     H 6100   7.472   1.856   7.545 -2.9536  1.8562 -1.0613
  769MOL0     H 6101   7.556   1.901   7.695 -1.1194 -0.4681  1.0278
  769MOL0     H 6102   6.373   2.082   7.565  3.0857 -0.7055  1.6168
  769MOL0     H 6103   6.172   2.203   7.649 -0.1428 -1.2099  1.9809
  769MOL0     H 6104   6.136   2.628   8.063  0.3178  0.4118 -0.9942
  769MOL0     H 6105   5.924   2.724   8.166  3.0314 -0.8461  0.4278
  769MOL0     H 6106   4.083   3.408   8.444 -0.3989  1.7868 -0.4225
  769MOL0     H 6107   3.860   3.454   8.449  1.6012  0.9168 -0.4638
  769MOL0     H 6108   3.445   3.290   8.599 -1.8266  0.1203  2.1937
  769MOL0     H 6109   3.210   3.313   8.523 -0.1933  0.6869 -2.6452
  769MOL0     H 6110   3.001   3.381   8.435  1.8967  2.3774 -1.1399
  769MOL0     H 6111   2.995   3.386   8.622 -0.2252  0.9992  0.5029
  769MOL0     H 6112   2.780   3.370   8.486  0.0852  0.4718 -2.4460
  769MOL0     H 6113   2.814   3.541   8.440 -2.1317 -0.2675  0.7728
  769MOL0     H 6114   2.812   3.462   8.731  0.2081  1.4109  2.4765
  769MOL0     H 6115   2.801   3.623   8.663 -1.4600  0.1509 -3.0312
  769MOL0     H 6116   2.589   3.548   8.728  0.1989 -1.3885  0.3126
  769MOL0     H 6117   2.581   3.411   8.614  1.1406  0.2115  0.0614
  769MOL0     H 6118   2.467   3.762   8.399 -4.1328 -2.1015  2.2010
  769MOL0     H 6119   3.238   3.744   8.581  2.4310  1.9743  0.0494
  769MOL0     H 6120   3.425   3.843   8.602 -0.7100 -0.3016 -0.5157
  769MOL0     H 6121   3.506   3.769   8.745  1.9019 -2.0865 -0.5064
  769MOL0     H 6122   3.586   3.757   8.593  0.2451  0.1242  0.6070
  770MOL0     O 6123   4.653  10.081   4.654 -0.4755  0.7715 -0.9444
  770MOL0     C 6124   4.584  10.163   4.720 -0.2069 -0.1583 -0.6605
  770MOL0     O 6125   4.604  10.207   4.857  0.6191  0.8021  0.5094
  770MOL0     C 6126   4.711  10.151   4.918 -0.4227  0.3930  0.2475
  770MOL0     C 6127   4.695  10.020   4.973  0.8930 -0.5317  0.4730
  770MOL0     C 6128   4.790   9.955   5.044  0.1026  0.3079 -0.7815
  770MOL0     C 6129   4.919  10.015   5.054 -0.4028 -0.2412  0.3806
  770MOL0     O 6130   5.013   9.946   5.127  0.1148  0.8502  0.6541
  770MOL0     C 6131   5.107  10.016   5.205 -0.6311  0.2519  0.8599
  770MOL0     C 6132   5.178   9.910   5.288  0.6373 -0.6751  0.6836
  770MOL0     C 6133   5.317   9.953   5.310 -0.1249 -0.6234  0.5971
  770MOL0     C 6134   5.385   9.863   5.420 -0.7560  1.1477  0.5101
  770MOL0     C 6135   5.528   9.932   5.452  0.4566  0.1436  0.4790
  770MOL0     C 6136   5.619   9.849   5.543  1.0020 -0.2466  0.4208
  770MOL0     C 6137   5.765   9.912   5.556 -0.2130  1.1383 -0.8295
  770MOL0     C 6138   5.757  10.036   5.646 -0.5367 -0.0991  0.5942
  770MOL0     N 6139   5.890  10.093   5.674 -0.1450 -0.1574 -0.5606
  770MOL0     C 6140   5.997  10.044   5.755 -0.3349  1.0596 -0.0344
  770MOL0     C 6141   6.087  10.143   5.747 -0.5694  0.3792  0.3674
  770MOL0     C 6142   6.213  10.153   5.818  0.1352  0.5937  0.7612
  770MOL0     C 6143   6.323  10.055   5.775  0.9578  0.2839  0.0877
  770MOL0     C 6144   6.463  10.096   5.823  0.4015  0.1665 -0.1184
  770MOL0     C 6145   6.578  10.000   5.788 -0.5756 -0.2465  0.4899
  770MOL0     O 6146   6.599  10.026   5.648  0.3158  0.3890  0.4249
  770MOL0     C 6147   6.707   9.966   5.590 -0.2244 -0.2686  0.1969
  770MOL0     C 6148   6.761   9.841   5.616 -0.6703  0.2656 -0.0458
  770MOL0     C 6149   6.882   9.795   5.559  0.4873  0.5509  0.0667
  770MOL0     C 6150   6.914   9.646   5.589  0.1131 -0.5698  0.3398
  770MOL0     C 6151   6.950   9.877   5.464 -0.1836 -0.4099 -0.7161
  770MOL0     C 6152   7.076   9.840   5.399  0.6707  0.1030 -0.3921
  770MOL0     O 6153   7.125   9.937   5.318 -0.8472 -0.0375  0.0668
  770MOL0     C 6154   7.249   9.918   5.258  1.4327 -0.5970 -0.1945
  770MOL0     C 6155   7.307   9.795   5.208 -0.2762 -0.6041  0.0926
  770MOL0     C 6156   7.429   9.798   5.146  0.1638 -0.0282  0.8369
  770MOL0     C 6157   7.492   9.920   5.116 -0.0396  0.4057 -0.1795
  770MOL0     O 6158   7.624   9.926   5.066  0.1880 -0.6227  0.1695
  770MOL0     C 6159   7.625   9.939   4.920 -0.3480  0.0120 -0.3044
  770MOL0     C 6160   7.775   9.963   4.877  1.2604  0.4627  1.3574
  770MOL0     C 6161   7.845  10.074   4.948  0.3162  0.4318  0.2818
  770MOL0     C 6162   8.000  10.074   4.913  0.2880  0.7584  0.3155
  770MOL0     C 6163   8.032  10.117   4.775  0.7286  0.7534 -0.4993
  770MOL0     C 6164   8.176  10.132   4.756 -0.2738  0.0038 -0.1984
  770MOL0     C 6165   8.232  10.249   4.850  0.8734  0.1204  0.7493
  770MOL0     C 6166   8.344  10.196   4.937 -0.0994  0.7359  0.3740
  770MOL0    Cl 6167   8.480  10.108   4.838  0.0129  0.1802  0.0520
  770MOL0     C 6168   7.426  10.037   5.151 -0.3087  0.1947 -0.1960
  770MOL0     C 6169   7.303  10.036   5.224 -0.7834  0.7882  0.9366
  770MOL0     O 6170   7.130   9.734   5.424  0.4378  0.2831  0.2906
  770MOL0     C 6171   6.897  10.004   5.436  0.1175 -0.7988  0.0933
  770MOL0     C 6172   6.780  10.046   5.505 -0.5690 -1.2577  0.3980
  770MOL0     N 6173   6.043  10.244   5.662  0.1818  0.2499 -0.3289
  770MOL0     N 6174   5.926  10.214   5.625 -0.3769  0.3264 -1.2301
  770MOL0     C 6175   4.938  10.151   5.021 -0.4691  0.1635  0.7036
  770MOL0     C 6176   4.831  10.221   4.948 -0.0670  0.1181 -1.1103
  770MOL0     C 6177   4.493  10.249   4.644 -0.3178 -1.2356 -0.4238
  770MOL0     C 6178   4.366  10.281   4.693  0.9004 -0.1163 -0.3516
  770MOL0     C 6179   4.273  10.362   4.624  0.2722  0.8318  0.6920
  770MOL0     C 6180   4.312  10.414   4.499 -0.3595 -0.3882  0.0975
  770MOL0     O 6181   4.237  10.474   4.405  0.2931  0.1997  0.3973
  770MOL0     C 6182   4.104  10.475   4.432  0.1676 -0.0244 -0.3704
  770MOL0     C 6183   4.030  10.545   4.324  0.6727 -0.3404 -0.1407
  770MOL0     C 6184   3.889  10.536   4.375 -0.2558 -0.2290  0.2083
  770MOL0     C 6185   3.791  10.591   4.268 -0.6333 -0.1371  0.1954
  770MOL0     C 6186   3.815  10.732   4.238  0.2499 -0.5204 -0.6274
  770MOL0     C 6187   3.837  10.845   4.201 -0.6807 -0.5332 -0.4524
  770MOL0     C 6188   4.437  10.383   4.449 -0.7354  0.5152  0.1980
  770MOL0     C 6189   4.532  10.310   4.522 -0.2803 -0.2943  0.3337
  770MOL0     C 6190   4.681  10.316   4.476 -0.1257  0.4795  0.4465
  770MOL0     H 6191   4.596   9.979   4.963 -0.3592  2.4403 -0.3991
  770MOL0     H 6192   4.770   9.859   5.089  1.3218  0.2131 -0.4047
  770MOL0     H 6193   5.066  10.103   5.257 -1.3451  0.1409  0.4845
  770MOL0     H 6194   5.186  10.055   5.139  2.1318 -1.0973  3.1201
  770MOL0     H 6195   5.116   9.889   5.375  3.4310  1.4513  3.3659
  770MOL0     H 6196   5.179   9.814   5.235 -1.2219 -1.3676  1.8324
  770MOL0     H 6197   5.373   9.962   5.217  0.9046 -1.7000  1.0871
  770MOL0     H 6198   5.320  10.053   5.352  4.3478 -0.8125  1.2559
  770MOL0     H 6199   5.330   9.851   5.514  0.2710 -0.8325  0.9157
  770MOL0     H 6200   5.404   9.759   5.389 -1.7576  0.6344  1.5579
  770MOL0     H 6201   5.504  10.033   5.487  1.9722  1.2618 -1.4987
  770MOL0     H 6202   5.580   9.958   5.360 -1.6719  0.8849 -0.5708
  770MOL0     H 6203   5.577   9.840   5.644  3.0581 -3.4407  1.1327
  770MOL0     H 6204   5.615   9.748   5.502 -2.4491  0.0057 -0.1551
  770MOL0     H 6205   5.799   9.935   5.455 -0.7767 -0.0610 -1.3191
  770MOL0     H 6206   5.837   9.839   5.596 -1.0146  0.5074 -0.5038
  770MOL0     H 6207   5.702  10.108   5.586 -0.5495 -1.2121 -0.7842
  770MOL0     H 6208   5.716   9.991   5.738  0.8759 -2.8926 -0.0260
  770MOL0     H 6209   6.009   9.951   5.809  1.1905 -0.0618 -2.1719
  770MOL0     H 6210   6.189  10.155   5.924  2.1611  3.9534  1.3261
  770MOL0     H 6211   6.252  10.253   5.795  0.5051  0.0177 -1.3462
  770MOL0     H 6212   6.298   9.955   5.812 -1.0731  0.4020 -0.7859
  770MOL0     H 6213   6.322  10.050   5.665 -2.0079 -2.1158  0.0833
  770MOL0     H 6214   6.493  10.197   5.796  0.3815  1.0557  2.7926
  770MOL0     H 6215   6.456  10.101   5.933  2.7406  1.6729  0.0251
  770MOL0     H 6216   6.671  10.021   5.841 -0.2349 -0.0803 -0.1736
  770MOL0     H 6217   6.543   9.904   5.828  2.6573 -1.4667  0.6985
  770MOL0     H 6218   6.703   9.776   5.680  1.2183 -1.9817 -0.4822
  770MOL0     H 6219   6.876   9.582   5.509  1.7081 -0.1020 -0.8421
  770MOL0     H 6220   6.875   9.615   5.686 -1.7201  2.1627  0.6001
  770MOL0     H 6221   7.023   9.636   5.596  0.2500  0.0131 -0.6724
  770MOL0     H 6222   7.257   9.700   5.229 -0.6673 -1.1400 -2.8366
  770MOL0     H 6223   7.472   9.701   5.120  0.1557  0.3710 -0.7534
  770MOL0     H 6224   7.578   9.855   4.868 -3.9763  1.6579  0.0292
  770MOL0     H 6225   7.563  10.022   4.887 -3.0493 -1.7567  0.0048
  770MOL0     H 6226   7.836   9.875   4.902  0.2728 -0.7128 -0.1812
  770MOL0     H 6227   7.778   9.963   4.768  0.7694  0.3649  1.3426
  770MOL0     H 6228   7.837  10.063   5.057  1.8048 -1.4443  0.2388
  770MOL0     H 6229   7.813  10.175   4.919  0.5724 -0.7128 -4.9291
  770MOL0     H 6230   8.040   9.973   4.931 -0.2607  0.8897  2.6306
  770MOL0     H 6231   8.046  10.143   4.985 -2.7996  2.0980  1.1500
  770MOL0     H 6232   8.001  10.032   4.713  1.6244  0.5838 -0.7238
  770MOL0     H 6233   7.979  10.208   4.744 -1.6495  0.5934  2.6817
  770MOL0     H 6234   8.203  10.158   4.653 -1.3367  0.3701 -0.4014
  770MOL0     H 6235   8.224  10.037   4.780  3.2150  1.5931 -0.3012
  770MOL0     H 6236   8.157  10.297   4.912 -0.4027 -2.5353  1.4250
  770MOL0     H 6237   8.279  10.315   4.777 -0.3884 -1.2683 -1.4384
  770MOL0     H 6238   8.305  10.131   5.017  0.3227  0.8217  0.6539
  770MOL0     H 6239   8.391  10.283   4.984 -0.7160 -0.0870  2.6309
  770MOL0     H 6240   7.475  10.131   5.126  0.3441  0.0381  0.4686
  770MOL0     H 6241   7.259  10.134   5.238 -1.8809  0.4691 -0.1547
  770MOL0     H 6242   6.940  10.080   5.372  0.2467  1.8170  3.0404
  770MOL0     H 6243   6.750  10.151   5.502  0.0164 -1.0725  0.9499
  770MOL0     H 6244   5.034  10.196   5.046 -0.9458  0.3429  2.3433
  770MOL0     H 6245   4.838  10.326   4.924 -0.1480  0.1610 -0.9441
  770MOL0     H 6246   4.344  10.239   4.790  0.6640 -3.0388 -1.5640
  770MOL0     H 6247   4.183  10.388   4.679  0.7275 -1.0049  2.4181
  770MOL0     H 6248   4.060  10.378   4.455  1.2053 -0.3933  0.1134
  770MOL0     H 6249   4.093  10.539   4.520  1.1561 -1.0146  0.4982
  770MOL0     H 6250   4.047  10.481   4.238  0.3228 -2.1476  1.0855
  770MOL0     H 6251   4.079  10.641   4.302  1.5050 -0.4840  1.0351
  770MOL0     H 6252   3.851  10.438   4.404 -2.9118  0.4676 -0.6239
  770MOL0     H 6253   3.888  10.594   4.468 -0.0066  1.9121 -1.0699
  770MOL0     H 6254   3.693  10.590   4.315 -1.6039 -0.2337 -1.7324
  770MOL0     H 6255   3.806  10.517   4.188  1.5145 -2.6116  2.6566
  770MOL0     H 6256   3.855  10.943   4.162 -1.3098  0.0498  0.6813
  770MOL0     H 6257   4.471  10.418   4.352 -1.6176  1.8237  0.3434
  770MOL0     H 6258   4.724  10.217   4.461 -0.3584  0.2515  1.2533
  770MOL0     H 6259   4.688  10.371   4.382 -0.7069  1.0801  0.7420
  770MOL0     H 6260   4.742  10.377   4.544 -1.0028  0.6131  1.1405
  771MOL0     O 6261   4.050   7.908   0.370  0.1710  0.3073 -0.6223
  771MOL0     C 6262   3.959   7.984   0.358 -0.1187 -0.0731 -0.0839
  771MOL0     O 6263   3.980   8.114   0.318 -1.1104 -0.3354 -0.0004
  771MOL0     C 6264   4.109   8.153   0.290 -0.3578  0.2463  0.7645
  771MOL0     C 6265   4.209   8.177   0.382 -0.1521  0.5355 -1.2928
  771MOL0     C 6266   4.331   8.222   0.336 -0.0107  0.1461 -0.2144
  771MOL0     C 6267   4.357   8.248   0.205 -0.2258  0.2367 -1.0446
  771MOL0     O 6268   4.473   8.311   0.155 -0.2527 -0.2100  1.0332
  771MOL0     C 6269   4.599   8.295   0.217 -0.2699  0.2668 -0.8388
  771MOL0     C 6270   4.707   8.379   0.146 -0.7103  0.4339  0.2927
  771MOL0     C 6271   4.669   8.527   0.134  0.0236  0.3438 -0.3042
  771MOL0     C 6272   4.772   8.614   0.083  0.5433 -0.1954  0.7735
  771MOL0     C 6273   4.707   8.752   0.033  0.4215  0.9525 -0.5174
  771MOL0     C 6274   4.818   8.839  -0.009  0.4046 -0.4951  0.1125
  771MOL0     C 6275   4.890   8.795  -0.133 -0.5731  0.0606 -0.1418
  771MOL0     C 6276   4.992   8.892  -0.181 -0.3886 -0.2816 -0.6220
  771MOL0     N 6277   5.114   8.901  -0.105 -0.2919 -1.1009 -0.6120
  771MOL0     C 6278   5.202   8.797  -0.077  0.2150 -1.1143  0.6502
  771MOL0     C 6279   5.303   8.853  -0.002 -0.5587 -0.5544 -0.9857
  771MOL0     C 6280   5.417   8.779   0.066  0.3145 -0.0563 -0.1757
  771MOL0     C 6281   5.515   8.876   0.125  0.2390  0.0701 -0.1749
  771MOL0     C 6282   5.625   8.807   0.211  1.1280  0.4736 -0.2576
  771MOL0     C 6283   5.710   8.705   0.136  0.4375 -0.0427  0.9457
  771MOL0     O 6284   5.804   8.772   0.053  0.0991  1.0837 -0.4655
  771MOL0     C 6285   5.920   8.817   0.118 -0.2376  0.1444  0.1892
  771MOL0     C 6286   6.021   8.875   0.041  0.9714 -0.0817  1.0126
  771MOL0     C 6287   6.138   8.925   0.095 -1.0089  0.3802 -0.0698
  771MOL0     C 6288   6.225   8.998  -0.004 -0.3005  1.6813  0.3501
  771MOL0     C 6289   6.169   8.912   0.239 -0.4793  0.1991 -0.2317
  771MOL0     C 6290   6.283   8.978   0.299  0.0015 -0.1577 -0.8623
  771MOL0     O 6291   6.282   8.974   0.433  0.5901  0.4784 -0.7124
  771MOL0     C 6292   6.394   9.016   0.500 -0.5458 -0.3004 -0.2906
  771MOL0     C 6293   6.404   9.141   0.559 -0.0391 -0.2886 -0.4676
  771MOL0     C 6294   6.517   9.182   0.629  0.0388  0.6269 -0.3589
  771MOL0     C 6295   6.628   9.089   0.644  0.2067  0.2506 -0.4535
  771MOL0     O 6296   6.739   9.105   0.717  0.4650 -0.7430  0.6227
  771MOL0     C 6297   6.769   9.232   0.782  0.5116  0.0984  0.1372
  771MOL0     C 6298   6.831   9.328   0.684  0.7313 -0.5668 -0.2706
  771MOL0     C 6299   6.974   9.282   0.649  0.1595  0.1911 -0.9520
  771MOL0     C 6300   7.036   9.315   0.508 -0.3508  0.2761 -1.0496
  771MOL0     C 6301   7.015   9.459   0.474 -0.4362 -0.3296 -0.6693
  771MOL0     C 6302   7.112   9.554   0.545 -0.0395  0.4614 -0.1551
  771MOL0     C 6303   7.100   9.695   0.505  1.2496 -0.6096 -0.3610
  771MOL0     C 6304   7.042   9.795   0.611 -0.5746  1.3184 -0.6176
  771MOL0    Cl 6305   6.884   9.745   0.672 -0.3809 -0.1728 -0.2882
  771MOL0     C 6306   6.612   8.959   0.593  0.2065  0.1921  0.8521
  771MOL0     C 6307   6.493   8.925   0.522 -0.0998 -0.6916 -0.2560
  771MOL0     O 6308   6.375   9.022   0.229 -0.4656  0.3457 -0.3890
  771MOL0     C 6309   6.075   8.840   0.314  0.3051 -0.4094  0.0372
  771MOL0     C 6310   5.958   8.787   0.256  0.2252  0.3151  0.1964
  771MOL0     N 6311   5.274   8.993   0.003  0.0016  0.3536 -0.0224
  771MOL0     N 6312   5.163   9.012  -0.051  0.6039 -0.1359  1.0294
  771MOL0     C 6313   4.252   8.237   0.120 -0.4509  0.0863 -0.3322
  771MOL0     C 6314   4.133   8.174   0.152  0.1157  0.1134 -0.9189
  771MOL0     C 6315   3.814   7.943   0.388  0.2369 -1.0852  0.5506
  771MOL0     C 6316   3.797   7.828   0.467 -0.1856 -0.1530  0.3618
  771MOL0     C 6317   3.672   7.784   0.508  0.3790  0.4368 -0.8073
  771MOL0     C 6318   3.558   7.853   0.460 -0.1501  0.2140  0.3204
  771MOL0     O 6319   3.438   7.818   0.517  0.5381  0.3845  0.4450
  771MOL0     C 6320   3.324   7.863   0.447 -0.5096 -0.1185 -0.1095
  771MOL0     C 6321   3.217   7.758   0.479  0.8326 -0.0206  0.0845
  771MOL0     C 6322   3.228   7.633   0.397 -0.1549  0.3422  0.9333
  771MOL0     C 6323   3.136   7.521   0.433 -0.3521 -0.1586 -0.7409
  771MOL0     C 6324   2.998   7.559   0.397 -0.2634 -0.8228 -0.0174
  771MOL0     C 6325   2.890   7.601   0.372 -0.5044  1.1339 -0.7467
  771MOL0     C 6326   3.572   7.962   0.371  0.0506 -0.4242  0.6614
  771MOL0     C 6327   3.703   8.009   0.336  0.4657  0.2654  0.9883
  771MOL0     C 6328   3.712   8.118   0.226  0.1568  0.3448 -0.1928
  771MOL0     H 6329   4.200   8.149   0.487  0.7650 -2.6115 -1.9377
  771MOL0     H 6330   4.412   8.245   0.404  0.8841 -0.8258 -0.9113
  771MOL0     H 6331   4.615   8.188   0.232 -1.6262 -0.3112 -3.0169
  771MOL0     H 6332   4.596   8.337   0.318  0.2406 -0.7910 -0.3627
  771MOL0     H 6333   4.802   8.372   0.199  0.7297  0.0071 -2.1975
  771MOL0     H 6334   4.723   8.322   0.054  1.4392 -1.2859  1.6413
  771MOL0     H 6335   4.578   8.526   0.073  0.1677 -0.8548 -0.5148
  771MOL0     H 6336   4.646   8.566   0.234 -1.1340  1.5280 -0.9957
  771MOL0     H 6337   4.839   8.628   0.168 -2.1373 -0.3083  3.0495
  771MOL0     H 6338   4.819   8.560   0.000  2.5422 -0.1352  1.8105
  771MOL0     H 6339   4.654   8.802   0.114 -0.1632  0.0390 -0.3271
  771MOL0     H 6340   4.623   8.732  -0.034 -0.3248 -1.7336  1.0573
  771MOL0     H 6341   4.781   8.942  -0.015 -1.0059 -1.0195 -0.6386
  771MOL0     H 6342   4.891   8.842   0.073  0.2169  0.1759  0.2598
  771MOL0     H 6343   4.822   8.788  -0.218 -1.2480  0.2442  0.3719
  771MOL0     H 6344   4.952   8.706  -0.116  0.1413 -0.1665 -3.2703
  771MOL0     H 6345   5.039   8.850  -0.271  0.1634 -0.9583 -0.0334
  771MOL0     H 6346   4.946   8.989  -0.200  0.5190  0.0340 -1.2709
  771MOL0     H 6347   5.193   8.691  -0.099  1.4991 -0.7920 -1.7433
  771MOL0     H 6348   5.458   8.705  -0.003  1.9589 -0.7843  1.4938
  771MOL0     H 6349   5.378   8.715   0.146  0.3758 -0.5502 -0.5362
  771MOL0     H 6350   5.557   8.940   0.046  3.3409 -1.2179  0.2503
  771MOL0     H 6351   5.471   8.946   0.197  2.9749  1.3871  0.3566
  771MOL0     H 6352   5.680   8.876   0.275 -0.9567  2.4031 -0.4431
  771MOL0     H 6353   5.561   8.744   0.274 -1.4505  0.3335 -2.8038
  771MOL0     H 6354   5.762   8.638   0.204 -0.3446 -0.1230  1.4814
  771MOL0     H 6355   5.652   8.637   0.072 -0.1323  3.4685 -2.6951
  771MOL0     H 6356   5.999   8.876  -0.065 -1.7318 -0.5591  1.4982
  771MOL0     H 6357   6.185   8.998  -0.105 -1.7173 -1.3558  0.8084
  771MOL0     H 6358   6.327   8.959  -0.008 -0.2516  1.5012  2.2239
  771MOL0     H 6359   6.226   9.101   0.035 -5.0141  1.2725  2.1722
  771MOL0     H 6360   6.318   9.204   0.542  0.1481  0.4329  1.0998
  771MOL0     H 6361   6.510   9.285   0.662 -2.0686  0.5690 -0.4985
  771MOL0     H 6362   6.680   9.277   0.826  1.7929  2.1677  0.7256
  771MOL0     H 6363   6.841   9.218   0.863  0.4253  1.8258  0.5494
  771MOL0     H 6364   6.766   9.331   0.595 -1.7639  0.8630  1.4778
  771MOL0     H 6365   6.826   9.431   0.721 -0.6769  0.1079 -2.1449
  771MOL0     H 6366   6.985   9.175   0.668 -2.0247  0.0060 -0.4928
  771MOL0     H 6367   7.038   9.330   0.723 -0.8827 -1.2273  0.9701
  771MOL0     H 6368   6.989   9.249   0.434 -0.3813  0.6843 -1.3970
  771MOL0     H 6369   7.143   9.290   0.507 -0.9196 -2.6875 -0.0066
  771MOL0     H 6370   7.026   9.487   0.369 -0.2694  0.3809 -0.4657
  771MOL0     H 6371   6.913   9.488   0.502 -0.4859 -0.5607 -0.6054
  771MOL0     H 6372   7.212   9.519   0.518 -0.6644  0.0113 -2.0952
  771MOL0     H 6373   7.113   9.533   0.652  0.6043 -4.1644 -0.8299
  771MOL0     H 6374   7.048   9.702   0.409  2.1099  0.3107 -0.7908
  771MOL0     H 6375   7.202   9.727   0.480  0.0329  1.7627 -2.8239
  771MOL0     H 6376   7.032   9.896   0.569 -2.5368  1.3288 -0.2177
  771MOL0     H 6377   7.104   9.795   0.701  0.2471  0.0830 -1.1446
  771MOL0     H 6378   6.694   8.889   0.607 -0.5092 -1.3708 -1.8662
  771MOL0     H 6379   6.502   8.827   0.476  0.5515 -1.1853  0.8782
  771MOL0     H 6380   6.098   8.825   0.419 -2.1482  1.0324  0.8547
  771MOL0     H 6381   5.899   8.722   0.319 -0.7580  0.0611 -0.9410
  771MOL0     H 6382   4.263   8.272   0.018 -1.3794 -2.9821 -1.6016
  771MOL0     H 6383   4.048   8.145   0.091  0.2322  1.2658 -1.6581
  771MOL0     H 6384   3.886   7.786   0.512  0.2155  1.0500  0.7315
  771MOL0     H 6385   3.657   7.703   0.578 -0.4041  1.2356 -0.0191
  771MOL0     H 6386   3.304   7.962   0.488 -0.9813  0.0892 -0.8231
  771MOL0     H 6387   3.334   7.873   0.339  3.4247  1.6539  0.2552
  771MOL0     H 6388   3.120   7.798   0.448  0.1088 -0.4564  1.7070
  771MOL0     H 6389   3.212   7.738   0.586 -1.2284  2.3752  0.5493
  771MOL0     H 6390   3.212   7.672   0.295  0.2799  0.9163  1.0782
  771MOL0     H 6391   3.334   7.605   0.398 -0.0228  0.8525  1.9815
  771MOL0     H 6392   3.134   7.503   0.541 -0.4566  0.0792 -0.7029
  771MOL0     H 6393   3.179   7.428   0.394 -0.8250 -0.3480 -0.8135
  771MOL0     H 6394   2.798   7.640   0.334 -1.0765  0.7903  0.2451
  771MOL0     H 6395   3.486   8.005   0.320 -0.0243 -2.8828 -1.5050
  771MOL0     H 6396   3.790   8.088   0.155  1.4995  3.5064 -0.1982
  771MOL0     H 6397   3.619   8.127   0.169  0.7527  1.7611 -0.9920
  771MOL0     H 6398   3.734   8.214   0.273 -1.2237 -1.1841  3.9782
  772MOL0     O 6399   4.358   0.711   0.567  0.1527  0.1163  0.1201
  772MOL0     C 6400   4.308   0.800   0.500 -0.9644  0.7169  0.1725
  772MOL0     O 6401   4.377   0.885   0.421  0.3770  0.1257 -0.1229
  772MOL0     C 6402   4.513   0.876   0.422  0.1198 -0.4563  0.2152
  772MOL0     C 6403   4.603   0.865   0.534  0.4646  0.0065  0.3155
  772MOL0     C 6404   4.735   0.838   0.507 -1.2326 -0.8843 -0.0029
  772MOL0     C 6405   4.778   0.819   0.365 -0.3682 -0.2240 -0.8748
  772MOL0     O 6406   4.907   0.785   0.344  0.0226 -0.3816  0.5209
  772MOL0     C 6407   4.983   0.705   0.434 -0.2231  0.3726 -0.4081
  772MOL0     C 6408   5.053   0.597   0.356 -0.1621 -0.4895  0.4833
  772MOL0     C 6409   5.150   0.527   0.449  0.5482 -0.5961 -0.6639
  772MOL0     C 6410   5.205   0.385   0.393  0.2103  0.2987 -0.4544
  772MOL0     C 6411   5.319   0.382   0.294  0.0302  0.8766  0.4751
  772MOL0     C 6412   5.448   0.462   0.339 -0.1433  0.2908 -0.8841
  772MOL0     C 6413   5.565   0.436   0.256 -0.2365  0.8094  0.5922
  772MOL0     C 6414   5.678   0.532   0.268  0.4642 -0.1090 -0.2433
  772MOL0     N 6415   5.784   0.485   0.177 -0.5348 -0.6457  0.1692
  772MOL0     C 6416   5.821   0.551   0.059  0.1635  0.2006 -0.0258
  772MOL0     C 6417   5.930   0.487   0.016 -0.1478 -0.8741  0.0698
  772MOL0     C 6418   6.012   0.518  -0.105 -0.0484 -0.7089  0.6868
  772MOL0     C 6419   6.163   0.542  -0.075  0.8250  0.5432  0.4551
  772MOL0     C 6420   6.229   0.633  -0.175 -0.7534  0.4027  0.4897
  772MOL0     C 6421   6.388   0.654  -0.144 -0.6736  0.5647  0.4334
  772MOL0     O 6422   6.460   0.722  -0.249 -0.1633  0.8251 -0.2691
  772MOL0     C 6423   6.597   0.722  -0.247  0.7488 -0.0719  0.0563
  772MOL0     C 6424   6.681   0.741  -0.135 -0.3837 -0.5202  0.1817
  772MOL0     C 6425   6.817   0.737  -0.144 -0.2731 -0.3270 -0.3623
  772MOL0     C 6426   6.889   0.772  -0.017  0.4736  0.1153  0.5698
  772MOL0     C 6427   6.877   0.719  -0.269  0.8232 -0.3988 -0.1714
  772MOL0     C 6428   7.020   0.716  -0.296  0.3427  0.5111 -0.3606
  772MOL0     O 6429   7.056   0.661  -0.414 -0.6241  0.5894 -0.2832
  772MOL0     C 6430   7.187   0.659  -0.444  0.8519 -1.0916 -0.7569
  772MOL0     C 6431   7.250   0.550  -0.502 -0.1501  0.7231 -0.0038
  772MOL0     C 6432   7.394   0.546  -0.505  0.3106  0.8021  0.3606
  772MOL0     C 6433   7.468   0.660  -0.469 -0.6959  0.2487  0.1958
  772MOL0     O 6434   7.609   0.645  -0.494  0.3216 -0.3178 -0.2498
  772MOL0     C 6435   7.687   0.752  -0.544  0.5331 -0.7553  0.4924
  772MOL0     C 6436   7.833   0.693  -0.557 -0.1576 -0.9596  0.0892
  772MOL0     C 6437   7.933   0.798  -0.578 -0.2017  0.6959  0.3860
  772MOL0     C 6438   8.074   0.756  -0.538 -0.4471  0.4861  0.5320
  772MOL0     C 6439   8.173   0.873  -0.570 -0.2817  0.1874  0.1629
  772MOL0     C 6440   8.198   0.896  -0.717  0.0976  0.7744 -0.2381
  772MOL0     C 6441   8.284   1.009  -0.732  0.0081  0.7298 -0.6435
  772MOL0     C 6442   8.431   0.993  -0.702 -0.2706  0.4150 -0.2590
  772MOL0    Cl 6443   8.508   0.882  -0.808 -0.1447  0.0353  0.2161
  772MOL0     C 6444   7.406   0.773  -0.423  0.0004 -0.5734  0.4262
  772MOL0     C 6445   7.270   0.774  -0.424 -0.4414  0.2054  0.1490
  772MOL0     O 6446   7.095   0.745  -0.204 -0.1528  0.8261  0.0615
  772MOL0     C 6447   6.794   0.694  -0.387 -0.1297  0.2864 -0.7759
  772MOL0     C 6448   6.655   0.709  -0.368 -0.1651  0.4752 -0.2093
  772MOL0     N 6449   5.954   0.382   0.109 -0.0663 -0.1418  0.2873
  772MOL0     N 6450   5.860   0.384   0.194  0.1495  0.0151  0.5938
  772MOL0     C 6451   4.688   0.845   0.257 -0.6986 -1.4379  0.5557
  772MOL0     C 6452   4.559   0.879   0.293 -0.0954  0.3086  0.5121
  772MOL0     C 6453   4.162   0.814   0.501 -0.1498  0.0937 -0.5460
  772MOL0     C 6454   4.096   0.893   0.406 -1.0661 -0.4061 -0.7994
  772MOL0     C 6455   3.962   0.919   0.409  0.2319 -0.2149  0.1978
  772MOL0     C 6456   3.877   0.839   0.478  0.9683  0.2765 -0.2678
  772MOL0     O 6457   3.739   0.864   0.467 -0.4934 -0.3727  0.1660
  772MOL0     C 6458   3.641   0.765   0.502 -0.5988 -0.4283 -0.3984
  772MOL0     C 6459   3.633   0.634   0.412 -0.5754 -0.2867 -0.2615
  772MOL0     C 6460   3.516   0.541   0.447  0.9315 -0.8960  0.2961
  772MOL0     C 6461   3.500   0.427   0.349  0.3053  0.3617 -0.6065
  772MOL0     C 6462   3.612   0.329   0.374  0.2116 -0.2653  0.2030
  772MOL0     C 6463   3.702   0.255   0.412 -0.0324  0.1036  0.2337
  772MOL0     C 6464   3.936   0.752   0.568  0.1868 -0.5149  1.0016
  772MOL0     C 6465   4.075   0.741   0.587 -0.1287  0.2466  0.1546
  772MOL0     C 6466   4.112   0.634   0.685  0.3547  0.2182 -0.5822
  772MOL0     H 6467   4.562   0.871   0.634 -1.6718 -1.4707 -0.3966
  772MOL0     H 6468   4.809   0.824   0.585 -0.3030  1.3724 -0.3965
  772MOL0     H 6469   4.926   0.669   0.521  0.4271  2.0827  0.7729
  772MOL0     H 6470   5.062   0.770   0.472 -0.0076  1.0599 -1.9540
  772MOL0     H 6471   4.977   0.535   0.308 -1.1614  1.1358 -0.1169
  772MOL0     H 6472   5.108   0.636   0.270 -2.6074 -1.5912 -1.7215
  772MOL0     H 6473   5.233   0.595   0.473  2.3519 -2.1981 -1.9656
  772MOL0     H 6474   5.102   0.502   0.544  0.1463 -2.0959 -1.2254
  772MOL0     H 6475   5.239   0.327   0.480  0.2795  0.9679 -0.0249
  772MOL0     H 6476   5.121   0.336   0.344 -1.2915  1.8288  0.4930
  772MOL0     H 6477   5.282   0.422   0.199  0.4542 -0.3722 -0.2312
  772MOL0     H 6478   5.337   0.276   0.274  0.0501  1.6644 -5.1127
  772MOL0     H 6479   5.418   0.567   0.342 -1.5058 -0.0754 -1.0189
  772MOL0     H 6480   5.476   0.434   0.441 -1.8802 -2.2907 -0.9978
  772MOL0     H 6481   5.537   0.443   0.151 -2.8924  2.9532  1.3237
  772MOL0     H 6482   5.606   0.338   0.284  1.8212  1.1322 -0.9958
  772MOL0     H 6483   5.631   0.627   0.239 -0.0645 -0.2437  0.1580
  772MOL0     H 6484   5.713   0.527   0.371 -0.1771 -2.1617 -0.0810
  772MOL0     H 6485   5.774   0.636   0.011 -2.2630 -1.3447 -0.5669
  772MOL0     H 6486   5.974   0.609  -0.152 -0.6524 -2.8421 -3.4723
  772MOL0     H 6487   5.998   0.442  -0.183 -0.9177  1.2914 -1.2102
  772MOL0     H 6488   6.174   0.583   0.026 -3.0182 -0.1886  1.3347
  772MOL0     H 6489   6.212   0.445  -0.062  1.6928  0.9537  0.2755
  772MOL0     H 6490   6.221   0.585  -0.272 -0.4684 -0.6767  0.9816
  772MOL0     H 6491   6.180   0.731  -0.175  1.8901  1.9022  3.3175
  772MOL0     H 6492   6.387   0.695  -0.043  2.1532 -1.8927  1.6243
  772MOL0     H 6493   6.436   0.555  -0.144 -1.1631  0.3218 -0.0568
  772MOL0     H 6494   6.628   0.760  -0.042 -1.4432 -0.4189 -0.4304
  772MOL0     H 6495   6.957   0.688   0.000 -0.0139 -1.1723 -3.0001
  772MOL0     H 6496   6.821   0.777   0.070  1.3384 -2.9174  1.5486
  772MOL0     H 6497   6.951   0.862  -0.021  0.0772  0.3382 -2.3789
  772MOL0     H 6498   7.187   0.467  -0.531 -0.3873 -0.2578  2.9412
  772MOL0     H 6499   7.434   0.464  -0.563  2.3701  4.2658 -3.5823
  772MOL0     H 6500   7.657   0.779  -0.646  3.3862  2.2818  0.2755
  772MOL0     H 6501   7.669   0.838  -0.478 -2.5912 -0.9879  0.0926
  772MOL0     H 6502   7.853   0.637  -0.465  2.3429  2.0625  1.5511
  772MOL0     H 6503   7.836   0.620  -0.638  0.4916  0.0805 -0.8446
  772MOL0     H 6504   7.898   0.888  -0.528 -3.7938  0.0340 -0.6926
  772MOL0     H 6505   7.933   0.820  -0.685  3.4901 -0.5706 -0.0301
  772MOL0     H 6506   8.100   0.677  -0.610  1.1063  2.2138 -0.9014
  772MOL0     H 6507   8.074   0.706  -0.441  2.9573 -1.2778 -0.1973
  772MOL0     H 6508   8.152   0.968  -0.520 -1.1227 -0.0753  0.3227
  772MOL0     H 6509   8.263   0.833  -0.522 -2.1229 -2.1265  1.9178
  772MOL0     H 6510   8.109   0.934  -0.768 -0.7717 -1.0878 -0.1778
  772MOL0     H 6511   8.243   0.809  -0.766 -0.4610 -0.1901  0.9306
  772MOL0     H 6512   8.252   1.085  -0.660  2.1590  0.5164  0.6484
  772MOL0     H 6513   8.275   1.046  -0.835 -0.9464  1.5282 -0.2897
  772MOL0     H 6514   8.455   0.955  -0.602  0.7136 -1.4106 -1.1526
  772MOL0     H 6515   8.474   1.094  -0.702  1.1514 -0.1536 -2.0755
  772MOL0     H 6516   7.468   0.856  -0.389 -0.9859  0.2491  0.2749
  772MOL0     H 6517   7.219   0.865  -0.395 -2.7205 -0.6709 -0.8434
  772MOL0     H 6518   6.827   0.682  -0.490 -2.0222 -0.3054 -1.3569
  772MOL0     H 6519   6.579   0.700  -0.445  0.4614  1.7258 -1.0170
  772MOL0     H 6520   4.713   0.846   0.152 -2.1438  4.1752 -0.0851
  772MOL0     H 6521   4.479   0.896   0.221 -0.2429 -0.3072  0.5203
  772MOL0     H 6522   4.145   0.955   0.331 -1.0392  1.3955  0.6422
  772MOL0     H 6523   3.929   0.988   0.332 -1.0832 -3.6883 -2.6499
  772MOL0     H 6524   3.664   0.716   0.597 -0.5114 -0.2771 -0.3412
  772MOL0     H 6525   3.541   0.809   0.509 -0.1584  0.3288  2.2140
  772MOL0     H 6526   3.731   0.588   0.423  0.7397  1.3935 -3.5570
  772MOL0     H 6527   3.628   0.666   0.307 -0.1419  2.7202  0.5306
  772MOL0     H 6528   3.514   0.518   0.554 -1.9172  0.6373  0.6691
  772MOL0     H 6529   3.428   0.605   0.432  1.4177  0.6635  3.2675
  772MOL0     H 6530   3.510   0.465   0.247 -0.6957 -0.2580 -0.9530
  772MOL0     H 6531   3.402   0.385   0.376 -1.4716  3.0686 -2.3804
  772MOL0     H 6532   3.789   0.194   0.425 -1.4705 -1.8366  1.2658
  772MOL0     H 6533   3.872   0.683   0.623 -0.3776 -0.2371  0.6939
  772MOL0     H 6534   4.199   0.651   0.750  0.7031  0.5050 -1.1233
  772MOL0     H 6535   4.036   0.603   0.757 -0.0275  1.8725 -0.2329
  772MOL0     H 6536   4.134   0.545   0.626  0.7811 -0.8167  1.0605
  773MOL0     O 6537  11.081   9.541   7.504 -0.4151 -0.6041  0.5756
  773MOL0     C 6538  11.013   9.607   7.577  0.4423 -0.1522  0.6388
  773MOL0     O 6539  11.022   9.741   7.584 -0.4356 -0.0682 -0.3675
  773MOL0     C 6540  11.122   9.803   7.518 -0.4178 -0.6668  0.9816
  773MOL0     C 6541  11.081   9.907   7.432  0.7290 -0.6513 -0.0907
  773MOL0     C 6542  11.183   9.989   7.368  0.1625 -0.0721  0.1787
  773MOL0     C 6543  11.318   9.971   7.407  1.0081 -0.4874 -1.0715
  773MOL0     O 6544  11.417  10.044   7.345 -0.0368  0.4748 -0.7034
  773MOL0     C 6545  11.556  10.038   7.381 -0.7698  0.0918  0.3265
  773MOL0     C 6546  11.642  10.139   7.296  0.6316  0.0485  0.2012
  773MOL0     C 6547  11.656  10.092   7.149  1.2129  0.4933 -0.4555
  773MOL0     C 6548  11.674  10.209   7.058  0.1856 -0.1546 -0.0333
  773MOL0     C 6549  11.745  10.154   6.929 -0.1631  0.2855  0.1846
  773MOL0     C 6550  11.775  10.266   6.835  0.3358 -0.0776 -1.1964
  773MOL0     C 6551  11.923  10.316   6.861  0.9647  0.2252 -0.4286
  773MOL0     C 6552  11.940  10.440   6.769  0.4296 -0.4406 -0.2853
  773MOL0     N 6553  12.072  10.494   6.786  0.7541 -0.4730  0.2505
  773MOL0     C 6554  12.182  10.432   6.733 -0.0744 -0.3503 -0.1837
  773MOL0     C 6555  12.273  10.536   6.713 -0.3107  0.3697  0.5290
  773MOL0     C 6556  12.413  10.527   6.654  0.0675  0.9154  0.5668
  773MOL0     C 6557  12.492  10.656   6.700  0.2805  0.5729 -0.0270
  773MOL0     C 6558  12.640  10.647   6.660  0.2659 -0.5870  0.5359
  773MOL0     C 6559  12.712  10.767   6.720 -0.5643  1.2211 -1.0795
  773MOL0     O 6560  12.671  10.889   6.653 -0.5097 -0.2891 -1.2456
  773MOL0     C 6561  12.764  10.959   6.583 -0.8127  0.1319  0.7193
  773MOL0     C 6562  12.733  11.040   6.472  0.7029  0.2770 -0.2876
  773MOL0     C 6563  12.827  11.111   6.396  1.1602 -0.4330 -0.4307
  773MOL0     C 6564  12.784  11.191   6.270  0.3606 -0.3804 -0.3838
  773MOL0     C 6565  12.960  11.112   6.434 -0.7908 -0.5761  0.8430
  773MOL0     C 6566  13.072  11.173   6.351  0.4017  0.0176 -0.3706
  773MOL0     O 6567  13.169  11.245   6.416  0.5118  0.2633  0.1845
  773MOL0     C 6568  13.267  11.312   6.342 -0.7873  0.3806 -0.4057
  773MOL0     C 6569  13.280  11.445   6.367  0.0914  0.1428 -0.2488
  773MOL0     C 6570  13.351  11.534   6.282  0.2133  0.0097  0.0413
  773MOL0     C 6571  13.423  11.470   6.179  0.7079  0.4060  0.8183
  773MOL0     O 6572  13.493  11.546   6.095 -0.3322  0.4530 -0.6117
  773MOL0     C 6573  13.638  11.541   6.107 -0.1905  0.1618 -0.1866
  773MOL0     C 6574  13.692  11.625   5.992  0.0097  0.1212  0.8181
  773MOL0     C 6575  13.839  11.597   5.968 -0.5093 -0.0122 -0.2261
  773MOL0     C 6576  13.871  11.462   5.900 -0.1575 -0.6264 -0.0270
  773MOL0     C 6577  14.019  11.477   5.854 -0.2163  0.3528  0.6092
  773MOL0     C 6578  14.074  11.335   5.829  0.6764 -0.6674 -0.4295
  773MOL0     C 6579  14.196  11.343   5.743  0.5958 -0.2968 -0.3916
  773MOL0     C 6580  14.244  11.204   5.712  0.4189  0.5725 -0.1751
  773MOL0    Cl 6581  14.417  11.221   5.661  0.3337 -0.5342  0.0013
  773MOL0     C 6582  13.423  11.330   6.159  0.1898 -0.2941  0.8899
  773MOL0     C 6583  13.339  11.260   6.231  0.8271 -0.5066  0.5983
  773MOL0     O 6584  13.068  11.155   6.233  0.6175  0.4965  0.5685
  773MOL0     C 6585  13.000  11.046   6.546 -0.2652  0.4943 -0.4670
  773MOL0     C 6586  12.902  10.976   6.622 -0.3281 -0.1490 -0.5137
  773MOL0     N 6587  12.206  10.652   6.744 -0.8925 -0.0789 -0.2905
  773MOL0     N 6588  12.094  10.632   6.792  0.6425  1.1399  0.7683
  773MOL0     C 6589  11.353   9.874   7.502 -0.2706 -0.2480 -0.6796
  773MOL0     C 6590  11.254   9.794   7.553 -1.4654  1.4609  0.5154
  773MOL0     C 6591  10.929   9.538   7.674 -0.1519 -0.4830 -1.2259
  773MOL0     C 6592  10.860   9.617   7.780  0.5326  1.0242  0.0707
  773MOL0     C 6593  10.781   9.547   7.882  0.0482 -0.6168  0.1470
  773MOL0     C 6594  10.783   9.409   7.882  0.1883  0.1527 -1.0582
  773MOL0     O 6595  10.717   9.331   7.973 -0.5707 -0.2554  0.5606
  773MOL0     C 6596  10.723   9.357   8.113  0.3219 -0.2213  0.5022
  773MOL0     C 6597  10.866   9.353   8.165  0.7584 -0.0506  0.0626
  773MOL0     C 6598  10.868   9.356   8.315 -0.6347  0.3898  0.3070
  773MOL0     C 6599  11.010   9.358   8.359 -0.3346 -0.3962 -0.5525
  773MOL0     C 6600  11.066   9.494   8.355  0.3880 -0.3200 -0.4927
  773MOL0     C 6601  11.117   9.600   8.352  0.3085  0.4675  1.0089
  773MOL0     C 6602  10.847   9.338   7.785 -0.1976  0.2041 -0.0762
  773MOL0     C 6603  10.908   9.395   7.669 -0.0992 -0.9191  1.0826
  773MOL0     C 6604  10.961   9.295   7.566 -0.0312  0.4512 -0.1557
  773MOL0     H 6605  10.975   9.902   7.409 -0.2399 -6.1715  3.5980
  773MOL0     H 6606  11.149  10.064   7.296  0.7252  2.6777  2.5988
  773MOL0     H 6607  11.592   9.939   7.353 -1.1789  0.2042 -0.6316
  773MOL0     H 6608  11.568  10.047   7.489 -0.4392 -2.0168  0.4962
  773MOL0     H 6609  11.587  10.231   7.314  3.9421  2.1984  0.2926
  773MOL0     H 6610  11.744  10.144   7.336  0.4011  2.0587  0.6358
  773MOL0     H 6611  11.741  10.023   7.146  0.7055 -0.3470  1.8769
  773MOL0     H 6612  11.564  10.042   7.115  0.5857  0.8249  0.6835
  773MOL0     H 6613  11.579  10.261   7.039  0.3559 -0.6225 -2.5601
  773MOL0     H 6614  11.740  10.284   7.103  0.0933 -1.3508  2.2203
  773MOL0     H 6615  11.683  10.082   6.876 -1.1206  1.8449 -0.8966
  773MOL0     H 6616  11.841  10.108   6.955 -0.2839  0.0247  0.1661
  773MOL0     H 6617  11.754  10.221   6.738  1.5426 -0.8811 -1.0957
  773MOL0     H 6618  11.700  10.345   6.843 -0.0551 -0.1047 -3.7512
  773MOL0     H 6619  11.990  10.237   6.827 -0.2109 -0.1108 -2.0900
  773MOL0     H 6620  11.934  10.345   6.966 -1.2565  2.0312 -0.6059
  773MOL0     H 6621  11.926  10.418   6.663  2.4364  1.5325 -1.0510
  773MOL0     H 6622  11.855  10.505   6.793 -1.6305 -2.6565 -1.1724
  773MOL0     H 6623  12.196  10.327   6.709 -3.4482 -1.2318  1.2266
  773MOL0     H 6624  12.407  10.530   6.545 -1.9361 -0.3197  0.5859
  773MOL0     H 6625  12.460  10.437   6.695 -0.6275  1.5610  2.9678
  773MOL0     H 6626  12.445  10.745   6.657 -2.1415  1.0576  3.2497
  773MOL0     H 6627  12.478  10.660   6.809 -0.0136  3.7160 -0.0820
  773MOL0     H 6628  12.685  10.558   6.704 -1.5531 -2.4538 -1.1574
  773MOL0     H 6629  12.658  10.638   6.552  0.6387 -0.6458  0.6023
  773MOL0     H 6630  12.710  10.782   6.828 -2.7910 -1.1190 -0.7099
  773MOL0     H 6631  12.818  10.750   6.701 -1.3658 -1.5002 -3.7802
  773MOL0     H 6632  12.627  11.030   6.451  0.9009 -1.8200 -0.4800
  773MOL0     H 6633  12.691  11.240   6.299  0.3189 -0.4705 -0.3663
  773MOL0     H 6634  12.775  11.112   6.195  2.8428 -1.3510  0.2441
  773MOL0     H 6635  12.860  11.266   6.249  3.2620 -2.6812  1.1203
  773MOL0     H 6636  13.221  11.497   6.443 -0.4220 -0.8634  0.0576
  773MOL0     H 6637  13.355  11.642   6.282  0.7572 -0.0040  0.1746
  773MOL0     H 6638  13.675  11.588   6.199  0.6731  1.1840 -1.0435
  773MOL0     H 6639  13.678  11.440   6.099 -1.4949 -0.6562  2.3952
  773MOL0     H 6640  13.642  11.595   5.899  0.5626  0.8791  0.2636
  773MOL0     H 6641  13.677  11.732   6.009  0.7680  0.5764 -1.1414
  773MOL0     H 6642  13.901  11.609   6.057 -1.1116  0.4132  0.1416
  773MOL0     H 6643  13.881  11.681   5.911  2.9219 -2.2477 -1.3313
  773MOL0     H 6644  13.801  11.439   5.819  0.6003  2.9536 -1.9194
  773MOL0     H 6645  13.873  11.380   5.973  2.3456 -0.0169  0.6698
  773MOL0     H 6646  14.037  11.552   5.777 -1.8461 -0.2326 -0.3849
  773MOL0     H 6647  14.081  11.510   5.938  0.7791  1.0362 -0.3678
  773MOL0     H 6648  14.000  11.263   5.792  1.8951 -2.0441 -0.2542
  773MOL0     H 6649  14.105  11.291   5.924 -1.4217 -0.2328  0.5171
  773MOL0     H 6650  14.268  11.409   5.791 -0.6080  0.9679 -0.2676
  773MOL0     H 6651  14.174  11.390   5.646  3.3322 -0.5949 -1.2306
  773MOL0     H 6652  14.195  11.176   5.618  2.9078  1.4123 -1.8358
  773MOL0     H 6653  14.233  11.133   5.794  1.9843  0.5717  0.0654
  773MOL0     H 6654  13.486  11.290   6.080  0.9849 -1.1723  1.9548
  773MOL0     H 6655  13.331  11.154   6.209 -1.1325 -0.0016 -1.5206
  773MOL0     H 6656  13.104  11.034   6.577 -0.1960  1.7649 -0.1604
  773MOL0     H 6657  12.931  10.914   6.706  0.5687  1.6240  0.5358
  773MOL0     H 6658  11.454   9.873   7.542 -1.0281  2.4465  1.6489
  773MOL0     H 6659  11.286   9.712   7.617 -3.5176  0.6867  0.6203
  773MOL0     H 6660  10.860   9.725   7.786  0.1868  0.9931  0.6634
  773MOL0     H 6661  10.737   9.605   7.962  1.4564 -0.4895  0.8666
  773MOL0     H 6662  10.684   9.454   8.145 -0.4630 -0.3293 -0.0904
  773MOL0     H 6663  10.656   9.278   8.147  0.9324 -1.9346 -2.0289
  773MOL0     H 6664  10.921   9.437   8.121  0.0516  0.7235  0.6439
  773MOL0     H 6665  10.913   9.261   8.128  5.2225  2.8677 -2.5012
  773MOL0     H 6666  10.811   9.437   8.359 -3.1037 -2.0371  1.8967
  773MOL0     H 6667  10.815   9.269   8.357  0.9932 -0.7004  0.1980
  773MOL0     H 6668  11.074   9.287   8.307 -0.2019 -0.3907 -0.3977
  773MOL0     H 6669  11.020   9.333   8.465 -0.3659  1.0560 -0.1868
  773MOL0     H 6670  11.151   9.702   8.343 -1.3921  0.9649 -0.4143
  773MOL0     H 6671  10.851   9.230   7.784 -1.6395  0.1259 -1.1003
  773MOL0     H 6672  10.925   9.196   7.594 -1.3381  1.1556  0.8137
  773MOL0     H 6673  10.919   9.320   7.468  2.8183  0.4908 -1.4449
  773MOL0     H 6674  11.069   9.288   7.558 -0.0771 -0.0125 -0.3533
  774MOL0     O 6675   2.855   5.535   3.804 -0.8190  0.2281 -0.3679
  774MOL0     C 6676   2.840   5.422   3.761  0.4358 -0.2545 -0.5368
  774MOL0     O 6677   2.940   5.349   3.705  0.3034 -0.1787  0.0941
  774MOL0     C 6678   3.070   5.405   3.682  0.3314  0.1922 -0.1466
  774MOL0     C 6679   3.091   5.542   3.657 -0.2490  0.1166 -0.4077
  774MOL0     C 6680   3.216   5.579   3.616 -0.8045 -0.1881  0.3587
  774MOL0     C 6681   3.321   5.488   3.599 -0.3105  0.7738  0.6406
  774MOL0     O 6682   3.451   5.516   3.549  0.0031  0.0485 -0.1203
  774MOL0     C 6683   3.494   5.653   3.572  0.8705  0.9580  0.4932
  774MOL0     C 6684   3.646   5.664   3.541 -0.1122 -0.0086  0.2763
  774MOL0     C 6685   3.747   5.606   3.643  0.5737  0.8353 -0.5207
  774MOL0     C 6686   3.894   5.656   3.632  0.1286 -0.2200 -0.5527
  774MOL0     C 6687   3.994   5.568   3.709  0.6453  0.7288 -0.0453
  774MOL0     C 6688   4.129   5.634   3.696  0.3199  0.5590  0.6348
  774MOL0     C 6689   4.245   5.545   3.746  0.8212 -0.3736  0.5326
  774MOL0     C 6690   4.374   5.631   3.743 -1.2186  0.4575 -0.1158
  774MOL0     N 6691   4.495   5.556   3.777 -0.4421 -0.0314  0.1434
  774MOL0     C 6692   4.544   5.563   3.904  0.4223 -0.4701 -0.1377
  774MOL0     C 6693   4.660   5.503   3.890 -0.1487  0.3756  0.1002
  774MOL0     C 6694   4.753   5.474   4.006  1.3575  0.4781  0.0872
  774MOL0     C 6695   4.872   5.567   4.005 -0.9844  0.2565 -1.1574
  774MOL0     C 6696   4.845   5.699   4.064  0.4180 -0.0383 -0.7957
  774MOL0     C 6697   4.971   5.777   4.064 -0.0141 -0.7707  0.6130
  774MOL0     O 6698   5.064   5.726   4.166 -0.1582 -0.7780 -0.0038
  774MOL0     C 6699   5.198   5.728   4.163  0.2782  0.4720  0.8083
  774MOL0     C 6700   5.266   5.698   4.274  0.7913  0.3803 -0.1113
  774MOL0     C 6701   5.404   5.711   4.293  0.5527 -1.1052  0.3070
  774MOL0     C 6702   5.471   5.701   4.427 -0.5712 -0.4413  0.3944
  774MOL0     C 6703   5.484   5.749   4.178  0.0472  1.4356  0.2310
  774MOL0     C 6704   5.633   5.780   4.172  0.5133  0.1729  0.1172
  774MOL0     O 6705   5.704   5.778   4.048 -0.3812 -0.0944 -0.2000
  774MOL0     C 6706   5.834   5.726   4.062  0.0703  0.5212  0.0820
  774MOL0     C 6707   5.870   5.592   4.045 -0.0107  1.0916 -0.2424
  774MOL0     C 6708   6.006   5.552   4.039  0.8098 -0.7943 -0.0125
  774MOL0     C 6709   6.105   5.648   4.057  0.0087 -0.1240  0.2360
  774MOL0     O 6710   6.238   5.623   4.058  0.1182  0.1323  0.4205
  774MOL0     C 6711   6.306   5.667   3.941  0.3028  0.1926  0.3287
  774MOL0     C 6712   6.453   5.614   3.942 -0.5004  0.2646  0.5071
  774MOL0     C 6713   6.533   5.659   4.063 -0.3648 -0.2979 -0.5957
  774MOL0     C 6714   6.652   5.568   4.088 -0.3379 -0.5523  0.0669
  774MOL0     C 6715   6.723   5.608   4.217 -1.1650  0.3569  0.0418
  774MOL0     C 6716   6.871   5.654   4.199 -0.5875 -0.5325  0.5864
  774MOL0     C 6717   6.885   5.780   4.104  0.0818  0.1821 -0.9551
  774MOL0     C 6718   7.019   5.848   4.126 -1.0517 -0.0671  0.2507
  774MOL0    Cl 6719   7.041   5.987   4.001  0.1493  0.7627 -0.4911
  774MOL0     C 6720   6.073   5.780   4.079  0.5748  0.4631 -0.8292
  774MOL0     C 6721   5.937   5.819   4.074  0.1021  0.1522  0.1144
  774MOL0     O 6722   5.690   5.781   4.280 -0.4271  0.0213 -0.1694
  774MOL0     C 6723   5.420   5.767   4.057  0.8276  0.7717  0.0862
  774MOL0     C 6724   5.278   5.766   4.048 -0.4075 -0.6253 -0.2570
  774MOL0     N 6725   4.687   5.482   3.756 -0.1263  0.4526 -0.0594
  774MOL0     N 6726   4.582   5.495   3.689 -0.8562  1.1558  0.1903
  774MOL0     C 6727   3.302   5.352   3.633  0.4475 -0.6666  0.1529
  774MOL0     C 6728   3.176   5.310   3.676 -0.3383 -0.1703  0.0143
  774MOL0     C 6729   2.713   5.365   3.771  0.5208  0.0559 -0.2544
  774MOL0     C 6730   2.709   5.237   3.827  0.2161 -0.3172  0.3414
  774MOL0     C 6731   2.590   5.168   3.848  0.9566 -0.0244 -0.0300
  774MOL0     C 6732   2.468   5.233   3.828  0.4478  1.2026 -0.2005
  774MOL0     O 6733   2.356   5.166   3.857 -0.6516  0.7657 -0.7951
  774MOL0     C 6734   2.228   5.231   3.847 -0.0824 -0.4187 -0.2015
  774MOL0     C 6735   2.175   5.248   3.698 -0.3726  0.1452  0.3621
  774MOL0     C 6736   2.040   5.317   3.686  0.4130  0.1917  0.3229
  774MOL0     C 6737   1.935   5.211   3.719 -0.7254 -1.1632  0.5800
  774MOL0     C 6738   1.811   5.291   3.715 -0.5706 -0.8673 -0.7187
  774MOL0     C 6739   1.703   5.347   3.722  0.1952  0.5960  0.1721
  774MOL0     C 6740   2.473   5.366   3.775  0.0458  0.2838 -0.3959
  774MOL0     C 6741   2.592   5.433   3.749  0.2629  1.0135 -0.7342
  774MOL0     C 6742   2.579   5.567   3.695 -0.3775 -0.5448 -0.1118
  774MOL0     H 6743   3.013   5.617   3.662  0.3251  0.6903  0.1615
  774MOL0     H 6744   3.231   5.682   3.584 -1.3572 -0.4532 -0.8191
  774MOL0     H 6745   3.468   5.679   3.675 -2.0550 -1.0126  0.3680
  774MOL0     H 6746   3.440   5.727   3.512  2.0072  0.1342 -1.6461
  774MOL0     H 6747   3.667   5.627   3.440 -1.1437 -0.8746  0.3584
  774MOL0     H 6748   3.670   5.770   3.531  2.3345 -0.6045 -1.1742
  774MOL0     H 6749   3.712   5.630   3.744  0.1187 -0.1285 -0.4324
  774MOL0     H 6750   3.736   5.498   3.629 -1.9661  1.0607 -0.9024
  774MOL0     H 6751   3.918   5.640   3.527 -0.8079 -2.4275 -0.4985
  774MOL0     H 6752   3.896   5.761   3.661 -3.2793  0.1358 -1.2100
  774MOL0     H 6753   4.005   5.468   3.664  3.0248  0.3687  1.1499
  774MOL0     H 6754   3.970   5.555   3.815  0.7449 -0.8499 -0.1825
  774MOL0     H 6755   4.151   5.651   3.590 -0.8980  1.4135  0.5027
  774MOL0     H 6756   4.124   5.735   3.739  0.1475  0.8327 -0.0088
  774MOL0     H 6757   4.245   5.459   3.678 -1.1535 -0.6914  0.8734
  774MOL0     H 6758   4.223   5.499   3.843 -0.3075 -1.4989 -0.2191
  774MOL0     H 6759   4.387   5.666   3.640  0.0320 -0.8006 -0.4057
  774MOL0     H 6760   4.381   5.715   3.812  4.6355  1.3888 -1.3165
  774MOL0     H 6761   4.491   5.593   3.994 -1.7585  1.0575 -1.8081
  774MOL0     H 6762   4.794   5.373   3.996  2.1496  0.9350 -1.8718
  774MOL0     H 6763   4.701   5.484   4.102 -1.4232 -0.4049 -1.2070
  774MOL0     H 6764   4.950   5.513   4.059 -2.9728 -1.4608  0.1655
  774MOL0     H 6765   4.912   5.592   3.906  0.3229 -0.1274 -0.7414
  774MOL0     H 6766   4.776   5.757   4.002  1.6716  1.9014 -0.4650
  774MOL0     H 6767   4.795   5.696   4.162  1.4607 -0.0463 -0.2461
  774MOL0     H 6768   5.013   5.778   3.963 -0.4015 -2.7605  0.3829
  774MOL0     H 6769   4.940   5.877   4.096 -1.0369 -0.9282  0.1607
  774MOL0     H 6770   5.202   5.668   4.357  0.2582  2.4169  0.2787
  774MOL0     H 6771   5.525   5.796   4.440 -1.6019  0.5859 -2.1265
  774MOL0     H 6772   5.544   5.620   4.417  0.0237  0.0250  0.8814
  774MOL0     H 6773   5.399   5.687   4.508 -2.4725  3.7577 -0.3125
  774MOL0     H 6774   5.791   5.517   4.039  0.3979  0.5874  0.5795
  774MOL0     H 6775   6.023   5.446   4.022 -2.1468 -2.1033  3.8342
  774MOL0     H 6776   6.251   5.622   3.858 -0.0265 -2.3202  1.7966
  774MOL0     H 6777   6.303   5.776   3.930 -0.7208  0.4109  2.1983
  774MOL0     H 6778   6.458   5.505   3.941  0.0057  0.2539 -1.8556
  774MOL0     H 6779   6.496   5.645   3.847  0.3233 -1.6846  0.2022
  774MOL0     H 6780   6.470   5.658   4.152 -0.0158  1.7935 -0.2910
  774MOL0     H 6781   6.559   5.764   4.046  2.3742 -0.4756  1.7260
  774MOL0     H 6782   6.717   5.589   4.002 -3.6544  3.0763 -1.8726
  774MOL0     H 6783   6.619   5.464   4.092 -0.5182 -0.4464  1.9438
  774MOL0     H 6784   6.669   5.684   4.274  1.0626  0.2767  2.4396
  774MOL0     H 6785   6.720   5.521   4.285 -1.7602  3.3299  4.2262
  774MOL0     H 6786   6.925   5.575   4.147  1.4096  0.8854  0.3981
  774MOL0     H 6787   6.925   5.651   4.294  1.0769 -6.0842 -0.2115
  774MOL0     H 6788   6.804   5.849   4.125 -0.0724 -0.5224  0.9190
  774MOL0     H 6789   6.890   5.748   3.999 -1.2450 -3.3575 -0.0761
  774MOL0     H 6790   7.101   5.777   4.112 -2.6940 -1.9270 -0.3326
  774MOL0     H 6791   7.030   5.883   4.229 -1.1661 -5.1064  2.2649
  774MOL0     H 6792   6.152   5.852   4.099 -0.1593  0.6282  1.7913
  774MOL0     H 6793   5.898   5.920   4.086 -1.3359 -0.4642  0.9170
  774MOL0     H 6794   5.474   5.798   3.969 -0.1279 -2.2669 -1.7299
  774MOL0     H 6795   5.238   5.784   3.949 -2.4082 -1.6668  0.3003
  774MOL0     H 6796   3.385   5.282   3.625  2.9211  2.1472 -0.6344
  774MOL0     H 6797   3.162   5.209   3.711 -0.7029  0.5993  2.2033
  774MOL0     H 6798   2.804   5.187   3.843 -0.2454 -1.2489  0.2396
  774MOL0     H 6799   2.575   5.062   3.867 -0.7601 -0.0313 -1.2181
  774MOL0     H 6800   2.153   5.185   3.912 -0.7204  0.1843 -0.4957
  774MOL0     H 6801   2.250   5.329   3.890 -2.4428  0.0517  0.1042
  774MOL0     H 6802   2.162   5.145   3.661 -4.1860  0.2364  0.9780
  774MOL0     H 6803   2.255   5.301   3.646  4.2097 -5.2040  0.9468
  774MOL0     H 6804   2.021   5.395   3.760 -1.4949  0.5346 -0.4758
  774MOL0     H 6805   2.023   5.364   3.589  0.5389  1.7714  1.0401
  774MOL0     H 6806   1.959   5.186   3.823 -2.0416  1.3951  1.6004
  774MOL0     H 6807   1.932   5.117   3.664 -0.4195 -0.7768 -0.1094
  774MOL0     H 6808   1.605   5.391   3.730 -0.8153 -1.6406  0.7763
  774MOL0     H 6809   2.382   5.424   3.757 -1.2536 -1.9527 -1.5439
  774MOL0     H 6810   2.483   5.609   3.726  1.4854  0.6279  4.9875
  774MOL0     H 6811   2.652   5.635   3.741  1.7090 -3.4298  1.1362
  774MOL0     H 6812   2.585   5.567   3.586 -0.8146  1.6638 -0.1879
  775MOL0     O 6813   8.018   9.351   9.654  0.1556  0.2078 -0.7128
  775MOL0     C 6814   8.107   9.413   9.717 -0.9623  0.5743  1.3015
  775MOL0     O 6815   8.151   9.545   9.696  0.0014  0.0813 -0.1934
  775MOL0     C 6816   8.059   9.645   9.687  0.1725  0.2163  0.2492
  775MOL0     C 6817   8.102   9.778   9.656  0.1414  0.8568  1.1233
  775MOL0     C 6818   8.009   9.876   9.648  1.9671 -0.1211  1.1308
  775MOL0     C 6819   7.870   9.855   9.664 -0.2323 -0.1347  0.3698
  775MOL0     O 6820   7.772   9.949   9.672  0.0763  0.7067 -0.1003
  775MOL0     C 6821   7.813  10.094   9.664  0.2529 -0.4893 -0.4246
  775MOL0     C 6822   7.841  10.143   9.804 -0.0721 -0.4247 -0.1507
  775MOL0     C 6823   7.722  10.209   9.876  0.1394  1.5948  0.6482
  775MOL0     C 6824   7.756  10.342   9.942  1.8003 -0.2900 -0.5665
  775MOL0     C 6825   7.773  10.456   9.843  0.0954  0.3497 -0.4347
  775MOL0     C 6826   7.779  10.598   9.898  0.1541  0.0919  0.4838
  775MOL0     C 6827   7.798  10.693   9.793  0.6112 -0.1476  0.6832
  775MOL0     C 6828   7.941  10.698   9.738 -0.1994  0.4144  0.1234
  775MOL0     N 6829   7.956  10.804   9.639 -1.1569  0.6842 -0.4385
  775MOL0     C 6830   7.964  10.940   9.680 -0.5133  0.4936  0.3630
  775MOL0     C 6831   8.028  10.991   9.569 -0.9825 -0.8796  0.0934
  775MOL0     C 6832   8.093  11.127   9.569  0.1968 -0.5042 -0.7517
  775MOL0     C 6833   8.236  11.118   9.528 -0.4957  0.3575 -0.1636
  775MOL0     C 6834   8.312  11.250   9.539  0.2008  0.5958 -0.0268
  775MOL0     C 6835   8.256  11.345   9.431 -0.3624  0.0360 -0.6303
  775MOL0     O 6836   8.234  11.293   9.296  0.0967 -0.7037 -0.2526
  775MOL0     C 6837   8.340  11.273   9.208  0.9088  0.3837 -0.3040
  775MOL0     C 6838   8.476  11.301   9.236 -0.5095  0.5691 -0.8326
  775MOL0     C 6839   8.575  11.303   9.135  0.5071  0.3051 -0.0077
  775MOL0     C 6840   8.711  11.335   9.178  0.1184 -0.3260 -0.7461
  775MOL0     C 6841   8.544  11.246   9.010  0.2997  0.1647 -0.0372
  775MOL0     C 6842   8.650  11.211   8.914  0.4559 -1.2761  0.6018
  775MOL0     O 6843   8.605  11.139   8.817  0.7573 -0.1890  0.3898
  775MOL0     C 6844   8.687  11.074   8.727  0.3035 -0.4407 -0.3076
  775MOL0     C 6845   8.704  11.135   8.604 -0.7375 -0.6153 -0.3150
  775MOL0     C 6846   8.787  11.074   8.503  0.2350  0.1715  0.1606
  775MOL0     C 6847   8.844  10.951   8.537  0.4489  0.1210 -0.1861
  775MOL0     O 6848   8.940  10.904   8.449 -0.0764 -0.1481  0.2604
  775MOL0     C 6849   8.910  10.767   8.419 -0.2711  0.1100  0.4933
  775MOL0     C 6850   9.048  10.699   8.373  0.4613  0.1955  0.1627
  775MOL0     C 6851   9.090  10.743   8.232  0.1362  0.6758 -0.7541
  775MOL0     C 6852   9.207  10.669   8.175 -0.8290  1.0944  0.6362
  775MOL0     C 6853   9.283  10.757   8.074  0.4549 -0.4752 -0.0136
  775MOL0     C 6854   9.420  10.697   8.054  0.2586  0.8120  0.4105
  775MOL0     C 6855   9.524  10.785   7.982  0.6335  0.1541  0.4385
  775MOL0     C 6856   9.645  10.699   7.932  0.1764 -0.2346  0.4365
  775MOL0    Cl 6857   9.795  10.739   8.013  0.0332 -0.1104 -0.0650
  775MOL0     C 6858   8.823  10.895   8.662  0.6896 -0.6694  0.2257
  775MOL0     C 6859   8.742  10.953   8.760 -0.6708 -0.6757  0.0685
  775MOL0     O 6860   8.767  11.234   8.930  0.0954 -0.1921  0.1493
  775MOL0     C 6861   8.410  11.205   8.987  0.3879 -0.2390 -0.8524
  775MOL0     C 6862   8.314  11.226   9.083 -0.0719  0.1065 -0.5781
  775MOL0     N 6863   8.043  10.892   9.475 -0.2682  0.5107  0.2104
  775MOL0     N 6864   8.020  10.771   9.526  0.2029 -0.1202 -0.1901
  775MOL0     C 6865   7.829   9.725   9.673  0.4674 -0.9920  0.1353
  775MOL0     C 6866   7.920   9.624   9.692 -0.4525 -0.8820  0.1617
  775MOL0     C 6867   8.172   9.335   9.825  0.2890 -0.2740  0.4835
  775MOL0     C 6868   8.243   9.409   9.930  0.5834  0.5361 -0.4810
  775MOL0     C 6869   8.299   9.344  10.032  0.5727 -0.2775 -0.2940
  775MOL0     C 6870   8.306   9.204  10.045  0.1633  0.0962  0.6898
  775MOL0     O 6871   8.368   9.138  10.143 -0.1749  0.8711 -0.1400
  775MOL0     C 6872   8.437   9.213  10.247  0.3227 -0.5669 -0.4001
  775MOL0     C 6873   8.505   9.104  10.329 -0.3169  0.7032  0.0926
  775MOL0     C 6874   8.586   9.153  10.450 -0.1861 -0.3502 -0.0776
  775MOL0     C 6875   8.684   9.043  10.497  0.1635 -0.5425 -0.0492
  775MOL0     C 6876   8.746   9.062  10.627 -0.3128  0.7265 -0.2885
  775MOL0     C 6877   8.801   9.077  10.733 -0.2901  0.3303 -0.1248
  775MOL0     C 6878   8.231   9.129   9.948 -0.6354  0.0068 -1.0247
  775MOL0     C 6879   8.170   9.193   9.835 -1.2576  0.3871  0.1587
  775MOL0     C 6880   8.096   9.108   9.737  0.1740 -0.9173  0.0163
  775MOL0     H 6881   8.209   9.782   9.641 -0.0763 -0.0189 -1.1996
  775MOL0     H 6882   8.057   9.973   9.634  0.1442  0.7520  0.5609
  775MOL0     H 6883   7.741  10.162   9.617  0.7805  2.2341  2.3976
  775MOL0     H 6884   7.895  10.101   9.592 -1.3573 -0.6269 -2.3715
  775MOL0     H 6885   7.886  10.061   9.861  2.0976  0.4615 -0.5058
  775MOL0     H 6886   7.915  10.223   9.799 -1.3853  0.7993 -0.6521
  775MOL0     H 6887   7.636  10.218   9.809 -0.7635  0.8960  1.6531
  775MOL0     H 6888   7.694  10.137   9.954  1.9378 -0.2528 -0.3264
  775MOL0     H 6889   7.675  10.363  10.012  1.1835 -1.5747 -0.8510
  775MOL0     H 6890   7.843  10.336  10.007  0.5540 -1.0859  1.1178
  775MOL0     H 6891   7.684  10.450   9.779  0.8087 -0.1182 -1.4196
  775MOL0     H 6892   7.853  10.420   9.778 -1.7730  1.1015 -3.3542
  775MOL0     H 6893   7.682  10.621   9.943 -2.8870 -1.1782 -4.6283
  775MOL0     H 6894   7.860  10.600   9.971  0.0874 -1.4046  0.6234
  775MOL0     H 6895   7.774  10.793   9.830  0.6392  0.3131 -0.5137
  775MOL0     H 6896   7.736  10.670   9.706 -2.7721  3.7272  1.8085
  775MOL0     H 6897   8.011  10.715   9.821  2.6537  0.3113 -2.1083
  775MOL0     H 6898   7.961  10.604   9.685  0.4462 -0.0530  1.1516
  775MOL0     H 6899   7.936  10.984   9.775 -0.7177  2.0803 -0.4059
  775MOL0     H 6900   8.082  11.158   9.673 -2.2599  1.4728 -1.5130
  775MOL0     H 6901   8.033  11.191   9.504  0.4338  1.3133  0.7554
  775MOL0     H 6902   8.279  11.050   9.602 -2.6946  0.0102  0.8782
  775MOL0     H 6903   8.255  11.078   9.428  1.5414 -0.8375  0.6381
  775MOL0     H 6904   8.315  11.288   9.641  2.5641 -1.1285  0.6416
  775MOL0     H 6905   8.414  11.220   9.515 -0.4821 -3.4525  1.3167
  775MOL0     H 6906   8.162  11.379   9.474  0.2405 -0.0868  0.8157
  775MOL0     H 6907   8.322  11.432   9.421 -1.5469  1.1782  1.1053
  775MOL0     H 6908   8.502  11.343   9.333  1.4777 -2.5630  0.1321
  775MOL0     H 6909   8.764  11.404   9.112  1.2010 -0.4536 -0.0372
  775MOL0     H 6910   8.771  11.245   9.195 -1.0001 -0.8808  0.4217
  775MOL0     H 6911   8.715  11.387   9.274  3.7285 -1.7438  0.0282
  775MOL0     H 6912   8.659  11.234   8.599 -1.6840 -0.9988  0.2445
  775MOL0     H 6913   8.808  11.114   8.404 -2.6430 -1.2672 -1.1568
  775MOL0     H 6914   8.890  10.706   8.507 -0.7343  1.0682  1.0643
  775MOL0     H 6915   8.828  10.765   8.346  0.8200  4.1066 -1.1568
  775MOL0     H 6916   9.130  10.714   8.444 -1.9193  1.5788  2.8289
  775MOL0     H 6917   9.032  10.591   8.374 -0.6358  0.3429 -0.2175
  775MOL0     H 6918   9.108  10.851   8.236 -1.6581  1.1290 -2.9782
  775MOL0     H 6919   9.012  10.736   8.155  0.1893  0.5899 -0.8019
  775MOL0     H 6920   9.178  10.573   8.133  2.7290 -0.4444  1.3703
  775MOL0     H 6921   9.271  10.651   8.262 -1.1515  3.3742  1.4265
  775MOL0     H 6922   9.235  10.748   7.976 -1.0863 -1.0107  0.7540
  775MOL0     H 6923   9.297  10.859   8.113 -0.8680 -0.5491  0.7143
  775MOL0     H 6924   9.402  10.617   7.982 -0.7586  2.1057 -0.8061
  775MOL0     H 6925   9.450  10.661   8.153 -1.4961  2.4828  1.6293
  775MOL0     H 6926   9.557  10.854   8.059 -1.4692 -0.7968  2.3020
  775MOL0     H 6927   9.479  10.850   7.906  1.9377 -0.8077 -1.2394
  775MOL0     H 6928   9.656  10.706   7.824 -1.3343 -1.6031  0.1665
  775MOL0     H 6929   9.621  10.594   7.949 -0.0289  0.1889  3.2852
  775MOL0     H 6930   8.872  10.801   8.687 -1.1120 -2.2338 -1.7642
  775MOL0     H 6931   8.716  10.927   8.862 -0.7640 -0.3182  0.1369
  775MOL0     H 6932   8.376  11.157   8.896 -2.1443  2.6450 -1.5975
  775MOL0     H 6933   8.210  11.196   9.080 -0.3587  0.0446  3.7986
  775MOL0     H 6934   7.723   9.702   9.684  0.7059 -1.1430  2.9250
  775MOL0     H 6935   7.877   9.526   9.708  0.5728 -1.2800  0.5965
  775MOL0     H 6936   8.252   9.517   9.933  3.4731  0.3597 -0.7415
  775MOL0     H 6937   8.335   9.409  10.110 -0.6408 -0.6106  0.5820
  775MOL0     H 6938   8.508   9.277  10.194 -0.8295  1.9590  0.9344
  775MOL0     H 6939   8.374   9.283  10.302 -1.5702 -0.1799 -2.8721
  775MOL0     H 6940   8.569   9.071  10.247  0.2142  1.1419  0.3180
  775MOL0     H 6941   8.422   9.040  10.362 -1.0432  1.4396 -0.2728
  775MOL0     H 6942   8.655   9.232  10.417 -0.5240 -0.7447 -1.8500
  775MOL0     H 6943   8.525   9.208  10.521 -1.3853  2.6300 -3.1113
  775MOL0     H 6944   8.762   9.042  10.420 -1.9941 -0.1215 -2.3781
  775MOL0     H 6945   8.639   8.944  10.492 -0.2656 -0.2944 -2.8458
  775MOL0     H 6946   8.846   9.076  10.830 -1.9285 -1.8409  0.7050
  775MOL0     H 6947   8.232   9.020   9.951 -2.0576 -0.0155  1.1866
  775MOL0     H 6948   8.141   9.131   9.640  1.7024  0.1390  0.9298
  775MOL0     H 6949   8.117   9.001   9.753 -1.5229 -1.1569  0.7974
  775MOL0     H 6950   7.990   9.132   9.747  0.5297  1.3686 -1.0773
  776MOL0     O 6951   8.098   1.900   2.283 -0.5368 -0.0577  0.4202
  776MOL0     C 6952   7.979   1.883   2.280 -0.7264  0.9812  0.9167
  776MOL0     O 6953   7.898   1.898   2.175 -0.2858 -0.5639 -0.2991
  776MOL0     C 6954   7.944   1.941   2.054 -1.2640 -0.3811 -0.3727
  776MOL0     C 6955   8.060   1.903   1.994  0.6903  0.0474  0.5037
  776MOL0     C 6956   8.088   1.958   1.868 -0.2388 -0.0784  0.0212
  776MOL0     C 6957   8.007   2.048   1.797  0.2200 -1.1563 -0.7060
  776MOL0     O 6958   8.048   2.102   1.681  0.3586  0.4190  0.0393
  776MOL0     C 6959   7.951   2.125   1.580 -0.9313  0.4431 -0.2941
  776MOL0     C 6960   8.021   2.171   1.459  0.1304 -0.7161 -0.2160
  776MOL0     C 6961   7.924   2.160   1.338 -0.6066  0.0140  0.3015
  776MOL0     C 6962   8.009   2.184   1.209 -0.1769 -0.3950 -0.0648
  776MOL0     C 6963   7.940   2.129   1.086  0.1284 -0.0748 -0.7728
  776MOL0     C 6964   7.806   2.202   1.070  0.1639  0.4953 -0.7634
  776MOL0     C 6965   7.736   2.168   0.940 -0.4824  0.4511 -0.2410
  776MOL0     C 6966   7.586   2.204   0.954  0.0242 -0.8400 -0.2692
  776MOL0     N 6967   7.494   2.153   0.852 -0.4898  0.2720 -0.6778
  776MOL0     C 6968   7.531   2.079   0.743 -0.9589  0.1413  0.1568
  776MOL0     C 6969   7.414   2.018   0.703 -0.1139 -0.6046  0.6141
  776MOL0     C 6970   7.390   1.934   0.580 -0.0716  0.2608  0.3833
  776MOL0     C 6971   7.372   1.778   0.589  0.3264 -0.6390  0.1572
  776MOL0     C 6972   7.418   1.712   0.461 -0.0207  0.2137  0.3629
  776MOL0     C 6973   7.312   1.726   0.350 -0.1219  0.2273 -0.3493
  776MOL0     O 6974   7.336   1.647   0.234 -0.5381 -0.1056 -0.0898
  776MOL0     C 6975   7.431   1.685   0.143  1.1790 -0.6843 -0.8366
  776MOL0     C 6976   7.459   1.586   0.045  0.0621 -0.3435 -0.8298
  776MOL0     C 6977   7.568   1.612  -0.044  0.3574  0.2697 -0.5641
  776MOL0     C 6978   7.600   1.488  -0.118 -0.4006  0.4935 -0.0097
  776MOL0     C 6979   7.629   1.737  -0.056 -0.1123  0.8348 -0.0523
  776MOL0     C 6980   7.728   1.785  -0.147 -0.5420  0.2201  0.7248
  776MOL0     O 6981   7.792   1.904  -0.130 -0.1509  0.2470  0.6017
  776MOL0     C 6982   7.909   1.937  -0.199  0.2614  0.1489 -0.5784
  776MOL0     C 6983   7.939   2.074  -0.190 -0.4160  0.5831 -0.1709
  776MOL0     C 6984   8.061   2.131  -0.222  0.4021  0.0305 -0.4933
  776MOL0     C 6985   8.160   2.045  -0.278 -0.3545  0.6395  0.3967
  776MOL0     O 6986   8.290   2.068  -0.327 -0.5120  0.1755  0.2171
  776MOL0     C 6987   8.338   2.202  -0.288 -0.3002  0.2988 -0.2386
  776MOL0     C 6988   8.484   2.188  -0.279  0.2478  0.1446 -0.4395
  776MOL0     C 6989   8.552   2.148  -0.409  0.1602  0.1567 -0.1311
  776MOL0     C 6990   8.699   2.188  -0.394  0.4953  0.1952  0.5194
  776MOL0     C 6991   8.726   2.344  -0.363 -0.6972  0.3907  0.0605
  776MOL0     C 6992   8.630   2.434  -0.441  0.6328 -0.5669 -0.2453
  776MOL0     C 6993   8.702   2.566  -0.454 -0.7917  0.6138 -0.3235
  776MOL0     C 6994   8.635   2.663  -0.566 -0.5560 -0.7976 -0.1607
  776MOL0    Cl 6995   8.711   2.824  -0.576 -0.1338 -0.0380  0.8210
  776MOL0     C 6996   8.128   1.905  -0.294 -0.1183  0.7296 -1.0033
  776MOL0     C 6997   8.000   1.855  -0.263 -0.1766  0.0657 -0.0145
  776MOL0     O 6998   7.740   1.718  -0.247 -0.1973 -0.0468  0.2395
  776MOL0     C 6999   7.594   1.830   0.042 -0.1953 -0.4424  0.4951
  776MOL0     C 7000   7.499   1.806   0.137  0.1841 -0.1034 -0.5998
  776MOL0     N 7001   7.309   2.056   0.785  0.2198 -0.1569  0.0581
  776MOL0     N 7002   7.359   2.143   0.867  0.5736 -1.0690 -0.7616
  776MOL0     C 7003   7.886   2.081   1.855  0.2193  0.2314  1.1732
  776MOL0     C 7004   7.861   2.031   1.983 -0.1075  0.1921  0.4300
  776MOL0     C 7005   7.922   1.845   2.409  0.6261 -0.6030 -0.1833
  776MOL0     C 7006   7.781   1.832   2.413 -0.7540 -0.0186 -0.6775
  776MOL0     C 7007   7.710   1.809   2.535  0.2355 -0.2104 -0.2722
  776MOL0     C 7008   7.787   1.808   2.657  0.5422 -0.4578 -0.5651
  776MOL0     O 7009   7.731   1.794   2.784  0.1516 -1.4589 -0.0851
  776MOL0     C 7010   7.644   1.685   2.809  0.2872 -0.6162 -0.2712
  776MOL0     C 7011   7.715   1.549   2.797  0.7955 -0.1558  0.7686
  776MOL0     C 7012   7.628   1.423   2.815  0.6802  0.0102  0.7168
  776MOL0     C 7013   7.528   1.403   2.700 -0.8380 -0.2266  0.1762
  776MOL0     C 7014   7.439   1.292   2.720  0.0609  0.6693 -0.1335
  776MOL0     C 7015   7.363   1.203   2.748  0.7777 -0.2148  0.2050
  776MOL0     C 7016   7.927   1.827   2.650  0.3641  0.1000 -0.0659
  776MOL0     C 7017   7.998   1.840   2.533 -0.3158 -0.2127 -0.1099
  776MOL0     C 7018   8.151   1.834   2.540  0.2174 -0.1033 -0.0279
  776MOL0     H 7019   8.144   1.840   2.023  2.0509 -0.3008 -3.5663
  776MOL0     H 7020   8.169   1.916   1.809 -1.8948 -0.9074 -1.8244
  776MOL0     H 7021   7.872   2.197   1.599 -0.2547  1.3632 -0.9093
  776MOL0     H 7022   7.903   2.029   1.557 -0.9636  0.0315  1.3854
  776MOL0     H 7023   8.040   2.279   1.458  2.2351 -1.0451 -1.0934
  776MOL0     H 7024   8.117   2.124   1.434  2.0795  2.1654  1.2939
  776MOL0     H 7025   7.883   2.059   1.340 -1.6613  0.3935  3.2337
  776MOL0     H 7026   7.847   2.237   1.345  0.4016  0.9575  1.4081
  776MOL0     H 7027   8.018   2.292   1.195 -0.9131 -0.5861 -2.6152
  776MOL0     H 7028   8.106   2.133   1.214 -0.7426 -1.6519 -1.1498
  776MOL0     H 7029   7.929   2.021   1.099  0.1107 -0.0032 -0.1368
  776MOL0     H 7030   8.006   2.143   0.999  0.0685 -1.0138 -0.9702
  776MOL0     H 7031   7.734   2.190   1.151  0.7188  3.1881  0.2265
  776MOL0     H 7032   7.823   2.310   1.065 -0.6600  0.6621 -0.1995
  776MOL0     H 7033   7.750   2.061   0.920 -4.4781 -0.3334  0.4155
  776MOL0     H 7034   7.783   2.225   0.859  3.0419  0.3515  1.5329
  776MOL0     H 7035   7.547   2.165   1.048 -0.4309  1.7441  0.7081
  776MOL0     H 7036   7.575   2.313   0.949 -1.2830 -1.0210 -2.3575
  776MOL0     H 7037   7.628   2.058   0.698 -1.5457 -2.2266 -0.1259
  776MOL0     H 7038   7.465   1.964   0.506 -0.1016 -2.1277 -0.7087
  776MOL0     H 7039   7.292   1.973   0.549 -0.2880 -1.3613 -1.0999
  776MOL0     H 7040   7.432   1.746   0.675  2.4158  2.4119  0.0014
  776MOL0     H 7041   7.267   1.752   0.602  0.7150 -2.8567 -0.6201
  776MOL0     H 7042   7.517   1.743   0.426 -0.5838 -1.6480 -3.4424
  776MOL0     H 7043   7.404   1.604   0.470 -2.1173 -0.0077 -3.6239
  776MOL0     H 7044   7.217   1.701   0.399  0.3971  0.2793  0.6987
  776MOL0     H 7045   7.294   1.829   0.318 -4.1870 -0.0990  0.3436
  776MOL0     H 7046   7.408   1.491   0.058 -1.0748 -0.0451 -2.8060
  776MOL0     H 7047   7.534   1.490  -0.205  0.3042  2.8643 -0.5709
  776MOL0     H 7048   7.572   1.401  -0.058  0.2866 -0.2887 -0.8034
  776MOL0     H 7049   7.707   1.483  -0.138 -0.1135 -3.3582  1.6773
  776MOL0     H 7050   7.859   2.138  -0.155  1.1199  3.6174 -1.8252
  776MOL0     H 7051   8.081   2.236  -0.209 -1.8514  0.3076  1.4441
  776MOL0     H 7052   8.323   2.285  -0.358 -0.3042  1.7142  1.3803
  776MOL0     H 7053   8.301   2.227  -0.189  1.9510  1.7119  0.3053
  776MOL0     H 7054   8.505   2.279  -0.222 -3.1211 -0.0339  1.3402
  776MOL0     H 7055   8.511   2.115  -0.202  0.4207  0.5050 -0.1538
  776MOL0     H 7056   8.499   2.188  -0.496 -2.7134 -2.8611  0.0444
  776MOL0     H 7057   8.534   2.041  -0.418 -2.3905  0.4821  0.2667
  776MOL0     H 7058   8.745   2.155  -0.487  0.2185 -0.2550  0.5384
  776MOL0     H 7059   8.736   2.117  -0.319 -3.0074 -1.2053  1.1497
  776MOL0     H 7060   8.715   2.358  -0.255  0.6030 -0.4400  0.3261
  776MOL0     H 7061   8.831   2.367  -0.382  0.5249 -1.7960  3.2720
  776MOL0     H 7062   8.530   2.437  -0.396  0.5041 -3.8647 -0.0580
  776MOL0     H 7063   8.631   2.394  -0.543  4.4105  2.7594 -1.8042
  776MOL0     H 7064   8.807   2.550  -0.480 -0.2147  3.2576 -0.0038
  776MOL0     H 7065   8.699   2.610  -0.354 -2.4263  0.7602 -0.4157
  776MOL0     H 7066   8.530   2.678  -0.540 -0.9329 -3.7866  0.3973
  776MOL0     H 7067   8.643   2.618  -0.665  1.5645 -0.2418 -0.2970
  776MOL0     H 7068   8.204   1.841  -0.337 -1.8677 -0.4981 -2.4350
  776MOL0     H 7069   7.980   1.751  -0.291 -0.4250  0.5614 -1.8465
  776MOL0     H 7070   7.619   1.935   0.032 -0.1736 -0.6329 -2.0020
  776MOL0     H 7071   7.488   1.888   0.207 -0.9959 -0.9701  0.2766
  776MOL0     H 7072   7.823   2.159   1.814  2.4403  1.1449 -0.7001
  776MOL0     H 7073   7.775   2.066   2.039 -0.2565  0.0928  0.2631
  776MOL0     H 7074   7.726   1.845   2.320  2.6522 -0.1730 -2.9278
  776MOL0     H 7075   7.604   1.788   2.531  0.4839 -1.4782 -0.8800
  776MOL0     H 7076   7.606   1.687   2.912  1.5520  1.2905  0.2006
  776MOL0     H 7077   7.558   1.689   2.742 -2.4723 -1.0016  2.9584
  776MOL0     H 7078   7.800   1.538   2.865  0.1255 -1.2371  1.4456
  776MOL0     H 7079   7.759   1.538   2.697  1.7014  2.7464  0.7370
  776MOL0     H 7080   7.687   1.331   2.818  0.9922  0.0209 -2.1459
  776MOL0     H 7081   7.581   1.427   2.914  2.4635 -2.9085  1.8028
  776MOL0     H 7082   7.573   1.401   2.601  1.7317  1.9620  1.1845
  776MOL0     H 7083   7.455   1.485   2.700  0.6439  1.1770  1.7409
  776MOL0     H 7084   7.297   1.122   2.776  2.3647 -2.2431 -1.6008
  776MOL0     H 7085   7.971   1.820   2.749  0.6748 -3.2106 -0.3484
  776MOL0     H 7086   8.187   1.823   2.643  0.0038 -1.9428 -0.1218
  776MOL0     H 7087   8.187   1.752   2.478  1.7757  0.0603  0.6006
  776MOL0     H 7088   8.194   1.931   2.511 -0.9707  0.6113  0.5636
  777MOL0     O 7089   9.815   6.582   4.104 -0.4336  0.0869  0.5324
  777MOL0     C 7090   9.745   6.685   4.127  0.4097 -0.0524  0.0432
  777MOL0     O 7091   9.801   6.813   4.140  0.7086  0.5394  0.2369
  777MOL0     C 7092   9.936   6.832   4.159  0.5082  0.2372 -0.1876
  777MOL0     C 7093   9.993   6.958   4.114  0.1147  1.3059  0.1683
  777MOL0     C 7094  10.132   6.973   4.104  0.3674  0.6023 -0.8802
  777MOL0     C 7095  10.220   6.879   4.136 -0.3881 -0.4790 -0.6925
  777MOL0     O 7096  10.355   6.906   4.138 -0.7692 -0.0427  0.0752
  777MOL0     C 7097  10.449   6.804   4.185 -0.2447 -0.1244  0.2647
  777MOL0     C 7098  10.586   6.851   4.131  0.6927  0.7947 -0.2777
  777MOL0     C 7099  10.576   6.865   3.975  0.0032 -0.0501  1.0804
  777MOL0     C 7100  10.698   6.809   3.898  0.4312 -0.1896 -0.4189
  777MOL0     C 7101  10.709   6.661   3.926 -0.4728 -0.1309 -0.4452
  777MOL0     C 7102  10.804   6.592   3.820 -0.1331 -0.9907 -0.0547
  777MOL0     C 7103  10.954   6.579   3.864  0.7447  0.3545 -0.4081
  777MOL0     C 7104  11.050   6.696   3.818  0.2541  0.9161  0.7083
  777MOL0     N 7105  11.188   6.671   3.845 -0.3232 -0.3635  0.6851
  777MOL0     C 7106  11.272   6.716   3.945 -0.1372 -0.6885  0.1851
  777MOL0     C 7107  11.385   6.634   3.929  0.5064  0.6946  0.4379
  777MOL0     C 7108  11.481   6.608   4.027 -0.2642  0.3944 -0.3545
  777MOL0     C 7109  11.605   6.528   3.967 -1.1851 -0.7716  0.0928
  777MOL0     C 7110  11.733   6.558   4.047 -0.3307  0.2769 -0.8191
  777MOL0     C 7111  11.863   6.484   4.005  0.9830  0.3560 -0.7944
  777MOL0     O 7112  11.839   6.337   4.015  0.8095 -0.6144  0.4401
  777MOL0     C 7113  11.945   6.256   3.992 -0.3426  0.6208  0.6345
  777MOL0     C 7114  11.946   6.132   4.048 -0.3828 -0.0004 -0.7675
  777MOL0     C 7115  12.046   6.042   4.026 -0.0078  0.2100 -1.3138
  777MOL0     C 7116  12.022   5.910   4.097 -0.2622  0.3622  0.2274
  777MOL0     C 7117  12.163   6.085   3.959  0.3173  1.1297  0.1390
  777MOL0     C 7118  12.289   6.005   3.942  1.1041  0.2917  0.4796
  777MOL0     O 7119  12.396   6.064   3.875  0.3553 -0.1062 -0.2181
  777MOL0     C 7120  12.520   5.999   3.875  0.2910 -0.0126  0.3762
  777MOL0     C 7121  12.596   5.987   3.989  0.0159 -0.7565 -0.2776
  777MOL0     C 7122  12.732   5.949   3.982  0.3038  0.2432  0.6015
  777MOL0     C 7123  12.795   5.928   3.857  0.1921 -0.8070  0.5719
  777MOL0     O 7124  12.926   5.898   3.849 -1.2765  0.1742 -0.3356
  777MOL0     C 7125  12.990   5.838   3.729  0.6027 -0.3251 -0.2122
  777MOL0     C 7126  13.107   5.754   3.773  0.6128  0.9388  0.1347
  777MOL0     C 7127  13.219   5.837   3.831 -0.1044  0.2592  0.4057
  777MOL0     C 7128  13.350   5.756   3.827 -0.6893 -0.7992 -0.0874
  777MOL0     C 7129  13.440   5.800   3.939  1.0463 -0.0037 -0.7999
  777MOL0     C 7130  13.573   5.722   3.914 -0.6279 -0.4669 -0.5474
  777MOL0     C 7131  13.674   5.737   4.035 -0.8501 -0.2586 -0.0745
  777MOL0     C 7132  13.637   5.673   4.164  0.4362  0.2049 -0.0034
  777MOL0    Cl 7133  13.576   5.506   4.138  0.5157 -0.1269  0.2302
  777MOL0     C 7134  12.716   5.939   3.741 -0.4386  0.3541  0.1412
  777MOL0     C 7135  12.576   5.965   3.751 -0.1414 -0.2814  0.4121
  777MOL0     O 7136  12.301   5.896   4.003 -0.2396  0.3114 -0.1646
  777MOL0     C 7137  12.165   6.214   3.908  0.2230  0.3376 -0.2581
  777MOL0     C 7138  12.060   6.297   3.917 -0.0200  0.5948 -0.3894
  777MOL0     N 7139  11.374   6.562   3.813 -0.4372  0.4978  0.4803
  777MOL0     N 7140  11.257   6.573   3.770  0.3061  0.6400  0.4831
  777MOL0     C 7141  10.168   6.761   4.198  0.6312  0.3001 -0.4846
  777MOL0     C 7142  10.029   6.740   4.209  0.0426  0.0865 -0.1934
  777MOL0     C 7143   9.596   6.671   4.116 -0.7639 -0.2954  0.1491
  777MOL0     C 7144   9.547   6.544   4.133  1.2237 -0.4307  0.9320
  777MOL0     C 7145   9.408   6.520   4.130  0.4308  0.4654  0.4644
  777MOL0     C 7146   9.309   6.615   4.115 -0.5133  0.0160 -0.7222
  777MOL0     O 7147   9.172   6.571   4.128 -0.1501  0.0749  0.9632
  777MOL0     C 7148   9.072   6.674   4.129 -0.3720  0.5802 -0.4736
  777MOL0     C 7149   9.029   6.725   3.988 -0.8351 -0.5433 -0.8565
  777MOL0     C 7150   8.992   6.616   3.883 -0.5027 -0.1421 -0.1078
  777MOL0     C 7151   8.887   6.523   3.932  0.2220  0.5548  0.4203
  777MOL0     C 7152   8.840   6.429   3.830  0.4272  0.7298 -1.2275
  777MOL0     C 7153   8.799   6.333   3.758  0.1036 -0.0115 -0.8405
  777MOL0     C 7154   9.354   6.746   4.101  0.5379 -0.4107 -0.1025
  777MOL0     C 7155   9.493   6.772   4.102 -0.0509 -0.6997 -0.0144
  777MOL0     C 7156   9.541   6.914   4.071  0.1133 -0.1863 -0.0527
  777MOL0     H 7157   9.933   7.038   4.071 -0.7317 -0.5016 -2.2685
  777MOL0     H 7158  10.185   7.066   4.083 -0.7959  1.8096  1.1392
  777MOL0     H 7159  10.418   6.705   4.152  0.5383 -1.1641  2.4230
  777MOL0     H 7160  10.464   6.820   4.292  2.3493  0.9986 -0.1887
  777MOL0     H 7161  10.595   6.949   4.180 -0.1953  0.3417  0.8405
  777MOL0     H 7162  10.655   6.773   4.165 -2.4167 -1.4206  1.4784
  777MOL0     H 7163  10.485   6.819   3.935  1.8744 -2.1637 -1.0273
  777MOL0     H 7164  10.571   6.971   3.949 -0.3117 -0.6325 -1.5758
  777MOL0     H 7165  10.675   6.838   3.795 -3.3056 -1.1487  0.0054
  777MOL0     H 7166  10.795   6.850   3.927 -1.4693  4.4472  0.2129
  777MOL0     H 7167  10.613   6.609   3.921 -0.7690 -0.0066  2.5640
  777MOL0     H 7168  10.757   6.669   4.024  0.9806  0.6409 -1.1794
  777MOL0     H 7169  10.766   6.493   3.795  0.4437 -1.3486  0.4541
  777MOL0     H 7170  10.798   6.641   3.723 -2.2342 -0.8213  0.1103
  777MOL0     H 7171  10.978   6.481   3.821 -1.5694  0.7720 -2.9207
  777MOL0     H 7172  10.967   6.564   3.972 -0.7349  2.4565  0.1127
  777MOL0     H 7173  11.035   6.700   3.710 -1.7099 -1.2880  0.8134
  777MOL0     H 7174  11.024   6.786   3.874  1.9853  1.1710  1.1536
  777MOL0     H 7175  11.243   6.781   4.027  0.0219 -0.8485  0.3698
  777MOL0     H 7176  11.433   6.532   4.088 -0.7746 -1.5971 -3.0774
  777MOL0     H 7177  11.517   6.699   4.076  0.5911  0.0101 -0.2488
  777MOL0     H 7178  11.592   6.420   3.979 -2.5002 -0.4648  1.8026
  777MOL0     H 7179  11.635   6.566   3.869 -1.3228  1.6150  0.9189
  777MOL0     H 7180  11.744   6.666   4.033 -1.5264  0.4307 -0.6698
  777MOL0     H 7181  11.708   6.536   4.151 -2.6467  0.3679 -1.2983
  777MOL0     H 7182  11.895   6.511   3.904  0.2287  2.5197 -0.4994
  777MOL0     H 7183  11.930   6.519   4.083 -3.8237  0.6202  3.7477
  777MOL0     H 7184  11.858   6.108   4.107 -0.0533  2.2736  0.7333
  777MOL0     H 7185  12.089   5.833   4.057 -2.0697  0.0399 -2.5162
  777MOL0     H 7186  11.915   5.886   4.087 -0.1079  0.0249 -0.7592
  777MOL0     H 7187  12.040   5.920   4.204 -0.9331  1.2372  0.2705
  777MOL0     H 7188  12.558   5.982   4.091  1.2371 -1.7921  0.1619
  777MOL0     H 7189  12.790   5.937   4.072  0.9903 -2.7973 -0.1590
  777MOL0     H 7190  12.922   5.780   3.665 -1.6748  1.6631  0.2561
  777MOL0     H 7191  13.018   5.925   3.670 -2.2999  0.1600 -1.0158
  777MOL0     H 7192  13.067   5.680   3.843 -0.7713  1.9161  0.4099
  777MOL0     H 7193  13.151   5.702   3.687 -0.0175 -1.6530  1.2917
  777MOL0     H 7194  13.197   5.872   3.932  1.6663 -0.3563  1.0480
  777MOL0     H 7195  13.244   5.919   3.763 -0.4072 -1.1991 -1.5652
  777MOL0     H 7196  13.395   5.782   3.731 -1.2964 -2.1580 -0.7703
  777MOL0     H 7197  13.332   5.648   3.826 -0.0417 -1.0162 -3.7027
  777MOL0     H 7198  13.446   5.910   3.937 -1.8063  0.2431 -0.1041
  777MOL0     H 7199  13.396   5.773   4.035  1.8372  3.2387  0.6319
  777MOL0     H 7200  13.623   5.767   3.827  3.1009 -4.5968 -0.9045
  777MOL0     H 7201  13.564   5.620   3.876  0.4106 -0.5277 -0.6470
  777MOL0     H 7202  13.683   5.844   4.056  0.6322  0.4160 -3.4642
  777MOL0     H 7203  13.772   5.700   4.005 -0.9621 -1.4815  1.0033
  777MOL0     H 7204  13.568   5.736   4.222  0.2605  0.7936 -0.8311
  777MOL0     H 7205  13.726   5.669   4.227  1.9907  0.3826 -2.1205
  777MOL0     H 7206  12.748   5.925   3.638 -0.2336  1.1069  0.0953
  777MOL0     H 7207  12.519   5.974   3.659 -1.1380 -1.6062  0.8652
  777MOL0     H 7208  12.259   6.252   3.869  1.6496 -2.0963  0.5252
  777MOL0     H 7209  12.071   6.397   3.877  1.6308  0.9607  0.8511
  777MOL0     H 7210  10.240   6.690   4.237  0.0628  0.0300  0.0931
  777MOL0     H 7211  10.001   6.646   4.255 -0.5186 -0.3303 -1.3653
  777MOL0     H 7212   9.619   6.463   4.137  2.8952  0.8416 -0.9645
  777MOL0     H 7213   9.363   6.422   4.125  2.7390 -0.6186 -1.0240
  777MOL0     H 7214   8.987   6.633   4.185 -0.9638 -0.2304 -1.9174
  777MOL0     H 7215   9.105   6.763   4.184 -0.9695  0.0200  0.8219
  777MOL0     H 7216   9.119   6.773   3.951  0.3126 -2.7798 -1.1748
  777MOL0     H 7217   8.947   6.794   4.008  1.5248  1.8784  1.1004
  777MOL0     H 7218   8.939   6.665   3.801  0.2197  2.4902  0.9198
  777MOL0     H 7219   9.074   6.552   3.850 -1.1091 -1.8611  1.5062
  777MOL0     H 7220   8.803   6.589   3.957  0.6179  0.9583  0.6933
  777MOL0     H 7221   8.926   6.462   4.015  1.8074  0.2704 -0.4865
  777MOL0     H 7222   8.757   6.260   3.693  0.7887  0.1303 -1.4491
  777MOL0     H 7223   9.282   6.828   4.100 -0.0470 -0.8296  2.5119
  777MOL0     H 7224   9.603   6.949   4.154  2.6672 -1.2237 -1.4148
  777MOL0     H 7225   9.609   6.905   3.987  0.5122 -3.1533  0.4744
  777MOL0     H 7226   9.457   6.979   4.047 -0.3890 -1.1332 -0.9539
  778MOL0     O 7227   1.515   7.937   9.195  0.3659 -0.4581 -0.0655
  778MOL0     C 7228   1.414   7.986   9.151  0.5832 -0.0178 -0.2831
  778MOL0     O 7229   1.361   7.934   9.041 -0.2226  0.3149  0.2623
  778MOL0     C 7230   1.327   7.807   9.014  0.0059  0.3572  0.2819
  778MOL0     C 7231   1.358   7.692   9.094  0.2556  0.1930 -0.2902
  778MOL0     C 7232   1.345   7.566   9.036  0.0060  0.3150 -0.2838
  778MOL0     C 7233   1.300   7.549   8.903  0.5537  0.0071 -0.4416
  778MOL0     O 7234   1.280   7.419   8.854 -0.0962 -0.8077 -0.8236
  778MOL0     C 7235   1.318   7.388   8.722  0.3613 -0.3833  0.0904
  778MOL0     C 7236   1.283   7.237   8.714  0.5945  0.3295 -0.0807
  778MOL0     C 7237   1.340   7.149   8.827  0.1139  0.2256  0.5830
  778MOL0     C 7238   1.477   7.097   8.785 -0.7492 -0.0480  0.2641
  778MOL0     C 7239   1.553   7.041   8.912 -0.6241 -0.3305  0.6571
  778MOL0     C 7240   1.708   7.014   8.900 -0.2425  0.3465 -0.0837
  778MOL0     C 7241   1.770   7.018   9.034  0.0130 -0.1868 -1.0001
  778MOL0     C 7242   1.918   7.006   9.034  0.6474 -0.3548  0.3967
  778MOL0     N 7243   1.972   6.972   9.164  0.5503  0.8508  0.7658
  778MOL0     C 7244   1.930   6.867   9.243  0.2128 -0.3367 -0.2808
  778MOL0     C 7245   2.012   6.874   9.349  1.1542  0.3911  0.2186
  778MOL0     C 7246   1.992   6.772   9.455  0.1854  0.1127 -0.4236
  778MOL0     C 7247   2.127   6.730   9.519  0.0620 -0.0437 -0.5804
  778MOL0     C 7248   2.226   6.651   9.422  0.6012  0.5689  0.0689
  778MOL0     C 7249   2.361   6.604   9.470 -0.2534  0.8814 -0.8945
  778MOL0     O 7250   2.410   6.528   9.359  0.0682  0.0999 -0.0441
  778MOL0     C 7251   2.540   6.480   9.372 -0.6808  0.0406 -0.4028
  778MOL0     C 7252   2.630   6.501   9.479  0.0613  0.2379 -0.3845
  778MOL0     C 7253   2.763   6.448   9.489  0.5191  0.5770  0.0050
  778MOL0     C 7254   2.852   6.487   9.603  0.0048 -0.8261  0.3357
  778MOL0     C 7255   2.814   6.390   9.366 -0.0093  0.9212  0.0177
  778MOL0     C 7256   2.955   6.333   9.346 -0.3442  0.1571 -0.2439
  778MOL0     O 7257   2.995   6.290   9.225 -0.0539  0.9744  0.1096
  778MOL0     C 7258   3.109   6.209   9.210  0.1332  0.8568 -1.4097
  778MOL0     C 7259   3.111   6.098   9.123 -0.1582  0.2913  0.6896
  778MOL0     C 7260   3.231   6.029   9.097 -0.3935  0.1347  0.1238
  778MOL0     C 7261   3.348   6.058   9.172  0.4885  0.6001 -0.0525
  778MOL0     O 7262   3.466   5.994   9.162  1.1061 -0.4408 -0.0417
  778MOL0     C 7263   3.465   5.861   9.112 -0.1500 -0.4636  0.4049
  778MOL0     C 7264   3.603   5.793   9.121  0.0934  0.8540  0.4689
  778MOL0     C 7265   3.592   5.647   9.071  0.2677  0.4169  0.0475
  778MOL0     C 7266   3.524   5.606   8.938  0.3669  0.1631 -1.1715
  778MOL0     C 7267   3.586   5.683   8.820  0.0624  0.3829  0.1736
  778MOL0     C 7268   3.739   5.681   8.814 -0.5499 -0.2961  0.4506
  778MOL0     C 7269   3.780   5.770   8.687  0.3035  0.1074 -0.3803
  778MOL0     C 7270   3.926   5.732   8.638 -0.5338 -0.4195  0.0360
  778MOL0    Cl 7271   3.935   5.556   8.593 -0.0423 -0.0609  0.0369
  778MOL0     C 7272   3.343   6.178   9.255  0.3634  0.3379  0.9124
  778MOL0     C 7273   3.229   6.248   9.269 -0.5688  0.0679  0.2472
  778MOL0     O 7274   3.024   6.322   9.450 -0.5686 -0.4067  0.3413
  778MOL0     C 7275   2.722   6.373   9.257  0.5382  0.4773  0.6646
  778MOL0     C 7276   2.586   6.413   9.263 -0.8052  0.0108 -0.4745
  778MOL0     N 7277   2.099   6.984   9.330  0.0755 -0.0575 -0.7597
  778MOL0     N 7278   2.079   7.032   9.217 -0.3150 -0.2529 -0.1526
  778MOL0     C 7279   1.274   7.662   8.828  0.4334  0.2876  0.4914
  778MOL0     C 7280   1.288   7.790   8.882 -0.3237 -0.6551 -0.5676
  778MOL0     C 7281   1.349   8.106   9.209  0.2146  0.6694  0.1155
  778MOL0     C 7282   1.215   8.093   9.228  0.6043  0.3801  0.0338
  778MOL0     C 7283   1.143   8.204   9.271  0.1489  0.3918 -0.1915
  778MOL0     C 7284   1.208   8.320   9.303  0.0784 -0.9817  0.7675
  778MOL0     O 7285   1.127   8.414   9.360 -0.4645 -0.2025  0.2753
  778MOL0     C 7286   1.180   8.546   9.378  1.1323 -0.1254 -0.1909
  778MOL0     C 7287   1.074   8.653   9.416 -0.5300 -0.6769  0.4052
  778MOL0     C 7288   0.983   8.617   9.529  0.7844  0.5349  0.3260
  778MOL0     C 7289   1.048   8.631   9.662 -0.6169 -0.5552 -0.6339
  778MOL0     C 7290   0.956   8.594   9.768  0.3075 -0.2125  0.1301
  778MOL0     C 7291   0.894   8.549   9.860 -0.5553 -0.2568  0.1019
  778MOL0     C 7292   1.348   8.326   9.298 -0.6288  0.3444  0.6576
  778MOL0     C 7293   1.428   8.217   9.249  0.1288 -0.1857 -0.2175
  778MOL0     C 7294   1.575   8.239   9.235  0.1809 -0.0061 -0.6727
  778MOL0     H 7295   1.386   7.705   9.198 -1.7860  0.7396  0.2233
  778MOL0     H 7296   1.382   7.472   9.077  2.9889  0.9568 -1.2338
  778MOL0     H 7297   1.423   7.402   8.694  0.6044 -2.0224  0.0700
  778MOL0     H 7298   1.260   7.442   8.646 -1.5075 -2.0944  0.2283
  778MOL0     H 7299   1.174   7.228   8.712  0.6061  0.1607  0.0765
  778MOL0     H 7300   1.312   7.207   8.613  0.8112  3.8783 -1.2176
  778MOL0     H 7301   1.346   7.215   8.914 -0.9855  1.2581 -0.0981
  778MOL0     H 7302   1.276   7.062   8.840  0.5644 -0.3506 -0.8632
  778MOL0     H 7303   1.459   7.018   8.711 -2.4101  0.6696 -0.1466
  778MOL0     H 7304   1.551   7.166   8.742  0.3681 -0.2834  1.7108
  778MOL0     H 7305   1.488   6.956   8.935  0.3208 -1.1083  0.4969
  778MOL0     H 7306   1.541   7.117   8.990  3.2280  1.6088 -0.4085
  778MOL0     H 7307   1.714   6.911   8.864 -3.1726  0.0957 -0.1595
  778MOL0     H 7308   1.756   7.087   8.835  0.8067  0.5660  0.9114
  778MOL0     H 7309   1.728   6.924   9.073 -1.1874  1.2531  1.4556
  778MOL0     H 7310   1.735   7.106   9.088 -1.3203  0.2827 -2.5501
  778MOL0     H 7311   1.939   6.924   8.965 -0.0990 -0.7694  0.6564
  778MOL0     H 7312   1.959   7.100   8.995  0.9948  0.2559  2.1384
  778MOL0     H 7313   1.867   6.785   9.208 -0.0789 -1.9956  3.5838
  778MOL0     H 7314   1.932   6.689   9.416 -1.6328  0.7105  0.9625
  778MOL0     H 7315   1.932   6.815   9.536 -0.4132 -2.2208  0.4469
  778MOL0     H 7316   2.172   6.823   9.555 -4.7518  1.9863  1.1011
  778MOL0     H 7317   2.100   6.669   9.606 -0.5474  0.4574 -0.4135
  778MOL0     H 7318   2.162   6.579   9.370 -1.8610  2.9207 -0.4221
  778MOL0     H 7319   2.249   6.719   9.340  1.7070  0.3506  0.1833
  778MOL0     H 7320   2.432   6.681   9.502  0.2611 -0.7981  2.5415
  778MOL0     H 7321   2.336   6.537   9.553 -3.7808 -0.3304 -2.7375
  778MOL0     H 7322   2.589   6.538   9.572  2.2783  3.6027 -0.5657
  778MOL0     H 7323   2.890   6.395   9.647 -0.2075 -0.7649  0.6496
  778MOL0     H 7324   2.807   6.543   9.685 -0.0613 -1.2450  0.5875
  778MOL0     H 7325   2.931   6.556   9.571 -3.3485  2.8359 -0.7938
  778MOL0     H 7326   3.015   6.076   9.076  0.1127 -1.7013  0.9531
  778MOL0     H 7327   3.241   5.943   9.031 -1.6962 -0.2972  0.4710
  778MOL0     H 7328   3.394   5.805   9.175 -0.7441  0.7850  0.8643
  778MOL0     H 7329   3.437   5.844   9.008 -0.6605 -0.4240  0.5297
  778MOL0     H 7330   3.669   5.857   9.061 -0.0085  0.7829  0.2817
  778MOL0     H 7331   3.647   5.787   9.221  1.6162 -2.6797 -0.2345
  778MOL0     H 7332   3.546   5.589   9.152  0.8075  1.6935  1.2987
  778MOL0     H 7333   3.694   5.608   9.075 -0.2791 -0.9513  1.4851
  778MOL0     H 7334   3.417   5.626   8.951  0.5315 -0.7790  3.3575
  778MOL0     H 7335   3.547   5.503   8.911  0.2982  0.4442 -2.3601
  778MOL0     H 7336   3.549   5.638   8.728  0.3337 -0.7647  0.6115
  778MOL0     H 7337   3.565   5.791   8.813 -2.9675 -0.1304 -0.0373
  778MOL0     H 7338   3.784   5.582   8.809  3.6819  1.1839  3.1861
  778MOL0     H 7339   3.793   5.713   8.904 -1.7367 -2.5333  2.0384
  778MOL0     H 7340   3.765   5.876   8.713 -0.6257 -0.2842  0.7583
  778MOL0     H 7341   3.707   5.747   8.609 -1.6787  3.7047  0.1669
  778MOL0     H 7342   3.998   5.751   8.718  0.1850 -2.3627 -0.0915
  778MOL0     H 7343   3.960   5.798   8.558 -0.3789  0.5119  0.8440
  778MOL0     H 7344   3.430   6.190   9.319 -2.0797 -0.0507  4.6194
  778MOL0     H 7345   3.230   6.336   9.332  0.4908  0.7267 -0.6657
  778MOL0     H 7346   2.739   6.307   9.172 -0.1659  0.7202  0.3243
  778MOL0     H 7347   2.512   6.409   9.184 -0.2436 -1.2088 -0.9661
  778MOL0     H 7348   1.233   7.633   8.731  0.4095 -0.0603  0.6039
  778MOL0     H 7349   1.288   7.881   8.823  2.0350 -0.1453  0.0871
  778MOL0     H 7350   1.159   8.008   9.191 -0.3097  1.1055 -0.2776
  778MOL0     H 7351   1.035   8.199   9.281  0.2323 -1.1597  0.2647
  778MOL0     H 7352   1.256   8.547   9.457  3.1893 -2.0950 -1.9736
  778MOL0     H 7353   1.228   8.574   9.284  0.6781 -0.4488 -0.5175
  778MOL0     H 7354   1.013   8.684   9.331 -1.2440 -1.0585  0.7612
  778MOL0     H 7355   1.138   8.738   9.442  0.2416 -1.1179 -0.0167
  778MOL0     H 7356   0.884   8.665   9.529 -1.4910 -3.6240  1.7955
  778MOL0     H 7357   0.958   8.510   9.521  2.7449  0.0796 -0.2135
  778MOL0     H 7358   1.079   8.736   9.670  1.4470 -1.0746 -1.1433
  778MOL0     H 7359   1.140   8.572   9.671  1.9787  3.3732  1.3306
  778MOL0     H 7360   0.831   8.519   9.941 -0.1397  0.8282  0.8565
  778MOL0     H 7361   1.389   8.422   9.329 -1.3453  0.2565  1.9201
  778MOL0     H 7362   1.628   8.166   9.297  1.0049  1.1399  0.0131
  778MOL0     H 7363   1.608   8.225   9.132  0.6626 -2.2027 -0.2793
  778MOL0     H 7364   1.616   8.333   9.275  0.8563  0.2309 -1.8618
  779MOL0     O 7365   0.177   1.099   2.330  0.6541 -0.3036 -0.2533
  779MOL0     C 7366   0.268   1.144   2.393 -0.6747 -1.1257 -0.1454
  779MOL0     O 7367   0.368   1.223   2.338 -0.1323 -0.0602 -0.5693
  779MOL0     C 7368   0.406   1.251   2.207  0.9518  0.2575 -0.1092
  779MOL0     C 7369   0.368   1.159   2.106  0.2995  0.2383 -0.1324
  779MOL0     C 7370   0.445   1.167   1.991 -0.2616 -0.4332 -0.5538
  779MOL0     C 7371   0.539   1.274   1.970 -0.2907  0.4442  0.0459
  779MOL0     O 7372   0.631   1.272   1.869 -0.5444  0.2102 -0.4112
  779MOL0     C 7373   0.608   1.193   1.756 -0.1766 -0.3757 -0.0827
  779MOL0     C 7374   0.736   1.209   1.665  0.2024  0.0279 -0.1827
  779MOL0     C 7375   0.863   1.150   1.737 -1.1909  0.8691  0.3466
  779MOL0     C 7376   0.859   0.994   1.719  0.5047 -0.3038 -0.2749
  779MOL0     C 7377   0.892   0.920   1.845 -0.1528 -0.2893 -0.0237
  779MOL0     C 7378   0.876   0.774   1.837  0.2093  0.0980  0.3185
  779MOL0     C 7379   0.734   0.717   1.873  0.0461 -0.2110 -0.1985
  779MOL0     C 7380   0.706   0.698   2.022 -0.2943 -0.7202  0.5652
  779MOL0     N 7381   0.558   0.708   2.045 -0.1612 -0.5167 -0.7837
  779MOL0     C 7382   0.472   0.618   2.106  0.7094 -0.0800  1.2039
  779MOL0     C 7383   0.356   0.689   2.100 -0.4202  0.0513  0.1557
  779MOL0     C 7384   0.226   0.654   2.155 -0.7246 -0.8791  0.5727
  779MOL0     C 7385   0.141   0.775   2.191  0.0710 -0.2553  0.7598
  779MOL0     C 7386   0.040   0.734   2.296  0.3108  0.1506  0.2181
  779MOL0     C 7387  -0.073   0.641   2.233 -0.0672 -0.4770 -0.2332
  779MOL0     O 7388  -0.169   0.612   2.343  0.0160 -0.0501 -0.1867
  779MOL0     C 7389  -0.297   0.643   2.318  0.3557  0.0238 -0.0538
  779MOL0     C 7390  -0.373   0.562   2.237  0.3809  0.3265 -0.4063
  779MOL0     C 7391  -0.510   0.572   2.217  0.5224 -0.0457  0.0778
  779MOL0     C 7392  -0.580   0.497   2.113 -0.0339 -0.2707  0.6675
  779MOL0     C 7393  -0.576   0.686   2.284 -0.7306  0.4828 -0.5353
  779MOL0     C 7394  -0.724   0.720   2.280  0.0528 -0.7260 -0.1844
  779MOL0     O 7395  -0.770   0.776   2.393 -0.4476 -0.9016  0.1284
  779MOL0     C 7396  -0.892   0.839   2.415 -0.4067  0.8514  0.1962
  779MOL0     C 7397  -0.914   0.964   2.361 -0.6807 -0.2212  0.1372
  779MOL0     C 7398  -1.025   1.033   2.387 -0.1784 -0.7543 -0.2549
  779MOL0     C 7399  -1.128   0.980   2.465 -0.5720  0.1281 -0.6023
  779MOL0     O 7400  -1.250   1.036   2.490 -0.8059  0.6494 -0.3038
  779MOL0     C 7401  -1.296   1.136   2.403  0.0477 -0.1205  0.2214
  779MOL0     C 7402  -1.429   1.177   2.470  0.3408  0.2138  0.2221
  779MOL0     C 7403  -1.509   1.292   2.393 -1.3460  0.3065  0.1679
  779MOL0     C 7404  -1.645   1.300   2.458 -0.3908  0.1676  0.8809
  779MOL0     C 7405  -1.730   1.407   2.382  0.0107  1.2173  0.3745
  779MOL0     C 7406  -1.852   1.451   2.467 -0.5422 -0.0552  0.0819
  779MOL0     C 7407  -1.814   1.546   2.584 -0.0817 -0.2008 -0.6639
  779MOL0     C 7408  -1.927   1.621   2.655  0.0945  0.2757  0.3328
  779MOL0    Cl 7409  -2.067   1.513   2.680  0.1153 -0.0501  0.3146
  779MOL0     C 7410  -1.087   0.869   2.538  0.3142 -0.6077  0.6162
  779MOL0     C 7411  -0.977   0.788   2.510 -0.5734  0.3083 -0.0630
  779MOL0     O 7412  -0.791   0.700   2.176  0.8671 -0.0653 -0.5651
  779MOL0     C 7413  -0.491   0.769   2.364 -0.4097 -0.6788  0.1581
  779MOL0     C 7414  -0.354   0.752   2.378 -0.1221 -0.4490  0.1293
  779MOL0     N 7415   0.375   0.809   2.041 -0.9611 -1.0245  0.0509
  779MOL0     N 7416   0.497   0.820   2.006 -0.1301 -0.7417  0.0638
  779MOL0     C 7417   0.565   1.361   2.067  1.1262 -0.3419 -1.7823
  779MOL0     C 7418   0.499   1.349   2.185  0.4168 -0.3972 -0.4983
  779MOL0     C 7419   0.275   1.129   2.541 -0.4962  0.4428 -0.1287
  779MOL0     C 7420   0.404   1.098   2.588 -0.4911  0.0677 -0.5274
  779MOL0     C 7421   0.428   1.086   2.724  0.1098 -0.4366  0.7411
  779MOL0     C 7422   0.325   1.094   2.814  0.0922 -0.4976 -0.5459
  779MOL0     O 7423   0.369   1.070   2.942  0.4006  0.3108 -0.0711
  779MOL0     C 7424   0.273   1.048   3.049 -0.0160 -0.0084 -0.4578
  779MOL0     C 7425   0.331   0.990   3.178  0.4208  0.2188  0.0552
  779MOL0     C 7426   0.432   1.089   3.236 -0.8919  0.3804 -0.6474
  779MOL0     C 7427   0.469   1.036   3.379  0.6087 -0.4608 -0.0174
  779MOL0     C 7428   0.361   1.068   3.474  0.0800  0.2707 -0.5143
  779MOL0     C 7429   0.271   1.094   3.559  0.5855 -0.4714  0.2480
  779MOL0     C 7430   0.190   1.120   2.780 -0.2639 -1.4197  0.0051
  779MOL0     C 7431   0.170   1.143   2.638  0.8997 -0.4183  0.4568
  779MOL0     C 7432   0.022   1.164   2.597 -0.2063  0.0430  0.2656
  779MOL0     H 7433   0.302   1.073   2.110  1.4099 -0.6825 -1.0880
  779MOL0     H 7434   0.437   1.092   1.914  2.8553 -1.0119 -0.4121
  779MOL0     H 7435   0.522   1.227   1.698 -0.9054 -2.1808 -0.1279
  779MOL0     H 7436   0.585   1.087   1.775 -3.3291 -0.7440 -4.3542
  779MOL0     H 7437   0.716   1.159   1.570  1.9155  1.4838 -1.3807
  779MOL0     H 7438   0.753   1.317   1.652 -0.1348  0.1484  0.3444
  779MOL0     H 7439   0.954   1.190   1.691 -0.7798 -0.9662 -0.5298
  779MOL0     H 7440   0.864   1.174   1.844 -1.6006 -1.7343  1.0042
  779MOL0     H 7441   0.756   0.961   1.704  0.5492 -0.6610  0.1678
  779MOL0     H 7442   0.935   0.967   1.645  1.5741 -2.9203  1.5884
  779MOL0     H 7443   0.831   0.963   1.924  0.2354 -1.0519  0.6985
  779MOL0     H 7444   0.991   0.948   1.881 -0.2428  3.1950 -1.9635
  779MOL0     H 7445   0.902   0.742   1.736  0.8153 -0.1453  0.5509
  779MOL0     H 7446   0.951   0.726   1.900  3.1670 -0.5928 -3.3866
  779MOL0     H 7447   0.709   0.620   1.829 -1.7123  0.2297 -0.2319
  779MOL0     H 7448   0.653   0.774   1.826 -0.4919 -2.0359 -1.6180
  779MOL0     H 7449   0.754   0.605   2.054  3.7617  1.1524  0.5588
  779MOL0     H 7450   0.756   0.781   2.072  3.9732 -1.7284 -1.4980
  779MOL0     H 7451   0.490   0.513   2.129 -0.4516  0.0396  2.8377
  779MOL0     H 7452   0.250   0.602   2.248 -1.3966 -2.3829 -0.0633
  779MOL0     H 7453   0.168   0.582   2.096  2.2985 -3.4089  0.4778
  779MOL0     H 7454   0.215   0.842   2.236  2.9671 -0.7596 -2.7939
  779MOL0     H 7455   0.090   0.816   2.104  2.3845  2.9423  0.7452
  779MOL0     H 7456   0.090   0.690   2.383 -3.3326 -2.5723  1.1772
  779MOL0     H 7457   0.002   0.828   2.337  1.5320  1.0988 -0.7511
  779MOL0     H 7458  -0.119   0.689   2.146 -1.4198 -0.1816  0.6098
  779MOL0     H 7459  -0.030   0.549   2.193 -3.0119 -2.3417  0.5096
  779MOL0     H 7460  -0.312   0.490   2.183 -0.1860 -1.0395  0.7335
  779MOL0     H 7461  -0.678   0.459   2.143 -1.0099  1.5868 -0.0309
  779MOL0     H 7462  -0.517   0.411   2.088 -0.5981 -0.5690  0.2695
  779MOL0     H 7463  -0.590   0.553   2.020 -0.0657  1.9830  1.9466
  779MOL0     H 7464  -0.837   1.014   2.303 -0.2047 -1.1727 -0.0613
  779MOL0     H 7465  -1.044   1.135   2.354 -2.4215 -1.3515 -0.9656
  779MOL0     H 7466  -1.229   1.222   2.403 -1.9146  1.5134 -0.6295
  779MOL0     H 7467  -1.298   1.102   2.299  0.6862 -0.4788  0.3216
  779MOL0     H 7468  -1.495   1.096   2.500 -1.3598  1.6706  0.6070
  779MOL0     H 7469  -1.410   1.221   2.569 -0.4678  0.9850  0.0488
  779MOL0     H 7470  -1.526   1.271   2.287 -0.1481 -3.0560  0.5188
  779MOL0     H 7471  -1.450   1.383   2.403 -1.4587  0.3717  0.2536
  779MOL0     H 7472  -1.648   1.320   2.565 -0.4870  2.2041  0.5264
  779MOL0     H 7473  -1.691   1.201   2.447 -1.9517  0.9955 -0.5860
  779MOL0     H 7474  -1.673   1.499   2.367  0.5659  0.7287 -0.6598
  779MOL0     H 7475  -1.765   1.368   2.286  2.0304 -0.5232  0.2730
  779MOL0     H 7476  -1.902   1.363   2.509 -1.0240  0.6031  0.9153
  779MOL0     H 7477  -1.934   1.496   2.411 -0.2970  1.3073  0.7770
  779MOL0     H 7478  -1.750   1.629   2.550  0.8117 -0.4661  0.3261
  779MOL0     H 7479  -1.746   1.491   2.650  0.2976 -0.8733 -1.5966
  779MOL0     H 7480  -1.947   1.701   2.584  2.8978 -0.7970 -1.8548
  779MOL0     H 7481  -1.878   1.660   2.745  2.8393  1.2410 -1.4422
  779MOL0     H 7482  -1.157   0.832   2.613 -1.0250 -1.6280 -1.0645
  779MOL0     H 7483  -0.948   0.698   2.563 -1.7397 -1.0820 -1.6749
  779MOL0     H 7484  -0.541   0.848   2.421  0.3942 -0.2879  0.3290
  779MOL0     H 7485  -0.283   0.812   2.434  2.7901 -2.9402 -0.5733
  779MOL0     H 7486   0.640   1.439   2.060 -0.4575  1.9407  2.9239
  779MOL0     H 7487   0.515   1.419   2.266  2.1105  0.5581 -1.5804
  779MOL0     H 7488   0.485   1.099   2.516  0.1563  0.4953  0.1985
  779MOL0     H 7489   0.532   1.076   2.753  0.8427 -0.1572 -1.5417
  779MOL0     H 7490   0.203   1.129   3.073  1.6123  1.5858 -0.8651
  779MOL0     H 7491   0.202   0.976   3.006 -0.5350  0.1182  0.1641
  779MOL0     H 7492   0.388   0.902   3.147  0.5557 -0.0810  1.1402
  779MOL0     H 7493   0.260   0.962   3.256 -0.3239 -1.7358 -1.2624
  779MOL0     H 7494   0.511   1.074   3.162 -0.6194 -0.8706 -0.1420
  779MOL0     H 7495   0.398   1.192   3.237 -2.9159 -0.2210 -1.9836
  779MOL0     H 7496   0.564   1.073   3.418 -1.7715  3.8401  2.4609
  779MOL0     H 7497   0.481   0.929   3.360 -0.7637 -0.0350 -4.4832
  779MOL0     H 7498   0.191   1.115   3.627 -1.0476  1.1065 -1.9855
  779MOL0     H 7499   0.108   1.124   2.851 -0.2163  1.4957  0.0066
  779MOL0     H 7500  -0.027   1.220   2.678 -2.2131  1.6598 -1.9251
  779MOL0     H 7501   0.023   1.222   2.504  1.8042 -2.2574 -1.2800
  779MOL0     H 7502  -0.035   1.074   2.572 -0.9937  0.8125 -0.8092
  780MOL0     O 7503   3.131   3.531   6.130 -0.3695  0.1431 -0.5999
  780MOL0     C 7504   3.203   3.609   6.072  0.5578 -0.6499  0.1346
  780MOL0     O 7505   3.170   3.738   6.054  0.4085  0.3785  0.4726
  780MOL0     C 7506   3.055   3.790   6.116  1.4573 -0.0447  0.3462
  780MOL0     C 7507   2.934   3.808   6.042  0.1827  0.5912  0.7257
  780MOL0     C 7508   2.824   3.853   6.102  0.3303 -0.1952 -0.1747
  780MOL0     C 7509   2.816   3.898   6.230 -0.2672 -0.9952 -0.2807
  780MOL0     O 7510   2.699   3.945   6.285 -0.7071  0.4192 -0.5955
  780MOL0     C 7511   2.569   3.927   6.226 -1.0261 -0.1189 -0.5300
  780MOL0     C 7512   2.465   3.989   6.320  0.3325  0.7891  0.1356
  780MOL0     C 7513   2.468   3.922   6.454 -0.2077  1.6794  0.7809
  780MOL0     C 7514   2.373   3.986   6.556  0.3216 -0.2413 -0.0119
  780MOL0     C 7515   2.387   3.913   6.683  0.2136 -0.0083 -0.6536
  780MOL0     C 7516   2.287   3.960   6.793  0.3915 -0.7514 -0.4914
  780MOL0     C 7517   2.300   3.889   6.925  0.2812 -0.5002  0.0143
  780MOL0     C 7518   2.162   3.887   7.004 -0.6843  0.3374 -0.7415
  780MOL0     N 7519   2.062   3.994   6.984 -0.6468  0.3248 -0.2171
  780MOL0     C 7520   2.079   4.124   7.036 -0.1027  0.8639 -0.0407
  780MOL0     C 7521   1.976   4.185   6.983 -0.0929  0.0836  0.8672
  780MOL0     C 7522   1.957   4.331   7.014  0.6604 -0.0265 -0.4478
  780MOL0     C 7523   1.830   4.357   7.111  0.0766  0.0384 -0.5481
  780MOL0     C 7524   1.799   4.492   7.155  0.3977  0.2497  0.2376
  780MOL0     C 7525   1.890   4.547   7.266 -0.4770  0.6295 -0.4819
  780MOL0     O 7526   1.888   4.452   7.374 -0.1052  0.1555 -0.2860
  780MOL0     C 7527   1.984   4.475   7.473 -0.0860  0.6336 -0.6299
  780MOL0     C 7528   2.013   4.379   7.568 -0.4125 -0.5557 -0.6697
  780MOL0     C 7529   2.117   4.405   7.668  0.4884 -0.2849 -0.3854
  780MOL0     C 7530   2.121   4.313   7.797 -0.6357  0.7069  0.5339
  780MOL0     C 7531   2.195   4.521   7.659  0.3784 -0.6840  0.4594
  780MOL0     C 7532   2.329   4.533   7.737 -0.3003  0.5944  0.8812
  780MOL0     O 7533   2.357   4.474   7.855  0.0370 -0.1714 -0.1430
  780MOL0     C 7534   2.484   4.466   7.899  0.6488 -0.1080  0.2274
  780MOL0     C 7535   2.563   4.353   7.872  0.9416  0.6440 -0.4263
  780MOL0     C 7536   2.688   4.342   7.926 -0.1449 -0.0067  1.5600
  780MOL0     C 7537   2.730   4.429   8.018 -0.4332 -0.0944  0.4090
  780MOL0     O 7538   2.860   4.409   8.066 -0.1389 -0.0644  1.0300
  780MOL0     C 7539   2.919   4.515   8.146 -0.2391  0.6623 -0.3396
  780MOL0     C 7540   3.065   4.482   8.189 -0.5943  0.1651 -0.1365
  780MOL0     C 7541   3.116   4.592   8.276  0.5739  0.4067  0.5495
  780MOL0     C 7542   3.169   4.713   8.189 -0.4136 -0.3531  0.1748
  780MOL0     C 7543   3.270   4.799   8.267  0.5880 -0.3227  1.2007
  780MOL0     C 7544   3.202   4.867   8.386 -0.6837 -0.4054 -0.1370
  780MOL0     C 7545   3.297   4.921   8.501  0.2429 -0.6224 -0.1158
  780MOL0     C 7546   3.219   5.012   8.600 -0.2074 -0.1435 -0.7961
  780MOL0    Cl 7547   3.093   4.925   8.694 -0.2207  0.3446 -0.7457
  780MOL0     C 7548   2.648   4.543   8.048 -0.0007 -0.2203  0.1903
  780MOL0     C 7549   2.529   4.565   7.986  0.7642 -0.0332  0.1865
  780MOL0     O 7550   2.406   4.612   7.683  0.1953 -1.0115 -0.0591
  780MOL0     C 7551   2.149   4.625   7.570  0.5890 -0.9959 -0.0277
  780MOL0     C 7552   2.039   4.603   7.491  0.7581 -0.5092  0.1848
  780MOL0     N 7553   1.901   4.105   6.899  0.2324 -0.0818  0.1658
  780MOL0     N 7554   1.958   3.988   6.902  0.3634  0.1470  0.1184
  780MOL0     C 7555   2.934   3.891   6.307  0.0634 -0.7876 -0.4195
  780MOL0     C 7556   3.050   3.841   6.251 -0.3444  0.1481  0.5990
  780MOL0     C 7557   3.340   3.557   6.028 -0.2071  0.7444 -0.3105
  780MOL0     C 7558   3.349   3.421   6.007  0.4051  0.3077 -0.2756
  780MOL0     C 7559   3.466   3.355   5.981 -0.6150 -0.0353 -1.1226
  780MOL0     C 7560   3.581   3.436   5.967 -0.8933 -0.2780  0.2756
  780MOL0     O 7561   3.708   3.384   5.949  0.4177  0.7501 -0.4204
  780MOL0     C 7562   3.723   3.316   5.816  0.0390  0.2611  0.1814
  780MOL0     C 7563   3.729   3.164   5.814 -0.2847  0.1276  0.3207
  780MOL0     C 7564   3.771   3.084   5.937  0.6324  0.6467 -0.1700
  780MOL0     C 7565   3.901   3.134   6.001 -0.4614  0.1274 -0.2522
  780MOL0     C 7566   3.957   3.038   6.096  0.3916  0.2148 -0.6485
  780MOL0     C 7567   4.011   2.956   6.169 -0.0507 -0.1785  0.0580
  780MOL0     C 7568   3.569   3.571   5.992  0.5657 -0.7582  0.5656
  780MOL0     C 7569   3.454   3.633   6.025 -0.1475  0.1349 -0.0330
  780MOL0     C 7570   3.463   3.788   6.049 -0.1775  0.0183 -0.8591
  780MOL0     H 7571   2.913   3.786   5.938 -5.2181 -1.3297  1.9153
  780MOL0     H 7572   2.743   3.853   6.031  0.2309  0.7168 -0.0708
  780MOL0     H 7573   2.543   3.825   6.196 -2.9469  0.3643 -0.6939
  780MOL0     H 7574   2.564   3.975   6.128 -1.0446  0.1191 -0.4123
  780MOL0     H 7575   2.492   4.092   6.342 -1.3532  0.9486  1.6722
  780MOL0     H 7576   2.364   3.996   6.279 -0.7569 -0.0089  2.5232
  780MOL0     H 7577   2.446   3.818   6.428 -1.7356  2.2405 -0.2669
  780MOL0     H 7578   2.569   3.930   6.495  0.0309  1.0235  0.3481
  780MOL0     H 7579   2.392   4.094   6.563  1.8853 -0.3098 -2.3125
  780MOL0     H 7580   2.268   3.971   6.530 -0.3392 -1.8142  3.0750
  780MOL0     H 7581   2.490   3.902   6.718 -0.1428  1.4029  0.9698
  780MOL0     H 7582   2.366   3.806   6.669  0.1983  0.2468 -2.9568
  780MOL0     H 7583   2.302   4.065   6.817 -0.6987  0.0514 -3.0567
  780MOL0     H 7584   2.190   3.937   6.747  0.7839 -2.2842 -0.6132
  780MOL0     H 7585   2.368   3.947   6.989  3.9301 -4.2887  0.0241
  780MOL0     H 7586   2.350   3.793   6.907 -1.8350 -1.4878 -0.9104
  780MOL0     H 7587   2.116   3.792   6.977  2.6270 -2.2851  1.8202
  780MOL0     H 7588   2.194   3.873   7.108 -0.8476  1.5423 -0.5107
  780MOL0     H 7589   2.153   4.158   7.108 -1.1676  1.4863  0.7862
  780MOL0     H 7590   1.938   4.394   6.927 -1.4862  0.0443  0.0215
  780MOL0     H 7591   2.045   4.377   7.061 -0.6116  1.0199  0.9753
  780MOL0     H 7592   1.730   4.335   7.073 -1.2990 -1.5742  3.4177
  780MOL0     H 7593   1.843   4.293   7.200  0.1350  0.0307 -0.5625
  780MOL0     H 7594   1.801   4.562   7.071 -0.8236  0.7820  0.6255
  780MOL0     H 7595   1.696   4.492   7.191  1.0694 -0.7566  2.2951
  780MOL0     H 7596   1.985   4.569   7.215 -2.0833  0.7934 -3.6277
  780MOL0     H 7597   1.848   4.642   7.302  0.1337 -0.2779  2.9390
  780MOL0     H 7598   1.966   4.281   7.567  1.3076 -1.4175 -1.8590
  780MOL0     H 7599   2.020   4.275   7.814 -0.5010 -0.0334 -0.2663
  780MOL0     H 7600   2.147   4.368   7.888  2.0455  0.6215 -0.1004
  780MOL0     H 7601   2.186   4.227   7.779  2.0852  2.7145  0.2449
  780MOL0     H 7602   2.528   4.268   7.816  0.8692  1.6030 -1.8773
  780MOL0     H 7603   2.760   4.263   7.908 -0.1941 -0.3531  2.7849
  780MOL0     H 7604   2.908   4.611   8.095  2.0678  0.5606 -1.1586
  780MOL0     H 7605   2.858   4.519   8.236  0.0767  2.0363 -0.1699
  780MOL0     H 7606   3.074   4.390   8.247 -1.3765  0.7102  0.8699
  780MOL0     H 7607   3.132   4.465   8.104 -0.6531  0.9598 -0.3543
  780MOL0     H 7608   3.195   4.559   8.344  0.7441 -2.5088 -0.9334
  780MOL0     H 7609   3.036   4.631   8.341  0.3377 -0.3903  0.7535
  780MOL0     H 7610   3.089   4.783   8.161  1.2104  1.2594 -0.6526
  780MOL0     H 7611   3.215   4.670   8.099 -1.4912 -1.0048 -0.0921
  780MOL0     H 7612   3.352   4.735   8.301  1.3080  1.0938  2.2145
  780MOL0     H 7613   3.312   4.877   8.202 -2.0210 -1.7049 -2.4711
  780MOL0     H 7614   3.134   4.801   8.442  3.7542 -2.1203  4.0420
  780MOL0     H 7615   3.140   4.948   8.347 -0.0205  0.5987  0.8170
  780MOL0     H 7616   3.378   4.985   8.464 -0.7902  3.3823  3.6728
  780MOL0     H 7617   3.330   4.835   8.560  0.0063  0.1226  1.1407
  780MOL0     H 7618   3.171   5.096   8.549 -0.6727 -0.6671 -1.2387
  780MOL0     H 7619   3.291   5.048   8.674  0.2529 -2.0185 -0.2703
  780MOL0     H 7620   2.681   4.623   8.114 -0.6887  0.4855 -0.2919
  780MOL0     H 7621   2.461   4.645   8.013  1.4798  0.6081  0.1289
  780MOL0     H 7622   2.195   4.724   7.571 -1.3279 -0.0447  0.2853
  780MOL0     H 7623   2.006   4.690   7.435 -0.7875 -2.0282 -1.4001
  780MOL0     H 7624   2.939   3.909   6.414 -2.9686 -1.5788 -0.0339
  780MOL0     H 7625   3.140   3.835   6.311  1.4996 -2.5866 -2.1281
  780MOL0     H 7626   3.262   3.356   6.000  1.7010 -1.3338 -2.8650
  780MOL0     H 7627   3.474   3.248   5.962 -0.1031 -0.5359  1.5519
  780MOL0     H 7628   3.646   3.349   5.746  1.8030  1.9807 -1.0559
  780MOL0     H 7629   3.812   3.355   5.765  1.2463 -2.3737  0.1120
  780MOL0     H 7630   3.796   3.118   5.740 -1.3680 -1.2961  0.1885
  780MOL0     H 7631   3.626   3.129   5.803 -0.2932  0.0317  0.6811
  780MOL0     H 7632   3.694   3.089   6.015 -3.0391  0.5174 -3.4695
  780MOL0     H 7633   3.790   2.982   5.902 -0.1137  0.3794  0.1900
  780MOL0     H 7634   3.880   3.227   6.054  0.7251  0.2923 -0.0502
  780MOL0     H 7635   3.958   3.168   5.915 -0.5962  1.5843  0.2119
  780MOL0     H 7636   4.057   2.885   6.234 -0.5711 -0.2414  0.3620
  780MOL0     H 7637   3.652   3.642   5.990 -0.6697  0.8393  2.2183
  780MOL0     H 7638   3.430   3.827   5.952 -2.6510 -1.9404 -0.9140
  780MOL0     H 7639   3.389   3.825   6.120  1.0400  4.0127 -1.4123
  780MOL0     H 7640   3.559   3.834   6.073 -0.1627 -0.3964 -0.0993
  781MOL0     O 7641   3.227   1.025  11.246  0.1788  0.5961  0.4875
  781MOL0     C 7642   3.195   0.996  11.134  0.3413 -0.6834  0.2886
  781MOL0     O 7643   3.272   1.020  11.030  0.2784  0.3630  0.1765
  781MOL0     C 7644   3.407   1.043  11.061  0.4199 -0.0141  0.9882
  781MOL0     C 7645   3.499   0.942  11.027 -0.1229 -0.6775 -0.4239
  781MOL0     C 7646   3.640   0.975  11.034 -0.9489  0.6008  1.2442
  781MOL0     C 7647   3.693   1.085  11.105 -0.2559 -0.2240 -0.4774
  781MOL0     O 7648   3.823   1.084  11.144  0.9096 -0.2950 -0.1383
  781MOL0     C 7649   3.892   1.206  11.174  0.1067  0.4427  0.2486
  781MOL0     C 7650   4.032   1.160  11.220 -0.0516 -0.4345  0.5497
  781MOL0     C 7651   4.123   1.174  11.105  0.2765  1.7345  0.1960
  781MOL0     C 7652   4.157   1.314  11.060  0.0368 -0.2016  0.7111
  781MOL0     C 7653   4.301   1.338  11.046  0.8187  0.0227  0.7365
  781MOL0     C 7654   4.346   1.268  10.921  0.3464  0.1448 -0.0101
  781MOL0     C 7655   4.498   1.269  10.915  0.8576  1.2294 -0.1987
  781MOL0     C 7656   4.543   1.203  10.789  0.4123  0.3550 -0.2923
  781MOL0     N 7657   4.687   1.217  10.753 -0.9344  0.4187  0.1082
  781MOL0     C 7658   4.785   1.259  10.838 -0.5710  0.5167 -0.7021
  781MOL0     C 7659   4.898   1.284  10.761 -0.7462  0.2457 -0.1450
  781MOL0     C 7660   5.029   1.330  10.805 -0.0580 -0.6606 -0.1871
  781MOL0     C 7661   5.147   1.304  10.702  0.6926 -0.1595  0.1765
  781MOL0     C 7662   5.189   1.158  10.712  0.2655  0.9687 -0.4948
  781MOL0     C 7663   5.321   1.143  10.794  0.6425 -0.0385 -0.2401
  781MOL0     O 7664   5.298   1.105  10.929 -0.2193 -0.5087  0.1320
  781MOL0     C 7665   5.407   1.095  11.011  0.1681 -0.3998  0.0843
  781MOL0     C 7666   5.540   1.071  10.965  0.3292 -0.8311  0.3144
  781MOL0     C 7667   5.653   1.073  11.055 -0.2603  0.2705 -0.6889
  781MOL0     C 7668   5.791   1.093  10.989 -0.2494 -0.3564 -0.4449
  781MOL0     C 7669   5.623   1.074  11.194 -0.0604 -0.2880  0.7967
  781MOL0     C 7670   5.728   1.070  11.300 -0.1232  0.9125 -0.4175
  781MOL0     O 7671   5.846   1.011  11.265  0.3689  0.7124  0.3077
  781MOL0     C 7672   5.969   1.051  11.315 -0.3075  0.0756  0.9244
  781MOL0     C 7673   5.991   1.141  11.415  0.0876 -0.3866 -0.6288
  781MOL0     C 7674   6.113   1.183  11.450 -0.2881  0.1081 -0.8168
  781MOL0     C 7675   6.225   1.129  11.384  0.2218 -0.8079 -0.1345
  781MOL0     O 7676   6.341   1.180  11.435 -0.3819 -0.2020 -1.3430
  781MOL0     C 7677   6.471   1.137  11.380  0.2014 -1.0340  0.2602
  781MOL0     C 7678   6.572   1.178  11.475  0.1248 -0.1335  0.5124
  781MOL0     C 7679   6.717   1.145  11.422 -0.0380  0.1777  0.0283
  781MOL0     C 7680   6.824   1.235  11.473 -0.3174 -0.4593  0.2679
  781MOL0     C 7681   6.960   1.168  11.481 -0.7112  0.6644 -0.4608
  781MOL0     C 7682   7.012   1.154  11.332  0.2297  0.1216  1.0661
  781MOL0     C 7683   7.148   1.089  11.324  0.1835 -0.0795 -0.2284
  781MOL0     C 7684   7.276   1.167  11.353  0.1083 -0.5907  0.0271
  781MOL0    Cl 7685   7.292   1.331  11.277  0.6508 -0.5086 -0.0030
  781MOL0     C 7686   6.209   1.022  11.300  0.0032 -0.5461  0.5159
  781MOL0     C 7687   6.085   0.986  11.260 -0.2611  0.6364 -0.5694
  781MOL0     O 7688   5.706   1.122  11.409  0.2418 -0.2739 -0.0301
  781MOL0     C 7689   5.491   1.088  11.232 -0.3902  0.4390  0.2787
  781MOL0     C 7690   5.378   1.105  11.144 -0.7971  0.0912 -1.1723
  781MOL0     N 7691   4.867   1.253  10.627  0.1356  0.3488 -0.8679
  781MOL0     N 7692   4.741   1.227  10.623  0.8066 -0.0880 -0.3486
  781MOL0     C 7693   3.590   1.186  11.130 -0.6048  0.0828  0.4570
  781MOL0     C 7694   3.457   1.167  11.106 -0.5043 -0.2664 -0.2428
  781MOL0     C 7695   3.054   0.951  11.104 -0.4203 -0.4072  0.5634
  781MOL0     C 7696   2.999   0.970  10.980  0.2216  0.2478  1.1791
  781MOL0     C 7697   2.874   0.925  10.955  0.8374 -0.4413  0.0461
  781MOL0     C 7698   2.805   0.842  11.046 -0.6840 -0.1516 -0.5395
  781MOL0     O 7699   2.686   0.781  11.018  0.1856 -0.2985  0.4935
  781MOL0     C 7700   2.675   0.709  10.895 -0.0709 -0.3433  0.4325
  781MOL0     C 7701   2.541   0.732  10.828 -0.4276 -0.0396 -0.2323
  781MOL0     C 7702   2.427   0.698  10.918 -1.0875  0.4441  0.6516
  781MOL0     C 7703   2.303   0.672  10.828 -0.3599  0.2439 -0.6770
  781MOL0     C 7704   2.180   0.641  10.910 -0.0489  0.6291  0.5272
  781MOL0     C 7705   2.083   0.608  10.971 -0.3430  0.1688 -0.1555
  781MOL0     C 7706   2.852   0.828  11.171 -0.8299  0.4390  0.1757
  781MOL0     C 7707   2.984   0.879  11.197  0.5547 -0.5843  0.7786
  781MOL0     C 7708   3.044   0.828  11.330  0.6118  0.1044 -0.4480
  781MOL0     H 7709   3.472   0.840  10.999  3.1816 -2.0529  0.8145
  781MOL0     H 7710   3.713   0.905  10.995  0.0573  1.8636  0.7880
  781MOL0     H 7711   3.844   1.260  11.256 -1.5521 -3.7573  2.3350
  781MOL0     H 7712   3.895   1.284  11.097 -0.2625  1.8996  1.6344
  781MOL0     H 7713   4.071   1.219  11.303  2.6022 -0.3778 -0.6232
  781MOL0     H 7714   4.020   1.056  11.250 -0.8394 -0.9265 -1.3220
  781MOL0     H 7715   4.215   1.122  11.136  1.0303  3.0072  0.1783
  781MOL0     H 7716   4.089   1.120  11.017 -0.5596  0.4528  1.2622
  781MOL0     H 7717   4.115   1.334  10.961 -0.6575  0.5991  1.1611
  781MOL0     H 7718   4.120   1.382  11.137  3.1095  1.9426  0.4972
  781MOL0     H 7719   4.358   1.302  11.131 -0.5454 -0.6747  1.4012
  781MOL0     H 7720   4.307   1.446  11.029 -1.1178  0.5561  2.9059
  781MOL0     H 7721   4.311   1.166  10.904  2.5706 -0.4077 -1.6891
  781MOL0     H 7722   4.316   1.323  10.831 -0.1192 -0.8739 -0.4905
  781MOL0     H 7723   4.531   1.207  10.999  0.0756 -0.3380 -0.9936
  781MOL0     H 7724   4.541   1.370  10.917 -1.4662  2.3197 -1.3378
  781MOL0     H 7725   4.516   1.098  10.801  0.0262  0.7432  3.1077
  781MOL0     H 7726   4.490   1.245  10.703 -1.3427  1.4034  1.2281
  781MOL0     H 7727   4.779   1.279  10.944 -0.0616  0.6721 -0.6973
  781MOL0     H 7728   5.047   1.279  10.900  0.4449  1.5628  0.9908
  781MOL0     H 7729   5.027   1.437  10.831  0.5420 -0.1174 -2.2304
  781MOL0     H 7730   5.117   1.338  10.603 -1.2790  0.6609  1.0073
  781MOL0     H 7731   5.231   1.363  10.741 -0.7683  0.0021  3.4109
  781MOL0     H 7732   5.112   1.090  10.750  0.9344  0.0173 -0.8045
  781MOL0     H 7733   5.212   1.127  10.610 -2.9521  2.5556 -1.8506
  781MOL0     H 7734   5.385   1.067  10.750  2.5818  2.8019 -2.7174
  781MOL0     H 7735   5.382   1.233  10.785  0.7936  0.0561  1.4516
  781MOL0     H 7736   5.564   1.067  10.859 -0.7109 -2.4614  0.0962
  781MOL0     H 7737   5.781   1.100  10.880  0.7284 -0.7011 -0.5674
  781MOL0     H 7738   5.845   1.002  11.018  0.3852  0.9773  2.9932
  781MOL0     H 7739   5.848   1.178  11.026 -1.1721 -0.1947  0.6503
  781MOL0     H 7740   5.910   1.187  11.471  1.7134 -0.3060  1.7766
  781MOL0     H 7741   6.136   1.255  11.528 -1.5040 -0.1781 -0.1836
  781MOL0     H 7742   6.476   1.028  11.370  1.9080 -0.8162 -2.5375
  781MOL0     H 7743   6.488   1.185  11.283  1.6172  0.0322  0.9921
  781MOL0     H 7744   6.571   1.287  11.483  0.3240 -0.0708 -0.2706
  781MOL0     H 7745   6.562   1.127  11.572  1.3237 -0.9353  0.2364
  781MOL0     H 7746   6.714   1.164  11.314 -0.0393  3.6758  0.5323
  781MOL0     H 7747   6.736   1.042  11.453 -0.7484  0.4097  1.3064
  781MOL0     H 7748   6.797   1.261  11.576  2.3129  0.6081  0.7543
  781MOL0     H 7749   6.827   1.333  11.423 -0.1474  0.4985  2.0508
  781MOL0     H 7750   7.021   1.238  11.539  0.2337  0.7428 -1.5167
  781MOL0     H 7751   6.938   1.073  11.531  1.2981  0.4043  0.0301
  781MOL0     H 7752   7.026   1.251  11.282  2.0628  0.0917  1.4481
  781MOL0     H 7753   6.947   1.093  11.268  0.2177  1.3243 -0.1113
  781MOL0     H 7754   7.150   1.049  11.223 -3.5312 -0.5600 -0.2573
  781MOL0     H 7755   7.154   1.007  11.396  0.6928  0.3924  0.2814
  781MOL0     H 7756   7.365   1.119  11.311  0.1689  0.0905 -0.6553
  781MOL0     H 7757   7.285   1.178  11.461 -0.8576 -0.4922  0.1119
  781MOL0     H 7758   6.293   0.983  11.243 -3.1368 -1.7768 -3.8780
  781MOL0     H 7759   6.064   0.912  11.183  1.5157  0.3181 -0.7745
  781MOL0     H 7760   5.457   1.074  11.334 -2.1138  0.9926 -0.1855
  781MOL0     H 7761   5.280   1.113  11.189  0.4515 -0.9437  1.9694
  781MOL0     H 7762   3.615   1.279  11.180  2.7702 -0.5493  0.1618
  781MOL0     H 7763   3.380   1.241  11.126 -2.7028 -1.9516 -1.8277
  781MOL0     H 7764   3.053   1.008  10.893  2.1653 -2.4893  1.0538
  781MOL0     H 7765   2.823   0.927  10.860 -0.8149  2.3615  0.8752
  781MOL0     H 7766   2.753   0.737  10.824 -0.0967  0.8076  0.8376
  781MOL0     H 7767   2.683   0.603  10.921  0.4030 -0.4590 -0.1510
  781MOL0     H 7768   2.530   0.681  10.732 -1.0869  2.1262 -1.3567
  781MOL0     H 7769   2.532   0.839  10.809 -1.5001  0.0261  0.5635
  781MOL0     H 7770   2.441   0.607  10.978 -2.9686 -1.2733 -1.3641
  781MOL0     H 7771   2.406   0.771  10.998  0.5784 -0.6188  2.1478
  781MOL0     H 7772   2.324   0.604  10.745 -0.6826  1.5924 -1.9275
  781MOL0     H 7773   2.284   0.764  10.771 -1.3828 -0.1239 -0.9486
  781MOL0     H 7774   1.992   0.571  11.014  0.3304 -0.1895  1.0235
  781MOL0     H 7775   2.803   0.770  11.249  1.6431 -0.8666  0.8574
  781MOL0     H 7776   3.129   0.762  11.316  1.4136  1.6068 -3.4818
  781MOL0     H 7777   3.077   0.911  11.394  6.1701 -1.6387 -0.5940
  781MOL0     H 7778   2.974   0.763  11.385  0.1936 -0.0323 -1.1287
  782MOL0     O 7779  10.465   1.313   8.830  0.4752  0.1582  0.5034
  782MOL0     C 7780  10.380   1.316   8.747 -0.4888  0.2619  1.3949
  782MOL0     O 7781  10.281   1.220   8.733 -0.0354 -0.3847  0.1603
  782MOL0     C 7782  10.280   1.134   8.842  0.1909  0.8186  1.0666
  782MOL0     C 7783  10.323   1.000   8.837  0.1434 -0.0679 -0.2202
  782MOL0     C 7784  10.337   0.922   8.949 -0.1112 -0.1739 -0.6928
  782MOL0     C 7785  10.277   0.972   9.071 -0.4219 -0.0497  0.3668
  782MOL0     O 7786  10.267   0.870   9.174  0.4067  0.3306  0.4981
  782MOL0     C 7787  10.327   0.906   9.294  0.3223 -0.8013 -0.4433
  782MOL0     C 7788  10.243   0.842   9.417 -0.8613  0.8953  0.7509
  782MOL0     C 7789  10.121   0.916   9.448 -0.8181 -0.0012  0.3661
  782MOL0     C 7790  10.047   0.872   9.570  0.3343  0.1116  0.2968
  782MOL0     C 7791   9.923   0.965   9.580  1.0567 -0.3274  0.1124
  782MOL0     C 7792   9.827   0.951   9.698  0.6839  0.1519  0.1743
  782MOL0     C 7793   9.771   1.085   9.748  0.2812  1.0982 -0.2037
  782MOL0     C 7794   9.688   1.152   9.638 -0.2135 -0.6231 -0.1452
  782MOL0     N 7795   9.758   1.244   9.537 -0.4374  0.4812 -0.5504
  782MOL0     C 7796   9.758   1.227   9.400 -0.4419  0.1208  0.0654
  782MOL0     C 7797   9.769   1.348   9.344 -0.8427  0.6474 -1.0676
  782MOL0     C 7798   9.753   1.385   9.203  0.4864 -0.0918  0.5942
  782MOL0     C 7799   9.614   1.347   9.137  0.1918  0.1289 -0.4497
  782MOL0     C 7800   9.490   1.391   9.213 -0.0589 -0.1524 -0.7749
  782MOL0     C 7801   9.465   1.540   9.190 -0.1101  0.1096  0.5032
  782MOL0     O 7802   9.460   1.579   9.056  0.3289  0.1796  0.1117
  782MOL0     C 7803   9.424   1.707   9.031 -0.3997  0.5756 -1.1791
  782MOL0     C 7804   9.490   1.768   8.925 -0.5423  0.0522 -0.1855
  782MOL0     C 7805   9.489   1.911   8.907 -1.0770 -0.6300  0.9757
  782MOL0     C 7806   9.577   1.979   8.801  0.5986  0.7248 -0.4160
  782MOL0     C 7807   9.400   1.989   8.992  0.8214  0.2892  0.9270
  782MOL0     C 7808   9.382   2.142   8.969 -0.4667  0.2852  0.2540
  782MOL0     O 7809   9.256   2.179   9.009 -0.2899  0.0837  0.0530
  782MOL0     C 7810   9.225   2.316   9.013  0.0343  0.6569  0.6505
  782MOL0     C 7811   9.145   2.371   8.911  0.1310 -0.8765 -0.0639
  782MOL0     C 7812   9.100   2.505   8.937 -0.0405 -0.1677 -0.3345
  782MOL0     C 7813   9.147   2.581   9.050 -0.2165  1.4863  0.1387
  782MOL0     O 7814   9.104   2.701   9.088  0.0090  0.1002  0.0550
  782MOL0     C 7815   9.121   2.813   8.995 -0.3221  0.5999 -0.7808
  782MOL0     C 7816   9.064   2.941   9.050  0.2259  0.0273 -0.2527
  782MOL0     C 7817   8.922   2.928   9.087  0.4803  0.2659  0.5339
  782MOL0     C 7818   8.860   3.048   9.153 -0.8503  0.2966 -0.0032
  782MOL0     C 7819   8.711   3.041   9.176  0.3002  0.2059  0.1042
  782MOL0     C 7820   8.626   3.041   9.045 -1.1045 -0.1844 -0.2971
  782MOL0     C 7821   8.477   3.028   9.068  0.0323  0.4284  0.1740
  782MOL0     C 7822   8.413   3.124   9.168  0.1313  0.2705 -0.5801
  782MOL0    Cl 7823   8.434   3.289   9.096 -0.1549 -0.1611 -0.1616
  782MOL0     C 7824   9.239   2.525   9.135  0.3701  0.8061 -0.1876
  782MOL0     C 7825   9.281   2.385   9.121 -0.3345 -0.7603  0.7113
  782MOL0     O 7826   9.475   2.214   8.938 -0.1731 -0.3468 -0.1121
  782MOL0     C 7827   9.320   1.924   9.088 -0.0254 -0.4191  1.0134
  782MOL0     C 7828   9.332   1.786   9.108 -0.5122 -0.6358  0.0239
  782MOL0     N 7829   9.779   1.433   9.445 -0.4422 -0.0807 -0.5101
  782MOL0     N 7830   9.773   1.375   9.559 -0.1962  0.0023  0.2749
  782MOL0     C 7831  10.219   1.105   9.071  0.2178  0.2942 -0.9025
  782MOL0     C 7832  10.230   1.181   8.961 -0.8618  0.2238  0.1261
  782MOL0     C 7833  10.380   1.418   8.639 -0.3555 -0.0973  0.2711
  782MOL0     C 7834  10.279   1.404   8.546  0.5422 -1.7504  0.6321
  782MOL0     C 7835  10.264   1.507   8.448  0.3248 -0.4551  0.7233
  782MOL0     C 7836  10.351   1.614   8.440  0.8292 -0.1810 -0.4673
  782MOL0     O 7837  10.352   1.719   8.350  0.3151  0.1700 -0.4191
  782MOL0     C 7838  10.270   1.715   8.229  0.3064 -0.5705 -0.9869
  782MOL0     C 7839  10.358   1.673   8.107  0.3116  0.2362 -0.6063
  782MOL0     C 7840  10.444   1.773   8.037 -0.6946 -0.5806 -0.4405
  782MOL0     C 7841  10.476   1.731   7.898  0.1648 -0.2482 -0.3503
  782MOL0     C 7842  10.575   1.627   7.895 -0.7293 -0.3259  0.4339
  782MOL0     C 7843  10.673   1.554   7.898  0.2560  0.3469 -0.0870
  782MOL0     C 7844  10.449   1.626   8.539  0.0147 -0.3671  0.2916
  782MOL0     C 7845  10.473   1.529   8.632 -0.8612  0.3489 -0.2690
  782MOL0     C 7846  10.594   1.542   8.719  0.2627 -0.3978 -0.7526
  782MOL0     H 7847  10.355   0.956   8.743  0.7968  2.0580 -1.0664
  782MOL0     H 7848  10.389   0.829   8.930 -1.3104 -1.2235  0.8753
  782MOL0     H 7849  10.341   1.015   9.299  2.9161 -0.7895 -4.1079
  782MOL0     H 7850  10.432   0.873   9.294  0.3551 -0.7016 -0.2719
  782MOL0     H 7851  10.222   0.737   9.399  0.5745  0.9105 -1.3568
  782MOL0     H 7852  10.308   0.856   9.504 -0.8030 -1.3833  1.1269
  782MOL0     H 7853  10.142   1.023   9.458 -0.3704 -0.3125  3.8664
  782MOL0     H 7854  10.057   0.908   9.359  1.8620  1.5320 -1.8603
  782MOL0     H 7855  10.034   0.764   9.580  0.4414  0.0347 -0.3481
  782MOL0     H 7856  10.112   0.896   9.655  2.1940 -3.4410  0.0535
  782MOL0     H 7857   9.856   0.951   9.494  0.3764 -0.6685  0.6854
  782MOL0     H 7858   9.956   1.069   9.587 -0.7842  0.2663  0.6320
  782MOL0     H 7859   9.741   0.894   9.662 -0.6848  0.2773  2.9414
  782MOL0     H 7860   9.880   0.900   9.779 -0.1724  0.1355  0.7378
  782MOL0     H 7861   9.849   1.158   9.770 -1.3814  2.5279  1.2697
  782MOL0     H 7862   9.707   1.076   9.837  1.1875 -1.8915  0.2569
  782MOL0     H 7863   9.646   1.070   9.578  2.1676 -1.5812 -0.5901
  782MOL0     H 7864   9.600   1.206   9.674  1.8055  3.2403 -0.5153
  782MOL0     H 7865   9.742   1.138   9.340  0.3433  0.1782 -0.2495
  782MOL0     H 7866   9.830   1.336   9.143  2.2041 -0.0327  2.6352
  782MOL0     H 7867   9.766   1.493   9.186  1.0382 -0.4121 -1.2446
  782MOL0     H 7868   9.610   1.389   9.036  1.0490 -0.2995 -0.6734
  782MOL0     H 7869   9.615   1.238   9.130  1.3169  0.0645  0.4749
  782MOL0     H 7870   9.405   1.335   9.174 -0.0874 -1.4337  0.9973
  782MOL0     H 7871   9.505   1.368   9.319  2.6986  3.9094 -0.0469
  782MOL0     H 7872   9.366   1.563   9.228 -2.1210 -0.9142 -3.5517
  782MOL0     H 7873   9.539   1.600   9.244  0.1473 -0.0371  0.3208
  782MOL0     H 7874   9.561   1.700   8.880 -1.9086 -0.4481 -1.6619
  782MOL0     H 7875   9.618   1.906   8.731  4.3913  0.4205  1.8719
  782MOL0     H 7876   9.662   2.029   8.847  0.1095  0.9147  0.2943
  782MOL0     H 7877   9.512   2.048   8.747 -2.9713  0.2363  2.8273
  782MOL0     H 7878   9.096   2.303   8.842 -1.9167 -3.6666  3.7548
  782MOL0     H 7879   9.022   2.540   8.870 -0.1963 -2.0586 -1.1977
  782MOL0     H 7880   9.229   2.824   8.979  0.0228 -2.3899 -0.9539
  782MOL0     H 7881   9.073   2.780   8.903  2.2255 -1.7554 -1.4007
  782MOL0     H 7882   9.124   2.979   9.133  0.5534 -1.0604  0.0248
  782MOL0     H 7883   9.081   3.019   8.975  0.0682 -0.4229 -0.7643
  782MOL0     H 7884   8.908   2.834   9.142  2.9528 -1.1727 -1.1072
  782MOL0     H 7885   8.868   2.927   8.992 -0.3049 -1.3740  0.9542
  782MOL0     H 7886   8.860   3.138   9.092 -0.5933 -0.6062 -1.3712
  782MOL0     H 7887   8.916   3.061   9.246  3.1006  2.8266 -2.4564
  782MOL0     H 7888   8.684   2.949   9.227 -2.5323 -0.1395 -1.7537
  782MOL0     H 7889   8.673   3.130   9.227  0.9339 -0.5748  1.9984
  782MOL0     H 7890   8.651   2.951   8.988  0.1537 -1.4454  2.0614
  782MOL0     H 7891   8.651   3.130   8.987  2.3382 -1.3852 -0.8953
  782MOL0     H 7892   8.444   2.925   9.087 -0.9900  0.9856  1.5974
  782MOL0     H 7893   8.446   3.040   8.964  1.8722 -1.1295 -0.6061
  782MOL0     H 7894   8.463   3.118   9.264  1.9437 -0.8232 -1.5510
  782MOL0     H 7895   8.304   3.113   9.167 -0.2776  3.3425  0.1665
  782MOL0     H 7896   9.277   2.576   9.223  0.2216 -0.5199  0.6687
  782MOL0     H 7897   9.359   2.348   9.186  1.2538 -1.5689 -1.5488
  782MOL0     H 7898   9.243   1.982   9.139 -2.1375 -0.1734 -2.1006
  782MOL0     H 7899   9.270   1.740   9.184 -0.6032 -0.1355  0.2584
  782MOL0     H 7900  10.181   1.140   9.167  1.8973 -2.0069  0.7118
  782MOL0     H 7901  10.191   1.283   8.959 -0.2830  0.4536  0.2241
  782MOL0     H 7902  10.193   1.338   8.556 -1.2776  0.4330  0.3397
  782MOL0     H 7903  10.172   1.499   8.391 -0.0106 -0.3775  1.2488
  782MOL0     H 7904  10.193   1.637   8.237  0.2445 -0.6791 -2.4840
  782MOL0     H 7905  10.212   1.805   8.211 -1.0054 -0.5223  2.6007
  782MOL0     H 7906  10.280   1.632   8.041 -1.7148  0.6689  1.3805
  782MOL0     H 7907  10.425   1.592   8.137 -0.5746 -0.9092 -1.5481
  782MOL0     H 7908  10.400   1.873   8.036  3.3756  1.3867 -1.9335
  782MOL0     H 7909  10.536   1.780   8.095 -2.1166 -0.3803  1.9061
  782MOL0     H 7910  10.516   1.819   7.847  0.4398  0.9888  1.9005
  782MOL0     H 7911  10.387   1.703   7.841  0.2268  2.1427 -1.7738
  782MOL0     H 7912  10.755   1.485   7.897  0.3487  0.4556 -1.0867
  782MOL0     H 7913  10.516   1.711   8.538 -1.2098  0.6506  1.3596
  782MOL0     H 7914  10.566   1.559   8.823  1.4240  1.9320 -0.7649
  782MOL0     H 7915  10.655   1.451   8.718  2.9335  1.1975  1.7778
  782MOL0     H 7916  10.658   1.628   8.696 -1.7100  1.8042  1.5079
  783MOL0     O 7917   2.734   1.486   8.231  0.3893 -0.3580 -0.9373
  783MOL0     C 7918   2.686   1.413   8.323 -1.0310 -1.0441  0.1435
  783MOL0     O 7919   2.765   1.328   8.399 -0.2334  0.3212  0.0229
  783MOL0     C 7920   2.889   1.353   8.446  0.3117 -0.9899  0.0277
  783MOL0     C 7921   2.960   1.473   8.435  0.1658 -1.3373 -0.4127
  783MOL0     C 7922   3.086   1.501   8.497  0.2660  0.0751 -0.0202
  783MOL0     C 7923   3.145   1.401   8.574 -0.0288 -1.1945  0.5268
  783MOL0     O 7924   3.250   1.434   8.648 -0.2839  0.2871  0.4093
  783MOL0     C 7925   3.371   1.406   8.575 -0.0492  0.3586  0.4536
  783MOL0     C 7926   3.491   1.419   8.674 -0.2777 -0.8463 -0.5962
  783MOL0     C 7927   3.617   1.354   8.611 -0.0298  0.3884 -0.3978
  783MOL0     C 7928   3.751   1.365   8.698 -0.4795 -0.1295 -0.1809
  783MOL0     C 7929   3.842   1.477   8.666  0.2264 -0.6419 -0.2817
  783MOL0     C 7930   3.990   1.460   8.701 -0.0127  0.3030  1.1098
  783MOL0     C 7931   4.064   1.589   8.663  0.7182  0.6472 -0.0761
  783MOL0     C 7932   4.197   1.606   8.735 -0.4813  0.1967  0.1544
  783MOL0     N 7933   4.253   1.750   8.722  0.8847  0.2666 -0.1835
  783MOL0     C 7934   4.254   1.822   8.603 -0.4372 -0.6843 -0.5406
  783MOL0     C 7935   4.283   1.951   8.640  0.6429 -0.2855 -0.5392
  783MOL0     C 7936   4.288   2.078   8.548  0.1893 -0.2307  0.1782
  783MOL0     C 7937   4.415   2.163   8.567  0.6246 -1.0850 -0.2216
  783MOL0     C 7938   4.407   2.248   8.703 -0.4045  0.2079 -0.1760
  783MOL0     C 7939   4.545   2.287   8.756  0.2684  0.0319 -0.1504
  783MOL0     O 7940   4.622   2.358   8.657  0.2575  0.1242 -0.0518
  783MOL0     C 7941   4.752   2.341   8.689 -0.0733 -0.3108  0.9853
  783MOL0     C 7942   4.821   2.232   8.644 -0.1950  0.0355  0.6149
  783MOL0     C 7943   4.956   2.214   8.671  0.0616 -0.3579  0.4933
  783MOL0     C 7944   5.008   2.078   8.634 -0.7562 -1.0702  0.4957
  783MOL0     C 7945   5.030   2.315   8.741  0.4307  0.7663  0.1835
  783MOL0     C 7946   5.169   2.304   8.779 -1.2877  0.6029 -1.0037
  783MOL0     O 7947   5.231   2.414   8.834 -0.3985 -0.1407  0.2072
  783MOL0     C 7948   5.358   2.400   8.867  0.7314 -0.3718  0.0573
  783MOL0     C 7949   5.386   2.397   8.997  0.4542 -1.0278 -0.8203
  783MOL0     C 7950   5.515   2.411   9.036 -0.3981 -0.2185 -1.1048
  783MOL0     C 7951   5.623   2.417   8.936  0.2934 -0.5788  0.3251
  783MOL0     O 7952   5.749   2.448   8.983 -0.3535  1.3939 -0.6666
  783MOL0     C 7953   5.859   2.460   8.883 -0.0210 -0.1402  0.1861
  783MOL0     C 7954   5.999   2.504   8.951 -0.9770  0.3565  0.9254
  783MOL0     C 7955   6.128   2.505   8.858  0.3218 -0.6489 -0.2318
  783MOL0     C 7956   6.261   2.499   8.941 -0.2373 -0.4167  0.5129
  783MOL0     C 7957   6.366   2.455   8.843  0.7647 -0.1131  0.9461
  783MOL0     C 7958   6.504   2.445   8.919  0.6444  0.1549 -0.4846
  783MOL0     C 7959   6.626   2.452   8.833  1.1914 -0.3680  0.0202
  783MOL0     C 7960   6.627   2.340   8.732 -0.7253 -0.6149 -0.2419
  783MOL0    Cl 7961   6.812   2.297   8.713  0.2868 -0.3531 -0.3746
  783MOL0     C 7962   5.584   2.409   8.794  0.1096  0.4058 -0.0059
  783MOL0     C 7963   5.451   2.400   8.762 -0.0987  0.4283 -1.2535
  783MOL0     O 7964   5.220   2.193   8.785  0.4726  0.5397  0.1190
  783MOL0     C 7965   4.952   2.415   8.793 -0.3670 -0.7172  0.5805
  783MOL0     C 7966   4.819   2.431   8.766  0.7490  0.3675 -0.4086
  783MOL0     N 7967   4.309   1.951   8.773  0.1936  0.1748  0.1699
  783MOL0     N 7968   4.281   1.830   8.823  0.3925  0.1045  0.9127
  783MOL0     C 7969   3.080   1.280   8.585 -0.4656 -0.0593 -0.5015
  783MOL0     C 7970   2.958   1.256   8.519  0.6065 -0.6467 -1.0853
  783MOL0     C 7971   2.535   1.386   8.333 -0.2092 -0.0423 -0.0589
  783MOL0     C 7972   2.499   1.283   8.429 -0.1122  0.6117  0.3711
  783MOL0     C 7973   2.363   1.243   8.431  0.4497 -0.0134 -0.3697
  783MOL0     C 7974   2.266   1.295   8.349  0.4863  0.7593  0.5385
  783MOL0     O 7975   2.133   1.256   8.352  0.1695  0.3227 -0.4320
  783MOL0     C 7976   2.054   1.331   8.435 -0.3820  0.0528 -0.9707
  783MOL0     C 7977   2.029   1.476   8.384  0.0444  0.1839 -0.2175
  783MOL0     C 7978   1.918   1.561   8.466 -0.1638  0.4737 -0.4514
  783MOL0     C 7979   1.872   1.689   8.392 -0.8456 -0.1184 -0.3132
  783MOL0     C 7980   1.775   1.758   8.476 -0.3984 -0.1907 -1.2535
  783MOL0     C 7981   1.695   1.807   8.559  0.1066 -0.5888 -0.8257
  783MOL0     C 7982   2.305   1.387   8.251 -0.6433  0.0977  0.8528
  783MOL0     C 7983   2.430   1.452   8.255 -0.5361  0.2251 -0.2546
  783MOL0     C 7984   2.450   1.564   8.162 -0.4393 -0.4066 -0.7529
  783MOL0     H 7985   2.916   1.552   8.376 -1.2988 -1.2682  0.7232
  783MOL0     H 7986   3.123   1.602   8.515 -1.9822  0.6166  2.1842
  783MOL0     H 7987   3.370   1.472   8.488 -0.3294  1.7017  1.4297
  783MOL0     H 7988   3.372   1.300   8.547  3.1108  0.0232  1.5102
  783MOL0     H 7989   3.520   1.518   8.712  0.7540 -1.7896  1.2632
  783MOL0     H 7990   3.477   1.356   8.762  0.4450  1.5957  1.3977
  783MOL0     H 7991   3.605   1.252   8.573 -2.5743  0.9290 -1.1846
  783MOL0     H 7992   3.640   1.415   8.523 -1.0289  1.4322  0.0332
  783MOL0     H 7993   3.730   1.362   8.806 -0.1423  0.6233 -0.0874
  783MOL0     H 7994   3.803   1.273   8.671 -1.0232 -0.6405  0.4449
  783MOL0     H 7995   3.794   1.563   8.714 -5.1103 -2.5690 -1.5306
  783MOL0     H 7996   3.832   1.490   8.558  1.5870 -1.1659 -0.4889
  783MOL0     H 7997   3.992   1.439   8.808  0.1032 -3.1349  0.5431
  783MOL0     H 7998   4.035   1.375   8.649  1.3841  0.8049  1.4575
  783MOL0     H 7999   3.996   1.670   8.688  0.8236  0.6195  0.3071
  783MOL0     H 8000   4.089   1.581   8.557  1.8404 -1.8837  0.2959
  783MOL0     H 8001   4.192   1.584   8.842  0.9322  1.6981  0.5809
  783MOL0     H 8002   4.274   1.538   8.698  2.5518  3.3512  0.1437
  783MOL0     H 8003   4.222   1.791   8.504 -2.0126 -0.4530 -0.1419
  783MOL0     H 8004   4.206   2.146   8.574  0.1581  0.4524 -1.5671
  783MOL0     H 8005   4.279   2.062   8.441  0.2703  3.3783 -0.5137
  783MOL0     H 8006   4.507   2.107   8.550  0.6751 -0.6199 -1.5947
  783MOL0     H 8007   4.414   2.241   8.491 -0.8193  0.1576  0.9998
  783MOL0     H 8008   4.347   2.337   8.681  2.6546  2.0650 -1.6863
  783MOL0     H 8009   4.357   2.196   8.785 -0.0979 -1.3095 -0.9161
  783MOL0     H 8010   4.538   2.352   8.843  2.7751 -2.2408  1.8922
  783MOL0     H 8011   4.589   2.193   8.789  0.9646 -0.6698 -2.8265
  783MOL0     H 8012   4.770   2.148   8.599  0.2766 -0.0897  0.3127
  783MOL0     H 8013   5.116   2.070   8.622 -0.8353  0.4004 -1.8536
  783MOL0     H 8014   4.963   2.044   8.540  0.6298  2.1473 -1.4793
  783MOL0     H 8015   4.974   2.013   8.716  1.4688 -1.8949  0.8467
  783MOL0     H 8016   5.306   2.390   9.070  2.0280 -1.5147  0.9301
  783MOL0     H 8017   5.534   2.411   9.143 -0.1601 -2.4501 -1.1061
  783MOL0     H 8018   5.862   2.365   8.828  2.0652 -0.7314  1.1983
  783MOL0     H 8019   5.844   2.544   8.815  4.9034  1.2055  0.3272
  783MOL0     H 8020   5.989   2.597   9.008  2.6230  1.4144  0.0732
  783MOL0     H 8021   6.023   2.437   9.035 -3.0534  0.0090  1.3038
  783MOL0     H 8022   6.114   2.594   8.797 -3.6907  0.1554  1.4956
  783MOL0     H 8023   6.129   2.413   8.798  1.7879 -1.5719  1.1169
  783MOL0     H 8024   6.258   2.430   9.026  1.0199 -0.0288  0.9078
  783MOL0     H 8025   6.288   2.599   8.976  3.0508  0.4625 -3.6737
  783MOL0     H 8026   6.327   2.360   8.803 -0.2318  1.3214 -1.7582
  783MOL0     H 8027   6.366   2.539   8.774  0.5008 -2.2218 -1.7991
  783MOL0     H 8028   6.500   2.343   8.959  0.1377 -0.5735 -2.2709
  783MOL0     H 8029   6.501   2.519   8.999 -1.2713  2.4564 -2.5380
  783MOL0     H 8030   6.712   2.440   8.899  1.2149  3.2323  0.8155
  783MOL0     H 8031   6.631   2.551   8.787 -0.7787  0.8796  2.2309
  783MOL0     H 8032   6.581   2.372   8.639  1.3835  0.1513 -1.0812
  783MOL0     H 8033   6.579   2.249   8.768 -0.5122 -0.5173  0.3105
  783MOL0     H 8034   5.655   2.421   8.712 -0.8179 -0.8969 -1.0547
  783MOL0     H 8035   5.442   2.392   8.654 -1.3323 -2.4138 -1.0164
  783MOL0     H 8036   4.999   2.479   8.867 -0.5007  1.6692 -1.2779
  783MOL0     H 8037   4.769   2.515   8.813 -1.6099 -0.9678 -0.4053
  783MOL0     H 8038   3.135   1.201   8.635 -2.0481 -0.4813  0.6896
  783MOL0     H 8039   2.918   1.156   8.533  1.3131 -0.5280  3.5922
  783MOL0     H 8040   2.575   1.245   8.498  1.8755 -1.1742 -2.5842
  783MOL0     H 8041   2.338   1.174   8.510  2.0554  0.7075  0.8193
  783MOL0     H 8042   1.958   1.286   8.462 -0.2644 -0.1107 -0.8262
  783MOL0     H 8043   2.103   1.336   8.533 -1.5950  1.5063 -0.3843
  783MOL0     H 8044   1.993   1.466   8.281  2.7743  2.1350 -1.4859
  783MOL0     H 8045   2.122   1.531   8.399  1.3883 -1.3098 -2.4275
  783MOL0     H 8046   1.828   1.500   8.473  0.0915  0.2209  0.8365
  783MOL0     H 8047   1.944   1.578   8.571 -2.0714  0.4677  0.0497
  783MOL0     H 8048   1.825   1.665   8.296 -1.2335 -3.5732  0.5983
  783MOL0     H 8049   1.956   1.753   8.363 -1.4079  0.0180 -1.7242
  783MOL0     H 8050   1.628   1.845   8.633  2.2714 -1.1041  1.5707
  783MOL0     H 8051   2.227   1.410   8.180 -0.7720 -0.9826  0.6242
  783MOL0     H 8052   2.355   1.615   8.143 -0.3934 -0.0914 -0.1603
  783MOL0     H 8053   2.519   1.634   8.212 -0.6033 -0.4191 -0.5078
  783MOL0     H 8054   2.493   1.536   8.065  0.5604  2.9057 -1.4095
  784MOL0     O 8055   0.010   7.289   1.283 -0.5442  0.0150  1.3371
  784MOL0     C 8056   0.018   7.403   1.238  1.1707  0.5043 -0.8394
  784MOL0     O 8057  -0.093   7.486   1.230 -0.5031 -0.0402  0.0717
  784MOL0     C 8058  -0.212   7.413   1.231  0.0467 -0.7595  0.0054
  784MOL0     C 8059  -0.304   7.404   1.334 -0.0639 -0.8419 -0.6456
  784MOL0     C 8060  -0.404   7.303   1.320  0.1966  0.4241  0.0654
  784MOL0     C 8061  -0.416   7.232   1.205 -0.2733 -0.1110 -0.4294
  784MOL0     O 8062  -0.514   7.138   1.177 -0.0158 -0.6149  0.3593
  784MOL0     C 8063  -0.584   7.077   1.279 -0.4645 -0.5100 -0.6479
  784MOL0     C 8064  -0.681   6.968   1.232  0.7296  0.7935 -0.2009
  784MOL0     C 8065  -0.754   6.902   1.346 -0.4727 -0.7543 -0.9309
  784MOL0     C 8066  -0.872   6.803   1.301 -0.2609  0.0846 -0.1920
  784MOL0     C 8067  -0.953   6.770   1.423  0.0230  0.6493 -0.0520
  784MOL0     C 8068  -1.059   6.658   1.398 -0.7035  0.6950 -0.1020
  784MOL0     C 8069  -1.081   6.617   1.254  1.0642  0.2091 -0.9496
  784MOL0     C 8070  -1.189   6.512   1.238 -0.7950 -0.5704  0.7563
  784MOL0     N 8071  -1.204   6.478   1.090  0.6929 -0.0921 -1.0493
  784MOL0     C 8072  -1.327   6.454   1.045 -0.1167  1.0257 -0.3944
  784MOL0     C 8073  -1.311   6.431   0.914  1.7080 -0.3977  0.9658
  784MOL0     C 8074  -1.416   6.387   0.814  0.4024 -0.1458  0.6437
  784MOL0     C 8075  -1.513   6.501   0.773  0.6890  0.8311  0.0276
  784MOL0     C 8076  -1.624   6.457   0.685  0.0380  0.6631 -0.0374
  784MOL0     C 8077  -1.739   6.556   0.691 -1.1532 -0.4938 -0.1742
  784MOL0     O 8078  -1.782   6.571   0.820  0.0081 -0.3232  0.0822
  784MOL0     C 8079  -1.914   6.609   0.844 -0.4157  0.5122 -0.3687
  784MOL0     C 8080  -1.968   6.588   0.969  0.1068 -0.9402  0.0975
  784MOL0     C 8081  -2.107   6.604   0.993 -0.5773  0.2452 -0.1610
  784MOL0     C 8082  -2.157   6.582   1.139 -0.2209  0.0448  0.4648
  784MOL0     C 8083  -2.190   6.642   0.886  0.2512 -0.8661 -0.4732
  784MOL0     C 8084  -2.336   6.665   0.894  1.2179 -1.0548  0.6030
  784MOL0     O 8085  -2.397   6.699   0.777 -0.1188 -1.2273 -0.7503
  784MOL0     C 8086  -2.525   6.651   0.768 -0.4351 -0.1347  0.5759
  784MOL0     C 8087  -2.638   6.702   0.825  0.5874 -0.5765 -0.2196
  784MOL0     C 8088  -2.760   6.648   0.796  0.8630  0.9503  0.2027
  784MOL0     C 8089  -2.777   6.542   0.707 -0.0640 -0.0073  0.2285
  784MOL0     O 8090  -2.899   6.485   0.667  0.1842 -0.9117  0.1787
  784MOL0     C 8091  -3.018   6.528   0.733 -0.6690 -0.1112 -0.2859
  784MOL0     C 8092  -3.127   6.438   0.678 -0.7607 -0.3660  0.4996
  784MOL0     C 8093  -3.261   6.478   0.748 -0.4640  0.3166  0.3977
  784MOL0     C 8094  -3.377   6.405   0.675 -0.3479 -0.3938  0.1037
  784MOL0     C 8095  -3.516   6.428   0.732  0.4617  0.5617 -0.7357
  784MOL0     C 8096  -3.622   6.311   0.731 -0.5759  0.0358 -0.0608
  784MOL0     C 8097  -3.742   6.333   0.818 -0.5746  0.2683 -0.1169
  784MOL0     C 8098  -3.847   6.223   0.839  1.0333  0.6801 -0.0599
  784MOL0    Cl 8099  -3.952   6.183   0.680 -0.0824 -0.5789  0.1419
  784MOL0     C 8100  -2.668   6.495   0.645  0.1562  0.7230  0.3729
  784MOL0     C 8101  -2.536   6.546   0.672  0.5043  0.0066  0.1545
  784MOL0     O 8102  -2.392   6.629   1.001 -0.4647  0.1176 -0.3125
  784MOL0     C 8103  -2.129   6.668   0.760 -0.2914 -0.2879  0.1093
  784MOL0     C 8104  -1.992   6.660   0.746 -0.3772 -0.2149 -0.0169
  784MOL0     N 8105  -1.178   6.430   0.881  0.6531  0.5172 -0.1379
  784MOL0     N 8106  -1.114   6.451   0.990  0.0406  0.6551 -0.2741
  784MOL0     C 8107  -0.333   7.259   1.103  1.3261 -0.7840 -0.3863
  784MOL0     C 8108  -0.240   7.354   1.111 -0.8380 -0.1684 -0.7771
  784MOL0     C 8109   0.155   7.465   1.213 -0.0607  0.7246 -0.1325
  784MOL0     C 8110   0.160   7.595   1.155 -0.2470 -1.0704 -0.4890
  784MOL0     C 8111   0.280   7.660   1.125  0.4850 -0.4147 -0.1653
  784MOL0     C 8112   0.401   7.599   1.157  0.4403  0.2571  0.1386
  784MOL0     O 8113   0.532   7.642   1.132  0.4041 -0.4986  0.2356
  784MOL0     C 8114   0.558   7.784   1.092  0.2549  0.7067 -0.1621
  784MOL0     C 8115   0.710   7.809   1.089 -0.0672  0.3272  0.2126
  784MOL0     C 8116   0.790   7.790   1.213  0.4723  0.3301  0.9218
  784MOL0     C 8117   0.739   7.861   1.338  0.4106 -0.2376  0.2629
  784MOL0     C 8118   0.719   8.003   1.314  0.0693  0.3257 -0.4149
  784MOL0     C 8119   0.678   8.113   1.302  1.4840 -0.6655  0.0185
  784MOL0     C 8120   0.389   7.471   1.210 -0.1228  0.0322  0.1949
  784MOL0     C 8121   0.277   7.403   1.245 -0.3206  0.1747 -0.4780
  784MOL0     C 8122   0.289   7.271   1.313 -0.2817  0.0782  0.5936
  784MOL0     H 8123  -0.294   7.463   1.425 -1.0362  0.4347 -1.3361
  784MOL0     H 8124  -0.476   7.280   1.398  0.2915 -0.8202 -0.1997
  784MOL0     H 8125  -0.630   7.145   1.351  0.0458 -1.4727  0.6393
  784MOL0     H 8126  -0.512   7.019   1.337 -0.4144 -0.0149 -0.2127
  784MOL0     H 8127  -0.767   7.017   1.185  0.3528 -1.3484 -1.9051
  784MOL0     H 8128  -0.641   6.892   1.164  0.2594  0.3263  0.0431
  784MOL0     H 8129  -0.682   6.861   1.418 -1.1755  2.5614  1.9234
  784MOL0     H 8130  -0.794   6.975   1.416 -0.8760 -1.8196 -0.0237
  784MOL0     H 8131  -0.926   6.851   1.219 -2.0404 -0.6600  0.4883
  784MOL0     H 8132  -0.823   6.712   1.265  3.1671  1.2570  1.1822
  784MOL0     H 8133  -1.003   6.858   1.465 -2.0616 -1.1455  1.3998
  784MOL0     H 8134  -0.884   6.731   1.498 -0.1838  0.2031 -0.0918
  784MOL0     H 8135  -1.030   6.571   1.457  0.0997 -0.4708 -2.0998
  784MOL0     H 8136  -1.157   6.693   1.431 -1.1945 -2.5365  2.4194
  784MOL0     H 8137  -0.993   6.568   1.213 -0.6417 -2.5170 -1.6707
  784MOL0     H 8138  -1.109   6.703   1.191  2.2149  0.1060 -1.6190
  784MOL0     H 8139  -1.162   6.422   1.293 -2.3911 -1.2675  0.4479
  784MOL0     H 8140  -1.283   6.554   1.274 -1.4069 -1.2964  0.0242
  784MOL0     H 8141  -1.419   6.447   1.103  0.8242 -0.6715  1.0101
  784MOL0     H 8142  -1.479   6.308   0.853  0.3532  0.5097  1.9451
  784MOL0     H 8143  -1.381   6.345   0.719  1.2834 -2.0847  1.7752
  784MOL0     H 8144  -1.553   6.538   0.867 -1.3207 -1.0819 -0.0138
  784MOL0     H 8145  -1.447   6.576   0.727  2.3305 -1.2174 -1.1659
  784MOL0     H 8146  -1.592   6.449   0.581 -2.8967 -1.4183 -0.9187
  784MOL0     H 8147  -1.670   6.362   0.713  1.1632 -0.1295 -0.7580
  784MOL0     H 8148  -1.708   6.651   0.646 -0.5220  0.5966  2.3797
  784MOL0     H 8149  -1.820   6.527   0.623 -1.5973  0.4566 -0.0630
  784MOL0     H 8150  -1.911   6.552   1.054 -0.6413  0.5548  1.2952
  784MOL0     H 8151  -2.075   6.565   1.210 -0.8632 -0.6045  1.0784
  784MOL0     H 8152  -2.235   6.509   1.162 -0.9394  1.5289  3.2312
  784MOL0     H 8153  -2.185   6.683   1.170  1.7706  1.2101 -1.2936
  784MOL0     H 8154  -2.630   6.780   0.901 -0.0911 -0.8528  0.1420
  784MOL0     H 8155  -2.848   6.686   0.846  0.0746 -0.8299  0.2429
  784MOL0     H 8156  -3.015   6.514   0.842  0.6239  4.4173  0.4684
  784MOL0     H 8157  -3.041   6.633   0.714  0.9925  0.0428 -1.7234
  784MOL0     H 8158  -3.130   6.448   0.569 -0.7152  0.2653  0.5512
  784MOL0     H 8159  -3.092   6.335   0.689  4.0155  1.0399  0.9573
  784MOL0     H 8160  -3.278   6.586   0.744  0.2994  0.4403  0.4143
  784MOL0     H 8161  -3.263   6.443   0.851 -2.2418  0.1039  0.3224
  784MOL0     H 8162  -3.352   6.299   0.680 -1.9527 -0.7351  2.2569
  784MOL0     H 8163  -3.382   6.428   0.568  0.9671  3.4806  0.7263
  784MOL0     H 8164  -3.518   6.447   0.839 -2.9428  2.7183 -1.0482
  784MOL0     H 8165  -3.556   6.518   0.685  1.7078  0.1492 -2.7560
  784MOL0     H 8166  -3.570   6.220   0.760 -1.0697 -0.8457 -1.7973
  784MOL0     H 8167  -3.656   6.288   0.629  1.9571 -0.8430 -0.7574
  784MOL0     H 8168  -3.797   6.418   0.776  1.1226  1.3147 -0.3200
  784MOL0     H 8169  -3.710   6.362   0.919 -1.9159  0.8990  0.1489
  784MOL0     H 8170  -3.915   6.248   0.921 -2.8030 -2.1476 -2.0409
  784MOL0     H 8171  -3.803   6.130   0.877 -1.1841  0.1043  1.2957
  784MOL0     H 8172  -2.678   6.413   0.575 -1.7858  1.4097 -0.2092
  784MOL0     H 8173  -2.452   6.501   0.621 -1.0066  1.7177 -4.2603
  784MOL0     H 8174  -2.174   6.698   0.666  0.2724 -0.7382 -0.3097
  784MOL0     H 8175  -1.957   6.692   0.648  2.8936 -2.2331  0.3501
  784MOL0     H 8176  -0.352   7.202   1.012 -2.0105 -0.1416 -0.2293
  784MOL0     H 8177  -0.187   7.370   1.018 -2.4570 -1.5907 -1.9951
  784MOL0     H 8178   0.067   7.647   1.132 -0.4940 -1.6616 -0.8655
  784MOL0     H 8179   0.284   7.761   1.087 -0.0157  0.5983  2.2816
  784MOL0     H 8180   0.501   7.811   1.003 -1.9446 -2.0525  0.2769
  784MOL0     H 8181   0.512   7.846   1.170  3.3275  1.6634  1.0405
  784MOL0     H 8182   0.738   7.909   1.054  2.9974  0.3006  2.2464
  784MOL0     H 8183   0.743   7.744   1.007  0.7048 -1.9398  2.1974
  784MOL0     H 8184   0.789   7.681   1.223  1.1629  0.0219 -1.6963
  784MOL0     H 8185   0.889   7.832   1.194  1.0371 -1.3073  0.1021
  784MOL0     H 8186   0.821   7.842   1.407  1.9698  0.8598 -1.1993
  784MOL0     H 8187   0.645   7.814   1.367 -0.8967  2.3207  0.4545
  784MOL0     H 8188   0.622   8.204   1.295 -0.9885 -2.2122 -2.4810
  784MOL0     H 8189   0.482   7.425   1.244 -0.6599 -0.1019  1.5494
  784MOL0     H 8190   0.390   7.255   1.353 -0.2244 -1.8560 -0.1700
  784MOL0     H 8191   0.230   7.262   1.404 -1.4065 -3.8648 -0.2902
  784MOL0     H 8192   0.261   7.193   1.241 -2.3266 -0.0148  1.4223
  785MOL0     O 8193   5.093   9.997   6.247  0.1881  0.0409 -0.1135
  785MOL0     C 8194   5.013  10.064   6.182  0.5998  0.2255  1.5979
  785MOL0     O 8195   5.045  10.195   6.128  0.8444  0.4941 -0.4794
  785MOL0     C 8196   5.130  10.276   6.203  0.7771  0.2217  0.5698
  785MOL0     C 8197   5.129  10.269   6.342 -0.0288  0.7779 -0.0608
  785MOL0     C 8198   5.234  10.328   6.414 -0.2511  0.3778 -0.5524
  785MOL0     C 8199   5.327  10.421   6.362 -0.1807 -0.3718 -0.6952
  785MOL0     O 8200   5.409  10.508   6.422 -0.3674  0.5813 -0.1576
  785MOL0     C 8201   5.405  10.521   6.565  0.0055 -0.6880  0.6142
  785MOL0     C 8202   5.298  10.618   6.586 -0.8837 -0.5006 -0.8430
  785MOL0     C 8203   5.335  10.760   6.539  0.6670  0.4051  0.1380
  785MOL0     C 8204   5.235  10.870   6.561  0.8601 -0.4560 -0.4370
  785MOL0     C 8205   5.292  11.007   6.513  0.9098  0.0263 -0.4089
  785MOL0     C 8206   5.201  11.121   6.559  0.3304  0.5182  0.4394
  785MOL0     C 8207   5.250  11.252   6.508  0.6166 -0.6423  0.3389
  785MOL0     C 8208   5.198  11.380   6.586 -0.7629 -0.3131  0.3696
  785MOL0     N 8209   5.052  11.394   6.613  0.2386  0.5133 -0.8023
  785MOL0     C 8210   4.963  11.463   6.531 -0.5474 -0.3727  0.3820
  785MOL0     C 8211   4.858  11.493   6.608  0.1616  1.2393 -0.4737
  785MOL0     C 8212   4.739  11.573   6.561 -0.4486 -0.2344  0.8375
  785MOL0     C 8213   4.690  11.678   6.665 -0.4346 -0.2153  0.7616
  785MOL0     C 8214   4.572  11.757   6.602  0.5775  0.4572  0.0220
  785MOL0     C 8215   4.434  11.689   6.581 -0.0219 -0.5851 -0.2812
  785MOL0     O 8216   4.335  11.782   6.632 -0.0120  0.0086 -0.0507
  785MOL0     C 8217   4.217  11.780   6.572 -0.0346  0.5279 -0.4303
  785MOL0     C 8218   4.159  11.899   6.535  0.5609  0.4056  0.1182
  785MOL0     C 8219   4.030  11.904   6.482  0.6708 -0.4395 -0.4210
  785MOL0     C 8220   3.975  12.044   6.462  0.1501 -0.1602 -0.0812
  785MOL0     C 8221   3.955  11.782   6.460 -0.2310  0.4728 -0.4750
  785MOL0     C 8222   3.816  11.786   6.415  0.1441 -0.5127  0.7014
  785MOL0     O 8223   3.735  11.683   6.440 -0.2624 -0.1657  0.3506
  785MOL0     C 8224   3.599  11.711   6.446  0.3312  0.7012  0.0227
  785MOL0     C 8225   3.504  11.612   6.413  0.0389  0.5125  0.6343
  785MOL0     C 8226   3.363  11.634   6.424  0.5432 -1.1035  0.8713
  785MOL0     C 8227   3.317  11.759   6.465 -0.6420  0.9022 -0.8396
  785MOL0     O 8228   3.184  11.776   6.458 -0.6784  0.3436  0.2439
  785MOL0     C 8229   3.129  11.894   6.512  0.1480  0.2282 -0.5908
  785MOL0     C 8230   2.983  11.878   6.483  0.6596  0.4127  0.0288
  785MOL0     C 8231   2.910  12.000   6.536  0.8450  0.2108  0.1433
  785MOL0     C 8232   2.757  11.991   6.517 -0.4589  0.5639 -0.5080
  785MOL0     C 8233   2.693  12.122   6.567 -0.0608 -0.5004 -0.4954
  785MOL0     C 8234   2.538  12.121   6.544 -0.3179 -0.0921 -0.0814
  785MOL0     C 8235   2.482  12.257   6.586 -0.7780  0.3311  0.5051
  785MOL0     C 8236   2.333  12.274   6.565  0.0903 -0.2913 -1.1031
  785MOL0    Cl 8237   2.303  12.293   6.398 -0.2008  0.0468  0.0687
  785MOL0     C 8238   3.402  11.848   6.522  0.1848 -1.4135  0.2840
  785MOL0     C 8239   3.540  11.824   6.516 -1.8099 -0.1512 -0.0891
  785MOL0     O 8240   3.781  11.887   6.348  0.7058  1.2029 -0.3241
  785MOL0     C 8241   4.019  11.665   6.500 -0.0310 -0.4762  0.0219
  785MOL0     C 8242   4.152  11.661   6.551  0.1918 -0.0829 -0.5299
  785MOL0     N 8243   4.878  11.437   6.734  0.3064  0.3492 -0.6015
  785MOL0     N 8244   4.990  11.373   6.740  0.5071  0.4440  0.2377
  785MOL0     C 8245   5.319  10.426   6.221  0.3421 -0.0121 -0.6554
  785MOL0     C 8246   5.226  10.355   6.147  0.6918 -0.6175 -0.6114
  785MOL0     C 8247   4.877  10.024   6.130  0.8053  0.1056  0.5651
  785MOL0     C 8248   4.798  10.128   6.055  0.4080  0.3702  0.7484
  785MOL0     C 8249   4.660  10.103   6.012 -0.5640 -1.5894 -0.3718
  785MOL0     C 8250   4.604   9.978   6.029  0.6498 -0.2842 -0.5816
  785MOL0     O 8251   4.479   9.939   5.996 -0.5577  0.3849  0.2467
  785MOL0     C 8252   4.375  10.029   5.967  0.2210  0.7997 -1.1378
  785MOL0     C 8253   4.332  10.088   6.103  0.6001 -0.4738 -0.1026
  785MOL0     C 8254   4.225  10.016   6.189  0.8342  0.3551 -0.4574
  785MOL0     C 8255   4.269   9.885   6.242 -0.2740  0.4339 -0.2519
  785MOL0     C 8256   4.376   9.897   6.338  0.1865 -0.3375 -0.6206
  785MOL0     C 8257   4.480   9.898   6.403  0.1961  0.3075  0.3767
  785MOL0     C 8258   4.678   9.884   6.102  0.3268  0.2451 -0.2409
  785MOL0     C 8259   4.812   9.901   6.148  0.1978  0.3739 -0.3294
  785MOL0     C 8260   4.874   9.780   6.221  1.0475 -0.4828 -0.1766
  785MOL0     H 8261   5.056  10.209   6.396  0.5926 -1.3075 -1.4258
  785MOL0     H 8262   5.236  10.311   6.521 -2.5370  1.3865 -0.2873
  785MOL0     H 8263   5.503  10.548   6.604 -0.0880  0.3728  0.1559
  785MOL0     H 8264   5.369  10.432   6.618  0.3632 -0.9953  0.3457
  785MOL0     H 8265   5.208  10.582   6.536  0.5706 -2.5182 -2.1256
  785MOL0     H 8266   5.289  10.623   6.695 -3.4065  1.2443 -1.0460
  785MOL0     H 8267   5.427  10.790   6.590  0.6704 -1.4186  1.2820
  785MOL0     H 8268   5.344  10.753   6.430  0.6835 -0.8920  0.2037
  785MOL0     H 8269   5.141  10.842   6.514 -1.1650  1.4272  2.2269
  785MOL0     H 8270   5.216  10.878   6.668  0.9182 -2.9630 -0.1767
  785MOL0     H 8271   5.299  11.002   6.404  0.1943 -1.6649 -0.4051
  785MOL0     H 8272   5.395  11.028   6.545  0.5386 -0.6846  1.3734
  785MOL0     H 8273   5.100  11.105   6.522  1.9698 -1.4778 -3.8591
  785MOL0     H 8274   5.206  11.136   6.667  1.1622  0.3834  0.4288
  785MOL0     H 8275   5.221  11.263   6.403 -2.8866 -0.7338  1.1911
  785MOL0     H 8276   5.359  11.262   6.507  0.5329  0.3566 -0.0181
  785MOL0     H 8277   5.249  11.381   6.683  2.4339 -0.8554 -1.1797
  785MOL0     H 8278   5.227  11.471   6.533 -0.8898  0.2785  1.3072
  785MOL0     H 8279   4.971  11.491   6.426 -2.7467  0.5715  0.4215
  785MOL0     H 8280   4.661  11.498   6.547  0.2236 -0.7208 -0.4743
  785MOL0     H 8281   4.766  11.624   6.469  3.5081  0.5382  2.2405
  785MOL0     H 8282   4.652  11.626   6.754 -1.3473 -0.2904  0.3435
  785MOL0     H 8283   4.774  11.744   6.686  0.8124 -1.3978 -0.3264
  785MOL0     H 8284   4.569  11.841   6.672 -0.7893 -1.4283  2.4059
  785MOL0     H 8285   4.598  11.785   6.500 -0.0556 -1.1775 -0.6154
  785MOL0     H 8286   4.413  11.663   6.477 -4.1850  2.1137 -0.3799
  785MOL0     H 8287   4.429  11.603   6.647  1.0301  0.7757  1.6709
  785MOL0     H 8288   4.219  11.988   6.553 -0.2989  1.0476 -0.1408
  785MOL0     H 8289   4.040  12.116   6.512 -1.8442  0.2022  2.1742
  785MOL0     H 8290   3.874  12.053   6.503  0.0781  4.3624 -0.6849
  785MOL0     H 8291   3.966  12.066   6.355  2.6551 -0.9060 -0.5102
  785MOL0     H 8292   3.531  11.513   6.379  0.5138 -0.2455  2.9861
  785MOL0     H 8293   3.283  11.569   6.390 -2.0802  2.0675  0.4726
  785MOL0     H 8294   3.146  11.902   6.620 -1.2750  1.8927 -0.4535
  785MOL0     H 8295   3.170  11.982   6.460 -1.0374  0.7007 -0.7545
  785MOL0     H 8296   2.966  11.874   6.375  2.6419 -1.1802 -0.2806
  785MOL0     H 8297   2.937  11.787   6.524 -0.0370 -0.3050 -2.1789
  785MOL0     H 8298   2.946  12.095   6.495  0.1426  0.1803 -0.5595
  785MOL0     H 8299   2.932  12.017   6.642 -2.1214 -0.4681  0.9562
  785MOL0     H 8300   2.722  11.912   6.584 -1.0129  1.4189  0.2505
  785MOL0     H 8301   2.718  11.973   6.417  3.1953 -3.3123 -1.4824
  785MOL0     H 8302   2.723  12.146   6.669 -0.7879  0.4036 -0.4786
  785MOL0     H 8303   2.735  12.201   6.504  0.0750 -0.8744 -0.8799
  785MOL0     H 8304   2.479  12.048   6.600  0.5376  1.1148  2.5388
  785MOL0     H 8305   2.521  12.119   6.436 -0.6857  0.9388 -0.0583
  785MOL0     H 8306   2.535  12.338   6.535 -2.5682  0.6280 -0.9629
  785MOL0     H 8307   2.502  12.260   6.694 -0.0955 -1.0441  0.4498
  785MOL0     H 8308   2.294  12.357   6.625  2.2639 -1.0100  1.5364
  785MOL0     H 8309   2.283  12.185   6.603 -1.3490  1.2942  1.0013
  785MOL0     H 8310   3.365  11.946   6.547  2.6853  0.7913 -3.6860
  785MOL0     H 8311   3.600  11.898   6.568 -2.2440  0.1113  0.0445
  785MOL0     H 8312   3.965  11.571   6.498 -0.2290 -0.4264  1.7238
  785MOL0     H 8313   4.197  11.570   6.591 -0.5655 -1.0231 -1.7268
  785MOL0     H 8314   5.374  10.497   6.160  0.7248 -0.4871 -0.8653
  785MOL0     H 8315   5.245  10.362   6.040  2.6260 -0.2844 -0.2957
  785MOL0     H 8316   4.833  10.228   6.036  0.3815  0.5223  1.4927
  785MOL0     H 8317   4.608  10.190   5.972 -1.8652 -1.9916  0.3982
  785MOL0     H 8318   4.410  10.103   5.894  0.2382 -0.4352 -2.4056
  785MOL0     H 8319   4.301   9.961   5.923 -0.0867 -0.1219  0.7178
  785MOL0     H 8320   4.280  10.184   6.094 -0.1768 -0.7801  0.9552
  785MOL0     H 8321   4.419  10.107   6.167  2.0008 -0.8154 -1.8434
  785MOL0     H 8322   4.199  10.076   6.277  2.0291  1.6780 -0.9649
  785MOL0     H 8323   4.141   9.998   6.122  1.3118  0.6040 -1.1343
  785MOL0     H 8324   4.305   9.824   6.159  1.1794  1.3839 -0.3559
  785MOL0     H 8325   4.191   9.827   6.293 -0.0408  0.2155 -0.1379
  785MOL0     H 8326   4.561   9.911   6.472  1.0057  0.5898 -0.6091
  785MOL0     H 8327   4.632   9.786   6.113  0.9209  0.1665  1.9234
  785MOL0     H 8328   4.810   9.692   6.222  1.1287 -0.5415 -0.0945
  785MOL0     H 8329   4.962   9.748   6.164  0.9166 -2.0637  0.4631
  785MOL0     H 8330   4.898   9.806   6.325 -3.2221 -1.2502  1.1734
  786MOL0     O 8331   8.113   8.651   6.036 -0.5621  0.0970  0.2598
  786MOL0     C 8332   8.186   8.751   6.010  1.2881 -0.0562  0.0009
  786MOL0     O 8333   8.145   8.890   6.026  0.2839  0.2229  0.1978
  786MOL0     C 8334   8.025   8.936   6.073 -0.1629  0.0698  0.4128
  786MOL0     C 8335   7.962   8.885   6.190 -1.1628 -0.0997  0.0115
  786MOL0     C 8336   7.839   8.932   6.233  0.0302  0.2173 -0.6777
  786MOL0     C 8337   7.769   9.018   6.166  0.4926 -0.0527 -0.7246
  786MOL0     O 8338   7.635   9.053   6.196 -0.4310  0.0600 -1.0289
  786MOL0     C 8339   7.562   8.970   6.292  0.1907 -0.4666  0.1778
  786MOL0     C 8340   7.415   9.019   6.284  0.3691  0.4818 -0.1755
  786MOL0     C 8341   7.332   8.941   6.378  0.2220  0.4232  0.2811
  786MOL0     C 8342   7.186   8.968   6.341  0.1785  1.0574  0.7872
  786MOL0     C 8343   7.092   8.933   6.454  0.2285 -0.6960  0.1235
  786MOL0     C 8344   6.965   9.013   6.425 -0.2809 -0.1741 -0.2142
  786MOL0     C 8345   6.967   9.167   6.462  0.0373  0.7765  0.7952
  786MOL0     C 8346   6.823   9.222   6.459  0.0659 -0.1757 -0.0295
  786MOL0     N 8347   6.759   9.214   6.326  0.3283 -0.4567 -0.1772
  786MOL0     C 8348   6.693   9.106   6.268 -0.0664 -0.2833  0.9652
  786MOL0     C 8349   6.663   9.146   6.141 -0.2530 -0.4581 -0.4204
  786MOL0     C 8350   6.591   9.057   6.038  0.2895  0.0141  0.5125
  786MOL0     C 8351   6.697   8.975   5.966  0.7115  0.3958  1.3598
  786MOL0     C 8352   6.635   8.876   5.873  1.1042 -0.3791  0.2973
  786MOL0     C 8353   6.542   8.941   5.767 -0.2039  0.1412  0.1608
  786MOL0     O 8354   6.612   9.052   5.695  0.4433 -0.0772  0.0697
  786MOL0     C 8355   6.530   9.126   5.605  0.2245  0.4715 -0.4160
  786MOL0     C 8356   6.598   9.232   5.541  0.2008 -0.3756 -0.0605
  786MOL0     C 8357   6.546   9.311   5.441  0.6349 -0.3977 -0.0603
  786MOL0     C 8358   6.609   9.436   5.382 -0.1702  0.1826 -0.3502
  786MOL0     C 8359   6.418   9.266   5.392 -0.7573 -0.1086  0.3184
  786MOL0     C 8360   6.356   9.321   5.276 -0.2876 -0.7200  0.5118
  786MOL0     O 8361   6.243   9.397   5.292 -0.8403 -0.0157  0.1556
  786MOL0     C 8362   6.206   9.473   5.185  0.0926 -0.1072  0.0239
  786MOL0     C 8363   6.094   9.439   5.121  0.0052  0.1869 -0.3296
  786MOL0     C 8364   6.043   9.514   5.020 -0.3599  0.6228 -0.2290
  786MOL0     C 8365   6.109   9.628   4.978  0.4864  0.1334  0.7029
  786MOL0     O 8366   6.058   9.715   4.886 -0.2167  0.5611  0.1077
  786MOL0     C 8367   6.019   9.668   4.758 -0.2073  0.6522  1.2654
  786MOL0     C 8368   6.126   9.683   4.656  0.0122 -0.1857  0.8414
  786MOL0     C 8369   6.116   9.584   4.549  0.4892 -0.8585  0.1355
  786MOL0     C 8370   5.984   9.578   4.470 -0.3236  0.0615 -0.5203
  786MOL0     C 8371   5.985   9.476   4.350 -0.0962 -0.1920 -0.3232
  786MOL0     C 8372   5.864   9.513   4.255  0.2391  0.0955 -0.3391
  786MOL0     C 8373   5.725   9.479   4.309 -0.0370  0.1908  0.5493
  786MOL0     C 8374   5.633   9.491   4.191  0.3584  0.0001 -0.2425
  786MOL0    Cl 8375   5.619   9.662   4.139  0.0355 -0.3853 -0.3498
  786MOL0     C 8376   6.229   9.661   5.039 -0.3589  0.3537 -0.9300
  786MOL0     C 8377   6.287   9.578   5.139 -0.9115  0.1958  0.6959
  786MOL0     O 8378   6.405   9.309   5.164 -0.3348  0.0030  0.3520
  786MOL0     C 8379   6.353   9.158   5.448  0.5855 -0.5470 -0.5886
  786MOL0     C 8380   6.402   9.092   5.560 -0.1393  0.3617 -0.8493
  786MOL0     N 8381   6.706   9.278   6.131 -0.3449 -0.1735  0.0846
  786MOL0     N 8382   6.770   9.321   6.238 -0.3909 -0.1411  0.1253
  786MOL0     C 8383   7.822   9.061   6.044  0.2671  0.6688 -0.8771
  786MOL0     C 8384   7.951   9.020   5.996 -1.1252  0.2200 -0.6801
  786MOL0     C 8385   8.310   8.722   5.939 -1.0454 -0.1530  0.1473
  786MOL0     C 8386   8.348   8.590   5.896 -0.0446  0.2670  0.1247
  786MOL0     C 8387   8.466   8.563   5.828 -0.3724  0.0973  0.4038
  786MOL0     C 8388   8.551   8.674   5.790  0.2111 -0.6780  0.5836
  786MOL0     O 8389   8.662   8.636   5.724 -0.7717  0.1791 -0.1073
  786MOL0     C 8390   8.773   8.735   5.713 -0.3754  0.2983 -0.7121
  786MOL0     C 8391   8.890   8.661   5.646  0.0503  0.0943 -0.3161
  786MOL0     C 8392   9.006   8.754   5.601  0.5132  0.5978 -0.7624
  786MOL0     C 8393   9.070   8.830   5.715  0.5051  0.3136  0.3997
  786MOL0     C 8394   9.002   8.952   5.754 -0.8116  0.1732  0.1063
  786MOL0     C 8395   8.940   9.052   5.789  0.0708 -0.3548 -0.7870
  786MOL0     C 8396   8.530   8.798   5.836  0.9422  0.3776 -0.4465
  786MOL0     C 8397   8.415   8.820   5.921 -0.1155 -1.7471 -1.0438
  786MOL0     C 8398   8.413   8.959   5.985 -0.4444  0.3522 -0.5422
  786MOL0     H 8399   8.020   8.816   6.251 -0.2470  0.4766 -0.1919
  786MOL0     H 8400   7.800   8.876   6.317  3.6969 -2.2990 -0.4180
  786MOL0     H 8401   7.613   8.975   6.388  1.9156  4.4380 -0.6818
  786MOL0     H 8402   7.570   8.870   6.248 -2.3873  0.5713 -3.0831
  786MOL0     H 8403   7.420   9.125   6.311 -0.0188  0.2306  0.9363
  786MOL0     H 8404   7.371   8.992   6.187 -0.5904  0.1254  0.3400
  786MOL0     H 8405   7.348   8.833   6.369  1.2002  0.6510 -0.9140
  786MOL0     H 8406   7.354   8.964   6.483  1.8158  0.5500 -0.0546
  786MOL0     H 8407   7.175   9.070   6.303 -2.1504  0.2667 -0.8896
  786MOL0     H 8408   7.150   8.905   6.259  0.1881  0.6301  1.1103
  786MOL0     H 8409   7.136   8.948   6.553  0.3279 -1.8268  0.2648
  786MOL0     H 8410   7.057   8.829   6.446 -3.0153  0.0701  2.3508
  786MOL0     H 8411   6.934   8.998   6.321 -0.6327  1.0319 -0.3022
  786MOL0     H 8412   6.886   8.965   6.484  0.6687  0.2005  1.4202
  786MOL0     H 8413   7.032   9.215   6.388 -0.5561  1.2059  0.5324
  786MOL0     H 8414   7.009   9.172   6.562 -1.4957  2.2605  1.4088
  786MOL0     H 8415   6.764   9.167   6.532  0.1261  0.7214  0.7165
  786MOL0     H 8416   6.825   9.328   6.487  3.4994  0.2884 -1.4980
  786MOL0     H 8417   6.661   9.006   6.293  0.1086 -0.4504  0.5405
  786MOL0     H 8418   6.544   9.124   5.965  3.3434  2.6427  0.7486
  786MOL0     H 8419   6.521   8.987   6.084 -0.1874 -1.6472 -2.4858
  786MOL0     H 8420   6.777   9.032   5.918  1.6666 -1.5473  0.5037
  786MOL0     H 8421   6.747   8.924   6.049  3.1333  0.9954  0.3561
  786MOL0     H 8422   6.719   8.821   5.831  0.3390 -1.3153 -0.0640
  786MOL0     H 8423   6.585   8.804   5.939 -1.4844 -0.8617 -1.9935
  786MOL0     H 8424   6.514   8.863   5.695  2.2516 -0.9163  0.2687
  786MOL0     H 8425   6.452   8.975   5.820  0.8877  1.3730  1.2778
  786MOL0     H 8426   6.704   9.251   5.558  0.0099 -1.8068  3.5109
  786MOL0     H 8427   6.583   9.468   5.280 -3.9690  0.0039  0.4020
  786MOL0     H 8428   6.715   9.413   5.389 -0.2250 -0.9668 -2.3320
  786MOL0     H 8429   6.581   9.517   5.450 -1.6926 -0.5993  0.0121
  786MOL0     H 8430   6.032   9.353   5.143 -1.1593  1.0253 -0.2449
  786MOL0     H 8431   5.954   9.480   4.968  0.8576 -0.3270 -1.7842
  786MOL0     H 8432   5.979   9.566   4.751 -0.4342  0.8776 -2.6413
  786MOL0     H 8433   5.942   9.733   4.716 -0.1899 -1.4070 -2.3483
  786MOL0     H 8434   6.119   9.779   4.604  1.0993 -0.9807 -0.8458
  786MOL0     H 8435   6.225   9.674   4.701 -0.4320  1.6683  2.3484
  786MOL0     H 8436   6.124   9.487   4.599  0.2358 -1.6656 -1.3112
  786MOL0     H 8437   6.198   9.600   4.478 -1.8126  2.3744 -2.0559
  786MOL0     H 8438   5.966   9.676   4.426 -1.2166 -0.6164 -1.7117
  786MOL0     H 8439   5.902   9.543   4.534  1.2525 -2.4318  0.2656
  786MOL0     H 8440   6.070   9.492   4.283 -1.3507  1.6860 -1.5688
  786MOL0     H 8441   5.987   9.371   4.379  0.9998 -0.5666 -1.6570
  786MOL0     H 8442   5.889   9.459   4.163 -1.6684 -0.3069 -0.6642
  786MOL0     H 8443   5.879   9.618   4.231 -1.4201 -0.1383 -2.7296
  786MOL0     H 8444   5.705   9.549   4.390  3.2965  1.2385  0.6244
  786MOL0     H 8445   5.711   9.377   4.346 -0.5359 -0.4365 -1.2445
  786MOL0     H 8446   5.534   9.461   4.227  0.6828  2.0674  2.7733
  786MOL0     H 8447   5.676   9.426   4.114  1.0673 -2.0071  1.7213
  786MOL0     H 8448   6.293   9.745   5.013  2.1228 -0.9434  0.6433
  786MOL0     H 8449   6.383   9.608   5.180  0.9283  0.7457 -3.4331
  786MOL0     H 8450   6.250   9.143   5.415  0.8407 -0.1800 -1.5883
  786MOL0     H 8451   6.344   9.013   5.606  0.3843  1.5878  2.0775
  786MOL0     H 8452   7.752   9.127   5.995 -0.5164  0.7547  0.3126
  786MOL0     H 8453   7.987   9.063   5.902 -1.7998 -1.0831 -1.5676
  786MOL0     H 8454   8.283   8.508   5.923 -1.3241  0.5117 -1.9721
  786MOL0     H 8455   8.500   8.468   5.790  3.0286  1.9626 -1.7387
  786MOL0     H 8456   8.741   8.809   5.639  0.6327  0.6991 -0.7709
  786MOL0     H 8457   8.798   8.784   5.808 -3.1731 -2.2345  1.5173
  786MOL0     H 8458   8.852   8.596   5.567 -1.3664 -1.2443  1.3543
  786MOL0     H 8459   8.930   8.593   5.722 -0.7250 -1.1475 -0.9918
  786MOL0     H 8460   9.073   8.685   5.549 -1.5425 -1.9164 -0.2865
  786MOL0     H 8461   8.967   8.822   5.525 -2.9037 -0.8370 -0.4799
  786MOL0     H 8462   9.168   8.871   5.688 -0.1313  1.3620 -0.3744
  786MOL0     H 8463   9.076   8.775   5.809 -0.7267  0.9070  0.8401
  786MOL0     H 8464   8.893   9.146   5.807  2.3909  0.9017 -0.8983
  786MOL0     H 8465   8.594   8.883   5.813  1.9501 -0.5021 -0.9839
  786MOL0     H 8466   8.344   9.028   5.936 -0.9974 -0.1044 -0.4245
  786MOL0     H 8467   8.384   8.948   6.090 -0.3389 -1.9323 -0.6856
  786MOL0     H 8468   8.512   9.004   5.976 -0.5009  0.3292 -1.3769
  787MOL0     O 8469   8.466   1.351   3.532 -0.0619 -0.0526 -0.4762
  787MOL0     C 8470   8.495   1.277   3.437  0.3078  0.6807 -0.2169
  787MOL0     O 8471   8.624   1.229   3.410  0.2833 -0.2911 -0.0093
  787MOL0     C 8472   8.726   1.271   3.495 -0.3707  0.0028 -0.0430
  787MOL0     C 8473   8.760   1.209   3.612 -0.4252  0.4374  0.3131
  787MOL0     C 8474   8.872   1.257   3.686  0.0668  0.2377  0.1025
  787MOL0     C 8475   8.945   1.368   3.640  0.0153 -0.7988 -0.2495
  787MOL0     O 8476   9.052   1.417   3.711 -0.2927  0.0030  0.3581
  787MOL0     C 8477   9.064   1.385   3.851  0.1913  0.2011  0.0116
  787MOL0     C 8478   9.151   1.491   3.919 -0.1534  0.6482  0.8905
  787MOL0     C 8479   9.301   1.460   3.884  0.0517 -0.2832  0.6659
  787MOL0     C 8480   9.398   1.517   3.980 -0.1478 -0.3467 -0.7194
  787MOL0     C 8481   9.536   1.458   3.971 -0.1466  0.1522 -0.4717
  787MOL0     C 8482   9.595   1.478   3.831  0.0975 -0.3340  0.0455
  787MOL0     C 8483   9.749   1.454   3.833 -0.5288 -0.3552  0.4655
  787MOL0     C 8484   9.819   1.493   3.693  0.1497 -0.2882  0.5180
  787MOL0     N 8485   9.956   1.439   3.693  0.3864 -0.4954  0.3437
  787MOL0     C 8486  10.069   1.513   3.713 -0.0799 -0.4425  0.0227
  787MOL0     C 8487  10.166   1.426   3.732  0.4708  0.5736 -0.1412
  787MOL0     C 8488  10.302   1.464   3.778 -0.3674  0.1246 -1.3463
  787MOL0     C 8489  10.414   1.446   3.669 -0.2431 -0.4506  0.2726
  787MOL0     C 8490  10.557   1.442   3.724 -0.0135  0.5855  1.0777
  787MOL0     C 8491  10.580   1.325   3.834  0.0396 -0.5248  0.5559
  787MOL0     O 8492  10.721   1.319   3.856  0.0303 -0.0616  0.1441
  787MOL0     C 8493  10.781   1.376   3.971  0.0310  0.0704  0.2557
  787MOL0     C 8494  10.722   1.462   4.060  0.0749  0.0965  0.5833
  787MOL0     C 8495  10.771   1.503   4.187 -0.2026 -0.2725  0.3045
  787MOL0     C 8496  10.688   1.610   4.252  0.4707  0.3232 -0.0539
  787MOL0     C 8497  10.894   1.447   4.229  0.1870  0.6225  0.1464
  787MOL0     C 8498  10.953   1.462   4.366 -0.0529  0.3548 -0.0579
  787MOL0     O 8499  11.088   1.439   4.366 -0.2351  0.5329  0.0784
  787MOL0     C 8500  11.175   1.496   4.455  0.2498  0.0305  0.5897
  787MOL0     C 8501  11.301   1.436   4.483  0.0432  0.0756 -0.1809
  787MOL0     C 8502  11.401   1.508   4.546  0.1049  0.3117 -0.5849
  787MOL0     C 8503  11.379   1.633   4.596  0.2559 -0.3478  0.5169
  787MOL0     O 8504  11.485   1.705   4.646 -1.0236  0.1511 -0.3724
  787MOL0     C 8505  11.572   1.633   4.739  0.1820 -0.7944  0.5864
  787MOL0     C 8506  11.669   1.740   4.784  0.5925  0.4284 -1.6311
  787MOL0     C 8507  11.764   1.700   4.896 -0.0790  0.4058  0.0434
  787MOL0     C 8508  11.840   1.567   4.874  0.4774 -0.2197 -0.6076
  787MOL0     C 8509  11.955   1.530   4.981  0.5446  0.7164  0.5663
  787MOL0     C 8510  12.064   1.629   5.005  0.0486 -0.8336 -0.2842
  787MOL0     C 8511  12.137   1.664   4.876 -0.6654  0.5323  0.3178
  787MOL0     C 8512  12.172   1.541   4.789  0.4496 -0.2062 -0.1039
  787MOL0    Cl 8513  12.309   1.466   4.870 -0.2417  0.0586 -0.4149
  787MOL0     C 8514  11.256   1.690   4.587 -0.0805  0.1421 -0.3960
  787MOL0     C 8515  11.158   1.628   4.512 -0.1243 -0.0140 -0.1588
  787MOL0     O 8516  10.888   1.489   4.460  0.3690 -0.5744 -0.3728
  787MOL0     C 8517  10.967   1.369   4.131  0.8444 -0.4730  0.7853
  787MOL0     C 8518  10.908   1.341   4.008 -0.1884 -0.0250  0.1191
  787MOL0     N 8519  10.123   1.296   3.718  0.2529  0.4316 -0.2731
  787MOL0     N 8520   9.990   1.305   3.701 -0.0136  0.6371 -0.6352
  787MOL0     C 8521   8.914   1.430   3.518  0.5425  0.4224 -0.6816
  787MOL0     C 8522   8.804   1.381   3.451  0.7053 -0.1239  0.5541
  787MOL0     C 8523   8.382   1.225   3.340  0.4013  1.2625  0.4267
  787MOL0     C 8524   8.415   1.111   3.267 -0.1568 -0.0736 -0.3356
  787MOL0     C 8525   8.338   1.061   3.166  0.6022 -0.3927  0.6358
  787MOL0     C 8526   8.208   1.125   3.147 -0.4843 -0.6934  0.2400
  787MOL0     O 8527   8.132   1.088   3.042 -0.4033 -0.7062 -0.7983
  787MOL0     C 8528   8.069   1.191   2.968  0.2480 -0.4593 -0.0075
  787MOL0     C 8529   8.072   1.160   2.817  0.4363 -0.7107 -0.7214
  787MOL0     C 8530   8.072   1.003   2.806  0.2262 -0.6022  0.0106
  787MOL0     C 8531   8.070   0.972   2.653 -0.1098 -0.6251 -0.3687
  787MOL0     C 8532   7.932   0.994   2.595  0.6118 -0.0795 -0.6392
  787MOL0     C 8533   7.821   1.010   2.550  0.5726 -0.6354 -0.6243
  787MOL0     C 8534   8.167   1.224   3.239  0.0918 -0.2319 -0.5938
  787MOL0     C 8535   8.252   1.288   3.329 -0.0568  0.7593  0.4760
  787MOL0     C 8536   8.201   1.409   3.403 -0.2274 -0.7871 -0.1702
  787MOL0     H 8537   8.692   1.130   3.643 -0.3325 -0.2009 -1.0573
  787MOL0     H 8538   8.902   1.214   3.781  3.1690 -3.5164 -2.2969
  787MOL0     H 8539   9.098   1.282   3.865  2.8087  1.0664  0.5594
  787MOL0     H 8540   8.965   1.390   3.899  1.2223  0.0483  2.3044
  787MOL0     H 8541   9.132   1.585   3.867 -3.6816 -0.8394 -0.8821
  787MOL0     H 8542   9.126   1.499   4.025  0.8315 -0.2431  1.2180
  787MOL0     H 8543   9.326   1.354   3.886  6.6066  0.8480  2.1099
  787MOL0     H 8544   9.335   1.495   3.786  3.1608  0.6144  1.9379
  787MOL0     H 8545   9.409   1.625   3.966  0.4150 -0.2544  0.2985
  787MOL0     H 8546   9.364   1.494   4.081  3.2198  1.0193  0.8808
  787MOL0     H 8547   9.531   1.351   3.995 -2.8317 -0.3377 -2.5999
  787MOL0     H 8548   9.598   1.515   4.040 -0.2911  2.0403 -1.8368
  787MOL0     H 8549   9.556   1.402   3.762  0.8420  1.1601 -2.1678
  787MOL0     H 8550   9.569   1.577   3.792 -0.6051 -0.5717 -0.1033
  787MOL0     H 8551   9.758   1.346   3.850  2.9718 -0.3941 -0.8790
  787MOL0     H 8552   9.804   1.509   3.910  2.0720 -0.1941 -1.3509
  787MOL0     H 8553   9.768   1.453   3.604  0.7677 -2.4563  1.0730
  787MOL0     H 8554   9.830   1.602   3.693  0.2590 -0.2994  0.4548
  787MOL0     H 8555  10.075   1.621   3.712  0.5142 -0.4408  1.5238
  787MOL0     H 8556  10.321   1.404   3.867  0.3355  1.7658 -0.3368
  787MOL0     H 8557  10.293   1.568   3.812 -2.9669 -0.4501 -0.0039
  787MOL0     H 8558  10.401   1.357   3.607  0.9685 -0.1310 -0.4548
  787MOL0     H 8559  10.400   1.531   3.601 -0.5365  0.4583  1.4414
  787MOL0     H 8560  10.632   1.430   3.644  0.9851  0.5756  1.9908
  787MOL0     H 8561  10.582   1.541   3.764  4.0546 -1.1587  3.5640
  787MOL0     H 8562  10.516   1.351   3.919  0.1639  2.3470 -0.1006
  787MOL0     H 8563  10.552   1.230   3.789  2.8460 -0.7424 -0.9104
  787MOL0     H 8564  10.630   1.507   4.024 -1.2582 -2.4252  0.6564
  787MOL0     H 8565  10.621   1.656   4.179 -0.0341 -2.2497 -1.3332
  787MOL0     H 8566  10.763   1.679   4.291  0.1250 -0.1198  1.4493
  787MOL0     H 8567  10.617   1.578   4.329 -0.0719 -1.3934 -1.2024
  787MOL0     H 8568  11.324   1.338   4.444 -0.6620  0.9908 -3.1814
  787MOL0     H 8569  11.500   1.464   4.553  0.0953  0.4527  0.4798
  787MOL0     H 8570  11.519   1.603   4.830 -0.0743  0.4427  0.8500
  787MOL0     H 8571  11.627   1.559   4.679  2.3408  2.2506 -1.4692
  787MOL0     H 8572  11.732   1.776   4.702  1.8601  2.3486  0.0916
  787MOL0     H 8573  11.609   1.823   4.821  2.7510  1.0053  0.9197
  787MOL0     H 8574  11.704   1.689   4.987 -0.0612 -0.2390 -0.0137
  787MOL0     H 8575  11.833   1.779   4.927 -1.4968  1.0474  1.7831
  787MOL0     H 8576  11.880   1.579   4.773 -1.0510 -0.8937 -1.3146
  787MOL0     H 8577  11.776   1.478   4.870  0.7268 -0.3857 -0.9469
  787MOL0     H 8578  11.913   1.512   5.080  3.4166 -2.6265  1.4113
  787MOL0     H 8579  12.000   1.439   4.940 -1.2062  0.3477 -0.5947
  787MOL0     H 8580  12.139   1.590   5.075 -0.4490  2.6665  2.5169
  787MOL0     H 8581  12.016   1.716   5.051  2.9394  1.2123 -0.8695
  787MOL0     H 8582  12.229   1.723   4.885  0.8720 -1.5649 -0.7037
  787MOL0     H 8583  12.064   1.729   4.826 -0.6065  3.8104  4.0388
  787MOL0     H 8584  12.213   1.574   4.693  0.7456 -0.7469 -0.1689
  787MOL0     H 8585  12.089   1.470   4.784 -0.3954  0.3304  3.3515
  787MOL0     H 8586  11.250   1.792   4.626 -1.5264 -0.4664  1.0720
  787MOL0     H 8587  11.061   1.672   4.492 -0.8655 -1.3323  0.4063
  787MOL0     H 8588  11.064   1.324   4.147  0.8619 -2.0539 -2.7224
  787MOL0     H 8589  10.963   1.283   3.934 -0.9702 -1.7344  0.8044
  787MOL0     H 8590   8.968   1.519   3.488  0.0846  1.2206  0.7855
  787MOL0     H 8591   8.782   1.428   3.356 -2.3482  1.9646  2.1294
  787MOL0     H 8592   8.505   1.052   3.282 -0.4182 -0.2622  0.5515
  787MOL0     H 8593   8.374   0.989   3.093  1.0450  1.1707 -0.7671
  787MOL0     H 8594   7.967   1.195   3.008  0.2607 -1.7827  0.2129
  787MOL0     H 8595   8.103   1.293   2.985 -0.3052 -0.0968 -0.9915
  787MOL0     H 8596   8.173   1.198   2.798  0.3557  1.0137  1.8839
  787MOL0     H 8597   7.992   1.217   2.768  0.2027 -0.4070 -0.0049
  787MOL0     H 8598   8.168   0.964   2.840  0.9313  0.1453 -1.0572
  787MOL0     H 8599   7.984   0.970   2.861  0.1242  2.4224  1.9034
  787MOL0     H 8600   8.110   0.872   2.634 -0.1955 -0.1228 -3.8267
  787MOL0     H 8601   8.137   1.042   2.603 -0.4348  0.8104  1.1306
  787MOL0     H 8602   7.718   1.013   2.522  0.3251  2.3776  0.2213
  787MOL0     H 8603   8.068   1.268   3.241  0.1400 -0.0024  2.8583
  787MOL0     H 8604   8.095   1.426   3.380 -0.3378  1.4471  1.6136
  787MOL0     H 8605   8.203   1.382   3.509  0.8675  1.1448  0.3547
  787MOL0     H 8606   8.260   1.500   3.393 -2.5616  0.7751 -0.4580
  788MOL0     O 8607   8.463   5.844   7.709  0.7149  0.0887 -0.5286
  788MOL0     C 8608   8.531   5.817   7.806 -0.7054 -0.7183 -0.2528
  788MOL0     O 8609   8.486   5.790   7.930  0.2788  0.0578 -0.2322
  788MOL0     C 8610   8.350   5.779   7.948 -0.0493 -0.7968 -0.7075
  788MOL0     C 8611   8.277   5.897   7.996 -0.3716  0.0425 -0.4883
  788MOL0     C 8612   8.147   5.881   8.022  0.0110  0.4290  0.0445
  788MOL0     C 8613   8.080   5.755   8.003  0.1673 -0.7003 -0.6936
  788MOL0     O 8614   7.949   5.753   8.039 -0.3526  0.6317  0.3605
  788MOL0     C 8615   7.921   5.659   8.149 -0.1636  0.4429 -0.1374
  788MOL0     C 8616   7.770   5.653   8.175 -0.1418  0.6744 -0.5728
  788MOL0     C 8617   7.695   5.562   8.079 -0.3571  0.1096  0.2411
  788MOL0     C 8618   7.706   5.600   7.918 -0.2933 -0.3716  0.1082
  788MOL0     C 8619   7.766   5.481   7.843  0.2955  0.0430  0.8005
  788MOL0     C 8620   7.778   5.508   7.684  0.1142  0.7564 -0.3031
  788MOL0     C 8621   7.793   5.362   7.620 -0.7390 -0.8417 -0.2834
  788MOL0     C 8622   7.921   5.295   7.661 -0.7896 -0.2510  0.3864
  788MOL0     N 8623   8.049   5.377   7.656 -0.2082  0.3504 -0.1451
  788MOL0     C 8624   8.111   5.432   7.546  0.4455  0.3360  0.1128
  788MOL0     C 8625   8.237   5.458   7.575 -0.0515 -0.1067 -0.6606
  788MOL0     C 8626   8.336   5.533   7.482 -0.9528 -0.2436  0.0465
  788MOL0     C 8627   8.480   5.504   7.539 -1.0129 -0.4124  0.9856
  788MOL0     C 8628   8.588   5.564   7.440  0.7003 -0.3263  0.1642
  788MOL0     C 8629   8.717   5.588   7.510  0.1437 -0.5337  0.2301
  788MOL0     O 8630   8.793   5.670   7.416  0.4818  0.1605  0.2681
  788MOL0     C 8631   8.929   5.670   7.437 -0.0852  0.8212  0.8533
  788MOL0     C 8632   9.002   5.764   7.364 -1.1171  0.4180  0.8746
  788MOL0     C 8633   9.141   5.772   7.378 -0.0403 -0.9586  0.1736
  788MOL0     C 8634   9.204   5.871   7.285  0.1097 -0.0657 -0.2789
  788MOL0     C 8635   9.206   5.688   7.470 -1.0648 -0.9483  0.6093
  788MOL0     C 8636   9.352   5.708   7.502  0.3244  0.3611 -0.9208
  788MOL0     O 8637   9.432   5.606   7.545 -0.2094 -0.4699 -0.5749
  788MOL0     C 8638   9.563   5.636   7.575  0.7443  0.6398  0.0374
  788MOL0     C 8639   9.655   5.643   7.477 -0.4778  0.5484  0.6495
  788MOL0     C 8640   9.794   5.653   7.498 -0.3779  0.1916  0.1798
  788MOL0     C 8641   9.838   5.651   7.630  0.3173  0.5134 -0.4945
  788MOL0     O 8642   9.968   5.634   7.670  0.1121 -1.3913 -0.7814
  788MOL0     C 8643  10.057   5.585   7.577 -0.3219  0.3742 -0.0575
  788MOL0     C 8644  10.197   5.567   7.625  0.3601  0.9790 -0.2905
  788MOL0     C 8645  10.212   5.454   7.722  0.7938 -0.1377 -0.0353
  788MOL0     C 8646  10.360   5.425   7.751  0.3498 -0.4050 -0.0208
  788MOL0     C 8647  10.394   5.410   7.900 -0.4428 -0.5909  0.5015
  788MOL0     C 8648  10.528   5.334   7.927  0.4100 -0.4123 -0.1264
  788MOL0     C 8649  10.540   5.304   8.080  0.1897  0.0740 -0.3624
  788MOL0     C 8650  10.684   5.302   8.130  0.0834 -0.3305 -0.3360
  788MOL0    Cl 8651  10.684   5.230   8.294 -0.1067 -0.1990  0.2426
  788MOL0     C 8652   9.744   5.650   7.736 -0.2573 -0.1729  0.4478
  788MOL0     C 8653   9.605   5.639   7.709 -0.2067  0.0806 -0.1277
  788MOL0     O 8654   9.384   5.827   7.496  0.1332  0.3502 -0.2545
  788MOL0     C 8655   9.134   5.600   7.544  1.0321 -0.0260 -0.7370
  788MOL0     C 8656   8.998   5.591   7.529 -0.4206 -0.3964  0.0891
  788MOL0     N 8657   8.268   5.419   7.701  0.4007 -0.1838  0.8012
  788MOL0     N 8658   8.154   5.382   7.751 -0.9467 -0.2675  0.6937
  788MOL0     C 8659   8.150   5.650   7.942  0.2593 -0.5518  0.2718
  788MOL0     C 8660   8.288   5.661   7.920  1.0621 -0.2362 -0.7846
  788MOL0     C 8661   8.686   5.832   7.797 -0.1257 -0.1232 -0.5508
  788MOL0     C 8662   8.757   5.795   7.914 -0.8611 -0.5213  0.3934
  788MOL0     C 8663   8.895   5.813   7.915  0.5477 -0.1394  0.4478
  788MOL0     C 8664   8.960   5.866   7.802 -0.0937  0.3112 -0.4123
  788MOL0     O 8665   9.095   5.874   7.807 -0.3223 -0.0195 -0.0145
  788MOL0     C 8666   9.175   5.952   7.711 -0.7588 -0.2821 -0.2190
  788MOL0     C 8667   9.179   6.094   7.763  0.1510 -1.8055  0.0413
  788MOL0     C 8668   9.234   6.198   7.656 -0.9698 -0.3405 -0.1675
  788MOL0     C 8669   9.127   6.241   7.556 -0.7324  0.1636  0.5158
  788MOL0     C 8670   9.169   6.357   7.476 -0.1022  0.7367 -0.1303
  788MOL0     C 8671   9.212   6.458   7.422  0.6464  0.3400  1.2136
  788MOL0     C 8672   8.891   5.907   7.693  0.0053  0.0836 -0.4112
  788MOL0     C 8673   8.759   5.888   7.686  0.6541 -0.7474 -0.3674
  788MOL0     C 8674   8.695   5.950   7.572 -0.0632  0.7329  0.1203
  788MOL0     H 8675   8.323   5.988   8.032  1.6363 -0.9017 -0.4853
  788MOL0     H 8676   8.079   5.961   8.051  1.2999  2.8974 -3.2215
  788MOL0     H 8677   7.959   5.685   8.248 -0.1294 -0.6926  0.1682
  788MOL0     H 8678   7.962   5.560   8.125  2.2735  1.0270  1.2600
  788MOL0     H 8679   7.743   5.618   8.275  2.5487 -1.3890 -0.4415
  788MOL0     H 8680   7.720   5.749   8.155 -2.6080 -0.6720 -1.2787
  788MOL0     H 8681   7.738   5.462   8.095  1.2318  0.7114 -0.0816
  788MOL0     H 8682   7.589   5.556   8.106  0.1545  0.3364  2.4819
  788MOL0     H 8683   7.605   5.614   7.879 -0.5520 -3.6993 -0.7494
  788MOL0     H 8684   7.770   5.687   7.901  1.2246 -1.3517  0.6195
  788MOL0     H 8685   7.702   5.393   7.854 -0.0255 -0.2861 -2.5856
  788MOL0     H 8686   7.867   5.453   7.874 -1.1080 -3.8065  2.5196
  788MOL0     H 8687   7.688   5.558   7.646  0.2747  0.9477 -0.4365
  788MOL0     H 8688   7.855   5.584   7.669  0.3024  0.7108  0.4142
  788MOL0     H 8689   7.789   5.366   7.511 -2.3491 -2.4234 -0.3268
  788MOL0     H 8690   7.706   5.301   7.649 -1.8424  0.5374 -0.5906
  788MOL0     H 8691   7.910   5.243   7.757  2.8899  0.2907  1.2508
  788MOL0     H 8692   7.937   5.217   7.586  3.0469 -0.3564  1.1385
  788MOL0     H 8693   8.055   5.439   7.453  2.1788 -1.3123 -1.1241
  788MOL0     H 8694   8.327   5.642   7.490 -0.6639 -0.2213  0.0907
  788MOL0     H 8695   8.329   5.503   7.377 -1.0916  0.0618 -0.0319
  788MOL0     H 8696   8.495   5.542   7.640 -2.5690 -0.7158  1.3647
  788MOL0     H 8697   8.479   5.394   7.535 -2.2221 -0.3872 -1.2075
  788MOL0     H 8698   8.599   5.503   7.350 -1.0689 -0.9173  0.2959
  788MOL0     H 8699   8.552   5.664   7.412 -3.3396 -1.4192  0.8382
  788MOL0     H 8700   8.705   5.623   7.613 -1.0727  0.3579 -0.1916
  788MOL0     H 8701   8.763   5.490   7.529 -0.0619 -0.3546  1.7649
  788MOL0     H 8702   8.953   5.814   7.281  1.6477  0.3561 -0.9231
  788MOL0     H 8703   9.297   5.829   7.244  0.3879 -1.0652  1.2772
  788MOL0     H 8704   9.228   5.955   7.350 -1.0931  0.2639 -0.2537
  788MOL0     H 8705   9.127   5.905   7.216 -1.5056  1.1021  1.9778
  788MOL0     H 8706   9.617   5.634   7.375  1.2577  0.9329 -0.0662
  788MOL0     H 8707   9.865   5.664   7.417  1.2133 -2.2525  1.1169
  788MOL0     H 8708  10.019   5.493   7.530  1.5917 -0.4963  0.0039
  788MOL0     H 8709  10.070   5.652   7.493  0.4162 -2.5838 -2.4947
  788MOL0     H 8710  10.272   5.551   7.546  2.0943 -0.0493  1.4698
  788MOL0     H 8711  10.227   5.661   7.671  1.7886  1.2821 -1.7534
  788MOL0     H 8712  10.162   5.364   7.686 -0.6534  1.1095 -1.3014
  788MOL0     H 8713  10.169   5.479   7.820 -1.1849 -1.9880 -0.3720
  788MOL0     H 8714  10.422   5.509   7.718  1.2419 -0.6624  0.9131
  788MOL0     H 8715  10.396   5.344   7.687 -0.9793 -1.2979  0.3208
  788MOL0     H 8716  10.388   5.499   7.963 -1.4006 -0.5589  0.3828
  788MOL0     H 8717  10.319   5.339   7.939  1.6312 -3.5278 -0.4995
  788MOL0     H 8718  10.610   5.395   7.888  2.1171 -3.2623 -1.2985
  788MOL0     H 8719  10.525   5.238   7.876 -2.3821 -0.2854 -0.3925
  788MOL0     H 8720  10.489   5.207   8.092 -5.5844  2.7792  0.5283
  788MOL0     H 8721  10.483   5.368   8.148 -2.2569  0.3188 -2.5091
  788MOL0     H 8722  10.726   5.403   8.130  0.1274 -0.3296  1.1127
  788MOL0     H 8723  10.738   5.246   8.052 -0.8413  1.1776 -2.1576
  788MOL0     H 8724   9.789   5.655   7.835  2.2041 -0.9005 -0.5575
  788MOL0     H 8725   9.537   5.630   7.793  0.1083 -1.7386 -0.0276
  788MOL0     H 8726   9.179   5.527   7.611  1.1978  0.2092 -0.5902
  788MOL0     H 8727   8.947   5.523   7.596 -0.1937  0.4009  1.0988
  788MOL0     H 8728   8.103   5.558   7.910  0.6280 -1.5890  2.4651
  788MOL0     H 8729   8.338   5.575   7.879 -0.8214 -2.4975  1.3467
  788MOL0     H 8730   8.710   5.752   8.002  1.8201  0.3755  2.4251
  788MOL0     H 8731   8.954   5.783   8.001  0.9372  0.7813  0.5163
  788MOL0     H 8732   9.273   5.903   7.707 -0.8847 -0.4673 -2.3928
  788MOL0     H 8733   9.142   5.949   7.606  1.3532 -1.4633 -0.9055
  788MOL0     H 8734   9.234   6.094   7.858 -0.0997  0.7168  0.2474
  788MOL0     H 8735   9.078   6.130   7.786  0.2839 -0.7490 -0.9780
  788MOL0     H 8736   9.275   6.292   7.695  0.3175  1.0675 -4.3356
  788MOL0     H 8737   9.321   6.160   7.601 -1.9492 -0.7088 -1.4887
  788MOL0     H 8738   9.041   6.273   7.615 -0.4282  0.0733  1.0126
  788MOL0     H 8739   9.096   6.160   7.489 -1.9340  0.2937  0.8853
  788MOL0     H 8740   9.237   6.548   7.369  1.9321 -1.8875 -2.2807
  788MOL0     H 8741   8.946   5.954   7.612  0.2359  2.7527  1.1824
  788MOL0     H 8742   8.649   5.871   7.510  1.7798 -0.0760 -0.2718
  788MOL0     H 8743   8.618   6.020   7.605 -0.5283  1.6242 -2.5820
  788MOL0     H 8744   8.766   6.006   7.511  0.9633 -1.3511 -0.7104
  789MOL0     O 8745   6.105   3.277   1.011  0.1458  0.6724  0.2446
  789MOL0     C 8746   6.002   3.226   1.059  0.4945 -0.0199  0.0981
  789MOL0     O 8747   5.901   3.165   0.990  0.5506  0.3708 -0.0182
  789MOL0     C 8748   5.920   3.147   0.850 -0.5535 -0.1831 -0.3308
  789MOL0     C 8749   5.797   3.127   0.780 -1.0602  0.4344  0.5217
  789MOL0     C 8750   5.800   3.100   0.639  0.4512 -1.0172 -0.1368
  789MOL0     C 8751   5.918   3.092   0.566  0.0490 -0.2468 -0.7869
  789MOL0     O 8752   5.931   3.042   0.442 -0.4837  0.2078  0.1297
  789MOL0     C 8753   5.835   3.071   0.339 -0.3461  0.4489  0.6392
  789MOL0     C 8754   5.827   3.218   0.299 -0.2053 -0.2994 -0.4527
  789MOL0     C 8755   5.950   3.257   0.224 -0.3785 -0.2441 -0.0500
  789MOL0     C 8756   5.923   3.392   0.151 -0.3176 -0.2561 -0.1241
  789MOL0     C 8757   6.051   3.441   0.074  0.3072  0.4339 -0.4689
  789MOL0     C 8758   6.186   3.419   0.154  0.4800 -0.6520  0.3596
  789MOL0     C 8759   6.282   3.535   0.108 -0.2304  0.4729 -0.1538
  789MOL0     C 8760   6.433   3.491   0.100 -0.7231  1.3086  0.0517
  789MOL0     N 8761   6.527   3.598   0.072 -0.0979 -0.4973  0.9108
  789MOL0     C 8762   6.657   3.591   0.022 -0.1073 -0.8866 -0.0152
  789MOL0     C 8763   6.694   3.722   0.002 -0.1226 -0.2950 -0.0111
  789MOL0     C 8764   6.820   3.791  -0.043 -0.8072 -0.0477  0.8804
  789MOL0     C 8765   6.828   3.841  -0.186  0.3258 -0.3487 -0.4001
  789MOL0     C 8766   6.690   3.902  -0.239 -0.4144 -0.3430  0.1835
  789MOL0     C 8767   6.696   3.931  -0.390 -0.8200  0.1466 -0.9141
  789MOL0     O 8768   6.786   4.034  -0.420 -0.4074 -0.3764 -0.0830
  789MOL0     C 8769   6.881   4.020  -0.517  0.6700  0.3819  0.0206
  789MOL0     C 8770   6.995   4.068  -0.487  0.4777  0.0382  0.5286
  789MOL0     C 8771   7.109   4.066  -0.579 -0.8666  0.0250 -0.0288
  789MOL0     C 8772   7.227   4.149  -0.523  0.1862  0.2382 -0.0971
  789MOL0     C 8773   7.096   4.007  -0.705  0.1473  0.8938  0.1266
  789MOL0     C 8774   7.215   4.002  -0.796  0.4043 -0.1705  0.6470
  789MOL0     O 8775   7.202   3.912  -0.902 -1.1961  0.9477 -0.7108
  789MOL0     C 8776   7.324   3.876  -0.961 -0.4801  0.8338  0.4259
  789MOL0     C 8777   7.397   3.974  -1.023  0.2693 -0.3617 -0.7297
  789MOL0     C 8778   7.520   3.936  -1.082  0.5349 -0.2442 -0.0299
  789MOL0     C 8779   7.566   3.803  -1.068  0.3427 -0.1699 -0.0233
  789MOL0     O 8780   7.693   3.758  -1.112 -0.0695 -0.3093  0.3180
  789MOL0     C 8781   7.753   3.811  -1.237 -0.2205  0.4298 -0.4538
  789MOL0     C 8782   7.694   3.717  -1.344  0.2665  0.3754  0.3409
  789MOL0     C 8783   7.744   3.575  -1.321 -0.3101 -1.1975  0.0619
  789MOL0     C 8784   7.729   3.486  -1.441  0.3471  0.4442  0.6364
  789MOL0     C 8785   7.858   3.456  -1.518 -0.5549  0.7597  0.5311
  789MOL0     C 8786   7.845   3.335  -1.610  0.4901  0.0790 -0.1485
  789MOL0     C 8787   7.952   3.346  -1.715 -0.3092  0.2483  0.1342
  789MOL0     C 8788   7.995   3.206  -1.761  0.5539 -1.1697 -1.0300
  789MOL0    Cl 8789   8.111   3.142  -1.644 -0.0816 -0.0890  0.1963
  789MOL0     C 8790   7.484   3.707  -1.008  0.2561 -0.5075  1.0310
  789MOL0     C 8791   7.362   3.745  -0.955  0.5404  0.8072  0.4975
  789MOL0     O 8792   7.315   4.066  -0.764 -0.1094  0.4910  0.5491
  789MOL0     C 8793   6.969   3.955  -0.734 -0.6238 -0.3409  0.2874
  789MOL0     C 8794   6.860   3.965  -0.643 -0.1190  0.5201  0.1400
  789MOL0     N 8795   6.593   3.796   0.060  0.0187 -0.3696 -0.3594
  789MOL0     N 8796   6.500   3.721   0.109  0.2276  0.9458 -0.5565
  789MOL0     C 8797   6.034   3.110   0.644 -0.2819 -0.0449  0.3893
  789MOL0     C 8798   6.046   3.124   0.784  0.1967  0.5958  0.8077
  789MOL0     C 8799   5.988   3.232   1.203  0.1162  0.0647  0.2647
  789MOL0     C 8800   5.878   3.301   1.256  0.4538 -0.2424  0.0655
  789MOL0     C 8801   5.876   3.309   1.394  0.9587 -0.3983 -0.3084
  789MOL0     C 8802   5.970   3.255   1.484  0.9761 -0.1971  0.1222
  789MOL0     O 8803   5.946   3.300   1.612 -0.0879 -0.4158  0.0838
  789MOL0     C 8804   6.008   3.233   1.727 -0.0491  0.4527  0.5511
  789MOL0     C 8805   5.939   3.275   1.861 -0.1796  0.4382 -0.2335
  789MOL0     C 8806   5.953   3.427   1.866  1.2599  0.2954 -0.5203
  789MOL0     C 8807   5.911   3.472   2.003 -0.0611  0.3924 -0.0288
  789MOL0     C 8808   5.764   3.450   2.030 -0.8332 -1.0190  0.2326
  789MOL0     C 8809   5.648   3.444   2.057  1.1710  0.6201 -0.2149
  789MOL0     C 8810   6.084   3.194   1.433  0.1364  0.5700 -0.1911
  789MOL0     C 8811   6.090   3.176   1.293 -0.2291  1.0467  0.5794
  789MOL0     C 8812   6.223   3.115   1.245 -0.6959 -0.1276  1.0066
  789MOL0     H 8813   5.702   3.140   0.831 -2.2710 -0.3000 -1.3998
  789MOL0     H 8814   5.703   3.070   0.602  1.2910 -1.8655 -1.7257
  789MOL0     H 8815   5.735   3.037   0.369 -0.6570  1.4209  0.7274
  789MOL0     H 8816   5.857   3.015   0.248 -1.1192  1.3870 -0.1365
  789MOL0     H 8817   5.737   3.219   0.236 -1.7974 -2.3058  1.6183
  789MOL0     H 8818   5.803   3.284   0.383 -1.0647  0.5809 -1.3516
  789MOL0     H 8819   6.042   3.257   0.284  1.3773  0.6396 -2.5855
  789MOL0     H 8820   5.971   3.170   0.161  0.8307 -0.0595  0.0880
  789MOL0     H 8821   5.842   3.374   0.080 -0.3655 -3.0200  0.5351
  789MOL0     H 8822   5.898   3.469   0.224  2.7188 -0.1331  0.9408
  789MOL0     H 8823   6.044   3.550   0.061 -0.3982  0.2490 -1.8881
  789MOL0     H 8824   6.064   3.389  -0.022  1.4174  2.2085 -1.3381
  789MOL0     H 8825   6.172   3.431   0.262 -2.3625 -0.1876  0.0090
  789MOL0     H 8826   6.227   3.322   0.124 -2.5511 -1.6135 -0.9845
  789MOL0     H 8827   6.278   3.621   0.176 -1.8150 -0.5748  1.1713
  789MOL0     H 8828   6.248   3.576   0.012 -1.2453 -0.2622 -0.1234
  789MOL0     H 8829   6.470   3.449   0.194 -0.6317  2.5820  0.6173
  789MOL0     H 8830   6.438   3.416   0.021 -3.0673  1.4380 -0.3038
  789MOL0     H 8831   6.704   3.495   0.002 -0.0420 -1.0879  1.0664
  789MOL0     H 8832   6.897   3.714  -0.031 -2.2822 -2.3420 -2.8209
  789MOL0     H 8833   6.843   3.874   0.024  0.0251 -1.4811  2.4572
  789MOL0     H 8834   6.909   3.914  -0.188  1.4753 -1.5331  0.8059
  789MOL0     H 8835   6.854   3.765  -0.261  0.8235 -0.9378  0.3574
  789MOL0     H 8836   6.626   3.816  -0.218  1.0103 -1.1981  1.1707
  789MOL0     H 8837   6.654   3.987  -0.181  0.9681 -0.4396  1.2359
  789MOL0     H 8838   6.721   3.842  -0.449 -1.9283  0.6877 -2.2545
  789MOL0     H 8839   6.599   3.972  -0.422 -1.0655  0.9395  0.6941
  789MOL0     H 8840   7.001   4.109  -0.387  0.6748 -0.7370  0.8427
  789MOL0     H 8841   7.217   4.252  -0.559  1.0701  0.4150  0.1513
  789MOL0     H 8842   7.329   4.117  -0.544  0.2179 -0.4185  0.9571
  789MOL0     H 8843   7.214   4.156  -0.414 -0.0825 -0.7572 -0.0527
  789MOL0     H 8844   7.363   4.077  -1.027 -0.3217 -0.4876  0.4522
  789MOL0     H 8845   7.591   4.007  -1.122  1.4245 -0.7096  0.6867
  789MOL0     H 8846   7.731   3.918  -1.243 -2.4662  0.3310  3.0617
  789MOL0     H 8847   7.862   3.804  -1.240 -0.3053 -0.9174 -0.9195
  789MOL0     H 8848   7.588   3.726  -1.370  0.1707 -0.3256  0.4894
  789MOL0     H 8849   7.745   3.755  -1.433  0.7351  2.5254  1.4504
  789MOL0     H 8850   7.700   3.524  -1.235  1.1781  0.5161  1.9492
  789MOL0     H 8851   7.851   3.579  -1.297  0.2789  0.2185 -2.4999
  789MOL0     H 8852   7.655   3.518  -1.516  1.7910  0.6691 -0.7392
  789MOL0     H 8853   7.690   3.388  -1.412  1.8412 -2.5235 -5.6436
  789MOL0     H 8854   7.884   3.542  -1.581 -2.6530  0.6773 -0.5124
  789MOL0     H 8855   7.931   3.437  -1.438  0.2903 -0.1593 -0.4223
  789MOL0     H 8856   7.750   3.324  -1.663  1.6282 -1.7767 -1.9849
  789MOL0     H 8857   7.860   3.242  -1.553  0.8832  1.2888  1.7990
  789MOL0     H 8858   8.038   3.405  -1.682 -1.6006  1.9611  0.6187
  789MOL0     H 8859   7.915   3.390  -1.808  2.4093  0.7635 -0.7815
  789MOL0     H 8860   8.042   3.207  -1.860 -0.0105 -3.6677 -1.3795
  789MOL0     H 8861   7.920   3.128  -1.776  2.2083 -2.9905 -0.3748
  789MOL0     H 8862   7.527   3.609  -0.989  0.5382 -0.2911  1.5210
  789MOL0     H 8863   7.292   3.671  -0.918  0.1461  0.2263 -1.3146
  789MOL0     H 8864   6.957   3.885  -0.816 -2.7064 -0.0439  0.2804
  789MOL0     H 8865   6.769   3.910  -0.663  0.4803 -0.8698  1.0895
  789MOL0     H 8866   6.128   3.103   0.590  0.1102 -0.2537  1.0774
  789MOL0     H 8867   6.134   3.116   0.847 -0.0010 -0.8388  0.9464
  789MOL0     H 8868   5.798   3.335   1.192  1.2784  0.4145 -0.6379
  789MOL0     H 8869   5.790   3.353   1.443 -0.1487 -2.7236 -0.0237
  789MOL0     H 8870   5.983   3.127   1.719  1.3233  0.2164 -0.9068
  789MOL0     H 8871   6.114   3.258   1.726 -0.0570  0.6477 -2.4106
  789MOL0     H 8872   5.986   3.224   1.945  1.8053  1.5317 -0.6069
  789MOL0     H 8873   5.839   3.232   1.856  1.1436 -3.0871  0.7998
  789MOL0     H 8874   6.053   3.461   1.840  0.7580  0.1881 -2.7566
  789MOL0     H 8875   5.890   3.481   1.796 -0.5887 -0.6861  0.3105
  789MOL0     H 8876   5.923   3.581   2.012 -6.0694  1.2775  1.9229
  789MOL0     H 8877   5.966   3.424   2.084 -1.3659  0.3542  0.8658
  789MOL0     H 8878   5.542   3.431   2.059  1.3320 -3.4296 -3.8984
  789MOL0     H 8879   6.160   3.166   1.505 -2.9940  0.9356  3.5907
  789MOL0     H 8880   6.277   3.199   1.200 -1.6071 -1.3476 -2.8020
  789MOL0     H 8881   6.276   3.075   1.331  0.1157  2.6213  1.8775
  789MOL0     H 8882   6.207   3.034   1.173 -1.6092  0.4937  0.4840
  790MOL0     O 8883   9.417   7.301   1.463 -0.7477 -0.0296  0.5114
  790MOL0     C 8884   9.397   7.187   1.495 -0.5304 -0.5419  0.2005
  790MOL0     O 8885   9.316   7.150   1.595 -0.0485 -0.5161  0.2266
  790MOL0     C 8886   9.229   7.238   1.661 -0.9429  0.6537  0.2130
  790MOL0     C 8887   9.093   7.217   1.651 -0.2270  0.1731  0.3705
  790MOL0     C 8888   9.000   7.297   1.726 -0.6850  0.7718 -0.1985
  790MOL0     C 8889   9.049   7.408   1.801 -0.1170 -0.2689 -0.0890
  790MOL0     O 8890   8.972   7.486   1.891 -0.5993  0.1510  0.9455
  790MOL0     C 8891   8.834   7.459   1.912 -0.8703 -0.5566  0.0054
  790MOL0     C 8892   8.743   7.534   1.821 -0.2440  0.1655 -0.1187
  790MOL0     C 8893   8.790   7.680   1.801 -0.5163 -1.0474  0.4619
  790MOL0     C 8894   8.673   7.766   1.760  0.3780  0.2946  0.1079
  790MOL0     C 8895   8.716   7.917   1.761 -1.0843  0.0344 -0.1989
  790MOL0     C 8896   8.602   8.008   1.732  0.4699  0.3535 -0.6132
  790MOL0     C 8897   8.548   7.969   1.594 -0.5592 -0.5416 -0.0628
  790MOL0     C 8898   8.443   8.063   1.546 -0.4197  0.2950 -0.6662
  790MOL0     N 8899   8.310   8.036   1.596  0.0689  0.7225 -0.4739
  790MOL0     C 8900   8.228   7.933   1.548 -0.1023 -0.4135 -0.2236
  790MOL0     C 8901   8.142   7.905   1.652  0.4495  0.7905  0.6076
  790MOL0     C 8902   8.044   7.797   1.644  0.0813 -0.1082  0.3858
  790MOL0     C 8903   8.089   7.658   1.653 -0.1966  0.0192 -0.7258
  790MOL0     C 8904   8.187   7.637   1.771  1.1737  0.6177 -0.8191
  790MOL0     C 8905   8.114   7.667   1.899 -0.9664 -0.1781  0.1523
  790MOL0     O 8906   8.171   7.602   2.019  0.3357 -0.5034  0.2820
  790MOL0     C 8907   8.299   7.624   2.058  0.5140  0.1799 -0.4036
  790MOL0     C 8908   8.371   7.518   2.113 -0.6061 -0.4550 -0.7140
  790MOL0     C 8909   8.498   7.535   2.158  0.3664 -0.0580  0.3247
  790MOL0     C 8910   8.579   7.419   2.213  0.0205  0.4267  0.4490
  790MOL0     C 8911   8.564   7.659   2.138  0.3397 -0.3384  0.6250
  790MOL0     C 8912   8.699   7.698   2.188  0.1478  0.1184  0.2474
  790MOL0     O 8913   8.760   7.801   2.125 -0.5228 -0.0371 -0.6603
  790MOL0     C 8914   8.875   7.837   2.181  0.9514 -0.1203  0.5617
  790MOL0     C 8915   8.999   7.787   2.142  0.8336 -0.2631 -0.6665
  790MOL0     C 8916   9.118   7.814   2.218  0.9753 -0.6014 -0.2550
  790MOL0     C 8917   9.114   7.906   2.317 -0.1798  0.1978 -0.2891
  790MOL0     O 8918   9.223   7.956   2.381 -0.4874  0.4187  0.1315
  790MOL0     C 8919   9.352   7.916   2.330  0.1855 -0.2640 -0.1241
  790MOL0     C 8920   9.475   7.989   2.394 -0.0318  0.4920 -0.1466
  790MOL0     C 8921   9.571   8.058   2.289  0.3249 -0.7320 -0.0540
  790MOL0     C 8922   9.708   8.079   2.352 -0.3340  0.5251  0.2994
  790MOL0     C 8923   9.812   7.957   2.342  0.6466  0.3628 -0.4949
  790MOL0     C 8924   9.956   8.013   2.358 -0.1746  0.0621 -0.4369
  790MOL0     C 8925  10.066   7.910   2.339  0.8404 -0.3424  0.3759
  790MOL0     C 8926  10.079   7.847   2.199 -0.1864 -0.3292  0.1997
  790MOL0    Cl 8927  10.203   7.712   2.220 -0.2875  0.2855 -0.0634
  790MOL0     C 8928   8.995   7.956   2.358  0.1489  0.4741  0.0786
  790MOL0     C 8929   8.877   7.920   2.287  0.0421 -0.7404  0.1126
  790MOL0     O 8930   8.744   7.640   2.289 -0.6381 -0.6063 -0.1910
  790MOL0     C 8931   8.487   7.765   2.081 -0.6573  0.2848 -0.9519
  790MOL0     C 8932   8.363   7.747   2.043 -0.3682 -0.0412 -0.2899
  790MOL0     N 8933   8.169   7.987   1.757 -0.1914  0.6461  0.8366
  790MOL0     N 8934   8.275   8.055   1.731  0.5478 -0.1075  0.3598
  790MOL0     C 8935   9.187   7.419   1.820  0.0580 -0.6324 -0.2516
  790MOL0     C 8936   9.277   7.333   1.747  0.0186 -0.4318 -0.4588
  790MOL0     C 8937   9.466   7.070   1.424 -0.1001  0.1425  1.1820
  790MOL0     C 8938   9.415   6.941   1.440  0.4389  0.4986 -0.2261
  790MOL0     C 8939   9.475   6.825   1.384 -0.0584 -0.2931 -0.5520
  790MOL0     C 8940   9.591   6.850   1.307 -0.0987  0.3678 -0.2625
  790MOL0     O 8941   9.652   6.745   1.242  0.7056  0.2544  0.1988
  790MOL0     C 8942   9.787   6.757   1.191  0.7753  0.3875  0.3929
  790MOL0     C 8943   9.889   6.744   1.299 -0.7187 -0.4562  0.9376
  790MOL0     C 8944   9.879   6.609   1.374  0.7105  0.4790  0.9012
  790MOL0     C 8945   9.794   6.601   1.494  0.2990  1.1809  0.1519
  790MOL0     C 8946   9.796   6.466   1.554  0.8642 -1.1317  0.6075
  790MOL0     C 8947   9.800   6.295   1.644  1.4609 -0.0407  0.2636
  790MOL0     C 8948   9.643   6.980   1.291 -0.0285 -0.3946  0.4818
  790MOL0     C 8949   9.582   7.098   1.343 -0.1493  0.5840  0.3359
  790MOL0     C 8950   9.638   7.238   1.301 -0.8427  0.1946 -0.8927
  790MOL0     H 8951   9.049   7.134   1.596 -1.7759 -0.0964  1.9139
  790MOL0     H 8952   8.893   7.283   1.717 -1.1244  3.0029  0.7554
  790MOL0     H 8953   8.808   7.486   2.014  0.1271 -0.6550  0.2909
  790MOL0     H 8954   8.814   7.353   1.892 -1.0750  0.0008 -3.3270
  790MOL0     H 8955   8.743   7.476   1.728  2.2363  0.8699 -0.6236
  790MOL0     H 8956   8.640   7.522   1.857  0.4753 -1.7308  1.4913
  790MOL0     H 8957   8.820   7.717   1.899  0.8562  1.3601 -0.7693
  790MOL0     H 8958   8.873   7.680   1.728 -1.3630 -1.1131 -0.5213
  790MOL0     H 8959   8.633   7.725   1.666  0.4324 -0.2008  0.2974
  790MOL0     H 8960   8.594   7.750   1.835  2.1888  0.3821  2.1090
  790MOL0     H 8961   8.802   7.931   1.696  0.3619  0.0736  1.6629
  790MOL0     H 8962   8.764   7.930   1.858  1.0645  1.3137 -1.3610
  790MOL0     H 8963   8.531   7.994   1.815  0.8687  2.6757  0.2174
  790MOL0     H 8964   8.635   8.113   1.732 -0.0561  0.5339  0.1652
  790MOL0     H 8965   8.498   7.872   1.583  2.5251 -2.1140 -1.4483
  790MOL0     H 8966   8.632   7.988   1.526 -0.9330  1.0715 -0.1155
  790MOL0     H 8967   8.469   8.169   1.550 -0.7626  0.3312  1.3324
  790MOL0     H 8968   8.429   8.031   1.442  0.8065 -2.3859 -0.0885
  790MOL0     H 8969   8.251   7.884   1.454  4.5559  2.0659 -0.6872
  790MOL0     H 8970   7.988   7.797   1.550 -0.4443 -1.3388  0.6855
  790MOL0     H 8971   7.964   7.827   1.713 -0.1564  1.8841 -0.6702
  790MOL0     H 8972   8.008   7.584   1.655  0.4371 -0.7104 -1.3992
  790MOL0     H 8973   8.141   7.635   1.560 -0.1652  2.8666 -1.5177
  790MOL0     H 8974   8.221   7.533   1.771  1.3260  0.6674 -0.1420
  790MOL0     H 8975   8.276   7.700   1.767  2.2114 -0.5256  2.0918
  790MOL0     H 8976   8.088   7.772   1.917 -1.8606 -0.8485  3.2258
  790MOL0     H 8977   8.014   7.624   1.891 -0.3409 -2.0658  1.8712
  790MOL0     H 8978   8.335   7.417   2.128 -0.8387 -0.6371 -2.3182
  790MOL0     H 8979   8.501   7.352   2.249 -2.8678  3.7415  0.9524
  790MOL0     H 8980   8.651   7.436   2.293  1.2900  0.8821 -0.7435
  790MOL0     H 8981   8.627   7.370   2.128  0.1267  1.7791 -0.3065
  790MOL0     H 8982   9.005   7.716   2.059  1.6918  0.7935 -1.5388
  790MOL0     H 8983   9.211   7.769   2.187  0.1515 -0.6615 -2.8524
  790MOL0     H 8984   9.362   7.807   2.328 -2.5818 -0.5640 -1.4356
  790MOL0     H 8985   9.338   7.944   2.226 -2.1539 -0.8582 -0.0130
  790MOL0     H 8986   9.445   8.059   2.473 -3.6707 -0.1883 -0.7784
  790MOL0     H 8987   9.530   7.908   2.443 -1.4266 -0.3738  0.0142
  790MOL0     H 8988   9.527   8.150   2.248  2.0794  0.0610 -0.2562
  790MOL0     H 8989   9.579   7.997   2.199  1.4671  0.5578 -0.8670
  790MOL0     H 8990   9.695   8.124   2.451 -1.7364  3.6351 -1.1831
  790MOL0     H 8991   9.745   8.167   2.300 -0.4170  0.5998  0.3661
  790MOL0     H 8992   9.781   7.883   2.416  0.3557  0.9615 -0.0105
  790MOL0     H 8993   9.811   7.911   2.243  0.5685 -2.6418  0.8022
  790MOL0     H 8994   9.967   8.053   2.459 -0.7348 -1.8635  0.4244
  790MOL0     H 8995   9.976   8.097   2.290  0.5831  0.3243  0.1002
  790MOL0     H 8996  10.049   7.832   2.413 -1.6770  0.5248  0.8171
  790MOL0     H 8997  10.160   7.962   2.360  0.6914 -0.3774  1.1488
  790MOL0     H 8998  10.119   7.923   2.131 -3.1785  0.0915 -1.2750
  790MOL0     H 8999   9.991   7.790   2.168 -1.3421  0.9171  1.0537
  790MOL0     H 9000   8.997   8.019   2.446 -0.9808  1.6840 -0.7245
  790MOL0     H 9001   8.781   7.953   2.325 -0.5682 -2.3868  0.0894
  790MOL0     H 9002   8.513   7.870   2.079  0.9047 -0.0336  0.7084
  790MOL0     H 9003   8.307   7.831   2.002  0.1478  0.8125  0.7177
  790MOL0     H 9004   9.225   7.487   1.896  0.4145 -2.2720  1.0762
  790MOL0     H 9005   9.384   7.328   1.767  0.4096  2.3410 -1.3498
  790MOL0     H 9006   9.320   6.931   1.491  0.7118  0.2759  0.2457
  790MOL0     H 9007   9.446   6.723   1.409 -3.4695  0.1629 -2.0369
  790MOL0     H 9008   9.786   6.680   1.114  0.4364 -0.5103  1.2816
  790MOL0     H 9009   9.798   6.843   1.124  2.2062 -1.4060 -1.8133
  790MOL0     H 9010   9.897   6.827   1.370 -0.7753  0.1484  0.2447
  790MOL0     H 9011   9.984   6.747   1.245 -1.5146  1.4654 -0.4684
  790MOL0     H 9012   9.846   6.532   1.303  0.5120  1.4863 -0.1153
  790MOL0     H 9013   9.980   6.580   1.407 -0.0689 -3.6624  0.2681
  790MOL0     H 9014   9.686   6.619   1.484  0.2858  0.5551 -0.9998
  790MOL0     H 9015   9.828   6.664   1.577 -2.3527  0.9603  1.5045
  790MOL0     H 9016   9.790   6.207   1.704  0.3711  0.3105  0.6096
  790MOL0     H 9017   9.731   7.003   1.232  0.6850  3.0412  2.6028
  790MOL0     H 9018   9.703   7.289   1.373 -1.4354  4.7984 -3.2421
  790MOL0     H 9019   9.690   7.222   1.206 -0.2859  2.0824 -0.9475
  790MOL0     H 9020   9.558   7.308   1.274  1.4403  3.0801 -0.7038
  791MOL0     O 9021   6.087   1.680   3.897  0.0723 -0.6035 -0.5387
  791MOL0     C 9022   6.105   1.568   3.848 -0.1828 -0.2884 -0.4876
  791MOL0     O 9023   6.220   1.509   3.824 -0.4537  0.0572 -0.7095
  791MOL0     C 9024   6.349   1.529   3.875  0.3274  0.3860 -0.1831
  791MOL0     C 9025   6.446   1.436   3.843 -0.5668 -0.5085 -0.3802
  791MOL0     C 9026   6.568   1.435   3.901  0.2642  0.2632  0.9339
  791MOL0     C 9027   6.607   1.536   3.993 -0.1845 -0.3395  0.0049
  791MOL0     O 9028   6.736   1.547   4.047  0.0090  0.4813  0.4662
  791MOL0     C 9029   6.759   1.544   4.184 -0.6450 -0.4579 -0.5991
  791MOL0     C 9030   6.904   1.575   4.223  0.1736 -0.8341 -0.2394
  791MOL0     C 9031   6.960   1.709   4.171 -0.0911  0.5225 -0.3926
  791MOL0     C 9032   7.105   1.725   4.234  0.4339 -0.6100  0.0012
  791MOL0     C 9033   7.215   1.665   4.151 -0.3238  0.4176 -0.5424
  791MOL0     C 9034   7.349   1.685   4.218  0.0106 -0.3206 -0.3205
  791MOL0     C 9035   7.450   1.596   4.151  0.2734  1.0695 -0.3405
  791MOL0     C 9036   7.587   1.630   4.207 -0.9430 -0.2592  0.5150
  791MOL0     N 9037   7.692   1.551   4.139 -0.1162 -0.8960  0.2559
  791MOL0     C 9038   7.764   1.448   4.192 -0.3276  0.1428 -1.3131
  791MOL0     C 9039   7.878   1.424   4.116 -0.0518 -0.5529 -1.0129
  791MOL0     C 9040   7.965   1.306   4.142  0.4297 -0.2383 -0.1211
  791MOL0     C 9041   8.017   1.304   4.292 -0.1145  0.6274 -0.2283
  791MOL0     C 9042   8.102   1.177   4.312 -0.3726 -1.2265 -0.3859
  791MOL0     C 9043   8.238   1.165   4.235 -0.1971  0.2812  0.7211
  791MOL0     O 9044   8.329   1.254   4.297  0.6425 -0.8866  0.9912
  791MOL0     C 9045   8.463   1.245   4.265 -0.8072  0.3224 -0.0744
  791MOL0     C 9046   8.538   1.365   4.303  0.7149  0.4040  0.5515
  791MOL0     C 9047   8.670   1.376   4.261 -0.0064  0.8044  0.4776
  791MOL0     C 9048   8.724   1.517   4.267  0.7373  0.1894  0.9539
  791MOL0     C 9049   8.737   1.260   4.215 -1.2086 -0.5637  0.3207
  791MOL0     C 9050   8.890   1.257   4.193 -0.3281 -0.1009 -0.4822
  791MOL0     O 9051   8.960   1.148   4.236 -0.3352  0.4316 -0.0605
  791MOL0     C 9052   9.099   1.148   4.219 -0.0519 -0.5672 -0.0989
  791MOL0     C 9053   9.157   1.103   4.104  0.4713  0.0785 -0.2051
  791MOL0     C 9054   9.292   1.102   4.089  0.2890 -0.3113  0.5873
  791MOL0     C 9055   9.369   1.149   4.196 -0.1099 -0.0092  0.6092
  791MOL0     O 9056   9.506   1.144   4.201  0.5574  0.5230  0.0438
  791MOL0     C 9057   9.579   1.059   4.105 -1.2016  0.3472 -0.4725
  791MOL0     C 9058   9.733   1.044   4.145  0.4784 -0.4933 -0.9542
  791MOL0     C 9059   9.799   1.162   4.215  1.4676 -0.3748 -0.3464
  791MOL0     C 9060   9.954   1.165   4.211  0.7222 -0.4728  0.9348
  791MOL0     C 9061  10.004   1.302   4.265  0.2705  0.2019  0.2326
  791MOL0     C 9062  10.158   1.316   4.248 -0.2603  0.2925 -0.2883
  791MOL0     C 9063  10.223   1.421   4.327 -0.0146  0.2106  0.4076
  791MOL0     C 9064  10.372   1.407   4.319  0.9676 -0.3785  0.2440
  791MOL0    Cl 9065  10.406   1.450   4.136  0.5849 -0.2166  0.2406
  791MOL0     C 9066   9.313   1.215   4.309 -0.2806  0.5593  0.4577
  791MOL0     C 9067   9.177   1.213   4.319  0.2986 -0.6852 -0.1550
  791MOL0     O 9068   8.937   1.355   4.136 -0.6733 -0.3990 -0.2424
  791MOL0     C 9069   8.671   1.145   4.183 -0.8998 -0.5873 -0.2579
  791MOL0     C 9070   8.537   1.133   4.214 -0.5372 -1.1087 -0.0938
  791MOL0     N 9071   7.870   1.512   4.004  0.1269 -0.2543 -0.0171
  791MOL0     N 9072   7.754   1.582   4.021  0.2635 -0.3952  0.4635
  791MOL0     C 9073   6.515   1.639   4.018  1.0339  0.0547  0.5673
  791MOL0     C 9074   6.386   1.633   3.963  0.3599 -0.0517  0.4122
  791MOL0     C 9075   5.981   1.503   3.792  0.8538 -0.4831  0.2072
  791MOL0     C 9076   5.855   1.551   3.835  0.0007 -0.1125 -0.5714
  791MOL0     C 9077   5.733   1.500   3.800  0.9638  0.0552 -0.8391
  791MOL0     C 9078   5.723   1.390   3.711 -0.4171 -0.7527 -0.0695
  791MOL0     O 9079   5.608   1.340   3.651 -0.0320 -0.1498 -0.0822
  791MOL0     C 9080   5.477   1.373   3.708  0.2196 -0.7544  0.4504
  791MOL0     C 9081   5.390   1.256   3.718 -0.4568  0.8420 -0.4634
  791MOL0     C 9082   5.243   1.289   3.739  0.6500  0.6607 -0.4804
  791MOL0     C 9083   5.143   1.178   3.725  0.6155  0.3880 -0.9872
  791MOL0     C 9084   5.122   1.132   3.590 -0.3180 -0.2437  0.1579
  791MOL0     C 9085   5.107   1.076   3.483  0.3477 -1.0506 -0.6291
  791MOL0     C 9086   5.842   1.345   3.661  0.1529 -0.0246  0.7311
  791MOL0     C 9087   5.973   1.395   3.697  0.7436 -0.3598 -0.2157
  791MOL0     C 9088   6.095   1.340   3.633  0.6607  0.6043  0.4491
  791MOL0     H 9089   6.423   1.360   3.768 -0.4849 -0.3238 -0.5937
  791MOL0     H 9090   6.632   1.351   3.876  0.5621  0.7401  0.0546
  791MOL0     H 9091   6.724   1.446   4.219  0.9408 -0.8277  0.0582
  791MOL0     H 9092   6.693   1.619   4.230  1.1058 -0.0412  1.3819
  791MOL0     H 9093   6.897   1.601   4.329  2.1029  2.1920 -0.7362
  791MOL0     H 9094   6.961   1.483   4.206 -0.0556 -1.0363  0.0646
  791MOL0     H 9095   6.963   1.715   4.061  0.8789 -3.3357 -0.7109
  791MOL0     H 9096   6.889   1.785   4.206  0.0225  0.9782 -1.1284
  791MOL0     H 9097   7.127   1.832   4.245  2.7915 -0.9858 -0.6406
  791MOL0     H 9098   7.102   1.683   4.335 -1.1704 -1.6057 -0.4247
  791MOL0     H 9099   7.226   1.709   4.051 -2.3622  0.7155 -0.6746
  791MOL0     H 9100   7.195   1.558   4.144  1.9469 -0.1223  0.3292
  791MOL0     H 9101   7.364   1.789   4.188 -1.5247  0.0933  0.2354
  791MOL0     H 9102   7.341   1.674   4.326 -0.0726  3.0881  0.1456
  791MOL0     H 9103   7.444   1.607   4.042 -2.3341  1.5853 -0.2221
  791MOL0     H 9104   7.425   1.491   4.167 -0.9787  1.3058 -0.5819
  791MOL0     H 9105   7.605   1.735   4.181 -0.8692 -0.1384  1.0443
  791MOL0     H 9106   7.597   1.625   4.316 -2.6820  0.1764  0.7270
  791MOL0     H 9107   7.744   1.408   4.291  1.1339  0.4649 -0.8561
  791MOL0     H 9108   8.051   1.296   4.075  0.7342 -2.3402  0.5236
  791MOL0     H 9109   7.914   1.211   4.127 -0.7342 -0.5291  4.3299
  791MOL0     H 9110   8.079   1.392   4.311  1.0455 -0.7704  3.0520
  791MOL0     H 9111   7.935   1.306   4.365 -1.0401  0.6250 -1.2319
  791MOL0     H 9112   8.123   1.174   4.419  2.2055  2.4517 -0.6272
  791MOL0     H 9113   8.046   1.087   4.284  1.2897 -2.1125 -0.9867
  791MOL0     H 9114   8.266   1.060   4.236 -1.0794  0.0364  0.3819
  791MOL0     H 9115   8.223   1.187   4.129 -0.6106 -1.5344  0.3708
  791MOL0     H 9116   8.491   1.452   4.348 -0.8904 -0.1846  0.1044
  791MOL0     H 9117   8.632   1.574   4.252  2.4159  2.1382 -4.4608
  791MOL0     H 9118   8.788   1.541   4.181  0.7920 -0.2057  0.8821
  791MOL0     H 9119   8.772   1.544   4.361  0.5466  2.2289  0.5124
  791MOL0     H 9120   9.096   1.069   4.021  0.6901 -0.6787 -0.0650
  791MOL0     H 9121   9.348   1.067   4.002  3.3248 -3.1110  3.3905
  791MOL0     H 9122   9.530   0.963   4.086 -0.4640 -0.3458  0.9601
  791MOL0     H 9123   9.590   1.125   4.019  2.0366  0.4069 -0.1205
  791MOL0     H 9124   9.742   0.963   4.219  1.8678  1.9963  1.8113
  791MOL0     H 9125   9.787   1.031   4.050  1.6333  2.6607 -0.8490
  791MOL0     H 9126   9.761   1.176   4.316  0.2270  1.7913 -1.0626
  791MOL0     H 9127   9.752   1.252   4.174  1.0365 -0.1510  0.5989
  791MOL0     H 9128   9.991   1.156   4.109  0.9886 -0.0883  0.9943
  791MOL0     H 9129   9.997   1.083   4.269 -2.8911 -1.8978  1.8631
  791MOL0     H 9130   9.955   1.383   4.210  2.4827  1.0675 -0.5897
  791MOL0     H 9131   9.981   1.306   4.372  1.1757 -0.6663  0.4745
  791MOL0     H 9132  10.187   1.336   4.144  0.8194 -0.1433 -0.0811
  791MOL0     H 9133  10.192   1.220   4.287  0.1422  0.5218 -0.0734
  791MOL0     H 9134  10.187   1.415   4.430  2.4870 -2.2200  1.2674
  791MOL0     H 9135  10.198   1.521   4.288 -0.6515  1.0659  2.8396
  791MOL0     H 9136  10.391   1.303   4.347 -1.5471 -1.6425 -2.1962
  791MOL0     H 9137  10.423   1.479   4.383 -2.6010  1.0877  1.6860
  791MOL0     H 9138   9.380   1.252   4.385  1.4985 -1.2456 -0.1380
  791MOL0     H 9139   9.126   1.275   4.392  0.7763 -1.0851  0.5242
  791MOL0     H 9140   8.735   1.064   4.148  1.1041  0.9754 -0.3849
  791MOL0     H 9141   8.487   1.041   4.186 -2.4865  0.3002 -1.5171
  791MOL0     H 9142   6.535   1.715   4.092 -0.3686  1.8673 -0.8444
  791MOL0     H 9143   6.318   1.716   3.984 -0.6708 -1.5979  3.9824
  791MOL0     H 9144   5.861   1.633   3.905  0.3654 -0.2983 -0.3823
  791MOL0     H 9145   5.652   1.539   3.862  1.9699  0.5690  0.1957
  791MOL0     H 9146   5.496   1.423   3.803  1.5052 -0.1704 -0.0925
  791MOL0     H 9147   5.443   1.448   3.636  0.1225 -0.5044  0.7528
  791MOL0     H 9148   5.440   1.202   3.799  1.5034  1.7814 -1.0033
  791MOL0     H 9149   5.407   1.191   3.632 -2.1686 -3.9144  2.3889
  791MOL0     H 9150   5.235   1.322   3.843 -2.6628 -1.1021 -0.0558
  791MOL0     H 9151   5.215   1.371   3.671 -1.0328 -1.1015 -2.0180
  791MOL0     H 9152   5.047   1.219   3.759  1.0674  1.3871 -0.8899
  791MOL0     H 9153   5.171   1.103   3.800 -1.1853  0.6747  0.0449
  791MOL0     H 9154   5.081   1.036   3.387 -0.9784  1.3974 -1.3773
  791MOL0     H 9155   5.844   1.262   3.591  2.7510 -2.2087  3.1108
  791MOL0     H 9156   6.145   1.425   3.585  0.0340  0.5940 -0.2257
  791MOL0     H 9157   6.168   1.301   3.704 -0.5237 -1.9382  0.3657
  791MOL0     H 9158   6.069   1.260   3.564  1.3546  0.7640 -0.0188
  792MOL0     O 9159   4.422   7.958   2.789 -0.6216 -0.7999 -0.8247
  792MOL0     C 9160   4.441   7.928   2.673 -0.1130 -0.2270 -0.5323
  792MOL0     O 9161   4.558   7.867   2.626 -0.0598  0.6736  0.6508
  792MOL0     C 9162   4.659   7.847   2.719  0.4674 -0.5679 -0.1188
  792MOL0     C 9163   4.751   7.956   2.747 -0.7756 -0.0909 -0.0756
  792MOL0     C 9164   4.857   7.938   2.831 -0.3092 -0.3291  0.2674
  792MOL0     C 9165   4.870   7.824   2.910  0.7541 -0.2379 -0.1631
  792MOL0     O 9166   4.979   7.829   2.989  0.0613 -0.8115 -0.8691
  792MOL0     C 9167   5.012   7.710   3.064 -0.0760 -0.1618  0.2913
  792MOL0     C 9168   5.128   7.712   3.169 -0.5610 -0.0036  0.5689
  792MOL0     C 9169   5.257   7.714   3.086 -0.9499 -0.8923 -0.5515
  792MOL0     C 9170   5.303   7.583   3.015 -0.4823  0.0084 -0.2011
  792MOL0     C 9171   5.448   7.600   2.970 -0.3697  0.0893  0.5214
  792MOL0     C 9172   5.473   7.551   2.828 -0.4936 -0.3090  0.3533
  792MOL0     C 9173   5.619   7.568   2.780  0.7233  0.6713 -0.3159
  792MOL0     C 9174   5.714   7.448   2.795  0.9306  0.4497  0.0297
  792MOL0     N 9175   5.847   7.482   2.734 -0.1135 -0.2160  0.0470
  792MOL0     C 9176   5.920   7.425   2.629  0.1156 -0.4177  0.3227
  792MOL0     C 9177   6.020   7.512   2.594  0.6257  0.3414 -0.3164
  792MOL0     C 9178   6.094   7.500   2.468 -0.2852 -0.1074  0.4247
  792MOL0     C 9179   6.247   7.520   2.502 -0.7324  0.3641 -1.3309
  792MOL0     C 9180   6.333   7.567   2.383 -0.1489 -0.1493  0.3199
  792MOL0     C 9181   6.485   7.551   2.422  0.2676 -0.5669  0.4986
  792MOL0     O 9182   6.519   7.414   2.419 -0.4917  0.1858  0.2483
  792MOL0     C 9183   6.657   7.396   2.432  0.0400 -0.5738 -0.5462
  792MOL0     C 9184   6.702   7.264   2.438  0.2199 -1.1536  0.1655
  792MOL0     C 9185   6.832   7.228   2.446  0.4275 -0.0551 -1.5735
  792MOL0     C 9186   6.860   7.081   2.445 -0.2425  0.1687 -1.0621
  792MOL0     C 9187   6.930   7.327   2.455 -0.6486  0.0707 -0.0305
  792MOL0     C 9188   7.081   7.310   2.459 -0.4981  0.1079 -0.1588
  792MOL0     O 9189   7.160   7.427   2.452  0.9093  1.1984 -0.1066
  792MOL0     C 9190   7.263   7.433   2.363  0.1494 -0.0001  0.0512
  792MOL0     C 9191   7.249   7.388   2.229  0.4345 -0.1143  0.4751
  792MOL0     C 9192   7.367   7.351   2.155 -0.4242 -0.0259 -0.3874
  792MOL0     C 9193   7.493   7.371   2.222 -0.1088  0.2226  0.8466
  792MOL0     O 9194   7.600   7.322   2.148 -0.6967 -0.3375  0.4003
  792MOL0     C 9195   7.637   7.416   2.045 -0.2038 -0.3853 -0.3599
  792MOL0     C 9196   7.767   7.365   1.982  0.1092  0.1384 -0.2038
  792MOL0     C 9197   7.751   7.238   1.883 -1.3886  0.1972 -0.2239
  792MOL0     C 9198   7.765   7.104   1.968  0.1081 -0.3557 -0.2912
  792MOL0     C 9199   7.749   6.973   1.884 -0.1938 -0.3191 -0.8667
  792MOL0     C 9200   7.627   6.954   1.792  0.0736  0.7068 -0.1876
  792MOL0     C 9201   7.577   6.815   1.757 -0.7812  0.6398 -0.3869
  792MOL0     C 9202   7.679   6.728   1.690 -1.0289  0.5331  0.3440
  792MOL0    Cl 9203   7.831   6.683   1.782  0.5531  0.0981  0.1666
  792MOL0     C 9204   7.511   7.428   2.342 -0.1445  0.5271  0.8295
  792MOL0     C 9205   7.392   7.455   2.416  0.7036  1.1781 -0.6230
  792MOL0     O 9206   7.131   7.201   2.456  0.0265  0.6280 -0.0165
  792MOL0     C 9207   6.891   7.461   2.469  0.4175 -0.0035 -1.0391
  792MOL0     C 9208   6.756   7.495   2.458  0.1774  1.0597  1.2728
  792MOL0     N 9209   6.015   7.613   2.685  0.6559 -0.2110 -0.9420
  792MOL0     N 9210   5.918   7.591   2.768 -0.3174  1.2554  0.0851
  792MOL0     C 9211   4.785   7.713   2.885  0.4848  0.3120  0.3530
  792MOL0     C 9212   4.683   7.725   2.786  0.2765  0.3306  0.1292
  792MOL0     C 9213   4.349   7.970   2.564 -0.2120  1.4837 -0.2546
  792MOL0     C 9214   4.385   7.943   2.426  0.8646 -0.2001  0.2792
  792MOL0     C 9215   4.308   7.975   2.314 -0.4497 -0.4641 -0.5218
  792MOL0     C 9216   4.191   8.046   2.337 -0.7254  1.1033  0.4492
  792MOL0     O 9217   4.121   8.080   2.223  0.0402  0.4253 -0.9547
  792MOL0     C 9218   4.004   8.157   2.237 -0.1922  0.1007  0.8010
  792MOL0     C 9219   3.944   8.180   2.100  0.4689 -0.2006  0.2415
  792MOL0     C 9220   3.800   8.224   2.104 -0.2551 -0.6093 -0.3139
  792MOL0     C 9221   3.746   8.210   1.954 -0.4215 -0.1966 -0.3363
  792MOL0     C 9222   3.630   8.301   1.935  0.7233 -0.8422 -0.7550
  792MOL0     C 9223   3.537   8.388   1.926 -0.4309  0.5437 -0.7695
  792MOL0     C 9224   4.150   8.076   2.467  0.2429 -0.2901  0.6561
  792MOL0     C 9225   4.228   8.040   2.574 -0.8470 -0.0599  0.2274
  792MOL0     C 9226   4.171   8.075   2.704 -0.3493  1.2179 -0.9342
  792MOL0     H 9227   4.742   8.052   2.697  0.9827 -0.5503 -1.3701
  792MOL0     H 9228   4.925   8.022   2.847  0.9554 -1.1225 -0.6996
  792MOL0     H 9229   5.039   7.626   3.000 -1.3502 -0.0867 -0.3774
  792MOL0     H 9230   4.915   7.681   3.104 -0.8590 -0.8114 -1.9402
  792MOL0     H 9231   5.122   7.790   3.245  0.2194  1.7647 -1.0896
  792MOL0     H 9232   5.125   7.621   3.229  2.0895 -1.7521 -1.6537
  792MOL0     H 9233   5.246   7.798   3.016  2.8505  1.2517  1.0764
  792MOL0     H 9234   5.339   7.732   3.157 -1.4119  1.0094 -0.4349
  792MOL0     H 9235   5.302   7.495   3.079  0.5325 -0.8365 -1.3190
  792MOL0     H 9236   5.232   7.562   2.934 -0.2985 -1.5370  0.0121
  792MOL0     H 9237   5.515   7.537   3.029 -1.6514 -1.6539  0.2077
  792MOL0     H 9238   5.487   7.702   2.971 -0.5873  0.1773  0.1968
  792MOL0     H 9239   5.419   7.457   2.815  1.2028 -1.2224 -0.4094
  792MOL0     H 9240   5.427   7.627   2.765  1.6109  2.4794  1.9518
  792MOL0     H 9241   5.672   7.646   2.836 -0.6120  0.7657  0.8595
  792MOL0     H 9242   5.611   7.590   2.673 -0.0469 -1.9581 -0.8653
  792MOL0     H 9243   5.717   7.432   2.903 -1.3755  2.3639  0.4693
  792MOL0     H 9244   5.668   7.364   2.741  0.3536  2.0142 -2.0464
  792MOL0     H 9245   5.904   7.333   2.574  1.9239 -0.7219  0.2345
  792MOL0     H 9246   6.066   7.587   2.407 -1.6412  0.0218  1.2041
  792MOL0     H 9247   6.075   7.410   2.408 -0.4564  1.5371 -2.1660
  792MOL0     H 9248   6.253   7.586   2.589 -0.1154 -0.6113 -0.6200
  792MOL0     H 9249   6.288   7.425   2.536  3.2100  2.0451 -0.8204
  792MOL0     H 9250   6.318   7.529   2.282  4.4249 -0.6536 -0.4091
  792MOL0     H 9251   6.305   7.672   2.371 -3.8895 -1.1852 -1.3478
  792MOL0     H 9252   6.552   7.611   2.360 -1.1247  0.6295  0.0923
  792MOL0     H 9253   6.492   7.593   2.523  1.0628 -1.0855  0.6614
  792MOL0     H 9254   6.618   7.195   2.435 -2.6987  2.1016 -0.0679
  792MOL0     H 9255   6.760   7.036   2.442 -0.4832  0.5749  0.2253
  792MOL0     H 9256   6.921   7.045   2.528 -0.8504  3.8411  1.1838
  792MOL0     H 9257   6.917   7.050   2.357  2.5558  1.9340  0.0072
  792MOL0     H 9258   7.149   7.383   2.188 -0.6863  3.0352  2.4587
  792MOL0     H 9259   7.356   7.317   2.052 -0.0914 -0.9496 -0.1242
  792MOL0     H 9260   7.564   7.425   1.965  2.1132  2.0660 -2.3917
  792MOL0     H 9261   7.656   7.517   2.085  2.1674  0.0311 -2.2816
  792MOL0     H 9262   7.815   7.438   1.916  2.4457 -0.1607  1.0605
  792MOL0     H 9263   7.837   7.339   2.062 -0.1090 -1.6524 -0.5556
  792MOL0     H 9264   7.818   7.238   1.796  1.1760 -0.7641  1.6299
  792MOL0     H 9265   7.650   7.240   1.841 -1.3389 -1.6590 -0.4906
  792MOL0     H 9266   7.681   7.102   2.039 -2.7042 -0.2597 -3.3615
  792MOL0     H 9267   7.858   7.098   2.025  1.0290  2.3785 -1.3806
  792MOL0     H 9268   7.839   6.943   1.830  0.2561  0.0507 -0.3350
  792MOL0     H 9269   7.732   6.897   1.961 -1.2798  2.3998  1.7865
  792MOL0     H 9270   7.654   7.010   1.701 -1.9721 -0.1259 -1.3849
  792MOL0     H 9271   7.546   7.011   1.839 -0.8069  0.9620 -1.8955
  792MOL0     H 9272   7.492   6.827   1.690 -1.9942  0.6537  1.0948
  792MOL0     H 9273   7.555   6.767   1.853  0.0547  0.5976 -0.2053
  792MOL0     H 9274   7.706   6.774   1.594  1.4409 -0.3503  0.5514
  792MOL0     H 9275   7.627   6.634   1.670  3.1962 -2.1323  0.6624
  792MOL0     H 9276   7.611   7.444   2.380 -0.2307 -1.2234  1.8855
  792MOL0     H 9277   7.394   7.501   2.514 -0.4690  0.9586 -0.4758
  792MOL0     H 9278   6.959   7.543   2.490 -0.0997  0.3912 -0.8856
  792MOL0     H 9279   6.738   7.599   2.484 -0.2244  0.7890  2.0932
  792MOL0     H 9280   4.803   7.621   2.940 -1.9305 -0.6551 -0.3456
  792MOL0     H 9281   4.630   7.633   2.763  0.2288  0.2175  0.6805
  792MOL0     H 9282   4.465   7.871   2.412 -3.1805 -4.5893 -3.9917
  792MOL0     H 9283   4.336   7.938   2.216 -0.6248 -1.8080 -0.0932
  792MOL0     H 9284   3.936   8.102   2.302  0.3635  0.6188  1.8492
  792MOL0     H 9285   4.033   8.253   2.281  2.6289  1.1821 -2.8715
  792MOL0     H 9286   3.943   8.089   2.040 -0.7346  0.6861 -1.1583
  792MOL0     H 9287   4.004   8.254   2.046 -1.0991  1.0640  0.1410
  792MOL0     H 9288   3.743   8.158   2.170  0.0794  2.4197  3.3502
  792MOL0     H 9289   3.798   8.324   2.148  0.2037 -0.3822 -0.7905
  792MOL0     H 9290   3.698   8.113   1.937 -1.7651  0.4770 -0.4508
  792MOL0     H 9291   3.822   8.210   1.876  0.4447 -2.6522  0.3989
  792MOL0     H 9292   3.452   8.452   1.934 -0.8589 -0.1088  0.0520
  792MOL0     H 9293   4.056   8.128   2.481  1.8380  2.1351  3.6062
  792MOL0     H 9294   4.067   8.107   2.691 -1.2890 -1.0844  0.3648
  792MOL0     H 9295   4.165   7.981   2.759 -3.4787  0.9093 -1.6167
  792MOL0     H 9296   4.237   8.151   2.748  3.2135 -2.8710  1.5287
  793MOL0     O 9297   9.590  10.530   0.186 -0.3622 -0.4435  0.7659
  793MOL0     C 9298   9.519  10.470   0.258  2.0431  0.1563 -0.2484
  793MOL0     O 9299   9.476  10.501   0.392 -0.4940  0.2252  0.5478
  793MOL0     C 9300   9.557  10.575   0.464 -0.6636  0.5050 -0.0903
  793MOL0     C 9301   9.517  10.658   0.569 -1.1878  0.2263  0.2038
  793MOL0     C 9302   9.611  10.736   0.643 -1.1290 -0.1262  0.5833
  793MOL0     C 9303   9.748  10.732   0.619  0.4958 -0.9565 -1.0104
  793MOL0     O 9304   9.831  10.803   0.702  0.3170  0.6183  0.1521
  793MOL0     C 9305   9.809  10.947   0.692 -1.2184 -0.4630  0.4791
  793MOL0     C 9306   9.934  11.032   0.702 -0.6090  0.3019 -0.0414
  793MOL0     C 9307  10.056  10.975   0.620  0.4876 -0.4542  0.0401
  793MOL0     C 9308  10.166  11.085   0.600 -0.1089  0.1167  0.4306
  793MOL0     C 9309  10.294  11.025   0.540 -0.1450 -0.4654  0.3498
  793MOL0     C 9310  10.391  11.137   0.481 -0.8820  0.5468 -1.0865
  793MOL0     C 9311  10.471  11.072   0.372 -0.5889  0.1126 -0.3768
  793MOL0     C 9312  10.392  11.084   0.239  1.1512  0.2462 -0.8069
  793MOL0     N 9313  10.464  11.038   0.124 -0.0937  0.1287 -0.2097
  793MOL0     C 9314  10.560  11.100   0.057 -0.5888  0.1703  0.4247
  793MOL0     C 9315  10.591  11.008  -0.043 -0.3692  0.2293 -0.1811
  793MOL0     C 9316  10.684  11.027  -0.161  0.9798 -0.5234 -0.6522
  793MOL0     C 9317  10.791  10.923  -0.188  0.1893 -0.4975  0.2934
  793MOL0     C 9318  10.873  10.888  -0.064  0.5606  0.2093  0.4093
  793MOL0     C 9319  11.003  10.804  -0.089  0.2233 -0.2221  0.6412
  793MOL0     O 9320  11.072  10.801   0.029 -0.6380  0.1811 -0.0048
  793MOL0     C 9321  11.196  10.726   0.031  0.2168 -0.6440  0.4593
  793MOL0     C 9322  11.256  10.660  -0.076  0.2310 -0.0210 -0.6497
  793MOL0     C 9323  11.378  10.592  -0.073  0.3639 -0.3375 -1.1603
  793MOL0     C 9324  11.427  10.512  -0.192  1.0128  0.0690 -0.1156
  793MOL0     C 9325  11.447  10.594   0.055  0.1450  0.5476 -0.2164
  793MOL0     C 9326  11.568  10.512   0.087  1.6350  0.4886  0.3941
  793MOL0     O 9327  11.584  10.382   0.043 -0.1789 -1.3053  0.1365
  793MOL0     C 9328  11.712  10.327   0.043 -0.1221  0.3247  0.3808
  793MOL0     C 9329  11.832  10.390  -0.000 -1.0556 -0.5413  0.0206
  793MOL0     C 9330  11.959  10.321   0.012 -0.4459  0.1362  0.5349
  793MOL0     C 9331  11.967  10.199   0.081  0.3781  0.5702 -0.6716
  793MOL0     O 9332  12.085  10.134   0.103 -0.0901 -0.8702  0.3928
  793MOL0     C 9333  12.177  10.217   0.168  0.0979  0.6599  0.0642
  793MOL0     C 9334  12.313  10.208   0.101 -0.1382  0.2773  0.6284
  793MOL0     C 9335  12.397  10.302   0.189 -0.3048 -0.6852  0.3146
  793MOL0     C 9336  12.537  10.345   0.138  0.7329  0.1359 -0.7514
  793MOL0     C 9337  12.588  10.462   0.234  0.7472 -1.1153  0.4837
  793MOL0     C 9338  12.710  10.537   0.193  0.7515  0.6716 -0.4455
  793MOL0     C 9339  12.836  10.437   0.197 -0.3868 -0.7690 -0.4736
  793MOL0     C 9340  12.959  10.507   0.158  0.1290 -0.1178  0.7017
  793MOL0    Cl 9341  13.091  10.400   0.196 -0.1011  0.0747 -0.4337
  793MOL0     C 9342  11.852  10.135   0.125  0.4815  0.1036  0.1936
  793MOL0     C 9343  11.728  10.196   0.101  0.2374  0.1782  0.2175
  793MOL0     O 9344  11.647  10.562   0.164  0.2481  0.2333  0.2958
  793MOL0     C 9345  11.397  10.681   0.152 -0.4539  0.4894  0.2293
  793MOL0     C 9346  11.275  10.742   0.143 -0.6747 -0.3671 -0.3253
  793MOL0     N 9347  10.521  10.892  -0.029  0.2519  0.5454  0.2485
  793MOL0     N 9348  10.439  10.906   0.075 -0.3564  0.3464  0.5780
  793MOL0     C 9349   9.800  10.646   0.513  0.1285 -0.2013 -0.3162
  793MOL0     C 9350   9.702  10.568   0.445  0.2674 -0.6995 -0.2416
  793MOL0     C 9351   9.454  10.343   0.213 -0.0268 -0.0732  0.5707
  793MOL0     C 9352   9.328  10.301   0.283 -0.2767  0.4665 -1.1529
  793MOL0     C 9353   9.266  10.184   0.251  0.2156 -0.0360  0.5934
  793MOL0     C 9354   9.318  10.107   0.148 -0.0330 -0.6878  0.5111
  793MOL0     O 9355   9.261   9.986   0.104  0.2889 -1.0390  0.8367
  793MOL0     C 9356   9.143   9.939   0.168  0.4234  0.2755 -0.2911
  793MOL0     C 9357   9.097   9.814   0.101 -0.6300 -0.0785  0.1678
  793MOL0     C 9358   9.059   9.837  -0.047 -0.4259 -0.3068 -0.9469
  793MOL0     C 9359   9.047   9.698  -0.111 -0.7141  0.5634  0.0801
  793MOL0     C 9360   8.950   9.700  -0.212  0.2028 -0.7584  0.6966
  793MOL0     C 9361   8.863   9.676  -0.292  0.0557  0.1492 -0.6244
  793MOL0     C 9362   9.438  10.141   0.083 -0.3751 -0.4518  0.2610
  793MOL0     C 9363   9.508  10.259   0.110 -0.1578  0.2401  0.4127
  793MOL0     C 9364   9.639  10.286   0.031  0.3971  0.5072  0.2640
  793MOL0     H 9365   9.410  10.656   0.587 -0.8103 -1.9860  2.9277
  793MOL0     H 9366   9.574  10.799   0.724 -2.9259 -0.6105  0.1768
  793MOL0     H 9367   9.745  10.991   0.769 -0.7003 -0.1374  0.7256
  793MOL0     H 9368   9.763  10.969   0.594 -2.1120 -3.7334  0.0356
  793MOL0     H 9369   9.923  11.128   0.651 -1.6035  1.2179  1.7772
  793MOL0     H 9370   9.957  11.051   0.808 -2.2311  1.2402  0.1717
  793MOL0     H 9371  10.089  10.886   0.673 -0.5293 -0.1124  1.3046
  793MOL0     H 9372  10.015  10.931   0.528  1.0379 -3.4445  1.1399
  793MOL0     H 9373  10.120  11.160   0.534 -4.1568  0.5213  3.3245
  793MOL0     H 9374  10.187  11.127   0.698 -0.9899 -0.3917  0.8516
  793MOL0     H 9375  10.264  10.954   0.462  0.3349 -0.3949  0.1011
  793MOL0     H 9376  10.335  10.965   0.622  1.5040  2.1132  1.5348
  793MOL0     H 9377  10.346  11.227   0.437  2.2684  2.0627 -1.5075
  793MOL0     H 9378  10.450  11.175   0.565  0.5979 -0.7462 -1.4850
  793MOL0     H 9379  10.487  10.968   0.403 -2.2352  0.3677  1.4795
  793MOL0     H 9380  10.560  11.137   0.367  0.7046 -1.3626  1.7767
  793MOL0     H 9381  10.299  11.031   0.260  0.7172  0.7378 -1.4485
  793MOL0     H 9382  10.368  11.190   0.225 -5.8268 -1.0468 -2.0992
  793MOL0     H 9383  10.602  11.199   0.074 -0.2001 -0.0813  0.9692
  793MOL0     H 9384  10.736  11.122  -0.149  1.1697 -0.8997  2.1761
  793MOL0     H 9385  10.622  11.016  -0.250 -0.8191  1.6919  0.2351
  793MOL0     H 9386  10.752  10.829  -0.228  1.0346  0.3982 -2.9623
  793MOL0     H 9387  10.845  10.959  -0.275 -0.4776 -2.4640 -1.0057
  793MOL0     H 9388  10.911  10.982  -0.023  1.1371  0.5570 -0.8571
  793MOL0     H 9389  10.824  10.831   0.016  0.5400 -0.4159 -0.0400
  793MOL0     H 9390  10.974  10.702  -0.114  0.4374 -0.3538  0.9193
  793MOL0     H 9391  11.064  10.843  -0.170 -1.9441  1.8004 -0.1474
  793MOL0     H 9392  11.202  10.660  -0.170 -1.9408  2.5636  0.4495
  793MOL0     H 9393  11.424  10.404  -0.172 -0.5895  0.1909  0.4701
  793MOL0     H 9394  11.531  10.540  -0.210  0.7185 -1.1191 -4.9323
  793MOL0     H 9395  11.370  10.531  -0.283  1.1878  1.5143  0.0565
  793MOL0     H 9396  11.824  10.492  -0.037 -2.7346  0.4616  2.8029
  793MOL0     H 9397  12.054  10.364  -0.019  0.0795 -0.5144  1.1985
  793MOL0     H 9398  12.154  10.324   0.175 -0.3005  0.5558  0.3712
  793MOL0     H 9399  12.187  10.173   0.268 -1.1430 -2.1480 -0.9372
  793MOL0     H 9400  12.350  10.105   0.097 -0.6386  0.1387 -1.8957
  793MOL0     H 9401  12.308  10.250  -0.000 -0.5998 -0.0442  0.5183
  793MOL0     H 9402  12.413  10.254   0.286  2.3770 -3.1168 -1.1281
  793MOL0     H 9403  12.344  10.397   0.187 -1.0659 -1.0970  0.6445
  793MOL0     H 9404  12.529  10.382   0.035 -0.7849  1.8233 -0.0699
  793MOL0     H 9405  12.601  10.257   0.150  0.4643  0.3014  2.8256
  793MOL0     H 9406  12.505  10.534   0.238  1.6309  0.0834 -1.2261
  793MOL0     H 9407  12.609  10.432   0.337 -2.2668  1.4199  2.0274
  793MOL0     H 9408  12.734  10.606   0.275  1.5021  1.2728 -1.1565
  793MOL0     H 9409  12.695  10.587   0.097 -2.1530  1.5051  0.3611
  793MOL0     H 9410  12.817  10.346   0.139 -0.3245 -1.8352  1.1142
  793MOL0     H 9411  12.838  10.419   0.305  1.6080  1.4930 -0.0748
  793MOL0     H 9412  12.971  10.606   0.203  1.5590  0.5378 -0.9993
  793MOL0     H 9413  12.965  10.513   0.049 -4.3582 -2.6939  0.0736
  793MOL0     H 9414  11.861  10.036   0.168 -1.2147 -1.9232 -3.6487
  793MOL0     H 9415  11.628  10.156   0.115 -0.5920  0.4393 -3.7673
  793MOL0     H 9416  11.451  10.690   0.246 -0.6302  0.4368  0.3349
  793MOL0     H 9417  11.251  10.801   0.231  2.2146  1.7258 -0.8135
  793MOL0     H 9418   9.903  10.638   0.479 -0.2849 -1.1786 -1.4284
  793MOL0     H 9419   9.742  10.499   0.371  0.1667  0.8862 -1.8433
  793MOL0     H 9420   9.290  10.374   0.354 -0.8356  0.1733 -1.1460
  793MOL0     H 9421   9.174  10.162   0.305 -0.2008 -0.1929 -0.1608
  793MOL0     H 9422   9.160   9.914   0.273 -1.1828 -0.6133 -0.2051
  793MOL0     H 9423   9.062  10.011   0.154  0.1643  0.0606  0.0908
  793MOL0     H 9424   9.010   9.767   0.149  1.1482 -1.6056  2.0630
  793MOL0     H 9425   9.174   9.736   0.101 -2.6460 -2.2443 -2.0254
  793MOL0     H 9426   8.965   9.891  -0.059 -0.3962  0.0814  0.4895
  793MOL0     H 9427   9.127   9.902  -0.103 -3.1816  1.4277 -2.5220
  793MOL0     H 9428   9.017   9.616  -0.043  0.3232 -0.2403 -0.4049
  793MOL0     H 9429   9.138   9.658  -0.156 -0.6697 -1.7770  1.9817
  793MOL0     H 9430   8.786   9.664  -0.366  0.9227 -3.4137 -1.1737
  793MOL0     H 9431   9.469  10.078  -0.000  0.4661  0.2362  0.0402
  793MOL0     H 9432   9.632  10.378  -0.028 -1.3592  0.8636  0.9762
  793MOL0     H 9433   9.722  10.283   0.102  1.4157 -0.0124 -0.9032
  793MOL0     H 9434   9.665  10.198  -0.030  1.7987 -1.1221  3.0400
  794MOL0     O 9435   2.147   1.768   9.876  0.5163 -0.7737 -0.3368
  794MOL0     C 9436   2.029   1.735   9.904 -0.0150 -0.9895 -0.7474
  794MOL0     O 9437   1.912   1.817   9.896 -0.4305 -0.8170 -0.3194
  794MOL0     C 9438   1.924   1.947   9.848 -0.4808 -0.5245 -0.0521
  794MOL0     C 9439   1.811   1.995   9.779  1.1197 -0.7290  0.7430
  794MOL0     C 9440   1.808   2.124   9.723 -0.5909 -0.2876  0.0202
  794MOL0     C 9441   1.914   2.210   9.743 -0.2777 -0.0696  0.4675
  794MOL0     O 9442   1.925   2.331   9.687  0.3597  0.1925  0.3219
  794MOL0     C 9443   1.867   2.356   9.557  0.4648 -0.4964  0.3897
  794MOL0     C 9444   1.892   2.502   9.514  0.4535  0.2120  0.5381
  794MOL0     C 9445   1.859   2.520   9.368  0.7423  0.4512  0.5668
  794MOL0     C 9446   1.883   2.659   9.324 -0.5602 -0.0626 -0.2557
  794MOL0     C 9447   2.039   2.682   9.298  0.2084 -0.0592  0.2115
  794MOL0     C 9448   2.079   2.623   9.162  0.1468  0.1363  0.5774
  794MOL0     C 9449   2.216   2.644   9.136  0.0253 -0.0839 -0.4735
  794MOL0     C 9450   2.246   2.770   9.056  0.2953 -0.6536  0.9554
  794MOL0     N 9451   2.394   2.771   9.033  0.4415 -0.4060 -0.1121
  794MOL0     C 9452   2.468   2.760   8.917 -0.4955 -0.5430  0.5935
  794MOL0     C 9453   2.598   2.758   8.937  0.1278 -0.8645 -0.0366
  794MOL0     C 9454   2.716   2.738   8.840  1.1373 -0.0312  0.0352
  794MOL0     C 9455   2.785   2.876   8.818 -0.0787 -0.1677 -0.2715
  794MOL0     C 9456   2.720   2.952   8.702  0.3378  0.4748  0.2696
  794MOL0     C 9457   2.729   3.112   8.683 -0.4782  0.3314  0.5269
  794MOL0     O 9458   2.847   3.171   8.738 -0.3118  0.4143  0.3428
  794MOL0     C 9459   2.966   3.119   8.702  0.0650 -0.9039  0.7097
  794MOL0     C 9460   3.016   3.070   8.580  0.7534  0.2284  0.2670
  794MOL0     C 9461   3.149   3.041   8.563 -0.4507 -0.3353 -0.4598
  794MOL0     C 9462   3.188   2.995   8.422  0.4720  0.6428  0.4025
  794MOL0     C 9463   3.250   3.058   8.665  0.3266 -0.1408  0.4060
  794MOL0     C 9464   3.401   3.028   8.654 -0.2876 -0.7244  0.3600
  794MOL0     O 9465   3.444   2.960   8.542  0.3304  0.5712 -0.0538
  794MOL0     C 9466   3.585   2.944   8.530  1.0610  0.0150 -0.6842
  794MOL0     C 9467   3.687   3.027   8.562 -0.3533 -0.4567  0.0559
  794MOL0     C 9468   3.815   2.985   8.529 -0.5057  0.3828  0.9460
  794MOL0     C 9469   3.848   2.856   8.469  0.2319 -0.6368 -0.7151
  794MOL0     O 9470   3.972   2.801   8.442  0.2073  0.3636  0.4842
  794MOL0     C 9471   4.100   2.868   8.451  0.6354 -1.2797  0.1868
  794MOL0     C 9472   4.216   2.773   8.417 -0.5339  0.4762  0.6407
  794MOL0     C 9473   4.188   2.712   8.285 -0.1229 -0.0036  0.0103
  794MOL0     C 9474   4.316   2.648   8.228 -0.3729 -0.2047 -0.9166
  794MOL0     C 9475   4.304   2.551   8.115  0.3348  0.3029 -0.0353
  794MOL0     C 9476   4.439   2.492   8.066 -0.6976 -0.5456 -0.0072
  794MOL0     C 9477   4.500   2.402   8.178  0.9805 -0.0674  0.3306
  794MOL0     C 9478   4.630   2.342   8.161 -0.7095 -0.3679 -0.3978
  794MOL0    Cl 9479   4.671   2.231   8.298 -0.1562 -0.0530 -0.0939
  794MOL0     C 9480   3.736   2.770   8.443  0.2700 -0.0443 -0.0674
  794MOL0     C 9481   3.612   2.822   8.473  0.9972  0.4148 -0.5524
  794MOL0     O 9482   3.474   3.067   8.755 -0.4179  0.1501 -0.4256
  794MOL0     C 9483   3.200   3.113   8.785  1.1444  0.7857  0.4092
  794MOL0     C 9484   3.061   3.152   8.792 -0.7561  0.0170 -0.1582
  794MOL0     N 9485   2.604   2.760   9.080 -0.3837 -0.0136  0.1448
  794MOL0     N 9486   2.481   2.765   9.135  0.5602  0.4301 -0.3397
  794MOL0     C 9487   2.029   2.170   9.811 -0.0564 -0.8797 -0.0178
  794MOL0     C 9488   2.033   2.041   9.874  0.2601  1.0429  0.2615
  794MOL0     C 9489   2.008   1.592   9.920 -0.6657  1.3651 -0.3422
  794MOL0     C 9490   2.037   1.504   9.815 -0.7530  0.7756 -1.1055
  794MOL0     C 9491   2.009   1.368   9.819 -1.1698  0.3550  0.9691
  794MOL0     C 9492   1.960   1.307   9.931  0.8431 -0.2999  0.8723
  794MOL0     O 9493   1.940   1.170   9.943 -0.3239 -0.0980 -0.2126
  794MOL0     C 9494   1.937   1.075   9.830 -0.1581 -0.7430 -0.7828
  794MOL0     C 9495   1.838   0.955   9.865 -0.1417 -0.2459  0.5552
  794MOL0     C 9496   1.838   0.852   9.743  0.0237 -0.0588  0.0178
  794MOL0     C 9497   1.789   0.720   9.794 -0.7951 -0.3417 -0.8490
  794MOL0     C 9498   1.824   0.619   9.696 -1.0465 -0.0556  1.0099
  794MOL0     C 9499   1.857   0.533   9.614  0.4474 -0.5956  0.3798
  794MOL0     C 9500   1.942   1.390  10.041 -0.5772  0.1270 -0.2022
  794MOL0     C 9501   1.966   1.527  10.042  0.3830 -0.1183 -0.1286
  794MOL0     C 9502   1.909   1.602  10.157 -0.5948  0.0467 -0.3672
  794MOL0     H 9503   1.730   1.929   9.751 -0.1559  2.1385 -3.2620
  794MOL0     H 9504   1.732   2.156   9.652 -1.1598 -1.6199  0.0014
  794MOL0     H 9505   1.758   2.352   9.559  0.3035  1.3194 -1.1983
  794MOL0     H 9506   1.900   2.281   9.484 -0.1666 -1.6249  1.2359
  794MOL0     H 9507   1.821   2.560   9.573 -1.3499 -0.7264 -0.6087
  794MOL0     H 9508   1.996   2.533   9.528  0.0338  2.4248 -0.7977
  794MOL0     H 9509   1.909   2.446   9.305  1.6875 -0.4965  2.3491
  794MOL0     H 9510   1.752   2.500   9.355  0.7310  0.9462 -0.1418
  794MOL0     H 9511   1.818   2.669   9.237  0.1995  3.2456 -0.5701
  794MOL0     H 9512   1.843   2.731   9.396 -0.1538  3.2561 -3.1280
  794MOL0     H 9513   2.099   2.638   9.378  0.5349  2.3530  1.4056
  794MOL0     H 9514   2.064   2.789   9.304  0.2441 -0.1284  2.1175
  794MOL0     H 9515   2.079   2.514   9.175  0.6070 -0.5191 -3.4710
  794MOL0     H 9516   2.008   2.654   9.085  2.0123  0.7888 -0.9559
  794MOL0     H 9517   2.258   2.562   9.077 -3.1192 -2.0717 -0.1869
  794MOL0     H 9518   2.275   2.653   9.227 -3.2173  4.1310  1.5668
  794MOL0     H 9519   2.203   2.797   8.959  2.9346  3.3253  0.6321
  794MOL0     H 9520   2.216   2.847   9.128  1.8201  1.3550 -0.4378
  794MOL0     H 9521   2.421   2.741   8.821 -0.0653 -0.4928  0.3663
  794MOL0     H 9522   2.682   2.704   8.742 -2.2410 -0.4417  1.2063
  794MOL0     H 9523   2.776   2.660   8.887  1.8781  0.6866  0.3014
  794MOL0     H 9524   2.796   2.944   8.903 -1.3576 -2.8050  2.1783
  794MOL0     H 9525   2.883   2.839   8.788 -0.5932 -0.7759 -1.2762
  794MOL0     H 9526   2.772   2.913   8.614 -0.7979 -0.0769 -0.1798
  794MOL0     H 9527   2.616   2.920   8.702 -0.4428  2.7733  1.9852
  794MOL0     H 9528   2.707   3.134   8.578  0.3843 -2.2115 -0.2690
  794MOL0     H 9529   2.659   3.152   8.758  0.9705  1.8857  1.0988
  794MOL0     H 9530   2.947   3.058   8.497  0.5899  1.3748  0.2261
  794MOL0     H 9531   3.238   2.898   8.427  2.3194  1.4357 -1.3473
  794MOL0     H 9532   3.266   3.065   8.390  1.7507 -0.4453  1.0223
  794MOL0     H 9533   3.106   2.989   8.350  0.7366  0.4679  0.1162
  794MOL0     H 9534   3.684   3.123   8.612 -2.9539 -0.1053 -0.6372
  794MOL0     H 9535   3.902   3.043   8.560  1.0577 -2.2225  1.6988
  794MOL0     H 9536   4.100   2.963   8.396 -4.7865 -1.4768 -0.6835
  794MOL0     H 9537   4.111   2.887   8.558  0.8731 -0.9484  0.1065
  794MOL0     H 9538   4.305   2.837   8.416 -1.8103  2.3109 -0.6460
  794MOL0     H 9539   4.225   2.693   8.491  0.2136 -5.0552 -4.7010
  794MOL0     H 9540   4.155   2.790   8.215  3.9462  1.0523 -0.9962
  794MOL0     H 9541   4.121   2.626   8.293  0.4482 -0.7886 -2.6239
  794MOL0     H 9542   4.356   2.581   8.305  2.9944 -0.5544 -2.7787
  794MOL0     H 9543   4.394   2.722   8.207 -1.0236 -0.0264 -2.8962
  794MOL0     H 9544   4.230   2.474   8.140 -0.0457  0.4043 -0.8044
  794MOL0     H 9545   4.260   2.594   8.025  1.9949 -1.3368 -1.7055
  794MOL0     H 9546   4.514   2.566   8.038  0.7552 -1.2761  1.7570
  794MOL0     H 9547   4.418   2.434   7.976 -1.9805  0.5549 -0.4685
  794MOL0     H 9548   4.425   2.323   8.191  0.3165  0.0113 -2.3727
  794MOL0     H 9549   4.491   2.451   8.275 -2.5718  1.1915 -0.4837
  794MOL0     H 9550   4.709   2.418   8.162  0.2167 -1.2995  0.7299
  794MOL0     H 9551   4.621   2.285   8.069 -0.1733  0.6305 -1.0853
  794MOL0     H 9552   3.760   2.672   8.403  0.5022 -0.6186  1.3806
  794MOL0     H 9553   3.530   2.758   8.443  0.8068  2.4113 -5.1393
  794MOL0     H 9554   3.260   3.152   8.866 -0.5374 -0.2604  2.2337
  794MOL0     H 9555   3.019   3.203   8.878  0.2006  3.8272 -1.7410
  794MOL0     H 9556   2.112   2.239   9.798 -0.1079 -1.1635 -2.4619
  794MOL0     H 9557   2.125   2.020   9.929  0.3893 -0.9367 -0.6421
  794MOL0     H 9558   2.075   1.552   9.726  1.2251  2.1874  0.4190
  794MOL0     H 9559   2.033   1.299   9.739  0.3735 -2.2113  3.4157
  794MOL0     H 9560   1.893   1.118   9.739  2.5284 -0.3070 -1.9912
  794MOL0     H 9561   2.039   1.039   9.815  0.6872  1.0967  0.3145
  794MOL0     H 9562   1.742   1.008   9.877  1.4153  3.2327 -0.8538
  794MOL0     H 9563   1.872   0.923   9.963  1.0924  3.4013  1.4870
  794MOL0     H 9564   1.769   0.882   9.664 -1.1389  2.2272  1.8005
  794MOL0     H 9565   1.940   0.838   9.705 -0.3202 -0.7207 -0.6898
  794MOL0     H 9566   1.681   0.716   9.815 -0.2832 -2.3859  2.0156
  794MOL0     H 9567   1.841   0.698   9.887  0.8004 -2.9949 -2.2333
  794MOL0     H 9568   1.897   0.465   9.541 -0.5503 -0.4498 -0.3233
  794MOL0     H 9569   1.885   1.355  10.126  0.4179  1.6421  1.1758
  794MOL0     H 9570   1.829   1.545  10.205 -0.1263 -0.2481  0.0799
  794MOL0     H 9571   1.987   1.621  10.232 -0.1686 -0.2851 -0.7210
  794MOL0     H 9572   1.877   1.700  10.122  4.5488  0.9109 -3.7782
  795MOL0     O 9573   3.082   1.788   0.306  0.5846 -0.0948 -0.3214
  795MOL0     C 9574   3.078   1.831   0.187  0.1186 -0.5697 -0.2472
  795MOL0     O 9575   3.185   1.862   0.111 -0.7523 -0.1847 -0.0176
  795MOL0     C 9576   3.316   1.845   0.156 -0.4228  0.5177 -0.5138
  795MOL0     C 9577   3.353   1.748   0.248 -0.7879 -0.1788 -0.0525
  795MOL0     C 9578   3.492   1.728   0.265  0.2371  0.7283 -0.8665
  795MOL0     C 9579   3.585   1.808   0.209 -0.1025  0.8339  0.5403
  795MOL0     O 9580   3.715   1.771   0.224 -0.2368  1.1462 -0.5587
  795MOL0     C 9581   3.809   1.873   0.260  0.9081 -1.0309  0.7847
  795MOL0     C 9582   3.784   1.940   0.395  0.6462  0.3627 -0.1885
  795MOL0     C 9583   3.898   2.037   0.434 -0.0590  0.1464  1.0253
  795MOL0     C 9584   3.867   2.128   0.549  0.0571  0.6619 -0.4634
  795MOL0     C 9585   3.990   2.198   0.587 -0.6068 -0.3597  0.8485
  795MOL0     C 9586   3.955   2.287   0.706  0.1509  0.0693  0.4088
  795MOL0     C 9587   4.079   2.344   0.791  0.1492  0.6069  0.1627
  795MOL0     C 9588   4.182   2.423   0.709  0.5422  0.0313 -0.6587
  795MOL0     N 9589   4.306   2.435   0.802  0.6036 -0.2509 -0.0786
  795MOL0     C 9590   4.315   2.536   0.889 -0.2613 -1.3259 -0.6851
  795MOL0     C 9591   4.431   2.521   0.959  0.1085 -0.2901 -0.2093
  795MOL0     C 9592   4.483   2.618   1.060 -0.1563  0.3654 -0.6436
  795MOL0     C 9593   4.570   2.715   0.977 -0.3980  0.1250 -0.0129
  795MOL0     C 9594   4.642   2.837   1.046  0.6141  0.8165  0.6410
  795MOL0     C 9595   4.744   2.777   1.146  0.9076 -0.1447 -0.0486
  795MOL0     O 9596   4.858   2.712   1.092 -0.4900 -0.5018 -0.3953
  795MOL0     C 9597   4.934   2.791   1.009 -0.3072  0.1987  0.0151
  795MOL0     C 9598   4.982   2.919   1.043  0.4818 -0.4550 -0.7187
  795MOL0     C 9599   5.049   2.992   0.954 -0.7744 -1.6641 -0.5313
  795MOL0     C 9600   5.073   3.136   1.005 -1.3123  0.0685  0.4596
  795MOL0     C 9601   5.081   2.946   0.827  0.2545  0.6897  0.8247
  795MOL0     C 9602   5.141   3.018   0.718 -0.4458  0.4475 -0.1572
  795MOL0     O 9603   5.223   3.121   0.746 -0.1153 -0.1459 -0.5722
  795MOL0     C 9604   5.281   3.197   0.645  0.2022 -1.0505 -0.7817
  795MOL0     C 9605   5.202   3.294   0.577  0.1004 -0.0301 -0.6743
  795MOL0     C 9606   5.250   3.383   0.485 -0.6519  0.5605  0.0724
  795MOL0     C 9607   5.387   3.394   0.465  0.7088  0.4987  0.0496
  795MOL0     O 9608   5.432   3.474   0.359  0.2750  0.0263  0.4669
  795MOL0     C 9609   5.529   3.580   0.388  0.6696  0.9539  0.1340
  795MOL0     C 9610   5.553   3.634   0.257  0.5235 -0.3582 -1.1794
  795MOL0     C 9611   5.681   3.717   0.242 -0.4175 -0.8645  0.4461
  795MOL0     C 9612   5.718   3.739   0.097 -0.5184  0.5521  1.3214
  795MOL0     C 9613   5.858   3.810   0.082  0.4742 -0.5575 -0.0525
  795MOL0     C 9614   5.880   3.872  -0.057 -0.2840  0.2401 -0.8147
  795MOL0     C 9615   5.910   3.770  -0.166 -0.2228  0.3584  0.6222
  795MOL0     C 9616   5.927   3.841  -0.302  0.1293 -0.1866 -0.1178
  795MOL0    Cl 9617   5.962   3.717  -0.423  0.2879  0.0026 -0.0628
  795MOL0     C 9618   5.470   3.319   0.548 -0.0292 -0.7078 -0.3444
  795MOL0     C 9619   5.423   3.219   0.635  0.4387 -0.5533  0.8029
  795MOL0     O 9620   5.125   2.972   0.603 -0.1406 -0.0364 -0.0984
  795MOL0     C 9621   5.053   2.809   0.797 -0.4573 -0.4052 -1.4735
  795MOL0     C 9622   4.990   2.730   0.894  0.6536 -0.0479  0.1058
  795MOL0     N 9623   4.493   2.418   0.902 -0.6675 -0.2456  0.5710
  795MOL0     N 9624   4.424   2.368   0.803  0.2949  0.7507  0.1516
  795MOL0     C 9625   3.545   1.901   0.117  0.0138 -0.2191  0.3638
  795MOL0     C 9626   3.411   1.916   0.091  1.2507  0.3097  0.0316
  795MOL0     C 9627   2.948   1.829   0.116 -0.0846  0.5194  0.1314
  795MOL0     C 9628   2.945   1.758  -0.011 -0.0552  0.1756  0.3483
  795MOL0     C 9629   2.826   1.757  -0.078  1.0281 -0.4723  0.7644
  795MOL0     C 9630   2.704   1.814  -0.021 -0.5506  0.9522  0.4736
  795MOL0     O 9631   2.592   1.784  -0.093  0.3543  0.7378  0.7837
  795MOL0     C 9632   2.465   1.827  -0.045 -0.3784  0.6203 -0.0928
  795MOL0     C 9633   2.438   1.964  -0.103  0.1825 -0.3442  0.2149
  795MOL0     C 9634   2.471   1.978  -0.251  0.5475  0.0364  0.2695
  795MOL0     C 9635   2.408   1.870  -0.348  0.0051  0.2970  0.5924
  795MOL0     C 9636   2.261   1.858  -0.329 -0.6509  0.0085 -0.3663
  795MOL0     C 9637   2.138   1.841  -0.314 -0.1459 -0.3342  0.3367
  795MOL0     C 9638   2.710   1.874   0.102 -0.2401 -0.0063  0.7637
  795MOL0     C 9639   2.832   1.891   0.167  0.2795  0.9025 -0.3002
  795MOL0     C 9640   2.820   1.958   0.309 -0.7671  0.5359 -0.1271
  795MOL0     H 9641   3.283   1.682   0.298  0.1839  0.5320  2.3472
  795MOL0     H 9642   3.517   1.643   0.329  1.9776 -0.1235 -2.5500
  795MOL0     H 9643   3.808   1.959   0.191  1.2499  0.0444  2.0719
  795MOL0     H 9644   3.908   1.827   0.262  1.7249  0.5631 -0.3380
  795MOL0     H 9645   3.690   1.996   0.390  1.6088  1.9579 -2.5068
  795MOL0     H 9646   3.783   1.862   0.472  0.9694 -2.0723 -2.5237
  795MOL0     H 9647   3.986   1.979   0.464 -0.7513 -1.6768 -0.3121
  795MOL0     H 9648   3.930   2.103   0.353  0.2228 -2.2987 -0.9753
  795MOL0     H 9649   3.791   2.200   0.516  0.2553  1.2674  0.3679
  795MOL0     H 9650   3.819   2.077   0.632  1.7829 -0.0655  0.1373
  795MOL0     H 9651   4.021   2.264   0.506  0.4022  0.1176  1.6015
  795MOL0     H 9652   4.069   2.128   0.615  1.4185  1.6345  0.3266
  795MOL0     H 9653   3.885   2.368   0.684 -0.7117 -0.6378  0.4539
  795MOL0     H 9654   3.900   2.220   0.773  1.2313 -3.2739 -1.7607
  795MOL0     H 9655   4.127   2.260   0.841  1.7750  0.0098 -2.2518
  795MOL0     H 9656   4.030   2.409   0.864 -0.1282  1.4269 -0.7328
  795MOL0     H 9657   4.221   2.363   0.626  0.3194  1.3745 -1.7546
  795MOL0     H 9658   4.146   2.516   0.665  2.2581  0.3387 -1.4987
  795MOL0     H 9659   4.247   2.616   0.915  3.0197  0.5305  3.2988
  795MOL0     H 9660   4.533   2.559   1.137  0.8391  1.5561 -0.3574
  795MOL0     H 9661   4.403   2.671   1.112  1.5814  1.2971  1.1784
  795MOL0     H 9662   4.641   2.647   0.929 -1.7494 -2.1901  1.0276
  795MOL0     H 9663   4.511   2.755   0.895 -0.9406 -2.3054 -0.8840
  795MOL0     H 9664   4.703   2.895   0.976  0.7760 -0.1511 -0.0370
  795MOL0     H 9665   4.558   2.898   1.082 -0.8019  1.4124 -3.2342
  795MOL0     H 9666   4.769   2.858   1.214  1.4105 -1.0628  0.8897
  795MOL0     H 9667   4.700   2.699   1.210  1.1117 -3.2275 -3.3766
  795MOL0     H 9668   4.949   2.953   1.141 -0.4131  0.4337 -1.3176
  795MOL0     H 9669   5.003   3.198   0.948 -0.7338 -0.6244 -1.0602
  795MOL0     H 9670   5.176   3.167   0.981 -1.7851  1.8133  0.5372
  795MOL0     H 9671   5.059   3.144   1.113 -1.8180  0.9063  0.3383
  795MOL0     H 9672   5.098   3.270   0.596  0.0912 -0.5167 -1.2957
  795MOL0     H 9673   5.184   3.443   0.423 -1.3424  0.2005  0.4464
  795MOL0     H 9674   5.491   3.660   0.454 -0.5623  0.6085 -0.1240
  795MOL0     H 9675   5.623   3.547   0.432  0.8458  1.6591  0.3021
  795MOL0     H 9676   5.557   3.546   0.192 -0.3662  0.0323 -1.7853
  795MOL0     H 9677   5.461   3.686   0.229 -0.8882 -2.5079 -0.7714
  795MOL0     H 9678   5.758   3.666   0.300 -0.7747 -0.1709  1.5647
  795MOL0     H 9679   5.676   3.814   0.292  2.2746  0.6676 -1.9491
  795MOL0     H 9680   5.633   3.796   0.060 -2.2793 -2.9181 -0.3915
  795MOL0     H 9681   5.721   3.641   0.049 -0.0687  2.0293 -1.9273
  795MOL0     H 9682   5.870   3.884   0.162  2.2438  0.4935 -1.2270
  795MOL0     H 9683   5.929   3.729   0.098  0.5050 -0.4554  0.3359
  795MOL0     H 9684   5.969   3.930  -0.033  0.1775 -1.7623  3.0915
  795MOL0     H 9685   5.792   3.933  -0.079 -1.9600  0.1201  4.2535
  795MOL0     H 9686   5.817   3.714  -0.178 -0.7435  0.2628  4.1318
  795MOL0     H 9687   5.989   3.699  -0.140 -0.2907 -0.4825 -1.3078
  795MOL0     H 9688   6.003   3.919  -0.295 -0.5724  0.3879  1.9489
  795MOL0     H 9689   5.831   3.890  -0.324 -0.8955 -1.6127  0.9420
  795MOL0     H 9690   5.574   3.344   0.528 -0.3133  0.6224 -0.2700
  795MOL0     H 9691   5.494   3.154   0.685  1.2545 -0.6316 -0.4102
  795MOL0     H 9692   5.085   2.756   0.707 -0.1027 -3.1008  0.1311
  795MOL0     H 9693   4.988   2.623   0.877 -0.1728 -0.2345  1.2437
  795MOL0     H 9694   3.622   1.963   0.073  0.6828 -2.4123 -1.7442
  795MOL0     H 9695   3.371   1.981   0.014  1.0595 -0.3198 -0.4156
  795MOL0     H 9696   3.030   1.701  -0.048  0.3162  0.3274  0.9564
  795MOL0     H 9697   2.810   1.696  -0.166  0.7395  0.4612  0.1540
  795MOL0     H 9698   2.389   1.759  -0.084 -1.5402  1.7813  0.0770
  795MOL0     H 9699   2.465   1.816   0.064  3.1436  0.4240  0.0120
  795MOL0     H 9700   2.499   2.044  -0.060 -3.0185  2.8863 -0.6819
  795MOL0     H 9701   2.332   1.993  -0.092 -0.0064 -0.3789 -1.3142
  795MOL0     H 9702   2.421   2.071  -0.281 -1.4855 -2.0665 -3.7101
  795MOL0     H 9703   2.578   1.985  -0.270  0.2666 -0.2432 -1.7176
  795MOL0     H 9704   2.452   1.771  -0.330 -1.4799 -0.5166 -0.0391
  795MOL0     H 9705   2.432   1.893  -0.452 -1.6055 -0.5935 -0.0175
  795MOL0     H 9706   2.032   1.826  -0.307  0.1465 -3.4286 -0.2073
  795MOL0     H 9707   2.628   1.919   0.157  0.9517  1.5042  1.3929
  795MOL0     H 9708   2.795   2.065   0.301  0.2443  0.7316 -0.8892
  795MOL0     H 9709   2.738   1.909   0.361  0.7102  0.0089  1.8414
  795MOL0     H 9710   2.904   1.944   0.377 -1.8968  1.2024  1.4569
  796MOL0     O 9711   0.929   0.375   8.639  0.5045  0.1271  1.0127
  796MOL0     C 9712   0.975   0.456   8.567 -0.7201 -0.6389 -0.0429
  796MOL0     O 9713   1.106   0.459   8.531  0.5752 -0.7877  0.6535
  796MOL0     C 9714   1.186   0.364   8.591 -0.5213  0.3526  0.1064
  796MOL0     C 9715   1.252   0.273   8.511 -0.0780 -0.8706 -0.8215
  796MOL0     C 9716   1.345   0.184   8.565 -0.2713 -0.1352  0.6631
  796MOL0     C 9717   1.369   0.170   8.705 -0.2452 -0.4007 -0.0891
  796MOL0     O 9718   1.456   0.068   8.736  0.1845 -0.5918 -0.5462
  796MOL0     C 9719   1.497   0.067   8.873 -0.5609  0.2078  0.4790
  796MOL0     C 9720   1.628  -0.002   8.894 -0.2338  0.9333 -0.2001
  796MOL0     C 9721   1.700   0.026   9.037 -0.2806 -0.3598 -0.7690
  796MOL0     C 9722   1.849   0.008   9.034 -0.0497  0.2101 -0.5449
  796MOL0     C 9723   1.898   0.044   9.172  0.0978  0.0098 -0.4038
  796MOL0     C 9724   2.028  -0.028   9.202  0.3272 -0.0258 -0.4720
  796MOL0     C 9725   2.097   0.038   9.324 -0.4715 -0.3535  0.2154
  796MOL0     C 9726   2.244   0.001   9.347 -0.0422  0.1492 -0.8627
  796MOL0     N 9727   2.324  -0.010   9.234 -1.1227 -0.3017  0.6286
  796MOL0     C 9728   2.368   0.109   9.165 -0.5549 -0.0465 -1.0922
  796MOL0     C 9729   2.477   0.075   9.092 -0.4111  0.1078 -0.3107
  796MOL0     C 9730   2.550   0.174   9.016 -0.8923 -0.7380  0.9405
  796MOL0     C 9731   2.691   0.199   9.064 -0.0876  0.7472 -0.2586
  796MOL0     C 9732   2.789   0.090   9.011 -0.1667 -0.0722  0.1274
  796MOL0     C 9733   2.912   0.088   9.107  1.0745 -0.8306  0.1450
  796MOL0     O 9734   2.993   0.201   9.085 -0.6897 -0.0723  0.6787
  796MOL0     C 9735   3.125   0.196   9.127  0.2964  0.6236  0.6105
  796MOL0     C 9736   3.175   0.086   9.197 -0.2324 -0.0311 -0.0067
  796MOL0     C 9737   3.321   0.070   9.228  0.7858  0.4167 -0.0894
  796MOL0     C 9738   3.369  -0.059   9.296 -0.5435 -0.5339 -0.1229
  796MOL0     C 9739   3.400   0.176   9.189  0.1116 -0.9438  0.3452
  796MOL0     C 9740   3.537   0.182   9.222 -1.1884  0.6788 -0.8399
  796MOL0     O 9741   3.621   0.227   9.117 -0.0064  0.3551 -0.0424
  796MOL0     C 9742   3.753   0.232   9.139  0.7143 -0.1518  0.1136
  796MOL0     C 9743   3.833   0.120   9.106  0.8189 -0.2001 -0.5177
  796MOL0     C 9744   3.969   0.120   9.141  0.1762  0.3976 -0.0930
  796MOL0     C 9745   4.025   0.236   9.203  1.0729  0.3989  0.2919
  796MOL0     O 9746   4.157   0.230   9.229  0.3535  0.1575 -0.9696
  796MOL0     C 9747   4.244   0.347   9.217  0.3111  0.3279 -0.2968
  796MOL0     C 9748   4.385   0.293   9.259  0.8710 -0.1334  0.3867
  796MOL0     C 9749   4.482   0.395   9.303  0.0036  0.3379  0.0298
  796MOL0     C 9750   4.619   0.344   9.346  0.0991 -0.0985  0.3184
  796MOL0     C 9751   4.732   0.444   9.347  0.9446  0.0601 -0.2420
  796MOL0     C 9752   4.717   0.551   9.447 -0.2199  0.4344 -0.4906
  796MOL0     C 9753   4.856   0.616   9.460  0.1925 -0.1611  0.3508
  796MOL0     C 9754   4.831   0.739   9.550  0.0750  0.0891  0.2010
  796MOL0    Cl 9755   4.747   0.864   9.447  0.4041  0.5417 -0.3414
  796MOL0     C 9756   3.943   0.344   9.222  0.2487  0.6303 -0.3191
  796MOL0     C 9757   3.812   0.347   9.189  0.2394 -0.1428 -0.3631
  796MOL0     O 9758   3.571   0.134   9.330  0.1594 -1.1510  0.1433
  796MOL0     C 9759   3.347   0.287   9.112  0.0368 -0.6459  0.3106
  796MOL0     C 9760   3.213   0.287   9.080  0.2767  0.1632 -0.6116
  796MOL0     N 9761   2.499  -0.058   9.124 -0.9324  0.4569  0.1736
  796MOL0     N 9762   2.415  -0.107   9.201  0.3266 -0.6284 -0.2049
  796MOL0     C 9763   1.308   0.267   8.783 -0.2046 -0.8746  0.1422
  796MOL0     C 9764   1.221   0.367   8.724  0.7900  0.0348  0.5845
  796MOL0     C 9765   0.893   0.572   8.524  0.7093  0.5249 -0.3221
  796MOL0     C 9766   0.800   0.621   8.616 -0.6715  0.4693  0.8766
  796MOL0     C 9767   0.709   0.733   8.593  0.4297 -0.0141  0.3673
  796MOL0     C 9768   0.720   0.796   8.468  0.4691  0.4461 -0.0540
  796MOL0     O 9769   0.660   0.919   8.451  0.1053  0.2506 -0.2156
  796MOL0     C 9770   0.685   0.997   8.324  0.3545  0.1774  0.1670
  796MOL0     C 9771   0.566   1.096   8.329 -1.1527  0.4569  0.2213
  796MOL0     C 9772   0.588   1.212   8.226  0.9859 -0.1316 -0.1752
  796MOL0     C 9773   0.601   1.336   8.305  0.5097 -0.1128  0.4494
  796MOL0     C 9774   0.726   1.362   8.383  0.0874  0.1178 -0.4263
  796MOL0     C 9775   0.825   1.395   8.441  0.4581 -0.7999 -0.1967
  796MOL0     C 9776   0.804   0.737   8.369  0.2848 -0.2326  0.0931
  796MOL0     C 9777   0.893   0.633   8.396  0.7517  0.5963  0.6275
  796MOL0     C 9778   0.977   0.580   8.287 -0.1120  0.2496  1.0919
  796MOL0     H 9779   1.248   0.272   8.402 -2.8033  1.0040 -0.8323
  796MOL0     H 9780   1.398   0.119   8.496 -0.0717  1.6355 -0.9476
  796MOL0     H 9781   1.418   0.015   8.930 -1.5175  0.0133 -0.9750
  796MOL0     H 9782   1.516   0.167   8.912  4.3739  0.5935 -2.2026
  796MOL0     H 9783   1.616  -0.109   8.879 -0.8823  0.9836 -0.1057
  796MOL0     H 9784   1.697   0.033   8.817 -0.5163  3.3909  0.5655
  796MOL0     H 9785   1.671   0.126   9.070 -1.2898 -1.0428  0.5281
  796MOL0     H 9786   1.655  -0.047   9.105 -1.4358 -1.1217 -2.2927
  796MOL0     H 9787   1.879  -0.089   8.993  1.3499  1.1442 -1.8176
  796MOL0     H 9788   1.876   0.084   8.960 -2.8540  2.7308  0.7770
  796MOL0     H 9789   1.829   0.032   9.256 -2.8342  2.1219 -2.2781
  796MOL0     H 9790   1.910   0.153   9.175 -0.8228  0.1023  0.9841
  796MOL0     H 9791   2.016  -0.136   9.213  5.8703 -0.9240 -0.4932
  796MOL0     H 9792   2.099  -0.013   9.120  0.6459  1.9745  0.1172
  796MOL0     H 9793   2.033   0.026   9.412 -0.8835  1.5096  0.2151
  796MOL0     H 9794   2.103   0.144   9.298  1.6830  0.0863  2.1781
  796MOL0     H 9795   2.284   0.064   9.427  0.8045 -1.1724 -0.2112
  796MOL0     H 9796   2.245  -0.099   9.391 -3.3485  0.4212  0.1510
  796MOL0     H 9797   2.324   0.207   9.179 -0.6077 -0.3443  1.2246
  796MOL0     H 9798   2.501   0.272   9.010  0.7554  0.0178 -0.8801
  796MOL0     H 9799   2.551   0.143   8.911  1.6382  1.0646  0.3446
  796MOL0     H 9800   2.724   0.297   9.029 -1.0215  1.2576  0.2735
  796MOL0     H 9801   2.700   0.196   9.173  1.2641  1.5502 -0.3314
  796MOL0     H 9802   2.748  -0.011   9.015  1.5898 -0.9179 -1.3547
  796MOL0     H 9803   2.823   0.106   8.908 -0.7345 -2.8111 -0.5685
  796MOL0     H 9804   2.871   0.091   9.208 -0.2077  0.9618 -0.3799
  796MOL0     H 9805   2.957  -0.011   9.099  0.0655 -1.3372  0.6595
  796MOL0     H 9806   3.116  -0.003   9.217  0.2040 -0.4791 -0.6541
  796MOL0     H 9807   3.467  -0.090   9.257  0.0429  0.6845  0.3085
  796MOL0     H 9808   3.287  -0.130   9.289 -1.3853  0.2168  1.5547
  796MOL0     H 9809   3.367  -0.042   9.404 -0.0316 -0.5278 -0.1090
  796MOL0     H 9810   3.781   0.034   9.068  0.6941 -0.0316 -0.7334
  796MOL0     H 9811   4.033   0.039   9.108 -0.8398 -0.6935  0.5088
  796MOL0     H 9812   4.251   0.382   9.113  0.4556  2.5549  0.3976
  796MOL0     H 9813   4.209   0.430   9.280 -1.8371  0.7654 -1.9571
  796MOL0     H 9814   4.368   0.221   9.339  1.1547 -0.7858 -0.1289
  796MOL0     H 9815   4.411   0.234   9.170 -0.1650  0.7950 -0.5687
  796MOL0     H 9816   4.451   0.466   9.381  1.2095  2.4540 -1.3217
  796MOL0     H 9817   4.501   0.461   9.218  1.8974  2.9140  2.2819
  796MOL0     H 9818   4.652   0.264   9.279 -1.5581  0.5477 -1.3534
  796MOL0     H 9819   4.613   0.305   9.448 -2.5374  3.5051  1.7425
  796MOL0     H 9820   4.827   0.391   9.364 -0.0458 -1.4855  0.7638
  796MOL0     H 9821   4.738   0.495   9.251  1.3518  1.0864  0.3090
  796MOL0     H 9822   4.689   0.496   9.538  1.8515 -3.4511 -1.9944
  796MOL0     H 9823   4.640   0.620   9.410  0.0323  0.8929 -0.1686
  796MOL0     H 9824   4.907   0.650   9.370 -0.3943 -0.0792  0.0415
  796MOL0     H 9825   4.918   0.537   9.503  0.4106 -0.8446 -1.1641
  796MOL0     H 9826   4.926   0.784   9.583 -0.6913  1.5626  0.4863
  796MOL0     H 9827   4.785   0.718   9.647 -0.1882  2.9402  0.7997
  796MOL0     H 9828   3.985   0.440   9.253 -0.7424  1.7694 -2.3038
  796MOL0     H 9829   3.733   0.421   9.198 -0.2402 -0.7484  0.5733
  796MOL0     H 9830   3.416   0.362   9.075 -2.4475  1.0399 -1.2290
  796MOL0     H 9831   3.182   0.377   9.027  0.7408  0.4619 -0.3837
  796MOL0     H 9832   1.337   0.266   8.888 -1.5728 -3.1541  0.5631
  796MOL0     H 9833   1.177   0.443   8.788  1.1262 -0.7108  1.7325
  796MOL0     H 9834   0.793   0.581   8.717 -2.5144  0.0388  0.6101
  796MOL0     H 9835   0.653   0.772   8.677  0.1993  0.7193 -0.1241
  796MOL0     H 9836   0.780   1.050   8.331 -0.9372  2.7456 -0.7212
  796MOL0     H 9837   0.675   0.941   8.230 -0.1237 -2.1474  1.5093
  796MOL0     H 9838   0.575   1.141   8.428  0.1728  1.1503 -0.2019
  796MOL0     H 9839   0.466   1.050   8.321 -2.7450  3.6652  0.2388
  796MOL0     H 9840   0.667   1.182   8.157 -0.1464 -4.4909  0.1776
  796MOL0     H 9841   0.500   1.235   8.165  1.2133  2.1814  0.2700
  796MOL0     H 9842   0.514   1.341   8.371 -1.0038  1.3473 -1.4987
  796MOL0     H 9843   0.591   1.415   8.229 -3.7610  0.0592  0.9243
  796MOL0     H 9844   0.921   1.410   8.486 -0.1004 -0.4308  0.9165
  796MOL0     H 9845   0.806   0.777   8.268  1.2151  0.4768  0.3845
  796MOL0     H 9846   0.948   0.632   8.195  0.8643 -1.0539 -0.0071
  796MOL0     H 9847   1.080   0.600   8.319  0.4452 -2.1410  0.9703
  796MOL0     H 9848   0.951   0.475   8.275 -0.9639  0.5127  0.5270
  797MOL0     O 9849   0.942   5.391   1.044  0.2925  0.3044  0.3544
  797MOL0     C 9850   0.911   5.497   0.978  1.3543 -0.3424  0.4765
  797MOL0     O 9851   0.980   5.612   0.976 -0.2348 -0.4794  0.3140
  797MOL0     C 9852   1.055   5.633   1.089 -0.6817  0.1148  0.2450
  797MOL0     C 9853   0.993   5.629   1.215  0.2351 -0.1748  1.8361
  797MOL0     C 9854   1.068   5.649   1.329 -0.2113 -0.2888  0.1989
  797MOL0     C 9855   1.204   5.687   1.313  0.6814 -0.3174 -0.7660
  797MOL0     O 9856   1.277   5.709   1.424 -0.6669 -0.5475  0.1977
  797MOL0     C 9857   1.422   5.695   1.425 -0.2666 -0.8343  0.6456
  797MOL0     C 9858   1.462   5.675   1.573 -0.8670  0.6371 -0.9940
  797MOL0     C 9859   1.625   5.654   1.587  0.5196  0.1963 -0.1727
  797MOL0     C 9860   1.709   5.749   1.508  0.4865 -0.1320  0.1026
  797MOL0     C 9861   1.862   5.733   1.555  0.1560 -0.5737  0.8466
  797MOL0     C 9862   1.924   5.607   1.505  0.8645 -0.3579 -0.7598
  797MOL0     C 9863   2.057   5.568   1.565 -0.3880 -0.3004 -1.1788
  797MOL0     C 9864   2.064   5.525   1.712 -0.4895 -0.0079  0.3188
  797MOL0     N 9865   1.987   5.409   1.748 -0.0686 -0.0653 -0.5652
  797MOL0     C 9866   1.868   5.407   1.818 -0.1163 -0.1108  0.1236
  797MOL0     C 9867   1.841   5.276   1.819 -0.0560  0.3083 -0.1468
  797MOL0     C 9868   1.725   5.228   1.906  0.6099 -0.0841  0.5861
  797MOL0     C 9869   1.746   5.089   1.981  0.1543  0.4101  1.5048
  797MOL0     C 9870   1.850   5.096   2.090 -0.2844  0.3788 -0.5337
  797MOL0     C 9871   1.941   4.981   2.076  0.8621  0.3950  0.0331
  797MOL0     O 9872   2.042   4.981   2.176  0.3930  0.3251  0.2781
  797MOL0     C 9873   2.164   5.036   2.150 -0.2213 -0.3861  1.3448
  797MOL0     C 9874   2.183   5.148   2.062 -0.8325  0.6286 -0.6321
  797MOL0     C 9875   2.303   5.221   2.081  0.1785  0.7215 -0.5410
  797MOL0     C 9876   2.319   5.351   2.004  1.0469 -0.0963  0.1471
  797MOL0     C 9877   2.412   5.162   2.158 -0.3809  0.3719  0.0289
  797MOL0     C 9878   2.550   5.208   2.138 -1.0402  0.5284  0.1209
  797MOL0     O 9879   2.639   5.222   2.239 -0.0262  0.1173 -0.2516
  797MOL0     C 9880   2.751   5.295   2.219  0.2597  1.0200  0.5149
  797MOL0     C 9881   2.743   5.428   2.175 -0.2790  0.6420 -0.1194
  797MOL0     C 9882   2.857   5.503   2.165  0.5733  0.3653 -0.6389
  797MOL0     C 9883   2.986   5.448   2.201  0.1063  0.1428 -1.0263
  797MOL0     O 9884   3.096   5.527   2.196  0.0247 -0.8503 -0.5849
  797MOL0     C 9885   3.207   5.492   2.262 -0.3547 -0.4609  0.4458
  797MOL0     C 9886   3.332   5.587   2.236  0.4220 -0.8327  0.0112
  797MOL0     C 9887   3.420   5.619   2.359  0.8977 -0.2435 -0.4145
  797MOL0     C 9888   3.537   5.518   2.363  0.4388 -0.0866  0.5994
  797MOL0     C 9889   3.614   5.539   2.493 -0.1925 -0.7645 -0.2366
  797MOL0     C 9890   3.765   5.511   2.500 -0.1650  0.7055  0.1616
  797MOL0     C 9891   3.824   5.559   2.624 -0.2142  0.1648  0.2735
  797MOL0     C 9892   3.968   5.507   2.630 -0.0456  0.2689  0.1768
  797MOL0    Cl 9893   4.042   5.543   2.787  0.0816 -0.2629 -0.2180
  797MOL0     C 9894   2.991   5.313   2.255  0.0245 -0.3130  0.3606
  797MOL0     C 9895   2.871   5.239   2.257 -0.3231 -0.0996 -0.7169
  797MOL0     O 9896   2.577   5.233   2.023  0.3691  0.0906  0.4132
  797MOL0     C 9897   2.397   5.051   2.242  0.5485  0.5101  0.4024
  797MOL0     C 9898   2.266   4.993   2.233  0.2322 -0.6471 -0.4817
  797MOL0     N 9899   1.942   5.201   1.763 -0.6685 -0.5271  0.2819
  797MOL0     N 9900   2.033   5.283   1.718 -0.0788  0.3767  0.4439
  797MOL0     C 9901   1.257   5.708   1.186 -0.2050  1.1414  0.7218
  797MOL0     C 9902   1.185   5.675   1.071 -0.1162 -0.3090  0.1155
  797MOL0     C 9903   0.802   5.488   0.880 -0.0195  0.5936  0.4457
  797MOL0     C 9904   0.788   5.361   0.812 -0.6694 -0.7462 -0.3192
  797MOL0     C 9905   0.689   5.354   0.708 -0.1222 -0.5059  0.0469
  797MOL0     C 9906   0.608   5.454   0.670 -0.7280 -0.2761 -0.2575
  797MOL0     O 9907   0.503   5.448   0.580 -0.0707 -0.2769  0.4236
  797MOL0     C 9908   0.526   5.368   0.467  0.2534  0.6731  0.3040
  797MOL0     C 9909   0.401   5.381   0.380 -0.1243 -0.0384 -0.3104
  797MOL0     C 9910   0.383   5.262   0.289  0.2269  0.6466  0.1549
  797MOL0     C 9911   0.254   5.252   0.210  0.1350 -0.1134  0.6784
  797MOL0     C 9912   0.236   5.129   0.125  0.1839  0.8669 -0.7158
  797MOL0     C 9913   0.205   5.032   0.059 -0.1107 -0.1033  0.1688
  797MOL0     C 9914   0.620   5.575   0.738 -0.1727  0.2382  0.5776
  797MOL0     C 9915   0.707   5.589   0.846  0.3023  0.6691  0.2410
  797MOL0     C 9916   0.703   5.727   0.902  0.0983  0.2867  0.0878
  797MOL0     H 9917   0.889   5.600   1.221 -0.6479  1.5557 -2.0956
  797MOL0     H 9918   1.018   5.640   1.425  1.1497  0.9037  1.0623
  797MOL0     H 9919   1.472   5.781   1.380 -3.5961  1.7034  1.3426
  797MOL0     H 9920   1.438   5.605   1.366 -0.9487  0.1669 -1.1442
  797MOL0     H 9921   1.443   5.759   1.639 -1.2669 -0.4661  0.3314
  797MOL0     H 9922   1.427   5.578   1.610  0.2964 -0.2609 -2.1468
  797MOL0     H 9923   1.660   5.658   1.691 -2.1952  2.0680  0.7734
  797MOL0     H 9924   1.641   5.551   1.554  0.4804 -0.1192  0.7516
  797MOL0     H 9925   1.692   5.735   1.400  0.9200 -1.9280  0.2402
  797MOL0     H 9926   1.668   5.848   1.527  0.0470 -0.4099  0.6384
  797MOL0     H 9927   1.872   5.738   1.664  3.7267  2.0643  0.6008
  797MOL0     H 9928   1.902   5.827   1.515 -0.1907 -0.0034  1.7842
  797MOL0     H 9929   1.857   5.522   1.524 -2.1316  2.1269  0.7302
  797MOL0     H 9930   1.935   5.619   1.397 -0.1708 -1.4401 -1.0053
  797MOL0     H 9931   2.131   5.649   1.558 -1.6635  1.1401  0.9384
  797MOL0     H 9932   2.100   5.488   1.504 -0.6599 -0.4124 -1.2214
  797MOL0     H 9933   2.169   5.508   1.737 -0.2396 -1.2898 -1.4809
  797MOL0     H 9934   2.027   5.607   1.775 -2.7977 -0.5312 -0.2473
  797MOL0     H 9935   1.814   5.488   1.866  0.9743  0.1961  0.8706
  797MOL0     H 9936   1.633   5.233   1.847  0.4975  0.6280  0.8151
  797MOL0     H 9937   1.717   5.301   1.987  0.0350 -0.8372  1.2252
  797MOL0     H 9938   1.649   5.063   2.026  0.3418  0.6520  2.0488
  797MOL0     H 9939   1.759   5.009   1.907 -0.9467  1.6884 -0.1612
  797MOL0     H 9940   1.908   5.189   2.094  1.9233 -0.9505  1.4860
  797MOL0     H 9941   1.799   5.082   2.185 -1.2157 -0.9398 -1.1911
  797MOL0     H 9942   1.873   4.895   2.079 -0.7928  1.5586 -1.7191
  797MOL0     H 9943   1.967   4.976   1.970 -0.2171 -3.6560 -0.2134
  797MOL0     H 9944   2.112   5.184   1.988 -0.5126  0.6356 -0.9360
  797MOL0     H 9945   2.393   5.425   2.035 -1.3129  2.5377 -0.0568
  797MOL0     H 9946   2.230   5.414   1.995  1.5662  0.5979 -0.2382
  797MOL0     H 9947   2.338   5.322   1.900 -0.6090  0.1219 -0.2483
  797MOL0     H 9948   2.643   5.460   2.151 -0.6268  0.4219  0.9615
  797MOL0     H 9949   2.836   5.604   2.132 -1.4719  0.3484  0.4588
  797MOL0     H 9950   3.187   5.494   2.369 -1.2161 -0.0719  0.2933
  797MOL0     H 9951   3.246   5.392   2.240  1.4455  0.6510 -1.7646
  797MOL0     H 9952   3.399   5.559   2.154  0.9000 -2.5360  0.9370
  797MOL0     H 9953   3.288   5.684   2.210 -0.3271 -0.9938  0.6441
  797MOL0     H 9954   3.360   5.607   2.450  1.2558 -2.4858 -0.4033
  797MOL0     H 9955   3.455   5.722   2.352  0.8650 -0.3398 -2.4196
  797MOL0     H 9956   3.598   5.542   2.276  0.7373  0.0007  0.8291
  797MOL0     H 9957   3.499   5.417   2.347  0.8924  0.0904 -2.0015
  797MOL0     H 9958   3.610   5.644   2.523  1.3948 -0.8434  0.3001
  797MOL0     H 9959   3.560   5.485   2.571  1.5385 -0.7164  1.0420
  797MOL0     H 9960   3.805   5.553   2.407 -2.0696 -1.3278 -1.7008
  797MOL0     H 9961   3.781   5.404   2.485  1.0316  0.8611  0.2445
  797MOL0     H 9962   3.771   5.526   2.714  0.8995 -0.6650  0.6530
  797MOL0     H 9963   3.832   5.667   2.636 -0.0205  0.0608  1.1571
  797MOL0     H 9964   4.026   5.564   2.557 -2.8256 -0.7453 -3.0995
  797MOL0     H 9965   3.965   5.399   2.613 -3.2122  0.1162  1.1290
  797MOL0     H 9966   3.088   5.268   2.277 -0.0878 -0.4257  0.6205
  797MOL0     H 9967   2.871   5.138   2.297 -1.9549 -0.5907 -1.8576
  797MOL0     H 9968   2.480   4.997   2.286  2.1831 -0.5612 -3.6122
  797MOL0     H 9969   2.239   4.911   2.299  0.5873 -0.1855  0.2647
  797MOL0     H 9970   1.356   5.747   1.165  0.1931  0.0834  0.5640
  797MOL0     H 9971   1.209   5.696   0.968  0.7064  3.0826  0.8778
  797MOL0     H 9972   0.846   5.271   0.829  0.6675 -0.2736 -2.0504
  797MOL0     H 9973   0.678   5.256   0.664 -0.5363 -0.1388 -0.6778
  797MOL0     H 9974   0.616   5.396   0.411  0.6618 -2.5803 -0.8963
  797MOL0     H 9975   0.534   5.264   0.500 -1.4931  0.6442  0.6910
  797MOL0     H 9976   0.416   5.466   0.313 -1.4713  0.2019 -0.3433
  797MOL0     H 9977   0.308   5.392   0.437 -1.9685 -0.1331 -3.0627
  797MOL0     H 9978   0.468   5.253   0.221 -1.8089  1.4895 -2.6540
  797MOL0     H 9979   0.379   5.171   0.351 -1.6786 -1.0462 -2.2748
  797MOL0     H 9980   0.251   5.333   0.137  0.1160 -1.9410 -1.4332
  797MOL0     H 9981   0.175   5.270   0.284  0.4493  1.3687  0.6924
  797MOL0     H 9982   0.174   4.951  -0.003  0.2167 -0.9802  1.1043
  797MOL0     H 9983   0.549   5.656   0.722  1.3142  2.6134  4.4879
  797MOL0     H 9984   0.604   5.759   0.935 -0.5866 -0.2786 -1.3647
  797MOL0     H 9985   0.773   5.734   0.986  0.4644  1.2348 -0.2848
  797MOL0     H 9986   0.735   5.801   0.828 -0.1921  0.6056  0.2815
  798MOL0     O 9987   1.345   6.982   6.462  0.2579  0.2017  0.2614
  798MOL0     C 9988   1.337   6.943   6.343 -0.1602  0.7485 -0.8397
  798MOL0     O 9989   1.445   6.891   6.274  0.5694  0.6119  0.1426
  798MOL0     C 9990   1.572   6.889   6.333 -0.4676  0.2855 -0.7014
  798MOL0     C 9991   1.682   6.938   6.260  0.2134 -0.2043 -0.2111
  798MOL0     C 9992   1.813   6.918   6.307  0.8225 -0.2641  0.0556
  798MOL0     C 9993   1.834   6.847   6.428 -0.1288  0.0444  0.8084
  798MOL0     O 9994   1.965   6.850   6.458 -0.3678  0.3401  0.3599
  798MOL0     C 9995   1.993   6.820   6.597 -0.5545  0.1447 -0.2393
  798MOL0     C 9996   2.135   6.846   6.630  0.0721  0.5475 -1.0546
  798MOL0     C 9997   2.229   6.747   6.561 -0.2401 -0.7271 -0.3838
  798MOL0     C 9998   2.376   6.794   6.545  0.4640  0.3846 -0.4834
  798MOL0     C 9999   2.390   6.921   6.459 -0.8380 -0.4790  0.1721
  798MOL0     C10000   2.528   6.943   6.409 -0.4424  0.0211 -0.5817
  798MOL0     C10001   2.647   6.920   6.512  0.1594 -0.3853 -0.0034
  798MOL0     C10002   2.784   6.923   6.432 -0.0609 -0.2362 -0.0428
  798MOL0     N10003   2.899   6.929   6.521 -0.3133  0.5815 -0.1536
  798MOL0     C10004   3.013   7.005   6.500 -0.1524 -0.5242 -0.7975
  798MOL0     C10005   3.105   6.970   6.594  0.4675  0.3162  0.3070
  798MOL0     C10006   3.244   7.004   6.619 -0.8498 -0.3894  0.0017
  798MOL0     C10007   3.329   6.952   6.504 -0.5683  0.2900 -0.0713
  798MOL0     C10008   3.381   6.805   6.515 -0.5178 -0.0821 -0.0744
  798MOL0     C10009   3.460   6.774   6.647  0.3952 -0.5210 -0.1202
  798MOL0     O10010   3.578   6.856   6.673  0.6010  0.1139  0.0948
  798MOL0     C10011   3.685   6.832   6.588  0.8186  0.4899 -0.1620
  798MOL0     C10012   3.796   6.909   6.608 -0.3221  0.5570 -0.5041
  798MOL0     C10013   3.920   6.881   6.552  0.7801  0.1274  0.6163
  798MOL0     C10014   4.030   6.982   6.572 -0.8765 -0.8030  0.1841
  798MOL0     C10015   3.931   6.769   6.468 -0.3046  0.1200  1.3555
  798MOL0     C10016   4.054   6.719   6.393 -0.2846  0.7336 -0.2007
  798MOL0     O10017   4.031   6.628   6.296 -0.0157 -0.2115 -0.0082
  798MOL0     C10018   4.142   6.580   6.229 -0.7904 -0.9849  0.7793
  798MOL0     C10019   4.134   6.564   6.088  0.8625 -0.0304 -0.6586
  798MOL0     C10020   4.229   6.496   6.011 -0.3158 -1.0839 -0.3447
  798MOL0     C10021   4.332   6.427   6.077 -0.4551  0.7519 -0.7236
  798MOL0     O10022   4.424   6.355   6.002 -0.1334  0.1564  0.1407
  798MOL0     C10023   4.540   6.307   6.067 -0.9432 -0.5010 -0.0721
  798MOL0     C10024   4.644   6.265   5.957  0.5432 -0.7256 -0.6095
  798MOL0     C10025   4.764   6.191   6.020 -0.3791  1.0248 -0.0410
  798MOL0     C10026   4.870   6.159   5.914  0.0600  0.6041 -0.1032
  798MOL0     C10027   4.817   6.050   5.818  0.0744  0.6673  0.8943
  798MOL0     C10028   4.935   5.997   5.728  0.3737  0.4548  0.4366
  798MOL0     C10029   4.895   5.919   5.604 -0.4299  0.3551  0.6103
  798MOL0     C10030   5.012   5.872   5.519  0.3885  0.6023 -0.7844
  798MOL0    Cl10031   5.085   5.723   5.615  0.4549 -0.1118  0.0563
  798MOL0     C10032   4.343   6.445   6.216 -0.7095  0.7655 -0.5933
  798MOL0     C10033   4.252   6.516   6.290  0.8643  0.1443  0.0770
  798MOL0     O10034   4.166   6.765   6.434  0.7212 -0.0237 -0.2065
  798MOL0     C10035   3.818   6.698   6.438 -1.1298 -0.3910  0.3136
  798MOL0     C10036   3.696   6.718   6.507  0.2013 -0.7167 -0.2751
  798MOL0     N10037   3.041   6.874   6.671 -0.2484  0.0051  0.0521
  798MOL0     N10038   2.926   6.851   6.629  0.3382 -0.2585 -0.6398
  798MOL0     C10039   1.726   6.801   6.503  0.6427  0.6369 -0.0493
  798MOL0     C10040   1.594   6.828   6.455 -0.9690  0.6944 -0.6382
  798MOL0     C10041   1.200   6.934   6.283 -0.1604  1.1393  0.8251
  798MOL0     C10042   1.195   6.853   6.169 -0.1368  0.1194 -0.3294
  798MOL0     C10043   1.072   6.830   6.111 -0.6241 -0.3914 -0.2198
  798MOL0     C10044   0.965   6.892   6.148  1.8447  0.6049  0.2659
  798MOL0     O10045   0.842   6.882   6.102  0.7844  0.8146 -0.2486
  798MOL0     C10046   0.796   6.743   6.094  1.4497 -0.2360 -0.2363
  798MOL0     C10047   0.642   6.741   6.077  0.1605  0.5285  0.0203
  798MOL0     C10048   0.580   6.826   5.957 -0.6444  0.1608  0.6157
  798MOL0     C10049   0.426   6.799   5.946  0.9575 -0.8002 -0.0458
  798MOL0     C10050   0.391   6.669   5.905 -0.4405 -0.1063 -0.0632
  798MOL0     C10051   0.362   6.563   5.848  0.6337 -0.5870  0.0445
  798MOL0     C10052   0.968   6.972   6.258  0.4724  0.5078  0.4404
  798MOL0     C10053   1.087   7.012   6.314 -0.3397  0.4714  0.0586
  798MOL0     C10054   1.072   7.108   6.428  0.1401  0.2758  0.2405
  798MOL0     H10055   1.663   7.001   6.174  1.4490 -0.0333 -0.3777
  798MOL0     H10056   1.896   6.957   6.249 -0.7425 -0.4985 -2.5444
  798MOL0     H10057   1.968   6.714   6.613 -3.7690  0.4153 -2.3539
  798MOL0     H10058   1.932   6.874   6.670 -0.4924 -0.9389  0.6340
  798MOL0     H10059   2.164   6.951   6.618  0.5304  0.4731 -0.6512
  798MOL0     H10060   2.158   6.829   6.736 -1.4261  2.4131 -0.3623
  798MOL0     H10061   2.231   6.654   6.619  0.3142 -1.0847 -0.9659
  798MOL0     H10062   2.198   6.732   6.457  0.7873 -2.0135 -0.5377
  798MOL0     H10063   2.435   6.811   6.635  0.2073 -0.6071 -0.1184
  798MOL0     H10064   2.419   6.719   6.477  0.0365  0.1329 -0.4833
  798MOL0     H10065   2.366   7.009   6.519 -0.4172 -0.5198  0.4048
  798MOL0     H10066   2.315   6.913   6.379 -2.3213  2.5087  1.1298
  798MOL0     H10067   2.531   6.869   6.329 -1.1469  1.6725 -2.2092
  798MOL0     H10068   2.536   7.044   6.368 -2.5365  0.1581 -0.7553
  798MOL0     H10069   2.633   6.824   6.564  1.3586 -1.0917 -0.9479
  798MOL0     H10070   2.641   7.001   6.585 -1.3434 -1.2953  0.9309
  798MOL0     H10071   2.787   6.834   6.368  0.3453 -0.1698 -0.1199
  798MOL0     H10072   2.795   7.006   6.362 -0.7725 -1.3502 -1.5395
  798MOL0     H10073   3.027   7.076   6.419 -0.9263  1.2859  0.5833
  798MOL0     H10074   3.272   6.952   6.711 -2.9574  1.6922  1.9546
  798MOL0     H10075   3.260   7.112   6.631 -0.9613 -0.3729 -0.0003
  798MOL0     H10076   3.281   6.951   6.406 -2.4828 -2.3085  0.7776
  798MOL0     H10077   3.413   7.021   6.493 -0.7768  0.7207  0.9145
  798MOL0     H10078   3.292   6.741   6.507 -1.4674  0.9785  1.4838
  798MOL0     H10079   3.445   6.787   6.428 -0.4167 -4.2495  0.6516
  798MOL0     H10080   3.400   6.785   6.738  0.7380  0.5228 -0.0134
  798MOL0     H10081   3.492   6.670   6.638 -0.0243 -0.4918 -2.5764
  798MOL0     H10082   3.794   6.989   6.682 -0.8686  0.4227 -0.3692
  798MOL0     H10083   4.093   7.004   6.485 -1.9376 -1.9933 -0.9254
  798MOL0     H10084   4.102   6.946   6.646 -2.1779  0.4488  2.1832
  798MOL0     H10085   3.979   7.064   6.623  0.5508 -1.6854  3.2612
  798MOL0     H10086   4.043   6.606   6.047  0.9160  0.7182 -0.0288
  798MOL0     H10087   4.235   6.487   5.903 -0.7363  2.1610 -0.7245
  798MOL0     H10088   4.577   6.392   6.125  1.1500 -0.4535 -1.3724
  798MOL0     H10089   4.514   6.217   6.123 -0.6214 -1.9974 -2.2164
  798MOL0     H10090   4.577   6.207   5.892 -2.4615  0.3379  1.2988
  798MOL0     H10091   4.682   6.341   5.889 -2.1968  0.4138 -0.9928
  798MOL0     H10092   4.719   6.097   6.053 -2.7380  1.8983 -0.5524
  798MOL0     H10093   4.811   6.236   6.108  1.3065 -2.8437  1.2897
  798MOL0     H10094   4.954   6.116   5.969 -1.8776 -1.8066  1.1839
  798MOL0     H10095   4.916   6.244   5.864  4.7701 -0.8176  1.2620
  798MOL0     H10096   4.780   5.962   5.871  0.7863 -0.9285 -1.1114
  798MOL0     H10097   4.745   6.101   5.753 -0.6044  1.8066  2.4895
  798MOL0     H10098   5.001   5.932   5.785 -0.3226 -0.1520  0.5585
  798MOL0     H10099   4.988   6.087   5.693  0.8135 -0.0792 -0.3136
  798MOL0     H10100   4.842   5.989   5.539 -0.8359 -0.3858  0.1358
  798MOL0     H10101   4.824   5.839   5.625  1.1560 -1.3102 -0.0781
  798MOL0     H10102   5.087   5.951   5.510  1.0150  0.4361  1.9258
  798MOL0     H10103   4.977   5.841   5.420 -1.9444  0.1410  0.1127
  798MOL0     H10104   4.424   6.407   6.277 -0.4864  0.7211 -0.9112
  798MOL0     H10105   4.250   6.518   6.399 -0.2497 -2.1735  0.1487
  798MOL0     H10106   3.818   6.611   6.373 -1.0015  2.0185 -3.2131
  798MOL0     H10107   3.612   6.651   6.494 -0.9139 -0.1821  3.1848
  798MOL0     H10108   1.738   6.750   6.598 -1.4824 -1.2856 -0.7311
  798MOL0     H10109   1.510   6.803   6.518  0.1336  1.8803  1.4075
  798MOL0     H10110   1.286   6.798   6.146  0.1047 -0.1711  1.1780
  798MOL0     H10111   1.065   6.762   6.026  2.0596 -0.1600 -0.7157
  798MOL0     H10112   0.835   6.685   6.010 -2.3336 -0.8909 -1.7593
  798MOL0     H10113   0.812   6.682   6.184 -2.4198  1.3934  1.7811
  798MOL0     H10114   0.598   6.770   6.174  0.7350  3.2690 -0.4374
  798MOL0     H10115   0.621   6.636   6.058  0.9250  0.3826 -0.0583
  798MOL0     H10116   0.583   6.932   5.984 -4.4151  1.1781 -2.1536
  798MOL0     H10117   0.637   6.796   5.869 -1.0659  0.1857  0.3310
  798MOL0     H10118   0.381   6.873   5.879  1.8252 -0.4585 -0.2607
  798MOL0     H10119   0.379   6.805   6.044  0.6240 -3.5326  0.0545
  798MOL0     H10120   0.342   6.463   5.815  0.3217 -0.5892  0.2337
  798MOL0     H10121   0.874   7.019   6.283 -2.1523 -1.5152 -4.2081
  798MOL0     H10122   0.976   7.159   6.433 -0.2925 -0.5566  0.6523
  798MOL0     H10123   1.077   7.051   6.522 -1.8273 -1.0379 -0.3896
  798MOL0     H10124   1.140   7.194   6.429  0.6442  0.0302 -3.0478
  799MOL0     O10125   6.689   0.807   0.812 -0.0204  0.1621  0.4794
  799MOL0     C10126   6.676   0.812   0.937 -0.1311 -1.3901  0.3954
  799MOL0     O10127   6.775   0.794   1.020 -0.1018 -0.1062  0.2671
  799MOL0     C10128   6.895   0.761   0.965  0.0721 -0.1648 -0.2054
  799MOL0     C10129   6.931   0.629   0.949 -0.2712 -0.5309  0.3658
  799MOL0     C10130   7.053   0.594   0.892  0.4874 -0.1076  0.6285
  799MOL0     C10131   7.140   0.696   0.863  0.6269  0.0020 -0.8443
  799MOL0     O10132   7.260   0.662   0.810 -0.4503 -0.0900 -0.0100
  799MOL0     C10133   7.272   0.687   0.669  0.3291 -0.0471  0.6317
  799MOL0     C10134   7.296   0.553   0.608  0.3953 -0.0122 -0.0620
  799MOL0     C10135   7.445   0.521   0.645  0.2822  0.0771 -0.2763
  799MOL0     C10136   7.531   0.443   0.537 -0.5664 -0.3585 -0.8059
  799MOL0     C10137   7.468   0.307   0.535 -0.1418  0.1380  0.5084
  799MOL0     C10138   7.536   0.213   0.439  0.6951 -0.4066 -0.1012
  799MOL0     C10139   7.477   0.068   0.429 -0.9478 -0.4381 -0.0877
  799MOL0     C10140   7.530  -0.017   0.309  0.1661  0.0053 -0.0577
  799MOL0     N10141   7.673  -0.024   0.290 -0.5239  0.1074  0.3877
  799MOL0     C10142   7.752  -0.076   0.383 -0.6529  0.8538 -1.1032
  799MOL0     C10143   7.879  -0.081   0.330  0.0704  0.9853 -0.0959
  799MOL0     C10144   8.007  -0.124   0.389 -0.1641  0.1294  0.2456
  799MOL0     C10145   8.090   0.002   0.405  0.3345  0.2191  0.6944
  799MOL0     C10146   8.019   0.107   0.485  0.0251 -0.5730  0.0672
  799MOL0     C10147   8.128   0.204   0.544 -0.0731  0.4530 -0.2560
  799MOL0     O10148   8.069   0.311   0.620 -0.0469 -0.0208  0.3982
  799MOL0     C10149   7.983   0.402   0.566 -0.0739  0.2473  0.0695
  799MOL0     C10150   7.914   0.492   0.653 -0.0820 -0.0420  0.7884
  799MOL0     C10151   7.851   0.611   0.600 -0.2525  0.2187 -0.2237
  799MOL0     C10152   7.782   0.698   0.695  0.7626 -0.4284  0.3357
  799MOL0     C10153   7.852   0.639   0.459 -0.2632  0.3546  0.9069
  799MOL0     C10154   7.789   0.759   0.389 -0.2963  0.7809 -0.1567
  799MOL0     O10155   7.831   0.825   0.287 -0.9967  0.1500 -1.0300
  799MOL0     C10156   7.968   0.854   0.287  0.3615 -0.6584 -0.4750
  799MOL0     C10157   8.041   0.843   0.168 -0.4467 -0.1182 -0.6152
  799MOL0     C10158   8.172   0.874   0.166 -0.2929  0.2441  0.1361
  799MOL0     C10159   8.230   0.937   0.277 -0.2418 -0.2336 -0.7256
  799MOL0     O10160   8.364   0.967   0.265 -0.4906 -0.5182 -0.1155
  799MOL0     C10161   8.432   1.041   0.371 -0.9570  0.4885 -0.0327
  799MOL0     C10162   8.466   0.928   0.477  0.2838  0.5324  0.2433
  799MOL0     C10163   8.553   0.982   0.595  0.3458  0.5715  0.3481
  799MOL0     C10164   8.623   0.873   0.681 -0.7527  0.2620 -0.6673
  799MOL0     C10165   8.714   0.938   0.788 -0.2721 -0.0925 -0.5145
  799MOL0     C10166   8.808   0.837   0.857  0.7342 -0.9074 -0.2618
  799MOL0     C10167   8.953   0.829   0.801  0.3530 -1.0442 -0.6020
  799MOL0     C10168   8.958   0.778   0.656  0.3177 -0.3250  0.4907
  799MOL0    Cl10169   9.134   0.743   0.614  0.1340  0.0947  0.1304
  799MOL0     C10170   8.154   0.949   0.401  0.5963  0.7557 -0.9373
  799MOL0     C10171   8.021   0.904   0.404  0.0514 -0.8881 -0.4761
  799MOL0     O10172   7.673   0.775   0.430 -0.0093  0.3842 -0.0275
  799MOL0     C10173   7.906   0.540   0.373  0.2598  0.0988  0.2305
  799MOL0     C10174   7.981   0.430   0.427  0.2990 -0.2148  0.0887
  799MOL0     N10175   7.871  -0.022   0.205 -0.1682 -0.4298 -1.0452
  799MOL0     N10176   7.743  -0.000   0.179 -0.1265  0.5826  0.3371
  799MOL0     C10177   7.116   0.831   0.880  0.9882 -0.3927  0.3951
  799MOL0     C10178   6.982   0.860   0.923 -0.4777 -0.7912  0.8713
  799MOL0     C10179   6.539   0.826   0.997  0.2452 -0.6602 -1.3376
  799MOL0     C10180   6.420   0.807   0.923 -0.7449  0.0389  0.0981
  799MOL0     C10181   6.289   0.795   0.973 -0.0737 -0.5748  0.1743
  799MOL0     C10182   6.266   0.822   1.108 -0.6267 -0.4302  0.3060
  799MOL0     O10183   6.148   0.805   1.170 -0.0189 -0.0366 -0.6985
  799MOL0     C10184   6.026   0.795   1.091  0.8498 -0.0448  0.2810
  799MOL0     C10185   5.899   0.803   1.173 -0.5202 -0.5940  0.3092
  799MOL0     C10186   5.911   0.726   1.312 -0.5363  0.8173  0.2359
  799MOL0     C10187   5.795   0.766   1.412  0.5554 -0.1153  0.5472
  799MOL0     C10188   5.663   0.738   1.353  0.6109  0.3446 -0.3450
  799MOL0     C10189   5.555   0.692   1.320  0.0068 -0.4427  0.6038
  799MOL0     C10190   6.378   0.858   1.184  0.3899 -1.1345  0.0675
  799MOL0     C10191   6.512   0.846   1.137  0.2546 -1.5437 -0.1647
  799MOL0     C10192   6.613   0.892   1.236  0.8415  0.1146 -0.2718
  799MOL0     H10193   6.878   0.549   1.000 -0.5799  1.3352  3.1197
  799MOL0     H10194   7.089   0.494   0.872 -0.2428 -0.5214  1.3273
  799MOL0     H10195   7.346   0.760   0.634 -1.6149  1.5156 -0.4857
  799MOL0     H10196   7.177   0.726   0.631  0.9222  0.9824  0.1638
  799MOL0     H10197   7.227   0.476   0.641 -0.0903 -1.9724 -4.8379
  799MOL0     H10198   7.280   0.554   0.500 -0.4523 -0.2522  0.0546
  799MOL0     H10199   7.499   0.611   0.675 -0.1018 -0.2698  1.5901
  799MOL0     H10200   7.441   0.451   0.729  0.1806 -0.5328 -0.7784
  799MOL0     H10201   7.521   0.496   0.441 -2.6670 -0.1916 -0.5519
  799MOL0     H10202   7.636   0.436   0.565 -1.0019  1.9004  1.9210
  799MOL0     H10203   7.364   0.307   0.501 -0.1649 -0.5703  0.5515
  799MOL0     H10204   7.475   0.258   0.632 -0.9826  0.2965  0.6604
  799MOL0     H10205   7.546   0.259   0.340  3.5956  0.1515  0.3489
  799MOL0     H10206   7.644   0.213   0.456  1.0991 -2.5064 -2.1308
  799MOL0     H10207   7.369   0.057   0.440 -0.7478 -3.4322 -0.4038
  799MOL0     H10208   7.509   0.013   0.518  1.5014 -3.0356 -2.3822
  799MOL0     H10209   7.497  -0.121   0.317 -1.0194  0.3570 -0.0444
  799MOL0     H10210   7.487   0.039   0.225 -0.9759 -1.0101 -0.1925
  799MOL0     H10211   7.727  -0.103   0.485  1.1259  1.0835 -0.5826
  799MOL0     H10212   8.059  -0.197   0.327  1.2787 -0.9764  2.6258
  799MOL0     H10213   7.992  -0.167   0.488 -1.4836  2.8945  1.3646
  799MOL0     H10214   8.185  -0.036   0.442  1.4487 -0.0065 -2.1509
  799MOL0     H10215   8.123   0.052   0.313 -0.1834 -1.3509 -0.3948
  799MOL0     H10216   7.964   0.163   0.409 -0.2976  2.0014  2.0454
  799MOL0     H10217   7.957   0.065   0.565  0.5424 -3.0501 -0.7463
  799MOL0     H10218   8.191   0.156   0.619  1.9721  1.9165 -0.9614
  799MOL0     H10219   8.194   0.231   0.461  2.3499 -4.8491 -0.4703
  799MOL0     H10220   7.902   0.461   0.757 -0.8520 -2.1406  0.1167
  799MOL0     H10221   7.755   0.646   0.787  0.5927  2.2415  1.8878
  799MOL0     H10222   7.695   0.745   0.649  1.6414  0.8757 -0.0475
  799MOL0     H10223   7.847   0.778   0.732 -0.9482  0.1055  2.3552
  799MOL0     H10224   7.992   0.796   0.084 -1.3092  0.1107 -0.2529
  799MOL0     H10225   8.225   0.843   0.076 -0.1825 -1.3808  0.7356
  799MOL0     H10226   8.525   1.078   0.328  0.1721 -2.3637 -0.2228
  799MOL0     H10227   8.381   1.127   0.416 -1.8765 -0.2498  0.3632
  799MOL0     H10228   8.373   0.879   0.507 -0.7779  1.9469 -0.5559
  799MOL0     H10229   8.534   0.858   0.428  2.4867  1.2682  2.0407
  799MOL0     H10230   8.486   1.044   0.655  0.2782 -0.5813  1.5171
  799MOL0     H10231   8.631   1.042   0.549  0.5801  0.4285  0.5531
  799MOL0     H10232   8.698   0.816   0.624  1.5404  1.2686  1.1951
  799MOL0     H10233   8.550   0.809   0.731  0.4147 -0.4462  0.1744
  799MOL0     H10234   8.772   1.021   0.746  0.4489  1.0285  2.4744
  799MOL0     H10235   8.657   0.986   0.869  0.9308 -0.6024  0.6685
  799MOL0     H10236   8.761   0.743   0.825 -1.3287  0.5842 -1.9081
  799MOL0     H10237   8.803   0.860   0.964 -1.6919  2.9545 -0.9997
  799MOL0     H10238   9.015   0.778   0.875 -0.5499 -0.6802  0.4493
  799MOL0     H10239   8.993   0.930   0.784 -1.9486 -0.4298 -3.0123
  799MOL0     H10240   8.916   0.845   0.581 -1.7573 -2.6441 -0.5697
  799MOL0     H10241   8.903   0.683   0.650 -1.2286  0.5502  0.3515
  799MOL0     H10242   8.192   0.985   0.496 -1.6904 -0.7989  0.6738
  799MOL0     H10243   7.975   0.924   0.500  0.9995 -0.1754 -0.1469
  799MOL0     H10244   7.897   0.553   0.265  2.3450 -2.1940 -0.3088
  799MOL0     H10245   8.045   0.376   0.357  2.9545  0.8798  1.5480
  799MOL0     H10246   7.190   0.908   0.862  2.3111 -1.4998  0.9204
  799MOL0     H10247   6.964   0.966   0.938 -1.3558 -0.1705 -3.2811
  799MOL0     H10248   6.433   0.801   0.815 -0.2787 -1.3312  0.2074
  799MOL0     H10249   6.204   0.771   0.911 -1.5858  2.1736  1.0157
  799MOL0     H10250   6.027   0.879   1.022 -1.7205 -0.5094 -0.4248
  799MOL0     H10251   6.028   0.696   1.044  1.8870 -0.2278  0.6756
  799MOL0     H10252   5.821   0.756   1.113 -0.1784  2.1442 -2.5264
  799MOL0     H10253   5.867   0.907   1.173  1.6202  0.1144 -0.5077
  799MOL0     H10254   5.911   0.620   1.285  0.8934  0.7375  0.4424
  799MOL0     H10255   6.011   0.749   1.351 -0.0790  2.0914 -1.5644
  799MOL0     H10256   5.815   0.865   1.453  2.6434  0.3686 -1.4434
  799MOL0     H10257   5.801   0.704   1.502 -1.9959  2.1087  2.4386
  799MOL0     H10258   5.459   0.650   1.300 -0.7545  2.1431 -1.7957
  799MOL0     H10259   6.352   0.877   1.288 -1.2745  1.0513 -0.6751
  799MOL0     H10260   6.690   0.816   1.251  1.6727  0.7075 -1.3706
  799MOL0     H10261   6.663   0.985   1.205 -0.1059  1.0964  1.0398
  799MOL0     H10262   6.562   0.922   1.328  2.5245 -1.3083  1.1707
  800MOL0     O10263   5.118   6.712   9.412 -0.2151 -0.2466 -0.2819
  800MOL0     C10264   5.115   6.707   9.290  0.2093 -0.0588  0.3506
  800MOL0     O10265   5.126   6.817   9.209  0.2507  0.0293 -0.1278
  800MOL0     C10266   5.124   6.943   9.264 -0.5128 -0.4925 -0.8191
  800MOL0     C10267   5.225   7.035   9.216  0.8233 -0.0668  0.1835
  800MOL0     C10268   5.220   7.164   9.262 -0.3691  0.4325 -0.5129
  800MOL0     C10269   5.105   7.206   9.342 -0.1793 -0.4396  0.2245
  800MOL0     O10270   5.094   7.330   9.405  0.2211 -0.1291  0.0219
  800MOL0     C10271   5.147   7.447   9.330  0.1772 -0.4525 -0.3451
  800MOL0     C10272   5.052   7.564   9.344  0.4089  1.1578 -0.2189
  800MOL0     C10273   5.046   7.623   9.485  0.1172 -0.3090  0.1867
  800MOL0     C10274   4.957   7.750   9.488 -0.0623 -0.2636  0.6444
  800MOL0     C10275   4.970   7.841   9.612  0.3727 -0.2002 -0.1158
  800MOL0     C10276   4.888   7.971   9.602  0.5000  0.2350  0.1086
  800MOL0     C10277   4.736   7.958   9.575 -0.1823  0.0957  0.3092
  800MOL0     C10278   4.669   8.093   9.583  0.8132 -0.3591 -0.0970
  800MOL0     N10279   4.710   8.190   9.475  0.5421 -0.5531 -0.0489
  800MOL0     C10280   4.706   8.152   9.342  0.1253 -0.0858 -0.0378
  800MOL0     C10281   4.721   8.271   9.284 -0.3266 -0.3977  0.0546
  800MOL0     C10282   4.721   8.314   9.129  0.3369 -0.4711 -0.4387
  800MOL0     C10283   4.591   8.390   9.101  0.2355  0.1385 -0.8534
  800MOL0     C10284   4.461   8.301   9.104  0.1607 -0.4496  0.4034
  800MOL0     C10285   4.348   8.379   9.031 -0.1350  0.5665 -0.0103
  800MOL0     O10286   4.229   8.300   9.061 -0.6374 -0.4832 -0.7114
  800MOL0     C10287   4.120   8.327   8.973  0.3211 -0.1189 -0.1248
  800MOL0     C10288   4.013   8.387   9.034 -0.7660 -0.1508  0.5013
  800MOL0     C10289   3.898   8.400   8.952 -0.4005 -0.0791  0.8410
  800MOL0     C10290   3.779   8.468   9.013 -0.2657 -0.0208  0.1655
  800MOL0     C10291   3.892   8.362   8.816  0.2357 -0.0920  0.8887
  800MOL0     C10292   3.782   8.382   8.722 -0.3202  0.1650 -0.6627
  800MOL0     O10293   3.814   8.428   8.594 -0.0088 -0.1219 -0.1731
  800MOL0     C10294   3.720   8.484   8.508  0.2575  0.0498 -0.0517
  800MOL0     C10295   3.594   8.543   8.547  0.4722  0.0798  0.1637
  800MOL0     C10296   3.508   8.601   8.449  0.3748  0.2217 -0.4584
  800MOL0     C10297   3.540   8.590   8.316 -0.3624  0.3924  0.7113
  800MOL0     O10298   3.446   8.635   8.225  0.4265  0.5855 -0.1606
  800MOL0     C10299   3.425   8.555   8.104 -0.6920 -0.5403 -0.6828
  800MOL0     C10300   3.389   8.631   7.977  0.2347  0.4689 -0.3659
  800MOL0     C10301   3.253   8.702   7.989  0.1974 -0.6062 -0.2506
  800MOL0     C10302   3.243   8.804   7.875 -0.4175 -0.0773  0.2061
  800MOL0     C10303   3.104   8.866   7.861  1.6681 -0.8400  0.2273
  800MOL0     C10304   3.071   8.913   7.714 -0.1724 -0.0641 -0.1320
  800MOL0     C10305   2.937   8.975   7.689 -0.0502  0.6196 -0.7152
  800MOL0     C10306   2.901   9.021   7.549  0.1354 -0.1806 -0.0639
  800MOL0    Cl10307   3.029   9.134   7.492  0.3392 -0.0335 -0.1357
  800MOL0     C10308   3.664   8.532   8.285 -0.0738 -0.5588 -0.0022
  800MOL0     C10309   3.763   8.489   8.377  0.5741  0.4397  0.0764
  800MOL0     O10310   3.670   8.350   8.765 -0.8714  0.0936 -1.0374
  800MOL0     C10311   4.014   8.313   8.767  0.0805 -0.6478  0.4757
  800MOL0     C10312   4.122   8.296   8.842  0.2230 -0.6127  0.7010
  800MOL0     N10313   4.755   8.373   9.377 -0.1301  0.8518 -0.0720
  800MOL0     N10314   4.750   8.317   9.494  0.0542 -0.0736  0.3431
  800MOL0     C10315   5.003   7.120   9.379  0.2115 -0.7995 -0.0484
  800MOL0     C10316   5.015   6.989   9.337  0.3525 -1.1445 -0.0087
  800MOL0     C10317   5.092   6.573   9.221  0.2091 -0.4730  0.2080
  800MOL0     C10318   4.997   6.488   9.271  0.6355 -0.4459  0.1712
  800MOL0     C10319   4.969   6.372   9.202  0.6715 -0.2767  0.3868
  800MOL0     C10320   5.041   6.325   9.093  0.6424 -0.6114  0.2369
  800MOL0     O10321   5.011   6.213   9.017 -0.8275 -0.1013  0.3397
  800MOL0     C10322   4.897   6.131   9.037  0.9418 -0.1148 -0.4292
  800MOL0     C10323   4.762   6.190   9.019 -0.2580 -0.3362 -0.2820
  800MOL0     C10324   4.747   6.235   8.866 -1.2208 -0.9187 -0.6291
  800MOL0     C10325   4.609   6.296   8.848  0.3524  0.3266  0.0359
  800MOL0     C10326   4.575   6.296   8.713  0.2552 -1.3065  0.0819
  800MOL0     C10327   4.547   6.294   8.594  0.4831  0.1660  0.4895
  800MOL0     C10328   5.147   6.406   9.048 -0.1036  0.4111  0.5890
  800MOL0     C10329   5.175   6.530   9.112  0.3852 -0.4749  0.5113
  800MOL0     C10330   5.292   6.607   9.061 -0.4215 -0.1486  0.1258
  800MOL0     H10331   5.299   6.999   9.146  0.6510 -0.0840  0.0099
  800MOL0     H10332   5.294   7.236   9.227 -0.1401  1.1743  1.3985
  800MOL0     H10333   5.165   7.440   9.223  1.9159  0.6130 -0.1489
  800MOL0     H10334   5.242   7.477   9.374 -1.0699  0.0829  2.1837
  800MOL0     H10335   5.090   7.639   9.273 -1.4287  1.4269 -0.9570
  800MOL0     H10336   4.952   7.536   9.311  1.4036 -0.1999 -2.2252
  800MOL0     H10337   5.001   7.545   9.547 -0.1607 -0.0250  0.3503
  800MOL0     H10338   5.145   7.651   9.524 -1.2631  0.7764  3.2549
  800MOL0     H10339   4.989   7.812   9.403  0.4654  0.5285  1.4079
  800MOL0     H10340   4.859   7.715   9.455 -0.7626  3.2138 -1.5747
  800MOL0     H10341   5.075   7.870   9.622  0.1919  0.4900 -0.1690
  800MOL0     H10342   4.939   7.788   9.703  1.2102 -0.9175 -0.2435
  800MOL0     H10343   4.908   8.030   9.692  1.3201 -0.0934  0.1496
  800MOL0     H10344   4.928   8.022   9.514  2.6294 -1.9289 -0.3004
  800MOL0     H10345   4.685   7.898   9.651 -1.0797  2.1552  1.4025
  800MOL0     H10346   4.718   7.915   9.476 -1.5245 -0.5893  0.8237
  800MOL0     H10347   4.560   8.092   9.580  0.6171 -0.2987  3.1855
  800MOL0     H10348   4.690   8.132   9.683 -0.7503 -2.0308  0.9274
  800MOL0     H10349   4.674   8.055   9.304  2.1190 -1.5154  1.7246
  800MOL0     H10350   4.733   8.233   9.057 -2.5992 -0.2234 -1.3348
  800MOL0     H10351   4.810   8.376   9.110 -0.1335 -0.2366 -2.0010
  800MOL0     H10352   4.590   8.475   9.170  0.9846 -0.7088  0.2286
  800MOL0     H10353   4.598   8.427   8.998  1.2700  1.9610 -0.1767
  800MOL0     H10354   4.464   8.207   9.049  0.8937  0.5693 -1.3679
  800MOL0     H10355   4.429   8.285   9.208  1.9526  2.2525  1.4894
  800MOL0     H10356   4.334   8.480   9.071  0.3017  2.2188 -3.6900
  800MOL0     H10357   4.379   8.378   8.926 -0.1802 -0.6589 -0.0218
  800MOL0     H10358   4.009   8.413   9.139  1.8040 -1.1872  0.9212
  800MOL0     H10359   3.798   8.505   9.114  0.4039  0.0811  0.0105
  800MOL0     H10360   3.708   8.385   9.014  0.4770 -0.9017 -3.3808
  800MOL0     H10361   3.749   8.551   8.948 -0.4509 -0.7356 -0.6914
  800MOL0     H10362   3.564   8.545   8.651  0.0591 -0.4031  0.0609
  800MOL0     H10363   3.417   8.651   8.481  1.6200  2.2762  0.0632
  800MOL0     H10364   3.511   8.493   8.078 -1.1167 -1.1899 -0.5507
  800MOL0     H10365   3.337   8.494   8.126 -1.0935 -0.1800 -1.2618
  800MOL0     H10366   3.462   8.706   7.946 -0.7902  2.8776  2.6608
  800MOL0     H10367   3.389   8.568   7.887  1.2092  0.2269 -0.2066
  800MOL0     H10368   3.251   8.749   8.088  0.4314 -2.9398  0.9302
  800MOL0     H10369   3.165   8.640   7.973  1.3972 -1.8294 -2.5123
  800MOL0     H10370   3.262   8.754   7.779 -4.5470  1.1528 -1.4815
  800MOL0     H10371   3.316   8.880   7.905 -0.9970  0.6987 -0.3315
  800MOL0     H10372   3.019   8.813   7.903 -1.3515  3.4949  0.1948
  800MOL0     H10373   3.108   8.968   7.900 -0.3253 -0.3902 -0.6258
  800MOL0     H10374   3.071   8.817   7.661 -2.4827  0.0901 -0.4770
  800MOL0     H10375   3.142   8.984   7.671 -0.3093  2.0261  2.8185
  800MOL0     H10376   2.945   9.067   7.748 -1.4989 -1.8532  3.9037
  800MOL0     H10377   2.864   8.908   7.735  0.7814 -0.7418 -1.3242
  800MOL0     H10378   2.801   9.067   7.553  0.1091 -0.2942  0.7514
  800MOL0     H10379   2.902   8.938   7.479  1.2657  2.6889 -3.7676
  800MOL0     H10380   3.694   8.537   8.181 -2.2968  0.5162 -0.6643
  800MOL0     H10381   3.865   8.461   8.355  1.4711  2.2852  1.6074
  800MOL0     H10382   4.013   8.282   8.663  0.1621 -0.9726  0.5703
  800MOL0     H10383   4.206   8.272   8.778 -0.2719  1.2178 -0.7190
  800MOL0     H10384   4.924   7.140   9.450  1.9567 -1.6727  2.2606
  800MOL0     H10385   4.955   6.904   9.369  0.0649 -0.1585  2.2439
  800MOL0     H10386   4.932   6.503   9.357 -1.5892  0.3517 -1.5595
  800MOL0     H10387   4.896   6.308   9.251  0.6110 -1.5667 -1.3044
  800MOL0     H10388   4.900   6.055   8.958 -0.7275 -0.3136 -0.3480
  800MOL0     H10389   4.901   6.075   9.131  0.5504  1.1742  0.3694
  800MOL0     H10390   4.742   6.281   9.077 -4.4874  1.0453 -3.3916
  800MOL0     H10391   4.684   6.114   9.031 -2.0132  1.2040 -1.3263
  800MOL0     H10392   4.825   6.305   8.835 -1.6078 -0.7291 -1.1841
  800MOL0     H10393   4.760   6.145   8.806  1.2064 -1.5974  0.7523
  800MOL0     H10394   4.598   6.398   8.887  0.6953  1.6674 -3.0462
  800MOL0     H10395   4.536   6.230   8.895  1.4059 -1.3636 -0.6074
  800MOL0     H10396   4.538   6.294   8.487 -2.5318 -1.6782  0.6078
  800MOL0     H10397   5.197   6.380   8.955 -0.8264  2.0403 -0.2924
  800MOL0     H10398   5.349   6.547   8.989  0.3814 -0.6749  1.1803
  800MOL0     H10399   5.249   6.694   9.009 -3.1016  1.1185  4.0434
  800MOL0     H10400   5.357   6.643   9.141  0.3617  0.9978 -0.9785
  801MOL0     O10401   1.869   0.786   0.948 -0.3617 -0.1430 -0.0032
  801MOL0     C10402   1.816   0.814   0.847  0.1900  0.3975  0.4588
  801MOL0     O10403   1.875   0.812   0.718  0.4946 -0.2299 -0.7877
  801MOL0     C10404   2.004   0.788   0.690 -0.2416 -0.4793 -1.1006
  801MOL0     C10405   2.102   0.889   0.719  0.0364  0.6783 -0.0384
  801MOL0     C10406   2.240   0.869   0.684 -0.1279 -0.9431  0.0539
  801MOL0     C10407   2.284   0.751   0.625  0.2702  0.0010 -0.4095
  801MOL0     O10408   2.411   0.724   0.593 -0.0369  0.5094  0.3162
  801MOL0     C10409   2.511   0.775   0.686  1.0723 -0.0015 -0.2366
  801MOL0     C10410   2.643   0.693   0.686 -0.3556  0.0013 -0.1689
  801MOL0     C10411   2.708   0.659   0.548 -0.1957 -0.6618  1.0003
  801MOL0     C10412   2.817   0.551   0.561 -0.1676 -0.5800  0.5804
  801MOL0     C10413   2.929   0.542   0.454  0.5263  0.4350 -0.1247
  801MOL0     C10414   3.011   0.676   0.454 -0.2309  0.2312 -1.0791
  801MOL0     C10415   3.139   0.669   0.372  0.5470 -0.2346  0.0657
  801MOL0     C10416   3.226   0.793   0.385  0.1772  0.4780 -0.5640
  801MOL0     N10417   3.325   0.799   0.272 -0.1054  0.8429  0.6055
  801MOL0     C10418   3.331   0.721   0.158  0.2084  0.0330 -0.1154
  801MOL0     C10419   3.407   0.774   0.062 -0.1277 -0.3531  0.2455
  801MOL0     C10420   3.450   0.731  -0.082 -0.0249 -0.1569 -0.6516
  801MOL0     C10421   3.603   0.771  -0.090  0.2058  0.5831  0.2651
  801MOL0     C10422   3.678   0.680  -0.183  0.0653  0.4074  0.5943
  801MOL0     C10423   3.831   0.698  -0.163 -0.3687  0.4205 -0.1439
  801MOL0     O10424   3.884   0.619  -0.268  0.2603  0.3573 -0.0671
  801MOL0     C10425   3.989   0.666  -0.331 -1.0244 -0.2350 -0.3336
  801MOL0     C10426   3.971   0.733  -0.452 -0.0594 -0.8660 -0.1359
  801MOL0     C10427   4.069   0.810  -0.516  0.4110 -0.0158 -0.0079
  801MOL0     C10428   4.030   0.894  -0.632  0.5363 -0.0590 -0.3964
  801MOL0     C10429   4.201   0.792  -0.468  0.5647 -0.1937  0.0455
  801MOL0     C10430   4.324   0.855  -0.535 -0.7817  0.2411 -0.0978
  801MOL0     O10431   4.436   0.852  -0.464 -0.1423  0.2794 -0.2285
  801MOL0     C10432   4.559   0.861  -0.517  0.8852 -1.2142 -0.0737
  801MOL0     C10433   4.661   0.936  -0.456  0.1069 -0.4374  0.6368
  801MOL0     C10434   4.787   0.944  -0.508 -0.1353  0.1035  0.2979
  801MOL0     C10435   4.826   0.869  -0.610  0.4649  0.0721  0.4360
  801MOL0     O10436   4.952   0.881  -0.647  0.6659 -0.0140 -0.2738
  801MOL0     C10437   5.030   0.766  -0.680  0.1884  0.3115 -0.2175
  801MOL0     C10438   5.176   0.807  -0.671  0.1647 -0.8692  0.6828
  801MOL0     C10439   5.271   0.693  -0.686 -1.3041 -0.1347  0.9509
  801MOL0     C10440   5.418   0.754  -0.698  0.0580 -0.1883  0.0966
  801MOL0     C10441   5.521   0.656  -0.745 -0.0538  0.6646 -0.3675
  801MOL0     C10442   5.660   0.722  -0.739  0.4842 -0.2265 -0.5312
  801MOL0     C10443   5.764   0.611  -0.762  0.1002 -0.7757 -0.3166
  801MOL0     C10444   5.903   0.661  -0.749 -0.3906  0.5250 -0.4731
  801MOL0    Cl10445   5.927   0.794  -0.627 -0.1318  0.0249 -0.2595
  801MOL0     C10446   4.731   0.780  -0.666  0.3270 -0.4632  0.3059
  801MOL0     C10447   4.599   0.782  -0.624 -0.5195  0.2803 -0.4439
  801MOL0     O10448   4.319   0.884  -0.661 -0.3622  0.1143  0.5023
  801MOL0     C10449   4.223   0.711  -0.352  0.6046  0.3768  0.6382
  801MOL0     C10450   4.120   0.655  -0.281 -0.2564 -0.1987  0.3425
  801MOL0     N10451   3.451   0.885   0.119 -0.6863 -0.4814  0.1470
  801MOL0     N10452   3.408   0.903   0.240  0.1570 -0.4044  0.2767
  801MOL0     C10453   2.179   0.658   0.587  0.7670  0.5844  0.1497
  801MOL0     C10454   2.044   0.677   0.624  0.3587  1.1010 -0.1638
  801MOL0     C10455   1.671   0.843   0.856  1.1089  0.6221 -0.1746
  801MOL0     C10456   1.634   0.956   0.788  0.6712 -0.9266  0.6844
  801MOL0     C10457   1.509   1.015   0.812  0.0595  0.3760 -1.0419
  801MOL0     C10458   1.414   0.962   0.894  1.0119  0.3376  0.2253
  801MOL0     O10459   1.297   1.030   0.909 -0.1824  0.3206 -0.7468
  801MOL0     C10460   1.181   0.947   0.923 -1.0291  0.7599  0.6805
  801MOL0     C10461   1.070   0.995   0.831  0.0708 -0.7742 -0.0800
  801MOL0     C10462   0.991   1.109   0.893  0.4364 -0.0222 -0.2678
  801MOL0     C10463   1.086   1.236   0.921 -0.6901  0.2656 -0.6077
  801MOL0     C10464   1.015   1.361   0.916  0.3308 -0.0917  0.9261
  801MOL0     C10465   0.949   1.460   0.905  0.5763 -0.5371 -0.6250
  801MOL0     C10466   1.451   0.844   0.962  0.2483  0.6602  0.5036
  801MOL0     C10467   1.578   0.777   0.937 -0.1119  0.8301 -0.1834
  801MOL0     C10468   1.600   0.650   1.012  0.2652  1.2516 -0.7100
  801MOL0     H10469   2.067   0.984   0.759  0.5580  0.2430  1.5082
  801MOL0     H10470   2.303   0.948   0.724  0.3199 -1.9869  1.4841
  801MOL0     H10471   2.464   0.763   0.784 -1.2887 -5.4062 -1.6291
  801MOL0     H10472   2.523   0.877   0.651  1.3686 -0.6760 -2.2386
  801MOL0     H10473   2.710   0.737   0.761 -1.3606 -2.1309  2.1579
  801MOL0     H10474   2.617   0.591   0.717 -2.1998 -0.0725 -1.7762
  801MOL0     H10475   2.641   0.633   0.466  0.3586  0.6429  0.0978
  801MOL0     H10476   2.758   0.750   0.514 -3.1679  0.6117 -0.3103
  801MOL0     H10477   2.854   0.567   0.663  1.1604 -1.9064  0.3511
  801MOL0     H10478   2.763   0.456   0.558 -0.7463 -0.2310 -1.5317
  801MOL0     H10479   2.895   0.530   0.351 -0.3563  0.8294  0.1162
  801MOL0     H10480   2.982   0.451   0.486 -0.2178 -0.2886 -0.9242
  801MOL0     H10481   2.949   0.744   0.396 -0.6715  0.4177 -0.4068
  801MOL0     H10482   3.034   0.703   0.558 -1.4448 -0.2865 -0.6457
  801MOL0     H10483   3.091   0.653   0.274  1.9186  0.3784 -0.7384
  801MOL0     H10484   3.194   0.586   0.418 -0.2392  0.4426  2.3381
  801MOL0     H10485   3.156   0.877   0.378 -2.2058 -1.2268  1.2919
  801MOL0     H10486   3.285   0.817   0.474  0.4586 -1.5093 -0.1829
  801MOL0     H10487   3.276   0.628   0.144  0.9268 -0.3193 -0.5940
  801MOL0     H10488   3.384   0.764  -0.163  0.1889 -1.3943 -1.3402
  801MOL0     H10489   3.452   0.623  -0.093  2.7520 -0.3127  0.6534
  801MOL0     H10490   3.600   0.871  -0.135  0.5305 -0.3317 -1.8878
  801MOL0     H10491   3.663   0.778   0.001  0.5950 -0.5356  0.1098
  801MOL0     H10492   3.646   0.576  -0.174  0.0191  0.2690 -0.9335
  801MOL0     H10493   3.654   0.716  -0.284 -1.1017  1.0342  1.0813
  801MOL0     H10494   3.854   0.804  -0.174  0.1722  0.8833  3.8720
  801MOL0     H10495   3.865   0.661  -0.065 -0.4687  0.7311  0.0102
  801MOL0     H10496   3.867   0.729  -0.481 -0.4329 -0.2422  1.0558
  801MOL0     H10497   4.074   0.994  -0.625  1.5705 -0.6266  2.2926
  801MOL0     H10498   3.921   0.895  -0.631  0.1741 -5.4532  2.0217
  801MOL0     H10499   4.058   0.846  -0.727  2.8156  1.8139 -0.7639
  801MOL0     H10500   4.636   0.987  -0.364  0.7867  0.4844  0.3243
  801MOL0     H10501   4.869   1.006  -0.475 -0.9332  0.6223  1.3881
  801MOL0     H10502   5.012   0.685  -0.608 -1.0568  3.1615  2.9494
  801MOL0     H10503   4.995   0.738  -0.780  0.0627 -0.1772 -0.0427
  801MOL0     H10504   5.194   0.864  -0.763  1.8538 -0.3647  1.2877
  801MOL0     H10505   5.206   0.860  -0.580  1.0991  0.3709 -0.3135
  801MOL0     H10506   5.243   0.633  -0.773 -2.3126  0.3142  0.9434
  801MOL0     H10507   5.264   0.633  -0.595  1.7975 -1.7393  0.2655
  801MOL0     H10508   5.453   0.794  -0.603  1.7375  1.1149 -1.0117
  801MOL0     H10509   5.417   0.831  -0.776 -2.4937  0.3774  0.6053
  801MOL0     H10510   5.527   0.561  -0.690  2.0301 -0.8324 -2.9293
  801MOL0     H10511   5.488   0.632  -0.847 -0.4359 -0.9545  0.1090
  801MOL0     H10512   5.680   0.780  -0.648  1.4170 -1.1950 -0.0846
  801MOL0     H10513   5.669   0.796  -0.818 -2.6037 -0.0865 -0.8707
  801MOL0     H10514   5.752   0.559  -0.857 -0.1373 -1.7911  0.2400
  801MOL0     H10515   5.745   0.542  -0.678  0.1357  1.1436  1.3401
  801MOL0     H10516   5.931   0.711  -0.843  2.2359 -0.6736 -0.4036
  801MOL0     H10517   5.964   0.574  -0.727 -4.8846 -2.6708  0.8755
  801MOL0     H10518   4.763   0.723  -0.753 -0.4410  0.8469 -0.8893
  801MOL0     H10519   4.528   0.720  -0.677 -0.7060  0.9430 -0.9771
  801MOL0     H10520   4.324   0.678  -0.330 -0.8886 -2.4677  4.3744
  801MOL0     H10521   4.134   0.583  -0.201  2.9514 -4.0135 -3.1694
  801MOL0     H10522   2.212   0.568   0.536  0.4680  1.5836 -1.8937
  801MOL0     H10523   1.966   0.608   0.596 -0.1124  1.3575  0.4820
  801MOL0     H10524   1.699   1.001   0.714 -0.1309  0.3070  0.7001
  801MOL0     H10525   1.478   1.091   0.742  1.6334 -0.8402 -3.1824
  801MOL0     H10526   1.216   0.855   0.875 -0.4367  0.5960  1.4104
  801MOL0     H10527   1.147   0.926   1.025  0.0337 -0.1603  0.8621
  801MOL0     H10528   1.009   0.905   0.829 -0.0329 -0.7929  1.7984
  801MOL0     H10529   1.115   1.016   0.733  0.5618 -1.2226  0.0423
  801MOL0     H10530   0.905   1.137   0.832 -1.2963 -3.5245  0.3252
  801MOL0     H10531   0.945   1.079   0.988 -0.8818  1.4764 -0.3943
  801MOL0     H10532   1.152   1.241   0.834 -0.1009  1.9725 -0.1147
  801MOL0     H10533   1.153   1.223   1.006 -0.8774  0.6516 -0.3956
  801MOL0     H10534   0.884   1.545   0.901  1.5907  0.3730  1.1431
  801MOL0     H10535   1.386   0.798   1.035  2.0581 -2.8362  0.1258
  801MOL0     H10536   1.545   0.568   0.964 -1.6143  2.4750 -0.7760
  801MOL0     H10537   1.705   0.622   1.008  0.1759  0.7612  0.2658
  801MOL0     H10538   1.577   0.671   1.117  0.7274  0.4040 -0.4303
  802MOL0     O10539   5.285   3.228   4.525 -0.1190  0.6611  0.3300
  802MOL0     C10540   5.270   3.234   4.400  0.1528  0.8471 -1.0792
  802MOL0     O10541   5.362   3.276   4.315 -0.5363 -0.4537  0.2372
  802MOL0     C10542   5.492   3.313   4.352  0.6531  0.2672 -0.9451
  802MOL0     C10543   5.550   3.408   4.264  0.1960  0.1713  0.0066
  802MOL0     C10544   5.687   3.446   4.290 -0.3088  0.6580  0.6667
  802MOL0     C10545   5.765   3.404   4.400 -0.8983  0.6730  0.3947
  802MOL0     O10546   5.900   3.422   4.435  0.7419  0.5905 -0.3406
  802MOL0     C10547   5.992   3.424   4.326  0.6237  0.8052 -0.0810
  802MOL0     C10548   6.122   3.451   4.380 -1.5250  0.1283 -0.0767
  802MOL0     C10549   6.156   3.604   4.369 -0.1527  0.4570  0.1916
  802MOL0     C10550   6.257   3.646   4.473 -0.0159 -0.0868  0.5298
  802MOL0     C10551   6.304   3.790   4.445 -0.4643  0.1968  0.2026
  802MOL0     C10552   6.402   3.800   4.333 -0.3986  1.0118 -0.4877
  802MOL0     C10553   6.508   3.922   4.334  0.4981  0.5483 -1.0876
  802MOL0     C10554   6.616   3.890   4.232 -0.0112 -1.4422 -0.0039
  802MOL0     N10555   6.706   4.010   4.207 -0.1054  0.9482 -0.7362
  802MOL0     C10556   6.811   4.053   4.287 -0.7876 -0.9519 -0.3240
  802MOL0     C10557   6.869   4.146   4.219 -0.2414 -0.4655 -0.2248
  802MOL0     C10558   6.996   4.214   4.254  0.4285 -0.6822 -0.4898
  802MOL0     C10559   7.016   4.352   4.191 -0.0358  0.3613 -0.0278
  802MOL0     C10560   7.169   4.383   4.206  1.0611  0.3837  0.1284
  802MOL0     C10561   7.203   4.500   4.120 -0.4059  0.0133  0.3271
  802MOL0     O10562   7.341   4.531   4.114  0.0131 -0.4764  0.6965
  802MOL0     C10563   7.397   4.592   4.000  0.1996  0.5511  0.2642
  802MOL0     C10564   7.334   4.611   3.873 -0.0260  0.4820 -0.3680
  802MOL0     C10565   7.405   4.654   3.758  0.0648 -0.0900  0.7643
  802MOL0     C10566   7.322   4.695   3.634 -0.3910  0.3902 -0.1215
  802MOL0     C10567   7.543   4.679   3.768 -0.4236  0.4499  0.4225
  802MOL0     C10568   7.623   4.745   3.650  0.0316 -0.3039 -0.4294
  802MOL0     O10569   7.598   4.871   3.618  0.0202 -0.2225  0.2326
  802MOL0     C10570   7.620   4.911   3.486  0.0920 -0.7854  0.8172
  802MOL0     C10571   7.632   4.829   3.374  0.0363 -0.3437 -0.7205
  802MOL0     C10572   7.657   4.875   3.245 -0.0977  0.2679 -0.2575
  802MOL0     C10573   7.654   5.016   3.223 -0.2479 -0.0840 -0.1418
  802MOL0     O10574   7.653   5.075   3.102  0.2188 -0.0157  0.2347
  802MOL0     C10575   7.650   4.989   2.987  0.4085 -0.8154 -0.6412
  802MOL0     C10576   7.514   4.942   2.939  0.4763  0.7211 -0.3244
  802MOL0     C10577   7.424   5.056   2.904 -0.8911 -0.1326  0.1214
  802MOL0     C10578   7.321   5.026   2.784  0.5513 -0.3333  0.4127
  802MOL0     C10579   7.234   5.146   2.739 -0.0492  0.7186  0.1326
  802MOL0     C10580   7.153   5.193   2.857 -0.5248  0.9791  0.6904
  802MOL0     C10581   7.084   5.323   2.825 -0.4206  0.0532  0.6132
  802MOL0     C10582   7.014   5.371   2.942  0.5686 -0.4480 -0.3496
  802MOL0    Cl10583   6.941   5.528   2.906  0.0945  0.0537  0.0848
  802MOL0     C10584   7.635   5.101   3.333  0.3725 -0.1790  0.5176
  802MOL0     C10585   7.619   5.054   3.464  0.1322  0.0356  0.0021
  802MOL0     O10586   7.719   4.677   3.602 -0.2837 -0.0764  0.2118
  802MOL0     C10587   7.608   4.672   3.894 -0.0761 -0.0992 -0.3045
  802MOL0     C10588   7.540   4.619   4.002 -0.2611  0.8895  0.1700
  802MOL0     N10589   6.803   4.162   4.096 -0.1139 -0.2613  0.5761
  802MOL0     N10590   6.705   4.077   4.095 -0.1772 -0.5296  0.2288
  802MOL0     C10591   5.702   3.306   4.479 -0.3073 -0.0231 -0.7376
  802MOL0     C10592   5.568   3.265   4.464  0.0549 -0.7008 -0.4965
  802MOL0     C10593   5.133   3.185   4.360 -0.0004 -0.7436  0.4326
  802MOL0     C10594   5.028   3.206   4.452  0.3864  0.0087 -0.0544
  802MOL0     C10595   4.897   3.176   4.412 -0.2306  0.6967  0.5111
  802MOL0     C10596   4.866   3.113   4.297  0.0033 -0.5510  0.1374
  802MOL0     O10597   4.735   3.108   4.259 -0.0145 -0.0645  0.1626
  802MOL0     C10598   4.691   3.032   4.152  0.9231 -0.0834 -0.0432
  802MOL0     C10599   4.689   2.886   4.181 -0.1792  1.2732 -0.1304
  802MOL0     C10600   4.594   2.849   4.301  0.0049  0.6743  0.3365
  802MOL0     C10601   4.619   2.708   4.346 -0.0174 -0.5461  0.9219
  802MOL0     C10602   4.522   2.672   4.453  0.4350  0.4782 -0.5709
  802MOL0     C10603   4.455   2.641   4.548 -0.6907 -0.2299  0.4255
  802MOL0     C10604   4.972   3.071   4.213  0.4860  0.3683 -0.1727
  802MOL0     C10605   5.104   3.108   4.246 -0.0704 -0.9632  0.0484
  802MOL0     C10606   5.209   3.081   4.144  0.6609  0.5952 -0.2717
  802MOL0     H10607   5.496   3.446   4.177  3.7534  1.6680 -1.7172
  802MOL0     H10608   5.726   3.517   4.218 -1.5383  1.3784  0.6849
  802MOL0     H10609   5.975   3.502   4.251 -0.7714 -0.2386 -0.9026
  802MOL0     H10610   6.006   3.325   4.283 -1.1555  0.1253  0.8200
  802MOL0     H10611   6.124   3.422   4.485  1.1840 -1.8815 -0.5852
  802MOL0     H10612   6.203   3.410   4.319 -0.0558  2.1899  0.3863
  802MOL0     H10613   6.205   3.613   4.271 -0.8888 -0.2164 -0.2527
  802MOL0     H10614   6.071   3.673   4.372  0.3123  1.0035  2.7393
  802MOL0     H10615   6.222   3.627   4.575 -0.3094  1.6509  0.7735
  802MOL0     H10616   6.340   3.576   4.461  0.7295  1.2418 -4.2802
  802MOL0     H10617   6.362   3.805   4.537  0.7147 -2.1010 -0.0948
  802MOL0     H10618   6.221   3.859   4.431 -0.7060 -0.3100 -0.9622
  802MOL0     H10619   6.469   3.714   4.349 -2.3064 -0.2433  1.2561
  802MOL0     H10620   6.354   3.786   4.236 -1.0475 -1.0977  0.0729
  802MOL0     H10621   6.549   3.930   4.435 -0.9461 -1.3980 -0.2648
  802MOL0     H10622   6.463   4.017   4.303 -0.4801 -0.2429 -2.2265
  802MOL0     H10623   6.686   3.811   4.262  4.8160  2.4751  0.3398
  802MOL0     H10624   6.563   3.855   4.143 -0.1036  0.4636 -0.7317
  802MOL0     H10625   6.822   4.015   4.388 -3.2596 -2.1886 -0.4507
  802MOL0     H10626   7.073   4.147   4.214  0.0239  0.1085 -2.7296
  802MOL0     H10627   7.001   4.217   4.364 -2.5551  1.5912 -0.2827
  802MOL0     H10628   6.998   4.350   4.083  0.8749 -1.2461 -0.1723
  802MOL0     H10629   6.952   4.424   4.242  0.1504 -0.8315  1.9852
  802MOL0     H10630   7.204   4.398   4.308  1.5449  0.8889 -0.1043
  802MOL0     H10631   7.228   4.300   4.165  0.4674 -0.0242  0.0779
  802MOL0     H10632   7.178   4.466   4.019  0.0654  2.0407 -0.5314
  802MOL0     H10633   7.139   4.583   4.152 -1.8646 -1.6854  2.0287
  802MOL0     H10634   7.227   4.598   3.862 -0.2428  1.5838  0.3168
  802MOL0     H10635   7.280   4.795   3.645  0.4507  0.5956  1.6037
  802MOL0     H10636   7.247   4.623   3.599  2.4120 -2.0137 -1.6177
  802MOL0     H10637   7.388   4.711   3.548  0.4111 -0.9179  0.2196
  802MOL0     H10638   7.618   4.721   3.376 -3.7631  0.0260 -0.5977
  802MOL0     H10639   7.665   4.792   3.176 -0.6665 -0.6378  0.7385
  802MOL0     H10640   7.693   5.044   2.902 -0.1310  3.1461  1.4337
  802MOL0     H10641   7.712   4.900   3.003  3.5113  1.4415  0.7929
  802MOL0     H10642   7.536   4.886   2.847  1.0653  0.3258  0.0524
  802MOL0     H10643   7.462   4.891   3.020  1.1988  1.1781  0.4499
  802MOL0     H10644   7.482   5.142   2.868 -0.2784 -0.2447  0.8194
  802MOL0     H10645   7.364   5.086   2.990 -2.4819  0.1364 -1.0461
  802MOL0     H10646   7.260   4.944   2.825  0.1013  0.4693  1.3849
  802MOL0     H10647   7.376   4.995   2.695 -2.3955  0.6242 -1.9267
  802MOL0     H10648   7.307   5.223   2.713  1.2609  0.0980  1.8298
  802MOL0     H10649   7.181   5.113   2.649  3.4406 -2.2631 -1.0860
  802MOL0     H10650   7.211   5.205   2.949 -0.7547 -3.9377  1.7699
  802MOL0     H10651   7.086   5.113   2.888  2.1796 -1.3991  0.7784
  802MOL0     H10652   7.006   5.306   2.750  0.0600  0.7771 -0.0789
  802MOL0     H10653   7.148   5.406   2.794  1.5229 -1.7685 -0.5415
  802MOL0     H10654   7.076   5.382   3.032 -0.8348  0.4551  0.5436
  802MOL0     H10655   6.931   5.308   2.975 -1.6822  1.2017 -2.5429
  802MOL0     H10656   7.624   5.205   3.304 -1.0315 -0.8088 -1.4300
  802MOL0     H10657   7.612   5.121   3.549  0.0613 -2.5816  2.1739
  802MOL0     H10658   7.715   4.690   3.902 -0.3380  0.8362  1.7154
  802MOL0     H10659   7.597   4.617   4.095  1.2666 -0.8173 -0.7363
  802MOL0     H10660   5.761   3.250   4.550  1.4082  2.3888 -0.1275
  802MOL0     H10661   5.527   3.186   4.527  1.2074 -0.4287  0.6341
  802MOL0     H10662   5.041   3.252   4.550 -2.6772  1.1151 -0.0427
  802MOL0     H10663   4.812   3.221   4.463  0.8767  0.5754  2.5913
  802MOL0     H10664   4.589   3.054   4.119  0.7499  0.4404  0.8004
  802MOL0     H10665   4.752   3.056   4.064 -0.9038  1.4798 -0.9645
  802MOL0     H10666   4.792   2.854   4.200  0.0180  1.2359 -1.2054
  802MOL0     H10667   4.661   2.832   4.090 -2.0826  0.3654  0.9478
  802MOL0     H10668   4.603   2.913   4.389  0.7272  1.5370 -0.3566
  802MOL0     H10669   4.493   2.862   4.260 -0.5192  1.5612  1.8483
  802MOL0     H10670   4.722   2.693   4.378  0.4158 -1.4607 -0.7601
  802MOL0     H10671   4.604   2.642   4.260  2.6346  1.7377 -1.5482
  802MOL0     H10672   4.400   2.639   4.640  2.5491 -0.6555  2.4932
  802MOL0     H10673   4.943   3.006   4.131  0.3094 -3.4692  2.6192
  802MOL0     H10674   5.234   3.171   4.087  3.0143  0.1342 -0.1013
  802MOL0     H10675   5.298   3.032   4.185 -0.1717  0.3992  1.3728
  802MOL0     H10676   5.178   3.002   4.075  0.4162  0.4130  0.0473
  803MOL0     O10677   9.770   9.598   6.455 -0.4235  0.5996  0.3133
  803MOL0     C10678   9.735   9.711   6.432 -0.3487 -0.2374 -0.0467
  803MOL0     O10679   9.786   9.789   6.331  0.2869 -0.5186  0.4473
  803MOL0     C10680   9.894   9.742   6.259 -0.1360  0.1889 -0.2192
  803MOL0     C10681   9.891   9.618   6.186  0.0572  0.1500  0.3560
  803MOL0     C10682   9.999   9.580   6.114  0.5000  0.5838  0.3119
  803MOL0     C10683  10.118   9.663   6.119 -0.3239 -0.1536  0.4345
  803MOL0     O10684  10.238   9.626   6.059 -0.1852 -1.1458  0.3403
  803MOL0     C10685  10.234   9.499   6.006 -0.2787  0.2898  0.2912
  803MOL0     C10686  10.365   9.454   5.947  0.7570  0.1392  0.0977
  803MOL0     C10687  10.467   9.399   6.050 -0.5117 -0.2095 -0.1914
  803MOL0     C10688  10.600   9.358   5.975 -0.0692 -0.0510 -0.6554
  803MOL0     C10689  10.696   9.298   6.085 -0.2798 -0.5362 -0.2367
  803MOL0     C10690  10.816   9.254   6.014  0.3703 -0.6657  0.0435
  803MOL0     C10691  10.925   9.188   6.115 -0.3742  0.0505  0.8824
  803MOL0     C10692  10.972   9.280   6.226  0.4485  0.5438  0.3858
  803MOL0     N10693  11.013   9.406   6.165  0.5694  0.3829 -0.1863
  803MOL0     C10694  11.000   9.521   6.237  0.7747 -0.5964 -0.2999
  803MOL0     C10695  11.066   9.616   6.166  0.2954 -0.2571  0.8841
  803MOL0     C10696  11.107   9.753   6.217 -0.2627 -0.3058  0.3744
  803MOL0     C10697  11.229   9.737   6.306 -0.0715  0.3381  1.1028
  803MOL0     C10698  11.292   9.870   6.357  0.1024 -1.3431 -0.1803
  803MOL0     C10699  11.423   9.849   6.442  0.1245  0.2846 -0.6516
  803MOL0     O10700  11.545   9.800   6.383  0.7141  0.2905 -0.0790
  803MOL0     C10701  11.667   9.827   6.434 -0.4654  0.2824 -0.0222
  803MOL0     C10702  11.783   9.791   6.360 -0.2313  0.7160  0.2092
  803MOL0     C10703  11.924   9.821   6.402 -0.2506 -0.5846 -1.0816
  803MOL0     C10704  12.037   9.800   6.306 -0.3979 -0.1800 -0.6169
  803MOL0     C10705  11.936   9.877   6.535 -0.0776  0.8476  0.9554
  803MOL0     C10706  12.070   9.906   6.596  0.1687 -0.1595  0.5024
  803MOL0     O10707  12.073  10.030   6.655  0.0386  0.5501  0.3630
  803MOL0     C10708  12.176  10.038   6.734  0.1361 -0.0595 -0.1319
  803MOL0     C10709  12.158  10.030   6.874 -0.3414 -0.6863  0.1521
  803MOL0     C10710  12.262  10.063   6.957 -0.0458  0.0784 -0.5393
  803MOL0     C10711  12.391  10.114   6.905 -0.2736 -0.1358 -0.2140
  803MOL0     O10712  12.495  10.151   6.993 -1.2806 -0.4596 -0.0819
  803MOL0     C10713  12.456  10.183   7.130 -0.9611  0.1020  0.4449
  803MOL0     C10714  12.589  10.213   7.208  0.8682  0.5213 -0.8001
  803MOL0     C10715  12.583  10.200   7.361  0.5349 -0.3897 -0.5631
  803MOL0     C10716  12.492  10.297   7.428  0.6846  0.0577  0.1307
  803MOL0     C10717  12.518  10.447   7.402  0.4413  0.8231  0.2047
  803MOL0     C10718  12.427  10.527   7.497 -0.2867  0.5029  0.1736
  803MOL0     C10719  12.287  10.506   7.465  0.1713  0.4712 -0.2443
  803MOL0     C10720  12.202  10.607   7.537  1.0384 -0.5503  0.4402
  803MOL0    Cl10721  12.197  10.776   7.465 -0.3406  0.2498  0.1301
  803MOL0     C10722  12.407  10.113   6.767 -1.1417  0.4893  0.6575
  803MOL0     C10723  12.298  10.086   6.683 -1.4173  0.3352 -1.0048
  803MOL0     O10724  12.172   9.826   6.586 -0.1782  0.3868 -0.6808
  803MOL0     C10725  11.823   9.901   6.604  0.5497  0.2300  0.4125
  803MOL0     C10726  11.696   9.882   6.555  0.2691 -0.8549  0.1165
  803MOL0     N10727  11.122   9.556   6.060  0.1507  0.2231  0.2040
  803MOL0     N10728  11.102   9.428   6.067 -0.8353 -0.4287  0.2151
  803MOL0     C10729  10.122   9.784   6.181  0.3149  0.0984 -0.1225
  803MOL0     C10730  10.009   9.824   6.250  0.0048  0.4647 -0.4904
  803MOL0     C10731   9.641   9.776   6.525  0.7870  0.1621 -0.4022
  803MOL0     C10732   9.540   9.693   6.592  0.7422 -0.1056 -0.2118
  803MOL0     C10733   9.433   9.738   6.669  0.1737 -0.3623 -0.5550
  803MOL0     C10734   9.429   9.884   6.679 -0.9332  0.4248 -0.5441
  803MOL0     O10735   9.320   9.936   6.751  0.1276  0.3194  0.3005
  803MOL0     C10736   9.216   9.969   6.659  0.0813  0.1309  0.1500
  803MOL0     C10737   9.141   9.842   6.620  0.4765  0.4627  0.7882
  803MOL0     C10738   9.086   9.762   6.745 -0.6967  0.0358 -1.7889
  803MOL0     C10739   8.950   9.812   6.786  0.9402  0.1161 -1.1593
  803MOL0     C10740   8.866   9.719   6.856  0.8039 -0.0353 -0.1325
  803MOL0     C10741   8.790   9.636   6.911 -0.6517 -0.3478 -0.4626
  803MOL0     C10742   9.532   9.962   6.630  0.5030  0.0281  0.0732
  803MOL0     C10743   9.637   9.917   6.558  0.1210  0.0258  0.7758
  803MOL0     C10744   9.745  10.012   6.507  0.4250  0.3092 -0.6461
  803MOL0     H10745   9.808   9.549   6.189  1.2409 -1.2885  2.2241
  803MOL0     H10746   9.998   9.487   6.058  2.0706  1.4225 -1.2252
  803MOL0     H10747  10.158   9.485   5.928 -3.2235  2.6251  2.4802
  803MOL0     H10748  10.211   9.431   6.088  0.2729 -1.0790 -0.6569
  803MOL0     H10749  10.331   9.371   5.884 -0.4543  1.8697 -1.6699
  803MOL0     H10750  10.401   9.531   5.878 -0.5649  0.1428 -0.6265
  803MOL0     H10751  10.486   9.470   6.131 -1.8189 -1.1415  0.9722
  803MOL0     H10752  10.433   9.310   6.103  0.2263 -0.8999 -0.8568
  803MOL0     H10753  10.582   9.278   5.903  2.3027 -0.6865 -0.6205
  803MOL0     H10754  10.639   9.449   5.927 -0.6332  0.9412  0.7099
  803MOL0     H10755  10.641   9.215   6.131 -1.0825  1.1148  1.9522
  803MOL0     H10756  10.724   9.366   6.166  0.5321 -0.1108 -0.8581
  803MOL0     H10757  10.785   9.182   5.938 -0.1637 -0.6667  0.2543
  803MOL0     H10758  10.863   9.331   5.952 -2.7683 -0.7142 -2.6885
  803MOL0     H10759  11.016   9.159   6.061 -0.0723 -0.8548  1.8674
  803MOL0     H10760  10.890   9.090   6.146  1.3700 -2.5125 -4.1181
  803MOL0     H10761  10.889   9.302   6.294 -0.7086 -0.5231 -0.6431
  803MOL0     H10762  11.041   9.228   6.294 -1.1691  0.6683  2.2040
  803MOL0     H10763  10.967   9.543   6.338  0.5235  0.9775 -0.7040
  803MOL0     H10764  11.030   9.802   6.277 -0.2570  0.3541 -0.1463
  803MOL0     H10765  11.112   9.816   6.127  0.5918 -0.8516  0.0294
  803MOL0     H10766  11.206   9.668   6.388  0.7354 -0.7187  0.4577
  803MOL0     H10767  11.309   9.689   6.250  0.1609  1.6450  0.2665
  803MOL0     H10768  11.317   9.943   6.279  1.8771 -2.3300 -0.5933
  803MOL0     H10769  11.224   9.924   6.424 -0.2240 -3.2481  1.0793
  803MOL0     H10770  11.439   9.938   6.505 -0.8785  0.6719 -0.9213
  803MOL0     H10771  11.390   9.775   6.515 -0.3893  0.5990 -0.5584
  803MOL0     H10772  11.771   9.762   6.256  1.2665  2.7182 -0.5962
  803MOL0     H10773  12.096   9.708   6.319  0.7220  0.6658  0.5816
  803MOL0     H10774  12.114   9.876   6.323 -0.9447  1.2871 -4.0430
  803MOL0     H10775  12.010   9.807   6.201 -1.3595  3.8622 -0.2517
  803MOL0     H10776  12.055  10.020   6.904 -1.8778  2.3829 -3.2882
  803MOL0     H10777  12.241  10.077   7.063 -0.4544  3.4653 -0.9636
  803MOL0     H10778  12.388  10.269   7.135  0.5670  1.3763  0.2651
  803MOL0     H10779  12.408  10.097   7.177  2.9609 -2.2721  0.5262
  803MOL0     H10780  12.655  10.135   7.170  1.1438  0.1425  0.4119
  803MOL0     H10781  12.630  10.313   7.189 -1.8684  2.2882  1.6686
  803MOL0     H10782  12.684  10.217   7.400  0.9819 -0.3567 -1.7171
  803MOL0     H10783  12.542  10.103   7.393 -0.9563  1.1301  2.5704
  803MOL0     H10784  12.503  10.287   7.536  0.9401 -2.5114 -0.0816
  803MOL0     H10785  12.389  10.273   7.400  0.6331  0.8251 -0.3768
  803MOL0     H10786  12.622  10.478   7.416  0.7069  0.0849 -0.0873
  803MOL0     H10787  12.483  10.466   7.300 -0.0345 -1.1186 -0.0331
  803MOL0     H10788  12.447  10.635   7.497  1.0203  0.3443 -2.5878
  803MOL0     H10789  12.447  10.485   7.596 -0.2343 -3.7202 -1.4329
  803MOL0     H10790  12.251  10.406   7.489  4.1869 -1.1289 -0.0020
  803MOL0     H10791  12.267  10.528   7.359  0.9632  1.0350 -0.2923
  803MOL0     H10792  12.224  10.613   7.645 -0.2717 -1.3138  0.7722
  803MOL0     H10793  12.099  10.570   7.542  1.3262 -1.4321 -0.0015
  803MOL0     H10794  12.503  10.151   6.732 -0.8837 -0.3009  0.4957
  803MOL0     H10795  12.322  10.099   6.578 -0.7654  2.6364 -0.6326
  803MOL0     H10796  11.832   9.954   6.699 -4.0533  0.0787  1.1401
  803MOL0     H10797  11.609   9.902   6.617 -1.7094  0.1287 -2.7205
  803MOL0     H10798  10.214   9.841   6.170  0.8297 -0.5973  0.4551
  803MOL0     H10799  10.017   9.909   6.317  2.1349 -0.5061  0.5742
  803MOL0     H10800   9.550   9.588   6.567  0.2874 -1.4471  4.4438
  803MOL0     H10801   9.356   9.671   6.708 -0.7497  0.9410 -0.0589
  803MOL0     H10802   9.141  10.043   6.691  0.1794  0.9773 -1.4620
  803MOL0     H10803   9.257  10.012   6.567  2.3682 -0.8563  0.6519
  803MOL0     H10804   9.205   9.790   6.547 -0.6788 -2.2809  1.5998
  803MOL0     H10805   9.055   9.867   6.558  0.2094  1.7344  1.6517
  803MOL0     H10806   9.073   9.658   6.714 -1.3337 -0.2029 -0.7692
  803MOL0     H10807   9.161   9.768   6.824 -2.6229 -0.2533  0.1503
  803MOL0     H10808   8.901   9.831   6.690 -1.3226 -1.4315 -0.3921
  803MOL0     H10809   8.958   9.905   6.842 -0.2067 -1.0828  1.1097
  803MOL0     H10810   8.739   9.549   6.946  0.3883 -1.4440 -1.5751
  803MOL0     H10811   9.533  10.068   6.651  0.4603  0.0003  0.2166
  803MOL0     H10812   9.705  10.070   6.423 -0.0293  0.1104 -0.5728
  803MOL0     H10813   9.765  10.080   6.590  0.1427  1.4371 -1.4860
  803MOL0     H10814   9.826   9.944   6.480 -1.3672 -2.0167 -0.4721
  804MOL0     O10815   9.502  10.669   2.651  0.3954  0.2820 -0.0965
  804MOL0     C10816   9.401  10.676   2.719  1.1874 -0.0689  0.1083
  804MOL0     O10817   9.384  10.750   2.831 -0.2674  0.0021  0.2439
  804MOL0     C10818   9.499  10.795   2.887 -0.4599  1.1647 -0.5656
  804MOL0     C10819   9.518  10.934   2.902  0.0813  0.1363 -0.4569
  804MOL0     C10820   9.628  10.976   2.979  0.3166  0.3716 -0.2640
  804MOL0     C10821   9.715  10.888   3.032  0.0440 -0.6154  0.0340
  804MOL0     O10822   9.827  10.933   3.098 -0.3897 -0.9060 -0.5905
  804MOL0     C10823   9.921  11.003   3.009 -0.4618  0.4447  0.2562
  804MOL0     C10824  10.042  10.918   2.994 -0.0946  0.5539  0.3270
  804MOL0     C10825  10.162  10.989   2.927  0.4298  0.3239 -1.0431
  804MOL0     C10826  10.289  10.917   2.940  0.0809  0.6020 -0.1948
  804MOL0     C10827  10.336  10.922   3.079  0.9430  0.1148  0.6526
  804MOL0     C10828  10.480  10.881   3.115  0.3999 -0.1261 -0.6627
  804MOL0     C10829  10.579  10.950   3.025  0.1367  0.3312  1.0300
  804MOL0     C10830  10.571  11.105   3.030  0.4902  0.5813 -0.2062
  804MOL0     N10831  10.626  11.140   3.163  0.3218 -0.4731  0.7641
  804MOL0     C10832  10.761  11.164   3.184 -0.7346 -0.3140 -0.3759
  804MOL0     C10833  10.772  11.202   3.316  0.5461 -0.6742 -0.2220
  804MOL0     C10834  10.896  11.235   3.396 -0.1866 -1.2865  0.6034
  804MOL0     C10835  11.016  11.161   3.330 -0.3432  0.3126 -0.8405
  804MOL0     C10836  11.135  11.193   3.413 -0.2836  0.2881 -0.6133
  804MOL0     C10837  11.175  11.084   3.512 -0.2095  0.5320 -0.2082
  804MOL0     O10838  11.262  11.122   3.626  0.0257  1.2739 -0.3340
  804MOL0     C10839  11.380  11.181   3.617 -0.1140  0.3776 -0.2360
  804MOL0     C10840  11.441  11.190   3.742 -0.9464 -0.0138 -0.2558
  804MOL0     C10841  11.567  11.250   3.749  0.4551 -0.3055 -0.6718
  804MOL0     C10842  11.622  11.263   3.882 -0.1174  0.3359 -0.3854
  804MOL0     C10843  11.634  11.307   3.631  0.8602  0.5714 -0.7216
  804MOL0     C10844  11.767  11.360   3.642  0.2621  0.1038  1.2015
  804MOL0     O10845  11.793  11.477   3.566  0.1563  0.8940  0.2006
  804MOL0     C10846  11.906  11.553   3.583  0.5229 -0.6219  0.3447
  804MOL0     C10847  11.905  11.651   3.673 -0.4375  0.0321  0.6123
  804MOL0     C10848  12.022  11.721   3.703 -0.7784  0.2040 -1.1222
  804MOL0     C10849  12.139  11.691   3.638 -0.2969  0.6077 -0.1160
  804MOL0     O10850  12.262  11.756   3.644 -0.8332 -0.8678  0.6305
  804MOL0     C10851  12.271  11.894   3.665  0.6217 -0.6204 -0.0896
  804MOL0     C10852  12.406  11.939   3.611 -0.4272 -0.1517  0.1406
  804MOL0     C10853  12.414  12.090   3.569  0.4314  0.1030 -0.0261
  804MOL0     C10854  12.341  12.110   3.426 -0.0872  0.3005 -0.3189
  804MOL0     C10855  12.343  12.255   3.372  0.1270 -0.2571  0.4006
  804MOL0     C10856  12.267  12.272   3.239  0.9089 -0.1809  0.1504
  804MOL0     C10857  12.270  12.418   3.195 -0.5798 -0.7541  0.0453
  804MOL0     C10858  12.407  12.491   3.196  0.3109 -0.4297 -0.0578
  804MOL0    Cl10859  12.519  12.411   3.085 -0.2041  0.2985 -0.0793
  804MOL0     C10860  12.136  11.587   3.545 -1.0716  0.0763 -0.0404
  804MOL0     C10861  12.020  11.520   3.519 -0.0764 -0.3551 -0.4812
  804MOL0     O10862  11.851  11.292   3.704  0.5515  0.3674 -0.3721
  804MOL0     C10863  11.574  11.293   3.505  0.5988  0.1294 -0.7960
  804MOL0     C10864  11.444  11.234   3.500 -1.0097  0.1139  0.0477
  804MOL0     N10865  10.643  11.198   3.369  0.3502  0.4173  0.5382
  804MOL0     N10866  10.557  11.172   3.274  0.3219 -0.0957 -0.5041
  804MOL0     C10867   9.705  10.748   3.010  0.2721  0.6514 -0.3346
  804MOL0     C10868   9.590  10.695   2.948 -0.0275 -0.6161 -0.4813
  804MOL0     C10869   9.283  10.608   2.659  0.1154  0.2932  0.8975
  804MOL0     C10870   9.161  10.668   2.684  0.5940  0.5810  0.2324
  804MOL0     C10871   9.043  10.619   2.617 -0.7991  0.1340 -0.6667
  804MOL0     C10872   9.051  10.501   2.540  0.6995  0.7530 -0.2121
  804MOL0     O10873   8.946  10.433   2.479  0.4796 -0.0845  0.4666
  804MOL0     C10874   8.813  10.494   2.475 -0.2296 -0.3898 -0.4220
  804MOL0     C10875   8.812  10.593   2.363  0.3886  0.0439  0.1021
  804MOL0     C10876   8.684  10.674   2.387 -0.5267 -0.2746 -0.3091
  804MOL0     C10877   8.666  10.781   2.267  0.4811 -0.1941  0.0481
  804MOL0     C10878   8.524  10.823   2.259  0.3880  0.7171  0.7056
  804MOL0     C10879   8.411  10.855   2.276 -0.1732  0.8852 -0.2813
  804MOL0     C10880   9.175  10.431   2.529  0.2963 -1.6378  0.1187
  804MOL0     C10881   9.294  10.488   2.581 -0.7282 -0.1487  0.6147
  804MOL0     C10882   9.425  10.419   2.535  0.0674  0.5248 -0.0012
  804MOL0     H10883   9.452  11.005   2.852 -0.1280  2.0815  2.3315
  804MOL0     H10884   9.639  11.082   3.002  0.1109  0.0564  1.4594
  804MOL0     H10885   9.958  11.092   3.061  1.3151 -1.4192  2.4098
  804MOL0     H10886   9.881  11.048   2.918 -0.3047  3.1186  1.4301
  804MOL0     H10887  10.065  10.873   3.092  0.2287  0.3308  0.1504
  804MOL0     H10888  10.010  10.836   2.929  1.7314  1.0507 -1.2818
  804MOL0     H10889  10.130  11.012   2.825 -0.5926  4.1095 -0.0480
  804MOL0     H10890  10.191  11.089   2.961 -0.8605  0.2184  0.5044
  804MOL0     H10891  10.286  10.812   2.909  1.8047 -0.0633  1.6973
  804MOL0     H10892  10.356  10.971   2.872  0.2595  1.2421  0.4835
  804MOL0     H10893  10.271  10.862   3.143  1.3438  0.0830  1.0399
  804MOL0     H10894  10.320  11.026   3.108 -1.0256 -0.0822  0.3546
  804MOL0     H10895  10.502  10.905   3.219 -0.6879 -0.4062 -0.3626
  804MOL0     H10896  10.500  10.774   3.103 -0.1053 -0.0412 -2.5879
  804MOL0     H10897  10.579  10.921   2.920  0.6300  4.4576 -0.2913
  804MOL0     H10898  10.676  10.924   3.067 -0.9143  1.4453  4.4686
  804MOL0     H10899  10.641  11.138   2.953  0.7819 -0.1097 -0.2394
  804MOL0     H10900  10.468  11.141   3.019  0.3524  0.2939  0.1313
  804MOL0     H10901  10.836  11.149   3.107 -1.2719 -0.2432 -0.9255
  804MOL0     H10902  10.876  11.205   3.499  2.0445  0.0400  1.4950
  804MOL0     H10903  10.918  11.342   3.399  1.0203 -1.3705 -2.2640
  804MOL0     H10904  11.003  11.052   3.331  0.9800  0.1323  0.0779
  804MOL0     H10905  11.030  11.200   3.229 -0.8745  2.3160 -0.1841
  804MOL0     H10906  11.218  11.222   3.349  0.9273 -1.0492  0.2940
  804MOL0     H10907  11.112  11.280   3.475  2.2827  0.7231 -0.1872
  804MOL0     H10908  11.087  11.032   3.553 -0.3063 -1.0253 -2.2321
  804MOL0     H10909  11.231  11.007   3.459  0.2783  1.8528 -1.6903
  804MOL0     H10910  11.389  11.157   3.832 -1.4951  1.5496  0.0325
  804MOL0     H10911  11.555  11.206   3.948 -0.1703 -2.4147 -2.6156
  804MOL0     H10912  11.615  11.370   3.904  1.8109  0.2290  0.9720
  804MOL0     H10913  11.721  11.226   3.910  0.1396  1.6630  0.5527
  804MOL0     H10914  11.809  11.678   3.718 -0.4267  1.1276  0.0244
  804MOL0     H10915  12.023  11.797   3.781  0.1721 -0.3689 -0.5595
  804MOL0     H10916  12.199  11.943   3.599 -1.3940 -1.8750  1.0755
  804MOL0     H10917  12.247  11.928   3.766 -1.3690  0.5660 -0.8887
  804MOL0     H10918  12.478  11.933   3.693  1.4794  0.6076 -1.3994
  804MOL0     H10919  12.439  11.877   3.527  0.1067 -2.2073  1.7533
  804MOL0     H10920  12.517  12.120   3.553 -0.2398  1.0500 -3.0881
  804MOL0     H10921  12.368  12.157   3.643  1.4163 -0.3745  1.0640
  804MOL0     H10922  12.234  12.095   3.437 -0.1437  0.0253 -1.2071
  804MOL0     H10923  12.373  12.036   3.352  0.3019 -0.0427  0.1793
  804MOL0     H10924  12.302  12.319   3.450  0.2800 -0.1805  0.4187
  804MOL0     H10925  12.449  12.280   3.358 -0.0328  1.2179  1.5000
  804MOL0     H10926  12.162  12.244   3.252  0.1420  2.0307 -0.9240
  804MOL0     H10927  12.308  12.206   3.163 -1.8345  0.8141 -2.3807
  804MOL0     H10928  12.192  12.476   3.245 -1.2866 -1.3158 -0.3817
  804MOL0     H10929  12.228  12.429   3.095  2.3835  1.0736 -1.1296
  804MOL0     H10930  12.451  12.505   3.295  4.1438  0.3326 -1.6951
  804MOL0     H10931  12.393  12.595   3.162  3.8915  0.1206 -0.1687
  804MOL0     H10932  12.222  11.557   3.486 -2.0598 -2.1685 -0.4583
  804MOL0     H10933  12.008  11.439   3.448  3.0229 -0.7086 -0.7172
  804MOL0     H10934  11.614  11.346   3.419  1.5996  0.8324  0.0729
  804MOL0     H10935  11.397  11.228   3.402 -1.9823 -3.8455  0.6110
  804MOL0     H10936   9.795  10.698   3.044  2.5170  2.3827 -3.2662
  804MOL0     H10937   9.573  10.589   2.928  0.7189 -0.6022 -1.2599
  804MOL0     H10938   9.151  10.762   2.737 -2.2459  0.1165  0.6809
  804MOL0     H10939   8.949  10.670   2.638  0.3169  1.7472  0.6897
  804MOL0     H10940   8.748  10.407   2.463  1.6565 -1.7893 -0.9273
  804MOL0     H10941   8.789  10.547   2.568 -0.0384 -0.5751 -0.2643
  804MOL0     H10942   8.815  10.548   2.263  1.5104  4.4364 -2.1005
  804MOL0     H10943   8.898  10.660   2.363 -0.0834  0.6655  0.8093
  804MOL0     H10944   8.594  10.614   2.401 -0.6289 -0.3084 -1.0656
  804MOL0     H10945   8.694  10.740   2.474 -0.1221  0.6880 -1.0562
  804MOL0     H10946   8.715  10.738   2.179  0.3656  3.8855 -2.2758
  804MOL0     H10947   8.734  10.866   2.274 -0.5194  0.5748  0.6067
  804MOL0     H10948   8.307  10.872   2.296  0.0453 -0.3475  2.3019
  804MOL0     H10949   9.172  10.348   2.459 -1.0872 -0.7644 -0.9089
  804MOL0     H10950   9.410  10.351   2.451 -1.0363 -1.3481  1.6187
  804MOL0     H10951   9.501  10.489   2.499  1.1519 -0.1290  0.9334
  804MOL0     H10952   9.475  10.363   2.614  1.4867  1.7139 -0.0091
  805MOL0     O10953   8.777   4.867   9.165 -0.2334 -0.5932 -0.1210
  805MOL0     C10954   8.793   4.766   9.092  0.4683 -0.8241  0.0502
  805MOL0     O10955   8.699   4.668   9.065 -0.9170 -0.2948 -0.5150
  805MOL0     C10956   8.562   4.696   9.078 -0.2281 -0.0198 -0.2578
  805MOL0     C10957   8.497   4.810   9.131 -1.2467  0.4417 -0.7858
  805MOL0     C10958   8.355   4.820   9.148 -1.0203 -0.8899  0.6949
  805MOL0     C10959   8.269   4.716   9.097  0.6242 -0.7450  0.4708
  805MOL0     O10960   8.131   4.719   9.098  0.5113 -0.2912  0.0811
  805MOL0     C10961   8.067   4.808   9.192  1.0968  0.2969  0.7020
  805MOL0     C10962   7.919   4.787   9.166  0.1362  0.0344  0.2609
  805MOL0     C10963   7.840   4.879   9.273  0.2415 -0.2389 -0.5126
  805MOL0     C10964   7.700   4.828   9.308  0.1456 -0.5127 -0.8320
  805MOL0     C10965   7.638   4.919   9.410  0.1360 -0.3307  0.0471
  805MOL0     C10966   7.503   4.866   9.448 -0.2561  0.5944  0.3510
  805MOL0     C10967   7.447   4.976   9.544  0.0904  0.1103  0.6399
  805MOL0     C10968   7.337   4.911   9.633  0.1745  0.7282  0.4633
  805MOL0     N10969   7.250   5.003   9.711 -0.3817  0.5890  0.4200
  805MOL0     C10970   7.139   5.059   9.660 -0.1378  0.3886 -0.0738
  805MOL0     C10971   7.071   5.103   9.765 -0.7459 -0.5235  1.3023
  805MOL0     C10972   6.931   5.164   9.762 -0.5301 -0.5631 -0.3869
  805MOL0     C10973   6.933   5.318   9.789 -0.5464 -0.2363 -0.4266
  805MOL0     C10974   7.025   5.395   9.700 -0.0598  0.8048  0.1374
  805MOL0     C10975   6.980   5.403   9.554 -0.6753  0.0792 -0.1913
  805MOL0     O10976   7.006   5.277   9.480  0.6613  1.0141  0.1555
  805MOL0     C10977   7.116   5.256   9.409 -0.2833 -0.1629  0.1073
  805MOL0     C10978   7.104   5.150   9.325  0.8076  1.3352  0.2343
  805MOL0     C10979   7.207   5.100   9.243  1.0377 -0.4527  0.2470
  805MOL0     C10980   7.181   4.974   9.164 -0.1588  0.8488 -0.0891
  805MOL0     C10981   7.326   5.181   9.237 -0.3775 -0.3427 -1.0514
  805MOL0     C10982   7.436   5.159   9.139 -1.7659  0.9776 -0.3772
  805MOL0     O10983   7.535   5.248   9.141  0.6450  0.5501  0.7549
  805MOL0     C10984   7.652   5.246   9.060 -0.2732  1.0687 -0.2422
  805MOL0     C10985   7.711   5.131   9.006 -0.0661 -0.4190 -0.8008
  805MOL0     C10986   7.815   5.147   8.914 -0.4073  0.2364  0.0871
  805MOL0     C10987   7.868   5.271   8.887  0.7667  0.0819  0.5381
  805MOL0     O10988   7.981   5.268   8.808 -0.3389 -0.5865  0.1836
  805MOL0     C10989   8.078   5.179   8.863  0.5395 -0.2141 -0.6662
  805MOL0     C10990   8.208   5.255   8.864  1.0123 -0.2715 -0.0965
  805MOL0     C10991   8.297   5.203   8.968  0.5018 -0.6447 -0.0373
  805MOL0     C10992   8.439   5.249   8.937  0.5435 -0.6220 -0.3091
  805MOL0     C10993   8.545   5.186   9.029  0.9383  0.5724  0.6863
  805MOL0     C10994   8.676   5.243   9.001  0.3175 -0.6819 -0.8306
  805MOL0     C10995   8.774   5.189   9.108  0.7433 -0.0558 -0.0144
  805MOL0     C10996   8.874   5.292   9.165  0.4546  0.4088  0.2154
  805MOL0    Cl10997   8.788   5.421   9.260 -0.0811  0.4629 -0.4191
  805MOL0     C10998   7.807   5.383   8.931 -0.0747  0.0193  0.2679
  805MOL0     C10999   7.704   5.373   9.026 -0.0376 -0.1491  0.4897
  805MOL0     O11000   7.430   5.063   9.054  0.0550  0.2576  0.3747
  805MOL0     C11001   7.338   5.298   9.322 -0.5125 -0.4188  0.0724
  805MOL0     C11002   7.232   5.336   9.403 -0.1087  0.2341 -0.0929
  805MOL0     N11003   7.146   5.077   9.875 -0.8352  1.2104 -0.0670
  805MOL0     N11004   7.256   5.005   9.844  0.7451 -0.1593 -0.6203
  805MOL0     C11005   8.338   4.619   9.022 -0.9065  0.9018  0.0879
  805MOL0     C11006   8.475   4.607   9.020 -0.2922  0.3944 -0.3005
  805MOL0     C11007   8.931   4.742   9.047 -0.1521 -0.2595  0.1535
  805MOL0     C11008   8.951   4.628   8.963  0.3585 -0.0891  0.0477
  805MOL0     C11009   9.074   4.591   8.919  0.4713 -0.3474  0.0025
  805MOL0     C11010   9.182   4.673   8.962  0.2162 -0.1518  0.5517
  805MOL0     O11011   9.316   4.655   8.931  0.4109 -0.4188 -0.5870
  805MOL0     C11012   9.355   4.563   8.829  0.3355 -0.1804  0.1737
  805MOL0     C11013   9.307   4.623   8.699  0.0394 -1.6211 -0.1838
  805MOL0     C11014   9.355   4.535   8.584  0.0958 -0.3821 -0.0278
  805MOL0     C11015   9.335   4.600   8.444  0.6818  0.4042 -0.1243
  805MOL0     C11016   9.193   4.617   8.399 -1.0563  0.4008 -0.6382
  805MOL0     C11017   9.081   4.637   8.361  1.2478  0.6248  0.8503
  805MOL0     C11018   9.164   4.780   9.041 -0.1442 -0.1159  0.7426
  805MOL0     C11019   9.043   4.815   9.091 -0.6673 -0.3368  0.6281
  805MOL0     C11020   9.045   4.916   9.202  0.4930 -1.5838  0.0551
  805MOL0     H11021   8.556   4.892   9.170 -0.8192 -0.7280  1.1635
  805MOL0     H11022   8.317   4.909   9.197  3.7058 -0.3463  4.0553
  805MOL0     H11023   8.092   4.914   9.177 -3.6682  1.6300  0.3615
  805MOL0     H11024   8.084   4.784   9.297 -1.8401  0.4604  1.2939
  805MOL0     H11025   7.888   4.812   9.064 -0.8311  0.6245  0.6785
  805MOL0     H11026   7.897   4.682   9.185 -1.8677 -0.1724 -2.5914
  805MOL0     H11027   7.896   4.899   9.365  2.5362  0.5721 -1.9853
  805MOL0     H11028   7.828   4.979   9.230 -0.0837  0.2645  0.7071
  805MOL0     H11029   7.629   4.841   9.226 -2.2344  0.3943  1.2626
  805MOL0     H11030   7.702   4.725   9.343 -1.1975 -0.0445  0.7269
  805MOL0     H11031   7.617   5.015   9.361 -2.2875  0.3122  2.1852
  805MOL0     H11032   7.712   4.934   9.489  1.3375 -1.3018 -0.8483
  805MOL0     H11033   7.448   4.840   9.358 -1.2296 -1.2263  1.4274
  805MOL0     H11034   7.527   4.773   9.500  0.9609  0.6304 -0.1107
  805MOL0     H11035   7.413   5.062   9.486 -0.5273  0.3778  1.3747
  805MOL0     H11036   7.528   5.011   9.609  0.8908  0.6574 -0.6314
  805MOL0     H11037   7.272   4.850   9.569 -0.0993  1.2042  0.2851
  805MOL0     H11038   7.382   4.833   9.696  0.0057 -1.4258 -1.9058
  805MOL0     H11039   7.100   5.062   9.559  1.4453  1.4172 -0.6925
  805MOL0     H11040   6.878   5.120   9.847 -2.3046  1.5261 -0.3147
  805MOL0     H11041   6.874   5.137   9.674  0.9155 -0.7290 -1.3143
  805MOL0     H11042   6.831   5.356   9.780 -1.0159 -0.9237  1.5090
  805MOL0     H11043   6.954   5.331   9.896  2.8239  0.1097 -1.0101
  805MOL0     H11044   7.016   5.500   9.731 -1.8282  0.4668  0.8710
  805MOL0     H11045   7.130   5.363   9.702  0.8281  3.4504  0.5799
  805MOL0     H11046   6.874   5.428   9.545 -0.7039 -0.4197 -1.4063
  805MOL0     H11047   7.033   5.485   9.504 -0.8150  1.1299  1.3116
  805MOL0     H11048   7.009   5.097   9.329  1.4781 -0.0191 -0.6953
  805MOL0     H11049   7.171   5.004   9.059  1.1850  1.3170 -0.1037
  805MOL0     H11050   7.084   4.930   9.190 -1.1782  1.5512 -2.4182
  805MOL0     H11051   7.263   4.904   9.185 -1.9212 -0.2407  4.0748
  805MOL0     H11052   7.670   5.032   9.022  1.0639 -0.5199  1.9821
  805MOL0     H11053   7.852   5.065   8.853  0.5912  1.0901 -0.5056
  805MOL0     H11054   8.060   5.160   8.970  2.4384  0.2297 -0.2330
  805MOL0     H11055   8.088   5.080   8.818 -0.0881 -0.6401  0.0944
  805MOL0     H11056   8.258   5.235   8.768 -2.5410  0.8915 -2.3919
  805MOL0     H11057   8.176   5.359   8.879 -2.8276 -1.0080 -1.9532
  805MOL0     H11058   8.284   5.097   8.946 -0.5239 -0.3075 -1.1204
  805MOL0     H11059   8.277   5.225   9.073 -1.1742  1.4639 -0.7247
  805MOL0     H11060   8.441   5.358   8.948 -0.4514 -0.7405  1.3153
  805MOL0     H11061   8.460   5.226   8.832 -1.8349 -1.4350 -0.6636
  805MOL0     H11062   8.517   5.198   9.134 -0.3340 -0.2148  0.4586
  805MOL0     H11063   8.558   5.079   9.013  3.3480  0.8066  0.6859
  805MOL0     H11064   8.688   5.351   9.004  1.9759 -0.8677  2.1432
  805MOL0     H11065   8.711   5.203   8.905 -0.2528 -2.0882 -0.4750
  805MOL0     H11066   8.827   5.102   9.068 -0.1833 -0.9320  0.6316
  805MOL0     H11067   8.725   5.156   9.200  1.2762 -0.0353  0.2786
  805MOL0     H11068   8.923   5.344   9.082 -0.0418  2.3537  1.0922
  805MOL0     H11069   8.939   5.232   9.229  1.7879 -1.0326 -2.2898
  805MOL0     H11070   7.847   5.479   8.900  0.4596 -0.1118  0.5441
  805MOL0     H11071   7.650   5.461   9.058 -2.4320 -0.8813 -1.2546
  805MOL0     H11072   7.430   5.356   9.326 -1.5480  1.2550  0.8923
  805MOL0     H11073   7.261   5.426   9.457  1.9253 -0.8813  0.7715
  805MOL0     H11074   8.283   4.536   8.979 -0.6361  0.7316  0.0671
  805MOL0     H11075   8.512   4.512   8.982 -2.5398 -1.1870  1.1803
  805MOL0     H11076   8.865   4.574   8.924 -0.7265  1.1298  0.6756
  805MOL0     H11077   9.096   4.505   8.856 -0.3054 -0.0332 -0.7160
  805MOL0     H11078   9.465   4.563   8.834  0.5536  0.5902 -2.7171
  805MOL0     H11079   9.303   4.469   8.847 -2.2467  0.9676 -0.8200
  805MOL0     H11080   9.358   4.719   8.686  0.2272 -1.0129  3.6652
  805MOL0     H11081   9.200   4.639   8.690  0.3300 -0.4429 -2.0132
  805MOL0     H11082   9.460   4.506   8.593  0.1439 -0.9337 -1.8554
  805MOL0     H11083   9.298   4.442   8.582 -1.4742  0.5462  0.0341
  805MOL0     H11084   9.405   4.537   8.388  2.8716  0.0015  2.8526
  805MOL0     H11085   9.373   4.703   8.450 -0.0588  0.6034  1.6391
  805MOL0     H11086   8.998   4.670   8.300  2.7580  1.8016 -0.6750
  805MOL0     H11087   9.254   4.830   9.075 -0.6786  1.5229 -0.1565
  805MOL0     H11088   9.141   4.967   9.208 -0.8745  0.9933  2.6472
  805MOL0     H11089   8.977   5.000   9.184  0.5378 -1.6030 -0.2018
  805MOL0     H11090   9.023   4.868   9.298 -0.4756 -2.9692 -0.8099
  806MOL0     O11091   7.337  10.407   7.718 -0.8230  0.0389  0.0523
  806MOL0     C11092   7.393  10.376   7.611 -1.0688 -0.2482  0.4390
  806MOL0     O11093   7.510  10.429   7.567  0.0981  0.2334  0.2466
  806MOL0     C11094   7.565  10.534   7.630  1.3589 -0.1107 -0.8967
  806MOL0     C11095   7.550  10.664   7.583 -0.7026  0.2570 -0.6703
  806MOL0     C11096   7.622  10.772   7.633  0.8314 -0.5890  0.6784
  806MOL0     C11097   7.716  10.744   7.731 -0.4749  0.0165 -0.0531
  806MOL0     O11098   7.780  10.856   7.774 -0.0062  0.0527  0.6216
  806MOL0     C11099   7.768  10.887   7.914 -0.1462 -0.2626 -0.4805
  806MOL0     C11100   7.903  10.902   7.981 -0.4621 -0.2599 -0.1782
  806MOL0     C11101   7.978  10.767   8.008  0.1892 -0.1284  0.1507
  806MOL0     C11102   7.915  10.691   8.122 -0.5227 -0.8449  0.5230
  806MOL0     C11103   8.017  10.597   8.187  0.0294  0.0519  0.9193
  806MOL0     C11104   8.063  10.497   8.079  0.1234  0.1653  0.6062
  806MOL0     C11105   8.165  10.396   8.125  0.0452  0.1661 -0.1446
  806MOL0     C11106   8.234  10.313   8.008 -0.3800  0.4461  0.2764
  806MOL0     N11107   8.145  10.210   7.948  0.0191  0.1859  0.1560
  806MOL0     C11108   8.074  10.105   8.009 -0.6958  0.7136 -0.5623
  806MOL0     C11109   8.009  10.048   7.914 -0.3947 -0.5039  0.4634
  806MOL0     C11110   7.932   9.919   7.924  0.4103 -0.1458 -0.1070
  806MOL0     C11111   7.790   9.939   7.872 -0.5678 -0.7646 -1.0010
  806MOL0     C11112   7.717  10.073   7.936 -0.1647 -0.0142  0.5308
  806MOL0     C11113   7.572  10.075   7.909  0.3057  0.3225 -0.8238
  806MOL0     O11114   7.501   9.949   7.920 -0.3052 -0.0197  0.4884
  806MOL0     C11115   7.364   9.949   7.892 -0.1695 -0.4321 -0.3415
  806MOL0     C11116   7.299   9.836   7.932  0.5524  0.2185 -0.4894
  806MOL0     C11117   7.162   9.819   7.922 -0.3142 -1.0726  0.1446
  806MOL0     C11118   7.111   9.691   7.980 -0.5032 -0.0883 -0.6611
  806MOL0     C11119   7.085   9.923   7.868  0.8053  0.2715  0.0195
  806MOL0     C11120   6.939   9.925   7.830  0.2509 -0.8595  0.0736
  806MOL0     O11121   6.910  10.012   7.727 -0.8528  0.3473  0.0370
  806MOL0     C11122   6.788   9.995   7.674  0.8819  0.4466  0.9365
  806MOL0     C11123   6.779   9.952   7.539  0.1103 -0.1760  0.4025
  806MOL0     C11124   6.662   9.927   7.471 -0.5009 -0.7173  0.5245
  806MOL0     C11125   6.539   9.947   7.531 -1.0840  0.0005  0.6870
  806MOL0     O11126   6.420   9.945   7.475  0.1197 -0.2207  0.0060
  806MOL0     C11127   6.396   9.886   7.351 -0.1785 -0.7889 -0.2435
  806MOL0     C11128   6.249   9.842   7.343 -0.0959 -0.6325 -0.4158
  806MOL0     C11129   6.229   9.784   7.206  0.2575 -0.2027  0.2677
  806MOL0     C11130   6.125   9.665   7.207 -1.3340  0.5001 -0.8078
  806MOL0     C11131   6.078   9.633   7.061 -0.5222  0.1904  0.2023
  806MOL0     C11132   6.183   9.574   6.965  0.4886 -0.2632  0.2422
  806MOL0     C11133   6.121   9.553   6.820  0.5405  0.3799  0.5325
  806MOL0     C11134   6.066   9.420   6.778  0.9583 -0.9542 -0.4052
  806MOL0    Cl11135   6.170   9.266   6.792  0.1611  0.1315  0.3332
  806MOL0     C11136   6.541   9.969   7.671 -0.4777  0.1313 -0.7368
  806MOL0     C11137   6.663   9.997   7.746 -0.1166  0.2346 -0.0974
  806MOL0     O11138   6.860   9.853   7.895  0.0051 -0.0067 -0.3778
  806MOL0     C11139   7.156  10.040   7.832 -0.0711 -0.5294  0.7588
  806MOL0     C11140   7.294  10.052   7.832  0.4800 -0.2262 -1.9221
  806MOL0     N11141   8.025  10.122   7.797 -0.3802  0.4040 -0.5599
  806MOL0     N11142   8.108  10.220   7.810 -0.3752  0.0743 -0.2148
  806MOL0     C11143   7.720  10.620   7.800  0.1750 -0.0742 -0.1471
  806MOL0     C11144   7.645  10.509   7.749  0.2745 -0.1751  0.0388
  806MOL0     C11145   7.349  10.274   7.517  0.1561  0.7431  0.5627
  806MOL0     C11146   7.453  10.208   7.449 -1.2958 -0.5183 -0.2359
  806MOL0     C11147   7.424  10.092   7.370 -0.1499  0.2856  0.0377
  806MOL0     C11148   7.297  10.043   7.347  0.0163 -0.3178  0.2285
  806MOL0     O11149   7.269   9.924   7.286 -0.0459  0.0832  1.3168
  806MOL0     C11150   7.367   9.858   7.196 -0.4184 -0.2914 -0.0945
  806MOL0     C11151   7.309   9.732   7.131  0.1648  0.6977  0.1009
  806MOL0     C11152   7.184   9.771   7.045  0.0627  0.2558  0.1849
  806MOL0     C11153   7.166   9.670   6.927  0.1791 -0.4973 -0.2618
  806MOL0     C11154   7.273   9.697   6.824 -0.3156 -0.7441 -0.3218
  806MOL0     C11155   7.370   9.705   6.743  0.1238  0.2066 -0.5863
  806MOL0     C11156   7.197  10.118   7.404  0.7405 -0.6396 -0.4713
  806MOL0     C11157   7.214  10.236   7.484 -1.1053  0.2058 -0.3910
  806MOL0     C11158   7.093  10.318   7.531 -0.5211  0.4439 -0.3772
  806MOL0     H11159   7.476  10.676   7.504  0.5930  0.8568 -1.8261
  806MOL0     H11160   7.605  10.872   7.596  0.7976 -1.1956 -1.0518
  806MOL0     H11161   7.702  10.821   7.970  0.2544  0.0705  0.4074
  806MOL0     H11162   7.715  10.982   7.917 -0.2179 -0.2839 -0.9551
  806MOL0     H11163   7.972  10.962   7.920  0.1797  0.2471  0.9990
  806MOL0     H11164   7.891  10.957   8.075 -0.1398  1.2124 -0.9611
  806MOL0     H11165   7.977  10.716   7.911 -3.9628  2.7117 -1.6100
  806MOL0     H11166   8.085  10.777   8.025  0.2028 -2.3424  1.6484
  806MOL0     H11167   7.877  10.762   8.196 -1.9598 -0.7921 -0.2391
  806MOL0     H11168   7.824  10.637   8.096 -0.9034  1.6540 -4.4036
  806MOL0     H11169   7.961  10.540   8.262 -0.0733  0.8485  1.4637
  806MOL0     H11170   8.102  10.650   8.232 -1.5302  3.5057  0.1751
  806MOL0     H11171   7.975  10.446   8.038  0.8928 -0.2383 -0.6023
  806MOL0     H11172   8.107  10.552   7.995 -2.8362 -0.4139 -1.4922
  806MOL0     H11173   8.125  10.318   8.190  1.0812 -1.1722 -1.0571
  806MOL0     H11174   8.247  10.450   8.174  0.1397  1.6982 -1.8755
  806MOL0     H11175   8.266  10.382   7.929  0.8635 -2.2784 -1.7543
  806MOL0     H11176   8.323  10.268   8.052 -0.4162  0.4118  0.3159
  806MOL0     H11177   8.092  10.058   8.105 -0.8042  0.9544 -0.4228
  806MOL0     H11178   7.929   9.886   8.028 -2.5646 -0.3550 -0.1974
  806MOL0     H11179   7.975   9.834   7.870 -1.2157 -0.2424 -1.3290
  806MOL0     H11180   7.800   9.952   7.763  1.3007 -0.0309 -0.7795
  806MOL0     H11181   7.735   9.845   7.884  1.3277 -2.0502 -1.8402
  806MOL0     H11182   7.738  10.081   8.043 -1.6518  2.6894  0.7256
  806MOL0     H11183   7.753  10.159   7.879 -2.6304  0.2329 -0.8186
  806MOL0     H11184   7.520  10.147   7.973 -0.2381  0.1520 -1.0657
  806MOL0     H11185   7.554  10.120   7.811 -0.4693 -2.7309 -2.1999
  806MOL0     H11186   7.347   9.762   7.995  2.5515  0.0250 -2.1518
  806MOL0     H11187   7.169   9.604   7.949  0.2241 -0.3892  1.3725
  806MOL0     H11188   7.009   9.665   7.951  0.4843 -2.0753 -2.6301
  806MOL0     H11189   7.124   9.687   8.089 -1.0198 -1.8833 -0.6470
  806MOL0     H11190   6.865   9.963   7.473  1.4678 -0.8590  1.9873
  806MOL0     H11191   6.669   9.903   7.365  2.1197  1.9272 -0.0300
  806MOL0     H11192   6.420   9.957   7.271 -0.4078 -0.8353 -0.3532
  806MOL0     H11193   6.454   9.794   7.337 -1.3609 -1.2991 -2.2179
  806MOL0     H11194   6.234   9.769   7.424  3.0654 -1.9096 -0.8136
  806MOL0     H11195   6.183   9.927   7.363 -1.4586 -1.6453 -0.4454
  806MOL0     H11196   6.324   9.745   7.169  0.1028  0.5826 -0.9864
  806MOL0     H11197   6.200   9.864   7.137  1.6073 -0.7271 -0.9536
  806MOL0     H11198   6.043   9.689   7.276 -0.2768 -1.7457  1.4085
  806MOL0     H11199   6.182   9.580   7.246  1.5539  2.2417 -0.9941
  806MOL0     H11200   5.993   9.565   7.071  0.4506 -1.2291 -0.8188
  806MOL0     H11201   6.047   9.734   7.032  3.1203  2.2636  2.6726
  806MOL0     H11202   6.216   9.482   7.013  0.9407 -0.1480  0.1561
  806MOL0     H11203   6.265   9.645   6.949 -0.4759  1.2548  1.6745
  806MOL0     H11204   6.200   9.565   6.745  2.9492  0.5309  2.9763
  806MOL0     H11205   6.049   9.635   6.815 -0.0068 -0.0579  1.0420
  806MOL0     H11206   6.040   9.424   6.672  1.7494 -1.1796 -0.6195
  806MOL0     H11207   5.970   9.411   6.830  0.6941  1.7592 -0.2980
  806MOL0     H11208   6.439   9.981   7.706 -0.2132  0.4514 -0.0435
  806MOL0     H11209   6.655  10.032   7.848 -1.1629 -0.9040  0.2246
  806MOL0     H11210   7.112  10.128   7.787  5.1669  1.7514 -0.7491
  806MOL0     H11211   7.340  10.139   7.787  0.8645 -0.3827 -1.8331
  806MOL0     H11212   7.787  10.610   7.885  2.7238  2.3001 -1.7177
  806MOL0     H11213   7.652  10.404   7.775 -4.3259 -0.5940  0.3848
  806MOL0     H11214   7.555  10.233   7.473 -2.0240  1.3970  1.1251
  806MOL0     H11215   7.511  10.038   7.335 -0.5553 -0.5039  0.2236
  806MOL0     H11216   7.400   9.922   7.114 -0.1233 -1.1357 -0.6461
  806MOL0     H11217   7.462   9.831   7.244  1.6642 -0.1176 -3.7339
  806MOL0     H11218   7.286   9.652   7.203  0.4224 -0.4532 -1.0625
  806MOL0     H11219   7.386   9.713   7.055 -1.7734  2.0440 -2.3380
  806MOL0     H11220   7.094   9.768   7.108  0.8913 -1.7163  1.3870
  806MOL0     H11221   7.202   9.871   7.005  0.6443  0.4874  0.9937
  806MOL0     H11222   7.065   9.683   6.886 -0.2626 -0.4273  0.8095
  806MOL0     H11223   7.172   9.564   6.953 -2.9402 -0.7256 -0.0877
  806MOL0     H11224   7.466   9.713   6.698 -0.8390  1.9572 -2.4628
  806MOL0     H11225   7.095  10.085   7.388  0.3885  0.4768 -0.6172
  806MOL0     H11226   7.071  10.327   7.637  0.7375  0.1710 -0.0780
  806MOL0     H11227   7.124  10.417   7.496  2.2099 -1.0398 -2.5480
  806MOL0     H11228   6.999  10.288   7.482  0.4374 -3.7553 -0.0426
  807MOL0     O11229  10.334   2.460   1.813  0.6639 -0.8055 -0.8667
  807MOL0     C11230  10.217   2.475   1.773  0.4355  0.3830  0.2256
  807MOL0     O11231  10.164   2.592   1.728  0.4372  0.3920  0.7133
  807MOL0     C11232  10.248   2.702   1.704 -0.6866  0.2743  0.0607
  807MOL0     C11233  10.264   2.755   1.575  0.6564  0.7367 -0.2523
  807MOL0     C11234  10.342   2.870   1.557 -0.8481 -0.4808 -0.5487
  807MOL0     C11235  10.402   2.934   1.657 -0.2317 -1.1414 -0.7268
  807MOL0     O11236  10.496   3.030   1.632 -0.4713  0.1151 -0.3399
  807MOL0     C11237  10.473   3.167   1.653 -0.6911 -0.8814 -0.1857
  807MOL0     C11238  10.512   3.233   1.784 -0.3989  0.4746 -0.8794
  807MOL0     C11239  10.664   3.239   1.811  0.4052 -0.0521  0.6380
  807MOL0     C11240  10.735   3.363   1.743 -0.6006 -0.0621 -0.7122
  807MOL0     C11241  10.702   3.499   1.825  0.3926  1.0482 -0.3934
  807MOL0     C11242  10.727   3.610   1.727 -0.5180 -0.2791 -0.5314
  807MOL0     C11243  10.745   3.744   1.808 -0.3673  0.0320 -0.6066
  807MOL0     C11244  10.778   3.857   1.716 -0.7217  1.0261  0.4708
  807MOL0     N11245  10.781   3.975   1.796 -0.6194 -0.3802  0.2497
  807MOL0     C11246  10.671   4.050   1.814  1.2119 -0.7420  0.9019
  807MOL0     C11247  10.713   4.164   1.882 -0.0008  0.4607 -0.9436
  807MOL0     C11248  10.626   4.276   1.932 -0.1770  0.2356 -0.3443
  807MOL0     C11249  10.483   4.234   1.961  0.1635  0.2523 -0.0093
  807MOL0     C11250  10.394   4.343   2.005 -0.4602 -1.3901 -0.0179
  807MOL0     C11251  10.266   4.298   2.078  0.6505  0.7281  0.1262
  807MOL0     O11252  10.179   4.204   2.006 -0.1753 -0.4908 -0.3505
  807MOL0     C11253  10.067   4.150   2.056 -0.0195  0.2526  0.4066
  807MOL0     C11254   9.986   4.091   1.959  0.2720 -0.5679  0.7527
  807MOL0     C11255   9.866   4.028   1.986 -0.2732  0.8456  0.2682
  807MOL0     C11256   9.787   3.976   1.874  0.6920 -0.2813  0.1146
  807MOL0     C11257   9.820   4.021   2.124  0.5129  0.0152 -0.4668
  807MOL0     C11258   9.687   3.976   2.170  0.3660 -0.6156 -0.1662
  807MOL0     O11259   9.611   3.888   2.096  0.8026 -0.0536  0.4345
  807MOL0     C11260   9.480   3.866   2.126 -0.7664 -0.3917  0.3689
  807MOL0     C11261   9.421   3.739   2.093 -0.6879  0.0839 -1.1546
  807MOL0     C11262   9.296   3.706   2.134 -0.8605 -1.0177  0.0047
  807MOL0     C11263   9.213   3.798   2.188 -0.0432 -0.0206  0.0612
  807MOL0     O11264   9.081   3.775   2.217 -0.7917 -0.3977  0.4836
  807MOL0     C11265   9.048   3.640   2.255 -0.7721 -0.7387 -0.2310
  807MOL0     C11266   8.896   3.632   2.239  0.3677 -0.5985 -0.6707
  807MOL0     C11267   8.828   3.672   2.365 -0.3005  0.5183  0.4967
  807MOL0     C11268   8.677   3.653   2.360 -0.2704  0.5896 -0.6710
  807MOL0     C11269   8.613   3.699   2.492 -0.6231 -0.5297  0.1048
  807MOL0     C11270   8.460   3.676   2.489  0.0526 -0.1987 -0.3581
  807MOL0     C11271   8.382   3.754   2.601 -0.3395  1.6198  0.0722
  807MOL0     C11272   8.237   3.704   2.619 -0.0267 -0.2787  0.7126
  807MOL0    Cl11273   8.153   3.726   2.453  0.7501  0.0136 -0.0206
  807MOL0     C11274   9.266   3.927   2.215  0.5095  0.0401 -0.1702
  807MOL0     C11275   9.392   3.954   2.182 -1.0349 -0.5505 -0.3123
  807MOL0     O11276   9.657   4.021   2.276  0.0290  0.3290  0.4719
  807MOL0     C11277   9.909   4.088   2.218 -0.6275  0.1740 -0.6262
  807MOL0     C11278  10.030   4.143   2.192 -0.9612 -0.3482  0.0156
  807MOL0     N11279  10.856   4.142   1.911  0.1919 -0.6353 -0.5123
  807MOL0     N11280  10.895   4.032   1.864  0.2830  0.4653  0.4809
  807MOL0     C11281  10.387   2.889   1.780  0.7612 -0.4536 -1.0563
  807MOL0     C11282  10.309   2.770   1.805  0.5889 -0.0635  0.2902
  807MOL0     C11283  10.116   2.365   1.775  0.0778 -0.3414  0.5886
  807MOL0     C11284   9.980   2.396   1.753 -0.2730  0.0375  0.0845
  807MOL0     C11285   9.877   2.297   1.741 -0.2785 -0.0304 -0.5066
  807MOL0     C11286   9.914   2.166   1.752  0.4087 -0.5193  0.7866
  807MOL0     O11287   9.829   2.057   1.741 -0.7072  0.9557  0.3541
  807MOL0     C11288   9.692   2.076   1.691  0.4723 -0.0484  0.9115
  807MOL0     C11289   9.694   2.095   1.534 -0.3533  0.2653  0.0624
  807MOL0     C11290   9.820   2.029   1.453  0.0882 -0.4912  0.7394
  807MOL0     C11291   9.796   1.888   1.404 -0.5669  0.5374 -0.5221
  807MOL0     C11292   9.899   1.828   1.315 -0.2730 -0.1465  0.2240
  807MOL0     C11293   9.978   1.777   1.241  0.6264  0.6595  0.5276
  807MOL0     C11294  10.046   2.134   1.776 -0.0592  0.6685 -0.3051
  807MOL0     C11295  10.154   2.224   1.779 -0.1934  0.9635  0.1667
  807MOL0     C11296  10.295   2.171   1.785  0.2271  0.2433 -0.9338
  807MOL0     H11297  10.234   2.697   1.488  2.2535 -0.3328 -0.1480
  807MOL0     H11298  10.369   2.893   1.454 -0.8059 -1.2334 -0.7122
  807MOL0     H11299  10.368   3.196   1.636 -0.1409  0.5918 -1.2758
  807MOL0     H11300  10.525   3.220   1.573 -2.4010  2.8715  0.9317
  807MOL0     H11301  10.471   3.333   1.803  0.9509  0.5463  2.2926
  807MOL0     H11302  10.470   3.172   1.864  1.5155  0.4438  0.1600
  807MOL0     H11303  10.685   3.250   1.918 -1.7665  1.0346  0.9979
  807MOL0     H11304  10.711   3.144   1.782  0.0574  0.3202 -1.2633
  807MOL0     H11305  10.844   3.353   1.748 -0.8208 -2.7905  0.1376
  807MOL0     H11306  10.699   3.378   1.641  1.6191  4.4893 -1.0910
  807MOL0     H11307  10.758   3.523   1.917  0.3840  0.4466 -0.2256
  807MOL0     H11308  10.598   3.496   1.859  0.0850 -0.1677 -1.3821
  807MOL0     H11309  10.816   3.593   1.666  1.2476 -3.3750  2.5929
  807MOL0     H11310  10.642   3.625   1.660  1.0231  2.7050 -2.0272
  807MOL0     H11311  10.813   3.736   1.894  1.8977  1.1842 -2.2016
  807MOL0     H11312  10.646   3.769   1.848 -0.9113 -3.9408  1.1021
  807MOL0     H11313  10.874   3.845   1.665 -0.4689  2.1084  0.6595
  807MOL0     H11314  10.700   3.865   1.641 -1.5922 -2.2189  0.8946
  807MOL0     H11315  10.576   4.030   1.766  1.9003 -1.8741 -0.0406
  807MOL0     H11316  10.626   4.359   1.861  1.3909 -1.9072 -3.0200
  807MOL0     H11317  10.668   4.304   2.029 -0.1671 -3.5234  0.9218
  807MOL0     H11318  10.433   4.182   1.878  0.4111 -0.6059  0.3673
  807MOL0     H11319  10.491   4.177   2.053  2.0245  1.3715  0.5821
  807MOL0     H11320  10.445   4.409   2.076 -0.1858 -1.0366 -0.5313
  807MOL0     H11321  10.368   4.405   1.918 -0.0078 -0.9373  0.1613
  807MOL0     H11322  10.307   4.261   2.172  1.5419  3.6637  0.9978
  807MOL0     H11323  10.202   4.386   2.090  0.1078  0.8158 -2.6521
  807MOL0     H11324   9.993   4.110   1.852 -1.5327  0.7752  0.8140
  807MOL0     H11325   9.780   3.867   1.883  2.7210 -0.3243  2.1595
  807MOL0     H11326   9.822   4.001   1.773 -1.3484  0.7342 -0.3856
  807MOL0     H11327   9.693   4.030   1.886 -1.6841 -4.3566  1.9333
  807MOL0     H11328   9.493   3.669   2.054  0.5118  1.5888 -1.7611
  807MOL0     H11329   9.269   3.604   2.107 -1.1738 -0.6947 -0.9482
  807MOL0     H11330   9.093   3.566   2.187 -0.4083 -0.2645 -0.5186
  807MOL0     H11331   9.080   3.623   2.358 -0.6535 -2.6685 -0.5559
  807MOL0     H11332   8.860   3.696   2.159 -4.4874 -1.5486  0.4434
  807MOL0     H11333   8.858   3.531   2.220 -0.1928 -1.4611  3.8901
  807MOL0     H11334   8.855   3.777   2.375  0.1914  0.7069 -2.0868
  807MOL0     H11335   8.872   3.618   2.449 -0.4169  1.4396  1.1612
  807MOL0     H11336   8.648   3.550   2.339 -0.1907 -0.4033  3.2796
  807MOL0     H11337   8.640   3.714   2.277 -0.8786  0.7932 -0.2563
  807MOL0     H11338   8.654   3.647   2.579 -2.9114  1.5681  2.6005
  807MOL0     H11339   8.627   3.808   2.497  1.9856 -0.8487  4.0018
  807MOL0     H11340   8.437   3.569   2.498 -0.0473 -0.1492 -0.0350
  807MOL0     H11341   8.411   3.702   2.394 -0.2657  0.1454 -0.1002
  807MOL0     H11342   8.385   3.863   2.596 -0.2017  1.7286  1.9005
  807MOL0     H11343   8.425   3.735   2.700 -0.8414  2.2134  0.4092
  807MOL0     H11344   8.186   3.757   2.700  1.0528  1.8317  0.0745
  807MOL0     H11345   8.228   3.598   2.645 -1.2071 -0.7508 -1.3960
  807MOL0     H11346   9.207   4.008   2.255  2.1478  2.2548 -1.9797
  807MOL0     H11347   9.418   4.057   2.205 -1.0005 -0.6756  0.2254
  807MOL0     H11348   9.885   4.100   2.323  1.3347 -2.3805  0.2157
  807MOL0     H11349  10.095   4.178   2.272  0.3425 -0.5111 -0.9482
  807MOL0     H11350  10.438   2.943   1.859 -2.0267 -0.3378  0.8336
  807MOL0     H11351  10.281   2.745   1.907 -0.6038 -1.3898 -0.3425
  807MOL0     H11352   9.958   2.501   1.737  1.6683  0.5016  0.1725
  807MOL0     H11353   9.773   2.326   1.732 -0.0157  0.7744 -1.1028
  807MOL0     H11354   9.636   1.986   1.717  0.8316  0.0083  1.9260
  807MOL0     H11355   9.629   2.157   1.728 -1.4287 -1.4335  0.8195
  807MOL0     H11356   9.696   2.204   1.532 -0.6491  0.5983  5.0321
  807MOL0     H11357   9.596   2.062   1.499  0.8296 -3.5074 -0.1327
  807MOL0     H11358   9.840   2.106   1.377  2.0519  0.1539  1.8394
  807MOL0     H11359   9.908   2.020   1.517  0.9357 -1.0965 -0.4850
  807MOL0     H11360   9.696   1.890   1.358 -1.4368 -0.7398  1.2004
  807MOL0     H11361   9.784   1.822   1.491  2.8590 -1.3948 -1.3301
  807MOL0     H11362  10.045   1.742   1.166  1.7053  2.5918  0.5154
  807MOL0     H11363  10.062   2.027   1.783  2.6145  1.0567  1.0131
  807MOL0     H11364  10.296   2.064   1.763  0.3310 -0.5199  2.2317
  807MOL0     H11365  10.367   2.227   1.725  1.8026 -2.2083 -1.4808
  807MOL0     H11366  10.329   2.181   1.889 -1.2370  1.0812 -0.5149
  808MOL0     O11367   1.715   7.696   2.871 -0.4281  0.1379 -0.4364
  808MOL0     C11368   1.616   7.760   2.877  0.2557  0.6541  0.0215
  808MOL0     O11369   1.575   7.834   2.985 -0.0294 -0.7978 -0.2167
  808MOL0     C11370   1.657   7.847   3.096 -0.3415 -0.5461 -0.6648
  808MOL0     C11371   1.652   7.752   3.198  0.1763  0.0089  0.4747
  808MOL0     C11372   1.723   7.768   3.313  0.0949  0.3026  0.5516
  808MOL0     C11373   1.796   7.891   3.331  0.6719 -0.0836 -0.2299
  808MOL0     O11374   1.862   7.921   3.446 -0.6115 -0.6817  0.0508
  808MOL0     C11375   1.924   7.820   3.526 -0.2224 -0.0075 -1.0100
  808MOL0     C11376   1.987   7.897   3.636 -0.0140 -0.8637  0.1328
  808MOL0     C11377   2.069   7.817   3.736  0.1356 -0.6358  0.1136
  808MOL0     C11378   2.168   7.711   3.681 -0.2940  0.5472  0.3179
  808MOL0     C11379   2.286   7.778   3.593  0.0776  0.6646 -0.0092
  808MOL0     C11380   2.392   7.846   3.685  0.4320 -0.5658 -0.2561
  808MOL0     C11381   2.512   7.904   3.609 -0.5145 -0.2236 -1.1560
  808MOL0     C11382   2.611   7.979   3.702  0.2562 -0.3649 -0.3953
  808MOL0     N11383   2.707   7.885   3.760  0.2162  0.4949  0.2132
  808MOL0     C11384   2.827   7.841   3.702 -0.0935  0.1346  0.6838
  808MOL0     C11385   2.896   7.751   3.780  0.1122 -0.4857  0.0397
  808MOL0     C11386   3.010   7.671   3.733 -0.5651  0.0443  0.5533
  808MOL0     C11387   3.152   7.705   3.794  0.0007 -0.4504 -0.2019
  808MOL0     C11388   3.247   7.585   3.799 -0.5047  0.4396 -0.0896
  808MOL0     C11389   3.394   7.627   3.803 -0.8225  0.1420  0.0557
  808MOL0     O11390   3.488   7.513   3.812 -0.2311  0.3293  0.1507
  808MOL0     C11391   3.620   7.539   3.838 -0.1894  0.1215 -1.1979
  808MOL0     C11392   3.697   7.429   3.872  0.3117 -0.8536 -1.0754
  808MOL0     C11393   3.832   7.438   3.887  0.7960 -0.1722  0.1772
  808MOL0     C11394   3.907   7.309   3.897 -0.5443 -0.9540 -0.3851
  808MOL0     C11395   3.891   7.571   3.891 -0.3627 -0.5444 -0.4032
  808MOL0     C11396   4.037   7.600   3.931  0.2059  0.0821  0.8238
  808MOL0     O11397   4.123   7.495   3.937 -0.5281  0.1820  0.1496
  808MOL0     C11398   4.246   7.520   3.978 -0.4694  0.4531 -0.4013
  808MOL0     C11399   4.350   7.575   3.897  0.9406 -0.5736 -1.1594
  808MOL0     C11400   4.482   7.601   3.953  0.7296  0.8106  0.5761
  808MOL0     C11401   4.498   7.591   4.090  0.5951  0.0449 -0.3751
  808MOL0     O11402   4.617   7.617   4.160  0.1553  0.6753  0.2474
  808MOL0     C11403   4.618   7.735   4.241 -0.4272 -0.0978  0.0236
  808MOL0     C11404   4.724   7.724   4.350 -1.1334 -0.8650  0.2371
  808MOL0     C11405   4.678   7.610   4.439 -0.6296  0.4572  0.5300
  808MOL0     C11406   4.775   7.602   4.552 -0.3423 -0.4409  0.4178
  808MOL0     C11407   4.717   7.503   4.660  1.7973 -0.2761 -0.7361
  808MOL0     C11408   4.819   7.481   4.775 -0.4769 -0.1820  0.0800
  808MOL0     C11409   4.828   7.597   4.870 -0.9912  0.8935  0.6618
  808MOL0     C11410   4.939   7.570   4.980  0.4814 -0.1464  0.3916
  808MOL0    Cl11411   5.092   7.589   4.886  0.1499  0.4765  0.0151
  808MOL0     C11412   4.390   7.550   4.168 -0.3906 -0.6038 -0.3969
  808MOL0     C11413   4.271   7.505   4.114  0.6559 -0.1706  0.4511
  808MOL0     O11414   4.063   7.710   3.974 -0.3322 -0.3174  0.3087
  808MOL0     C11415   3.811   7.678   3.871  0.6031 -0.8871  0.1826
  808MOL0     C11416   3.682   7.664   3.837 -0.2452 -0.1134  0.6696
  808MOL0     N11417   2.821   7.741   3.896  0.2080 -0.1560 -0.2808
  808MOL0     N11418   2.707   7.821   3.878  0.1877  0.3773 -0.6282
  808MOL0     C11419   1.804   7.976   3.223  0.8703  0.5682  0.3114
  808MOL0     C11420   1.731   7.962   3.113 -0.6519 -0.5032  0.1075
  808MOL0     C11421   1.521   7.746   2.760  0.3219  0.0266 -0.8544
  808MOL0     C11422   1.392   7.772   2.786 -0.7354 -0.0942 -0.2197
  808MOL0     C11423   1.289   7.771   2.691 -0.7430 -0.0855 -1.0077
  808MOL0     C11424   1.320   7.722   2.563 -0.1434 -0.1815 -0.1598
  808MOL0     O11425   1.234   7.728   2.460  0.4946 -0.2432  0.4943
  808MOL0     C11426   1.090   7.713   2.472  0.1394 -0.1223 -0.1294
  808MOL0     C11427   1.021   7.839   2.497  0.0684  0.1979 -0.7470
  808MOL0     C11428   0.872   7.839   2.503  1.2339 -0.5579  0.2822
  808MOL0     C11429   0.797   7.728   2.581  0.2728 -0.1900 -0.5077
  808MOL0     C11430   0.851   7.708   2.718  0.3830 -0.6659  0.1874
  808MOL0     C11431   0.896   7.718   2.835  0.6098 -0.1541 -0.4403
  808MOL0     C11432   1.456   7.683   2.536  0.4933 -0.4592 -0.3190
  808MOL0     C11433   1.556   7.696   2.634  0.4563 -0.4540  0.3430
  808MOL0     C11434   1.701   7.685   2.595 -1.7868 -0.0060  0.6505
  808MOL0     H11435   1.582   7.670   3.201 -0.9794  0.9281 -0.3588
  808MOL0     H11436   1.722   7.690   3.389  2.4532  1.8972  2.3706
  808MOL0     H11437   2.006   7.779   3.466  0.5359 -0.8431  0.5319
  808MOL0     H11438   1.859   7.743   3.566 -1.7446 -0.2156 -3.6431
  808MOL0     H11439   2.052   7.973   3.593  2.4944 -1.7575  2.1276
  808MOL0     H11440   1.903   7.944   3.687 -0.5836 -0.0944 -1.4359
  808MOL0     H11441   2.127   7.883   3.801 -1.0582 -1.8994  2.5886
  808MOL0     H11442   1.997   7.767   3.801 -0.1520 -1.1112 -0.5553
  808MOL0     H11443   2.207   7.647   3.762  2.0960  3.2097  1.4552
  808MOL0     H11444   2.105   7.645   3.622  1.5029 -1.3630  0.4356
  808MOL0     H11445   2.244   7.846   3.519 -2.5077 -0.3052  0.4569
  808MOL0     H11446   2.336   7.700   3.536 -1.4588  0.7429 -1.5428
  808MOL0     H11447   2.331   7.919   3.739 -0.5828 -2.1489  0.8064
  808MOL0     H11448   2.434   7.779   3.761 -0.2587 -0.1180  0.5330
  808MOL0     H11449   2.478   7.982   3.541 -2.8228 -2.3829 -2.6886
  808MOL0     H11450   2.573   7.829   3.557  4.4190  1.1805  1.9001
  808MOL0     H11451   2.660   8.060   3.648 -1.8476  1.3542  0.1499
  808MOL0     H11452   2.558   8.024   3.786  2.6658 -0.4450  1.2496
  808MOL0     H11453   2.848   7.863   3.598  0.7199 -1.8045  0.3809
  808MOL0     H11454   3.005   7.665   3.624 -1.2522 -0.8030  0.6197
  808MOL0     H11455   2.983   7.572   3.771 -0.1055  0.5877  2.3472
  808MOL0     H11456   3.199   7.790   3.745 -0.2411 -0.1146  0.1352
  808MOL0     H11457   3.144   7.725   3.902 -0.5747 -1.0015 -0.1354
  808MOL0     H11458   3.216   7.543   3.895  1.0048  4.1132  2.2281
  808MOL0     H11459   3.233   7.523   3.710  1.2081  0.5593 -0.4653
  808MOL0     H11460   3.424   7.685   3.716 -0.7357 -0.9486 -0.6570
  808MOL0     H11461   3.404   7.703   3.881 -0.6167  1.0767 -0.8642
  808MOL0     H11462   3.651   7.331   3.874  1.9606 -1.6655  1.3984
  808MOL0     H11463   3.846   7.228   3.855  0.6774 -0.4724 -3.3228
  808MOL0     H11464   3.935   7.286   4.000  0.8804  0.9889 -0.2776
  808MOL0     H11465   3.999   7.305   3.838 -0.8727 -0.0389 -0.9794
  808MOL0     H11466   4.332   7.597   3.793  1.7623  3.9572 -0.5498
  808MOL0     H11467   4.562   7.645   3.894 -1.1249  2.2669 -0.9975
  808MOL0     H11468   4.651   7.818   4.178 -2.4275  1.3448  0.7519
  808MOL0     H11469   4.519   7.756   4.284  0.0424  1.5561  0.4044
  808MOL0     H11470   4.823   7.698   4.312 -1.5136 -2.1402  0.0663
  808MOL0     H11471   4.734   7.821   4.399  0.6080 -0.3407 -1.0295
  808MOL0     H11472   4.670   7.516   4.383  2.4696 -0.0110  0.6892
  808MOL0     H11473   4.586   7.645   4.487 -1.9224 -1.4656 -0.4126
  808MOL0     H11474   4.794   7.700   4.597  2.2446 -0.8977  0.5208
  808MOL0     H11475   4.876   7.566   4.528  0.5383  1.4024  1.2186
  808MOL0     H11476   4.626   7.546   4.702  0.8962 -2.8117  0.0953
  808MOL0     H11477   4.689   7.407   4.616  3.0523 -0.1209 -1.9590
  808MOL0     H11478   4.920   7.456   4.741  0.0873  0.3160  1.3499
  808MOL0     H11479   4.770   7.400   4.830 -0.2472 -0.0742  0.4430
  808MOL0     H11480   4.738   7.622   4.926 -0.4843 -0.0880  1.9512
  808MOL0     H11481   4.862   7.687   4.818  2.3534  0.5143  1.9109
  808MOL0     H11482   4.939   7.472   5.028 -0.6977 -2.1234 -3.2638
  808MOL0     H11483   4.926   7.650   5.053 -0.0211  0.0168  0.1271
  808MOL0     H11484   4.416   7.539   4.273  2.7278  0.6710 -0.9369
  808MOL0     H11485   4.199   7.466   4.185  0.7722  1.6164  1.6238
  808MOL0     H11486   3.849   7.780   3.870 -0.4969 -0.3554  2.6343
  808MOL0     H11487   3.626   7.752   3.806  0.9752  0.6701  0.6341
  808MOL0     H11488   1.878   8.055   3.212  2.0327 -0.4142  0.7494
  808MOL0     H11489   1.739   8.028   3.028  0.5632 -1.2744 -0.4019
  808MOL0     H11490   1.360   7.806   2.884  0.2856 -0.6593  0.3177
  808MOL0     H11491   1.191   7.805   2.724  0.4878  2.3797  0.3254
  808MOL0     H11492   1.067   7.669   2.374 -1.7147 -0.2971  0.3529
  808MOL0     H11493   1.077   7.633   2.546  1.8316  0.6178  1.0399
  808MOL0     H11494   1.047   7.915   2.423  1.5974  0.0803 -0.3797
  808MOL0     H11495   1.053   7.880   2.593 -2.7713  1.6594 -0.3148
  808MOL0     H11496   0.847   7.935   2.548  2.5432 -1.0219  2.1098
  808MOL0     H11497   0.831   7.836   2.401  1.0763 -0.5132  0.3441
  808MOL0     H11498   0.796   7.628   2.536 -1.7546 -1.4487  1.9781
  808MOL0     H11499   0.689   7.745   2.590 -0.1580 -1.9515 -1.7763
  808MOL0     H11500   0.934   7.741   2.933 -0.6008  2.8435 -0.5618
  808MOL0     H11501   1.485   7.653   2.436  0.9690  1.3807 -0.7635
  808MOL0     H11502   1.756   7.774   2.628 -0.9973 -0.3407  0.2490
  808MOL0     H11503   1.743   7.592   2.633 -0.1805  1.2382  2.1106
  808MOL0     H11504   1.715   7.690   2.487  0.2406 -1.0376  0.8246
  809MOL0     O11505   5.076   7.726   4.442 -0.3461 -0.3170 -0.3300
  809MOL0     C11506   5.099   7.827   4.378 -0.0457 -0.4590  0.0877
  809MOL0     O11507   5.158   7.939   4.433 -1.1864 -0.4079  0.4501
  809MOL0     C11508   5.194   7.955   4.566 -0.2220  0.0552 -0.9575
  809MOL0     C11509   5.313   8.019   4.581 -0.1197 -0.5600  0.8951
  809MOL0     C11510   5.369   8.041   4.702 -0.2058  0.6762  0.0582
  809MOL0     C11511   5.317   7.987   4.822 -0.1374 -0.7697  0.5391
  809MOL0     O11512   5.380   8.018   4.938  0.2516  0.4246  0.0233
  809MOL0     C11513   5.354   7.920   5.043  0.3108  0.9611 -0.0341
  809MOL0     C11514   5.457   7.923   5.157 -0.8954 -0.5956  0.6675
  809MOL0     C11515   5.602   7.930   5.105  0.5385 -0.1050  0.9576
  809MOL0     C11516   5.648   7.824   5.002  1.0640 -0.1583  0.1161
  809MOL0     C11517   5.763   7.868   4.923 -0.3155 -0.1955 -0.4425
  809MOL0     C11518   5.836   7.750   4.867  0.3305 -0.0917  0.4257
  809MOL0     C11519   5.968   7.814   4.811  0.1789 -0.8637  0.1335
  809MOL0     C11520   6.057   7.721   4.732  0.0158 -0.0785  0.0667
  809MOL0     N11521   6.183   7.799   4.708 -0.1032  0.2353 -0.1659
  809MOL0     C11522   6.310   7.745   4.675 -0.0285 -0.0242  0.7113
  809MOL0     C11523   6.397   7.847   4.656 -0.3512 -0.5745 -0.4421
  809MOL0     C11524   6.544   7.853   4.615 -0.5690 -0.5825 -0.2071
  809MOL0     C11525   6.566   7.930   4.491  0.0821 -0.1461 -0.3491
  809MOL0     C11526   6.712   7.931   4.450  0.3948  0.4493 -0.4917
  809MOL0     C11527   6.730   8.041   4.349 -0.8473 -0.0414  0.8321
  809MOL0     O11528   6.869   8.056   4.311  0.2219  0.3343 -0.4134
  809MOL0     C11529   6.946   8.136   4.385 -0.6951  0.1270  0.1179
  809MOL0     C11530   6.910   8.207   4.497 -0.2199  0.2768  0.2542
  809MOL0     C11531   7.012   8.290   4.560  0.2866 -0.6003 -0.0796
  809MOL0     C11532   6.948   8.385   4.663 -0.1701 -0.1349  0.7462
  809MOL0     C11533   7.144   8.300   4.508 -0.4007 -0.2135 -0.9493
  809MOL0     C11534   7.246   8.406   4.555  0.1167  0.4071  0.1462
  809MOL0     O11535   7.381   8.386   4.531 -0.0361  0.5023 -0.2811
  809MOL0     C11536   7.465   8.495   4.516  0.2661  0.7665  0.2030
  809MOL0     C11537   7.598   8.481   4.547  0.1053  0.1925 -0.3328
  809MOL0     C11538   7.699   8.576   4.522 -0.5444 -0.9848 -0.4876
  809MOL0     C11539   7.665   8.691   4.454 -0.2139 -0.9565 -0.1770
  809MOL0     O11540   7.760   8.788   4.412  0.0632 -0.4490  0.1466
  809MOL0     C11541   7.898   8.752   4.401  0.3387 -0.3384 -0.0907
  809MOL0     C11542   7.963   8.832   4.282 -0.0130 -0.2021 -0.0705
  809MOL0     C11543   8.114   8.789   4.267  0.9349  0.0019 -0.3915
  809MOL0     C11544   8.152   8.848   4.131 -1.1063 -0.0565 -0.8712
  809MOL0     C11545   8.292   8.813   4.090 -0.6107  0.7800 -0.2244
  809MOL0     C11546   8.357   8.920   4.004  0.3819  0.3180 -0.3173
  809MOL0     C11547   8.294   8.933   3.867  0.4471  0.2669  0.0636
  809MOL0     C11548   8.296   8.803   3.779  0.4268 -0.2026  0.0298
  809MOL0    Cl11549   8.461   8.773   3.758  0.1260  0.1010  0.1517
  809MOL0     C11550   7.529   8.711   4.415 -0.0198  0.7770  0.2751
  809MOL0     C11551   7.437   8.617   4.450 -0.8364  0.1653 -1.0229
  809MOL0     O11552   7.202   8.505   4.616  0.4265  0.3168  0.5595
  809MOL0     C11553   7.177   8.218   4.403 -0.1307  0.3110 -0.1697
  809MOL0     C11554   7.076   8.139   4.346  1.4406 -0.0784 -0.9283
  809MOL0     N11555   6.327   7.966   4.675  0.3569  0.7162  0.4322
  809MOL0     N11556   6.200   7.933   4.697 -0.7017  0.0632  0.0010
  809MOL0     C11557   5.193   7.918   4.806  0.1171 -0.4238 -0.3334
  809MOL0     C11558   5.133   7.900   4.682 -0.1510 -0.4707  0.6501
  809MOL0     C11559   5.061   7.834   4.239 -0.6578  0.2493 -0.2430
  809MOL0     C11560   5.026   7.959   4.178 -0.9807  0.3409 -0.6833
  809MOL0     C11561   4.982   7.968   4.046  0.6807  0.1277  0.0520
  809MOL0     C11562   4.958   7.854   3.969 -0.4251  0.5470  0.0320
  809MOL0     O11563   4.919   7.861   3.839  0.3867 -0.0232 -0.1832
  809MOL0     C11564   4.826   7.762   3.802 -0.1011  0.1519  0.0250
  809MOL0     C11565   4.723   7.813   3.701  0.1447 -0.4149 -0.3336
  809MOL0     C11566   4.788   7.862   3.566  0.9578  0.5568 -0.4741
  809MOL0     C11567   4.819   7.745   3.477 -0.8306  0.4250 -0.3557
  809MOL0     C11568   4.695   7.687   3.428  0.8240 -0.6526  0.2087
  809MOL0     C11569   4.599   7.635   3.368  0.0415  0.6750 -0.0099
  809MOL0     C11570   4.998   7.732   4.022  0.4875 -0.5112 -0.6911
  809MOL0     C11571   5.054   7.716   4.154  0.1322  0.2114  0.0237
  809MOL0     C11572   5.101   7.583   4.198 -0.2759 -0.1898 -0.0647
  809MOL0     H11573   5.348   8.081   4.500 -0.9910 -1.3789 -0.1374
  809MOL0     H11574   5.460   8.098   4.714  1.6588 -2.3640  1.5656
  809MOL0     H11575   5.350   7.818   5.004 -0.7556  1.2875 -0.8438
  809MOL0     H11576   5.258   7.945   5.090 -0.1652  0.5084 -0.7501
  809MOL0     H11577   5.440   8.005   5.228  0.3781 -0.2729  0.6405
  809MOL0     H11578   5.440   7.830   5.211 -0.0082 -0.6610  0.8613
  809MOL0     H11579   5.611   8.031   5.064  2.2283 -0.4125  0.4704
  809MOL0     H11580   5.672   7.927   5.189  0.9073  2.5926  0.8581
  809MOL0     H11581   5.665   7.728   5.052 -0.4630 -0.4085  0.1982
  809MOL0     H11582   5.574   7.812   4.922  2.0163 -0.8500 -0.6756
  809MOL0     H11583   5.832   7.914   4.995 -0.6170  0.1328 -0.3620
  809MOL0     H11584   5.734   7.944   4.850  1.3116 -0.6146 -1.5896
  809MOL0     H11585   5.858   7.665   4.933  1.0380 -0.2191  0.0323
  809MOL0     H11586   5.772   7.716   4.784 -2.2665  1.7959  1.5267
  809MOL0     H11587   6.017   7.864   4.895 -1.0678  1.3416 -0.3593
  809MOL0     H11588   5.939   7.897   4.745  2.4416 -1.7350 -2.1294
  809MOL0     H11589   6.073   7.628   4.787 -2.1365 -1.6817 -1.8246
  809MOL0     H11590   6.027   7.703   4.628 -1.1287  0.2705  0.3275
  809MOL0     H11591   6.331   7.640   4.661  1.2902 -0.1966  3.2827
  809MOL0     H11592   6.584   7.751   4.608  0.1008 -0.4053  0.7284
  809MOL0     H11593   6.598   7.900   4.698 -1.3772 -0.2348  0.1387
  809MOL0     H11594   6.515   7.869   4.416  0.4070 -3.8425  2.1549
  809MOL0     H11595   6.525   8.029   4.512  1.1945  0.2301  0.1824
  809MOL0     H11596   6.783   7.962   4.527 -0.4804  0.0820  0.4732
  809MOL0     H11597   6.749   7.841   4.400  1.4000  0.9427 -0.6871
  809MOL0     H11598   6.680   8.019   4.254  1.0677  0.0506 -0.2618
  809MOL0     H11599   6.690   8.139   4.378  0.7403  0.6875  0.6507
  809MOL0     H11600   6.814   8.209   4.547 -0.6062  0.8865 -0.4804
  809MOL0     H11601   7.022   8.413   4.738  0.2715 -0.0648  0.2886
  809MOL0     H11602   6.851   8.349   4.698 -0.4611 -1.6073 -1.3990
  809MOL0     H11603   6.935   8.481   4.612  2.6014  0.1066  0.3530
  809MOL0     H11604   7.629   8.382   4.580  0.2638 -0.6810 -2.8709
  809MOL0     H11605   7.799   8.559   4.560 -1.5675 -0.4879  2.6982
  809MOL0     H11606   7.930   8.791   4.498  1.5890 -2.8595  0.5820
  809MOL0     H11607   7.913   8.645   4.389 -3.0104 -0.8409 -0.7064
  809MOL0     H11608   7.897   8.815   4.196  0.2271  1.1479 -0.5534
  809MOL0     H11609   7.965   8.939   4.304  0.3287 -0.3404  0.5811
  809MOL0     H11610   8.128   8.681   4.258 -0.6017 -0.1248 -1.7833
  809MOL0     H11611   8.165   8.836   4.351 -1.8302 -1.9310  2.5859
  809MOL0     H11612   8.140   8.955   4.146  0.2665  0.2882 -1.9962
  809MOL0     H11613   8.087   8.832   4.044  1.0975  0.2107 -2.6420
  809MOL0     H11614   8.354   8.802   4.180  1.3005  2.1719 -1.2909
  809MOL0     H11615   8.304   8.712   4.050 -0.8584 -0.2275  2.1007
  809MOL0     H11616   8.462   8.893   3.984  1.2183  3.2277 -0.3552
  809MOL0     H11617   8.364   9.016   4.055 -2.4772 -0.5828  1.9762
  809MOL0     H11618   8.347   9.011   3.812  1.1823  0.9923  1.7338
  809MOL0     H11619   8.191   8.967   3.881 -0.1664 -2.3262  2.7286
  809MOL0     H11620   8.247   8.825   3.684  0.1128  0.5952  0.3683
  809MOL0     H11621   8.250   8.714   3.824 -1.5399  0.1663 -1.1177
  809MOL0     H11622   7.502   8.794   4.351 -0.8842 -0.6108 -1.2277
  809MOL0     H11623   7.333   8.637   4.423 -0.4944  0.5155 -2.1235
  809MOL0     H11624   7.278   8.208   4.366  0.0810  1.1520  0.1640
  809MOL0     H11625   7.104   8.079   4.260  0.4469 -0.7877 -0.7570
  809MOL0     H11626   5.133   7.874   4.885 -1.9261 -2.6792 -2.9255
  809MOL0     H11627   5.038   7.847   4.678  0.2364 -1.1220 -0.1674
  809MOL0     H11628   5.040   8.052   4.233 -0.7337 -0.1157  0.0419
  809MOL0     H11629   4.958   8.068   4.012 -2.5762 -0.8809 -1.0635
  809MOL0     H11630   4.893   7.683   3.765 -0.9133  0.2019 -1.6847
  809MOL0     H11631   4.773   7.734   3.893 -0.8749  0.5557 -0.2954
  809MOL0     H11632   4.671   7.900   3.743  0.3468 -0.1875 -0.5495
  809MOL0     H11633   4.644   7.743   3.675  1.4811 -2.1019 -0.0375
  809MOL0     H11634   4.706   7.918   3.521  0.0503  1.1768  1.8306
  809MOL0     H11635   4.873   7.928   3.585  3.0212 -1.5476 -1.7076
  809MOL0     H11636   4.886   7.684   3.538 -1.4308 -3.0592 -2.8973
  809MOL0     H11637   4.876   7.763   3.386  0.4866 -1.3479  0.0595
  809MOL0     H11638   4.529   7.590   3.301  0.3724  0.5216 -0.2609
  809MOL0     H11639   5.005   7.647   3.954 -2.2280 -0.8210 -0.6616
  809MOL0     H11640   5.195   7.587   4.254  0.8749 -2.5703 -1.6284
  809MOL0     H11641   5.018   7.554   4.263  0.8292 -1.0678  1.0167
  809MOL0     H11642   5.116   7.509   4.118  1.6388  0.5226 -0.4157
  810MOL0     O11643   0.407   7.574   7.697 -0.0885  0.2240  0.4212
  810MOL0     C11644   0.361   7.471   7.655  0.4418  0.3802 -0.5091
  810MOL0     O11645   0.431   7.370   7.595  0.5066  0.0343  0.6151
  810MOL0     C11646   0.564   7.386   7.596  0.1952  1.2123 -0.1274
  810MOL0     C11647   0.644   7.293   7.665  0.0176  0.3363 -1.4274
  810MOL0     C11648   0.782   7.295   7.670 -0.8237 -0.2288 -0.0547
  810MOL0     C11649   0.850   7.395   7.601 -0.0878  0.3167  0.3575
  810MOL0     O11650   0.982   7.422   7.599 -0.5931  0.0786  0.3673
  810MOL0     C11651   1.064   7.308   7.563  0.1051 -0.0474 -0.3362
  810MOL0     C11652   1.190   7.363   7.500  0.0839 -0.2912  0.7809
  810MOL0     C11653   1.297   7.256   7.497  0.2117 -0.2440 -0.5039
  810MOL0     C11654   1.429   7.317   7.455 -0.3344  0.4317  0.3626
  810MOL0     C11655   1.416   7.345   7.299  0.1477 -0.7708 -0.1882
  810MOL0     C11656   1.548   7.387   7.229  0.0136 -0.6720  0.3672
  810MOL0     C11657   1.530   7.412   7.076 -0.3260 -0.1231  0.5179
  810MOL0     C11658   1.665   7.420   6.998  0.8012 -0.2351  0.3203
  810MOL0     N11659   1.738   7.526   7.068 -0.2543  0.5644 -0.2690
  810MOL0     C11660   1.703   7.658   7.090  0.0117  0.6419 -0.2327
  810MOL0     C11661   1.815   7.718   7.121  0.5461  0.2444  0.5211
  810MOL0     C11662   1.823   7.868   7.143 -0.6790  0.2351 -0.5559
  810MOL0     C11663   1.914   7.942   7.042  0.4340 -0.5080 -0.1108
  810MOL0     C11664   1.878   7.950   6.894  0.6757 -0.5186 -0.7241
  810MOL0     C11665   1.968   8.052   6.831 -0.0255 -0.9857 -0.0651
  810MOL0     O11666   2.093   7.991   6.795 -0.4537  0.1250  0.3318
  810MOL0     C11667   2.209   8.032   6.851  0.8092  0.8659 -0.8582
  810MOL0     C11668   2.241   8.165   6.877  0.0780  0.0952  0.7669
  810MOL0     C11669   2.354   8.210   6.943  0.4067 -0.0792  0.0410
  810MOL0     C11670   2.393   8.353   6.932  0.7916  0.7569 -0.7113
  810MOL0     C11671   2.445   8.114   6.997  0.0538 -0.1466  0.0032
  810MOL0     C11672   2.575   8.134   7.079  0.2241  0.0540 -0.3622
  810MOL0     O11673   2.663   8.031   7.069  0.2149 -0.6458  0.1381
  810MOL0     C11674   2.775   8.037   7.142  0.5460 -0.2852 -0.9080
  810MOL0     C11675   2.771   8.002   7.279  0.3910  0.1487 -0.4450
  810MOL0     C11676   2.884   7.987   7.353 -1.0884  0.3091  1.5368
  810MOL0     C11677   3.006   8.004   7.285 -0.1992  0.4719 -0.2803
  810MOL0     O11678   3.129   7.985   7.350  0.4899 -0.6702 -0.3955
  810MOL0     C11679   3.123   8.038   7.486 -0.3670 -0.4176  1.0355
  810MOL0     C11680   3.263   8.000   7.537  0.0612 -0.5029 -0.2997
  810MOL0     C11681   3.301   7.853   7.543 -0.3353 -0.1373  0.5463
  810MOL0     C11682   3.457   7.849   7.545  0.0362  0.2692  0.5665
  810MOL0     C11683   3.505   7.700   7.547  0.0473 -0.1156  0.3800
  810MOL0     C11684   3.471   7.631   7.679 -0.9296 -0.1610  0.0428
  810MOL0     C11685   3.505   7.689   7.814  0.1020 -0.1934 -0.8881
  810MOL0     C11686   3.649   7.710   7.836  0.2911 -0.1428 -1.4345
  810MOL0    Cl11687   3.682   7.755   8.007  0.0755 -0.5472 -0.6065
  810MOL0     C11688   3.013   8.046   7.152 -0.4571 -0.1033  0.0831
  810MOL0     C11689   2.896   8.070   7.083  0.4729 -0.1299 -0.8110
  810MOL0     O11690   2.602   8.239   7.136 -0.0827 -0.1145 -0.7017
  810MOL0     C11691   2.420   7.980   6.967  0.3344  0.7967 -0.3807
  810MOL0     C11692   2.299   7.935   6.899 -0.6039  0.4000  0.2155
  810MOL0     N11693   1.913   7.623   7.128  0.3218 -0.3760 -0.5564
  810MOL0     N11694   1.870   7.504   7.098  0.8890 -0.4375  0.8115
  810MOL0     C11695   0.774   7.486   7.528 -0.5703 -0.5556  0.5232
  810MOL0     C11696   0.637   7.477   7.522 -0.0585  1.2433  1.5014
  810MOL0     C11697   0.209   7.458   7.673  0.3654 -1.4248 -0.1355
  810MOL0     C11698   0.157   7.345   7.729  0.1857  0.1731 -0.0602
  810MOL0     C11699   0.016   7.333   7.753  0.1561 -0.0191  0.4037
  810MOL0     C11700  -0.069   7.446   7.726  0.4577 -0.2685 -0.5340
  810MOL0     O11701  -0.203   7.431   7.742  0.2820 -0.4330 -0.0543
  810MOL0     C11702  -0.271   7.533   7.811 -0.0929 -0.0820  0.8763
  810MOL0     C11703  -0.368   7.603   7.708 -0.4380 -0.3777 -1.0575
  810MOL0     C11704  -0.366   7.749   7.744  0.1845 -0.2797  0.1583
  810MOL0     C11705  -0.439   7.839   7.636  0.4766 -0.2606 -0.3863
  810MOL0     C11706  -0.334   7.864   7.547 -0.4312 -0.4573  0.1190
  810MOL0     C11707  -0.244   7.897   7.469 -0.0421 -0.5764  0.1852
  810MOL0     C11708  -0.009   7.556   7.655  0.0476  0.5298  0.1626
  810MOL0     C11709   0.123   7.560   7.619  0.0607  0.4584 -0.3071
  810MOL0     C11710   0.166   7.693   7.566  0.5472  0.0882 -0.2046
  810MOL0     H11711   0.590   7.214   7.716  0.1934  0.5350 -0.9208
  810MOL0     H11712   0.835   7.224   7.731 -1.0075  0.8268  1.3737
  810MOL0     H11713   1.027   7.232   7.493  2.3174 -1.8576  0.3347
  810MOL0     H11714   1.102   7.246   7.645  2.6696 -3.0612 -3.4698
  810MOL0     H11715   1.159   7.380   7.397 -0.2442  0.7685  1.0506
  810MOL0     H11716   1.226   7.452   7.552 -0.9454 -0.2116  1.3933
  810MOL0     H11717   1.314   7.206   7.593 -0.4052 -0.9580 -0.7609
  810MOL0     H11718   1.268   7.178   7.426 -2.3719  1.9438 -2.0751
  810MOL0     H11719   1.448   7.398   7.526  1.1626  0.8860 -0.5055
  810MOL0     H11720   1.511   7.244   7.463  0.1166  0.6473 -1.7130
  810MOL0     H11721   1.345   7.427   7.286  0.5145 -0.6045 -1.2158
  810MOL0     H11722   1.366   7.259   7.254 -1.5438 -0.4356  0.9782
  810MOL0     H11723   1.599   7.462   7.290 -0.2754 -1.6396  1.8552
  810MOL0     H11724   1.606   7.295   7.242 -1.3843 -1.6108  0.1541
  810MOL0     H11725   1.468   7.500   7.055 -0.3827 -0.0194  1.1064
  810MOL0     H11726   1.473   7.332   7.030  0.7622 -0.2833 -0.5970
  810MOL0     H11727   1.722   7.327   7.013  2.7058  0.7600 -0.4260
  810MOL0     H11728   1.652   7.446   6.893  1.6025  0.7568  0.4512
  810MOL0     H11729   1.607   7.703   7.071  0.4774  1.0313 -1.7728
  810MOL0     H11730   1.853   7.885   7.246 -0.6402  2.0892 -0.8385
  810MOL0     H11731   1.725   7.916   7.140 -0.8619  0.0464  1.2969
  810MOL0     H11732   1.941   8.039   7.086  0.5333 -0.7794  0.4405
  810MOL0     H11733   2.010   7.890   7.055  0.3599 -1.1386 -1.8977
  810MOL0     H11734   1.896   7.851   6.850 -0.3011 -1.8360  1.6428
  810MOL0     H11735   1.772   7.971   6.878  0.3173 -2.3009 -0.8715
  810MOL0     H11736   1.918   8.089   6.741 -0.1537 -0.2888  0.2830
  810MOL0     H11737   1.978   8.148   6.882 -0.7316 -0.3371 -1.1001
  810MOL0     H11738   2.169   8.239   6.843  0.9169  1.4729  1.8970
  810MOL0     H11739   2.314   8.408   6.880 -1.3175 -2.2004 -0.8377
  810MOL0     H11740   2.495   8.379   6.903  0.8609  1.1399 -0.1556
  810MOL0     H11741   2.391   8.395   7.034  1.8711  0.6997 -0.6563
  810MOL0     H11742   2.684   7.963   7.332 -0.7465  2.5934 -0.4116
  810MOL0     H11743   2.858   7.944   7.449 -2.4895 -2.2465  0.1061
  810MOL0     H11744   3.105   8.145   7.481  0.4950 -0.3042 -2.5919
  810MOL0     H11745   3.057   7.978   7.550 -0.7888 -1.7998 -0.6164
  810MOL0     H11746   3.341   8.055   7.483  1.7919 -1.2669  1.2792
  810MOL0     H11747   3.258   8.046   7.637 -2.6363 -2.7013  0.7126
  810MOL0     H11748   3.263   7.802   7.454 -0.3471 -0.2796  0.6310
  810MOL0     H11749   3.259   7.795   7.626  2.1239 -3.4977 -0.3176
  810MOL0     H11750   3.504   7.891   7.635 -1.4468 -0.4675  1.7295
  810MOL0     H11751   3.495   7.896   7.454 -1.4737 -0.7443 -0.6459
  810MOL0     H11752   3.461   7.641   7.466  1.3567  0.5893 -0.9048
  810MOL0     H11753   3.614   7.689   7.540  0.0874 -0.4880  1.4136
  810MOL0     H11754   3.502   7.527   7.684  2.7174  0.6932 -1.4320
  810MOL0     H11755   3.362   7.629   7.671 -0.8048 -1.2680 -2.1912
  810MOL0     H11756   3.474   7.616   7.889 -1.4284  1.4781  0.1963
  810MOL0     H11757   3.450   7.777   7.848  1.1055  0.6436 -1.3768
  810MOL0     H11758   3.677   7.794   7.773  1.9925  1.6118  1.4325
  810MOL0     H11759   3.713   7.625   7.810  2.5368  1.3935 -1.2282
  810MOL0     H11760   3.102   8.066   7.093 -0.3784  1.1474  0.6026
  810MOL0     H11761   2.889   8.085   6.976  0.1065 -0.2704 -0.8078
  810MOL0     H11762   2.483   7.904   7.010 -0.1672  0.7244  0.2407
  810MOL0     H11763   2.277   7.831   6.880 -0.0186 -0.1843  2.5367
  810MOL0     H11764   0.833   7.561   7.477 -0.8273  0.0138  1.0549
  810MOL0     H11765   0.585   7.545   7.455  0.8393  0.2016 -0.2945
  810MOL0     H11766   0.222   7.271   7.775  0.6303 -1.0516 -2.4916
  810MOL0     H11767  -0.021   7.237   7.788 -1.6451 -0.5014 -2.5500
  810MOL0     H11768  -0.314   7.493   7.903  1.6119 -3.3149  0.4029
  810MOL0     H11769  -0.198   7.606   7.849 -1.3067  0.5084  2.1703
  810MOL0     H11770  -0.472   7.569   7.714  0.0959 -2.1774 -1.5329
  810MOL0     H11771  -0.341   7.589   7.603 -0.9787 -0.2444 -1.2151
  810MOL0     H11772  -0.410   7.765   7.843 -1.7315  1.9855 -0.9434
  810MOL0     H11773  -0.267   7.794   7.754 -0.7970  2.7129 -2.0248
  810MOL0     H11774  -0.467   7.933   7.683  1.9564 -0.1452  0.3172
  810MOL0     H11775  -0.521   7.786   7.587 -1.7718  3.1600 -0.6540
  810MOL0     H11776  -0.155   7.926   7.417  0.1538  1.3494  1.4823
  810MOL0     H11777  -0.059   7.649   7.631  3.8851  2.2396 -2.1627
  810MOL0     H11778   0.213   7.751   7.646  3.4306 -2.2009 -0.0737
  810MOL0     H11779   0.248   7.691   7.494  2.8149  2.8522  2.0724
  810MOL0     H11780   0.095   7.760   7.516  0.3431 -0.2982 -0.4464
  811MOL0     O11781   4.062   8.858   5.380  0.8528  0.5866  0.2591
  811MOL0     C11782   4.008   8.743   5.365  0.5920 -0.1918  0.3978
  811MOL0     O11783   4.061   8.625   5.400  0.5593  0.6205 -0.9932
  811MOL0     C11784   4.188   8.618   5.446  0.2626 -1.0237 -0.1769
  811MOL0     C11785   4.297   8.628   5.358  0.0859  0.7904  0.6728
  811MOL0     C11786   4.419   8.614   5.416 -0.1005  0.4136  1.0795
  811MOL0     C11787   4.456   8.591   5.551  0.5637  0.1557 -0.1403
  811MOL0     O11788   4.577   8.577   5.609  0.5297 -0.6769  0.2286
  811MOL0     C11789   4.687   8.583   5.526 -0.1276 -0.7412  0.9194
  811MOL0     C11790   4.811   8.592   5.604  0.4885  1.0274 -0.4902
  811MOL0     C11791   4.935   8.563   5.520  0.0980 -0.6569 -0.1339
  811MOL0     C11792   5.063   8.624   5.579 -0.2821  1.1941  0.3994
  811MOL0     C11793   5.105   8.756   5.522 -0.2839  0.3879 -0.5705
  811MOL0     C11794   5.258   8.781   5.534 -0.1245  0.0056 -0.9228
  811MOL0     C11795   5.292   8.923   5.499 -0.3887 -0.1006  0.0137
  811MOL0     C11796   5.440   8.960   5.509  0.2989 -0.6185 -0.1722
  811MOL0     N11797   5.491   8.970   5.647  0.5713  0.2136 -0.2528
  811MOL0     C11798   5.430   9.049   5.744 -0.4212  1.4981  0.3210
  811MOL0     C11799   5.490   9.008   5.857  0.2371 -1.1210  0.5127
  811MOL0     C11800   5.488   9.091   5.984 -0.4100 -0.7945  0.1068
  811MOL0     C11801   5.379   9.038   6.086  0.3000 -0.9476  0.5289
  811MOL0     C11802   5.333   9.145   6.179 -0.2483 -0.9444  0.0623
  811MOL0     C11803   5.439   9.194   6.273  0.2732  0.2711 -0.5723
  811MOL0     O11804   5.520   9.294   6.212 -0.5278 -0.4861 -0.0097
  811MOL0     C11805   5.604   9.372   6.297  0.1155  0.3593  1.3350
  811MOL0     C11806   5.620   9.357   6.432  1.3007  0.2514  0.2635
  811MOL0     C11807   5.706   9.439   6.502  0.0166 -0.0926 -0.7715
  811MOL0     C11808   5.718   9.400   6.654 -0.4129 -0.9639  0.5880
  811MOL0     C11809   5.775   9.548   6.441  0.1744 -0.3318  0.3256
  811MOL0     C11810   5.861   9.640   6.518 -0.1166  0.1869  0.2184
  811MOL0     O11811   5.946   9.721   6.445  0.0082  0.0994 -1.0124
  811MOL0     C11812   6.027   9.799   6.520 -0.2944  0.0403  1.3766
  811MOL0     C11813   6.155   9.748   6.536 -0.3524  0.1058 -0.2784
  811MOL0     C11814   6.261   9.825   6.591  0.2910 -0.7277  0.4978
  811MOL0     C11815   6.229   9.950   6.640 -0.4979 -0.1771  0.3812
  811MOL0     O11816   6.334  10.003   6.708 -0.8634 -0.1710  0.4261
  811MOL0     C11817   6.318  10.118   6.806  0.5236  0.5627 -0.1053
  811MOL0     C11818   6.398  10.088   6.928  0.8864  0.2237  0.3145
  811MOL0     C11819   6.550  10.062   6.905  0.6521 -0.0722  0.8728
  811MOL0     C11820   6.635  10.048   7.042  0.2988  0.7605 -0.0709
  811MOL0     C11821   6.779  10.003   7.013 -0.2702  0.1917 -0.1135
  811MOL0     C11822   6.882  10.041   7.119  0.5853 -0.4051  1.1967
  811MOL0     C11823   6.933  10.182   7.095  0.3189  0.7297 -0.8810
  811MOL0     C11824   7.046  10.166   6.987  0.0035  0.2937 -0.9811
  811MOL0    Cl11825   7.121  10.323   6.932 -0.0755 -0.2247  0.0862
  811MOL0     C11826   6.095   9.999   6.636  0.3770 -0.4075  0.0638
  811MOL0     C11827   5.998   9.928   6.573  0.5214  0.8029  0.6754
  811MOL0     O11828   5.844   9.654   6.633  0.4898 -0.7260  0.5174
  811MOL0     C11829   5.761   9.570   6.302  0.4875  0.3352  0.2947
  811MOL0     C11830   5.664   9.488   6.239 -0.1180  1.3098  0.5264
  811MOL0     N11831   5.588   8.925   5.820  0.7378 -0.1875  0.3431
  811MOL0     N11832   5.592   8.903   5.703 -0.4533  0.4869 -0.0160
  811MOL0     C11833   4.343   8.594   5.633  0.2087  0.5154 -0.5800
  811MOL0     C11834   4.211   8.604   5.583 -0.2389 -0.7713 -0.3305
  811MOL0     C11835   3.900   8.743   5.260 -0.7321 -0.0696 -0.3168
  811MOL0     C11836   3.890   8.621   5.187  0.4673 -0.2514  0.1969
  811MOL0     C11837   3.793   8.599   5.102 -0.1969  0.2007  0.1785
  811MOL0     C11838   3.704   8.696   5.078 -0.1120 -0.8608  0.9864
  811MOL0     O11839   3.586   8.682   5.009  0.6305 -0.5917  0.0596
  811MOL0     C11840   3.571   8.573   4.913  0.5602 -0.1046  0.5106
  811MOL0     C11841   3.532   8.440   4.980  0.5475  0.4460  0.9336
  811MOL0     C11842   3.442   8.347   4.894  0.5866 -0.4106  0.1947
  811MOL0     C11843   3.448   8.207   4.957  0.5493  0.2041  1.1014
  811MOL0     C11844   3.360   8.120   4.882 -0.5140  0.5036  0.4506
  811MOL0     C11845   3.283   8.050   4.812 -1.1962 -0.0363  0.0966
  811MOL0     C11846   3.720   8.825   5.124  0.0868 -0.4073  0.5366
  811MOL0     C11847   3.814   8.847   5.223  0.5640 -0.4657 -0.7345
  811MOL0     C11848   3.825   8.989   5.278 -0.0641  0.4254  1.1038
  811MOL0     H11849   4.281   8.641   5.251 -2.7344 -1.9704  0.6083
  811MOL0     H11850   4.497   8.597   5.342 -0.6564 -1.7025  0.9051
  811MOL0     H11851   4.680   8.674   5.465 -2.7290 -1.4332  0.0404
  811MOL0     H11852   4.694   8.496   5.460  0.6653  1.2630 -1.8696
  811MOL0     H11853   4.836   8.682   5.661  1.3844 -0.1558  1.0729
  811MOL0     H11854   4.811   8.514   5.681  1.0015  0.4957 -1.0141
  811MOL0     H11855   4.947   8.454   5.517 -1.0048 -0.7903 -0.2192
  811MOL0     H11856   4.931   8.591   5.414 -0.2868  1.2518  0.3594
  811MOL0     H11857   5.059   8.638   5.687  2.0411 -2.6241  1.1796
  811MOL0     H11858   5.140   8.554   5.544 -0.9516  1.8584 -2.6885
  811MOL0     H11859   5.048   8.834   5.572  0.8560 -0.0949  1.6075
  811MOL0     H11860   5.080   8.744   5.416 -0.8589  3.0247 -0.7893
  811MOL0     H11861   5.265   8.775   5.643 -0.8864 -2.4990 -0.9428
  811MOL0     H11862   5.317   8.707   5.479  1.0502 -0.4335  0.8367
  811MOL0     H11863   5.240   8.993   5.566 -0.5666  1.3483 -1.5843
  811MOL0     H11864   5.268   8.940   5.394 -3.0109  2.6586  0.9075
  811MOL0     H11865   5.493   8.879   5.459  0.8303 -0.9095  0.8385
  811MOL0     H11866   5.466   9.055   5.462  0.3761  0.0365  1.1506
  811MOL0     H11867   5.362   9.133   5.733  1.3989  2.9695 -0.1688
  811MOL0     H11868   5.469   9.194   5.954  2.9893  0.0083  0.3378
  811MOL0     H11869   5.591   9.096   6.021  0.1552  0.7225 -1.5433
  811MOL0     H11870   5.295   9.007   6.024 -0.0344 -0.1110  0.5523
  811MOL0     H11871   5.417   8.959   6.152  0.6385 -0.2240  1.2149
  811MOL0     H11872   5.299   9.230   6.119  0.3288  0.9768  2.2798
  811MOL0     H11873   5.248   9.106   6.236  0.2050 -1.2393  0.5503
  811MOL0     H11874   5.393   9.238   6.362 -4.0762  1.4127 -3.0785
  811MOL0     H11875   5.493   9.107   6.310  1.1104  0.8393 -0.4358
  811MOL0     H11876   5.602   9.262   6.481  1.8748  0.9524  1.9064
  811MOL0     H11877   5.685   9.488   6.710 -0.9685 -1.6503  1.3597
  811MOL0     H11878   5.820   9.365   6.674 -1.0134 -3.9915 -1.0595
  811MOL0     H11879   5.648   9.317   6.673  0.3536 -2.1070 -1.3376
  811MOL0     H11880   6.194   9.655   6.497 -1.6930 -1.7282  2.4389
  811MOL0     H11881   6.362   9.788   6.580  0.4701  0.3883 -2.5035
  811MOL0     H11882   6.340  10.215   6.760 -0.3290  0.5508 -0.5657
  811MOL0     H11883   6.215  10.116   6.843  0.1498 -2.6030 -1.0245
  811MOL0     H11884   6.389  10.181   6.983 -1.3060  0.0010  0.4234
  811MOL0     H11885   6.355   9.995   6.966  1.7382 -0.6744 -0.8377
  811MOL0     H11886   6.602  10.139   6.849 -0.3625 -0.1855 -0.2725
  811MOL0     H11887   6.553   9.972   6.843 -0.8207  1.0131 -0.8597
  811MOL0     H11888   6.580   9.978   7.106  0.6467  0.4698 -0.0861
  811MOL0     H11889   6.644  10.144   7.093  4.3447  0.3255  0.3836
  811MOL0     H11890   6.783   9.895   6.999  1.3090  0.4587 -2.2608
  811MOL0     H11891   6.805  10.042   6.914 -0.7777  0.8809  0.0128
  811MOL0     H11892   6.962   9.968   7.110  0.0453 -0.8552 -0.2038
  811MOL0     H11893   6.840  10.026   7.219 -1.3317  1.4406  0.7495
  811MOL0     H11894   6.972  10.218   7.191 -2.9943  1.9588  0.1639
  811MOL0     H11895   6.867  10.263   7.062  0.3173  0.5712 -1.2667
  811MOL0     H11896   7.010  10.118   6.896 -1.7142 -1.1883  0.4044
  811MOL0     H11897   7.125  10.102   7.027  1.5646  3.5044  1.6187
  811MOL0     H11898   6.072  10.093   6.686 -1.5188 -0.2022 -1.0910
  811MOL0     H11899   5.899   9.970   6.567  0.9137  1.5834 -0.9046
  811MOL0     H11900   5.810   9.654   6.254 -1.6503  1.2134 -0.4920
  811MOL0     H11901   5.638   9.486   6.133  1.2584  4.4392  0.0237
  811MOL0     H11902   4.368   8.583   5.738 -0.2827 -0.0678 -0.5170
  811MOL0     H11903   4.125   8.602   5.649 -1.3125 -2.5257 -1.7000
  811MOL0     H11904   3.968   8.546   5.194  3.2497  2.2776 -1.2205
  811MOL0     H11905   3.792   8.505   5.046 -0.3569  1.1217 -1.4190
  811MOL0     H11906   3.483   8.608   4.858  0.3665  0.4645  1.1730
  811MOL0     H11907   3.650   8.563   4.839  0.1861  2.9684 -0.4454
  811MOL0     H11908   3.475   8.459   5.071 -0.8939 -1.8378  0.6096
  811MOL0     H11909   3.630   8.400   5.008  1.4187  2.1948  0.5296
  811MOL0     H11910   3.342   8.390   4.888  1.1809  0.7907 -2.1945
  811MOL0     H11911   3.478   8.350   4.791 -1.3718 -0.7398 -0.5394
  811MOL0     H11912   3.402   8.207   5.057 -2.6004  1.3389 -0.2144
  811MOL0     H11913   3.552   8.174   4.956  1.5513  2.9730 -1.7306
  811MOL0     H11914   3.227   7.988   4.744 -1.6663  2.2150 -1.7067
  811MOL0     H11915   3.646   8.894   5.086 -1.6128 -2.4686 -0.0645
  811MOL0     H11916   3.756   9.061   5.232  0.4675 -1.1450 -2.4036
  811MOL0     H11917   3.799   8.991   5.385  2.4696  3.1826  1.8184
  811MOL0     H11918   3.929   9.022   5.281 -0.6235  2.2646  1.7224
  812MOL0     O11919   3.113   9.877   9.702 -0.5955  0.0408 -0.9445
  812MOL0     C11920   3.012   9.923   9.762  0.4150 -0.2670  0.5651
  812MOL0     O11921   2.960  10.052   9.748  0.4904 -0.3420  0.3158
  812MOL0     C11922   3.009  10.135   9.652 -0.1714  0.1558  0.0794
  812MOL0     C11923   3.019  10.270   9.691 -0.0847  0.0611  0.4524
  812MOL0     C11924   3.061  10.361   9.594 -0.2173  0.1960  0.4638
  812MOL0     C11925   3.097  10.330   9.461  0.3495  0.0844  0.0122
  812MOL0     O11926   3.158  10.439   9.396  0.2978 -0.3730  0.4150
  812MOL0     C11927   3.206  10.425   9.262 -0.7272 -0.8376  0.9343
  812MOL0     C11928   3.282  10.560   9.226  0.7665 -0.6774 -0.9051
  812MOL0     C11929   3.328  10.568   9.082 -0.0058 -0.8266 -0.0642
  812MOL0     C11930   3.392  10.706   9.055 -0.5792  0.6509 -0.1380
  812MOL0     C11931   3.446  10.721   8.916 -0.6509 -0.7743  0.2594
  812MOL0     C11932   3.595  10.672   8.896  0.0732 -0.3229 -0.7769
  812MOL0     C11933   3.656  10.718   8.754  0.1229  0.4721 -0.1503
  812MOL0     C11934   3.804  10.747   8.749  0.1163  0.0812 -0.0481
  812MOL0     N11935   3.877  10.741   8.616 -0.5712  0.6208  0.0392
  812MOL0     C11936   3.862  10.826   8.517  1.2633 -0.1016  0.0480
  812MOL0     C11937   3.939  10.777   8.415  0.6082  0.2725  0.3502
  812MOL0     C11938   3.989  10.857   8.296  0.5250  0.1659  0.2790
  812MOL0     C11939   4.133  10.905   8.302  0.0644 -0.9773 -0.2304
  812MOL0     C11940   4.155  11.009   8.201  0.0826 -0.0625 -0.6417
  812MOL0     C11941   4.297  11.031   8.157 -0.3226 -0.8285  0.2636
  812MOL0     O11942   4.349  10.907   8.112  0.1198  0.0676  0.4236
  812MOL0     C11943   4.481  10.908   8.137 -0.8080  0.1721 -0.3908
  812MOL0     C11944   4.533  10.899   8.272  0.4127  0.3672  0.6773
  812MOL0     C11945   4.666  10.905   8.301 -0.1398  1.4045  1.4438
  812MOL0     C11946   4.717  10.880   8.444 -0.3917 -0.7051 -0.8800
  812MOL0     C11947   4.759  10.914   8.194  0.1664 -0.9304 -0.0871
  812MOL0     C11948   4.900  10.936   8.220 -0.7384  0.2410 -0.7269
  812MOL0     O11949   4.945  11.064   8.223 -0.4856  0.0677  0.7467
  812MOL0     C11950   5.079  11.095   8.191  0.7195 -0.5644  0.0598
  812MOL0     C11951   5.105  11.216   8.116 -0.3161  0.4683  0.1842
  812MOL0     C11952   5.233  11.247   8.077 -0.2684 -0.1979 -0.1420
  812MOL0     C11953   5.337  11.159   8.105  0.0531  0.0781  0.4068
  812MOL0     O11954   5.456  11.197   8.055 -0.3673  1.1670  0.3487
  812MOL0     C11955   5.543  11.089   8.013 -0.5167  1.1012 -0.3808
  812MOL0     C11956   5.656  11.145   7.940 -0.1568  0.2409  0.0076
  812MOL0     C11957   5.616  11.214   7.810  0.3883  0.7052  0.1978
  812MOL0     C11958   5.736  11.283   7.747 -0.4502 -0.5407  0.4330
  812MOL0     C11959   5.824  11.187   7.665 -0.9165  0.2670 -1.0094
  812MOL0     C11960   5.944  11.256   7.601 -0.5720 -0.1729  0.2254
  812MOL0     C11961   6.008  11.168   7.499  0.0330  0.8222  0.9056
  812MOL0     C11962   6.139  11.229   7.441  0.2327 -0.2547 -0.2069
  812MOL0    Cl11963   6.104  11.388   7.359  0.0443  0.0952  0.1251
  812MOL0     C11964   5.311  11.044   8.187  0.2885 -0.3309 -0.4058
  812MOL0     C11965   5.188  11.021   8.236  0.0568  0.2088 -0.2608
  812MOL0     O11966   4.969  10.833   8.220 -0.1459  0.5048 -0.8594
  812MOL0     C11967   4.714  10.929   8.059 -0.7557 -0.3734 -0.2259
  812MOL0     C11968   4.575  10.925   8.028  0.4020 -0.3922  0.3481
  812MOL0     N11969   3.999  10.665   8.460 -0.6366 -0.6503  0.3188
  812MOL0     N11970   3.957  10.639   8.578 -0.7211 -0.5746 -0.1204
  812MOL0     C11971   3.087  10.198   9.425 -0.2228 -0.5040  0.5592
  812MOL0     C11972   3.043  10.104   9.519 -0.6700 -0.0735 -0.1229
  812MOL0     C11973   2.943   9.832   9.866 -1.2579  0.0032 -0.3172
  812MOL0     C11974   2.814   9.889   9.913 -0.5956 -0.5306 -0.0180
  812MOL0     C11975   2.744   9.830  10.015  0.2526  0.0902 -0.7940
  812MOL0     C11976   2.796   9.713  10.078 -0.7501  0.4287  0.5717
  812MOL0     O11977   2.707   9.652  10.161  0.4620  0.1900 -0.5884
  812MOL0     C11978   2.747   9.537  10.240  0.4067 -0.6953  0.0967
  812MOL0     C11979   2.623   9.458  10.272 -0.4079  0.5062 -0.2259
  812MOL0     C11980   2.547   9.398  10.143 -0.2757  0.6394 -0.4620
  812MOL0     C11981   2.407   9.377  10.187  1.0158  0.2848 -0.6706
  812MOL0     C11982   2.393   9.291  10.303 -0.3727  0.1975 -0.3285
  812MOL0     C11983   2.386   9.225  10.405 -0.4258 -0.6779 -0.4253
  812MOL0     C11984   2.929   9.668  10.042  0.5599  0.0558 -0.3778
  812MOL0     C11985   3.007   9.731   9.944  0.6294  0.1670  0.6287
  812MOL0     C11986   3.157   9.699   9.945 -0.6694 -0.2170  0.2653
  812MOL0     H11987   2.994  10.297   9.793  0.6322 -0.0729  0.6620
  812MOL0     H11988   3.077  10.466   9.618 -0.9510  0.2059  0.9442
  812MOL0     H11989   3.115  10.408   9.202 -0.5571  0.5474  0.2524
  812MOL0     H11990   3.267  10.335   9.258 -1.7988 -1.6205  1.5989
  812MOL0     H11991   3.217  10.643   9.255  1.3167 -1.1706  2.0613
  812MOL0     H11992   3.369  10.568   9.291 -1.1104  0.4743  1.6415
  812MOL0     H11993   3.394  10.488   9.050 -2.7858 -2.3470 -2.5242
  812MOL0     H11994   3.238  10.574   9.019  0.3914  1.5392 -0.4945
  812MOL0     H11995   3.321  10.787   9.077 -0.7394  0.1273  1.3912
  812MOL0     H11996   3.477  10.712   9.123 -1.3306  0.9959  0.8036
  812MOL0     H11997   3.446  10.830   8.900 -1.1112 -0.8602 -0.3529
  812MOL0     H11998   3.385  10.681   8.834  3.4024 -2.7271 -2.0909
  812MOL0     H11999   3.651  10.706   8.984 -1.6641  0.3575  0.1234
  812MOL0     H12000   3.590  10.563   8.901 -0.4136 -0.3567 -1.7810
  812MOL0     H12001   3.607  10.809   8.716  0.2349  1.3629  1.7552
  812MOL0     H12002   3.639  10.640   8.679  0.7082 -2.2778  2.4038
  812MOL0     H12003   3.807  10.850   8.786  0.2073  0.8993 -2.2168
  812MOL0     H12004   3.858  10.690   8.826  2.0101 -0.8517 -1.9777
  812MOL0     H12005   3.800  10.914   8.523  1.3238 -0.1480  2.2157
  812MOL0     H12006   3.915  10.935   8.276 -0.3741  0.2743  3.4948
  812MOL0     H12007   3.984  10.789   8.210 -2.6863 -0.0046  0.4729
  812MOL0     H12008   4.164  10.944   8.400  3.3401 -0.2370 -1.4205
  812MOL0     H12009   4.204  10.822   8.289  2.6234  0.5940  2.4437
  812MOL0     H12010   4.081  10.996   8.121  0.5723  0.0414 -1.1184
  812MOL0     H12011   4.123  11.098   8.255  1.9210 -0.2488  0.8595
  812MOL0     H12012   4.306  11.100   8.073 -0.5619  1.6945  2.2048
  812MOL0     H12013   4.351  11.075   8.242 -0.4721  0.1515 -0.1386
  812MOL0     H12014   4.462  10.873   8.349 -0.1028 -0.5989 -0.0862
  812MOL0     H12015   4.661  10.955   8.501  3.5118  1.4173  0.5426
  812MOL0     H12016   4.823  10.902   8.460 -0.2980 -1.0219 -1.0630
  812MOL0     H12017   4.699  10.782   8.489 -1.0113 -0.4564 -0.5715
  812MOL0     H12018   5.014  11.264   8.080 -1.2386  0.6575  2.5591
  812MOL0     H12019   5.251  11.329   8.009  1.7652 -1.2369 -0.9562
  812MOL0     H12020   5.579  11.052   8.109 -0.9998  1.1266 -0.1909
  812MOL0     H12021   5.500  11.018   7.943  1.3486  0.5967 -1.0818
  812MOL0     H12022   5.706  11.215   8.007  2.5176 -2.3669  0.9920
  812MOL0     H12023   5.731  11.065   7.943  0.5159  0.8811  0.9418
  812MOL0     H12024   5.540  11.291   7.824  0.0309  0.4407 -0.2699
  812MOL0     H12025   5.569  11.150   7.735  0.6846  0.7954 -0.0699
  812MOL0     H12026   5.796  11.335   7.822 -1.8619  1.5100  0.2011
  812MOL0     H12027   5.688  11.360   7.687 -1.0826 -1.6797 -0.5857
  812MOL0     H12028   5.853  11.102   7.727 -2.1764 -0.5290 -1.4842
  812MOL0     H12029   5.762  11.155   7.581 -1.8792 -1.6612  0.3698
  812MOL0     H12030   6.019  11.275   7.678 -0.4407  1.2041 -0.2188
  812MOL0     H12031   5.905  11.346   7.553  2.5364  0.6188 -1.0784
  812MOL0     H12032   5.938  11.145   7.418 -0.1438 -0.0377  1.2836
  812MOL0     H12033   6.029  11.071   7.546  0.9408 -0.2083 -1.4755
  812MOL0     H12034   6.173  11.151   7.372 -1.0112 -0.1788 -0.9285
  812MOL0     H12035   6.202  11.235   7.530 -0.3935 -0.8189  0.2818
  812MOL0     H12036   5.404  10.995   8.216  0.5097 -0.2065 -0.8804
  812MOL0     H12037   5.197  10.930   8.294  1.6240  0.0438 -0.7333
  812MOL0     H12038   4.794  10.931   7.985  1.7446 -0.6022  2.2971
  812MOL0     H12039   4.540  10.946   7.927  2.6859  1.2390 -0.1916
  812MOL0     H12040   3.099  10.174   9.320 -2.8609  4.9806 -1.3821
  812MOL0     H12041   3.024  10.004   9.481 -0.0001  0.2047 -1.2071
  812MOL0     H12042   2.763   9.977   9.876 -2.5710 -0.9656  1.4688
  812MOL0     H12043   2.641   9.859  10.035  0.1107 -0.8549 -0.1086
  812MOL0     H12044   2.814   9.474  10.181  3.1815  0.9939  1.2334
  812MOL0     H12045   2.796   9.572  10.331  4.2824 -0.8686 -1.7463
  812MOL0     H12046   2.549   9.512  10.332 -1.5972  0.4129 -1.5305
  812MOL0     H12047   2.648   9.364  10.323  1.2946  1.1544  0.1697
  812MOL0     H12048   2.559   9.455  10.051 -0.2405  0.9015 -0.2958
  812MOL0     H12049   2.585   9.299  10.115  2.8374  1.7998 -0.6650
  812MOL0     H12050   2.353   9.325  10.108  1.4654  0.2384 -0.9492
  812MOL0     H12051   2.352   9.468  10.214  0.7609  0.5608 -2.0831
  812MOL0     H12052   2.384   9.169  10.496 -0.9688  2.4761  1.6830
  812MOL0     H12053   2.962   9.595  10.114 -2.0065  0.6413  1.5636
  812MOL0     H12054   3.205   9.789   9.983 -0.7352  1.4368 -3.1890
  812MOL0     H12055   3.194   9.610   9.996 -1.2662 -1.7087 -1.7756
  812MOL0     H12056   3.198   9.687   9.844  1.7830 -0.2304  1.2140
  813MOL0     O12057   0.627  11.244  10.601 -0.0744  0.4221  0.1542
  813MOL0     C12058   0.567  11.288  10.503 -0.5267  0.2533  0.1871
  813MOL0     O12059   0.621  11.284  10.375 -0.7011 -0.1234 -0.8549
  813MOL0     C12060   0.747  11.227  10.374 -0.2000  1.2723  0.4669
  813MOL0     C12061   0.846  11.296  10.306  0.2570 -0.8993  0.4446
  813MOL0     C12062   0.974  11.246  10.280  0.1205 -0.1887 -0.2127
  813MOL0     C12063   1.003  11.106  10.307 -0.1087  0.1607 -0.2103
  813MOL0     O12064   1.123  11.057  10.254  0.0698  0.1998 -0.1869
  813MOL0     C12065   1.164  10.921  10.295  0.6313  0.2327  0.0643
  813MOL0     C12066   1.320  10.918  10.275  0.8155 -0.0278 -0.1553
  813MOL0     C12067   1.354  10.950  10.132 -0.2238 -0.5172 -0.3092
  813MOL0     C12068   1.474  10.862  10.104  0.4490 -0.0911 -0.4664
  813MOL0     C12069   1.610  10.891  10.171 -0.9988 -0.5972 -0.3595
  813MOL0     C12070   1.695  10.758  10.166 -0.6085  0.5820 -0.0168
  813MOL0     C12071   1.837  10.785  10.234  0.9798 -0.5353  0.7988
  813MOL0     C12072   1.925  10.657  10.230  0.3106 -0.5583  0.2574
  813MOL0     N12073   1.873  10.570  10.330 -0.1964 -0.2708  1.0654
  813MOL0     C12074   1.895  10.587  10.463  0.4667 -0.2120 -0.8059
  813MOL0     C12075   1.811  10.509  10.526  0.8225  0.5620  0.4227
  813MOL0     C12076   1.790  10.498  10.672  0.7391  0.0927 -0.2208
  813MOL0     C12077   1.650  10.562  10.709 -0.2483  0.0154  0.4077
  813MOL0     C12078   1.545  10.453  10.697 -0.1047 -1.0570 -0.1830
  813MOL0     C12079   1.404  10.504  10.731  0.8232 -0.6243 -0.4457
  813MOL0     O12080   1.339  10.592  10.637 -0.3991  0.1901  0.5483
  813MOL0     C12081   1.216  10.640  10.682  0.0381  0.6056  0.5475
  813MOL0     C12082   1.227  10.732  10.783 -0.7009  0.3042 -0.4275
  813MOL0     C12083   1.118  10.783  10.843  0.3660 -0.9193  0.4814
  813MOL0     C12084   1.134  10.862  10.964 -0.1055  0.6776  0.7239
  813MOL0     C12085   0.986  10.759  10.782  0.2501  0.9503  0.1438
  813MOL0     C12086   0.853  10.820  10.832 -0.9379  0.1937  0.1876
  813MOL0     O12087   0.747  10.770  10.773  0.6233 -0.5279  0.0703
  813MOL0     C12088   0.627  10.834  10.789  0.8532  0.1613 -0.7962
  813MOL0     C12089   0.601  10.972  10.828  0.4685  0.6761 -0.4375
  813MOL0     C12090   0.470  11.011  10.844 -1.1322  0.3221  0.3057
  813MOL0     C12091   0.365  10.931  10.825  1.3409 -0.4667 -0.3588
  813MOL0     O12092   0.238  10.977  10.844  0.0631  0.1379  0.2300
  813MOL0     C12093   0.215  11.110  10.901 -0.5126  0.4150 -0.0536
  813MOL0     C12094   0.063  11.113  10.923 -0.5287 -0.1718 -0.5528
  813MOL0     C12095  -0.011  11.084  10.787  0.3727 -0.2847 -0.2690
  813MOL0     C12096  -0.164  11.128  10.786 -0.2123 -0.3304 -0.1323
  813MOL0     C12097  -0.252  11.070  10.672  0.0489 -0.5822  0.1900
  813MOL0     C12098  -0.194  11.134  10.543  0.4354  0.5187  0.2199
  813MOL0     C12099  -0.294  11.119  10.430 -0.1217 -0.0887  0.5444
  813MOL0     C12100  -0.261  11.199  10.300 -0.0450  0.0285 -0.4162
  813MOL0    Cl12101  -0.091  11.199  10.269 -1.0057 -0.4861  0.3406
  813MOL0     C12102   0.383  10.801  10.787  0.4151  0.2022 -0.4666
  813MOL0     C12103   0.517  10.752  10.777 -0.1459 -0.3816  0.3841
  813MOL0     O12104   0.856  10.905  10.919 -0.4559 -0.3114 -0.1358
  813MOL0     C12105   0.983  10.686  10.665 -0.1696 -0.1894  1.2052
  813MOL0     C12106   1.103  10.633  10.606 -0.1203 -0.5930  0.2723
  813MOL0     N12107   1.750  10.427  10.429  0.1419 -0.2834 -0.2830
  813MOL0     N12108   1.783  10.470  10.314 -0.0421  0.4187 -1.6016
  813MOL0     C12109   0.910  11.032  10.382 -0.3872 -0.3799  0.8595
  813MOL0     C12110   0.777  11.088  10.408  0.2076 -0.6290  0.3698
  813MOL0     C12111   0.429  11.351  10.499 -0.4536  1.1196 -0.1540
  813MOL0     C12112   0.354  11.329  10.385  0.6205 -0.5329  0.5991
  813MOL0     C12113   0.219  11.381  10.380  0.0837  0.7946 -0.5276
  813MOL0     C12114   0.158  11.450  10.488  0.3306 -1.0491 -0.5308
  813MOL0     O12115   0.029  11.499  10.494  0.1653  0.6757 -0.1837
  813MOL0     C12116  -0.038  11.520  10.622 -0.1898  0.0526 -0.5323
  813MOL0     C12117  -0.184  11.525  10.596  0.8372  0.5515  0.7179
  813MOL0     C12118  -0.219  11.599  10.466 -0.2522  0.2990  0.2163
  813MOL0     C12119  -0.369  11.618  10.460 -0.0646  0.3621 -0.1226
  813MOL0     C12120  -0.443  11.497  10.421 -0.2869 -0.0875 -0.9750
  813MOL0     C12121  -0.515  11.420  10.367 -0.6418 -0.4461 -0.7249
  813MOL0     C12122   0.240  11.460  10.602 -0.1583  0.2198 -0.2743
  813MOL0     C12123   0.377  11.418  10.608  0.2514  0.3664  1.1949
  813MOL0     C12124   0.465  11.454  10.729 -0.4918  0.4467 -0.0335
  813MOL0     H12125   0.822  11.397  10.273  2.7788 -1.3150 -3.3355
  813MOL0     H12126   1.055  11.300  10.233  0.7801 -1.4484 -0.5774
  813MOL0     H12127   1.119  10.840  10.237  0.8259  1.1232 -1.3921
  813MOL0     H12128   1.143  10.909  10.402 -0.4717  0.9007 -0.0565
  813MOL0     H12129   1.366  10.987  10.347  3.7983 -1.6436 -0.3655
  813MOL0     H12130   1.341  10.817  10.311 -1.2328 -0.3628  0.2073
  813MOL0     H12131   1.284  10.919  10.054 -1.8346 -0.5721  1.1151
  813MOL0     H12132   1.380  11.056  10.118 -2.4401 -0.2640 -3.5825
  813MOL0     H12133   1.447  10.761  10.136  2.0980  0.1881  2.1592
  813MOL0     H12134   1.497  10.847   9.998 -0.8801 -5.1041 -0.2772
  813MOL0     H12135   1.597  10.921  10.276  0.7397 -0.6339 -0.0985
  813MOL0     H12136   1.660  10.975  10.121 -1.3085 -1.8548 -2.9265
  813MOL0     H12137   1.642  10.688  10.231 -0.4848  1.4326  1.0099
  813MOL0     H12138   1.700  10.722  10.062 -2.8682 -1.0381  0.3593
  813MOL0     H12139   1.821  10.821  10.336  1.0176 -1.8863  1.3093
  813MOL0     H12140   1.886  10.863  10.176  1.6913 -1.5531 -0.0159
  813MOL0     H12141   1.927  10.610  10.131 -2.0438 -1.0496  0.3945
  813MOL0     H12142   2.023  10.690  10.267 -0.2973  4.3867 -1.7758
  813MOL0     H12143   1.960  10.662  10.508  1.0557 -1.6647  0.8978
  813MOL0     H12144   1.866  10.562  10.719 -0.7398  3.1427 -1.6497
  813MOL0     H12145   1.810  10.401  10.717  0.3939  0.4300  0.6858
  813MOL0     H12146   1.640  10.585  10.815  2.0037 -0.6126  0.8148
  813MOL0     H12147   1.630  10.648  10.644 -1.4782 -0.1979  0.4825
  813MOL0     H12148   1.534  10.408  10.597  1.3127 -0.1012 -0.7942
  813MOL0     H12149   1.566  10.374  10.770 -1.5798  0.3745  1.8984
  813MOL0     H12150   1.337  10.419  10.739  1.0964 -0.6571  3.3180
  813MOL0     H12151   1.408  10.545  10.832  3.0403 -1.8533  0.0187
  813MOL0     H12152   1.328  10.755  10.816 -1.4343  2.9009  0.2257
  813MOL0     H12153   1.101  10.794  11.043 -0.5488 -2.2545 -1.7912
  813MOL0     H12154   1.087  10.961  10.961  1.0189  1.2179 -2.9642
  813MOL0     H12155   1.240  10.888  10.970  0.4824 -1.7424  4.1791
  813MOL0     H12156   0.673  11.052  10.843  0.6310  0.3721  0.4144
  813MOL0     H12157   0.453  11.117  10.860 -0.1267  0.7741 -1.2951
  813MOL0     H12158   0.271  11.126  10.993 -1.2153  0.7513  0.3275
  813MOL0     H12159   0.250  11.184  10.828  0.9088  0.7800  0.9580
  813MOL0     H12160   0.035  11.043  11.002 -3.3074  0.4161 -0.9002
  813MOL0     H12161   0.039  11.210  10.968 -1.9832  1.1236 -3.7937
  813MOL0     H12162   0.001  10.976  10.772  1.4844  0.1235 -2.7404
  813MOL0     H12163   0.025  11.138  10.699 -0.3996  0.0401 -0.3939
  813MOL0     H12164  -0.169  11.237  10.787  1.2624 -0.1483 -2.8439
  813MOL0     H12165  -0.205  11.086  10.879  3.7037 -1.1634  1.4153
  813MOL0     H12166  -0.244  10.961  10.673  2.6251 -0.4562  1.6841
  813MOL0     H12167  -0.355  11.104  10.683  0.2432 -0.5738  2.3632
  813MOL0     H12168  -0.099  11.087  10.517 -0.9764 -1.8213 -1.0847
  813MOL0     H12169  -0.174  11.239  10.567  0.8572  0.9777 -1.8625
  813MOL0     H12170  -0.392  11.156  10.462 -1.1052  2.5643 -4.4161
  813MOL0     H12171  -0.311  11.016  10.398 -2.7989  0.6692 -0.7512
  813MOL0     H12172  -0.287  11.305  10.300 -0.3274 -0.0421 -0.1441
  813MOL0     H12173  -0.321  11.153  10.222  0.1346  0.2758 -0.7055
  813MOL0     H12174   0.296  10.739  10.768  0.5883  0.3067 -1.6906
  813MOL0     H12175   0.534  10.650  10.744  0.3077 -0.4468  0.7988
  813MOL0     H12176   0.895  10.664  10.605  1.5490  2.7072 -2.8468
  813MOL0     H12177   1.101  10.579  10.512 -0.9319  1.1006 -0.7288
  813MOL0     H12178   0.925  10.927  10.405 -0.8426  0.1516  4.0131
  813MOL0     H12179   0.704  11.023  10.457  0.5706 -1.0538  0.3539
  813MOL0     H12180   0.384  11.256  10.310 -1.0617 -1.2609  0.5880
  813MOL0     H12181   0.155  11.354  10.297  0.6120 -0.4018 -0.5658
  813MOL0     H12182  -0.025  11.439  10.693  1.8032  0.1141 -0.7620
  813MOL0     H12183  -0.009  11.616  10.665  0.0184 -0.5979  0.8190
  813MOL0     H12184  -0.223  11.585  10.679 -0.5681  0.3436  0.2419
  813MOL0     H12185  -0.231  11.426  10.594 -1.8617  1.7274 -0.8444
  813MOL0     H12186  -0.166  11.695  10.460 -1.0993  0.8101  0.7202
  813MOL0     H12187  -0.187  11.538  10.382 -1.9706 -1.0986  0.5270
  813MOL0     H12188  -0.393  11.693  10.384  0.7297  2.4240  1.5442
  813MOL0     H12189  -0.393  11.655  10.560  1.2434  0.2256  0.2558
  813MOL0     H12190  -0.577  11.345  10.323  0.1453 -1.0651 -0.7928
  813MOL0     H12191   0.205  11.516  10.688  2.6996  1.6835  0.0549
  813MOL0     H12192   0.419  11.539  10.781  0.6619  0.3697  1.1615
  813MOL0     H12193   0.463  11.373  10.803 -0.7189 -1.5147 -2.0920
  813MOL0     H12194   0.565  11.480  10.693 -0.2819  2.3309  1.7280
  814MOL0     O12195   4.741   5.984   7.425 -0.6815 -0.1284  0.0180
  814MOL0     C12196   4.629   5.961   7.385 -0.2004  0.4437 -0.1996
  814MOL0     O12197   4.512   5.977   7.461  0.0847  0.0229  0.3333
  814MOL0     C12198   4.536   5.981   7.593  0.9212  0.0154  0.2115
  814MOL0     C12199   4.533   5.864   7.675 -0.0960  0.3319  0.0587
  814MOL0     C12200   4.547   5.878   7.813  1.0979  0.3925  0.2434
  814MOL0     C12201   4.549   6.007   7.881  0.0437 -0.0969  0.7976
  814MOL0     O12202   4.548   6.019   8.016  0.4145 -0.2021 -0.4825
  814MOL0     C12203   4.580   6.142   8.079  0.0201 -0.3427 -0.4909
  814MOL0     C12204   4.591   6.122   8.233 -0.7798 -0.4735 -0.7699
  814MOL0     C12205   4.702   6.042   8.287  0.2210  0.1064 -0.4820
  814MOL0     C12206   4.762   6.071   8.420  0.4742 -0.1421 -0.0960
  814MOL0     C12207   4.859   6.191   8.417  0.3115 -0.1576  1.0723
  814MOL0     C12208   4.939   6.202   8.547  0.5678  0.1443  0.4861
  814MOL0     C12209   5.049   6.313   8.539 -0.5087 -0.1199 -0.0740
  814MOL0     C12210   5.113   6.336   8.680  0.1217 -0.2384 -0.7605
  814MOL0     N12211   5.215   6.435   8.684 -0.3262  0.2109 -0.4920
  814MOL0     C12212   5.344   6.434   8.723  0.2710  0.9837  0.4754
  814MOL0     C12213   5.392   6.556   8.695 -0.8305 -0.0067  0.2738
  814MOL0     C12214   5.520   6.611   8.752 -1.1534 -0.4582  0.8261
  814MOL0     C12215   5.635   6.627   8.646  0.6475 -0.1035 -0.8919
  814MOL0     C12216   5.682   6.495   8.587  0.1373 -0.3728  0.0411
  814MOL0     C12217   5.750   6.392   8.674  0.1571  0.0773 -0.5024
  814MOL0     O12218   5.827   6.461   8.774 -0.3605  0.0982  0.3911
  814MOL0     C12219   5.889   6.399   8.883 -0.4041 -0.2239  0.6903
  814MOL0     C12220   5.871   6.264   8.914  0.1262 -0.1781  0.6081
  814MOL0     C12221   5.948   6.199   9.013  0.8082  0.7645 -0.5188
  814MOL0     C12222   5.921   6.048   9.024  0.0023  0.4140 -0.8136
  814MOL0     C12223   6.043   6.281   9.088  0.3032  0.7041  0.2940
  814MOL0     C12224   6.117   6.219   9.209  0.3673  0.5573 -0.1970
  814MOL0     O12225   6.182   6.314   9.286 -0.5101  0.1671  0.0934
  814MOL0     C12226   6.240   6.274   9.405  0.5181  0.7838  1.0779
  814MOL0     C12227   6.374   6.309   9.417  0.9881  0.7202 -0.5523
  814MOL0     C12228   6.445   6.273   9.531  0.2382  0.1082  0.4469
  814MOL0     C12229   6.389   6.205   9.630  0.0683 -0.2953  0.3610
  814MOL0     O12230   6.449   6.172   9.745 -0.1401 -0.7365  0.6478
  814MOL0     C12231   6.595   6.152   9.756 -0.3523 -0.3377 -0.3856
  814MOL0     C12232   6.659   6.028   9.684 -0.5830  0.2604 -0.7264
  814MOL0     C12233   6.795   5.984   9.748 -0.4456  0.4192  0.2694
  814MOL0     C12234   6.866   5.894   9.653  0.1065 -0.1477 -0.3217
  814MOL0     C12235   6.999   5.848   9.704 -0.0700 -0.5865 -0.1696
  814MOL0     C12236   7.096   5.957   9.728 -0.3201 -0.6026 -0.6122
  814MOL0     C12237   7.242   5.908   9.751  0.2698 -0.1769 -0.3176
  814MOL0     C12238   7.338   6.022   9.785 -0.4620  0.5758 -1.4530
  814MOL0    Cl12239   7.488   5.948   9.851 -0.1995  0.3567  0.0527
  814MOL0     C12240   6.247   6.184   9.626  0.1889  1.0778  0.0582
  814MOL0     C12241   6.172   6.218   9.513  0.3684  0.1788  0.1710
  814MOL0     O12242   6.110   6.102   9.235 -0.3697 -0.1123 -0.3613
  814MOL0     C12243   6.063   6.422   9.057  0.2702  1.3407  0.4527
  814MOL0     C12244   5.978   6.478   8.956 -0.7711 -0.1005  0.6709
  814MOL0     N12245   5.300   6.626   8.629  0.2067 -0.7711  0.2348
  814MOL0     N12246   5.195   6.547   8.616  0.0534  0.2264  0.4488
  814MOL0     C12247   4.534   6.123   7.796  0.2475 -0.5056  0.4340
  814MOL0     C12248   4.519   6.102   7.660 -0.4084  0.5135  0.3779
  814MOL0     C12249   4.615   5.903   7.253 -0.0404 -1.4508 -0.7582
  814MOL0     C12250   4.694   5.954   7.148 -0.8518  0.1561 -0.5805
  814MOL0     C12251   4.665   5.929   7.015 -0.1605  0.5318 -0.4882
  814MOL0     C12252   4.566   5.838   6.977  0.9161  0.6998  0.4386
  814MOL0     O12253   4.528   5.819   6.845  0.1604  0.0856  0.5455
  814MOL0     C12254   4.623   5.835   6.741  0.5528 -0.9891  0.4045
  814MOL0     C12255   4.581   5.733   6.640  0.6806  0.3238 -0.2549
  814MOL0     C12256   4.583   5.591   6.702  0.1599 -0.0175  0.5883
  814MOL0     C12257   4.549   5.488   6.590 -0.0061 -0.5055 -0.5127
  814MOL0     C12258   4.636   5.473   6.478 -0.0027 -0.3200 -0.1001
  814MOL0     C12259   4.721   5.478   6.387  1.1265 -0.4593 -0.7847
  814MOL0     C12260   4.496   5.776   7.077 -0.3904  0.4168 -1.2561
  814MOL0     C12261   4.522   5.805   7.219 -0.2893  0.6448 -0.4555
  814MOL0     C12262   4.438   5.735   7.315  0.1537 -0.2161 -0.5354
  814MOL0     H12263   4.520   5.762   7.639  0.6005  0.9735 -2.1028
  814MOL0     H12264   4.545   5.786   7.871 -2.4413  1.5064  2.1901
  814MOL0     H12265   4.498   6.214   8.064 -0.2233 -0.2615  1.0779
  814MOL0     H12266   4.675   6.182   8.042 -1.1104  1.4649 -1.6245
  814MOL0     H12267   4.611   6.223   8.271  1.3820 -1.5405  1.2004
  814MOL0     H12268   4.494   6.085   8.268  0.4461 -2.8089  0.4340
  814MOL0     H12269   4.654   5.944   8.284 -0.5165  0.4922 -2.9100
  814MOL0     H12270   4.783   6.045   8.213 -1.6171 -1.0495 -2.6465
  814MOL0     H12271   4.686   6.077   8.499 -2.7203  2.6733 -3.0881
  814MOL0     H12272   4.827   5.990   8.456 -0.7052  0.3321  3.5261
  814MOL0     H12273   4.794   6.277   8.401  2.2275  1.1652  0.1010
  814MOL0     H12274   4.927   6.185   8.332 -1.8677  2.4777 -1.0463
  814MOL0     H12275   4.868   6.228   8.625 -1.6778  1.4151 -1.8177
  814MOL0     H12276   4.993   6.111   8.575 -2.2322 -1.6343  0.4765
  814MOL0     H12277   5.003   6.403   8.497  2.5454  0.9854 -1.3263
  814MOL0     H12278   5.125   6.291   8.464  0.1168  1.1342  0.1700
  814MOL0     H12279   5.038   6.369   8.752 -2.9457 -1.2659 -3.2327
  814MOL0     H12280   5.138   6.238   8.722 -0.9759 -0.9248 -1.6436
  814MOL0     H12281   5.394   6.351   8.772 -1.2300 -0.9553 -1.1534
  814MOL0     H12282   5.550   6.538   8.828  1.4121 -2.4362 -1.8512
  814MOL0     H12283   5.501   6.704   8.805  2.6315  0.4150  0.9124
  814MOL0     H12284   5.583   6.684   8.568  1.8368 -0.0744 -1.6914
  814MOL0     H12285   5.718   6.680   8.694  0.5841  0.0982 -0.9993
  814MOL0     H12286   5.601   6.446   8.531 -1.3012  0.9681  0.8702
  814MOL0     H12287   5.755   6.527   8.512 -0.7456 -1.1226 -1.1805
  814MOL0     H12288   5.683   6.314   8.710  0.5784 -1.0720 -2.0813
  814MOL0     H12289   5.810   6.337   8.600 -1.5045  0.1948 -2.0051
  814MOL0     H12290   5.797   6.215   8.852  1.1864 -0.1320 -0.7478
  814MOL0     H12291   5.823   6.022   8.983 -1.4353  1.7061  1.5797
  814MOL0     H12292   5.899   6.016   9.126 -0.5490  3.2975  0.0585
  814MOL0     H12293   6.002   6.005   8.963 -0.2793  0.3785 -1.1626
  814MOL0     H12294   6.418   6.378   9.346  4.0852  0.2042  0.7007
  814MOL0     H12295   6.550   6.299   9.524  0.6199 -1.6595 -1.4992
  814MOL0     H12296   6.640   6.245   9.719 -0.7745 -0.0830 -0.2599
  814MOL0     H12297   6.623   6.135   9.860  1.1556 -3.4198 -1.1462
  814MOL0     H12298   6.600   5.937   9.693  2.9572 -2.2475 -0.7813
  814MOL0     H12299   6.680   6.057   9.581  2.7955 -0.2596 -0.3202
  814MOL0     H12300   6.775   5.920   9.834  0.9765 -1.9692 -1.0589
  814MOL0     H12301   6.850   6.075   9.774 -1.6364  1.5126 -0.8606
  814MOL0     H12302   6.881   5.942   9.556  0.6257  1.0989  0.3539
  814MOL0     H12303   6.799   5.812   9.625 -0.7819  0.5597 -0.3134
  814MOL0     H12304   6.985   5.795   9.798 -0.9675 -1.6078 -0.8435
  814MOL0     H12305   7.046   5.784   9.628  1.3966  1.4860 -1.1053
  814MOL0     H12306   7.069   6.009   9.820  1.0014  3.2282 -2.1739
  814MOL0     H12307   7.103   6.031   9.647  1.9377  0.5767  0.5556
  814MOL0     H12308   7.291   5.846   9.675 -1.3970 -1.4795 -0.4119
  814MOL0     H12309   7.235   5.845   9.841  1.4297  0.1839  0.0456
  814MOL0     H12310   7.296   6.096   9.855 -1.5327 -0.7150 -0.6664
  814MOL0     H12311   7.362   6.076   9.693  1.3820  2.1068 -0.1463
  814MOL0     H12312   6.203   6.130   9.709  1.1162 -0.3342 -0.3376
  814MOL0     H12313   6.067   6.195   9.502  0.0193 -0.9757  4.2757
  814MOL0     H12314   6.129   6.488   9.112  1.9740 -0.8866  1.2551
  814MOL0     H12315   5.965   6.582   8.926 -1.8768 -1.0788 -2.7221
  814MOL0     H12316   4.518   6.221   7.840  2.4284 -0.0843  0.3643
  814MOL0     H12317   4.504   6.191   7.598  0.6753  1.2696  1.1701
  814MOL0     H12318   4.772   6.029   7.158 -0.9282  0.6896 -3.2814
  814MOL0     H12319   4.734   5.981   6.949 -1.3236 -0.1933 -2.3682
  814MOL0     H12320   4.620   5.935   6.697  0.7617 -1.2812 -0.2884
  814MOL0     H12321   4.728   5.816   6.767  0.4544 -2.2459 -0.0170
  814MOL0     H12322   4.654   5.749   6.560 -0.0602  1.5938 -0.6926
  814MOL0     H12323   4.480   5.742   6.601 -0.0724  0.6773  1.6544
  814MOL0     H12324   4.676   5.569   6.753  0.3185 -3.6223 -0.9342
  814MOL0     H12325   4.499   5.593   6.772  0.9877  0.5638  1.5773
  814MOL0     H12326   4.452   5.510   6.543  0.1315 -1.6473 -1.3660
  814MOL0     H12327   4.555   5.394   6.645  3.3746 -0.1804 -0.1615
  814MOL0     H12328   4.780   5.476   6.298 -1.6858  0.3322 -2.8151
  814MOL0     H12329   4.416   5.709   7.049  1.2662 -0.6509 -3.8579
  814MOL0     H12330   4.412   5.638   7.272  1.1140 -0.0558 -1.5251
  814MOL0     H12331   4.482   5.713   7.413 -2.4129  1.5801  1.1305
  814MOL0     H12332   4.341   5.780   7.339  0.6474  0.6082 -0.0238
  815MOL0     O12333   2.176   0.339   9.009 -0.0900 -0.1471 -0.5722
  815MOL0     C12334   2.137   0.355   8.894 -0.4082 -0.6835  0.5994
  815MOL0     O12335   2.032   0.440   8.853 -0.2020 -0.1262 -0.8207
  815MOL0     C12336   1.938   0.498   8.936 -0.0883  0.3337  0.1848
  815MOL0     C12337   1.841   0.569   8.866 -0.0288 -0.1063 -0.4919
  815MOL0     C12338   1.731   0.623   8.937 -0.0846  1.2868  0.3740
  815MOL0     C12339   1.728   0.612   9.073  0.4846  0.2651  0.8630
  815MOL0     O12340   1.609   0.661   9.126  0.2790  0.6592  0.3874
  815MOL0     C12341   1.610   0.706   9.261  0.4536  0.6810  0.2611
  815MOL0     C12342   1.566   0.592   9.360 -0.8470  0.0050 -0.3740
  815MOL0     C12343   1.428   0.545   9.325  0.1885 -0.4490 -0.3751
  815MOL0     C12344   1.421   0.393   9.299 -0.0864  0.2354  0.0919
  815MOL0     C12345   1.284   0.333   9.289  0.4273  0.1497 -0.3678
  815MOL0     C12346   1.214   0.318   9.426  0.2454  0.2785  0.0547
  815MOL0     C12347   1.265   0.195   9.511 -0.4917 -0.0661 -0.5566
  815MOL0     C12348   1.248   0.064   9.447  0.3356  1.3915 -0.4069
  815MOL0     N12349   1.375  -0.001   9.401 -0.2553  0.1747  0.4491
  815MOL0     C12350   1.474  -0.058   9.488  0.3447 -0.3409  0.7496
  815MOL0     C12351   1.563  -0.125   9.406  0.3334  0.3821  0.7611
  815MOL0     C12352   1.693  -0.190   9.441 -0.3380  0.1646  0.1900
  815MOL0     C12353   1.686  -0.338   9.418 -0.1612  0.3669 -0.9986
  815MOL0     C12354   1.811  -0.411   9.458 -0.2171  0.0030 -0.0500
  815MOL0     C12355   1.931  -0.406   9.354 -0.0554 -0.5523  0.4123
  815MOL0     O12356   2.043  -0.469   9.406 -0.6260  0.0425 -0.3334
  815MOL0     C12357   2.159  -0.481   9.328  0.2049  0.0601 -0.2675
  815MOL0     C12358   2.251  -0.579   9.350  0.3393  0.6283  0.8006
  815MOL0     C12359   2.375  -0.581   9.292  0.0691 -0.3754 -0.5736
  815MOL0     C12360   2.482  -0.670   9.361  0.5473 -0.0074 -0.1043
  815MOL0     C12361   2.405  -0.488   9.190 -0.3289  0.0070  0.6447
  815MOL0     C12362   2.536  -0.487   9.126 -0.1729 -0.4311 -0.0562
  815MOL0     O12363   2.540  -0.408   9.019  0.1473 -0.4891 -0.0621
  815MOL0     C12364   2.657  -0.358   8.971  0.6566 -0.4037  0.7803
  815MOL0     C12365   2.784  -0.389   9.018 -0.3215  0.1452  0.5985
  815MOL0     C12366   2.893  -0.322   8.978  0.1733  0.2503  0.6789
  815MOL0     C12367   2.889  -0.222   8.886 -0.8203  0.3491  0.7157
  815MOL0     O12368   3.002  -0.154   8.853  0.1110 -0.4755  0.4508
  815MOL0     C12369   3.130  -0.181   8.907  0.1411  0.5959  0.1896
  815MOL0     C12370   3.232  -0.089   8.856  0.2436  0.9418 -0.9342
  815MOL0     C12371   3.366  -0.121   8.914 -0.2857  0.1052  0.2151
  815MOL0     C12372   3.452  -0.207   8.821  0.4241 -0.3118 -0.0138
  815MOL0     C12373   3.550  -0.292   8.907  0.7886 -0.7161 -0.6524
  815MOL0     C12374   3.662  -0.214   8.986  0.1162  1.0350 -1.0785
  815MOL0     C12375   3.705  -0.283   9.114 -0.4137  0.8071 -0.3175
  815MOL0     C12376   3.831  -0.231   9.193  0.0808 -0.3506 -0.1309
  815MOL0    Cl12377   3.989  -0.257   9.118 -0.5065 -0.0758  0.2607
  815MOL0     C12378   2.768  -0.195   8.827  1.0881  0.5337  0.0462
  815MOL0     C12379   2.647  -0.254   8.879 -0.3168 -0.5152 -0.4281
  815MOL0     O12380   2.620  -0.570   9.157 -0.0192 -0.3757  0.6647
  815MOL0     C12381   2.316  -0.394   9.157  0.4560 -0.4325  0.6745
  815MOL0     C12382   2.194  -0.392   9.222  0.1811  1.0876  0.1573
  815MOL0     N12383   1.502  -0.125   9.284  0.0476 -0.3108  0.4034
  815MOL0     N12384   1.394  -0.050   9.274 -0.3260  0.2988 -0.6640
  815MOL0     C12385   1.837   0.566   9.141 -1.3449  0.1472 -0.1004
  815MOL0     C12386   1.941   0.502   9.072  0.3054 -0.5203 -0.0119
  815MOL0     C12387   2.207   0.276   8.793  0.6075  0.5281 -0.3775
  815MOL0     C12388   2.235   0.138   8.823 -0.0698  0.2892 -0.5873
  815MOL0     C12389   2.295   0.064   8.722  0.8584 -0.4710 -0.2212
  815MOL0     C12390   2.340   0.116   8.600  0.1362  0.9117  0.0806
  815MOL0     O12391   2.393   0.032   8.503  0.1392  0.4582  0.1485
  815MOL0     C12392   2.533   0.051   8.498  0.2799 -1.1120  0.6941
  815MOL0     C12393   2.596  -0.067   8.408  0.3973  0.2045 -0.2268
  815MOL0     C12394   2.557  -0.042   8.256  0.1833 -0.4433  0.2296
  815MOL0     C12395   2.589  -0.168   8.182  0.0230  0.1896 -0.0087
  815MOL0     C12396   2.722  -0.184   8.122 -0.1813  0.0940  0.4061
  815MOL0     C12397   2.840  -0.200   8.098  0.2801  0.3274  0.6886
  815MOL0     C12398   2.311   0.244   8.567  0.1449  0.2570 -0.1297
  815MOL0     C12399   2.246   0.328   8.668 -0.5554 -0.0308 -0.3402
  815MOL0     C12400   2.224   0.467   8.634  0.2097  0.3732  0.3007
  815MOL0     H12401   1.832   0.576   8.759 -2.5226  2.0361 -0.2404
  815MOL0     H12402   1.645   0.672   8.892 -0.5389 -0.9414 -1.3618
  815MOL0     H12403   1.546   0.794   9.265 -1.8091 -0.8640 -0.1870
  815MOL0     H12404   1.709   0.748   9.282 -0.0286  0.8737  2.2986
  815MOL0     H12405   1.633   0.506   9.350  2.0903  1.6072  3.0747
  815MOL0     H12406   1.592   0.633   9.458 -2.6547 -2.8839  1.4871
  815MOL0     H12407   1.356   0.567   9.405 -0.9105 -1.7693 -0.9682
  815MOL0     H12408   1.396   0.589   9.230  1.5111 -0.0268 -0.6565
  815MOL0     H12409   1.451   0.352   9.202 -2.5729  1.0978 -1.1385
  815MOL0     H12410   1.469   0.348   9.386  0.3647  1.3083  0.4167
  815MOL0     H12411   1.283   0.234   9.243  1.7507 -0.1739  0.2739
  815MOL0     H12412   1.222   0.391   9.219 -0.3450 -0.2617 -0.0428
  815MOL0     H12413   1.233   0.417   9.469  0.1407  0.7966 -1.0742
  815MOL0     H12414   1.106   0.304   9.416  0.5271 -2.0863 -0.2103
  815MOL0     H12415   1.213   0.197   9.607  1.9023  1.1733  0.8034
  815MOL0     H12416   1.367   0.226   9.536 -0.2345 -0.5586 -0.9752
  815MOL0     H12417   1.191  -0.002   9.512  0.3320 -0.6617 -2.3643
  815MOL0     H12418   1.183   0.083   9.361  1.5826  1.5552 -1.3465
  815MOL0     H12419   1.488  -0.047   9.595 -0.2289 -3.0163  1.1615
  815MOL0     H12420   1.711  -0.164   9.545  2.3828  1.1680 -0.4609
  815MOL0     H12421   1.772  -0.140   9.385  1.6061 -2.6268  0.2427
  815MOL0     H12422   1.618  -0.383   9.491  2.2341 -0.2832  0.9792
  815MOL0     H12423   1.645  -0.356   9.318 -1.9163  1.1819 -0.4716
  815MOL0     H12424   1.846  -0.368   9.552  1.7428 -1.5117 -0.0144
  815MOL0     H12425   1.793  -0.515   9.487  0.8006 -0.5532 -1.3225
  815MOL0     H12426   1.901  -0.459   9.262 -1.2358  1.4381 -0.4001
  815MOL0     H12427   1.952  -0.300   9.336  4.4763 -0.8056  2.7280
  815MOL0     H12428   2.230  -0.654   9.426  1.9969  0.2771  0.9498
  815MOL0     H12429   2.504  -0.753   9.293 -0.4275  0.0034 -0.4381
  815MOL0     H12430   2.448  -0.713   9.455 -2.5266  1.4836 -0.4067
  815MOL0     H12431   2.573  -0.613   9.385  1.7118 -1.4658 -0.8860
  815MOL0     H12432   2.797  -0.476   9.081 -4.2336 -2.4276 -1.7273
  815MOL0     H12433   2.985  -0.349   9.029 -0.1180 -0.8894  0.6145
  815MOL0     H12434   3.136  -0.162   9.014 -1.3350  1.4139  0.1612
  815MOL0     H12435   3.151  -0.287   8.890  0.1804  0.6949 -0.4164
  815MOL0     H12436   3.233  -0.089   8.747 -1.4157  4.4236 -1.0849
  815MOL0     H12437   3.206   0.012   8.886  1.8265  1.4984 -1.3359
  815MOL0     H12438   3.353  -0.169   9.012 -0.9192 -1.4718 -0.6150
  815MOL0     H12439   3.413  -0.024   8.933  0.5281 -0.0679 -0.8792
  815MOL0     H12440   3.505  -0.158   8.740  2.5650 -1.1264  0.8205
  815MOL0     H12441   3.393  -0.290   8.780  0.8814 -1.3789  1.3869
  815MOL0     H12442   3.490  -0.343   8.984  2.5293 -0.0363  1.2471
  815MOL0     H12443   3.592  -0.362   8.835 -1.6730 -1.6089 -1.3439
  815MOL0     H12444   3.619  -0.122   9.027  2.0315  2.3892 -1.9745
  815MOL0     H12445   3.740  -0.187   8.915  1.1229  2.2327  0.4124
  815MOL0     H12446   3.723  -0.389   9.093  2.2045  0.9819  0.7029
  815MOL0     H12447   3.623  -0.285   9.186 -0.9586 -2.7455 -0.8477
  815MOL0     H12448   3.824  -0.286   9.287 -0.3774  0.1792  0.1487
  815MOL0     H12449   3.826  -0.124   9.217 -0.4142 -1.1145  3.8688
  815MOL0     H12450   2.759  -0.111   8.760 -0.5954  0.0290 -0.4278
  815MOL0     H12451   2.547  -0.226   8.847  0.9638  4.4253 -0.8539
  815MOL0     H12452   2.335  -0.314   9.087 -0.9319 -0.6603 -0.0018
  815MOL0     H12453   2.127  -0.308   9.204 -0.3121  0.7426  0.3334
  815MOL0     H12454   1.842   0.553   9.249  0.0729 -1.8793 -0.3423
  815MOL0     H12455   2.016   0.450   9.130 -0.2034 -1.9030 -0.5391
  815MOL0     H12456   2.213   0.100   8.923  1.2941 -0.6957 -0.6336
  815MOL0     H12457   2.324  -0.040   8.723  3.3037 -0.2218 -5.8241
  815MOL0     H12458   2.555   0.150   8.457  0.9291 -0.2867  2.9050
  815MOL0     H12459   2.574   0.058   8.599  1.1606  0.6044  0.2549
  815MOL0     H12460   2.556  -0.163   8.443  2.3080 -0.1489  1.1069
  815MOL0     H12461   2.704  -0.080   8.421  0.4120  0.8616  0.3322
  815MOL0     H12462   2.449  -0.031   8.240  0.8269  2.1006 -4.0032
  815MOL0     H12463   2.605   0.044   8.210 -0.8111 -0.7591 -1.4938
  815MOL0     H12464   2.516  -0.172   8.101  0.5470  3.3165 -0.7517
  815MOL0     H12465   2.561  -0.255   8.242  1.1672 -2.4356 -2.9814
  815MOL0     H12466   2.941  -0.223   8.073 -0.0304  0.6941 -1.0762
  815MOL0     H12467   2.329   0.280   8.466  1.1324  1.2007  0.3687
  815MOL0     H12468   2.265   0.530   8.713  0.2011 -0.5539  1.0775
  815MOL0     H12469   2.287   0.484   8.547  3.1133 -1.2236  1.9268
  815MOL0     H12470   2.118   0.490   8.618 -0.0039 -0.6202  0.1662
  816MOL0     O12471   7.440   9.842   4.674  0.1527 -0.0225 -0.6527
  816MOL0     C12472   7.371   9.858   4.577 -0.6561 -0.1622 -0.1300
  816MOL0     O12473   7.420   9.872   4.450 -0.7889 -0.7497  0.0903
  816MOL0     C12474   7.563   9.874   4.440 -0.3978 -0.4878  0.5777
  816MOL0     C12475   7.636   9.970   4.509 -0.5515  0.5471 -0.0612
  816MOL0     C12476   7.772   9.979   4.486  0.3923  0.1698  0.5275
  816MOL0     C12477   7.851   9.881   4.423  0.8538  0.1745 -0.5768
  816MOL0     O12478   7.988   9.892   4.406  0.1945  0.4745 -0.2883
  816MOL0     C12479   8.056   9.769   4.416  0.1018  0.0349 -0.3674
  816MOL0     C12480   8.208   9.783   4.424 -0.3399 -0.9752  0.3559
  816MOL0     C12481   8.271   9.843   4.294 -0.0065  0.4111  0.1911
  816MOL0     C12482   8.257   9.761   4.171  0.2895 -0.1925 -0.6826
  816MOL0     C12483   8.362   9.818   4.057  0.6734 -0.0617  0.2974
  816MOL0     C12484   8.318   9.794   3.916 -0.5374 -0.3011  1.1809
  816MOL0     C12485   8.420   9.834   3.810  0.8713  0.5716  0.4781
  816MOL0     C12486   8.418   9.990   3.777 -0.3411  0.2343  0.7939
  816MOL0     N12487   8.507  10.029   3.659 -0.5469  0.0158  1.0118
  816MOL0     C12488   8.494  10.003   3.525  0.7953 -0.0677  0.1119
  816MOL0     C12489   8.609  10.053   3.471  0.6571  0.4294  0.1511
  816MOL0     C12490   8.647  10.037   3.328 -0.3740  0.2767  0.6695
  816MOL0     C12491   8.729  10.142   3.260 -0.0519  0.7074  0.5828
  816MOL0     C12492   8.798  10.082   3.137 -0.1647 -0.5059 -0.6213
  816MOL0     C12493   8.849  10.194   3.042 -0.4991 -0.1939  0.2211
  816MOL0     O12494   8.944  10.274   3.111 -0.5333 -0.1542 -0.4533
  816MOL0     C12495   9.079  10.272   3.085 -0.5926  0.4812 -0.3031
  816MOL0     C12496   9.135  10.207   2.980  1.1034  0.5174  0.2397
  816MOL0     C12497   9.266  10.222   2.941 -0.1495 -0.5773  0.0525
  816MOL0     C12498   9.303  10.172   2.808  0.1877 -0.5061 -0.0797
  816MOL0     C12499   9.359  10.290   3.039  0.1722  0.2634 -0.3787
  816MOL0     C12500   9.510  10.292   3.022  0.6436 -0.5789 -0.8344
  816MOL0     O12501   9.575  10.371   3.112 -0.2116  0.3522 -0.4571
  816MOL0     C12502   9.714  10.371   3.098 -0.2551 -0.5810 -0.2814
  816MOL0     C12503   9.786  10.380   2.977  0.3952 -0.1664 -0.2774
  816MOL0     C12504   9.925  10.393   2.979  0.6012 -0.2522 -0.0682
  816MOL0     C12505   9.996  10.394   3.101  0.7761  0.4274  0.9428
  816MOL0     O12506  10.132  10.410   3.110 -0.3717  0.3834  0.0728
  816MOL0     C12507  10.199  10.481   3.001 -0.2161 -0.3977 -0.7867
  816MOL0     C12508  10.347  10.514   3.035 -0.2958 -1.2472  0.8400
  816MOL0     C12509  10.436  10.390   3.051  0.7214 -0.4088  0.0357
  816MOL0     C12510  10.583  10.431   3.048  0.5863 -0.5767  0.1264
  816MOL0     C12511  10.677  10.325   3.114 -0.1527 -0.2286  0.7118
  816MOL0     C12512  10.659  10.311   3.262  0.5050  0.4516  0.4584
  816MOL0     C12513  10.710  10.166   3.315 -0.4546 -0.5620 -0.3090
  816MOL0     C12514  10.768  10.170   3.461 -0.4154 -0.7095 -0.5837
  816MOL0    Cl12515  10.914  10.270   3.448  0.3659 -0.1631  0.1553
  816MOL0     C12516   9.925  10.388   3.217 -0.3333  0.2921 -0.1066
  816MOL0     C12517   9.791  10.394   3.222 -0.1730 -0.3921  0.3132
  816MOL0     O12518   9.559  10.230   2.936  0.3090 -0.2770  0.1646
  816MOL0     C12519   9.292  10.370   3.140  0.7310  0.2541  0.2366
  816MOL0     C12520   9.157  10.345   3.171 -0.7862  0.5691  0.0477
  816MOL0     N12521   8.689  10.096   3.573 -0.3265  0.2935 -0.0926
  816MOL0     N12522   8.625  10.090   3.683  0.4686  0.0184  0.0022
  816MOL0     C12523   7.776   9.777   4.369 -0.0106 -0.2467  0.3090
  816MOL0     C12524   7.640   9.776   4.366  0.1472  0.2503 -0.6138
  816MOL0     C12525   7.227   9.845   4.585 -0.3060 -0.0359 -0.4766
  816MOL0     C12526   7.161   9.763   4.490  0.0301 -0.3127  0.3905
  816MOL0     C12527   7.015   9.748   4.499 -0.4241 -0.1083 -0.2077
  816MOL0     C12528   6.942   9.794   4.606 -0.2581  0.3092  0.1479
  816MOL0     O12529   6.810   9.773   4.617 -0.0423 -0.1033  0.1111
  816MOL0     C12530   6.732   9.766   4.506  0.3215  0.1139  0.2938
  816MOL0     C12531   6.589   9.754   4.546  0.3252 -0.7989  0.0450
  816MOL0     C12532   6.541   9.627   4.611  0.6037 -0.5863 -0.4038
  816MOL0     C12533   6.548   9.612   4.767 -1.2951 -0.6585 -0.0436
  816MOL0     C12534   6.468   9.500   4.798 -0.3979 -0.1603 -0.6320
  816MOL0     C12535   6.393   9.414   4.843  0.2720 -0.4794 -0.3738
  816MOL0     C12536   7.010   9.870   4.702 -0.5949  0.5199  0.1632
  816MOL0     C12537   7.146   9.902   4.688 -0.4051  0.0870 -0.3711
  816MOL0     C12538   7.212   9.992   4.790  0.8743 -0.8307 -0.2003
  816MOL0     H12539   7.586  10.052   4.559  1.6970  2.6949 -1.0951
  816MOL0     H12540   7.817  10.071   4.522  1.7238  0.2453 -1.1859
  816MOL0     H12541   8.035   9.713   4.324  0.7712 -1.7878  0.5331
  816MOL0     H12542   8.017   9.718   4.505 -0.3112  2.9577  1.2487
  816MOL0     H12543   8.226   9.841   4.515  2.0297 -1.1610  0.0556
  816MOL0     H12544   8.261   9.689   4.438  0.5638 -0.7090 -1.1508
  816MOL0     H12545   8.223   9.940   4.280  3.7553  2.1048 -2.9304
  816MOL0     H12546   8.375   9.871   4.312  0.8655 -2.2530 -0.1485
  816MOL0     H12547   8.277   9.656   4.195  0.1963 -0.7522 -2.8293
  816MOL0     H12548   8.160   9.771   4.123  1.4413  0.9166 -2.9343
  816MOL0     H12549   8.460   9.773   4.074  0.7458  0.6930  2.1344
  816MOL0     H12550   8.379   9.925   4.073 -1.4903  0.4319 -0.3288
  816MOL0     H12551   8.282   9.691   3.911 -0.4183 -0.3357  1.0410
  816MOL0     H12552   8.235   9.864   3.901  1.5423  2.3149  1.1511
  816MOL0     H12553   8.399   9.775   3.720 -0.5227  0.8498  0.5977
  816MOL0     H12554   8.521   9.814   3.845  0.3241 -1.6191  0.9093
  816MOL0     H12555   8.320  10.035   3.762 -0.2018 -0.4189 -2.9521
  816MOL0     H12556   8.461  10.040   3.864  1.7346  2.0736 -1.1800
  816MOL0     H12557   8.409   9.957   3.475 -0.3605  1.6499  0.4283
  816MOL0     H12558   8.555  10.020   3.271  0.4267 -0.8578 -0.3557
  816MOL0     H12559   8.704   9.944   3.337  1.5481  1.4036  0.8142
  816MOL0     H12560   8.675  10.233   3.232  2.3513  1.1050 -3.5436
  816MOL0     H12561   8.816  10.163   3.323  0.9221 -4.0167  1.1994
  816MOL0     H12562   8.870  10.006   3.166 -2.0378 -2.6693 -1.3185
  816MOL0     H12563   8.728  10.018   3.082 -0.8971 -0.2407 -0.0120
  816MOL0     H12564   8.883  10.142   2.952  0.1909 -0.8674  0.8561
  816MOL0     H12565   8.762  10.249   3.005  1.3056  1.4236 -1.9095
  816MOL0     H12566   9.073  10.154   2.910 -2.0949  1.1649  2.3706
  816MOL0     H12567   9.368  10.247   2.761  1.3946 -2.2226 -1.3216
  816MOL0     H12568   9.217  10.150   2.745  0.4401  0.2594 -0.7183
  816MOL0     H12569   9.368  10.084   2.820 -1.8794 -1.8601  2.1082
  816MOL0     H12570   9.738  10.383   2.879  2.2440 -0.5569 -1.2584
  816MOL0     H12571   9.964  10.407   2.879  0.6523 -0.9165 -0.1441
  816MOL0     H12572  10.199  10.426   2.907  3.9953 -0.4095 -0.9843
  816MOL0     H12573  10.154  10.579   2.981  1.8047  0.5569 -0.9824
  816MOL0     H12574  10.396  10.578   2.961  0.8203  0.4243  2.8862
  816MOL0     H12575  10.343  10.577   3.125 -2.5571  0.7237 -0.5441
  816MOL0     H12576  10.436  10.320   2.967  3.0864  1.3660 -1.5842
  816MOL0     H12577  10.410  10.350   3.150  2.6833  1.0290  1.2111
  816MOL0     H12578  10.595  10.519   3.111  4.3740 -2.1868  1.9782
  816MOL0     H12579  10.616  10.457   2.947 -6.0265  2.2529 -1.8677
  816MOL0     H12580  10.679  10.224   3.072  3.1240 -0.1637  0.4457
  816MOL0     H12581  10.777  10.357   3.082 -0.4637 -1.9151 -2.3650
  816MOL0     H12582  10.551  10.309   3.278 -0.0092 -4.3356 -1.7255
  816MOL0     H12583  10.699  10.390   3.326 -0.0361 -1.5058  3.3792
  816MOL0     H12584  10.784  10.116   3.252 -1.0486 -1.3411 -0.4050
  816MOL0     H12585  10.617  10.109   3.314  0.2447 -1.7594 -1.8240
  816MOL0     H12586  10.801  10.070   3.493 -0.1518 -0.4671 -0.0833
  816MOL0     H12587  10.701  10.206   3.539  0.4455  1.0788 -0.6224
  816MOL0     H12588   9.982  10.397   3.309  1.5170  0.7982 -1.2613
  816MOL0     H12589   9.740  10.401   3.318  0.0072  0.8120  0.3280
  816MOL0     H12590   9.350  10.440   3.199  2.2998 -2.7853  2.6376
  816MOL0     H12591   9.105  10.406   3.244 -3.3700  0.8628 -1.8908
  816MOL0     H12592   7.820   9.690   4.322 -0.2010  1.0196 -2.3715
  816MOL0     H12593   7.588   9.690   4.325  0.0105  0.0221  0.0325
  816MOL0     H12594   7.219   9.711   4.414  0.2294 -2.1767  1.7431
  816MOL0     H12595   6.974   9.694   4.414  0.4739 -1.1059 -0.0346
  816MOL0     H12596   6.740   9.861   4.452  0.6166 -1.9477 -3.6361
  816MOL0     H12597   6.743   9.683   4.436 -3.1864 -0.9532  0.8020
  816MOL0     H12598   6.530   9.781   4.459  1.1314  0.6416 -0.0796
  816MOL0     H12599   6.568   9.837   4.614 -0.2255 -1.8138  1.1633
  816MOL0     H12600   6.434   9.616   4.591 -0.0856  2.5324  1.0741
  816MOL0     H12601   6.582   9.543   4.554  0.6738 -0.6562 -0.2496
  816MOL0     H12602   6.514   9.701   4.822  1.3338  0.7586 -0.5571
  816MOL0     H12603   6.648   9.592   4.805 -0.6427 -1.8346 -2.2242
  816MOL0     H12604   6.314   9.344   4.861  0.0658 -0.3046 -0.5859
  816MOL0     H12605   6.952   9.919   4.778 -2.6342  1.7756 -2.0778
  816MOL0     H12606   7.293   9.948   4.849  1.4255 -0.5357 -0.7350
  816MOL0     H12607   7.270  10.071   4.741 -1.8849  1.0000 -0.7443
  816MOL0     H12608   7.135  10.042   4.850  0.9084 -1.8356  0.7194
  817MOL0     O12609   3.780   0.404   9.711  0.3961  0.4596  0.0482
  817MOL0     C12610   3.897   0.372   9.696 -0.2938 -0.2040  0.2624
  817MOL0     O12611   3.946   0.245   9.726  0.3372  0.1414 -0.0775
  817MOL0     C12612   3.860   0.151   9.773  0.8440  0.4368 -0.3522
  817MOL0     C12613   3.870   0.093   9.902  0.5378  0.8112  0.1556
  817MOL0     C12614   3.760   0.017   9.947  0.1142  0.1297  0.1845
  817MOL0     C12615   3.646  -0.007   9.860 -0.8060  0.1799 -0.0972
  817MOL0     O12616   3.550  -0.081   9.914 -0.2903 -0.0838  0.1463
  817MOL0     C12617   3.519  -0.059  10.052  0.5577 -0.1674 -0.1882
  817MOL0     C12618   3.374  -0.108  10.079 -0.1116  0.3971  0.6530
  817MOL0     C12619   3.354  -0.257  10.085  0.2015  0.0597 -0.1464
  817MOL0     C12620   3.200  -0.280  10.100  0.0060 -0.1076  0.3800
  817MOL0     C12621   3.169  -0.411  10.165 -0.0954  0.3886  0.0690
  817MOL0     C12622   3.022  -0.430  10.190  0.3167  0.4867 -0.4178
  817MOL0     C12623   2.988  -0.545  10.287 -0.0281 -0.7577  0.3681
  817MOL0     C12624   3.015  -0.679  10.214 -0.0678 -0.0287 -0.2631
  817MOL0     N12625   2.988  -0.787  10.306 -0.3786  0.3822  0.3943
  817MOL0     C12626   3.072  -0.834  10.402  0.9192 -0.3226 -1.6383
  817MOL0     C12627   2.995  -0.931  10.464 -0.0978  0.8051 -0.4212
  817MOL0     C12628   3.055  -1.009  10.576 -0.3268 -0.8468 -0.8306
  817MOL0     C12629   2.955  -1.117  10.626  1.0711 -0.2362  0.2660
  817MOL0     C12630   3.008  -1.198  10.749  1.2177  0.5732 -0.7230
  817MOL0     C12631   3.021  -1.117  10.879 -0.5093  0.2687  0.3451
  817MOL0     O12632   3.124  -1.182  10.965  0.0858 -0.0367 -0.0945
  817MOL0     C12633   3.101  -1.286  11.056 -0.1287 -0.1413 -0.0805
  817MOL0     C12634   2.977  -1.356  11.061  0.2072 -0.4588  0.0420
  817MOL0     C12635   2.952  -1.455  11.152  1.2142  0.2023  1.0641
  817MOL0     C12636   2.818  -1.518  11.153 -0.4982 -0.4972  0.0238
  817MOL0     C12637   3.051  -1.485  11.249 -0.4950  0.1660  0.0021
  817MOL0     C12638   3.038  -1.594  11.350  0.0800  0.2135 -1.5917
  817MOL0     O12639   3.128  -1.581  11.450  1.0585  0.1385  0.3004
  817MOL0     C12640   3.110  -1.666  11.556  0.0626  0.3265 -0.1573
  817MOL0     C12641   3.003  -1.666  11.651 -0.4360 -0.4303  0.6117
  817MOL0     C12642   2.990  -1.772  11.743 -0.8003 -0.6490 -0.8085
  817MOL0     C12643   3.082  -1.878  11.745 -0.7434 -0.5426 -0.2448
  817MOL0     O12644   3.075  -1.987  11.822  0.0331  0.6593  0.5582
  817MOL0     C12645   2.961  -2.015  11.899  0.1455  0.4779  0.4570
  817MOL0     C12646   2.850  -2.083  11.825  0.2078  0.1725  0.1676
  817MOL0     C12647   2.872  -2.233  11.817 -0.2598 -0.2884  0.6157
  817MOL0     C12648   2.992  -2.267  11.738 -0.8283  0.9723 -0.0152
  817MOL0     C12649   2.987  -2.419  11.709 -0.3950  0.7774  0.0251
  817MOL0     C12650   3.089  -2.452  11.599  0.9863 -0.2524 -0.5784
  817MOL0     C12651   3.227  -2.444  11.654 -1.4800 -0.2723  0.5611
  817MOL0     C12652   3.330  -2.504  11.567  0.3458 -0.0737 -0.0322
  817MOL0    Cl12653   3.483  -2.498  11.659 -0.0900  0.6145 -0.1574
  817MOL0     C12654   3.189  -1.878  11.650  0.0043 -0.1109 -0.5677
  817MOL0     C12655   3.210  -1.766  11.565 -0.3048  0.2831 -0.2196
  817MOL0     O12656   2.945  -1.677  11.349  0.0556 -0.4495  0.4877
  817MOL0     C12657   3.172  -1.416  11.251 -0.1284 -0.9284  0.0434
  817MOL0     C12658   3.197  -1.315  11.150 -0.5638 -0.0816 -0.3721
  817MOL0     N12659   2.875  -0.931  10.406 -0.5977  0.3410 -0.5366
  817MOL0     N12660   2.866  -0.844  10.306 -1.0623  0.3000 -0.1461
  817MOL0     C12661   3.647   0.038   9.727 -0.0725  1.3737 -0.7372
  817MOL0     C12662   3.753   0.113   9.685 -1.1808 -0.0121 -0.0244
  817MOL0     C12663   3.976   0.483   9.614  0.5796 -0.4440  0.2567
  817MOL0     C12664   3.906   0.596   9.552  0.1570  0.5200  0.3136
  817MOL0     C12665   3.981   0.675   9.478  0.4466 -1.4981 -0.4212
  817MOL0     C12666   4.114   0.677   9.455 -0.6211  0.0080 -0.4913
  817MOL0     O12667   4.169   0.779   9.384  0.0964  0.0393 -0.9608
  817MOL0     C12668   4.312   0.790   9.372  0.5904 -0.5904 -0.1392
  817MOL0     C12669   4.348   0.915   9.288  0.3891  1.2625 -0.9960
  817MOL0     C12670   4.307   1.056   9.320  0.7711  0.3144  0.0247
  817MOL0     C12671   4.384   1.118   9.429  0.3322 -0.0654 -0.2035
  817MOL0     C12672   4.524   1.131   9.416  0.5606 -0.2795  0.9077
  817MOL0     C12673   4.640   1.160   9.391  0.7981  0.5170  0.1609
  817MOL0     C12674   4.183   0.577   9.515  0.0171  0.4951  0.7274
  817MOL0     C12675   4.115   0.472   9.585 -0.6188 -0.9311 -0.1021
  817MOL0     C12676   4.188   0.361   9.641 -1.4712 -0.1820  0.0491
  817MOL0     H12677   3.948   0.116   9.975 -0.2376 -2.2922  2.1420
  817MOL0     H12678   3.760  -0.008  10.052 -3.1820  0.0058  0.2713
  817MOL0     H12679   3.525   0.048  10.072  3.3983 -0.6991  2.4116
  817MOL0     H12680   3.586  -0.117  10.116  0.8302 -1.8445 -1.9184
  817MOL0     H12681   3.345  -0.080  10.181  0.4513  0.3175  0.8367
  817MOL0     H12682   3.318  -0.059   9.998  0.0920 -1.1721 -0.4779
  817MOL0     H12683   3.401  -0.297   9.995  1.2186  0.4241  0.2078
  817MOL0     H12684   3.415  -0.304  10.163  0.3136 -0.9266 -0.8164
  817MOL0     H12685   3.167  -0.199  10.167  0.5750  1.7610 -1.5035
  817MOL0     H12686   3.145  -0.278  10.006 -1.0951 -1.0843  0.9713
  817MOL0     H12687   3.212  -0.426  10.264 -1.9962 -2.5433  0.5822
  817MOL0     H12688   3.203  -0.494  10.102  1.4224  2.6572 -2.3159
  817MOL0     H12689   2.990  -0.338  10.240 -0.6098 -0.4563  0.7964
  817MOL0     H12690   2.968  -0.436  10.095 -0.5501  1.3208 -0.0080
  817MOL0     H12691   2.879  -0.551  10.295 -0.4206  1.5352 -1.9435
  817MOL0     H12692   3.040  -0.544  10.383  2.2948 -0.4302 -0.8043
  817MOL0     H12693   2.961  -0.688  10.119  0.3916 -2.7554 -0.3286
  817MOL0     H12694   3.118  -0.679  10.176  0.4534 -0.4203  1.0932
  817MOL0     H12695   3.178  -0.818  10.422  0.7101 -2.9712  3.1248
  817MOL0     H12696   3.092  -0.946  10.657  0.2651 -1.5488 -0.5503
  817MOL0     H12697   3.150  -1.055  10.549  1.2530  2.3200 -1.2510
  817MOL0     H12698   2.856  -1.078  10.654  1.6451  2.8429 -1.4931
  817MOL0     H12699   2.928  -1.186  10.546  0.7215  0.3248 -0.1096
  817MOL0     H12700   2.934  -1.276  10.772 -0.4701  2.2692 -0.1174
  817MOL0     H12701   3.097  -1.251  10.715 -0.0896 -0.9173 -1.9951
  817MOL0     H12702   3.043  -1.019  10.835 -3.2512  0.4868 -0.7522
  817MOL0     H12703   2.930  -1.102  10.937 -1.8066  0.1131 -1.5731
  817MOL0     H12704   2.897  -1.346  10.989  1.7788 -2.2197 -2.0982
  817MOL0     H12705   2.768  -1.502  11.249 -1.8688 -2.1276 -0.3932
  817MOL0     H12706   2.836  -1.625  11.140 -0.7788 -0.1895 -4.5793
  817MOL0     H12707   2.749  -1.480  11.077 -0.6400  1.2012  0.9457
  817MOL0     H12708   2.942  -1.576  11.647  2.2174  1.4225 -0.3695
  817MOL0     H12709   2.921  -1.764  11.827  0.1739 -1.8244  0.1611
  817MOL0     H12710   2.988  -2.087  11.977 -1.4264  0.0926  0.6656
  817MOL0     H12711   2.919  -1.929  11.950 -2.2199 -0.3198 -0.0284
  817MOL0     H12712   2.756  -2.074  11.879 -2.3126  0.2115 -3.7636
  817MOL0     H12713   2.836  -2.047  11.722  0.8362 -1.6896 -0.6140
  817MOL0     H12714   2.784  -2.278  11.769 -0.0013  2.1309 -2.4087
  817MOL0     H12715   2.878  -2.275  11.918  0.0676 -2.5133 -0.2768
  817MOL0     H12716   3.082  -2.240  11.793  1.3664 -1.7198 -2.0050
  817MOL0     H12717   2.990  -2.207  11.647  4.3250  1.2325 -0.2198
  817MOL0     H12718   3.002  -2.473  11.804  0.3496  2.7956  1.1224
  817MOL0     H12719   2.889  -2.449  11.673 -1.1351  0.7251  1.9290
  817MOL0     H12720   3.086  -2.382  11.515  0.4947  1.9241  1.1420
  817MOL0     H12721   3.073  -2.553  11.561  1.2464 -0.6924  0.4527
  817MOL0     H12722   3.233  -2.503  11.746  0.8060 -0.7668  0.1727
  817MOL0     H12723   3.265  -2.343  11.674  2.7611 -1.0488 -2.1843
  817MOL0     H12724   3.353  -2.439  11.482  3.9357 -0.1301  0.7303
  817MOL0     H12725   3.313  -2.608  11.542 -1.1374  0.6636 -2.3223
  817MOL0     H12726   3.260  -1.959  11.664  0.4894  0.4943  0.6492
  817MOL0     H12727   3.287  -1.765  11.488 -2.3998  0.2545 -2.4269
  817MOL0     H12728   3.247  -1.435  11.326  0.2036 -5.0121 -1.0546
  817MOL0     H12729   3.296  -1.271  11.143 -0.4993  0.0232  0.9634
  817MOL0     H12730   3.571   0.015   9.653  1.0572 -0.1002 -1.4954
  817MOL0     H12731   3.775   0.126   9.579  0.6992 -1.7275  0.0974
  817MOL0     H12732   3.798   0.605   9.557  0.0056 -0.8868  0.0155
  817MOL0     H12733   3.926   0.742   9.412  1.3230 -0.9743 -0.6297
  817MOL0     H12734   4.361   0.816   9.466  1.7948  4.2225 -1.7833
  817MOL0     H12735   4.356   0.699   9.331 -0.1756 -0.1909 -1.9793
  817MOL0     H12736   4.315   0.888   9.187  0.6316 -1.7116 -0.3973
  817MOL0     H12737   4.458   0.909   9.289  0.3481 -1.7086  1.2167
  817MOL0     H12738   4.318   1.104   9.222  0.8578 -3.6814 -2.1164
  817MOL0     H12739   4.199   1.055   9.337  0.3890 -1.2349 -2.1336
  817MOL0     H12740   4.361   1.067   9.523 -0.8587 -0.0059 -0.4476
  817MOL0     H12741   4.351   1.222   9.441 -0.8426 -0.6553  2.5103
  817MOL0     H12742   4.743   1.183   9.373  1.9219 -3.9711 -0.1394
  817MOL0     H12743   4.291   0.586   9.510  0.3669 -3.2402 -1.8551
  817MOL0     H12744   4.169   0.323   9.741 -0.2964 -1.1944 -0.0867
  817MOL0     H12745   4.175   0.275   9.574 -3.0731 -1.3996  1.8442
  817MOL0     H12746   4.293   0.391   9.632 -2.1862  2.7613  0.6632
  818MOL0     O12747   1.354   4.466   9.872  0.0538  0.7382 -0.1759
  818MOL0     C12748   1.347   4.489   9.755 -0.6666  0.2053 -0.4140
  818MOL0     O12749   1.449   4.546   9.680  0.1755 -0.0463  0.5241
  818MOL0     C12750   1.575   4.570   9.736 -0.1144 -0.5847  0.0932
  818MOL0     C12751   1.668   4.463   9.744  0.2818 -0.3219  0.2957
  818MOL0     C12752   1.792   4.485   9.804 -0.6331 -0.3746  0.2150
  818MOL0     C12753   1.830   4.608   9.864  0.2972 -0.1543 -0.4524
  818MOL0     O12754   1.938   4.631   9.939  0.0830 -0.7513 -0.6041
  818MOL0     C12755   2.004   4.516   9.978  0.5931 -0.1298 -0.1903
  818MOL0     C12756   2.118   4.533  10.084  0.2688 -1.1162 -0.0049
  818MOL0     C12757   2.225   4.424  10.065 -1.1459  0.2601 -0.6385
  818MOL0     C12758   2.348   4.464  10.155 -0.3038 -0.0374  0.1632
  818MOL0     C12759   2.424   4.343  10.213  0.8635  0.6794  0.2611
  818MOL0     C12760   2.504   4.270  10.094  0.0344  1.2540 -0.2467
  818MOL0     C12761   2.567   4.136  10.148  0.2769 -0.1365 -0.3544
  818MOL0     C12762   2.652   4.058  10.043 -0.1568  0.2458  0.7058
  818MOL0     N12763   2.762   4.140   9.997  0.0478 -0.5844 -0.5348
  818MOL0     C12764   2.851   4.199  10.088 -0.2083 -0.1329  0.0439
  818MOL0     C12765   2.941   4.260  10.009 -0.5858  0.0843  0.5364
  818MOL0     C12766   3.071   4.325  10.051  0.0980  0.1412  0.0256
  818MOL0     C12767   3.196   4.266   9.974  0.2296 -0.5631  1.0314
  818MOL0     C12768   3.222   4.130  10.023 -0.8275 -0.3470 -0.8401
  818MOL0     C12769   3.373   4.098   9.989  0.2597 -0.7408  0.8078
  818MOL0     O12770   3.467   4.154  10.082  0.0826  0.3325 -0.2981
  818MOL0     C12771   3.604   4.122  10.058 -0.0541  0.1939  1.1402
  818MOL0     C12772   3.698   4.183  10.133 -0.1587 -0.1665 -0.2239
  818MOL0     C12773   3.833   4.166  10.112 -1.3348  0.0937  0.2575
  818MOL0     C12774   3.925   4.272  10.177 -0.3298  0.0993  0.4312
  818MOL0     C12775   3.883   4.071  10.008  0.0168  0.9369  0.1286
  818MOL0     C12776   4.028   4.031   9.973  0.1757 -0.2699  0.7796
  818MOL0     O12777   4.045   3.915   9.896  0.4041 -0.6165 -0.0905
  818MOL0     C12778   4.165   3.849   9.868  0.0079 -0.0258 -0.1766
  818MOL0     C12779   4.300   3.896   9.900  0.0854 -0.4775 -0.7541
  818MOL0     C12780   4.411   3.837   9.852  0.0665 -0.3435  0.3877
  818MOL0     C12781   4.408   3.717   9.781  0.7005 -0.6088  0.4343
  818MOL0     O12782   4.521   3.642   9.747  0.2379 -0.7240  0.3281
  818MOL0     C12783   4.623   3.645   9.839  0.2453  0.4603 -0.5501
  818MOL0     C12784   4.737   3.539   9.814 -0.1253 -0.3618 -0.0932
  818MOL0     C12785   4.843   3.549   9.932  0.6720 -0.9774 -0.2010
  818MOL0     C12786   4.960   3.444   9.931  0.1203 -0.7189  0.1258
  818MOL0     C12787   5.040   3.453   9.808 -0.8145 -0.5315 -0.0191
  818MOL0     C12788   5.177   3.387   9.832  0.3639  0.3551  0.6217
  818MOL0     C12789   5.283   3.444   9.734 -0.2592  0.2823 -0.0293
  818MOL0     C12790   5.419   3.386   9.767  0.0200 -0.0589 -0.3590
  818MOL0    Cl12791   5.543   3.445   9.647 -0.2259 -0.4436  0.0767
  818MOL0     C12792   4.275   3.664   9.750  0.2546  0.5859  0.0363
  818MOL0     C12793   4.158   3.734   9.785 -0.4747  0.2166 -0.5444
  818MOL0     O12794   4.117   4.096  10.025  0.0764  0.2276  0.5844
  818MOL0     C12795   3.785   4.000   9.937  0.2004 -0.4269 -0.6630
  818MOL0     C12796   3.647   4.016   9.973 -0.5789  0.1528  0.5891
  818MOL0     N12797   2.908   4.236   9.877  0.6448  0.2831  0.0587
  818MOL0     N12798   2.808   4.160   9.868  0.1622  0.1618  0.1715
  818MOL0     C12799   1.735   4.716   9.842 -0.1028 -0.0088  0.0314
  818MOL0     C12800   1.612   4.694   9.782 -0.6568 -0.5007  0.1806
  818MOL0     C12801   1.231   4.441   9.684 -0.1125  0.5732  0.7407
  818MOL0     C12802   1.161   4.329   9.720 -0.2953  0.3365 -0.2520
  818MOL0     C12803   1.038   4.289   9.652 -0.2851  0.4399  0.2033
  818MOL0     C12804   0.994   4.355   9.538  0.0767 -0.4468 -0.3277
  818MOL0     O12805   0.898   4.314   9.451  0.6383  0.5130  0.1901
  818MOL0     C12806   0.827   4.187   9.463  0.0745 -1.0086 -0.6765
  818MOL0     C12807   0.719   4.166   9.349  1.6126 -0.3287 -0.5086
  818MOL0     C12808   0.600   4.073   9.392 -0.0685  0.2166  0.0193
  818MOL0     C12809   0.647   3.927   9.408  0.7574 -0.4754  0.1227
  818MOL0     C12810   0.706   3.905   9.543 -0.0740  0.8838  0.4138
  818MOL0     C12811   0.756   3.894   9.647 -0.7519  0.0063  0.3867
  818MOL0     C12812   1.062   4.466   9.502  0.5691 -0.8492 -0.3766
  818MOL0     C12813   1.181   4.512   9.568  0.4163  1.2668  0.2102
  818MOL0     C12814   1.236   4.642   9.523  0.2555  0.9315  0.1089
  818MOL0     H12815   1.644   4.365   9.701  1.6055 -0.8278  0.6623
  818MOL0     H12816   1.864   4.403   9.804 -1.1138 -0.8088 -0.2894
  818MOL0     H12817   2.049   4.484   9.883 -0.5991 -0.1266 -0.7685
  818MOL0     H12818   1.936   4.434  10.005  2.9526 -2.5337 -1.0239
  818MOL0     H12819   2.161   4.633  10.073 -0.3025 -0.8147  0.4384
  818MOL0     H12820   2.080   4.532  10.187  0.4047 -0.1379  0.0623
  818MOL0     H12821   2.185   4.331  10.104  0.4083 -1.7178 -3.4365
  818MOL0     H12822   2.258   4.415   9.961 -1.0907  0.3844 -0.6323
  818MOL0     H12823   2.424   4.522  10.102  1.4685  0.6975  3.2015
  818MOL0     H12824   2.319   4.525  10.241  1.4965 -0.9782  1.5127
  818MOL0     H12825   2.351   4.271  10.251  0.0007  0.9835 -0.7745
  818MOL0     H12826   2.477   4.380  10.302 -0.5052  0.5197  1.1785
  818MOL0     H12827   2.433   4.235  10.018  2.0133 -0.8589 -1.2362
  818MOL0     H12828   2.577   4.342  10.058 -2.3627  2.5328 -2.9576
  818MOL0     H12829   2.489   4.070  10.187 -0.1365  0.2944 -0.4453
  818MOL0     H12830   2.625   4.169  10.234  1.5326 -0.7463 -0.9444
  818MOL0     H12831   2.686   3.961  10.081  1.2952  0.8073  0.8830
  818MOL0     H12832   2.594   4.032   9.954  0.6445 -2.9628  1.0016
  818MOL0     H12833   2.855   4.174  10.193 -1.8265  0.9283  0.3978
  818MOL0     H12834   3.091   4.307  10.157  0.5696 -0.4516 -0.1573
  818MOL0     H12835   3.073   4.433  10.034  3.9349  0.3391  0.7182
  818MOL0     H12836   3.185   4.268   9.866  0.5601  0.0283  1.0014
  818MOL0     H12837   3.276   4.336   9.999  0.4295 -0.1586 -0.6259
  818MOL0     H12838   3.200   4.107  10.128 -1.5568  1.2631 -0.5977
  818MOL0     H12839   3.177   4.051   9.962  1.2484 -0.1353 -2.7925
  818MOL0     H12840   3.374   3.992  10.014 -0.5201 -0.4121  2.3737
  818MOL0     H12841   3.392   4.118   9.883 -2.6090 -0.6909  0.2232
  818MOL0     H12842   3.661   4.260  10.199  0.5887 -0.2878  0.3584
  818MOL0     H12843   3.998   4.224  10.242  1.1853  0.9455 -0.5887
  818MOL0     H12844   3.868   4.339  10.242  0.4980  1.5092 -0.2326
  818MOL0     H12845   3.980   4.332  10.104  3.1418  0.6285  3.2476
  818MOL0     H12846   4.309   3.991   9.951 -0.7959  1.2754 -3.6559
  818MOL0     H12847   4.504   3.885   9.881  1.9308 -0.4859 -4.3934
  818MOL0     H12848   4.672   3.742   9.850 -0.6888  1.0810 -1.6594
  818MOL0     H12849   4.574   3.622   9.934 -3.4988  0.7687 -2.2377
  818MOL0     H12850   4.697   3.437   9.812 -2.9755  0.6325  1.3679
  818MOL0     H12851   4.785   3.556   9.717  1.1665 -0.6677  0.4690
  818MOL0     H12852   4.783   3.521  10.019 -2.4653 -1.0822 -2.2525
  818MOL0     H12853   4.887   3.649   9.937  2.3406 -1.7161  3.2595
  818MOL0     H12854   4.920   3.342   9.933  0.4191 -0.8269  1.4578
  818MOL0     H12855   5.008   3.455  10.029  0.4422  1.7009 -0.2420
  818MOL0     H12856   4.988   3.421   9.717 -0.9403  0.9741 -0.5082
  818MOL0     H12857   5.062   3.558   9.787  2.4112 -1.0604  0.2245
  818MOL0     H12858   5.165   3.278   9.838  1.6246  0.2555  1.8317
  818MOL0     H12859   5.207   3.419   9.932 -0.0892  0.7835  0.6237
  818MOL0     H12860   5.295   3.553   9.733  1.5193  0.1659  1.7320
  818MOL0     H12861   5.273   3.412   9.630  1.4413  0.0106 -0.1369
  818MOL0     H12862   5.423   3.277   9.776  0.0348 -0.1138 -0.9928
  818MOL0     H12863   5.439   3.437   9.862 -1.1909 -0.5161  0.1537
  818MOL0     H12864   4.263   3.564   9.708 -1.8380  1.3454 -1.3406
  818MOL0     H12865   4.063   3.694   9.750 -1.7455  2.3215  0.2888
  818MOL0     H12866   3.815   3.918   9.873  2.7320 -0.5950  0.6256
  818MOL0     H12867   3.587   3.946   9.915  0.4511 -1.6707  1.6432
  818MOL0     H12868   1.762   4.818   9.867 -1.5807  0.0995  1.3363
  818MOL0     H12869   1.537   4.772   9.775  0.4327  0.4108 -2.5330
  818MOL0     H12870   1.183   4.283   9.816 -1.1568 -1.6497 -0.9664
  818MOL0     H12871   0.998   4.199   9.697 -1.6744  1.9043  2.0587
  818MOL0     H12872   0.904   4.110   9.462  1.8111  0.6379 -0.6083
  818MOL0     H12873   0.774   4.196   9.559 -0.6157 -0.4281 -1.0966
  818MOL0     H12874   0.753   4.122   9.255 -2.0256  0.5016 -2.3980
  818MOL0     H12875   0.671   4.263   9.332  0.3350 -1.1632 -1.8995
  818MOL0     H12876   0.554   4.113   9.483  1.2989  1.9220  0.0131
  818MOL0     H12877   0.523   4.065   9.314 -1.8279  1.2964  1.5593
  818MOL0     H12878   0.723   3.902   9.333 -0.4807 -0.2537 -1.2569
  818MOL0     H12879   0.564   3.858   9.391  0.4995  0.0558 -0.8298
  818MOL0     H12880   0.784   3.887   9.750  0.7163  2.4459  0.2345
  818MOL0     H12881   1.030   4.518   9.412  1.5952 -2.1158 -1.5107
  818MOL0     H12882   1.154   4.701   9.480 -1.3042 -1.6627 -0.7419
  818MOL0     H12883   1.272   4.701   9.607 -0.7918  1.2536  0.3521
  818MOL0     H12884   1.311   4.631   9.444 -0.0236  0.7942 -0.1395
  819MOL0     O12885   5.192   3.545   8.494 -0.0355 -0.1445 -1.0756
  819MOL0     C12886   5.105   3.530   8.578 -0.4416 -0.1819  0.9294
  819MOL0     O12887   5.132   3.513   8.707  0.0638 -0.0661 -0.3826
  819MOL0     C12888   5.261   3.476   8.737 -0.1378  0.2430  0.3171
  819MOL0     C12889   5.315   3.356   8.696  0.6471  0.8057 -0.3577
  819MOL0     C12890   5.454   3.335   8.718  0.4500  0.4677 -0.5238
  819MOL0     C12891   5.531   3.432   8.781  0.0802  0.6737  0.1515
  819MOL0     O12892   5.657   3.395   8.799  0.4796 -0.5503 -0.5578
  819MOL0     C12893   5.728   3.415   8.684 -0.4598 -0.1375  0.4673
  819MOL0     C12894   5.880   3.416   8.705 -0.7970 -0.7734  0.0384
  819MOL0     C12895   5.928   3.422   8.852 -0.3375 -0.9361  0.1292
  819MOL0     C12896   6.072   3.462   8.867 -0.1890 -0.3119 -0.0756
  819MOL0     C12897   6.137   3.440   9.004 -0.2153 -0.6111 -0.1151
  819MOL0     C12898   6.288   3.479   8.995  1.0005  0.3474 -0.2252
  819MOL0     C12899   6.361   3.436   9.127  0.5967  0.1932 -0.5994
  819MOL0     C12900   6.389   3.292   9.122 -0.1926 -0.1133  0.8140
  819MOL0     N12901   6.426   3.245   9.251 -0.1432 -0.6877 -0.6328
  819MOL0     C12902   6.554   3.252   9.308  0.1770  0.0737 -0.1334
  819MOL0     C12903   6.541   3.194   9.422 -0.3444 -0.2621  0.1792
  819MOL0     C12904   6.655   3.181   9.517 -0.9524 -0.4467  0.4860
  819MOL0     C12905   6.703   3.321   9.566 -0.0143  0.5328  1.0382
  819MOL0     C12906   6.826   3.306   9.661 -0.0043  0.5920  0.6000
  819MOL0     C12907   6.912   3.432   9.690 -0.4461  0.8635 -0.4809
  819MOL0     O12908   7.022   3.417   9.787 -0.2810 -0.4193 -0.5262
  819MOL0     C12909   7.144   3.351   9.748  0.5077 -0.4104 -0.5584
  819MOL0     C12910   7.235   3.311   9.846 -0.4302 -0.7145 -0.9013
  819MOL0     C12911   7.365   3.253   9.821  0.6868 -0.0437  0.1817
  819MOL0     C12912   7.453   3.230   9.948 -0.0323  1.0119 -0.1945
  819MOL0     C12913   7.380   3.196   9.694 -0.0582 -0.4920  0.2845
  819MOL0     C12914   7.507   3.134   9.645 -0.6882  0.1945  0.5608
  819MOL0     O12915   7.512   3.101   9.514 -0.0578  0.0729 -0.2553
  819MOL0     C12916   7.627   3.056   9.465 -0.6540  0.1991  0.2831
  819MOL0     C12917   7.614   2.935   9.389 -0.5866 -0.3788 -0.0239
  819MOL0     C12918   7.725   2.895   9.305 -1.0918 -0.0001 -0.1815
  819MOL0     C12919   7.844   2.966   9.300  0.2993  0.1409 -0.9319
  819MOL0     O12920   7.951   2.921   9.229 -0.2226  0.3712  0.0383
  819MOL0     C12921   7.967   2.793   9.167  0.0482  0.0975 -0.6913
  819MOL0     C12922   8.082   2.828   9.077 -0.8182 -0.8648 -0.0855
  819MOL0     C12923   8.119   2.704   8.991 -0.7876 -0.0253  0.8180
  819MOL0     C12924   8.257   2.710   8.930 -0.5616 -0.2887  0.3977
  819MOL0     C12925   8.291   2.625   8.812 -0.3159 -0.4716  0.7081
  819MOL0     C12926   8.435   2.649   8.760 -0.6875  0.2018  0.1842
  819MOL0     C12927   8.473   2.793   8.724  0.4040 -0.2137 -0.1344
  819MOL0     C12928   8.615   2.797   8.667 -0.6233 -0.8456 -0.2366
  819MOL0    Cl12929   8.740   2.784   8.792  0.4289  0.1376  0.1156
  819MOL0     C12930   7.854   3.083   9.379  0.2158  0.6731  0.2535
  819MOL0     C12931   7.747   3.129   9.450 -0.2171  0.2868  0.0339
  819MOL0     O12932   7.606   3.142   9.712  0.0788  0.7178 -0.4648
  819MOL0     C12933   7.286   3.231   9.595 -0.1588  0.7173  0.1357
  819MOL0     C12934   7.178   3.315   9.619 -0.1422  0.6835  0.0380
  819MOL0     N12935   6.408   3.154   9.440  0.7285 -0.1767 -0.4419
  819MOL0     N12936   6.337   3.183   9.330  0.0615 -0.6728 -0.8370
  819MOL0     C12937   5.478   3.555   8.819 -0.3539  0.2859 -0.4611
  819MOL0     C12938   5.340   3.574   8.801 -0.3190  0.4116 -0.5272
  819MOL0     C12939   4.959   3.528   8.526 -0.1979  0.8594 -0.8565
  819MOL0     C12940   4.863   3.519   8.632  0.1358  0.0346  0.8207
  819MOL0     C12941   4.721   3.530   8.600 -0.4660 -0.5234 -0.3681
  819MOL0     C12942   4.683   3.545   8.465  1.0817 -0.0951 -0.7837
  819MOL0     O12943   4.555   3.547   8.415 -0.0830  0.7636 -0.1428
  819MOL0     C12944   4.460   3.638   8.475 -0.0146 -0.1159 -0.8451
  819MOL0     C12945   4.350   3.660   8.372 -0.8416  0.0744  0.4109
  819MOL0     C12946   4.297   3.534   8.315 -0.6875 -0.5071 -0.1027
  819MOL0     C12947   4.179   3.556   8.218 -0.6617  0.4120  0.0379
  819MOL0     C12948   4.067   3.626   8.277  0.7021  0.3197 -0.0876
  819MOL0     C12949   3.985   3.686   8.333  0.5947 -0.0741 -0.9153
  819MOL0     C12950   4.780   3.543   8.364  0.1752 -0.3480 -0.3127
  819MOL0     C12951   4.916   3.537   8.393 -0.5203  0.6909  0.4378
  819MOL0     C12952   5.008   3.544   8.272 -0.6227 -0.5641 -0.1040
  819MOL0     H12953   5.257   3.278   8.650  0.0894  2.3104 -2.3392
  819MOL0     H12954   5.492   3.244   8.674 -4.2395 -2.3637  0.6069
  819MOL0     H12955   5.699   3.508   8.634  1.1558 -0.2281 -0.7145
  819MOL0     H12956   5.708   3.327   8.622  1.9637 -0.6495  0.3248
  819MOL0     H12957   5.942   3.345   8.650 -0.4820  0.3370 -1.0981
  819MOL0     H12958   5.910   3.513   8.664  2.3834 -1.4225  0.5281
  819MOL0     H12959   5.873   3.500   8.905 -0.6067 -0.7009 -0.4926
  819MOL0     H12960   5.920   3.321   8.895 -1.3340 -0.4885  1.0504
  819MOL0     H12961   6.131   3.404   8.795  3.0323  1.4625  0.9206
  819MOL0     H12962   6.086   3.568   8.845 -1.5640 -0.0774  0.0841
  819MOL0     H12963   6.123   3.335   9.030  1.1937 -0.7262  0.2409
  819MOL0     H12964   6.097   3.509   9.079  1.1284 -1.0856  1.0931
  819MOL0     H12965   6.321   3.432   8.901 -0.7237  0.6613 -1.0164
  819MOL0     H12966   6.306   3.584   8.971  1.9988  0.8709  2.4650
  819MOL0     H12967   6.291   3.442   9.211 -1.3591 -2.9471 -1.8214
  819MOL0     H12968   6.452   3.490   9.153  1.4867 -0.9994 -1.0930
  819MOL0     H12969   6.300   3.236   9.091 -0.3807  0.7234 -0.2133
  819MOL0     H12970   6.466   3.264   9.050 -0.7069  1.7552 -0.5354
  819MOL0     H12971   6.644   3.297   9.266  0.4566 -0.0020  0.3823
  819MOL0     H12972   6.738   3.125   9.473  0.1729  0.9220  0.7832
  819MOL0     H12973   6.611   3.127   9.602 -0.9876 -0.4689  0.4541
  819MOL0     H12974   6.708   3.395   9.486 -2.0094  0.6744  0.9836
  819MOL0     H12975   6.619   3.350   9.630  1.6429  3.5591  2.0705
  819MOL0     H12976   6.798   3.252   9.753 -1.4482  2.0475  1.0547
  819MOL0     H12977   6.892   3.233   9.612  0.3351  0.2564  1.5230
  819MOL0     H12978   6.950   3.463   9.592  2.0386  1.0998  0.4826
  819MOL0     H12979   6.859   3.520   9.728 -2.7232 -0.5897 -0.0930
  819MOL0     H12980   7.228   3.353   9.945 -0.5040 -0.5174 -0.9898
  819MOL0     H12981   7.432   3.136  10.000 -1.5958  1.3380 -0.1938
  819MOL0     H12982   7.453   3.308  10.025 -0.6007  0.1195  0.7360
  819MOL0     H12983   7.561   3.216   9.931  0.1895 -0.0042  1.7132
  819MOL0     H12984   7.523   2.878   9.400 -2.2277  2.1445  0.3304
  819MOL0     H12985   7.710   2.806   9.245  0.9031 -0.3885 -0.1417
  819MOL0     H12986   8.004   2.714   9.233 -1.3327  0.1344  0.1710
  819MOL0     H12987   7.877   2.765   9.111  0.1466  3.5122 -2.8653
  819MOL0     H12988   8.071   2.912   9.009  2.1925 -0.1326  0.1811
  819MOL0     H12989   8.164   2.855   9.144 -1.2206  0.2993 -0.0514
  819MOL0     H12990   8.051   2.694   8.906 -0.0512 -0.2721  0.2465
  819MOL0     H12991   8.115   2.607   9.043 -2.8501 -0.9268 -0.8514
  819MOL0     H12992   8.322   2.683   9.013 -0.2943 -0.4209  0.1483
  819MOL0     H12993   8.271   2.808   8.882  1.0309 -2.2044 -3.5583
  819MOL0     H12994   8.287   2.521   8.844  1.3576 -0.6534  0.4456
  819MOL0     H12995   8.220   2.643   8.731  1.7298 -0.8875 -1.2924
  819MOL0     H12996   8.453   2.602   8.663  2.2019  0.4615  0.5181
  819MOL0     H12997   8.507   2.606   8.830 -0.6798 -0.6712 -0.3421
  819MOL0     H12998   8.463   2.867   8.804 -0.8871  0.2357 -0.6950
  819MOL0     H12999   8.407   2.825   8.644  1.7725 -0.0465 -1.2287
  819MOL0     H13000   8.623   2.896   8.621  0.7158 -0.9922 -0.3608
  819MOL0     H13001   8.635   2.724   8.588 -1.5671 -1.5885  0.1885
  819MOL0     H13002   7.954   3.127   9.378 -0.0833  1.3544 -0.4000
  819MOL0     H13003   7.768   3.226   9.495  1.0826  0.6013 -1.1988
  819MOL0     H13004   7.305   3.191   9.496  0.2998 -0.8412  0.8199
  819MOL0     H13005   7.100   3.339   9.547 -1.9247 -0.2071  1.5742
  819MOL0     H13006   5.541   3.629   8.866 -0.7069 -0.1805  0.7813
  819MOL0     H13007   5.295   3.670   8.821 -1.1784 -0.3726  1.5902
  819MOL0     H13008   4.896   3.503   8.734  0.1799 -1.1800  0.6383
  819MOL0     H13009   4.640   3.513   8.670  0.3951 -2.8472  0.1590
  819MOL0     H13010   4.408   3.586   8.556 -2.2391  0.2450 -1.9550
  819MOL0     H13011   4.516   3.726   8.506 -2.2612  1.1569 -0.1821
  819MOL0     H13012   4.402   3.712   8.290 -2.0132  2.9711  1.3778
  819MOL0     H13013   4.277   3.729   8.415 -0.5632  2.8793 -3.1836
  819MOL0     H13014   4.377   3.490   8.255  0.9267  2.1574 -0.0514
  819MOL0     H13015   4.274   3.465   8.396 -0.1233  0.9157  1.3089
  819MOL0     H13016   4.151   3.455   8.184  1.4501  0.6125 -2.6044
  819MOL0     H13017   4.208   3.610   8.127 -0.1432  0.5265  0.2737
  819MOL0     H13018   3.902   3.745   8.366 -1.6972 -3.4126 -0.1734
  819MOL0     H13019   4.753   3.538   8.260 -2.6582 -2.6336  0.4315
  819MOL0     H13020   5.094   3.478   8.288 -0.0321  0.3986  0.8801
  819MOL0     H13021   4.960   3.541   8.174  2.1846  0.0172 -1.5953
  819MOL0     H13022   5.049   3.645   8.284  0.1291 -1.0286  1.5721
  820MOL0     O13023   0.741   1.193   6.651  0.1659  0.1232 -0.2719
  820MOL0     C13024   0.693   1.261   6.557  0.0469  0.8283  0.4784
  820MOL0     O13025   0.764   1.309   6.461  0.6157 -0.1061  0.0304
  820MOL0     C13026   0.900   1.324   6.482 -1.0239 -0.1501 -0.8721
  820MOL0     C13027   0.954   1.453   6.514  0.5216 -0.8092  0.1587
  820MOL0     C13028   1.094   1.476   6.516 -0.0671  0.0171  0.0754
  820MOL0     C13029   1.186   1.377   6.495  0.2857 -0.0643 -0.7512
  820MOL0     O13030   1.318   1.401   6.501  0.0381  0.0039  0.0641
  820MOL0     C13031   1.365   1.478   6.614 -0.0125 -0.3702 -0.3703
  820MOL0     C13032   1.514   1.450   6.619 -0.6861 -0.2456  0.5466
  820MOL0     C13033   1.591   1.471   6.491 -0.6991 -0.1060 -0.0842
  820MOL0     C13034   1.740   1.468   6.516 -0.0229  0.4269  0.2254
  820MOL0     C13035   1.793   1.326   6.529  0.1898 -0.0421 -0.1917
  820MOL0     C13036   1.940   1.331   6.536  0.1381  0.5882  1.4581
  820MOL0     C13037   1.991   1.189   6.495 -0.3851 -0.6560  0.3735
  820MOL0     C13038   2.126   1.154   6.563  0.1130 -0.0373  1.0931
  820MOL0     N13039   2.239   1.240   6.529  0.5794 -0.0188  0.3970
  820MOL0     C13040   2.331   1.210   6.435  0.7647 -0.5545  0.2174
  820MOL0     C13041   2.409   1.322   6.441 -0.5669 -0.0617 -0.0695
  820MOL0     C13042   2.525   1.351   6.345 -0.1194 -0.1548  0.6092
  820MOL0     C13043   2.657   1.290   6.398  0.8587  0.3360  0.5658
  820MOL0     C13044   2.653   1.147   6.455  0.0378  0.6387  0.3482
  820MOL0     C13045   2.786   1.069   6.464  0.8111 -0.0092 -0.3589
  820MOL0     O13046   2.817   1.070   6.605 -1.1960  0.2579 -0.4627
  820MOL0     C13047   2.930   0.990   6.639 -0.6990  0.4586  0.1151
  820MOL0     C13048   2.959   0.978   6.776  0.7648  0.6622  0.2762
  820MOL0     C13049   3.069   0.907   6.825  0.0034 -0.7259  0.4106
  820MOL0     C13050   3.104   0.904   6.974 -0.8514 -0.3525 -0.1024
  820MOL0     C13051   3.141   0.827   6.732 -0.4980 -0.0874 -0.0487
  820MOL0     C13052   3.263   0.757   6.764  0.1236  0.6112 -0.1335
  820MOL0     O13053   3.268   0.701   6.891  0.5382 -0.2898  0.7619
  820MOL0     C13054   3.375   0.618   6.912 -0.2932 -0.8293  0.1651
  820MOL0     C13055   3.500   0.666   6.955  0.2058 -0.1390  0.2786
  820MOL0     C13056   3.609   0.587   6.967 -0.5185  0.6651  0.4058
  820MOL0     C13057   3.595   0.446   6.940 -0.1184  0.2223  0.0439
  820MOL0     O13058   3.704   0.362   6.962  0.5052 -0.1918  0.5151
  820MOL0     C13059   3.706   0.230   6.897  0.2227 -0.2610 -0.4576
  820MOL0     C13060   3.841   0.173   6.867 -0.6034  0.6563  0.6642
  820MOL0     C13061   3.935   0.169   6.990  0.6232 -0.0063 -0.2087
  820MOL0     C13062   4.042   0.053   6.965  0.6066  1.3632 -0.3857
  820MOL0     C13063   4.183   0.109   6.943 -0.2071 -0.5757  0.9719
  820MOL0     C13064   4.293   0.017   6.903 -0.1762  0.5540  0.3528
  820MOL0     C13065   4.368  -0.033   7.024 -0.5104  0.3392 -0.0616
  820MOL0     C13066   4.476  -0.136   6.988  0.2346  0.1508  0.2332
  820MOL0    Cl13067   4.605  -0.060   6.897 -0.0640 -0.2091 -0.3546
  820MOL0     C13068   3.469   0.397   6.903  0.0394 -0.0531  1.0855
  820MOL0     C13069   3.365   0.486   6.877 -0.7061  0.5575 -0.4502
  820MOL0     O13070   3.349   0.745   6.676 -0.5365  0.1255  0.1823
  820MOL0     C13071   3.095   0.823   6.595 -0.3476  0.2157 -0.8011
  820MOL0     C13072   2.994   0.900   6.549 -0.0044 -0.0346 -0.1678
  820MOL0     N13073   2.366   1.414   6.529 -0.4361 -0.0142 -0.2978
  820MOL0     N13074   2.263   1.355   6.592 -0.8185 -0.7177 -0.0361
  820MOL0     C13075   1.138   1.248   6.458 -0.5489  0.5462 -0.5897
  820MOL0     C13076   1.000   1.226   6.454 -0.2866  0.4658  0.3982
  820MOL0     C13077   0.545   1.288   6.551  0.3045  0.2210 -0.2185
  820MOL0     C13078   0.493   1.392   6.468 -0.1119  0.3731  0.1949
  820MOL0     C13079   0.354   1.413   6.452 -0.2117 -0.3622 -0.0603
  820MOL0     C13080   0.260   1.331   6.521  0.6753 -0.5162 -0.5099
  820MOL0     O13081   0.120   1.351   6.518 -0.5960 -0.5600  0.5345
  820MOL0     C13082   0.062   1.449   6.432 -0.2606 -0.6319  0.3608
  820MOL0     C13083  -0.082   1.421   6.437 -0.4119 -0.4110  0.2574
  820MOL0     C13084  -0.158   1.458   6.562  1.0284 -0.7376  0.3244
  820MOL0     C13085  -0.307   1.497   6.548  0.4876 -0.6676  0.0205
  820MOL0     C13086  -0.370   1.570   6.663  0.2842 -0.1346 -0.4550
  820MOL0     C13087  -0.424   1.620   6.761 -0.6237  0.3946  0.1873
  820MOL0     C13088   0.311   1.249   6.622 -0.4226  0.1051 -0.5317
  820MOL0     C13089   0.449   1.226   6.634  0.3683  0.5258 -0.3236
  820MOL0     C13090   0.486   1.112   6.734 -0.2381 -0.2506 -0.0409
  820MOL0     H13091   0.878   1.529   6.527  0.3135 -0.5819 -2.0682
  820MOL0     H13092   1.125   1.576   6.543  2.8894 -1.0368  0.9258
  820MOL0     H13093   1.317   1.434   6.702  1.6593  1.4225  1.5657
  820MOL0     H13094   1.345   1.585   6.603 -1.7178 -0.8185 -2.2169
  820MOL0     H13095   1.552   1.503   6.707 -2.7551 -2.5345  2.9425
  820MOL0     H13096   1.541   1.347   6.644  0.4813  0.4094  2.1574
  820MOL0     H13097   1.570   1.388   6.422 -0.9804  0.0557 -0.1977
  820MOL0     H13098   1.563   1.558   6.431 -0.1188 -1.2528 -2.1002
  820MOL0     H13099   1.787   1.516   6.429 -3.3150  2.5393 -0.5868
  820MOL0     H13100   1.768   1.534   6.599 -0.2387 -0.7318  1.2452
  820MOL0     H13101   1.761   1.271   6.440 -1.8117  0.0160  0.4403
  820MOL0     H13102   1.752   1.269   6.612 -1.6997  1.5286  0.0358
  820MOL0     H13103   1.977   1.408   6.468  1.5276 -0.0869  1.4054
  820MOL0     H13104   1.982   1.368   6.631  1.0656 -0.8209  1.6340
  820MOL0     H13105   2.001   1.196   6.386  1.3733  0.5659  0.5762
  820MOL0     H13106   1.918   1.113   6.524  0.4405 -1.0633  1.4646
  820MOL0     H13107   2.110   1.159   6.671 -1.4616 -0.7495  0.9178
  820MOL0     H13108   2.156   1.050   6.545 -0.9588 -0.3582  1.0647
  820MOL0     H13109   2.325   1.131   6.361 -2.3791 -0.6847  0.5012
  820MOL0     H13110   2.530   1.460   6.330  0.9069 -0.2191  0.4077
  820MOL0     H13111   2.503   1.303   6.249  2.5753 -1.8498  0.7572
  820MOL0     H13112   2.726   1.293   6.313  0.4063  1.3457  0.2224
  820MOL0     H13113   2.711   1.342   6.478  1.2894 -2.6435  2.3514
  820MOL0     H13114   2.592   1.138   6.545 -0.6571 -1.6312 -0.2857
  820MOL0     H13115   2.602   1.089   6.377  3.2563 -0.7154 -0.9342
  820MOL0     H13116   2.757   0.968   6.436  1.7808 -0.4182  0.0689
  820MOL0     H13117   2.866   1.115   6.404 -0.4195  0.9672 -1.3224
  820MOL0     H13118   2.901   1.023   6.855 -0.6403  1.1654 -1.0086
  820MOL0     H13119   3.043   0.983   7.020  0.0646 -0.5131  1.4856
  820MOL0     H13120   3.208   0.930   6.999 -0.2896 -0.9323 -1.7431
  820MOL0     H13121   3.082   0.810   7.024 -1.2446 -0.7478 -1.0004
  820MOL0     H13122   3.509   0.770   6.986 -1.1284  1.0767 -2.9079
  820MOL0     H13123   3.707   0.625   6.993  0.1405  1.2418 -2.5435
  820MOL0     H13124   3.671   0.165   6.977 -2.5102  0.5796 -0.8681
  820MOL0     H13125   3.642   0.221   6.809  1.8605 -0.1953 -1.7031
  820MOL0     H13126   3.817   0.080   6.814  0.3381  1.4033 -1.1782
  820MOL0     H13127   3.894   0.224   6.786 -2.8627 -1.7365 -2.5767
  820MOL0     H13128   3.875   0.153   7.080  0.1240 -1.0181 -0.6989
  820MOL0     H13129   3.982   0.268   6.994 -2.5504  1.6280  3.5093
  820MOL0     H13130   4.024   0.000   6.871  1.5429  1.7137 -0.7817
  820MOL0     H13131   4.051  -0.018   7.048 -0.8684 -0.3532 -1.6144
  820MOL0     H13132   4.177   0.169   6.852 -0.9880  1.1902  2.1188
  820MOL0     H13133   4.204   0.180   7.023  1.5991 -0.2708  0.2649
  820MOL0     H13134   4.361   0.078   6.843  0.7710  1.0303  1.8383
  820MOL0     H13135   4.256  -0.071   6.849  0.0696  0.2842  0.6217
  820MOL0     H13136   4.294  -0.081   7.089 -1.6696  1.5600 -0.4204
  820MOL0     H13137   4.413   0.053   7.076 -0.6185  0.9041 -0.8915
  820MOL0     H13138   4.427  -0.212   6.926  0.7186 -0.6796  0.8304
  820MOL0     H13139   4.506  -0.182   7.083 -0.4347  1.1135  0.9277
  820MOL0     H13140   3.452   0.294   6.872  2.3375 -0.4196  0.8917
  820MOL0     H13141   3.279   0.438   6.829 -2.2311 -0.0328  2.6256
  820MOL0     H13142   3.132   0.746   6.528  0.0430 -1.2730  1.0194
  820MOL0     H13143   2.958   0.882   6.448 -3.9233  0.2055  1.0275
  820MOL0     H13144   1.213   1.178   6.424  0.2044  1.8256 -1.6325
  820MOL0     H13145   0.965   1.131   6.414  0.9515  0.0086  0.3501
  820MOL0     H13146   0.565   1.461   6.423 -1.5726  2.3252  0.7341
  820MOL0     H13147   0.319   1.500   6.397 -0.5383  0.0174  0.7281
  820MOL0     H13148   0.081   1.552   6.462 -0.0567 -0.4973 -0.2189
  820MOL0     H13149   0.104   1.439   6.332  1.3129  1.4624  0.7521
  820MOL0     H13150  -0.104   1.317   6.414  3.8624 -1.5729  0.6796
  820MOL0     H13151  -0.136   1.483   6.363 -2.7599  0.4513  2.5386
  820MOL0     H13152  -0.150   1.375   6.632  1.2208 -2.0490 -1.2124
  820MOL0     H13153  -0.117   1.539   6.623 -1.9391  0.6276  0.7128
  820MOL0     H13154  -0.372   1.410   6.541 -2.2105  1.2102  0.4527
  820MOL0     H13155  -0.323   1.561   6.461 -0.5902  0.2010  0.8309
  820MOL0     H13156  -0.461   1.660   6.854 -0.1550  0.2728  0.4285
  820MOL0     H13157   0.243   1.198   6.689  1.4129 -1.2169  0.4330
  820MOL0     H13158   0.404   1.055   6.779  0.3879 -2.2595 -1.3210
  820MOL0     H13159   0.556   1.038   6.695  1.4875  0.3953  1.6907
  820MOL0     H13160   0.532   1.154   6.823  2.6939 -0.3691 -1.3800
  821MOL0     O13161   2.677   9.183   7.712 -0.3036  0.3067 -0.6222
  821MOL0     C13162   2.559   9.148   7.693 -0.3404  0.3179  0.3945
  821MOL0     O13163   2.497   9.036   7.746  0.4588  0.0641  0.6178
  821MOL0     C13164   2.567   8.941   7.806 -0.8723 -0.3143 -0.5802
  821MOL0     C13165   2.655   8.969   7.917 -0.0844  1.0122  0.1224
  821MOL0     C13166   2.708   8.849   7.979 -0.0152  0.4527  0.3990
  821MOL0     C13167   2.696   8.715   7.937  1.1497 -0.8738  0.7276
  821MOL0     O13168   2.751   8.607   8.007 -0.1182 -0.5647 -0.7193
  821MOL0     C13169   2.770   8.476   7.942 -0.1404  0.1504 -0.0019
  821MOL0     C13170   2.910   8.436   7.972 -0.2334 -0.4812  0.8310
  821MOL0     C13171   2.919   8.378   8.118  0.0517  0.7178  1.1953
  821MOL0     C13172   3.065   8.328   8.148  0.1275 -0.0695 -0.1168
  821MOL0     C13173   3.077   8.250   8.290  0.0894  0.2322  0.2142
  821MOL0     C13174   3.225   8.239   8.326  0.1070  0.5837  0.3826
  821MOL0     C13175   3.235   8.203   8.477 -0.4204 -0.0076  0.8493
  821MOL0     C13176   3.375   8.201   8.530 -0.6284  0.0848  0.0744
  821MOL0     N13177   3.375   8.160   8.669  0.4461  0.1775  0.6704
  821MOL0     C13178   3.383   8.255   8.765 -0.0708 -1.0121 -1.2035
  821MOL0     C13179   3.384   8.186   8.879  0.1824  0.8483 -0.2022
  821MOL0     C13180   3.385   8.218   9.030  0.0079 -0.6817  0.1730
  821MOL0     C13181   3.300   8.334   9.081  0.0070 -0.2526  0.1462
  821MOL0     C13182   3.366   8.468   9.056 -0.1557 -0.1366 -0.2070
  821MOL0     C13183   3.294   8.584   9.114  0.1477  0.0824 -0.0063
  821MOL0     O13184   3.352   8.713   9.075 -0.3424  0.5743 -0.9996
  821MOL0     C13185   3.492   8.731   9.097 -0.2199 -0.9447  0.2754
  821MOL0     C13186   3.552   8.734   9.223 -0.3273 -0.1327  1.0550
  821MOL0     C13187   3.689   8.758   9.247 -1.3107 -0.4636 -0.0865
  821MOL0     C13188   3.742   8.754   9.387 -0.5126 -0.7235  0.0695
  821MOL0     C13189   3.769   8.783   9.127 -0.0986  0.2123  0.1900
  821MOL0     C13190   3.913   8.808   9.127  0.4124 -0.7027  0.8234
  821MOL0     O13191   3.972   8.762   9.021 -0.4020  0.4567  0.0201
  821MOL0     C13192   4.109   8.746   9.011 -0.2038  0.6636  0.9142
  821MOL0     C13193   4.151   8.677   8.890 -0.2595  1.0626 -0.0041
  821MOL0     C13194   4.282   8.665   8.856 -0.7743 -0.4537 -0.2340
  821MOL0     C13195   4.388   8.707   8.941 -0.0157 -0.2465 -0.1752
  821MOL0     O13196   4.520   8.685   8.907  0.1046  0.7396 -1.0412
  821MOL0     C13197   4.598   8.803   8.880 -0.7194  0.2859  0.1124
  821MOL0     C13198   4.707   8.833   8.977 -0.6517  0.2332 -1.1099
  821MOL0     C13199   4.764   8.706   9.035  0.0670  0.6503  0.2638
  821MOL0     C13200   4.912   8.705   9.074  0.4084 -0.0928  0.3825
  821MOL0     C13201   4.933   8.608   9.194  0.1785 -0.7105  0.0763
  821MOL0     C13202   5.072   8.614   9.268  0.4710  0.0554 -0.2548
  821MOL0     C13203   5.190   8.620   9.170  0.6303  0.3641 -0.6786
  821MOL0     C13204   5.326   8.607   9.257  0.6198  0.1769 -0.7949
  821MOL0    Cl13205   5.460   8.569   9.149 -0.2776  0.4081  0.0667
  821MOL0     C13206   4.343   8.763   9.065 -0.3156  0.0332 -0.6541
  821MOL0     C13207   4.210   8.792   9.093 -0.3578 -0.0778  0.2696
  821MOL0     O13208   3.961   8.865   9.221  0.0958  0.1468 -0.1655
  821MOL0     C13209   3.712   8.794   9.005  0.3367  0.0109  0.6456
  821MOL0     C13210   3.574   8.776   8.992 -0.2804 -0.5422  0.8674
  821MOL0     N13211   3.372   8.051   8.849 -0.2440  0.7648  0.3553
  821MOL0     N13212   3.376   8.032   8.723  0.6751  0.7155  0.4711
  821MOL0     C13213   2.599   8.698   7.826  0.2009  0.8612 -1.9657
  821MOL0     C13214   2.543   8.807   7.764  0.9721 -0.2627 -0.7156
  821MOL0     C13215   2.467   9.246   7.633 -0.0220  0.6488  0.3725
  821MOL0     C13216   2.325   9.230   7.669 -0.3815 -0.6928 -0.1410
  821MOL0     C13217   2.232   9.312   7.606 -0.0357 -0.6932 -0.1299
  821MOL0     C13218   2.274   9.403   7.510  0.0567  0.6475 -0.7421
  821MOL0     O13219   2.174   9.483   7.463  0.7498 -0.0506  0.5576
  821MOL0     C13220   2.197   9.590   7.366 -0.2269 -0.0896  0.4705
  821MOL0     C13221   2.264   9.722   7.418 -0.2420  0.1299 -0.8049
  821MOL0     C13222   2.294   9.805   7.295  0.2919  0.2336  0.5608
  821MOL0     C13223   2.360   9.937   7.318  0.2256  0.4867  0.0557
  821MOL0     C13224   2.407   9.993   7.193  0.6660 -0.2577  0.8305
  821MOL0     C13225   2.461  10.043   7.100 -0.4272  0.3024  0.7281
  821MOL0     C13226   2.409   9.405   7.469  0.0520 -0.8176 -0.0171
  821MOL0     C13227   2.504   9.320   7.522 -0.1092 -0.2163 -0.5845
  821MOL0     C13228   2.648   9.340   7.486 -0.3009  0.4605  0.0270
  821MOL0     H13229   2.680   9.068   7.951 -0.1213  0.9902  0.2128
  821MOL0     H13230   2.768   8.852   8.070  1.3142 -2.0700 -0.2796
  821MOL0     H13231   2.759   8.491   7.834  2.7260 -0.6969 -0.4735
  821MOL0     H13232   2.698   8.400   7.974 -1.0163 -0.5698 -3.2692
  821MOL0     H13233   2.938   8.355   7.903 -2.2547 -1.0469  0.5925
  821MOL0     H13234   2.980   8.518   7.958  0.5880 -1.3862 -0.6307
  821MOL0     H13235   2.882   8.452   8.189  0.8948 -1.2205  3.8173
  821MOL0     H13236   2.853   8.292   8.128  0.3968  0.0769 -1.3252
  821MOL0     H13237   3.098   8.275   8.058 -0.4293  0.9676 -0.9530
  821MOL0     H13238   3.128   8.418   8.148 -1.1176  0.8357  0.2817
  821MOL0     H13239   3.035   8.150   8.273  1.4878 -0.0773 -1.8128
  821MOL0     H13240   3.015   8.306   8.360 -3.9071 -4.3541  0.8363
  821MOL0     H13241   3.272   8.158   8.269  0.5712  0.9606  0.2181
  821MOL0     H13242   3.288   8.327   8.307  1.2823 -0.5805 -1.5395
  821MOL0     H13243   3.190   8.104   8.491 -0.4209  0.0028  0.9197
  821MOL0     H13244   3.167   8.269   8.531 -0.1565  1.4198 -0.4599
  821MOL0     H13245   3.432   8.130   8.469 -1.2369 -0.8471  0.5712
  821MOL0     H13246   3.429   8.295   8.513 -1.4338  0.4607 -0.4936
  821MOL0     H13247   3.379   8.363   8.772  1.6689 -0.9588 -0.5563
  821MOL0     H13248   3.487   8.239   9.061 -0.4557  1.2725  0.5341
  821MOL0     H13249   3.366   8.126   9.086 -0.1173 -1.0791 -0.5143
  821MOL0     H13250   3.200   8.344   9.039  0.9742  0.8180 -2.0299
  821MOL0     H13251   3.281   8.327   9.189  0.7042  0.6320  0.3443
  821MOL0     H13252   3.456   8.466   9.118 -2.5761  0.3951  3.6686
  821MOL0     H13253   3.368   8.476   8.947  0.5466  2.4057 -0.0748
  821MOL0     H13254   3.194   8.584   9.069  0.8663 -1.7904 -1.7793
  821MOL0     H13255   3.293   8.584   9.224  2.2386  1.1412  0.0682
  821MOL0     H13256   3.480   8.725   9.304 -0.3062  1.3137  1.2612
  821MOL0     H13257   3.847   8.724   9.381 -0.0389  0.0687  2.8660
  821MOL0     H13258   3.693   8.694   9.465  1.5063  0.8381  2.7071
  821MOL0     H13259   3.743   8.856   9.425 -1.5628 -0.7789  0.2819
  821MOL0     H13260   4.070   8.661   8.819 -0.4980  2.5919 -0.1077
  821MOL0     H13261   4.313   8.633   8.758  4.2641 -0.8157  1.1735
  821MOL0     H13262   4.654   8.790   8.787  0.9232 -3.4959  1.4383
  821MOL0     H13263   4.539   8.895   8.873  1.8985  1.9985 -1.0453
  821MOL0     H13264   4.791   8.888   8.933 -0.7252  0.8235 -0.5139
  821MOL0     H13265   4.664   8.886   9.062  2.2072 -0.5662  0.9759
  821MOL0     H13266   4.749   8.620   8.969 -3.2647  2.2656 -1.2716
  821MOL0     H13267   4.706   8.680   9.124 -0.5165  1.3216  0.0852
  821MOL0     H13268   4.950   8.800   9.111  1.2541  1.0711 -3.0434
  821MOL0     H13269   4.980   8.685   8.990  0.7682  1.1311  0.3646
  821MOL0     H13270   4.860   8.620   9.274  1.8553  0.8981  1.4717
  821MOL0     H13271   4.934   8.511   9.143 -3.2621  0.6419 -3.0670
  821MOL0     H13272   5.076   8.527   9.335 -3.8077  0.2024  0.5018
  821MOL0     H13273   5.067   8.702   9.332  4.5161  0.9424 -0.9329
  821MOL0     H13274   5.194   8.717   9.120 -3.1420  0.3435 -1.2889
  821MOL0     H13275   5.175   8.543   9.094 -1.7187  1.7750 -1.7422
  821MOL0     H13276   5.323   8.520   9.323  1.2089 -0.3467 -1.4419
  821MOL0     H13277   5.347   8.700   9.311  4.3512 -0.8725 -0.1619
  821MOL0     H13278   4.411   8.787   9.146 -0.0097 -3.8429  0.4245
  821MOL0     H13279   4.178   8.839   9.185  0.5514 -1.6355  1.4355
  821MOL0     H13280   3.763   8.816   8.911  1.1294  1.1336  1.3015
  821MOL0     H13281   3.534   8.804   8.896 -0.5972 -1.1047  0.8303
  821MOL0     H13282   2.586   8.596   7.789  1.8357  0.3402 -1.2112
  821MOL0     H13283   2.478   8.791   7.679  1.4289  1.3704 -1.4086
  821MOL0     H13284   2.289   9.162   7.746  1.2471 -1.1141  0.2881
  821MOL0     H13285   2.127   9.308   7.633 -0.0837 -1.4114 -0.3999
  821MOL0     H13286   2.243   9.548   7.275 -2.1602 -1.3959  0.0304
  821MOL0     H13287   2.095   9.615   7.335 -0.1436 -2.3601 -2.1129
  821MOL0     H13288   2.356   9.707   7.474 -0.9103 -1.7121 -0.1166
  821MOL0     H13289   2.193   9.772   7.485  1.3348 -0.1471  1.1490
  821MOL0     H13290   2.362   9.753   7.226 -0.3663  4.8354 -4.2017
  821MOL0     H13291   2.203   9.835   7.242  0.2440  3.0788  2.1048
  821MOL0     H13292   2.440   9.934   7.393  0.3275  3.2140  0.1539
  821MOL0     H13293   2.294  10.012   7.362 -0.9779 -0.2895 -0.3815
  821MOL0     H13294   2.485  10.098   7.010 -1.8735  2.9760  1.8696
  821MOL0     H13295   2.445   9.473   7.392  2.8040 -0.4684  1.4452
  821MOL0     H13296   2.701   9.369   7.577 -0.3743 -2.3314  1.0666
  821MOL0     H13297   2.693   9.243   7.462 -0.1932  0.5030  0.0559
  821MOL0     H13298   2.657   9.414   7.406  1.1951 -1.9206 -2.1907
  822MOL0     O13299   0.255  10.436   7.557  0.1426  0.6257  0.0186
  822MOL0     C13300   0.156  10.367   7.590 -0.2016  0.8327  0.1392
  822MOL0     O13301   0.167  10.243   7.644  0.1980  0.0808 -0.9728
  822MOL0     C13302   0.273  10.224   7.737 -0.3257 -0.3688  0.4505
  822MOL0     C13303   0.318  10.310   7.836 -0.4346 -0.4895  0.1758
  822MOL0     C13304   0.431  10.279   7.914 -0.7298 -0.0963  0.4540
  822MOL0     C13305   0.483  10.145   7.910  0.1578  0.1821 -1.2460
  822MOL0     O13306   0.586  10.111   7.993 -0.2108 -0.0811  0.4073
  822MOL0     C13307   0.676  10.009   7.942 -0.0418  0.7498 -0.0647
  822MOL0     C13308   0.814  10.024   8.005 -0.8423  0.5718 -0.2310
  822MOL0     C13309   0.799   9.990   8.157  0.9090 -0.3845  0.3638
  822MOL0     C13310   0.941   9.980   8.232  0.2976  0.4859  0.2555
  822MOL0     C13311   0.951  10.021   8.377  0.2872  0.7528 -0.2899
  822MOL0     C13312   1.089  10.016   8.436 -0.6481 -0.5108 -0.2055
  822MOL0     C13313   1.156   9.886   8.470  0.2858  0.8160 -0.0524
  822MOL0     C13314   1.290   9.907   8.538 -0.4691 -0.2643 -0.0341
  822MOL0     N13315   1.354   9.783   8.587 -0.3465 -1.0053 -0.3525
  822MOL0     C13316   1.414   9.774   8.713 -0.5075  0.0303 -0.8688
  822MOL0     C13317   1.475   9.655   8.716 -0.0161  0.7540  0.5186
  822MOL0     C13318   1.568   9.610   8.828 -0.1018 -0.1533  0.3488
  822MOL0     C13319   1.559   9.463   8.854 -0.2671 -0.0605  0.4752
  822MOL0     C13320   1.676   9.417   8.947 -0.4384  0.0946  0.6738
  822MOL0     C13321   1.678   9.260   8.951  0.5072 -0.3446  0.2372
  822MOL0     O13322   1.557   9.213   9.005  0.3128  0.2934  0.6176
  822MOL0     C13323   1.560   9.142   9.123  0.6667 -0.0680 -0.2360
  822MOL0     C13324   1.444   9.060   9.140 -0.2341 -1.3889  0.4515
  822MOL0     C13325   1.429   8.982   9.258  0.3124 -0.1458  0.5354
  822MOL0     C13326   1.306   8.894   9.264 -0.1433  0.1890 -0.7274
  822MOL0     C13327   1.536   8.988   9.359 -0.1791  0.3853 -0.5079
  822MOL0     C13328   1.527   8.906   9.484  0.0389 -0.0781 -0.2432
  822MOL0     O13329   1.424   8.825   9.503  0.4355 -0.7049  0.4481
  822MOL0     C13330   1.423   8.744   9.614  0.7495  0.8472  0.5514
  822MOL0     C13331   1.371   8.796   9.732  0.5574 -0.0441 -0.0583
  822MOL0     C13332   1.355   8.714   9.842  0.3199 -0.3620  0.0536
  822MOL0     C13333   1.394   8.584   9.840  0.1174  0.0353 -0.1589
  822MOL0     O13334   1.366   8.504   9.948  0.9487 -0.0126 -0.5494
  822MOL0     C13335   1.279   8.394   9.920  0.0229 -0.4933 -0.7204
  822MOL0     C13336   1.286   8.281  10.026 -0.1131 -0.3755  0.2234
  822MOL0     C13337   1.381   8.166   9.982  0.7744 -0.5599 -0.3840
  822MOL0     C13338   1.395   8.065  10.086  0.0919 -0.9493  0.1001
  822MOL0     C13339   1.475   7.939  10.023  0.9937 -0.8948  0.0471
  822MOL0     C13340   1.508   7.838  10.134  1.1564 -0.6961  0.7861
  822MOL0     C13341   1.547   7.888  10.271  0.0583 -0.2909  0.4811
  822MOL0     C13342   1.604   7.769  10.347 -0.1734 -0.2709  0.0212
  822MOL0    Cl13343   1.775   7.734  10.288 -0.5738  0.1248  0.2505
  822MOL0     C13344   1.461   8.542   9.721 -0.5009  0.5896 -0.7477
  822MOL0     C13345   1.483   8.616   9.611  0.2741 -0.7392  0.1349
  822MOL0     O13346   1.608   8.933   9.569  0.1543  0.4707 -0.2868
  822MOL0     C13347   1.645   9.077   9.338  0.5177 -0.4906 -0.6816
  822MOL0     C13348   1.656   9.157   9.221  0.2616 -0.2378  0.8256
  822MOL0     N13349   1.431   9.581   8.597  0.1063 -0.5193  0.1202
  822MOL0     N13350   1.354   9.663   8.529  0.2129 -0.0888  0.2359
  822MOL0     C13351   0.428  10.057   7.821  0.5337  0.4286  0.3650
  822MOL0     C13352   0.321  10.094   7.740 -0.3923 -0.0367 -1.2689
  822MOL0     C13353   0.023  10.411   7.552 -0.1521  0.4486 -0.4795
  822MOL0     C13354  -0.091  10.373   7.627  0.4271 -0.2539 -0.7251
  822MOL0     C13355  -0.221  10.412   7.586  0.0091 -0.0694 -0.1014
  822MOL0     C13356  -0.243  10.496   7.479  0.1929 -0.1555 -0.6274
  822MOL0     O13357  -0.370  10.543   7.461  0.0703 -0.0151  0.1063
  822MOL0     C13358  -0.409  10.556   7.322 -0.4726  0.7014 -0.8102
  822MOL0     C13359  -0.416  10.420   7.262  0.5470  0.6537 -1.0319
  822MOL0     C13360  -0.520  10.412   7.149 -0.0107 -0.4606  0.1147
  822MOL0     C13361  -0.476  10.339   7.030 -0.0626  0.7284 -0.0085
  822MOL0     C13362  -0.466  10.191   7.053 -0.3786 -1.1228 -1.0822
  822MOL0     C13363  -0.458  10.073   7.078 -0.3123  0.4973  0.5760
  822MOL0     C13364  -0.130  10.542   7.408 -0.7136  0.2055  0.5706
  822MOL0     C13365  -0.005  10.496   7.440  0.7785 -0.5764  0.5581
  822MOL0     C13366   0.101  10.554   7.359 -0.6590 -0.1321  0.6675
  822MOL0     H13367   0.276  10.410   7.832 -0.5750 -0.5355  0.4906
  822MOL0     H13368   0.487  10.349   7.976 -0.8442 -1.4032  2.1011
  822MOL0     H13369   0.685  10.026   7.835 -0.5135  0.4628 -0.1553
  822MOL0     H13370   0.629   9.912   7.960  1.4187 -0.0531 -0.4369
  822MOL0     H13371   0.875   9.946   7.958  1.2618  0.8487  1.8783
  822MOL0     H13372   0.857  10.122   7.987  0.3878  0.1873  0.5160
  822MOL0     H13373   0.733  10.069   8.195 -1.8402  0.0387 -4.5713
  822MOL0     H13374   0.746   9.894   8.162  1.2193 -1.2109 -5.4713
  822MOL0     H13375   0.980   9.879   8.214 -0.0778  0.5121 -0.7101
  822MOL0     H13376   1.006  10.055   8.186  0.4788 -0.1744 -0.6006
  822MOL0     H13377   0.887   9.958   8.439 -0.9219  3.7526  1.7235
  822MOL0     H13378   0.902  10.118   8.388 -0.7965  0.2343 -0.3639
  822MOL0     H13379   1.152  10.062   8.359  0.1072 -1.6714 -0.3091
  822MOL0     H13380   1.093  10.077   8.527 -1.6406 -4.4661  2.7884
  822MOL0     H13381   1.160   9.825   8.379 -1.5298  1.8475 -0.8751
  822MOL0     H13382   1.093   9.826   8.536 -2.6511  0.3943 -2.9802
  822MOL0     H13383   1.357   9.959   8.470 -1.0982  1.1947  0.4281
  822MOL0     H13384   1.286   9.990   8.609  0.5800  1.3599 -1.7808
  822MOL0     H13385   1.427   9.849   8.790  3.8935 -0.5825 -0.7155
  822MOL0     H13386   1.539   9.667   8.917 -0.0001  0.6189 -0.1058
  822MOL0     H13387   1.669   9.633   8.796 -1.2679  2.8347 -1.6144
  822MOL0     H13388   1.461   9.439   8.897 -0.8696 -1.1100 -1.3822
  822MOL0     H13389   1.557   9.402   8.763 -0.3184 -0.4025  0.7027
  822MOL0     H13390   1.770   9.453   8.904 -1.1304  3.0108  1.4042
  822MOL0     H13391   1.660   9.464   9.045 -0.7078  0.5663  0.4058
  822MOL0     H13392   1.696   9.208   8.856 -1.7994 -1.4768  0.3644
  822MOL0     H13393   1.767   9.226   9.004  1.2516  1.4217  0.2224
  822MOL0     H13394   1.373   9.084   9.062  0.8291  2.5912  0.4872
  822MOL0     H13395   1.229   8.909   9.188 -3.0866 -0.6912  1.8597
  822MOL0     H13396   1.251   8.914   9.356 -2.1942 -2.2440 -1.3194
  822MOL0     H13397   1.325   8.787   9.266 -1.8664 -0.1416  1.6854
  822MOL0     H13398   1.343   8.900   9.729 -2.2806 -0.6204  2.0744
  822MOL0     H13399   1.310   8.749   9.934  1.2278 -2.4271  1.3640
  822MOL0     H13400   1.179   8.436   9.905 -1.0569 -2.4189  0.6759
  822MOL0     H13401   1.309   8.344   9.828  1.9429  0.2775 -0.5458
  822MOL0     H13402   1.305   8.311  10.129 -1.3164 -1.4813  0.7886
  822MOL0     H13403   1.186   8.237  10.030 -0.0288 -0.4880  1.2993
  822MOL0     H13404   1.477   8.211   9.959  0.4285 -0.3154 -1.4081
  822MOL0     H13405   1.326   8.125   9.897 -1.2001  0.6152  0.2476
  822MOL0     H13406   1.297   8.027  10.117 -0.3356  1.5328  2.0615
  822MOL0     H13407   1.432   8.098  10.184 -0.6687 -3.6293  1.4030
  822MOL0     H13408   1.420   7.892   9.941 -0.2633 -1.4494  1.1645
  822MOL0     H13409   1.569   7.977   9.981  1.1489 -4.1126 -2.9910
  822MOL0     H13410   1.594   7.793  10.082  1.7153  3.3795 -2.3021
  822MOL0     H13411   1.437   7.756  10.146  1.0787 -0.9195 -0.8776
  822MOL0     H13412   1.451   7.919  10.314 -2.3525 -2.7515 -2.6603
  822MOL0     H13413   1.613   7.975  10.278  0.6442 -0.6364 -0.5785
  822MOL0     H13414   1.537   7.686  10.323 -2.5884  1.2147  1.2797
  822MOL0     H13415   1.603   7.797  10.453 -3.1927  2.5330 -0.6177
  822MOL0     H13416   1.496   8.439   9.720 -0.4946  0.5886 -0.3842
  822MOL0     H13417   1.542   8.573   9.531 -1.0227 -0.6268 -0.9198
  822MOL0     H13418   1.723   9.101   9.409 -0.4612  2.4682 -0.4425
  822MOL0     H13419   1.737   9.228   9.206  0.5004 -0.5682  0.5597
  822MOL0     H13420   0.463   9.955   7.815 -0.1847  0.1018  1.3867
  822MOL0     H13421   0.286  10.005   7.687  1.7966 -2.7980  1.5042
  822MOL0     H13422  -0.074  10.304   7.709 -0.7893 -1.2149 -1.2403
  822MOL0     H13423  -0.296  10.385   7.659 -0.6968 -0.7594 -1.0616
  822MOL0     H13424  -0.505  10.608   7.320 -0.0802  1.4739 -0.2762
  822MOL0     H13425  -0.338  10.627   7.279 -0.3844  0.5354 -0.9395
  822MOL0     H13426  -0.438  10.348   7.341  0.8761  1.7693  0.1145
  822MOL0     H13427  -0.320  10.387   7.220  2.2000  1.8957  1.5137
  822MOL0     H13428  -0.601  10.355   7.196  1.5047 -1.8263  1.1865
  822MOL0     H13429  -0.562  10.509   7.123  0.5763 -0.2209  0.0450
  822MOL0     H13430  -0.378  10.375   7.000  0.5669 -0.7530  0.1872
  822MOL0     H13431  -0.539  10.364   6.944  1.8740 -1.1419 -2.1208
  822MOL0     H13432  -0.466   9.970   7.106 -0.8233  0.5435  0.6011
  822MOL0     H13433  -0.140  10.612   7.326 -0.6909 -1.2910 -0.7604
  822MOL0     H13434   0.069  10.633   7.290  1.9664  1.3712  1.0097
  822MOL0     H13435   0.179  10.611   7.412  1.3274 -2.2468  0.1833
  822MOL0     H13436   0.148  10.474   7.302 -1.2566  1.1431 -1.7752
  823MOL0     O13437   3.707   2.463   6.684 -0.4465  0.0163 -0.1247
  823MOL0     C13438   3.749   2.530   6.591 -0.7618  0.2710  0.9241
  823MOL0     O13439   3.671   2.575   6.496 -0.0686 -0.1873 -0.0954
  823MOL0     C13440   3.537   2.557   6.498  0.7050  0.0138 -1.1325
  823MOL0     C13441   3.465   2.493   6.401  0.3178  0.4092  0.4687
  823MOL0     C13442   3.327   2.489   6.402  0.1114  0.3095  0.4338
  823MOL0     C13443   3.245   2.543   6.503 -0.6930  0.5524 -0.2043
  823MOL0     O13444   3.109   2.533   6.509 -0.7637 -0.6878  0.0910
  823MOL0     C13445   3.032   2.646   6.540 -0.0145 -0.3745  0.5065
  823MOL0     C13446   2.892   2.605   6.538 -0.1032 -0.2771  0.0382
  823MOL0     C13447   2.830   2.623   6.399  1.1466  0.4273  0.4401
  823MOL0     C13448   2.857   2.496   6.313  0.0351  0.0574  0.0858
  823MOL0     C13449   2.769   2.496   6.189  0.2330 -0.4577  0.1609
  823MOL0     C13450   2.621   2.471   6.212 -0.4212  0.5363 -0.1561
  823MOL0     C13451   2.560   2.461   6.076 -0.0805 -0.4433  0.5003
  823MOL0     C13452   2.405   2.478   6.082  0.7737 -0.4092 -0.0741
  823MOL0     N13453   2.348   2.493   5.949  0.5489 -0.2917 -0.2071
  823MOL0     C13454   2.350   2.388   5.859  0.5039  1.0227 -0.6657
  823MOL0     C13455   2.295   2.442   5.752  0.3279 -0.0307 -0.0629
  823MOL0     C13456   2.275   2.367   5.630 -0.0032 -0.2821  0.4804
  823MOL0     C13457   2.405   2.323   5.562 -0.2635 -0.1460  0.1263
  823MOL0     C13458   2.454   2.431   5.468  0.3788 -0.2852  0.0562
  823MOL0     C13459   2.368   2.415   5.338  0.8594 -0.4385 -0.1029
  823MOL0     O13460   2.421   2.312   5.253  0.2468  0.4833 -0.2096
  823MOL0     C13461   2.497   2.355   5.151  0.2721 -0.5746  0.9210
  823MOL0     C13462   2.582   2.467   5.159 -0.1620 -0.6775 -0.6845
  823MOL0     C13463   2.688   2.495   5.065 -0.1534  0.3097  0.9124
  823MOL0     C13464   2.769   2.616   5.089  0.0587 -0.4027  0.6380
  823MOL0     C13465   2.701   2.409   4.951 -0.1980  0.4720  0.3149
  823MOL0     C13466   2.801   2.430   4.840 -0.4222  0.6437  0.1183
  823MOL0     O13467   2.864   2.311   4.806 -0.1401  0.0010 -0.4872
  823MOL0     C13468   2.985   2.330   4.745 -0.7548  0.0927  0.4752
  823MOL0     C13469   3.100   2.359   4.823  0.1887 -0.1910  0.0883
  823MOL0     C13470   3.224   2.335   4.765 -0.4298  0.7086 -0.2750
  823MOL0     C13471   3.234   2.302   4.632 -0.1648 -0.2706  0.0719
  823MOL0     O13472   3.365   2.297   4.586  0.3818  0.1509 -0.1131
  823MOL0     C13473   3.386   2.338   4.453 -0.7486 -0.0723 -0.3218
  823MOL0     C13474   3.536   2.360   4.426 -0.5048  0.6230  0.4367
  823MOL0     C13475   3.551   2.453   4.304 -0.5079  0.0716  0.7585
  823MOL0     C13476   3.610   2.386   4.178 -0.5498  0.1075 -0.1468
  823MOL0     C13477   3.757   2.352   4.205  0.7854  0.0739  0.1808
  823MOL0     C13478   3.823   2.294   4.081 -0.2802  0.2675 -0.3597
  823MOL0     C13479   3.971   2.262   4.110 -0.2761 -0.7298  0.7573
  823MOL0     C13480   4.013   2.120   4.150  0.2348 -1.1274 -0.3594
  823MOL0    Cl13481   3.935   2.008   4.041  0.6430  0.3999  0.1757
  823MOL0     C13482   3.116   2.284   4.543 -0.1218 -0.7566 -0.7880
  823MOL0     C13483   2.993   2.297   4.607  0.4987  0.6474  0.8852
  823MOL0     O13484   2.805   2.534   4.788  0.4491  0.6646 -0.0906
  823MOL0     C13485   2.607   2.298   4.945 -0.3071 -0.1096  1.1388
  823MOL0     C13486   2.512   2.271   5.040  1.0498 -0.0479 -0.2569
  823MOL0     N13487   2.266   2.573   5.767  0.2565 -0.1399  0.4532
  823MOL0     N13488   2.313   2.601   5.884  0.3383  0.1151  0.6909
  823MOL0     C13489   3.319   2.586   6.613 -0.0823 -0.4114  0.2218
  823MOL0     C13490   3.460   2.604   6.610 -0.5779  0.7071 -0.8109
  823MOL0     C13491   3.895   2.552   6.565 -0.0972 -0.3730 -0.6229
  823MOL0     C13492   3.939   2.577   6.435  0.0347  0.2085 -0.5278
  823MOL0     C13493   4.072   2.586   6.401 -0.2026 -0.4068 -0.6979
  823MOL0     C13494   4.173   2.572   6.501 -0.0226 -0.4130  0.4158
  823MOL0     O13495   4.306   2.583   6.481 -0.1592 -0.3919  0.9623
  823MOL0     C13496   4.346   2.629   6.349 -0.2046 -0.1498 -0.4754
  823MOL0     C13497   4.492   2.690   6.371  0.2293 -0.1129 -0.4812
  823MOL0     C13498   4.577   2.709   6.244 -0.3006 -0.2704  0.0245
  823MOL0     C13499   4.517   2.818   6.154  1.3006 -0.6318 -0.2008
  823MOL0     C13500   4.596   2.849   6.037  0.2448 -1.2924 -0.0477
  823MOL0     C13501   4.672   2.880   5.942  0.7473 -0.4556 -0.0002
  823MOL0     C13502   4.131   2.537   6.635  0.5136 -0.4320 -0.0054
  823MOL0     C13503   3.997   2.530   6.670  0.7410  0.1149  0.2153
  823MOL0     C13504   3.967   2.516   6.812  0.1315  0.4238 -0.3011
  823MOL0     H13505   3.524   2.447   6.321  0.7957  1.0188  0.4674
  823MOL0     H13506   3.268   2.456   6.318  0.1788  3.0002 -0.7590
  823MOL0     H13507   3.059   2.719   6.463  4.4022 -0.2168  1.8813
  823MOL0     H13508   3.054   2.688   6.639  0.8177  2.5276 -0.7927
  823MOL0     H13509   2.878   2.502   6.570  2.8072 -1.1039 -1.0464
  823MOL0     H13510   2.843   2.681   6.601 -0.4697 -0.6621  0.2209
  823MOL0     H13511   2.724   2.644   6.416  1.3337  0.4534  1.6828
  823MOL0     H13512   2.864   2.709   6.340  2.1926 -3.4519 -5.5042
  823MOL0     H13513   2.962   2.497   6.283 -0.2469  0.3205 -0.9452
  823MOL0     H13514   2.841   2.405   6.371 -0.3581  0.8889  1.3306
  823MOL0     H13515   2.795   2.410   6.128 -1.8020  1.4886 -3.8354
  823MOL0     H13516   2.785   2.589   6.135 -2.6495  1.1969  1.8854
  823MOL0     H13517   2.605   2.376   6.264 -0.1731  0.4625 -0.2121
  823MOL0     H13518   2.574   2.556   6.262 -2.7854  0.9697 -2.8443
  823MOL0     H13519   2.585   2.362   6.035  2.5501  0.9586 -1.5887
  823MOL0     H13520   2.597   2.546   6.018  3.0883  0.8738  4.0618
  823MOL0     H13521   2.359   2.388   6.123 -2.8061 -1.3322 -5.1393
  823MOL0     H13522   2.382   2.563   6.148  1.4070 -0.3559  0.0889
  823MOL0     H13523   2.376   2.283   5.863 -2.5519  0.1551 -1.1245
  823MOL0     H13524   2.209   2.430   5.570 -0.6605  0.3558  1.8181
  823MOL0     H13525   2.223   2.276   5.663  1.6137 -2.5487 -2.6653
  823MOL0     H13526   2.484   2.312   5.637  2.9347 -0.1919 -3.0260
  823MOL0     H13527   2.384   2.229   5.510 -0.8630  0.7800 -1.3783
  823MOL0     H13528   2.441   2.532   5.509  2.2367 -0.0447  0.1170
  823MOL0     H13529   2.559   2.412   5.446  0.6108  1.4824 -0.5395
  823MOL0     H13530   2.266   2.378   5.356  0.8770 -1.2156 -1.5082
  823MOL0     H13531   2.356   2.509   5.284  0.0699 -0.3587  0.1888
  823MOL0     H13532   2.570   2.536   5.242 -1.0506 -0.7785 -0.7221
  823MOL0     H13533   2.741   2.675   5.001  5.6879  0.8115 -0.7574
  823MOL0     H13534   2.876   2.605   5.068 -0.1192  0.1126 -0.6838
  823MOL0     H13535   2.757   2.667   5.185  1.0735 -0.6947  0.9340
  823MOL0     H13536   3.094   2.367   4.931 -0.3153  0.8025 -0.0025
  823MOL0     H13537   3.311   2.338   4.830 -2.1493 -1.1242  2.3079
  823MOL0     H13538   3.348   2.258   4.390 -1.4816  0.6813 -0.8534
  823MOL0     H13539   3.340   2.433   4.425  2.6679  0.7573 -4.0049
  823MOL0     H13540   3.589   2.404   4.511 -0.4773  1.5461 -0.0415
  823MOL0     H13541   3.582   2.264   4.401 -2.9501  0.0060 -2.1530
  823MOL0     H13542   3.611   2.537   4.339 -0.0169 -0.3110  0.8428
  823MOL0     H13543   3.455   2.501   4.282 -0.5605  0.1669  1.1776
  823MOL0     H13544   3.609   2.448   4.087  3.1708 -0.8964 -1.0415
  823MOL0     H13545   3.552   2.299   4.146 -2.3769  1.4115 -0.5753
  823MOL0     H13546   3.801   2.443   4.246 -4.5367  2.0549  2.4228
  823MOL0     H13547   3.766   2.284   4.290  0.4351  0.1336  0.2695
  823MOL0     H13548   3.835   2.373   4.006  0.3992 -0.7525 -1.3456
  823MOL0     H13549   3.765   2.210   4.043  0.2221 -0.3723  0.2641
  823MOL0     H13550   4.008   2.328   4.189 -0.3879 -2.0026  1.8988
  823MOL0     H13551   4.018   2.297   4.018 -2.6069 -1.3029 -0.7374
  823MOL0     H13552   3.965   2.086   4.243 -1.4967 -0.9229 -1.1363
  823MOL0     H13553   4.119   2.101   4.136 -0.5061 -3.1029 -5.5922
  823MOL0     H13554   3.138   2.277   4.437 -0.9934  2.6598 -1.3195
  823MOL0     H13555   2.903   2.302   4.546  1.0302  2.5826  0.1845
  823MOL0     H13556   2.609   2.240   4.853  1.4825  0.5363  0.7183
  823MOL0     H13557   2.456   2.178   5.031 -0.5278  0.9345 -1.0055
  823MOL0     H13558   3.264   2.612   6.703  0.1214 -2.4137  0.9752
  823MOL0     H13559   3.508   2.651   6.695 -2.5846 -1.4881  1.6910
  823MOL0     H13560   3.869   2.592   6.353  0.7683 -0.3403 -1.2825
  823MOL0     H13561   4.104   2.600   6.298 -1.5901 -2.7835 -1.5513
  823MOL0     H13562   4.342   2.539   6.286 -2.5936 -2.4872  2.7106
  823MOL0     H13563   4.282   2.712   6.317 -2.2901 -1.1564  0.8838
  823MOL0     H13564   4.547   2.624   6.438  0.1779 -0.7920 -1.1038
  823MOL0     H13565   4.487   2.779   6.435  1.2704 -0.3595 -0.0429
  823MOL0     H13566   4.682   2.735   6.259 -0.5715  1.9437 -1.4182
  823MOL0     H13567   4.572   2.617   6.185 -1.0465 -1.0035  1.2058
  823MOL0     H13568   4.504   2.912   6.209  0.8578 -2.6789  3.4931
  823MOL0     H13569   4.415   2.791   6.126  1.0862  0.2859 -0.3404
  823MOL0     H13570   4.747   2.913   5.872  1.2664  0.2170  0.8489
  823MOL0     H13571   4.209   2.509   6.705  0.7570 -0.1815 -0.1750
  823MOL0     H13572   4.038   2.580   6.866 -0.0012  0.6294 -0.3728
  823MOL0     H13573   3.864   2.549   6.828 -0.7361 -2.8061  1.5846
  823MOL0     H13574   3.981   2.413   6.846 -0.7729  1.1460  2.4801
  824MOL0     O13575   3.191   2.048   2.577 -0.1122 -0.3393 -0.1320
  824MOL0     C13576   3.226   1.973   2.668  0.3028 -0.5192  1.1059
  824MOL0     O13577   3.353   1.927   2.689  0.0407  0.9211  0.2043
  824MOL0     C13578   3.468   1.983   2.630 -1.4044 -0.6467 -0.5737
  824MOL0     C13579   3.584   1.904   2.611  0.4574 -0.1908  0.6197
  824MOL0     C13580   3.694   1.947   2.553 -0.7581 -0.4507 -0.8927
  824MOL0     C13581   3.702   2.075   2.503 -0.1465 -0.6531 -0.7916
  824MOL0     O13582   3.819   2.110   2.431 -0.6208  0.4847 -0.1234
  824MOL0     C13583   3.832   2.243   2.367 -0.4082 -0.7653 -0.3749
  824MOL0     C13584   3.945   2.234   2.269 -0.4606 -0.5209  0.3340
  824MOL0     C13585   4.091   2.232   2.327  1.1916  0.3083 -0.1268
  824MOL0     C13586   4.199   2.263   2.222 -0.5801 -0.4783  0.4783
  824MOL0     C13587   4.342   2.202   2.241  0.0489  0.5341  0.0551
  824MOL0     C13588   4.454   2.236   2.143  0.1151 -0.3258  0.5124
  824MOL0     C13589   4.574   2.152   2.190  0.3736  0.4240  0.1837
  824MOL0     C13590   4.696   2.176   2.094 -0.5262 -0.5722  1.2899
  824MOL0     N13591   4.788   2.275   2.142  0.3742 -0.3422  0.3614
  824MOL0     C13592   4.917   2.274   2.097  0.4739  0.2332 -0.3835
  824MOL0     C13593   4.965   2.398   2.127 -0.0418 -0.5753  0.3089
  824MOL0     C13594   5.092   2.464   2.070  0.2608  0.2298 -0.0283
  824MOL0     C13595   5.054   2.538   1.937 -0.8928  0.7042  0.1103
  824MOL0     C13596   5.130   2.667   1.926 -0.9199  0.3062  0.3510
  824MOL0     C13597   5.286   2.643   1.927  0.2425  0.2122 -0.0326
  824MOL0     O13598   5.318   2.567   1.809 -0.8131  0.1100 -0.4571
  824MOL0     C13599   5.442   2.511   1.788  0.1621  0.0658 -0.0861
  824MOL0     C13600   5.543   2.495   1.889 -0.4916 -0.5880  0.2792
  824MOL0     C13601   5.676   2.461   1.848 -0.0178  0.6052 -0.7332
  824MOL0     C13602   5.761   2.433   1.964  0.8785  0.4742 -0.8614
  824MOL0     C13603   5.704   2.421   1.712  0.1401  0.2393  0.7384
  824MOL0     C13604   5.828   2.364   1.662 -0.2284 -0.1287  0.1970
  824MOL0     O13605   5.830   2.295   1.548  0.2948  0.0376 -0.0080
  824MOL0     C13606   5.954   2.283   1.492 -1.1380  0.5323 -0.5881
  824MOL0     C13607   6.042   2.396   1.471  0.8956 -0.3825 -0.4074
  824MOL0     C13608   6.167   2.380   1.408  0.6624  1.0028  0.0588
  824MOL0     C13609   6.207   2.254   1.351 -0.6526  0.2137 -1.2671
  824MOL0     O13610   6.328   2.252   1.279  0.1746  0.5235  0.2014
  824MOL0     C13611   6.379   2.118   1.242  1.0634  0.1076  0.3838
  824MOL0     C13612   6.532   2.131   1.206 -0.0110  1.0836  0.1850
  824MOL0     C13613   6.628   2.190   1.312  0.4368  0.2773 -0.3940
  824MOL0     C13614   6.773   2.210   1.260  0.1028  0.4324  0.8371
  824MOL0     C13615   6.862   2.307   1.344 -0.4777  0.6986 -1.0359
  824MOL0     C13616   7.000   2.330   1.287  0.4548  0.8739  0.2758
  824MOL0     C13617   7.087   2.203   1.285  0.8583  0.5207 -0.0085
  824MOL0     C13618   7.236   2.238   1.271  0.2245  0.1668 -0.4869
  824MOL0    Cl13619   7.330   2.077   1.262 -0.5105  0.0689  0.0941
  824MOL0     C13620   6.108   2.155   1.353 -0.5088 -0.6773 -0.5924
  824MOL0     C13621   5.989   2.167   1.429  0.1700  0.3331  0.0137
  824MOL0     O13622   5.933   2.386   1.728  0.4493 -0.5948 -0.1273
  824MOL0     C13623   5.603   2.443   1.620  0.4340 -0.9238 -0.5593
  824MOL0     C13624   5.472   2.475   1.655  0.6099  0.4255  0.5645
  824MOL0     N13625   4.863   2.473   2.179  0.9246 -0.6154  0.2402
  824MOL0     N13626   4.750   2.399   2.183 -1.0780  0.6251  0.2058
  824MOL0     C13627   3.590   2.166   2.512  0.3018  0.3427  0.1372
  824MOL0     C13628   3.475   2.119   2.583 -0.1984  0.3949  0.2411
  824MOL0     C13629   3.113   1.922   2.745  0.4270  0.0395  0.2054
  824MOL0     C13630   2.995   1.918   2.676 -0.3606  0.2672  0.4899
  824MOL0     C13631   2.890   1.841   2.712 -0.1190  0.4117 -0.5871
  824MOL0     C13632   2.902   1.752   2.822  0.9021 -0.2560 -0.0254
  824MOL0     O13633   2.789   1.684   2.866  0.1779  0.2870  0.2490
  824MOL0     C13634   2.770   1.561   2.786 -0.0819  0.1998 -0.6256
  824MOL0     C13635   2.630   1.564   2.723  0.2223 -0.1007 -0.9803
  824MOL0     C13636   2.525   1.502   2.821  0.1940  1.1465 -0.7057
  824MOL0     C13637   2.388   1.506   2.758  1.1022  0.3679 -0.6683
  824MOL0     C13638   2.384   1.421   2.639 -1.2700  0.6567  0.3979
  824MOL0     C13639   2.395   1.359   2.532 -0.0110  0.4650  1.1344
  824MOL0     C13640   3.013   1.767   2.910  0.8328  0.4877  0.2496
  824MOL0     C13641   3.115   1.852   2.868 -0.0481 -0.6974 -1.0925
  824MOL0     C13642   3.235   1.869   2.958 -0.3556  0.1693  0.1834
  824MOL0     H13643   3.575   1.803   2.649  1.1346  0.3479  2.2850
  824MOL0     H13644   3.777   1.878   2.542 -1.0394 -0.8415 -0.5826
  824MOL0     H13645   3.870   2.312   2.443 -1.6396  0.3275 -0.6910
  824MOL0     H13646   3.736   2.282   2.329 -1.3530 -2.8392 -0.2413
  824MOL0     H13647   3.914   2.143   2.218 -3.7833  0.6761 -0.0353
  824MOL0     H13648   3.948   2.320   2.202  6.3971  0.1613  0.7610
  824MOL0     H13649   4.093   2.308   2.405 -2.8919 -1.6077  2.1914
  824MOL0     H13650   4.123   2.134   2.364  2.1433  0.7556  0.2609
  824MOL0     H13651   4.169   2.228   2.123  0.9227  0.1809 -0.2464
  824MOL0     H13652   4.219   2.370   2.217 -1.1191 -0.4460 -2.1573
  824MOL0     H13653   4.332   2.096   2.217  3.2350  0.1901 -0.0799
  824MOL0     H13654   4.363   2.205   2.348  3.6229 -2.2998 -0.3857
  824MOL0     H13655   4.427   2.206   2.041 -0.4845  0.1472  0.5241
  824MOL0     H13656   4.466   2.345   2.149  0.3008 -0.4396  3.4881
  824MOL0     H13657   4.549   2.046   2.180 -0.1815  0.6023 -0.4025
  824MOL0     H13658   4.608   2.189   2.287 -1.4811  1.4856  0.4753
  824MOL0     H13659   4.759   2.090   2.070  1.0885  1.2456 -1.5660
  824MOL0     H13660   4.660   2.211   1.997 -0.3455  1.2655  1.8483
  824MOL0     H13661   4.964   2.192   2.042 -0.7349 -1.4544  0.9811
  824MOL0     H13662   5.167   2.390   2.042 -0.3568 -0.5919  0.4157
  824MOL0     H13663   5.122   2.534   2.148 -0.6586 -1.0021  1.5062
  824MOL0     H13664   5.062   2.468   1.853  0.7020  2.2539 -1.1072
  824MOL0     H13665   4.951   2.570   1.953  0.3474  3.6804  3.3957
  824MOL0     H13666   5.116   2.713   1.827 -0.1947 -1.6056 -0.6979
  824MOL0     H13667   5.092   2.730   2.007  3.3150  3.5817  0.1070
  824MOL0     H13668   5.340   2.738   1.925 -1.0067  0.9725  0.8917
  824MOL0     H13669   5.320   2.601   2.022  1.1301 -0.1389 -0.4934
  824MOL0     H13670   5.527   2.517   1.994  1.2790 -0.3267  0.5149
  824MOL0     H13671   5.834   2.513   1.981  1.4911 -0.5117  1.6008
  824MOL0     H13672   5.810   2.337   1.949 -0.6870 -0.1908 -1.9124
  824MOL0     H13673   5.708   2.415   2.058 -1.6878  0.3292 -2.2551
  824MOL0     H13674   6.020   2.496   1.507  0.5090 -0.9803  1.0610
  824MOL0     H13675   6.224   2.470   1.387  1.8185  0.0442 -1.0952
  824MOL0     H13676   6.361   2.044   1.320 -0.2098 -1.1802 -1.0767
  824MOL0     H13677   6.344   2.076   1.147  4.0927  0.2336 -0.9172
  824MOL0     H13678   6.564   2.028   1.188 -1.8708 -0.3724  4.0321
  824MOL0     H13679   6.540   2.202   1.123  0.5031  1.0317  0.1823
  824MOL0     H13680   6.634   2.125   1.399  1.6174  0.6298 -0.1939
  824MOL0     H13681   6.594   2.284   1.357 -0.3406  0.0408 -0.4697
  824MOL0     H13682   6.768   2.241   1.156 -2.1548 -0.9724  0.4567
  824MOL0     H13683   6.822   2.112   1.257  1.6947  1.2151 -0.6453
  824MOL0     H13684   6.815   2.407   1.349 -0.1045  0.8601  3.5814
  824MOL0     H13685   6.877   2.272   1.446 -2.2315  3.3388  0.2608
  824MOL0     H13686   7.036   2.419   1.338  1.5027  1.2445 -1.0338
  824MOL0     H13687   6.980   2.355   1.182 -1.2415 -2.7157 -0.4121
  824MOL0     H13688   7.065   2.147   1.194  1.4933  0.4927 -0.1471
  824MOL0     H13689   7.065   2.137   1.370 -0.3678  0.0764 -0.6543
  824MOL0     H13690   7.282   2.292   1.355  0.0237 -0.3849 -0.0172
  824MOL0     H13691   7.266   2.293   1.181  4.1702  3.4100  2.4466
  824MOL0     H13692   6.132   2.063   1.300 -0.6163 -1.3847  0.5648
  824MOL0     H13693   5.919   2.084   1.422  0.2105  0.4149 -1.7053
  824MOL0     H13694   5.632   2.427   1.517  0.3960  0.9195 -0.8857
  824MOL0     H13695   5.393   2.489   1.582 -1.2778 -0.5824  2.3068
  824MOL0     H13696   3.589   2.269   2.478 -0.1819  0.1214 -0.5504
  824MOL0     H13697   3.394   2.191   2.590  1.8061  3.4981 -4.2695
  824MOL0     H13698   2.979   1.961   2.578 -0.2860 -2.7670 -0.9655
  824MOL0     H13699   2.801   1.835   2.650 -0.0621 -0.8630 -0.5761
  824MOL0     H13700   2.843   1.544   2.707  2.0350 -1.1362  1.4917
  824MOL0     H13701   2.770   1.478   2.858  1.5576 -0.2851 -1.1549
  824MOL0     H13702   2.640   1.499   2.636 -0.7803  0.3353 -1.4367
  824MOL0     H13703   2.596   1.665   2.700  1.1905  0.3861 -0.3597
  824MOL0     H13704   2.554   1.399   2.843  5.0384  2.1620 -1.2695
  824MOL0     H13705   2.525   1.560   2.914  1.8979  1.3370 -0.7941
  824MOL0     H13706   2.347   1.607   2.746  3.5007  1.5352  0.2667
  824MOL0     H13707   2.322   1.452   2.826 -0.4523  1.6519 -1.0954
  824MOL0     H13708   2.399   1.312   2.435 -0.5893 -0.5536  1.5842
  824MOL0     H13709   3.018   1.711   3.002 -0.7759 -2.4800 -1.2916
  824MOL0     H13710   3.258   1.976   2.960  0.2275  0.0875 -1.2462
  824MOL0     H13711   3.214   1.827   3.057  3.0337 -2.6641 -0.1230
  824MOL0     H13712   3.319   1.806   2.927  0.4348  1.1245  0.3506
  825MOL0     O13713  10.558   0.887   3.761  0.4009  0.8169  0.3575
  825MOL0     C13714  10.466   0.907   3.846 -0.0802 -0.3327 -0.0715
  825MOL0     O13715  10.484   0.963   3.971 -0.0144 -0.0405 -0.2612
  825MOL0     C13716  10.603   0.961   4.040  0.1811 -0.5816 -1.0349
  825MOL0     C13717  10.715   0.877   4.025 -0.3306  0.7584 -0.4000
  825MOL0     C13718  10.838   0.891   4.093 -0.2519  0.5277  0.0149
  825MOL0     C13719  10.853   1.006   4.177 -0.4503 -0.1071 -0.2920
  825MOL0     O13720  10.972   1.021   4.248 -0.1932 -0.0529  0.2756
  825MOL0     C13721  10.982   1.096   4.369  0.2178  0.3333 -0.9296
  825MOL0     C13722  10.995   1.000   4.491 -0.0147  0.4627  0.1154
  825MOL0     C13723  11.118   0.917   4.484 -0.4852 -0.2063  0.4215
  825MOL0     C13724  11.253   0.988   4.463  0.6956 -0.0465  0.1311
  825MOL0     C13725  11.375   0.901   4.497 -0.2386  0.3045 -0.4764
  825MOL0     C13726  11.409   0.917   4.644  0.6400  0.3648  0.5188
  825MOL0     C13727  11.505   0.802   4.686 -0.1672  0.1922 -0.4051
  825MOL0     C13728  11.510   0.806   4.839 -0.2766  0.5389  0.4106
  825MOL0     N13729  11.637   0.738   4.875 -0.8886 -0.1029 -0.3973
  825MOL0     C13730  11.674   0.601   4.872 -1.0457 -0.4536  0.1653
  825MOL0     C13731  11.805   0.591   4.909  0.0569 -0.1028 -0.3582
  825MOL0     C13732  11.880   0.460   4.903  0.0137  0.8724 -0.8008
  825MOL0     C13733  12.030   0.476   4.931  1.1483 -0.9379  1.0383
  825MOL0     C13734  12.123   0.524   4.814  0.7507  0.0123  0.0617
  825MOL0     C13735  12.272   0.548   4.841 -0.0267  0.7096 -0.2749
  825MOL0     O13736  12.293   0.670   4.898  0.0898  0.7269  0.5490
  825MOL0     C13737  12.422   0.722   4.901  0.1616  0.1501  0.1299
  825MOL0     C13738  12.441   0.852   4.937  0.0241 -0.9820  0.3754
  825MOL0     C13739  12.563   0.918   4.942  0.7152 -0.9319  0.1434
  825MOL0     C13740  12.559   1.061   4.974  0.2425 -0.6674 -0.0903
  825MOL0     C13741  12.680   0.845   4.929 -0.4775  0.6686 -0.4286
  825MOL0     C13742  12.813   0.903   4.930 -0.6628 -0.8518 -0.6824
  825MOL0     O13743  12.826   1.022   4.855 -0.0751  0.5394  0.2990
  825MOL0     C13744  12.963   1.037   4.816  0.1333 -0.0254  0.0461
  825MOL0     C13745  13.027   0.943   4.739  0.1315 -0.2822  0.0521
  825MOL0     C13746  13.170   0.954   4.713 -0.6014  0.4260  0.2827
  825MOL0     C13747  13.249   1.050   4.770 -0.2864 -0.1737 -1.1871
  825MOL0     O13748  13.378   1.070   4.740  0.1974  0.0330  0.0072
  825MOL0     C13749  13.443   0.978   4.652 -0.0773  0.3973  0.1274
  825MOL0     C13750  13.590   1.031   4.624 -0.8641 -0.2725  0.0659
  825MOL0     C13751  13.684   0.923   4.568  0.4370 -0.7778 -0.1502
  825MOL0     C13752  13.650   0.866   4.434  0.4389 -0.0964 -0.4147
  825MOL0     C13753  13.776   0.829   4.358  0.2580 -0.1341 -0.0467
  825MOL0     C13754  13.860   0.946   4.299  0.3026  0.3710 -0.4962
  825MOL0     C13755  13.944   0.922   4.177  0.2163  0.2478  0.5944
  825MOL0     C13756  13.862   0.901   4.055  0.0839 -0.3100  0.0713
  825MOL0    Cl13757  13.734   1.022   4.028  0.4604  0.2192  0.0667
  825MOL0     C13758  13.187   1.138   4.858  0.4204 -0.3250  0.7608
  825MOL0     C13759  13.043   1.132   4.868 -0.3803 -0.3794 -0.4672
  825MOL0     O13760  12.910   0.837   4.976  0.3987  0.0044 -0.4260
  825MOL0     C13761  12.665   0.708   4.905 -0.8162 -0.0042  0.0952
  825MOL0     C13762  12.539   0.652   4.884 -0.7311  0.7859 -0.9439
  825MOL0     N13763  11.855   0.722   4.917 -0.5055  0.9058  0.7823
  825MOL0     N13764  11.755   0.806   4.898 -0.1737  0.0694 -0.4699
  825MOL0     C13765  10.750   1.090   4.192 -0.2395  0.0822  0.6720
  825MOL0     C13766  10.624   1.066   4.129 -0.3126  0.5763 -0.4683
  825MOL0     C13767  10.320   0.897   3.813 -0.1918  0.5075 -0.1161
  825MOL0     C13768  10.220   0.960   3.893  0.3400  0.0733 -0.4994
  825MOL0     C13769  10.088   0.949   3.859  0.1435  0.7035  0.2820
  825MOL0     C13770  10.050   0.882   3.735  0.7300  0.3671 -1.1112
  825MOL0     O13771   9.913   0.889   3.713  0.0930  0.8146 -0.0294
  825MOL0     C13772   9.874   0.906   3.574  0.3522  0.8139 -0.5300
  825MOL0     C13773   9.718   0.919   3.565  0.4874  0.5412  0.7978
  825MOL0     C13774   9.685   0.973   3.425  0.1872 -0.7233 -0.0055
  825MOL0     C13775   9.536   0.998   3.384 -0.3076  0.4787 -0.3738
  825MOL0     C13776   9.478   0.866   3.353  0.2923 -0.0212 -0.6108
  825MOL0     C13777   9.426   0.761   3.327 -0.7955  0.2147  0.0567
  825MOL0     C13778  10.152   0.839   3.650 -0.2580 -0.0818  0.3373
  825MOL0     C13779  10.281   0.836   3.688 -0.0464 -0.4371 -0.0565
  825MOL0     C13780  10.383   0.783   3.588  0.5690 -0.2829 -0.1330
  825MOL0     H13781  10.719   0.783   3.971  0.1444  0.5045  0.0717
  825MOL0     H13782  10.921   0.822   4.101 -0.9541 -0.1669  1.7478
  825MOL0     H13783  10.889   1.146   4.396  0.9771  1.4839 -0.3419
  825MOL0     H13784  11.056   1.177   4.373 -1.6467  2.0684  0.4707
  825MOL0     H13785  10.997   1.076   4.570 -1.0955  1.9489 -1.2431
  825MOL0     H13786  10.902   0.943   4.490 -0.7037  1.5796  0.1219
  825MOL0     H13787  11.120   0.854   4.573 -1.8463 -0.2990  0.3962
  825MOL0     H13788  11.106   0.850   4.399  2.7060  1.4301 -1.5097
  825MOL0     H13789  11.261   1.013   4.357 -0.4709 -0.8709 -0.1804
  825MOL0     H13790  11.262   1.086   4.511  0.7225 -0.9014  1.9449
  825MOL0     H13791  11.457   0.945   4.439 -0.2131  0.7579 -0.1129
  825MOL0     H13792  11.362   0.796   4.473  2.4764  0.6274 -4.1084
  825MOL0     H13793  11.447   1.019   4.658 -3.7554  2.1745  1.0234
  825MOL0     H13794  11.321   0.904   4.708 -0.8827 -1.0998 -1.7426
  825MOL0     H13795  11.602   0.830   4.643 -0.8114 -0.4766 -2.3856
  825MOL0     H13796  11.485   0.700   4.652 -2.5732  0.7350 -0.7771
  825MOL0     H13797  11.511   0.911   4.873 -1.5259  0.4932  0.6202
  825MOL0     H13798  11.432   0.754   4.895 -3.3724  0.9311 -3.1278
  825MOL0     H13799  11.612   0.517   4.842 -0.5685  0.2227 -3.0891
  825MOL0     H13800  11.867   0.425   4.800  0.7589 -0.1615 -0.5673
  825MOL0     H13801  11.839   0.392   4.978 -0.1953  1.3981 -0.4407
  825MOL0     H13802  12.047   0.532   5.023 -0.5727 -0.3730  1.0411
  825MOL0     H13803  12.062   0.372   4.948  3.9402 -0.4257 -0.3992
  825MOL0     H13804  12.120   0.449   4.735 -0.3497 -1.1742  1.1820
  825MOL0     H13805  12.081   0.619   4.780 -0.3641 -1.1912 -2.1056
  825MOL0     H13806  12.314   0.466   4.901  4.1147  1.6501 -1.5119
  825MOL0     H13807  12.319   0.548   4.742  3.0870 -1.0726  1.0433
  825MOL0     H13808  12.356   0.920   4.942  0.1238 -0.7259 -0.9938
  825MOL0     H13809  12.522   1.130   4.898  1.8902 -1.0581 -1.3122
  825MOL0     H13810  12.648   1.112   5.012 -0.1917  0.8928 -1.0981
  825MOL0     H13811  12.495   1.069   5.062  0.0754 -1.4098 -0.1364
  825MOL0     H13812  12.967   0.864   4.695  2.2702 -1.6792 -0.5130
  825MOL0     H13813  13.220   0.885   4.646 -0.5745  1.6053 -0.9718
  825MOL0     H13814  13.459   0.878   4.695  3.2611  0.7505 -0.0206
  825MOL0     H13815  13.393   0.964   4.556  2.5043 -4.1394 -0.8852
  825MOL0     H13816  13.582   1.105   4.543  0.9741 -1.4690 -1.2853
  825MOL0     H13817  13.623   1.075   4.718 -0.6554  1.2452 -0.6734
  825MOL0     H13818  13.699   0.831   4.626  2.9753 -0.1089  0.3836
  825MOL0     H13819  13.783   0.969   4.570 -0.7961  2.1447 -0.9459
  825MOL0     H13820  13.599   0.937   4.368  0.9509 -0.6614 -1.4513
  825MOL0     H13821  13.589   0.778   4.457 -0.1443  0.2110 -0.7675
  825MOL0     H13822  13.845   0.763   4.412  1.5603  0.9315 -0.3263
  825MOL0     H13823  13.739   0.770   4.274  1.6884 -1.3274  0.1227
  825MOL0     H13824  13.925   0.979   4.380  0.3157  0.8976 -0.7135
  825MOL0     H13825  13.800   1.036   4.280  0.7800  0.2122 -3.2424
  825MOL0     H13826  14.015   0.839   4.193  0.2227 -0.0700 -0.9937
  825MOL0     H13827  13.988   1.020   4.159 -1.1831  0.7750 -0.0582
  825MOL0     H13828  13.825   0.802   4.025  0.3958 -0.2971 -0.3705
  825MOL0     H13829  13.935   0.916   3.975 -0.8416 -1.2272 -0.9947
  825MOL0     H13830  13.248   1.223   4.888 -0.1152  1.3312 -2.4048
  825MOL0     H13831  13.007   1.202   4.943  0.4635 -0.7761  0.3197
  825MOL0     H13832  12.750   0.642   4.893 -2.2028 -1.9845  0.6672
  825MOL0     H13833  12.538   0.549   4.852  2.6342  0.3138  0.0790
  825MOL0     H13834  10.762   1.181   4.251  0.8319 -2.4073  4.6716
  825MOL0     H13835  10.559   1.153   4.131 -0.5237  0.4040  0.0734
  825MOL0     H13836  10.247   1.011   3.985  4.0791 -3.3165  0.5805
  825MOL0     H13837  10.001   0.971   3.920 -1.5577 -1.7861 -1.0469
  825MOL0     H13838   9.919   0.995   3.529 -2.8717  2.0077 -1.7346
  825MOL0     H13839   9.906   0.815   3.522  0.0126  0.4913 -0.1797
  825MOL0     H13840   9.677   0.992   3.635  0.1024 -1.0395  2.3192
  825MOL0     H13841   9.683   0.816   3.577 -0.6656  0.6885 -0.9430
  825MOL0     H13842   9.729   1.073   3.418  0.2729 -0.4656  2.8300
  825MOL0     H13843   9.724   0.896   3.358 -0.9876 -0.9433 -0.4566
  825MOL0     H13844   9.527   1.069   3.301 -2.4499  0.3618 -0.2985
  825MOL0     H13845   9.472   1.047   3.457  1.0640  1.8286 -0.0230
  825MOL0     H13846   9.394   0.666   3.290 -2.4405  0.5517  0.5300
  825MOL0     H13847  10.139   0.800   3.549  0.3928 -1.2419  0.6911
  825MOL0     H13848  10.336   0.729   3.505  0.1225  0.1903 -0.1950
  825MOL0     H13849  10.445   0.862   3.545  0.7449  0.3514  1.2219
  825MOL0     H13850  10.436   0.704   3.642 -1.1041 -0.7472  0.9020
  826MOL0     O13851   7.017   0.387   7.294 -0.6209 -0.1951  0.1580
  826MOL0     C13852   6.990   0.502   7.266 -0.0007 -0.7369  0.5811
  826MOL0     O13853   7.067   0.604   7.283 -0.0021 -0.2873 -0.3175
  826MOL0     C13854   7.199   0.598   7.246 -0.4172  0.2223  1.2555
  826MOL0     C13855   7.281   0.700   7.297 -0.8053 -0.1732  0.6535
  826MOL0     C13856   7.416   0.677   7.293  0.4296 -0.4140  0.3554
  826MOL0     C13857   7.473   0.575   7.228 -0.1665 -0.1731 -0.5105
  826MOL0     O13858   7.609   0.574   7.209 -0.2973  0.3048  0.4094
  826MOL0     C13859   7.686   0.456   7.164  0.5968 -0.0860  0.5048
  826MOL0     C13860   7.826   0.503   7.180 -0.0489 -0.7207  0.0330
  826MOL0     C13861   7.873   0.598   7.071  0.7304  0.2613  0.1475
  826MOL0     C13862   8.023   0.637   7.085  0.0844 -0.4477  0.3200
  826MOL0     C13863   8.045   0.727   6.963  0.2489 -0.5893  0.1802
  826MOL0     C13864   7.980   0.865   6.937  0.7349  0.2575 -0.7934
  826MOL0     C13865   8.027   0.950   6.811  0.5607  0.0089 -0.6714
  826MOL0     C13866   7.949   0.895   6.691  0.5038  0.1289 -0.1081
  826MOL0     N13867   7.805   0.859   6.714  0.4821  0.2348 -0.3194
  826MOL0     C13868   7.753   0.741   6.754  0.2980 -0.5900 -0.5028
  826MOL0     C13869   7.628   0.764   6.800 -0.9402 -0.4352  1.2009
  826MOL0     C13870   7.532   0.661   6.853  0.0930  0.2498 -0.1662
  826MOL0     C13871   7.434   0.609   6.747 -0.2040  0.2300  0.5720
  826MOL0     C13872   7.312   0.704   6.717 -0.2266 -1.0045  0.0573
  826MOL0     C13873   7.189   0.656   6.790 -0.5989  0.5089 -0.6425
  826MOL0     O13874   7.156   0.528   6.736  0.0734  0.2189  0.2786
  826MOL0     C13875   7.023   0.489   6.755  0.0506  0.4441  0.7114
  826MOL0     C13876   6.970   0.381   6.689 -0.5044 -0.5640 -0.4998
  826MOL0     C13877   6.836   0.339   6.697  0.4354 -0.4737  0.3382
  826MOL0     C13878   6.794   0.226   6.611  0.5222  0.9482  0.8722
  826MOL0     C13879   6.740   0.419   6.767  0.0690 -0.7261  0.9032
  826MOL0     C13880   6.592   0.383   6.782  0.3861 -0.0142  0.1166
  826MOL0     O13881   6.521   0.491   6.829 -0.1384  0.3980  0.0215
  826MOL0     C13882   6.386   0.481   6.846 -0.7117  0.4616 -0.2435
  826MOL0     C13883   6.323   0.374   6.908  0.8934 -0.5273  0.8138
  826MOL0     C13884   6.184   0.374   6.936 -0.1819  0.8610 -0.3470
  826MOL0     C13885   6.110   0.482   6.899  0.0137  0.3426  0.4596
  826MOL0     O13886   5.977   0.462   6.928 -0.0376  0.1264 -0.3105
  826MOL0     C13887   5.882   0.555   6.875 -0.0587  0.0582 -0.3149
  826MOL0     C13888   5.743   0.520   6.937 -0.1388  0.5567 -0.3273
  826MOL0     C13889   5.746   0.560   7.087 -1.0376 -0.3188  0.0493
  826MOL0     C13890   5.695   0.451   7.180 -0.1210  1.2263  0.3141
  826MOL0     C13891   5.673   0.506   7.321  0.3411 -0.1583 -0.7095
  826MOL0     C13892   5.633   0.406   7.429  0.7326  0.2864  0.3536
  826MOL0     C13893   5.507   0.314   7.420  0.5370 -0.0464  0.1638
  826MOL0     C13894   5.370   0.385   7.410  1.2438 -0.3587  0.9146
  826MOL0    Cl13895   5.345   0.468   7.568  0.2254 -0.0302  0.0629
  826MOL0     C13896   6.168   0.589   6.831 -0.0276 -0.0001  1.0242
  826MOL0     C13897   6.305   0.582   6.800  0.1020  0.4619  0.0588
  826MOL0     O13898   6.554   0.274   6.742 -0.7355 -0.2604 -0.6626
  826MOL0     C13899   6.793   0.535   6.833 -0.5655 -0.2814 -0.0170
  826MOL0     C13900   6.929   0.564   6.823 -0.0567 -0.7865  0.1590
  826MOL0     N13901   7.611   0.901   6.786 -0.7054  0.1150 -0.1455
  826MOL0     N13902   7.715   0.957   6.739 -0.6248 -0.5577  0.5301
  826MOL0     C13903   7.394   0.476   7.157 -0.7235 -0.1496 -0.3808
  826MOL0     C13904   7.257   0.485   7.178 -0.8204 -0.7537  0.1802
  826MOL0     C13905   6.844   0.535   7.268 -0.1058 -0.4930 -0.5778
  826MOL0     C13906   6.801   0.655   7.331 -0.3372  0.1800  0.3996
  826MOL0     C13907   6.665   0.688   7.315 -0.4969 -0.0315 -0.0244
  826MOL0     C13908   6.565   0.606   7.261 -0.4727 -0.2793  0.4400
  826MOL0     O13909   6.442   0.667   7.254 -0.7705  0.0773  0.7080
  826MOL0     C13910   6.334   0.604   7.194 -0.2094  0.3757 -0.4871
  826MOL0     C13911   6.202   0.651   7.239 -0.1659  0.0990  0.2593
  826MOL0     C13912   6.180   0.629   7.391 -0.8685  0.3290 -0.1538
  826MOL0     C13913   6.055   0.720   7.431 -0.1624  0.2775 -0.2655
  826MOL0     C13914   6.006   0.681   7.561 -0.3214 -0.7364 -0.1891
  826MOL0     C13915   5.961   0.656   7.667  0.2396  1.2892 -0.1118
  826MOL0     C13916   6.615   0.491   7.201  0.0118  0.5648 -0.5166
  826MOL0     C13917   6.753   0.454   7.203  0.5017 -0.0897  1.2289
  826MOL0     C13918   6.793   0.331   7.122 -0.6352 -0.1001  0.5289
  826MOL0     H13919   7.239   0.784   7.352 -0.1075 -0.3983  1.5545
  826MOL0     H13920   7.486   0.741   7.346  1.5914 -1.8853  0.6667
  826MOL0     H13921   7.668   0.431   7.059 -0.4301  1.0159  0.3943
  826MOL0     H13922   7.674   0.369   7.229  0.8333 -0.2286  0.3577
  826MOL0     H13923   7.834   0.551   7.278 -0.7188  3.5142 -1.7832
  826MOL0     H13924   7.897   0.419   7.181  1.3416  0.4120  1.0296
  826MOL0     H13925   7.853   0.544   6.979 -5.2474 -2.3429  2.4508
  826MOL0     H13926   7.817   0.691   7.072  0.8676  0.4311 -2.3672
  826MOL0     H13927   8.048   0.684   7.180 -1.7574  0.0429  0.6154
  826MOL0     H13928   8.083   0.548   7.066  2.3928  1.1947 -0.5752
  826MOL0     H13929   8.029   0.664   6.875 -1.4711  0.3828 -0.2525
  826MOL0     H13930   8.147   0.767   6.972  0.3594 -1.2596  2.3335
  826MOL0     H13931   7.873   0.865   6.959  1.0190  1.2421  0.7798
  826MOL0     H13932   8.011   0.937   7.014 -1.7008 -2.0732  2.6861
  826MOL0     H13933   8.134   0.932   6.801  0.2974 -0.6856 -2.8880
  826MOL0     H13934   8.016   1.059   6.815  0.9286  0.0771 -1.3747
  826MOL0     H13935   7.946   0.966   6.608 -1.5279  1.6955  1.1830
  826MOL0     H13936   7.990   0.795   6.676  1.0523  0.4898 -1.0606
  826MOL0     H13937   7.807   0.648   6.742 -0.4108 -1.1291  0.3556
  826MOL0     H13938   7.492   0.693   6.949  0.3825 -0.6913  0.2761
  826MOL0     H13939   7.602   0.579   6.872  1.4220  0.6430 -2.8177
  826MOL0     H13940   7.482   0.590   6.650  0.5302 -0.9342  1.1485
  826MOL0     H13941   7.396   0.512   6.780 -0.7592 -0.5343 -2.0378
  826MOL0     H13942   7.346   0.802   6.752 -0.7317 -0.7811 -0.0757
  826MOL0     H13943   7.288   0.709   6.611 -0.0416  0.7052  0.0754
  826MOL0     H13944   7.196   0.642   6.898 -1.0044  2.5353 -0.3099
  826MOL0     H13945   7.120   0.735   6.761 -1.3000 -0.3559 -1.4279
  826MOL0     H13946   7.044   0.316   6.643  1.3313  1.3109 -0.3438
  826MOL0     H13947   6.880   0.191   6.554  0.9183  0.1135  1.9430
  826MOL0     H13948   6.721   0.250   6.533  0.0372 -0.5494  0.8332
  826MOL0     H13949   6.763   0.143   6.676 -0.3127  0.1623 -0.4928
  826MOL0     H13950   6.374   0.281   6.933  2.0517 -0.2763 -0.4800
  826MOL0     H13951   6.132   0.284   6.970 -0.5008  0.8212 -0.9327
  826MOL0     H13952   5.915   0.652   6.915  3.6459 -1.3453  0.4083
  826MOL0     H13953   5.874   0.554   6.766 -2.9823 -1.4486 -0.1761
  826MOL0     H13954   5.661   0.577   6.890 -0.2150  0.9307  0.2432
  826MOL0     H13955   5.727   0.415   6.913  0.2662  0.7284 -1.4086
  826MOL0     H13956   5.684   0.650   7.093  0.9095  1.4379 -3.2058
  826MOL0     H13957   5.849   0.590   7.112 -1.5276  0.6501  1.0064
  826MOL0     H13958   5.767   0.369   7.181 -2.5124 -1.0112 -0.3411
  826MOL0     H13959   5.600   0.411   7.142  0.3056 -0.1713  0.6452
  826MOL0     H13960   5.772   0.543   7.349  0.6010 -2.6339  2.2757
  826MOL0     H13961   5.613   0.596   7.334  2.4548  1.2347 -0.0218
  826MOL0     H13962   5.615   0.459   7.523  3.3211  0.7826  0.6439
  826MOL0     H13963   5.715   0.335   7.440  0.2548  0.0010  2.4741
  826MOL0     H13964   5.496   0.235   7.495 -0.0754 -0.7537 -0.6554
  826MOL0     H13965   5.520   0.261   7.325  0.7681  2.2510 -1.1545
  826MOL0     H13966   5.304   0.299   7.393 -1.2822  1.2913  1.7481
  826MOL0     H13967   5.365   0.451   7.324  2.8458 -2.2847 -0.7525
  826MOL0     H13968   6.105   0.664   6.783 -1.1572 -0.8828  1.1124
  826MOL0     H13969   6.343   0.671   6.750 -1.0569  0.1277 -1.4992
  826MOL0     H13970   6.726   0.599   6.890  0.4631  0.6677  0.1703
  826MOL0     H13971   6.963   0.652   6.876  0.9916 -0.0760 -1.5776
  826MOL0     H13972   7.435   0.402   7.089 -1.6915 -0.4515 -0.6500
  826MOL0     H13973   7.186   0.414   7.138 -0.3208 -2.5795  2.3163
  826MOL0     H13974   6.861   0.723   7.391 -0.6834 -0.1070  1.0850
  826MOL0     H13975   6.656   0.789   7.353  1.6456  0.4774 -0.7582
  826MOL0     H13976   6.334   0.625   7.086 -0.0246  0.8804 -0.3907
  826MOL0     H13977   6.341   0.496   7.207  0.6867  0.0869 -2.8310
  826MOL0     H13978   6.125   0.595   7.186 -1.7954  1.5947  0.9548
  826MOL0     H13979   6.192   0.756   7.209  0.5696  0.4600  1.2250
  826MOL0     H13980   6.155   0.523   7.401  3.1294 -0.7688  0.0667
  826MOL0     H13981   6.275   0.649   7.441  0.7023 -2.4663 -1.7894
  826MOL0     H13982   5.970   0.696   7.367 -0.4285 -0.1488  0.2290
  826MOL0     H13983   6.095   0.821   7.419  1.7210 -0.5315 -1.2598
  826MOL0     H13984   5.931   0.637   7.768 -0.4746 -1.4413 -0.7526
  826MOL0     H13985   6.544   0.415   7.170 -0.9741 -0.2833  3.3405
  826MOL0     H13986   6.718   0.304   7.047  1.1752 -3.0148 -0.4165
  826MOL0     H13987   6.881   0.354   7.062 -1.2462 -1.3192 -0.9072
  826MOL0     H13988   6.822   0.243   7.181 -0.0835  0.5081  1.1824
  827MOL0     O13989   2.952   5.927   0.508  1.0849 -0.6792 -0.0048
  827MOL0     C13990   2.943   5.804   0.501 -0.3179 -1.0576 -0.2784
  827MOL0     O13991   3.046   5.718   0.475  0.3380  0.3027 -0.0938
  827MOL0     C13992   3.176   5.757   0.458 -0.3601 -0.1065  0.7650
  827MOL0     C13993   3.238   5.856   0.539 -0.2988  0.9964 -0.0129
  827MOL0     C13994   3.374   5.882   0.529 -1.2728  0.2888 -0.2078
  827MOL0     C13995   3.451   5.822   0.428  0.2396 -0.1285  0.2697
  827MOL0     O13996   3.584   5.854   0.426 -0.5959  0.1263  0.1311
  827MOL0     C13997   3.665   5.813   0.318  0.3897  0.0556  0.2684
  827MOL0     C13998   3.802   5.864   0.335 -0.1553  0.1584  0.6669
  827MOL0     C13999   3.804   6.015   0.299  0.7578  1.1258 -0.7470
  827MOL0     C14000   3.950   6.056   0.305  0.8707  0.6001 -0.2024
  827MOL0     C14001   3.946   6.198   0.273 -0.9504 -0.2176  0.0289
  827MOL0     C14002   4.081   6.265   0.272 -0.2422 -0.2064  0.2593
  827MOL0     C14003   4.097   6.407   0.222  0.0040  0.2822  0.3996
  827MOL0     C14004   4.084   6.506   0.344  0.4777  0.5714  0.8221
  827MOL0     N14005   4.114   6.645   0.306  0.2641  0.4508  1.0514
  827MOL0     C14006   4.241   6.688   0.279 -0.1795  0.4029 -0.9539
  827MOL0     C14007   4.246   6.825   0.292  1.1483 -0.2871 -0.2800
  827MOL0     C14008   4.371   6.912   0.273 -0.1566 -0.4317  0.3860
  827MOL0     C14009   4.328   7.063   0.253  0.4960  0.8178 -0.2223
  827MOL0     C14010   4.218   7.097   0.150  0.1208  0.3749 -0.2297
  827MOL0     C14011   4.244   7.052   0.008 -0.1052  0.0690 -0.0816
  827MOL0     O14012   4.381   7.070  -0.024  0.0118 -0.1799  0.2821
  827MOL0     C14013   4.420   7.176  -0.099  0.3927  0.1969 -0.3581
  827MOL0     C14014   4.331   7.272  -0.153  0.3056  1.2171  0.2314
  827MOL0     C14015   4.381   7.375  -0.219 -0.7540  0.0150  0.8237
  827MOL0     C14016   4.279   7.460  -0.294  0.3988 -1.5152 -0.1735
  827MOL0     C14017   4.523   7.399  -0.237 -0.1592 -0.2092 -0.7375
  827MOL0     C14018   4.589   7.511  -0.308  0.2599  0.3964  0.9261
  827MOL0     O14019   4.728   7.509  -0.325 -0.6072 -0.0345  0.0069
  827MOL0     C14020   4.789   7.632  -0.367  0.8451 -0.0307  0.0080
  827MOL0     C14021   4.794   7.740  -0.283  0.4030 -0.2709  0.9884
  827MOL0     C14022   4.830   7.867  -0.346  0.4137 -0.0017 -1.3822
  827MOL0     C14023   4.880   7.872  -0.475  1.0315 -0.6098  0.0248
  827MOL0     O14024   4.927   7.994  -0.510  0.7543  0.0154 -0.2430
  827MOL0     C14025   4.954   8.041  -0.647  0.4948 -0.0787  0.1120
  827MOL0     C14026   5.083   8.117  -0.663 -0.8474 -1.0781 -0.0548
  827MOL0     C14027   5.209   8.034  -0.636  0.1545 -0.2112 -0.1718
  827MOL0     C14028   5.292   8.074  -0.512 -0.1455  0.0557 -0.2514
  827MOL0     C14029   5.434   8.027  -0.507  0.0070 -0.0907  0.2011
  827MOL0     C14030   5.509   8.057  -0.376 -0.5733 -0.1764  0.5488
  827MOL0     C14031   5.639   7.987  -0.380  0.8036  0.2594  0.2037
  827MOL0     C14032   5.726   8.019  -0.243 -0.4495 -0.5812  0.8000
  827MOL0    Cl14033   5.762   8.196  -0.205 -0.6148 -0.1764 -0.0547
  827MOL0     C14034   4.877   7.755  -0.555 -0.1869  0.7991  0.2217
  827MOL0     C14035   4.820   7.639  -0.503 -0.3453  0.6125 -0.6815
  827MOL0     O14036   4.516   7.603  -0.351 -0.6819 -0.4890  0.0518
  827MOL0     C14037   4.602   7.303  -0.177  0.4035 -0.3817  0.5973
  827MOL0     C14038   4.552   7.191  -0.119  0.8524 -0.0172  0.8272
  827MOL0     N14039   4.114   6.857   0.320 -0.4072 -0.5456  0.3629
  827MOL0     N14040   4.040   6.752   0.310 -0.0755  0.0859 -0.0188
  827MOL0     C14041   3.387   5.734   0.340  0.5288 -0.1393 -0.0007
  827MOL0     C14042   3.253   5.692   0.354  0.8607  0.5580  0.8894
  827MOL0     C14043   2.807   5.743   0.513  0.6892 -0.2890 -0.4497
  827MOL0     C14044   2.703   5.835   0.529 -0.4341  0.9575 -0.1049
  827MOL0     C14045   2.570   5.789   0.533  0.1291  0.0864 -0.0709
  827MOL0     C14046   2.537   5.650   0.521 -0.0747  0.5774 -0.8562
  827MOL0     O14047   2.412   5.584   0.510 -0.3832 -0.1181  0.1856
  827MOL0     C14048   2.305   5.670   0.504  0.4167  0.7741 -0.2049
  827MOL0     C14049   2.192   5.580   0.455  0.0770  0.3142  0.3521
  827MOL0     C14050   2.149   5.468   0.547  0.4885  1.0421 -0.5923
  827MOL0     C14051   2.039   5.371   0.492  0.1852 -0.2130 -0.7939
  827MOL0     C14052   1.955   5.309   0.598 -0.1497 -0.6671  0.2999
  827MOL0     C14053   1.874   5.265   0.681 -0.1063 -0.1655  0.7947
  827MOL0     C14054   2.646   5.560   0.514 -0.7873  0.4399  0.0844
  827MOL0     C14055   2.776   5.602   0.502 -0.4503  0.1750  0.5540
  827MOL0     C14056   2.880   5.488   0.478  0.1918 -0.3478 -0.3111
  827MOL0     H14057   3.186   5.900   0.623 -0.4562  1.1535 -0.1908
  827MOL0     H14058   3.421   5.965   0.581  1.5666 -0.1808 -1.8371
  827MOL0     H14059   3.632   5.848   0.220  0.3184 -0.7762 -0.0114
  827MOL0     H14060   3.666   5.703   0.322  1.8090  0.0422  0.0317
  827MOL0     H14061   3.841   5.844   0.436  1.9737  0.6862 -0.0003
  827MOL0     H14062   3.871   5.806   0.274 -2.0791 -0.5757 -0.9005
  827MOL0     H14063   3.757   6.042   0.204 -0.4875  0.2368 -0.4177
  827MOL0     H14064   3.756   6.077   0.375 -0.4073  1.8506 -2.0192
  827MOL0     H14065   4.007   6.038   0.396 -1.4968 -3.0840  0.7806
  827MOL0     H14066   4.003   6.004   0.225  0.4304 -1.1635  0.6183
  827MOL0     H14067   3.882   6.257   0.340  1.2180 -0.1690  2.2097
  827MOL0     H14068   3.912   6.214   0.170  0.6062 -0.0129 -0.4777
  827MOL0     H14069   4.134   6.260   0.367  0.1857  3.3827  0.3458
  827MOL0     H14070   4.134   6.203   0.198 -2.5630 -0.3953 -1.3410
  827MOL0     H14071   4.011   6.428   0.158  0.1548  1.9820  0.7109
  827MOL0     H14072   4.181   6.421   0.154 -0.0197  2.3081  0.7427
  827MOL0     H14073   3.984   6.498   0.390 -0.0681  0.0451 -0.4168
  827MOL0     H14074   4.148   6.471   0.426  1.2958  1.0294  0.3892
  827MOL0     H14075   4.322   6.623   0.249 -1.2355 -0.4633 -2.0519
  827MOL0     H14076   4.414   6.872   0.181 -2.0342 -0.2237 -0.6382
  827MOL0     H14077   4.442   6.913   0.356 -1.0214  1.5584  1.1540
  827MOL0     H14078   4.289   7.097   0.349 -0.2677  2.7579 -1.1454
  827MOL0     H14079   4.414   7.126   0.229  0.5304 -0.2809 -3.4928
  827MOL0     H14080   4.118   7.058   0.171 -0.2118  0.5698 -1.3629
  827MOL0     H14081   4.206   7.206   0.152  2.2232  0.6484  0.9504
  827MOL0     H14082   4.220   6.945   0.004 -1.7956  0.4370 -1.4282
  827MOL0     H14083   4.176   7.102  -0.062  0.6640  0.2849 -0.6855
  827MOL0     H14084   4.224   7.284  -0.134 -0.1315  0.6480 -1.6815
  827MOL0     H14085   4.305   7.475  -0.399 -1.1536  0.1834 -0.3801
  827MOL0     H14086   4.261   7.561  -0.256  0.8749 -0.9614 -1.3946
  827MOL0     H14087   4.183   7.409  -0.280  0.4817 -0.9633  3.3769
  827MOL0     H14088   4.740   7.744  -0.190  0.1327 -1.1932  0.8768
  827MOL0     H14089   4.820   7.961  -0.294  1.5336 -0.8683  0.4836
  827MOL0     H14090   4.955   7.959  -0.720 -1.2360 -0.6652  0.7065
  827MOL0     H14091   4.873   8.107  -0.680  0.8845 -0.2985 -1.3741
  827MOL0     H14092   5.086   8.148  -0.768 -2.6480  0.7493  0.3756
  827MOL0     H14093   5.083   8.205  -0.598  0.9985 -0.8349 -0.3188
  827MOL0     H14094   5.273   8.052  -0.723  2.3624 -3.4606  0.5982
  827MOL0     H14095   5.206   7.925  -0.638  3.5651 -0.4349 -1.3680
  827MOL0     H14096   5.233   8.040  -0.426 -0.4998 -0.7443 -0.7989
  827MOL0     H14097   5.283   8.182  -0.500 -1.0850 -0.0664  0.2151
  827MOL0     H14098   5.433   7.919  -0.519  0.3524  0.0724 -1.6474
  827MOL0     H14099   5.488   8.067  -0.594 -0.5008  1.4483  0.5574
  827MOL0     H14100   5.445   8.023  -0.295 -0.2294 -1.6092  0.2481
  827MOL0     H14101   5.529   8.164  -0.371  0.7018 -0.4581  2.8786
  827MOL0     H14102   5.694   8.005  -0.473  1.4466 -0.7932  0.3586
  827MOL0     H14103   5.598   7.886  -0.369  0.4071  0.3424 -0.4691
  827MOL0     H14104   5.818   7.961  -0.252 -0.3841 -0.5413  1.2097
  827MOL0     H14105   5.668   7.993  -0.154 -0.7040 -0.7194  0.5959
  827MOL0     H14106   4.932   7.750  -0.649 -1.1285 -0.2498 -0.2943
  827MOL0     H14107   4.805   7.547  -0.558  2.7487 -1.2591  1.2820
  827MOL0     H14108   4.710   7.312  -0.186  0.3081 -0.4339 -0.6970
  827MOL0     H14109   4.606   7.113  -0.064 -2.7268 -1.7636  2.2308
  827MOL0     H14110   3.430   5.693   0.249  0.3210  0.5678 -0.4325
  827MOL0     H14111   3.215   5.613   0.290  2.9648  0.1200  0.0987
  827MOL0     H14112   2.718   5.942   0.534 -0.0533  0.8464  2.3898
  827MOL0     H14113   2.492   5.864   0.543 -2.2236 -2.3817  1.3735
  827MOL0     H14114   2.285   5.707   0.605 -0.5018 -0.7676  0.1978
  827MOL0     H14115   2.317   5.748   0.428 -1.5853  0.6649 -0.6929
  827MOL0     H14116   2.233   5.525   0.369  0.7021 -3.4119  2.7678
  827MOL0     H14117   2.101   5.636   0.433 -2.4074 -3.4724  0.0467
  827MOL0     H14118   2.235   5.404   0.570  1.5372  2.5714 -0.1033
  827MOL0     H14119   2.114   5.516   0.640 -1.7414  1.8345 -1.7648
  827MOL0     H14120   2.096   5.300   0.431 -0.4853  0.3154 -2.0672
  827MOL0     H14121   1.977   5.415   0.414 -0.9854 -2.2896 -1.1068
  827MOL0     H14122   1.818   5.216   0.759 -1.7395 -1.2831 -0.9714
  827MOL0     H14123   2.619   5.456   0.498  0.0549  0.0220  1.2188
  827MOL0     H14124   2.969   5.509   0.538  0.8999  1.0167 -1.7567
  827MOL0     H14125   2.836   5.392   0.508 -2.0247  0.8946  0.6149
  827MOL0     H14126   2.896   5.477   0.370 -3.3370 -4.1757 -0.7110
  828MOL0     O14127   0.921   8.178  11.373  0.8981  0.5793 -0.0250
  828MOL0     C14128   0.873   8.147  11.266 -0.6674 -0.5449 -0.4304
  828MOL0     O14129   0.951   8.128  11.151  0.7889 -0.0044 -0.5182
  828MOL0     C14130   1.066   8.066  11.163 -0.3067 -0.1701 -0.3146
  828MOL0     C14131   1.173   8.079  11.069  0.5458 -0.0974 -0.4671
  828MOL0     C14132   1.297   8.037  11.080  0.7576  0.2623  0.7578
  828MOL0     C14133   1.333   7.969  11.193 -0.8834  1.1251 -0.6122
  828MOL0     O14134   1.467   7.925  11.198  0.0355 -0.2824 -0.6299
  828MOL0     C14135   1.489   7.785  11.225 -0.2132  0.9460  0.2293
  828MOL0     C14136   1.599   7.739  11.134  0.5557  0.0182  0.3153
  828MOL0     C14137   1.662   7.605  11.166  0.7230  0.6418  0.8751
  828MOL0     C14138   1.580   7.481  11.164 -0.0369  0.7820 -0.7943
  828MOL0     C14139   1.665   7.377  11.238 -0.7484 -0.8503 -0.1440
  828MOL0     C14140   1.789   7.324  11.152  0.0272 -0.3049 -0.1937
  828MOL0     C14141   1.867   7.221  11.227 -0.0186 -0.3149 -0.4136
  828MOL0     C14142   1.800   7.080  11.235  1.1569  0.7112  1.0163
  828MOL0     N14143   1.860   6.979  11.324  0.0376 -0.0519  0.0172
  828MOL0     C14144   1.827   6.952  11.451 -0.3560 -0.3725  0.4394
  828MOL0     C14145   1.928   6.876  11.498  0.0814 -0.8726  0.2230
  828MOL0     C14146   1.942   6.820  11.638 -1.0656 -0.7474  0.6750
  828MOL0     C14147   2.049   6.892  11.716 -0.7463 -0.9307  0.2203
  828MOL0     C14148   2.026   6.872  11.867  0.3595 -0.4782 -0.4281
  828MOL0     C14149   1.993   6.734  11.921 -0.1347  0.5806 -0.2554
  828MOL0     O14150   2.070   6.624  11.873  0.1578  0.2850 -0.4957
  828MOL0     C14151   2.205   6.623  11.898  0.4991 -0.0620  0.5583
  828MOL0     C14152   2.286   6.550  11.814 -0.2628 -0.0610 -0.2252
  828MOL0     C14153   2.427   6.537  11.843  0.4800  0.1345  1.1862
  828MOL0     C14154   2.501   6.448  11.741 -0.0154  0.1471 -0.2998
  828MOL0     C14155   2.482   6.600  11.961  0.5135  0.2961 -0.0290
  828MOL0     C14156   2.622   6.599  11.999  0.0953  0.4812 -0.5730
  828MOL0     O14157   2.664   6.669  12.115 -0.2116  0.1283  0.5454
  828MOL0     C14158   2.804   6.687  12.111  0.7656 -0.6591  0.0178
  828MOL0     C14159   2.889   6.583  12.133 -0.0224 -0.5112 -0.8878
  828MOL0     C14160   3.032   6.593  12.106  0.3142 -0.5259 -0.2642
  828MOL0     C14161   3.080   6.722  12.064 -0.9967  0.0837 -0.5363
  828MOL0     O14162   3.208   6.756  12.028 -0.7114  0.4079  0.0376
  828MOL0     C14163   3.272   6.657  11.941 -0.6973  0.1882  0.4631
  828MOL0     C14164   3.402   6.729  11.878 -0.0715  0.1932  0.7053
  828MOL0     C14165   3.485   6.642  11.786  0.2588 -0.6549 -1.1657
  828MOL0     C14166   3.605   6.712  11.742  0.2646 -0.4344  0.3834
  828MOL0     C14167   3.588   6.824  11.646  0.1878 -0.1940 -0.2660
  828MOL0     C14168   3.727   6.869  11.603  0.3635 -0.2132 -0.1924
  828MOL0     C14169   3.699   6.986  11.494  0.8628  0.9728  0.0217
  828MOL0     C14170   3.826   7.040  11.421  0.7930 -0.0244 -0.8232
  828MOL0    Cl14171   3.791   7.145  11.282  0.0842  0.3677 -0.3011
  828MOL0     C14172   2.995   6.834  12.058  0.6077  0.8021  0.0915
  828MOL0     C14173   2.860   6.815  12.084  0.2745  0.4562 -0.2787
  828MOL0     O14174   2.697   6.538  11.922  0.5020 -0.2701 -0.2894
  828MOL0     C14175   2.395   6.674  12.044 -0.6920  0.8722  1.3003
  828MOL0     C14176   2.261   6.690  12.010 -0.1678  0.1794 -0.5416
  828MOL0     N14177   2.019   6.861  11.398  0.5566 -0.4034  0.0957
  828MOL0     N14178   1.977   6.922  11.295 -0.3101 -0.2068  0.1903
  828MOL0     C14179   1.241   7.939  11.293  0.1530 -0.4515 -0.1223
  828MOL0     C14180   1.105   7.988  11.278  0.1829 -0.4027  0.9061
  828MOL0     C14181   0.721   8.147  11.253  0.8766  0.0635 -0.2499
  828MOL0     C14182   0.644   8.195  11.365  0.6927 -0.1027 -0.3692
  828MOL0     C14183   0.509   8.213  11.354  0.1807 -0.4234  0.0125
  828MOL0     C14184   0.440   8.168  11.243  0.5495 -0.5120  0.2081
  828MOL0     O14185   0.304   8.160  11.249 -0.3113  0.3847  0.2336
  828MOL0     C14186   0.247   8.204  11.126 -0.4357 -0.3625  0.9415
  828MOL0     C14187   0.118   8.288  11.130  0.2958  0.5446 -0.7799
  828MOL0     C14188   0.002   8.238  11.228  0.1535  0.6631  1.5322
  828MOL0     C14189  -0.105   8.133  11.175 -0.8192  0.5005 -0.5257
  828MOL0     C14190  -0.161   8.071  11.289 -0.3572  0.4415  0.0206
  828MOL0     C14191  -0.212   8.012  11.389  0.1570  0.5376  0.2893
  828MOL0     C14192   0.515   8.119  11.132 -0.4247 -0.3649 -0.3136
  828MOL0     C14193   0.655   8.118  11.136  0.4563  0.0886  0.6659
  828MOL0     C14194   0.716   8.053  11.004  0.5080 -0.1449 -0.0274
  828MOL0     H14195   1.158   8.150  10.988 -1.1748  2.7098  2.1017
  828MOL0     H14196   1.368   8.051  10.999  0.8980 -0.3961  0.7618
  828MOL0     H14197   1.409   7.718  11.192  1.3072 -0.4740 -0.7000
  828MOL0     H14198   1.518   7.766  11.329 -0.8783 -0.7678  0.1486
  828MOL0     H14199   1.559   7.735  11.033  0.2114  2.5973  0.2801
  828MOL0     H14200   1.670   7.821  11.146  0.1886  0.1240  2.0206
  828MOL0     H14201   1.740   7.582  11.092 -0.5351 -0.6775 -0.0924
  828MOL0     H14202   1.701   7.626  11.266 -0.2493  2.1773  0.9587
  828MOL0     H14203   1.482   7.498  11.209  0.2715 -0.3670  0.3555
  828MOL0     H14204   1.558   7.447  11.062  0.4690 -0.2327 -0.5765
  828MOL0     H14205   1.597   7.297  11.268 -2.6528  0.8667  0.4095
  828MOL0     H14206   1.710   7.435  11.319 -0.1683  1.1423 -1.7949
  828MOL0     H14207   1.752   7.279  11.060 -2.2661  1.3825 -0.1855
  828MOL0     H14208   1.862   7.399  11.118  0.7639 -1.1126 -0.4397
  828MOL0     H14209   1.900   7.265  11.322 -1.0919 -0.3060 -0.0409
  828MOL0     H14210   1.959   7.209  11.169  0.1332 -0.6358 -0.1098
  828MOL0     H14211   1.698   7.097  11.270  0.7923 -0.6201  0.6513
  828MOL0     H14212   1.796   7.036  11.135 -0.0068  0.3073  1.2241
  828MOL0     H14213   1.743   6.991  11.507  0.7853  0.1406  1.8484
  828MOL0     H14214   1.991   6.722  11.632  0.3156 -0.1633  1.9970
  828MOL0     H14215   1.842   6.815  11.683 -2.2905  0.0874 -1.7328
  828MOL0     H14216   2.151   6.870  11.686 -0.6021  3.0528 -3.0872
  828MOL0     H14217   2.046   7.001  11.715 -1.8477 -0.9344  1.0671
  828MOL0     H14218   2.111   6.917  11.919  0.3640 -2.2478  1.2153
  828MOL0     H14219   1.938   6.923  11.906  0.2548 -0.1871 -1.0298
  828MOL0     H14220   1.990   6.736  12.030 -1.5098  1.9451 -0.2785
  828MOL0     H14221   1.888   6.710  11.900  0.2463  0.0242 -1.6677
  828MOL0     H14222   2.241   6.502  11.728 -1.1549  0.1868  0.0995
  828MOL0     H14223   2.573   6.498  11.676  1.2508  0.1323  1.0257
  828MOL0     H14224   2.430   6.396  11.676  1.1512 -1.0525 -0.6545
  828MOL0     H14225   2.560   6.378  11.802 -1.4377 -0.2473  0.6755
  828MOL0     H14226   2.857   6.479  12.144 -1.8203 -0.1006 -1.9702
  828MOL0     H14227   3.096   6.505  12.109  1.8310  0.5602  0.8324
  828MOL0     H14228   3.283   6.562  11.994 -1.9607 -0.7482 -0.8661
  828MOL0     H14229   3.213   6.621  11.856 -0.8933  1.5765 -0.0050
  828MOL0     H14230   3.373   6.816  11.819  0.4038  1.5439  2.3644
  828MOL0     H14231   3.461   6.761  11.965 -1.4975 -1.0516  2.1954
  828MOL0     H14232   3.417   6.604  11.708 -1.8492 -0.9216  0.6950
  828MOL0     H14233   3.524   6.553  11.836 -0.9996 -1.0333 -0.8116
  828MOL0     H14234   3.670   6.636  11.696  2.2469  0.7586  1.0745
  828MOL0     H14235   3.657   6.757  11.827 -0.1667  0.7071  0.0624
  828MOL0     H14236   3.518   6.797  11.566  1.6147 -1.5887 -1.0703
  828MOL0     H14237   3.529   6.903  11.694  1.6631  0.2602  0.8772
  828MOL0     H14238   3.774   6.778  11.564 -1.6005 -0.9457 -1.0174
  828MOL0     H14239   3.781   6.917  11.685  0.1450  0.0043 -0.1754
  828MOL0     H14240   3.654   7.070  11.547  1.7423  1.0278  0.6896
  828MOL0     H14241   3.632   6.945  11.417  0.5935  1.0085  0.2347
  828MOL0     H14242   3.870   6.950  11.379 -0.4424 -0.6300 -0.8729
  828MOL0     H14243   3.885   7.094  11.497  0.6029 -0.2496 -0.5110
  828MOL0     H14244   3.038   6.933  12.044  2.8474  0.2892  2.6745
  828MOL0     H14245   2.797   6.900  12.056 -0.0348 -0.8523 -4.1443
  828MOL0     H14246   2.443   6.727  12.125  0.5893  2.0049 -0.1373
  828MOL0     H14247   2.197   6.752  12.072 -0.1204 -0.4760  0.1713
  828MOL0     H14248   1.271   7.888  11.384 -0.8990  2.5633  2.1093
  828MOL0     H14249   1.041   7.991  11.366  0.6717  1.9015  1.2453
  828MOL0     H14250   0.677   8.213  11.467 -1.7186  1.5512  0.1920
  828MOL0     H14251   0.453   8.254  11.437  1.1285  2.1399 -0.5012
  828MOL0     H14252   0.314   8.266  11.065  1.3415 -1.3616  1.7940
  828MOL0     H14253   0.216   8.116  11.069  0.0053  0.4049 -0.5327
  828MOL0     H14254   0.073   8.298  11.031  2.1783 -0.9337 -1.8666
  828MOL0     H14255   0.146   8.382  11.178  1.3721  0.7889 -1.8279
  828MOL0     H14256   0.052   8.197  11.317  0.2220  1.2357  1.7617
  828MOL0     H14257  -0.055   8.327  11.258 -1.0234  0.5519 -0.2231
  828MOL0     H14258  -0.045   8.057  11.124 -2.7522 -1.5846  0.1431
  828MOL0     H14259  -0.178   8.187  11.114  0.7897  2.1381 -1.0858
  828MOL0     H14260  -0.242   7.965  11.481 -0.1781 -1.5984 -0.8437
  828MOL0     H14261   0.457   8.070  11.054  1.2422 -1.3585 -0.9814
  828MOL0     H14262   0.779   7.966  11.019  2.6931  1.3502 -0.1534
  828MOL0     H14263   0.627   8.036  10.942 -1.5734 -0.2633  2.7565
  828MOL0     H14264   0.776   8.125  10.948 -0.1595 -0.3416 -1.0205
  829MOL0     O14265  10.409   4.167  11.300 -0.4793 -0.0326  0.0414
  829MOL0     C14266  10.364   4.063  11.260  0.9141  0.0461 -0.1149
  829MOL0     O14267  10.226   4.048  11.227  0.1845 -0.6115 -0.1801
  829MOL0     C14268  10.149   4.166  11.237  0.6257 -0.2572  0.2013
  829MOL0     C14269  10.150   4.257  11.134  0.1474  0.1459 -0.6485
  829MOL0     C14270  10.093   4.379  11.152  0.4413  0.6280 -0.3047
  829MOL0     C14271  10.022   4.415  11.273 -0.1307 -0.3851  0.3921
  829MOL0     O14272   9.961   4.539  11.265 -0.3230 -0.2371 -0.2983
  829MOL0     C14273   9.962   4.616  11.390  0.0883 -0.2445  0.5664
  829MOL0     C14274   9.883   4.745  11.360 -0.3971 -0.0712  0.1956
  829MOL0     C14275   9.739   4.730  11.305 -0.5955  0.5127  0.2515
  829MOL0     C14276   9.673   4.866  11.284  0.1283  0.5445 -1.1938
  829MOL0     C14277   9.519   4.846  11.284 -0.6064  0.8999 -0.8446
  829MOL0     C14278   9.447   4.964  11.215 -0.4632 -1.1483 -0.2741
  829MOL0     C14279   9.311   4.939  11.150  0.0926 -0.2647 -1.3852
  829MOL0     C14280   9.203   4.917  11.258 -0.3443  0.0157  0.8541
  829MOL0     N14281   9.076   4.877  11.196  0.8227  0.5668  0.3702
  829MOL0     C14282   9.019   4.750  11.175  0.1674  0.2634  0.1902
  829MOL0     C14283   8.899   4.770  11.120 -0.8360 -0.0744  0.4498
  829MOL0     C14284   8.799   4.669  11.070  0.1992  0.7966  0.0206
  829MOL0     C14285   8.870   4.593  10.951 -0.3174  0.7055  0.3398
  829MOL0     C14286   8.862   4.684  10.822 -0.2404  0.1239 -0.2622
  829MOL0     C14287   8.944   4.634  10.703 -0.2304 -0.4416  0.2652
  829MOL0     O14288   9.084   4.650  10.731  0.3130 -0.5405  0.4218
  829MOL0     C14289   9.169   4.654  10.626  0.2210 -0.5961  0.6512
  829MOL0     C14290   9.167   4.560  10.527  0.4776 -0.3818  0.3258
  829MOL0     C14291   9.263   4.549  10.414 -0.4751 -0.1581 -0.8653
  829MOL0     C14292   9.253   4.444  10.309  0.1718 -0.3022  0.3099
  829MOL0     C14293   9.362   4.647  10.423 -0.0459 -1.0300 -0.6721
  829MOL0     C14294   9.473   4.650  10.337  0.3270 -0.4796  0.5857
  829MOL0     O14295   9.446   4.616  10.204 -0.9438  0.4092  0.1062
  829MOL0     C14296   9.558   4.562  10.149  0.1988  0.1790  0.2981
  829MOL0     C14297   9.599   4.611  10.026  1.1407 -0.5416  0.8223
  829MOL0     C14298   9.701   4.562   9.953  0.3117 -0.7240 -0.1588
  829MOL0     C14299   9.779   4.458   9.999 -0.6813 -0.4873 -0.3664
  829MOL0     O14300   9.880   4.397   9.931 -0.4523 -0.3935  0.6399
  829MOL0     C14301   9.958   4.480   9.846  0.5570  0.9392 -1.1012
  829MOL0     C14302  10.068   4.399   9.784  0.7885 -0.5245 -0.1988
  829MOL0     C14303  10.014   4.274   9.711  0.2897 -0.2045 -1.0234
  829MOL0     C14304  10.130   4.195   9.655  0.1663 -0.9428 -0.5381
  829MOL0     C14305  10.089   4.063   9.593 -0.2271  0.3594 -0.3734
  829MOL0     C14306  10.217   3.994   9.556  0.2493 -0.4176  0.3113
  829MOL0     C14307  10.209   3.847   9.557  0.2192  0.9651  0.0257
  829MOL0     C14308  10.319   3.766   9.491 -0.2647 -0.7371 -0.1531
  829MOL0    Cl14309  10.371   3.834   9.341 -0.0177  0.2722  0.4855
  829MOL0     C14310   9.753   4.411  10.134  0.4888  0.0861  0.5104
  829MOL0     C14311   9.633   4.451  10.201 -0.0173 -1.0291 -0.0373
  829MOL0     O14312   9.581   4.675  10.386 -0.1621  0.9289  0.1304
  829MOL0     C14313   9.360   4.746  10.525 -0.1543 -0.0466 -0.8933
  829MOL0     C14314   9.273   4.748  10.623 -0.0749  0.1042 -0.2326
  829MOL0     N14315   8.884   4.909  11.103 -0.6434  0.1127  0.3255
  829MOL0     N14316   8.998   4.964  11.146  1.2089  0.2221  0.0330
  829MOL0     C14317  10.023   4.318  11.375  0.2252  1.0751 -0.4112
  829MOL0     C14318  10.080   4.194  11.357 -0.0236  0.9120  0.4841
  829MOL0     C14319  10.434   3.933  11.252 -0.9231  0.0134 -1.2316
  829MOL0     C14320  10.374   3.829  11.174  0.4221 -0.2933  0.1827
  829MOL0     C14321  10.413   3.697  11.181  0.9590  1.0365 -0.5011
  829MOL0     C14322  10.514   3.660  11.269 -0.8134 -0.2580 -0.1890
  829MOL0     O14323  10.539   3.522  11.287  0.0358 -0.5683 -0.2678
  829MOL0     C14324  10.674   3.481  11.311  1.4311  1.0759  0.0540
  829MOL0     C14325  10.687   3.428  11.458  0.4557 -0.3042  0.1899
  829MOL0     C14326  10.606   3.308  11.508 -0.5719 -0.8056 -0.1365
  829MOL0     C14327  10.620   3.182  11.428  0.6922 -0.6389 -0.0923
  829MOL0     C14328  10.753   3.120  11.415 -0.7611  0.0177  0.8810
  829MOL0     C14329  10.857   3.052  11.415  0.4473 -0.6050 -0.6377
  829MOL0     C14330  10.589   3.758  11.329  0.5612  0.2520 -0.5853
  829MOL0     C14331  10.557   3.893  11.322  0.5316 -0.3267  0.0445
  829MOL0     C14332  10.638   3.981  11.409  0.1717 -0.5526  0.4116
  829MOL0     H14333  10.207   4.240  11.043 -0.5259  1.1308 -1.2714
  829MOL0     H14334  10.095   4.448  11.068  1.6033 -0.7723 -1.4651
  829MOL0     H14335  10.063   4.633  11.429 -0.2273  1.8694  0.6180
  829MOL0     H14336   9.902   4.562  11.464 -4.1158  3.9556  0.7474
  829MOL0     H14337   9.890   4.798  11.456  0.9638  1.8019 -0.8644
  829MOL0     H14338   9.948   4.798  11.290 -1.0892 -0.4482 -0.7461
  829MOL0     H14339   9.731   4.674  11.211 -2.5682 -1.7050  1.6275
  829MOL0     H14340   9.686   4.670  11.380  2.0135 -0.6601  1.2685
  829MOL0     H14341   9.693   4.943  11.359  2.2411  1.7367 -2.8833
  829MOL0     H14342   9.708   4.912  11.192  2.1439  0.5814 -0.4692
  829MOL0     H14343   9.486   4.834  11.388  3.6723  1.2946  0.7625
  829MOL0     H14344   9.497   4.756  11.227  1.3084  0.5832 -1.1255
  829MOL0     H14345   9.450   5.056  11.273 -0.8650 -0.6798 -0.9760
  829MOL0     H14346   9.502   4.990  11.124  2.0582 -0.2170  1.4230
  829MOL0     H14347   9.321   4.857  11.079  0.0711 -0.1631 -1.5047
  829MOL0     H14348   9.278   5.023  11.089  1.4258 -0.4773 -2.4505
  829MOL0     H14349   9.239   4.833  11.319 -1.5147 -2.1486 -1.2687
  829MOL0     H14350   9.175   5.007  11.313 -2.7823  0.2951 -0.7054
  829MOL0     H14351   9.061   4.661  11.220 -1.4949  0.5752  2.5033
  829MOL0     H14352   8.705   4.718  11.041 -1.8796 -0.8090  3.4191
  829MOL0     H14353   8.766   4.598  11.146  0.8451 -2.1182 -2.2374
  829MOL0     H14354   8.976   4.573  10.967  0.5029  1.9118 -2.8279
  829MOL0     H14355   8.814   4.503  10.925 -0.0432  0.4149  0.7330
  829MOL0     H14356   8.760   4.685  10.782  0.9214 -0.6017 -3.5460
  829MOL0     H14357   8.898   4.782  10.854  2.2816 -1.0874  0.8733
  829MOL0     H14358   8.930   4.525  10.696  1.0815 -0.6388  0.4185
  829MOL0     H14359   8.919   4.689  10.612 -0.0441  1.9699  1.5918
  829MOL0     H14360   9.090   4.483  10.528  1.8381 -1.8920 -2.2616
  829MOL0     H14361   9.171   4.374  10.330 -2.4689  1.6293 -2.6016
  829MOL0     H14362   9.354   4.402  10.304  0.5093  0.6061 -0.7373
  829MOL0     H14363   9.231   4.497  10.216  2.0915  2.4592  1.3074
  829MOL0     H14364   9.544   4.699   9.993 -4.3420 -3.1334  1.9436
  829MOL0     H14365   9.714   4.604   9.854 -1.0713  0.5750  0.1690
  829MOL0     H14366   9.887   4.522   9.774 -2.0427  1.5975  1.6762
  829MOL0     H14367   9.991   4.565   9.905  1.4639  0.5118 -0.9721
  829MOL0     H14368  10.124   4.464   9.716  0.2326  2.1447  1.7289
  829MOL0     H14369  10.144   4.381   9.860  0.7931  1.1855  0.2556
  829MOL0     H14370   9.937   4.304   9.639 -1.4583 -2.5316 -0.2634
  829MOL0     H14371   9.963   4.201   9.774  0.3927  2.9443  3.1212
  829MOL0     H14372  10.215   4.174   9.721  0.5885  0.4279 -0.6007
  829MOL0     H14373  10.172   4.281   9.602  2.4666  1.7257  4.7520
  829MOL0     H14374  10.037   4.003   9.668 -0.8721  0.7394 -0.5108
  829MOL0     H14375  10.007   4.074   9.522 -1.9569 -0.6449  1.3526
  829MOL0     H14376  10.302   4.023   9.618  0.0664  0.1745  0.2874
  829MOL0     H14377  10.239   4.033   9.456  0.1513 -1.2661 -0.0502
  829MOL0     H14378  10.114   3.822   9.508  0.1013  0.8471  0.3093
  829MOL0     H14379  10.195   3.803   9.656  2.2933  0.1827  0.0035
  829MOL0     H14380  10.282   3.665   9.469 -0.6341 -0.9048  1.1675
  829MOL0     H14381  10.416   3.752   9.539  0.4120  1.1995 -0.8680
  829MOL0     H14382   9.822   4.343  10.183  0.5773  1.6143  2.6348
  829MOL0     H14383   9.598   4.412  10.296  2.3405 -1.0355  0.9104
  829MOL0     H14384   9.442   4.817  10.525 -0.7199  0.6762  1.2612
  829MOL0     H14385   9.279   4.815  10.708 -0.3354 -2.7900  2.2338
  829MOL0     H14386   9.966   4.328  11.467 -1.6014 -1.7207 -1.0956
  829MOL0     H14387  10.074   4.122  11.438 -1.8543  1.0807  0.5500
  829MOL0     H14388  10.298   3.854  11.101  1.2080 -0.2072 -0.6221
  829MOL0     H14389  10.355   3.631  11.117  0.9530  3.5803 -3.3347
  829MOL0     H14390  10.705   3.398  11.247  3.3812  2.4659 -0.9178
  829MOL0     H14391  10.748   3.562  11.309  0.4649  1.9848  0.3497
  829MOL0     H14392  10.649   3.503  11.528 -1.2057 -2.2591  1.5145
  829MOL0     H14393  10.792   3.402  11.468  0.5490 -0.7218 -1.5072
  829MOL0     H14394  10.642   3.284  11.608 -2.5856 -2.2690  0.3027
  829MOL0     H14395  10.498   3.327  11.510 -0.9906 -2.8286 -1.2408
  829MOL0     H14396  10.586   3.208  11.328  0.4263 -1.9782 -0.3791
  829MOL0     H14397  10.550   3.105  11.461  0.1463 -0.3096 -0.4663
  829MOL0     H14398  10.945   2.992  11.404  1.8222  1.0797  0.6170
  829MOL0     H14399  10.662   3.728  11.404  0.9499  2.0286 -0.2036
  829MOL0     H14400  10.729   3.932  11.447 -0.7816 -0.2776  3.2770
  829MOL0     H14401  10.660   4.081  11.371 -0.0649 -0.4393  0.5708
  829MOL0     H14402  10.580   4.011  11.497 -1.4412  1.6747 -1.3041
  830MOL0     O14403   6.803   3.012   1.269 -0.0398 -0.1069 -0.0955
  830MOL0     C14404   6.739   3.080   1.353  1.6141 -0.7537 -0.1123
  830MOL0     O14405   6.653   3.186   1.319 -0.2662 -0.5673 -0.1380
  830MOL0     C14406   6.624   3.189   1.182  1.0406  0.5105 -0.7582
  830MOL0     C14407   6.643   3.307   1.099  0.6917  0.1714 -0.0049
  830MOL0     C14408   6.599   3.306   0.967  0.1958 -0.3565  0.4155
  830MOL0     C14409   6.548   3.187   0.912  0.0161 -0.5235 -0.8541
  830MOL0     O14410   6.537   3.197   0.781 -0.2986  0.1270 -0.7406
  830MOL0     C14411   6.501   3.073   0.715  0.1657  0.3673  1.7097
  830MOL0     C14412   6.526   3.085   0.562 -0.1859 -0.7288 -0.2407
  830MOL0     C14413   6.676   3.054   0.517 -0.4985  0.2021  0.3785
  830MOL0     C14414   6.704   3.072   0.366  0.0589  0.1886  0.1826
  830MOL0     C14415   6.832   3.147   0.343 -0.0599  0.3794  0.9141
  830MOL0     C14416   6.812   3.301   0.354  0.2426 -0.2729 -0.5747
  830MOL0     C14417   6.947   3.375   0.373 -0.1092 -0.2476  0.3057
  830MOL0     C14418   7.019   3.445   0.249  0.5313 -0.0562 -0.9120
  830MOL0     N14419   7.157   3.480   0.279 -0.4168 -0.4277 -0.5267
  830MOL0     C14420   7.211   3.569   0.374  0.3347  0.9534  0.2654
  830MOL0     C14421   7.342   3.574   0.361 -0.5243 -0.1527  0.6180
  830MOL0     C14422   7.431   3.653   0.451  0.0690  0.5860  0.1375
  830MOL0     C14423   7.427   3.803   0.409 -0.2294 -1.2839  0.0156
  830MOL0     C14424   7.549   3.867   0.453 -0.1968 -0.1688 -0.0366
  830MOL0     C14425   7.536   4.013   0.447  0.1529  0.1796  0.5446
  830MOL0     O14426   7.494   4.087   0.566 -0.2017 -0.1085  0.6274
  830MOL0     C14427   7.587   4.096   0.673 -0.4415 -0.0049 -0.1000
  830MOL0     C14428   7.527   4.159   0.781 -0.7385 -0.0767  0.2309
  830MOL0     C14429   7.606   4.170   0.891 -0.4473  0.2437 -0.0287
  830MOL0     C14430   7.530   4.215   1.013 -0.1559  0.4269  0.1266
  830MOL0     C14431   7.743   4.148   0.888 -0.5639 -0.5333 -1.1081
  830MOL0     C14432   7.827   4.145   1.012 -0.2862 -0.8490  0.2881
  830MOL0     O14433   7.826   4.265   1.086  0.7333  0.4156  0.1029
  830MOL0     C14434   7.925   4.286   1.174 -0.4564  0.9095  1.1026
  830MOL0     C14435   7.902   4.314   1.307  0.0203  0.5796 -0.4223
  830MOL0     C14436   8.000   4.349   1.401  0.0001  0.4938 -0.2915
  830MOL0     C14437   8.136   4.353   1.356  0.6650 -0.5096  1.2286
  830MOL0     O14438   8.237   4.378   1.445 -0.2775 -0.0093 -0.0208
  830MOL0     C14439   8.213   4.426   1.578  0.8944  0.6298 -0.0434
  830MOL0     C14440   8.344   4.447   1.653  0.0684 -0.3954 -0.3910
  830MOL0     C14441   8.429   4.535   1.571 -0.4798  0.5566 -0.1823
  830MOL0     C14442   8.547   4.579   1.665 -0.1768 -0.9280  0.1344
  830MOL0     C14443   8.646   4.649   1.577 -0.3395 -0.7448 -0.0233
  830MOL0     C14444   8.755   4.720   1.655  0.2376  0.0766 -0.2817
  830MOL0     C14445   8.840   4.629   1.750  0.6058  0.5316  0.3922
  830MOL0     C14446   8.945   4.716   1.816 -0.0410 -0.2631 -0.0252
  830MOL0    Cl14447   8.852   4.827   1.944  0.2468 -0.1641  0.1013
  830MOL0     C14448   8.158   4.322   1.224 -0.4724  0.3295  0.2717
  830MOL0     C14449   8.057   4.299   1.132 -0.3048  0.1423 -0.5676
  830MOL0     O14450   7.906   4.050   1.030  0.6352  0.0384 -0.0729
  830MOL0     C14451   7.801   4.089   0.773 -0.1891 -1.2152  0.1505
  830MOL0     C14452   7.724   4.068   0.666  0.6198  0.8082 -0.7709
  830MOL0     N14453   7.376   3.488   0.253  0.7096  0.2745 -0.1116
  830MOL0     N14454   7.261   3.442   0.202 -0.0255 -0.1696 -0.1951
  830MOL0     C14455   6.519   3.078   0.997  0.1895 -0.4450  1.0845
  830MOL0     C14456   6.552   3.079   1.133 -0.3678 -0.3854 -0.7884
  830MOL0     C14457   6.743   3.058   1.502 -0.3972 -0.6412  0.0106
  830MOL0     C14458   6.864   3.011   1.545 -0.8710 -0.4124  0.8150
  830MOL0     C14459   6.883   2.983   1.681 -0.4079  0.1222  0.1915
  830MOL0     C14460   6.781   3.001   1.771  0.0444 -0.0049  0.6803
  830MOL0     O14461   6.788   2.972   1.904  0.1948 -0.1060  0.1665
  830MOL0     C14462   6.914   2.963   1.980  0.2902 -0.5130  0.5234
  830MOL0     C14463   6.953   2.820   1.988 -0.2403  0.7977 -0.9487
  830MOL0     C14464   6.848   2.727   2.026  0.7164  0.0350 -0.1444
  830MOL0     C14465   6.786   2.748   2.167 -0.6604 -0.2511 -0.7166
  830MOL0     C14466   6.896   2.724   2.257  0.0908  0.3006  0.2437
  830MOL0     C14467   6.978   2.691   2.333 -0.1104  0.0761 -0.4423
  830MOL0     C14468   6.658   3.040   1.724 -0.1224 -0.6352 -0.0577
  830MOL0     C14469   6.630   3.068   1.585  0.3663  0.2580 -0.1451
  830MOL0     C14470   6.486   3.104   1.543 -0.4492 -0.5961  0.2656
  830MOL0     H14471   6.700   3.385   1.148  1.9917 -0.9785  0.3673
  830MOL0     H14472   6.629   3.390   0.905 -1.4987 -1.4769 -2.1087
  830MOL0     H14473   6.393   3.060   0.721 -0.4893  2.3566 -2.4789
  830MOL0     H14474   6.565   2.995   0.758  1.3974  1.0623  1.2091
  830MOL0     H14475   6.461   3.015   0.508 -0.4932  1.1435 -2.4470
  830MOL0     H14476   6.476   3.179   0.536  1.9994  1.8247  3.8505
  830MOL0     H14477   6.743   3.119   0.574  0.3109  0.9868 -1.3822
  830MOL0     H14478   6.684   2.950   0.548 -0.9358  0.1781  0.4262
  830MOL0     H14479   6.728   2.978   0.314 -0.7404  1.2211 -2.2369
  830MOL0     H14480   6.617   3.121   0.320  1.4074  2.8519  0.2797
  830MOL0     H14481   6.872   3.123   0.244  0.2587 -0.1202  1.1618
  830MOL0     H14482   6.913   3.121   0.412 -0.3944 -3.5089  0.0801
  830MOL0     H14483   6.748   3.340   0.274  1.6157 -0.6541 -1.9104
  830MOL0     H14484   6.767   3.317   0.453  0.0909  0.3329 -0.7373
  830MOL0     H14485   7.018   3.299   0.407  0.0792 -1.5255 -2.6442
  830MOL0     H14486   6.948   3.451   0.452  3.3452  1.8580 -1.5242
  830MOL0     H14487   7.019   3.369   0.171  1.5110 -0.3116 -0.6878
  830MOL0     H14488   6.963   3.535   0.223 -0.5797 -0.8012 -1.1521
  830MOL0     H14489   7.160   3.623   0.453 -3.2077 -1.0010 -0.4834
  830MOL0     H14490   7.533   3.614   0.440 -0.2532 -0.5034  0.7961
  830MOL0     H14491   7.395   3.641   0.554  1.5129  1.0270  0.7198
  830MOL0     H14492   7.427   3.823   0.301 -1.2102 -0.6582  0.1134
  830MOL0     H14493   7.335   3.855   0.439  0.6668  0.4244 -0.1180
  830MOL0     H14494   7.571   3.828   0.553  0.0613 -0.2842 -0.1400
  830MOL0     H14495   7.633   3.847   0.387  0.4073  1.8399  0.0718
  830MOL0     H14496   7.632   4.052   0.411 -0.3098  1.3902  0.5879
  830MOL0     H14497   7.474   4.056   0.368  2.3461  0.3543 -1.1954
  830MOL0     H14498   7.419   4.171   0.781 -0.8073 -0.6396  0.0212
  830MOL0     H14499   7.563   4.315   1.042  0.5286  0.1918  0.1638
  830MOL0     H14500   7.541   4.139   1.090  2.7613  2.6261  2.0871
  830MOL0     H14501   7.421   4.220   1.000 -0.4643 -2.7865  0.5604
  830MOL0     H14502   7.804   4.323   1.352  0.6239 -0.9354  1.3347
  830MOL0     H14503   7.971   4.367   1.504  1.7750 -1.8757  0.7326
  830MOL0     H14504   8.143   4.511   1.577 -0.6710 -0.6028 -0.7111
  830MOL0     H14505   8.160   4.347   1.632 -2.8214  2.9088  0.0573
  830MOL0     H14506   8.314   4.501   1.744 -0.2076  0.4113 -0.9458
  830MOL0     H14507   8.405   4.358   1.668 -0.1249 -0.3848  0.5769
  830MOL0     H14508   8.374   4.617   1.526 -0.8918 -0.2600 -1.2115
  830MOL0     H14509   8.470   4.483   1.483  3.0479  1.7771  0.5628
  830MOL0     H14510   8.588   4.490   1.713 -1.7002 -1.9869 -0.4349
  830MOL0     H14511   8.501   4.643   1.741 -2.9445  0.3947 -2.4509
  830MOL0     H14512   8.686   4.583   1.500 -2.6504 -0.1663 -1.8476
  830MOL0     H14513   8.603   4.728   1.514  0.1527 -1.2549 -1.0143
  830MOL0     H14514   8.718   4.805   1.714  3.2535  0.7661  0.7643
  830MOL0     H14515   8.823   4.750   1.575 -1.8175 -0.1892 -2.2250
  830MOL0     H14516   8.887   4.543   1.703  1.5847  0.7758  0.8987
  830MOL0     H14517   8.775   4.585   1.826  1.1081  0.0729  0.5628
  830MOL0     H14518   8.999   4.764   1.734 -2.8445  2.5572 -0.4050
  830MOL0     H14519   9.013   4.644   1.863 -2.6873 -2.2269  1.0705
  830MOL0     H14520   8.261   4.319   1.188  0.4038  3.5390  2.0888
  830MOL0     H14521   8.103   4.285   1.035  2.4208 -0.3485  0.7154
  830MOL0     H14522   7.906   4.058   0.774 -0.7256 -3.1554  0.3288
  830MOL0     H14523   7.774   4.040   0.573 -1.6009  1.1158 -2.1378
  830MOL0     H14524   6.477   2.994   0.942 -3.8894  3.0478 -1.7915
  830MOL0     H14525   6.527   2.992   1.193  4.0492 -1.4273 -0.0666
  830MOL0     H14526   6.953   3.009   1.484 -0.5531 -1.2471  1.2935
  830MOL0     H14527   6.979   2.947   1.715  0.2998 -0.8790 -2.6627
  830MOL0     H14528   6.984   3.025   1.923 -3.5035  2.5852 -1.2368
  830MOL0     H14529   6.905   3.007   2.080  1.4120 -0.1102  0.4676
  830MOL0     H14530   7.029   2.810   2.065 -1.1904 -2.2832 -0.2385
  830MOL0     H14531   6.976   2.790   1.885  0.2039  0.4743 -0.7557
  830MOL0     H14532   6.772   2.742   1.948  0.3735  1.1798  0.3846
  830MOL0     H14533   6.890   2.626   2.025 -0.5815 -0.5269  0.2780
  830MOL0     H14534   6.699   2.686   2.191 -0.9849  0.1448 -0.8517
  830MOL0     H14535   6.753   2.852   2.176  2.6741  0.8740 -0.1488
  830MOL0     H14536   7.058   2.665   2.400 -0.2620 -0.9630 -0.6528
  830MOL0     H14537   6.570   3.039   1.787 -0.7376 -0.1001 -0.8881
  830MOL0     H14538   6.484   3.210   1.516  0.3205 -0.6150  0.1136
  830MOL0     H14539   6.454   3.048   1.455  1.1949  0.3815 -1.0052
  830MOL0     H14540   6.415   3.088   1.624  0.8851  0.5105  1.7084
  831MOL0     O14541   9.263   3.845  10.786 -0.3156 -0.7599 -0.3895
  831MOL0     C14542   9.203   3.760  10.714  1.0666  0.8213  0.2079
  831MOL0     O14543   9.074   3.711  10.732  0.4422 -1.0579  0.1900
  831MOL0     C14544   8.998   3.745  10.841  0.7859 -0.0413  0.9265
  831MOL0     C14545   8.969   3.868  10.888 -0.8499 -1.4710 -0.5232
  831MOL0     C14546   8.871   3.899  10.975  0.6257  0.3888  0.4329
  831MOL0     C14547   8.792   3.793  11.033 -0.8550  0.5915 -0.3356
  831MOL0     O14548   8.702   3.799  11.144 -0.8580  0.3489 -0.7901
  831MOL0     C14549   8.752   3.894  11.239 -0.5828  0.1064  0.9380
  831MOL0     C14550   8.632   3.950  11.317 -0.0988 -0.2944  0.1510
  831MOL0     C14551   8.551   4.064  11.246  0.0276  0.3057 -0.9068
  831MOL0     C14552   8.611   4.207  11.237  0.2517  0.5625  1.0607
  831MOL0     C14553   8.626   4.248  11.385  0.9720 -0.1668  0.2182
  831MOL0     C14554   8.674   4.396  11.388 -0.5173  0.0582 -0.6290
  831MOL0     C14555   8.713   4.446  11.536  0.0281 -0.6432  0.0041
  831MOL0     C14556   8.763   4.594  11.534 -0.3616  0.6351  0.1974
  831MOL0     N14557   8.907   4.608  11.535 -0.3046 -0.7392 -0.4190
  831MOL0     C14558   8.965   4.694  11.637  0.3478  0.7906 -0.0463
  831MOL0     C14559   9.100   4.669  11.627  0.4116 -1.0568  0.3619
  831MOL0     C14560   9.210   4.734  11.707  0.7255 -1.1465  0.1711
  831MOL0     C14561   9.270   4.859  11.635  1.0959  0.2811 -0.9106
  831MOL0     C14562   9.349   4.950  11.733  0.1495 -0.6334 -0.0281
  831MOL0     C14563   9.477   4.892  11.791 -0.4735 -0.5627  0.5727
  831MOL0     O14564   9.552   4.829  11.682  0.2672 -0.0734 -0.4575
  831MOL0     C14565   9.675   4.792  11.710 -0.2331  0.9693  0.3985
  831MOL0     C14566   9.789   4.874  11.690  0.0969 -0.0972  1.2121
  831MOL0     C14567   9.919   4.824  11.712 -0.5809  0.5419 -0.5960
  831MOL0     C14568  10.034   4.921  11.677 -0.0849 -0.4987 -0.1365
  831MOL0     C14569   9.937   4.692  11.743  0.1583  0.3109  0.2314
  831MOL0     C14570  10.071   4.627  11.758  0.0668 -0.4929  0.7318
  831MOL0     O14571  10.159   4.657  11.656  0.1103 -0.6520 -0.3882
  831MOL0     C14572  10.281   4.590  11.659 -0.0654 -0.7611  2.1284
  831MOL0     C14573  10.305   4.469  11.589 -0.7097  0.3851  0.6382
  831MOL0     C14574  10.431   4.411  11.605  0.0438  0.3736 -0.0810
  831MOL0     C14575  10.529   4.465  11.691  0.2567  0.0334 -0.2134
  831MOL0     O14576  10.657   4.419  11.684 -0.4646  0.0299 -0.0598
  831MOL0     C14577  10.702   4.343  11.565 -0.1156  0.4131 -0.3249
  831MOL0     C14578  10.861   4.336  11.567  0.4328 -0.5551  0.3149
  831MOL0     C14579  10.919   4.470  11.512 -0.2922 -0.0004 -0.5747
  831MOL0     C14580  11.064   4.444  11.484  0.3869  0.2815  1.2004
  831MOL0     C14581  11.119   4.555  11.391  0.5893  0.3625  0.4814
  831MOL0     C14582  11.273   4.549  11.371  0.7686 -0.6811  0.5731
  831MOL0     C14583  11.357   4.574  11.497  0.1819 -0.9120 -0.3011
  831MOL0     C14584  11.354   4.721  11.549  0.6149  0.0283 -0.5879
  831MOL0    Cl14585  11.398   4.822  11.410  0.3733 -0.2459 -0.4169
  831MOL0     C14586  10.508   4.587  11.756  1.1081 -0.1035  0.5892
  831MOL0     C14587  10.390   4.654  11.724 -0.9257 -0.0953  0.1044
  831MOL0     O14588  10.094   4.571  11.862  0.3091  0.3394  0.5396
  831MOL0     C14589   9.828   4.606  11.760  0.5284 -0.7827 -0.2621
  831MOL0     C14590   9.706   4.656  11.740  1.1203 -0.8488  0.1108
  831MOL0     N14591   9.121   4.583  11.519  0.1257  0.0273 -0.5616
  831MOL0     N14592   9.008   4.549  11.465  0.2129 -0.4505 -0.3766
  831MOL0     C14593   8.822   3.661  10.985  0.0958 -0.1954 -0.4986
  831MOL0     C14594   8.918   3.646  10.889  0.4042  0.0007  0.5038
  831MOL0     C14595   9.286   3.707  10.607  0.1336  0.1740 -0.0880
  831MOL0     C14596   9.403   3.639  10.644 -0.4562 -0.2729  0.4684
  831MOL0     C14597   9.475   3.569  10.541  0.2378  0.0738 -0.8848
  831MOL0     C14598   9.433   3.581  10.406  0.2396  0.1231 -0.5530
  831MOL0     O14599   9.495   3.528  10.299  0.0423 -0.1336  0.2854
  831MOL0     C14600   9.606   3.441  10.324 -0.3168 -0.1030 -0.2813
  831MOL0     C14601   9.730   3.529  10.328  0.6882  0.0384 -0.2549
  831MOL0     C14602   9.828   3.508  10.208  0.4323  0.0496  0.2356
  831MOL0     C14603   9.958   3.451  10.262 -0.0270  0.1604 -0.2886
  831MOL0     C14604   9.947   3.327  10.345  0.0751 -0.7819 -0.9378
  831MOL0     C14605   9.931   3.214  10.392  0.1546 -0.5751  0.5474
  831MOL0     C14606   9.320   3.655  10.374 -0.0182 -0.0745 -0.1256
  831MOL0     C14607   9.238   3.714  10.475 -0.4481  0.2698  0.2019
  831MOL0     C14608   9.107   3.766  10.430  0.9212  0.3072  0.7444
  831MOL0     H14609   9.020   3.947  10.832  0.2811  0.5275  3.0286
  831MOL0     H14610   8.845   4.000  11.004 -1.4676  0.4456 -1.3555
  831MOL0     H14611   8.806   3.978  11.194 -1.2102 -0.7935 -1.6562
  831MOL0     H14612   8.820   3.837  11.302 -1.3755 -3.2859 -1.0454
  831MOL0     H14613   8.561   3.869  11.340 -0.4002  0.2640  1.2742
  831MOL0     H14614   8.652   3.983  11.419  0.1647  1.5988 -0.4737
  831MOL0     H14615   8.518   4.028  11.148 -2.8134 -2.7466  0.9602
  831MOL0     H14616   8.455   4.075  11.297  0.8708  0.5531  0.6625
  831MOL0     H14617   8.709   4.204  11.188 -0.2999  0.6078 -0.0881
  831MOL0     H14618   8.554   4.267  11.165 -0.3912 -2.8394 -1.5573
  831MOL0     H14619   8.677   4.182  11.455  1.8979 -1.0120 -1.2161
  831MOL0     H14620   8.523   4.238  11.422  0.8200  0.3050 -0.0673
  831MOL0     H14621   8.765   4.405  11.328 -0.4927  0.4715 -0.5314
  831MOL0     H14622   8.596   4.452  11.335  0.6277 -1.7792 -4.7028
  831MOL0     H14623   8.791   4.383  11.580  0.9088  1.2241  1.2649
  831MOL0     H14624   8.630   4.448  11.607  1.2121 -0.5763  1.4379
  831MOL0     H14625   8.721   4.645  11.446  0.5775 -0.1976 -0.7618
  831MOL0     H14626   8.720   4.643  11.622  1.0141 -0.0011  1.2468
  831MOL0     H14627   8.911   4.757  11.707  0.6526  0.6938  0.2790
  831MOL0     H14628   9.294   4.665  11.717 -0.6938 -2.6184  3.5591
  831MOL0     H14629   9.195   4.759  11.812  0.2787 -0.6560 -0.0025
  831MOL0     H14630   9.339   4.825  11.558  2.5980  0.9958  0.0772
  831MOL0     H14631   9.187   4.922  11.602  0.9005 -0.4307 -1.8168
  831MOL0     H14632   9.373   5.042  11.679  0.4694 -0.9198 -0.3737
  831MOL0     H14633   9.283   4.986  11.813 -1.1694 -1.5142 -0.6967
  831MOL0     H14634   9.554   4.949  11.844  1.7794 -2.3676 -0.5444
  831MOL0     H14635   9.439   4.818  11.861  1.1164 -1.7255  0.2493
  831MOL0     H14636   9.760   4.970  11.648 -2.3332 -1.5153 -0.6434
  831MOL0     H14637  10.092   4.892  11.588 -0.7905 -0.6845 -0.5446
  831MOL0     H14638  10.096   4.944  11.764  1.6082  0.5784 -1.5508
  831MOL0     H14639   9.991   5.020  11.660 -2.0175 -1.5146 -1.5694
  831MOL0     H14640  10.241   4.423  11.514  1.9819  1.1962 -2.3849
  831MOL0     H14641  10.456   4.319  11.551  0.4632  0.0598  0.6427
  831MOL0     H14642  10.672   4.238  11.563 -0.5512  0.5080 -2.8783
  831MOL0     H14643  10.664   4.393  11.476  1.2729 -0.1172 -1.2551
  831MOL0     H14644  10.884   4.320  11.673  0.1833 -0.0631  0.4485
  831MOL0     H14645  10.893   4.249  11.509 -1.8286 -0.2285 -1.5505
  831MOL0     H14646  10.919   4.559  11.576  1.9026  0.7366 -1.4974
  831MOL0     H14647  10.863   4.492  11.421  0.7697  2.6760 -0.6904
  831MOL0     H14648  11.079   4.342  11.448  0.9871  0.6382  0.4040
  831MOL0     H14649  11.122   4.443  11.577 -1.0507 -3.0374  2.2226
  831MOL0     H14650  11.075   4.541  11.291  1.2117  0.3079  0.2071
  831MOL0     H14651  11.093   4.654  11.429  2.4297  1.1112 -0.0799
  831MOL0     H14652  11.299   4.622  11.294 -2.1743 -1.1606 -1.0406
  831MOL0     H14653  11.304   4.452  11.329  1.6002 -1.5925  3.1143
  831MOL0     H14654  11.458   4.539  11.474  0.3325  0.0759 -1.2271
  831MOL0     H14655  11.322   4.510  11.579  1.0586  1.4306  2.0347
  831MOL0     H14656  11.420   4.735  11.635  0.1539  3.4078 -0.6469
  831MOL0     H14657  11.250   4.734  11.579  0.8323 -0.6886  0.5416
  831MOL0     H14658  10.583   4.643  11.812 -0.2546 -0.0689  2.5094
  831MOL0     H14659  10.382   4.751  11.773  0.1037  0.0679 -0.0390
  831MOL0     H14660   9.847   4.502  11.781 -0.6933 -1.0672 -0.4906
  831MOL0     H14661   9.621   4.590  11.753 -0.8539  1.4390 -0.5394
  831MOL0     H14662   8.781   3.569  11.026  3.1078  0.0039  3.4824
  831MOL0     H14663   8.936   3.552  10.838  1.7063  1.2977 -1.5691
  831MOL0     H14664   9.435   3.636  10.748 -2.5549  4.9350  1.5533
  831MOL0     H14665   9.567   3.516  10.562  0.6897  1.4137  0.7434
  831MOL0     H14666   9.594   3.384  10.416 -3.0035  0.0706 -0.4285
  831MOL0     H14667   9.620   3.374  10.239  0.2671  0.4012 -0.5869
  831MOL0     H14668   9.782   3.502  10.420  2.0391 -0.0358 -1.0202
  831MOL0     H14669   9.708   3.636  10.341 -0.0348 -0.3880  2.8289
  831MOL0     H14670   9.785   3.438  10.135 -0.4277 -0.9708  1.6601
  831MOL0     H14671   9.830   3.601  10.151 -0.9067 -1.9453 -3.4190
  831MOL0     H14672  10.013   3.523  10.323  1.8322 -2.3889  1.2942
  831MOL0     H14673  10.030   3.420  10.186  0.4368  1.9050 -0.5856
  831MOL0     H14674   9.913   3.112  10.420  3.1238 -2.0813 -2.3252
  831MOL0     H14675   9.275   3.664  10.275 -2.3015  1.6954  0.9756
  831MOL0     H14676   9.021   3.705  10.462  0.1874  0.4139 -0.9246
  831MOL0     H14677   9.086   3.861  10.480  1.5350 -0.4741  2.5908
  831MOL0     H14678   9.089   3.760  10.322  1.1022 -3.1630  0.7744
  832MOL0     O14679   8.703  11.103   4.601 -0.6639  0.0659 -0.0750
  832MOL0     C14680   8.693  11.215   4.657  0.0904  0.4873  0.2189
  832MOL0     O14681   8.785  11.264   4.743  0.4513 -1.2349  1.0389
  832MOL0     C14682   8.872  11.171   4.785 -0.3572 -0.1353  0.6223
  832MOL0     C14683   8.996  11.166   4.726  0.1690 -0.2600  0.8550
  832MOL0     C14684   9.086  11.064   4.757 -0.1696 -0.5723 -0.2691
  832MOL0     C14685   9.061  10.973   4.856 -0.1361  0.2158 -0.3172
  832MOL0     O14686   9.153  10.882   4.901 -0.2494  0.0738  0.5715
  832MOL0     C14687   9.176  10.861   5.043 -0.1189 -0.3085 -0.3391
  832MOL0     C14688   9.280  10.751   5.070  0.5405  0.2772 -0.3485
  832MOL0     C14689   9.425  10.796   5.057  0.9302 -0.4730  0.0102
  832MOL0     C14690   9.452  10.873   4.925  0.0161  0.7449  0.9751
  832MOL0     C14691   9.592  10.938   4.933 -0.5119 -0.3210 -0.3470
  832MOL0     C14692   9.617  11.032   4.814  0.0810 -0.1699  0.0641
  832MOL0     C14693   9.559  11.176   4.841 -0.2480  0.4472 -0.0769
  832MOL0     C14694   9.591  11.268   4.722  0.1338 -0.4124  0.6228
  832MOL0     N14695   9.517  11.395   4.739  0.7308 -0.2952 -0.2993
  832MOL0     C14696   9.381  11.386   4.762 -0.1585  0.6654 -0.6577
  832MOL0     C14697   9.339  11.504   4.816 -0.2264  0.0259  0.9011
  832MOL0     C14698   9.191  11.525   4.847 -0.3716 -0.1316 -0.0632
  832MOL0     C14699   9.151  11.475   4.979  0.9633  0.8966 -0.3444
  832MOL0     C14700   9.012  11.537   5.035 -0.4212 -0.1139  0.3083
  832MOL0     C14701   9.005  11.673   5.095  0.2091  0.4437  1.2102
  832MOL0     O14702   9.081  11.696   5.212 -0.4311  0.5294  0.4850
  832MOL0     C14703   9.186  11.785   5.205  0.7758  0.3880  0.0462
  832MOL0     C14704   9.155  11.921   5.236 -0.4349 -0.3118 -0.1372
  832MOL0     C14705   9.262  12.012   5.239 -0.4385 -0.2235  0.1502
  832MOL0     C14706   9.231  12.154   5.282 -0.7306  0.4357  0.1476
  832MOL0     C14707   9.392  11.966   5.216 -0.5737  0.4627 -0.5186
  832MOL0     C14708   9.507  12.058   5.208 -0.3339  0.6931  0.2884
  832MOL0     O14709   9.629  12.002   5.246  0.3105  0.3216 -0.2546
  832MOL0     C14710   9.753  12.066   5.247  0.7715  0.4309  0.2139
  832MOL0     C14711   9.862  11.992   5.199 -0.3076  0.7213 -0.6149
  832MOL0     C14712   9.988  12.054   5.210 -0.3870  0.2327 -0.6425
  832MOL0     C14713  10.010  12.183   5.241  0.0237  0.2652  0.3479
  832MOL0     O14714  10.131  12.241   5.247  0.0541  0.2782 -0.8666
  832MOL0     C14715  10.222  12.191   5.150 -0.0990  1.0126 -0.1297
  832MOL0     C14716  10.347  12.278   5.139  0.6319  0.6915 -0.3900
  832MOL0     C14717  10.400  12.281   4.997  0.3379 -0.6412 -0.4676
  832MOL0     C14718  10.500  12.165   4.969 -0.3917 -0.3097  1.5406
  832MOL0     C14719  10.647  12.193   4.989 -0.4403 -0.4307  0.0685
  832MOL0     C14720  10.738  12.071   4.983  0.0146 -0.6878  0.1723
  832MOL0     C14721  10.893  12.096   4.964 -0.0951  0.2413  0.6235
  832MOL0     C14722  10.933  12.174   4.845  0.3877  0.6037 -0.2852
  832MOL0    Cl14723  11.111  12.165   4.835 -0.1343  0.3274 -0.3728
  832MOL0     C14724   9.903  12.253   5.286  0.1933  0.2520 -0.0649
  832MOL0     C14725   9.777  12.198   5.291  0.1540  0.6814  0.2259
  832MOL0     O14726   9.497  12.166   5.161 -0.0147 -0.4311  0.3798
  832MOL0     C14727   9.411  11.832   5.184 -0.5559  0.3031  0.0362
  832MOL0     C14728   9.315  11.733   5.193 -0.1607  0.5525  0.1721
  832MOL0     N14729   9.452  11.585   4.818 -0.6489 -1.0366  0.2539
  832MOL0     N14730   9.562  11.518   4.782 -0.2998  0.3239  0.3026
  832MOL0     C14731   8.933  10.984   4.924 -0.0334 -0.2761  0.5103
  832MOL0     C14732   8.845  11.079   4.887  0.6039 -0.7015 -0.0370
  832MOL0     C14733   8.585  11.302   4.605  0.0918 -0.3848 -0.7236
  832MOL0     C14734   8.616  11.441   4.591 -0.9110  1.2644  0.6388
  832MOL0     C14735   8.524  11.528   4.541 -0.3439 -0.0893 -1.5194
  832MOL0     C14736   8.397  11.489   4.512 -0.4012  0.4703 -0.5810
  832MOL0     O14737   8.296  11.580   4.468 -0.3555  0.4091  0.0377
  832MOL0     C14738   8.331  11.713   4.431 -0.2661  0.1039  0.4077
  832MOL0     C14739   8.209  11.799   4.401 -1.0054  0.4476 -0.1474
  832MOL0     C14740   8.091  11.760   4.478 -0.6592  0.3386 -0.1262
  832MOL0     C14741   7.984  11.864   4.446  0.6241  0.0316  0.0240
  832MOL0     C14742   7.930  11.859   4.306 -0.5357  0.7014 -0.8042
  832MOL0     C14743   7.917  11.843   4.186 -0.8524  0.0273  0.2263
  832MOL0     C14744   8.371  11.358   4.517  1.3109 -0.1218 -0.4503
  832MOL0     C14745   8.460  11.258   4.560  0.3980  0.8056 -0.7046
  832MOL0     C14746   8.415  11.111   4.575  0.4696 -0.4758  0.0983
  832MOL0     H14747   9.033  11.236   4.652  0.2030 -0.3479  0.7885
  832MOL0     H14748   9.186  11.055   4.717 -0.1807 -1.2899 -0.1497
  832MOL0     H14749   9.077  10.841   5.083 -0.2169  3.3696  1.7063
  832MOL0     H14750   9.218  10.946   5.097  1.2066 -1.8645  1.2255
  832MOL0     H14751   9.281  10.731   5.178  0.8412  2.2588  0.0539
  832MOL0     H14752   9.264  10.662   5.009 -0.6030  0.5448 -0.4561
  832MOL0     H14753   9.456  10.861   5.139  4.0950  1.1033 -2.2053
  832MOL0     H14754   9.484  10.704   5.058  0.8297 -0.5397 -0.1338
  832MOL0     H14755   9.458  10.807   4.838  1.6303  1.2646  0.6561
  832MOL0     H14756   9.385  10.957   4.903  0.1598  0.4087 -0.9150
  832MOL0     H14757   9.672  10.863   4.928 -1.6346 -1.4523 -3.9717
  832MOL0     H14758   9.595  11.006   5.019  2.7493  1.8213 -1.9288
  832MOL0     H14759   9.725  11.046   4.805 -0.1062  0.5708 -1.3430
  832MOL0     H14760   9.585  10.983   4.721  3.7881 -0.5149 -1.1859
  832MOL0     H14761   9.604  11.225   4.928 -1.1857  0.3862  0.4518
  832MOL0     H14762   9.451  11.170   4.853 -0.2802  1.3117  0.1367
  832MOL0     H14763   9.697  11.293   4.710 -0.6256  2.8150 -0.5203
  832MOL0     H14764   9.556  11.227   4.627 -0.7936  2.0305 -0.1664
  832MOL0     H14765   9.314  11.304   4.739  0.2890  0.8029 -2.6486
  832MOL0     H14766   9.131  11.481   4.766  2.2347 -0.2914 -2.0358
  832MOL0     H14767   9.185  11.634   4.847  2.9121  0.1636 -0.4338
  832MOL0     H14768   9.135  11.367   4.979  2.2895  0.6718  0.3176
  832MOL0     H14769   9.227  11.489   5.056 -0.8369  0.5839  1.5807
  832MOL0     H14770   8.934  11.525   4.959 -1.2447 -0.5851  1.1941
  832MOL0     H14771   8.978  11.467   5.112 -0.0540  0.6350  1.1686
  832MOL0     H14772   9.037  11.745   5.019  1.0475 -1.7760 -0.6838
  832MOL0     H14773   8.898  11.689   5.107 -0.1439  1.2258 -2.0471
  832MOL0     H14774   9.054  11.956   5.253  1.0899  4.2851  0.9361
  832MOL0     H14775   9.259  12.228   5.206  1.8697 -1.5787 -1.0042
  832MOL0     H14776   9.278  12.188   5.375 -0.1672  0.3488 -0.1003
  832MOL0     H14777   9.123  12.168   5.287 -0.7680 -0.1069  0.9384
  832MOL0     H14778   9.863  11.889   5.163  0.7753  0.9809 -1.3945
  832MOL0     H14779  10.065  11.999   5.158  0.7807  2.6015 -1.5805
  832MOL0     H14780  10.262  12.093   5.175 -1.5291 -0.6352 -3.5909
  832MOL0     H14781  10.169  12.178   5.055  0.7921 -0.7583 -0.4258
  832MOL0     H14782  10.311  12.378   5.163  0.5385  0.2162  1.6321
  832MOL0     H14783  10.417  12.236   5.211 -0.9670  0.1805  0.9335
  832MOL0     H14784  10.445  12.381   4.991 -0.5952  0.0345  2.2969
  832MOL0     H14785  10.319  12.284   4.922  0.8220 -0.1230 -0.9855
  832MOL0     H14786  10.488  12.150   4.862 -2.2063 -0.2831  1.7080
  832MOL0     H14787  10.469  12.078   5.028  0.3565 -1.3261  0.4699
  832MOL0     H14788  10.680  12.254   4.905  1.2170 -1.3523 -0.0088
  832MOL0     H14789  10.673  12.252   5.078  2.9661 -0.7852 -0.5495
  832MOL0     H14790  10.701  12.026   4.891 -2.4625  1.9725 -0.2774
  832MOL0     H14791  10.730  11.999   5.065  1.4594 -1.8851 -0.6940
  832MOL0     H14792  10.938  11.996   4.953 -2.8143 -1.2719  2.2013
  832MOL0     H14793  10.939  12.152   5.046  3.5835  2.0171 -2.3528
  832MOL0     H14794  10.897  12.277   4.840  1.3502  0.9043 -1.5106
  832MOL0     H14795  10.890  12.124   4.757  0.0033 -1.2701  0.8968
  832MOL0     H14796   9.908  12.358   5.316 -1.1630  0.2508  0.2516
  832MOL0     H14797   9.696  12.259   5.329 -1.0580  0.2577 -1.5681
  832MOL0     H14798   9.509  11.795   5.154 -1.1361 -1.3795  0.1169
  832MOL0     H14799   9.324  11.628   5.167  1.9342  0.7057  0.0666
  832MOL0     H14800   8.893  10.916   4.998 -0.6049 -2.2151 -1.4780
  832MOL0     H14801   8.745  11.097   4.925  0.4845 -0.7868 -0.3037
  832MOL0     H14802   8.721  11.463   4.608 -0.3458 -0.9201  0.3371
  832MOL0     H14803   8.554  11.632   4.535  0.5953 -0.3986 -2.4089
  832MOL0     H14804   8.384  11.757   4.515  0.4738 -2.0842  1.1416
  832MOL0     H14805   8.397  11.706   4.345  1.7039  0.4173  1.8354
  832MOL0     H14806   8.180  11.780   4.297  1.3471 -1.6956 -0.5081
  832MOL0     H14807   8.236  11.905   4.410 -1.0467  0.6500 -1.9520
  832MOL0     H14808   8.057  11.663   4.442  1.7843  0.2425 -2.4652
  832MOL0     H14809   8.119  11.762   4.584 -1.6607 -1.0721  0.1978
  832MOL0     H14810   8.016  11.966   4.470 -0.2203  0.5289 -0.8603
  832MOL0     H14811   7.899  11.845   4.512 -0.4120  3.1103 -0.2219
  832MOL0     H14812   7.917  11.824   4.081 -0.8550 -1.0483  0.4162
  832MOL0     H14813   8.274  11.323   4.481  2.1857 -2.0912 -1.0530
  832MOL0     H14814   8.464  11.064   4.661 -3.6557 -2.4004  1.6364
  832MOL0     H14815   8.307  11.096   4.578  0.2994  0.4037 -0.8729
  832MOL0     H14816   8.454  11.068   4.483  2.9177 -2.5850  1.9479
  833MOL0     O14817   1.018   2.385   5.411 -0.1506 -0.0131  0.4041
  833MOL0     C14818   0.999   2.331   5.305  0.3523  0.5689  0.5326
  833MOL0     O14819   1.100   2.255   5.237  0.4121 -0.8302 -0.5230
  833MOL0     C14820   1.210   2.216   5.312  0.0237 -0.2654  0.3302
  833MOL0     C14821   1.331   2.215   5.243 -0.2509 -0.5584  0.9865
  833MOL0     C14822   1.447   2.167   5.300 -0.7000 -0.0486 -0.0417
  833MOL0     C14823   1.452   2.123   5.435 -0.1528 -0.7801 -0.8332
  833MOL0     O14824   1.576   2.103   5.490  0.1925  0.0661 -0.4291
  833MOL0     C14825   1.599   2.093   5.627  0.9921  0.1793  0.4908
  833MOL0     C14826   1.734   2.131   5.663 -0.6577 -0.0118 -0.0862
  833MOL0     C14827   1.759   2.278   5.718 -0.8735 -0.0910 -0.6330
  833MOL0     C14828   1.902   2.303   5.744 -0.4432 -0.0085 -0.1430
  833MOL0     C14829   1.933   2.445   5.761  0.1865 -0.0503 -0.1777
  833MOL0     C14830   1.834   2.519   5.860  0.7658  0.1258 -0.5262
  833MOL0     C14831   1.882   2.663   5.893  0.4187 -0.6892 -0.5810
  833MOL0     C14832   1.791   2.748   5.982 -0.7033 -0.6386  0.3940
  833MOL0     N14833   1.645   2.725   5.954  0.3845  0.0115 -0.0543
  833MOL0     C14834   1.570   2.806   5.866  0.0045  0.1611 -0.4209
  833MOL0     C14835   1.439   2.757   5.867 -1.1450 -0.1826 -0.9546
  833MOL0     C14836   1.340   2.803   5.755 -0.0226  0.1972 -1.1240
  833MOL0     C14837   1.326   2.711   5.631  0.5605  0.2779 -0.4301
  833MOL0     C14838   1.302   2.563   5.661  0.1850  0.5379 -0.2042
  833MOL0     C14839   1.438   2.485   5.665  0.2566 -0.4576 -0.3238
  833MOL0     O14840   1.479   2.464   5.527 -0.2578  0.6129  0.0896
  833MOL0     C14841   1.592   2.522   5.479  0.5416 -0.0638 -0.2475
  833MOL0     C14842   1.651   2.458   5.366 -0.1727 -0.0865  0.0416
  833MOL0     C14843   1.779   2.482   5.303  0.8269 -0.0074 -0.4454
  833MOL0     C14844   1.809   2.398   5.175 -0.9392 -0.0230 -0.3344
  833MOL0     C14845   1.850   2.586   5.372 -0.0705 -0.3880  0.1376
  833MOL0     C14846   1.984   2.635   5.334 -0.2249  0.5590  0.2918
  833MOL0     O14847   2.023   2.757   5.379  0.9461 -0.9027  0.4153
  833MOL0     C14848   2.153   2.798   5.357 -0.1264  0.3656  0.2137
  833MOL0     C14849   2.257   2.754   5.438  0.4182 -0.1073 -0.3988
  833MOL0     C14850   2.379   2.814   5.422 -0.5213 -0.5758  0.6151
  833MOL0     C14851   2.411   2.907   5.324  0.7923 -0.1573  0.0432
  833MOL0     O14852   2.545   2.934   5.309 -0.5813 -0.1898  0.5417
  833MOL0     C14853   2.566   3.071   5.268 -0.1035 -0.0860 -1.0580
  833MOL0     C14854   2.713   3.109   5.244 -0.6538  0.6561  0.5069
  833MOL0     C14855   2.797   3.008   5.161 -0.2806 -0.5540 -0.0374
  833MOL0     C14856   2.944   3.028   5.177 -0.3999  0.2777 -0.1471
  833MOL0     C14857   3.031   2.904   5.139  0.0292  0.3834  0.2453
  833MOL0     C14858   3.179   2.941   5.144 -0.1564  0.0487  0.3181
  833MOL0     C14859   3.229   2.972   4.999  0.3036 -0.4054 -0.4868
  833MOL0     C14860   3.378   2.990   4.993  0.4302 -0.1941  0.2678
  833MOL0    Cl14861   3.435   3.132   5.080 -0.1742 -0.3567 -0.1864
  833MOL0     C14862   2.311   2.960   5.249 -0.3362  0.6154  0.2846
  833MOL0     C14863   2.179   2.909   5.273 -0.4203 -1.0391 -0.5018
  833MOL0     O14864   2.055   2.552   5.285  0.4118  1.0165  0.3968
  833MOL0     C14865   1.792   2.653   5.481 -0.4220 -0.5539 -0.1176
  833MOL0     C14866   1.669   2.623   5.534  0.1580 -0.2517  0.1295
  833MOL0     N14867   1.439   2.646   5.959 -0.5527  0.4254  0.6454
  833MOL0     N14868   1.561   2.629   6.007 -0.4997  0.9207 -0.0190
  833MOL0     C14869   1.334   2.121   5.503 -0.8967 -0.2671 -0.3358
  833MOL0     C14870   1.211   2.173   5.443  0.4596 -0.4843  0.0076
  833MOL0     C14871   0.878   2.354   5.226  0.2788  0.4525  0.7725
  833MOL0     C14872   0.867   2.336   5.085 -0.2169 -0.2095 -0.8846
  833MOL0     C14873   0.753   2.367   5.011  0.4844 -0.4400  0.1998
  833MOL0     C14874   0.642   2.408   5.076  0.7311 -0.5380 -0.4563
  833MOL0     O14875   0.522   2.439   5.010  0.5312  0.5587 -0.0252
  833MOL0     C14876   0.512   2.454   4.867  0.6334  0.0755 -0.3213
  833MOL0     C14877   0.360   2.430   4.835 -0.2582  0.0511  0.6098
  833MOL0     C14878   0.316   2.463   4.688 -0.0694  0.1514  0.1467
  833MOL0     C14879   0.164   2.462   4.666 -0.3065 -0.5299  0.2452
  833MOL0     C14880   0.113   2.326   4.676  1.1982  0.5178 -0.1181
  833MOL0     C14881   0.056   2.220   4.703  0.4266 -0.2039  0.2985
  833MOL0     C14882   0.630   2.413   5.216  0.4133  0.0471  0.2873
  833MOL0     C14883   0.750   2.382   5.290 -0.0113 -0.7823 -0.4423
  833MOL0     C14884   0.724   2.386   5.442  0.3603 -0.1562  0.2738
  833MOL0     H14885   1.334   2.259   5.144  1.8560 -2.7210 -0.0090
  833MOL0     H14886   1.539   2.169   5.242 -0.0620  0.4661  0.9504
  833MOL0     H14887   1.583   1.994   5.669 -0.6232 -0.0652 -0.6035
  833MOL0     H14888   1.525   2.151   5.682  0.3406 -1.0610  0.9625
  833MOL0     H14889   1.767   2.059   5.738  1.9132 -0.4242 -1.4898
  833MOL0     H14890   1.797   2.103   5.578 -0.6347  2.1860 -0.8562
  833MOL0     H14891   1.716   2.355   5.653 -2.8339 -0.0243  0.6594
  833MOL0     H14892   1.705   2.277   5.813  0.2166 -2.8891  0.0616
  833MOL0     H14893   1.940   2.249   5.831  0.1896  0.7794  0.0778
  833MOL0     H14894   1.962   2.278   5.656 -0.9118  0.7961 -0.7020
  833MOL0     H14895   1.930   2.494   5.663 -2.5441 -0.6977 -0.5248
  833MOL0     H14896   2.030   2.455   5.810  0.8210 -1.5892 -1.0499
  833MOL0     H14897   1.733   2.508   5.820  0.9891 -1.0815 -0.7905
  833MOL0     H14898   1.833   2.456   5.950  2.2453 -2.5985 -2.2997
  833MOL0     H14899   1.900   2.708   5.795 -2.7400 -0.2017 -1.0445
  833MOL0     H14900   1.977   2.663   5.947 -1.1616 -0.5298  2.3864
  833MOL0     H14901   1.810   2.719   6.086 -3.9213 -2.2729  0.6523
  833MOL0     H14902   1.820   2.853   5.979  0.3744 -0.9454 -1.6385
  833MOL0     H14903   1.615   2.885   5.807  1.5014  0.9624  1.6549
  833MOL0     H14904   1.376   2.901   5.724 -0.4066 -0.1237 -2.7027
  833MOL0     H14905   1.244   2.826   5.802  1.9149  2.9688  1.8561
  833MOL0     H14906   1.233   2.751   5.588  0.1103  0.4904  0.6880
  833MOL0     H14907   1.408   2.735   5.564  0.6784 -1.7092 -1.0476
  833MOL0     H14908   1.249   2.553   5.756  2.1105  3.0476  1.2697
  833MOL0     H14909   1.251   2.523   5.574  1.0654  2.5803 -1.7434
  833MOL0     H14910   1.509   2.531   5.734 -0.4755  2.1081 -1.1298
  833MOL0     H14911   1.421   2.389   5.713 -0.5952  0.7253  1.9042
  833MOL0     H14912   1.583   2.383   5.327 -1.2396  1.4430 -1.1634
  833MOL0     H14913   1.797   2.291   5.196 -4.0673 -0.3475 -2.9776
  833MOL0     H14914   1.907   2.416   5.130 -1.7594 -0.9895 -2.7163
  833MOL0     H14915   1.734   2.441   5.108  1.3844  1.9882 -1.7789
  833MOL0     H14916   2.244   2.670   5.506 -0.9456 -0.9163 -1.6065
  833MOL0     H14917   2.451   2.765   5.486 -1.2132 -0.9714  1.1018
  833MOL0     H14918   2.533   3.087   5.166  2.6074  0.3413 -1.9525
  833MOL0     H14919   2.530   3.139   5.346 -1.6888 -0.7213 -1.2000
  833MOL0     H14920   2.711   3.208   5.198  3.2902  0.0536 -1.3680
  833MOL0     H14921   2.767   3.129   5.337  0.1742  0.3183  0.1040
  833MOL0     H14922   2.773   3.027   5.056  0.2910 -2.4518 -0.5527
  833MOL0     H14923   2.758   2.908   5.184 -1.7497  0.4601  2.2839
  833MOL0     H14924   2.963   3.064   5.279 -1.4910  0.9265 -0.1587
  833MOL0     H14925   2.969   3.112   5.113  0.7045 -0.1091 -0.2383
  833MOL0     H14926   3.010   2.825   5.212  1.3233  0.0512  0.2740
  833MOL0     H14927   3.002   2.876   5.037 -2.2641  3.6417 -0.1501
  833MOL0     H14928   3.239   2.859   5.186  0.7118  0.6226  0.2283
  833MOL0     H14929   3.200   3.013   5.223  1.3504  0.5891 -0.5239
  833MOL0     H14930   3.171   3.058   4.963  0.0287 -0.2525  0.2771
  833MOL0     H14931   3.207   2.885   4.937  0.8958  0.3851 -1.8284
  833MOL0     H14932   3.396   2.993   4.885 -1.2015 -0.2809 -0.0350
  833MOL0     H14933   3.420   2.901   5.040 -0.4472 -1.2749 -0.9473
  833MOL0     H14934   2.329   3.042   5.180  0.7910  0.9683  0.9785
  833MOL0     H14935   2.099   2.946   5.211  0.6224  0.2522 -1.1376
  833MOL0     H14936   1.857   2.727   5.527 -1.4457  0.5120 -0.3619
  833MOL0     H14937   1.627   2.687   5.611 -0.2167  0.8004 -0.9037
  833MOL0     H14938   1.325   2.078   5.602 -3.7165 -0.9860 -0.8108
  833MOL0     H14939   1.121   2.158   5.503  2.2555 -1.6989  2.5849
  833MOL0     H14940   0.951   2.313   5.020 -0.9412 -1.6642 -1.3495
  833MOL0     H14941   0.760   2.358   4.903 -1.8282  2.5968 -0.3276
  833MOL0     H14942   0.548   2.551   4.831  2.0257 -0.4639 -0.4275
  833MOL0     H14943   0.560   2.366   4.823 -1.1222 -0.6589 -0.8554
  833MOL0     H14944   0.311   2.498   4.907  2.2408 -0.4900  2.9668
  833MOL0     H14945   0.327   2.329   4.859 -2.0577  0.8003  1.5185
  833MOL0     H14946   0.348   2.567   4.676 -0.4044  0.4098  1.3428
  833MOL0     H14947   0.364   2.397   4.615  1.0412  0.9266  0.1529
  833MOL0     H14948   0.135   2.494   4.566  3.3816  1.9136 -0.2571
  833MOL0     H14949   0.107   2.525   4.735 -0.7753 -0.5397 -0.1335
  833MOL0     H14950   0.027   2.119   4.724 -2.6158  0.2743 -1.1744
  833MOL0     H14951   0.537   2.430   5.269  0.7825  3.0870  0.1945
  833MOL0     H14952   0.624   2.422   5.467  0.4271  1.1357 -1.1523
  833MOL0     H14953   0.733   2.286   5.486 -0.8213 -0.6343 -0.5116
  833MOL0     H14954   0.792   2.454   5.494  2.6867 -1.1049 -1.3733
  834MOL0     O14955   6.558  10.801   0.620  0.4074 -0.6791 -0.2798
  834MOL0     C14956   6.598  10.832   0.729  0.2111  0.1789 -1.1160
  834MOL0     O14957   6.706  10.789   0.791 -0.4547 -0.0399  0.6636
  834MOL0     C14958   6.804  10.708   0.738  0.1051 -0.4603  0.4054
  834MOL0     C14959   6.887  10.639   0.823 -0.0422  0.8205  0.6955
  834MOL0     C14960   7.000  10.576   0.780 -0.0493  0.1686  0.5009
  834MOL0     C14961   7.016  10.554   0.642 -1.1802 -0.5520  0.5657
  834MOL0     O14962   7.119  10.473   0.600 -0.0280  0.4980  0.4689
  834MOL0     C14963   7.248  10.496   0.673 -0.3872 -0.0831  1.1029
  834MOL0     C14964   7.359  10.531   0.580 -0.3813 -1.1097 -0.1627
  834MOL0     C14965   7.500  10.531   0.641  0.2037  0.4059  1.0388
  834MOL0     C14966   7.603  10.577   0.538 -0.4930 -0.1665  0.6928
  834MOL0     C14967   7.748  10.558   0.582 -0.1690 -0.7306 -0.7442
  834MOL0     C14968   7.864  10.586   0.479 -0.4651 -0.5173 -1.1538
  834MOL0     C14969   7.869  10.494   0.362  0.4350 -0.3414 -0.2486
  834MOL0     C14970   7.981  10.525   0.256 -0.0600  0.1640 -0.5898
  834MOL0     N14971   8.113  10.461   0.289 -0.2906  0.1243  0.3960
  834MOL0     C14972   8.146  10.324   0.276  0.0320  0.1558  0.1606
  834MOL0     C14973   8.263  10.305   0.337 -0.1764  0.6776  0.0536
  834MOL0     C14974   8.349  10.183   0.355 -0.3054  0.7408  0.7382
  834MOL0     C14975   8.336  10.117   0.485  0.2645  0.0237 -0.9424
  834MOL0     C14976   8.201  10.045   0.487  0.3279 -0.2979 -0.0320
  834MOL0     C14977   8.187   9.939   0.584  0.4478  1.5799 -0.5563
  834MOL0     O14978   8.302   9.861   0.614  0.3591  0.7862  0.0427
  834MOL0     C14979   8.311   9.738   0.549  0.4166 -0.7468 -0.5534
  834MOL0     C14980   8.328   9.624   0.628  0.5649  0.2222  0.8353
  834MOL0     C14981   8.327   9.497   0.574  0.1861 -1.0887  0.4804
  834MOL0     C14982   8.348   9.375   0.664  0.4834 -0.6057  0.8415
  834MOL0     C14983   8.299   9.480   0.433 -0.1342  0.3499 -0.9361
  834MOL0     C14984   8.288   9.356   0.360  0.2019  0.4221 -0.2915
  834MOL0     O14985   8.291   9.366   0.214  0.2080 -0.4041 -0.5009
  834MOL0     C14986   8.268   9.254   0.137 -0.4746 -0.9871  0.2024
  834MOL0     C14987   8.327   9.133   0.172  0.7518 -0.8877  0.8575
  834MOL0     C14988   8.294   9.020   0.094 -0.2417  0.3218 -0.0083
  834MOL0     C14989   8.199   9.021  -0.009  0.0346 -0.9841 -0.2163
  834MOL0     O14990   8.162   8.909  -0.078  0.0878  0.0075 -0.0339
  834MOL0     C14991   8.025   8.895  -0.123 -0.3080  1.3123  0.0512
  834MOL0     C14992   8.008   8.764  -0.214 -0.0290 -0.5692 -0.5688
  834MOL0     C14993   7.864   8.768  -0.276  0.3578 -0.2787  0.8311
  834MOL0     C14994   7.741   8.732  -0.184 -0.8529  0.8268 -0.1369
  834MOL0     C14995   7.611   8.753  -0.247 -0.2389 -0.6812  0.1113
  834MOL0     C14996   7.495   8.728  -0.165  0.0550 -1.1677  0.0935
  834MOL0     C14997   7.368   8.779  -0.243 -0.0903 -0.2433 -0.7249
  834MOL0     C14998   7.235   8.776  -0.158 -0.4071  0.5331 -0.9774
  834MOL0    Cl14999   7.199   8.603  -0.130  0.0593 -0.4649  0.0459
  834MOL0     C15000   8.145   9.144  -0.044 -0.0294  0.4826 -0.7483
  834MOL0     C15001   8.186   9.259   0.024  0.5282  0.3780  0.2564
  834MOL0     O15002   8.264   9.255   0.425  0.7099 -0.7021 -0.1206
  834MOL0     C15003   8.286   9.598   0.354 -0.3403  0.5864  0.4921
  834MOL0     C15004   8.293   9.722   0.410  0.6301 -0.3460  0.2749
  834MOL0     N15005   8.305  10.427   0.392  0.4994  0.3882 -0.8250
  834MOL0     N15006   8.208  10.515   0.375  0.7828  0.0540 -0.2867
  834MOL0     C15007   6.931  10.623   0.559  1.0088  0.2305  0.3481
  834MOL0     C15008   6.833  10.714   0.602 -0.0399  0.1752  0.3062
  834MOL0     C15009   6.516  10.937   0.795 -0.1036 -0.2441 -0.6300
  834MOL0     C15010   6.514  10.936   0.938  0.2620  0.3285  0.4059
  834MOL0     C15011   6.455  11.042   1.006 -0.9811  0.3556  0.0451
  834MOL0     C15012   6.393  11.141   0.942 -0.0003  0.0109 -0.3864
  834MOL0     O15013   6.348  11.239   1.022  0.6319 -0.3322  0.3564
  834MOL0     C15014   6.316  11.369   0.969  0.4135 -0.7193  0.0999
  834MOL0     C15015   6.284  11.458   1.092 -1.2054  0.2978  0.8604
  834MOL0     C15016   6.415  11.531   1.135 -0.4657  0.5603  0.6152
  834MOL0     C15017   6.385  11.598   1.265  0.2471  0.3033  0.2677
  834MOL0     C15018   6.260  11.681   1.273  0.6548  0.5986 -0.5554
  834MOL0     C15019   6.154  11.751   1.285 -0.0587 -0.4388  0.2448
  834MOL0     C15020   6.382  11.140   0.801 -0.5878 -0.1125 -0.0959
  834MOL0     C15021   6.443  11.039   0.727 -0.3948  0.2997 -1.2417
  834MOL0     C15022   6.443  11.059   0.578  0.6613  0.1346 -0.9454
  834MOL0     H15023   6.878  10.654   0.930 -0.3357  2.5012  0.4740
  834MOL0     H15024   7.072  10.528   0.846 -0.9959 -1.4870  0.3935
  834MOL0     H15025   7.270  10.403   0.726  1.4911  0.3268  1.1164
  834MOL0     H15026   7.242  10.581   0.742  1.1935 -0.3259  1.5754
  834MOL0     H15027   7.348  10.467   0.492 -2.4418 -1.1253  0.0508
  834MOL0     H15028   7.335  10.633   0.550 -1.0643 -0.2752  2.8697
  834MOL0     H15029   7.506  10.595   0.730 -0.1636  0.1101  1.2809
  834MOL0     H15030   7.528  10.426   0.652  1.3533  0.1468 -3.0242
  834MOL0     H15031   7.585  10.519   0.447 -2.4968  0.0206  0.9291
  834MOL0     H15032   7.585  10.684   0.533 -1.2036 -0.3421 -1.0754
  834MOL0     H15033   7.755  10.452   0.608 -3.7133 -0.6584  1.1504
  834MOL0     H15034   7.761  10.607   0.679 -2.4708  1.5514 -1.4974
  834MOL0     H15035   7.880  10.692   0.458  0.8257 -0.7163 -1.2423
  834MOL0     H15036   7.958  10.563   0.529 -1.1009  0.0364  0.3814
  834MOL0     H15037   7.776  10.511   0.307 -1.4472 -1.2713  2.4502
  834MOL0     H15038   7.872  10.393   0.404 -0.0133 -0.4065 -0.3722
  834MOL0     H15039   7.947  10.502   0.155  0.8605  0.6059 -1.0084
  834MOL0     H15040   8.011  10.630   0.255  3.1337 -0.6228  0.6980
  834MOL0     H15041   8.086  10.248   0.228 -4.1577  2.5114  1.1562
  834MOL0     H15042   8.452  10.219   0.345 -0.8840  2.0225 -1.4935
  834MOL0     H15043   8.336  10.119   0.268 -0.3185  3.1441 -1.1513
  834MOL0     H15044   8.418  10.044   0.495 -0.9613 -1.3919 -0.9008
  834MOL0     H15045   8.331  10.188   0.568 -3.4031 -1.7771  0.5797
  834MOL0     H15046   8.123  10.121   0.499  0.1719 -0.2345 -1.3142
  834MOL0     H15047   8.198   9.993   0.391 -1.7269 -0.2235 -0.0546
  834MOL0     H15048   8.148   9.982   0.677  1.3029 -0.2117  0.6901
  834MOL0     H15049   8.104   9.872   0.562  0.3245  0.3073  3.1125
  834MOL0     H15050   8.334   9.639   0.735  1.1421  2.5872  0.5192
  834MOL0     H15051   8.428   9.311   0.623  0.0730  0.2707 -1.4718
  834MOL0     H15052   8.260   9.310   0.664 -0.0357  0.0891 -0.0397
  834MOL0     H15053   8.373   9.408   0.765  1.7713 -1.1542  0.7341
  834MOL0     H15054   8.395   9.114   0.255  1.1540 -2.0031  0.2995
  834MOL0     H15055   8.332   8.924   0.126 -0.3110 -0.0963 -1.1158
  834MOL0     H15056   7.972   8.890  -0.028 -1.7357 -0.1534 -0.7823
  834MOL0     H15057   7.998   8.982  -0.184  0.0687  1.4451  0.0712
  834MOL0     H15058   8.075   8.774  -0.300  1.1719  3.0670  0.6377
  834MOL0     H15059   8.022   8.672  -0.157 -1.6541  0.2523  1.2871
  834MOL0     H15060   7.863   8.701  -0.363 -1.4129 -0.6752  1.0977
  834MOL0     H15061   7.847   8.870  -0.310 -2.5499 -1.6255 -2.4974
  834MOL0     H15062   7.750   8.789  -0.091 -0.2631  1.2887 -0.4634
  834MOL0     H15063   7.760   8.630  -0.151 -1.5384  1.7166  3.3395
  834MOL0     H15064   7.604   8.858  -0.277 -2.4350 -1.3614 -2.1571
  834MOL0     H15065   7.605   8.699  -0.342 -0.8626  2.2630 -1.6555
  834MOL0     H15066   7.496   8.778  -0.068 -1.1076  0.4725 -0.6827
  834MOL0     H15067   7.488   8.620  -0.149 -3.2815 -1.2539 -1.0490
  834MOL0     H15068   7.367   8.727  -0.340  2.0066 -1.5813 -0.0958
  834MOL0     H15069   7.386   8.884  -0.268  0.9757 -1.0363 -3.8153
  834MOL0     H15070   7.152   8.830  -0.205 -0.5656  3.4162  2.2005
  834MOL0     H15071   7.246   8.800  -0.052 -3.6907 -5.4748  1.2023
  834MOL0     H15072   8.063   9.157  -0.115 -1.1256  1.5147  0.6620
  834MOL0     H15073   8.127   9.344  -0.009  0.5394  1.4854  2.8705
  834MOL0     H15074   8.281   9.594   0.246 -0.9117 -3.0002  0.5221
  834MOL0     H15075   8.299   9.807   0.343 -1.8798 -0.3423 -0.0506
  834MOL0     H15076   6.947  10.599   0.454 -0.4015 -0.6757  0.3120
  834MOL0     H15077   6.770  10.765   0.530  1.1597  3.3939  1.3607
  834MOL0     H15078   6.570  10.857   0.987  1.0706 -0.3108 -1.4131
  834MOL0     H15079   6.449  11.033   1.114  4.0534 -0.6188  0.4687
  834MOL0     H15080   6.403  11.412   0.918 -0.3214  0.1795 -0.4266
  834MOL0     H15081   6.229  11.370   0.902 -0.1336  1.0023  0.7937
  834MOL0     H15082   6.254  11.388   1.170  1.4611 -0.8130  0.9866
  834MOL0     H15083   6.208  11.530   1.061 -0.8008  0.1585 -0.5309
  834MOL0     H15084   6.488  11.450   1.134 -1.2016 -0.1884 -2.5016
  834MOL0     H15085   6.445  11.601   1.056  0.2613  1.0821  1.3423
  834MOL0     H15086   6.470  11.663   1.288 -1.6270  2.3754  1.8321
  834MOL0     H15087   6.389  11.532   1.351  1.2331 -1.8673 -1.3479
  834MOL0     H15088   6.057  11.796   1.286 -0.4373 -1.0492 -2.4021
  834MOL0     H15089   6.328  11.226   0.761 -0.2830 -1.4904 -3.8256
  834MOL0     H15090   6.546  11.054   0.543  0.5887  0.7526 -1.2566
  834MOL0     H15091   6.380  10.982   0.533 -1.4626  0.8216  0.6762
  834MOL0     H15092   6.395  11.154   0.553 -1.5447 -0.2662  1.4068
  835MOL0     O15093   1.050  10.841   7.063  0.6706  0.2041 -0.2603
  835MOL0     C15094   0.955  10.906   7.095 -0.2233  0.3671 -0.1965
  835MOL0     O15095   0.963  11.030   7.140  0.3192 -0.0499  0.1282
  835MOL0     C15096   1.052  11.119   7.083  0.1937  0.4793 -0.3913
  835MOL0     C15097   1.083  11.112   6.952  0.5067  0.4115  0.0791
  835MOL0     C15098   1.188  11.188   6.898  0.5891 -0.2868  0.3288
  835MOL0     C15099   1.259  11.274   6.991 -0.6211  0.2897 -0.3651
  835MOL0     O15100   1.362  11.350   6.957 -0.4793  0.0971  0.4405
  835MOL0     C15101   1.403  11.321   6.826  0.4662  0.1917 -0.4159
  835MOL0     C15102   1.525  11.406   6.795 -0.6853 -0.4576  0.4854
  835MOL0     C15103   1.490  11.558   6.814  0.2780  0.3290  0.6012
  835MOL0     C15104   1.612  11.625   6.764  0.1076  0.2751 -0.6423
  835MOL0     C15105   1.578  11.759   6.708 -0.2203 -0.2553 -0.1937
  835MOL0     C15106   1.705  11.845   6.684 -0.2670 -0.5888 -0.8699
  835MOL0     C15107   1.667  11.973   6.596  0.3653  0.6167 -0.1628
  835MOL0     C15108   1.750  12.086   6.643  0.3395  0.4460 -0.1242
  835MOL0     N15109   1.710  12.221   6.591 -0.3941  0.1981  0.2445
  835MOL0     C15110   1.668  12.261   6.462 -0.0289  0.5632  0.1468
  835MOL0     C15111   1.653  12.393   6.466  0.2935 -0.0603  0.4077
  835MOL0     C15112   1.588  12.476   6.355 -0.1991 -0.1723 -0.8232
  835MOL0     C15113   1.698  12.516   6.243  0.2600 -0.8657 -0.3232
  835MOL0     C15114   1.661  12.636   6.162 -0.1489 -0.5233 -0.9380
  835MOL0     C15115   1.751  12.672   6.045 -0.2023 -0.3397  0.3194
  835MOL0     O15116   1.888  12.717   6.080 -0.2898 -0.3430 -0.7256
  835MOL0     C15117   1.995  12.635   6.081  0.2579 -0.1430  0.6739
  835MOL0     C15118   1.987  12.493   6.073  0.6505 -0.0680  0.1530
  835MOL0     C15119   2.105  12.422   6.073  0.5714 -0.0537  0.2394
  835MOL0     C15120   2.099  12.273   6.051 -0.4764  0.6364  0.3116
  835MOL0     C15121   2.229  12.481   6.092 -0.4123 -0.2649 -0.5114
  835MOL0     C15122   2.364  12.413   6.081  0.0609  0.5595  0.2452
  835MOL0     O15123   2.469  12.482   6.128  0.2168  0.2589  0.0406
  835MOL0     C15124   2.589  12.425   6.144  0.3955  0.3002 -0.0290
  835MOL0     C15125   2.695  12.510   6.115 -0.2595 -0.4903  0.1037
  835MOL0     C15126   2.823  12.453   6.116 -0.2064  0.2599 -0.6779
  835MOL0     C15127   2.846  12.313   6.157 -0.5834 -0.1934 -0.3319
  835MOL0     O15128   2.975  12.267   6.171  0.5077  0.2836  0.5569
  835MOL0     C15129   2.996  12.130   6.166  0.2411 -0.4371 -0.3121
  835MOL0     C15130   3.147  12.119   6.170  0.5687 -0.6067  0.5862
  835MOL0     C15131   3.201  11.978   6.147 -0.5293  0.6154  0.2811
  835MOL0     C15132   3.352  11.964   6.111 -0.1588 -0.8070 -0.1360
  835MOL0     C15133   3.397  11.826   6.068  0.2082 -0.3669  0.8276
  835MOL0     C15134   3.545  11.838   6.035 -0.5025  0.1833  0.0103
  835MOL0     C15135   3.612  11.704   6.015 -0.2101 -0.1435 -0.2307
  835MOL0     C15136   3.763  11.682   6.045  0.3564 -0.0109  0.3391
  835MOL0    Cl15137   3.862  11.812   5.969 -0.2430  0.1601 -0.6753
  835MOL0     C15138   2.735  12.234   6.197 -0.9388  0.3668  0.0607
  835MOL0     C15139   2.609  12.289   6.190 -0.1729 -0.1871 -0.1293
  835MOL0     O15140   2.376  12.307   6.013  0.2271  0.7147  0.9809
  835MOL0     C15141   2.227  12.615   6.114  0.6873 -1.0977  0.5233
  835MOL0     C15142   2.115  12.700   6.110  0.7817  0.3831 -0.1964
  835MOL0     N15143   1.674  12.434   6.597  0.2199  0.4673  0.3176
  835MOL0     N15144   1.694  12.331   6.674  0.3297 -0.2193  0.2970
  835MOL0     C15145   1.219  11.280   7.118 -0.0314  0.5284  0.3345
  835MOL0     C15146   1.124  11.201   7.168  0.3453  0.4840 -0.0606
  835MOL0     C15147   0.836  10.813   7.115  0.8928 -0.7085 -0.2969
  835MOL0     C15148   0.840  10.674   7.093 -0.1305 -0.4348  0.2935
  835MOL0     C15149   0.733  10.592   7.108  0.2912  0.8174 -0.0926
  835MOL0     C15150   0.611  10.642   7.147 -0.4859  0.4646  0.1549
  835MOL0     O15151   0.496  10.569   7.154  0.0448 -0.5963  0.4052
  835MOL0     C15152   0.481  10.493   7.273 -0.5055  0.9131 -0.8585
  835MOL0     C15153   0.563  10.361   7.281  1.0766  0.5824 -0.8257
  835MOL0     C15154   0.551  10.299   7.421  1.2306 -0.4961 -0.2479
  835MOL0     C15155   0.638  10.178   7.427  0.5651 -0.7858 -0.0017
  835MOL0     C15156   0.580  10.052   7.383 -0.2277 -0.6713  0.2074
  835MOL0     C15157   0.558   9.946   7.327 -1.1021 -0.5939  0.2597
  835MOL0     C15158   0.599  10.780   7.162 -0.0150  0.0712  0.4271
  835MOL0     C15159   0.709  10.868   7.144  0.2138  0.8155  0.7297
  835MOL0     C15160   0.673  11.018   7.159 -0.4493  0.0714  0.5162
  835MOL0     H15161   1.024  11.048   6.887  1.2256  0.2930 -0.4585
  835MOL0     H15162   1.216  11.169   6.795 -2.1135  0.1108 -0.5576
  835MOL0     H15163   1.325  11.347   6.753 -2.1499  0.1385  2.1506
  835MOL0     H15164   1.441  11.219   6.828 -0.0155  0.0046 -0.6664
  835MOL0     H15165   1.607  11.386   6.863  1.0689  1.2899 -1.0015
  835MOL0     H15166   1.559  11.378   6.695  2.0377 -1.6228  1.6594
  835MOL0     H15167   1.411  11.582   6.743  2.0020  0.2063 -1.4651
  835MOL0     H15168   1.465  11.590   6.915 -1.8676 -0.9602  0.5483
  835MOL0     H15169   1.688  11.615   6.842 -3.2536  1.9480  3.2415
  835MOL0     H15170   1.651  11.573   6.677  0.3293 -2.1901  0.8452
  835MOL0     H15171   1.507  11.816   6.769  0.3362  2.6262 -2.0608
  835MOL0     H15172   1.530  11.749   6.610  0.1763 -0.1024 -0.4072
  835MOL0     H15173   1.746  11.882   6.778 -2.7983  0.2500 -0.0218
  835MOL0     H15174   1.778  11.774   6.642  2.7194  3.5439 -3.4317
  835MOL0     H15175   1.559  11.986   6.608  0.1115 -2.3888  2.0240
  835MOL0     H15176   1.686  11.958   6.489  0.3284 -2.2970  0.1639
  835MOL0     H15177   1.763  12.088   6.752  0.4831 -0.7924 -0.1042
  835MOL0     H15178   1.853  12.068   6.611  0.6800  0.5054  0.8978
  835MOL0     H15179   1.631  12.202   6.379  0.7907  1.6958 -1.0606
  835MOL0     H15180   1.533  12.558   6.403 -1.1132 -1.4481  0.4114
  835MOL0     H15181   1.511  12.412   6.310 -1.7703 -0.2917  1.7963
  835MOL0     H15182   1.793  12.533   6.295  0.4864 -1.8267 -0.4175
  835MOL0     H15183   1.718  12.428   6.182  2.2218 -2.0416  1.8672
  835MOL0     H15184   1.562  12.620   6.118 -2.2341  1.0883  2.6863
  835MOL0     H15185   1.656  12.725   6.227  0.6807 -2.5469  2.1175
  835MOL0     H15186   1.748  12.593   5.969  0.1615  0.5255 -0.6068
  835MOL0     H15187   1.699  12.749   5.987  0.2730 -1.1414 -1.1955
  835MOL0     H15188   1.896  12.435   6.071  0.3956  0.1112  2.5587
  835MOL0     H15189   2.164  12.220   6.121 -0.5549 -1.2410 -0.9694
  835MOL0     H15190   2.124  12.246   5.948  0.7278  3.2362 -0.1765
  835MOL0     H15191   1.999  12.239   6.078 -1.2214  1.8805 -0.7890
  835MOL0     H15192   2.671  12.614   6.097  1.8432  0.1271  0.6098
  835MOL0     H15193   2.905  12.518   6.088 -1.2997  2.0119  0.0470
  835MOL0     H15194   2.952  12.077   6.251  2.1199 -3.5144 -1.0848
  835MOL0     H15195   2.956  12.080   6.077 -0.5064  0.1606 -0.3194
  835MOL0     H15196   3.188  12.174   6.085  0.3356 -2.4190 -0.7684
  835MOL0     H15197   3.191  12.164   6.259  0.6439  0.0529  0.2218
  835MOL0     H15198   3.152  11.933   6.060 -1.2265  3.3177 -0.8247
  835MOL0     H15199   3.194  11.910   6.232  3.3645  0.3633  0.6132
  835MOL0     H15200   3.404  11.995   6.202 -1.5496 -0.1815  0.4883
  835MOL0     H15201   3.371  12.030   6.026 -0.8348 -1.0394 -0.4771
  835MOL0     H15202   3.376  11.745   6.139 -1.7637 -0.5585  0.0800
  835MOL0     H15203   3.345  11.794   5.978 -1.2195  4.5884 -0.4198
  835MOL0     H15204   3.589  11.888   6.122  0.0720 -1.9763  1.0159
  835MOL0     H15205   3.561  11.898   5.945 -0.5921  1.7146  0.9777
  835MOL0     H15206   3.601  11.679   5.909  0.0043  1.0107 -0.5438
  835MOL0     H15207   3.553  11.636   6.078  0.5403  1.8660  2.8510
  835MOL0     H15208   3.794  11.581   6.016  0.6399 -0.9096  3.3891
  835MOL0     H15209   3.760  11.698   6.153 -0.6906  1.9015  0.0658
  835MOL0     H15210   2.742  12.128   6.220 -0.3351  0.4504  0.3009
  835MOL0     H15211   2.527  12.223   6.218 -1.9726 -0.1874 -4.6046
  835MOL0     H15212   2.316  12.667   6.146  1.5371 -0.4374 -2.5773
  835MOL0     H15213   2.123  12.807   6.127  0.5035  0.4442 -0.4396
  835MOL0     H15214   1.281  11.343   7.181  2.4768 -0.7602 -0.7110
  835MOL0     H15215   1.097  11.197   7.273 -0.4439 -2.8538 -0.2523
  835MOL0     H15216   0.935  10.622   7.089 -1.0686 -2.3040  1.3434
  835MOL0     H15217   0.744  10.485   7.097 -0.6025  0.6350  0.6761
  835MOL0     H15218   0.510  10.557   7.357 -0.4000 -2.9193  2.2894
  835MOL0     H15219   0.374  10.474   7.288 -0.1431  0.4314  1.4202
  835MOL0     H15220   0.670  10.380   7.267  1.3685 -0.8218 -0.6440
  835MOL0     H15221   0.538  10.293   7.199  0.4592  0.3741 -0.4686
  835MOL0     H15222   0.581  10.369   7.500 -1.8073 -0.3098  0.8734
  835MOL0     H15223   0.447  10.271   7.443  0.4542  3.8578  3.0236
  835MOL0     H15224   0.654  10.164   7.534  0.3966  2.4958  0.5479
  835MOL0     H15225   0.735  10.193   7.379  1.0403  2.2796  1.7148
  835MOL0     H15226   0.539   9.851   7.280  0.3817 -0.3888 -0.8186
  835MOL0     H15227   0.499  10.821   7.175 -0.7153 -1.9198  1.9616
  835MOL0     H15228   0.737  11.055   7.240  0.7367 -0.6598 -0.0625
  835MOL0     H15229   0.689  11.068   7.063  1.0464 -0.6106  0.3931
  835MOL0     H15230   0.572  11.032   7.200  0.0660  0.9707  1.5167
  836MOL0     O15231   7.275   0.654   1.557 -0.2349 -0.1903 -0.0325
  836MOL0     C15232   7.284   0.532   1.556  0.1554  0.2325  0.3600
  836MOL0     O15233   7.349   0.453   1.651 -0.5097  0.1894 -1.0740
  836MOL0     C15234   7.427   0.524   1.749  0.8413  0.5505  0.1234
  836MOL0     C15235   7.559   0.545   1.728  0.1959  0.0291 -0.4931
  836MOL0     C15236   7.641   0.599   1.827 -0.1790 -0.1646 -0.3651
  836MOL0     C15237   7.582   0.647   1.943  0.0825 -0.9669  0.5263
  836MOL0     O15238   7.671   0.686   2.042  1.0249  0.1176 -0.2565
  836MOL0     C15239   7.642   0.823   2.093  0.7842 -0.0478  0.8663
  836MOL0     C15240   7.728   0.857   2.207  0.4641  0.2404 -0.6087
  836MOL0     C15241   7.881   0.837   2.185 -0.5400 -0.7204 -0.2934
  836MOL0     C15242   7.938   0.944   2.092 -0.5168 -0.0218 -0.6101
  836MOL0     C15243   8.092   0.918   2.080  0.2176  0.1067  0.7616
  836MOL0     C15244   8.182   1.029   2.028  0.8284  0.3546 -0.6180
  836MOL0     C15245   8.323   0.977   2.043 -0.4375 -0.6378  0.3255
  836MOL0     C15246   8.387   0.972   2.184 -0.7204 -0.2566  0.0740
  836MOL0     N15247   8.533   0.961   2.172 -0.3722  0.8539 -0.2131
  836MOL0     C15248   8.603   0.873   2.086 -0.5383  0.3891  0.7808
  836MOL0     C15249   8.737   0.897   2.111  0.3588  0.1100  0.9561
  836MOL0     C15250   8.848   0.823   2.038  0.5335  0.1805 -0.7583
  836MOL0     C15251   8.981   0.867   2.109 -0.1618 -0.3453  0.4508
  836MOL0     C15252   8.985   0.816   2.255  0.0316  0.1130 -0.3989
  836MOL0     C15253   9.091   0.897   2.333  0.1955 -0.3166 -0.3096
  836MOL0     O15254   9.226   0.866   2.282  0.1673  0.1783  0.5426
  836MOL0     C15255   9.297   0.748   2.326  0.0764  0.4691 -0.0913
  836MOL0     C15256   9.263   0.665   2.436 -0.4396  0.9574  0.1609
  836MOL0     C15257   9.341   0.550   2.473  0.7339  0.0537 -0.3242
  836MOL0     C15258   9.282   0.454   2.577  0.2840 -0.1709 -0.7501
  836MOL0     C15259   9.454   0.527   2.398 -0.6548 -0.6717 -0.3977
  836MOL0     C15260   9.540   0.412   2.422  0.1130  0.8728 -0.0477
  836MOL0     O15261   9.647   0.403   2.347  0.1791 -0.3457  0.5948
  836MOL0     C15262   9.705   0.276   2.343 -0.2281  1.0555  0.3657
  836MOL0     C15263   9.808   0.240   2.432  0.7727 -0.0660 -0.4919
  836MOL0     C15264   9.868   0.114   2.422  0.6490  0.2257 -0.5092
  836MOL0     C15265   9.833   0.024   2.320 -0.9699 -0.4764 -0.1471
  836MOL0     O15266   9.917  -0.083   2.299  0.0292  0.1450  0.0135
  836MOL0     C15267   9.852  -0.210   2.310 -0.5097 -0.2951 -0.1017
  836MOL0     C15268   9.942  -0.300   2.392 -0.3508 -0.1940  0.4820
  836MOL0     C15269   9.914  -0.446   2.372  0.4644 -0.6249  0.3329
  836MOL0     C15270   9.766  -0.487   2.380  0.1966  1.0594  0.1070
  836MOL0     C15271   9.723  -0.508   2.527 -0.4307 -0.5338  0.7969
  836MOL0     C15272   9.808  -0.598   2.625  0.2021 -0.9199 -0.3947
  836MOL0     C15273   9.819  -0.741   2.577  0.0470  0.2862  0.9359
  836MOL0     C15274   9.866  -0.847   2.672 -0.1386 -0.5757  0.2139
  836MOL0    Cl15275  10.037  -0.795   2.723  0.0228  0.0792 -0.7391
  836MOL0     C15276   9.723   0.051   2.245  0.7667  0.4463  0.2213
  836MOL0     C15277   9.657   0.177   2.256  0.4038  0.4254  0.5942
  836MOL0     O15278   9.524   0.347   2.527 -1.2788  0.4224 -0.2173
  836MOL0     C15279   9.475   0.596   2.278 -0.5994  0.3145  1.2306
  836MOL0     C15280   9.406   0.708   2.244  0.1144 -0.7996  0.8683
  836MOL0     N15281   8.737   1.020   2.175  0.1924 -0.7506  0.1289
  836MOL0     N15282   8.618   1.056   2.215  1.3011 -0.0694  0.5456
  836MOL0     C15283   7.446   0.633   1.960 -1.9380 -0.8114 -0.6042
  836MOL0     C15284   7.365   0.579   1.860 -0.0699  0.3799 -0.5077
  836MOL0     C15285   7.235   0.470   1.429 -0.6134 -0.1890  0.0220
  836MOL0     C15286   7.294   0.352   1.400 -0.2584 -0.6943 -0.9390
  836MOL0     C15287   7.262   0.287   1.275  0.2367 -0.5030 -0.0509
  836MOL0     C15288   7.167   0.339   1.185  0.2705 -0.2755 -0.0596
  836MOL0     O15289   7.110   0.279   1.077 -0.2744 -0.2534 -0.1107
  836MOL0     C15290   7.128   0.137   1.055  1.2594 -0.5212  0.2805
  836MOL0     C15291   7.016   0.087   0.959 -0.2852 -0.2933 -0.7834
  836MOL0     C15292   7.039   0.143   0.819  0.1071  0.0040  0.7384
  836MOL0     C15293   7.151   0.062   0.748  0.0637  0.1373 -0.7652
  836MOL0     C15294   7.102  -0.045   0.657  1.1983  0.0612  0.6922
  836MOL0     C15295   7.079  -0.135   0.581 -0.2784 -0.1578  0.4775
  836MOL0     C15296   7.109   0.461   1.221 -1.0234  1.3994 -2.1410
  836MOL0     C15297   7.135   0.525   1.344 -1.1290  0.2181  0.3140
  836MOL0     C15298   7.068   0.657   1.363 -0.9201  0.6711  0.0769
  836MOL0     H15299   7.596   0.503   1.636 -1.4638 -1.7547 -0.4069
  836MOL0     H15300   7.747   0.589   1.807 -0.4315 -2.9313 -0.6992
  836MOL0     H15301   7.537   0.838   2.117  1.0200 -1.1845  2.8061
  836MOL0     H15302   7.662   0.896   2.014 -0.8613  0.3069  0.7425
  836MOL0     H15303   7.706   0.951   2.258  0.8310  0.0701 -0.1341
  836MOL0     H15304   7.695   0.784   2.281  0.1707 -0.1514 -1.1184
  836MOL0     H15305   7.924   0.845   2.285  1.4135 -0.2857 -1.1154
  836MOL0     H15306   7.896   0.739   2.139  0.9765 -0.8271  0.3740
  836MOL0     H15307   7.899   0.946   1.989  1.0372 -1.8617 -1.2897
  836MOL0     H15308   7.899   1.045   2.113 -1.6981 -0.3993 -0.8837
  836MOL0     H15309   8.104   0.825   2.025 -0.8385  0.3491  0.1074
  836MOL0     H15310   8.124   0.900   2.183  2.2615  1.6908  0.4900
  836MOL0     H15311   8.162   1.059   1.925  2.4904  0.4314 -0.9446
  836MOL0     H15312   8.177   1.122   2.085 -2.4323  0.2529 -0.5509
  836MOL0     H15313   8.390   1.051   1.999  1.0056 -0.0879  3.2403
  836MOL0     H15314   8.332   0.883   1.986  2.3875  1.1615 -2.5136
  836MOL0     H15315   8.366   1.065   2.238  1.2524  0.1327  0.2289
  836MOL0     H15316   8.347   0.889   2.244 -1.3553 -1.5245 -2.0044
  836MOL0     H15317   8.563   0.790   2.030  2.0712 -0.8366  0.5698
  836MOL0     H15318   8.843   0.867   1.938 -0.4137  1.0900 -0.3277
  836MOL0     H15319   8.840   0.715   2.051  0.1507  0.4902  2.6338
  836MOL0     H15320   9.066   0.834   2.048 -0.9962  1.8881 -2.1122
  836MOL0     H15321   8.979   0.976   2.107 -2.8318 -0.1899  3.7063
  836MOL0     H15322   8.889   0.840   2.302  0.6468  1.9047  0.0128
  836MOL0     H15323   9.014   0.710   2.264  0.5350  0.0976 -1.8975
  836MOL0     H15324   9.075   1.005   2.328 -1.9340 -0.4038  2.2614
  836MOL0     H15325   9.073   0.876   2.439 -2.6375  2.0283 -0.1841
  836MOL0     H15326   9.171   0.690   2.488 -1.7070  3.1360 -2.8380
  836MOL0     H15327   9.174   0.470   2.586  0.4432  0.7368 -0.3430
  836MOL0     H15328   9.327   0.476   2.675  0.8737 -3.7760 -0.0737
  836MOL0     H15329   9.295   0.349   2.550  1.3856  0.2158 -1.8060
  836MOL0     H15330   9.837   0.313   2.507 -1.0765 -0.2161  0.4418
  836MOL0     H15331   9.942   0.078   2.493 -0.2108 -3.3630 -1.2550
  836MOL0     H15332   9.752  -0.199   2.351  0.4453 -0.4089  2.4271
  836MOL0     H15333   9.850  -0.244   2.206 -3.7410  2.1287 -0.9612
  836MOL0     H15334  10.043  -0.294   2.351 -0.1610 -0.7500  0.8689
  836MOL0     H15335   9.936  -0.267   2.496  1.0484  3.5592 -0.4605
  836MOL0     H15336   9.966  -0.511   2.442 -2.9996 -3.3918  0.6462
  836MOL0     H15337   9.958  -0.474   2.276  1.4752 -0.7517  0.8237
  836MOL0     H15338   9.737  -0.580   2.330 -2.0091  0.8984  1.5638
  836MOL0     H15339   9.709  -0.410   2.327  1.6588  3.7551  2.2101
  836MOL0     H15340   9.724  -0.405   2.562  0.4464 -0.8663  1.7747
  836MOL0     H15341   9.619  -0.540   2.537 -1.3938  2.1287  0.1418
  836MOL0     H15342   9.772  -0.590   2.728 -2.1516 -1.3542 -1.1150
  836MOL0     H15343   9.913  -0.568   2.630  0.8391 -2.9205 -0.6359
  836MOL0     H15344   9.888  -0.737   2.492  1.3696 -0.3095  1.9439
  836MOL0     H15345   9.726  -0.773   2.528  2.0579 -0.9198 -2.4079
  836MOL0     H15346   9.852  -0.949   2.635 -3.8472 -0.8608  1.9488
  836MOL0     H15347   9.809  -0.840   2.765 -2.3107  3.0636 -1.1719
  836MOL0     H15348   9.687  -0.010   2.164 -0.1940  0.0345  0.9355
  836MOL0     H15349   9.574   0.205   2.192 -0.4283 -3.6875 -0.4170
  836MOL0     H15350   9.548   0.566   2.204  0.0506 -1.9572  2.6793
  836MOL0     H15351   9.430   0.739   2.143  0.7607 -0.7102  1.0382
  836MOL0     H15352   7.396   0.671   2.049 -0.7180  1.9507 -1.0123
  836MOL0     H15353   7.258   0.587   1.869 -0.3300  0.2649 -2.8934
  836MOL0     H15354   7.372   0.292   1.447 -0.5444 -1.1511 -1.0368
  836MOL0     H15355   7.324   0.200   1.254  1.4667  0.5670 -1.0475
  836MOL0     H15356   7.222   0.115   1.005 -0.1720 -1.3244 -2.2680
  836MOL0     H15357   7.118   0.071   1.142  0.4938 -0.7607  0.0240
  836MOL0     H15358   6.924   0.125   1.003  0.7861 -0.1192  1.4495
  836MOL0     H15359   7.016  -0.021   0.947  1.4434 -0.6903  1.9350
  836MOL0     H15360   6.950   0.126   0.757  1.7777 -2.6709 -1.1388
  836MOL0     H15361   7.068   0.248   0.821 -1.0485  0.3449  0.4704
  836MOL0     H15362   7.225   0.023   0.818  0.9243  2.1861 -0.4754
  836MOL0     H15363   7.198   0.133   0.679 -1.4383  2.2829  0.3026
  836MOL0     H15364   7.063  -0.229   0.531 -0.4638 -0.8072  1.7154
  836MOL0     H15365   7.030   0.509   1.165  0.1286  5.2437 -0.7756
  836MOL0     H15366   7.052   0.679   1.469  1.0360  0.1493  0.5351
  836MOL0     H15367   7.119   0.741   1.316  0.8067  0.2189  1.0509
  836MOL0     H15368   6.968   0.654   1.318 -0.3646 -0.0976 -1.1613
  837MOL0     O15369   7.195   0.019   8.577 -0.1509  0.4188  0.6477
  837MOL0     C15370   7.118   0.045   8.480  0.7094  0.4401 -1.0706
  837MOL0     O15371   7.092   0.166   8.428  0.0727 -0.0050 -0.3191
  837MOL0     C15372   7.186   0.269   8.458 -0.2048 -0.4480 -0.1678
  837MOL0     C15373   7.293   0.280   8.373 -0.7034  0.0455 -0.1670
  837MOL0     C15374   7.394   0.371   8.394  0.9264  0.2806 -0.2794
  837MOL0     C15375   7.381   0.455   8.503 -0.0210  0.4492 -0.1802
  837MOL0     O15376   7.478   0.541   8.522  0.0257 -0.4707  0.3223
  837MOL0     C15377   7.458   0.659   8.606  0.0363  0.7096  0.2336
  837MOL0     C15378   7.600   0.732   8.617 -1.0976  0.0808 -0.2181
  837MOL0     C15379   7.634   0.842   8.509  0.3837 -0.3689  0.5366
  837MOL0     C15380   7.771   0.900   8.531  0.2837  1.3609  0.6727
  837MOL0     C15381   7.861   0.900   8.403 -1.1103 -0.1331 -0.0637
  837MOL0     C15382   8.012   0.951   8.434  0.9412 -0.6319  0.0725
  837MOL0     C15383   8.100   0.941   8.314  0.2461  0.4150  0.1213
  837MOL0     C15384   8.249   0.899   8.351  0.0152  0.2857  0.4104
  837MOL0     N15385   8.329   0.996   8.422 -0.9793 -0.2227 -0.3262
  837MOL0     C15386   8.333   1.130   8.394 -0.4182  0.5815 -0.5513
  837MOL0     C15387   8.384   1.185   8.508 -0.1238  0.1858 -0.1889
  837MOL0     C15388   8.407   1.331   8.530  0.4395  0.1700  0.4897
  837MOL0     C15389   8.540   1.371   8.484  0.3237 -0.5493  0.8382
  837MOL0     C15390   8.656   1.337   8.578  0.9425 -0.5355  0.0690
  837MOL0     C15391   8.792   1.403   8.535 -0.3117 -0.3482 -0.0044
  837MOL0     O15392   8.859   1.333   8.421 -0.4458 -0.4392 -0.6635
  837MOL0     C15393   8.998   1.320   8.435 -0.2965 -0.0705  0.1298
  837MOL0     C15394   9.069   1.206   8.395  0.0972 -0.0379 -0.1966
  837MOL0     C15395   9.212   1.199   8.408  0.4782 -0.0311  0.3833
  837MOL0     C15396   9.275   1.087   8.337 -0.2466 -0.3762  0.3252
  837MOL0     C15397   9.281   1.312   8.469 -0.2828  0.7492  0.6351
  837MOL0     C15398   9.419   1.296   8.517 -1.0631  0.4387  0.7737
  837MOL0     O15399   9.481   1.415   8.548 -1.0403 -0.2150 -0.6379
  837MOL0     C15400   9.605   1.408   8.599 -0.0343 -0.0832 -0.4692
  837MOL0     C15401   9.628   1.428   8.735  0.0329 -0.8568  0.7085
  837MOL0     C15402   9.751   1.445   8.802  0.0034 -0.7956  0.0614
  837MOL0     C15403   9.870   1.439   8.728 -0.5269 -0.7170 -0.4480
  837MOL0     O15404   9.993   1.469   8.773  0.1856 -0.1760  0.3992
  837MOL0     C15405  10.010   1.538   8.901  0.5220 -0.1660  0.5719
  837MOL0     C15406  10.149   1.598   8.916  0.1915  0.2215 -1.1296
  837MOL0     C15407  10.147   1.672   9.046  0.5223  0.3438  0.1399
  837MOL0     C15408  10.268   1.759   9.064 -0.0413 -0.0571 -0.1798
  837MOL0     C15409  10.292   1.818   9.203  0.2603 -0.4948  0.8615
  837MOL0     C15410  10.413   1.926   9.201  0.1512 -0.0836 -0.7482
  837MOL0     C15411  10.461   1.955   9.350 -0.1221 -0.5069  1.3946
  837MOL0     C15412  10.593   2.036   9.356 -0.5007 -0.0098  0.3647
  837MOL0    Cl15413  10.632   2.092   9.515 -0.3894 -0.1506  0.2278
  837MOL0     C15414   9.852   1.401   8.592 -0.5256 -1.3660 -0.2233
  837MOL0     C15415   9.724   1.391   8.521 -0.4282 -0.2610  0.0229
  837MOL0     O15416   9.469   1.187   8.531  0.2495  0.5018  0.1892
  837MOL0     C15417   9.212   1.428   8.510 -0.1369  0.4409 -0.8494
  837MOL0     C15418   9.072   1.424   8.495  0.1074 -0.7064  0.2374
  837MOL0     N15419   8.409   1.086   8.602  0.3868  0.1179  0.4746
  837MOL0     N15420   8.369   0.976   8.555 -0.0141 -0.2760 -0.0586
  837MOL0     C15421   7.259   0.451   8.592 -0.2360 -0.1559  0.1555
  837MOL0     C15422   7.168   0.345   8.567 -0.0277  0.1886 -0.5532
  837MOL0     C15423   7.072  -0.074   8.400 -0.5256 -0.6504  0.3945
  837MOL0     C15424   6.999  -0.043   8.283  0.0467  0.6694 -0.2839
  837MOL0     C15425   6.939  -0.141   8.201  0.1097 -0.1906 -0.2646
  837MOL0     C15426   6.953  -0.277   8.241  0.2127 -0.4574  0.8428
  837MOL0     O15427   6.886  -0.374   8.165  0.8399 -0.6509 -0.3841
  837MOL0     C15428   6.899  -0.517   8.201 -0.5748 -0.0803 -0.9967
  837MOL0     C15429   6.839  -0.600   8.094  0.0818 -0.1489 -0.1129
  837MOL0     C15430   6.917  -0.626   7.970 -0.2258 -0.7029  0.6329
  837MOL0     C15431   6.822  -0.700   7.872 -0.6255 -0.0666  0.5419
  837MOL0     C15432   6.895  -0.754   7.758 -0.1502  0.1965 -0.0733
  837MOL0     C15433   6.947  -0.804   7.670  0.2226 -0.5092  0.4916
  837MOL0     C15434   7.020  -0.306   8.360 -0.6077 -0.2279  0.9297
  837MOL0     C15435   7.090  -0.210   8.437  0.2274  0.2677 -0.6390
  837MOL0     C15436   7.148  -0.256   8.562 -0.0803 -0.3379 -0.9315
  837MOL0     H15437   7.296   0.209   8.290 -1.8593  0.9973 -1.0559
  837MOL0     H15438   7.474   0.370   8.321 -0.2037 -3.4304 -1.6745
  837MOL0     H15439   7.413   0.640   8.704 -1.3956 -2.4205 -0.8993
  837MOL0     H15440   7.391   0.722   8.547 -0.8753  2.0186  2.5519
  837MOL0     H15441   7.598   0.783   8.713 -1.1758  0.1140 -0.2373
  837MOL0     H15442   7.680   0.657   8.616 -1.4729 -0.3430  0.6828
  837MOL0     H15443   7.646   0.793   8.412  0.5669  0.9385 -0.1177
  837MOL0     H15444   7.556   0.918   8.498  2.0004  1.3061  0.1580
  837MOL0     H15445   7.764   1.004   8.565  1.9672  1.2307  1.5222
  837MOL0     H15446   7.821   0.840   8.608  0.0652 -1.8442 -1.5106
  837MOL0     H15447   7.820   0.972   8.332 -1.4515  1.7264  1.9114
  837MOL0     H15448   7.852   0.798   8.363 -1.1191  0.3072 -1.2039
  837MOL0     H15449   8.011   1.054   8.469 -0.6759  0.0055 -1.6652
  837MOL0     H15450   8.045   0.889   8.518  1.4305 -0.0903  0.2835
  837MOL0     H15451   8.110   1.034   8.258  3.3460 -0.3648 -0.7783
  837MOL0     H15452   8.061   0.861   8.250 -0.9125  1.3014 -0.3207
  837MOL0     H15453   8.233   0.811   8.414  0.5295  1.1383  1.7742
  837MOL0     H15454   8.308   0.877   8.262  0.7421  0.1196  0.9266
  837MOL0     H15455   8.292   1.186   8.311 -2.2907 -1.0220 -0.7860
  837MOL0     H15456   8.392   1.340   8.638 -0.2561 -0.9453  0.4979
  837MOL0     H15457   8.319   1.378   8.485 -0.9527 -3.3047 -0.7846
  837MOL0     H15458   8.565   1.321   8.390 -1.6317 -1.7657  0.8963
  837MOL0     H15459   8.550   1.479   8.468  2.3589 -0.7452  0.5249
  837MOL0     H15460   8.640   1.371   8.681  0.4841 -0.9283  0.1324
  837MOL0     H15461   8.666   1.229   8.584  0.3689 -0.6562 -0.9773
  837MOL0     H15462   8.773   1.506   8.506  0.4847 -0.6922 -1.9300
  837MOL0     H15463   8.854   1.405   8.625  1.7145  0.2896 -1.3445
  837MOL0     H15464   9.015   1.130   8.339  1.6894  0.7621 -2.9623
  837MOL0     H15465   9.362   1.132   8.287  0.2203  1.9295  2.9566
  837MOL0     H15466   9.213   1.039   8.260  0.6773  1.0700 -1.4100
  837MOL0     H15467   9.318   1.017   8.410 -0.3855  1.2316  2.0084
  837MOL0     H15468   9.543   1.446   8.801  0.0176  1.5510  0.1164
  837MOL0     H15469   9.767   1.474   8.905 -0.2183  0.4299 -0.2352
  837MOL0     H15470   9.940   1.622   8.896  1.4720  0.5962 -0.2475
  837MOL0     H15471   9.998   1.477   8.991  0.9262  1.4544  1.7731
  837MOL0     H15472  10.219   1.513   8.921 -1.4192 -1.2355 -2.4388
  837MOL0     H15473  10.170   1.662   8.831  1.5256  1.0899 -0.1981
  837MOL0     H15474  10.146   1.603   9.131  2.4155 -1.0334 -0.8802
  837MOL0     H15475  10.063   1.740   9.032  2.0515  1.7754 -3.0620
  837MOL0     H15476  10.242   1.841   8.997 -1.7174 -1.5411 -1.4603
  837MOL0     H15477  10.358   1.704   9.034  0.0458 -0.7337  1.2222
  837MOL0     H15478  10.202   1.857   9.251  0.7737 -0.4822  1.8504
  837MOL0     H15479  10.322   1.729   9.260 -4.2835 -1.4484  2.2118
  837MOL0     H15480  10.380   2.021   9.158 -0.1018 -0.1201 -0.6333
  837MOL0     H15481  10.498   1.890   9.142  2.7219  0.7309  2.1471
  837MOL0     H15482  10.485   1.858   9.395  1.3944 -2.0512 -2.3360
  837MOL0     H15483  10.385   2.015   9.401  0.1290  0.1530  0.9983
  837MOL0     H15484  10.578   2.131   9.304  1.1080 -0.2345 -0.5947
  837MOL0     H15485  10.676   1.975   9.319  0.9597  1.9200  0.3222
  837MOL0     H15486   9.949   1.392   8.543  0.6016 -0.6680  1.7324
  837MOL0     H15487   9.703   1.389   8.414 -0.1279  2.0797 -0.1172
  837MOL0     H15488   9.266   1.510   8.556  0.4720 -0.2630 -0.2885
  837MOL0     H15489   9.023   1.512   8.536 -0.6048 -1.8365  1.9162
  837MOL0     H15490   7.250   0.515   8.679 -0.3211 -0.6347  0.5005
  837MOL0     H15491   7.082   0.338   8.632 -0.8279 -0.6320 -1.6636
  837MOL0     H15492   6.978   0.058   8.248  0.9260  0.2649 -2.1309
  837MOL0     H15493   6.895  -0.119   8.104 -2.0811 -1.7022  0.3081
  837MOL0     H15494   7.002  -0.549   8.222 -1.6164 -2.7117  0.5590
  837MOL0     H15495   6.847  -0.534   8.296  1.2354 -0.6405 -0.0302
  837MOL0     H15496   6.746  -0.549   8.069 -0.7194 -0.4484  2.0363
  837MOL0     H15497   6.803  -0.694   8.138 -4.4582 -0.1095 -3.0769
  837MOL0     H15498   6.945  -0.537   7.913  0.9553 -2.7897 -2.3004
  837MOL0     H15499   7.004  -0.686   7.999  0.4861  0.2234  0.4634
  837MOL0     H15500   6.742  -0.634   7.836  0.3968  1.5150  1.0400
  837MOL0     H15501   6.775  -0.782   7.927  1.4603 -2.6100 -1.2181
  837MOL0     H15502   7.012  -0.839   7.592  0.7690  4.1820 -1.5115
  837MOL0     H15503   7.013  -0.409   8.393  1.5421 -1.5635 -2.2454
  837MOL0     H15504   7.130  -0.363   8.577  1.5319 -0.6122 -0.8518
  837MOL0     H15505   7.256  -0.256   8.545 -0.0245 -3.7340 -1.2864
  837MOL0     H15506   7.115  -0.191   8.643  1.5550  0.6647 -1.0344
  838MOL0     O15507   3.954   0.932   5.234  0.5689 -0.2112  0.1019
  838MOL0     C15508   3.872   0.976   5.152  1.1746  0.2503  0.2295
  838MOL0     O15509   3.883   0.959   5.020  0.4878  0.0641  1.0167
  838MOL0     C15510   4.005   0.989   4.959 -0.2684 -0.2794  0.3193
  838MOL0     C15511   4.061   0.912   4.855 -0.5297 -0.6052  0.3446
  838MOL0     C15512   4.168   0.970   4.784 -0.9105 -0.6610  0.5679
  838MOL0     C15513   4.232   1.088   4.838  0.0106  0.4046  0.4071
  838MOL0     O15514   4.338   1.148   4.768  0.1740 -0.3619  0.1186
  838MOL0     C15515   4.314   1.177   4.629 -0.3062 -0.5413  0.5209
  838MOL0     C15516   4.291   1.324   4.611  0.3003  0.2961  0.0606
  838MOL0     C15517   4.377   1.420   4.690 -0.7521  0.0660  0.6710
  838MOL0     C15518   4.525   1.406   4.664 -0.4633  0.4947  0.0657
  838MOL0     C15519   4.611   1.546   4.687 -0.5377 -0.1514 -0.3802
  838MOL0     C15520   4.587   1.599   4.828  0.5789  0.2263  0.1355
  838MOL0     C15521   4.656   1.730   4.848 -0.6702  0.5808  0.5454
  838MOL0     C15522   4.808   1.734   4.828 -0.5670  0.0396  0.1716
  838MOL0     N15523   4.865   1.866   4.835  0.9178  0.0241 -0.6415
  838MOL0     C15524   4.935   1.918   4.947  0.3143  0.2644  0.0363
  838MOL0     C15525   4.979   2.045   4.911  0.2962  1.3203  0.5915
  838MOL0     C15526   5.053   2.131   5.005 -0.0604 -0.1069 -1.0175
  838MOL0     C15527   5.192   2.080   5.034  1.3034  0.7557 -0.5534
  838MOL0     C15528   5.286   2.072   4.914  0.1295  0.5706 -0.2389
  838MOL0     C15529   5.421   2.034   4.963 -0.3524 -0.4099  0.4581
  838MOL0     O15530   5.482   1.966   4.855  0.0451  0.7207 -0.3363
  838MOL0     C15531   5.588   2.031   4.796 -0.1774 -0.9675 -0.9566
  838MOL0     C15532   5.596   2.053   4.657  0.4170 -0.2450 -0.2839
  838MOL0     C15533   5.717   2.120   4.599  0.2859  0.5922 -0.7079
  838MOL0     C15534   5.718   2.128   4.453 -0.2052 -0.4291 -0.0751
  838MOL0     C15535   5.815   2.169   4.692  0.7086  0.3078 -0.0363
  838MOL0     C15536   5.941   2.236   4.648  0.4128  0.0815 -0.2193
  838MOL0     O15537   6.000   2.323   4.737  0.1667  0.0459  0.8342
  838MOL0     C15538   6.111   2.389   4.695  0.2158 -0.9088 -0.1974
  838MOL0     C15539   6.112   2.463   4.572  0.1421  0.3521  0.2212
  838MOL0     C15540   6.238   2.515   4.532 -0.5062  0.0172 -0.4449
  838MOL0     C15541   6.355   2.488   4.601  0.7949  1.4552  0.4470
  838MOL0     O15542   6.467   2.546   4.545 -0.0837  0.4716  0.6902
  838MOL0     C15543   6.588   2.550   4.629 -0.4070 -0.0628 -0.2566
  838MOL0     C15544   6.694   2.632   4.550 -0.3121  0.1677 -0.2196
  838MOL0     C15545   6.839   2.632   4.609  0.1222 -0.9830  0.0870
  838MOL0     C15546   6.844   2.688   4.759  0.1249 -0.8602 -0.8583
  838MOL0     C15547   6.986   2.734   4.799  0.2617  0.2978 -0.9283
  838MOL0     C15548   7.083   2.628   4.802 -0.3664  0.0488  0.5791
  838MOL0     C15549   7.212   2.667   4.871  0.8303  0.0466 -0.7984
  838MOL0     C15550   7.307   2.552   4.903  0.4417 -0.2833 -0.1608
  838MOL0    Cl15551   7.391   2.504   4.745  0.4152 -0.3660  0.5309
  838MOL0     C15552   6.349   2.404   4.709  0.0409  0.0920 -0.1216
  838MOL0     C15553   6.231   2.361   4.760  0.0864  0.7715 -0.8023
  838MOL0     O15554   5.982   2.195   4.537 -0.4475 -0.1071 -0.7905
  838MOL0     C15555   5.792   2.163   4.821  0.0992  0.3768 -0.3854
  838MOL0     C15556   5.681   2.086   4.878  0.5260  0.2689 -0.8001
  838MOL0     N15557   4.955   2.063   4.778 -0.2454 -0.2982  0.5840
  838MOL0     N15558   4.895   1.952   4.735  0.8057  1.7068 -0.0212
  838MOL0     C15559   4.176   1.158   4.937  0.7815  0.1390 -0.2923
  838MOL0     C15560   4.060   1.110   5.005 -0.6378  0.3072 -0.0297
  838MOL0     C15561   3.755   1.060   5.195 -0.1070 -0.4641 -0.5957
  838MOL0     C15562   3.671   1.102   5.090  0.9000 -0.4461  0.0922
  838MOL0     C15563   3.550   1.172   5.112 -0.2264 -0.4667  0.0382
  838MOL0     C15564   3.518   1.204   5.244 -0.2967 -1.3351  0.0576
  838MOL0     O15565   3.403   1.281   5.264 -0.0736 -0.2847 -0.9313
  838MOL0     C15566   3.318   1.220   5.360  0.0368 -0.1473  0.1643
  838MOL0     C15567   3.169   1.247   5.321  0.8467  0.1424  0.3818
  838MOL0     C15568   3.121   1.170   5.194 -0.3964  0.0834 -0.4579
  838MOL0     C15569   2.974   1.194   5.161 -0.3454  0.0640 -0.7109
  838MOL0     C15570   2.950   1.305   5.074 -0.1167 -0.5153  0.6747
  838MOL0     C15571   2.928   1.394   4.993  0.4776 -0.5401 -0.1683
  838MOL0     C15572   3.597   1.172   5.352  0.0896  0.6627 -0.3791
  838MOL0     C15573   3.712   1.091   5.328 -0.5357  0.0850 -0.4636
  838MOL0     C15574   3.782   1.044   5.446  0.5322  0.0065 -0.6226
  838MOL0     H15575   4.019   0.818   4.820  0.0583 -1.1259  1.0048
  838MOL0     H15576   4.214   0.934   4.693 -2.7747  0.0266 -0.7171
  838MOL0     H15577   4.229   1.118   4.595 -1.4167  0.2775  1.7745
  838MOL0     H15578   4.401   1.147   4.569 -2.7134 -1.0222 -3.0090
  838MOL0     H15579   4.305   1.348   4.505 -2.1294 -2.1386 -0.9373
  838MOL0     H15580   4.186   1.353   4.622  0.4993  1.9133 -1.7479
  838MOL0     H15581   4.344   1.522   4.667  1.3042  1.0401  1.8003
  838MOL0     H15582   4.361   1.417   4.798  1.3966  1.8176  1.0980
  838MOL0     H15583   4.568   1.324   4.722  2.2226  0.9963 -1.0799
  838MOL0     H15584   4.532   1.382   4.558 -1.2267 -1.1258  0.3585
  838MOL0     H15585   4.565   1.613   4.614  0.1054 -1.0372 -1.6294
  838MOL0     H15586   4.718   1.534   4.667 -0.4111 -0.2889  0.3520
  838MOL0     H15587   4.481   1.604   4.852  1.0673 -1.5217  3.2491
  838MOL0     H15588   4.629   1.531   4.903  0.9395  0.5562  0.2405
  838MOL0     H15589   4.621   1.774   4.942  0.0549  2.7478 -0.1394
  838MOL0     H15590   4.621   1.803   4.774  0.8420  1.4086  0.6004
  838MOL0     H15591   4.862   1.673   4.901  0.4857  1.0867  0.3033
  838MOL0     H15592   4.830   1.691   4.730 -2.1161 -1.8489  0.6063
  838MOL0     H15593   4.937   1.863   5.040  4.2791  0.5478  0.3006
  838MOL0     H15594   4.995   2.135   5.097  0.6970 -3.8898 -0.2373
  838MOL0     H15595   5.072   2.226   4.954  2.2772  0.3838  0.6280
  838MOL0     H15596   5.245   2.143   5.105 -0.5516  1.2582  0.4698
  838MOL0     H15597   5.173   1.985   5.084 -0.4420  0.7690 -1.1235
  838MOL0     H15598   5.246   1.997   4.846 -1.3252  2.4040 -1.5107
  838MOL0     H15599   5.296   2.169   4.865  2.5475  0.6308  0.2277
  838MOL0     H15600   5.485   2.117   4.994  1.4508 -1.2181 -0.9522
  838MOL0     H15601   5.414   1.960   5.043 -0.3019  0.0890  0.9363
  838MOL0     H15602   5.519   2.001   4.601  1.6279 -0.2858 -1.9613
  838MOL0     H15603   5.620   2.097   4.415 -0.6478 -2.0910  2.2342
  838MOL0     H15604   5.792   2.057   4.415  1.2474 -0.4681  2.6071
  838MOL0     H15605   5.743   2.230   4.421 -1.7584 -0.9646 -3.4761
  838MOL0     H15606   6.026   2.477   4.508  0.5034  0.6165 -0.2139
  838MOL0     H15607   6.244   2.563   4.435  1.3346  1.3578  0.2766
  838MOL0     H15608   6.576   2.588   4.731  0.5427 -0.4509  0.0100
  838MOL0     H15609   6.615   2.446   4.652 -2.9383 -0.1496  3.1091
  838MOL0     H15610   6.704   2.598   4.446 -2.0119  0.9897 -0.6836
  838MOL0     H15611   6.658   2.735   4.544 -0.4810  0.1942  0.9759
  838MOL0     H15612   6.913   2.680   4.545  0.4700  0.8154  1.7391
  838MOL0     H15613   6.856   2.525   4.622 -0.2398 -0.7765  2.8573
  838MOL0     H15614   6.803   2.615   4.830 -1.4167  0.6167 -0.1402
  838MOL0     H15615   6.772   2.771   4.758 -0.5215 -1.4151 -1.4161
  838MOL0     H15616   7.021   2.807   4.726  3.6361 -2.4161 -2.3196
  838MOL0     H15617   6.972   2.776   4.899 -0.0267 -0.2246 -0.7451
  838MOL0     H15618   7.101   2.604   4.697 -1.7171 -1.3659  0.6449
  838MOL0     H15619   7.053   2.536   4.852  0.2501 -1.5752 -1.8873
  838MOL0     H15620   7.190   2.710   4.969  0.1150  3.7656 -2.4137
  838MOL0     H15621   7.264   2.741   4.810  0.6294  1.7186  0.9398
  838MOL0     H15622   7.238   2.476   4.940  1.0883 -1.0251 -0.4392
  838MOL0     H15623   7.377   2.583   4.981 -0.5115 -1.3083  1.1417
  838MOL0     H15624   6.447   2.370   4.741  0.4708  2.9531  1.9648
  838MOL0     H15625   6.227   2.291   4.843 -0.9631  0.5543 -1.0272
  838MOL0     H15626   5.856   2.211   4.895  1.6792  0.3466 -1.6859
  838MOL0     H15627   5.680   2.084   4.986 -3.0174  1.9750 -0.6695
  838MOL0     H15628   4.225   1.248   4.974 -0.5386  1.6498 -2.0526
  838MOL0     H15629   4.031   1.163   5.095  1.1060  1.4609 -0.1000
  838MOL0     H15630   3.703   1.075   4.990  2.3168 -1.9808  0.9140
  838MOL0     H15631   3.488   1.200   5.027  1.5496 -2.2678 -1.9425
  838MOL0     H15632   3.334   1.114   5.382 -2.9247 -0.4995  1.1319
  838MOL0     H15633   3.332   1.265   5.459 -3.7053 -2.3963  1.9505
  838MOL0     H15634   3.160   1.354   5.301  0.9803  0.4142  1.6380
  838MOL0     H15635   3.089   1.214   5.389  0.8400 -1.1591 -0.2404
  838MOL0     H15636   3.189   1.189   5.110 -2.6859 -2.4360 -3.1123
  838MOL0     H15637   3.126   1.062   5.212  0.1877 -0.2382 -2.2783
  838MOL0     H15638   2.912   1.198   5.252 -0.5989  2.1395 -0.9281
  838MOL0     H15639   2.935   1.115   5.096  0.5812  0.9136 -2.3593
  838MOL0     H15640   2.903   1.476   4.928 -1.1467 -0.4754  0.4917
  838MOL0     H15641   3.568   1.218   5.446 -2.9662 -1.2383 -0.2625
  838MOL0     H15642   3.791   0.935   5.441 -0.7269 -0.1384 -0.0125
  838MOL0     H15643   3.879   1.093   5.453 -0.0594  0.9390  2.2181
  838MOL0     H15644   3.715   1.066   5.529  0.2361 -1.0693 -0.5609
  839MOL0     O15645  11.433   1.601   8.966 -0.0321 -0.4384 -0.3115
  839MOL0     C15646  11.467   1.511   8.888  0.0987 -0.9687 -0.6567
  839MOL0     O15647  11.492   1.527   8.758  0.4038 -0.5940 -0.5089
  839MOL0     C15648  11.451   1.629   8.684  0.5595  0.2858  0.7395
  839MOL0     C15649  11.346   1.720   8.715 -0.0870  0.3631 -0.0731
  839MOL0     C15650  11.308   1.808   8.618  1.0013 -0.4676 -0.3299
  839MOL0     C15651  11.367   1.821   8.494 -1.2922 -0.3851 -0.2109
  839MOL0     O15652  11.331   1.917   8.401  0.0709 -0.3479  0.0190
  839MOL0     C15653  11.315   1.857   8.270 -0.0603 -0.4937  0.8469
  839MOL0     C15654  11.241   1.954   8.173 -0.1147  0.5795  0.2306
  839MOL0     C15655  11.315   2.085   8.139 -0.5367  0.5952 -0.1162
  839MOL0     C15656  11.389   2.074   8.003  0.3129  0.6975 -0.4668
  839MOL0     C15657  11.415   2.206   7.930 -0.1977  0.5539  0.2870
  839MOL0     C15658  11.470   2.172   7.783 -0.5594  0.5000  0.7216
  839MOL0     C15659  11.629   2.146   7.788  0.3440 -0.4838  0.3144
  839MOL0     C15660  11.675   2.154   7.646  0.2439  0.3317  0.3567
  839MOL0     N15661  11.825   2.139   7.640 -0.1728  0.3262  0.2402
  839MOL0     C15662  11.916   2.106   7.736 -0.5727 -0.4929  0.7345
  839MOL0     C15663  12.036   2.101   7.672 -0.4997 -0.2803 -0.7869
  839MOL0     C15664  12.159   2.043   7.731 -0.7179 -0.4643 -0.2866
  839MOL0     C15665  12.254   2.148   7.802  0.0788 -0.4435  0.0470
  839MOL0     C15666  12.402   2.121   7.774  0.2510 -0.0576  0.0768
  839MOL0     C15667  12.458   1.985   7.813  0.2351 -0.6430 -0.3032
  839MOL0     O15668  12.457   1.948   7.957  0.1082  0.1421  0.2803
  839MOL0     C15669  12.525   1.838   8.007  1.1616  0.7593 -0.6535
  839MOL0     C15670  12.498   1.801   8.144 -0.8561 -0.0382  0.2848
  839MOL0     C15671  12.555   1.687   8.198 -0.6145  0.4306  0.2633
  839MOL0     C15672  12.511   1.651   8.333 -0.2960  1.2220 -0.0577
  839MOL0     C15673  12.656   1.612   8.129 -0.4832 -0.6486  0.6420
  839MOL0     C15674  12.747   1.503   8.183  0.4224  0.7341  0.3133
  839MOL0     O15675  12.863   1.486   8.105  0.3609  1.0037 -0.0172
  839MOL0     C15676  12.940   1.378   8.138 -0.5641  0.3258 -0.7308
  839MOL0     C15677  12.925   1.248   8.072  0.8214  0.3792 -0.1500
  839MOL0     C15678  13.007   1.142   8.093  0.8964  0.6832 -0.4704
  839MOL0     C15679  13.115   1.150   8.178 -0.7313  0.4554 -0.4120
  839MOL0     O15680  13.218   1.055   8.200 -0.3227 -0.2128  0.0564
  839MOL0     C15681  13.238   0.958   8.103 -0.6078 -0.1669 -0.1490
  839MOL0     C15682  13.147   0.833   8.127  0.8563  0.0142  0.2384
  839MOL0     C15683  13.173   0.726   8.026 -0.5508 -0.1022 -0.4674
  839MOL0     C15684  13.117   0.770   7.883  0.3891 -0.3404 -0.2738
  839MOL0     C15685  13.154   0.662   7.776 -0.0910  0.3170  0.4803
  839MOL0     C15686  13.306   0.624   7.754  0.1483 -0.0149 -0.0609
  839MOL0     C15687  13.387   0.741   7.695  0.9129 -0.5310 -0.6527
  839MOL0     C15688  13.539   0.722   7.694 -0.5548  0.5807 -0.3882
  839MOL0    Cl15689  13.568   0.548   7.650  0.1509 -0.3253 -0.3677
  839MOL0     C15690  13.129   1.270   8.241 -0.0127  1.0118  0.8383
  839MOL0     C15691  13.049   1.392   8.220  0.7377 -0.0025 -1.1193
  839MOL0     O15692  12.716   1.421   8.271  0.4083 -0.0895 -0.3882
  839MOL0     C15693  12.678   1.654   7.998 -0.2970  0.5428  0.3435
  839MOL0     C15694  12.611   1.757   7.939  0.2291 -0.2026 -0.4839
  839MOL0     N15695  12.018   2.138   7.533 -0.6606  0.5835  0.1521
  839MOL0     N15696  11.892   2.160   7.524  0.3800  0.4231  0.3697
  839MOL0     C15697  11.459   1.717   8.462  0.2925 -0.1684 -0.3560
  839MOL0     C15698  11.504   1.625   8.556 -0.4219  0.5390 -0.8143
  839MOL0     C15699  11.486   1.375   8.942  0.3850 -0.5511  0.1065
  839MOL0     C15700  11.543   1.282   8.858  0.1913 -0.4547  0.2258
  839MOL0     C15701  11.554   1.147   8.888  0.3308 -0.9186 -0.2428
  839MOL0     C15702  11.523   1.098   9.013  0.5461  0.0813 -0.2266
  839MOL0     O15703  11.509   0.965   9.027 -0.5660 -0.0145 -0.2737
  839MOL0     C15704  11.401   0.897   8.959 -0.3670 -0.7854 -0.0411
  839MOL0     C15705  11.408   0.754   8.998 -0.3083  0.5515 -0.8210
  839MOL0     C15706  11.319   0.675   8.902  0.5867 -0.5415 -0.3534
  839MOL0     C15707  11.332   0.517   8.925 -0.2465  1.0033  0.4559
  839MOL0     C15708  11.215   0.437   8.884  0.2083 -0.0419  0.5432
  839MOL0     C15709  11.112   0.372   8.850  0.1659  0.5239  0.7225
  839MOL0     C15710  11.480   1.193   9.106  0.3904 -0.2941  0.8762
  839MOL0     C15711  11.460   1.327   9.076 -0.2899  1.2012  0.0096
  839MOL0     C15712  11.402   1.417   9.180 -0.6163 -0.3061 -0.0189
  839MOL0     H15713  11.285   1.713   8.805 -0.2885 -2.7690 -0.3406
  839MOL0     H15714  11.238   1.882   8.654  1.0405 -1.0088  0.9005
  839MOL0     H15715  11.246   1.771   8.271 -2.1647  1.0731 -0.3511
  839MOL0     H15716  11.408   1.816   8.230  1.6065  3.1343  0.6768
  839MOL0     H15717  11.213   1.895   8.085 -0.8049 -1.5498  1.8110
  839MOL0     H15718  11.140   1.977   8.208 -1.3794  0.6816 -3.1296
  839MOL0     H15719  11.238   2.161   8.123 -1.1762 -0.6382 -3.9615
  839MOL0     H15720  11.378   2.092   8.227 -2.7376  2.6947  1.4369
  839MOL0     H15721  11.491   2.041   8.024  1.0284  2.5545 -0.7746
  839MOL0     H15722  11.343   1.999   7.939  2.7613 -2.1485  0.8580
  839MOL0     H15723  11.493   2.261   7.984  0.8831 -1.0051  0.3707
  839MOL0     H15724  11.335   2.280   7.921  2.0107  3.0935  0.5023
  839MOL0     H15725  11.422   2.092   7.727  0.9885  0.3849 -0.5136
  839MOL0     H15726  11.454   2.264   7.726 -0.4851  0.0143 -0.0975
  839MOL0     H15727  11.640   2.044   7.826 -0.3406 -0.7458 -0.1442
  839MOL0     H15728  11.678   2.220   7.851 -1.6702  1.7176 -0.5304
  839MOL0     H15729  11.629   2.068   7.596 -0.6275 -1.0057  3.2439
  839MOL0     H15730  11.648   2.247   7.597 -0.9623  0.6621  1.6010
  839MOL0     H15731  11.898   2.077   7.839  0.5098  0.3099  1.1799
  839MOL0     H15732  12.215   2.008   7.643  1.4394  2.8188 -0.3685
  839MOL0     H15733  12.139   1.966   7.806  0.4192  0.5454  1.1023
  839MOL0     H15734  12.228   2.244   7.757  1.6633 -0.1052 -0.2022
  839MOL0     H15735  12.228   2.161   7.907  2.4723  1.0750  0.5356
  839MOL0     H15736  12.422   2.151   7.671  0.2092 -0.5520 -0.0776
  839MOL0     H15737  12.446   2.185   7.851 -2.9499 -0.4294  2.4343
  839MOL0     H15738  12.394   1.910   7.766  0.2361 -0.1262 -1.1528
  839MOL0     H15739  12.559   1.992   7.772 -0.2959  1.8170 -1.3883
  839MOL0     H15740  12.427   1.864   8.197  0.3594  1.7422 -0.0827
  839MOL0     H15741  12.495   1.543   8.335  0.2470  1.1240 -0.8112
  839MOL0     H15742  12.416   1.700   8.355  1.1446  4.1916  0.0519
  839MOL0     H15743  12.585   1.669   8.411 -0.9729 -2.2948  1.5975
  839MOL0     H15744  12.849   1.234   7.996  2.4244 -0.8386 -1.5997
  839MOL0     H15745  12.980   1.055   8.033 -3.1194 -1.3277  3.6794
  839MOL0     H15746  13.230   1.009   8.007 -1.3225  1.0344  0.5223
  839MOL0     H15747  13.339   0.917   8.109 -1.4478 -2.2236  1.5765
  839MOL0     H15748  13.170   0.795   8.226 -1.5377  0.2875  0.9643
  839MOL0     H15749  13.041   0.853   8.108  1.3032  1.1468 -1.3393
  839MOL0     H15750  13.117   0.639   8.061 -0.4215 -0.3250 -0.8149
  839MOL0     H15751  13.278   0.701   8.011 -0.1765 -0.0405  1.7168
  839MOL0     H15752  13.152   0.867   7.846  1.4565  0.0424  1.5957
  839MOL0     H15753  13.009   0.762   7.871  0.4834  0.9147 -2.2832
  839MOL0     H15754  13.099   0.570   7.797  0.2732 -0.3682 -1.3579
  839MOL0     H15755  13.113   0.703   7.682  2.1220 -0.6901 -1.0117
  839MOL0     H15756  13.320   0.541   7.684  1.8291  0.3624 -0.2146
  839MOL0     H15757  13.343   0.578   7.846 -0.5660 -0.7603 -0.1362
  839MOL0     H15758  13.365   0.825   7.762  0.8926 -0.4104 -0.8105
  839MOL0     H15759  13.344   0.771   7.599 -2.9165 -1.0248  0.7381
  839MOL0     H15760  13.580   0.739   7.794  0.2320 -2.0272 -0.1861
  839MOL0     H15761  13.595   0.787   7.627  0.9498 -1.5946 -1.3566
  839MOL0     H15762  13.223   1.280   8.295  0.5388  1.5102 -0.1896
  839MOL0     H15763  13.067   1.488   8.267  0.6821 -0.9811  1.0122
  839MOL0     H15764  12.744   1.598   7.933  1.6537  2.1440  0.8550
  839MOL0     H15765  12.610   1.775   7.832  0.0265 -1.8774 -0.7991
  839MOL0     H15766  11.518   1.715   8.371  1.8350 -0.8366  0.6335
  839MOL0     H15767  11.583   1.553   8.535  3.4218  4.0870  0.2550
  839MOL0     H15768  11.578   1.308   8.759 -1.1152  1.5260  0.2350
  839MOL0     H15769  11.588   1.080   8.810  1.8625  1.4008 -1.6816
  839MOL0     H15770  11.303   0.938   8.988  1.4719  1.7192  3.3468
  839MOL0     H15771  11.410   0.903   8.851  1.4374 -0.3184  0.1111
  839MOL0     H15772  11.378   0.757   9.103  0.1794 -1.3403 -0.5863
  839MOL0     H15773  11.507   0.707   8.996 -0.9802 -1.0527 -4.2071
  839MOL0     H15774  11.215   0.704   8.921  0.7274 -1.4906  2.1614
  839MOL0     H15775  11.343   0.706   8.800 -1.2352  4.5119  0.4559
  839MOL0     H15776  11.364   0.511   9.029  2.7029  0.1534 -0.4128
  839MOL0     H15777  11.415   0.480   8.864 -0.0808 -0.1113  1.3365
  839MOL0     H15778  11.017   0.322   8.846 -0.6218  2.0547 -1.0595
  839MOL0     H15779  11.451   1.159   9.204 -0.3903 -1.2097  0.3496
  839MOL0     H15780  11.340   1.365   9.254  0.0611  0.9277  1.4674
  839MOL0     H15781  11.481   1.476   9.227 -0.2737  0.0099 -0.9783
  839MOL0     H15782  11.328   1.480   9.131 -0.8468  0.5667  1.3908
  840MOL0     O15783   7.807   4.505   5.765 -0.2234 -0.7725 -0.6674
  840MOL0     C15784   7.686   4.517   5.796 -0.8370 -0.1958  0.0050
  840MOL0     O15785   7.613   4.626   5.826 -0.9431  0.2512 -0.4762
  840MOL0     C15786   7.678   4.747   5.848  0.1718  0.2605 -0.5116
  840MOL0     C15787   7.624   4.864   5.789 -0.2301  0.7611 -0.7529
  840MOL0     C15788   7.700   4.982   5.790 -0.5241 -0.4076 -0.1150
  840MOL0     C15789   7.822   4.997   5.867 -0.7838  0.0651 -0.8407
  840MOL0     O15790   7.878   5.118   5.882  0.3374 -0.3142  1.4775
  840MOL0     C15791   7.894   5.174   6.008 -0.0911 -0.3367 -1.0733
  840MOL0     C15792   7.918   5.326   5.995 -0.2263  0.3585  0.0497
  840MOL0     C15793   7.923   5.398   6.128 -1.0670 -0.5104 -0.1901
  840MOL0     C15794   7.954   5.551   6.111 -0.5563  0.0039  0.0080
  840MOL0     C15795   8.111   5.577   6.104  0.5472  0.1465  0.1236
  840MOL0     C15796   8.172   5.570   6.247  0.3640  0.9319  0.2009
  840MOL0     C15797   8.313   5.620   6.270 -0.6175  0.6574 -0.1200
  840MOL0     C15798   8.424   5.527   6.209 -0.4511  0.3208 -0.0080
  840MOL0     N15799   8.410   5.395   6.253  0.2277 -0.2637 -0.1689
  840MOL0     C15800   8.341   5.300   6.193  0.1894  0.4827 -0.7191
  840MOL0     C15801   8.348   5.191   6.269 -0.3798 -0.0566 -0.6058
  840MOL0     C15802   8.279   5.053   6.266  0.4230 -0.1717 -0.6453
  840MOL0     C15803   8.234   4.989   6.398  0.3312  1.0177  1.0090
  840MOL0     C15804   8.158   4.857   6.357  0.5373 -1.1099  0.2485
  840MOL0     C15805   8.097   4.801   6.494  0.1759 -0.6838 -0.1394
  840MOL0     O15806   8.191   4.734   6.582 -0.6246 -0.0766 -0.3357
  840MOL0     C15807   8.301   4.684   6.529 -0.9160  0.2762  0.9596
  840MOL0     C15808   8.292   4.568   6.449  0.2431  0.6363  0.0337
  840MOL0     C15809   8.405   4.509   6.390 -0.2946 -0.8249 -0.2682
  840MOL0     C15810   8.375   4.398   6.287  0.2447  1.1348  0.2726
  840MOL0     C15811   8.532   4.562   6.424  0.2355 -0.5395  1.4718
  840MOL0     C15812   8.656   4.497   6.381  0.0416  0.5201 -0.6047
  840MOL0     O15813   8.761   4.582   6.363 -0.5161 -0.4587  0.0961
  840MOL0     C15814   8.879   4.525   6.340  0.6415 -0.9436 -1.0090
  840MOL0     C15815   8.975   4.512   6.442  0.3021  0.4334 -0.0947
  840MOL0     C15816   9.106   4.475   6.412 -0.1423  0.3224 -0.5043
  840MOL0     C15817   9.141   4.442   6.279  0.0515 -0.0763 -0.4251
  840MOL0     O15818   9.277   4.428   6.245 -0.0884  0.0124 -0.1583
  840MOL0     C15819   9.357   4.343   6.332 -0.3013 -0.6534 -0.3247
  840MOL0     C15820   9.494   4.370   6.273  0.4583  0.0431 -0.7094
  840MOL0     C15821   9.585   4.244   6.290 -0.7890  0.6837  0.2509
  840MOL0     C15822   9.717   4.264   6.197  0.0890  0.0725 -0.4303
  840MOL0     C15823   9.685   4.252   6.044 -0.0848  1.1441  0.3495
  840MOL0     C15824   9.816   4.259   5.962  0.0424 -0.2413  0.0672
  840MOL0     C15825   9.785   4.214   5.820 -0.1086  0.9700 -0.5642
  840MOL0     C15826   9.909   4.205   5.729  0.0544 -0.0703  0.7381
  840MOL0    Cl15827   9.983   4.379   5.718 -0.0504 -0.2471 -0.6784
  840MOL0     C15828   9.045   4.450   6.183  0.6023  0.1223  0.0879
  840MOL0     C15829   8.917   4.495   6.210  0.4288  0.0447  0.5057
  840MOL0     O15830   8.659   4.373   6.372 -0.3133  0.3848 -0.1229
  840MOL0     C15831   8.538   4.675   6.498  0.7247  0.2159 -0.1350
  840MOL0     C15832   8.426   4.735   6.566  0.0497  0.0463  0.1721
  840MOL0     N15833   8.429   5.227   6.382  0.6201 -0.1600 -0.0469
  840MOL0     N15834   8.459   5.353   6.373 -0.7631 -0.2591 -0.4932
  840MOL0     C15835   7.863   4.885   5.936 -0.7160 -0.1200  0.1102
  840MOL0     C15836   7.800   4.765   5.913  0.4222  0.4265  0.6471
  840MOL0     C15837   7.597   4.401   5.797  0.1108  0.6835  0.2699
  840MOL0     C15838   7.475   4.396   5.876 -0.3047 -0.2759 -0.1788
  840MOL0     C15839   7.392   4.284   5.904  0.0659  0.1703  0.3644
  840MOL0     C15840   7.417   4.173   5.821  0.0984  1.2047 -0.4297
  840MOL0     O15841   7.342   4.051   5.833  0.2997  0.0024 -0.0374
  840MOL0     C15842   7.202   4.057   5.864  0.1614 -0.1045  0.6393
  840MOL0     C15843   7.150   3.949   5.769  0.2420 -0.0102  0.5067
  840MOL0     C15844   6.997   3.961   5.764 -0.4115  0.5341 -0.1967
  840MOL0     C15845   6.941   3.883   5.654  0.1404  0.3073  0.1761
  840MOL0     C15846   6.803   3.832   5.681 -0.4577  0.0236 -0.0634
  840MOL0     C15847   6.694   3.778   5.700 -0.3262 -0.2819 -0.8152
  840MOL0     C15848   7.517   4.180   5.730  0.2522  0.2596  0.2911
  840MOL0     C15849   7.613   4.278   5.725 -0.3586  0.0328  0.4148
  840MOL0     C15850   7.719   4.256   5.622 -0.4677 -0.0515  0.3816
  840MOL0     H15851   7.539   4.845   5.724 -1.4300 -2.4828  1.4944
  840MOL0     H15852   7.675   5.069   5.731  0.4487  0.1092  0.2012
  840MOL0     H15853   7.971   5.123   6.068 -2.2678 -0.8984  1.3799
  840MOL0     H15854   7.804   5.157   6.067  0.2457 -0.4992 -0.5990
  840MOL0     H15855   8.011   5.347   5.940  0.2255  1.6734  1.2464
  840MOL0     H15856   7.840   5.375   5.936  1.0264  0.7584 -1.3485
  840MOL0     H15857   7.825   5.396   6.176 -1.0558  2.3019  0.1288
  840MOL0     H15858   8.004   5.353   6.186 -1.1603 -1.7320 -0.9604
  840MOL0     H15859   7.913   5.590   6.017  0.2276  0.0738 -0.3061
  840MOL0     H15860   7.904   5.611   6.188 -1.1345 -0.0120 -0.3512
  840MOL0     H15861   8.136   5.678   6.070 -1.3559  1.4579  2.3701
  840MOL0     H15862   8.164   5.509   6.037  3.4013  2.1058  0.2064
  840MOL0     H15863   8.104   5.606   6.325  0.3632 -0.3739  0.8198
  840MOL0     H15864   8.164   5.469   6.288 -0.2458  1.0894  0.4912
  840MOL0     H15865   8.320   5.628   6.379  0.1086  3.4678 -0.3136
  840MOL0     H15866   8.328   5.720   6.230  0.9613  0.6379  0.3479
  840MOL0     H15867   8.421   5.526   6.099  3.3135 -0.5924 -0.2489
  840MOL0     H15868   8.517   5.575   6.238 -1.0394  1.6338 -0.2051
  840MOL0     H15869   8.294   5.307   6.095 -0.0497  1.8466 -0.5333
  840MOL0     H15870   8.353   4.991   6.216  2.0624  0.6284  0.6980
  840MOL0     H15871   8.191   5.053   6.200  2.0508 -1.2536 -2.9473
  840MOL0     H15872   8.327   4.966   6.450  1.4154 -1.5191 -1.7448
  840MOL0     H15873   8.165   5.036   6.469 -2.7154 -2.2652  0.4768
  840MOL0     H15874   8.076   4.894   6.295  0.0540 -1.4156  0.6896
  840MOL0     H15875   8.223   4.789   6.301 -1.1087  0.0385 -3.3224
  840MOL0     H15876   8.049   4.877   6.557  2.1225 -1.8141  2.9296
  840MOL0     H15877   8.027   4.719   6.473  0.2016 -1.2154  1.6777
  840MOL0     H15878   8.192   4.529   6.433  1.3779 -3.0083  0.9021
  840MOL0     H15879   8.270   4.401   6.256  0.2976 -1.6264 -0.4996
  840MOL0     H15880   8.405   4.299   6.322  1.2777  0.8204 -1.3857
  840MOL0     H15881   8.423   4.425   6.192  1.4479  0.2985  0.6153
  840MOL0     H15882   8.936   4.538   6.540  0.1576 -0.4753  0.1011
  840MOL0     H15883   9.179   4.463   6.492 -1.3875 -0.2400  0.5833
  840MOL0     H15884   9.358   4.363   6.439 -0.0492 -1.1242 -0.2326
  840MOL0     H15885   9.331   4.237   6.330 -1.8367 -0.3368  1.2290
  840MOL0     H15886   9.477   4.390   6.167  0.3843  0.4803 -0.6165
  840MOL0     H15887   9.534   4.463   6.314  0.6555  0.2071 -1.2548
  840MOL0     H15888   9.537   4.157   6.245 -1.8382  0.8314  1.0263
  840MOL0     H15889   9.605   4.220   6.395  3.8183  0.3287 -0.5319
  840MOL0     H15890   9.775   4.173   6.212  1.6260  1.1117  0.1625
  840MOL0     H15891   9.779   4.346   6.233  1.7965 -1.4319  0.1742
  840MOL0     H15892   9.648   4.149   6.036 -0.0978  1.2261 -0.8094
  840MOL0     H15893   9.612   4.318   5.996 -0.5835 -0.4789 -1.2036
  840MOL0     H15894   9.898   4.210   6.014  0.4795 -0.2765 -0.6452
  840MOL0     H15895   9.847   4.364   5.960 -0.7471  0.1822  3.5665
  840MOL0     H15896   9.713   4.282   5.775  0.4562 -0.1398 -3.3393
  840MOL0     H15897   9.741   4.115   5.830  0.9270  0.7156  4.1637
  840MOL0     H15898   9.880   4.176   5.628 -2.0313  2.7210  0.4320
  840MOL0     H15899   9.987   4.137   5.764 -0.4269 -1.3255 -0.5376
  840MOL0     H15900   9.061   4.441   6.076  1.9094  2.4606  0.0120
  840MOL0     H15901   8.845   4.507   6.130 -0.4454 -3.1093  0.7130
  840MOL0     H15902   8.638   4.705   6.528  2.2036 -2.4536 -1.9665
  840MOL0     H15903   8.441   4.817   6.635  1.2741  0.6487 -0.7666
  840MOL0     H15904   7.957   4.884   5.990 -2.0204 -3.0559  2.5969
  840MOL0     H15905   7.845   4.680   5.964 -0.1492  0.0156  0.4683
  840MOL0     H15906   7.432   4.474   5.938 -3.2131 -2.0452  0.2330
  840MOL0     H15907   7.300   4.287   5.962 -0.0471 -1.8671  0.3652
  840MOL0     H15908   7.171   4.048   5.969 -3.2364  1.3783 -0.1249
  840MOL0     H15909   7.169   4.154   5.827  0.7249 -0.3102 -0.4527
  840MOL0     H15910   7.186   3.851   5.801  0.6008  0.4370  1.5101
  840MOL0     H15911   7.186   3.957   5.666  1.6243  0.3759  0.9943
  840MOL0     H15912   6.964   3.929   5.864  1.1598  0.2761  0.2790
  840MOL0     H15913   6.960   4.064   5.756 -0.1371  0.7384  0.9281
  840MOL0     H15914   7.004   3.799   5.623 -0.6712 -0.0009 -0.6822
  840MOL0     H15915   6.943   3.943   5.563 -1.2342  1.2696  0.7403
  840MOL0     H15916   6.593   3.744   5.693 -1.7747  3.5568 -0.3840
  840MOL0     H15917   7.525   4.087   5.675  1.0020  0.8664 -0.6730
  840MOL0     H15918   7.723   4.349   5.565 -0.8952 -2.1230 -3.3417
  840MOL0     H15919   7.818   4.241   5.666 -0.3653 -0.6770 -0.0475
  840MOL0     H15920   7.700   4.174   5.552  1.9360 -0.7091  0.4101
  841MOL0     O15921   1.161   4.260   0.861  0.4885 -0.2765  0.4988
  841MOL0     C15922   1.146   4.369   0.917  0.3895 -0.2350  0.0350
  841MOL0     O15923   1.252   4.457   0.937 -0.2381  0.8512 -0.8844
  841MOL0     C15924   1.391   4.428   0.938  0.2089 -0.0135 -0.6342
  841MOL0     C15925   1.439   4.300   0.958 -0.2273  0.4494 -0.6231
  841MOL0     C15926   1.580   4.278   0.941  0.6441  0.9116  1.0758
  841MOL0     C15927   1.663   4.379   0.913  0.6671 -0.0388  0.3966
  841MOL0     O15928   1.798   4.368   0.899  0.0801 -0.5452  0.0535
  841MOL0     C15929   1.846   4.254   0.825  0.4479  0.1215 -0.8009
  841MOL0     C15930   1.977   4.311   0.755  0.5476 -0.0414 -0.2320
  841MOL0     C15931   2.052   4.211   0.680 -0.4194  0.1159 -0.1304
  841MOL0     C15932   2.189   4.264   0.630 -0.0324  0.1084  0.4035
  841MOL0     C15933   2.253   4.177   0.518  0.5441  0.4148 -0.2169
  841MOL0     C15934   2.285   4.036   0.570  0.2701  0.8498  0.0125
  841MOL0     C15935   2.324   3.930   0.470 -0.3357 -0.1145 -0.2774
  841MOL0     C15936   2.244   3.942   0.338  0.1725  0.0310  0.2026
  841MOL0     N15937   2.294   3.844   0.241 -0.2261  0.4755  0.0951
  841MOL0     C15938   2.297   3.708   0.247 -0.3150  0.3293 -0.2962
  841MOL0     C15939   2.357   3.665   0.125  0.1261  0.3771 -0.0470
  841MOL0     C15940   2.389   3.520   0.099  0.1999  0.5080  1.3806
  841MOL0     C15941   2.546   3.505   0.103  0.7852  0.3481 -0.2345
  841MOL0     C15942   2.600   3.375   0.039 -1.0533 -0.2624  1.2323
  841MOL0     C15943   2.757   3.382   0.047 -0.3538  0.2983  0.4004
  841MOL0     O15944   2.816   3.297  -0.056  0.7696  0.6249 -0.0387
  841MOL0     C15945   2.949   3.314  -0.083 -0.0421  0.5857  0.1539
  841MOL0     C15946   3.044   3.391  -0.006  0.7287  0.3287  0.4347
  841MOL0     C15947   3.172   3.418  -0.048 -0.1720 -0.6535 -0.9613
  841MOL0     C15948   3.258   3.521   0.033 -0.3627  0.1747 -0.3805
  841MOL0     C15949   3.223   3.348  -0.155  0.9303 -0.9026  0.2605
  841MOL0     C15950   3.363   3.373  -0.218 -1.1078 -0.4373  1.0927
  841MOL0     O15951   3.453   3.466  -0.179  0.1343  0.0840 -0.3201
  841MOL0     C15952   3.563   3.480  -0.255 -0.2757  0.0471  0.1641
  841MOL0     C15953   3.672   3.392  -0.263  0.0661 -0.4507 -0.1380
  841MOL0     C15954   3.776   3.421  -0.343 -0.0282  0.0128 -0.0238
  841MOL0     C15955   3.779   3.541  -0.415  0.5579 -0.7163  0.0803
  841MOL0     O15956   3.896   3.576  -0.483 -0.1699  0.5889  0.0964
  841MOL0     C15957   3.910   3.705  -0.540 -0.8152  0.2116  0.3461
  841MOL0     C15958   4.045   3.711  -0.614 -0.1827 -0.5016  0.3581
  841MOL0     C15959   4.167   3.673  -0.523  0.2531  0.1014  0.6579
  841MOL0     C15960   4.299   3.711  -0.597  0.1563  0.0396 -0.5465
  841MOL0     C15961   4.424   3.663  -0.517 -0.6795  0.4829  0.6603
  841MOL0     C15962   4.541   3.711  -0.612  0.7879  0.0294  0.1719
  841MOL0     C15963   4.679   3.711  -0.529 -0.5584  0.0778  0.7177
  841MOL0     C15964   4.798   3.733  -0.627 -0.3118  0.2157  0.3379
  841MOL0    Cl15965   4.774   3.884  -0.725  0.1097  0.3076  0.3367
  841MOL0     C15966   3.668   3.626  -0.414 -0.6550 -0.5784  0.6084
  841MOL0     C15967   3.559   3.590  -0.335  0.0690 -0.9758 -0.5746
  841MOL0     O15968   3.386   3.297  -0.313 -0.4702 -0.3709  0.3338
  841MOL0     C15969   3.143   3.256  -0.219  0.4613  0.1963 -0.6381
  841MOL0     C15970   3.006   3.250  -0.188 -0.5137 -0.3419  1.0051
  841MOL0     N15971   2.390   3.780   0.053  0.3242  0.0051 -0.2180
  841MOL0     N15972   2.352   3.885   0.122 -0.1083  0.0864  0.2122
  841MOL0     C15973   1.616   4.510   0.890  0.9857  0.0206 -0.9906
  841MOL0     C15974   1.475   4.533   0.903  0.5665 -0.8285 -0.1665
  841MOL0     C15975   1.006   4.412   0.954  0.1367 -0.4402  0.6942
  841MOL0     C15976   0.992   4.544   0.986 -0.2955 -0.3384 -0.1581
  841MOL0     C15977   0.874   4.599   1.032 -0.1088 -0.4090  0.3990
  841MOL0     C15978   0.757   4.526   1.031  1.0332 -0.6036 -0.6348
  841MOL0     O15979   0.637   4.585   1.076 -0.1136  0.7529  0.0149
  841MOL0     C15980   0.530   4.501   1.124  0.2114  0.0516 -0.3585
  841MOL0     C15981   0.445   4.567   1.232 -0.0113  0.5288  0.7411
  841MOL0     C15982   0.398   4.706   1.197 -0.0125  0.0616 -0.0266
  841MOL0     C15983   0.499   4.807   1.243 -0.4517 -0.7210  0.2969
  841MOL0     C15984   0.435   4.940   1.234  0.4139 -0.2947  0.4584
  841MOL0     C15985   0.376   5.046   1.226  0.4010 -0.3479 -0.6944
  841MOL0     C15986   0.766   4.391   0.989 -0.5506 -0.3416 -0.6433
  841MOL0     C15987   0.887   4.336   0.951 -0.4233 -0.2669 -0.5439
  841MOL0     C15988   0.884   4.193   0.904  0.0676 -0.3125  0.2023
  841MOL0     H15989   1.372   4.220   0.987 -3.5584  2.3593 -2.4078
  841MOL0     H15990   1.619   4.182   0.973  0.8142  1.2339  1.8872
  841MOL0     H15991   1.763   4.217   0.765 -1.6598 -0.1366  2.0275
  841MOL0     H15992   1.874   4.168   0.887 -1.5740 -0.1427 -0.1525
  841MOL0     H15993   1.945   4.386   0.683 -1.9215 -1.0521 -0.2883
  841MOL0     H15994   2.039   4.361   0.831  0.8441  2.3600 -1.9576
  841MOL0     H15995   2.066   4.125   0.746 -0.4374 -0.2304 -0.5683
  841MOL0     H15996   1.980   4.183   0.602  1.0264  0.8207 -1.7949
  841MOL0     H15997   2.187   4.369   0.597  0.2219 -0.5582 -1.9073
  841MOL0     H15998   2.268   4.257   0.705  2.7311  2.1362 -2.0636
  841MOL0     H15999   2.346   4.214   0.473  0.8816  0.3309  0.3993
  841MOL0     H16000   2.178   4.173   0.438 -0.6592 -1.2470  0.9210
  841MOL0     H16001   2.367   4.055   0.641  1.8798 -0.0363 -1.5375
  841MOL0     H16002   2.195   3.992   0.614 -0.0427  0.0027 -1.4142
  841MOL0     H16003   2.323   3.835   0.523 -1.3311 -0.1688 -0.3750
  841MOL0     H16004   2.429   3.946   0.444  0.0647  0.2415  1.4129
  841MOL0     H16005   2.135   3.937   0.344  0.1740 -0.6112 -0.2448
  841MOL0     H16006   2.265   4.040   0.294 -0.2247 -0.7225 -1.7595
  841MOL0     H16007   2.252   3.645   0.322 -0.2565  0.2761 -0.3055
  841MOL0     H16008   2.363   3.483  -0.000 -3.6841 -2.3949  3.2002
  841MOL0     H16009   2.335   3.455   0.168 -0.2812 -2.1564 -1.2936
  841MOL0     H16010   2.601   3.588   0.057  0.1801  0.1419 -1.3590
  841MOL0     H16011   2.556   3.499   0.212 -1.7843  1.0594  0.1127
  841MOL0     H16012   2.576   3.293   0.107  1.5607 -2.6976 -0.5150
  841MOL0     H16013   2.568   3.357  -0.064 -2.0234 -0.1118  1.5020
  841MOL0     H16014   2.774   3.484   0.011 -3.0930  0.4995 -0.5293
  841MOL0     H16015   2.798   3.378   0.148  0.0351 -0.4039  0.2194
  841MOL0     H16016   2.999   3.438   0.081  2.9353  2.9142  0.3340
  841MOL0     H16017   3.300   3.588  -0.041 -3.1493  2.0656 -0.3988
  841MOL0     H16018   3.327   3.475   0.104  0.1091  0.7172 -0.4826
  841MOL0     H16019   3.195   3.579   0.102 -1.9296 -1.1063 -0.6602
  841MOL0     H16020   3.674   3.298  -0.208 -0.5987 -0.1291  0.4427
  841MOL0     H16021   3.859   3.350  -0.343 -0.5000 -0.6281  2.3527
  841MOL0     H16022   3.831   3.719  -0.614  1.4494  0.3384 -2.2193
  841MOL0     H16023   3.910   3.775  -0.456  1.1594  0.1567  0.4352
  841MOL0     H16024   4.051   3.647  -0.702  1.2061  1.4066 -1.0414
  841MOL0     H16025   4.058   3.815  -0.647  2.3020 -0.2251  1.9190
  841MOL0     H16026   4.183   3.567  -0.501 -1.5723 -0.3062  0.2206
  841MOL0     H16027   4.171   3.733  -0.432 -0.4785 -0.6150  1.1727
  841MOL0     H16028   4.307   3.819  -0.616  2.6948 -0.1199 -0.6583
  841MOL0     H16029   4.302   3.660  -0.693 -0.7099 -0.8859 -0.0968
  841MOL0     H16030   4.436   3.713  -0.419 -1.8483  2.7960 -0.2880
  841MOL0     H16031   4.437   3.556  -0.504  1.5187  0.9516  3.6058
  841MOL0     H16032   4.523   3.816  -0.639 -1.9665 -1.2357 -3.7794
  841MOL0     H16033   4.551   3.661  -0.709 -2.1717 -1.4691  0.5296
  841MOL0     H16034   4.696   3.613  -0.484  1.1446  0.3997  0.8165
  841MOL0     H16035   4.684   3.785  -0.448 -1.6523  0.0260  0.8596
  841MOL0     H16036   4.795   3.640  -0.685 -4.5083 -0.8785  1.9218
  841MOL0     H16037   4.892   3.731  -0.571  0.2527 -1.4915 -0.6074
  841MOL0     H16038   3.657   3.712  -0.479  2.4415 -1.2679 -1.0125
  841MOL0     H16039   3.483   3.667  -0.327 -0.1721 -1.3799  1.4212
  841MOL0     H16040   3.177   3.183  -0.292  0.8784 -0.9394  0.6303
  841MOL0     H16041   2.942   3.173  -0.229  0.7134  0.2955 -2.4336
  841MOL0     H16042   1.687   4.587   0.859 -0.3825  0.3799 -3.5119
  841MOL0     H16043   1.433   4.630   0.877  1.2116 -0.2938  0.7359
  841MOL0     H16044   1.078   4.611   0.980  0.3581 -1.1222  0.1358
  841MOL0     H16045   0.881   4.697   1.078 -1.5585  1.0106 -2.1567
  841MOL0     H16046   0.462   4.473   1.042  0.1535  0.8550 -0.5977
  841MOL0     H16047   0.571   4.409   1.166 -0.0157  0.3447  0.5287
  841MOL0     H16048   0.489   4.563   1.331  1.5718 -1.2586  0.0244
  841MOL0     H16049   0.352   4.507   1.232  0.4924 -0.2706  0.9564
  841MOL0     H16050   0.373   4.709   1.090  3.2413  0.1527 -0.9071
  841MOL0     H16051   0.302   4.725   1.245  1.3083  1.3443  2.2981
  841MOL0     H16052   0.580   4.817   1.170 -3.1128 -1.4393 -2.9787
  841MOL0     H16053   0.542   4.792   1.343 -0.9004  2.2556  1.0504
  841MOL0     H16054   0.319   5.136   1.222  1.8973  0.6080 -1.3103
  841MOL0     H16055   0.680   4.327   0.976 -2.7850  2.5672 -1.1333
  841MOL0     H16056   0.934   4.127   0.975 -0.8866 -1.4219 -0.1201
  841MOL0     H16057   0.786   4.144   0.904  0.6232 -1.8175  4.4020
  841MOL0     H16058   0.928   4.183   0.804  2.6738 -0.3879  1.2847
  842MOL0     O16059   0.146   0.751   6.421 -0.0686 -0.8680  0.6205
  842MOL0     C16060   0.201   0.853   6.394 -0.0288  0.3191 -0.0376
  842MOL0     O16061   0.139   0.971   6.353 -0.2205  1.0199 -0.0526
  842MOL0     C16062   0.002   0.976   6.369  0.9216 -0.2014 -0.4856
  842MOL0     C16063  -0.084   0.892   6.289  0.1556  0.3241 -1.3216
  842MOL0     C16064  -0.219   0.884   6.327  0.2843  0.4705 -0.0435
  842MOL0     C16065  -0.281   0.970   6.415  0.2303  0.7938 -0.1776
  842MOL0     O16066  -0.420   0.952   6.428 -0.2171  0.6595 -0.2116
  842MOL0     C16067  -0.491   1.060   6.489  0.1808  0.1248  0.4215
  842MOL0     C16068  -0.484   1.059   6.639  0.3405  0.0548 -0.6866
  842MOL0     C16069  -0.532   1.194   6.700  0.3209  0.6239  0.6840
  842MOL0     C16070  -0.674   1.219   6.673 -0.2175 -0.2863 -0.1212
  842MOL0     C16071  -0.722   1.354   6.724 -0.4706 -0.2561  0.5012
  842MOL0     C16072  -0.873   1.397   6.681 -0.9155 -0.5649 -0.7263
  842MOL0     C16073  -0.936   1.471   6.804  0.7482 -0.1248 -0.1060
  842MOL0     C16074  -0.872   1.611   6.815  0.2694  0.3281  0.5172
  842MOL0     N16075  -0.873   1.654   6.957 -0.0658 -0.1920  0.6585
  842MOL0     C16076  -0.983   1.695   7.024  0.7427  0.3010 -0.0052
  842MOL0     C16077  -0.936   1.733   7.151  0.2546  0.0862  0.1232
  842MOL0     C16078  -1.030   1.785   7.262  0.7726  0.1680 -0.2936
  842MOL0     C16079  -0.994   1.705   7.388 -0.1911  0.1375 -0.0772
  842MOL0     C16080  -1.029   1.769   7.519  0.0905  1.1350  0.0215
  842MOL0     C16081  -1.166   1.839   7.511 -0.0874 -0.6051 -1.1732
  842MOL0     O16082  -1.199   1.886   7.649  0.0709  0.3652  0.0930
  842MOL0     C16083  -1.298   1.989   7.658 -0.3963  0.4248  0.5011
  842MOL0     C16084  -1.281   2.091   7.750  0.3640  0.2099 -0.3202
  842MOL0     C16085  -1.384   2.185   7.765  0.4091 -0.2268 -0.3425
  842MOL0     C16086  -1.373   2.285   7.875  0.0540  0.9317  0.0826
  842MOL0     C16087  -1.507   2.169   7.697 -0.0639 -0.2323 -0.1426
  842MOL0     C16088  -1.628   2.251   7.723  0.6233  0.3172  0.0568
  842MOL0     O16089  -1.701   2.282   7.619  0.2946  0.2234 -0.3276
  842MOL0     C16090  -1.830   2.326   7.629 -0.1491  0.4613  0.5562
  842MOL0     C16091  -1.928   2.256   7.697 -0.3452 -0.3885  1.5971
  842MOL0     C16092  -2.059   2.298   7.715 -0.0369  0.5493 -0.3206
  842MOL0     C16093  -2.096   2.412   7.658  0.0147  0.1090 -0.2051
  842MOL0     O16094  -2.230   2.431   7.666  0.6557  0.7008 -0.1650
  842MOL0     C16095  -2.275   2.553   7.618 -0.0813 -0.2575  0.0860
  842MOL0     C16096  -2.415   2.583   7.675 -0.6807  0.4079  0.0146
  842MOL0     C16097  -2.517   2.477   7.629  0.3559 -0.0320 -0.4615
  842MOL0     C16098  -2.660   2.543   7.625 -0.3927  0.1158 -0.0176
  842MOL0     C16099  -2.770   2.447   7.581  0.0070 -0.0583  0.6468
  842MOL0     C16100  -2.888   2.525   7.506  0.8991 -0.4413 -0.3774
  842MOL0     C16101  -2.985   2.593   7.600  0.6821 -0.6241 -0.6249
  842MOL0     C16102  -3.135   2.603   7.548  0.0996  0.9295  0.4810
  842MOL0    Cl16103  -3.214   2.741   7.641 -0.0952 -0.3070  0.5622
  842MOL0     C16104  -2.006   2.495   7.595  0.2222  0.4323  0.2272
  842MOL0     C16105  -1.877   2.445   7.577  0.4917 -0.5144  0.2981
  842MOL0     O16106  -1.659   2.282   7.841 -0.4582  0.1779  0.1251
  842MOL0     C16107  -1.527   2.059   7.607  0.0215 -0.2921  0.0374
  842MOL0     C16108  -1.421   1.965   7.588  0.1032 -0.4172  0.2130
  842MOL0     N16109  -0.799   1.715   7.145 -0.3941  0.2531  0.4361
  842MOL0     N16110  -0.758   1.674   7.026  0.5003  0.2430 -0.2498
  842MOL0     C16111  -0.199   1.059   6.481 -0.3197 -0.2230 -1.0370
  842MOL0     C16112  -0.064   1.057   6.461  0.4875 -0.7022  0.4808
  842MOL0     C16113   0.344   0.859   6.404  0.2267 -0.2995  0.2916
  842MOL0     C16114   0.418   0.987   6.400 -0.2666  0.3650  0.5509
  842MOL0     C16115   0.557   0.998   6.401 -0.9211  0.5916 -0.3601
  842MOL0     C16116   0.636   0.888   6.432  1.2301  0.8760 -0.0771
  842MOL0     O16117   0.773   0.904   6.443 -0.5028  1.0903  0.0704
  842MOL0     C16118   0.860   0.800   6.500 -0.5717 -0.0045  0.6272
  842MOL0     C16119   1.012   0.842   6.504 -0.0317 -0.2518  0.2263
  842MOL0     C16120   1.089   0.818   6.371  0.8365 -0.1596 -0.6070
  842MOL0     C16121   1.240   0.789   6.395  0.7876 -0.2912  0.1387
  842MOL0     C16122   1.261   0.673   6.478  0.5727  0.1818  0.3496
  842MOL0     C16123   1.272   0.581   6.552  0.7933 -0.6779  0.3791
  842MOL0     C16124   0.575   0.759   6.448 -0.1161  0.3187  0.1088
  842MOL0     C16125   0.436   0.748   6.421  0.2565 -0.2407 -1.6520
  842MOL0     C16126   0.383   0.602   6.431 -0.4096  1.1883  0.2808
  842MOL0     H16127  -0.053   0.810   6.224 -1.0003 -2.0977  0.9836
  842MOL0     H16128  -0.297   0.818   6.289 -1.9721  3.1857 -0.4323
  842MOL0     H16129  -0.594   1.064   6.453  0.3653  0.2415 -0.0943
  842MOL0     H16130  -0.457   1.157   6.452 -1.0302 -0.5188 -2.5990
  842MOL0     H16131  -0.562   0.992   6.677 -1.8076  2.4029 -0.7269
  842MOL0     H16132  -0.385   1.023   6.669 -0.5110 -4.0171 -2.0185
  842MOL0     H16133  -0.515   1.196   6.808 -0.1761 -0.9968  0.8233
  842MOL0     H16134  -0.478   1.281   6.661 -0.2318  0.2868 -0.9237
  842MOL0     H16135  -0.699   1.220   6.566 -0.9918 -4.9231 -0.2072
  842MOL0     H16136  -0.737   1.145   6.723  0.3764 -0.0195  1.0430
  842MOL0     H16137  -0.651   1.430   6.690  2.1382 -2.6894  0.2074
  842MOL0     H16138  -0.715   1.349   6.833  2.0005 -0.3988  0.3810
  842MOL0     H16139  -0.873   1.461   6.592 -1.9948 -0.9564 -1.0318
  842MOL0     H16140  -0.934   1.314   6.643 -2.0478 -0.6365  1.1579
  842MOL0     H16141  -0.900   1.408   6.885  2.8530 -0.0164 -0.8897
  842MOL0     H16142  -1.044   1.475   6.793  0.9342  0.1144 -2.3109
  842MOL0     H16143  -0.771   1.613   6.773  0.1597  0.8003  0.2632
  842MOL0     H16144  -0.930   1.677   6.750 -0.1130 -0.9572 -0.4836
  842MOL0     H16145  -1.089   1.689   7.000  0.9964  0.8993 -1.3352
  842MOL0     H16146  -1.135   1.762   7.240  1.0621 -1.2472 -0.2989
  842MOL0     H16147  -1.013   1.892   7.280  2.2110 -0.2836  1.3875
  842MOL0     H16148  -1.042   1.606   7.384 -0.1462  0.1372 -0.6969
  842MOL0     H16149  -0.885   1.690   7.386 -0.4577 -2.6137 -2.4579
  842MOL0     H16150  -1.040   1.690   7.594 -1.1488 -0.4606 -1.7311
  842MOL0     H16151  -0.941   1.828   7.546  0.5739 -0.1188  1.3654
  842MOL0     H16152  -1.147   1.927   7.448  1.9883  0.0768  0.2668
  842MOL0     H16153  -1.245   1.770   7.483 -1.9128 -0.5881  3.2114
  842MOL0     H16154  -1.193   2.099   7.813 -2.5471  1.8710  3.9885
  842MOL0     H16155  -1.267   2.310   7.881  0.9462 -1.4281 -3.1463
  842MOL0     H16156  -1.392   2.253   7.978 -1.3756 -0.7673 -0.6559
  842MOL0     H16157  -1.427   2.374   7.842  1.4083  0.9077 -2.4854
  842MOL0     H16158  -1.897   2.166   7.749 -1.2719  0.9896  4.7189
  842MOL0     H16159  -2.119   2.239   7.784  1.1770  0.9674  1.1288
  842MOL0     H16160  -2.210   2.632   7.656  0.6837 -0.5210 -0.6314
  842MOL0     H16161  -2.279   2.556   7.508  0.0644  0.2785  0.0917
  842MOL0     H16162  -2.402   2.601   7.782  0.9710  2.0712 -0.4149
  842MOL0     H16163  -2.444   2.676   7.624 -0.7282  1.2855  1.5911
  842MOL0     H16164  -2.529   2.394   7.699 -2.0726 -1.4471 -2.3508
  842MOL0     H16165  -2.494   2.436   7.530  2.0926 -0.7495  0.2037
  842MOL0     H16166  -2.650   2.622   7.549 -3.1075 -2.0111 -2.8831
  842MOL0     H16167  -2.698   2.587   7.718 -0.4263 -0.3952  0.2104
  842MOL0     H16168  -2.728   2.363   7.525 -2.2655 -0.6663 -0.2485
  842MOL0     H16169  -2.810   2.392   7.665 -0.1261 -1.2357 -0.1628
  842MOL0     H16170  -2.926   2.466   7.422  1.5223  2.2944 -2.7013
  842MOL0     H16171  -2.849   2.605   7.443 -0.4482 -0.4686 -1.2804
  842MOL0     H16172  -2.945   2.693   7.619  0.2303 -0.4094 -0.7886
  842MOL0     H16173  -2.992   2.530   7.689 -1.4538  0.6316  0.1786
  842MOL0     H16174  -3.183   2.506   7.567  1.4258  0.6964  3.2460
  842MOL0     H16175  -3.143   2.620   7.441 -2.9093  1.5587  0.7201
  842MOL0     H16176  -2.032   2.586   7.542  1.4765  1.0115  0.5542
  842MOL0     H16177  -1.806   2.490   7.509  2.5888  0.0942  2.7330
  842MOL0     H16178  -1.629   2.048   7.572 -0.4770  2.6173  0.2996
  842MOL0     H16179  -1.424   1.884   7.516  2.7479  0.6415 -1.2245
  842MOL0     H16180  -0.232   1.121   6.564  2.3400 -0.9658  0.7243
  842MOL0     H16181  -0.001   1.128   6.514  1.6597 -1.8177  0.6477
  842MOL0     H16182   0.376   1.083   6.371 -3.4287 -1.2014 -0.4930
  842MOL0     H16183   0.618   1.084   6.374  0.8313  0.1056  1.7524
  842MOL0     H16184   0.827   0.770   6.599  1.3655 -1.4557  0.8692
  842MOL0     H16185   0.841   0.715   6.434 -1.6241  1.1278 -0.6121
  842MOL0     H16186   1.049   0.775   6.582 -0.4100 -3.1355 -1.9125
  842MOL0     H16187   1.014   0.944   6.542 -1.7910  0.2570 -0.9522
  842MOL0     H16188   1.029   0.741   6.322 -0.3696  0.6889 -0.5293
  842MOL0     H16189   1.075   0.909   6.310  0.3996 -0.0295 -0.3189
  842MOL0     H16190   1.293   0.874   6.441 -0.5606  1.3112 -1.1449
  842MOL0     H16191   1.276   0.788   6.292 -0.8450 -0.2017 -0.4574
  842MOL0     H16192   1.284   0.507   6.628 -2.3843 -2.0342 -0.2329
  842MOL0     H16193   0.627   0.669   6.480 -0.3020  1.0994  2.7830
  842MOL0     H16194   0.343   0.577   6.529  1.3543 -1.8756  0.3565
  842MOL0     H16195   0.308   0.582   6.354  1.8736 -0.9901 -1.5599
  842MOL0     H16196   0.462   0.530   6.406 -2.5170 -1.5513  1.0407
  843MOL0     O16197   3.178   6.265   9.769 -0.1107  0.7853  0.5999
  843MOL0     C16198   3.190   6.384   9.782 -0.0416  0.3565  0.3239
  843MOL0     O16199   3.283   6.468   9.728 -0.5463  0.2142 -0.0811
  843MOL0     C16200   3.404   6.430   9.678  1.1696  1.6796 -0.1774
  843MOL0     C16201   3.472   6.519   9.600 -0.0074 -0.3729 -0.6136
  843MOL0     C16202   3.591   6.490   9.547  0.5174 -1.0473  0.0327
  843MOL0     C16203   3.661   6.379   9.585 -0.7758  0.5774 -0.6958
  843MOL0     O16204   3.789   6.370   9.522  0.2565  0.1292  0.5042
  843MOL0     C16205   3.799   6.251   9.443 -0.1289 -0.0205 -0.5699
  843MOL0     C16206   3.818   6.295   9.298 -1.0324 -0.2241  0.0113
  843MOL0     C16207   3.695   6.280   9.210  0.7047 -0.2364  0.6427
  843MOL0     C16208   3.724   6.335   9.062  0.8071  0.3627 -0.2937
  843MOL0     C16209   3.603   6.339   8.978 -0.0394 -0.0356  0.5983
  843MOL0     C16210   3.627   6.416   8.852 -0.0748 -0.5183 -0.0264
  843MOL0     C16211   3.726   6.356   8.754 -1.4795  0.3253  0.2551
  843MOL0     C16212   3.755   6.430   8.620 -0.2260 -0.3977 -0.0950
  843MOL0     N16213   3.888   6.396   8.569  0.4666  0.5361  0.8223
  843MOL0     C16214   3.978   6.476   8.505  0.2999 -0.3107 -0.4361
  843MOL0     C16215   4.085   6.399   8.465 -0.5538  0.1768  0.2959
  843MOL0     C16216   4.222   6.416   8.401 -0.0859 -0.6052  0.2088
  843MOL0     C16217   4.196   6.541   8.305  0.2474 -0.7962 -0.2387
  843MOL0     C16218   4.318   6.572   8.219  0.6978 -1.2546 -1.4714
  843MOL0     C16219   4.435   6.633   8.294 -0.4454  0.3314 -1.5394
  843MOL0     O16220   4.529   6.691   8.201  0.2122  0.6414  0.1156
  843MOL0     C16221   4.647   6.752   8.220 -0.7147  0.0796 -0.2263
  843MOL0     C16222   4.747   6.715   8.310 -0.0370 -0.6591 -0.6739
  843MOL0     C16223   4.866   6.780   8.321 -0.5793  0.0513  0.4396
  843MOL0     C16224   4.961   6.721   8.424  0.3373  0.4437  0.3706
  843MOL0     C16225   4.902   6.885   8.236  0.0197  0.0772  0.2947
  843MOL0     C16226   5.032   6.960   8.266 -0.2174  0.0333 -0.1719
  843MOL0     O16227   5.053   7.001   8.400  0.6678  0.1837 -0.3603
  843MOL0     C16228   5.179   7.042   8.428  0.2335  0.5885  0.1526
  843MOL0     C16229   5.279   6.951   8.478  0.5662 -0.1072 -0.3596
  843MOL0     C16230   5.404   7.004   8.503  0.1531  0.5719  0.1980
  843MOL0     C16231   5.436   7.139   8.484  0.7245 -0.1549  0.0186
  843MOL0     O16232   5.553   7.187   8.532 -0.4527  0.5033 -0.0734
  843MOL0     C16233   5.601   7.314   8.497 -0.3229 -0.5806  0.5119
  843MOL0     C16234   5.734   7.349   8.561 -0.3380  0.1900 -0.3297
  843MOL0     C16235   5.851   7.270   8.506  0.7772 -0.1916 -0.1888
  843MOL0     C16236   5.894   7.322   8.370 -0.1436 -0.0172  0.9174
  843MOL0     C16237   6.015   7.240   8.309  0.1942 -0.5156  0.6260
  843MOL0     C16238   6.111   7.341   8.248  0.3408  0.4094  0.1661
  843MOL0     C16239   6.223   7.259   8.183  0.0647  0.0522 -0.0087
  843MOL0     C16240   6.354   7.338   8.185 -0.8408  0.2912 -0.8206
  843MOL0    Cl16241   6.475   7.254   8.068  0.4562 -0.3681  0.0060
  843MOL0     C16242   5.340   7.224   8.427 -0.0907 -0.0763  0.6750
  843MOL0     C16243   5.212   7.177   8.402 -0.2174  0.4716 -0.2119
  843MOL0     O16244   5.107   6.980   8.173  0.2477 -0.0585  0.7847
  843MOL0     C16245   4.808   6.920   8.139 -0.2580  0.2381  0.2606
  843MOL0     C16246   4.685   6.859   8.134 -0.2797  0.3041  0.7336
  843MOL0     N16247   4.045   6.273   8.504 -0.0747  0.9082  0.1738
  843MOL0     N16248   3.917   6.261   8.547  0.1192 -0.2837  0.1182
  843MOL0     C16249   3.606   6.288   9.673  0.8197  0.4775 -0.6841
  843MOL0     C16250   3.476   6.316   9.720  0.2317  0.2302 -0.4764
  843MOL0     C16251   3.075   6.456   9.847  0.2494  0.1694  0.0357
  843MOL0     C16252   3.072   6.600   9.850 -0.6574  0.4159 -1.1646
  843MOL0     C16253   2.969   6.678   9.910  0.4250  0.2453 -0.7258
  843MOL0     C16254   2.867   6.618   9.975 -1.0942 -0.8850 -0.3834
  843MOL0     O16255   2.773   6.695  10.030 -0.4772  0.0900  0.3495
  843MOL0     C16256   2.765   6.709  10.171  0.2552 -0.5558 -0.1145
  843MOL0     C16257   2.747   6.856  10.215 -0.4232 -0.3988  0.5143
  843MOL0     C16258   2.812   6.959  10.121  0.3750  0.6008  0.8775
  843MOL0     C16259   2.747   7.098  10.141 -0.1289 -0.7897 -0.7437
  843MOL0     C16260   2.759   7.141  10.282  0.3189 -0.0656 -0.2226
  843MOL0     C16261   2.788   7.160  10.403 -0.2866  0.6738  0.1753
  843MOL0     C16262   2.866   6.477   9.977  0.5520  0.4576 -0.0257
  843MOL0     C16263   2.964   6.393   9.912  0.1247  0.7516  1.5197
  843MOL0     C16264   2.940   6.249   9.934 -0.2695 -1.1870  0.2376
  843MOL0     H16265   3.410   6.605   9.577 -1.5972 -0.9183  1.3146
  843MOL0     H16266   3.634   6.551   9.469  0.6672 -3.2182 -1.6898
  843MOL0     H16267   3.706   6.194   9.449  0.2276 -0.7479 -1.6546
  843MOL0     H16268   3.887   6.190   9.470  0.1722  1.9930  4.0312
  843MOL0     H16269   3.857   6.396   9.283  1.7283 -1.5672 -3.2215
  843MOL0     H16270   3.894   6.230   9.256  1.5973  0.6105  3.1184
  843MOL0     H16271   3.686   6.171   9.213 -1.3070 -0.1001  2.4891
  843MOL0     H16272   3.606   6.329   9.252 -1.5008 -2.4249 -1.1578
  843MOL0     H16273   3.742   6.441   9.076 -4.1564  1.1788  1.8542
  843MOL0     H16274   3.807   6.275   9.020  1.3538  0.1366  1.0608
  843MOL0     H16275   3.514   6.382   9.025 -1.1321  1.3031 -2.4635
  843MOL0     H16276   3.578   6.235   8.953 -1.4963  0.6103 -0.8229
  843MOL0     H16277   3.530   6.410   8.802 -0.0380 -3.2692  0.0664
  843MOL0     H16278   3.656   6.521   8.863 -1.0456 -0.3251  0.8212
  843MOL0     H16279   3.692   6.256   8.727 -0.9516  0.1071  0.3797
  843MOL0     H16280   3.828   6.347   8.793 -0.1045 -2.5432 -3.3812
  843MOL0     H16281   3.687   6.394   8.542  1.1310 -3.2616 -0.0774
  843MOL0     H16282   3.745   6.539   8.625 -0.4362 -0.4671  4.2089
  843MOL0     H16283   3.996   6.583   8.498 -1.6488  0.2693  2.0265
  843MOL0     H16284   4.268   6.338   8.339 -0.0330 -1.2849  1.0876
  843MOL0     H16285   4.290   6.443   8.482  0.6262 -2.2236  0.2106
  843MOL0     H16286   4.105   6.533   8.245  0.6644 -0.6036 -0.9118
  843MOL0     H16287   4.177   6.631   8.364 -2.0963  0.1161 -2.2390
  843MOL0     H16288   4.333   6.472   8.176 -2.0151 -2.4334  0.0845
  843MOL0     H16289   4.298   6.629   8.127  1.9732  0.0206 -1.0048
  843MOL0     H16290   4.400   6.717   8.354 -0.4897  0.7726 -2.1747
  843MOL0     H16291   4.490   6.559   8.353  2.8825  2.5104 -1.6372
  843MOL0     H16292   4.715   6.639   8.380  1.2191  0.4327  1.1770
  843MOL0     H16293   4.988   6.786   8.508 -0.3983  1.4409 -0.1402
  843MOL0     H16294   5.047   6.683   8.368 -1.4605 -2.0436 -0.8910
  843MOL0     H16295   4.913   6.632   8.465  1.0255  1.3698  3.5450
  843MOL0     H16296   5.256   6.845   8.486  0.5503 -0.2482 -1.9380
  843MOL0     H16297   5.480   6.936   8.538 -0.3331  1.1210  2.5135
  843MOL0     H16298   5.611   7.325   8.388  2.0492 -0.0194  0.7270
  843MOL0     H16299   5.527   7.386   8.532  0.4257  1.0813 -1.1496
  843MOL0     H16300   5.742   7.458   8.558 -3.9597  0.5464 -2.6571
  843MOL0     H16301   5.732   7.316   8.666 -3.1785  1.4533  0.0850
  843MOL0     H16302   5.825   7.164   8.505  1.0128 -0.2538 -1.1288
  843MOL0     H16303   5.939   7.272   8.570 -0.7846  1.5159  2.1041
  843MOL0     H16304   5.926   7.427   8.378  1.5011 -0.2015 -1.7716
  843MOL0     H16305   5.815   7.328   8.295  0.6311  0.7117  0.1360
  843MOL0     H16306   6.069   7.178   8.380  1.8918 -0.3561 -0.4700
  843MOL0     H16307   5.992   7.177   8.222 -2.8011  0.6669  0.4314
  843MOL0     H16308   6.152   7.407   8.325  1.0019 -1.4904  1.5466
  843MOL0     H16309   6.067   7.406   8.172 -0.9555  0.9158  1.3084
  843MOL0     H16310   6.185   7.237   8.082 -1.6021 -0.2000  0.6308
  843MOL0     H16311   6.232   7.161   8.231 -3.0528  0.6524  2.1038
  843MOL0     H16312   6.396   7.340   8.286  0.3087 -0.6940 -1.2526
  843MOL0     H16313   6.335   7.441   8.151  0.3233  1.6178  2.1743
  843MOL0     H16314   5.346   7.332   8.416  0.2339 -0.2134 -0.6011
  843MOL0     H16315   5.133   7.243   8.368 -0.5764  0.7901  1.1840
  843MOL0     H16316   4.832   7.003   8.073 -1.0755  1.2383  1.1717
  843MOL0     H16317   4.617   6.894   8.056 -0.4739  2.1858  1.7050
  843MOL0     H16318   3.656   6.198   9.710  2.0134  0.6766 -1.7551
  843MOL0     H16319   3.430   6.240   9.784 -0.8512  3.2764  2.6820
  843MOL0     H16320   3.148   6.659   9.800  0.3573 -1.3987 -1.8722
  843MOL0     H16321   2.981   6.785   9.903  3.9055  0.0172 -0.1850
  843MOL0     H16322   2.678   6.647  10.197  0.2046 -1.3001 -1.9444
  843MOL0     H16323   2.859   6.677  10.217  0.0570  0.0592  0.7384
  843MOL0     H16324   2.790   6.875  10.314  3.0262 -0.7531 -0.7568
  843MOL0     H16325   2.641   6.881  10.217 -0.1504  0.8294  0.3344
  843MOL0     H16326   2.922   6.959  10.125  0.5096 -1.4335 -1.0332
  843MOL0     H16327   2.789   6.934  10.017 -0.7169 -0.5047  1.3699
  843MOL0     H16328   2.641   7.089  10.115 -1.4146  1.9222  2.7679
  843MOL0     H16329   2.788   7.176  10.076 -1.3535 -0.6905 -1.4476
  843MOL0     H16330   2.829   7.186  10.499 -0.1109  0.9248  0.0346
  843MOL0     H16331   2.772   6.438  10.016 -0.4848  2.8174 -0.0130
  843MOL0     H16332   3.001   6.216  10.019  0.2453 -1.0844 -0.0917
  843MOL0     H16333   2.836   6.229   9.963 -0.7455  0.6130 -0.0727
  843MOL0     H16334   2.957   6.192   9.843 -3.6663  0.9840 -1.9761
  844MOL0     O16335   2.408   7.585   8.940  0.0219 -0.4980 -0.7005
  844MOL0     C16336   2.300   7.624   8.899 -0.7169 -0.1915 -0.0700
  844MOL0     O16337   2.184   7.614   8.970  0.1755  0.6501 -0.0073
  844MOL0     C16338   2.200   7.575   9.098  0.4789  0.4657 -0.8362
  844MOL0     C16339   2.137   7.457   9.146 -0.1519 -0.1342  0.2356
  844MOL0     C16340   2.144   7.427   9.279  0.3697  0.6540 -0.1694
  844MOL0     C16341   2.207   7.511   9.363  0.4164  0.3365  0.3309
  844MOL0     O16342   2.206   7.480   9.502  0.1586  0.3304  0.7638
  844MOL0     C16343   2.245   7.343   9.529 -0.2032 -0.5371 -0.1232
  844MOL0     C16344   2.309   7.311   9.663 -0.6657 -0.3178 -0.9664
  844MOL0     C16345   2.452   7.384   9.693 -0.4524  0.4665  0.4755
  844MOL0     C16346   2.553   7.348   9.591 -0.0128 -0.2119  0.9732
  844MOL0     C16347   2.693   7.403   9.618  0.0669 -0.6661 -0.2851
  844MOL0     C16348   2.799   7.362   9.508 -0.6874  0.1521  0.6269
  844MOL0     C16349   2.829   7.211   9.509  0.2782 -0.3535  0.5056
  844MOL0     C16350   2.938   7.174   9.609 -0.5114 -0.2890 -0.1764
  844MOL0     N16351   2.979   7.032   9.602 -0.1892 -0.1420 -0.3767
  844MOL0     C16352   2.989   6.961   9.482  0.1739 -1.1003 -0.4065
  844MOL0     C16353   3.042   6.841   9.519 -0.4271  0.3224 -0.5335
  844MOL0     C16354   3.085   6.732   9.432 -1.2518  0.5957  0.9450
  844MOL0     C16355   3.204   6.780   9.347  0.1802  0.3931  0.3423
  844MOL0     C16356   3.262   6.656   9.275 -0.1137 -0.4883 -0.4044
  844MOL0     C16357   3.352   6.692   9.156 -0.1257  0.2296 -0.6327
  844MOL0     O16358   3.488   6.713   9.190  0.2520  0.5811  0.1156
  844MOL0     C16359   3.582   6.724   9.095 -1.1740  0.8202  0.4800
  844MOL0     C16360   3.562   6.761   8.965  0.8196  0.3350  0.0821
  844MOL0     C16361   3.660   6.786   8.870 -0.1177  0.2626 -0.1289
  844MOL0     C16362   3.607   6.818   8.732 -0.4934  0.7799  0.8416
  844MOL0     C16363   3.797   6.757   8.905 -0.1712  0.7287  0.7378
  844MOL0     C16364   3.905   6.761   8.807 -1.1868 -0.2600  0.5876
  844MOL0     O16365   4.033   6.800   8.856  0.6024  0.0129 -0.0822
  844MOL0     C16366   4.127   6.825   8.761 -0.5318 -0.0687  0.7171
  844MOL0     C16367   4.150   6.952   8.713  0.0780 -0.1245 -0.9473
  844MOL0     C16368   4.258   6.982   8.637  0.5828 -1.1656 -0.0679
  844MOL0     C16369   4.345   6.885   8.592  0.2205  0.8458  0.4758
  844MOL0     O16370   4.446   6.912   8.509  0.2381  0.1170 -0.1993
  844MOL0     C16371   4.532   7.010   8.566 -0.7990  0.2363  0.0476
  844MOL0     C16372   4.674   6.989   8.507  0.3920  0.0017 -0.3923
  844MOL0     C16373   4.772   7.088   8.575  0.0072  0.3540  0.0520
  844MOL0     C16374   4.741   7.227   8.537  0.0066 -0.4507 -0.7789
  844MOL0     C16375   4.869   7.309   8.521  0.1985  0.2624 -0.2824
  844MOL0     C16376   4.966   7.302   8.634 -0.1619  0.2320 -0.4314
  844MOL0     C16377   5.045   7.434   8.641 -0.6093  0.7860 -0.1701
  844MOL0     C16378   5.170   7.427   8.724 -0.2684  0.1512 -0.1720
  844MOL0    Cl16379   5.148   7.424   8.897 -0.2590 -0.0818  0.2266
  844MOL0     C16380   4.311   6.749   8.627 -1.1619  0.0366 -0.5795
  844MOL0     C16381   4.206   6.719   8.708  0.0365  0.2733 -0.3385
  844MOL0     O16382   3.878   6.744   8.681  0.1557 -0.6534 -0.2345
  844MOL0     C16383   3.820   6.722   9.040 -0.0640  0.0670 -0.4303
  844MOL0     C16384   3.717   6.695   9.130 -0.0737 -1.0879  0.2236
  844MOL0     N16385   3.046   6.836   9.654  0.0195  0.0550 -0.5929
  844MOL0     N16386   3.012   6.951   9.708  0.5246  0.1914  0.3518
  844MOL0     C16387   2.258   7.634   9.322 -0.0884 -0.1091  0.0125
  844MOL0     C16388   2.253   7.668   9.190  0.0125 -0.2333 -0.7083
  844MOL0     C16389   2.291   7.641   8.751 -0.7244 -1.1235  0.6046
  844MOL0     C16390   2.175   7.600   8.686 -0.3114  0.8655  0.0332
  844MOL0     C16391   2.161   7.607   8.547 -0.3861  0.0046  0.1777
  844MOL0     C16392   2.257   7.665   8.463 -0.3620 -0.1019  0.3931
  844MOL0     O16393   2.246   7.653   8.324  0.1495 -0.3993  0.6926
  844MOL0     C16394   2.347   7.710   8.231  1.0082 -0.6003 -0.4086
  844MOL0     C16395   2.277   7.727   8.098  0.3602 -0.2012 -0.0473
  844MOL0     C16396   2.241   7.595   8.031 -0.1592  0.3771 -0.0102
  844MOL0     C16397   2.229   7.620   7.873 -0.4605  0.3204  0.3744
  844MOL0     C16398   2.113   7.692   7.835 -0.6769 -0.7537  0.3922
  844MOL0     C16399   2.014   7.754   7.806 -0.4565  0.2414  0.2451
  844MOL0     C16400   2.374   7.712   8.526 -0.5085  0.4420 -0.5181
  844MOL0     C16401   2.394   7.698   8.664  0.0699  0.3026 -0.4516
  844MOL0     C16402   2.529   7.757   8.713  0.1104 -0.1631  0.1855
  844MOL0     H16403   2.098   7.383   9.076  0.4899 -0.0864 -0.1860
  844MOL0     H16404   2.106   7.333   9.318 -3.0922  1.5608 -1.0316
  844MOL0     H16405   2.318   7.313   9.453  0.3709  0.7725 -0.1242
  844MOL0     H16406   2.160   7.276   9.515 -1.0781  0.5167 -0.0771
  844MOL0     H16407   2.247   7.354   9.743  1.8410 -1.6620  1.8675
  844MOL0     H16408   2.317   7.202   9.666 -3.0986 -0.5523 -0.4776
  844MOL0     H16409   2.442   7.493   9.695  0.0547  0.5716  3.9198
  844MOL0     H16410   2.487   7.353   9.792 -1.0314  1.2747  0.9508
  844MOL0     H16411   2.560   7.240   9.574  2.3645  0.1011 -0.5084
  844MOL0     H16412   2.515   7.398   9.502  1.3072  1.1996  1.1569
  844MOL0     H16413   2.724   7.356   9.712 -0.3475 -1.1602 -0.3902
  844MOL0     H16414   2.688   7.510   9.639  2.1399  0.3648 -4.2044
  844MOL0     H16415   2.765   7.393   9.408 -0.7907 -0.1939  0.5529
  844MOL0     H16416   2.890   7.423   9.514  1.4485 -2.9388  2.1903
  844MOL0     H16417   2.870   7.184   9.411 -0.0769 -3.0071  1.0209
  844MOL0     H16418   2.742   7.145   9.520  0.8211 -0.7039  3.4067
  844MOL0     H16419   3.018   7.238   9.569  0.6904 -1.1176  0.8014
  844MOL0     H16420   2.904   7.204   9.708 -2.4898 -1.1445 -0.5492
  844MOL0     H16421   2.962   6.998   9.384  1.2675  0.4661 -0.1487
  844MOL0     H16422   3.001   6.713   9.366  0.6771 -1.3957 -1.1002
  844MOL0     H16423   3.117   6.653   9.500  1.0899  2.8853  2.7279
  844MOL0     H16424   3.172   6.857   9.276 -2.0549  0.0897  0.9347
  844MOL0     H16425   3.282   6.816   9.414  0.4809 -0.6764  0.5915
  844MOL0     H16426   3.317   6.589   9.341  1.7228  2.1101  0.8541
  844MOL0     H16427   3.174   6.613   9.226  0.0793  1.6861 -2.8344
  844MOL0     H16428   3.349   6.613   9.079  2.9400  1.3154 -2.0319
  844MOL0     H16429   3.313   6.786   9.117  0.8549  1.3764  1.0346
  844MOL0     H16430   3.460   6.762   8.928  0.3075 -4.9929  0.6321
  844MOL0     H16431   3.502   6.850   8.728 -0.6987 -0.0013 -1.5973
  844MOL0     H16432   3.617   6.727   8.673  3.7739  2.0504 -0.7644
  844MOL0     H16433   3.671   6.896   8.688  0.4675 -0.9461 -0.9454
  844MOL0     H16434   4.085   7.035   8.740 -0.3551  0.0525 -2.4348
  844MOL0     H16435   4.271   7.085   8.605 -1.4349 -0.9088 -0.1681
  844MOL0     H16436   4.501   7.106   8.523 -3.3303 -0.1010  0.9354
  844MOL0     H16437   4.546   7.007   8.674  0.6029 -0.0859 -0.1220
  844MOL0     H16438   4.711   6.889   8.529 -0.2108  0.2280  1.9218
  844MOL0     H16439   4.682   6.998   8.398  0.0262  1.0389 -0.3505
  844MOL0     H16440   4.877   7.065   8.554  0.4341  1.3488  0.9896
  844MOL0     H16441   4.766   7.072   8.683  1.6572 -0.7140  0.0147
  844MOL0     H16442   4.674   7.276   8.608 -0.4192  0.8480 -2.0510
  844MOL0     H16443   4.696   7.234   8.438 -0.3861  2.5925 -0.4699
  844MOL0     H16444   4.917   7.283   8.426  0.8688  2.0341 -0.4702
  844MOL0     H16445   4.842   7.415   8.512 -0.8534 -0.0717 -1.1819
  844MOL0     H16446   5.041   7.226   8.612  0.6936 -0.0010  2.7638
  844MOL0     H16447   4.911   7.282   8.727 -1.7010 -1.0254 -1.5461
  844MOL0     H16448   4.980   7.516   8.673 -3.2876  0.1658 -3.4543
  844MOL0     H16449   5.075   7.466   8.541 -1.3480  1.2189 -0.2584
  844MOL0     H16450   5.226   7.514   8.689  1.2282 -1.6360 -2.4360
  844MOL0     H16451   5.230   7.340   8.697 -0.8820  0.0246 -1.1754
  844MOL0     H16452   4.375   6.670   8.590 -0.4402  0.9114 -1.2468
  844MOL0     H16453   4.182   6.616   8.736  0.9762 -0.5390 -2.3391
  844MOL0     H16454   3.918   6.695   9.078 -0.2169  0.4579  0.2578
  844MOL0     H16455   3.758   6.660   9.225 -2.4550  0.0154  1.7549
  844MOL0     H16456   2.306   7.699   9.394  0.1104 -1.1674  0.8636
  844MOL0     H16457   2.299   7.761   9.156 -1.8992 -0.2512 -3.7985
  844MOL0     H16458   2.103   7.555   8.753 -0.0819  0.2999 -0.0978
  844MOL0     H16459   2.086   7.553   8.490 -0.4907  2.6807 -2.4996
  844MOL0     H16460   2.391   7.801   8.272 -1.2287 -0.0933  1.0447
  844MOL0     H16461   2.440   7.655   8.210  3.1862  2.5614  0.1901
  844MOL0     H16462   2.355   7.777   8.041 -1.4040  2.8919  0.0330
  844MOL0     H16463   2.191   7.794   8.092  0.5386 -0.0727 -1.6586
  844MOL0     H16464   2.305   7.508   8.042 -0.5168  0.1586  0.3566
  844MOL0     H16465   2.143   7.558   8.065 -0.8959  1.1370 -1.2218
  844MOL0     H16466   2.207   7.523   7.827 -0.5834 -1.0902  3.1781
  844MOL0     H16467   2.321   7.655   7.824  0.6332 -2.2065  0.4660
  844MOL0     H16468   1.917   7.797   7.790 -0.9096 -1.4483 -2.0001
  844MOL0     H16469   2.452   7.747   8.459 -0.7540  0.7330 -0.6539
  844MOL0     H16470   2.552   7.849   8.658 -0.1497  0.3452  0.9132
  844MOL0     H16471   2.536   7.775   8.820 -2.3205  0.5217  0.2953
  844MOL0     H16472   2.606   7.681   8.697 -0.1000 -1.5211  4.3230
  845MOL0     O16473   2.630   5.672  10.677  0.2828  0.2596  0.0581
  845MOL0     C16474   2.681   5.776  10.629 -0.8215  1.4895 -0.4580
  845MOL0     O16475   2.697   5.885  10.698 -0.0139  0.1365 -0.2104
  845MOL0     C16476   2.615   5.917  10.805  0.3493  0.2165 -0.3799
  845MOL0     C16477   2.477   5.890  10.815  1.1099  0.0044  1.0610
  845MOL0     C16478   2.405   5.951  10.911 -0.3669 -0.8635 -0.4839
  845MOL0     C16479   2.459   6.034  11.017 -0.3393  0.4932  0.3550
  845MOL0     O16480   2.395   6.100  11.123 -0.6417  0.2960  0.4891
  845MOL0     C16481   2.257   6.094  11.127 -0.3344  0.1765  0.2871
  845MOL0     C16482   2.194   6.179  11.237 -0.5728  0.0930 -0.0465
  845MOL0     C16483   2.217   6.332  11.222 -0.4014 -0.4812  1.1626
  845MOL0     C16484   2.122   6.418  11.306 -0.1211 -0.3408 -0.3962
  845MOL0     C16485   2.127   6.568  11.268 -0.3484  0.1340 -0.1550
  845MOL0     C16486   2.257   6.637  11.282  0.1966  0.4801 -0.9333
  845MOL0     C16487   2.289   6.651  11.436 -0.6231 -0.1999  0.4133
  845MOL0     C16488   2.394   6.766  11.462 -0.4151  0.1511 -0.6753
  845MOL0     N16489   2.506   6.753  11.380  0.0786  0.6876  0.4116
  845MOL0     C16490   2.588   6.636  11.355  0.2449 -0.5580 -0.9497
  845MOL0     C16491   2.669   6.669  11.255 -0.6465  0.3874 -0.7446
  845MOL0     C16492   2.790   6.584  11.199  0.0803  0.6160  0.5536
  845MOL0     C16493   2.753   6.440  11.149 -0.5517  0.6507  0.4314
  845MOL0     C16494   2.685   6.444  11.011  0.5486 -0.3854 -0.5911
  845MOL0     C16495   2.540   6.504  11.007  0.1226  0.1109 -0.0518
  845MOL0     O16496   2.498   6.512  10.873  0.5443 -0.2370  0.6993
  845MOL0     C16497   2.437   6.402  10.814 -0.2588  1.1274 -0.2771
  845MOL0     C16498   2.300   6.383  10.826  0.4828  0.9633  0.3264
  845MOL0     C16499   2.227   6.276  10.763  0.2414  1.0250 -0.4904
  845MOL0     C16500   2.077   6.266  10.800 -0.7463  0.3633 -0.6323
  845MOL0     C16501   2.304   6.188  10.672 -0.5005 -0.0038  0.0040
  845MOL0     C16502   2.250   6.064  10.609 -0.2442 -0.1077  0.6685
  845MOL0     O16503   2.312   6.030  10.495 -0.0618 -0.2189  1.1507
  845MOL0     C16504   2.305   5.912  10.424  0.4376  0.1130 -0.1911
  845MOL0     C16505   2.236   5.790  10.469  0.1470  0.2857  0.2534
  845MOL0     C16506   2.218   5.679  10.379  0.1453 -0.4699 -0.4639
  845MOL0     C16507   2.277   5.685  10.252  0.3148  0.7945  0.0223
  845MOL0     O16508   2.254   5.579  10.172  0.1533 -0.3185  0.0323
  845MOL0     C16509   2.182   5.606  10.049 -0.5125 -0.1313 -0.6098
  845MOL0     C16510   2.239   5.532   9.937  0.3253 -0.1190  0.5082
  845MOL0     C16511   2.379   5.570   9.881 -0.6219  0.1986  0.2287
  845MOL0     C16512   2.411   5.488   9.757 -0.5924 -0.3814  0.1750
  845MOL0     C16513   2.538   5.538   9.696  1.1338  0.1756 -0.3851
  845MOL0     C16514   2.666   5.514   9.779 -0.1607  0.7265  1.0523
  845MOL0     C16515   2.691   5.366   9.796 -0.2455 -0.2543  0.0286
  845MOL0     C16516   2.805   5.351   9.894  0.1570 -0.4447 -0.2654
  845MOL0    Cl16517   2.821   5.182   9.918 -0.2670 -0.3179 -0.5442
  845MOL0     C16518   2.352   5.799  10.211 -0.1391 -0.2839  0.0333
  845MOL0     C16519   2.361   5.911  10.294 -0.6634 -0.1605 -0.1740
  845MOL0     O16520   2.151   6.003  10.653  0.5721  0.1082 -0.6332
  845MOL0     C16521   2.446   6.211  10.663 -0.0285 -0.0497  0.1115
  845MOL0     C16522   2.510   6.316  10.729  0.3940 -0.0282 -0.3270
  845MOL0     N16523   2.625   6.794  11.212  0.1376 -0.1254  0.1081
  845MOL0     N16524   2.537   6.841  11.289  0.2468  0.0947  0.5744
  845MOL0     C16525   2.599   6.043  11.011  0.0461  0.1303 -0.1426
  845MOL0     C16526   2.675   5.986  10.910 -0.0149  0.4301 -0.7658
  845MOL0     C16527   2.744   5.764  10.497 -0.1577  0.2465 -0.0064
  845MOL0     C16528   2.666   5.787  10.386  0.3816  0.1732  0.3491
  845MOL0     C16529   2.725   5.773  10.261  0.6439 -0.4092  0.6600
  845MOL0     C16530   2.862   5.742  10.242 -0.0101 -0.0335  0.0834
  845MOL0     O16531   2.915   5.722  10.116  0.0651 -0.1846 -0.2962
  845MOL0     C16532   3.044   5.673  10.105  0.4731  0.0083 -0.1737
  845MOL0     C16533   3.059   5.651   9.959  0.3216 -0.3854  0.1408
  845MOL0     C16534   3.190   5.601   9.915 -0.0945 -0.2040 -0.4008
  845MOL0     C16535   3.303   5.706   9.945  0.8228  0.0987  0.4570
  845MOL0     C16536   3.373   5.669  10.066  0.5661  0.4841  0.3320
  845MOL0     C16537   3.419   5.629  10.165 -0.3262 -0.8913 -0.3554
  845MOL0     C16538   2.940   5.716  10.360 -1.6177  0.4869  0.2233
  845MOL0     C16539   2.884   5.738  10.487 -0.2535 -0.5642  0.8358
  845MOL0     C16540   2.965   5.706  10.605  0.1817 -0.2057  0.5196
  845MOL0     H16541   2.432   5.838  10.731 -0.0668  0.0308  1.6430
  845MOL0     H16542   2.298   5.931  10.914 -0.1549 -1.8688  1.4415
  845MOL0     H16543   2.221   5.992  11.143 -1.0160  0.4253  0.3883
  845MOL0     H16544   2.222   6.128  11.029 -2.9927 -2.1517  0.2957
  845MOL0     H16545   2.089   6.150  11.226 -1.1742  1.5416  1.4359
  845MOL0     H16546   2.242   6.150  11.331  3.9497 -0.2526 -2.1663
  845MOL0     H16547   2.321   6.340  11.253  0.0478  0.5018 -0.4422
  845MOL0     H16548   2.218   6.360  11.116  1.0662  2.8080  1.8960
  845MOL0     H16549   2.019   6.389  11.281  0.6434 -2.6831 -1.1814
  845MOL0     H16550   2.135   6.387  11.410  1.8174  1.1220 -0.1410
  845MOL0     H16551   2.054   6.610  11.338  0.9225 -0.8001  1.8503
  845MOL0     H16552   2.096   6.584  11.165  0.4498 -2.9397 -0.9699
  845MOL0     H16553   2.325   6.575  11.223 -1.6358 -1.8326 -0.7742
  845MOL0     H16554   2.252   6.738  11.240  0.7728  0.6571 -0.5914
  845MOL0     H16555   2.316   6.554  11.480  2.0274  0.1468 -0.2618
  845MOL0     H16556   2.205   6.685  11.497  0.5210 -0.6240  2.3295
  845MOL0     H16557   2.346   6.864  11.450  0.0657  0.3072 -1.3776
  845MOL0     H16558   2.437   6.753  11.562  1.2795 -0.5740 -1.4525
  845MOL0     H16559   2.578   6.538  11.399 -1.7907 -0.4981 -1.1621
  845MOL0     H16560   2.856   6.566  11.283 -2.4313 -0.8268  2.3531
  845MOL0     H16561   2.849   6.637  11.123 -1.2505 -2.2020 -2.7537
  845MOL0     H16562   2.846   6.385  11.132 -0.4011  0.3998  1.9917
  845MOL0     H16563   2.693   6.375  11.213  0.3106 -3.2554 -2.3595
  845MOL0     H16564   2.752   6.485  10.935  0.3758 -0.3596 -0.7319
  845MOL0     H16565   2.669   6.338  10.991 -1.2522  0.0352 -1.6755
  845MOL0     H16566   2.471   6.455  11.077  0.7335  0.6589  0.9647
  845MOL0     H16567   2.546   6.608  11.040 -2.6499  0.2416  0.2835
  845MOL0     H16568   2.245   6.435  10.905 -1.9239 -1.0839  0.0982
  845MOL0     H16569   2.006   6.319  10.735 -2.3330 -0.3225  0.4818
  845MOL0     H16570   2.062   6.317  10.895 -0.5288 -1.0408  0.1737
  845MOL0     H16571   2.047   6.161  10.800 -0.5680  0.1411 -4.4817
  845MOL0     H16572   2.188   5.798  10.566 -2.0343  0.5263 -0.7883
  845MOL0     H16573   2.153   5.597  10.410  0.3546  0.0589  1.5273
  845MOL0     H16574   2.075   5.593  10.069 -0.1550  1.2862  2.9424
  845MOL0     H16575   2.192   5.714  10.031 -2.0622  0.3027  0.8707
  845MOL0     H16576   2.248   5.428   9.969  0.1247  0.7354  3.6668
  845MOL0     H16577   2.163   5.545   9.860 -0.1054  3.0400  1.3233
  845MOL0     H16578   2.449   5.546   9.962 -0.0205 -0.5661 -0.4888
  845MOL0     H16579   2.394   5.676   9.857 -0.3352 -0.1199 -1.0795
  845MOL0     H16580   2.328   5.491   9.686 -1.5897  1.5253  1.3215
  845MOL0     H16581   2.421   5.382   9.780  1.1894 -0.8145 -2.1926
  845MOL0     H16582   2.543   5.486   9.600  2.0550 -0.1977 -0.1477
  845MOL0     H16583   2.529   5.645   9.673  2.2297  0.3011 -0.2720
  845MOL0     H16584   2.647   5.565   9.874  1.6346  0.2671  1.7048
  845MOL0     H16585   2.754   5.558   9.730  0.5403 -3.7185 -2.4314
  845MOL0     H16586   2.696   5.321   9.696  0.1768 -0.8638  0.3185
  845MOL0     H16587   2.605   5.317   9.844 -1.5320  0.5894 -1.3256
  845MOL0     H16588   2.784   5.401   9.989  0.3156  0.1866 -0.5634
  845MOL0     H16589   2.888   5.403   9.845 -1.6187  2.0404 -0.7947
  845MOL0     H16590   2.399   5.810  10.114 -1.0764  2.5554 -0.1917
  845MOL0     H16591   2.416   5.997  10.257  3.1636 -2.0493  0.6346
  845MOL0     H16592   2.514   6.155  10.600  1.9844  2.3079 -0.0040
  845MOL0     H16593   2.616   6.338  10.722  0.1630  1.1289 -0.3751
  845MOL0     H16594   2.649   6.094  11.093 -1.4739 -0.0536  0.9344
  845MOL0     H16595   2.782   6.003  10.920 -0.4206  2.1587  1.6348
  845MOL0     H16596   2.559   5.805  10.393  0.8531  2.5681  3.1792
  845MOL0     H16597   2.676   5.801  10.168 -1.9576  0.1556  2.0927
  845MOL0     H16598   3.115   5.751  10.136 -0.7587  0.9265  0.4498
  845MOL0     H16599   3.062   5.578  10.156 -0.0965  1.0375  2.0631
  845MOL0     H16600   3.033   5.742   9.904  0.4449  0.9540  2.2024
  845MOL0     H16601   2.994   5.572   9.921 -0.5032 -0.6481  2.0287
  845MOL0     H16602   3.207   5.499   9.950 -1.7847 -0.4853 -0.3268
  845MOL0     H16603   3.174   5.597   9.807 -2.5037  0.3857 -0.1193
  845MOL0     H16604   3.268   5.809   9.954  3.4303  0.9274  2.4104
  845MOL0     H16605   3.374   5.703   9.862  2.3209 -0.5487  1.6861
  845MOL0     H16606   3.455   5.592  10.259 -1.7297  0.1537  0.6288
  845MOL0     H16607   3.040   5.674  10.353 -2.5263 -1.8459  0.0632
  845MOL0     H16608   2.960   5.787  10.678 -1.2249 -2.0760  2.6557
  845MOL0     H16609   2.914   5.618  10.645  2.4824 -1.5868  0.6144
  845MOL0     H16610   3.070   5.685  10.579  1.4283  4.7508  0.6051
  846MOL0     O16611   7.145  10.432   4.043 -0.3952 -0.1484 -0.1675
  846MOL0     C16612   7.170  10.393   4.160  0.6347  0.0676  0.3876
  846MOL0     O16613   7.297  10.408   4.225 -0.3223 -0.2847  0.0976
  846MOL0     C16614   7.374  10.504   4.166  0.3024  1.1597 -0.2428
  846MOL0     C16615   7.474  10.457   4.078 -0.0725 -0.7059  0.2317
  846MOL0     C16616   7.554  10.552   4.010 -0.0992  0.4524 -0.6857
  846MOL0     C16617   7.542  10.687   4.030  0.7395 -0.1840  0.3790
  846MOL0     O16618   7.625  10.776   3.964 -0.1260 -0.2999  0.1235
  846MOL0     C16619   7.724  10.835   4.038 -0.1883 -0.5191  0.2162
  846MOL0     C16620   7.826  10.724   4.092 -1.0428 -0.1174  0.9921
  846MOL0     C16621   7.951  10.797   4.145  0.2157  0.5107  0.7141
  846MOL0     C16622   8.063  10.698   4.191 -0.5085  0.6657  0.3589
  846MOL0     C16623   8.196  10.787   4.206 -0.3668  0.3361  0.4754
  846MOL0     C16624   8.300  10.684   4.276  0.3429 -0.1106  0.2494
  846MOL0     C16625   8.438  10.754   4.295 -0.7298 -0.3051 -0.3338
  846MOL0     C16626   8.535  10.654   4.342  0.8000  0.1292 -0.1089
  846MOL0     N16627   8.672  10.709   4.333 -0.5603 -0.0554 -0.4683
  846MOL0     C16628   8.718  10.815   4.410  0.5364  0.8234 -0.7892
  846MOL0     C16629   8.858  10.793   4.389  0.5519  0.4355 -1.0369
  846MOL0     C16630   8.970  10.868   4.452  0.1018 -0.4017  0.4083
  846MOL0     C16631   8.999  11.008   4.384  0.0588  0.1233  0.0944
  846MOL0     C16632   9.058  10.993   4.234  0.5953  0.0517  0.2676
  846MOL0     C16633   9.212  10.993   4.240 -0.0630 -0.7077  0.0415
  846MOL0     O16634   9.255  10.882   4.325 -0.6808 -0.0707 -0.3475
  846MOL0     C16635   9.382  10.834   4.311 -0.4021 -0.5183 -0.5842
  846MOL0     C16636   9.479  10.893   4.227 -0.5356  0.8312 -0.3051
  846MOL0     C16637   9.594  10.818   4.191  0.4876  0.6605  0.0892
  846MOL0     C16638   9.676  10.879   4.082 -0.2162 -0.6319  0.0245
  846MOL0     C16639   9.629  10.705   4.266 -0.0566  0.4720  0.9163
  846MOL0     C16640   9.765  10.637   4.253  0.1468  0.6754 -0.4943
  846MOL0     O16641   9.858  10.681   4.160 -0.6874 -0.4399  0.3566
  846MOL0     C16642   9.996  10.683   4.174 -0.9169  0.5662 -0.0128
  846MOL0     C16643  10.081  10.694   4.063  0.5958  0.2471  0.0527
  846MOL0     C16644  10.221  10.696   4.080  0.9953 -0.1222 -0.3494
  846MOL0     C16645  10.277  10.691   4.215  0.0338  0.3195  0.5030
  846MOL0     O16646  10.405  10.694   4.258 -0.3146 -0.3952  0.3030
  846MOL0     C16647  10.493  10.772   4.172  0.4249  0.1960 -0.0182
  846MOL0     C16648  10.615  10.794   4.248 -0.6647 -0.2083  0.0007
  846MOL0     C16649  10.704  10.662   4.257 -0.6140  0.6964  0.4100
  846MOL0     C16650  10.844  10.695   4.320  0.5074 -0.2427 -0.0643
  846MOL0     C16651  10.933  10.575   4.333 -0.4073  1.1800  0.7469
  846MOL0     C16652  11.072  10.611   4.383 -0.0641  0.4147  0.4838
  846MOL0     C16653  11.167  10.490   4.399  0.6434 -0.6903  0.7460
  846MOL0     C16654  11.293  10.527   4.479 -0.1185 -0.9260 -0.3679
  846MOL0    Cl16655  11.368  10.371   4.526 -0.9390  0.1401  0.0952
  846MOL0     C16656  10.191  10.682   4.323  0.0481  0.1386  0.6535
  846MOL0     C16657  10.059  10.682   4.299  0.0956  0.4430 -0.5655
  846MOL0     O16658   9.785  10.541   4.335 -1.0133  0.1728  0.4523
  846MOL0     C16659   9.541  10.653   4.351 -0.1829  1.0862 -0.7419
  846MOL0     C16660   9.420  10.714   4.368 -0.0958 -0.6594  0.5410
  846MOL0     N16661   8.883  10.691   4.301 -0.9138 -0.2178 -0.1281
  846MOL0     N16662   8.777  10.630   4.283  1.2154  0.0035 -0.3162
  846MOL0     C16663   7.445  10.728   4.124 -1.1469  0.0984 -0.2660
  846MOL0     C16664   7.360  10.639   4.192 -0.1808 -0.1968 -0.6024
  846MOL0     C16665   7.067  10.310   4.240 -0.0438 -0.9812  1.1685
  846MOL0     C16666   6.934  10.347   4.212 -0.0378 -0.5227  0.2554
  846MOL0     C16667   6.832  10.289   4.283  1.3382 -0.1951  0.7398
  846MOL0     C16668   6.852  10.204   4.387 -0.0637 -0.2121 -0.6697
  846MOL0     O16669   6.756  10.139   4.457  1.3837 -0.5383 -0.0562
  846MOL0     C16670   6.617  10.179   4.434  0.3280 -0.4038 -0.0117
  846MOL0     C16671   6.573  10.104   4.310 -0.6806  0.2226  0.3153
  846MOL0     C16672   6.461  10.188   4.240  0.1909  0.5563  0.5098
  846MOL0     C16673   6.407  10.122   4.114  0.7234 -0.2728 -1.0140
  846MOL0     C16674   6.315  10.014   4.152 -0.0514 -0.0690  0.1251
  846MOL0     C16675   6.239   9.926   4.183  0.3360  0.6346  0.1966
  846MOL0     C16676   6.981  10.173   4.417  0.1749  0.1558  0.2257
  846MOL0     C16677   7.084  10.220   4.342 -0.2792  0.3364 -0.2057
  846MOL0     C16678   7.222  10.162   4.374  0.0586  1.2165  0.2338
  846MOL0     H16679   7.485  10.350   4.059 -1.0911 -1.1263  1.7832
  846MOL0     H16680   7.629  10.509   3.945 -0.3395 -1.8070  0.4369
  846MOL0     H16681   7.685  10.896   4.120  2.5988  3.6483 -1.2247
  846MOL0     H16682   7.783  10.902   3.975  1.3265  0.4991  2.5782
  846MOL0     H16683   7.795  10.675   4.185  0.3647 -0.7471  1.1650
  846MOL0     H16684   7.855  10.653   4.014  1.0012  0.1348  1.4666
  846MOL0     H16685   7.986  10.860   4.063  1.2340 -1.2323 -0.2584
  846MOL0     H16686   7.927  10.855   4.234 -1.5638  0.8039  0.0807
  846MOL0     H16687   8.036  10.664   4.292  1.1182  0.2788  0.7033
  846MOL0     H16688   8.075  10.625   4.110 -1.3082  0.4411  0.4331
  846MOL0     H16689   8.168  10.878   4.261  0.0251  2.1397 -2.1473
  846MOL0     H16690   8.231  10.825   4.110 -0.5626  2.0250  1.0378
  846MOL0     H16691   8.255  10.639   4.364  2.2132 -0.6448  0.9836
  846MOL0     H16692   8.313  10.596   4.211 -1.9947 -1.5340  1.5749
  846MOL0     H16693   8.431  10.820   4.382  1.3562  1.7506 -1.6110
  846MOL0     H16694   8.472  10.805   4.204  3.0451 -1.6335  0.1464
  846MOL0     H16695   8.513  10.612   4.441  2.0485 -0.3151 -0.0131
  846MOL0     H16696   8.542  10.567   4.276  2.6858  0.0287  0.1811
  846MOL0     H16697   8.661  10.884   4.472 -1.6835 -1.1512 -0.4883
  846MOL0     H16698   9.054  10.801   4.431 -1.1577 -1.8993 -0.0560
  846MOL0     H16699   8.962  10.881   4.560  0.5919  1.5481  0.2469
  846MOL0     H16700   8.910  11.071   4.375  0.4317  0.5151 -1.1131
  846MOL0     H16701   9.072  11.061   4.445 -0.6046  0.2121  0.8227
  846MOL0     H16702   9.019  10.899   4.194  1.6278 -0.0921 -0.4372
  846MOL0     H16703   9.040  11.075   4.163 -1.7219 -0.3719  0.2932
  846MOL0     H16704   9.242  10.980   4.136  1.4569  2.6230 -0.0721
  846MOL0     H16705   9.246  11.085   4.288  3.0337 -0.8441 -1.5862
  846MOL0     H16706   9.462  10.986   4.174  2.9509  1.1449 -1.0835
  846MOL0     H16707   9.723  10.808   4.013  1.5313 -0.7932  1.3173
  846MOL0     H16708   9.768  10.926   4.118 -0.6550  1.4803 -1.4090
  846MOL0     H16709   9.610  10.950   4.030  0.4160 -0.0519 -0.0015
  846MOL0     H16710  10.039  10.703   3.963  0.3120  0.9007  0.2268
  846MOL0     H16711  10.289  10.700   3.995  2.0043 -1.6892  0.3472
  846MOL0     H16712  10.518  10.722   4.078  0.5920  0.6139 -0.1954
  846MOL0     H16713  10.444  10.863   4.137 -0.3495 -0.5629 -0.9890
  846MOL0     H16714  10.682  10.854   4.185  2.1984 -1.2873  1.8230
  846MOL0     H16715  10.604  10.846   4.343  2.1670  1.3007 -0.3788
  846MOL0     H16716  10.731  10.622   4.159  1.8472  2.0492  0.4605
  846MOL0     H16717  10.649  10.587   4.314 -0.1546 -1.2490 -1.5852
  846MOL0     H16718  10.831  10.730   4.423  1.2440 -2.0301  0.6837
  846MOL0     H16719  10.899  10.769   4.261  0.8132  0.0683  0.5977
  846MOL0     H16720  10.885  10.502   4.398  1.3429  2.4197  3.6554
  846MOL0     H16721  10.953  10.528   4.236  2.7082  0.0238  1.8208
  846MOL0     H16722  11.056  10.657   4.481  2.4674  0.0239  1.1605
  846MOL0     H16723  11.112  10.687   4.316  0.9489 -0.9190 -0.4755
  846MOL0     H16724  11.195  10.460   4.298  2.6289  2.2191  0.3253
  846MOL0     H16725  11.111  10.414   4.454  0.7238 -2.0217 -0.9162
  846MOL0     H16726  11.263  10.597   4.557  1.0699  1.2652 -1.7702
  846MOL0     H16727  11.357  10.594   4.421 -1.6313  3.9781  2.9770
  846MOL0     H16728  10.230  10.670   4.423  1.4912 -2.7082 -0.1339
  846MOL0     H16729   9.995  10.682   4.386 -0.8862 -1.4211 -1.2227
  846MOL0     H16730   9.563  10.569   4.417 -0.1218  2.1526  0.6565
  846MOL0     H16731   9.349  10.664   4.434  0.0039 -2.1793 -0.4481
  846MOL0     H16732   7.420  10.830   4.147  0.3152  0.1208  1.4852
  846MOL0     H16733   7.285  10.676   4.261  0.5086  3.5053 -1.6049
  846MOL0     H16734   6.909  10.421   4.137 -1.7706 -0.6651  0.6706
  846MOL0     H16735   6.731  10.307   4.247  1.0635 -2.1090  0.4761
  846MOL0     H16736   6.563  10.154   4.526 -1.4521 -0.6166 -1.0717
  846MOL0     H16737   6.603  10.287   4.424  1.3191 -0.3874 -1.5101
  846MOL0     H16738   6.536  10.009   4.349 -3.1871 -0.0293 -2.2851
  846MOL0     H16739   6.649  10.082   4.234 -2.1368  0.1458 -1.1949
  846MOL0     H16740   6.384  10.204   4.316 -1.4350 -1.6585 -0.5592
  846MOL0     H16741   6.492  10.291   4.220  0.0930  1.1215  2.9149
  846MOL0     H16742   6.479  10.084   4.041 -0.3668  0.6349 -2.6347
  846MOL0     H16743   6.350  10.196   4.057  1.1494 -0.6711 -1.9666
  846MOL0     H16744   6.190   9.837   4.217  0.3275  0.1496 -1.0433
  846MOL0     H16745   7.009  10.114   4.504  1.1813 -3.0807 -2.0909
  846MOL0     H16746   7.300  10.178   4.299 -1.8210 -0.6400 -2.2821
  846MOL0     H16747   7.263  10.202   4.467  1.0025  2.2200 -0.5712
  846MOL0     H16748   7.208  10.054   4.368 -2.2142  1.5219 -1.9738
  847MOL0     O16749   1.998   9.030   0.475 -0.1494 -0.6389 -0.8180
  847MOL0     C16750   1.962   9.015   0.592 -0.1890  0.0094 -0.3853
  847MOL0     O16751   2.029   9.047   0.706  0.6830  0.0332  0.0649
  847MOL0     C16752   2.165   9.057   0.682  0.1747  0.8098  0.1604
  847MOL0     C16753   2.249   8.945   0.700 -0.8261 -0.7118  0.5452
  847MOL0     C16754   2.384   8.955   0.677 -0.1196 -0.2751 -0.1181
  847MOL0     C16755   2.438   9.083   0.643  0.0079  0.1962  0.3450
  847MOL0     O16756   2.570   9.108   0.614  0.6084  0.4634  0.3945
  847MOL0     C16757   2.651   8.992   0.601  0.0475  0.2312  0.1189
  847MOL0     C16758   2.738   8.969   0.728  0.0690  0.0584 -0.7950
  847MOL0     C16759   2.829   9.083   0.764  0.7543  0.4379  0.0649
  847MOL0     C16760   2.890   9.055   0.906  0.5023  0.1733  0.1388
  847MOL0     C16761   3.011   9.135   0.945 -0.0940 -1.0179  0.1588
  847MOL0     C16762   3.001   9.285   0.928 -0.3254  0.3329 -0.3615
  847MOL0     C16763   3.120   9.363   1.002 -0.2268 -0.7327  0.2070
  847MOL0     C16764   3.083   9.513   1.031 -0.9313  0.3189 -0.0561
  847MOL0     N16765   3.068   9.589   0.905 -0.6730  0.2960  0.9152
  847MOL0     C16766   3.158   9.600   0.802 -0.6998  0.7412  0.4179
  847MOL0     C16767   3.094   9.689   0.722 -0.7007  0.1089 -0.0466
  847MOL0     C16768   3.156   9.732   0.592  0.7416 -0.1080 -0.5872
  847MOL0     C16769   3.267   9.843   0.599 -0.3248 -0.2696 -0.3374
  847MOL0     C16770   3.333   9.856   0.454  0.3118 -0.7426  0.2674
  847MOL0     C16771   3.450   9.950   0.459 -0.2178 -0.0348  0.7937
  847MOL0     O16772   3.511   9.926   0.336 -0.9652 -0.0546  0.6489
  847MOL0     C16773   3.647   9.920   0.339 -0.0402  0.2199  0.7741
  847MOL0     C16774   3.703   9.857   0.229  0.0386 -0.0979  0.4269
  847MOL0     C16775   3.842   9.855   0.212  0.2159  0.6703 -0.8120
  847MOL0     C16776   3.882   9.770   0.099 -0.4482  0.4665  0.0980
  847MOL0     C16777   3.927   9.923   0.301 -0.2616 -0.0204  1.2180
  847MOL0     C16778   4.076   9.926   0.274  0.8631  0.9481  1.2369
  847MOL0     O16779   4.133  10.027   0.338 -0.1030  0.8762  0.1201
  847MOL0     C16780   4.262  10.065   0.316  0.4464 -0.2744  0.0748
  847MOL0     C16781   4.360   9.970   0.342 -0.9442  0.4467 -0.1450
  847MOL0     C16782   4.493  10.011   0.337 -0.0725  0.4208  0.4343
  847MOL0     C16783   4.528  10.144   0.326 -0.0525  0.9330  0.0779
  847MOL0     O16784   4.657  10.188   0.340 -0.1949  0.5139  0.2341
  847MOL0     C16785   4.688  10.209   0.481  0.6364  0.4329  1.5943
  847MOL0     C16786   4.835  10.231   0.491 -0.4149  0.1479 -0.1518
  847MOL0     C16787   4.912  10.113   0.421  0.4964 -0.6493  0.4053
  847MOL0     C16788   5.060  10.127   0.463 -0.2386 -1.0296  0.3294
  847MOL0     C16789   5.147  10.019   0.390  0.1673  0.0984 -0.4004
  847MOL0     C16790   5.295  10.031   0.427 -0.0163 -0.0366  0.2282
  847MOL0     C16791   5.377   9.925   0.356  0.2124  1.1021 -0.8166
  847MOL0     C16792   5.520   9.926   0.407  0.7822  0.0922 -0.2977
  847MOL0    Cl16793   5.620  10.063   0.375  0.1061 -0.5769 -0.2138
  847MOL0     C16794   4.426  10.232   0.297  0.3420  0.5642 -0.2782
  847MOL0     C16795   4.286  10.191   0.290 -0.4717 -1.0024 -0.0484
  847MOL0     O16796   4.133   9.844   0.199  0.1732  0.6114  0.3412
  847MOL0     C16797   3.866   9.998   0.397 -0.1080 -0.3238  0.1864
  847MOL0     C16798   3.725   9.998   0.425 -0.8248 -0.1228  0.8979
  847MOL0     N16799   2.972   9.739   0.774 -0.4520  0.3538 -0.3588
  847MOL0     N16800   2.960   9.667   0.882 -0.1869  0.1840 -0.4916
  847MOL0     C16801   2.355   9.197   0.631  0.4296  0.3559  0.1070
  847MOL0     C16802   2.222   9.179   0.642 -0.0935  0.8539 -0.0723
  847MOL0     C16803   1.821   8.955   0.610  0.1523  0.2639 -0.0558
  847MOL0     C16804   1.754   8.974   0.736 -0.0957 -0.0673  0.0617
  847MOL0     C16805   1.621   8.943   0.753 -0.2972 -0.1022  0.4105
  847MOL0     C16806   1.544   8.891   0.643  0.6099 -0.6314 -0.8150
  847MOL0     O16807   1.416   8.863   0.663  0.2169  0.1044  0.6066
  847MOL0     C16808   1.334   8.928   0.768 -0.3233  0.1178 -0.2159
  847MOL0     C16809   1.190   8.888   0.758 -0.4740 -0.3648  0.0968
  847MOL0     C16810   1.097   8.957   0.863 -0.6497  0.2282  0.5633
  847MOL0     C16811   0.951   8.930   0.829  0.5667  0.1291  0.3315
  847MOL0     C16812   0.856   8.984   0.929 -0.1001 -0.0627  0.1236
  847MOL0     C16813   0.787   9.044   1.008  0.2497  0.0033  0.9519
  847MOL0     C16814   1.607   8.869   0.526 -0.9702  0.2909  0.6740
  847MOL0     C16815   1.750   8.888   0.513 -0.2801 -0.5693  0.4967
  847MOL0     C16816   1.825   8.821   0.392 -0.2460 -1.2342 -0.7077
  847MOL0     H16817   2.216   8.845   0.724 -2.7358 -0.0264  0.9446
  847MOL0     H16818   2.434   8.864   0.707 -1.2493 -0.4233  1.4414
  847MOL0     H16819   2.716   9.013   0.516 -1.8928  1.2811 -1.1564
  847MOL0     H16820   2.604   8.897   0.574  0.3880  0.2832 -0.6765
  847MOL0     H16821   2.682   8.940   0.817 -0.1557  2.4144 -0.1144
  847MOL0     H16822   2.807   8.888   0.701 -1.3884 -1.1326 -1.0563
  847MOL0     H16823   2.898   9.103   0.681 -1.3062  2.0902 -1.3697
  847MOL0     H16824   2.758   9.166   0.767  0.4421  0.1772 -0.0239
  847MOL0     H16825   2.817   9.055   0.988 -0.0094  1.3774 -0.2927
  847MOL0     H16826   2.917   8.949   0.908  1.5949  0.4304  1.9594
  847MOL0     H16827   3.090   9.089   0.885 -0.2089  0.8539 -1.5713
  847MOL0     H16828   3.031   9.116   1.050  0.1202 -2.2290 -0.0938
  847MOL0     H16829   2.985   9.317   0.824 -1.0736  2.1404  0.2725
  847MOL0     H16830   2.913   9.320   0.983  1.1922 -1.8939  3.9346
  847MOL0     H16831   3.208   9.353   0.939 -0.9338  2.8305 -1.5787
  847MOL0     H16832   3.142   9.318   1.100  1.8491 -0.3169 -0.0293
  847MOL0     H16833   2.990   9.522   1.089  0.1103 -0.4264  1.7947
  847MOL0     H16834   3.159   9.560   1.094 -1.5353  0.0240  0.9256
  847MOL0     H16835   3.250   9.546   0.784 -1.1586 -0.2379  0.8994
  847MOL0     H16836   3.073   9.774   0.536 -3.8911 -3.7541  2.7288
  847MOL0     H16837   3.187   9.639   0.543  1.2499 -0.3506  0.1642
  847MOL0     H16838   3.231   9.941   0.631 -0.4274  0.0632 -1.4388
  847MOL0     H16839   3.334   9.804   0.677 -1.8460 -2.2251  0.0555
  847MOL0     H16840   3.364   9.755   0.427 -1.7379 -1.8626  1.8216
  847MOL0     H16841   3.255   9.898   0.389  0.0164 -2.6100 -0.6733
  847MOL0     H16842   3.407  10.050   0.464 -1.9145 -0.4871 -2.3154
  847MOL0     H16843   3.515   9.923   0.542  0.1604 -1.3602  0.0989
  847MOL0     H16844   3.636   9.795   0.170  0.6534  0.4357 -0.8811
  847MOL0     H16845   3.923   9.680   0.146 -0.4750  0.5908  0.3643
  847MOL0     H16846   3.955   9.820   0.035 -0.0490  0.0537  0.2228
  847MOL0     H16847   3.803   9.742   0.029  1.4737 -0.1965 -1.9267
  847MOL0     H16848   4.337   9.868   0.371 -0.0069  0.8536  2.2907
  847MOL0     H16849   4.575   9.940   0.349 -0.0534 -0.5399 -3.7569
  847MOL0     H16850   4.642  10.296   0.531  1.3268  1.8911 -0.1941
  847MOL0     H16851   4.661  10.118   0.535  2.9470 -2.2076 -1.3823
  847MOL0     H16852   4.854  10.320   0.431 -1.5361  0.2807 -0.3252
  847MOL0     H16853   4.856  10.253   0.597  0.5502  0.4618 -0.3993
  847MOL0     H16854   4.906  10.117   0.312  0.9885  0.1688  0.3973
  847MOL0     H16855   4.877  10.014   0.449  1.3197 -0.9791  0.2758
  847MOL0     H16856   5.067  10.116   0.572 -1.2528 -0.3549  0.4760
  847MOL0     H16857   5.099  10.224   0.430  1.1018 -1.4575  0.5831
  847MOL0     H16858   5.119   9.917   0.417  1.6281 -0.1458  0.2534
  847MOL0     H16859   5.138  10.033   0.281 -1.7058  1.9430 -0.0769
  847MOL0     H16860   5.304  10.031   0.536  1.3306  2.4738  0.1871
  847MOL0     H16861   5.334  10.127   0.392  1.3897 -1.4354 -2.3315
  847MOL0     H16862   5.371   9.932   0.247 -0.1215  0.6175 -0.8348
  847MOL0     H16863   5.327   9.828   0.367 -0.1953  1.5065  1.3254
  847MOL0     H16864   5.553   9.836   0.355 -0.4800 -0.3341 -0.4017
  847MOL0     H16865   5.532   9.900   0.513  0.6686  0.7171 -0.1299
  847MOL0     H16866   4.451  10.336   0.281  1.7631  0.4344  0.9043
  847MOL0     H16867   4.209  10.265   0.268 -0.2167 -1.1274 -1.4269
  847MOL0     H16868   3.923  10.076   0.447 -1.3060  1.3185 -0.8703
  847MOL0     H16869   3.699  10.056   0.513  1.0287  1.8419  0.2514
  847MOL0     H16870   2.395   9.292   0.599 -0.9804  0.3312 -1.9696
  847MOL0     H16871   2.150   9.259   0.622  1.5175  2.8136  1.5166
  847MOL0     H16872   1.800   9.031   0.816 -0.9735  0.3109  0.3070
  847MOL0     H16873   1.580   8.956   0.853 -0.0723 -0.4629  0.5534
  847MOL0     H16874   1.364   8.903   0.870 -3.3847  1.5918  1.1879
  847MOL0     H16875   1.349   9.036   0.753 -2.0457  0.4594  0.3660
  847MOL0     H16876   1.183   8.780   0.778  0.9603 -0.4802  0.1156
  847MOL0     H16877   1.166   8.907   0.653  1.4874  2.2153  0.0108
  847MOL0     H16878   1.107   8.903   0.958  2.4122  0.0603  0.2295
  847MOL0     H16879   1.132   9.061   0.868  2.8386 -0.7769 -0.2402
  847MOL0     H16880   0.931   8.823   0.817  1.1451 -0.0289  0.7281
  847MOL0     H16881   0.940   8.975   0.731  2.2471  2.0009  0.9362
  847MOL0     H16882   0.729   9.105   1.075 -0.3770 -1.2975  1.6310
  847MOL0     H16883   1.569   8.821   0.436  2.0837 -2.5306  0.7053
  847MOL0     H16884   1.765   8.741   0.348  1.2169 -2.7162 -0.1108
  847MOL0     H16885   1.836   8.894   0.311 -0.3457 -1.1695 -0.6623
  847MOL0     H16886   1.918   8.771   0.422 -0.4604 -1.0498  0.2932
  848MOL0     O16887   6.023   7.692   8.422  0.2050  0.2534 -0.1037
  848MOL0     C16888   5.936   7.718   8.501  0.4809 -1.0341 -0.0473
  848MOL0     O16889   5.954   7.749   8.632 -0.5871  0.5151 -0.5375
  848MOL0     C16890   6.072   7.747   8.703  0.6685  0.3507  0.9186
  848MOL0     C16891   6.202   7.788   8.656  0.1541 -0.5787 -0.4944
  848MOL0     C16892   6.312   7.779   8.738 -0.1850  0.2967 -0.1568
  848MOL0     C16893   6.306   7.725   8.862  0.0313  0.4441 -0.1936
  848MOL0     O16894   6.415   7.712   8.937 -0.1788  0.6023 -0.4793
  848MOL0     C16895   6.519   7.815   8.934 -0.4499  0.0683  0.4229
  848MOL0     C16896   6.464   7.934   9.014  0.5927 -0.1845 -0.4930
  848MOL0     C16897   6.558   8.055   9.035  0.8395  0.4703  0.1587
  848MOL0     C16898   6.662   8.011   9.144  0.0094  0.3459  0.4252
  848MOL0     C16899   6.792   8.084   9.119 -0.3884  0.5214 -0.1051
  848MOL0     C16900   6.803   8.222   9.201  0.3952  1.3362  0.6786
  848MOL0     C16901   6.945   8.274   9.239 -0.0492  0.1860 -0.1611
  848MOL0     C16902   7.007   8.332   9.109 -0.6229 -0.2836 -0.1141
  848MOL0     N16903   7.142   8.387   9.132 -0.2785  0.2612 -0.6679
  848MOL0     C16904   7.173   8.513   9.085  0.1124  0.1288 -0.5397
  848MOL0     C16905   7.307   8.531   9.122  1.2339 -0.3012  0.4299
  848MOL0     C16906   7.387   8.661   9.099 -0.3244  0.2151  0.4256
  848MOL0     C16907   7.391   8.752   9.213  0.0191 -0.1496 -0.6827
  848MOL0     C16908   7.454   8.887   9.178 -1.1892  1.0452  0.1766
  848MOL0     C16909   7.452   8.979   9.297  0.4836  0.1671  0.0400
  848MOL0     O16910   7.562   9.065   9.290  0.6432 -0.1840 -0.9072
  848MOL0     C16911   7.687   9.015   9.320  0.2260 -0.1024  0.1939
  848MOL0     C16912   7.792   9.097   9.293  0.0528 -0.0200 -0.4556
  848MOL0     C16913   7.926   9.057   9.310  0.0592 -0.6068 -0.4547
  848MOL0     C16914   8.030   9.148   9.257  0.0214  0.3806 -0.3700
  848MOL0     C16915   7.959   8.928   9.364  0.5028  0.1919  0.5354
  848MOL0     C16916   8.094   8.868   9.388 -0.6807  0.4662  0.3047
  848MOL0     O16917   8.109   8.735   9.417  0.5893 -0.9734 -0.1197
  848MOL0     C16918   8.231   8.700   9.479 -0.2231  0.2857  0.7035
  848MOL0     C16919   8.307   8.591   9.421 -1.1137 -0.1600  0.0204
  848MOL0     C16920   8.423   8.549   9.493  0.0444  0.0675  0.1184
  848MOL0     C16921   8.466   8.620   9.606 -0.2305  1.0086 -0.4087
  848MOL0     O16922   8.572   8.581   9.675  0.1430 -0.2363  0.6698
  848MOL0     C16923   8.660   8.476   9.632  1.1105 -0.8110  0.0639
  848MOL0     C16924   8.778   8.478   9.731  0.6650  0.9476  0.0881
  848MOL0     C16925   8.885   8.390   9.684 -0.7134  0.2083  0.1652
  848MOL0     C16926   9.011   8.377   9.771  0.3172 -0.2760 -0.9518
  848MOL0     C16927   9.106   8.259   9.732 -0.3459  0.0313  0.1960
  848MOL0     C16928   9.217   8.245   9.848  0.5536 -0.5762  0.1448
  848MOL0     C16929   9.150   8.173   9.974  0.5393 -0.4340  0.1643
  848MOL0     C16930   9.265   8.132  10.078 -0.6416 -0.3222  0.2598
  848MOL0    Cl16931   9.353   7.993  10.030 -0.0129 -0.0359 -0.3492
  848MOL0     C16932   8.393   8.729   9.648  0.2603  0.7226 -0.1943
  848MOL0     C16933   8.273   8.765   9.592 -0.1780  0.0363 -0.0166
  848MOL0     O16934   8.187   8.955   9.403 -0.0907  0.1641 -0.1252
  848MOL0     C16935   7.849   8.846   9.395 -0.2481 -0.0672 -0.2585
  848MOL0     C16936   7.719   8.886   9.367 -0.7848  0.1266 -0.3084
  848MOL0     N16937   7.343   8.408   9.184  0.1002 -0.0218 -0.0479
  848MOL0     N16938   7.240   8.338   9.208 -0.9455  0.1990  1.0007
  848MOL0     C16939   6.188   7.665   8.904 -0.2201 -1.0910 -0.0716
  848MOL0     C16940   6.072   7.675   8.830 -0.4517  0.3487  0.7772
  848MOL0     C16941   5.802   7.713   8.434  0.2381  0.2827  0.2048
  848MOL0     C16942   5.782   7.653   8.308 -0.0478 -0.9550 -0.0113
  848MOL0     C16943   5.657   7.623   8.263 -0.2264  0.5283 -0.4674
  848MOL0     C16944   5.549   7.645   8.344 -0.3459  0.3709 -0.2270
  848MOL0     O16945   5.421   7.614   8.306  0.3544 -0.6652 -0.6330
  848MOL0     C16946   5.401   7.526   8.203 -0.8767 -0.1414 -0.3646
  848MOL0     C16947   5.250   7.506   8.193  1.1684 -0.2428  0.0309
  848MOL0     C16948   5.209   7.397   8.095 -0.9817 -0.4063 -0.0207
  848MOL0     C16949   5.064   7.360   8.110  0.2212  0.4497  0.0793
  848MOL0     C16950   4.990   7.479   8.073 -0.4058 -0.7107  0.3805
  848MOL0     C16951   4.935   7.583   8.055  0.4040  0.0665  0.1742
  848MOL0     C16952   5.567   7.716   8.463  1.3104 -0.5084 -0.1020
  848MOL0     C16953   5.690   7.751   8.511  1.5029 -1.0857  0.0922
  848MOL0     C16954   5.687   7.822   8.647  0.1678  1.1183  0.2980
  848MOL0     H16955   6.212   7.824   8.554 -2.5175 -0.4632 -0.7762
  848MOL0     H16956   6.404   7.787   8.682  0.0848 -2.5441 -0.2871
  848MOL0     H16957   6.543   7.853   8.834  0.6551 -2.0439 -0.1925
  848MOL0     H16958   6.612   7.777   8.977 -0.0219  1.1963  0.5302
  848MOL0     H16959   6.380   7.978   8.961  0.8928  1.2404  0.1478
  848MOL0     H16960   6.427   7.902   9.112  2.1699  1.2253  0.6309
  848MOL0     H16961   6.595   8.093   8.940 -0.1966  1.4393  0.1123
  848MOL0     H16962   6.517   8.149   9.076  1.5583  0.1820  1.6184
  848MOL0     H16963   6.612   8.012   9.242 -1.0120 -5.1260  0.2509
  848MOL0     H16964   6.687   7.908   9.119 -0.6412 -0.0529  1.3252
  848MOL0     H16965   6.811   8.103   9.013 -0.5247 -1.9976 -0.6313
  848MOL0     H16966   6.882   8.025   9.139  1.2437  2.4413 -1.3524
  848MOL0     H16967   6.755   8.304   9.148  3.2585  2.5579 -0.2110
  848MOL0     H16968   6.740   8.207   9.289 -1.5650  1.2385 -0.6652
  848MOL0     H16969   7.008   8.197   9.286  2.3160  0.5332 -2.4846
  848MOL0     H16970   6.944   8.355   9.312  0.2121  1.0377 -1.0809
  848MOL0     H16971   7.015   8.253   9.034 -0.3827  1.5240 -2.0658
  848MOL0     H16972   6.938   8.403   9.063 -0.2722  0.5193  0.5611
  848MOL0     H16973   7.116   8.590   9.035 -0.0424 -0.7123 -1.7042
  848MOL0     H16974   7.353   8.716   9.010  3.4997  1.3114 -0.5343
  848MOL0     H16975   7.492   8.638   9.080 -0.3269 -1.0655  1.7862
  848MOL0     H16976   7.287   8.767   9.244  0.3541  3.2161 -0.8776
  848MOL0     H16977   7.451   8.711   9.295 -1.1185 -0.2673  0.1168
  848MOL0     H16978   7.554   8.855   9.148 -1.1452  1.5581 -0.2266
  848MOL0     H16979   7.407   8.933   9.091  0.4503  2.9108  0.2152
  848MOL0     H16980   7.361   9.039   9.284  0.4012  0.1342  0.4498
  848MOL0     H16981   7.440   8.931   9.395  0.1951 -0.9438 -0.5305
  848MOL0     H16982   7.770   9.199   9.263 -0.0259  0.3049  0.6647
  848MOL0     H16983   7.991   9.229   9.194 -0.7659 -3.0104 -4.7785
  848MOL0     H16984   8.081   9.095   9.176 -2.0413  1.2607 -2.3341
  848MOL0     H16985   8.093   9.195   9.332 -1.8731  2.2586  0.1410
  848MOL0     H16986   8.291   8.530   9.332 -4.8324  0.7346 -0.0746
  848MOL0     H16987   8.471   8.458   9.459 -1.7428  0.9826 -6.1289
  848MOL0     H16988   8.595   8.389   9.641  1.5856 -1.0284  1.6914
  848MOL0     H16989   8.697   8.499   9.532 -0.5748 -0.6512 -0.5462
  848MOL0     H16990   8.821   8.578   9.745  0.0601  0.8751  3.2566
  848MOL0     H16991   8.754   8.446   9.833 -0.2678 -1.9861 -0.9566
  848MOL0     H16992   8.908   8.400   9.578  1.8358  0.1349  0.6555
  848MOL0     H16993   8.845   8.288   9.687  0.2099 -0.1404  1.6717
  848MOL0     H16994   8.987   8.369   9.877  2.1675 -1.4211 -0.5756
  848MOL0     H16995   9.080   8.462   9.760  0.0255  0.2162  0.7931
  848MOL0     H16996   9.055   8.166   9.706  0.3226  0.5204 -3.2929
  848MOL0     H16997   9.161   8.288   9.642 -1.6628  0.9594 -0.3575
  848MOL0     H16998   9.256   8.344   9.876  0.2493 -0.8623  1.6647
  848MOL0     H16999   9.300   8.190   9.804 -1.3295 -2.2081 -1.5365
  848MOL0     H17000   9.082   8.091   9.949  0.2100 -0.4226  0.9829
  848MOL0     H17001   9.087   8.242  10.032  1.0993 -0.8360  1.2708
  848MOL0     H17002   9.241   8.128  10.184  1.4879 -0.2818  0.8030
  848MOL0     H17003   9.344   8.208  10.074 -0.2101 -0.7810  0.0600
  848MOL0     H17004   8.422   8.769   9.745 -2.8187 -0.2727  1.2699
  848MOL0     H17005   8.210   8.838   9.641  1.8883  1.3046  0.8790
  848MOL0     H17006   7.865   8.756   9.453  0.8303 -0.9492 -1.8567
  848MOL0     H17007   7.634   8.822   9.388 -1.0584  1.4387  3.2164
  848MOL0     H17008   6.181   7.641   9.010 -1.5214  2.0311  0.6638
  848MOL0     H17009   5.975   7.635   8.860  0.3458 -0.2420  2.6959
  848MOL0     H17010   5.855   7.623   8.234  0.4070 -1.1749  0.5212
  848MOL0     H17011   5.632   7.584   8.164 -1.4241  2.2344 -0.8791
  848MOL0     H17012   5.437   7.565   8.107 -0.3923 -1.9226 -0.9406
  848MOL0     H17013   5.459   7.434   8.216 -0.9844 -0.1153  0.3384
  848MOL0     H17014   5.203   7.603   8.177  2.3423  0.9353  2.8947
  848MOL0     H17015   5.214   7.473   8.292 -1.4270  2.0843 -0.0125
  848MOL0     H17016   5.230   7.441   7.997  3.0342 -0.2197  0.7504
  848MOL0     H17017   5.263   7.303   8.098 -0.1270  0.0638 -0.5445
  848MOL0     H17018   5.032   7.323   8.208  0.1075  2.3641  0.8156
  848MOL0     H17019   5.043   7.290   8.029  2.2283  0.1238 -0.2222
  848MOL0     H17020   4.899   7.684   8.056  0.7078  0.2400  3.0064
  848MOL0     H17021   5.478   7.738   8.520  1.2787  1.8396 -0.9575
  848MOL0     H17022   5.603   7.891   8.640 -1.4416 -0.6890  0.8425
  848MOL0     H17023   5.670   7.755   8.732 -3.1006 -2.4979 -2.8002
  848MOL0     H17024   5.776   7.884   8.661  1.0234 -0.1238  0.5790
  849MOL0     O17025   0.868   5.357   1.898 -0.2220 -0.3026 -0.3619
  849MOL0     C17026   0.923   5.329   1.794  0.0643  0.5530  0.4592
  849MOL0     O17027   1.043   5.262   1.786 -0.6123 -0.1695 -0.3692
  849MOL0     C17028   1.093   5.189   1.892  0.4948  0.0268 -0.4174
  849MOL0     C17029   1.020   5.120   1.992  0.6794  0.7395  0.6902
  849MOL0     C17030   1.089   5.050   2.095 -0.1485  0.5356 -0.9292
  849MOL0     C17031   1.230   5.036   2.099 -0.1321 -0.2105 -0.4956
  849MOL0     O17032   1.282   4.972   2.207  0.7043 -0.3160 -0.8865
  849MOL0     C17033   1.427   4.993   2.232 -0.5078  0.3475 -0.4656
  849MOL0     C17034   1.454   4.925   2.362 -0.8455  0.1337  0.2682
  849MOL0     C17035   1.601   4.930   2.416  0.1281  0.6532 -0.3261
  849MOL0     C17036   1.682   4.825   2.336 -1.0461 -0.3436 -0.2017
  849MOL0     C17037   1.829   4.824   2.365  0.9358  0.1515 -0.6154
  849MOL0     C17038   1.854   4.805   2.515 -0.0487  0.6268 -0.0292
  849MOL0     C17039   1.995   4.768   2.556 -0.7977  0.7244 -0.5222
  849MOL0     C17040   2.075   4.894   2.535  0.2879  0.7853 -0.0396
  849MOL0     N17041   2.215   4.882   2.576 -0.2158  0.0904  0.3292
  849MOL0     C17042   2.296   4.775   2.573  0.2468  0.2166  0.2521
  849MOL0     C17043   2.421   4.826   2.590 -0.6113 -1.0401 -0.2050
  849MOL0     C17044   2.560   4.752   2.589 -0.3444 -0.9040  0.2141
  849MOL0     C17045   2.655   4.797   2.469  0.1673 -0.6898  0.3977
  849MOL0     C17046   2.738   4.926   2.500 -0.2809  0.3741  0.3171
  849MOL0     C17047   2.860   4.898   2.579  0.7934  0.6504  0.7485
  849MOL0     O17048   2.975   4.897   2.492 -0.0774  0.1113  0.5240
  849MOL0     C17049   3.093   4.937   2.541 -0.4474  0.1597 -0.3239
  849MOL0     C17050   3.161   5.042   2.465  0.2346  0.1419  1.0256
  849MOL0     C17051   3.276   5.099   2.524  0.1929  0.7085 -0.5139
  849MOL0     C17052   3.357   5.196   2.447  0.1824 -0.5468  0.2513
  849MOL0     C17053   3.316   5.063   2.657 -0.4021  0.9837  0.2167
  849MOL0     C17054   3.424   5.127   2.740  0.4954 -0.1320  0.0582
  849MOL0     O17055   3.525   5.184   2.669  0.0221 -0.6065  0.9304
  849MOL0     C17056   3.639   5.214   2.743  0.7047  0.9700  0.6053
  849MOL0     C17057   3.748   5.140   2.705  0.0352 -0.2685 -0.0205
  849MOL0     C17058   3.871   5.147   2.770 -0.4799  0.0775  0.4304
  849MOL0     C17059   3.887   5.250   2.873 -0.1145  0.8136 -0.2419
  849MOL0     O17060   4.003   5.261   2.945 -0.8885  0.1455 -0.3048
  849MOL0     C17061   4.108   5.168   2.933 -0.0821  0.4535 -0.1008
  849MOL0     C17062   4.222   5.221   3.024  0.5945 -0.3194 -0.7262
  849MOL0     C17063   4.330   5.116   3.025  0.6767 -0.4822 -0.1810
  849MOL0     C17064   4.437   5.159   3.121  0.1026 -0.2448  0.0102
  849MOL0     C17065   4.538   5.049   3.142 -0.1906  0.4857  0.1244
  849MOL0     C17066   4.668   5.121   3.206  0.3684  0.2073  0.2608
  849MOL0     C17067   4.797   5.054   3.187 -0.4508  1.0146  0.0243
  849MOL0     C17068   4.915   5.133   3.251 -0.6899  0.3856  0.0534
  849MOL0    Cl17069   5.074   5.091   3.196 -0.5230  0.3812 -0.1376
  849MOL0     C17070   3.778   5.329   2.905  0.6539 -0.4654 -0.0277
  849MOL0     C17071   3.657   5.316   2.833 -1.0789 -0.0619 -0.5207
  849MOL0     O17072   3.417   5.105   2.865 -0.3434  1.2016  0.2853
  849MOL0     C17073   3.250   4.958   2.720 -0.0271 -0.4262 -0.5997
  849MOL0     C17074   3.140   4.891   2.668  0.2202  0.0058 -0.2079
  849MOL0     N17075   2.407   4.964   2.613 -0.8344  0.5675  0.5207
  849MOL0     N17076   2.287   5.000   2.580 -0.5589  1.4172 -0.1487
  849MOL0     C17077   1.301   5.087   1.982 -0.0169  0.2804  0.1528
  849MOL0     C17078   1.230   5.164   1.883  0.2799 -0.2273  0.5806
  849MOL0     C17079   0.854   5.379   1.667  0.2524  0.6436 -0.4534
  849MOL0     C17080   0.723   5.438   1.678 -0.0592 -0.5504  0.3246
  849MOL0     C17081   0.664   5.484   1.557 -0.0726 -0.1263  0.3072
  849MOL0     C17082   0.715   5.456   1.431  0.6024  0.1830 -0.4151
  849MOL0     O17083   0.644   5.496   1.323  0.1587  0.3235 -0.5024
  849MOL0     C17084   0.631   5.407   1.217 -0.3197  1.0016 -0.3751
  849MOL0     C17085   0.526   5.459   1.128  0.3068 -0.8227 -0.9107
  849MOL0     C17086   0.487   5.346   1.034  0.1646 -0.8595 -0.8480
  849MOL0     C17087   0.360   5.396   0.961 -0.2134  0.5276  0.7512
  849MOL0     C17088   0.303   5.304   0.868  0.1634  1.3214 -0.1266
  849MOL0     C17089   0.254   5.224   0.785  1.1761 -0.9472  0.2158
  849MOL0     C17090   0.838   5.394   1.421  0.0050  0.0511 -1.0595
  849MOL0     C17091   0.908   5.357   1.542 -1.3132  0.2729  0.8491
  849MOL0     C17092   1.057   5.334   1.520 -0.3305  0.1739  0.7096
  849MOL0     H17093   0.912   5.113   1.980  0.9799 -2.2904 -1.8551
  849MOL0     H17094   1.025   5.012   2.174 -0.4696 -0.1528 -1.5078
  849MOL0     H17095   1.459   5.096   2.217  0.9229 -0.1861 -1.2786
  849MOL0     H17096   1.479   4.942   2.151  1.3571 -0.5885  1.2482
  849MOL0     H17097   1.387   4.977   2.431 -0.4244  0.0329  0.7639
  849MOL0     H17098   1.416   4.823   2.353  1.0183 -0.6217  0.4721
  849MOL0     H17099   1.639   5.031   2.404 -1.8041  1.6534  1.4384
  849MOL0     H17100   1.600   4.903   2.522  0.3097  0.4362 -0.3786
  849MOL0     H17101   1.645   4.722   2.343 -1.9014 -0.3947 -3.8313
  849MOL0     H17102   1.667   4.850   2.231  2.3593  3.7327  0.0039
  849MOL0     H17103   1.873   4.919   2.333 -1.0969  1.6505  0.7981
  849MOL0     H17104   1.868   4.736   2.312 -0.2377  0.0698 -1.3696
  849MOL0     H17105   1.825   4.903   2.554 -2.6050  1.0357 -2.5915
  849MOL0     H17106   1.788   4.732   2.563  2.0019 -1.6539 -0.4787
  849MOL0     H17107   2.039   4.689   2.495 -0.8997  0.2388  0.0251
  849MOL0     H17108   1.992   4.728   2.658 -2.6277  0.0966 -0.7732
  849MOL0     H17109   2.067   4.937   2.434 -1.2081  1.6954  0.4433
  849MOL0     H17110   2.027   4.967   2.600 -0.4334  0.9311 -0.7265
  849MOL0     H17111   2.266   4.672   2.558 -0.8621  0.4868  0.5409
  849MOL0     H17112   2.533   4.647   2.575 -1.8145 -0.6185  0.7470
  849MOL0     H17113   2.615   4.760   2.684 -1.3493 -1.9239  0.9021
  849MOL0     H17114   2.732   4.720   2.469 -0.3566 -1.3641  3.5488
  849MOL0     H17115   2.593   4.784   2.380 -0.7119 -2.6769  1.2424
  849MOL0     H17116   2.780   4.969   2.408 -0.2559  1.8667  0.9928
  849MOL0     H17117   2.668   4.999   2.542  0.3608  0.7976  0.6576
  849MOL0     H17118   2.881   4.975   2.653  3.4851 -1.9089  2.9076
  849MOL0     H17119   2.839   4.804   2.632 -2.2641  0.9356  0.2477
  849MOL0     H17120   3.139   5.061   2.360 -0.5887  1.1307  1.3656
  849MOL0     H17121   3.460   5.164   2.428 -0.5277 -2.8265 -0.0586
  849MOL0     H17122   3.348   5.286   2.508 -1.8720  1.5412 -2.8247
  849MOL0     H17123   3.302   5.217   2.355 -0.8762 -2.7819  0.3117
  849MOL0     H17124   3.742   5.082   2.614  1.0387  0.8487 -0.8196
  849MOL0     H17125   3.956   5.088   2.737 -0.6144  0.8465 -1.4076
  849MOL0     H17126   4.066   5.075   2.971  1.9786 -0.9300 -1.0209
  849MOL0     H17127   4.149   5.154   2.832  2.3171 -0.1256  0.8762
  849MOL0     H17128   4.263   5.314   2.984  0.9250  0.6897  1.7853
  849MOL0     H17129   4.190   5.229   3.128  1.3978 -0.1176 -0.4859
  849MOL0     H17130   4.375   5.099   2.926  0.8091  1.6234 -0.5348
  849MOL0     H17131   4.278   5.030   3.067  0.8644 -0.3098  0.4151
  849MOL0     H17132   4.391   5.177   3.218 -0.0562  0.0803 -0.1243
  849MOL0     H17133   4.483   5.255   3.093 -0.3023 -0.2086 -0.5426
  849MOL0     H17134   4.494   4.964   3.196  0.2619  1.3198  1.8526
  849MOL0     H17135   4.561   5.019   3.039 -0.5367  1.9975 -0.4254
  849MOL0     H17136   4.642   5.128   3.312 -0.8299  3.1775 -0.1155
  849MOL0     H17137   4.674   5.225   3.172  0.7296  0.5896  1.4196
  849MOL0     H17138   4.832   5.029   3.086  2.6703 -2.6363  1.7512
  849MOL0     H17139   4.789   4.959   3.241 -0.4959  0.6526 -0.6106
  849MOL0     H17140   4.898   5.117   3.358 -2.1550 -1.9086 -0.4346
  849MOL0     H17141   4.900   5.239   3.229 -0.6329  0.3739 -0.0427
  849MOL0     H17142   3.787   5.422   2.960  0.4434 -0.5065  0.0775
  849MOL0     H17143   3.581   5.393   2.840 -0.9270  0.1199 -0.8394
  849MOL0     H17144   3.278   4.918   2.818  2.2778 -0.3411 -1.1571
  849MOL0     H17145   3.083   4.812   2.715  1.1678 -1.2488 -1.0869
  849MOL0     H17146   1.408   5.074   1.969  0.0846  0.5183  0.6969
  849MOL0     H17147   1.292   5.207   1.804  0.2033 -0.4837  0.3780
  849MOL0     H17148   0.662   5.457   1.766  0.4953 -4.2132  1.7051
  849MOL0     H17149   0.567   5.532   1.565 -0.5402 -1.0331  0.2507
  849MOL0     H17150   0.720   5.384   1.158 -1.3889  0.7253 -1.9315
  849MOL0     H17151   0.609   5.308   1.258 -0.4649  1.2632  0.1922
  849MOL0     H17152   0.565   5.548   1.077  0.7586  0.3648  1.3326
  849MOL0     H17153   0.441   5.487   1.191  2.8588  0.5393  2.2565
  849MOL0     H17154   0.562   5.326   0.956  0.6658 -0.0356 -0.5897
  849MOL0     H17155   0.474   5.251   1.087  0.7021 -1.2397 -1.3808
  849MOL0     H17156   0.381   5.489   0.907  2.5282 -0.0262  0.7354
  849MOL0     H17157   0.289   5.427   1.039 -1.9413  0.2756 -0.6679
  849MOL0     H17158   0.198   5.173   0.709  1.2962 -0.0929 -0.4627
  849MOL0     H17159   0.888   5.368   1.329  1.5155 -1.6231  0.1597
  849MOL0     H17160   1.091   5.235   1.553  1.4768  1.2132  2.1323
  849MOL0     H17161   1.084   5.336   1.414  0.1745 -1.6048  0.7727
  849MOL0     H17162   1.117   5.413   1.565 -1.0086  0.0895  1.8021
  850MOL0     O17163   1.988   1.834   2.180  0.0299  0.4923  0.5426
  850MOL0     C17164   1.923   1.893   2.264  0.4733  0.7463  0.1776
  850MOL0     O17165   1.924   2.030   2.286 -0.3098  0.0594  0.2230
  850MOL0     C17166   2.030   2.105   2.250 -0.4230 -0.5516 -1.0581
  850MOL0     C17167   2.006   2.228   2.196  0.0862  0.7897  0.2720
  850MOL0     C17168   2.116   2.315   2.170  0.2705  0.0812  0.2443
  850MOL0     C17169   2.241   2.283   2.200  0.0809  0.1734 -0.8123
  850MOL0     O17170   2.348   2.369   2.183 -0.4477 -0.1756 -0.4678
  850MOL0     C17171   2.333   2.499   2.122  0.3393  0.6925 -0.1133
  850MOL0     C17172   2.370   2.472   1.972 -0.0581 -0.1065  0.3025
  850MOL0     C17173   2.520   2.435   1.962 -0.0260  0.5278  0.1347
  850MOL0     C17174   2.614   2.554   1.922 -0.4116 -0.7940 -0.0172
  850MOL0     C17175   2.757   2.512   1.963 -0.6028 -0.4428  0.3929
  850MOL0     C17176   2.869   2.612   1.911  0.0815  0.3894 -0.6239
  850MOL0     C17177   3.005   2.548   1.930  0.1892 -0.8494 -0.2223
  850MOL0     C17178   3.108   2.640   1.854 -0.2553  0.5667 -1.0571
  850MOL0     N17179   3.239   2.576   1.850 -0.1409 -0.0315 -0.0623
  850MOL0     C17180   3.271   2.442   1.851  0.5866  0.0951 -0.0748
  850MOL0     C17181   3.406   2.437   1.843  0.6781 -0.1079 -0.7381
  850MOL0     C17182   3.498   2.315   1.829  1.0261  0.1392  0.4504
  850MOL0     C17183   3.541   2.276   1.970 -0.0543  0.0824 -0.2075
  850MOL0     C17184   3.634   2.378   2.036  0.2037  0.3700 -0.4127
  850MOL0     C17185   3.766   2.393   1.968 -0.2651  0.9098  0.3786
  850MOL0     O17186   3.834   2.268   1.940 -0.2372  0.2944  0.5603
  850MOL0     C17187   3.962   2.267   1.892  0.2526 -0.1460  0.2335
  850MOL0     C17188   4.029   2.146   1.892  0.7729  0.6476  0.7833
  850MOL0     C17189   4.167   2.137   1.850  0.5712 -0.8463 -0.3791
  850MOL0     C17190   4.234   2.000   1.877  0.3023 -0.0104  0.1474
  850MOL0     C17191   4.231   2.249   1.789 -0.0002 -0.0894  0.0175
  850MOL0     C17192   4.372   2.253   1.748  0.2197  0.9573  0.0106
  850MOL0     O17193   4.436   2.373   1.770 -0.9066 -0.2145 -0.4398
  850MOL0     C17194   4.537   2.415   1.686 -0.1461  0.4783 -0.4270
  850MOL0     C17195   4.529   2.424   1.543 -0.3704 -0.5468 -0.9476
  850MOL0     C17196   4.622   2.507   1.476  0.9516  0.3194  0.2037
  850MOL0     C17197   4.731   2.558   1.551 -0.7026 -1.0661  0.0863
  850MOL0     O17198   4.818   2.639   1.476  0.2760  0.7249 -0.1183
  850MOL0     C17199   4.947   2.667   1.530  0.5686  0.0417 -0.1931
  850MOL0     C17200   5.039   2.720   1.429 -0.3364  0.0609 -0.3202
  850MOL0     C17201   5.173   2.764   1.478 -0.0776  0.0401 -0.0197
  850MOL0     C17202   5.251   2.808   1.355 -0.5714  0.5004 -0.4111
  850MOL0     C17203   5.384   2.874   1.402  0.2895 -0.2506  0.4636
  850MOL0     C17204   5.450   2.926   1.282 -0.0034  0.2620  0.1082
  850MOL0     C17205   5.580   2.992   1.310  0.5486 -0.0240 -0.2987
  850MOL0     C17206   5.661   3.030   1.177  0.3718  0.3053  0.1220
  850MOL0    Cl17207   5.566   3.146   1.083  0.1807 -0.1023  0.2770
  850MOL0     C17208   4.750   2.541   1.691  0.0890  1.0316  1.0125
  850MOL0     C17209   4.654   2.469   1.749  0.5237  0.3557 -0.2156
  850MOL0     O17210   4.424   2.163   1.686  0.1152  0.6619 -0.2272
  850MOL0     C17211   4.155   2.363   1.786 -0.1599  0.9045  0.0162
  850MOL0     C17212   4.027   2.378   1.838  0.0199  0.3795  0.3822
  850MOL0     N17213   3.453   2.565   1.841 -0.4480 -0.5166  0.2101
  850MOL0     N17214   3.353   2.651   1.847  0.1418 -0.6528 -0.4707
  850MOL0     C17215   2.269   2.154   2.253  0.8246 -0.6512 -0.5504
  850MOL0     C17216   2.158   2.065   2.278 -0.1782 -1.3595 -0.4858
  850MOL0     C17217   1.825   1.813   2.343  0.6922 -0.3859 -0.6451
  850MOL0     C17218   1.850   1.679   2.358  0.2684 -0.4018  0.4582
  850MOL0     C17219   1.765   1.597   2.425 -0.2197 -0.2814 -0.0256
  850MOL0     C17220   1.644   1.643   2.485 -0.3881  0.0223 -0.3289
  850MOL0     O17221   1.545   1.563   2.535  0.2172  0.1627 -0.4410
  850MOL0     C17222   1.546   1.417   2.519 -0.5501  0.1040 -0.4386
  850MOL0     C17223   1.414   1.368   2.464 -0.7016 -0.2256 -0.9097
  850MOL0     C17224   1.383   1.218   2.478  0.2084  0.0038  0.3619
  850MOL0     C17225   1.388   1.162   2.617 -0.3257 -0.1174  0.5314
  850MOL0     C17226   1.286   1.219   2.707  0.0823 -0.4709  0.5422
  850MOL0     C17227   1.203   1.255   2.794  0.5535  0.9553  0.2074
  850MOL0     C17228   1.620   1.783   2.490  1.7758 -0.0616  0.6018
  850MOL0     C17229   1.714   1.869   2.415 -0.6931 -0.4060 -0.3863
  850MOL0     C17230   1.676   2.020   2.409  0.0945 -0.1146 -0.5266
  850MOL0     H17231   1.908   2.270   2.179  0.0470  0.6404  0.1310
  850MOL0     H17232   2.079   2.404   2.120 -1.3098  0.5863  2.1935
  850MOL0     H17233   2.403   2.572   2.163  1.1987  1.3355 -2.5522
  850MOL0     H17234   2.234   2.539   2.144  1.4615  2.5331  1.9871
  850MOL0     H17235   2.303   2.393   1.937 -1.6943  1.6368 -0.6989
  850MOL0     H17236   2.347   2.557   1.908 -1.1788 -1.1310 -0.6866
  850MOL0     H17237   2.559   2.386   2.052 -0.8862 -1.0215 -0.2956
  850MOL0     H17238   2.519   2.371   1.873  1.0551  0.7840 -0.0733
  850MOL0     H17239   2.610   2.579   1.815 -2.2244  3.5858  0.8617
  850MOL0     H17240   2.574   2.644   1.970  0.8146  0.7351 -1.6937
  850MOL0     H17241   2.776   2.419   1.910  3.2292  0.1159  0.4920
  850MOL0     H17242   2.777   2.515   2.071  0.0307 -0.8594  0.2971
  850MOL0     H17243   2.864   2.622   1.803  2.3642  0.5603 -0.7724
  850MOL0     H17244   2.860   2.707   1.965  0.1593  0.5146 -0.8298
  850MOL0     H17245   3.009   2.450   1.881  1.7904  0.0796 -2.1035
  850MOL0     H17246   3.030   2.527   2.035  0.4411 -2.1833 -0.5214
  850MOL0     H17247   3.073   2.644   1.750 -0.6445  1.8902 -0.8931
  850MOL0     H17248   3.102   2.740   1.898  1.8117  0.5209 -0.5970
  850MOL0     H17249   3.197   2.362   1.853  1.0616 -0.4148 -1.4969
  850MOL0     H17250   3.584   2.330   1.763 -2.0747  1.0589 -3.8344
  850MOL0     H17251   3.437   2.241   1.775  0.7856 -0.3986  1.4354
  850MOL0     H17252   3.456   2.262   2.038  1.3864  0.6511  1.8033
  850MOL0     H17253   3.581   2.174   1.974  1.7778  0.7930  0.9659
  850MOL0     H17254   3.585   2.475   2.050  0.5942  0.2425  2.6773
  850MOL0     H17255   3.651   2.345   2.139 -0.5981  1.0874 -0.0363
  850MOL0     H17256   3.746   2.449   1.877 -0.5240  0.4808  0.1681
  850MOL0     H17257   3.820   2.463   2.032 -0.9529  0.4204  1.5362
  850MOL0     H17258   3.977   2.057   1.927 -0.8303  1.1928 -0.1501
  850MOL0     H17259   4.330   2.011   1.929  1.1635 -0.9003 -1.1964
  850MOL0     H17260   4.261   1.939   1.790  0.2771  1.4382 -0.9063
  850MOL0     H17261   4.168   1.939   1.939  0.4757 -0.8923 -0.5162
  850MOL0     H17262   4.448   2.371   1.493 -0.7764 -0.5151 -0.3354
  850MOL0     H17263   4.587   2.539   1.378  0.5948 -1.9282 -0.4443
  850MOL0     H17264   4.935   2.735   1.614  0.8474  0.6052 -0.6043
  850MOL0     H17265   4.998   2.581   1.574 -2.1975 -1.7398 -0.1945
  850MOL0     H17266   5.047   2.635   1.361  0.0284  0.6048 -0.9706
  850MOL0     H17267   4.990   2.806   1.382 -0.1428  1.9510  2.6461
  850MOL0     H17268   5.220   2.683   1.535 -1.7996 -1.5145 -0.7089
  850MOL0     H17269   5.148   2.852   1.539 -3.1235 -2.6767  3.0651
  850MOL0     H17270   5.191   2.877   1.295 -1.6025  0.5940  0.7020
  850MOL0     H17271   5.271   2.722   1.290 -0.4638  0.6850 -0.6256
  850MOL0     H17272   5.356   2.959   1.465  0.2742  0.3004 -0.2760
  850MOL0     H17273   5.451   2.802   1.450  3.1968 -0.1101 -2.9449
  850MOL0     H17274   5.382   2.993   1.229 -1.1051  0.8529  2.1910
  850MOL0     H17275   5.483   2.839   1.224  1.0353  1.9261 -1.9412
  850MOL0     H17276   5.641   2.940   1.385  2.6786  0.8179 -1.3891
  850MOL0     H17277   5.560   3.085   1.364  0.4276  0.3459 -0.9820
  850MOL0     H17278   5.676   2.937   1.122 -0.0679  1.1487 -1.5054
  850MOL0     H17279   5.757   3.078   1.201  0.8036 -0.7361  0.5318
  850MOL0     H17280   4.821   2.592   1.756 -0.2332 -0.4758  2.6562
  850MOL0     H17281   4.659   2.466   1.858  0.1605  0.5291 -0.1922
  850MOL0     H17282   4.200   2.446   1.733  1.5997 -0.0689 -0.0886
  850MOL0     H17283   3.966   2.464   1.812 -2.2989 -1.6364 -1.3284
  850MOL0     H17284   2.371   2.118   2.258  2.6137  3.8775  1.2917
  850MOL0     H17285   2.165   1.973   2.335 -0.9398 -1.0936  0.0601
  850MOL0     H17286   1.946   1.638   2.325 -1.7465 -3.3083 -2.4680
  850MOL0     H17287   1.801   1.495   2.426  1.8638  0.3177 -3.0249
  850MOL0     H17288   1.616   1.381   2.443 -0.8372 -0.6347 -0.3534
  850MOL0     H17289   1.565   1.378   2.620  1.4855 -2.9488 -1.8443
  850MOL0     H17290   1.411   1.392   2.357 -0.2155  0.1311 -0.8435
  850MOL0     H17291   1.335   1.423   2.517  1.3323  0.1489  1.9628
  850MOL0     H17292   1.281   1.195   2.444  0.5492 -0.4019 -0.4236
  850MOL0     H17293   1.452   1.164   2.412 -1.1768 -0.6341 -0.6266
  850MOL0     H17294   1.490   1.184   2.652 -1.0707  0.8981  2.1857
  850MOL0     H17295   1.374   1.054   2.620 -2.2949  0.1046  0.7678
  850MOL0     H17296   1.157   1.246   2.891 -1.1148 -0.0328 -0.6138
  850MOL0     H17297   1.522   1.812   2.529  1.1669 -2.5931  1.1454
  850MOL0     H17298   1.744   2.085   2.464  0.2587 -1.8150  1.3991
  850MOL0     H17299   1.701   2.040   2.304  1.4593 -2.2733 -0.6871
  850MOL0     H17300   1.572   2.037   2.439  0.6187  0.6472  0.9565
  851MOL0     O17301   1.277  11.187  10.668 -1.1588  0.5162  0.0999
  851MOL0     C17302   1.282  11.157  10.787 -0.2167 -0.0053 -0.1787
  851MOL0     O17303   1.369  11.068  10.842 -0.3249 -0.6298  0.4300
  851MOL0     C17304   1.493  11.055  10.776 -0.6423 -0.3097 -1.1765
  851MOL0     C17305   1.620  11.109  10.833 -0.1098  0.1907 -0.6370
  851MOL0     C17306   1.742  11.092  10.781 -0.3425  0.8544 -0.0517
  851MOL0     C17307   1.750  11.018  10.657  0.0673 -0.2971  0.2391
  851MOL0     O17308   1.862  10.999  10.585 -0.1339 -0.2172  0.0042
  851MOL0     C17309   1.966  11.093  10.617  0.9902 -0.1545  0.1637
  851MOL0     C17310   2.059  11.100  10.496  0.7077  0.2793  0.1000
  851MOL0     C17311   2.141  10.971  10.462 -0.2027  0.2389  0.2905
  851MOL0     C17312   2.219  10.917  10.574  0.0937  0.0825  0.0228
  851MOL0     C17313   2.334  10.836  10.523 -0.4234 -0.0195 -0.1326
  851MOL0     C17314   2.381  10.746  10.637  0.7188 -0.2442  0.0680
  851MOL0     C17315   2.462  10.622  10.587 -0.2346  0.5101  0.1739
  851MOL0     C17316   2.592  10.665  10.519  0.3633  0.2129  0.4057
  851MOL0     N17317   2.670  10.765  10.594  0.0754  0.8443 -0.7251
  851MOL0     C17318   2.729  10.723  10.714 -0.0345 -0.1239 -0.1359
  851MOL0     C17319   2.790  10.834  10.754 -0.1104  0.2385 -0.5270
  851MOL0     C17320   2.846  10.852  10.896  0.1831 -0.0137  0.0663
  851MOL0     C17321   2.993  10.854  10.890 -0.7085 -0.5608 -0.5568
  851MOL0     C17322   3.068  10.726  10.861 -0.2103  0.9006 -0.0827
  851MOL0     C17323   3.222  10.757  10.865  0.2240  0.2436 -0.4845
  851MOL0     O17324   3.295  10.647  10.812 -0.1404  0.3298 -0.3896
  851MOL0     C17325   3.422  10.626  10.856 -0.4581  0.4987 -0.1570
  851MOL0     C17326   3.447  10.528  10.940  0.3313  0.8877  0.6181
  851MOL0     C17327   3.566  10.491  11.004 -0.0615 -0.4706  0.2279
  851MOL0     C17328   3.584  10.372  11.083  0.6364  0.7127  0.2540
  851MOL0     C17329   3.674  10.586  10.974  0.4216 -0.2590 -0.2094
  851MOL0     C17330   3.807  10.586  11.023 -0.3448  0.8343  0.4286
  851MOL0     O17331   3.905  10.663  10.964  0.3988 -0.1647  0.2566
  851MOL0     C17332   4.038  10.630  10.978  0.0062  0.7877 -0.5231
  851MOL0     C17333   4.127  10.730  10.993  0.2272  0.2061 -0.2896
  851MOL0     C17334   4.259  10.691  11.007 -0.6644  0.4301 -0.5735
  851MOL0     C17335   4.308  10.567  11.015 -0.3566  1.0759 -0.8249
  851MOL0     O17336   4.438  10.532  11.021  0.0504 -0.2513 -0.8254
  851MOL0     C17337   4.512  10.580  11.128  0.4414 -0.1747 -0.1126
  851MOL0     C17338   4.666  10.538  11.121 -0.0252 -0.0384 -0.2918
  851MOL0     C17339   4.749  10.584  11.244 -1.0433  0.0712 -0.2657
  851MOL0     C17340   4.884  10.649  11.204 -0.1758  0.0577  0.2524
  851MOL0     C17341   4.985  10.543  11.164 -0.9331  0.2373 -0.0691
  851MOL0     C17342   5.127  10.607  11.150 -0.8207 -0.2009  0.2357
  851MOL0     C17343   5.233  10.509  11.094 -1.1752  0.1915  0.7720
  851MOL0     C17344   5.379  10.562  11.104  0.1365  0.2401 -0.1599
  851MOL0    Cl17345   5.460  10.534  11.264 -0.0033 -0.1104  0.2280
  851MOL0     C17346   4.209  10.464  10.985 -0.1443  0.4505 -0.3791
  851MOL0     C17347   4.073  10.495  10.980 -0.1578 -0.2766 -0.8519
  851MOL0     O17348   3.827  10.517  11.127  0.3729  0.3047 -0.0880
  851MOL0     C17349   3.641  10.707  10.905 -0.4961 -0.2987 -1.3304
  851MOL0     C17350   3.519  10.726  10.840 -0.1382 -0.3649 -0.3500
  851MOL0     N17351   2.769  10.932  10.667  0.9120 -1.1134 -0.5655
  851MOL0     N17352   2.703  10.898  10.562 -1.4464 -0.1197 -0.3374
  851MOL0     C17353   1.632  10.971  10.601  0.7692  0.9385  0.2453
  851MOL0     C17354   1.503  10.988  10.659 -0.1727  0.0064 -0.4505
  851MOL0     C17355   1.168  11.206  10.879 -0.7858  0.1646 -0.8155
  851MOL0     C17356   1.191  11.242  11.012  0.0235  0.0434 -1.0164
  851MOL0     C17357   1.088  11.285  11.096  0.4162  0.8085  0.7315
  851MOL0     C17358   0.960  11.299  11.039  0.9999 -0.2444  0.3631
  851MOL0     O17359   0.852  11.360  11.107  0.2551  0.0465  0.1345
  851MOL0     C17360   0.838  11.348  11.254 -0.9696 -0.1753  1.3108
  851MOL0     C17361   0.801  11.206  11.306  0.5965  0.8082  1.1551
  851MOL0     C17362   0.694  11.130  11.214 -0.1540 -0.0408 -0.0427
  851MOL0     C17363   0.562  11.145  11.283 -0.3486 -0.0132  0.4348
  851MOL0     C17364   0.521  11.277  11.311 -0.0757 -0.4296  0.5827
  851MOL0     C17365   0.476  11.388  11.335  0.0906  0.0786  0.2705
  851MOL0     C17366   0.937  11.264  10.906  0.2617 -0.0195  0.0309
  851MOL0     C17367   1.037  11.226  10.823 -0.3766  1.6489  0.4444
  851MOL0     C17368   1.000  11.186  10.689 -0.5111  0.0957  0.9795
  851MOL0     H17369   1.602  11.168  10.923 -0.1422 -1.4391  0.4605
  851MOL0     H17370   1.825  11.136  10.836  1.4848 -1.9002 -0.3713
  851MOL0     H17371   2.009  11.064  10.713 -0.0751 -0.4143  0.5793
  851MOL0     H17372   1.930  11.196  10.616 -0.8919 -0.7613 -0.4223
  851MOL0     H17373   1.998  11.137  10.413 -0.2980 -1.3725  0.0543
  851MOL0     H17374   2.131  11.181  10.509  1.2884 -0.0419 -0.9776
  851MOL0     H17375   2.071  10.895  10.428  1.1253  0.0604 -2.3167
  851MOL0     H17376   2.210  10.987  10.379  0.2687 -2.0370  0.1742
  851MOL0     H17377   2.269  10.998  10.628 -2.6708  1.2267  1.0523
  851MOL0     H17378   2.151  10.867  10.643 -0.8541 -0.4326 -1.2496
  851MOL0     H17379   2.414  10.892  10.475  0.4570 -0.9325  0.2346
  851MOL0     H17380   2.291  10.768  10.449 -2.3967 -1.5748  2.2401
  851MOL0     H17381   2.432  10.806  10.714 -2.2952  0.7612  1.4385
  851MOL0     H17382   2.290  10.715  10.689  2.0774  0.3353  3.0303
  851MOL0     H17383   2.405  10.566  10.512  0.5155 -0.4538  0.2979
  851MOL0     H17384   2.495  10.572  10.679  1.7870  1.7429  0.1719
  851MOL0     H17385   2.653  10.579  10.491  0.6028  1.0951 -2.0049
  851MOL0     H17386   2.574  10.711  10.422  2.6196 -0.0210 -0.1876
  851MOL0     H17387   2.727  10.628  10.766 -1.2697 -1.1846 -2.0041
  851MOL0     H17388   2.806  10.780  10.968 -2.8837  1.8643  0.4281
  851MOL0     H17389   2.819  10.947  10.943  2.8062 -1.0937  4.4323
  851MOL0     H17390   3.017  10.925  10.810 -0.9561 -2.2441 -2.1925
  851MOL0     H17391   3.033  10.893  10.984 -1.1424 -1.8500  0.1808
  851MOL0     H17392   3.028  10.664  10.942 -1.3295  0.4532 -0.9515
  851MOL0     H17393   3.041  10.683  10.764 -0.1361  0.3477  0.1367
  851MOL0     H17394   3.245  10.848  10.809 -1.1783  1.2110  0.4308
  851MOL0     H17395   3.246  10.775  10.970 -2.2234  5.3821 -0.4879
  851MOL0     H17396   3.368  10.454  10.949  1.3337  0.0045  3.5495
  851MOL0     H17397   3.495  10.309  11.082  0.7327  0.5761 -0.2716
  851MOL0     H17398   3.608  10.398  11.186 -1.6353  0.8817  0.7984
  851MOL0     H17399   3.667  10.309  11.049  0.5796 -0.4039  2.0358
  851MOL0     H17400   4.090  10.831  10.977 -0.6516 -0.4411 -2.6928
  851MOL0     H17401   4.328  10.773  10.997 -3.6252  2.8421 -3.8267
  851MOL0     H17402   4.517  10.690  11.123 -0.2198 -0.1408 -0.0464
  851MOL0     H17403   4.466  10.549  11.222  0.5090 -4.2706 -1.2670
  851MOL0     H17404   4.670  10.428  11.119  2.1152 -0.0113  0.4235
  851MOL0     H17405   4.711  10.558  11.024 -0.2527 -2.1529 -0.8923
  851MOL0     H17406   4.763  10.496  11.308  0.6820  1.3518  1.2559
  851MOL0     H17407   4.689  10.657  11.300  0.2810  1.2292 -0.2964
  851MOL0     H17408   4.938  10.691  11.290  0.3647 -2.4720  1.2255
  851MOL0     H17409   4.857  10.719  11.124  0.7537 -0.1427 -0.2504
  851MOL0     H17410   4.982  10.466  11.242  1.7160  1.6086  1.5655
  851MOL0     H17411   4.953  10.485  11.077  0.1506 -0.2184 -0.1840
  851MOL0     H17412   5.155  10.660  11.242 -0.0923 -0.2327  0.0335
  851MOL0     H17413   5.107  10.675  11.067 -0.4563 -0.9619 -0.4894
  851MOL0     H17414   5.211  10.490  10.988  0.2353 -0.3574  0.5634
  851MOL0     H17415   5.216  10.415  11.148 -0.5350  0.5216  1.5552
  851MOL0     H17416   5.365  10.668  11.080  0.8454  0.7965  1.7571
  851MOL0     H17417   5.440  10.513  11.027  1.2725  1.2669  0.0655
  851MOL0     H17418   4.233  10.358  10.981  0.7051  0.5306  1.6499
  851MOL0     H17419   4.009  10.408  10.970 -3.8137  1.8896  1.2622
  851MOL0     H17420   3.704  10.792  10.879 -1.8739 -0.0021 -4.1078
  851MOL0     H17421   3.495  10.823  10.797  0.6595  0.2273  0.5223
  851MOL0     H17422   1.633  10.926  10.502  1.7995 -0.4274  0.8481
  851MOL0     H17423   1.411  10.955  10.614 -1.4478 -1.5357  2.9716
  851MOL0     H17424   1.288  11.225  11.059 -1.5853 -0.7280  2.2978
  851MOL0     H17425   1.121  11.300  11.199  1.5776 -2.4757  0.9691
  851MOL0     H17426   0.930  11.377  11.304 -0.6276  0.0464  0.5640
  851MOL0     H17427   0.755  11.414  11.280 -0.2929  0.4148  2.0032
  851MOL0     H17428   0.766  11.204  11.409 -2.1896 -2.5935  0.3625
  851MOL0     H17429   0.891  11.143  11.305 -0.6984 -1.1500  1.7627
  851MOL0     H17430   0.681  11.176  11.115 -1.7137  0.4548  0.3616
  851MOL0     H17431   0.725  11.025  11.218 -0.9518 -0.2475  1.5055
  851MOL0     H17432   0.548  11.081  11.370 -1.0616  0.0996  0.4107
  851MOL0     H17433   0.489  11.106  11.211  3.1435 -2.6726 -2.0443
  851MOL0     H17434   0.437  11.475  11.385  1.4174  0.3974  0.7939
  851MOL0     H17435   0.831  11.249  10.888 -0.1548  1.2017  1.2884
  851MOL0     H17436   1.045  11.091  10.660 -2.9566 -1.1030  0.7927
  851MOL0     H17437   0.892  11.170  10.677 -0.2721 -0.0164 -1.5676
  851MOL0     H17438   1.008  11.263  10.611 -2.6562 -2.1481 -1.6780
  852MOL0     O17439   5.205   2.732   3.427  0.7012  0.4981 -0.7379
  852MOL0     C17440   5.282   2.635   3.430 -0.0006 -1.3462 -0.1131
  852MOL0     O17441   5.402   2.648   3.479  0.2989 -0.3096 -0.4362
  852MOL0     C17442   5.434   2.741   3.573 -0.4572  0.1291  0.6784
  852MOL0     C17443   5.351   2.814   3.656  0.8738 -0.4801 -0.0102
  852MOL0     C17444   5.400   2.927   3.734  1.5990 -0.6023  0.5355
  852MOL0     C17445   5.539   2.949   3.735 -0.8821 -0.8559  0.5430
  852MOL0     O17446   5.606   3.061   3.778 -0.0877 -0.3856 -0.4430
  852MOL0     C17447   5.543   3.169   3.835 -0.4476  0.0098  0.0588
  852MOL0     C17448   5.650   3.250   3.904 -0.4558 -0.6741 -0.3030
  852MOL0     C17449   5.746   3.321   3.819 -0.6180 -0.2358  0.2363
  852MOL0     C17450   5.715   3.468   3.775  0.8746  1.0146 -0.3093
  852MOL0     C17451   5.811   3.532   3.668 -0.6975  0.3520  0.8166
  852MOL0     C17452   5.949   3.525   3.740  0.2829 -0.4981  0.1454
  852MOL0     C17453   6.066   3.561   3.645  0.0509 -1.5117  0.9841
  852MOL0     C17454   6.180   3.625   3.717  0.6387  0.3136  0.8492
  852MOL0     N17455   6.219   3.531   3.826  0.6209 -0.2798 -0.3396
  852MOL0     C17456   6.256   3.400   3.808 -0.4318 -0.5233 -0.8017
  852MOL0     C17457   6.250   3.342   3.927 -0.2356  0.4502 -0.6479
  852MOL0     C17458   6.255   3.193   3.949 -0.1305  0.4037 -0.2349
  852MOL0     C17459   6.119   3.134   3.882  0.1375  0.0153 -0.2503
  852MOL0     C17460   6.092   2.990   3.930 -0.1855 -0.3904 -0.6087
  852MOL0     C17461   5.949   2.957   3.936  0.0981  0.9881 -0.0530
  852MOL0     O17462   5.906   3.026   4.051 -0.3608 -0.0149  0.2173
  852MOL0     C17463   5.791   2.981   4.114  0.3249  0.8431  0.3409
  852MOL0     C17464   5.684   2.910   4.047 -0.7187 -0.0656  0.3270
  852MOL0     C17465   5.570   2.871   4.122  0.0428  0.2872 -0.6884
  852MOL0     C17466   5.445   2.825   4.046 -0.5781  0.4317  0.2554
  852MOL0     C17467   5.572   2.887   4.264 -0.0299  0.6544  0.5128
  852MOL0     C17468   5.468   2.831   4.355  1.0733  0.0654  0.1134
  852MOL0     O17469   5.407   2.917   4.439 -0.3768  0.2225  0.0230
  852MOL0     C17470   5.275   2.888   4.480 -0.6349  0.5467 -0.5223
  852MOL0     C17471   5.243   2.941   4.602  0.6955  0.0769 -0.1101
  852MOL0     C17472   5.126   2.904   4.665  0.1967  0.1233 -0.2129
  852MOL0     C17473   5.031   2.822   4.601  0.1152 -0.4599 -1.1424
  852MOL0     O17474   4.903   2.788   4.636  0.1057  0.9966  0.1749
  852MOL0     C17475   4.852   2.821   4.768 -0.8138  0.0270  0.4773
  852MOL0     C17476   4.703   2.842   4.738  0.4972  0.9278  0.6925
  852MOL0     C17477   4.673   2.982   4.680 -0.3462 -0.5324  0.0563
  852MOL0     C17478   4.632   3.083   4.785  0.0224 -0.4690 -0.3025
  852MOL0     C17479   4.477   3.113   4.793 -0.3249 -0.1343  0.9118
  852MOL0     C17480   4.449   3.191   4.918 -0.6506 -0.9795 -0.0654
  852MOL0     C17481   4.299   3.222   4.925  0.0042  0.0009  0.0143
  852MOL0     C17482   4.270   3.311   5.041 -0.5044 -0.0928 -0.0158
  852MOL0    Cl17483   4.272   3.213   5.195 -0.3209  0.2348 -0.2810
  852MOL0     C17484   5.054   2.781   4.475  0.1692  0.6501 -0.1908
  852MOL0     C17485   5.175   2.804   4.414  0.0738  0.0693  0.3466
  852MOL0     O17486   5.461   2.712   4.365  0.0812  0.2830 -0.3774
  852MOL0     C17487   5.676   2.954   4.326 -0.0901  0.2247  0.0998
  852MOL0     C17488   5.785   3.007   4.250 -1.0753  0.1034 -0.3250
  852MOL0     N17489   6.217   3.444   4.020 -0.2890 -1.0536  0.1327
  852MOL0     N17490   6.200   3.558   3.961 -0.1097 -0.0244 -0.9436
  852MOL0     C17491   5.620   2.869   3.659  0.4810 -0.2209  1.4640
  852MOL0     C17492   5.572   2.764   3.574 -0.2104 -0.1240  0.7263
  852MOL0     C17493   5.237   2.516   3.355 -0.1960  0.2049 -0.4369
  852MOL0     C17494   5.334   2.427   3.313  0.1622 -0.0818 -0.4491
  852MOL0     C17495   5.305   2.316   3.241 -0.3758  0.5547 -0.2754
  852MOL0     C17496   5.168   2.272   3.231 -0.6602 -0.2781  0.0066
  852MOL0     O17497   5.130   2.149   3.185  0.8244  0.1605 -0.3394
  852MOL0     C17498   5.225   2.042   3.187  0.6813  0.7660 -0.7033
  852MOL0     C17499   5.167   1.916   3.122 -0.3771  0.0466 -0.1133
  852MOL0     C17500   5.054   1.850   3.204 -0.2383 -0.1990  0.0227
  852MOL0     C17501   4.936   1.792   3.125  0.1936  1.5825 -0.0139
  852MOL0     C17502   4.982   1.702   3.015  0.8095 -0.3876  0.2379
  852MOL0     C17503   5.016   1.647   2.911 -0.9673 -1.0503  1.0599
  852MOL0     C17504   5.064   2.357   3.268  0.7792  0.8970 -0.5025
  852MOL0     C17505   5.097   2.474   3.334  0.6088 -0.4190 -0.0792
  852MOL0     C17506   4.981   2.573   3.340  0.4090  0.4524 -0.2515
  852MOL0     H17507   5.248   2.780   3.662 -0.6206  3.5350 -0.3450
  852MOL0     H17508   5.336   2.992   3.792 -0.1900 -0.2994 -1.6397
  852MOL0     H17509   5.463   3.144   3.905  0.5882  1.7537  1.9679
  852MOL0     H17510   5.502   3.236   3.760  2.2740  1.5654 -0.1455
  852MOL0     H17511   5.590   3.328   3.951  1.1124  1.0651 -1.0620
  852MOL0     H17512   5.705   3.183   3.971 -0.9528 -1.2167 -0.4380
  852MOL0     H17513   5.835   3.326   3.884 -1.2541 -1.2733  1.2303
  852MOL0     H17514   5.770   3.262   3.730 -1.9024  1.1233 -1.0527
  852MOL0     H17515   5.617   3.474   3.728  1.1666  4.0947 -0.7283
  852MOL0     H17516   5.709   3.531   3.864 -0.1450  0.1915  0.2332
  852MOL0     H17517   5.777   3.632   3.641 -1.1474  0.6037  2.2489
  852MOL0     H17518   5.800   3.464   3.583 -1.4808  0.2740  0.9762
  852MOL0     H17519   5.942   3.587   3.830 -1.6736  0.1933 -0.4408
  852MOL0     H17520   5.974   3.423   3.771  1.5846  0.3733  2.1860
  852MOL0     H17521   6.027   3.639   3.580 -0.5784  0.4682  3.5739
  852MOL0     H17522   6.103   3.471   3.594 -1.4862 -1.0649 -1.0424
  852MOL0     H17523   6.262   3.641   3.647  1.1191 -0.5310  1.2024
  852MOL0     H17524   6.144   3.722   3.752  2.6789  2.0238 -1.4886
  852MOL0     H17525   6.270   3.350   3.713 -0.0139 -1.2619 -0.3648
  852MOL0     H17526   6.257   3.166   4.055 -1.6831  0.6260 -0.1202
  852MOL0     H17527   6.345   3.153   3.901 -0.1538  0.4465 -0.3160
  852MOL0     H17528   6.036   3.202   3.907  3.2499  4.4338 -0.7870
  852MOL0     H17529   6.124   3.131   3.773 -3.0505 -0.3853 -0.4918
  852MOL0     H17530   6.135   2.910   3.869 -1.0770 -1.4677  0.1385
  852MOL0     H17531   6.124   2.977   4.034  0.7611  2.4441 -0.4737
  852MOL0     H17532   5.884   2.990   3.855 -0.0424  1.0474  0.0836
  852MOL0     H17533   5.944   2.848   3.947  2.5182  0.7034 -1.0356
  852MOL0     H17534   5.694   2.886   3.942 -2.1124 -2.5505  0.6715
  852MOL0     H17535   5.474   2.760   3.964  0.2957  1.7814 -0.5536
  852MOL0     H17536   5.397   2.912   3.999  1.1874  1.3467  0.0790
  852MOL0     H17537   5.373   2.773   4.109 -0.2491  2.4006  2.3878
  852MOL0     H17538   5.308   3.014   4.648  1.7171  0.7300 -2.4203
  852MOL0     H17539   5.099   2.939   4.764 -3.2838  2.2822 -1.6969
  852MOL0     H17540   4.862   2.735   4.836  0.6031 -1.7016 -1.7813
  852MOL0     H17541   4.908   2.897   4.823  0.0356 -0.7491  0.7176
  852MOL0     H17542   4.662   2.773   4.663  2.7878  0.8980 -0.6413
  852MOL0     H17543   4.648   2.820   4.830 -1.7280 -0.1816 -0.8167
  852MOL0     H17544   4.600   2.981   4.599 -4.0714 -0.7140  3.1055
  852MOL0     H17545   4.764   3.025   4.638 -0.6963 -2.1119 -2.5218
  852MOL0     H17546   4.686   3.177   4.769 -1.4421  0.0515 -2.6804
  852MOL0     H17547   4.658   3.045   4.885  1.0108 -3.2073 -1.4976
  852MOL0     H17548   4.454   3.180   4.709  1.2606 -1.8975 -1.0077
  852MOL0     H17549   4.427   3.016   4.790 -1.9592  0.6138 -3.0949
  852MOL0     H17550   4.503   3.286   4.921 -1.4935 -0.4958  0.2304
  852MOL0     H17551   4.473   3.134   5.009  0.0082 -0.6688 -0.0380
  852MOL0     H17552   4.241   3.130   4.935  0.6280 -0.6587 -2.0686
  852MOL0     H17553   4.271   3.261   4.827  2.1252 -1.1045 -1.1062
  852MOL0     H17554   4.173   3.363   5.040 -0.1481  0.7545  2.1862
  852MOL0     H17555   4.333   3.399   5.057  1.1911 -1.8911  5.3065
  852MOL0     H17556   4.996   2.713   4.414  2.4302 -1.7384  0.1415
  852MOL0     H17557   5.198   2.772   4.313  1.2059  0.2834  0.5295
  852MOL0     H17558   5.680   2.984   4.431  1.6880 -1.2225  0.5050
  852MOL0     H17559   5.862   3.068   4.298 -1.9309  1.1321 -0.2170
  852MOL0     H17560   5.726   2.890   3.649  0.0914  0.9847 -1.1879
  852MOL0     H17561   5.640   2.723   3.500  0.6069  1.0761  0.7879
  852MOL0     H17562   5.439   2.449   3.332  0.1351 -1.2693  1.1853
  852MOL0     H17563   5.385   2.254   3.200  0.4812  0.2304  1.7891
  852MOL0     H17564   5.320   2.073   3.142  1.5701  1.4320  1.5299
  852MOL0     H17565   5.254   2.025   3.291 -1.3859  0.9182 -0.0584
  852MOL0     H17566   5.249   1.845   3.111  1.6489  2.3149 -0.6702
  852MOL0     H17567   5.129   1.943   3.023 -0.9647  1.1714  0.4028
  852MOL0     H17568   5.093   1.760   3.252  0.1719 -1.0817 -1.8954
  852MOL0     H17569   5.025   1.917   3.286 -0.4154  0.3536 -0.4818
  852MOL0     H17570   4.896   1.886   3.086  1.3173  1.6594 -1.0298
  852MOL0     H17571   4.854   1.745   3.180 -0.3060 -0.2839 -2.1846
  852MOL0     H17572   5.037   1.596   2.819 -1.8485  1.5251 -0.6964
  852MOL0     H17573   4.965   2.324   3.238  1.0947  1.0794 -1.8318
  852MOL0     H17574   4.950   2.599   3.441  0.8570 -1.5307  0.4459
  852MOL0     H17575   5.005   2.661   3.279 -0.9244  1.1040  0.1216
  852MOL0     H17576   4.885   2.538   3.300 -0.9181  0.2106  2.8948
  853MOL0     O17577  11.184   0.419   0.815 -0.6446  0.0238 -0.0597
  853MOL0     C17578  11.067   0.463   0.809 -0.1117  0.3179 -0.1226
  853MOL0     O17579  10.951   0.390   0.773 -0.6428  0.3292  0.9842
  853MOL0     C17580  10.962   0.300   0.665  0.0277  0.0643  0.7082
  853MOL0     C17581  10.845   0.231   0.634  0.4418  0.4068  0.1549
  853MOL0     C17582  10.828   0.161   0.512  0.5420  0.4248  0.1676
  853MOL0     C17583  10.948   0.128   0.446 -0.0668  0.5346 -0.0356
  853MOL0     O17584  10.963   0.046   0.345 -1.0512  0.1361  0.5001
  853MOL0     C17585  10.847  -0.024   0.291  0.6996  0.2358 -1.3773
  853MOL0     C17586  10.871  -0.167   0.254 -0.8286 -0.0754 -0.1134
  853MOL0     C17587  10.906  -0.250   0.373  0.6315  0.9774 -0.5715
  853MOL0     C17588  10.952  -0.391   0.325  0.4031  1.1462  0.2564
  853MOL0     C17589  10.964  -0.491   0.446 -0.1716 -0.6346  0.1632
  853MOL0     C17590  11.066  -0.449   0.553  0.3029 -0.2343  0.0714
  853MOL0     C17591  11.059  -0.548   0.671  0.9679 -0.8214 -0.2028
  853MOL0     C17592  11.134  -0.678   0.652 -0.0335 -0.2979 -0.5486
  853MOL0     N17593  11.269  -0.650   0.608  0.2097 -0.5429 -0.4334
  853MOL0     C17594  11.360  -0.586   0.685 -0.3555  0.2969  0.1386
  853MOL0     C17595  11.454  -0.552   0.603 -0.7557 -0.3302 -0.3193
  853MOL0     C17596  11.588  -0.501   0.652 -0.0716 -0.3068 -0.1103
  853MOL0     C17597  11.689  -0.611   0.665  0.1798  0.3714 -0.6935
  853MOL0     C17598  11.838  -0.573   0.659 -0.8779  1.0339  0.0125
  853MOL0     C17599  11.872  -0.460   0.759 -0.7125 -0.1349 -0.0856
  853MOL0     O17600  12.020  -0.451   0.778 -0.0331 -0.6809  0.4085
  853MOL0     C17601  12.054  -0.381   0.890 -0.0187 -0.4216  0.5213
  853MOL0     C17602  11.978  -0.322   0.990  0.7241  0.0306 -0.2362
  853MOL0     C17603  12.029  -0.240   1.094 -0.2895  0.2642 -0.8427
  853MOL0     C17604  11.934  -0.180   1.195  0.0483 -0.0372  0.1089
  853MOL0     C17605  12.175  -0.231   1.105  0.4067  0.2825  0.2045
  853MOL0     C17606  12.254  -0.155   1.206 -0.3984 -0.4994 -0.1568
  853MOL0     O17607  12.384  -0.175   1.218 -0.7133 -1.5061 -0.6361
  853MOL0     C17608  12.457  -0.120   1.317  0.5504  0.1960 -0.7733
  853MOL0     C17609  12.432  -0.155   1.452  0.5390 -0.4169  0.2110
  853MOL0     C17610  12.507  -0.096   1.547  0.2102  0.6340  0.4933
  853MOL0     C17611  12.605   0.002   1.514  0.3653  0.5531  0.3835
  853MOL0     O17612  12.681   0.077   1.598 -0.7774  1.0711 -0.2886
  853MOL0     C17613  12.610   0.142   1.701  0.5024 -0.4680  0.4398
  853MOL0     C17614  12.697   0.209   1.806 -0.3874  1.0447 -0.1016
  853MOL0     C17615  12.751   0.342   1.747  0.3535  0.9698  0.3974
  853MOL0     C17616  12.831   0.406   1.849  0.2632 -0.1895 -0.8609
  853MOL0     C17617  12.875   0.537   1.796  0.3084 -0.8943 -0.5510
  853MOL0     C17618  12.866   0.643   1.902  0.9165  0.8280  0.0930
  853MOL0     C17619  12.892   0.784   1.848  0.6368  0.5435 -0.5849
  853MOL0     C17620  13.023   0.792   1.780 -1.3762 -0.3232 -0.1120
  853MOL0    Cl17621  13.169   0.746   1.887 -0.0113 -0.0055 -0.1766
  853MOL0     C17622  12.624   0.037   1.377 -0.0930 -0.1408 -0.3653
  853MOL0     C17623  12.554  -0.027   1.281 -0.3103 -0.2158 -0.1541
  853MOL0     O17624  12.198  -0.065   1.267 -0.2246  0.2792  0.5304
  853MOL0     C17625  12.250  -0.316   1.019  0.2313 -0.5871  0.0270
  853MOL0     C17626  12.194  -0.380   0.913 -0.3277 -0.3074  0.1643
  853MOL0     N17627  11.425  -0.600   0.470 -0.0715 -0.3618  0.0962
  853MOL0     N17628  11.315  -0.665   0.487 -0.4459  0.8056  0.3118
  853MOL0     C17629  11.069   0.182   0.486  0.3139 -0.1526 -0.4890
  853MOL0     C17630  11.078   0.274   0.589  0.4159  0.2861  0.3291
  853MOL0     C17631  11.026   0.597   0.879  0.7378  0.1700 -0.1419
  853MOL0     C17632  10.890   0.624   0.902  0.5414 -0.1600  0.4918
  853MOL0     C17633  10.840   0.735   0.963 -0.2594 -0.0894  0.6571
  853MOL0     C17634  10.933   0.835   1.009 -0.7280 -0.2552  0.5591
  853MOL0     O17635  10.908   0.960   1.070 -0.0082 -0.4789 -0.8118
  853MOL0     C17636  10.781   0.989   1.130 -0.3693  0.0564  0.9381
  853MOL0     C17637  10.695   1.070   1.034  0.0834 -0.4140  0.2688
  853MOL0     C17638  10.731   1.218   1.032 -0.4950  0.0250  0.4253
  853MOL0     C17639  10.720   1.297   0.897  0.3646  0.9175  0.4759
  853MOL0     C17640  10.806   1.247   0.782  0.9670 -0.5711 -0.8542
  853MOL0     C17641  10.867   1.207   0.685 -0.0474  0.1896 -0.2037
  853MOL0     C17642  11.069   0.816   0.975  0.3900  0.2163 -0.5481
  853MOL0     C17643  11.120   0.693   0.925  0.4596 -0.0761 -0.1021
  853MOL0     C17644  11.268   0.688   0.898 -0.2685 -0.9082  0.7829
  853MOL0     H17645  10.753   0.242   0.691 -0.6668  0.7730 -1.6030
  853MOL0     H17646  10.726   0.134   0.487  0.2149  0.8800  0.9795
  853MOL0     H17647  10.799   0.026   0.207 -0.4403 -0.0597 -0.9151
  853MOL0     H17648  10.760  -0.027   0.358  1.4201  0.1396 -0.4145
  853MOL0     H17649  10.790  -0.210   0.196 -0.9377  1.3375 -1.0397
  853MOL0     H17650  10.966  -0.163   0.200  0.6500 -1.1035  2.2560
  853MOL0     H17651  10.981  -0.203   0.438  1.4552  0.5436 -1.1942
  853MOL0     H17652  10.812  -0.265   0.428  0.0437  0.0554 -1.7810
  853MOL0     H17653  10.890  -0.430   0.243  4.7929 -2.1837 -1.8681
  853MOL0     H17654  11.049  -0.386   0.275  0.5429  1.3825  0.5550
  853MOL0     H17655  10.988  -0.585   0.394  3.2096  0.6363 -0.8809
  853MOL0     H17656  10.867  -0.494   0.496 -1.4024 -2.1591 -2.1165
  853MOL0     H17657  11.160  -0.423   0.503  0.1016 -0.7598 -0.6126
  853MOL0     H17658  11.029  -0.356   0.595 -0.1463  0.1045 -1.0303
  853MOL0     H17659  10.953  -0.558   0.695  0.2732  2.2599 -1.5247
  853MOL0     H17660  11.098  -0.493   0.757 -1.4570  0.8982 -0.0908
  853MOL0     H17661  11.142  -0.732   0.746  0.8617  0.9429  0.1141
  853MOL0     H17662  11.079  -0.742   0.583  0.2770 -1.0769 -0.0861
  853MOL0     H17663  11.369  -0.566   0.791  0.0275 -2.4211  0.6839
  853MOL0     H17664  11.566  -0.456   0.749 -0.1955 -1.4768  0.4319
  853MOL0     H17665  11.642  -0.432   0.587  0.2266 -2.3965 -2.2065
  853MOL0     H17666  11.682  -0.662   0.762  3.6823 -0.8401 -0.9107
  853MOL0     H17667  11.679  -0.682   0.582  1.1592 -0.5128 -0.1002
  853MOL0     H17668  11.895  -0.665   0.673 -0.5697  1.4033  1.3252
  853MOL0     H17669  11.864  -0.535   0.560  1.3585  0.7407  0.4371
  853MOL0     H17670  11.830  -0.369   0.717  0.2626 -0.0015 -0.8172
  853MOL0     H17671  11.821  -0.485   0.853 -0.5418  1.5180  0.4694
  853MOL0     H17672  11.871  -0.338   0.985  0.9200 -1.7825  0.4864
  853MOL0     H17673  11.967  -0.200   1.297 -1.9387 -1.9840  0.4490
  853MOL0     H17674  11.831  -0.216   1.183 -1.4752  3.7444  0.3710
  853MOL0     H17675  11.924  -0.075   1.166  0.3059  0.2285  0.9528
  853MOL0     H17676  12.352  -0.224   1.478  1.7225 -0.6946  3.5020
  853MOL0     H17677  12.480  -0.115   1.650 -0.2215  2.0115  0.6605
  853MOL0     H17678  12.548   0.223   1.663 -0.4968 -0.8368  1.2252
  853MOL0     H17679  12.545   0.067   1.746  0.4442 -1.5019 -1.2629
  853MOL0     H17680  12.650   0.237   1.900  2.9314  0.5000  1.8708
  853MOL0     H17681  12.777   0.139   1.829 -0.3998  0.3425 -2.0180
  853MOL0     H17682  12.675   0.411   1.710 -0.5126  1.0749  2.2431
  853MOL0     H17683  12.825   0.325   1.668  1.5987  1.9223  1.3230
  853MOL0     H17684  12.913   0.347   1.892  1.5330  2.7405  1.0127
  853MOL0     H17685  12.766   0.427   1.935  2.6250  0.6246  0.8248
  853MOL0     H17686  12.981   0.524   1.775  0.6692  0.2371  0.5057
  853MOL0     H17687  12.831   0.569   1.701 -1.2239 -2.2041 -0.3267
  853MOL0     H17688  12.928   0.618   1.989  1.1543 -1.6386 -0.7194
  853MOL0     H17689  12.762   0.647   1.935  1.0486  0.0801  0.6219
  853MOL0     H17690  12.888   0.845   1.938  1.2643  1.2253 -1.0098
  853MOL0     H17691  12.810   0.808   1.780 -1.7431 -0.7794  1.6695
  853MOL0     H17692  13.028   0.898   1.754  1.7444  0.7186  3.6645
  853MOL0     H17693  13.021   0.743   1.682 -0.0772  0.7619 -0.7122
  853MOL0     H17694  12.692   0.116   1.348 -3.1225  2.5742 -0.7116
  853MOL0     H17695  12.574  -0.006   1.176 -0.6568  1.8519  0.1456
  853MOL0     H17696  12.357  -0.311   1.036  0.2156  1.3682 -0.2485
  853MOL0     H17697  12.263  -0.440   0.854  2.2804  1.8744  0.7965
  853MOL0     H17698  11.156   0.137   0.439  2.1985 -0.1301  2.6711
  853MOL0     H17699  11.173   0.322   0.611  1.2058 -1.3545  0.6332
  853MOL0     H17700  10.811   0.559   0.865 -1.5832  1.8368  1.2647
  853MOL0     H17701  10.733   0.744   0.979 -0.4404  0.3106 -0.6666
  853MOL0     H17702  10.728   0.896   1.153 -0.8168 -0.5937 -2.2395
  853MOL0     H17703  10.798   1.043   1.223 -1.4007  0.2676  1.0047
  853MOL0     H17704  10.591   1.068   1.070 -0.0350  0.9369  0.0629
  853MOL0     H17705  10.694   1.033   0.931  2.7326 -1.3508  0.4958
  853MOL0     H17706  10.659   1.263   1.101 -1.2191 -4.2782  2.8316
  853MOL0     H17707  10.826   1.233   1.086  0.3638 -1.4137 -0.6076
  853MOL0     H17708  10.722   1.405   0.917 -1.8490  1.2087 -0.5243
  853MOL0     H17709  10.614   1.286   0.873  0.4689  0.7005  0.1072
  853MOL0     H17710  10.922   1.183   0.596  0.6945 -1.1922  0.5713
  853MOL0     H17711  11.139   0.897   0.994 -0.5716  1.2152 -1.1718
  853MOL0     H17712  11.321   0.592   0.906  1.9689  0.0942 -0.7696
  853MOL0     H17713  11.290   0.726   0.798  1.0179  0.2449  1.4601
  853MOL0     H17714  11.325   0.751   0.967  2.1899 -1.0952 -0.9447
  854MOL0     O17715   6.501   0.476   9.514 -0.3449 -0.2626  0.3222
  854MOL0     C17716   6.463   0.502   9.396  0.2862 -0.1665 -0.5060
  854MOL0     O17717   6.537   0.572   9.305 -0.7210  0.5122 -0.2826
  854MOL0     C17718   6.664   0.610   9.345 -0.3972 -0.3286  0.5168
  854MOL0     C17719   6.685   0.743   9.378 -0.2022  0.7407 -0.3643
  854MOL0     C17720   6.813   0.784   9.402  0.6081 -0.8525  0.0497
  854MOL0     C17721   6.925   0.701   9.398  1.1177  0.9692 -0.5845
  854MOL0     O17722   7.057   0.739   9.422  0.3267 -0.1873  0.0623
  854MOL0     C17723   7.074   0.887   9.430 -0.5476 -0.2920 -0.3139
  854MOL0     C17724   7.227   0.920   9.442 -0.0477 -0.0463  0.7528
  854MOL0     C17725   7.313   0.871   9.322 -0.1951 -0.3059 -0.5473
  854MOL0     C17726   7.380   0.725   9.334 -0.2036  0.3126 -0.1800
  854MOL0     C17727   7.450   0.684   9.200  0.3171  0.5303 -0.7110
  854MOL0     C17728   7.566   0.784   9.151 -0.6657  0.1357 -0.0406
  854MOL0     C17729   7.613   0.747   9.009 -0.2572 -0.4673 -0.2158
  854MOL0     C17730   7.694   0.620   8.993  0.3065  0.7252 -0.4890
  854MOL0     N17731   7.785   0.599   9.104 -0.9168  0.0151  0.4706
  854MOL0     C17732   7.893   0.678   9.143 -0.1015 -0.9872 -0.4253
  854MOL0     C17733   7.943   0.610   9.252  0.3816 -0.5815 -0.3262
  854MOL0     C17734   8.069   0.640   9.320 -0.3445  0.3512 -0.2235
  854MOL0     C17735   8.173   0.544   9.259  0.3280 -0.0401  0.0851
  854MOL0     C17736   8.314   0.589   9.299 -0.6255  0.4533 -0.3603
  854MOL0     C17737   8.417   0.511   9.218 -0.9117 -0.1115 -0.1263
  854MOL0     O17738   8.411   0.526   9.072  0.0693 -0.1687 -0.2465
  854MOL0     C17739   8.505   0.439   9.009 -0.8244 -0.1066 -0.7479
  854MOL0     C17740   8.482   0.435   8.871  0.6678 -0.0244 -0.0265
  854MOL0     C17741   8.588   0.397   8.786  0.3690 -0.4085  0.7970
  854MOL0     C17742   8.555   0.426   8.639 -0.1860  0.2071 -1.3225
  854MOL0     C17743   8.701   0.327   8.834 -0.3121 -0.6302  0.3444
  854MOL0     C17744   8.819   0.281   8.750 -0.5514 -0.2813  1.2095
  854MOL0     O17745   8.905   0.201   8.821 -0.5138  0.0929  0.2753
  854MOL0     C17746   8.992   0.115   8.765 -0.1303 -0.5622 -0.7831
  854MOL0     C17747   8.947  -0.013   8.748  0.1579  0.0221 -0.0021
  854MOL0     C17748   9.029  -0.111   8.684  0.6455  0.5300  0.2621
  854MOL0     C17749   9.142  -0.079   8.618 -0.6643  0.0218  0.1773
  854MOL0     O17750   9.212  -0.159   8.529 -0.0105  0.6172 -0.5790
  854MOL0     C17751   9.173  -0.299   8.508  0.3078  0.6689  1.0199
  854MOL0     C17752   9.260  -0.382   8.416  0.9040 -0.3935 -0.1966
  854MOL0     C17753   9.401  -0.349   8.423 -1.4271  0.3941 -0.6666
  854MOL0     C17754   9.492  -0.443   8.349  0.5314 -0.8663  0.2026
  854MOL0     C17755   9.634  -0.429   8.393 -0.4055  0.0796  0.3874
  854MOL0     C17756   9.729  -0.528   8.333  0.0711  0.9757 -0.3507
  854MOL0     C17757   9.869  -0.493   8.365 -0.1908 -0.3384  0.6866
  854MOL0     C17758   9.967  -0.589   8.302 -0.2902 -0.6180 -0.3535
  854MOL0    Cl17759  10.136  -0.537   8.360 -0.2805  0.2690  0.2149
  854MOL0     C17760   9.180   0.060   8.624 -0.0600  0.0830 -0.2067
  854MOL0     C17761   9.115   0.152   8.705  0.5080 -0.2313 -0.6550
  854MOL0     O17762   8.832   0.305   8.634  0.4496  0.1499  0.3994
  854MOL0     C17763   8.717   0.320   8.967  0.1736  0.4469 -1.4727
  854MOL0     C17764   8.624   0.373   9.056  0.8770 -0.9068  0.2157
  854MOL0     N17765   7.868   0.498   9.274 -0.2632  0.6154  0.5802
  854MOL0     N17766   7.784   0.488   9.187  0.7798 -0.0971  0.4131
  854MOL0     C17767   6.895   0.567   9.357 -0.8328  0.1273 -0.2892
  854MOL0     C17768   6.768   0.519   9.331 -0.6815  0.1207 -1.1323
  854MOL0     C17769   6.326   0.461   9.356 -0.3668 -0.3639 -0.1899
  854MOL0     C17770   6.279   0.511   9.240 -0.7178  0.2455 -0.4833
  854MOL0     C17771   6.162   0.487   9.178 -0.1600 -0.1644 -0.3940
  854MOL0     C17772   6.069   0.415   9.252 -0.1871 -0.1019  0.3667
  854MOL0     O17773   5.938   0.385   9.215  0.2483 -0.5457 -0.1558
  854MOL0     C17774   5.840   0.331   9.308 -0.3835  0.3205  0.1723
  854MOL0     C17775   5.701   0.364   9.260  0.3760 -0.9905 -0.0079
  854MOL0     C17776   5.681   0.516   9.254 -0.7117  0.3041  0.3990
  854MOL0     C17777   5.536   0.569   9.229 -0.0463  0.6426 -0.2411
  854MOL0     C17778   5.455   0.528   9.349 -0.1004 -0.0661  0.1675
  854MOL0     C17779   5.375   0.502   9.442  0.2507  0.0885  0.1165
  854MOL0     C17780   6.111   0.358   9.376 -0.6841  0.1177 -0.3241
  854MOL0     C17781   6.241   0.372   9.420 -0.1148  0.1109 -0.4325
  854MOL0     C17782   6.276   0.309   9.551  0.0076 -0.4812 -0.3277
  854MOL0     H17783   6.601   0.812   9.382 -0.6127  0.3463 -1.6827
  854MOL0     H17784   6.814   0.885   9.441 -1.5341 -0.2217 -1.3740
  854MOL0     H17785   7.027   0.921   9.523  1.7311  0.5146  0.5974
  854MOL0     H17786   7.034   0.937   9.341  1.0480 -0.5314 -1.1915
  854MOL0     H17787   7.244   1.026   9.460  3.1396 -0.0907 -1.2329
  854MOL0     H17788   7.263   0.867   9.531 -1.5897 -0.7658  0.9845
  854MOL0     H17789   7.248   0.876   9.234 -1.8325 -1.5020  0.5558
  854MOL0     H17790   7.393   0.946   9.330 -0.5227 -0.1609  2.6629
  854MOL0     H17791   7.453   0.712   9.414  0.2051 -0.7683 -0.6998
  854MOL0     H17792   7.312   0.641   9.351  1.3959 -0.5064  2.7757
  854MOL0     H17793   7.375   0.674   9.121 -1.0865  3.2045  0.1620
  854MOL0     H17794   7.500   0.588   9.216 -1.8895 -0.4478  0.8409
  854MOL0     H17795   7.524   0.885   9.152 -0.3035  0.4923 -4.0679
  854MOL0     H17796   7.647   0.780   9.225  0.1585  1.9341 -0.7795
  854MOL0     H17797   7.688   0.823   8.985 -2.7274  1.9726 -0.7271
  854MOL0     H17798   7.531   0.751   8.937 -1.8034  3.3451  1.4624
  854MOL0     H17799   7.619   0.541   8.988  2.3067 -1.2105 -2.7204
  854MOL0     H17800   7.731   0.606   8.890  1.2000  0.1455 -0.1021
  854MOL0     H17801   7.941   0.766   9.101  0.0562 -0.5613  0.6178
  854MOL0     H17802   8.052   0.633   9.428  0.7636 -0.5588 -0.0904
  854MOL0     H17803   8.086   0.746   9.300  0.4149 -0.1115 -2.2261
  854MOL0     H17804   8.155   0.439   9.283 -0.3159 -0.1737 -0.9549
  854MOL0     H17805   8.165   0.553   9.151 -3.3609 -1.5013  0.1015
  854MOL0     H17806   8.323   0.697   9.286 -2.8151  0.5595 -1.3580
  854MOL0     H17807   8.347   0.563   9.401  0.2673 -3.7370 -1.4984
  854MOL0     H17808   8.518   0.545   9.244 -0.2928 -2.4015  0.7880
  854MOL0     H17809   8.409   0.405   9.245 -0.7850  0.1746  1.1006
  854MOL0     H17810   8.390   0.487   8.845 -0.1881 -1.2455  0.4879
  854MOL0     H17811   8.650   0.460   8.595  0.6123  1.5642  1.2950
  854MOL0     H17812   8.475   0.500   8.633  0.0703  0.9011  1.9898
  854MOL0     H17813   8.514   0.341   8.583 -0.8819  0.8252 -1.7755
  854MOL0     H17814   8.848  -0.046   8.779 -1.8805  3.0659 -2.5886
  854MOL0     H17815   8.991  -0.213   8.692 -2.3589  1.6071  1.1919
  854MOL0     H17816   9.155  -0.345   8.606  1.3830  0.6068  1.1978
  854MOL0     H17817   9.078  -0.284   8.457  0.5129  0.1357  0.4812
  854MOL0     H17818   9.253  -0.488   8.442 -2.4539  0.0174  1.0739
  854MOL0     H17819   9.219  -0.380   8.315  1.1250 -2.3547 -0.3493
  854MOL0     H17820   9.419  -0.361   8.530 -1.0836  0.3868 -0.7235
  854MOL0     H17821   9.423  -0.247   8.391  1.3730  1.3587  3.5009
  854MOL0     H17822   9.490  -0.418   8.243  3.8854 -0.4159  0.1296
  854MOL0     H17823   9.464  -0.548   8.363  0.4354 -0.8151  0.4006
  854MOL0     H17824   9.674  -0.327   8.384  0.2206 -0.2261 -0.4298
  854MOL0     H17825   9.636  -0.448   8.500  1.1231 -3.1400 -0.0967
  854MOL0     H17826   9.724  -0.523   8.224  1.4830 -1.2770 -0.5742
  854MOL0     H17827   9.696  -0.625   8.372  0.1119  1.9421  2.2740
  854MOL0     H17828   9.882  -0.482   8.473  0.5065  0.7592  0.5084
  854MOL0     H17829   9.881  -0.391   8.327 -2.2053 -0.5262 -0.5686
  854MOL0     H17830   9.962  -0.592   8.193 -2.4768 -1.4873 -0.2703
  854MOL0     H17831   9.939  -0.690   8.335 -0.8169 -0.3167  0.1314
  854MOL0     H17832   9.262   0.083   8.557 -0.7773  1.8535 -0.5205
  854MOL0     H17833   9.147   0.256   8.707  2.3384 -0.7798  0.3373
  854MOL0     H17834   8.801   0.267   9.011 -0.0775 -0.1508 -1.7140
  854MOL0     H17835   8.667   0.368   9.156  2.6546 -2.4465 -0.5788
  854MOL0     H17836   6.970   0.489   9.348 -0.9286 -0.3715  2.4611
  854MOL0     H17837   6.755   0.413   9.315  0.5850 -0.5046  1.4612
  854MOL0     H17838   6.340   0.575   9.178  0.6909 -2.2239 -1.7806
  854MOL0     H17839   6.122   0.552   9.100 -1.3302  2.5609  2.2870
  854MOL0     H17840   5.838   0.222   9.306 -0.0177  0.3206 -0.2983
  854MOL0     H17841   5.853   0.353   9.415 -0.0995 -4.3187  1.2871
  854MOL0     H17842   5.634   0.309   9.326  3.5690 -1.6735  2.9638
  854MOL0     H17843   5.693   0.326   9.158 -1.8268  1.4102 -0.8597
  854MOL0     H17844   5.700   0.552   9.356  0.4754  0.2650  0.2107
  854MOL0     H17845   5.758   0.562   9.191  1.4444 -2.0506  1.1288
  854MOL0     H17846   5.505   0.515   9.139  1.7210 -0.6123 -0.1614
  854MOL0     H17847   5.547   0.676   9.210  1.5803  0.9513  1.9973
  854MOL0     H17848   5.315   0.469   9.524 -0.9259 -0.3926 -0.8868
  854MOL0     H17849   6.046   0.288   9.428  0.2063  0.5632  1.4608
  854MOL0     H17850   6.239   0.370   9.634 -1.9640 -2.0939  0.0709
  854MOL0     H17851   6.224   0.212   9.556 -0.9014 -0.0225 -0.6034
  854MOL0     H17852   6.383   0.298   9.569  0.3534  1.3646 -1.1092
  855MOL0     O17853   4.668  10.625   5.189  0.0076  0.4507  0.2342
  855MOL0     C17854   4.633  10.733   5.145 -0.5538 -0.1700 -0.3825
  855MOL0     O17855   4.696  10.855   5.179 -0.2386  0.0545 -0.3618
  855MOL0     C17856   4.813  10.851   5.254 -1.0139 -0.5583  0.8567
  855MOL0     C17857   4.921  10.752   5.251 -0.0209  0.1229  0.9842
  855MOL0     C17858   5.035  10.764   5.327 -0.2223  0.2132 -0.3441
  855MOL0     C17859   5.062  10.885   5.390  0.5265  0.2591  0.3381
  855MOL0     O17860   5.187  10.906   5.451  0.3585 -0.2821  0.6317
  855MOL0     C17861   5.277  10.797   5.443  0.5301 -0.4892  0.0462
  855MOL0     C17862   5.410  10.839   5.495  0.9335 -0.8108  0.7509
  855MOL0     C17863   5.516  10.733   5.498  0.5531  0.1716  1.0185
  855MOL0     C17864   5.615  10.758   5.610 -0.1152  0.5781  0.3642
  855MOL0     C17865   5.732  10.668   5.631  0.5532 -0.9064 -0.0307
  855MOL0     C17866   5.851  10.705   5.536 -0.4802  0.0811 -0.3539
  855MOL0     C17867   5.980  10.624   5.548  1.5067 -0.4314  0.2921
  855MOL0     C17868   6.064  10.654   5.426 -0.6538  0.4199 -0.1211
  855MOL0     N17869   6.202  10.625   5.455  0.2578  0.0697  0.8957
  855MOL0     C17870   6.257  10.501   5.440  0.3931 -0.5893  0.1120
  855MOL0     C17871   6.390  10.521   5.484 -0.2280  0.0385  0.1732
  855MOL0     C17872   6.488  10.412   5.508 -0.2143 -0.0297  0.1034
  855MOL0     C17873   6.595  10.413   5.395 -0.0611 -1.4331 -1.0907
  855MOL0     C17874   6.535  10.332   5.275  0.2076  0.3478  0.3055
  855MOL0     C17875   6.619  10.329   5.152  0.0066 -0.3764  0.1779
  855MOL0     O17876   6.761  10.314   5.170  0.1921  1.2082  0.1732
  855MOL0     C17877   6.845  10.322   5.058  0.3033 -0.3486  0.2431
  855MOL0     C17878   6.808  10.367   4.928  0.1052 -0.2199 -1.0791
  855MOL0     C17879   6.901  10.393   4.832  0.0964  1.0716  0.2903
  855MOL0     C17880   6.849  10.432   4.691  0.5865  0.8456  0.2311
  855MOL0     C17881   7.033  10.364   4.846 -0.3824  0.0721 -0.2421
  855MOL0     C17882   7.144  10.380   4.736  0.2848 -0.2052 -0.2280
  855MOL0     O17883   7.267  10.328   4.770 -0.6033  0.2299 -0.2536
  855MOL0     C17884   7.377  10.333   4.693  1.2154 -0.3275 -0.5022
  855MOL0     C17885   7.393  10.400   4.562 -0.5392  0.1573  0.5033
  855MOL0     C17886   7.520  10.406   4.492 -0.9728 -0.4375  0.7457
  855MOL0     C17887   7.628  10.345   4.562  0.5266  0.3478  0.9554
  855MOL0     O17888   7.755  10.335   4.514  0.1067  0.7822 -0.3773
  855MOL0     C17889   7.794  10.391   4.387  1.0428  0.4319 -0.4233
  855MOL0     C17890   7.934  10.344   4.332 -0.2935 -0.7845 -0.6562
  855MOL0     C17891   8.051  10.388   4.423 -1.1419  0.1491 -0.3892
  855MOL0     C17892   8.193  10.347   4.365 -0.7832 -0.2580  0.0147
  855MOL0     C17893   8.297  10.371   4.480 -0.9366  0.0488  0.3780
  855MOL0     C17894   8.437  10.314   4.433  0.3489 -0.3276  0.0497
  855MOL0     C17895   8.449  10.156   4.412 -0.3821  0.1466  0.3036
  855MOL0     C17896   8.593  10.123   4.368 -0.5224 -0.2798 -0.0526
  855MOL0    Cl17897   8.698  10.122   4.506 -0.1531  0.2446  0.3373
  855MOL0     C17898   7.611  10.285   4.689  1.1316 -0.0096  0.4130
  855MOL0     C17899   7.489  10.280   4.755  0.7175  0.8703  0.4966
  855MOL0     O17900   7.113  10.436   4.632 -0.6264 -0.1096  0.2532
  855MOL0     C17901   7.069  10.302   4.967 -0.9821 -0.8002 -0.3199
  855MOL0     C17902   6.978  10.280   5.069 -0.3473  0.7768  0.1443
  855MOL0     N17903   6.408  10.653   5.530 -0.5500  1.0858  0.5641
  855MOL0     N17904   6.298  10.714   5.503 -0.1001 -0.0899  0.3480
  855MOL0     C17905   4.965  10.983   5.387 -0.3604 -0.0957 -0.6957
  855MOL0     C17906   4.846  10.966   5.319 -0.0066 -0.6465  0.2875
  855MOL0     C17907   4.521  10.756   5.045 -0.6549  0.5187  0.0443
  855MOL0     C17908   4.467  10.883   5.040  0.7166  0.1072  0.0450
  855MOL0     C17909   4.364  10.920   4.954  0.5113  0.2274 -0.9195
  855MOL0     C17910   4.289  10.820   4.886  1.2114  0.6748  0.5266
  855MOL0     O17911   4.171  10.859   4.836  0.0097  0.0101  0.7829
  855MOL0     C17912   4.074  10.760   4.800  0.2469 -0.0694 -0.4267
  855MOL0     C17913   3.934  10.825   4.792  0.2818  0.0038 -0.5804
  855MOL0     C17914   3.936  10.921   4.676  0.3529 -0.8069 -0.1039
  855MOL0     C17915   3.806  11.001   4.686 -0.0935  0.6543  0.8762
  855MOL0     C17916   3.811  11.120   4.601 -0.5046  0.5420  0.1965
  855MOL0     C17917   3.835  11.210   4.525 -0.1753  0.1441  0.5908
  855MOL0     C17918   4.347  10.685   4.892 -0.2225 -0.7166  0.1441
  855MOL0     C17919   4.463  10.651   4.976  0.1475 -1.5846  0.9391
  855MOL0     C17920   4.528  10.516   4.948 -0.0553  0.0785 -0.4739
  855MOL0     H17921   4.899  10.664   5.190 -2.3393  0.3793  1.3776
  855MOL0     H17922   5.100  10.677   5.326  0.1615  0.4966 -1.6809
  855MOL0     H17923   5.292  10.757   5.342  1.0901 -0.4179  0.0965
  855MOL0     H17924   5.244  10.712   5.502 -0.6062 -1.4713 -1.9089
  855MOL0     H17925   5.447  10.912   5.424 -1.8331 -0.6659 -0.6700
  855MOL0     H17926   5.393  10.883   5.594  0.9405  0.8265  0.0413
  855MOL0     H17927   5.477  10.632   5.512 -0.5252  0.6189  1.3656
  855MOL0     H17928   5.561  10.727   5.398 -4.3857 -0.0068 -1.5417
  855MOL0     H17929   5.653  10.860   5.596  0.2734  0.4598  0.5345
  855MOL0     H17930   5.562  10.767   5.706  0.5520  0.9972  0.7051
  855MOL0     H17931   5.697  10.566   5.612 -0.2306 -0.1669 -2.9534
  855MOL0     H17932   5.772  10.673   5.733  2.4240  1.0288 -0.7865
  855MOL0     H17933   5.822  10.701   5.430  0.2603  3.3186 -0.7836
  855MOL0     H17934   5.880  10.809   5.553 -3.4071  0.6758  1.9824
  855MOL0     H17935   5.976  10.515   5.556  0.2617 -0.5613 -1.5039
  855MOL0     H17936   6.025  10.665   5.639  1.0946  2.5742 -0.7233
  855MOL0     H17937   6.024  10.607   5.336  2.9413  0.0050 -1.6631
  855MOL0     H17938   6.050  10.761   5.409 -1.5114  0.4539  0.6937
  855MOL0     H17939   6.206  10.413   5.403 -0.5078 -1.1421  2.4922
  855MOL0     H17940   6.436  10.316   5.516  1.4411 -0.8174  2.2325
  855MOL0     H17941   6.542  10.423   5.603  0.9125 -2.5544 -0.1807
  855MOL0     H17942   6.626  10.513   5.364  0.0527 -0.7161  1.2201
  855MOL0     H17943   6.687  10.365   5.428  1.8883  0.2360 -3.6772
  855MOL0     H17944   6.538  10.227   5.307 -1.6211  0.3529  0.6220
  855MOL0     H17945   6.436  10.371   5.249  0.1187  0.7460  1.1928
  855MOL0     H17946   6.592  10.250   5.081  0.7550 -2.9118  2.4973
  855MOL0     H17947   6.609  10.421   5.095 -2.7131 -1.4141 -1.1847
  855MOL0     H17948   6.706  10.394   4.905 -0.4183 -0.9468  0.2718
  855MOL0     H17949   6.740  10.430   4.691  0.5650  1.4423 -0.7056
  855MOL0     H17950   6.877  10.364   4.611 -3.0984 -0.6561  0.0150
  855MOL0     H17951   6.869  10.534   4.658 -2.3247  1.1914 -0.7408
  855MOL0     H17952   7.313  10.447   4.505  0.9353 -1.9595 -3.7628
  855MOL0     H17953   7.538  10.454   4.396 -0.8112  1.9284  1.8922
  855MOL0     H17954   7.720  10.349   4.318  1.0486 -1.3011  0.5596
  855MOL0     H17955   7.784  10.500   4.385 -0.1119  0.3393 -0.8806
  855MOL0     H17956   7.937  10.235   4.336  2.4424 -0.7475  1.7847
  855MOL0     H17957   7.950  10.371   4.227  0.4971 -0.6168 -0.5030
  855MOL0     H17958   8.037  10.339   4.519  0.5296 -0.7856 -0.5909
  855MOL0     H17959   8.036  10.496   4.438 -1.1510  0.6432 -3.2371
  855MOL0     H17960   8.217  10.407   4.277 -1.2434  5.2491  3.1797
  855MOL0     H17961   8.175  10.244   4.336 -0.5673  0.0799 -1.3767
  855MOL0     H17962   8.287  10.476   4.508 -2.1465  0.2254 -0.6450
  855MOL0     H17963   8.266  10.332   4.578 -0.1196 -0.7107  0.3500
  855MOL0     H17964   8.512  10.342   4.507  0.5201 -2.2971  0.6706
  855MOL0     H17965   8.471  10.361   4.340  0.8083  0.0632  0.4108
  855MOL0     H17966   8.369  10.117   4.348 -2.2637  1.1392  1.9373
  855MOL0     H17967   8.432  10.098   4.503  5.6830  1.0203  2.4342
  855MOL0     H17968   8.618  10.196   4.290  1.8902  0.1730  1.0638
  855MOL0     H17969   8.605  10.030   4.312  0.4173  1.0355 -2.1724
  855MOL0     H17970   7.695  10.225   4.724  0.0496 -0.9501  1.4658
  855MOL0     H17971   7.486  10.229   4.851 -0.0850  0.0907  0.0694
  855MOL0     H17972   7.169  10.275   5.002 -2.4040 -2.6302  2.7686
  855MOL0     H17973   7.014  10.230   5.159  2.2654  0.5608 -0.9395
  855MOL0     H17974   4.979  11.069   5.452  1.7235 -1.2593  0.4963
  855MOL0     H17975   4.762  11.034   5.329 -0.4343 -0.6719 -2.4309
  855MOL0     H17976   4.503  10.967   5.098  0.1346 -0.7150  1.6686
  855MOL0     H17977   4.319  11.019   4.956  1.1747  0.5179 -0.1019
  855MOL0     H17978   4.113  10.721   4.705  2.1929 -0.5502  0.4951
  855MOL0     H17979   4.081  10.678   4.873 -2.6179  0.4920  0.6065
  855MOL0     H17980   3.905  10.866   4.889  0.4534 -1.8081  0.2752
  855MOL0     H17981   3.852  10.758   4.769 -0.1719  0.9406 -1.8146
  855MOL0     H17982   4.026  10.982   4.693 -1.7413  2.1561  1.1944
  855MOL0     H17983   3.952  10.859   4.587  0.1986 -1.3807  0.2674
  855MOL0     H17984   3.798  11.030   4.792 -3.0081  1.3900  0.5179
  855MOL0     H17985   3.723  10.935   4.660  0.8771  0.2271 -1.3613
  855MOL0     H17986   3.851  11.290   4.454  3.6402 -2.2622 -1.6173
  855MOL0     H17987   4.317  10.605   4.826  1.5335 -1.2402 -0.0703
  855MOL0     H17988   4.635  10.518   4.930 -0.2951  1.7727 -2.0798
  855MOL0     H17989   4.513  10.453   5.035 -0.5666  0.5516 -0.2104
  855MOL0     H17990   4.487  10.456   4.866  0.6804  0.3833 -1.0695
  856MOL0     O17991   6.027   5.104   1.435 -0.7272 -0.4343  0.2201
  856MOL0     C17992   5.925   5.146   1.487  0.0544  0.4603 -0.0563
  856MOL0     O17993   5.886   5.116   1.611 -0.0420  0.4982 -0.5307
  856MOL0     C17994   5.973   5.040   1.685 -0.6112 -0.1481 -0.2302
  856MOL0     C17995   6.038   4.916   1.651 -0.3390 -0.4168  0.3808
  856MOL0     C17996   6.115   4.850   1.743 -0.2574  0.5454 -0.4238
  856MOL0     C17997   6.138   4.902   1.874 -0.6822 -0.3133 -0.7021
  856MOL0     O17998   6.211   4.836   1.964  0.1674 -0.8530  0.2541
  856MOL0     C17999   6.119   4.733   2.019 -0.6587 -0.0156  0.1385
  856MOL0     C18000   6.211   4.610   2.065 -0.0620 -0.1176 -0.4282
  856MOL0     C18001   6.274   4.635   2.202  0.4532 -0.2829 -0.3495
  856MOL0     C18002   6.378   4.534   2.225  0.3782  0.2342 -0.2743
  856MOL0     C18003   6.461   4.556   2.348 -0.7114 -0.0334 -0.9156
  856MOL0     C18004   6.538   4.434   2.402 -1.1804  0.1538  0.2153
  856MOL0     C18005   6.664   4.488   2.475 -1.5382  0.3020 -0.6219
  856MOL0     C18006   6.756   4.382   2.539  0.8560 -0.1100  0.1543
  856MOL0     N18007   6.856   4.342   2.442  0.0446 -0.5089 -0.5412
  856MOL0     C18008   6.835   4.251   2.349  0.3745  0.0678  0.2948
  856MOL0     C18009   6.949   4.256   2.279 -0.8395 -0.7337 -0.1002
  856MOL0     C18010   6.988   4.161   2.169 -0.7206 -0.1388  0.2221
  856MOL0     C18011   7.005   4.234   2.030  0.2481  0.7677  0.3482
  856MOL0     C18012   7.083   4.143   1.935 -0.3157 -0.3651 -0.6453
  856MOL0     C18013   7.078   4.206   1.791  1.2190 -0.7059 -0.0006
  856MOL0     O18014   7.129   4.345   1.797 -0.7675  0.1000  0.1457
  856MOL0     C18015   7.098   4.436   1.702 -0.2871 -0.0189  0.7206
  856MOL0     C18016   7.024   4.413   1.574 -0.8991 -0.2108  0.0130
  856MOL0     C18017   7.010   4.521   1.489 -0.2563 -0.5055  0.4879
  856MOL0     C18018   6.956   4.473   1.359  0.2211 -0.7721 -0.4226
  856MOL0     C18019   7.037   4.657   1.524 -0.9564  0.3337  0.7209
  856MOL0     C18020   7.007   4.776   1.436 -0.2770 -0.4133  0.7393
  856MOL0     O18021   6.897   4.777   1.351 -0.3272 -0.7869 -0.3970
  856MOL0     C18022   6.878   4.869   1.245  0.2716 -0.0649  0.0989
  856MOL0     C18023   6.954   4.980   1.213 -0.3310 -0.2346 -0.4919
  856MOL0     C18024   6.925   5.051   1.099  0.4961  0.8467  0.6419
  856MOL0     C18025   6.819   5.018   1.011  0.1570  0.4804 -0.1886
  856MOL0     O18026   6.801   5.088   0.896  0.2214 -0.3087  0.6390
  856MOL0     C18027   6.673   5.083   0.841  1.0476 -0.6820  1.0776
  856MOL0     C18028   6.648   5.208   0.745  0.9838  0.0478 -0.6273
  856MOL0     C18029   6.716   5.195   0.611  0.6145 -0.5699  0.1113
  856MOL0     C18030   6.712   5.063   0.544 -0.3994  0.4907 -0.3354
  856MOL0     C18031   6.782   5.054   0.402  0.6581 -0.1907  0.2570
  856MOL0     C18032   6.930   5.034   0.392 -0.2874  0.2435  0.0898
  856MOL0     C18033   6.993   5.054   0.256  1.0569 -0.5349 -0.9922
  856MOL0     C18034   7.142   5.043   0.264 -0.8137  0.9690 -0.1669
  856MOL0    Cl18035   7.191   4.881   0.323  0.0593  0.2325 -0.4237
  856MOL0     C18036   6.737   4.899   1.051 -0.7035 -0.4283  0.0412
  856MOL0     C18037   6.770   4.826   1.173 -0.2157  0.3266  0.4893
  856MOL0     O18038   7.086   4.871   1.446  0.0281  0.5592  0.0708
  856MOL0     C18039   7.085   4.676   1.657  0.6505  0.0967 -0.7160
  856MOL0     C18040   7.133   4.566   1.733  0.1072  0.3576 -0.0284
  856MOL0     N18041   7.029   4.367   2.320  0.1417  0.2166  1.1171
  856MOL0     N18042   6.969   4.416   2.422  0.2471 -1.1288 -0.0678
  856MOL0     C18043   6.083   5.021   1.903  0.6811 -0.9618 -0.3567
  856MOL0     C18044   5.999   5.094   1.815 -0.3011 -0.3881  0.5593
  856MOL0     C18045   5.847   5.239   1.409 -0.0774 -0.9412  0.2378
  856MOL0     C18046   5.721   5.264   1.459 -0.4026  0.4907  0.9694
  856MOL0     C18047   5.645   5.372   1.419 -0.1884  0.5201 -0.8844
  856MOL0     C18048   5.688   5.450   1.313 -0.0069 -0.5844 -0.5893
  856MOL0     O18049   5.612   5.562   1.275  0.6329 -0.3879  0.3939
  856MOL0     C18050   5.661   5.667   1.195  0.2356  0.4121  0.0476
  856MOL0     C18051   5.629   5.804   1.245  0.5227 -0.1191  0.1696
  856MOL0     C18052   5.717   5.843   1.359 -0.4030  0.3653 -0.6671
  856MOL0     C18053   5.647   5.862   1.494 -0.9122  0.3384  1.1905
  856MOL0     C18054   5.589   5.994   1.487  0.3993  0.2293  0.1877
  856MOL0     C18055   5.531   6.095   1.488 -0.6557 -0.3447 -0.0395
  856MOL0     C18056   5.806   5.413   1.245  0.8759  0.0190 -0.4304
  856MOL0     C18057   5.880   5.303   1.286 -0.2011 -0.4098  0.2712
  856MOL0     C18058   5.995   5.262   1.193 -0.0660  0.5243 -0.2821
  856MOL0     H18059   6.021   4.880   1.550  2.2266  0.6792 -0.5088
  856MOL0     H18060   6.170   4.758   1.725  1.9087  1.4062  1.2577
  856MOL0     H18061   6.048   4.699   1.943  1.8709 -3.2428 -1.0201
  856MOL0     H18062   6.064   4.772   2.105 -0.3087  0.6655  0.0519
  856MOL0     H18063   6.149   4.520   2.069  1.4228 -1.1950 -0.8811
  856MOL0     H18064   6.297   4.608   1.997  0.6362  1.3370  0.3475
  856MOL0     H18065   6.317   4.736   2.207  1.3418 -0.6572 -0.1681
  856MOL0     H18066   6.204   4.628   2.285  1.6331 -1.3954  0.5909
  856MOL0     H18067   6.328   4.438   2.238 -0.8021  0.9802  0.9396
  856MOL0     H18068   6.449   4.533   2.141  0.1246  0.5776 -0.4914
  856MOL0     H18069   6.394   4.598   2.424  1.3669 -0.8998  1.5475
  856MOL0     H18070   6.522   4.640   2.311 -0.3397 -0.3525 -1.0368
  856MOL0     H18071   6.479   4.389   2.482 -0.6238 -1.7581 -0.4083
  856MOL0     H18072   6.578   4.361   2.331 -0.3569  0.8656 -0.0745
  856MOL0     H18073   6.632   4.564   2.548  0.6347  1.0202 -0.3298
  856MOL0     H18074   6.726   4.536   2.399  1.5464  0.1763  1.5804
  856MOL0     H18075   6.804   4.418   2.630 -1.2863 -0.2556  1.4046
  856MOL0     H18076   6.695   4.295   2.566  0.7509  0.2531  1.1097
  856MOL0     H18077   6.749   4.186   2.337  0.4025 -0.0682  0.8430
  856MOL0     H18078   6.915   4.083   2.148  0.4809 -1.2067 -0.0968
  856MOL0     H18079   7.084   4.116   2.199  0.5433  2.0090 -0.3882
  856MOL0     H18080   6.901   4.254   2.004  0.6973 -0.0100 -2.3831
  856MOL0     H18081   7.053   4.331   2.044 -1.7321  1.8166  0.1091
  856MOL0     H18082   7.185   4.132   1.973 -0.8865 -4.2645  0.2484
  856MOL0     H18083   7.055   4.037   1.925  3.3724 -1.5397  0.0011
  856MOL0     H18084   7.144   4.160   1.717  1.5050  3.1821 -2.4546
  856MOL0     H18085   6.974   4.209   1.756  2.4565  1.2710 -4.0291
  856MOL0     H18086   6.995   4.310   1.555  0.6746 -1.0837  1.9552
  856MOL0     H18087   6.894   4.384   1.376 -0.6839 -0.0093  0.3788
  856MOL0     H18088   7.051   4.455   1.308  0.1401 -0.9434 -0.5146
  856MOL0     H18089   6.903   4.547   1.298  3.8872  0.0796 -2.9080
  856MOL0     H18090   7.046   5.008   1.264 -0.5759 -0.6302  0.1723
  856MOL0     H18091   6.997   5.123   1.063  1.0099  1.0617  2.0550
  856MOL0     H18092   6.644   4.992   0.788 -0.1371  0.6801 -0.7527
  856MOL0     H18093   6.600   5.081   0.923 -0.0013 -2.7859  0.1685
  856MOL0     H18094   6.540   5.222   0.743  0.8418 -0.8399  0.1259
  856MOL0     H18095   6.693   5.294   0.796 -0.8616 -0.7822  2.6816
  856MOL0     H18096   6.822   5.210   0.632  0.2417 -1.4189  3.1185
  856MOL0     H18097   6.675   5.277   0.552 -1.4005 -0.4558  1.5414
  856MOL0     H18098   6.607   5.034   0.533 -0.6512  0.5807  1.4389
  856MOL0     H18099   6.758   4.996   0.617 -0.3989  0.6618 -0.1764
  856MOL0     H18100   6.728   4.970   0.358 -0.6937 -0.9822  3.2301
  856MOL0     H18101   6.773   5.152   0.352  1.7012 -0.2466 -0.0724
  856MOL0     H18102   6.957   4.934   0.426 -1.1287  0.5737  1.8527
  856MOL0     H18103   6.972   5.110   0.459 -2.5178  0.0685  1.8122
  856MOL0     H18104   6.957   5.142   0.203 -0.7474 -0.3736  0.3958
  856MOL0     H18105   6.948   4.980   0.188  0.6346 -1.3171  0.1137
  856MOL0     H18106   7.181   5.120   0.331 -2.4480  1.2024  0.5646
  856MOL0     H18107   7.188   5.039   0.165 -3.1294 -2.4915 -1.3053
  856MOL0     H18108   6.650   4.858   1.001 -0.3669 -0.1954 -0.7492
  856MOL0     H18109   6.712   4.737   1.195  1.5330 -1.6045 -2.0901
  856MOL0     H18110   7.090   4.781   1.683  1.3633  0.8026 -3.3952
  856MOL0     H18111   7.191   4.588   1.821 -2.2227  0.4188  1.5924
  856MOL0     H18112   6.110   5.061   2.000 -2.6533 -0.9604  0.6777
  856MOL0     H18113   5.973   5.197   1.837  3.1400  1.1732 -1.7849
  856MOL0     H18114   5.678   5.203   1.538 -3.2514 -2.2416 -2.3507
  856MOL0     H18115   5.550   5.398   1.465 -0.7971  0.8068 -2.2542
  856MOL0     H18116   5.769   5.666   1.176  0.0133 -0.7180 -1.3367
  856MOL0     H18117   5.607   5.661   1.100 -2.2288  1.5964  1.2887
  856MOL0     H18118   5.522   5.803   1.265  0.6862 -3.2116  1.5896
  856MOL0     H18119   5.649   5.867   1.158 -2.9856  0.6291 -0.2323
  856MOL0     H18120   5.794   5.766   1.374 -0.4224 -0.1322 -2.7790
  856MOL0     H18121   5.775   5.933   1.338 -1.4393  0.2949 -4.5934
  856MOL0     H18122   5.731   5.856   1.564 -0.5283  2.3728  0.9555
  856MOL0     H18123   5.577   5.782   1.521 -0.0791 -0.8261  0.0457
  856MOL0     H18124   5.484   6.189   1.470  3.2672  1.6183 -1.1848
  856MOL0     H18125   5.836   5.468   1.156  2.2062  0.0636  0.0236
  856MOL0     H18126   5.964   5.303   1.097  1.0824  1.9597 -0.0707
  856MOL0     H18127   6.092   5.295   1.231 -1.9743  2.2498  3.7360
  856MOL0     H18128   5.991   5.153   1.206 -0.5170  0.7514  1.8708
  857MOL0     O18129   9.907   5.869   8.879 -0.0404  0.5115  0.0125
  857MOL0     C18130   9.910   5.961   8.797 -0.9171 -0.3427 -0.5731
  857MOL0     O18131  10.028   6.002   8.753 -0.3947  0.3643  0.1658
  857MOL0     C18132  10.140   5.956   8.813 -0.1275 -0.1159  0.2574
  857MOL0     C18133  10.168   5.955   8.951 -0.2924 -0.1265  0.8089
  857MOL0     C18134  10.296   5.929   8.999  0.3563 -0.3510 -0.2214
  857MOL0     C18135  10.403   5.908   8.910 -0.4984  0.2862  0.0666
  857MOL0     O18136  10.524   5.870   8.956  0.1441 -0.0127 -0.5416
  857MOL0     C18137  10.609   5.977   8.988 -0.1150  0.4768 -0.8929
  857MOL0     C18138  10.746   5.981   8.911 -0.1004  0.3829  0.0394
  857MOL0     C18139  10.791   5.841   8.889 -0.1107  1.1744 -0.3070
  857MOL0     C18140  10.929   5.825   8.952 -0.0885 -0.4553  0.2591
  857MOL0     C18141  10.916   5.848   9.108 -0.3293  0.3625  0.1114
  857MOL0     C18142  11.019   5.774   9.193 -1.0943  0.2537 -0.3314
  857MOL0     C18143  11.001   5.623   9.197 -1.3374  0.3097  0.0550
  857MOL0     C18144  11.123   5.540   9.270 -0.0751 -0.1443  0.9977
  857MOL0     N18145  11.071   5.407   9.312 -0.7338 -1.2355 -0.0760
  857MOL0     C18146  11.051   5.349   9.435 -0.7407 -0.8064  0.0654
  857MOL0     C18147  11.009   5.221   9.418 -0.3210 -0.2272 -0.8015
  857MOL0     C18148  10.961   5.130   9.529 -0.0874  0.9387  0.6656
  857MOL0     C18149  11.083   5.089   9.612 -0.3320 -0.1043  1.0850
  857MOL0     C18150  11.174   4.963   9.580  0.3170 -0.5033 -0.0373
  857MOL0     C18151  11.324   5.010   9.561 -0.8291 -0.6324  0.2924
  857MOL0     O18152  11.347   5.088   9.436  0.1592 -0.5670  0.3490
  857MOL0     C18153  11.467   5.151   9.436 -0.1050 -0.0362 -0.2996
  857MOL0     C18154  11.464   5.283   9.396 -0.1288  0.3874 -0.3478
  857MOL0     C18155  11.573   5.371   9.405  0.6080 -0.8485 -0.1653
  857MOL0     C18156  11.542   5.514   9.358  0.5082  0.2451 -0.0876
  857MOL0     C18157  11.704   5.320   9.434 -0.0926  0.0737 -0.1403
  857MOL0     C18158  11.833   5.388   9.421  0.0680 -0.4484 -0.2248
  857MOL0     O18159  11.938   5.338   9.498  0.1507  0.2274  0.3976
  857MOL0     C18160  12.044   5.415   9.545 -0.6222  0.8545 -0.9429
  857MOL0     C18161  12.032   5.527   9.623  0.4118  0.3356 -0.1133
  857MOL0     C18162  12.142   5.601   9.662 -1.1921  0.6490 -0.2374
  857MOL0     C18163  12.279   5.561   9.633  0.3026  0.0750  0.0809
  857MOL0     O18164  12.384   5.634   9.681  0.7770 -0.5765 -0.0930
  857MOL0     C18165  12.512   5.629   9.623  0.6903  1.0054  0.0779
  857MOL0     C18166  12.589   5.756   9.640  0.4863 -0.4133 -0.0363
  857MOL0     C18167  12.695   5.787   9.542 -0.8614  0.2089  0.4440
  857MOL0     C18168  12.803   5.676   9.548  0.2053 -0.1413  0.8423
  857MOL0     C18169  12.873   5.653   9.681 -0.4222 -0.0604 -0.2892
  857MOL0     C18170  12.985   5.547   9.672  0.3766 -0.8200 -0.3043
  857MOL0     C18171  13.063   5.543   9.800 -0.0992  0.4724 -0.1577
  857MOL0     C18172  13.189   5.463   9.782 -0.3779  0.2621  0.4124
  857MOL0    Cl18173  13.266   5.444   9.960 -0.6392 -0.2171  0.1187
  857MOL0     C18174  12.294   5.445   9.560 -0.4075  0.6196  1.3180
  857MOL0     C18175  12.178   5.375   9.515 -1.0442 -0.4746  0.3940
  857MOL0     O18176  11.841   5.486   9.346  0.0283 -0.4647 -0.0894
  857MOL0     C18177  11.703   5.185   9.478  0.1254 -0.5468  0.3694
  857MOL0     C18178  11.586   5.098   9.479 -0.6734 -0.5833  0.7107
  857MOL0     N18179  10.999   5.204   9.281  0.3721 -0.1031 -0.4351
  857MOL0     N18180  11.036   5.314   9.219  0.0722  1.3813 -1.1081
  857MOL0     C18181  10.372   5.907   8.777 -0.1937  1.1624  1.1313
  857MOL0     C18182  10.242   5.922   8.731 -0.7975  0.1507 -0.0149
  857MOL0     C18183   9.785   6.027   8.749 -0.0515  0.3625  0.0391
  857MOL0     C18184   9.804   6.106   8.633 -0.6102  0.3102  0.2479
  857MOL0     C18185   9.702   6.185   8.577 -0.3217  0.1150  0.4981
  857MOL0     C18186   9.579   6.177   8.649 -0.5697  0.8530 -0.0466
  857MOL0     O18187   9.481   6.264   8.595 -0.1710  0.0952 -0.6127
  857MOL0     C18188   9.389   6.328   8.677  1.1442  0.4024 -0.5319
  857MOL0     C18189   9.245   6.317   8.615  0.2978  0.7526  0.8919
  857MOL0     C18190   9.127   6.374   8.690  0.0164 -0.2578  0.3605
  857MOL0     C18191   8.999   6.358   8.607  0.4581  0.4471  0.3063
  857MOL0     C18192   8.880   6.375   8.687  0.2526 -0.4352  0.6567
  857MOL0     C18193   8.775   6.366   8.750 -0.5929 -0.1531 -0.4380
  857MOL0     C18194   9.549   6.088   8.754  0.0915  0.4740  0.1647
  857MOL0     C18195   9.654   6.017   8.810  0.3130  0.1588  0.0536
  857MOL0     C18196   9.620   5.957   8.939 -0.5146  0.5015  0.7749
  857MOL0     H18197  10.082   5.964   9.016 -1.3673 -1.1629 -0.3871
  857MOL0     H18198  10.322   5.934   9.104 -0.5266 -1.4601  0.0708
  857MOL0     H18199  10.632   5.967   9.094  4.0918 -0.2256 -1.6799
  857MOL0     H18200  10.567   6.077   8.973 -4.0815 -0.8146  0.3950
  857MOL0     H18201  10.737   6.036   8.816 -1.8171 -1.6425 -1.0436
  857MOL0     H18202  10.818   6.046   8.961 -0.4968  0.9311 -0.0960
  857MOL0     H18203  10.725   5.765   8.932  1.8853 -0.1946  0.4884
  857MOL0     H18204  10.800   5.819   8.782  0.1799  0.7785 -0.2008
  857MOL0     H18205  10.960   5.721   8.941  0.5524 -0.3698  1.1112
  857MOL0     H18206  11.014   5.871   8.902  0.6870  1.0378  2.7650
  857MOL0     H18207  10.818   5.814   9.141  0.6403 -0.2801  2.5240
  857MOL0     H18208  10.920   5.954   9.134  0.7897  0.2043  0.6369
  857MOL0     H18209  11.116   5.794   9.146 -1.3756  0.4348 -0.8510
  857MOL0     H18210  11.021   5.814   9.294  1.0086  0.6465 -0.4880
  857MOL0     H18211  11.005   5.586   9.094 -0.4103 -2.4604  0.9925
  857MOL0     H18212  10.908   5.608   9.252  0.1856  2.4113  3.6003
  857MOL0     H18213  11.204   5.527   9.198 -2.4886 -0.7961 -1.8079
  857MOL0     H18214  11.155   5.606   9.350 -0.1843  2.1595 -0.7465
  857MOL0     H18215  11.072   5.407   9.524  1.1912 -2.3281  0.6925
  857MOL0     H18216  10.907   5.047   9.482  3.2537 -0.3056 -1.3430
  857MOL0     H18217  10.888   5.182   9.592 -1.7347  0.3198 -0.6519
  857MOL0     H18218  11.151   5.174   9.620 -1.9114  1.3926 -0.5088
  857MOL0     H18219  11.043   5.081   9.714  1.6194 -3.7965  1.7609
  857MOL0     H18220  11.166   4.902   9.670 -3.9512 -1.1796 -0.6454
  857MOL0     H18221  11.138   4.907   9.493  0.7428 -0.9750  0.0857
  857MOL0     H18222  11.359   5.055   9.654  0.5119 -0.4777 -0.2644
  857MOL0     H18223  11.379   4.918   9.538 -0.9139 -0.7852  0.7014
  857MOL0     H18224  11.373   5.331   9.360 -0.1264  0.2128 -0.5882
  857MOL0     H18225  11.598   5.588   9.416  0.1273  2.5215 -2.4190
  857MOL0     H18226  11.436   5.539   9.357  0.3562 -0.3808  0.0817
  857MOL0     H18227  11.569   5.528   9.253 -0.3167 -0.4855 -0.4033
  857MOL0     H18228  11.930   5.562   9.637 -0.9887 -1.7819 -3.6640
  857MOL0     H18229  12.117   5.688   9.722 -4.2195 -0.6607  0.6110
  857MOL0     H18230  12.575   5.556   9.674 -0.4533 -0.3196 -0.3631
  857MOL0     H18231  12.518   5.597   9.519  0.9731 -0.9342  0.6570
  857MOL0     H18232  12.514   5.836   9.643 -1.2923 -1.9278 -1.2035
  857MOL0     H18233  12.624   5.774   9.742  0.1431  0.1590 -0.0158
  857MOL0     H18234  12.739   5.885   9.561 -1.5679  1.0703 -1.9496
  857MOL0     H18235  12.650   5.792   9.442  0.4468 -1.4625 -0.2913
  857MOL0     H18236  12.872   5.691   9.465  1.1096  0.0693  1.6046
  857MOL0     H18237  12.760   5.580   9.517 -4.0965  0.9315  2.6508
  857MOL0     H18238  12.921   5.748   9.707  1.0758 -0.8171 -0.2126
  857MOL0     H18239  12.803   5.635   9.763  0.8249  0.2584  0.8939
  857MOL0     H18240  13.053   5.576   9.591  0.2906  4.3418  1.0621
  857MOL0     H18241  12.953   5.447   9.642  1.2915 -1.9473  2.2235
  857MOL0     H18242  13.010   5.489   9.879  0.5520 -2.1834 -1.4009
  857MOL0     H18243  13.092   5.641   9.838 -0.1123 -0.4584  2.3885
  857MOL0     H18244  13.256   5.516   9.713 -0.0884 -0.2759  0.2677
  857MOL0     H18245  13.171   5.362   9.743 -2.4921 -0.0884  2.1280
  857MOL0     H18246  12.395   5.411   9.536  0.3342  2.7950  1.0990
  857MOL0     H18247  12.205   5.286   9.459  0.1885  1.0324 -1.5490
  857MOL0     H18248  11.793   5.137   9.513  1.5550  3.4268  2.9414
  857MOL0     H18249  11.603   4.997   9.516 -1.3032 -0.4393  1.4103
  857MOL0     H18250  10.451   5.895   8.704 -0.3015 -0.5577  1.2646
  857MOL0     H18251  10.224   5.906   8.625  1.3193  0.0362 -0.3971
  857MOL0     H18252   9.901   6.105   8.584  0.2136  2.4198  1.6795
  857MOL0     H18253   9.727   6.241   8.488  0.6526  0.3666  0.9147
  857MOL0     H18254   9.392   6.289   8.780 -1.2623  0.6350 -0.3090
  857MOL0     H18255   9.419   6.432   8.685  2.5266  0.1673 -2.1093
  857MOL0     H18256   9.221   6.211   8.604 -3.3052  1.4884  0.5531
  857MOL0     H18257   9.259   6.357   8.515  0.2988  0.9479  0.9694
  857MOL0     H18258   9.107   6.322   8.785  0.1888 -0.0660  0.5038
  857MOL0     H18259   9.146   6.480   8.708  1.2072 -0.4245  0.1556
  857MOL0     H18260   8.986   6.256   8.569 -0.8085  1.7703 -3.1948
  857MOL0     H18261   9.004   6.425   8.521 -0.7357 -1.1234 -1.0673
  857MOL0     H18262   8.678   6.348   8.792  0.7489 -2.1312  2.1676
  857MOL0     H18263   9.447   6.075   8.787 -0.1861 -3.4945 -1.6739
  857MOL0     H18264   9.596   6.033   9.014  1.5709 -0.3297  2.3676
  857MOL0     H18265   9.540   5.884   8.923 -0.1793  0.4665 -0.9264
  857MOL0     H18266   9.702   5.893   8.973  0.8636  0.7403 -1.7977
  858MOL0     O18267   6.606  11.356   4.667 -0.3818 -0.1817 -0.0790
  858MOL0     C18268   6.519  11.386   4.743 -0.2870 -0.0726 -0.2612
  858MOL0     O18269   6.545  11.409   4.881 -0.7931 -0.5113  0.0571
  858MOL0     C18270   6.679  11.399   4.916 -0.1922 -0.1765  0.5113
  858MOL0     C18271   6.732  11.289   4.986 -0.0669 -0.1479 -0.2233
  858MOL0     C18272   6.869  11.286   5.020  0.0799 -0.1108 -0.1964
  858MOL0     C18273   6.944  11.401   4.992 -0.1723 -0.0525  0.2115
  858MOL0     O18274   7.083  11.391   5.027  0.1420  0.0203  0.2791
  858MOL0     C18275   7.175  11.462   4.942  0.0686 -0.4095  0.0086
  858MOL0     C18276   7.311  11.415   4.993  0.3373 -0.1848 -0.1619
  858MOL0     C18277   7.423  11.457   4.904  0.1127 -0.3116 -1.6246
  858MOL0     C18278   7.563  11.408   4.940 -0.2184  0.3705 -0.3816
  858MOL0     C18279   7.671  11.480   4.860  0.8587  0.2328 -0.1734
  858MOL0     C18280   7.692  11.627   4.891  0.1726  0.0136  0.9934
  858MOL0     C18281   7.675  11.672   5.044 -1.3587 -1.0575  0.6502
  858MOL0     C18282   7.697  11.822   5.067  1.3347 -0.6392  0.0750
  858MOL0     N18283   7.822  11.879   5.008 -0.2302  0.3170 -0.5807
  858MOL0     C18284   7.824  11.978   4.921  0.1168  0.3300  0.4794
  858MOL0     C18285   7.962  11.999   4.895  0.5126 -0.7926  0.0540
  858MOL0     C18286   8.016  12.115   4.816 -0.2414 -0.1722 -0.0409
  858MOL0     C18287   8.155  12.078   4.747  0.1514 -0.7234 -0.7989
  858MOL0     C18288   8.209  12.193   4.665 -0.1884  0.6754 -0.5939
  858MOL0     C18289   8.352  12.166   4.617  0.0295 -0.0467  0.9782
  858MOL0     O18290   8.436  12.134   4.732  0.0791  0.5525  0.7091
  858MOL0     C18291   8.523  12.030   4.711 -0.2086 -0.3829 -0.1298
  858MOL0     C18292   8.587  11.991   4.822  0.9039  0.3932 -0.2389
  858MOL0     C18293   8.685  11.892   4.819 -0.4309  0.1611  1.2392
  858MOL0     C18294   8.736  11.837   4.953  0.0511  0.0899  0.2652
  858MOL0     C18295   8.736  11.848   4.690 -0.3154  0.1400 -0.9282
  858MOL0     C18296   8.861  11.764   4.688  0.0377 -0.4460  0.2858
  858MOL0     O18297   8.880  11.681   4.577 -0.1963 -0.2611 -0.0240
  858MOL0     C18298   9.002  11.615   4.553 -0.0867 -0.4686  0.6082
  858MOL0     C18299   9.124  11.681   4.571 -0.0408  0.2854 -0.7997
  858MOL0     C18300   9.233  11.605   4.541  0.0484 -0.5107  0.7352
  858MOL0     C18301   9.241  11.483   4.485  0.1009 -0.0744  0.4307
  858MOL0     O18302   9.355  11.415   4.469 -0.1787  0.0412  0.8573
  858MOL0     C18303   9.418  11.410   4.341 -0.5725 -0.1664  0.5092
  858MOL0     C18304   9.561  11.350   4.362 -0.3531 -0.7969  0.5318
  858MOL0     C18305   9.667  11.365   4.256  0.0475 -0.1559  0.3868
  858MOL0     C18306   9.758  11.239   4.248  0.0779  1.4162 -0.2668
  858MOL0     C18307   9.897  11.289   4.248 -0.9906  0.8428 -0.8050
  858MOL0     C18308  10.000  11.174   4.216  0.4419  0.2304  0.1483
  858MOL0     C18309  10.139  11.211   4.283  0.6427 -0.4600 -0.2203
  858MOL0     C18310  10.240  11.105   4.257 -0.1070 -0.0193  0.5512
  858MOL0    Cl18311  10.297  11.113   4.086 -0.0076 -0.1321  0.5933
  858MOL0     C18312   9.115  11.417   4.462  0.0153 -1.1502  0.6069
  858MOL0     C18313   8.994  11.489   4.489 -0.2942 -0.2857 -0.1633
  858MOL0     O18314   8.949  11.778   4.772 -0.8402 -0.0738  0.1754
  858MOL0     C18315   8.670  11.892   4.573 -0.4133  0.0877 -1.1153
  858MOL0     C18316   8.564  11.980   4.587 -0.3687  0.3822  0.4629
  858MOL0     N18317   8.035  11.910   4.977 -0.2318  1.1138  0.3085
  858MOL0     N18318   7.945  11.833   5.025  0.7856  0.1531 -0.3637
  858MOL0     C18319   6.891  11.518   4.933  0.0855  0.6424  0.2345
  858MOL0     C18320   6.759  11.517   4.894  0.0141  0.1634  0.6036
  858MOL0     C18321   6.385  11.418   4.701 -0.1947  0.0861  0.7659
  858MOL0     C18322   6.291  11.429   4.806  0.7775 -0.4164 -0.1049
  858MOL0     C18323   6.151  11.453   4.785 -0.8120 -0.2539 -0.0245
  858MOL0     C18324   6.102  11.457   4.651 -0.4862  0.3739 -0.4443
  858MOL0     O18325   5.973  11.469   4.617 -0.4026 -1.1000  0.0172
  858MOL0     C18326   5.877  11.520   4.709  0.3902 -0.3949 -0.4773
  858MOL0     C18327   5.819  11.404   4.793  1.1082  0.4207 -0.7034
  858MOL0     C18328   5.670  11.442   4.826 -0.2395 -0.2473  0.3205
  858MOL0     C18329   5.628  11.382   4.963 -0.4425 -1.0262  0.1298
  858MOL0     C18330   5.493  11.424   5.004 -0.2831  1.0484 -0.0312
  858MOL0     C18331   5.381  11.459   5.033  0.2448  0.2574  0.1861
  858MOL0     C18332   6.196  11.435   4.551  1.4833  0.3390 -0.1826
  858MOL0     C18333   6.334  11.423   4.569 -1.0278 -0.3146  0.0147
  858MOL0     C18334   6.428  11.430   4.446 -0.4972 -0.2768  0.3177
  858MOL0     H18335   6.670  11.203   5.006 -1.6692  1.2232  0.9216
  858MOL0     H18336   6.915  11.197   5.062 -1.1590 -1.0442 -0.7541
  858MOL0     H18337   7.179  11.570   4.961 -1.0422  0.3854 -3.5123
  858MOL0     H18338   7.149  11.452   4.836  1.9942  0.7548 -0.6334
  858MOL0     H18339   7.329  11.453   5.094  0.4964  1.8946 -0.9339
  858MOL0     H18340   7.313  11.306   4.999 -1.0538 -0.2652 -0.8329
  858MOL0     H18341   7.399  11.424   4.803  0.8819  0.8430 -2.2019
  858MOL0     H18342   7.426  11.567   4.902 -1.4147 -0.0096  2.2970
  858MOL0     H18343   7.571  11.429   5.047  0.9362 -2.7203  0.2261
  858MOL0     H18344   7.574  11.301   4.922 -1.4474 -0.1960  1.8925
  858MOL0     H18345   7.646  11.468   4.754 -1.3802  0.8266  0.2394
  858MOL0     H18346   7.771  11.440   4.878  1.1445  1.2262  0.5612
  858MOL0     H18347   7.791  11.652   4.851 -0.3036 -0.1145 -0.3276
  858MOL0     H18348   7.620  11.688   4.835  0.6988 -0.4744 -0.2539
  858MOL0     H18349   7.740  11.615   5.110  0.3143  0.2941  0.2293
  858MOL0     H18350   7.573  11.642   5.070 -1.3768 -0.5081  1.2362
  858MOL0     H18351   7.614  11.878   5.022  1.3250  1.8704  2.8890
  858MOL0     H18352   7.680  11.847   5.172 -5.2397  1.9161 -1.1142
  858MOL0     H18353   7.751  12.056   4.898  0.1833  1.2147  2.9979
  858MOL0     H18354   8.035  12.192   4.891 -2.6875 -0.2419  0.7202
  858MOL0     H18355   7.941  12.144   4.742 -1.0980 -1.9010  0.1165
  858MOL0     H18356   8.227  12.054   4.826 -0.3247  1.3463  0.3122
  858MOL0     H18357   8.144  11.990   4.682  4.3644 -2.2495  0.2005
  858MOL0     H18358   8.146  12.189   4.576  2.3765  0.7861 -2.5277
  858MOL0     H18359   8.193  12.282   4.727 -2.7215  1.3951 -2.1433
  858MOL0     H18360   8.358  12.096   4.533  0.7549  1.1209  0.0315
  858MOL0     H18361   8.387  12.260   4.574 -0.8379 -0.2503 -0.2332
  858MOL0     H18362   8.564  12.050   4.910 -0.6877  0.4828 -0.6839
  858MOL0     H18363   8.744  11.728   4.950 -1.4580 -0.1821  2.9438
  858MOL0     H18364   8.666  11.854   5.036  0.2205 -1.3982  0.7392
  858MOL0     H18365   8.825  11.896   4.978 -0.9214  2.2424 -1.0387
  858MOL0     H18366   9.142  11.777   4.618 -0.0626 -0.0415 -0.1097
  858MOL0     H18367   9.324  11.656   4.570 -0.4868  0.4867  0.6996
  858MOL0     H18368   9.360  11.345   4.275 -1.9499  2.1245 -0.6208
  858MOL0     H18369   9.437  11.505   4.290 -1.2381  0.0560  0.6708
  858MOL0     H18370   9.599  11.400   4.452 -0.3144 -3.1176  1.8782
  858MOL0     H18371   9.552  11.243   4.384  1.1730 -1.2060 -0.7189
  858MOL0     H18372   9.713  11.463   4.271 -0.1912  0.3194 -1.6876
  858MOL0     H18373   9.627  11.368   4.155  0.0130 -0.6344  0.3847
  858MOL0     H18374   9.739  11.191   4.151  0.1567  0.4471  0.1807
  858MOL0     H18375   9.730  11.171   4.329 -0.7689  2.5255  0.3888
  858MOL0     H18376   9.920  11.371   4.180 -1.3569  1.3149 -0.3717
  858MOL0     H18377   9.916  11.324   4.350 -0.7328  0.5960 -0.7661
  858MOL0     H18378  10.013  11.142   4.112 -0.0872 -3.8975  1.1636
  858MOL0     H18379   9.958  11.081   4.254 -2.5236 -0.0210 -3.1868
  858MOL0     H18380  10.120  11.210   4.391 -3.2913 -1.7091 -0.7711
  858MOL0     H18381  10.169  11.313   4.259 -1.7905  0.5577  0.7597
  858MOL0     H18382  10.208  11.003   4.280 -1.2970  0.0388 -0.6969
  858MOL0     H18383  10.322  11.123   4.328 -2.0421  2.0779  2.4143
  858MOL0     H18384   9.107  11.319   4.417  0.3809 -0.3803 -1.2593
  858MOL0     H18385   8.895  11.448   4.470 -0.4949 -1.1065  2.2987
  858MOL0     H18386   8.716  11.848   4.485 -0.1607 -3.4645  0.5892
  858MOL0     H18387   8.523  12.013   4.492 -0.7102 -1.2657  0.0130
  858MOL0     H18388   6.940  11.614   4.922 -0.8751  1.1719  0.3873
  858MOL0     H18389   6.709  11.608   4.861 -3.4884 -1.7456  0.1542
  858MOL0     H18390   6.329  11.402   4.904 -0.2632  0.1202  0.4619
  858MOL0     H18391   6.086  11.447   4.872  0.7768 -1.3299  1.1629
  858MOL0     H18392   5.916  11.599   4.774 -0.4186 -0.0440 -0.4042
  858MOL0     H18393   5.801  11.577   4.654  1.6316 -0.4559 -2.3603
  858MOL0     H18394   5.885  11.378   4.876  2.5792  0.6699 -1.7478
  858MOL0     H18395   5.823  11.316   4.729  0.7342  1.7996 -2.7412
  858MOL0     H18396   5.656  11.550   4.838  0.8423  0.1426 -1.6092
  858MOL0     H18397   5.601  11.415   4.746 -0.8884  0.0028  0.7822
  858MOL0     H18398   5.697  11.435   5.029  1.1293 -0.3904 -1.8832
  858MOL0     H18399   5.648  11.275   4.966 -0.3245 -1.0087  0.0071
  858MOL0     H18400   5.282  11.495   5.055 -0.4287  0.4500 -2.7516
  858MOL0     H18401   6.174  11.439   4.445  0.7151 -1.2750 -0.1000
  858MOL0     H18402   6.511  11.498   4.464  0.0343 -0.7410 -0.3556
  858MOL0     H18403   6.472  11.337   4.409 -0.1054  1.1941 -3.2522
  858MOL0     H18404   6.382  11.479   4.360  0.6263  0.1233 -0.0709
  859MOL0     O18405   9.355   9.544  11.042 -0.1198 -0.1813 -0.2762
  859MOL0     C18406   9.276   9.641  11.027 -0.0351 -0.3943  0.6232
  859MOL0     O18407   9.297   9.770  11.080 -0.5020 -0.1905  0.2279
  859MOL0     C18408   9.422   9.801  11.128  0.0691  0.5977 -0.3495
  859MOL0     C18409   9.504   9.891  11.057 -0.0486  0.3017 -0.1698
  859MOL0     C18410   9.628   9.939  11.111 -0.2482  0.6802  0.8232
  859MOL0     C18411   9.668   9.902  11.240  0.0039 -0.9163  0.2265
  859MOL0     O18412   9.786   9.940  11.304 -0.6079  0.3157 -0.7117
  859MOL0     C18413   9.906   9.968  11.228 -0.4520  0.1170  1.0677
  859MOL0     C18414  10.022  10.009  11.318  0.0700 -0.7429  0.0298
  859MOL0     C18415  10.011  10.152  11.377  0.0053 -0.4474 -0.5763
  859MOL0     C18416  10.006  10.139  11.531 -0.3258  0.7638  0.9914
  859MOL0     C18417  10.055  10.271  11.596  0.2022  0.9427 -0.4935
  859MOL0     C18418  10.099  10.255  11.745  0.2364 -0.2785 -0.2708
  859MOL0     C18419  10.215  10.344  11.807  1.0565 -0.2707  0.2710
  859MOL0     C18420  10.184  10.488  11.840 -0.1961 -0.4567 -0.0556
  859MOL0     N18421  10.289  10.553  11.921 -0.4756  0.6280  0.1462
  859MOL0     C18422  10.423  10.522  11.924 -0.2607 -0.2481  0.6082
  859MOL0     C18423  10.477  10.583  12.030  0.0544 -0.0792  0.2296
  859MOL0     C18424  10.621  10.575  12.084 -0.1161 -0.5450  0.4808
  859MOL0     C18425  10.696  10.713  12.089  0.0958  0.0290  0.3628
  859MOL0     C18426  10.649  10.821  12.193  0.3739 -0.0928 -0.1434
  859MOL0     C18427  10.617  10.771  12.334  0.1804  0.5123  0.4454
  859MOL0     O18428  10.719  10.675  12.382 -0.1297  0.1070  0.4397
  859MOL0     C18429  10.848  10.718  12.423  0.0929  0.1875  0.2866
  859MOL0     C18430  10.941  10.619  12.417 -0.5985 -0.0262  1.0474
  859MOL0     C18431  11.077  10.633  12.444  0.6312  0.4927 -0.1455
  859MOL0     C18432  11.178  10.520  12.426 -0.8028 -0.1055 -0.0553
  859MOL0     C18433  11.115  10.763  12.493 -0.0574 -0.7152 -0.7950
  859MOL0     C18434  11.245  10.795  12.558  0.1318 -0.1309 -0.2326
  859MOL0     O18435  11.277  10.919  12.519 -0.0652 -0.1773  0.1653
  859MOL0     C18436  11.359  11.004  12.595  0.9793  0.7377 -1.0252
  859MOL0     C18437  11.339  11.024  12.730  0.0858  0.4012 -0.4932
  859MOL0     C18438  11.423  11.111  12.799 -0.2154 -0.2446 -0.2397
  859MOL0     C18439  11.522  11.184  12.734  0.1129  0.7310  0.2554
  859MOL0     O18440  11.615  11.260  12.802  0.3825 -0.5795  0.3588
  859MOL0     C18441  11.585  11.397  12.830  0.2170  0.6708  0.9167
  859MOL0     C18442  11.712  11.471  12.872  0.2838 -0.6719 -0.5207
  859MOL0     C18443  11.774  11.420  12.992  0.0828  0.2534  0.0942
  859MOL0     C18444  11.890  11.516  13.030 -0.0989  0.7311  0.2844
  859MOL0     C18445  11.981  11.467  13.138  0.4620 -0.7180 -0.2377
  859MOL0     C18446  12.079  11.580  13.163 -0.2308  0.1287 -0.2710
  859MOL0     C18447  12.160  11.550  13.292 -0.3908 -0.2729 -0.1747
  859MOL0     C18448  12.286  11.642  13.303  0.1584  0.1233  0.4436
  859MOL0    Cl18449  12.387  11.577  13.433  0.1221 -0.3453  0.6974
  859MOL0     C18450  11.548  11.169  12.597 -0.2558 -0.3362 -0.0214
  859MOL0     C18451  11.452  11.093  12.528  0.3620 -0.6021 -0.7039
  859MOL0     O18452  11.300  10.729  12.653  0.3498  0.0054  0.4040
  859MOL0     C18453  11.017  10.870  12.502 -0.4537  0.6605 -0.0049
  859MOL0     C18454  10.884  10.845  12.468 -0.9025 -0.5529  0.9843
  859MOL0     N18455  10.382  10.663  12.081  0.7106 -0.0573 -0.4010
  859MOL0     N18456  10.272  10.646  12.016  0.2190 -0.4711  0.7268
  859MOL0     C18457   9.578   9.821  11.316  0.3716 -0.0396  1.4249
  859MOL0     C18458   9.459   9.775  11.259  0.4015  0.4364 -0.9995
  859MOL0     C18459   9.160   9.630  10.933  0.0370 -0.2679  0.6375
  859MOL0     C18460   9.113   9.746  10.868  0.0719  0.8591  0.4262
  859MOL0     C18461   9.003   9.749  10.779 -0.6813  1.1689  0.1461
  859MOL0     C18462   8.937   9.623  10.760  0.8013  0.3144  0.3628
  859MOL0     O18463   8.831   9.610  10.670  0.1160 -0.8098 -0.6524
  859MOL0     C18464   8.713   9.559  10.720 -0.5970 -0.0908 -0.2119
  859MOL0     C18465   8.650   9.464  10.621  0.9270  0.5103 -0.1795
  859MOL0     C18466   8.554   9.529  10.512  0.1848  0.8643 -0.0104
  859MOL0     C18467   8.626   9.582  10.387  1.0986  0.9594 -0.4132
  859MOL0     C18468   8.721   9.491  10.326  0.5605 -0.3449 -0.0519
  859MOL0     C18469   8.801   9.419  10.269 -0.4910 -0.2565 -0.0767
  859MOL0     C18470   8.989   9.511  10.817  0.4148 -0.2448 -0.5464
  859MOL0     C18471   9.089   9.510  10.914  0.4983  0.5026 -0.7903
  859MOL0     C18472   9.121   9.383  10.984  0.7691 -0.9864  0.2949
  859MOL0     H18473   9.476   9.916  10.955 -1.8953  1.6071  0.6196
  859MOL0     H18474   9.694  10.001  11.051 -0.4933  1.9154  1.7873
  859MOL0     H18475   9.885  10.048  11.158 -0.0449 -0.3061  0.4604
  859MOL0     H18476   9.927   9.879  11.169 -0.9582  0.9132 -0.3449
  859MOL0     H18477  10.045   9.924  11.383 -1.6282  1.4854  3.8996
  859MOL0     H18478  10.107  10.017  11.249  0.4361  1.1453  0.6303
  859MOL0     H18479  10.099  10.208  11.343  0.6703 -1.5447 -0.6917
  859MOL0     H18480   9.923  10.206  11.340 -0.4982 -1.0898 -0.3347
  859MOL0     H18481   9.908  10.111  11.570 -0.2784 -1.2611 -0.1822
  859MOL0     H18482  10.070  10.056  11.563 -0.7357 -0.6257 -1.4974
  859MOL0     H18483   9.987  10.356  11.590  2.4019  2.8668  0.6837
  859MOL0     H18484  10.130  10.319  11.533  2.0220  0.3197  1.1236
  859MOL0     H18485  10.004  10.266  11.799  0.4726  2.6462 -0.2817
  859MOL0     H18486  10.125  10.150  11.758 -3.0792 -1.4005 -1.4819
  859MOL0     H18487  10.288  10.342  11.726  2.5981  0.8533  1.5627
  859MOL0     H18488  10.263  10.300  11.895 -1.1756  0.6329  2.0440
  859MOL0     H18489  10.162  10.544  11.749 -0.3366  2.4854  1.6552
  859MOL0     H18490  10.092  10.504  11.897  0.5502  0.4744  0.9548
  859MOL0     H18491  10.471  10.461  11.847 -0.0303  1.0359 -0.2991
  859MOL0     H18492  10.676  10.498  12.029 -0.5028  0.2549 -1.0860
  859MOL0     H18493  10.622  10.537  12.187 -0.2339  0.3830  0.8378
  859MOL0     H18494  10.801  10.687  12.109  0.1634  1.2305  1.6810
  859MOL0     H18495  10.691  10.765  11.993  1.7429  1.4640  0.9942
  859MOL0     H18496  10.711  10.910  12.210 -0.3668  0.4114 -0.0195
  859MOL0     H18497  10.556  10.870  12.164 -1.3679 -0.8980  3.6223
  859MOL0     H18498  10.603  10.857  12.400 -2.4066 -0.1045  0.8086
  859MOL0     H18499  10.521  10.722  12.348  0.4615  0.4780  2.5449
  859MOL0     H18500  10.891  10.527  12.385 -1.9508  1.0863 -0.1999
  859MOL0     H18501  11.143  10.416  12.426  1.1940 -0.8277  0.2613
  859MOL0     H18502  11.256  10.517  12.502 -1.2581 -4.1904  0.5021
  859MOL0     H18503  11.212  10.533  12.323  3.4074  0.9146  1.2857
  859MOL0     H18504  11.259  10.976  12.786 -0.0798 -1.0420 -1.9095
  859MOL0     H18505  11.418  11.128  12.906 -0.5215  2.4338 -0.6023
  859MOL0     H18506  11.534  11.452  12.751  1.8976 -0.2031 -0.8504
  859MOL0     H18507  11.519  11.407  12.917  2.4974 -1.0892  2.9877
  859MOL0     H18508  11.791  11.474  12.796  2.2197  1.8372  1.4027
  859MOL0     H18509  11.683  11.576  12.882  0.7670 -0.6981  1.9445
  859MOL0     H18510  11.824  11.324  12.975  2.9812  1.5491  0.6230
  859MOL0     H18511  11.706  11.412  13.077  0.0701 -0.6748  0.0029
  859MOL0     H18512  11.839  11.612  13.044 -4.5733 -1.2229 -0.8103
  859MOL0     H18513  11.946  11.526  12.936 -0.6655 -0.6334 -0.2103
  859MOL0     H18514  11.921  11.455  13.229  1.6102  0.0827  0.6650
  859MOL0     H18515  12.027  11.374  13.106  0.6587 -0.2183 -1.4392
  859MOL0     H18516  12.035  11.680  13.170  2.9762  1.6306 -0.0162
  859MOL0     H18517  12.149  11.578  13.079 -0.6216  0.3841 -0.6047
  859MOL0     H18518  12.201  11.449  13.292  1.0664  0.2969  0.3331
  859MOL0     H18519  12.097  11.558  13.381 -1.1127 -3.8240 -0.2401
  859MOL0     H18520  12.260  11.746  13.327  0.4109 -0.0110  1.3253
  859MOL0     H18521  12.340  11.640  13.208 -3.5704 -3.2684 -1.9094
  859MOL0     H18522  11.621  11.221  12.537  1.1070 -1.2364  0.7953
  859MOL0     H18523  11.471  11.090  12.421  0.9771  1.1235 -0.6675
  859MOL0     H18524  11.034  10.960  12.561  1.8826 -0.5063  1.2395
  859MOL0     H18525  10.825  10.935  12.476  2.3029  1.7114  1.0572
  859MOL0     H18526   9.606   9.778  11.411  1.7988 -1.2795  0.5070
  859MOL0     H18527   9.392   9.710  11.314 -0.6687 -0.5115 -3.2697
  859MOL0     H18528   9.151   9.846  10.889 -0.3968  1.0254  0.5048
  859MOL0     H18529   8.957   9.839  10.741 -1.4883  0.4582 -0.6043
  859MOL0     H18530   8.722   9.503  10.814 -1.0340  1.0431  0.5320
  859MOL0     H18531   8.632   9.633  10.726 -2.8422 -2.3657 -0.4946
  859MOL0     H18532   8.587   9.391  10.672 -1.0085  0.1851 -2.7964
  859MOL0     H18533   8.726   9.395  10.582  0.7022 -0.6226  1.3166
  859MOL0     H18534   8.480   9.455  10.483  0.7793 -0.8643  2.5286
  859MOL0     H18535   8.499   9.610  10.561 -1.6130  1.2460 -2.4680
  859MOL0     H18536   8.654   9.683  10.416  0.7630  0.3991  2.0721
  859MOL0     H18537   8.545   9.595  10.314 -1.7818 -1.4796  2.0674
  859MOL0     H18538   8.876   9.357  10.225 -1.4347 -1.1586 -0.4727
  859MOL0     H18539   8.933   9.420  10.799 -0.3450  0.4436 -1.7717
  859MOL0     H18540   9.181   9.306  10.933  1.5220  0.4093 -1.0002
  859MOL0     H18541   9.144   9.410  11.087 -0.9694 -0.8937  0.6907
  859MOL0     H18542   9.024   9.336  11.004  0.2279  0.8333  2.2758
  860MOL0     O18543   6.864   9.680   4.171  0.0959  0.4028  0.0950
  860MOL0     C18544   6.833   9.564   4.138  0.4339  0.0870 -0.7117
  860MOL0     O18545   6.916   9.463   4.093 -0.1423  0.3838  0.7860
  860MOL0     C18546   7.046   9.483   4.082  0.0202 -0.1736 -0.1930
  860MOL0     C18547   7.099   9.511   3.955  0.3600  0.4168 -0.8739
  860MOL0     C18548   7.230   9.525   3.927 -0.3505 -0.3917 -0.9550
  860MOL0     C18549   7.330   9.519   4.033  0.4371 -0.6040  0.7627
  860MOL0     O18550   7.459   9.544   3.993 -0.0168  0.4236 -0.0083
  860MOL0     C18551   7.556   9.454   4.058  0.1622 -0.4392 -0.2572
  860MOL0     C18552   7.666   9.450   3.952  0.2242 -0.3449 -0.0964
  860MOL0     C18553   7.727   9.583   3.915 -0.4434  0.6623  0.2610
  860MOL0     C18554   7.877   9.559   3.870 -0.3027  0.0120 -0.7345
  860MOL0     C18555   7.957   9.693   3.853  0.3449 -0.7319  0.5170
  860MOL0     C18556   7.910   9.782   3.734  0.4262 -0.8393 -0.9037
  860MOL0     C18557   8.022   9.869   3.688 -1.4225  0.3381  0.9031
  860MOL0     C18558   7.981   9.929   3.551  0.4331 -0.0679  0.1423
  860MOL0     N18559   8.074  10.016   3.484 -0.5227  0.4923 -0.4862
  860MOL0     C18560   8.119  10.122   3.554 -0.5210  0.2595 -0.2338
  860MOL0     C18561   8.175  10.196   3.454  0.8263  0.5240  0.4499
  860MOL0     C18562   8.248  10.329   3.492  0.4790  0.0026 -0.1487
  860MOL0     C18563   8.400  10.320   3.499  0.3639 -0.0479 -0.3863
  860MOL0     C18564   8.468  10.459   3.501  0.0860  1.2181  0.3104
  860MOL0     C18565   8.620  10.437   3.522 -0.2670  0.4457  0.1771
  860MOL0     O18566   8.670  10.568   3.540 -0.1020 -0.6687  0.5616
  860MOL0     C18567   8.804  10.590   3.524 -0.7792 -0.3706 -0.1667
  860MOL0     C18568   8.839  10.729   3.530  0.1367  0.4280  1.0323
  860MOL0     C18569   8.972  10.771   3.556 -0.3253  1.0339  0.5749
  860MOL0     C18570   8.988  10.915   3.570  0.8267 -0.1867  0.8954
  860MOL0     C18571   9.075  10.677   3.527 -0.1083  0.8739 -0.7882
  860MOL0     C18572   9.225  10.712   3.520  0.3460  0.1624 -0.1094
  860MOL0     O18573   9.304  10.621   3.448  0.3666  0.0095 -0.0674
  860MOL0     C18574   9.433  10.647   3.439 -0.0854 -0.0939 -0.3118
  860MOL0     C18575   9.505  10.616   3.551  0.5697  0.1032  0.1697
  860MOL0     C18576   9.636  10.648   3.565  0.7651 -0.4545  0.2114
  860MOL0     C18577   9.702  10.704   3.457 -0.1688  0.3071 -0.3953
  860MOL0     O18578   9.830  10.727   3.482 -1.4706  0.3264  0.1863
  860MOL0     C18579   9.908  10.787   3.383 -0.2051 -0.3697  0.0209
  860MOL0     C18580  10.054  10.813   3.428  0.0223  0.3088 -0.6291
  860MOL0     C18581  10.153  10.708   3.389 -1.3139  0.1487 -0.3191
  860MOL0     C18582  10.172  10.599   3.492  0.7132 -0.7679  0.3872
  860MOL0     C18583  10.264  10.484   3.459  0.8417 -0.3834 -0.6653
  860MOL0     C18584  10.218  10.358   3.530 -0.6582  0.0033  0.0933
  860MOL0     C18585  10.312  10.245   3.512 -0.2982  0.8809 -0.1741
  860MOL0     C18586  10.268  10.125   3.604  1.1058  0.7127 -1.3241
  860MOL0    Cl18587  10.376   9.977   3.590 -0.0218  0.0990  0.2562
  860MOL0     C18588   9.627  10.735   3.346 -0.0708  0.4893  0.3295
  860MOL0     C18589   9.495  10.713   3.338  0.0696  0.0107 -0.7227
  860MOL0     O18590   9.265  10.818   3.562  0.0836 -0.0700 -0.3170
  860MOL0     C18591   9.033  10.544   3.516  0.0336 -0.0738  0.1800
  860MOL0     C18592   8.903  10.496   3.515  0.1242  0.3371 -0.3647
  860MOL0     N18593   8.167  10.131   3.331  0.8582  0.6418  0.2446
  860MOL0     N18594   8.117  10.018   3.355  0.0887 -0.0931  0.7553
  860MOL0     C18595   7.275   9.514   4.165 -0.9604 -0.4083  0.8593
  860MOL0     C18596   7.142   9.485   4.189  0.0069 -0.7025 -0.0019
  860MOL0     C18597   6.693   9.524   4.160 -0.7010  0.0020 -0.1899
  860MOL0     C18598   6.661   9.388   4.162 -0.7017 -0.1062 -0.3387
  860MOL0     C18599   6.542   9.344   4.217 -0.1634  0.6481 -0.4558
  860MOL0     C18600   6.445   9.435   4.256  0.1399  0.7146 -0.6891
  860MOL0     O18601   6.321   9.407   4.311  0.2134 -0.3539  0.1412
  860MOL0     C18602   6.280   9.283   4.359 -0.3047  0.0026  0.1692
  860MOL0     C18603   6.323   9.248   4.496  0.7728 -0.2050  0.4189
  860MOL0     C18604   6.261   9.118   4.538  0.2010  0.5638 -0.3412
  860MOL0     C18605   6.202   9.111   4.683 -0.1314 -0.1840 -0.5500
  860MOL0     C18606   6.070   9.183   4.692 -0.7837  0.1745  0.0876
  860MOL0     C18607   5.977   9.245   4.722  0.0498 -0.7078  0.3471
  860MOL0     C18608   6.476   9.574   4.243 -0.0980  0.0704  0.0956
  860MOL0     C18609   6.602   9.619   4.188  0.2505 -0.0059  1.0458
  860MOL0     C18610   6.612   9.765   4.156 -0.7470  0.1247  0.2803
  860MOL0     H18611   7.030   9.515   3.872 -0.4891 -3.7190 -0.5869
  860MOL0     H18612   7.271   9.541   3.827  1.0756 -0.4941 -0.4140
  860MOL0     H18613   7.525   9.352   4.080 -0.8358 -0.8216 -3.0604
  860MOL0     H18614   7.599   9.501   4.147 -0.3501  0.2074 -0.3455
  860MOL0     H18615   7.734   9.374   3.990 -2.0318 -3.0103 -1.0775
  860MOL0     H18616   7.621   9.409   3.861 -0.6257  1.1473 -0.3829
  860MOL0     H18617   7.669   9.631   3.836 -0.3282  0.7467  0.2276
  860MOL0     H18618   7.726   9.658   3.994  0.9019  2.5332 -1.3918
  860MOL0     H18619   7.934   9.495   3.937 -1.0927 -2.0076 -1.9099
  860MOL0     H18620   7.868   9.497   3.781  1.4530  0.8706 -1.5665
  860MOL0     H18621   8.060   9.668   3.828 -0.2139 -0.8083 -1.9260
  860MOL0     H18622   7.946   9.750   3.946 -1.4832 -1.9759  1.1097
  860MOL0     H18623   7.868   9.719   3.655 -1.1097  1.8227 -2.3529
  860MOL0     H18624   7.828   9.846   3.767  1.3939 -0.4814  0.9106
  860MOL0     H18625   8.101   9.800   3.660 -0.7112  1.3428  0.3565
  860MOL0     H18626   8.062   9.939   3.763 -0.2271  2.0074 -1.1870
  860MOL0     H18627   7.957   9.840   3.493 -0.4733 -0.4093  1.0064
  860MOL0     H18628   7.887   9.985   3.560  1.0273  1.5596 -2.5691
  860MOL0     H18629   8.119  10.149   3.659  0.7768  1.0571 -0.4031
  860MOL0     H18630   8.203  10.370   3.583 -1.1169  1.7862 -1.6619
  860MOL0     H18631   8.229  10.404   3.415  1.6025  1.6958  1.1660
  860MOL0     H18632   8.425  10.275   3.596  2.5808 -0.7486 -1.2108
  860MOL0     H18633   8.434  10.256   3.418  1.9617 -1.5447  1.3561
  860MOL0     H18634   8.440  10.510   3.408 -6.1155 -1.8056 -0.0534
  860MOL0     H18635   8.431  10.524   3.581 -3.0095 -1.2131  1.0847
  860MOL0     H18636   8.649  10.379   3.610  2.0012 -0.4506 -1.0876
  860MOL0     H18637   8.668  10.395   3.433 -1.0979 -0.6102  0.2074
  860MOL0     H18638   8.755  10.797   3.526 -1.0831 -1.1003 -0.5329
  860MOL0     H18639   9.025  10.946   3.472  0.4885 -1.8590  0.2070
  860MOL0     H18640   9.052  10.953   3.651 -0.9170  0.4483  2.0197
  860MOL0     H18641   8.891  10.964   3.579  0.2761 -0.1282 -3.3728
  860MOL0     H18642   9.470  10.565   3.640 -0.4748  0.9855  0.2871
  860MOL0     H18643   9.690  10.622   3.655 -4.7869 -0.0629  4.1751
  860MOL0     H18644   9.902  10.728   3.291 -0.8429  1.0882 -0.9077
  860MOL0     H18645   9.857  10.882   3.369 -0.7361 -0.5460  0.7061
  860MOL0     H18646  10.086  10.905   3.378  0.8335  0.8661  0.8589
  860MOL0     H18647  10.062  10.816   3.537 -1.1228 -2.4539 -0.3845
  860MOL0     H18648  10.256  10.743   3.377  0.8287 -4.8905  0.4469
  860MOL0     H18649  10.116  10.653   3.302 -1.9418 -0.7217  0.4790
  860MOL0     H18650  10.072  10.556   3.504  1.8957 -3.5517  0.9690
  860MOL0     H18651  10.193  10.659   3.581 -1.3818  4.1834 -2.0642
  860MOL0     H18652  10.256  10.472   3.351 -1.1543  1.2095 -0.7563
  860MOL0     H18653  10.362  10.525   3.482 -0.5096  3.0457 -0.4403
  860MOL0     H18654  10.125  10.328   3.482  1.1527 -2.3709 -2.2921
  860MOL0     H18655  10.200  10.368   3.637  4.4951  0.6512  1.1688
  860MOL0     H18656  10.414  10.265   3.547 -0.1787  0.1648 -0.1007
  860MOL0     H18657  10.325  10.220   3.406  0.5387  0.8546 -0.0702
  860MOL0     H18658  10.166  10.093   3.580  0.8258  0.7159 -0.2243
  860MOL0     H18659  10.267  10.156   3.709  0.5756 -3.1387 -0.0435
  860MOL0     H18660   9.682  10.773   3.260 -0.6449 -3.7280 -2.1706
  860MOL0     H18661   9.440  10.744   3.249  0.9681  3.0190 -0.3414
  860MOL0     H18662   9.095  10.462   3.484 -1.6532 -0.9714 -0.9194
  860MOL0     H18663   8.889  10.388   3.515  0.2331  0.1776  3.8535
  860MOL0     H18664   7.357   9.534   4.233  2.2460  1.7901 -3.1795
  860MOL0     H18665   7.115   9.464   4.292  2.2894 -1.7006  0.4479
  860MOL0     H18666   6.728   9.310   4.129 -0.5374  0.3122 -1.0175
  860MOL0     H18667   6.530   9.239   4.238 -0.3718  0.7799  0.1039
  860MOL0     H18668   6.170   9.280   4.352 -0.3617 -0.7776  1.1466
  860MOL0     H18669   6.318   9.207   4.290 -1.3157 -1.7155  1.4258
  860MOL0     H18670   6.284   9.329   4.559 -1.0374 -1.4481  0.9722
  860MOL0     H18671   6.430   9.247   4.518  1.4688 -0.6866 -2.5467
  860MOL0     H18672   6.193   9.074   4.464  3.6120 -0.3607 -3.2487
  860MOL0     H18673   6.347   9.050   4.544  0.0681  0.3197 -1.1111
  860MOL0     H18674   6.270   9.147   4.761  1.5586  0.1603 -2.1250
  860MOL0     H18675   6.178   9.005   4.696 -2.0553  0.3540  0.7855
  860MOL0     H18676   5.902   9.314   4.753  0.5972  0.1006 -0.1131
  860MOL0     H18677   6.416   9.649   4.292 -1.1494 -0.3575 -0.5046
  860MOL0     H18678   6.514   9.811   4.144 -0.4453  0.3285 -1.7951
  860MOL0     H18679   6.664   9.812   4.240 -1.0665  2.2938 -0.6811
  860MOL0     H18680   6.674   9.789   4.069 -0.7181 -1.3921 -0.1571
  861MOL0     O18681   2.690   4.867   4.362  0.5159 -0.3764 -0.0306
  861MOL0     C18682   2.635   4.908   4.266 -0.0927 -0.3709  0.0395
  861MOL0     O18683   2.695   4.952   4.155  0.3966 -0.3947 -0.4440
  861MOL0     C18684   2.822   5.011   4.154 -0.8699 -0.2295  0.2804
  861MOL0     C18685   2.894   5.067   4.263 -0.4622  0.6710  0.2137
  861MOL0     C18686   3.023   5.124   4.225 -0.7125 -0.3625 -0.0851
  861MOL0     C18687   3.071   5.124   4.096 -0.8945  0.1072 -0.3212
  861MOL0     O18688   3.196   5.177   4.060  0.3540  0.1399  0.2394
  861MOL0     C18689   3.230   5.315   4.096  0.7842  0.4774  0.0674
  861MOL0     C18690   3.378   5.319   4.113  0.8400  0.1813 -0.7344
  861MOL0     C18691   3.418   5.464   4.153 -0.4250  0.1732 -0.2514
  861MOL0     C18692   3.541   5.468   4.251 -0.2202 -0.8638  0.0523
  861MOL0     C18693   3.667   5.396   4.195  0.0589  0.6889  0.3779
  861MOL0     C18694   3.798   5.424   4.275  0.3000 -0.1431  0.4555
  861MOL0     C18695   3.925   5.348   4.228 -0.1458 -0.2071  0.7100
  861MOL0     C18696   3.943   5.363   4.072  0.3804  0.5911 -0.5844
  861MOL0     N18697   4.083   5.329   4.040  0.5467  0.2325 -0.1458
  861MOL0     C18698   4.133   5.219   3.970 -0.1761  1.0262  0.7786
  861MOL0     C18699   4.270   5.236   3.976  0.6572 -0.8001 -0.3565
  861MOL0     C18700   4.377   5.149   3.913  0.2570  0.3852 -0.6363
  861MOL0     C18701   4.462   5.087   4.029 -0.4893  0.4490 -0.0401
  861MOL0     C18702   4.599   5.040   3.985  0.2976 -0.0876  0.0641
  861MOL0     C18703   4.699   5.021   4.099 -0.2131  0.3650 -0.5762
  861MOL0     O18704   4.753   5.151   4.139  0.1009  0.2356 -0.5951
  861MOL0     C18705   4.861   5.153   4.226  0.1443 -0.9099 -0.2299
  861MOL0     C18706   4.913   5.280   4.262 -0.2445  0.1276  0.1896
  861MOL0     C18707   5.034   5.280   4.338  1.3832 -0.0055  0.3101
  861MOL0     C18708   5.108   5.416   4.353  0.4126 -0.1260  0.7418
  861MOL0     C18709   5.087   5.156   4.391 -0.3020  0.8732 -0.6376
  861MOL0     C18710   5.209   5.170   4.483  0.3261  0.2928 -0.1272
  861MOL0     O18711   5.203   5.272   4.581 -0.1417  0.2363 -0.0979
  861MOL0     C18712   5.316   5.312   4.653  1.0621  0.0788  0.6057
  861MOL0     C18713   5.434   5.370   4.596  0.3481 -0.4322  0.2433
  861MOL0     C18714   5.539   5.404   4.676  1.0358 -0.1528 -0.0993
  861MOL0     C18715   5.539   5.386   4.822  0.1334  0.3873 -0.0199
  861MOL0     O18716   5.649   5.409   4.892 -0.0358 -0.1452 -0.8761
  861MOL0     C18717   5.713   5.535   4.877  0.0557 -0.1994 -0.7741
  861MOL0     C18718   5.730   5.597   5.025  0.2212 -0.0110 -0.5509
  861MOL0     C18719   5.788   5.730   5.007  0.6743  0.2203 -0.2440
  861MOL0     C18720   5.808   5.797   5.147 -1.4490 -0.3200 -0.3172
  861MOL0     C18721   5.850   5.937   5.125  0.6921 -0.6605  0.5205
  861MOL0     C18722   5.991   5.965   5.070  1.4149 -0.2502  0.2080
  861MOL0     C18723   6.052   6.085   5.144  0.0048 -0.7296 -0.2800
  861MOL0     C18724   6.200   6.116   5.144  0.3919 -0.1611 -0.0396
  861MOL0    Cl18725   6.275   5.969   5.213 -0.2010  0.1046 -0.1317
  861MOL0     C18726   5.432   5.332   4.883  0.3105 -0.2080 -0.4799
  861MOL0     C18727   5.318   5.295   4.798 -0.7220  0.4661  0.2690
  861MOL0     O18728   5.295   5.087   4.471 -0.6333 -0.7442  0.9064
  861MOL0     C18729   5.031   5.029   4.351  0.0624 -0.6777 -0.7696
  861MOL0     C18730   4.921   5.036   4.270 -0.7724  0.1719 -0.5560
  861MOL0     N18731   4.287   5.349   4.052  0.2170 -0.9117  0.1441
  861MOL0     N18732   4.180   5.410   4.082  0.1439  0.1800 -0.4376
  861MOL0     C18733   2.995   5.064   3.998  0.0669  0.4585  0.6582
  861MOL0     C18734   2.871   5.009   4.021  0.0263 -0.1592 -0.9626
  861MOL0     C18735   2.486   4.920   4.257 -0.6364  0.2339  1.6648
  861MOL0     C18736   2.425   4.973   4.140  0.3418  0.3861  1.0912
  861MOL0     C18737   2.282   4.994   4.136 -0.0114  0.0958  0.1427
  861MOL0     C18738   2.196   4.947   4.235  0.6454  0.5553 -0.0146
  861MOL0     O18739   2.055   4.940   4.227 -0.3587  0.5667 -0.7173
  861MOL0     C18740   2.003   5.076   4.239 -0.0173 -0.5644  0.3597
  861MOL0     C18741   1.964   5.121   4.375 -0.0962 -1.0676 -0.1686
  861MOL0     C18742   1.941   5.275   4.386 -0.4598  0.0660  0.0488
  861MOL0     C18743   1.947   5.301   4.533  0.0631  0.3090  0.0466
  861MOL0     C18744   1.948   5.442   4.543  0.0208 -0.2725 -0.0767
  861MOL0     C18745   1.960   5.563   4.551  0.8160  0.6561  0.1595
  861MOL0     C18746   2.258   4.877   4.340  0.7717 -0.4006 -0.3562
  861MOL0     C18747   2.398   4.878   4.356  0.3858  0.5399 -0.1936
  861MOL0     C18748   2.438   4.845   4.497  0.5294 -0.2902  0.6931
  861MOL0     H18749   2.864   5.064   4.367  3.0430  3.5724  1.5629
  861MOL0     H18750   3.084   5.167   4.303  0.3429 -0.6067 -0.7638
  861MOL0     H18751   3.176   5.348   4.186  0.3415 -1.6104  0.6169
  861MOL0     H18752   3.218   5.380   4.009  0.6939 -1.4862 -1.4628
  861MOL0     H18753   3.397   5.244   4.191  0.1851  1.7016  0.9558
  861MOL0     H18754   3.421   5.297   4.015 -3.4731  1.7767 -3.2461
  861MOL0     H18755   3.446   5.530   4.071 -1.4302  0.9635  0.0226
  861MOL0     H18756   3.337   5.517   4.204 -1.0980  1.5856 -2.6230
  861MOL0     H18757   3.560   5.574   4.267 -2.8964 -0.0161 -1.8826
  861MOL0     H18758   3.533   5.429   4.353  3.8707  1.9052  1.7009
  861MOL0     H18759   3.687   5.435   4.094 -3.1548 -2.2845 -1.6386
  861MOL0     H18760   3.655   5.288   4.197 -2.2066  0.9003  1.0926
  861MOL0     H18761   3.817   5.532   4.278 -0.0829 -0.1017  1.6112
  861MOL0     H18762   3.783   5.385   4.375 -1.5189  2.1221  1.1483
  861MOL0     H18763   3.921   5.242   4.254 -0.6900 -1.4743 -3.6820
  861MOL0     H18764   4.008   5.403   4.275  1.4100 -1.9305  0.1239
  861MOL0     H18765   3.871   5.301   4.018 -1.4717  2.9664 -1.0353
  861MOL0     H18766   3.908   5.465   4.052 -2.1539  0.3328  1.8881
  861MOL0     H18767   4.072   5.152   3.909 -3.6720  3.0529  1.7445
  861MOL0     H18768   4.439   5.212   3.849  2.5301 -0.8144  0.2434
  861MOL0     H18769   4.333   5.063   3.862  2.7533  0.2706 -2.7845
  861MOL0     H18770   4.476   5.152   4.115  1.5700  0.7809 -0.5851
  861MOL0     H18771   4.411   4.993   4.054  0.2126 -1.3794 -4.4449
  861MOL0     H18772   4.596   4.947   3.927 -0.9061 -1.6361  2.4490
  861MOL0     H18773   4.654   5.113   3.926  1.7710 -1.1744  0.0407
  861MOL0     H18774   4.654   4.965   4.182  1.8283 -1.8031 -0.8305
  861MOL0     H18775   4.783   4.961   4.064  0.0859  0.0205  0.6874
  861MOL0     H18776   4.855   5.355   4.211 -1.1397 -1.2173 -0.8490
  861MOL0     H18777   5.110   5.448   4.458  1.9003 -0.2113  0.7669
  861MOL0     H18778   5.061   5.495   4.295 -0.4627  0.3207  2.0024
  861MOL0     H18779   5.207   5.387   4.315  0.0048 -0.4411 -0.0826
  861MOL0     H18780   5.443   5.391   4.490 -0.5217 -0.2466  0.2068
  861MOL0     H18781   5.622   5.458   4.631  2.4821  0.2682  2.8653
  861MOL0     H18782   5.808   5.531   4.823  1.4200 -1.4662  1.5523
  861MOL0     H18783   5.644   5.598   4.820 -0.5185 -0.7535 -0.7065
  861MOL0     H18784   5.631   5.625   5.062 -0.8997 -4.1036  0.0323
  861MOL0     H18785   5.780   5.540   5.103  2.2615 -0.8576 -2.3721
  861MOL0     H18786   5.717   5.789   4.949  0.9093  0.9292  0.1768
  861MOL0     H18787   5.880   5.718   4.949 -0.9291 -0.6998 -2.7763
  861MOL0     H18788   5.890   5.742   5.196  0.7920 -0.3042 -3.7132
  861MOL0     H18789   5.722   5.797   5.214 -1.7140  0.8365 -0.6370
  861MOL0     H18790   5.774   5.975   5.056  1.7321  0.1237 -0.2287
  861MOL0     H18791   5.833   6.006   5.208  1.7924 -0.5865  0.7112
  861MOL0     H18792   5.985   5.996   4.966  0.2406  2.5246  1.0239
  861MOL0     H18793   6.056   5.878   5.059  2.2142  0.6634 -6.0578
  861MOL0     H18794   6.027   6.088   5.251  0.9801  0.0168 -0.0486
  861MOL0     H18795   5.992   6.169   5.107  0.2208  2.2795  5.1476
  861MOL0     H18796   6.215   6.204   5.206  2.4489  0.3156 -1.1288
  861MOL0     H18797   6.243   6.144   5.047  0.5519  2.9440  0.8095
  861MOL0     H18798   5.437   5.314   4.990 -1.6225  4.2245  0.5791
  861MOL0     H18799   5.229   5.250   4.841  0.1482  0.2064  1.8942
  861MOL0     H18800   5.077   4.939   4.389  1.5054  1.5148  3.3317
  861MOL0     H18801   4.881   4.936   4.259  1.9835 -1.2521  1.2064
  861MOL0     H18802   3.027   5.063   3.894 -0.6636 -0.7239  0.4250
  861MOL0     H18803   2.811   4.966   3.942  0.7291  1.0130 -2.1878
  861MOL0     H18804   2.481   4.994   4.049 -0.6479  3.1298  1.0141
  861MOL0     H18805   2.243   5.044   4.048 -1.8908 -0.7821  0.4115
  861MOL0     H18806   2.062   5.155   4.192 -0.3033 -1.5689 -1.8526
  861MOL0     H18807   1.907   5.061   4.189 -0.4410 -2.5327  1.6187
  861MOL0     H18808   2.040   5.090   4.447  1.6285  4.4249  0.7893
  861MOL0     H18809   1.872   5.073   4.409 -0.2199  0.4150  1.7343
  861MOL0     H18810   2.026   5.324   4.339 -1.4641  0.9254 -0.9225
  861MOL0     H18811   1.854   5.316   4.334  0.7142  2.2657 -0.2587
  861MOL0     H18812   2.037   5.263   4.580  1.5421  3.2349 -0.2073
  861MOL0     H18813   1.868   5.246   4.586  1.3318  0.2394  1.9429
  861MOL0     H18814   1.982   5.664   4.579  3.4311  0.8443 -2.0621
  861MOL0     H18815   2.197   4.838   4.422  1.3296 -1.6272 -0.4964
  861MOL0     H18816   2.472   4.936   4.546 -2.4079  1.0171  0.5563
  861MOL0     H18817   2.350   4.808   4.550 -0.1427  0.7210  0.3167
  861MOL0     H18818   2.507   4.760   4.487 -0.8134 -1.3118 -0.3691
  862MOL0     O18819   3.882  11.116   1.704 -0.2887 -0.1475  0.5912
  862MOL0     C18820   3.912  11.220   1.762 -0.1688 -0.1010  0.2752
  862MOL0     O18821   4.034  11.256   1.789 -0.6506  0.3983  0.2233
  862MOL0     C18822   4.138  11.195   1.717  0.1613  0.0414 -0.2892
  862MOL0     C18823   4.134  11.199   1.577  0.1409 -0.0003  0.4436
  862MOL0     C18824   4.242  11.150   1.501 -1.2085 -0.2613  0.1966
  862MOL0     C18825   4.361  11.106   1.562 -0.2554 -0.2449 -0.7105
  862MOL0     O18826   4.471  11.076   1.491  0.1951  0.7292 -0.0464
  862MOL0     C18827   4.531  10.955   1.530 -0.6341  0.6813 -0.0409
  862MOL0     C18828   4.676  10.992   1.539  0.4497  0.0291  0.4242
  862MOL0     C18829   4.717  11.095   1.651  0.1638 -0.0720  0.2927
  862MOL0     C18830   4.867  11.121   1.641  0.0427 -0.0160 -0.8480
  862MOL0     C18831   4.914  11.245   1.729  1.0993 -0.5665 -0.6649
  862MOL0     C18832   4.878  11.222   1.882  0.1709  0.3299  0.4585
  862MOL0     C18833   4.955  11.337   1.953  0.7238 -0.0594 -0.2899
  862MOL0     C18834   4.933  11.316   2.102 -0.0400  0.7297 -0.5101
  862MOL0     N18835   4.967  11.446   2.162 -0.4759  0.6703 -1.4371
  862MOL0     C18836   5.087  11.469   2.211 -0.5456 -1.0077  0.6796
  862MOL0     C18837   5.075  11.590   2.282  0.7851  0.5510  1.4972
  862MOL0     C18838   5.184  11.654   2.348 -0.9400 -0.2780 -0.4165
  862MOL0     C18839   5.326  11.591   2.332 -0.3365 -0.5286  0.0016
  862MOL0     C18840   5.441  11.695   2.320  0.6046 -0.0096 -0.2734
  862MOL0     C18841   5.566  11.634   2.257  0.4131 -1.0266 -0.3530
  862MOL0     O18842   5.678  11.699   2.326  0.8488  0.5768  0.8964
  862MOL0     C18843   5.707  11.676   2.456 -1.1738  0.6361 -0.6580
  862MOL0     C18844   5.657  11.563   2.528 -0.6122 -0.2189  0.3103
  862MOL0     C18845   5.694  11.542   2.663  0.4076 -0.2506  0.6242
  862MOL0     C18846   5.640  11.424   2.745  0.6611 -0.2528 -0.2234
  862MOL0     C18847   5.787  11.621   2.720 -0.4605 -0.5391 -0.3121
  862MOL0     C18848   5.850  11.608   2.854 -0.9378  0.1612 -0.6608
  862MOL0     O18849   5.768  11.623   2.972 -0.7836 -0.5608  0.0543
  862MOL0     C18850   5.848  11.599   3.086  0.3771  0.2321 -0.3489
  862MOL0     C18851   5.842  11.472   3.146  0.0670  0.1425  0.9806
  862MOL0     C18852   5.915  11.456   3.267  0.2030  0.5647  0.4253
  862MOL0     C18853   6.014  11.544   3.312  0.5507  1.0495  0.1877
  862MOL0     O18854   6.077  11.505   3.431 -0.3894 -0.6896 -0.9928
  862MOL0     C18855   6.181  11.592   3.479 -1.0379 -0.3978  0.4868
  862MOL0     C18856   6.228  11.546   3.617  0.0824  0.0392 -0.2899
  862MOL0     C18857   6.365  11.605   3.667 -0.6470  0.0065  0.2657
  862MOL0     C18858   6.490  11.533   3.608  0.0966  0.4192 -0.0087
  862MOL0     C18859   6.612  11.582   3.693 -0.0454  0.7829  0.1010
  862MOL0     C18860   6.718  11.468   3.692 -0.2032 -0.3833  0.1188
  862MOL0     C18861   6.820  11.501   3.802  0.6659 -0.3001  0.4849
  862MOL0     C18862   6.902  11.376   3.831  0.4142 -0.3724 -0.0956
  862MOL0    Cl18863   7.006  11.382   3.977 -0.1804  0.4434 -0.1448
  862MOL0     C18864   6.036  11.654   3.241 -0.0383  0.1770  0.9733
  862MOL0     C18865   5.947  11.691   3.140 -1.0820  0.1163  0.0527
  862MOL0     O18866   5.968  11.566   2.861 -0.6041 -0.0644  0.2705
  862MOL0     C18867   5.844  11.722   2.643  0.8664  0.2070  0.0785
  862MOL0     C18868   5.807  11.751   2.512  0.7378 -0.3703 -0.2334
  862MOL0     N18869   4.943  11.629   2.266  0.6337 -0.0500 -0.2728
  862MOL0     N18870   4.875  11.537   2.208 -1.0134 -0.4848  0.3750
  862MOL0     C18871   4.359  11.103   1.698 -0.5116 -0.6238  0.1832
  862MOL0     C18872   4.259  11.150   1.783  0.4002  0.0799 -0.2420
  862MOL0     C18873   3.800  11.295   1.837 -0.8550 -0.2583  0.2949
  862MOL0     C18874   3.668  11.259   1.796 -0.9596  0.1897 -0.2234
  862MOL0     C18875   3.557  11.306   1.857 -0.1019 -0.5241 -1.1102
  862MOL0     C18876   3.565  11.379   1.978 -0.0232 -0.7877  0.1085
  862MOL0     O18877   3.452  11.415   2.044  0.4399 -0.2263  0.1895
  862MOL0     C18878   3.461  11.503   2.158  0.0441  0.0334 -0.3465
  862MOL0     C18879   3.320  11.559   2.183 -0.2912  1.1599 -0.3410
  862MOL0     C18880   3.312  11.632   2.312  0.1061  0.4465 -0.4248
  862MOL0     C18881   3.410  11.752   2.324 -0.6571  0.1073 -0.0761
  862MOL0     C18882   3.401  11.856   2.218 -0.5599 -0.2493  0.0818
  862MOL0     C18883   3.402  11.933   2.124 -0.6358 -0.0234 -0.5081
  862MOL0     C18884   3.687  11.417   2.023  0.3503 -0.7916  0.4269
  862MOL0     C18885   3.807  11.370   1.965  0.7140  0.0732 -0.4876
  862MOL0     C18886   3.927  11.388   2.041 -0.5762 -0.1215  0.1663
  862MOL0     H18887   4.043  11.221   1.522  0.7581  0.5313 -0.3897
  862MOL0     H18888   4.233  11.141   1.393 -3.4041 -0.8585  0.3676
  862MOL0     H18889   4.519  10.887   1.446 -1.4220  1.0650 -0.2476
  862MOL0     H18890   4.484  10.905   1.615 -1.3601 -0.7584 -1.2497
  862MOL0     H18891   4.736  10.901   1.547  1.9451  1.0991  1.7917
  862MOL0     H18892   4.705  11.045   1.447  2.5394 -4.1443 -1.6387
  862MOL0     H18893   4.662  11.185   1.623  2.1510  1.4904  1.1647
  862MOL0     H18894   4.680  11.068   1.750  0.6853 -1.6541  0.0810
  862MOL0     H18895   4.920  11.034   1.680 -3.6971 -2.6335 -1.1295
  862MOL0     H18896   4.906  11.142   1.541  2.9155 -0.2667  0.1303
  862MOL0     H18897   4.875  11.344   1.702 -0.2254 -0.1496  2.2885
  862MOL0     H18898   5.019  11.259   1.703  1.7842 -1.9586  1.0978
  862MOL0     H18899   4.773  11.247   1.901  1.0514  2.3815  3.3569
  862MOL0     H18900   4.899  11.125   1.927  0.9961  1.2755  2.2307
  862MOL0     H18901   4.903  11.432   1.936 -2.8363 -1.3472  2.1444
  862MOL0     H18902   5.057  11.345   1.916 -0.0196 -0.3312 -2.5702
  862MOL0     H18903   4.827  11.298   2.121  0.2816  0.9957  1.8439
  862MOL0     H18904   5.000  11.239   2.142  2.0384  2.7945  0.1904
  862MOL0     H18905   5.170  11.401   2.195 -0.8368 -0.6436 -3.5088
  862MOL0     H18906   5.159  11.660   2.455  0.2058 -0.3027 -0.1353
  862MOL0     H18907   5.182  11.758   2.314  0.7430 -0.1581 -0.2520
  862MOL0     H18908   5.351  11.527   2.417 -2.2280 -1.5287 -0.1268
  862MOL0     H18909   5.332  11.531   2.241  2.3053 -0.8624  0.3438
  862MOL0     H18910   5.412  11.779   2.258 -0.9268 -0.2731  0.0483
  862MOL0     H18911   5.445  11.722   2.426 -3.7245 -2.2501  0.6854
  862MOL0     H18912   5.566  11.524   2.255  1.7921 -1.0391 -0.7454
  862MOL0     H18913   5.570  11.665   2.152  0.7660  1.6239  0.3775
  862MOL0     H18914   5.587  11.501   2.472 -0.6283  0.0969 -0.0291
  862MOL0     H18915   5.687  11.410   2.842  2.5982  1.9053 -0.7734
  862MOL0     H18916   5.648  11.334   2.683  1.0890 -0.3038 -0.0902
  862MOL0     H18917   5.531  11.432   2.758  0.7183 -0.5431  0.4762
  862MOL0     H18918   5.752  11.417   3.122 -0.4299  0.7502  1.4286
  862MOL0     H18919   5.887  11.369   3.326 -0.6456  0.9511  0.6179
  862MOL0     H18920   6.269  11.593   3.414  0.5606  1.5546  2.4943
  862MOL0     H18921   6.161  11.700   3.478 -0.3436 -0.2680 -0.6905
  862MOL0     H18922   6.144  11.567   3.683 -0.2359 -0.2915 -0.5842
  862MOL0     H18923   6.229  11.436   3.623 -3.7266 -0.0648  0.4329
  862MOL0     H18924   6.361  11.612   3.776 -1.8795 -0.8268  0.2977
  862MOL0     H18925   6.382  11.702   3.619  0.3283 -0.1045  0.3856
  862MOL0     H18926   6.507  11.532   3.500 -0.9312 -3.1371 -0.2824
  862MOL0     H18927   6.476  11.428   3.636  0.8591  0.6973  1.4828
  862MOL0     H18928   6.644  11.667   3.632 -1.0761  0.5206 -0.8483
  862MOL0     H18929   6.591  11.605   3.798  0.4416 -2.0967  0.9190
  862MOL0     H18930   6.767  11.469   3.594 -1.0231  1.9040 -0.3232
  862MOL0     H18931   6.674  11.370   3.711  3.3645 -2.6408 -2.0264
  862MOL0     H18932   6.776  11.531   3.897 -1.2359 -1.6834  0.1061
  862MOL0     H18933   6.889  11.577   3.764 -0.7300  0.5324 -0.4653
  862MOL0     H18934   6.961  11.353   3.743  0.3252 -1.9582  0.2248
  862MOL0     H18935   6.841  11.286   3.847  0.2290 -0.8720 -3.0348
  862MOL0     H18936   6.102  11.733   3.275  2.1903 -0.9547 -0.5015
  862MOL0     H18937   5.965  11.794   3.109 -1.1924  0.0792 -0.1379
  862MOL0     H18938   5.928  11.781   2.679  0.4082  2.1001 -1.7309
  862MOL0     H18939   5.841  11.836   2.453  0.7593 -0.9370 -1.0578
  862MOL0     H18940   4.447  11.061   1.747  0.2828  0.2909 -0.4202
  862MOL0     H18941   4.254  11.164   1.890 -0.6994 -0.0768 -0.2575
  862MOL0     H18942   3.659  11.204   1.702  2.0018 -0.1210 -0.4062
  862MOL0     H18943   3.458  11.281   1.820 -0.1827 -1.9474 -0.0008
  862MOL0     H18944   3.487  11.444   2.246 -0.9724 -1.6659 -1.1282
  862MOL0     H18945   3.529  11.586   2.136  1.3523 -1.1947 -1.1192
  862MOL0     H18946   3.249  11.477   2.191  1.3861 -0.8729 -3.9749
  862MOL0     H18947   3.289  11.622   2.099 -1.8444  3.2109  1.6450
  862MOL0     H18948   3.211  11.672   2.316 -0.1510 -0.0939 -1.2383
  862MOL0     H18949   3.332  11.565   2.396  0.7806 -0.5289 -1.3260
  862MOL0     H18950   3.508  11.702   2.326 -1.1993 -1.0479 -1.1605
  862MOL0     H18951   3.393  11.799   2.421 -1.1655 -1.6005  0.6948
  862MOL0     H18952   3.390  11.996   2.039 -4.4166  0.3760  0.1584
  862MOL0     H18953   3.693  11.467   2.120  1.4133  1.0225 -0.5114
  862MOL0     H18954   3.901  11.368   2.145  1.0470 -2.8630  0.1340
  862MOL0     H18955   4.000  11.308   2.028  0.9239  1.0666  1.0192
  862MOL0     H18956   3.967  11.490   2.035  0.5337 -0.2824  3.0530
  863MOL0     O18957   1.695   2.441   0.391 -0.3213 -0.3248 -0.2470
  863MOL0     C18958   1.624   2.369   0.462  0.3387  0.1697  0.6408
  863MOL0     O18959   1.670   2.283   0.560 -0.1470  0.5039 -0.2324
  863MOL0     C18960   1.803   2.270   0.588 -1.0114  0.4629  0.4695
  863MOL0     C18961   1.909   2.278   0.496  0.2648  1.5175 -0.7015
  863MOL0     C18962   2.042   2.287   0.545  0.6942 -0.1575  0.1228
  863MOL0     C18963   2.070   2.273   0.684  1.0909  0.5358  0.2578
  863MOL0     O18964   2.192   2.281   0.741 -0.7778 -0.7504 -0.3990
  863MOL0     C18965   2.296   2.215   0.664 -1.1595 -0.1698 -0.1380
  863MOL0     C18966   2.270   2.070   0.672  0.2179  0.2281 -0.0535
  863MOL0     C18967   2.385   1.983   0.593  0.7063 -0.0237  0.1186
  863MOL0     C18968   2.377   1.827   0.587 -0.1455  0.9160 -0.7729
  863MOL0     C18969   2.283   1.785   0.477 -0.3770 -0.0798  1.1938
  863MOL0     C18970   2.284   1.633   0.460  0.2768  0.3769  0.0456
  863MOL0     C18971   2.209   1.583   0.337 -0.1989  0.0821 -0.4410
  863MOL0     C18972   2.059   1.560   0.372 -0.6385 -0.3408  0.1463
  863MOL0     N18973   1.976   1.487   0.265  0.2715  0.2314  0.4114
  863MOL0     C18974   2.000   1.360   0.228  0.7594  0.7533  0.7508
  863MOL0     C18975   1.900   1.330   0.138  0.0410 -0.1862  0.1825
  863MOL0     C18976   1.865   1.197   0.081 -0.9007 -0.1264 -0.2124
  863MOL0     C18977   1.954   1.156  -0.036  0.2307  0.9891  0.2651
  863MOL0     C18978   1.904   1.028  -0.106  0.8491  0.4209 -0.1298
  863MOL0     C18979   1.967   1.003  -0.245  0.3064 -0.8784 -0.1756
  863MOL0     O18980   2.080   0.914  -0.247  0.0989  0.0567  0.0364
  863MOL0     C18981   2.204   0.965  -0.235 -0.3466 -0.5589  0.4190
  863MOL0     C18982   2.272   1.008  -0.349  0.3814  0.5025 -0.4328
  863MOL0     C18983   2.407   1.044  -0.343 -0.2446  0.0949  1.1553
  863MOL0     C18984   2.467   1.081  -0.478 -0.7088 -0.3093 -0.0431
  863MOL0     C18985   2.476   1.035  -0.218 -0.0574  0.1321  0.7379
  863MOL0     C18986   2.621   1.075  -0.202 -0.0121 -0.3608  0.6681
  863MOL0     O18987   2.657   1.175  -0.287  0.6308 -0.2417 -0.2773
  863MOL0     C18988   2.770   1.252  -0.281  0.3802 -0.0342 -0.4708
  863MOL0     C18989   2.767   1.386  -0.333 -0.3968  0.0513  0.0977
  863MOL0     C18990   2.883   1.466  -0.336 -0.5164  0.6004 -0.2372
  863MOL0     C18991   3.006   1.408  -0.283 -0.2455 -0.0347 -0.0767
  863MOL0     O18992   3.118   1.485  -0.264  0.6183 -0.1013 -0.3597
  863MOL0     C18993   3.138   1.594  -0.353 -0.8972  0.2204 -0.8336
  863MOL0     C18994   3.288   1.621  -0.378  0.2278  0.0984  1.2213
  863MOL0     C18995   3.348   1.679  -0.247 -0.3222  0.1622  0.3141
  863MOL0     C18996   3.485   1.742  -0.266 -0.0391  1.0032  0.3287
  863MOL0     C18997   3.605   1.648  -0.246 -0.2854  0.4142 -0.2072
  863MOL0     C18998   3.733   1.731  -0.281 -0.7311  0.5527  0.1363
  863MOL0     C18999   3.862   1.655  -0.261  0.3084  0.7005 -0.6670
  863MOL0     C19000   3.981   1.738  -0.298 -0.2446  0.7037  0.8262
  863MOL0    Cl19001   4.132   1.638  -0.261 -0.1357  0.2862  0.1623
  863MOL0     C19002   3.009   1.281  -0.235  0.3037 -0.2016 -0.3161
  863MOL0     C19003   2.889   1.207  -0.233 -0.1864  0.7925  0.3116
  863MOL0     O19004   2.693   1.033  -0.111  0.3399 -0.3316  0.6287
  863MOL0     C19005   2.399   1.002  -0.100 -0.1360  0.5657 -0.3184
  863MOL0     C19006   2.260   0.979  -0.106  0.0762 -0.1780  0.3836
  863MOL0     N19007   1.819   1.441   0.122 -0.4814 -0.7685  0.5992
  863MOL0     N19008   1.861   1.530   0.201 -0.4689 -0.3364 -0.2657
  863MOL0     C19009   1.964   2.241   0.765 -0.1146  0.1565  0.3443
  863MOL0     C19010   1.837   2.247   0.719  0.1980  0.1175  0.9238
  863MOL0     C19011   1.473   2.368   0.442  0.0979  0.3079 -0.2690
  863MOL0     C19012   1.387   2.278   0.507 -0.9716  0.0223  0.1245
  863MOL0     C19013   1.250   2.265   0.487 -0.2867  0.4024  0.1982
  863MOL0     C19014   1.183   2.349   0.400  0.2060  0.7424 -0.5617
  863MOL0     O19015   1.048   2.343   0.381  0.4818  0.4311 -0.4718
  863MOL0     C19016   0.966   2.227   0.400 -0.4865  0.7220 -0.0851
  863MOL0     C19017   1.008   2.115   0.312 -0.7717  1.3805  0.3656
  863MOL0     C19018   0.880   2.015   0.288 -0.3533  0.2646  0.3438
  863MOL0     C19019   0.915   1.876   0.225 -0.6646  0.5879 -0.8420
  863MOL0     C19020   0.957   1.786   0.330 -1.3750 -0.0322  0.5612
  863MOL0     C19021   1.014   1.715   0.416  0.4831 -0.7252  0.1134
  863MOL0     C19022   1.254   2.452   0.348 -0.3934  0.2072  0.0755
  863MOL0     C19023   1.400   2.462   0.361  0.2512  0.4823  0.4949
  863MOL0     C19024   1.466   2.579   0.286 -1.4704  0.6234  0.0538
  863MOL0     H19025   1.900   2.283   0.388 -0.2278 -0.8095 -0.8081
  863MOL0     H19026   2.115   2.314   0.469 -1.8120  0.7164 -2.1261
  863MOL0     H19027   2.394   2.244   0.704 -1.2499 -0.9449  0.7072
  863MOL0     H19028   2.304   2.233   0.557  3.6824 -1.9997 -0.3513
  863MOL0     H19029   2.265   2.048   0.779  0.9751  2.4636  0.4975
  863MOL0     H19030   2.175   2.048   0.622  1.1330 -2.5190 -0.7539
  863MOL0     H19031   2.385   2.027   0.493 -1.1310  4.0765  1.6832
  863MOL0     H19032   2.487   2.012   0.621  1.9502 -2.2841 -1.7298
  863MOL0     H19033   2.471   1.775   0.565 -1.4723 -1.9716 -0.0343
  863MOL0     H19034   2.348   1.798   0.688  3.9070  0.9557  0.5945
  863MOL0     H19035   2.322   1.833   0.387 -3.8463 -0.1129 -0.4710
  863MOL0     H19036   2.181   1.823   0.490 -0.0159  0.3602  3.0263
  863MOL0     H19037   2.385   1.592   0.459 -0.6701 -2.1408  0.0280
  863MOL0     H19038   2.238   1.589   0.549  3.6859 -1.3504  1.1051
  863MOL0     H19039   2.243   1.486   0.300 -2.3502  0.2051 -3.0653
  863MOL0     H19040   2.235   1.644   0.249  3.8064  0.0064  0.4774
  863MOL0     H19041   2.060   1.490   0.456 -2.0545 -0.0251  0.4512
  863MOL0     H19042   2.014   1.654   0.406  1.4892  0.7063  0.1882
  863MOL0     H19043   2.081   1.298   0.264  1.4551  1.0653 -0.2301
  863MOL0     H19044   1.758   1.199   0.058 -1.4743  2.9604  2.1143
  863MOL0     H19045   1.862   1.127   0.165  2.1573 -0.5114 -0.3217
  863MOL0     H19046   1.958   1.237  -0.109 -0.3660  1.8642  1.1803
  863MOL0     H19047   2.053   1.148   0.008 -0.4475 -0.6826  1.6063
  863MOL0     H19048   1.901   0.944  -0.036 -0.1615  0.1713 -0.4662
  863MOL0     H19049   1.800   1.052  -0.130  0.1545 -1.9293  0.2515
  863MOL0     H19050   1.888   0.964  -0.310  1.2437 -3.4381  0.1078
  863MOL0     H19051   1.997   1.103  -0.278  2.5203  0.7342  5.5576
  863MOL0     H19052   2.210   0.990  -0.436 -1.6092 -3.5793  1.5447
  863MOL0     H19053   2.472   1.190  -0.476 -2.7902 -0.1750  2.2221
  863MOL0     H19054   2.401   1.053  -0.562 -0.0102  1.6803 -1.3174
  863MOL0     H19055   2.564   1.035  -0.497 -0.8059 -1.5637  2.1180
  863MOL0     H19056   2.669   1.424  -0.359 -0.7961 -0.8332  0.2465
  863MOL0     H19057   2.873   1.571  -0.361 -0.8614  0.8791  0.9996
  863MOL0     H19058   3.105   1.554  -0.449  0.2754 -1.9824 -0.3847
  863MOL0     H19059   3.087   1.683  -0.314  0.1279 -0.4898  2.3913
  863MOL0     H19060   3.335   1.530  -0.418 -2.5005 -1.1701  0.6140
  863MOL0     H19061   3.291   1.689  -0.464 -2.8860 -0.3436  0.6273
  863MOL0     H19062   3.346   1.613  -0.159  0.0283  0.9338  0.9089
  863MOL0     H19063   3.281   1.764  -0.232  1.1931  2.0668 -2.7372
  863MOL0     H19064   3.491   1.821  -0.190 -3.3805  2.3870 -0.6689
  863MOL0     H19065   3.481   1.794  -0.362 -0.9914  2.3448  1.0598
  863MOL0     H19066   3.611   1.602  -0.147 -1.8246  0.4317 -0.0730
  863MOL0     H19067   3.592   1.577  -0.328  0.6352 -0.5135  0.4384
  863MOL0     H19068   3.737   1.817  -0.214  0.0605  1.5598 -1.1401
  863MOL0     H19069   3.722   1.772  -0.382 -0.9072  1.2625  0.4339
  863MOL0     H19070   3.860   1.564  -0.321  0.0288 -0.1408  0.5738
  863MOL0     H19071   3.868   1.628  -0.155  0.1487  2.4152 -0.1861
  863MOL0     H19072   3.981   1.837  -0.252  0.6493  1.8089 -1.3814
  863MOL0     H19073   3.975   1.764  -0.404 -4.8591 -2.5468 -0.0187
  863MOL0     H19074   3.101   1.240  -0.195 -0.5276 -2.1792 -0.3364
  863MOL0     H19075   2.898   1.107  -0.191 -4.8716  0.4526  1.0422
  863MOL0     H19076   2.447   0.996  -0.003  0.9638  0.9428 -0.8293
  863MOL0     H19077   2.205   0.942  -0.020 -2.0982  2.4139  0.2140
  863MOL0     H19078   1.974   2.230   0.872  0.7454 -1.0761  0.1568
  863MOL0     H19079   1.761   2.223   0.793 -0.6961 -2.1570 -0.6197
  863MOL0     H19080   1.429   2.207   0.579  0.6988  0.5266 -0.3094
  863MOL0     H19081   1.198   2.185   0.539 -0.8406 -0.1242 -1.1374
  863MOL0     H19082   0.953   2.191   0.502  0.3510  0.2513 -0.1383
  863MOL0     H19083   0.868   2.264   0.366 -1.8154 -2.2753  0.1591
  863MOL0     H19084   1.088   2.060   0.363 -1.3386  0.6698  0.5003
  863MOL0     H19085   1.046   2.146   0.215  2.2230 -1.4637  0.4722
  863MOL0     H19086   0.826   2.000   0.382 -0.1377  0.1130  0.4453
  863MOL0     H19087   0.824   2.072   0.213  2.0889 -1.1919 -2.8614
  863MOL0     H19088   0.993   1.887   0.149 -1.4693  0.0930 -1.7690
  863MOL0     H19089   0.834   1.833   0.166  0.3060 -1.8151 -0.5490
  863MOL0     H19090   1.064   1.646   0.480 -0.1727 -0.9072  0.4464
  863MOL0     H19091   1.202   2.527   0.290 -2.8131  1.1521  3.1490
  863MOL0     H19092   1.398   2.636   0.222 -1.1598 -0.2468 -1.0810
  863MOL0     H19093   1.492   2.662   0.352  1.2459  0.1445 -0.3295
  863MOL0     H19094   1.543   2.552   0.214 -0.5263 -1.1516  1.6360
  864MOL0     O19095   9.901   7.744   5.416  0.5671 -0.3980 -0.2768
  864MOL0     C19096   9.860   7.801   5.517  0.2861  0.6338  0.1068
  864MOL0     O19097   9.927   7.881   5.592 -0.9330  0.5066  0.6591
  864MOL0     C19098  10.063   7.896   5.584  0.2547 -0.0694  0.1244
  864MOL0     C19099  10.132   7.904   5.706  0.3687  0.3077  0.3664
  864MOL0     C19100  10.271   7.935   5.714  0.1384 -0.5400  0.0471
  864MOL0     C19101  10.339   7.961   5.595  0.7404 -0.0689  0.2432
  864MOL0     O19102  10.468   8.001   5.598  0.0684  0.5105  0.1076
  864MOL0     C19103  10.525   8.035   5.716  0.4780 -0.0844 -0.4635
  864MOL0     C19104  10.676   8.048   5.697 -1.0511 -0.1244 -0.3999
  864MOL0     C19105  10.720   8.164   5.607 -0.0269 -0.2177  0.6077
  864MOL0     C19106  10.651   8.295   5.614 -0.5545  0.5273 -0.4770
  864MOL0     C19107  10.731   8.403   5.540 -0.4333  0.2859 -0.2544
  864MOL0     C19108  10.665   8.541   5.573  0.3472 -0.0944 -0.7311
  864MOL0     C19109  10.751   8.651   5.520 -0.0038 -0.2913 -0.0940
  864MOL0     C19110  10.763   8.641   5.367 -0.3363 -0.6438  0.2909
  864MOL0     N19111  10.840   8.755   5.314 -0.1080 -0.4671 -0.2131
  864MOL0     C19112  10.789   8.886   5.317  0.0285 -0.4389 -0.1879
  864MOL0     C19113  10.874   8.944   5.232  0.5127  0.2676  0.4842
  864MOL0     C19114  10.881   9.090   5.198  0.1851 -0.4622 -0.5466
  864MOL0     C19115  10.763   9.151   5.135 -0.2211  0.3256 -0.1835
  864MOL0     C19116  10.781   9.298   5.085  0.6340 -0.5849 -0.6572
  864MOL0     C19117  10.836   9.312   4.939 -0.9232 -0.5031  0.2461
  864MOL0     O19118  10.978   9.280   4.955  0.3091  0.2618 -0.1935
  864MOL0     C19119  11.079   9.292   4.855  0.2240 -0.3625  0.4998
  864MOL0     C19120  11.066   9.346   4.727  0.3788  0.9761 -0.6568
  864MOL0     C19121  11.178   9.363   4.647 -0.3558 -0.2912  0.6325
  864MOL0     C19122  11.156   9.437   4.512 -0.4653  0.0729 -0.5652
  864MOL0     C19123  11.309   9.325   4.691 -0.2502 -0.3230  0.3936
  864MOL0     C19124  11.435   9.343   4.614 -1.0717 -0.0416  0.1040
  864MOL0     O19125  11.422   9.345   4.480 -0.3566  0.3269  0.7307
  864MOL0     C19126  11.529   9.342   4.393  0.4167 -0.6089 -1.1707
  864MOL0     C19127  11.639   9.271   4.413 -0.2648  0.5922  0.2719
  864MOL0     C19128  11.754   9.283   4.327  0.1960 -0.3853 -0.9717
  864MOL0     C19129  11.745   9.382   4.229  0.7047  0.3663 -0.2465
  864MOL0     O19130  11.855   9.400   4.144 -0.3994  0.5168 -0.1280
  864MOL0     C19131  11.903   9.524   4.095 -0.2258 -0.0624 -0.4035
  864MOL0     C19132  12.053   9.520   4.070  0.5478  0.1833  0.1448
  864MOL0     C19133  12.127   9.479   4.204  0.2255  0.5076  0.6833
  864MOL0     C19134  12.277   9.462   4.163 -0.3864 -0.9125  0.8747
  864MOL0     C19135  12.359   9.387   4.275  0.0668 -0.1182 -0.4196
  864MOL0     C19136  12.491   9.357   4.215 -0.1084 -0.2971  1.0717
  864MOL0     C19137  12.571   9.262   4.309  0.0942 -0.4016 -0.4507
  864MOL0     C19138  12.686   9.192   4.246  0.9335  0.8314 -0.7506
  864MOL0    Cl19139  12.797   9.306   4.167  0.0589 -0.1457 -0.1004
  864MOL0     C19140  11.619   9.442   4.202 -0.3509  0.7918  0.2584
  864MOL0     C19141  11.509   9.417   4.279  0.4371 -0.5715  0.3732
  864MOL0     O19142  11.543   9.345   4.676  0.3016 -0.0434  0.3311
  864MOL0     C19143  11.315   9.277   4.828 -0.0667 -0.5566  0.5927
  864MOL0     C19144  11.200   9.249   4.902 -1.0106  0.3611  0.2670
  864MOL0     N19145  10.968   8.857   5.190 -0.5600  0.0394  0.9779
  864MOL0     N19146  10.955   8.744   5.242  0.2531 -0.5921  0.5746
  864MOL0     C19147  10.267   7.950   5.469 -0.7021  0.3812 -0.0847
  864MOL0     C19148  10.135   7.925   5.468  0.5760 -0.5471  0.6182
  864MOL0     C19149   9.722   7.767   5.561  0.1472 -0.2146 -0.2502
  864MOL0     C19150   9.652   7.683   5.482 -0.1340  0.6194  0.3832
  864MOL0     C19151   9.529   7.636   5.526 -0.4374  0.0361  0.1205
  864MOL0     C19152   9.474   7.675   5.647 -0.7319 -0.3032 -0.4474
  864MOL0     O19153   9.346   7.624   5.674  0.0795 -0.0827 -0.0931
  864MOL0     C19154   9.273   7.702   5.767 -0.2019 -0.3557  0.3756
  864MOL0     C19155   9.238   7.845   5.719  0.1700  0.6144  1.0001
  864MOL0     C19156   9.129   7.899   5.807  0.4950  0.5670  0.6168
  864MOL0     C19157   9.087   8.036   5.743 -0.4981  0.2540 -0.0828
  864MOL0     C19158   9.028   8.122   5.847  1.0038 -0.1857  0.0671
  864MOL0     C19159   8.982   8.200   5.930  0.6997 -0.5948  0.2340
  864MOL0     C19160   9.543   7.763   5.728  0.3039  0.3108  0.0579
  864MOL0     C19161   9.667   7.811   5.685 -0.1027 -0.4193 -0.1722
  864MOL0     C19162   9.730   7.899   5.790  0.7470  0.6322 -0.1036
  864MOL0     H19163  10.074   7.896   5.798  1.3270  3.6124  1.3762
  864MOL0     H19164  10.311   7.938   5.815 -1.8377  3.6001  0.9246
  864MOL0     H19165  10.499   7.964   5.795  2.9340  0.0172  0.5220
  864MOL0     H19166  10.483   8.133   5.738 -1.3042 -1.1396  1.0533
  864MOL0     H19167  10.717   8.067   5.797 -0.8579  1.1563 -0.7099
  864MOL0     H19168  10.723   7.957   5.660  0.2426  0.6379 -0.6778
  864MOL0     H19169  10.827   8.178   5.625  0.5822 -1.2185 -1.8562
  864MOL0     H19170  10.714   8.137   5.501  1.5173  0.3413  0.3509
  864MOL0     H19171  10.546   8.304   5.586 -0.8519  1.1186  0.7831
  864MOL0     H19172  10.660   8.335   5.715 -0.1601  3.0061 -1.4154
  864MOL0     H19173  10.724   8.389   5.432  1.1973 -1.3001 -0.2000
  864MOL0     H19174  10.838   8.405   5.562 -0.7225  0.3346  1.2699
  864MOL0     H19175  10.566   8.533   5.526 -0.5672  1.8458  0.7090
  864MOL0     H19176  10.658   8.555   5.681 -0.6444  1.9438 -0.9969
  864MOL0     H19177  10.851   8.651   5.563  0.9637 -1.8656 -2.1606
  864MOL0     H19178  10.707   8.751   5.531  0.9421  0.4620 -2.4202
  864MOL0     H19179  10.804   8.544   5.337 -1.5675 -2.2432  3.3260
  864MOL0     H19180  10.663   8.655   5.326 -0.6601 -0.1164  1.2329
  864MOL0     H19181  10.711   8.928   5.380 -0.6611 -2.1424  0.1587
  864MOL0     H19182  10.961   9.103   5.124  0.7470 -1.7373 -0.1784
  864MOL0     H19183  10.902   9.142   5.292  0.9027 -2.2908  0.3474
  864MOL0     H19184  10.753   9.089   5.045  0.1826  0.9035 -0.6322
  864MOL0     H19185  10.679   9.138   5.204  0.3943  0.2856  0.5670
  864MOL0     H19186  10.680   9.338   5.088  1.6759  2.3741 -1.5004
  864MOL0     H19187  10.837   9.358   5.158 -1.9322 -0.8880  1.7141
  864MOL0     H19188  10.795   9.236   4.873 -1.8686 -0.8056  1.1516
  864MOL0     H19189  10.824   9.415   4.903 -1.2902 -0.2996  0.9274
  864MOL0     H19190  10.969   9.374   4.688  0.5837 -0.4952 -2.3368
  864MOL0     H19191  11.237   9.508   4.490 -1.2089  1.0279 -0.3224
  864MOL0     H19192  11.059   9.487   4.501  0.1888  2.0353  1.6308
  864MOL0     H19193  11.164   9.367   4.428 -0.1136 -0.1980 -0.3051
  864MOL0     H19194  11.652   9.204   4.497  1.5249 -0.9865 -1.1550
  864MOL0     H19195  11.847   9.229   4.344  0.9947  0.9878 -0.7688
  864MOL0     H19196  11.857   9.542   3.997 -0.3264 -4.3163 -1.3337
  864MOL0     H19197  11.896   9.600   4.173  1.8169  0.6769 -0.8842
  864MOL0     H19198  12.077   9.450   3.990  2.1740  1.3557 -0.4572
  864MOL0     H19199  12.084   9.620   4.036 -2.1569  0.5355 -1.5144
  864MOL0     H19200  12.085   9.383   4.234  1.4301 -0.4787 -0.6544
  864MOL0     H19201  12.109   9.550   4.285 -1.5695 -0.0707  0.8268
  864MOL0     H19202  12.318   9.561   4.140 -0.6348 -0.7579  1.0964
  864MOL0     H19203  12.278   9.412   4.066  1.5290  0.2727  0.2274
  864MOL0     H19204  12.364   9.447   4.366  1.7177 -0.4406 -0.2789
  864MOL0     H19205  12.317   9.289   4.298  0.8101 -0.3390  0.0263
  864MOL0     H19206  12.549   9.447   4.196  0.6218 -1.0892 -0.6891
  864MOL0     H19207  12.464   9.312   4.118  0.0291  0.0180  0.8875
  864MOL0     H19208  12.509   9.179   4.344  0.9532 -1.4802 -1.4096
  864MOL0     H19209  12.606   9.322   4.394  1.3644 -0.3765 -0.9623
  864MOL0     H19210  12.630   9.134   4.172 -0.9541  0.6032  0.7933
  864MOL0     H19211  12.735   9.124   4.316  0.3299  0.6840 -0.4693
  864MOL0     H19212  11.609   9.521   4.128  0.5452 -0.3348 -1.1273
  864MOL0     H19213  11.425   9.483   4.259  2.3747  2.3890  1.3211
  864MOL0     H19214  11.415   9.250   4.861 -0.0507 -2.3889 -0.7931
  864MOL0     H19215  11.224   9.210   5.000  2.8428 -1.1686 -1.0524
  864MOL0     H19216  10.321   7.965   5.376  1.3159 -2.1257  0.5472
  864MOL0     H19217  10.074   7.938   5.379  0.2286  1.1803  1.0672
  864MOL0     H19218   9.680   7.659   5.380 -1.3457 -0.6661  0.3041
  864MOL0     H19219   9.469   7.565   5.471 -0.1060  0.1157 -0.3433
  864MOL0     H19220   9.176   7.661   5.798 -1.1656  3.5657  3.3606
  864MOL0     H19221   9.327   7.707   5.863  1.0261 -2.7260 -0.1155
  864MOL0     H19222   9.194   7.838   5.619  1.9176 -0.8660  0.2747
  864MOL0     H19223   9.328   7.907   5.718  2.8908 -3.0140  0.7666
  864MOL0     H19224   9.047   7.826   5.807  2.7812 -2.2140 -1.4259
  864MOL0     H19225   9.170   7.924   5.905 -0.3816 -1.8998  1.6951
  864MOL0     H19226   9.029   8.028   5.651  1.3206 -2.7114 -1.1173
  864MOL0     H19227   9.177   8.091   5.713 -0.9002  3.8799  4.1517
  864MOL0     H19228   8.950   8.273   6.001 -0.9470  2.1710 -3.0119
  864MOL0     H19229   9.513   7.799   5.826  0.2956  1.0696 -0.2178
  864MOL0     H19230   9.745   7.999   5.748  1.3964  0.9173  0.7841
  864MOL0     H19231   9.669   7.921   5.877 -1.6889  2.3780 -2.1141
  864MOL0     H19232   9.824   7.852   5.820  0.2410 -0.3952 -0.0893
  865MOL0     O19233  10.573   6.083   7.880  0.4865 -0.0016 -0.2931
  865MOL0     C19234  10.498   5.986   7.905  0.4408 -0.0313  0.5931
  865MOL0     O19235  10.545   5.857   7.932  0.5884 -0.4166  1.0409
  865MOL0     C19236  10.669   5.810   7.911 -0.1616 -0.4049 -0.6067
  865MOL0     C19237  10.789   5.893   7.902  1.2888  0.4557 -0.3124
  865MOL0     C19238  10.913   5.840   7.910  0.0675 -0.0666 -0.3125
  865MOL0     C19239  10.925   5.702   7.905  1.1374 -0.0180 -0.1360
  865MOL0     O19240  11.044   5.635   7.916 -0.3502 -0.4682  0.1756
  865MOL0     C19241  11.169   5.710   7.922 -0.3486  0.0910  0.4346
  865MOL0     C19242  11.285   5.610   7.919 -0.2504  0.1487  0.7726
  865MOL0     C19243  11.300   5.516   8.041  0.0361 -0.1345  0.8480
  865MOL0     C19244  11.393   5.407   7.969 -0.8750  0.3872  0.2651
  865MOL0     C19245  11.427   5.285   8.056  0.2253 -0.2674 -0.0707
  865MOL0     C19246  11.517   5.184   7.981 -0.1948  0.4828 -0.2850
  865MOL0     C19247  11.551   5.057   8.063 -0.6743  0.6302 -0.6680
  865MOL0     C19248  11.679   5.077   8.149 -0.6704  0.3973  0.3787
  865MOL0     N19249  11.804   5.058   8.074  0.0232 -0.0177  0.1038
  865MOL0     C19250  11.869   4.941   8.048  0.5387  0.2797  0.2494
  865MOL0     C19251  11.985   4.965   7.989  0.0392 -0.1859 -1.2445
  865MOL0     C19252  12.099   4.876   7.947  0.0137  0.2693 -0.7431
  865MOL0     C19253  12.133   4.737   8.021 -0.1395 -1.2294  0.4220
  865MOL0     C19254  12.204   4.756   8.156 -0.0636  0.3725  0.7505
  865MOL0     C19255  12.336   4.834   8.155  0.3072  0.8973  0.0065
  865MOL0     O19256  12.399   4.804   8.286 -0.1289  0.4139  0.4279
  865MOL0     C19257  12.540   4.803   8.284  0.7252  0.3538 -0.0105
  865MOL0     C19258  12.619   4.863   8.383 -0.1668  0.7606  0.3734
  865MOL0     C19259  12.758   4.869   8.385 -0.2024  0.5835  0.7141
  865MOL0     C19260  12.833   4.948   8.496  0.0975  1.8245  0.4474
  865MOL0     C19261  12.821   4.803   8.275 -0.0418  0.5825  0.1091
  865MOL0     C19262  12.971   4.791   8.251 -0.0143 -0.1565  0.4746
  865MOL0     O19263  13.040   4.800   8.362 -0.3070  0.3806  0.7951
  865MOL0     C19264  13.162   4.745   8.384 -0.7951 -0.2430 -0.0031
  865MOL0     C19265  13.246   4.668   8.298  0.3730  0.2491 -0.0534
  865MOL0     C19266  13.376   4.627   8.331 -0.6000 -0.4872  0.1505
  865MOL0     C19267  13.433   4.658   8.454 -0.3126  0.2487  0.2018
  865MOL0     O19268  13.562   4.617   8.489  0.8415  0.3363 -0.0413
  865MOL0     C19269  13.619   4.679   8.603 -0.4508  0.1648  0.1321
  865MOL0     C19270  13.772   4.655   8.584 -0.0511 -0.9929  0.2837
  865MOL0     C19271  13.835   4.711   8.713 -0.1461  0.3579  0.2149
  865MOL0     C19272  13.974   4.775   8.664 -0.1438  0.8497 -0.6278
  865MOL0     C19273  14.068   4.819   8.779  0.2608 -0.0018 -0.0269
  865MOL0     C19274  13.989   4.900   8.881  0.3404 -0.8419  0.5994
  865MOL0     C19275  13.952   5.039   8.833  0.5393  0.3265  0.2008
  865MOL0     C19276  13.953   5.146   8.943 -0.4989 -0.5450 -0.2443
  865MOL0    Cl19277  13.917   5.308   8.858 -0.1205  0.4554 -0.3219
  865MOL0     C19278  13.342   4.725   8.543  0.1830  0.1177  0.8576
  865MOL0     C19279  13.215   4.774   8.505 -0.0919 -0.0409  0.3998
  865MOL0     O19280  13.003   4.760   8.138  0.2962 -0.1912  0.6416
  865MOL0     C19281  12.746   4.737   8.183 -0.5670 -0.0425  0.2928
  865MOL0     C19282  12.617   4.732   8.189  0.5162  0.0211 -0.0029
  865MOL0     N19283  11.983   5.101   7.962 -1.7708  0.0668 -0.0877
  865MOL0     N19284  11.872   5.156   8.012  0.0545  0.4093 -0.1333
  865MOL0     C19285  10.810   5.621   7.909  0.2686  0.2351  0.6743
  865MOL0     C19286  10.686   5.674   7.910 -0.6141  0.0585 -0.0930
  865MOL0     C19287  10.350   6.011   7.882  0.1810  0.1694 -0.4710
  865MOL0     C19288  10.306   6.137   7.828 -0.5702 -0.5272  0.8472
  865MOL0     C19289  10.175   6.164   7.801  0.0838 -1.3409  1.1258
  865MOL0     C19290  10.079   6.062   7.801  0.2570 -1.4623 -0.6078
  865MOL0     O19291   9.954   6.093   7.752  0.3031 -0.5512  0.0349
  865MOL0     C19292   9.868   5.986   7.727  0.1100  0.2849  0.7431
  865MOL0     C19293   9.767   5.985   7.840  0.5161  0.2265  0.0874
  865MOL0     C19294   9.651   6.068   7.802  0.5108 -0.6379  0.8583
  865MOL0     C19295   9.553   6.064   7.912  0.7085 -0.7543 -0.3223
  865MOL0     C19296   9.488   5.930   7.934  0.0181 -1.1662 -0.3922
  865MOL0     C19297   9.432   5.826   7.971 -0.3275  0.4028 -0.1633
  865MOL0     C19298  10.122   5.934   7.855  0.7150  0.2608  0.1971
  865MOL0     C19299  10.240   5.916   7.902 -0.2975  0.4737 -0.2283
  865MOL0     C19300  10.279   5.779   7.955 -0.4211  0.1146  0.1415
  865MOL0     H19301  10.793   6.000   7.917 -2.8828  1.0272 -2.0619
  865MOL0     H19302  10.993   5.913   7.915 -0.5277  0.5990 -0.3121
  865MOL0     H19303  11.182   5.760   8.019  2.4900 -2.2509  1.4260
  865MOL0     H19304  11.166   5.789   7.847 -0.7197  0.4109  0.7866
  865MOL0     H19305  11.277   5.544   7.831  1.6550  1.8259 -0.7815
  865MOL0     H19306  11.375   5.672   7.919 -0.1257 -0.0317  1.3805
  865MOL0     H19307  11.350   5.571   8.121 -1.2201  0.4931  1.2330
  865MOL0     H19308  11.202   5.474   8.069  0.5823 -0.8427  1.7478
  865MOL0     H19309  11.350   5.367   7.877  1.1388  0.9264 -0.9647
  865MOL0     H19310  11.489   5.454   7.945 -0.8425  0.1639 -0.0452
  865MOL0     H19311  11.332   5.237   8.080 -1.1598  2.0922 -0.5100
  865MOL0     H19312  11.473   5.316   8.151  2.1118  0.0289 -1.0223
  865MOL0     H19313  11.457   5.156   7.894  1.3713  0.8506 -1.5445
  865MOL0     H19314  11.610   5.238   7.959  0.9572 -0.5039  1.8913
  865MOL0     H19315  11.579   4.974   7.997  2.8867 -0.2137  1.6059
  865MOL0     H19316  11.462   5.027   8.119 -0.9732  2.4612 -0.1121
  865MOL0     H19317  11.671   5.179   8.185  0.0446  0.6311 -0.0951
  865MOL0     H19318  11.679   5.005   8.232  1.2266  0.2569  0.2905
  865MOL0     H19319  11.850   4.841   8.087  1.6752 -0.6425 -1.4206
  865MOL0     H19320  12.193   4.931   7.958  0.3630 -0.7441  2.3003
  865MOL0     H19321  12.088   4.851   7.841 -0.6439  0.3183 -0.6885
  865MOL0     H19322  12.036   4.687   8.033 -2.1211  2.1180 -0.0438
  865MOL0     H19323  12.194   4.680   7.951 -1.7386 -1.8497 -0.5214
  865MOL0     H19324  12.127   4.817   8.205 -4.2088 -1.6655 -2.6394
  865MOL0     H19325  12.209   4.661   8.209  1.4919 -0.0129 -0.0312
  865MOL0     H19326  12.385   4.795   8.066 -3.1021 -2.1974 -0.7416
  865MOL0     H19327  12.315   4.940   8.142 -1.3835  0.5889 -0.0545
  865MOL0     H19328  12.566   4.906   8.467 -1.1720  1.1553 -0.4436
  865MOL0     H19329  12.896   5.028   8.456 -0.7902  2.0095 -0.6549
  865MOL0     H19330  12.912   4.882   8.533  1.3442  1.2587 -2.8754
  865MOL0     H19331  12.771   4.975   8.582 -0.3801 -1.2985  1.2050
  865MOL0     H19332  13.218   4.635   8.199  1.3599  1.6569 -0.8459
  865MOL0     H19333  13.435   4.557   8.274 -2.4224 -1.4322 -0.6421
  865MOL0     H19334  13.607   4.788   8.600  2.5518  0.5782 -0.6662
  865MOL0     H19335  13.595   4.637   8.701  1.4798 -1.0359  0.1488
  865MOL0     H19336  13.788   4.546   8.581 -1.4284 -1.2334  0.9255
  865MOL0     H19337  13.807   4.690   8.487 -0.7749 -0.6473  0.1474
  865MOL0     H19338  13.853   4.647   8.800 -0.9062  1.5614  1.2946
  865MOL0     H19339  13.771   4.792   8.751 -1.3524 -1.4017  2.1756
  865MOL0     H19340  13.942   4.855   8.597  0.3770  0.6077 -1.1786
  865MOL0     H19341  14.029   4.694   8.614 -0.0591  0.4291  0.1307
  865MOL0     H19342  14.095   4.724   8.827 -1.5345 -2.2497 -3.1206
  865MOL0     H19343  14.161   4.859   8.738  0.6647  0.3468  1.1859
  865MOL0     H19344  14.055   4.914   8.966 -0.2546  0.2876  0.8924
  865MOL0     H19345  13.904   4.846   8.923 -0.1403 -0.7101 -0.1740
  865MOL0     H19346  13.854   5.029   8.784  1.5299 -0.7910 -1.6890
  865MOL0     H19347  14.023   5.067   8.754 -0.1671 -0.9482 -0.9335
  865MOL0     H19348  14.058   5.144   8.975 -0.5924 -3.0581  0.1064
  865MOL0     H19349  13.880   5.127   9.023 -0.3896  2.0132  0.5402
  865MOL0     H19350  13.371   4.753   8.644 -2.7974  0.2531  1.7601
  865MOL0     H19351  13.160   4.831   8.579 -0.4031 -0.4763  0.5044
  865MOL0     H19352  12.790   4.686   8.097 -1.8685 -1.1986  0.2839
  865MOL0     H19353  12.568   4.672   8.113  0.7118  1.9186 -1.7418
  865MOL0     H19354  10.822   5.513   7.914  0.7940  0.2030 -0.8821
  865MOL0     H19355  10.593   5.618   7.918 -1.2937  1.1247 -0.2954
  865MOL0     H19356  10.374   6.220   7.813 -0.5603 -0.1803  2.6447
  865MOL0     H19357  10.155   6.259   7.751  2.2307 -0.5519  1.6632
  865MOL0     H19358   9.815   6.006   7.633 -0.2927 -0.1671  0.8716
  865MOL0     H19359   9.910   5.884   7.722 -0.3456  0.1364 -0.7980
  865MOL0     H19360   9.813   6.024   7.932 -0.5342  3.6944 -0.7094
  865MOL0     H19361   9.738   5.880   7.854 -1.2037  0.7957  1.0771
  865MOL0     H19362   9.675   6.171   7.776 -2.0473 -0.0306  0.6371
  865MOL0     H19363   9.604   6.027   7.712 -0.3546 -2.3663  2.0403
  865MOL0     H19364   9.459   6.120   7.899  0.4114 -1.1013  0.2893
  865MOL0     H19365   9.603   6.094   8.004  3.7399 -0.4796 -1.9566
  865MOL0     H19366   9.391   5.737   8.014  0.7810 -1.2672 -2.3634
  865MOL0     H19367  10.064   5.842   7.848 -1.0850  1.4019 -0.9325
  865MOL0     H19368  10.199   5.716   7.995  1.4188 -1.9830  0.7048
  865MOL0     H19369  10.319   5.721   7.872 -2.1753 -0.9686 -0.0061
  865MOL0     H19370  10.349   5.776   8.039  0.4845 -0.6622 -0.6234
  866MOL0     O19371   2.288   4.099   4.148  0.0109  0.7133 -0.0799
  866MOL0     C19372   2.241   4.019   4.232  0.1362  0.3950  0.0050
  866MOL0     O19373   2.315   3.935   4.312 -1.0736 -0.2428 -0.7056
  866MOL0     C19374   2.429   3.878   4.263  0.2230  0.3228 -0.6174
  866MOL0     C19375   2.549   3.942   4.293  0.1678 -0.4734  0.1541
  866MOL0     C19376   2.661   3.881   4.262  0.1144 -0.5501 -0.1113
  866MOL0     C19377   2.657   3.771   4.173 -0.8679  0.2834 -0.3830
  866MOL0     O19378   2.781   3.730   4.136 -0.2562 -0.1941  0.0792
  866MOL0     C19379   2.835   3.821   4.040  0.0357 -0.0203 -0.2702
  866MOL0     C19380   2.966   3.754   3.978  0.5199  0.1877 -0.0193
  866MOL0     C19381   3.013   3.818   3.845 -0.0378 -0.1913  1.0667
  866MOL0     C19382   3.037   3.711   3.732  0.4962  0.1060  0.1664
  866MOL0     C19383   3.081   3.781   3.595 -0.3301  0.4194 -0.3704
  866MOL0     C19384   3.103   3.683   3.477 -0.4019 -0.2204  0.6849
  866MOL0     C19385   3.136   3.747   3.343  0.1300  0.1581  0.4251
  866MOL0     C19386   3.277   3.704   3.304  0.2628  0.3732 -0.4896
  866MOL0     N19387   3.355   3.797   3.217  0.6740 -0.4286 -0.8011
  866MOL0     C19388   3.367   3.814   3.082  0.3529  0.1322 -0.3503
  866MOL0     C19389   3.449   3.917   3.083 -0.3313 -0.5284  0.5289
  866MOL0     C19390   3.497   3.982   2.946  0.7203  0.6964  0.6242
  866MOL0     C19391   3.632   3.937   2.898 -0.1466 -0.1284 -1.0355
  866MOL0     C19392   3.741   4.003   2.983 -0.0937  0.2611  0.0811
  866MOL0     C19393   3.868   3.936   2.981 -0.1707  0.3387 -0.7959
  866MOL0     O19394   3.913   3.957   2.851  0.3795  1.0463  0.2220
  866MOL0     C19395   4.029   3.892   2.798  0.7732  1.1088 -1.1040
  866MOL0     C19396   4.131   3.851   2.880  0.3369  0.4289 -0.3862
  866MOL0     C19397   4.249   3.791   2.828 -0.4073  0.2190 -0.9454
  866MOL0     C19398   4.343   3.725   2.939 -0.2588 -0.4446  0.4334
  866MOL0     C19399   4.277   3.801   2.689 -0.1928  0.5307  0.4792
  866MOL0     C19400   4.394   3.746   2.624 -0.8213 -0.0916  0.1744
  866MOL0     O19401   4.446   3.816   2.524  0.4126 -0.3913  0.5128
  866MOL0     C19402   4.560   3.776   2.460  0.7415  0.5967  0.9158
  866MOL0     C19403   4.681   3.756   2.518 -1.1489  0.3548 -0.7982
  866MOL0     C19404   4.803   3.721   2.446  1.2887 -0.7138 -0.1737
  866MOL0     C19405   4.786   3.695   2.307  0.7851 -1.3127  0.8711
  866MOL0     O19406   4.892   3.661   2.221 -0.5329 -0.4050 -0.6686
  866MOL0     C19407   4.990   3.566   2.276 -0.1515 -0.0921  0.1805
  866MOL0     C19408   5.120   3.638   2.282 -0.0516 -0.2952 -0.4313
  866MOL0     C19409   5.224   3.545   2.354  0.2011 -0.9085 -0.3677
  866MOL0     C19410   5.369   3.608   2.343 -0.0286  0.4384  0.1674
  866MOL0     C19411   5.476   3.529   2.415 -0.9897  0.4882 -0.8128
  866MOL0     C19412   5.602   3.621   2.396 -0.3388 -0.1937  0.5997
  866MOL0     C19413   5.734   3.556   2.445  0.7673 -0.1758  0.3182
  866MOL0     C19414   5.855   3.623   2.384  0.3951 -0.1133 -0.8963
  866MOL0    Cl19415   5.999   3.544   2.446  0.1894  0.0833 -0.1378
  866MOL0     C19416   4.661   3.710   2.253  0.1851 -0.2274  0.0661
  866MOL0     C19417   4.547   3.745   2.326 -0.5163 -0.1185  0.1585
  866MOL0     O19418   4.439   3.639   2.669  0.2023 -0.3900 -0.1597
  866MOL0     C19419   4.175   3.861   2.604 -0.0942 -0.2600  0.6409
  866MOL0     C19420   4.051   3.899   2.664  0.2660  0.6730  0.3729
  866MOL0     N19421   3.476   3.975   3.200 -0.4601 -0.3814  0.7120
  866MOL0     N19422   3.414   3.901   3.282  0.6444  0.1910 -0.3147
  866MOL0     C19423   2.541   3.709   4.139 -0.0437 -0.5994  0.5092
  866MOL0     C19424   2.423   3.765   4.183  0.0693 -0.8087  0.4559
  866MOL0     C19425   2.097   4.028   4.251  0.1727  0.6204 -0.8831
  866MOL0     C19426   2.026   4.141   4.209 -0.1213  0.0888  0.6450
  866MOL0     C19427   1.895   4.157   4.244 -0.6271  0.3893 -0.2686
  866MOL0     C19428   1.824   4.061   4.322  0.2138 -0.1760 -0.1502
  866MOL0     O19429   1.686   4.080   4.339 -0.3616 -0.4905  0.0949
  866MOL0     C19430   1.623   4.045   4.468 -0.2529 -0.1525  0.3333
  866MOL0     C19431   1.608   4.171   4.548  0.3914 -0.3022 -0.2714
  866MOL0     C19432   1.546   4.289   4.476  0.2629 -0.2771 -0.3181
  866MOL0     C19433   1.499   4.389   4.576 -0.2392  0.5142  0.1093
  866MOL0     C19434   1.372   4.347   4.638  0.4635 -0.6925  0.1477
  866MOL0     C19435   1.273   4.300   4.700 -0.1595 -0.3307  0.0384
  866MOL0     C19436   1.890   3.942   4.350 -0.3441 -0.4042 -0.6161
  866MOL0     C19437   2.022   3.927   4.314 -0.8199  0.5459 -0.2667
  866MOL0     C19438   2.076   3.785   4.334 -0.3199  0.3862 -0.9797
  866MOL0     H19439   2.532   4.040   4.337 -1.3084  0.2783 -1.9220
  866MOL0     H19440   2.752   3.931   4.293  0.9176 -2.4553  0.7622
  866MOL0     H19441   2.861   3.921   4.075 -2.0490  0.0316  1.3413
  866MOL0     H19442   2.762   3.838   3.961 -0.7670 -4.1035 -0.6537
  866MOL0     H19443   3.034   3.779   4.060 -0.7461  2.4975  0.4127
  866MOL0     H19444   2.955   3.646   3.969 -0.2562  0.3090 -0.6908
  866MOL0     H19445   2.934   3.885   3.812  0.1065 -0.9869 -1.0424
  866MOL0     H19446   3.102   3.880   3.861  0.0870  0.3543 -1.3001
  866MOL0     H19447   3.108   3.637   3.770  0.7767  0.4335  0.2908
  866MOL0     H19448   2.942   3.660   3.714  0.9888 -1.1940  1.0959
  866MOL0     H19449   3.152   3.864   3.603  0.5155 -0.1618 -1.6124
  866MOL0     H19450   2.983   3.825   3.577 -0.8675 -0.2994  0.6695
  866MOL0     H19451   3.173   3.605   3.507  2.4042  1.8889  0.0767
  866MOL0     H19452   3.006   3.636   3.459 -0.3627  0.2162 -0.7933
  866MOL0     H19453   3.146   3.853   3.367 -1.9631 -0.1120  2.9358
  866MOL0     H19454   3.067   3.720   3.262 -1.1230 -1.4901  1.9559
  866MOL0     H19455   3.329   3.718   3.399 -0.8216  1.8935 -0.0898
  866MOL0     H19456   3.278   3.602   3.263 -1.5820  0.2087 -0.2065
  866MOL0     H19457   3.322   3.755   3.004  1.3342 -1.4315  0.2159
  866MOL0     H19458   3.502   4.090   2.959 -1.0425  0.9880 -0.7892
  866MOL0     H19459   3.425   3.963   2.866  1.9454 -0.5579 -0.2414
  866MOL0     H19460   3.635   3.828   2.893  1.7388 -0.0529 -2.7088
  866MOL0     H19461   3.651   3.976   2.797  1.8198  1.2202 -0.2197
  866MOL0     H19462   3.743   4.107   2.949 -2.1652  0.7958  1.3982
  866MOL0     H19463   3.697   3.995   3.083 -0.1050  0.1985  0.0708
  866MOL0     H19464   3.932   3.977   3.060 -0.2575  0.9620 -1.0443
  866MOL0     H19465   3.863   3.828   3.000 -0.6623  0.6302  0.9313
  866MOL0     H19466   4.132   3.846   2.989  3.8577 -4.3168 -0.2731
  866MOL0     H19467   4.348   3.616   2.933  1.6687 -0.4269  0.9082
  866MOL0     H19468   4.308   3.750   3.039  0.0424  1.0926  0.1805
  866MOL0     H19469   4.447   3.758   2.925 -0.7890  0.7115 -1.0387
  866MOL0     H19470   4.685   3.771   2.626  1.1424  3.1657 -1.1581
  866MOL0     H19471   4.896   3.697   2.496  1.3428  1.5913  0.9599
  866MOL0     H19472   4.958   3.539   2.377 -0.1661  2.1004  0.7989
  866MOL0     H19473   5.001   3.479   2.210 -0.9660 -0.7601  0.9005
  866MOL0     H19474   5.155   3.665   2.182  1.8770 -0.6811  0.1098
  866MOL0     H19475   5.099   3.729   2.340 -1.1983 -1.1453  0.5330
  866MOL0     H19476   5.232   3.448   2.304 -0.0446 -0.3695 -1.5046
  866MOL0     H19477   5.181   3.532   2.453 -1.0977 -0.4419 -0.8415
  866MOL0     H19478   5.359   3.711   2.378 -1.7998 -0.5074  2.7584
  866MOL0     H19479   5.403   3.603   2.239  0.2012  1.5216  0.1763
  866MOL0     H19480   5.440   3.525   2.518 -3.8271  1.3053 -1.6815
  866MOL0     H19481   5.495   3.432   2.368  0.8306 -0.1879  1.1144
  866MOL0     H19482   5.581   3.713   2.451 -0.9323 -0.2679  0.5002
  866MOL0     H19483   5.619   3.649   2.291  0.6268 -1.2369  0.4570
  866MOL0     H19484   5.736   3.450   2.421  0.2350 -0.1661  0.2185
  866MOL0     H19485   5.735   3.558   2.555  1.0956 -2.4001  0.3977
  866MOL0     H19486   5.861   3.725   2.423  2.6395 -1.1746  1.8928
  866MOL0     H19487   5.845   3.610   2.276 -2.1112 -2.2587 -0.5114
  866MOL0     H19488   4.650   3.689   2.147 -0.6448  0.5439 -0.0194
  866MOL0     H19489   4.449   3.751   2.281 -0.4705 -0.6922 -0.0292
  866MOL0     H19490   4.189   3.854   2.497  2.2049  1.2271  0.7739
  866MOL0     H19491   3.965   3.938   2.609 -0.0966  2.5311  2.1311
  866MOL0     H19492   2.552   3.622   4.075  0.2370  0.2866 -0.7009
  866MOL0     H19493   2.327   3.723   4.153 -0.1596  1.3702 -2.3109
  866MOL0     H19494   2.072   4.231   4.170 -0.0813 -1.1136 -2.2853
  866MOL0     H19495   1.843   4.248   4.213  0.1253  1.1246  0.5807
  866MOL0     H19496   1.519   4.013   4.455 -0.4681  0.3866  0.7064
  866MOL0     H19497   1.684   3.968   4.515  1.3170  0.1317 -1.1040
  866MOL0     H19498   1.706   4.187   4.592  0.4363  1.1528 -0.8564
  866MOL0     H19499   1.542   4.155   4.634 -0.4133 -1.8578 -1.1401
  866MOL0     H19500   1.626   4.340   4.421 -3.0960 -0.2936 -6.1158
  866MOL0     H19501   1.468   4.273   4.401  0.7180 -1.5050 -0.5630
  866MOL0     H19502   1.482   4.480   4.519  0.3055  0.3494 -0.3221
  866MOL0     H19503   1.579   4.402   4.649  3.5319  0.3887 -3.6620
  866MOL0     H19504   1.180   4.265   4.740 -0.7629  2.5378  1.4349
  866MOL0     H19505   1.828   3.867   4.397 -3.0443  2.0079 -0.0854
  866MOL0     H19506   2.125   3.779   4.432 -1.6531  0.9341 -0.2480
  866MOL0     H19507   1.995   3.712   4.329  1.2064 -1.3946 -0.9141
  866MOL0     H19508   2.146   3.754   4.255 -0.9578  1.3166 -1.9266
  867MOL0     O19509   5.648   0.425   5.001 -0.2221  0.2374  0.4849
  867MOL0     C19510   5.628   0.334   5.081 -0.4996 -0.0971  0.5079
  867MOL0     O19511   5.714   0.229   5.108  0.3450 -0.5031 -0.6877
  867MOL0     C19512   5.847   0.232   5.074 -0.5100 -0.3060  0.0267
  867MOL0     C19513   5.925   0.135   5.140  0.5097  0.0636  0.9712
  867MOL0     C19514   6.060   0.151   5.148  0.0393  0.1169  0.4298
  867MOL0     C19515   6.130   0.250   5.076 -0.0341 -0.2601 -0.8548
  867MOL0     O19516   6.262   0.253   5.097  0.5719  0.4174 -0.3510
  867MOL0     C19517   6.356   0.300   5.013  0.0342 -0.2630  0.8063
  867MOL0     C19518   6.500   0.282   5.056 -0.6928  0.3255  0.1012
  867MOL0     C19519   6.527   0.333   5.195  0.1747 -0.3511 -0.2297
  867MOL0     C19520   6.642   0.430   5.201 -0.1909  1.0098 -0.3434
  867MOL0     C19521   6.782   0.377   5.160  0.0062 -0.0454  0.0763
  867MOL0     C19522   6.816   0.249   5.235 -0.7362 -0.8980  0.2389
  867MOL0     C19523   6.969   0.215   5.238 -0.0953  0.4115 -0.5150
  867MOL0     C19524   7.028   0.320   5.326 -0.7516 -0.0372 -0.0632
  867MOL0     N19525   7.169   0.273   5.345 -0.4685  0.9338 -0.3949
  867MOL0     C19526   7.211   0.171   5.427 -0.0596 -0.1988 -0.3131
  867MOL0     C19527   7.338   0.139   5.393  0.7479 -0.8105 -0.3264
  867MOL0     C19528   7.430   0.042   5.458 -0.3458  1.0135 -0.3497
  867MOL0     C19529   7.446   0.072   5.606 -0.3533  0.4513 -0.0440
  867MOL0     C19530   7.508  -0.045   5.679 -0.6091  0.0943 -0.1269
  867MOL0     C19531   7.654  -0.020   5.691 -0.3685 -1.0704  0.4833
  867MOL0     O19532   7.730  -0.141   5.724  0.5903 -1.0297  0.3781
  867MOL0     C19533   7.865  -0.127   5.731 -0.3089  0.1590 -0.4830
  867MOL0     C19534   7.946  -0.237   5.695  0.5305  0.6246  0.3170
  867MOL0     C19535   8.088  -0.243   5.709  0.1840 -0.5134 -0.7000
  867MOL0     C19536   8.165  -0.344   5.630 -0.1535  0.0587  0.4029
  867MOL0     C19537   8.153  -0.131   5.778 -0.9959 -0.9043  0.6831
  867MOL0     C19538   8.295  -0.135   5.807  0.3893  0.3467 -0.3021
  867MOL0     O19539   8.356  -0.017   5.842  0.3410  0.4515  0.3510
  867MOL0     C19540   8.490  -0.026   5.861  0.0258  0.1287 -0.3996
  867MOL0     C19541   8.589  -0.049   5.755  0.5042 -0.8479  0.3189
  867MOL0     C19542   8.725  -0.035   5.782 -0.2613  0.3742  0.1624
  867MOL0     C19543   8.766  -0.030   5.916  0.7592 -0.2032 -0.1961
  867MOL0     O19544   8.897  -0.024   5.958 -0.7617 -0.5201  0.1559
  867MOL0     C19545   9.004  -0.051   5.869  0.1057 -0.5164 -0.1692
  867MOL0     C19546   9.136  -0.005   5.931  0.1487  0.8601 -0.7273
  867MOL0     C19547   9.255  -0.039   5.829  1.4055  0.0409 -0.5344
  867MOL0     C19548   9.390   0.037   5.859  0.4374 -0.3802 -0.7009
  867MOL0     C19549   9.510  -0.018   5.783  0.6407 -0.1246 -0.7062
  867MOL0     C19550   9.629   0.089   5.795  0.0204 -0.2635 -0.0512
  867MOL0     C19551   9.764   0.023   5.755 -0.3629  0.0254 -0.2817
  867MOL0     C19552   9.876   0.119   5.799 -0.0598 -0.6472  0.6879
  867MOL0    Cl19553  10.024   0.055   5.704  0.1143 -0.0538  0.0721
  867MOL0     C19554   8.668  -0.021   6.017  0.1304 -0.4090 -0.4195
  867MOL0     C19555   8.534  -0.011   5.991  0.1318  0.2559 -0.2485
  867MOL0     O19556   8.347  -0.248   5.810  0.0676  0.4567  0.2035
  867MOL0     C19557   8.071  -0.019   5.816 -0.9421 -0.1321 -0.0058
  867MOL0     C19558   7.933  -0.014   5.786  0.0668  0.1110 -0.1812
  867MOL0     N19559   7.371   0.233   5.292  0.2752 -0.3581 -0.0531
  867MOL0     N19560   7.276   0.318   5.274 -0.4485 -0.2199 -0.5782
  867MOL0     C19561   6.058   0.328   4.985 -0.3139 -1.2364 -0.1985
  867MOL0     C19562   5.917   0.328   4.990  0.1899  0.2706  0.0230
  867MOL0     C19563   5.497   0.325   5.152  0.5427 -0.9928  0.4654
  867MOL0     C19564   5.483   0.242   5.265  0.5565  0.1289 -0.5625
  867MOL0     C19565   5.359   0.221   5.326  0.2753  0.4893  0.2699
  867MOL0     C19566   5.236   0.281   5.274  0.0801  0.2890  0.4723
  867MOL0     O19567   5.106   0.279   5.327 -0.3586  0.4105  0.0956
  867MOL0     C19568   5.107   0.234   5.464 -0.4688  0.6716 -0.5939
  867MOL0     C19569   4.964   0.249   5.518  0.1452  0.0740 -0.3497
  867MOL0     C19570   4.859   0.165   5.458 -0.8626  0.0141 -0.2611
  867MOL0     C19571   4.719   0.227   5.491 -0.7948  0.1597 -0.2928
  867MOL0     C19572   4.694   0.239   5.640 -0.0119  0.1083  0.2896
  867MOL0     C19573   4.691   0.255   5.764  0.4782 -0.1659  0.1093
  867MOL0     C19574   5.254   0.365   5.165 -0.0602 -0.7480 -0.5411
  867MOL0     C19575   5.373   0.383   5.102 -0.1165  0.1834 -0.1547
  867MOL0     C19576   5.368   0.458   4.969  0.1824 -0.4729  1.3052
  867MOL0     H19577   5.857   0.065   5.188  2.0889 -1.6502  0.7816
  867MOL0     H19578   6.114   0.089   5.219 -1.7660 -2.3947 -0.2857
  867MOL0     H19579   6.341   0.405   4.985  0.1286 -0.7578 -1.2431
  867MOL0     H19580   6.340   0.243   4.921  1.2049 -1.9535  1.5980
  867MOL0     H19581   6.527   0.176   5.051  0.9153  0.7116 -0.1478
  867MOL0     H19582   6.568   0.324   4.981 -2.6805  0.2821 -1.8353
  867MOL0     H19583   6.440   0.381   5.239  1.1740  1.3689 -0.0314
  867MOL0     H19584   6.547   0.241   5.251  2.9979 -2.6319 -4.3360
  867MOL0     H19585   6.626   0.513   5.131  0.7077  0.9167 -0.6702
  867MOL0     H19586   6.640   0.451   5.308 -2.0655 -3.8899  0.8079
  867MOL0     H19587   6.865   0.445   5.180  1.7635 -1.7631 -1.0279
  867MOL0     H19588   6.780   0.362   5.052 -1.8643  0.4145  0.0085
  867MOL0     H19589   6.790   0.256   5.342  4.0398 -0.0829  1.5771
  867MOL0     H19590   6.751   0.170   5.198 -0.1990 -0.8003 -0.9546
  867MOL0     H19591   7.012   0.221   5.138 -2.4409 -0.2673 -1.6284
  867MOL0     H19592   6.983   0.113   5.277 -0.1226  0.7375  0.3811
  867MOL0     H19593   7.035   0.416   5.275  1.4246 -0.0948  0.0561
  867MOL0     H19594   6.976   0.333   5.422  1.2780  0.7066  0.9992
  867MOL0     H19595   7.155   0.126   5.508  0.0320 -1.0769 -0.7321
  867MOL0     H19596   7.521   0.041   5.397  0.8375  2.3023  1.2779
  867MOL0     H19597   7.374  -0.052   5.457 -1.0712  1.4158  0.8144
  867MOL0     H19598   7.491   0.171   5.608 -0.6944  0.5954  2.2761
  867MOL0     H19599   7.342   0.079   5.637 -0.6461  0.5666 -1.0089
  867MOL0     H19600   7.476  -0.059   5.783  0.3814  0.5256  0.2512
  867MOL0     H19601   7.496  -0.130   5.612 -1.4701  1.8413 -2.3213
  867MOL0     H19602   7.695   0.020   5.597 -2.5294  0.6241  0.1782
  867MOL0     H19603   7.669   0.066   5.757  0.7299  1.6641 -3.0073
  867MOL0     H19604   7.901  -0.326   5.652  0.0779 -0.1638  2.2897
  867MOL0     H19605   8.109  -0.381   5.543 -0.0962 -0.1693  0.4630
  867MOL0     H19606   8.199  -0.431   5.687 -0.0457 -0.0853  0.1174
  867MOL0     H19607   8.251  -0.290   5.590  0.1050  0.0742  0.9746
  867MOL0     H19608   8.550  -0.059   5.653  1.2030  3.5868 -0.5728
  867MOL0     H19609   8.784  -0.039   5.691 -2.4814  1.5237 -1.4155
  867MOL0     H19610   8.993  -0.159   5.854  0.6542 -0.3919 -1.5960
  867MOL0     H19611   8.991  -0.001   5.773 -1.2461  0.0930  0.3003
  867MOL0     H19612   9.128   0.102   5.952  2.1125  1.3804 -2.3782
  867MOL0     H19613   9.153  -0.059   6.025  1.5832  1.7233 -0.4587
  867MOL0     H19614   9.219   0.008   5.737 -1.8879  3.1164  2.0290
  867MOL0     H19615   9.271  -0.146   5.816 -0.2033 -0.4856  1.3630
  867MOL0     H19616   9.424   0.012   5.960 -0.3061 -1.0941 -0.6228
  867MOL0     H19617   9.368   0.144   5.859 -1.0018 -0.6590  0.2704
  867MOL0     H19618   9.541  -0.116   5.821  2.9768  0.9067  0.2451
  867MOL0     H19619   9.487  -0.030   5.677  0.5591 -0.3751 -0.6603
  867MOL0     H19620   9.634   0.112   5.902 -3.2404 -1.7721  0.5378
  867MOL0     H19621   9.610   0.178   5.735  1.7155  0.9499  1.0919
  867MOL0     H19622   9.761   0.006   5.647 -2.7997  3.6165 -0.9874
  867MOL0     H19623   9.774  -0.072   5.806 -2.5448 -1.5034 -2.4530
  867MOL0     H19624   9.886   0.120   5.908  1.2356  1.2640  0.6076
  867MOL0     H19625   9.853   0.221   5.767  0.7196 -1.2381 -1.9646
  867MOL0     H19626   8.706  -0.008   6.118 -3.3897  1.0211  0.8768
  867MOL0     H19627   8.466  -0.005   6.075 -0.4605  3.8118 -0.8439
  867MOL0     H19628   8.123   0.059   5.869 -1.3144 -0.4776  0.8974
  867MOL0     H19629   7.875   0.072   5.817  0.3783  0.3312 -0.2031
  867MOL0     H19630   6.110   0.403   4.925 -1.9623 -0.9877 -1.3882
  867MOL0     H19631   5.858   0.397   4.930 -0.6231  0.0697  0.5710
  867MOL0     H19632   5.564   0.192   5.318 -0.8046 -0.3928  1.1442
  867MOL0     H19633   5.357   0.160   5.416  0.2533 -0.4846 -0.3695
  867MOL0     H19634   5.144   0.132   5.457  0.0791  0.8251 -0.0251
  867MOL0     H19635   5.179   0.289   5.526  1.0757 -1.6807 -0.2030
  867MOL0     H19636   4.925   0.351   5.524 -1.0819 -0.4595  2.6131
  867MOL0     H19637   4.979   0.209   5.619  2.7594  0.7405 -0.4232
  867MOL0     H19638   4.875   0.145   5.351 -4.5608 -0.6201 -0.8183
  867MOL0     H19639   4.867   0.067   5.506  0.0349  0.1656 -0.0702
  867MOL0     H19640   4.641   0.166   5.445  0.3233 -2.5034  1.0987
  867MOL0     H19641   4.723   0.327   5.447 -0.7257 -1.1073 -3.4753
  867MOL0     H19642   4.687   0.281   5.868  1.0855  5.6452 -1.0175
  867MOL0     H19643   5.161   0.407   5.130  1.1325 -0.4290 -3.6862
  867MOL0     H19644   5.260   0.469   4.954  0.2294  0.3865  1.5790
  867MOL0     H19645   5.417   0.555   4.978  1.1797 -0.6307 -1.5323
  867MOL0     H19646   5.401   0.399   4.883 -0.4638 -0.3824  0.9877
  868MOL0     O19647   3.847   2.981  11.138 -0.0130  0.0349  0.3190
  868MOL0     C19648   3.872   2.889  11.061 -0.1139  0.0173 -0.8552
  868MOL0     O19649   3.803   2.864  10.946  0.6815 -0.4030 -0.8323
  868MOL0     C19650   3.674   2.904  10.941 -1.2740  0.1616 -0.2478
  868MOL0     C19651   3.633   3.038  10.947  0.0949  0.3525 -0.4270
  868MOL0     C19652   3.494   3.060  10.944 -0.0050 -0.2981  0.0507
  868MOL0     C19653   3.395   2.969  10.929 -0.3573  0.0640 -0.2412
  868MOL0     O19654   3.268   3.010  10.920 -0.2164 -0.6317  0.0579
  868MOL0     C19655   3.170   2.907  10.937  0.8153  0.2500  0.4576
  868MOL0     C19656   3.037   2.985  10.974  0.2877  0.4870  0.8542
  868MOL0     C19657   2.918   2.908  10.929  0.7249 -0.5234 -0.0240
  868MOL0     C19658   2.904   2.761  10.977  0.8968 -1.5688 -0.0730
  868MOL0     C19659   2.754   2.724  10.946 -0.3796 -0.3658 -0.1990
  868MOL0     C19660   2.703   2.609  11.039  0.1934 -1.1192  0.6570
  868MOL0     C19661   2.661   2.659  11.184 -0.6542 -0.3955 -0.1037
  868MOL0     C19662   2.555   2.572  11.255 -0.1399  1.2445  0.3737
  868MOL0     N19663   2.615   2.444  11.285  0.7226 -0.5691 -0.5370
  868MOL0     C19664   2.714   2.420  11.380  0.0114 -0.6327 -0.5696
  868MOL0     C19665   2.716   2.283  11.384 -0.4718  0.0430  0.0813
  868MOL0     C19666   2.807   2.191  11.450 -0.2167  0.1351 -0.2830
  868MOL0     C19667   2.944   2.246  11.449 -0.0262  0.4001  1.1141
  868MOL0     C19668   3.045   2.155  11.506  0.1396  0.2902  1.3315
  868MOL0     C19669   3.177   2.229  11.521 -0.3206 -0.5733  0.6175
  868MOL0     O19670   3.224   2.273  11.388  0.3603  1.3685 -0.5987
  868MOL0     C19671   3.349   2.247  11.355  0.0966 -0.5930 -0.2936
  868MOL0     C19672   3.449   2.278  11.448  0.5504 -0.0548 -0.4624
  868MOL0     C19673   3.586   2.261  11.406  0.6388 -0.3804 -0.8797
  868MOL0     C19674   3.672   2.284  11.527 -0.1597  0.1611 -0.2144
  868MOL0     C19675   3.621   2.211  11.283  0.1417  0.4830 -0.6323
  868MOL0     C19676   3.765   2.168  11.254 -0.0506  0.4619  1.1542
  868MOL0     O19677   3.869   2.208  11.333  0.7502  0.0907 -0.5928
  868MOL0     C19678   3.988   2.165  11.279 -0.6950  0.0308 -0.1515
  868MOL0     C19679   4.058   2.238  11.187 -0.2182 -0.5823  0.5414
  868MOL0     C19680   4.180   2.201  11.134  0.6998  0.3761 -0.6044
  868MOL0     C19681   4.245   2.090  11.189 -0.2320  0.3484  0.0378
  868MOL0     O19682   4.379   2.080  11.165  1.0698 -0.1786 -0.2894
  868MOL0     C19683   4.437   1.952  11.189 -0.6042 -0.0266  0.2537
  868MOL0     C19684   4.530   1.953  11.307  0.2262  0.1435  0.2936
  868MOL0     C19685   4.651   2.045  11.295  0.6097 -1.0039  0.7756
  868MOL0     C19686   4.763   2.048  11.398 -0.2533 -0.5141  0.4666
  868MOL0     C19687   4.813   1.907  11.455  0.1416 -0.6268  0.2577
  868MOL0     C19688   4.904   1.916  11.587  0.2268  0.5993  0.4836
  868MOL0     C19689   5.043   1.987  11.562  0.5917 -0.4142 -0.0245
  868MOL0     C19690   5.100   2.059  11.687 -0.3100  1.2175  0.1413
  868MOL0    Cl19691   5.064   1.989  11.838 -0.0249 -0.0184  0.1891
  868MOL0     C19692   4.172   2.009  11.284  0.2911  0.3733  0.4491
  868MOL0     C19693   4.047   2.049  11.330  0.6044  0.0357 -0.1184
  868MOL0     O19694   3.772   2.083  11.160 -0.6133 -0.9821  0.0520
  868MOL0     C19695   3.524   2.178  11.189  0.5502  0.2204 -0.4287
  868MOL0     C19696   3.387   2.192  11.231  0.4576 -0.1200  0.4267
  868MOL0     N19697   2.627   2.235  11.285 -0.2697 -0.0823  0.3827
  868MOL0     N19698   2.574   2.329  11.221 -0.5025 -0.6622  0.5472
  868MOL0     C19699   3.442   2.834  10.910 -0.2178  0.2135  0.7142
  868MOL0     C19700   3.582   2.802  10.916 -0.2481  0.0199  0.5112
  868MOL0     C19701   3.985   2.805  11.091  0.4707 -0.5945 -0.1054
  868MOL0     C19702   4.084   2.790  10.996 -0.3603  0.4582 -0.4856
  868MOL0     C19703   4.201   2.720  11.023  0.1695  0.6488  0.4270
  868MOL0     C19704   4.219   2.656  11.142  0.1951  0.4261  0.7656
  868MOL0     O19705   4.338   2.595  11.173  0.5781  0.3056 -0.1791
  868MOL0     C19706   4.459   2.607  11.107 -0.5977 -0.6290 -0.2602
  868MOL0     C19707   4.541   2.733  11.152  0.2774 -1.2527  0.1751
  868MOL0     C19708   4.677   2.747  11.079 -0.7568 -0.4755 -0.4436
  868MOL0     C19709   4.741   2.889  11.080  0.2348 -0.8580 -0.1630
  868MOL0     C19710   4.882   2.894  11.045  0.1637 -0.5367  1.1462
  868MOL0     C19711   4.997   2.912  11.025 -0.4319 -0.7866 -0.1705
  868MOL0     C19712   4.117   2.661  11.232  0.0554  0.3687 -0.2284
  868MOL0     C19713   3.996   2.729  11.213 -0.2259 -0.5602 -0.4022
  868MOL0     C19714   3.885   2.741  11.321 -0.2315  0.3867  0.5371
  868MOL0     H19715   3.697   3.123  10.969 -0.3981  0.3368  1.1777
  868MOL0     H19716   3.459   3.161  10.960 -3.9175 -1.4963  0.2428
  868MOL0     H19717   3.198   2.826  11.005 -0.9252 -0.3838  0.4719
  868MOL0     H19718   3.158   2.866  10.836 -0.4370  0.9914  0.2781
  868MOL0     H19719   3.030   2.997  11.083 -2.4976 -0.9490  0.9335
  868MOL0     H19720   3.046   3.080  10.921  1.8797  0.1556  0.4714
  868MOL0     H19721   2.829   2.964  10.958  1.0583 -0.0470  0.0786
  868MOL0     H19722   2.908   2.913  10.821  0.8039 -2.2002 -0.1396
  868MOL0     H19723   2.972   2.700  10.919  2.2777 -0.4698  0.3303
  868MOL0     H19724   2.923   2.750  11.084  1.0973  2.1239  0.4092
  868MOL0     H19725   2.741   2.689  10.844 -1.9782  0.5748 -0.3555
  868MOL0     H19726   2.691   2.810  10.967  1.3317  1.2553 -1.3984
  868MOL0     H19727   2.621   2.563  10.981 -0.0927  0.1371  0.0328
  868MOL0     H19728   2.774   2.530  11.065  0.5763 -0.0409  3.0515
  868MOL0     H19729   2.626   2.762  11.195  3.6951  1.2229  0.6381
  868MOL0     H19730   2.754   2.656  11.243 -0.1872 -0.5451 -0.8439
  868MOL0     H19731   2.526   2.629  11.343 -2.0245  2.8604 -1.1972
  868MOL0     H19732   2.472   2.554  11.186  2.3806 -3.1286 -1.9289
  868MOL0     H19733   2.774   2.492  11.435 -2.1480  1.1392 -0.4101
  868MOL0     H19734   2.801   2.100  11.389  3.5400 -0.0020 -0.6434
  868MOL0     H19735   2.761   2.172  11.547  0.4603  3.4382  0.7976
  868MOL0     H19736   2.975   2.276  11.349 -1.0989  0.8866  0.9099
  868MOL0     H19737   2.934   2.342  11.501 -1.7344  0.6961  0.3133
  868MOL0     H19738   3.017   2.120  11.606  1.1621 -0.1807  1.4658
  868MOL0     H19739   3.058   2.060  11.454  0.0663  0.7395  0.4827
  868MOL0     H19740   3.172   2.321  11.580  2.0064  0.4857 -0.7100
  868MOL0     H19741   3.245   2.155  11.565 -1.0823 -2.4219 -1.1496
  868MOL0     H19742   3.419   2.311  11.547 -3.1402  2.9868 -2.3282
  868MOL0     H19743   3.614   2.320  11.613  1.1240  2.1183 -0.1205
  868MOL0     H19744   3.755   2.354  11.520 -0.0180  0.0022 -0.1256
  868MOL0     H19745   3.711   2.191  11.570  2.0220  2.6000  3.6590
  868MOL0     H19746   4.025   2.332  11.144  4.9843  1.3124  0.0221
  868MOL0     H19747   4.226   2.274  11.068 -0.9241  1.3489 -0.7294
  868MOL0     H19748   4.377   1.863  11.209 -1.4267  0.8759  1.9428
  868MOL0     H19749   4.498   1.940  11.098  0.6861  1.7624  0.8224
  868MOL0     H19750   4.466   1.990  11.388  1.3638  0.1341  1.2376
  868MOL0     H19751   4.554   1.851  11.339 -3.4788 -1.7118 -2.1813
  868MOL0     H19752   4.610   2.146  11.296  1.6283 -0.5602  3.2063
  868MOL0     H19753   4.692   2.024  11.196  0.0754  1.1227  0.0532
  868MOL0     H19754   4.738   2.104  11.489 -0.3713  1.6706 -0.8322
  868MOL0     H19755   4.845   2.095  11.343 -0.6064 -1.7922 -1.2470
  868MOL0     H19756   4.731   1.839  11.478  1.3600 -2.0817  0.4677
  868MOL0     H19757   4.876   1.870  11.373 -0.1246  2.5344 -1.5420
  868MOL0     H19758   4.926   1.820  11.634 -0.0049 -1.0471 -2.5155
  868MOL0     H19759   4.844   1.968  11.663  2.1420 -1.3685  3.5227
  868MOL0     H19760   5.035   2.074  11.497  2.4441  1.0218  1.5143
  868MOL0     H19761   5.107   1.912  11.514 -1.7489 -1.8462 -1.0893
  868MOL0     H19762   5.056   2.159  11.687 -0.1546  1.3031 -1.0606
  868MOL0     H19763   5.207   2.068  11.667  0.2223  0.8461  2.5037
  868MOL0     H19764   4.207   1.919  11.334 -0.6178  0.9394  2.1737
  868MOL0     H19765   3.998   1.999  11.412  0.0612 -0.2178 -0.5881
  868MOL0     H19766   3.543   2.133  11.093 -0.4238 -1.2063  0.0131
  868MOL0     H19767   3.312   2.166  11.157  3.0178 -1.2065 -1.9657
  868MOL0     H19768   3.370   2.756  10.888 -0.4464  0.5992  0.0443
  868MOL0     H19769   3.613   2.699  10.900  2.0038  0.2143  2.8797
  868MOL0     H19770   4.080   2.858  10.911  1.3894  3.3226  1.5164
  868MOL0     H19771   4.273   2.718  10.942 -3.1822  0.3868 -2.7992
  868MOL0     H19772   4.518   2.518  11.129  1.0358  0.5860  0.5827
  868MOL0     H19773   4.443   2.615  10.999 -0.9231 -2.7288 -0.4112
  868MOL0     H19774   4.561   2.733  11.259 -1.3461 -1.5318  0.5047
  868MOL0     H19775   4.481   2.821  11.130 -0.3586 -0.3894  4.4916
  868MOL0     H19776   4.744   2.676  11.128 -1.2112  0.9898  2.5337
  868MOL0     H19777   4.659   2.713  10.977 -0.2133  1.6990 -1.3189
  868MOL0     H19778   4.736   2.924  11.184  0.2785 -2.5870  0.4621
  868MOL0     H19779   4.682   2.963  11.026  1.8723  1.6465  1.2854
  868MOL0     H19780   5.102   2.931  11.024 -0.1318 -1.5509  3.2753
  868MOL0     H19781   4.137   2.611  11.326 -1.8777  0.0673  0.0681
  868MOL0     H19782   3.790   2.774  11.278 -1.1913 -0.1987  2.0986
  868MOL0     H19783   3.870   2.638  11.354 -1.1150  0.0535 -0.8404
  868MOL0     H19784   3.911   2.812  11.400 -2.3490 -1.0898  2.7379
  869MOL0     O19785  10.808   9.906   9.220  0.1416  0.5730 -0.0880
  869MOL0     C19786  10.695   9.936   9.257  0.0213  0.2308  0.5406
  869MOL0     O19787  10.624   9.852   9.339 -0.4254  0.1211 -0.2494
  869MOL0     C19788  10.678   9.729   9.378  0.2762  0.1801  1.5724
  869MOL0     C19789  10.680   9.698   9.517  0.0227  1.0048 -0.0460
  869MOL0     C19790  10.740   9.577   9.568  0.3888 -0.7683  0.4343
  869MOL0     C19791  10.795   9.490   9.481 -0.9110  0.1792  0.3900
  869MOL0     O19792  10.838   9.361   9.515 -0.0658  0.1024  0.7638
  869MOL0     C19793  10.909   9.350   9.636  0.7178  0.2746  0.4484
  869MOL0     C19794  11.013   9.240   9.630  0.1924  0.1212 -0.7271
  869MOL0     C19795  11.092   9.230   9.764  0.5506  0.3435 -0.6929
  869MOL0     C19796  11.223   9.147   9.735 -0.1139  0.1179 -0.6878
  869MOL0     C19797  11.285   9.115   9.877 -0.6697  0.3426 -0.1540
  869MOL0     C19798  11.244   8.978   9.917  0.7007  0.0742  0.4418
  869MOL0     C19799  11.260   8.945  10.066 -0.3080 -0.9679  0.2385
  869MOL0     C19800  11.405   8.967  10.114 -0.4250 -0.7374  0.6034
  869MOL0     N19801  11.423   8.901  10.237 -0.1581 -0.4549 -0.3299
  869MOL0     C19802  11.427   8.768  10.245 -0.2161 -0.5748  0.2049
  869MOL0     C19803  11.468   8.753  10.368  0.7700  0.3810  0.6324
  869MOL0     C19804  11.492   8.620  10.439 -0.7342 -0.8367 -0.1824
  869MOL0     C19805  11.641   8.590  10.467 -0.0329  0.7962  0.6462
  869MOL0     C19806  11.731   8.588  10.347 -0.3936  0.1660  1.4716
  869MOL0     C19807  11.701   8.485  10.253  0.9735  0.9528 -0.0373
  869MOL0     O19808  11.810   8.468  10.160  0.4268  0.5559 -0.3584
  869MOL0     C19809  11.914   8.387  10.203 -0.0463  0.3997 -0.2299
  869MOL0     C19810  11.903   8.257  10.179 -0.9058  0.2870  0.1907
  869MOL0     C19811  11.987   8.160  10.229  0.1359 -0.4370  0.0079
  869MOL0     C19812  11.947   8.016  10.221 -0.1178 -0.0257  1.1056
  869MOL0     C19813  12.101   8.200  10.292  0.2083 -0.0251  0.5239
  869MOL0     C19814  12.202   8.111  10.339 -0.1317  0.5452  0.2242
  869MOL0     O19815  12.286   8.150  10.444  0.6032 -1.1034  0.0759
  869MOL0     C19816  12.394   8.082  10.486 -0.7524  0.3548  0.2550
  869MOL0     C19817  12.417   8.071  10.627  0.4556  0.1003  0.2203
  869MOL0     C19818  12.533   8.010  10.676  0.3083  1.3594 -0.0141
  869MOL0     C19819  12.628   7.961  10.587 -0.1253 -0.8265  0.0618
  869MOL0     O19820  12.739   7.888  10.628  0.1571  0.2678 -0.0086
  869MOL0     C19821  12.785   7.923  10.755 -0.7435  0.7914 -0.3886
  869MOL0     C19822  12.935   7.909  10.757  0.0696 -0.2172  0.5120
  869MOL0     C19823  12.973   7.754  10.750 -0.4226 -0.0933 -0.8640
  869MOL0     C19824  13.122   7.749  10.769  0.0071  0.1369  0.2342
  869MOL0     C19825  13.182   7.604  10.769  0.5564 -0.2712  0.8626
  869MOL0     C19826  13.322   7.592  10.717 -0.0009  0.1352  0.5702
  869MOL0     C19827  13.419   7.677  10.791  0.5002  0.0102 -0.5216
  869MOL0     C19828  13.571   7.622  10.795  0.7574 -0.0054  0.0134
  869MOL0    Cl19829  13.567   7.463  10.868 -0.3950 -0.1759  0.2077
  869MOL0     C19830  12.616   7.977  10.449  0.5123 -0.1764  0.1647
  869MOL0     C19831  12.500   8.036  10.400 -0.3220 -0.1693 -0.5988
  869MOL0     O19832  12.216   8.001  10.278  0.0232 -0.2343 -0.0285
  869MOL0     C19833  12.119   8.339  10.320 -0.3742  0.4215  0.7316
  869MOL0     C19834  12.023   8.428  10.271  0.2384 -0.3279 -0.1846
  869MOL0     N19835  11.476   8.872  10.432  0.1442  0.3085  0.0832
  869MOL0     N19836  11.446   8.962  10.353 -0.1712 -0.3035 -0.1276
  869MOL0     C19837  10.803   9.526   9.345 -1.3606  0.2625 -0.2801
  869MOL0     C19838  10.746   9.645   9.299  0.0749 -0.2332 -0.6726
  869MOL0     C19839  10.630  10.055   9.208 -0.1734  0.1315  0.0776
  869MOL0     C19840  10.499  10.084   9.249 -0.5013  0.3263 -0.6387
  869MOL0     C19841  10.436  10.205   9.202 -0.8850  0.3197  0.0857
  869MOL0     C19842  10.499  10.284   9.116 -0.1833 -0.3553  0.1264
  869MOL0     O19843  10.421  10.392   9.079 -0.1938 -0.2185  0.4131
  869MOL0     C19844  10.486  10.517   9.044  0.7393  0.5910 -0.8445
  869MOL0     C19845  10.381  10.628   9.068 -0.6013 -0.0021  0.3973
  869MOL0     C19846  10.326  10.635   9.207  0.3465  0.6898 -0.3209
  869MOL0     C19847  10.346  10.768   9.278  1.0235  0.4313 -0.3338
  869MOL0     C19848  10.482  10.807   9.308 -0.0617  1.0054  0.2589
  869MOL0     C19849  10.595  10.849   9.326  0.3118  0.2478  0.0953
  869MOL0     C19850  10.631  10.252   9.074 -0.6611 -0.2498  0.4921
  869MOL0     C19851  10.696  10.140   9.114 -0.8222  0.0570 -0.7755
  869MOL0     C19852  10.844  10.133   9.070  0.6439  0.3687 -0.2197
  869MOL0     H19853  10.631   9.762   9.590  0.7024  0.3958  0.9660
  869MOL0     H19854  10.741   9.553   9.674  2.9030  0.8515  0.8661
  869MOL0     H19855  10.837   9.327   9.715  1.8443 -0.8431  1.1912
  869MOL0     H19856  10.954   9.448   9.654 -3.2840  2.3374  0.4693
  869MOL0     H19857  10.973   9.139   9.614 -1.1471  0.2137  1.6457
  869MOL0     H19858  11.076   9.272   9.546 -1.6604  2.2295 -1.4076
  869MOL0     H19859  11.114   9.335   9.788  0.1418  0.0778  0.9683
  869MOL0     H19860  11.034   9.177   9.840  0.9844 -2.9736 -2.4981
  869MOL0     H19861  11.209   9.053   9.682  0.1595  0.3808 -1.2403
  869MOL0     H19862  11.300   9.200   9.677  0.3785 -1.1690 -1.2369
  869MOL0     H19863  11.262   9.190   9.954  2.5041  0.5954  0.6998
  869MOL0     H19864  11.391   9.122   9.854 -0.9814 -1.2099 -2.3366
  869MOL0     H19865  11.141   8.955   9.889  1.4999 -2.9807 -0.3865
  869MOL0     H19866  11.302   8.922   9.843 -0.6497  1.0307 -1.4282
  869MOL0     H19867  11.223   8.843  10.079 -0.4501 -0.8988  0.3906
  869MOL0     H19868  11.195   9.011  10.124  1.4690  0.3927  0.7558
  869MOL0     H19869  11.474   8.921  10.043  0.1781  1.0225 -0.0123
  869MOL0     H19870  11.434   9.072  10.118 -0.1571 -0.7593 -0.6153
  869MOL0     H19871  11.412   8.694  10.167 -0.2262 -0.6351  0.2638
  869MOL0     H19872  11.458   8.540  10.373  1.7292  0.3946 -3.2048
  869MOL0     H19873  11.439   8.619  10.534  0.6462 -2.8338  0.6389
  869MOL0     H19874  11.676   8.667  10.536 -1.3133  0.9965  1.0962
  869MOL0     H19875  11.662   8.496  10.520  2.4583  0.7997 -0.2166
  869MOL0     H19876  11.738   8.684  10.294  1.9221 -1.5942 -1.7976
  869MOL0     H19877  11.830   8.584  10.394  1.0525 -0.0657 -1.3650
  869MOL0     H19878  11.696   8.391  10.308  3.0510  1.0202  0.3487
  869MOL0     H19879  11.612   8.515  10.196 -1.9871 -1.1263  3.1054
  869MOL0     H19880  11.816   8.220  10.127 -1.0020  0.2646  0.3667
  869MOL0     H19881  12.021   7.980  10.149  1.3049  1.3500  1.8227
  869MOL0     H19882  11.843   8.015  10.190  0.2464  1.8840 -0.2969
  869MOL0     H19883  11.955   7.970  10.320 -0.4726 -2.8989 -0.0886
  869MOL0     H19884  12.337   8.096  10.695  0.7240 -2.4649  1.5929
  869MOL0     H19885  12.533   8.003  10.785  0.4582  1.3835 -0.0125
  869MOL0     H19886  12.760   8.025  10.787 -2.2087  0.2115  0.4292
  869MOL0     H19887  12.736   7.858  10.829 -3.0635  1.8276 -0.9438
  869MOL0     H19888  12.980   7.955  10.668 -1.6159 -1.8697 -1.3107
  869MOL0     H19889  12.986   7.953  10.842  2.4367  0.3188 -1.0968
  869MOL0     H19890  12.937   7.714  10.655 -0.1313 -1.6973 -0.3221
  869MOL0     H19891  12.925   7.698  10.830 -1.2399 -0.6381 -1.7217
  869MOL0     H19892  13.147   7.803  10.860  0.1149 -1.0440  0.9291
  869MOL0     H19893  13.170   7.801  10.685 -1.6724  1.6841  0.1965
  869MOL0     H19894  13.166   7.558  10.867 -0.7198 -1.6683  0.0451
  869MOL0     H19895  13.120   7.533  10.713  0.2359  1.3946 -1.0212
  869MOL0     H19896  13.309   7.620  10.613 -2.2043 -1.4355  0.3539
  869MOL0     H19897  13.352   7.487  10.729 -1.8717 -0.5824 -0.5516
  869MOL0     H19898  13.400   7.698  10.897  1.2537 -3.2615  0.3952
  869MOL0     H19899  13.428   7.769  10.734  2.8693 -0.0066 -0.2678
  869MOL0     H19900  13.626   7.690  10.861 -0.1872  2.5737 -1.6765
  869MOL0     H19901  13.605   7.608  10.693 -0.0093  0.3631 -0.3036
  869MOL0     H19902  12.688   7.929  10.384 -0.3938 -0.6498 -0.5053
  869MOL0     H19903  12.491   8.034  10.292 -1.9644 -1.6536 -0.4869
  869MOL0     H19904  12.190   8.376  10.394 -2.9597  1.0368  3.1230
  869MOL0     H19905  12.035   8.535  10.290 -2.4724  0.2101 -1.0348
  869MOL0     H19906  10.855   9.464   9.272 -0.2868 -2.6843  2.7564
  869MOL0     H19907  10.756   9.676   9.195  2.6301  2.0443  0.1470
  869MOL0     H19908  10.449  10.025   9.325  2.3073 -0.9969  0.3419
  869MOL0     H19909  10.332  10.217   9.231 -1.8903  0.4447 -3.1742
  869MOL0     H19910  10.576  10.538   9.102  0.7430  2.0332 -1.3439
  869MOL0     H19911  10.528  10.510   8.943  2.8625 -0.2569  0.0390
  869MOL0     H19912  10.305  10.605   8.992 -0.6304  2.0233 -0.2554
  869MOL0     H19913  10.437  10.719   9.044  2.1979 -2.2282 -2.3170
  869MOL0     H19914  10.221  10.604   9.204 -0.2224  2.4121  0.5497
  869MOL0     H19915  10.387  10.568   9.268  0.9376  1.2480 -0.2893
  869MOL0     H19916  10.288  10.760   9.370 -1.5390 -0.2914 -1.9118
  869MOL0     H19917  10.309  10.858   9.227  1.1772  1.4968  1.3531
  869MOL0     H19918  10.695  10.883   9.344 -0.6691  2.4868  2.0449
  869MOL0     H19919  10.689  10.327   9.022  1.2663  0.4202  3.3309
  869MOL0     H19920  10.854  10.049   9.001  1.9217 -0.6177  1.1161
  869MOL0     H19921  10.889  10.221   9.022  2.9811 -0.1536  0.8811
  869MOL0     H19922  10.912  10.109   9.152 -0.1580 -6.6178 -1.0329
  870MOL0     O19923   0.428   6.098   9.681  0.3270 -0.0113  0.3370
  870MOL0     C19924   0.375   5.993   9.641 -0.0561  0.7126  0.6992
  870MOL0     O19925   0.373   5.878   9.709 -0.5600  0.6037  0.0681
  870MOL0     C19926   0.293   5.865   9.820  0.4678  0.2524  0.7759
  870MOL0     C19927   0.328   5.778   9.924  0.2160  0.4114 -0.3229
  870MOL0     C19928   0.236   5.756  10.022 -0.8966 -0.4707  1.3765
  870MOL0     C19929   0.113   5.828  10.030 -0.7474  0.4017 -0.6704
  870MOL0     O19930   0.037   5.800  10.140 -0.0628 -0.5016  0.2681
  870MOL0     C19931  -0.088   5.873  10.168 -0.8522  0.0535  0.3990
  870MOL0     C19932  -0.210   5.817  10.095 -0.1044 -0.0577 -0.1531
  870MOL0     C19933  -0.262   5.676  10.133  0.4856 -0.6889 -0.6094
  870MOL0     C19934  -0.408   5.668  10.091 -0.3468  0.9366 -0.3110
  870MOL0     C19935  -0.452   5.525  10.138 -0.4334  0.5644  0.1261
  870MOL0     C19936  -0.387   5.407  10.053 -0.2177 -1.0164  0.9179
  870MOL0     C19937  -0.478   5.287  10.080  0.0311  0.1193  0.7372
  870MOL0     C19938  -0.441   5.176   9.984  0.2315 -0.1664 -0.0534
  870MOL0     N19939  -0.307   5.112  10.003 -0.1674 -0.4555 -1.0407
  870MOL0     C19940  -0.238   5.085  10.126  0.0301 -0.5515 -0.6513
  870MOL0     C19941  -0.116   5.030  10.088  1.1733  0.9053 -0.6061
  870MOL0     C19942  -0.004   4.991  10.177  0.3433 -0.6752 -0.1016
  870MOL0     C19943   0.059   5.109  10.252 -0.2176  0.8103  0.3043
  870MOL0     C19944   0.159   5.039  10.349  0.1692 -0.1097  0.1356
  870MOL0     C19945   0.253   5.131  10.418  0.9886 -0.2840  0.3236
  870MOL0     O19946   0.376   5.145  10.342  0.2947  0.2857  0.2823
  870MOL0     C19947   0.493   5.177  10.412 -0.2610 -0.3056  0.0222
  870MOL0     C19948   0.500   5.215  10.548  0.1304  0.2944  1.3864
  870MOL0     C19949   0.620   5.230  10.609 -0.0671  1.0130 -0.1531
  870MOL0     C19950   0.614   5.256  10.751 -0.2723  0.4495  0.0162
  870MOL0     C19951   0.742   5.224  10.534 -0.6731  0.3549 -0.3415
  870MOL0     C19952   0.882   5.257  10.587  0.8309  0.0409 -0.2337
  870MOL0     O19953   0.984   5.192  10.537 -0.1669  0.8065  0.0558
  870MOL0     C19954   1.119   5.224  10.561  0.2324  0.5194  0.7319
  870MOL0     C19955   1.205   5.122  10.526  0.1693 -0.5553 -0.5545
  870MOL0     C19956   1.348   5.129  10.548 -0.7738 -0.4187 -0.4442
  870MOL0     C19957   1.399   5.248  10.602  0.3831  0.1681 -0.3647
  870MOL0     O19958   1.531   5.253  10.619  0.2613  0.2985 -0.2372
  870MOL0     C19959   1.569   5.323  10.743 -0.6998  0.2768  0.8431
  870MOL0     C19960   1.706   5.276  10.783 -0.7232  0.1146  0.2437
  870MOL0     C19961   1.760   5.328  10.918  0.2016  0.4875  0.4700
  870MOL0     C19962   1.658   5.366  11.025 -0.7241  0.4960 -0.9257
  870MOL0     C19963   1.738   5.433  11.136 -0.3962 -0.5104  0.0943
  870MOL0     C19964   1.651   5.471  11.250 -0.1191  0.2459 -0.1791
  870MOL0     C19965   1.722   5.526  11.371  0.5227  0.3515 -0.8810
  870MOL0     C19966   1.637   5.498  11.501 -0.3599 -0.8239 -0.3642
  870MOL0    Cl19967   1.741   5.547  11.640  0.4477  0.0989 -0.3654
  870MOL0     C19968   1.314   5.349  10.643 -0.1118 -0.1530 -0.1387
  870MOL0     C19969   1.172   5.343  10.624  0.0169 -0.7894 -0.9714
  870MOL0     O19970   0.885   5.338  10.679 -0.5249  0.3665 -0.3481
  870MOL0     C19971   0.736   5.191  10.400  0.1693 -0.3917 -0.1368
  870MOL0     C19972   0.611   5.168  10.343  0.2887  0.7889  0.8182
  870MOL0     N19973  -0.124   5.009   9.949  0.4884  0.3503  0.4194
  870MOL0     N19974  -0.237   5.060   9.900  0.1373  0.6541 -0.5219
  870MOL0     C19975   0.084   5.924   9.933 -0.4638  0.6928 -0.1119
  870MOL0     C19976   0.175   5.944   9.835 -0.3334 -0.1442 -0.3540
  870MOL0     C19977   0.344   5.978   9.494 -0.4675  0.4610  0.1252
  870MOL0     C19978   0.358   5.845   9.434  0.6027 -0.0615 -0.2288
  870MOL0     C19979   0.347   5.834   9.299 -0.8270  0.8177  0.4327
  870MOL0     C19980   0.327   5.942   9.210 -0.4337  0.5967  0.1390
  870MOL0     O19981   0.312   5.921   9.079 -0.1924 -0.3131  0.7189
  870MOL0     C19982   0.249   6.012   8.987 -0.1024  0.1910 -0.3099
  870MOL0     C19983   0.090   6.016   9.010  0.5490 -0.8589 -0.0727
  870MOL0     C19984   0.012   6.050   8.885 -1.0404 -0.1144  0.4181
  870MOL0     C19985  -0.126   6.107   8.918  0.1684  0.3364  0.1226
  870MOL0     C19986  -0.214   6.108   8.795  0.5911 -0.8557 -0.2128
  870MOL0     C19987  -0.298   6.096   8.712  0.7609  0.6312 -0.3403
  870MOL0     C19988   0.316   6.068   9.272  0.1644  0.5200  0.2640
  870MOL0     C19989   0.317   6.087   9.406 -0.1364  0.2436 -0.3080
  870MOL0     C19990   0.319   6.229   9.454 -0.0731 -0.1450  0.1852
  870MOL0     H19991   0.427   5.735   9.915 -0.1349 -0.2914 -0.8700
  870MOL0     H19992   0.257   5.682  10.099  5.1090  1.0937  1.7589
  870MOL0     H19993  -0.077   5.981  10.157 -1.6238  0.1293  0.3510
  870MOL0     H19994  -0.111   5.869  10.275  0.2904 -3.7494  0.6401
  870MOL0     H19995  -0.292   5.888  10.099 -0.6383 -0.6862  0.2018
  870MOL0     H19996  -0.190   5.826   9.987 -1.7763  3.9249 -0.2857
  870MOL0     H19997  -0.196   5.593  10.105  1.0561 -0.2499 -0.5812
  870MOL0     H19998  -0.261   5.664  10.242 -1.9434  0.2256 -0.4213
  870MOL0     H19999  -0.465   5.745  10.143 -1.6618  0.3059 -0.7840
  870MOL0     H20000  -0.419   5.687   9.984  0.8665 -2.1911 -1.1134
  870MOL0     H20001  -0.561   5.512  10.138 -0.4608  0.6116  1.6921
  870MOL0     H20002  -0.420   5.522  10.242 -1.3109  1.8334  0.4586
  870MOL0     H20003  -0.400   5.442   9.950  1.8459 -0.6476  0.7250
  870MOL0     H20004  -0.282   5.386  10.075 -0.3844 -0.6414  2.1627
  870MOL0     H20005  -0.584   5.312  10.066  0.1709  0.6735  0.6057
  870MOL0     H20006  -0.472   5.254  10.184 -1.7504 -1.0191  0.5266
  870MOL0     H20007  -0.527   5.112  10.006 -2.3590  1.9162 -3.1607
  870MOL0     H20008  -0.452   5.219   9.884  0.4287  2.2218  0.8802
  870MOL0     H20009  -0.275   5.101  10.227 -1.6488 -0.1087 -1.3005
  870MOL0     H20010   0.077   4.967  10.108  0.0523  2.3359 -1.6419
  870MOL0     H20011  -0.035   4.909  10.243  4.1071 -1.8546  0.4346
  870MOL0     H20012   0.114   5.179  10.189 -0.6432 -0.6633 -1.7861
  870MOL0     H20013  -0.002   5.168  10.321 -0.4400  2.1482 -1.0106
  870MOL0     H20014   0.094   4.996  10.426  1.7567 -1.4761  0.7867
  870MOL0     H20015   0.225   4.969  10.297  0.7849  0.2812  0.3741
  870MOL0     H20016   0.216   5.233  10.427  0.2298 -0.6812  2.4709
  870MOL0     H20017   0.273   5.084  10.515  1.6885  2.3333  1.5405
  870MOL0     H20018   0.407   5.227  10.604 -2.1019 -1.0397 -1.7543
  870MOL0     H20019   0.685   5.188  10.798 -0.3537 -0.2455 -0.8428
  870MOL0     H20020   0.514   5.235  10.790 -0.2044  0.8142  0.3928
  870MOL0     H20021   0.639   5.357  10.785  2.4301 -1.0563  3.0865
  870MOL0     H20022   1.159   5.039  10.474 -2.7848 -0.6063  1.8435
  870MOL0     H20023   1.425   5.065  10.507 -0.6185  0.0809 -0.9401
  870MOL0     H20024   1.582   5.429  10.718  0.2461  0.3555  1.6111
  870MOL0     H20025   1.493   5.302  10.819 -4.4660 -1.5731 -3.0153
  870MOL0     H20026   1.705   5.167  10.775  2.3235 -0.2492  2.8195
  870MOL0     H20027   1.770   5.318  10.705 -3.0434 -2.4413 -3.3134
  870MOL0     H20028   1.819   5.418  10.896  1.8323  0.7601  4.9847
  870MOL0     H20029   1.828   5.250  10.954 -1.0703 -2.2962 -2.5526
  870MOL0     H20030   1.619   5.275  11.071  0.9466  0.7088  1.0788
  870MOL0     H20031   1.575   5.428  10.990 -0.7931  0.4570 -0.8312
  870MOL0     H20032   1.813   5.357  11.163 -1.7643 -1.5779  1.0463
  870MOL0     H20033   1.778   5.528  11.102 -0.8437 -0.4495 -0.2656
  870MOL0     H20034   1.594   5.382  11.277 -1.6951  0.5690 -2.2303
  870MOL0     H20035   1.585   5.547  11.208  0.9595  1.5475  0.4138
  870MOL0     H20036   1.742   5.634  11.364  1.8995  0.1871  0.1669
  870MOL0     H20037   1.812   5.464  11.370  0.9820  0.8109  2.3050
  870MOL0     H20038   1.615   5.392  11.516 -1.0166 -0.5981  0.2630
  870MOL0     H20039   1.546   5.558  11.493 -0.5299 -1.1903 -1.4233
  870MOL0     H20040   1.352   5.437  10.693 -2.9112  0.8566  0.3636
  870MOL0     H20041   1.115   5.431  10.649  2.9624  0.7881  0.8441
  870MOL0     H20042   0.827   5.199  10.341  0.8725  0.5992  1.0497
  870MOL0     H20043   0.598   5.134  10.240 -0.9407 -2.1368  1.8410
  870MOL0     H20044  -0.005   5.981   9.954 -0.1601  0.7566  1.0305
  870MOL0     H20045   0.139   6.020   9.766 -3.7281 -2.0548 -0.9030
  870MOL0     H20046   0.379   5.755   9.491  2.2027  1.4728  1.7684
  870MOL0     H20047   0.354   5.736   9.254  1.6486  0.4700  1.4061
  870MOL0     H20048   0.300   6.108   8.985 -1.7691  1.1246 -3.1597
  870MOL0     H20049   0.270   5.970   8.888  0.2513 -1.8317  0.5655
  870MOL0     H20050   0.058   6.088   9.086 -1.3911 -0.4355 -1.2209
  870MOL0     H20051   0.054   5.918   9.041  0.7254 -0.6379  0.8685
  870MOL0     H20052   0.069   6.114   8.817  0.6627 -0.2923  1.5917
  870MOL0     H20053   0.012   5.955   8.831 -0.0436  0.5737 -0.8523
  870MOL0     H20054  -0.106   6.204   8.964 -1.0731  0.8283 -0.3499
  870MOL0     H20055  -0.179   6.049   8.994  1.3397  0.1446  0.8233
  870MOL0     H20056  -0.379   6.083   8.643  0.8353 -0.5633 -0.2370
  870MOL0     H20057   0.302   6.157   9.213  1.7706  1.5114  1.3050
  870MOL0     H20058   0.295   6.297   9.372  3.6174  1.8213  0.5171
  870MOL0     H20059   0.244   6.251   9.531  0.2715 -1.1392  0.8191
  870MOL0     H20060   0.417   6.264   9.487  0.6269 -1.3214 -0.5703
  871MOL0     O20061   2.911   5.041   7.186 -0.0240 -0.0140 -0.1106
  871MOL0     C20062   2.898   5.124   7.098  0.9516  0.0871 -0.9146
  871MOL0     O20063   2.985   5.164   7.008  0.7222 -0.3941 -0.1354
  871MOL0     C20064   3.117   5.129   7.032  0.4912 -0.6477  0.0898
  871MOL0     C20065   3.200   5.200   7.113 -0.9949  0.2929  0.0787
  871MOL0     C20066   3.335   5.163   7.129  0.8944 -0.4132 -0.2231
  871MOL0     C20067   3.381   5.042   7.079  0.3137 -1.2614  0.8395
  871MOL0     O20068   3.512   4.993   7.097  0.4080 -0.1184  0.1499
  871MOL0     C20069   3.622   5.087   7.108  0.3448 -0.0015  0.6402
  871MOL0     C20070   3.742   5.011   7.062 -0.3287 -0.3497 -0.0665
  871MOL0     C20071   3.864   5.092   7.101  0.5106  0.0409  0.0616
  871MOL0     C20072   3.992   5.018   7.084  0.3169  0.3594 -1.2883
  871MOL0     C20073   4.112   5.109   7.118 -0.4081  0.4407 -1.0921
  871MOL0     C20074   4.150   5.104   7.276 -0.2252  0.3420  0.2205
  871MOL0     C20075   4.278   5.172   7.321  0.7511  0.1184  0.2682
  871MOL0     C20076   4.406   5.100   7.277 -0.7706  0.5326  0.5196
  871MOL0     N20077   4.409   4.952   7.249 -0.3723 -0.3957  0.3379
  871MOL0     C20078   4.371   4.844   7.330  0.4752 -0.2127 -0.1312
  871MOL0     C20079   4.391   4.733   7.248  0.9678  0.6155  0.6025
  871MOL0     C20080   4.342   4.596   7.279  0.4313 -0.1267 -0.4241
  871MOL0     C20081   4.446   4.506   7.341  0.0752  0.2461 -0.4833
  871MOL0     C20082   4.576   4.468   7.261  0.0106  0.1429  0.4328
  871MOL0     C20083   4.666   4.376   7.343 -0.5951 -0.0964 -0.5222
  871MOL0     O20084   4.785   4.350   7.273 -0.9873  0.3194  0.2726
  871MOL0     C20085   4.890   4.290   7.335 -1.0884  0.3453 -0.1306
  871MOL0     C20086   4.902   4.259   7.473  0.8967 -0.1231 -0.9075
  871MOL0     C20087   5.027   4.222   7.520 -0.0897  0.0255 -0.5199
  871MOL0     C20088   5.050   4.203   7.673 -0.0221 -0.1446  0.2098
  871MOL0     C20089   5.132   4.178   7.429  1.0295  0.7763 -0.1082
  871MOL0     C20090   5.259   4.118   7.478 -1.3029  0.5224  0.9925
  871MOL0     O20091   5.327   4.154   7.594 -0.4206  0.2901  0.4539
  871MOL0     C20092   5.462   4.156   7.598 -0.5468  0.5379  1.3771
  871MOL0     C20093   5.527   4.275   7.620  0.7920 -0.0127  0.4360
  871MOL0     C20094   5.662   4.267   7.638  0.1315  0.1255 -0.0687
  871MOL0     C20095   5.732   4.151   7.621 -0.6495  0.7158 -0.1237
  871MOL0     O20096   5.865   4.147   7.637 -0.9751  0.3229 -0.5044
  871MOL0     C20097   5.915   4.106   7.769  1.6854 -0.4818  0.2944
  871MOL0     C20098   6.050   4.034   7.741  0.0899 -0.0969 -0.3344
  871MOL0     C20099   6.147   4.120   7.667 -0.7288 -0.4174  0.7871
  871MOL0     C20100   6.252   4.042   7.596 -0.4195  0.8926 -0.1937
  871MOL0     C20101   6.358   4.140   7.536 -0.5589 -0.7427 -0.1071
  871MOL0     C20102   6.475   4.069   7.460 -0.2402 -0.3980 -0.2096
  871MOL0     C20103   6.554   4.170   7.370  0.7653 -0.7148  0.5382
  871MOL0     C20104   6.686   4.104   7.340 -0.0176 -0.8880 -1.0838
  871MOL0    Cl20105   6.788   4.235   7.279  0.1549 -0.0523 -0.3183
  871MOL0     C20106   5.664   4.029   7.593 -0.5007  0.2707 -0.1421
  871MOL0     C20107   5.528   4.037   7.581 -0.0179  0.7535 -1.1506
  871MOL0     O20108   5.306   4.039   7.393 -0.4160  0.5269  0.0867
  871MOL0     C20109   5.123   4.217   7.293 -0.1242  0.1168  1.2920
  871MOL0     C20110   5.005   4.281   7.248  0.2721  0.5922 -0.1748
  871MOL0     N20111   4.451   4.780   7.134  0.6614 -0.3350 -0.2073
  871MOL0     N20112   4.452   4.906   7.127  0.4599  0.2516  0.3680
  871MOL0     C20113   3.290   4.973   6.992  0.5910  1.2113 -0.4908
  871MOL0     C20114   3.162   5.015   6.970  0.4103 -0.2437  0.6201
  871MOL0     C20115   2.762   5.182   7.093 -0.5570  1.5075 -0.5787
  871MOL0     C20116   2.714   5.253   7.204  0.1356  0.4122 -0.7481
  871MOL0     C20117   2.598   5.325   7.192  0.9653 -0.0633 -0.6209
  871MOL0     C20118   2.525   5.327   7.073  0.0636  0.4271  0.3508
  871MOL0     O20119   2.402   5.396   7.062 -0.3030  0.6759 -0.1412
  871MOL0     C20120   2.305   5.386   7.165 -1.2507  0.3643 -1.1393
  871MOL0     C20121   2.179   5.448   7.110  0.0298 -0.4983 -0.1377
  871MOL0     C20122   2.130   5.403   6.977 -0.8718 -0.0157  0.2740
  871MOL0     C20123   2.081   5.255   6.981 -0.3949 -1.0505  0.6252
  871MOL0     C20124   2.032   5.225   6.848  0.3325  0.7227  0.2215
  871MOL0     C20125   1.976   5.213   6.742 -0.5789 -0.5194  0.6132
  871MOL0     C20126   2.564   5.252   6.967 -0.3825  0.2380  0.3133
  871MOL0     C20127   2.679   5.172   6.971  0.7455 -0.4127 -0.3640
  871MOL0     C20128   2.723   5.095   6.846 -0.1443  0.7089  0.0957
  871MOL0     H20129   3.164   5.293   7.156 -0.1296  1.0739 -0.8559
  871MOL0     H20130   3.391   5.233   7.191 -0.8045  1.1312 -0.3465
  871MOL0     H20131   3.641   5.117   7.212 -1.3375  0.5564  0.8144
  871MOL0     H20132   3.603   5.174   7.044  0.2634 -0.7127 -0.3113
  871MOL0     H20133   3.749   4.921   7.123 -0.3569  1.8577  3.5488
  871MOL0     H20134   3.744   4.995   6.954  1.6073  1.6017 -0.3862
  871MOL0     H20135   3.857   5.172   7.026 -0.6850  0.6032  0.7510
  871MOL0     H20136   3.863   5.123   7.206  0.8439 -1.5473  0.5575
  871MOL0     H20137   3.998   4.929   7.147 -0.6957 -0.6233 -2.5309
  871MOL0     H20138   3.990   4.984   6.980 -1.0427 -1.7756 -0.6443
  871MOL0     H20139   4.086   5.208   7.080  1.2377  0.9076 -1.0291
  871MOL0     H20140   4.202   5.073   7.069 -0.5738 -0.0216 -1.0670
  871MOL0     H20141   4.070   5.147   7.338 -0.0135  0.5823  0.3301
  871MOL0     H20142   4.148   5.000   7.307 -0.6880  0.1127 -0.5406
  871MOL0     H20143   4.278   5.157   7.429 -2.3888 -2.7170  0.0349
  871MOL0     H20144   4.285   5.277   7.291  1.3556  0.1535  0.5089
  871MOL0     H20145   4.438   5.141   7.181 -2.5850  1.8747  0.4312
  871MOL0     H20146   4.495   5.130   7.332  0.6928  0.5067 -1.7100
  871MOL0     H20147   4.321   4.862   7.425  0.7022  2.4793 -0.4384
  871MOL0     H20148   4.301   4.555   7.186  2.0537 -3.7528  0.2506
  871MOL0     H20149   4.260   4.611   7.349 -0.2083  4.2977 -1.8286
  871MOL0     H20150   4.478   4.541   7.439  1.3011  0.6826 -1.0204
  871MOL0     H20151   4.399   4.412   7.372  0.2976 -0.1314 -1.2651
  871MOL0     H20152   4.549   4.411   7.172 -1.4696  1.2518  0.1419
  871MOL0     H20153   4.640   4.549   7.224  1.7730 -0.8204  1.2089
  871MOL0     H20154   4.694   4.438   7.428 -0.9528 -1.9793  1.0315
  871MOL0     H20155   4.613   4.292   7.389 -2.0862  2.6619  3.3005
  871MOL0     H20156   4.824   4.284   7.544  2.5330 -1.9176  1.6662
  871MOL0     H20157   5.082   4.099   7.681 -0.3652 -0.5006 -2.3229
  871MOL0     H20158   4.957   4.215   7.731  0.1257  0.6810  0.2825
  871MOL0     H20159   5.121   4.275   7.716  0.8547 -1.0919  0.3870
  871MOL0     H20160   5.469   4.366   7.623  1.6869  0.5830  0.2236
  871MOL0     H20161   5.708   4.364   7.655 -0.3170  0.2802  0.2747
  871MOL0     H20162   5.914   4.190   7.839  0.1423 -1.0648  1.0046
  871MOL0     H20163   5.845   4.036   7.816 -2.0868  1.4684 -1.9484
  871MOL0     H20164   6.092   4.004   7.838  0.9089 -0.5565 -0.8203
  871MOL0     H20165   6.035   3.941   7.685 -1.9949 -1.3139  2.0366
  871MOL0     H20166   6.191   4.189   7.739 -0.2110 -1.2142  1.2441
  871MOL0     H20167   6.092   4.179   7.593 -0.2679 -1.6862 -0.6092
  871MOL0     H20168   6.219   3.980   7.512  4.5304 -0.0792 -1.7752
  871MOL0     H20169   6.298   3.973   7.667  1.7634  2.4089 -0.0275
  871MOL0     H20170   6.302   4.205   7.468 -1.1115  0.3554  1.3508
  871MOL0     H20171   6.399   4.202   7.615 -0.2666 -1.4027  0.2713
  871MOL0     H20172   6.435   3.986   7.402 -0.5524  1.2459 -2.4776
  871MOL0     H20173   6.536   4.034   7.544 -0.7412  0.5128  0.5601
  871MOL0     H20174   6.556   4.272   7.409  0.0360  0.8595 -3.1120
  871MOL0     H20175   6.488   4.188   7.285  0.3433  2.9940  1.4599
  871MOL0     H20176   6.678   4.018   7.273  0.9300 -0.4011 -1.8530
  871MOL0     H20177   6.727   4.064   7.433  0.6175  1.0187 -0.5079
  871MOL0     H20178   5.713   3.933   7.584 -1.6708 -0.4267  0.6559
  871MOL0     H20179   5.470   3.948   7.557  0.1317 -1.2645  4.5175
  871MOL0     H20180   5.193   4.177   7.221 -1.9388 -0.7183 -0.0851
  871MOL0     H20181   4.999   4.311   7.144 -1.9238  1.0241  0.0155
  871MOL0     H20182   3.328   4.879   6.953  0.2752 -0.3242  2.5844
  871MOL0     H20183   3.087   4.965   6.908  0.8808  0.4873 -0.5704
  871MOL0     H20184   2.773   5.253   7.295  0.2284  0.7886 -0.8088
  871MOL0     H20185   2.569   5.380   7.280 -0.0843 -1.5333 -0.0129
  871MOL0     H20186   2.294   5.279   7.183 -1.5498  0.1841 -2.3210
  871MOL0     H20187   2.344   5.436   7.254  2.3678 -0.7054 -1.9397
  871MOL0     H20188   2.184   5.556   7.127 -0.3527 -0.4726 -0.1879
  871MOL0     H20189   2.099   5.418   7.178  0.5512 -2.6464 -0.4121
  871MOL0     H20190   2.046   5.467   6.951 -1.6659 -0.9779  0.4326
  871MOL0     H20191   2.214   5.398   6.907 -0.5922 -2.7186  0.6724
  871MOL0     H20192   1.986   5.243   7.035 -3.6051 -0.6576 -4.3135
  871MOL0     H20193   2.163   5.194   7.021  2.3597  0.6273 -2.0604
  871MOL0     H20194   1.929   5.191   6.649 -0.1485  1.0987 -0.0238
  871MOL0     H20195   2.497   5.259   6.882  2.6968  2.6301 -2.1775
  871MOL0     H20196   2.824   5.128   6.824  1.6164 -1.0061  4.4465
  871MOL0     H20197   2.731   4.988   6.870 -1.9055  0.6614  0.6500
  871MOL0     H20198   2.656   5.084   6.760  0.5328  0.1834 -0.3712
  872MOL0     O20199   9.798   5.528   6.167  0.2340  0.4298 -0.4165
  872MOL0     C20200   9.822   5.437   6.247  0.0702  0.8870  0.4552
  872MOL0     O20201   9.926   5.434   6.329  0.5870  0.0568  0.9023
  872MOL0     C20202  10.038   5.517   6.319  0.0026  0.0658  0.8695
  872MOL0     C20203  10.036   5.654   6.274  0.9494  0.6926  0.1621
  872MOL0     C20204  10.148   5.733   6.288  0.4342  0.4992  0.8180
  872MOL0     C20205  10.267   5.677   6.335 -0.1636 -0.8915  0.2731
  872MOL0     O20206  10.380   5.756   6.354  0.0651 -0.0770 -0.4657
  872MOL0     C20207  10.370   5.853   6.459 -1.0341 -0.6836  0.6746
  872MOL0     C20208  10.405   5.797   6.584 -0.3754 -0.0608 -1.0302
  872MOL0     C20209  10.549   5.750   6.610 -0.1339  0.6488  0.7902
  872MOL0     C20210  10.629   5.834   6.702 -0.6272 -0.5848 -0.7591
  872MOL0     C20211  10.669   5.969   6.639  0.4745 -0.6182 -0.6286
  872MOL0     C20212  10.761   6.047   6.740  0.0476 -0.0708 -0.0134
  872MOL0     C20213  10.751   6.196   6.730 -0.3298  0.6383 -0.3368
  872MOL0     C20214  10.827   6.255   6.612  0.2418  0.3005  0.4274
  872MOL0     N20215  10.970   6.248   6.632  0.4785 -0.1820 -1.0028
  872MOL0     C20216  11.059   6.151   6.594  0.1158 -0.6517  0.1338
  872MOL0     C20217  11.179   6.188   6.633  0.5614 -0.7147  0.5333
  872MOL0     C20218  11.319   6.117   6.608 -0.0929 -0.0909  0.3767
  872MOL0     C20219  11.396   6.153   6.483  0.7185 -0.7873 -0.7613
  872MOL0     C20220  11.411   6.306   6.460 -0.2801  1.1457 -0.0745
  872MOL0     C20221  11.527   6.336   6.359  0.8212 -0.5020 -0.7299
  872MOL0     O20222  11.648   6.282   6.413 -0.9367  0.1284  0.3051
  872MOL0     C20223  11.761   6.264   6.338  0.1075 -0.4603  0.3931
  872MOL0     C20224  11.872   6.214   6.398  0.8768 -0.1120 -0.2384
  872MOL0     C20225  11.994   6.212   6.329  0.9881  0.8795 -0.4502
  872MOL0     C20226  12.100   6.156   6.408 -0.7343  0.5654  1.3983
  872MOL0     C20227  12.009   6.261   6.194  0.1858  0.0089 -0.2860
  872MOL0     C20228  12.140   6.276   6.121  0.6854 -0.6408 -0.4207
  872MOL0     O20229  12.250   6.300   6.198  0.4150  0.2358 -0.2019
  872MOL0     C20230  12.368   6.327   6.141  0.2015  0.1558  0.2597
  872MOL0     C20231  12.427   6.247   6.041  1.0803 -0.1626  0.7900
  872MOL0     C20232  12.540   6.291   5.971 -0.0298 -0.7121 -0.3104
  872MOL0     C20233  12.608   6.405   6.019 -0.7026  0.4175 -0.2109
  872MOL0     O20234  12.729   6.453   5.967  0.1202  0.2799  0.0215
  872MOL0     C20235  12.795   6.369   5.868 -0.0367 -0.1981 -0.6204
  872MOL0     C20236  12.931   6.438   5.832  0.8303  0.7122 -0.4277
  872MOL0     C20237  13.022   6.433   5.948  0.5287 -0.0906  1.0022
  872MOL0     C20238  13.150   6.497   5.908  0.2680 -0.2452 -0.5336
  872MOL0     C20239  13.255   6.472   6.014 -0.1750 -0.1630 -0.8525
  872MOL0     C20240  13.392   6.522   5.962  1.4625  0.1250 -0.5999
  872MOL0     C20241  13.502   6.425   5.970 -0.1196  0.1628 -1.2381
  872MOL0     C20242  13.639   6.491   5.919  0.4685  0.2920 -0.1044
  872MOL0    Cl20243  13.678   6.643   6.007  0.1047 -0.6036 -0.0353
  872MOL0     C20244  12.552   6.480   6.127  0.3099  0.0690  0.5659
  872MOL0     C20245  12.430   6.445   6.180 -0.6300 -0.8813 -0.3006
  872MOL0     O20246  12.127   6.284   5.997 -0.2828  0.0161  0.1935
  872MOL0     C20247  11.890   6.307   6.129  0.0334 -0.1110 -0.2428
  872MOL0     C20248  11.767   6.299   6.200 -0.9160  0.2826  0.5774
  872MOL0     N20249  11.169   6.306   6.700  0.3453 -0.2571 -0.6300
  872MOL0     N20250  11.038   6.346   6.689  0.5652  0.1167  0.8871
  872MOL0     C20251  10.260   5.546   6.369 -0.8103  0.2523 -0.4258
  872MOL0     C20252  10.150   5.462   6.372  0.7831  0.1240 -0.4540
  872MOL0     C20253   9.710   5.356   6.285  0.1547 -0.7287  0.0164
  872MOL0     C20254   9.631   5.406   6.387  0.0882 -0.0482 -0.5951
  872MOL0     C20255   9.504   5.346   6.411 -0.4394 -0.2296  0.5430
  872MOL0     C20256   9.460   5.230   6.345  0.3358  0.4799 -0.9201
  872MOL0     O20257   9.336   5.160   6.361  0.2027 -0.1970  0.5675
  872MOL0     C20258   9.243   5.188   6.471  0.2150 -0.0824  0.0874
  872MOL0     C20259   9.094   5.165   6.428  0.1089  0.6132 -0.2146
  872MOL0     C20260   9.070   5.011   6.410 -0.2113 -0.6316  0.1563
  872MOL0     C20261   8.970   4.951   6.513  0.4095 -0.5801 -0.3517
  872MOL0     C20262   8.829   4.944   6.465 -1.0348  0.4299  0.8368
  872MOL0     C20263   8.714   4.947   6.424 -0.4092 -0.2138  0.6350
  872MOL0     C20264   9.536   5.196   6.231 -0.0310 -0.1410  0.2569
  872MOL0     C20265   9.660   5.257   6.200  0.2087 -0.0108  0.3694
  872MOL0     C20266   9.757   5.191   6.101 -0.0627  0.1893  0.0021
  872MOL0     H20267   9.942   5.681   6.227 -0.8710  0.1975  3.2112
  872MOL0     H20268  10.139   5.838   6.266 -1.7277  0.6309  2.0268
  872MOL0     H20269  10.269   5.893   6.456 -0.5854  0.4239 -1.5799
  872MOL0     H20270  10.442   5.934   6.446  0.3509 -2.1925 -2.2161
  872MOL0     H20271  10.387   5.864   6.668  0.5582  0.5172 -1.2763
  872MOL0     H20272  10.349   5.703   6.598  1.9071 -1.4839 -0.8940
  872MOL0     H20273  10.542   5.645   6.642  0.2812  0.3731  0.0186
  872MOL0     H20274  10.602   5.765   6.515  1.2696  1.8186  1.7192
  872MOL0     H20275  10.579   5.841   6.799  1.2538 -2.2466  0.4301
  872MOL0     H20276  10.723   5.782   6.726  0.1888  1.1527  0.0217
  872MOL0     H20277  10.572   6.017   6.619 -0.2992 -1.9731 -0.2376
  872MOL0     H20278  10.719   5.945   6.544  0.6477 -0.5515 -0.5540
  872MOL0     H20279  10.709   6.028   6.835 -1.4341 -0.3151 -0.8451
  872MOL0     H20280  10.861   6.003   6.734 -1.4086 -3.4912 -1.6454
  872MOL0     H20281  10.778   6.250   6.822 -1.8123  0.2527  0.3630
  872MOL0     H20282  10.645   6.217   6.711 -0.4137 -0.3320 -1.0233
  872MOL0     H20283  10.795   6.203   6.521 -0.3650  2.0419 -0.3902
  872MOL0     H20284  10.797   6.358   6.596 -2.3376 -0.6403 -1.5812
  872MOL0     H20285  11.025   6.060   6.545 -2.4317 -0.6054  1.6499
  872MOL0     H20286  11.315   6.008   6.599  1.4337 -0.3051  1.6776
  872MOL0     H20287  11.387   6.130   6.693  4.1268 -5.2522 -1.6795
  872MOL0     H20288  11.497   6.110   6.488  2.2288  1.8849 -4.0971
  872MOL0     H20289  11.342   6.102   6.403 -1.6865 -0.7695  0.7396
  872MOL0     H20290  11.315   6.337   6.417 -0.0401  1.6686 -0.2491
  872MOL0     H20291  11.421   6.355   6.557  1.7074 -0.1836  0.4438
  872MOL0     H20292  11.499   6.290   6.264 -1.3330 -1.1516  0.1703
  872MOL0     H20293  11.532   6.445   6.355 -2.6482 -0.2202 -0.5353
  872MOL0     H20294  11.873   6.176   6.500  3.5277  0.1050 -0.1153
  872MOL0     H20295  12.117   6.049   6.395  3.2256  1.1292  0.3751
  872MOL0     H20296  12.074   6.171   6.513 -1.8667 -0.2417  1.2466
  872MOL0     H20297  12.198   6.202   6.391 -1.6843  1.6329 -1.8288
  872MOL0     H20298  12.384   6.157   5.998 -0.3051  2.0913 -3.0309
  872MOL0     H20299  12.589   6.238   5.890 -2.2143 -2.2333 -0.7384
  872MOL0     H20300  12.812   6.269   5.909  1.9251  0.4405  0.2656
  872MOL0     H20301  12.736   6.363   5.777 -4.5114 -0.7274  2.0334
  872MOL0     H20302  12.962   6.374   5.749  0.8710  0.0901  0.0550
  872MOL0     H20303  12.929   6.542   5.798  1.3651  0.2218 -2.0383
  872MOL0     H20304  13.049   6.329   5.964  0.4289 -0.3590 -0.4807
  872MOL0     H20305  12.980   6.471   6.042 -2.0557  1.3013 -0.5883
  872MOL0     H20306  13.138   6.606   5.901 -2.8175 -0.4829 -0.0916
  872MOL0     H20307  13.179   6.456   5.811  0.3739 -0.5172 -0.3877
  872MOL0     H20308  13.232   6.526   6.106  1.6921  1.3337 -1.2004
  872MOL0     H20309  13.260   6.366   6.041 -0.7827 -0.1277 -0.5829
  872MOL0     H20310  13.422   6.603   6.029 -0.5249 -0.0435  0.5498
  872MOL0     H20311  13.378   6.566   5.863 -0.9477  0.6901 -0.0587
  872MOL0     H20312  13.486   6.333   5.914 -0.0202 -0.5715 -0.1044
  872MOL0     H20313  13.508   6.388   6.073 -5.0070 -3.9529 -2.0636
  872MOL0     H20314  13.628   6.515   5.813 -1.5941 -1.7786 -0.4413
  872MOL0     H20315  13.722   6.420   5.930 -0.3101 -1.4693 -4.0600
  872MOL0     H20316  12.601   6.569   6.165 -1.1980  0.6578  1.2452
  872MOL0     H20317  12.397   6.511   6.259  0.0156 -0.8457 -0.0561
  872MOL0     H20318  11.896   6.357   6.033 -0.1301  1.2294  0.4280
  872MOL0     H20319  11.677   6.336   6.152  0.4630  2.2195 -0.6477
  872MOL0     H20320  10.345   5.498   6.417 -0.1276  2.3551  0.5851
  872MOL0     H20321  10.142   5.357   6.394 -3.4713  0.3444 -0.1322
  872MOL0     H20322   9.665   5.498   6.432 -2.4438  2.3429 -3.1148
  872MOL0     H20323   9.446   5.388   6.492 -0.7699 -0.2268  0.3091
  872MOL0     H20324   9.264   5.113   6.548  2.1032 -0.0663 -0.3744
  872MOL0     H20325   9.247   5.296   6.484  0.0487  0.1434 -1.4549
  872MOL0     H20326   9.069   5.218   6.336 -1.7517 -1.7254 -1.1586
  872MOL0     H20327   9.033   5.206   6.509  1.3874  0.7723  0.7042
  872MOL0     H20328   9.034   4.978   6.312  1.1652 -0.4976 -0.4239
  872MOL0     H20329   9.165   4.956   6.408 -0.7607 -1.6356 -2.4505
  872MOL0     H20330   8.959   5.016   6.601 -1.7174 -0.1381 -0.8811
  872MOL0     H20331   9.002   4.855   6.553  2.1631  0.3170  0.5252
  872MOL0     H20332   8.615   4.949   6.384  0.3259 -0.0557 -1.3061
  872MOL0     H20333   9.496   5.114   6.173  1.7495  0.7753 -2.4687
  872MOL0     H20334   9.859   5.232   6.105  0.3163 -0.3203 -2.6659
  872MOL0     H20335   9.775   5.086   6.128  0.6184  0.4530  0.6116
  872MOL0     H20336   9.725   5.214   5.999 -0.9091 -0.7928  0.0307
  873MOL0     O20337   8.544   7.791   6.120  0.2584 -0.1845  0.2468
  873MOL0     C20338   8.522   7.676   6.078 -0.5841 -0.3505  1.1891
  873MOL0     O20339   8.395   7.626   6.057 -0.1114  0.1722 -0.0470
  873MOL0     C20340   8.282   7.692   6.088 -0.3755 -0.1714 -0.1525
  873MOL0     C20341   8.261   7.833   6.083 -0.2879  0.3480  0.1141
  873MOL0     C20342   8.144   7.895   6.134  0.1119  0.9340  0.1788
  873MOL0     C20343   8.042   7.814   6.194  0.0577  0.5695 -0.1642
  873MOL0     O20344   7.930   7.875   6.263 -0.3117 -0.7262  0.3870
  873MOL0     C20345   7.946   8.007   6.312 -0.3100 -0.2236 -0.4598
  873MOL0     C20346   7.843   8.025   6.421 -1.1049  0.0180 -0.8196
  873MOL0     C20347   7.702   8.006   6.374 -0.3095  0.7794  0.8731
  873MOL0     C20348   7.606   8.009   6.496 -0.8214 -0.5509 -0.8314
  873MOL0     C20349   7.455   7.983   6.468  0.5618 -0.3922 -0.0617
  873MOL0     C20350   7.431   7.842   6.420 -0.5753 -0.0581 -0.6517
  873MOL0     C20351   7.287   7.823   6.387 -0.1716  0.1645 -0.7397
  873MOL0     C20352   7.264   7.693   6.320  0.6489  0.3250 -0.2638
  873MOL0     N20353   7.116   7.668   6.301 -0.5212 -1.2672 -0.2370
  873MOL0     C20354   7.041   7.719   6.192 -0.4405  0.2216 -0.0062
  873MOL0     C20355   6.916   7.664   6.214  0.7605  0.3093 -0.7144
  873MOL0     C20356   6.796   7.665   6.128 -1.0315 -1.1696 -0.8104
  873MOL0     C20357   6.655   7.685   6.200 -0.1919  0.5194 -0.7377
  873MOL0     C20358   6.547   7.710   6.097  0.6262 -0.7542 -0.0711
  873MOL0     C20359   6.412   7.758   6.158 -1.2630  0.2744 -0.0910
  873MOL0     O20360   6.338   7.637   6.176  0.7138 -0.1680 -0.7342
  873MOL0     C20361   6.199   7.643   6.190  0.3408  0.1219  0.0452
  873MOL0     C20362   6.111   7.533   6.173  1.1174 -0.5952  0.3365
  873MOL0     C20363   5.967   7.533   6.176  1.2830 -0.7004 -0.2039
  873MOL0     C20364   5.879   7.411   6.151  0.3918 -0.2309  0.3860
  873MOL0     C20365   5.913   7.659   6.212  0.2673 -0.0632  0.1729
  873MOL0     C20366   5.770   7.702   6.218 -0.8411  0.8491 -0.5307
  873MOL0     O20367   5.684   7.638   6.128  0.5168 -0.7296  0.2667
  873MOL0     C20368   5.553   7.678   6.122 -0.0248  0.9630 -0.7450
  873MOL0     C20369   5.454   7.576   6.101 -0.4686  0.0275 -0.7409
  873MOL0     C20370   5.324   7.611   6.094  0.1733  0.6224  0.2750
  873MOL0     C20371   5.280   7.740   6.093 -0.7503 -0.8601 -0.2615
  873MOL0     O20372   5.152   7.778   6.058 -0.5815  0.1066 -0.1859
  873MOL0     C20373   5.056   7.799   6.162 -0.6011  0.0529  0.6544
  873MOL0     C20374   4.942   7.700   6.156  0.2396  0.7548  0.2711
  873MOL0     C20375   4.849   7.714   6.048  0.4861 -0.5354  0.8415
  873MOL0     C20376   4.773   7.845   6.061 -0.3137 -1.1098  0.1559
  873MOL0     C20377   4.759   7.915   5.921 -0.3321  0.0473 -0.1796
  873MOL0     C20378   4.669   7.827   5.827 -0.8144 -0.1886  0.2144
  873MOL0     C20379   4.518   7.818   5.850  0.4763 -1.1234  0.1600
  873MOL0     C20380   4.436   7.869   5.735  0.2275 -0.4339  0.4812
  873MOL0    Cl20381   4.451   7.754   5.607 -0.2668 -0.1446  0.1314
  873MOL0     C20382   5.379   7.838   6.110 -0.2409 -0.0374 -0.5957
  873MOL0     C20383   5.508   7.808   6.129 -0.0904 -0.1763 -0.3823
  873MOL0     O20384   5.740   7.774   6.316 -0.1017  0.1529  0.0113
  873MOL0     C20385   5.996   7.768   6.240  0.8595 -0.2848 -0.8545
  873MOL0     C20386   6.131   7.755   6.227 -0.8746 -0.2494  0.9746
  873MOL0     N20387   6.928   7.576   6.323  0.4804 -0.3387  0.2086
  873MOL0     N20388   7.043   7.587   6.382  0.2433 -0.0158  0.6693
  873MOL0     C20389   8.068   7.677   6.205  0.1630  0.0596 -0.1319
  873MOL0     C20390   8.183   7.616   6.159 -0.7815 -0.2167  0.2135
  873MOL0     C20391   8.629   7.590   6.010 -0.4592  0.3365 -0.5805
  873MOL0     C20392   8.589   7.458   5.989  0.7685 -0.5716 -1.3108
  873MOL0     C20393   8.674   7.371   5.922  0.5360 -0.6929 -0.2044
  873MOL0     C20394   8.795   7.410   5.870 -0.8912 -0.2496 -0.2018
  873MOL0     O20395   8.884   7.335   5.796 -0.0890 -0.1198 -0.3436
  873MOL0     C20396   8.836   7.211   5.749 -0.6711  0.3096 -0.9714
  873MOL0     C20397   8.922   7.140   5.644  0.0967  0.3303  0.4245
  873MOL0     C20398   9.073   7.151   5.673  0.4002  1.0281  0.2103
  873MOL0     C20399   9.155   7.238   5.577 -0.8473 -0.7693  0.7288
  873MOL0     C20400   9.298   7.225   5.593 -0.3279 -0.1780 -0.7549
  873MOL0     C20401   9.418   7.222   5.603 -0.1419  0.6800 -0.3439
  873MOL0     C20402   8.838   7.546   5.882  0.0062 -0.1414 -0.4922
  873MOL0     C20403   8.761   7.636   5.960 -0.2233  0.1362  0.5868
  873MOL0     C20404   8.809   7.781   5.982 -0.3683 -0.2091  0.0575
  873MOL0     H20405   8.336   7.895   6.036  0.7298 -3.1000 -3.3684
  873MOL0     H20406   8.131   8.002   6.136  2.3159  1.2445  0.2794
  873MOL0     H20407   7.922   8.078   6.232 -0.1835  1.1166  0.6566
  873MOL0     H20408   8.048   8.025   6.346 -0.9053  0.2079  1.1628
  873MOL0     H20409   7.872   7.958   6.502  5.1911  0.2383 -2.4025
  873MOL0     H20410   7.834   8.130   6.453 -1.6756 -0.1108 -0.5406
  873MOL0     H20411   7.674   8.076   6.295  1.0396  1.0321  0.5893
  873MOL0     H20412   7.693   7.907   6.328  0.4733  1.3169 -0.5012
  873MOL0     H20413   7.637   7.934   6.569 -2.3999 -1.1695 -0.7727
  873MOL0     H20414   7.602   8.110   6.536  5.9243 -1.2332  3.1447
  873MOL0     H20415   7.438   8.049   6.382 -3.0400 -0.7085  0.2404
  873MOL0     H20416   7.395   8.010   6.555  1.9820  0.4160  0.7086
  873MOL0     H20417   7.485   7.808   6.331  0.9364 -2.0569  0.9387
  873MOL0     H20418   7.470   7.770   6.492  1.5811  1.6191 -0.0576
  873MOL0     H20419   7.262   7.899   6.313 -1.1524  1.2801  0.6653
  873MOL0     H20420   7.229   7.828   6.480 -2.1602 -1.5892 -1.8087
  873MOL0     H20421   7.324   7.693   6.228  0.5044  2.5948 -0.4206
  873MOL0     H20422   7.308   7.613   6.380 -0.8928  0.9531  1.8390
  873MOL0     H20423   7.064   7.789   6.111  1.3204 -3.0255 -2.5449
  873MOL0     H20424   6.795   7.571   6.073  0.0380 -0.9878 -1.1558
  873MOL0     H20425   6.815   7.744   6.054 -2.9500  0.6289  0.4862
  873MOL0     H20426   6.632   7.597   6.260 -2.3800  1.3111 -0.3214
  873MOL0     H20427   6.655   7.760   6.280 -0.8902 -0.1910 -0.0470
  873MOL0     H20428   6.580   7.801   6.045 -2.3582  0.4780 -0.0192
  873MOL0     H20429   6.526   7.630   6.025 -0.4695 -2.3985  1.9878
  873MOL0     H20430   6.424   7.800   6.258  1.2518 -1.3920  0.3924
  873MOL0     H20431   6.361   7.825   6.087  1.1934 -0.4972 -2.7557
  873MOL0     H20432   6.156   7.440   6.140  1.3915 -1.1125  2.0686
  873MOL0     H20433   5.804   7.391   6.228 -0.0702  1.5932  0.4443
  873MOL0     H20434   5.945   7.325   6.135  2.0172  0.8617  0.9959
  873MOL0     H20435   5.818   7.412   6.060 -1.1587 -1.7668  1.3325
  873MOL0     H20436   5.488   7.473   6.096  0.1883  0.2383 -0.7883
  873MOL0     H20437   5.256   7.534   6.057  2.2775 -0.6135 -1.2838
  873MOL0     H20438   5.101   7.798   6.262 -1.7211  2.3569  1.2629
  873MOL0     H20439   5.019   7.902   6.156  1.2158  0.6402 -2.0034
  873MOL0     H20440   4.979   7.596   6.162 -2.2705 -0.2626 -0.7235
  873MOL0     H20441   4.890   7.716   6.251 -1.7251 -2.1561 -0.1722
  873MOL0     H20442   4.791   7.624   6.068  0.8952 -0.6272  1.6480
  873MOL0     H20443   4.899   7.702   5.951 -1.0982 -0.4405 -0.0170
  873MOL0     H20444   4.816   7.918   6.131 -0.7720 -1.0573  0.3909
  873MOL0     H20445   4.673   7.826   6.101 -1.4864  1.2517 -1.3981
  873MOL0     H20446   4.718   8.017   5.927  2.4828  1.3371 -0.9813
  873MOL0     H20447   4.861   7.918   5.882 -0.2643 -0.4062 -0.0410
  873MOL0     H20448   4.711   7.726   5.819  2.2411  1.0802 -1.2404
  873MOL0     H20449   4.681   7.864   5.725  0.7570 -0.2903  0.3351
  873MOL0     H20450   4.488   7.874   5.940 -2.9844  0.0377 -1.5282
  873MOL0     H20451   4.481   7.717   5.871 -2.2173 -0.0652  0.9906
  873MOL0     H20452   4.464   7.971   5.708 -1.6234  0.7011  2.5103
  873MOL0     H20453   4.331   7.878   5.766 -0.5545  0.0537 -2.0625
  873MOL0     H20454   5.345   7.941   6.099 -0.2548 -0.0655 -0.8321
  873MOL0     H20455   5.579   7.889   6.138 -1.2346  1.0574 -1.9972
  873MOL0     H20456   5.954   7.865   6.261 -1.0525 -1.2903  0.2543
  873MOL0     H20457   6.184   7.846   6.253  3.1485 -1.1053 -3.0122
  873MOL0     H20458   8.008   7.617   6.272 -0.2446  1.5698  0.8996
  873MOL0     H20459   8.191   7.509   6.179  1.0677 -0.1519 -0.0139
  873MOL0     H20460   8.498   7.422   6.036  1.8581  2.2481  3.7929
  873MOL0     H20461   8.648   7.266   5.927 -0.1368 -0.5171  0.1630
  873MOL0     H20462   8.845   7.146   5.836  0.5190  1.1069 -0.4805
  873MOL0     H20463   8.731   7.216   5.719 -0.3284  2.7965 -1.9901
  873MOL0     H20464   8.905   7.189   5.548  1.4206 -1.8445 -1.0098
  873MOL0     H20465   8.896   7.034   5.632  1.5688 -0.1027  0.8520
  873MOL0     H20466   9.085   7.183   5.777  2.2314  0.7306  0.1332
  873MOL0     H20467   9.121   7.055   5.654 -1.1218  0.6684 -2.2547
  873MOL0     H20468   9.122   7.339   5.603 -1.0879 -0.8086  0.5731
  873MOL0     H20469   9.134   7.232   5.470  1.9673 -0.5155  0.0822
  873MOL0     H20470   9.524   7.230   5.614 -0.4936  4.0164  2.7284
  873MOL0     H20471   8.925   7.588   5.834 -2.2338  3.7265 -1.6540
  873MOL0     H20472   8.772   7.834   5.894 -0.3406 -2.3005 -1.2740
  873MOL0     H20473   8.769   7.833   6.070 -1.6535  1.0890 -1.2557
  873MOL0     H20474   8.918   7.790   5.986 -0.3897 -0.3532  1.7557
  874MOL0     O20475   3.234   6.282   4.332 -0.5014 -0.1039 -0.1711
  874MOL0     C20476   3.239   6.241   4.450  0.6185  0.3065 -0.1513
  874MOL0     O20477   3.125   6.211   4.524  0.3512  0.3107  0.1158
  874MOL0     C20478   3.008   6.175   4.454 -0.0850 -0.5765 -1.0435
  874MOL0     C20479   3.000   6.111   4.333 -0.7305 -0.8638 -0.4585
  874MOL0     C20480   2.878   6.098   4.275  0.4149  0.1478  0.2099
  874MOL0     C20481   2.756   6.144   4.338  0.1534  0.4006 -0.6261
  874MOL0     O20482   2.618   6.148   4.298 -0.4358  0.8632  0.0059
  874MOL0     C20483   2.605   6.175   4.157  0.2002  0.1300  0.2608
  874MOL0     C20484   2.599   6.319   4.105 -0.0513 -0.6935 -0.3027
  874MOL0     C20485   2.716   6.411   4.139 -0.3140  0.1283 -0.4205
  874MOL0     C20486   2.835   6.397   4.056 -1.0979  0.0615  0.3309
  874MOL0     C20487   2.933   6.513   4.100 -0.1571  0.3054  0.8244
  874MOL0     C20488   3.025   6.460   4.211  0.2482 -0.2859  0.2375
  874MOL0     C20489   3.113   6.567   4.283  0.1035  0.5182 -0.4818
  874MOL0     C20490   3.221   6.629   4.196  0.5855 -0.2980 -0.3396
  874MOL0     N20491   3.306   6.716   4.280 -0.5838  0.0701 -0.3039
  874MOL0     C20492   3.261   6.827   4.345 -0.3161 -0.4313 -0.2576
  874MOL0     C20493   3.359   6.870   4.423  0.3299 -1.0220 -0.3189
  874MOL0     C20494   3.359   6.996   4.515  0.6707 -0.2677  0.6466
  874MOL0     C20495   3.432   7.116   4.448 -0.4039  0.1393 -0.2343
  874MOL0     C20496   3.455   7.229   4.553 -0.0658 -0.6432 -0.0164
  874MOL0     C20497   3.579   7.235   4.639  0.2497  0.3218 -0.2027
  874MOL0     O20498   3.698   7.250   4.560  0.4381 -0.1430 -0.9507
  874MOL0     C20499   3.812   7.266   4.631 -0.8185 -0.6911  0.0061
  874MOL0     C20500   3.907   7.363   4.585  0.6604  1.0398 -0.0281
  874MOL0     C20501   4.025   7.397   4.651  0.6518  0.4232 -0.3281
  874MOL0     C20502   4.104   7.504   4.584  0.6807 -0.4732 -0.5368
  874MOL0     C20503   4.069   7.313   4.754  0.3194  0.6719  0.1139
  874MOL0     C20504   4.194   7.342   4.836  0.0399 -0.3536  0.0073
  874MOL0     O20505   4.225   7.240   4.917 -0.1355  0.0399 -0.1859
  874MOL0     C20506   4.346   7.232   4.971 -1.4502  1.3343 -0.4769
  874MOL0     C20507   4.375   7.262   5.107 -0.5528  1.1977  0.4556
  874MOL0     C20508   4.507   7.242   5.154 -0.3617 -0.4821  0.3210
  874MOL0     C20509   4.606   7.171   5.085  0.0993  0.4587  0.2715
  874MOL0     O20510   4.732   7.163   5.144  0.2016 -0.1170 -0.2011
  874MOL0     C20511   4.848   7.127   5.068 -0.0298 -0.5038  0.5859
  874MOL0     C20512   4.882   6.984   5.095  0.2271  0.0120  0.5114
  874MOL0     C20513   4.857   6.935   5.235  0.2885  0.4874 -0.7174
  874MOL0     C20514   4.865   6.781   5.243  0.6100 -1.0696  0.9414
  874MOL0     C20515   4.832   6.731   5.383 -0.0056 -0.0688  0.1161
  874MOL0     C20516   4.939   6.766   5.487  0.0915 -0.0132  0.0001
  874MOL0     C20517   4.896   6.734   5.631  0.2223  0.3775  0.0072
  874MOL0     C20518   4.871   6.585   5.658  0.1580 -0.1675  0.2188
  874MOL0    Cl20519   4.808   6.578   5.825  0.4520  0.0855 -0.1112
  874MOL0     C20520   4.573   7.141   4.951 -0.8862 -0.6175  1.2867
  874MOL0     C20521   4.449   7.177   4.891 -0.4879  0.5276  0.8501
  874MOL0     O20522   4.266   7.435   4.801 -0.3578 -0.1275 -0.2210
  874MOL0     C20523   3.991   7.206   4.794  0.0448  0.5043 -1.3712
  874MOL0     C20524   3.863   7.188   4.731  0.3525 -0.4480  0.3560
  874MOL0     N20525   3.463   6.780   4.399  0.1112 -0.4978  0.0138
  874MOL0     N20526   3.438   6.692   4.308 -0.0221  0.4319 -0.7961
  874MOL0     C20527   2.771   6.202   4.456  0.2321  0.1502 -0.9997
  874MOL0     C20528   2.892   6.209   4.522  1.0533  0.3280 -0.0684
  874MOL0     C20529   3.372   6.209   4.495 -0.0796  0.1710 -0.0615
  874MOL0     C20530   3.384   6.102   4.584 -0.3498  0.6715 -0.0833
  874MOL0     C20531   3.508   6.046   4.610 -0.0084  0.6742  0.5994
  874MOL0     C20532   3.632   6.103   4.568  0.8784  0.4543  0.2487
  874MOL0     O20533   3.747   6.043   4.610  0.1579  0.7930 -0.0575
  874MOL0     C20534   3.867   6.122   4.577 -0.7429  0.2848 -0.3871
  874MOL0     C20535   3.981   6.052   4.656  0.7163  0.3183 -0.2497
  874MOL0     C20536   3.944   6.038   4.802 -0.6867  0.4211 -0.2992
  874MOL0     C20537   4.047   5.967   4.889  0.1894  0.6801  0.5074
  874MOL0     C20538   4.182   6.005   4.870 -0.5184  0.4582  0.5983
  874MOL0     C20539   4.302   6.025   4.844 -0.2106  0.9941  0.5216
  874MOL0     C20540   3.620   6.216   4.489  0.8233 -0.3043  0.3150
  874MOL0     C20541   3.490   6.277   4.456  0.0037  0.7783  0.3202
  874MOL0     C20542   3.487   6.393   4.367  0.0512 -0.2921  0.2206
  874MOL0     H20543   3.089   6.067   4.290 -0.0678 -1.1931  1.2125
  874MOL0     H20544   2.874   6.053   4.177  2.1801  0.0504  0.1502
  874MOL0     H20545   2.512   6.125   4.131  1.8226 -2.9733 -0.1034
  874MOL0     H20546   2.674   6.113   4.099  0.5547 -1.5566  2.3365
  874MOL0     H20547   2.581   6.325   3.997  0.8354  2.9582 -0.3841
  874MOL0     H20548   2.501   6.358   4.134  0.1700 -0.9134  0.7730
  874MOL0     H20549   2.667   6.507   4.121 -3.6757 -1.4098 -0.2358
  874MOL0     H20550   2.735   6.405   4.246 -1.1812 -1.4693 -0.3355
  874MOL0     H20551   2.866   6.293   4.067  1.5800  0.7670  0.4216
  874MOL0     H20552   2.813   6.407   3.949  0.0699  1.4781  0.1854
  874MOL0     H20553   2.873   6.595   4.139 -2.0673 -1.1557  1.0615
  874MOL0     H20554   2.987   6.551   4.012  3.3882 -1.0206  2.2135
  874MOL0     H20555   2.970   6.415   4.293 -0.7359  4.2558  2.4087
  874MOL0     H20556   3.092   6.383   4.171  2.0434  1.1534  0.3118
  874MOL0     H20557   3.166   6.513   4.362 -0.9110  1.9054  1.2309
  874MOL0     H20558   3.051   6.644   4.329  0.3337  0.7836 -0.6178
  874MOL0     H20559   3.279   6.552   4.144 -2.0002 -0.7671 -2.7524
  874MOL0     H20560   3.167   6.685   4.120 -1.3966 -4.0025 -1.9139
  874MOL0     H20561   3.167   6.874   4.318  0.4156  1.4292  0.2699
  874MOL0     H20562   3.425   6.979   4.600  2.1958 -0.1904 -0.4732
  874MOL0     H20563   3.258   7.023   4.547  0.4751 -2.7117  2.2638
  874MOL0     H20564   3.526   7.079   4.406 -0.5870 -2.5537  1.4736
  874MOL0     H20565   3.373   7.161   4.367  1.2890  0.3602 -1.4103
  874MOL0     H20566   3.460   7.320   4.492  1.6103 -0.4026  0.4299
  874MOL0     H20567   3.368   7.235   4.619 -0.5240  0.3789 -0.6810
  874MOL0     H20568   3.565   7.313   4.714 -0.8392 -0.4656  0.4378
  874MOL0     H20569   3.579   7.138   4.691  0.0523 -0.3769 -1.4683
  874MOL0     H20570   3.877   7.407   4.490 -2.4662 -0.6717  0.0240
  874MOL0     H20571   4.137   7.569   4.665  1.0591 -1.7322  0.3441
  874MOL0     H20572   4.040   7.559   4.514  0.8509  1.0973  0.4913
  874MOL0     H20573   4.192   7.468   4.530  1.4059 -0.6370  0.7332
  874MOL0     H20574   4.295   7.300   5.170 -1.0184  0.7812  0.1180
  874MOL0     H20575   4.535   7.279   5.251  0.4513  1.3254 -0.5735
  874MOL0     H20576   4.833   7.141   4.960  2.1173 -3.4737 -0.2457
  874MOL0     H20577   4.939   7.181   5.096 -0.4326  1.6784 -1.8674
  874MOL0     H20578   4.835   6.919   5.021  0.4565 -0.4351  0.7531
  874MOL0     H20579   4.988   6.984   5.069  0.2449  0.7854  0.5718
  874MOL0     H20580   4.762   6.969   5.276  0.8678  0.3507  0.7920
  874MOL0     H20581   4.938   6.965   5.302  0.6168 -2.3299  0.2811
  874MOL0     H20582   4.963   6.745   5.211  0.1003 -1.2132 -0.5690
  874MOL0     H20583   4.795   6.742   5.168  3.7511  0.4986 -3.2102
  874MOL0     H20584   4.743   6.782   5.423  1.5669  0.0651  3.8297
  874MOL0     H20585   4.809   6.624   5.378  1.5780 -0.3892 -0.6430
  874MOL0     H20586   4.951   6.874   5.489  0.9620 -0.0742 -0.9834
  874MOL0     H20587   5.036   6.720   5.467  0.7941  1.2191  0.5185
  874MOL0     H20588   4.814   6.799   5.663  1.2266  2.0706 -0.6854
  874MOL0     H20589   4.985   6.767   5.685  1.1579  2.7307 -2.7275
  874MOL0     H20590   4.965   6.532   5.648  1.4267  2.0421 -0.2511
  874MOL0     H20591   4.800   6.545   5.586 -0.8886  0.4929  0.8486
  874MOL0     H20592   4.639   7.085   4.885 -1.4136  0.4868 -0.2333
  874MOL0     H20593   4.426   7.151   4.789 -0.8890 -0.3317  1.1547
  874MOL0     H20594   4.020   7.154   4.884  1.4025  3.7969  0.2539
  874MOL0     H20595   3.802   7.108   4.772  1.2209 -1.5711 -0.4678
  874MOL0     H20596   2.687   6.238   4.515  1.6852 -0.5029  1.6351
  874MOL0     H20597   2.889   6.256   4.619  0.8886 -3.7250  2.1381
  874MOL0     H20598   3.309   6.055   4.648  0.8858  2.8480  3.2380
  874MOL0     H20599   3.528   5.961   4.673  3.4401  0.0616 -1.0975
  874MOL0     H20600   3.890   6.117   4.470  1.4699 -1.2884  0.0822
  874MOL0     H20601   3.860   6.228   4.603 -1.4565 -0.2129  1.7068
  874MOL0     H20602   4.075   6.102   4.633 -1.5366  4.5839 -1.4227
  874MOL0     H20603   3.987   5.948   4.624 -0.4996  0.3177 -0.5378
  874MOL0     H20604   3.929   6.138   4.846 -0.2198  0.6530 -0.6536
  874MOL0     H20605   3.852   5.983   4.820  0.2193 -0.3436  2.4516
  874MOL0     H20606   4.036   5.858   4.884 -1.3025  0.7114  2.1337
  874MOL0     H20607   4.039   5.998   4.994  1.5623  3.2115 -0.0513
  874MOL0     H20608   4.406   6.037   4.821 -0.0740  0.3061  0.7545
  874MOL0     H20609   3.709   6.270   4.458 -0.4226  1.4580 -0.4037
  874MOL0     H20610   3.503   6.357   4.265  1.2035 -2.4175  1.0711
  874MOL0     H20611   3.395   6.450   4.379  0.0812 -0.5033  1.5866
  874MOL0     H20612   3.578   6.450   4.389 -0.0297  0.0951 -0.4326
  875MOL0     O20613   1.818   0.245   4.912 -0.6293  0.3795  0.2477
  875MOL0     C20614   1.740   0.156   4.943  0.6942 -0.8144 -0.0978
  875MOL0     O20615   1.783   0.036   4.993  0.2034 -0.1744  0.1591
  875MOL0     C20616   1.908  -0.005   4.974 -0.0958 -0.6447  0.2321
  875MOL0     C20617   1.968  -0.050   5.087 -1.1470 -0.4233 -0.0517
  875MOL0     C20618   2.111  -0.086   5.082 -0.4075  0.1601 -0.2905
  875MOL0     C20619   2.180  -0.071   4.954 -0.0732  0.2628  0.0082
  875MOL0     O20620   2.318  -0.100   4.938  0.0960  0.0465  0.3287
  875MOL0     C20621   2.394  -0.109   5.059  0.3607  0.1077 -0.3322
  875MOL0     C20622   2.542  -0.121   5.027  0.4780  0.1540  0.8457
  875MOL0     C20623   2.602  -0.238   5.101 -0.0433  0.1324 -0.0244
  875MOL0     C20624   2.757  -0.219   5.118 -0.1207 -0.5331 -0.5401
  875MOL0     C20625   2.810  -0.286   5.244  0.6164  0.8749  0.4318
  875MOL0     C20626   2.963  -0.273   5.261  0.2598 -0.3144 -0.0670
  875MOL0     C20627   3.023  -0.128   5.272  0.0559 -0.1693  0.5205
  875MOL0     C20628   3.171  -0.132   5.264 -0.3815  0.3190 -0.1561
  875MOL0     N20629   3.223  -0.145   5.123 -0.0580  0.3525 -1.5408
  875MOL0     C20630   3.356  -0.136   5.085 -0.8462 -0.0938  0.4265
  875MOL0     C20631   3.340  -0.109   4.951  0.2947  0.5015 -0.0747
  875MOL0     C20632   3.460  -0.064   4.869 -0.1879 -0.1845  0.0681
  875MOL0     C20633   3.538  -0.185   4.828  0.5294 -0.6149  0.4344
  875MOL0     C20634   3.475  -0.284   4.727 -0.7965 -0.5176 -1.1336
  875MOL0     C20635   3.402  -0.211   4.603  0.4159  0.4688 -0.5950
  875MOL0     O20636   3.340  -0.295   4.500 -0.0003 -0.5904  0.3757
  875MOL0     C20637   3.239  -0.380   4.547  0.0327  0.0652  1.1478
  875MOL0     C20638   3.225  -0.496   4.476  0.0940  0.2743 -0.2604
  875MOL0     C20639   3.135  -0.597   4.528  0.1824  0.1465 -0.9177
  875MOL0     C20640   3.118  -0.716   4.434 -1.2046 -0.0398 -0.3912
  875MOL0     C20641   3.065  -0.577   4.649  1.3362 -0.0344  0.2349
  875MOL0     C20642   2.959  -0.667   4.699 -0.9769  0.3712 -0.6244
  875MOL0     O20643   2.901  -0.645   4.819  0.3181 -1.0370 -0.1800
  875MOL0     C20644   2.796  -0.726   4.861  0.4096 -1.0155 -0.0420
  875MOL0     C20645   2.787  -0.764   4.994 -0.0804  0.3368  0.1673
  875MOL0     C20646   2.685  -0.844   5.038  0.0072 -0.7049  0.9363
  875MOL0     C20647   2.583  -0.898   4.946  0.5584 -0.3360  0.3122
  875MOL0     O20648   2.488  -0.991   4.965  0.1381  0.0708  0.0701
  875MOL0     C20649   2.485  -1.056   5.098  0.2756  0.1240  0.2937
  875MOL0     C20650   2.380  -1.165   5.094  0.6314 -0.3316  0.6829
  875MOL0     C20651   2.330  -1.191   5.226 -0.2442  0.1852 -0.7164
  875MOL0     C20652   2.233  -1.318   5.225 -0.4560  0.6637  0.0117
  875MOL0     C20653   2.105  -1.287   5.163  0.6259 -0.6844  0.1724
  875MOL0     C20654   2.008  -1.402   5.161  0.3606  0.4825  0.4547
  875MOL0     C20655   1.855  -1.373   5.115  0.3966 -0.5438 -0.0126
  875MOL0     C20656   1.850  -1.310   4.980 -0.5372  0.1754  0.5892
  875MOL0    Cl20657   1.698  -1.361   4.898 -0.0706  0.5454  0.0648
  875MOL0     C20658   2.590  -0.855   4.817 -0.1235  0.2233 -0.4007
  875MOL0     C20659   2.690  -0.772   4.774 -0.0853  0.3500  0.0750
  875MOL0     O20660   2.936  -0.768   4.630 -0.0794  0.2732 -0.5006
  875MOL0     C20661   3.093  -0.454   4.716  0.8261 -0.0198 -0.2823
  875MOL0     C20662   3.164  -0.350   4.657 -0.3292  0.4148 -0.2514
  875MOL0     N20663   3.208  -0.129   4.910  0.5199  0.1082 -0.1792
  875MOL0     N20664   3.144  -0.157   5.017  0.2464  0.5565 -0.2251
  875MOL0     C20665   2.112  -0.018   4.843  0.4565  0.7249  0.6415
  875MOL0     C20666   1.972   0.007   4.848  0.0643  0.5034  0.2340
  875MOL0     C20667   1.595   0.182   4.939 -0.4576 -0.5330  0.3042
  875MOL0     C20668   1.506   0.094   4.995 -0.4662  0.8074  0.0472
  875MOL0     C20669   1.363   0.120   4.971 -0.7677  1.2218 -0.0355
  875MOL0     C20670   1.318   0.220   4.894 -1.3390 -0.3284  0.7079
  875MOL0     O20671   1.188   0.240   4.859  0.0384  0.2073  0.2432
  875MOL0     C20672   1.099   0.239   4.973 -0.0680 -0.9683 -0.8089
  875MOL0     C20673   0.979   0.162   4.931  0.7446  0.1150  0.1669
  875MOL0     C20674   0.872   0.169   5.037  0.1195  0.4574  0.3911
  875MOL0     C20675   0.743   0.108   4.993  0.4400  0.9172  0.3958
  875MOL0     C20676   0.664   0.040   5.102  0.1632  0.1408  0.1242
  875MOL0     C20677   0.611  -0.020   5.194 -0.1756 -0.5535 -0.3991
  875MOL0     C20678   1.406   0.302   4.838 -0.3797 -1.0680  0.4668
  875MOL0     C20679   1.546   0.296   4.859 -0.6614  0.1776 -0.1101
  875MOL0     C20680   1.629   0.402   4.792 -0.8606 -1.8253  0.2471
  875MOL0     H20681   1.913  -0.080   5.175  2.3619 -1.2167  2.0548
  875MOL0     H20682   2.156  -0.124   5.173 -0.2556 -1.0795 -0.8698
  875MOL0     H20683   2.365  -0.198   5.116  2.6897  0.5223  1.6934
  875MOL0     H20684   2.371  -0.021   5.120  0.5038 -0.8262  1.1184
  875MOL0     H20685   2.555  -0.141   4.920  0.9770  1.3204  0.6701
  875MOL0     H20686   2.596  -0.026   5.034  1.2310  0.1998 -3.1979
  875MOL0     H20687   2.563  -0.239   5.203  2.3519  0.2920  0.9526
  875MOL0     H20688   2.574  -0.333   5.056  1.0576 -1.3318  2.1787
  875MOL0     H20689   2.807  -0.260   5.030 -0.2697 -0.9146 -0.4477
  875MOL0     H20690   2.788  -0.114   5.120  2.5955 -1.2316 -1.3612
  875MOL0     H20691   2.775  -0.389   5.246 -0.8300  1.3509  0.9996
  875MOL0     H20692   2.766  -0.232   5.328 -0.5548  2.1076 -0.9229
  875MOL0     H20693   2.998  -0.332   5.346 -0.6599 -0.1434  0.4347
  875MOL0     H20694   3.001  -0.318   5.169 -1.5798 -0.3862 -0.8322
  875MOL0     H20695   2.980  -0.079   5.359  0.0226  1.0075 -0.1324
  875MOL0     H20696   2.984  -0.074   5.185  1.7221  1.9471  1.0108
  875MOL0     H20697   3.197  -0.036   5.311 -2.3137  0.1100  1.4955
  875MOL0     H20698   3.221  -0.204   5.329  0.8397  0.3019 -1.0761
  875MOL0     H20699   3.453  -0.138   5.134 -1.2287 -0.2798  1.1981
  875MOL0     H20700   3.516   0.003   4.935 -3.0908  2.3723  0.1973
  875MOL0     H20701   3.433  -0.006   4.781  1.6914  3.5699  1.7426
  875MOL0     H20702   3.637  -0.155   4.793 -0.4077  2.1418 -0.0382
  875MOL0     H20703   3.556  -0.252   4.913  1.0790 -2.9508 -1.4189
  875MOL0     H20704   3.547  -0.362   4.700 -0.0365 -0.3222  0.2480
  875MOL0     H20705   3.399  -0.338   4.785 -1.0247  0.4213 -0.5458
  875MOL0     H20706   3.337  -0.130   4.638 -0.3964 -0.9668  1.3796
  875MOL0     H20707   3.474  -0.152   4.545  0.1439  1.3642 -0.0353
  875MOL0     H20708   3.278  -0.506   4.381 -0.2727 -2.1820 -0.2711
  875MOL0     H20709   3.158  -0.805   4.484 -1.0087 -0.9523 -2.1105
  875MOL0     H20710   3.175  -0.710   4.341  2.3716  1.9507  1.6640
  875MOL0     H20711   3.014  -0.736   4.409 -1.7841  2.1486  0.0798
  875MOL0     H20712   2.864  -0.726   5.060  1.3927 -0.9550 -0.7316
  875MOL0     H20713   2.666  -0.862   5.143 -1.7970  2.5502  1.3076
  875MOL0     H20714   2.584  -1.098   5.120 -0.2067 -1.2235 -0.0579
  875MOL0     H20715   2.457  -0.984   5.176  1.5105  0.9871 -0.0196
  875MOL0     H20716   2.300  -1.135   5.026 -1.0915 -3.8933  0.9491
  875MOL0     H20717   2.430  -1.252   5.051 -0.1401 -0.3335 -0.2530
  875MOL0     H20718   2.283  -1.096   5.251  0.0624  1.2223 -3.7102
  875MOL0     H20719   2.414  -1.218   5.290  2.5947  5.7975 -1.5000
  875MOL0     H20720   2.221  -1.348   5.329 -0.7649  0.3232 -0.1197
  875MOL0     H20721   2.284  -1.406   5.185  0.0297  1.1605 -0.4917
  875MOL0     H20722   2.054  -1.204   5.213  3.0273  1.5131 -0.7573
  875MOL0     H20723   2.121  -1.255   5.059  0.1717  0.6394  0.4918
  875MOL0     H20724   2.017  -1.428   5.267 -0.8634 -0.4102  0.3546
  875MOL0     H20725   2.042  -1.474   5.087 -2.8122  0.0039 -0.7091
  875MOL0     H20726   1.805  -1.296   5.174  0.8682  0.0294 -0.3497
  875MOL0     H20727   1.797  -1.466   5.113 -0.4925 -0.0215 -2.7030
  875MOL0     H20728   1.934  -1.351   4.921 -1.0477  0.9820 -0.7280
  875MOL0     H20729   1.858  -1.201   4.980  1.1108  0.0817  1.0691
  875MOL0     H20730   2.519  -0.898   4.748 -0.7959  1.4321 -0.4785
  875MOL0     H20731   2.689  -0.742   4.670 -3.0570 -0.2467 -0.1634
  875MOL0     H20732   3.038  -0.427   4.805  1.1879 -0.0793 -0.0395
  875MOL0     H20733   3.155  -0.248   4.692  0.5031 -0.0064  1.3099
  875MOL0     H20734   2.166  -0.003   4.751 -1.4576  1.3148 -0.4412
  875MOL0     H20735   1.925   0.042   4.756 -0.0767  2.1680  0.9066
  875MOL0     H20736   1.537   0.008   5.053 -0.1990  1.2762  0.6128
  875MOL0     H20737   1.302   0.036   5.003  1.0772 -0.5325 -0.8813
  875MOL0     H20738   1.128   0.212   5.075 -1.2437  0.8669  0.0605
  875MOL0     H20739   1.071   0.343   4.990  0.5564 -0.7765 -0.9434
  875MOL0     H20740   1.006   0.058   4.911 -1.1922 -0.3056 -0.5138
  875MOL0     H20741   0.934   0.210   4.843 -1.3168 -0.1641  1.0215
  875MOL0     H20742   0.917   0.108   5.116 -0.5549 -0.0265  0.4121
  875MOL0     H20743   0.861   0.268   5.083 -0.3231 -0.0547  1.4370
  875MOL0     H20744   0.765   0.026   4.923 -2.4798 -0.4065  0.8689
  875MOL0     H20745   0.671   0.170   4.939 -1.8285  0.0951  2.2851
  875MOL0     H20746   0.559  -0.079   5.268 -1.6127  1.3209  0.1877
  875MOL0     H20747   1.367   0.385   4.781  0.7895 -1.1474 -0.5027
  875MOL0     H20748   1.704   0.373   4.718 -1.7115 -0.8780 -1.0271
  875MOL0     H20749   1.568   0.479   4.744  2.9157  1.0575 -0.3993
  875MOL0     H20750   1.683   0.464   4.865  0.5592 -0.7283 -1.6504
  876MOL0     O20751   8.884   9.785   5.386 -0.4052  0.0594  0.5000
  876MOL0     C20752   8.938   9.864   5.303  0.4080 -0.7860 -0.4284
  876MOL0     O20753   8.874   9.950   5.219 -0.1691 -0.3041 -0.5040
  876MOL0     C20754   8.733   9.950   5.218 -0.3781  0.6494  0.2806
  876MOL0     C20755   8.670   9.927   5.095 -0.3748 -0.4363  0.5570
  876MOL0     C20756   8.527   9.903   5.086 -0.4717 -0.4679  0.4967
  876MOL0     C20757   8.447   9.920   5.197  0.6501 -0.1596 -0.6647
  876MOL0     O20758   8.310   9.895   5.190 -1.0077  0.7099  0.1909
  876MOL0     C20759   8.226   9.909   5.306 -0.2822 -0.1236  0.2683
  876MOL0     C20760   8.086   9.874   5.258 -0.7135 -0.0582  0.7149
  876MOL0     C20761   7.991   9.822   5.367 -0.8656  0.6062 -0.1215
  876MOL0     C20762   7.845   9.817   5.323 -0.3641 -0.2268 -0.1851
  876MOL0     C20763   7.762   9.778   5.449  0.6420 -0.2331  0.1155
  876MOL0     C20764   7.613   9.758   5.410 -0.8043 -0.1270 -0.3509
  876MOL0     C20765   7.535   9.708   5.529 -0.8967  0.3249  0.2470
  876MOL0     C20766   7.530   9.792   5.662 -0.4927  0.4627  0.3932
  876MOL0     N20767   7.413   9.773   5.764  0.4418  0.4749  0.0452
  876MOL0     C20768   7.282   9.736   5.744 -0.2069  0.4296  0.4770
  876MOL0     C20769   7.221   9.748   5.862 -0.3085  0.5205 -0.4961
  876MOL0     C20770   7.063   9.723   5.891 -0.0946  0.3581  0.0411
  876MOL0     C20771   7.048   9.757   6.048 -0.7980 -0.3307  0.3183
  876MOL0     C20772   6.924   9.692   6.108 -0.6997 -0.2816 -0.2578
  876MOL0     C20773   6.903   9.732   6.250  0.8801  1.0285  0.3671
  876MOL0     O20774   6.985   9.651   6.340  0.2763  0.7719 -0.8392
  876MOL0     C20775   6.948   9.626   6.475  0.4343  0.4513  0.0339
  876MOL0     C20776   6.832   9.679   6.530 -0.0029 -0.0545 -0.0625
  876MOL0     C20777   6.797   9.661   6.660 -0.1011  0.2121 -0.2803
  876MOL0     C20778   6.672   9.733   6.701  0.0479 -0.6038 -0.4995
  876MOL0     C20779   6.869   9.573   6.744  0.2420 -0.4485 -0.4498
  876MOL0     C20780   6.825   9.552   6.890 -0.9383 -0.1708  0.1988
  876MOL0     O20781   6.718   9.614   6.942  0.8529  0.3287 -0.4535
  876MOL0     C20782   6.671   9.601   7.068 -0.5924  0.2435 -0.2455
  876MOL0     C20783   6.547   9.555   7.095  0.1754 -0.7544 -0.3089
  876MOL0     C20784   6.491   9.535   7.218  0.4303 -0.2615 -0.3840
  876MOL0     C20785   6.564   9.564   7.339  0.0647 -0.4542  0.5346
  876MOL0     O20786   6.523   9.548   7.466  0.7482  0.7012 -0.5393
  876MOL0     C20787   6.422   9.454   7.499 -0.0942  0.8024  0.3945
  876MOL0     C20788   6.504   9.322   7.503  0.0385 -0.3841 -0.0809
  876MOL0     C20789   6.406   9.212   7.557 -0.8071 -0.5546 -0.3250
  876MOL0     C20790   6.491   9.089   7.585 -0.8536  0.1132 -1.4495
  876MOL0     C20791   6.389   8.975   7.629  0.3100  0.5777 -0.2968
  876MOL0     C20792   6.453   8.839   7.668 -0.1336 -0.1524  1.1592
  876MOL0     C20793   6.550   8.862   7.784 -0.2603  0.4378 -0.3798
  876MOL0     C20794   6.582   8.751   7.882  0.1933  0.7436  0.0303
  876MOL0    Cl20795   6.435   8.720   7.981 -0.3917 -0.5188  0.5586
  876MOL0     C20796   6.690   9.613   7.315  0.0053  0.6694 -0.3973
  876MOL0     C20797   6.744   9.630   7.186 -0.0321  0.1973  0.0085
  876MOL0     O20798   6.902   9.484   6.959  0.1615  0.3707 -0.5335
  876MOL0     C20799   6.989   9.518   6.690  0.1379  0.4245 -0.0128
  876MOL0     C20800   7.025   9.550   6.556 -0.6672  0.0453 -0.6185
  876MOL0     N20801   7.310   9.796   5.960  0.2379  0.4266 -1.0415
  876MOL0     N20802   7.417   9.815   5.893  0.9727 -0.0564  1.4001
  876MOL0     C20803   8.513   9.958   5.319 -0.1498 -0.3745  0.7463
  876MOL0     C20804   8.653   9.962   5.331  0.1354 -0.1851  0.1963
  876MOL0     C20805   9.088   9.870   5.298  0.6674  0.2883  0.3589
  876MOL0     C20806   9.151   9.876   5.168 -0.2656 -0.6288 -0.3330
  876MOL0     C20807   9.290   9.881   5.162 -0.5537 -0.4984  0.6021
  876MOL0     C20808   9.369   9.896   5.280 -0.3090  0.0575 -0.3333
  876MOL0     O20809   9.505   9.922   5.273  0.9625  0.3507 -0.3804
  876MOL0     C20810   9.587   9.837   5.197  0.7662  0.1135 -0.6692
  876MOL0     C20811   9.734   9.882   5.193  0.0405 -1.1241  0.3301
  876MOL0     C20812   9.757   9.995   5.092 -0.9489 -0.4967 -0.3959
  876MOL0     C20813   9.793   9.945   4.952  0.4330 -0.3502  0.2435
  876MOL0     C20814   9.926   9.894   4.934  0.1892 -0.3461  0.8713
  876MOL0     C20815  10.042   9.869   4.915 -0.2088 -0.4122 -0.5788
  876MOL0     C20816   9.297   9.904   5.402 -0.1736 -0.2089  0.7747
  876MOL0     C20817   9.158   9.875   5.415 -0.3187 -0.1057  0.2916
  876MOL0     C20818   9.102   9.863   5.549 -0.2155 -0.1674 -0.2120
  876MOL0     H20819   8.739   9.930   5.011  1.3735 -0.2903  1.9465
  876MOL0     H20820   8.474   9.879   4.994 -2.4521 -2.1873  1.9886
  876MOL0     H20821   8.235  10.009   5.348  3.3146 -0.4721  0.6232
  876MOL0     H20822   8.260   9.835   5.380  2.7151 -0.5635 -1.4035
  876MOL0     H20823   8.041   9.957   5.203  1.2865 -1.1452 -2.8403
  876MOL0     H20824   8.110   9.796   5.186  2.2641  0.5773  0.8928
  876MOL0     H20825   8.019   9.719   5.393 -2.2021  0.3050  0.2016
  876MOL0     H20826   7.996   9.888   5.453  1.5170  1.2734 -0.7028
  876MOL0     H20827   7.828   9.914   5.275  3.7235  0.4701 -0.6271
  876MOL0     H20828   7.838   9.740   5.246  1.8084 -3.0578  2.2094
  876MOL0     H20829   7.770   9.857   5.524  0.8631  0.4964 -0.6551
  876MOL0     H20830   7.807   9.686   5.488  1.8214 -0.0551 -0.7440
  876MOL0     H20831   7.564   9.846   5.366 -4.7411 -2.1839 -0.5149
  876MOL0     H20832   7.606   9.684   5.329  1.7237 -2.4256  1.3504
  876MOL0     H20833   7.569   9.609   5.560  0.7509  0.5876 -0.5757
  876MOL0     H20834   7.436   9.704   5.484 -0.1220 -1.6685 -1.4727
  876MOL0     H20835   7.621   9.793   5.722 -0.8788 -0.7505  1.0348
  876MOL0     H20836   7.512   9.892   5.622  1.4653 -0.2320 -2.5443
  876MOL0     H20837   7.232   9.694   5.658  0.5647  0.2299  0.1141
  876MOL0     H20838   7.036   9.618   5.876  1.4873 -0.1849  0.7804
  876MOL0     H20839   7.014   9.791   5.821 -1.2317  0.2827  0.7446
  876MOL0     H20840   7.130   9.702   6.094  0.2993  0.2472 -0.8767
  876MOL0     H20841   7.063   9.864   6.063  3.5006 -0.2217 -2.8842
  876MOL0     H20842   6.838   9.735   6.055 -0.4257  0.6791  0.0401
  876MOL0     H20843   6.932   9.585   6.088  1.7466 -0.0277 -0.9274
  876MOL0     H20844   6.929   9.835   6.275  0.2909  2.3797 -3.8295
  876MOL0     H20845   6.796   9.723   6.271  0.4849  1.8768 -1.1508
  876MOL0     H20846   6.777   9.757   6.478 -1.0918  0.9802  2.4724
  876MOL0     H20847   6.675   9.782   6.799  2.7637 -1.0996 -0.2476
  876MOL0     H20848   6.582   9.672   6.693 -0.5781  0.4675 -2.2190
  876MOL0     H20849   6.645   9.820   6.641  0.4322 -0.2437 -0.1636
  876MOL0     H20850   6.480   9.515   7.019 -0.0016 -0.3319 -0.3753
  876MOL0     H20851   6.392   9.496   7.241  1.5612 -0.9364  4.5588
  876MOL0     H20852   6.379   9.482   7.596 -0.0210 -0.7799  0.9175
  876MOL0     H20853   6.335   9.451   7.433 -1.1246  1.0503  1.6796
  876MOL0     H20854   6.543   9.295   7.405 -0.8877 -1.2145 -0.2379
  876MOL0     H20855   6.594   9.335   7.564 -0.6581 -0.6728  1.0508
  876MOL0     H20856   6.328   9.198   7.482 -0.9065  1.1422 -0.5876
  876MOL0     H20857   6.364   9.244   7.653  0.4838 -0.1949  0.1365
  876MOL0     H20858   6.560   9.107   7.668 -2.2938 -1.3304  0.1456
  876MOL0     H20859   6.540   9.055   7.494  0.4356 -0.1051 -0.6905
  876MOL0     H20860   6.335   9.008   7.718  2.2251  0.0672  1.1339
  876MOL0     H20861   6.322   8.967   7.543 -0.6478  0.8636  0.3939
  876MOL0     H20862   6.507   8.792   7.586  2.4190  1.8086  1.5681
  876MOL0     H20863   6.379   8.767   7.704 -0.5118 -0.8195 -0.8405
  876MOL0     H20864   6.511   8.945   7.845 -2.1301  0.3508 -1.3828
  876MOL0     H20865   6.643   8.895   7.739  0.0632  0.4654  0.3025
  876MOL0     H20866   6.669   8.784   7.940  0.0759 -1.1721  1.4032
  876MOL0     H20867   6.613   8.662   7.826 -1.3982 -0.1552  0.5189
  876MOL0     H20868   6.749   9.639   7.402 -0.1729  0.7797 -0.3081
  876MOL0     H20869   6.846   9.661   7.169  0.0827 -0.0182  0.3078
  876MOL0     H20870   7.053   9.453   6.748  1.2794  0.5551 -1.0904
  876MOL0     H20871   7.116   9.513   6.510  1.7661  4.8193 -0.2801
  876MOL0     H20872   8.458   9.962   5.412 -0.1875 -1.9974  0.8288
  876MOL0     H20873   8.697   9.978   5.429  1.5720  1.2753 -0.6385
  876MOL0     H20874   9.097   9.878   5.074  3.6183 -0.3207 -2.7762
  876MOL0     H20875   9.344   9.882   5.067  1.6524  1.4614  1.7616
  876MOL0     H20876   9.585   9.732   5.230  2.1831  0.3156  0.1232
  876MOL0     H20877   9.552   9.836   5.093  2.1716  3.3419 -1.2736
  876MOL0     H20878   9.805   9.801   5.178  1.2592 -0.0190 -0.1112
  876MOL0     H20879   9.759   9.920   5.293 -0.7588 -1.6723  0.7466
  876MOL0     H20880   9.664  10.051   5.077 -1.2049 -0.9918 -0.6665
  876MOL0     H20881   9.838  10.064   5.119  0.3385 -0.4135 -3.9370
  876MOL0     H20882   9.764  10.020   4.879 -2.1026 -1.5915 -0.1255
  876MOL0     H20883   9.731   9.857   4.929 -0.6798  0.6539 -0.7137
  876MOL0     H20884  10.141   9.839   4.890 -0.9468 -2.1106 -1.6086
  876MOL0     H20885   9.352   9.936   5.490  2.2187 -0.2909 -0.5855
  876MOL0     H20886   9.059   9.763   5.565  2.8050 -1.3123  1.6521
  876MOL0     H20887   9.181   9.880   5.623  0.8210 -1.0671 -1.0819
  876MOL0     H20888   9.032   9.945   5.563 -0.9136 -0.8607  0.4321
  877MOL0     O20889   9.597   9.485   9.917  0.1003 -0.7615 -0.1989
  877MOL0     C20890   9.531   9.412   9.994 -0.0470 -0.0050 -0.2357
  877MOL0     O20891   9.584   9.350  10.109  0.7290  0.3730  0.1179
  877MOL0     C20892   9.693   9.402  10.168  1.1408  0.0461 -0.2957
  877MOL0     C20893   9.814   9.396  10.105 -0.9921 -0.2655 -0.9402
  877MOL0     C20894   9.928   9.438  10.181  0.6065 -0.9474 -0.8638
  877MOL0     C20895   9.902   9.485  10.313  0.3092 -0.7873  0.1155
  877MOL0     O20896  10.007   9.556  10.367 -0.0026  0.7157 -0.5477
  877MOL0     C20897  10.036   9.541  10.513 -0.7770 -0.7846  0.2102
  877MOL0     C20898  10.155   9.605  10.573 -0.6666 -0.3136  0.3001
  877MOL0     C20899  10.148   9.764  10.567  0.2163 -0.3234  0.3012
  877MOL0     C20900  10.281   9.816  10.628 -0.1119  0.1906 -0.2350
  877MOL0     C20901  10.290   9.962  10.597  0.5320 -0.7009 -0.7171
  877MOL0     C20902  10.432  10.016  10.575 -0.5832 -0.5305  0.4545
  877MOL0     C20903  10.531   9.997  10.694  0.3063 -0.3453  1.0796
  877MOL0     C20904  10.665  10.067  10.655  0.2475 -0.2498 -0.0744
  877MOL0     N20905  10.769  10.068  10.761  1.1454  1.0735 -0.3137
  877MOL0     C20906  10.848   9.964  10.803 -0.2005  0.2422  0.2050
  877MOL0     C20907  10.906  10.009  10.912  0.3870  0.2795  0.0295
  877MOL0     C20908  10.990   9.930  11.008 -0.2872  0.3163 -0.0717
  877MOL0     C20909  11.131   9.944  10.993 -0.1180 -0.4207  0.4396
  877MOL0     C20910  11.211   9.891  10.871  0.0828  0.1511  0.2466
  877MOL0     C20911  11.364   9.933  10.870 -0.1180 -0.3262 -0.8933
  877MOL0     O20912  11.357  10.079  10.866 -0.1457  0.7780 -0.1901
  877MOL0     C20913  11.461  10.142  10.811 -0.0652  0.2306  0.0710
  877MOL0     C20914  11.435  10.214  10.698 -0.3798  0.1782 -0.2505
  877MOL0     C20915  11.546  10.279  10.626 -0.4535  0.0952 -0.8153
  877MOL0     C20916  11.522  10.352  10.503 -0.0847  0.8434  0.1984
  877MOL0     C20917  11.678  10.272  10.684  0.3854  0.2703  0.2408
  877MOL0     C20918  11.792  10.330  10.618  0.6042 -0.8774 -0.2994
  877MOL0     O20919  11.891  10.244  10.586  0.2656 -0.3511  0.4550
  877MOL0     C20920  12.016  10.279  10.540  0.5536 -0.5171 -0.3432
  877MOL0     C20921  12.073  10.211  10.436 -0.4569 -0.7399 -0.5733
  877MOL0     C20922  12.209  10.232  10.404 -0.4716 -0.1648 -0.2144
  877MOL0     C20923  12.292  10.324  10.490  0.1057 -0.6980  0.2579
  877MOL0     O20924  12.423  10.344  10.466  0.2330 -1.2030  1.1882
  877MOL0     C20925  12.490  10.288  10.350  0.0174 -0.5490  0.7355
  877MOL0     C20926  12.631  10.328  10.367 -0.4505 -0.1611  0.1557
  877MOL0     C20927  12.710  10.243  10.269 -0.8129 -0.4030 -0.3410
  877MOL0     C20928  12.845  10.293  10.239  0.1275 -0.1328  0.4281
  877MOL0     C20929  12.907  10.226  10.116 -0.6569  0.5111 -0.2662
  877MOL0     C20930  13.044  10.290  10.109 -0.3831 -1.1574 -0.6369
  877MOL0     C20931  13.129  10.203  10.015 -0.7129  0.3722 -0.1380
  877MOL0     C20932  13.090  10.218   9.875 -0.3085 -0.2069  0.1351
  877MOL0    Cl20933  13.119  10.384   9.814  0.3832 -0.0188  0.0518
  877MOL0     C20934  12.227  10.380  10.603 -0.2423  0.1585 -0.6597
  877MOL0     C20935  12.091  10.362  10.620 -0.3070  0.8114 -0.4347
  877MOL0     O20936  11.801  10.454  10.607 -0.5956 -0.3527 -0.1380
  877MOL0     C20937  11.704  10.184  10.795 -0.9437 -0.4547  0.6755
  877MOL0     C20938  11.598  10.125  10.853  0.8325  0.8491 -0.2504
  877MOL0     N20939  10.868  10.136  10.942 -0.0731 -0.8418  1.3552
  877MOL0     N20940  10.780  10.171  10.850 -0.0684 -0.3175  0.2482
  877MOL0     C20941   9.776   9.474  10.375 -0.0998  0.2196  0.0566
  877MOL0     C20942   9.661   9.434  10.299 -0.5919 -0.6232 -0.1849
  877MOL0     C20943   9.388   9.376   9.964 -0.3959 -0.1421 -0.0108
  877MOL0     C20944   9.296   9.360  10.075  0.5924  0.6263 -0.0869
  877MOL0     C20945   9.162   9.336  10.052  0.2252  0.8383  0.2034
  877MOL0     C20946   9.123   9.320   9.927  0.1523 -0.0530  0.0210
  877MOL0     O20947   8.989   9.290   9.917 -0.4651  0.5533 -0.3562
  877MOL0     C20948   8.942   9.243   9.793 -0.1038 -0.9838  0.8650
  877MOL0     C20949   8.792   9.199   9.807 -1.1726  0.2387 -0.5570
  877MOL0     C20950   8.780   9.066   9.880  0.5915  0.2447 -0.8799
  877MOL0     C20951   8.639   9.023   9.913 -0.4938  0.0419  0.1369
  877MOL0     C20952   8.549   9.014   9.794  0.3376  0.1981  0.2878
  877MOL0     C20953   8.492   9.018   9.688 -0.1501  0.4980 -0.3151
  877MOL0     C20954   9.208   9.335   9.817  0.5665 -0.1247  0.8199
  877MOL0     C20955   9.341   9.373   9.837  0.1765  0.1346 -0.6795
  877MOL0     C20956   9.413   9.411   9.711  0.0784  0.8125  0.6562
  877MOL0     H20957   9.822   9.378   9.999  0.7334 -0.8740 -0.7357
  877MOL0     H20958  10.027   9.455  10.140 -0.1887  0.7861 -2.2048
  877MOL0     H20959  10.038   9.433  10.529 -0.7354 -0.6312  1.3335
  877MOL0     H20960   9.953   9.582  10.571 -1.9014  1.8251 -2.9585
  877MOL0     H20961  10.173   9.586  10.679  2.2899  0.1178 -0.0623
  877MOL0     H20962  10.240   9.566  10.517  0.6741 -2.5151  3.5770
  877MOL0     H20963  10.128   9.809  10.470  0.6148 -1.3793 -0.2876
  877MOL0     H20964  10.068   9.806  10.628  0.6977  1.9304 -0.5353
  877MOL0     H20965  10.296   9.800  10.735 -0.3382 -0.3180 -0.2746
  877MOL0     H20966  10.355   9.771  10.560  0.4344  2.1019 -0.9526
  877MOL0     H20967  10.244  10.014  10.681  1.3309 -1.6571  0.3651
  877MOL0     H20968  10.227   9.989  10.512 -0.1112  0.7282  0.1899
  877MOL0     H20969  10.475   9.966  10.488  2.3974  1.3302  0.7576
  877MOL0     H20970  10.417  10.123  10.560 -0.3395 -0.6861 -1.0592
  877MOL0     H20971  10.533   9.890  10.714 -0.8399 -0.6659 -0.3956
  877MOL0     H20972  10.497  10.054  10.781 -1.0014 -0.2759  0.5385
  877MOL0     H20973  10.694  10.011  10.566  0.8467 -1.9978  1.1624
  877MOL0     H20974  10.648  10.168  10.617 -4.8951 -0.9026 -0.2378
  877MOL0     H20975  10.864   9.864  10.765 -1.1337 -0.4283  1.5047
  877MOL0     H20976  10.970   9.824  10.991 -1.8804  0.6141 -0.1726
  877MOL0     H20977  10.955   9.965  11.105 -0.6358  1.6964 -0.6708
  877MOL0     H20978  11.143  10.053  11.001 -3.5765  0.5948 -4.0646
  877MOL0     H20979  11.172   9.889  11.078 -2.3362 -3.0888 -0.0887
  877MOL0     H20980  11.217   9.783  10.882 -1.6502  0.1059  1.0987
  877MOL0     H20981  11.170   9.918  10.773  2.1722  1.1049 -0.4208
  877MOL0     H20982  11.410   9.894  10.961 -2.0149 -3.0624 -0.9773
  877MOL0     H20983  11.426   9.901  10.786  1.4832 -1.3147  0.6087
  877MOL0     H20984  11.339  10.225  10.649 -1.5031  1.3101  2.0614
  877MOL0     H20985  11.609  10.351  10.438 -0.4371 -0.5032 -0.2844
  877MOL0     H20986  11.486  10.454  10.517 -4.0123  0.1717 -2.9786
  877MOL0     H20987  11.439  10.305  10.448  0.4994 -0.5183  0.4411
  877MOL0     H20988  12.015  10.157  10.361  1.5972 -0.8675 -2.1704
  877MOL0     H20989  12.239  10.198  10.306 -0.8300 -2.1191  0.3252
  877MOL0     H20990  12.488  10.178  10.351  2.0444 -0.6251  2.5275
  877MOL0     H20991  12.453  10.330  10.256  3.1703 -1.8581 -1.2728
  877MOL0     H20992  12.638  10.433  10.339  1.5506 -1.1892 -3.9024
  877MOL0     H20993  12.672  10.313  10.467  0.4871  3.1354  0.3568
  877MOL0     H20994  12.664  10.253  10.170 -1.3072  2.3892  0.0953
  877MOL0     H20995  12.716  10.137  10.295  0.9989  0.1693  1.8644
  877MOL0     H20996  12.902  10.265  10.328 -0.9226 -3.0612  0.2648
  877MOL0     H20997  12.835  10.402  10.230 -2.1482 -0.2577  0.9593
  877MOL0     H20998  12.914  10.119  10.135 -1.1203  0.9655  3.3357
  877MOL0     H20999  12.849  10.254  10.028 -0.7257  1.2843  0.0119
  877MOL0     H21000  13.082  10.282  10.211 -2.0428 -1.4281 -0.0216
  877MOL0     H21001  13.040  10.393  10.070  1.9330 -1.0391 -0.7265
  877MOL0     H21002  13.128  10.095  10.037  2.3612  0.0943 -0.9738
  877MOL0     H21003  13.234  10.226  10.032 -0.7848 -0.7009  2.2536
  877MOL0     H21004  12.985  10.201   9.851 -0.4923  1.9455 -0.8562
  877MOL0     H21005  13.135  10.140   9.812 -3.5205 -2.0304 -0.1017
  877MOL0     H21006  12.279  10.456  10.659 -0.0984 -1.2095  1.1527
  877MOL0     H21007  12.048  10.420  10.701 -2.7237  2.2778 -2.6030
  877MOL0     H21008  11.805  10.156  10.821 -0.9134 -1.1263 -0.1127
  877MOL0     H21009  11.605  10.062  10.941 -2.3407  1.8003  0.8242
  877MOL0     H21010   9.764   9.492  10.481  1.1335 -0.9784  0.4247
  877MOL0     H21011   9.559   9.424  10.334 -2.5025  3.8852 -3.4196
  877MOL0     H21012   9.332   9.381  10.176  0.5145  2.4417 -0.4175
  877MOL0     H21013   9.097   9.311  10.136 -0.2715 -1.0279 -0.6785
  877MOL0     H21014   8.946   9.323   9.718 -1.9876 -2.9755 -1.5253
  877MOL0     H21015   8.999   9.163   9.746  1.1972  1.7970 -2.7916
  877MOL0     H21016   8.742   9.203   9.710  1.9471 -1.5036 -2.4004
  877MOL0     H21017   8.746   9.277   9.868  1.2664 -1.0088  3.2115
  877MOL0     H21018   8.828   8.995   9.813  0.4665 -0.0963 -0.6101
  877MOL0     H21019   8.839   9.064   9.973 -1.8263  3.4537  0.9541
  877MOL0     H21020   8.596   9.107   9.969  1.5356 -0.6756  2.9880
  877MOL0     H21021   8.631   8.936   9.978  0.5604 -0.2017 -0.0493
  877MOL0     H21022   8.428   9.017   9.602  1.8930 -0.2768 -1.9191
  877MOL0     H21023   9.166   9.332   9.717  1.6756  0.2746  0.3224
  877MOL0     H21024   9.430   9.519   9.711  3.5191  0.4634 -1.6627
  877MOL0     H21025   9.513   9.365   9.711  0.0018  0.6207 -0.4321
  877MOL0     H21026   9.364   9.374   9.621  3.4105 -3.4441  0.2084
  878MOL0     O21027   5.595   4.136   1.244 -1.1847  0.3199 -0.4534
  878MOL0     C21028   5.593   4.040   1.325 -0.8173  0.4534  0.6263
  878MOL0     O21029   5.688   3.939   1.333 -0.6287  0.1961  0.1769
  878MOL0     C21030   5.793   3.952   1.242  0.3837  0.5490 -0.4760
  878MOL0     C21031   5.899   4.042   1.270  0.8612 -0.1584 -0.7667
  878MOL0     C21032   5.996   4.060   1.171  0.0982  0.4344 -1.0731
  878MOL0     C21033   6.016   3.960   1.069  0.1878 -0.1357 -0.7845
  878MOL0     O21034   6.129   3.981   0.995 -0.7570 -0.9904 -0.2059
  878MOL0     C21035   6.213   3.863   0.988  0.8334 -0.8248  0.5186
  878MOL0     C21036   6.335   3.904   0.903 -0.0980  0.1710  0.7172
  878MOL0     C21037   6.451   3.802   0.906  0.1638  0.1871 -0.1801
  878MOL0     C21038   6.578   3.838   0.848  0.4205  0.9697  0.7204
  878MOL0     C21039   6.687   3.728   0.848  0.3383  0.6561  0.5763
  878MOL0     C21040   6.756   3.699   0.981 -1.4270  0.4646 -0.0047
  878MOL0     C21041   6.836   3.829   1.015 -0.4236 -0.1330  0.2780
  878MOL0     C21042   6.965   3.797   1.091  0.2874 -0.5919 -0.8459
  878MOL0     N21043   7.057   3.914   1.105 -0.4182  1.0797 -0.2097
  878MOL0     C21044   7.066   3.986   1.218 -0.5328  0.2217  0.2800
  878MOL0     C21045   7.171   4.066   1.190  0.3420 -0.5129  0.4178
  878MOL0     C21046   7.234   4.170   1.273  0.8451  1.1544  0.6592
  878MOL0     C21047   7.327   4.110   1.375 -0.0643  1.4483 -0.2670
  878MOL0     C21048   7.372   4.221   1.463 -0.4572 -0.0794  0.3082
  878MOL0     C21049   7.472   4.187   1.575 -0.0370 -0.3488 -0.5199
  878MOL0     O21050   7.488   4.289   1.675 -0.5702 -1.1399 -0.3712
  878MOL0     C21051   7.488   4.255   1.808  0.1384 -0.0931 -0.5629
  878MOL0     C21052   7.460   4.351   1.907 -0.1774  0.4883 -0.1168
  878MOL0     C21053   7.449   4.328   2.045  0.4436 -0.2249  0.4638
  878MOL0     C21054   7.395   4.444   2.136 -0.0606  0.5670 -0.8581
  878MOL0     C21055   7.458   4.197   2.090  0.4017  0.1659  0.3027
  878MOL0     C21056   7.444   4.164   2.246  0.1095 -0.3713  0.5645
  878MOL0     O21057   7.453   4.259   2.354 -1.2115 -0.7181 -0.5597
  878MOL0     C21058   7.397   4.214   2.464 -1.1314  0.0216  0.2157
  878MOL0     C21059   7.260   4.177   2.488  0.2152 -0.2609  0.3372
  878MOL0     C21060   7.232   4.116   2.611  0.0202 -1.2385 -0.2203
  878MOL0     C21061   7.328   4.098   2.708  0.3456  0.4200 -0.2710
  878MOL0     O21062   7.274   4.052   2.830  0.4234 -0.2857  0.0975
  878MOL0     C21063   7.366   3.998   2.935 -0.4540 -0.2094 -0.9066
  878MOL0     C21064   7.286   3.887   3.008 -0.4797  0.3295  0.1450
  878MOL0     C21065   7.358   3.779   3.093 -0.3536 -0.4596 -0.2474
  878MOL0     C21066   7.376   3.805   3.240  0.1945 -0.3957 -0.9741
  878MOL0     C21067   7.487   3.907   3.280  0.2967 -0.2713 -0.0534
  878MOL0     C21068   7.519   3.906   3.434 -0.3897  0.2761  0.3036
  878MOL0     C21069   7.396   3.927   3.523 -0.6304 -0.1654 -0.7720
  878MOL0     C21070   7.432   3.976   3.666  0.2885  0.0244  0.6105
  878MOL0    Cl21071   7.533   3.861   3.745 -0.2729  0.3741 -0.5300
  878MOL0     C21072   7.461   4.135   2.685 -0.2476  0.1958  0.4981
  878MOL0     C21073   7.492   4.189   2.562  0.6777  0.2509 -0.6178
  878MOL0     O21074   7.410   4.046   2.259 -0.1180  0.6215 -0.5651
  878MOL0     C21075   7.481   4.099   1.997 -0.4093 -0.5652 -0.1715
  878MOL0     C21076   7.509   4.125   1.861 -0.1821  0.2479  0.4236
  878MOL0     N21077   7.218   4.034   1.064 -0.0413  0.1408 -0.9952
  878MOL0     N21078   7.153   3.927   1.020 -0.3769 -0.4553  0.4166
  878MOL0     C21079   5.915   3.862   1.054  0.6281  0.7141  0.3216
  878MOL0     C21080   5.801   3.862   1.141  0.2145 -0.3716  0.9739
  878MOL0     C21081   5.475   4.013   1.403  0.2624  0.1312  0.3015
  878MOL0     C21082   5.430   3.881   1.432 -0.1424 -0.1337  0.9903
  878MOL0     C21083   5.310   3.851   1.488  0.1306 -1.1385 -0.9749
  878MOL0     C21084   5.214   3.956   1.494  0.4164  0.0249 -0.6765
  878MOL0     O21085   5.082   3.943   1.549 -0.1870 -0.9264  0.6191
  878MOL0     C21086   5.034   3.811   1.586 -1.0140  0.5990  0.0292
  878MOL0     C21087   4.905   3.826   1.663  0.9418 -0.2664  0.4082
  878MOL0     C21088   4.943   3.882   1.801 -0.4962  0.5778  0.5975
  878MOL0     C21089   4.856   3.823   1.912 -0.0016 -0.4364  0.8601
  878MOL0     C21090   4.718   3.877   1.900  0.0849  1.4017  0.3650
  878MOL0     C21091   4.610   3.934   1.881 -0.0333  0.3623  0.2372
  878MOL0     C21092   5.260   4.087   1.474 -0.2584  0.0078 -0.0887
  878MOL0     C21093   5.391   4.119   1.437 -0.2010  0.1970 -0.3954
  878MOL0     C21094   5.416   4.271   1.424 -0.3673 -0.7490 -0.6675
  878MOL0     H21095   5.894   4.102   1.360 -1.8307 -2.2112  0.6015
  878MOL0     H21096   6.074   4.135   1.183  0.4842  0.1135 -1.5173
  878MOL0     H21097   6.148   3.782   0.955 -3.1662  1.9954  0.7344
  878MOL0     H21098   6.257   3.857   1.088 -0.3490 -0.0174  1.1073
  878MOL0     H21099   6.305   3.932   0.802  0.7173  0.7890  0.6399
  878MOL0     H21100   6.375   3.995   0.948  1.3460  0.3149 -0.7592
  878MOL0     H21101   6.465   3.803   1.014  2.1207  1.7320 -0.3873
  878MOL0     H21102   6.419   3.706   0.864  1.4488  0.4850 -1.9686
  878MOL0     H21103   6.567   3.847   0.739  4.1011  0.2534  0.1311
  878MOL0     H21104   6.610   3.929   0.899 -0.7340  0.1472  3.0076
  878MOL0     H21105   6.764   3.756   0.776  0.1106  2.2719  0.9407
  878MOL0     H21106   6.641   3.636   0.809 -1.1357  0.6923  2.1048
  878MOL0     H21107   6.685   3.674   1.061  0.6928 -1.0470  1.5142
  878MOL0     H21108   6.827   3.618   0.961 -2.1829 -0.0522 -0.6797
  878MOL0     H21109   6.778   3.881   1.092  0.0393  0.7138  0.0617
  878MOL0     H21110   6.860   3.886   0.925 -1.1978 -2.7372 -1.7168
  878MOL0     H21111   6.932   3.753   1.186 -1.2667  1.4417 -0.3798
  878MOL0     H21112   7.021   3.721   1.035  0.1131  0.1744 -2.1016
  878MOL0     H21113   7.001   3.976   1.305 -1.8543  3.5128 -0.2008
  878MOL0     H21114   7.152   4.230   1.314 -0.0178  0.6593 -0.2706
  878MOL0     H21115   7.290   4.234   1.205  1.2287 -1.1376 -1.3422
  878MOL0     H21116   7.282   4.031   1.436  2.4355  1.9568  2.4319
  878MOL0     H21117   7.413   4.058   1.331 -0.0954 -1.3912  2.6107
  878MOL0     H21118   7.416   4.296   1.398 -2.8362  0.7918 -0.3872
  878MOL0     H21119   7.288   4.276   1.506  0.0391  0.3081  0.8172
  878MOL0     H21120   7.423   4.104   1.627 -1.0401  1.1156  0.9718
  878MOL0     H21121   7.567   4.165   1.524  0.4245 -0.2202  0.2757
  878MOL0     H21122   7.433   4.449   1.870 -0.9543 -0.2811 -1.6737
  878MOL0     H21123   7.311   4.412   2.198  0.8670 -1.7648 -0.7326
  878MOL0     H21124   7.362   4.525   2.070  1.0833  0.3082 -1.7790
  878MOL0     H21125   7.476   4.475   2.204 -0.3036 -1.4486  0.4412
  878MOL0     H21126   7.176   4.170   2.419 -1.1352 -1.6316  2.0254
  878MOL0     H21127   7.127   4.093   2.622 -0.2121 -1.0829 -1.8356
  878MOL0     H21128   7.454   3.953   2.888 -0.0787  1.4601 -1.8735
  878MOL0     H21129   7.382   4.083   3.002 -0.6302 -1.6913  1.0982
  878MOL0     H21130   7.214   3.929   3.078 -1.1758 -0.5089 -0.0557
  878MOL0     H21131   7.223   3.827   2.941  0.5852 -1.3476  0.5949
  878MOL0     H21132   7.459   3.760   3.054 -1.4676 -0.3642 -3.4522
  878MOL0     H21133   7.292   3.693   3.087  1.2932 -1.6408 -3.7856
  878MOL0     H21134   7.399   3.713   3.294  0.2371  0.4602  0.5232
  878MOL0     H21135   7.280   3.844   3.276  0.4304 -0.4256 -0.2982
  878MOL0     H21136   7.575   3.865   3.230  0.1207 -0.4438 -0.2221
  878MOL0     H21137   7.473   4.012   3.256 -1.3401 -0.3818  0.3502
  878MOL0     H21138   7.599   3.977   3.454 -0.0392  1.0243 -3.1197
  878MOL0     H21139   7.565   3.814   3.471 -3.1800 -1.7857 -0.9430
  878MOL0     H21140   7.343   3.832   3.539  1.3627 -1.2291 -0.0494
  878MOL0     H21141   7.333   3.996   3.467 -0.4217  0.1991 -0.5625
  878MOL0     H21142   7.337   3.995   3.716 -0.4016  4.1341 -1.7764
  878MOL0     H21143   7.485   4.072   3.666  0.9803 -0.1414  4.8302
  878MOL0     H21144   7.544   4.116   2.752  0.2804 -3.0998 -0.8331
  878MOL0     H21145   7.591   4.225   2.536  0.3728  2.0690  0.5343
  878MOL0     H21146   7.495   3.995   2.025 -1.9226 -1.0834 -1.2201
  878MOL0     H21147   7.545   4.050   1.791 -1.2093 -3.4280  3.4992
  878MOL0     H21148   5.911   3.790   0.973  1.2819  0.9296  0.0890
  878MOL0     H21149   5.728   3.782   1.131 -0.5243  0.3470  0.5187
  878MOL0     H21150   5.497   3.797   1.413  1.5467  1.4212 -0.3562
  878MOL0     H21151   5.276   3.751   1.511  0.2220 -1.3988 -1.9249
  878MOL0     H21152   5.017   3.754   1.494 -2.3786  0.4196  0.3633
  878MOL0     H21153   5.112   3.758   1.641 -0.3831 -0.5594 -1.8930
  878MOL0     H21154   4.861   3.726   1.665 -0.0478  0.1727  1.2384
  878MOL0     H21155   4.836   3.890   1.607  0.7668 -0.1537  0.7557
  878MOL0     H21156   5.048   3.856   1.816  0.8157  1.7042 -4.7802
  878MOL0     H21157   4.925   3.989   1.797  1.9003  0.9879 -1.4862
  878MOL0     H21158   4.891   3.857   2.010 -0.1757 -1.5822  1.3363
  878MOL0     H21159   4.870   3.714   1.915  0.7740 -0.3601  0.2466
  878MOL0     H21160   4.512   3.972   1.862  0.8337  2.9687  0.5771
  878MOL0     H21161   5.194   4.172   1.488 -0.1776  0.0731 -0.0964
  878MOL0     H21162   5.364   4.324   1.504  2.5225 -0.4969  1.1926
  878MOL0     H21163   5.520   4.305   1.416 -1.0838  1.3197 -1.6632
  878MOL0     H21164   5.371   4.303   1.330  1.2020 -0.2917 -1.2916
  879MOL0     O21165   3.876   8.636   1.568 -0.0362  1.0169 -0.1602
  879MOL0     C21166   3.852   8.568   1.466  0.2036 -0.2677 -0.2051
  879MOL0     O21167   3.918   8.456   1.426 -0.0962  0.1804 -0.1659
  879MOL0     C21168   4.020   8.415   1.507 -0.3230  1.1220  0.2589
  879MOL0     C21169   4.149   8.401   1.444  0.5445  0.5567 -0.3005
  879MOL0     C21170   4.259   8.363   1.520  0.2350  0.2254  0.4618
  879MOL0     C21171   4.255   8.326   1.652  0.5934  0.5365 -0.0809
  879MOL0     O21172   4.365   8.280   1.720  0.3462 -0.1272 -0.7613
  879MOL0     C21173   4.352   8.155   1.796 -0.3985 -0.0321  0.6015
  879MOL0     C21174   4.491   8.114   1.844 -0.3780  0.7094 -0.0939
  879MOL0     C21175   4.569   8.223   1.925 -0.6300  0.4270 -0.3707
  879MOL0     C21176   4.523   8.243   2.074  0.1119 -0.5635 -0.3582
  879MOL0     C21177   4.423   8.345   2.089 -0.1244 -0.4020  0.3344
  879MOL0     C21178   4.404   8.364   2.243  0.6556 -0.2926 -0.3192
  879MOL0     C21179   4.293   8.465   2.271 -0.8667  0.6978  0.6209
  879MOL0     C21180   4.315   8.611   2.211  0.2069  0.6406  0.1034
  879MOL0     N21181   4.438   8.673   2.261  0.8459  0.4762 -0.7197
  879MOL0     C21182   4.550   8.660   2.203 -0.0453  0.4646 -0.1722
  879MOL0     C21183   4.646   8.705   2.285  0.2859 -0.9470 -0.2865
  879MOL0     C21184   4.789   8.693   2.267 -0.9332 -0.2565 -0.4399
  879MOL0     C21185   4.837   8.565   2.189  0.4473 -0.3050  0.3240
  879MOL0     C21186   4.830   8.450   2.285  0.4927  0.1741 -0.4191
  879MOL0     C21187   4.900   8.330   2.229  0.0478  0.1391  0.0701
  879MOL0     O21188   5.035   8.340   2.264 -0.1514  0.2778 -0.4288
  879MOL0     C21189   5.082   8.314   2.393  0.0019 -0.0060  0.7057
  879MOL0     C21190   5.219   8.306   2.411 -0.4629 -0.2265 -0.2365
  879MOL0     C21191   5.279   8.289   2.536  0.0683  0.2489 -0.1031
  879MOL0     C21192   5.435   8.299   2.526  0.2210 -0.2489 -0.4576
  879MOL0     C21193   5.192   8.265   2.647 -0.7267 -0.0201 -0.4987
  879MOL0     C21194   5.250   8.228   2.776  0.3764  0.1877 -0.5623
  879MOL0     O21195   5.164   8.178   2.872  0.2096 -0.0421  0.4346
  879MOL0     C21196   5.202   8.124   2.995  0.5913 -0.3417 -0.0750
  879MOL0     C21197   5.336   8.078   3.024  0.0132 -0.5547  0.1568
  879MOL0     C21198   5.379   8.045   3.150  0.2882 -0.0757  0.1451
  879MOL0     C21199   5.284   8.043   3.252  0.1633 -0.3859  0.1023
  879MOL0     O21200   5.329   8.017   3.376  0.1668  0.2621 -0.5114
  879MOL0     C21201   5.239   7.950   3.472  0.1661 -0.2375  0.7252
  879MOL0     C21202   5.321   7.891   3.586  0.5917  0.5659 -0.0176
  879MOL0     C21203   5.230   7.820   3.700  0.3658 -0.0652  0.4929
  879MOL0     C21204   5.315   7.764   3.811 -0.3102 -1.0036 -0.4116
  879MOL0     C21205   5.395   7.636   3.765  0.7171 -0.8968 -0.0497
  879MOL0     C21206   5.416   7.536   3.880  0.1934  0.5346 -0.5217
  879MOL0     C21207   5.560   7.547   3.939  0.4878 -0.0564  0.0442
  879MOL0     C21208   5.609   7.688   3.989  0.7326  0.0306 -0.3790
  879MOL0    Cl21209   5.487   7.763   4.093 -0.3556 -0.0120 -0.2526
  879MOL0     C21210   5.155   8.077   3.221  0.2319  0.3565 -0.0502
  879MOL0     C21211   5.106   8.111   3.094  0.2561 -0.4087  0.0636
  879MOL0     O21212   5.371   8.243   2.789  0.2302 -0.6074 -0.6502
  879MOL0     C21213   5.051   8.262   2.625 -0.9790 -0.6997  0.1245
  879MOL0     C21214   4.996   8.282   2.499  0.0995  0.0090 -0.1713
  879MOL0     N21215   4.591   8.751   2.403  0.2769  0.4063 -1.1514
  879MOL0     N21216   4.462   8.732   2.387 -0.2181  0.7741  0.2984
  879MOL0     C21217   4.121   8.328   1.707  0.1235 -0.5790 -0.0284
  879MOL0     C21218   4.001   8.374   1.636  0.7522  0.5093 -0.9808
  879MOL0     C21219   3.744   8.619   1.371  1.0153  0.4193 -0.4246
  879MOL0     C21220   3.716   8.542   1.256 -0.6809 -0.5544  0.5345
  879MOL0     C21221   3.619   8.578   1.162 -0.0993 -0.2373  0.2659
  879MOL0     C21222   3.543   8.692   1.173 -0.0840  0.0063  0.2668
  879MOL0     O21223   3.453   8.718   1.075  0.3774  0.2823  0.3242
  879MOL0     C21224   3.387   8.847   1.059  0.0705  0.0797  0.2607
  879MOL0     C21225   3.269   8.861   1.154  0.0966  0.1093  0.0778
  879MOL0     C21226   3.134   8.817   1.093 -0.9503 -0.2560 -0.2516
  879MOL0     C21227   3.131   8.681   1.023  0.5781 -0.3977 -0.6794
  879MOL0     C21228   3.009   8.653   0.948  0.1717  0.7513 -0.6009
  879MOL0     C21229   2.906   8.639   0.879  0.3528 -0.3164 -1.2038
  879MOL0     C21230   3.553   8.766   1.287 -0.9022  0.4933 -0.5188
  879MOL0     C21231   3.661   8.736   1.383 -1.0472  0.2783 -0.0513
  879MOL0     C21232   3.689   8.825   1.503  0.5820  0.1741 -0.3705
  879MOL0     H21233   4.160   8.442   1.345  2.7962  2.1848  0.5493
  879MOL0     H21234   4.350   8.350   1.464 -1.0503  2.0094 -2.2750
  879MOL0     H21235   4.303   8.081   1.732 -1.8272  1.4998 -0.1580
  879MOL0     H21236   4.290   8.169   1.884 -1.4398 -2.8492  0.3936
  879MOL0     H21237   4.476   8.020   1.897 -3.7620 -0.1365 -2.2458
  879MOL0     H21238   4.556   8.089   1.759 -0.9116  0.8211 -0.5374
  879MOL0     H21239   4.672   8.187   1.914  0.2096  2.9999 -1.7258
  879MOL0     H21240   4.553   8.313   1.865 -4.2210 -0.5817 -1.1319
  879MOL0     H21241   4.498   8.148   2.121 -1.4858  0.0498  0.0852
  879MOL0     H21242   4.610   8.285   2.127 -1.4391  2.2143  0.1961
  879MOL0     H21243   4.328   8.307   2.049 -0.5959  1.7980 -0.8046
  879MOL0     H21244   4.464   8.437   2.046 -0.3705 -0.1672  0.5899
  879MOL0     H21245   4.383   8.264   2.281  2.8909 -1.1610 -1.2066
  879MOL0     H21246   4.491   8.409   2.292 -2.1168  1.3840  3.5519
  879MOL0     H21247   4.293   8.482   2.379 -1.0585  0.2169  0.6971
  879MOL0     H21248   4.206   8.419   2.224 -0.9291  1.0668  0.3690
  879MOL0     H21249   4.308   8.602   2.103  2.6097 -1.6015  0.0336
  879MOL0     H21250   4.228   8.668   2.245  0.0155  2.3660 -2.9611
  879MOL0     H21251   4.574   8.596   2.118  1.4523 -1.5919  1.6733
  879MOL0     H21252   4.834   8.697   2.366 -1.0797 -0.4630 -0.3638
  879MOL0     H21253   4.809   8.776   2.199  0.1346 -0.7703 -0.7849
  879MOL0     H21254   4.784   8.545   2.095  1.9177  0.4301 -0.6948
  879MOL0     H21255   4.940   8.581   2.156  0.7657 -1.0081  0.9447
  879MOL0     H21256   4.865   8.495   2.379 -2.3547  0.9161  0.3835
  879MOL0     H21257   4.731   8.404   2.292  1.1163 -1.1985 -0.1027
  879MOL0     H21258   4.853   8.234   2.255 -1.9915  0.3849 -2.3448
  879MOL0     H21259   4.896   8.325   2.120  1.6224 -0.1888  0.0034
  879MOL0     H21260   5.285   8.319   2.326 -2.2924 -0.5879 -1.7759
  879MOL0     H21261   5.459   8.340   2.428 -1.4816  2.2846  0.0755
  879MOL0     H21262   5.487   8.202   2.528  0.6207 -0.0575  1.7593
  879MOL0     H21263   5.483   8.357   2.605 -1.6809  2.5115 -1.2054
  879MOL0     H21264   5.389   8.064   2.931 -0.6094  2.5881 -0.7844
  879MOL0     H21265   5.482   8.012   3.160  0.8799  1.1945 -1.4597
  879MOL0     H21266   5.164   8.018   3.512 -0.7857 -2.4079  2.9103
  879MOL0     H21267   5.179   7.864   3.439  2.2726 -2.9208  3.3804
  879MOL0     H21268   5.396   7.826   3.540  1.4934 -0.3395  2.5052
  879MOL0     H21269   5.372   7.975   3.635  0.0348  0.2851  1.0881
  879MOL0     H21270   5.179   7.733   3.657  2.8134 -1.3596  0.0214
  879MOL0     H21271   5.159   7.895   3.736  0.8310  0.1115  1.0548
  879MOL0     H21272   5.252   7.735   3.895 -0.4951  1.9822  0.5689
  879MOL0     H21273   5.370   7.849   3.853 -0.7115 -0.9372 -0.0088
  879MOL0     H21274   5.325   7.582   3.702 -1.2439  2.8542 -1.4160
  879MOL0     H21275   5.481   7.663   3.702  0.4322  2.1829  0.6952
  879MOL0     H21276   5.418   7.436   3.836  1.9868  1.4171 -2.6599
  879MOL0     H21277   5.345   7.527   3.962 -2.6609  0.9751 -2.7922
  879MOL0     H21278   5.633   7.514   3.864 -0.0685  1.2279 -1.0932
  879MOL0     H21279   5.558   7.477   4.023  1.8833 -1.0285 -0.6794
  879MOL0     H21280   5.628   7.768   3.917 -0.5389  2.7133  2.0260
  879MOL0     H21281   5.696   7.669   4.052 -0.1239  0.7027  1.0701
  879MOL0     H21282   5.087   8.084   3.306  0.4330 -1.3877  0.2731
  879MOL0     H21283   5.001   8.141   3.103  0.5495  0.1465  2.1603
  879MOL0     H21284   4.989   8.233   2.709  0.5708 -3.3612  0.4361
  879MOL0     H21285   4.891   8.258   2.486 -0.0699 -1.6820  3.3783
  879MOL0     H21286   4.106   8.303   1.812  2.0290  1.1866  0.7378
  879MOL0     H21287   3.904   8.372   1.685  0.2523  2.7885 -1.7474
  879MOL0     H21288   3.766   8.451   1.227  0.1258 -0.6646  2.1738
  879MOL0     H21289   3.603   8.521   1.071  0.5344  1.0431 -0.6686
  879MOL0     H21290   3.460   8.927   1.064 -0.4790  0.5491  1.2134
  879MOL0     H21291   3.340   8.846   0.960 -1.6039 -3.1355  0.9369
  879MOL0     H21292   3.262   8.966   1.181 -1.8796  0.7285 -2.4105
  879MOL0     H21293   3.274   8.787   1.234 -0.5181 -1.5093 -1.3127
  879MOL0     H21294   3.063   8.830   1.175  0.1698 -0.2736  0.7366
  879MOL0     H21295   3.125   8.891   1.013  2.3240 -1.0267 -1.5111
  879MOL0     H21296   3.143   8.608   1.104  0.9299  0.3413 -0.0492
  879MOL0     H21297   3.202   8.670   0.941 -3.1677 -1.3395 -4.1289
  879MOL0     H21298   2.820   8.641   0.815  1.3249  0.8465 -2.5196
  879MOL0     H21299   3.482   8.845   1.307 -0.0851  1.1659 -0.2007
  879MOL0     H21300   3.616   8.905   1.513  1.1382  0.5452  1.0247
  879MOL0     H21301   3.680   8.758   1.590  0.4061  2.2688  1.3194
  879MOL0     H21302   3.786   8.875   1.506 -0.0666  1.4378  0.2677
  880MOL0     O21303  10.914   7.651   7.349 -0.1497  0.1775  0.8285
  880MOL0     C21304  10.918   7.673   7.226  0.1147  0.3582 -0.0140
  880MOL0     O21305  11.014   7.735   7.158 -0.3196  0.2180  0.4630
  880MOL0     C21306  11.148   7.734   7.194  0.3456  0.1266  0.7191
  880MOL0     C21307  11.211   7.629   7.259 -0.1690 -0.6463 -0.9377
  880MOL0     C21308  11.349   7.625   7.272  0.4514  0.9064 -0.5324
  880MOL0     C21309  11.435   7.729   7.222  0.1460  0.1462  0.2507
  880MOL0     O21310  11.573   7.722   7.243 -0.0066  0.2131 -0.7781
  880MOL0     C21311  11.655   7.834   7.205 -1.0758  0.3401 -0.0114
  880MOL0     C21312  11.800   7.807   7.247 -1.0772  0.8470  0.5618
  880MOL0     C21313  11.923   7.883   7.174  0.3738 -1.0816  0.1151
  880MOL0     C21314  12.048   7.804   7.193 -0.2307 -0.3979  0.0867
  880MOL0     C21315  12.176   7.868   7.132  0.1421  0.0457 -0.8420
  880MOL0     C21316  12.291   7.775   7.120 -1.7106 -0.1179 -0.6131
  880MOL0     C21317  12.420   7.843   7.077  0.0641  0.2775 -0.6264
  880MOL0     C21318  12.532   7.737   7.068 -0.1068  0.2916 -0.1740
  880MOL0     N21319  12.648   7.778   6.987  0.0470  0.2683  0.3715
  880MOL0     C21320  12.643   7.839   6.863  0.0529  0.1649  0.6682
  880MOL0     C21321  12.773   7.861   6.828 -0.5141 -0.1137  0.5268
  880MOL0     C21322  12.825   7.906   6.690  0.6750  0.6717 -0.3414
  880MOL0     C21323  12.803   8.058   6.677 -0.0435  0.0718  0.8124
  880MOL0     C21324  12.904   8.138   6.758  0.1676 -0.3902 -0.5921
  880MOL0     C21325  12.897   8.280   6.696  0.2117  0.8113 -0.7302
  880MOL0     O21326  12.990   8.373   6.754 -0.6407  0.3740 -0.3034
  880MOL0     C21327  13.016   8.496   6.695  0.7702 -0.4857 -0.2408
  880MOL0     C21328  13.137   8.556   6.707  0.4604 -0.4431 -0.2800
  880MOL0     C21329  13.171   8.679   6.647 -0.2777  0.0780 -0.5446
  880MOL0     C21330  13.312   8.722   6.661 -0.7137 -0.0934 -0.7924
  880MOL0     C21331  13.070   8.757   6.582 -0.1414  0.1400  0.7675
  880MOL0     C21332  13.093   8.883   6.510 -0.6175 -0.2984 -0.6409
  880MOL0     O21333  13.031   8.889   6.390 -1.0853 -0.3220  0.0897
  880MOL0     C21334  13.053   9.006   6.319  0.4417 -0.5723 -0.4417
  880MOL0     C21335  12.948   9.093   6.286 -0.0507 -0.7885  0.2481
  880MOL0     C21336  12.976   9.211   6.225  0.6155  1.3444  0.1186
  880MOL0     C21337  13.099   9.244   6.185 -0.7768  0.4571 -0.7328
  880MOL0     O21338  13.120   9.367   6.135  0.4247  0.0756  0.2181
  880MOL0     C21339  13.250   9.400   6.082 -0.2192 -0.0691 -0.1179
  880MOL0     C21340  13.261   9.393   5.925  0.1859 -0.2173 -0.1652
  880MOL0     C21341  13.183   9.488   5.839 -0.2689 -1.2073 -0.3653
  880MOL0     C21342  13.041   9.437   5.804  0.2815  0.4628  0.1099
  880MOL0     C21343  13.045   9.342   5.685 -0.0003  0.4710 -0.0847
  880MOL0     C21344  13.056   9.414   5.549 -0.2040 -0.5948 -1.2174
  880MOL0     C21345  13.096   9.312   5.442 -0.6793 -0.6256 -0.1035
  880MOL0     C21346  13.136   9.371   5.309  0.1526  0.1749  0.7184
  880MOL0    Cl21347  13.295   9.443   5.286  0.1699 -0.2504 -0.3117
  880MOL0     C21348  13.210   9.151   6.202 -0.2943  0.7421  0.2961
  880MOL0     C21349  13.177   9.028   6.260 -0.4256  0.0421 -0.8290
  880MOL0     O21350  13.164   8.970   6.568 -0.3859 -0.0151 -0.5531
  880MOL0     C21351  12.942   8.694   6.569 -0.7700  0.0979  0.6359
  880MOL0     C21352  12.916   8.563   6.622 -1.3353  0.2374  0.4184
  880MOL0     N21353  12.855   7.822   6.932  0.1466  0.4224  1.1374
  880MOL0     N21354  12.778   7.767   7.025  0.4311  0.0997  0.6947
  880MOL0     C21355  11.368   7.833   7.147 -0.0094  0.2614  0.1934
  880MOL0     C21356  11.227   7.839   7.140  0.4380  0.3873 -0.0839
  880MOL0     C21357  10.798   7.635   7.142  0.8609 -0.6720  0.1194
  880MOL0     C21358  10.727   7.516   7.159 -0.2629 -0.0177 -0.3666
  880MOL0     C21359  10.613   7.490   7.099  0.7081 -0.7651  0.7778
  880MOL0     C21360  10.550   7.577   6.999  0.2022 -0.7289 -0.7438
  880MOL0     O21361  10.434   7.563   6.931  0.0274  0.0664 -1.0096
  880MOL0     C21362  10.342   7.476   6.984 -0.0267 -0.7790  0.9422
  880MOL0     C21363  10.194   7.513   6.942 -0.0062  0.2047 -0.4318
  880MOL0     C21364  10.189   7.555   6.789  0.6580  0.7171 -0.2951
  880MOL0     C21365  10.204   7.434   6.690  0.2825 -0.5980  0.3377
  880MOL0     C21366  10.086   7.344   6.701 -0.9735  0.5702  0.0481
  880MOL0     C21367  10.005   7.254   6.727  0.2405  0.1348 -0.0622
  880MOL0     C21368  10.625   7.687   6.972  0.1605  0.1467 -0.2637
  880MOL0     C21369  10.742   7.726   7.045 -0.7225  0.7256 -1.6398
  880MOL0     C21370  10.786   7.861   7.022  0.1647 -0.2288  0.9720
  880MOL0     H21371  11.149   7.549   7.300 -0.9120  0.0327 -0.6990
  880MOL0     H21372  11.383   7.529   7.307  1.3321  1.4911  0.2544
  880MOL0     H21373  11.621   7.929   7.247  0.4244  1.2148 -0.7217
  880MOL0     H21374  11.658   7.839   7.096  1.6992 -0.6116 -0.0492
  880MOL0     H21375  11.808   7.802   7.356 -2.1266  1.1982  0.6672
  880MOL0     H21376  11.799   7.700   7.228 -1.6313  0.8535  0.5292
  880MOL0     H21377  11.899   7.899   7.069 -0.0044 -0.9068  0.2275
  880MOL0     H21378  11.930   7.981   7.223 -0.1237 -0.3284 -1.2779
  880MOL0     H21379  12.066   7.790   7.300  0.1828 -0.0469  0.0671
  880MOL0     H21380  12.034   7.711   7.137 -0.6211  0.2783 -0.9776
  880MOL0     H21381  12.208   7.950   7.196 -2.8973 -1.2749  2.7156
  880MOL0     H21382  12.145   7.906   7.034 -1.4202  0.0170 -0.3742
  880MOL0     H21383  12.305   7.730   7.219 -1.4549  2.2202  0.4776
  880MOL0     H21384  12.271   7.690   7.055  0.8779 -0.2088 -1.4126
  880MOL0     H21385  12.448   7.913   7.157 -0.5753  0.0019 -0.1430
  880MOL0     H21386  12.412   7.893   6.980  2.2529  0.7774 -0.6004
  880MOL0     H21387  12.577   7.696   7.159  2.5262 -1.1892 -2.0101
  880MOL0     H21388  12.496   7.649   7.014  0.6530  0.0548 -0.3063
  880MOL0     H21389  12.557   7.869   6.803  2.1551  0.7030 -2.3597
  880MOL0     H21390  12.766   7.847   6.620  0.6206 -0.4120  0.5850
  880MOL0     H21391  12.924   7.864   6.675 -0.3647 -1.9887 -0.3009
  880MOL0     H21392  12.818   8.073   6.570 -0.3205  4.5907  1.2424
  880MOL0     H21393  12.697   8.080   6.691 -0.4925 -0.7482 -0.9093
  880MOL0     H21394  12.872   8.134   6.863 -0.1409 -2.7295 -0.7231
  880MOL0     H21395  13.008   8.105   6.750  2.0702  3.7305  2.9211
  880MOL0     H21396  12.916   8.277   6.588  3.8481 -1.0110 -0.2024
  880MOL0     H21397  12.797   8.323   6.712  0.4736  1.5636 -1.0408
  880MOL0     H21398  13.213   8.509   6.770  0.6465 -0.0513 -0.2097
  880MOL0     H21399  13.317   8.804   6.733  2.9862 -0.2275 -0.7314
  880MOL0     H21400  13.363   8.755   6.570 -2.3412  0.6184 -1.4767
  880MOL0     H21401  13.376   8.641   6.697 -3.3521 -1.9372  0.1168
  880MOL0     H21402  12.849   9.083   6.328 -0.1496 -0.9907 -0.0305
  880MOL0     H21403  12.892   9.272   6.192  0.3554  0.6604 -0.5315
  880MOL0     H21404  13.256   9.506   6.107 -0.6282 -0.3240  1.1191
  880MOL0     H21405  13.333   9.350   6.134  0.6792  1.8068  0.3428
  880MOL0     H21406  13.362   9.404   5.885 -0.3976  3.2409 -1.0034
  880MOL0     H21407  13.236   9.290   5.901  1.8450 -0.0914 -2.9223
  880MOL0     H21408  13.229   9.513   5.743  0.4194 -2.3020 -0.3392
  880MOL0     H21409  13.172   9.583   5.893 -2.4008 -1.7388  0.2304
  880MOL0     H21410  12.960   9.508   5.787 -2.3607 -2.5545 -1.0642
  880MOL0     H21411  12.997   9.388   5.892 -1.2793 -3.0067 -2.3441
  880MOL0     H21412  13.127   9.271   5.700 -0.0788  0.8708  2.7191
  880MOL0     H21413  12.955   9.280   5.685 -0.3248  0.9306  0.7579
  880MOL0     H21414  13.136   9.489   5.551  1.2516 -1.9693  3.3347
  880MOL0     H21415  12.961   9.468   5.536 -0.4043 -0.8395 -0.7961
  880MOL0     H21416  13.009   9.249   5.424 -1.1466  0.2613 -1.0818
  880MOL0     H21417  13.181   9.254   5.480  1.5587  0.9450 -2.3444
  880MOL0     H21418  13.062   9.442   5.270 -0.2867 -0.5529  0.2049
  880MOL0     H21419  13.130   9.285   5.241  0.2644  0.2922  0.5586
  880MOL0     H21420  13.315   9.159   6.175 -0.2095 -1.1673 -0.0946
  880MOL0     H21421  13.252   8.955   6.290 -1.0590 -0.4514 -0.4088
  880MOL0     H21422  12.860   8.742   6.517  0.9848  0.7282 -1.6759
  880MOL0     H21423  12.823   8.506   6.612  0.5854 -3.2751  0.7530
  880MOL0     H21424  11.425   7.917   7.108 -0.4065 -0.6809 -2.6705
  880MOL0     H21425  11.175   7.919   7.089 -1.9289 -0.3992  0.9422
  880MOL0     H21426  10.782   7.444   7.218 -1.0792 -1.5363 -1.4116
  880MOL0     H21427  10.566   7.400   7.136  1.2029 -2.1681 -1.8120
  880MOL0     H21428  10.374   7.374   6.960  0.1623 -0.6552  0.6579
  880MOL0     H21429  10.338   7.486   7.092 -0.5669 -0.9091  0.9385
  880MOL0     H21430  10.158   7.589   7.013 -1.3108  1.5595 -2.4518
  880MOL0     H21431  10.137   7.420   6.954  0.9524 -0.7769 -2.9440
  880MOL0     H21432  10.098   7.611   6.766  1.8425  2.5995 -0.6327
  880MOL0     H21433  10.269   7.625   6.761  0.0239  0.8462 -1.9175
  880MOL0     H21434  10.296   7.378   6.711  1.3681  0.7934 -0.4886
  880MOL0     H21435  10.211   7.472   6.587 -0.5713  1.6017  1.0483
  880MOL0     H21436   9.933   7.175   6.736 -0.6651  0.6034 -2.4490
  880MOL0     H21437  10.576   7.750   6.898 -1.1255 -1.1632 -0.5746
  880MOL0     H21438  10.711   7.936   6.996  0.6010 -1.1840 -3.8969
  880MOL0     H21439  10.844   7.899   7.107  1.7757 -2.0823  0.7806
  880MOL0     H21440  10.868   7.868   6.949  1.6797  1.3370  2.7079
  881MOL0     O21441   0.366   3.089   3.001  0.2610  0.3093 -1.2109
  881MOL0     C21442   0.371   2.967   3.006 -0.6622 -0.2841 -0.0800
  881MOL0     O21443   0.459   2.890   3.083  0.0927 -0.7260  0.3697
  881MOL0     C21444   0.562   2.957   3.145  0.4163  0.5025 -0.9628
  881MOL0     C21445   0.648   3.041   3.071 -0.0149 -0.2733  0.6022
  881MOL0     C21446   0.750   3.112   3.133 -0.2037 -0.2294 -0.7609
  881MOL0     C21447   0.771   3.102   3.271 -0.2425  0.4283  0.2570
  881MOL0     O21448   0.864   3.172   3.348  0.6036  0.4704  0.6350
  881MOL0     C21449   1.000   3.150   3.305  0.0311  0.5992 -0.6001
  881MOL0     C21450   1.052   3.010   3.361 -1.1910  0.2868  0.0336
  881MOL0     C21451   1.199   2.988   3.335  0.3760 -0.3973  0.0437
  881MOL0     C21452   1.284   3.090   3.420  0.4234  0.4058 -0.3256
  881MOL0     C21453   1.436   3.075   3.398 -0.2307  0.7059  0.1077
  881MOL0     C21454   1.502   3.195   3.463 -0.3395 -0.8322  0.0911
  881MOL0     C21455   1.648   3.182   3.485 -0.6029  0.9194 -0.5224
  881MOL0     C21456   1.723   3.074   3.398  1.0607  0.3424  0.7908
  881MOL0     N21457   1.867   3.094   3.375 -0.0550  0.4786 -0.7115
  881MOL0     C21458   1.957   3.158   3.453  0.4211 -0.0745  0.0311
  881MOL0     C21459   2.079   3.130   3.412 -0.7617 -0.1159 -0.7527
  881MOL0     C21460   2.201   3.192   3.481  0.2673 -0.2887 -0.7638
  881MOL0     C21461   2.320   3.101   3.478 -0.2649  0.0183 -0.1299
  881MOL0     C21462   2.425   3.157   3.576 -0.6647  0.7918  0.1020
  881MOL0     C21463   2.550   3.068   3.590 -0.6438 -0.1626  0.1060
  881MOL0     O21464   2.620   3.049   3.465 -0.2883  0.6285 -0.3487
  881MOL0     C21465   2.721   2.962   3.472 -0.4257  0.3169 -0.9977
  881MOL0     C21466   2.764   2.891   3.580  1.1020 -0.0186  0.7793
  881MOL0     C21467   2.891   2.822   3.570 -0.0949 -0.4565 -0.1889
  881MOL0     C21468   2.934   2.746   3.697  0.1866 -0.1968  0.7889
  881MOL0     C21469   2.977   2.832   3.454  0.5091 -0.4667 -0.3447
  881MOL0     C21470   3.124   2.790   3.454  0.2461  0.3916  0.4712
  881MOL0     O21471   3.173   2.779   3.323 -0.3312 -0.3755  0.3451
  881MOL0     C21472   3.302   2.734   3.314 -0.0406  0.1683 -0.3956
  881MOL0     C21473   3.329   2.603   3.315 -1.3189  0.3613  0.9552
  881MOL0     C21474   3.462   2.554   3.296 -0.3201  0.3648  0.0469
  881MOL0     C21475   3.572   2.638   3.269 -0.0110 -0.2321  0.4410
  881MOL0     O21476   3.695   2.593   3.234 -0.3225 -0.3063 -0.4146
  881MOL0     C21477   3.759   2.490   3.322  0.2416  0.3517 -0.5070
  881MOL0     C21478   3.883   2.438   3.245 -0.0824 -0.2998 -0.6372
  881MOL0     C21479   3.933   2.318   3.329 -0.5260  0.2808 -0.2080
  881MOL0     C21480   4.045   2.240   3.255 -1.0381 -0.4780  0.6211
  881MOL0     C21481   4.133   2.141   3.339 -0.1011  0.1468 -0.1162
  881MOL0     C21482   4.234   2.080   3.243  0.1421  0.5982 -0.6828
  881MOL0     C21483   4.302   1.949   3.298 -0.3814 -0.4094  0.9048
  881MOL0     C21484   4.420   1.918   3.213 -0.1755  0.3490  0.1317
  881MOL0    Cl21485   4.465   1.751   3.267  0.0734 -0.4529 -0.1833
  881MOL0     C21486   3.546   2.776   3.277 -0.3731 -0.2566 -0.4745
  881MOL0     C21487   3.410   2.824   3.310 -0.9155 -0.3805 -0.0502
  881MOL0     O21488   3.186   2.780   3.558 -0.6077 -0.6465 -0.0928
  881MOL0     C21489   2.927   2.897   3.343  0.3806 -0.1644 -0.1352
  881MOL0     C21490   2.800   2.958   3.359  0.7056 -0.8656 -1.0654
  881MOL0     N21491   2.070   3.040   3.317 -0.2362  0.0086 -0.4732
  881MOL0     N21492   1.943   3.012   3.292 -0.6121  0.2270 -0.3598
  881MOL0     C21493   0.688   3.016   3.339  0.3272  0.6784 -0.1202
  881MOL0     C21494   0.587   2.938   3.284 -0.3687  0.3713 -0.7306
  881MOL0     C21495   0.282   2.904   2.911  0.2729 -0.2805  0.8023
  881MOL0     C21496   0.333   2.786   2.854  0.6403  1.0165 -0.5885
  881MOL0     C21497   0.275   2.726   2.742 -0.0596  1.1148 -0.5657
  881MOL0     C21498   0.145   2.764   2.700  0.1176 -0.8845  0.1826
  881MOL0     O21499   0.083   2.709   2.591 -0.8792 -0.0475 -0.4092
  881MOL0     C21500  -0.034   2.763   2.535 -0.0427 -0.4910  0.4855
  881MOL0     C21501  -0.075   2.681   2.418  0.0818  0.0649 -0.0834
  881MOL0     C21502   0.020   2.713   2.296 -0.1046 -0.2709  0.2397
  881MOL0     C21503  -0.010   2.656   2.153 -0.2276 -0.0188  0.4745
  881MOL0     C21504  -0.144   2.691   2.128  0.7694 -0.0137  1.2826
  881MOL0     C21505  -0.266   2.703   2.129 -0.0019  0.0866  0.0342
  881MOL0     C21506   0.095   2.871   2.763  0.3524  0.0091 -0.3430
  881MOL0     C21507   0.153   2.944   2.869  0.4771  0.3568 -0.5816
  881MOL0     C21508   0.075   3.054   2.931 -0.3719  0.6138 -0.0461
  881MOL0     H21509   0.632   3.054   2.964 -2.5045  0.6964  1.0268
  881MOL0     H21510   0.818   3.181   3.084 -0.4461  0.7756  0.2468
  881MOL0     H21511   1.067   3.231   3.335  0.9327  0.1709 -1.4173
  881MOL0     H21512   1.009   3.144   3.197  0.1458  1.5652 -0.6525
  881MOL0     H21513   1.031   2.999   3.468  2.1010 -2.3150  0.5690
  881MOL0     H21514   0.996   2.927   3.316  2.2399 -2.4244  0.3415
  881MOL0     H21515   1.210   2.888   3.378  2.9475  0.2009  0.9533
  881MOL0     H21516   1.220   2.989   3.228  0.1055 -2.7835 -0.0854
  881MOL0     H21517   1.251   3.194   3.412 -1.9940  0.1096  3.3549
  881MOL0     H21518   1.270   3.069   3.526  5.2450  2.4715  1.0235
  881MOL0     H21519   1.452   3.071   3.290  0.3750 -1.2185  0.2306
  881MOL0     H21520   1.477   2.983   3.441  1.8713  1.3514 -0.3943
  881MOL0     H21521   1.491   3.277   3.391 -0.2438 -1.8685 -1.1379
  881MOL0     H21522   1.461   3.229   3.558  0.8275  1.1684 -0.0431
  881MOL0     H21523   1.668   3.157   3.589 -0.7671 -0.6508 -0.8344
  881MOL0     H21524   1.686   3.282   3.462  0.4708  0.5631 -0.3449
  881MOL0     H21525   1.712   2.969   3.426  1.9500 -0.4002 -1.4406
  881MOL0     H21526   1.686   3.068   3.295 -1.0502 -3.6047  1.6044
  881MOL0     H21527   1.935   3.219   3.539 -1.8218  0.8826 -1.1389
  881MOL0     H21528   2.171   3.214   3.584 -0.5769  2.0670 -1.4574
  881MOL0     H21529   2.220   3.291   3.438 -1.0914 -0.3534 -1.5630
  881MOL0     H21530   2.293   2.997   3.502 -1.6451  0.2028 -0.7828
  881MOL0     H21531   2.364   3.098   3.377  1.0615 -2.1219  0.4347
  881MOL0     H21532   2.451   3.261   3.554 -0.2688  0.8418  0.7908
  881MOL0     H21533   2.376   3.153   3.674 -0.6074 -0.9637  0.0828
  881MOL0     H21534   2.621   3.122   3.654 -1.0848 -1.5207  1.8378
  881MOL0     H21535   2.512   2.975   3.634 -2.4737  0.2501 -0.5108
  881MOL0     H21536   2.703   2.893   3.670 -0.9535  2.4708 -0.5350
  881MOL0     H21537   2.991   2.806   3.769  2.6915 -1.4745 -0.0087
  881MOL0     H21538   3.000   2.663   3.670 -1.6684 -1.2101 -0.8009
  881MOL0     H21539   2.852   2.703   3.754  2.4082 -1.7701  3.0427
  881MOL0     H21540   3.248   2.532   3.329 -1.6485  0.5557  0.0976
  881MOL0     H21541   3.475   2.446   3.295 -0.0782  0.3717  1.1643
  881MOL0     H21542   3.790   2.536   3.416 -0.8337  3.4233 -1.5270
  881MOL0     H21543   3.697   2.406   3.353 -1.7590  2.4043  1.4140
  881MOL0     H21544   3.857   2.410   3.143 -2.6671  0.0361 -0.1305
  881MOL0     H21545   3.961   2.515   3.252 -0.1044 -0.3381  0.1452
  881MOL0     H21546   3.858   2.242   3.356  1.6164 -2.0969 -0.5418
  881MOL0     H21547   3.981   2.355   3.420 -0.8273 -0.5311  0.2980
  881MOL0     H21548   4.111   2.315   3.210  0.3380 -1.7238  0.5025
  881MOL0     H21549   4.000   2.185   3.171  2.2574 -0.2642 -1.4700
  881MOL0     H21550   4.183   2.205   3.412 -0.5062  0.2296  0.0955
  881MOL0     H21551   4.077   2.061   3.389 -1.2664  2.2862  2.2299
  881MOL0     H21552   4.286   2.168   3.203 -1.4086  0.6789 -2.7176
  881MOL0     H21553   4.193   2.031   3.154  2.6097 -0.3258 -1.4015
  881MOL0     H21554   4.222   1.875   3.285  0.4365 -0.9438 -1.6707
  881MOL0     H21555   4.324   1.967   3.404  2.2129  0.2681  0.3400
  881MOL0     H21556   4.504   1.986   3.225 -0.0783  0.4372 -0.9264
  881MOL0     H21557   4.391   1.910   3.108  1.2060 -0.5736 -0.2044
  881MOL0     H21558   3.625   2.850   3.263 -2.3823  2.2654  0.6327
  881MOL0     H21559   3.390   2.931   3.318  3.9753  0.7803 -0.0861
  881MOL0     H21560   2.978   2.886   3.247 -2.1044 -1.9296 -1.3370
  881MOL0     H21561   2.769   3.025   3.279  0.2026 -0.1979 -0.3363
  881MOL0     H21562   0.693   2.989   3.444 -0.5726 -1.7351 -0.6258
  881MOL0     H21563   0.530   2.874   3.350 -3.0063  2.6587 -0.6330
  881MOL0     H21564   0.423   2.737   2.891 -1.9425 -3.5459  0.3727
  881MOL0     H21565   0.334   2.646   2.698  0.4893  0.0033  2.0498
  881MOL0     H21566  -0.117   2.767   2.606 -3.7272 -3.5684 -3.1265
  881MOL0     H21567  -0.015   2.865   2.499 -4.2433  0.4275  0.2340
  881MOL0     H21568  -0.175   2.712   2.386  1.6098  1.9413 -3.5249
  881MOL0     H21569  -0.069   2.576   2.449  2.9776  0.8515  2.5236
  881MOL0     H21570   0.031   2.820   2.275  0.8919 -0.7973 -2.4058
  881MOL0     H21571   0.116   2.671   2.325  0.6509  0.7146 -0.7318
  881MOL0     H21572  -0.001   2.548   2.162 -2.5693 -0.5039 -1.6427
  881MOL0     H21573   0.052   2.694   2.071  0.0346  0.6810  0.9880
  881MOL0     H21574  -0.369   2.734   2.120  0.5149  1.8336 -0.2104
  881MOL0     H21575   0.014   2.921   2.713  0.2904  1.5453  1.1979
  881MOL0     H21576   0.083   3.037   3.039 -1.6573 -1.6590 -0.2386
  881MOL0     H21577   0.109   3.153   2.901  3.0920 -0.6321 -0.7339
  881MOL0     H21578  -0.033   3.043   2.921 -0.3460  0.2177  0.0791
  882MOL0     O21579   4.704   3.169   9.795  0.4826 -0.3559  0.9935
  882MOL0     C21580   4.644   3.098   9.709  0.1599 -0.2741  0.5371
  882MOL0     O21581   4.698   3.050   9.594 -0.0438  0.4024  0.4183
  882MOL0     C21582   4.833   3.075   9.579 -0.2316  0.4882 -0.9324
  882MOL0     C21583   4.876   3.177   9.496 -0.4306 -0.0888 -0.5274
  882MOL0     C21584   5.012   3.203   9.473  1.0410 -0.6958 -0.4337
  882MOL0     C21585   5.110   3.129   9.535 -0.2579  1.5347 -0.1267
  882MOL0     O21586   5.244   3.149   9.494  0.1954 -1.0521 -0.0675
  882MOL0     C21587   5.351   3.076   9.562 -0.1244 -0.5581 -0.9371
  882MOL0     C21588   5.491   3.112   9.503  0.4317 -0.2184  0.1156
  882MOL0     C21589   5.608   3.066   9.594  0.4177  0.1085 -0.0408
  882MOL0     C21590   5.740   3.121   9.555  0.6613 -0.1707  0.2522
  882MOL0     C21591   5.861   3.105   9.655 -1.1866  0.4917 -0.4430
  882MOL0     C21592   5.862   3.202   9.777 -0.5753  0.2428 -0.2649
  882MOL0     C21593   5.987   3.186   9.867 -0.3165  0.3878  0.1761
  882MOL0     C21594   6.106   3.249   9.794 -0.6143 -0.3983 -0.1435
  882MOL0     N21595   6.226   3.212   9.879  0.4448 -1.1285 -0.0558
  882MOL0     C21596   6.277   3.085   9.894 -0.1726 -0.3733  0.5365
  882MOL0     C21597   6.375   3.097   9.996  0.4273 -0.2005  0.3517
  882MOL0     C21598   6.443   2.978  10.055 -0.6970 -0.1891  0.1323
  882MOL0     C21599   6.583   2.954   9.995 -0.0765 -0.1871 -0.3233
  882MOL0     C21600   6.576   2.961   9.849 -0.8903  0.0670  0.2941
  882MOL0     C21601   6.703   2.908   9.773 -0.3899 -0.0900 -0.0963
  882MOL0     O21602   6.829   2.957   9.822 -0.3231  0.1354 -0.0585
  882MOL0     C21603   6.952   2.901   9.784 -0.3557  0.3243  0.0431
  882MOL0     C21604   6.970   2.775   9.724  0.3109  0.1507 -0.9012
  882MOL0     C21605   7.097   2.719   9.709  0.4690  0.1915  0.1698
  882MOL0     C21606   7.108   2.583   9.660  0.6059  0.9628 -0.8022
  882MOL0     C21607   7.213   2.794   9.745 -0.3067 -0.4145  0.1353
  882MOL0     C21608   7.350   2.745   9.740  0.0350 -0.5961  0.6772
  882MOL0     O21609   7.424   2.769   9.852  0.3869  0.5104 -0.6526
  882MOL0     C21610   7.551   2.721   9.857 -0.0897 -0.1037 -0.0482
  882MOL0     C21611   7.583   2.588   9.811 -1.1946 -0.3475 -0.2224
  882MOL0     C21612   7.716   2.541   9.820 -0.4317 -0.7251  0.1666
  882MOL0     C21613   7.820   2.626   9.874  0.5810  0.4460  0.0126
  882MOL0     O21614   7.949   2.572   9.882  0.4516  0.3925 -0.1514
  882MOL0     C21615   8.051   2.661   9.926 -0.1114  0.2699 -0.2930
  882MOL0     C21616   8.190   2.589   9.910  0.5743  0.6523 -1.0129
  882MOL0     C21617   8.312   2.677   9.947 -0.2067 -0.0151  0.1122
  882MOL0     C21618   8.453   2.605   9.921 -0.4624 -0.6086 -0.3107
  882MOL0     C21619   8.462   2.493  10.026  0.5265  0.4790 -0.3529
  882MOL0     C21620   8.585   2.410  10.030 -0.7654 -0.1134 -0.5503
  882MOL0     C21621   8.716   2.502  10.064 -0.3021 -0.0926  0.8091
  882MOL0     C21622   8.863   2.445  10.051 -0.0413  0.5381  0.4640
  882MOL0    Cl21623   8.891   2.300  10.139 -0.1529 -0.0544 -0.0339
  882MOL0     C21624   7.779   2.745   9.915 -0.3914 -0.8053 -0.1237
  882MOL0     C21625   7.647   2.795   9.915  1.2653  0.4267 -0.1235
  882MOL0     O21626   7.391   2.722   9.622 -0.1756 -0.5971 -0.4307
  882MOL0     C21627   7.194   2.924   9.801 -0.9988 -0.1857 -1.0792
  882MOL0     C21628   7.067   2.976   9.817  0.4444 -0.4174  0.0696
  882MOL0     N21629   6.392   3.231  10.020 -0.3217  0.2216 -0.5089
  882MOL0     N21630   6.308   3.299   9.950  0.0604  0.7769 -0.2220
  882MOL0     C21631   5.068   3.024   9.618 -0.1439 -0.2975 -0.4276
  882MOL0     C21632   4.935   3.002   9.648  0.0666 -0.2849  0.5049
  882MOL0     C21633   4.508   3.048   9.728 -0.3412 -0.2221 -0.8184
  882MOL0     C21634   4.454   2.945   9.653  0.1176 -0.1028  0.2022
  882MOL0     C21635   4.325   2.885   9.670 -0.7174  0.1201  0.4719
  882MOL0     C21636   4.242   2.942   9.764  0.4618 -0.0964 -0.3878
  882MOL0     O21637   4.115   2.886   9.765 -0.3825  0.0529 -0.0507
  882MOL0     C21638   4.020   2.908   9.872 -0.0165 -0.4993 -0.4650
  882MOL0     C21639   3.895   2.810   9.860  0.3743 -0.2080 -0.4034
  882MOL0     C21640   3.824   2.788   9.992 -0.1992 -0.6897  0.5760
  882MOL0     C21641   3.687   2.727   9.969  0.3970  0.6696 -0.8977
  882MOL0     C21642   3.607   2.707  10.098 -0.7065  0.1184 -0.2374
  882MOL0     C21643   3.535   2.684  10.191 -0.7593 -0.0353  0.1976
  882MOL0     C21644   4.285   3.059   9.835  0.1557 -0.4191  0.2944
  882MOL0     C21645   4.413   3.113   9.808  0.1459 -0.4353  0.6776
  882MOL0     C21646   4.430   3.239   9.875 -0.4909 -0.6942 -0.2331
  882MOL0     H21647   4.799   3.235   9.446 -0.6022 -0.3263 -0.5366
  882MOL0     H21648   5.048   3.283   9.408  2.3820 -0.6119  0.3785
  882MOL0     H21649   5.336   2.969   9.543  1.9834 -0.9787 -0.5401
  882MOL0     H21650   5.345   3.090   9.670  2.0642  0.4463 -0.8819
  882MOL0     H21651   5.508   3.057   9.410  2.0759  0.8935 -0.2902
  882MOL0     H21652   5.484   3.220   9.492 -2.2439 -0.5327 -2.5825
  882MOL0     H21653   5.585   3.090   9.699 -1.7770 -3.7494  0.5816
  882MOL0     H21654   5.606   2.958   9.577 -0.2706 -0.0358  0.8451
  882MOL0     H21655   5.770   3.084   9.456  0.7644  0.8303 -0.1086
  882MOL0     H21656   5.731   3.227   9.528 -2.4931  0.3744  2.9441
  882MOL0     H21657   5.951   3.117   9.595 -1.9418 -2.5917 -2.4160
  882MOL0     H21658   5.872   3.002   9.688 -0.2874  1.1596  1.5473
  882MOL0     H21659   5.843   3.306   9.747 -4.7817 -0.4253 -0.5167
  882MOL0     H21660   5.775   3.176   9.837  1.4092 -1.3302  2.1513
  882MOL0     H21661   6.004   3.078   9.878 -0.9563  0.3955  1.3820
  882MOL0     H21662   5.979   3.241   9.960 -0.0307  2.4362 -0.9630
  882MOL0     H21663   6.121   3.219   9.690  0.4175 -0.7919  0.1061
  882MOL0     H21664   6.088   3.357   9.791 -0.4979 -0.2170  2.5982
  882MOL0     H21665   6.228   2.995   9.855 -0.6994  0.3293 -0.4659
  882MOL0     H21666   6.384   2.885  10.055 -1.1160  0.0661  1.1959
  882MOL0     H21667   6.458   2.999  10.161 -0.5982  2.5794 -0.3720
  882MOL0     H21668   6.654   3.029  10.029 -0.1556 -0.7924  1.2373
  882MOL0     H21669   6.616   2.852  10.014 -1.0696 -1.3547 -4.0150
  882MOL0     H21670   6.487   2.903   9.821  1.6193 -2.9968 -2.0985
  882MOL0     H21671   6.559   3.060   9.805  3.8052  0.6784 -0.7079
  882MOL0     H21672   6.697   2.799   9.776  0.1116 -0.1635 -1.2236
  882MOL0     H21673   6.692   2.933   9.667  1.1970 -1.9216 -0.7614
  882MOL0     H21674   6.881   2.717   9.702 -1.3380  2.5840 -1.1761
  882MOL0     H21675   7.187   2.531   9.715  2.0605  1.3266 -2.4806
  882MOL0     H21676   7.132   2.574   9.554  0.6677 -1.9879 -0.6127
  882MOL0     H21677   7.012   2.534   9.680  0.9861  0.4327 -0.2234
  882MOL0     H21678   7.516   2.531   9.747  0.4774  0.8450 -3.2997
  882MOL0     H21679   7.756   2.447   9.784 -0.8577 -0.3090 -1.4453
  882MOL0     H21680   8.063   2.742   9.853  0.2650 -0.3504 -0.9357
  882MOL0     H21681   8.034   2.693  10.029  1.4360  0.3504 -0.0445
  882MOL0     H21682   8.188   2.498   9.972  1.8129 -0.9451 -3.1533
  882MOL0     H21683   8.198   2.564   9.804 -0.2303  0.1260 -0.9611
  882MOL0     H21684   8.301   2.701  10.053 -3.5778  0.6497 -0.2749
  882MOL0     H21685   8.307   2.772   9.892  0.0012  0.5379  1.0292
  882MOL0     H21686   8.529   2.683   9.926 -2.0597  0.9706  1.4880
  882MOL0     H21687   8.448   2.563   9.821 -0.7858  1.0836 -1.0545
  882MOL0     H21688   8.448   2.539  10.124  3.2091  1.6560 -0.4395
  882MOL0     H21689   8.392   2.417   9.991 -0.4086  1.0839  0.1325
  882MOL0     H21690   8.603   2.359   9.935 -2.2693  2.4634 -2.3488
  882MOL0     H21691   8.577   2.329  10.103 -0.9939 -0.0796 -0.5380
  882MOL0     H21692   8.707   2.547  10.163 -1.1412  4.0136 -0.9009
  882MOL0     H21693   8.718   2.583   9.990 -0.3518 -2.5642 -2.0692
  882MOL0     H21694   8.931   2.521  10.092 -0.7038  0.5124  1.6798
  882MOL0     H21695   8.907   2.431   9.952 -2.6626 -0.6828 -0.5962
  882MOL0     H21696   7.853   2.810   9.960 -2.5961  0.7080  1.5612
  882MOL0     H21697   7.608   2.889   9.951 -0.1321  0.0052 -0.4622
  882MOL0     H21698   7.281   2.981   9.830 -1.2407 -0.8136  1.0422
  882MOL0     H21699   7.071   3.069   9.873  1.0779 -0.3822 -0.0256
  882MOL0     H21700   5.140   2.960   9.667  0.2729  0.6713  0.2672
  882MOL0     H21701   4.909   2.919   9.712  1.8998 -3.4180 -2.4758
  882MOL0     H21702   4.516   2.901   9.575  1.2048  1.4543  0.1199
  882MOL0     H21703   4.304   2.798   9.607  3.1379  0.7482 -2.0531
  882MOL0     H21704   4.074   2.880   9.963  0.1016 -0.5353 -0.5445
  882MOL0     H21705   4.007   3.015   9.893  1.6051  0.2393 -2.8142
  882MOL0     H21706   3.945   2.725   9.813  1.0739 -0.0713  0.0777
  882MOL0     H21707   3.823   2.849   9.789 -2.5550 -1.0856  1.8884
  882MOL0     H21708   3.885   2.726  10.059  1.0117 -0.0144  0.1328
  882MOL0     H21709   3.804   2.888  10.033 -0.9666 -1.0016  0.9739
  882MOL0     H21710   3.701   2.632   9.916  3.8486  0.4477  0.1792
  882MOL0     H21711   3.626   2.800   9.915  0.5712  2.4082  1.1360
  882MOL0     H21712   3.473   2.662  10.275  0.5154  1.4233  1.6028
  882MOL0     H21713   4.223   3.127   9.893  1.3223  2.2142 -1.3425
  882MOL0     H21714   4.482   3.313   9.814 -1.0934  0.3332  0.4626
  882MOL0     H21715   4.338   3.286   9.913  0.4784  0.3182  0.9589
  882MOL0     H21716   4.482   3.224   9.970 -0.5280 -0.0615 -0.1051
  883MOL0     O21717   0.682  10.577   5.570 -1.0040  0.5424 -0.0558
  883MOL0     C21718   0.662  10.699   5.598  0.0527  0.4597  0.3974
  883MOL0     O21719   0.757  10.787   5.642 -0.5760 -0.5220 -0.5766
  883MOL0     C21720   0.892  10.776   5.611 -0.2162  0.3680  1.1207
  883MOL0     C21721   0.987  10.841   5.696 -0.7307  0.2371 -0.1063
  883MOL0     C21722   1.122  10.812   5.678  0.1853 -0.5733  0.3219
  883MOL0     C21723   1.168  10.733   5.579 -0.8724  0.5668  0.0629
  883MOL0     O21724   1.302  10.726   5.579  0.5713  0.6859  0.3119
  883MOL0     C21725   1.357  10.616   5.649 -0.1296  0.4325 -1.0350
  883MOL0     C21726   1.359  10.493   5.557 -0.1574 -0.5326 -0.9577
  883MOL0     C21727   1.471  10.510   5.449 -0.3318 -0.2119 -0.9096
  883MOL0     C21728   1.494  10.381   5.368  0.5632  0.5298 -0.4416
  883MOL0     C21729   1.610  10.401   5.264 -0.3575 -0.2973  0.0675
  883MOL0     C21730   1.572  10.474   5.140  0.2235 -0.2314 -0.0541
  883MOL0     C21731   1.684  10.482   5.042  0.3006 -1.1115 -0.7646
  883MOL0     C21732   1.772  10.603   5.078 -0.0267 -0.1006 -0.2651
  883MOL0     N21733   1.896  10.577   5.001  0.6695 -1.1888 -0.7948
  883MOL0     C21734   1.895  10.589   4.864 -0.3010 -0.6230  0.3620
  883MOL0     C21735   2.013  10.535   4.821  0.0922 -0.0752 -0.9143
  883MOL0     C21736   2.072  10.507   4.686  0.1113  0.1822  1.2770
  883MOL0     C21737   2.214  10.552   4.675 -0.6199 -0.7754 -0.4657
  883MOL0     C21738   2.253  10.551   4.524 -0.7662  0.4976  0.0374
  883MOL0     C21739   2.400  10.544   4.479  0.6536  0.2568 -0.3579
  883MOL0     O21740   2.450  10.420   4.435  0.2676  1.3720  0.6379
  883MOL0     C21741   2.565  10.422   4.359  0.3116  0.0953  0.4219
  883MOL0     C21742   2.573  10.345   4.245  0.0837  0.7191 -0.6508
  883MOL0     C21743   2.688  10.349   4.164  0.2089  0.3660  0.2943
  883MOL0     C21744   2.674  10.257   4.043  1.3567  0.3256 -0.5418
  883MOL0     C21745   2.793  10.441   4.198 -0.1624  0.1452 -0.2311
  883MOL0     C21746   2.909  10.470   4.108 -0.7023 -0.4758  0.5149
  883MOL0     O21747   3.001  10.570   4.137  0.0090  0.0686 -0.3283
  883MOL0     C21748   3.098  10.596   4.043  0.7457 -0.7449 -1.3438
  883MOL0     C21749   3.230  10.595   4.093 -0.5582 -0.0244  0.0256
  883MOL0     C21750   3.346  10.624   4.018  0.0539 -0.0606 -0.1391
  883MOL0     C21751   3.326  10.658   3.887  0.1295  0.0310  0.1791
  883MOL0     O21752   3.431  10.690   3.807 -0.1810 -0.4566 -0.2750
  883MOL0     C21753   3.499  10.818   3.846  0.1580  0.3976  0.5598
  883MOL0     C21754   3.599  10.858   3.733  0.0773 -0.0247 -0.3431
  883MOL0     C21755   3.518  10.887   3.603 -0.0430  0.5190 -0.5274
  883MOL0     C21756   3.611  10.960   3.504  0.3816 -0.3509  0.2152
  883MOL0     C21757   3.536  11.026   3.383 -0.3336  0.3830  0.1764
  883MOL0     C21758   3.460  10.915   3.311 -0.0209 -0.1888 -0.6268
  883MOL0     C21759   3.390  10.969   3.178 -0.0310 -0.8473  1.0435
  883MOL0     C21760   3.498  11.002   3.075  0.1878  0.8630 -0.2940
  883MOL0    Cl21761   3.519  11.179   3.078 -0.1279  0.0741 -0.2774
  883MOL0     C21762   3.191  10.660   3.834 -0.4029 -0.1929  0.0051
  883MOL0     C21763   3.071  10.629   3.910 -0.5390  0.3935 -0.3032
  883MOL0     O21764   2.916  10.401   4.001  0.8413 -0.1360 -0.7391
  883MOL0     C21765   2.778  10.524   4.307  0.0440 -0.3219  0.4691
  883MOL0     C21766   2.662  10.515   4.383  0.0230 -0.0329 -0.4674
  883MOL0     N21767   2.072  10.487   4.936 -0.0747 -0.1325  0.6647
  883MOL0     N21768   2.003  10.512   5.047  0.2275  0.7075  0.3659
  883MOL0     C21769   1.080  10.680   5.481 -0.4616  0.3502  0.4974
  883MOL0     C21770   0.940  10.693   5.502 -0.9302  0.5524  0.3565
  883MOL0     C21771   0.527  10.737   5.623  0.6866  0.5094 -0.1042
  883MOL0     C21772   0.448  10.672   5.720  0.7155  0.3897 -0.4474
  883MOL0     C21773   0.328  10.729   5.757 -0.3685  0.8600 -0.2648
  883MOL0     C21774   0.284  10.853   5.701  0.2097  0.4479 -0.2955
  883MOL0     O21775   0.165  10.916   5.724  0.5533 -0.0171 -0.3804
  883MOL0     C21776   0.064  10.831   5.785  0.9978 -0.2984  0.4016
  883MOL0     C21777  -0.076  10.890   5.769 -0.5550 -0.3040 -0.2206
  883MOL0     C21778  -0.148  10.843   5.635 -0.6239  0.0690 -0.5678
  883MOL0     C21779  -0.286  10.915   5.629  0.7319 -0.0103 -0.2618
  883MOL0     C21780  -0.271  11.043   5.559 -0.1250  0.5122 -0.4711
  883MOL0     C21781  -0.261  11.143   5.482 -0.0550 -0.5041 -0.9090
  883MOL0     C21782   0.367  10.910   5.608 -0.9692 -0.2189 -0.0914
  883MOL0     C21783   0.490  10.862   5.568 -0.6517  0.4006 -0.4908
  883MOL0     C21784   0.578  10.944   5.470 -0.2885 -0.0514  0.5212
  883MOL0     H21785   0.955  10.909   5.774  1.1844  1.0385  0.0450
  883MOL0     H21786   1.183  10.868   5.748 -0.8047 -0.7342  1.3372
  883MOL0     H21787   1.311  10.586   5.744  1.5269 -2.0098 -0.9269
  883MOL0     H21788   1.459  10.649   5.670  0.0903  0.5854 -2.2541
  883MOL0     H21789   1.389  10.403   5.610 -1.6914 -1.5120 -1.6830
  883MOL0     H21790   1.254  10.472   5.534 -0.3866 -2.5308  1.4862
  883MOL0     H21791   1.445  10.594   5.385  1.3919 -0.6962 -2.3287
  883MOL0     H21792   1.564  10.542   5.499 -0.7020  0.2823 -0.5248
  883MOL0     H21793   1.527  10.303   5.437  2.2231  2.1737  0.7273
  883MOL0     H21794   1.401  10.354   5.317  1.2629  0.2393 -1.6148
  883MOL0     H21795   1.654  10.303   5.240  0.3033 -0.1082  0.4713
  883MOL0     H21796   1.686  10.463   5.313  0.4420 -0.6468 -0.6831
  883MOL0     H21797   1.490  10.424   5.088  0.8497 -0.1953 -1.1190
  883MOL0     H21798   1.543  10.576   5.166 -0.1166 -0.2404 -0.3799
  883MOL0     H21799   1.646  10.494   4.940 -0.9203  0.8905 -0.1286
  883MOL0     H21800   1.744  10.390   5.043  1.1802 -0.6031  1.8291
  883MOL0     H21801   1.734  10.701   5.049 -0.9755 -0.1610  0.7099
  883MOL0     H21802   1.787  10.615   5.186 -3.3328  1.6971  0.1207
  883MOL0     H21803   1.820  10.637   4.802  1.0597  2.7817  1.1342
  883MOL0     H21804   2.015  10.567   4.615  2.0062 -0.1129 -0.5687
  883MOL0     H21805   2.067  10.401   4.660  2.2023  0.7213 -1.7233
  883MOL0     H21806   2.221  10.655   4.712 -1.5964 -0.0923 -2.0897
  883MOL0     H21807   2.259  10.482   4.746 -0.2638 -0.2180 -0.1328
  883MOL0     H21808   2.195  10.473   4.475 -3.3696  2.0531  0.4350
  883MOL0     H21809   2.212  10.644   4.485 -1.5650 -0.2021 -0.8152
  883MOL0     H21810   2.406  10.612   4.393  2.7986  0.0722 -0.3894
  883MOL0     H21811   2.457  10.598   4.554 -0.4420  0.3977  0.3949
  883MOL0     H21812   2.489  10.276   4.242 -1.0570  1.7901  2.4577
  883MOL0     H21813   2.678  10.320   3.953  0.7966  1.2457  0.0556
  883MOL0     H21814   2.584  10.196   4.054  2.5909 -1.5346 -0.4191
  883MOL0     H21815   2.762  10.192   4.049  0.6304 -0.5291  2.2243
  883MOL0     H21816   3.245  10.572   4.198  0.4658  1.0113  0.1262
  883MOL0     H21817   3.446  10.615   4.060  0.7741 -0.7582 -1.8925
  883MOL0     H21818   3.420  10.892   3.857  1.1840  1.8882 -1.4454
  883MOL0     H21819   3.556  10.806   3.938  1.2333 -0.1249 -0.1392
  883MOL0     H21820   3.643  10.948   3.774  3.1762 -0.4526 -2.3909
  883MOL0     H21821   3.690  10.801   3.711  1.9745  1.2727  3.4306
  883MOL0     H21822   3.431  10.948   3.627  1.7823  2.7222  0.9932
  883MOL0     H21823   3.476  10.796   3.559 -1.8745  0.4927  1.1505
  883MOL0     H21824   3.686  10.885   3.477 -1.4449 -2.6414  1.1200
  883MOL0     H21825   3.652  11.045   3.559 -1.7253 -0.0572  1.4491
  883MOL0     H21826   3.474  11.114   3.403  3.0507  2.6851  1.3899
  883MOL0     H21827   3.611  11.057   3.309 -1.3486 -2.9981 -2.5420
  883MOL0     H21828   3.378  10.880   3.375 -1.4633  1.6741 -1.3631
  883MOL0     H21829   3.530  10.835   3.285  1.6730  1.0189  0.0235
  883MOL0     H21830   3.323  11.052   3.204 -2.3864 -2.8197  1.6498
  883MOL0     H21831   3.325  10.896   3.128  3.0618 -1.0150 -3.2708
  883MOL0     H21832   3.472  10.969   2.974  1.5981 -1.1713 -0.0737
  883MOL0     H21833   3.591  10.948   3.096  1.7955  3.2686 -0.9119
  883MOL0     H21834   3.190  10.670   3.726 -2.4456 -1.4612 -0.1505
  883MOL0     H21835   2.969  10.624   3.873 -0.6330 -2.5051  0.1010
  883MOL0     H21836   2.850  10.601   4.333 -0.6200  0.1355  1.0027
  883MOL0     H21837   2.638  10.599   4.448 -1.6509  1.3528 -2.6756
  883MOL0     H21838   1.125  10.620   5.402 -0.8582 -0.2942  0.7552
  883MOL0     H21839   0.866  10.655   5.433 -2.7406 -2.8689  3.7790
  883MOL0     H21840   0.488  10.589   5.777  2.6262  1.7375  0.2600
  883MOL0     H21841   0.270  10.685   5.837  1.3866  1.7158  1.5543
  883MOL0     H21842   0.057  10.735   5.734 -0.6577 -0.6689  1.2454
  883MOL0     H21843   0.086  10.813   5.891 -0.2942 -0.3097  0.6936
  883MOL0     H21844  -0.069  10.999   5.760 -3.0375  0.2306  2.5842
  883MOL0     H21845  -0.138  10.863   5.855  1.7775 -0.4962  1.4796
  883MOL0     H21846  -0.090  10.867   5.546 -0.4048 -1.8487 -0.9882
  883MOL0     H21847  -0.157  10.734   5.639  0.2711 -0.1187 -2.6812
  883MOL0     H21848  -0.336  10.932   5.725  2.0183  0.3426  0.3602
  883MOL0     H21849  -0.355  10.859   5.565  1.3382  0.0582 -0.9954
  883MOL0     H21850  -0.255  11.231   5.421 -0.5521 -1.5224 -2.4635
  883MOL0     H21851   0.341  11.004   5.561 -1.3455 -1.2409 -2.0229
  883MOL0     H21852   0.518  11.022   5.423  0.3503  2.0206  2.9409
  883MOL0     H21853   0.671  10.985   5.510  1.2921 -2.0530 -0.8653
  883MOL0     H21854   0.607  10.873   5.392 -0.0661  0.2743  0.3047
  884MOL0     O21855   1.298   4.471  11.359 -0.2432 -0.2544  0.0497
  884MOL0     C21856   1.321   4.533  11.461 -0.2272 -0.5526 -0.0178
  884MOL0     O21857   1.359   4.486  11.577  0.2391  0.0708 -0.5127
  884MOL0     C21858   1.371   4.350  11.590 -0.2580  1.2045  0.0641
  884MOL0     C21859   1.477   4.271  11.542  0.3475  0.2285  0.0505
  884MOL0     C21860   1.467   4.133  11.547  0.0437  0.5134  0.3162
  884MOL0     C21861   1.357   4.064  11.600 -0.3576  0.9372 -0.2200
  884MOL0     O21862   1.363   3.925  11.608 -0.7191  0.9350  0.1099
  884MOL0     C21863   1.240   3.867  11.564  0.0148  0.1100  0.0476
  884MOL0     C21864   1.228   3.712  11.577  1.2950 -0.1848 -0.0729
  884MOL0     C21865   1.358   3.638  11.552  0.3086  0.2455 -0.4649
  884MOL0     C21866   1.333   3.488  11.551  0.5146 -0.0740 -0.1680
  884MOL0     C21867   1.468   3.417  11.559 -0.2808 -0.0163 -0.3858
  884MOL0     C21868   1.460   3.263  11.590 -0.9302  0.0720 -0.9314
  884MOL0     C21869   1.589   3.212  11.663  0.1385  0.1111  0.4349
  884MOL0     C21870   1.576   3.059  11.670  0.1836  0.6209 -0.3055
  884MOL0     N21871   1.703   3.010  11.718 -0.0911 -0.1568 -0.3791
  884MOL0     C21872   1.789   3.064  11.804 -0.2710 -1.0009 -0.3096
  884MOL0     C21873   1.909   3.007  11.782  0.7433  0.3256  0.4577
  884MOL0     C21874   2.039   3.051  11.834  0.2142  0.5048 -0.0337
  884MOL0     C21875   2.101   3.172  11.756  0.3973  0.0974 -0.4534
  884MOL0     C21876   2.246   3.202  11.807 -0.2711 -0.1663  0.6208
  884MOL0     C21877   2.246   3.265  11.946  0.1230 -0.2319 -0.4671
  884MOL0     O21878   2.294   3.185  12.053 -0.2287  0.2374 -0.0688
  884MOL0     C21879   2.239   3.212  12.177  0.2057 -0.0731 -0.4115
  884MOL0     C21880   2.209   3.111  12.261  0.6102  0.9875  0.4085
  884MOL0     C21881   2.159   3.131  12.391  0.2017  0.5350 -0.2012
  884MOL0     C21882   2.119   3.020  12.481  0.1643  0.4745 -0.7179
  884MOL0     C21883   2.152   3.268  12.442  1.0772  0.2875  0.1525
  884MOL0     C21884   2.088   3.295  12.568  0.2971  0.4695 -2.0791
  884MOL0     O21885   2.154   3.251  12.679  0.4205 -0.7433 -0.1685
  884MOL0     C21886   2.108   3.271  12.803  0.7452  0.1018  0.8979
  884MOL0     C21887   1.976   3.240  12.844  0.1099 -1.2233 -0.0012
  884MOL0     C21888   1.939   3.284  12.968 -0.2137 -1.8076 -0.5871
  884MOL0     C21889   2.020   3.362  13.050 -0.8048  0.1504 -0.0879
  884MOL0     O21890   1.977   3.399  13.177 -0.1359  1.9043  0.0064
  884MOL0     C21891   1.861   3.481  13.180 -0.1793  0.2113 -0.3243
  884MOL0     C21892   1.807   3.494  13.326 -0.3810 -0.5525 -0.2494
  884MOL0     C21893   1.882   3.608  13.410  0.7205  0.6443 -0.3207
  884MOL0     C21894   2.019   3.573  13.450 -0.0854  0.4061 -0.2268
  884MOL0     C21895   2.078   3.670  13.557 -0.0234 -0.4339  0.0831
  884MOL0     C21896   2.223   3.630  13.593 -0.4785  0.2670 -0.6270
  884MOL0     C21897   2.289   3.724  13.699  0.0348  0.0677  0.1699
  884MOL0     C21898   2.433   3.733  13.685 -1.9856 -0.3388  0.7397
  884MOL0    Cl21899   2.486   3.808  13.520 -0.0534  0.2091  0.1257
  884MOL0     C21900   2.149   3.390  13.007  0.0765 -0.6533  0.5736
  884MOL0     C21901   2.194   3.347  12.882  0.8463 -0.1698 -0.7069
  884MOL0     O21902   2.006   3.385  12.565 -0.4313 -0.0025 -0.0985
  884MOL0     C21903   2.187   3.374  12.359  0.0296  0.7513  0.2583
  884MOL0     C21904   2.231   3.346  12.229 -1.0922 -0.1709 -0.2804
  884MOL0     N21905   1.888   2.892  11.703 -0.4593  1.1042  0.1127
  884MOL0     N21906   1.767   2.897  11.661  0.1431  0.2068 -0.0669
  884MOL0     C21907   1.261   4.149  11.666 -0.6318  0.3195  0.0015
  884MOL0     C21908   1.271   4.285  11.664 -0.1213 -0.3582 -0.3589
  884MOL0     C21909   1.298   4.677  11.449 -0.8270  0.3585 -0.0271
  884MOL0     C21910   1.198   4.728  11.364 -0.5825 -0.4920 -0.4307
  884MOL0     C21911   1.169   4.862  11.341 -0.4850 -0.5432  0.4687
  884MOL0     C21912   1.248   4.955  11.406  0.7300  0.2715  0.1103
  884MOL0     O21913   1.219   5.079  11.365 -0.1166 -0.5126  0.1626
  884MOL0     C21914   1.279   5.199  11.425 -0.0982 -0.1024  0.4903
  884MOL0     C21915   1.168   5.295  11.459  0.0078 -0.4152 -0.7408
  884MOL0     C21916   1.136   5.289  11.610 -0.0229  0.9316  0.7701
  884MOL0     C21917   1.027   5.396  11.640 -0.1588  0.4207  0.1208
  884MOL0     C21918   0.988   5.354  11.772  0.7445  0.3306 -1.0826
  884MOL0     C21919   0.959   5.309  11.887  1.6391 -0.4522  0.6333
  884MOL0     C21920   1.359   4.911  11.489  0.8194  0.7997  0.1290
  884MOL0     C21921   1.377   4.775  11.516  0.2351 -0.0739 -0.6659
  884MOL0     C21922   1.504   4.755  11.596  0.4749  0.7870  0.4204
  884MOL0     H21923   1.560   4.316  11.489  0.3227  0.7790  0.4737
  884MOL0     H21924   1.545   4.074  11.501 -1.2895 -1.9523  1.0436
  884MOL0     H21925   1.242   3.881  11.455  2.1112 -0.1166  0.0238
  884MOL0     H21926   1.151   3.913  11.608  0.0755  1.3367 -1.0373
  884MOL0     H21927   1.190   3.699  11.679  0.9589  3.2906  0.3720
  884MOL0     H21928   1.163   3.664  11.504  2.2126 -0.3739 -0.7748
  884MOL0     H21929   1.396   3.668  11.453 -0.8517  0.8648 -0.7457
  884MOL0     H21930   1.432   3.668  11.627  0.4311 -0.4932 -0.2873
  884MOL0     H21931   1.276   3.455  11.639  2.3160  1.1280  1.5414
  884MOL0     H21932   1.290   3.451  11.458  0.6218 -1.9813  0.4922
  884MOL0     H21933   1.533   3.460  11.635 -0.8574  1.2735 -0.6088
  884MOL0     H21934   1.520   3.413  11.462  1.1750  1.4370  0.2981
  884MOL0     H21935   1.366   3.246  11.644  0.6400 -1.9088  1.4302
  884MOL0     H21936   1.443   3.209  11.497  1.2182 -1.1314 -0.7043
  884MOL0     H21937   1.604   3.266  11.757  1.3202  3.7507 -1.6787
  884MOL0     H21938   1.681   3.234  11.608 -0.4606 -2.1707 -1.6595
  884MOL0     H21939   1.496   3.031  11.739  1.0558 -0.3412  0.3637
  884MOL0     H21940   1.543   3.016  11.575 -0.3621 -2.1825  1.0506
  884MOL0     H21941   1.753   3.137  11.876 -1.7218 -1.6306 -0.3544
  884MOL0     H21942   2.095   2.959  11.814 -2.4952 -1.1829 -0.2257
  884MOL0     H21943   2.028   3.074  11.940 -4.8742  0.3581 -0.2776
  884MOL0     H21944   2.087   3.145  11.651 -2.2469  0.4228 -0.2560
  884MOL0     H21945   2.027   3.249  11.780  0.2389 -0.1534 -0.1332
  884MOL0     H21946   2.317   3.119  11.796 -0.0775  0.1521 -0.7696
  884MOL0     H21947   2.289   3.274  11.737 -1.9559 -2.2661 -2.8499
  884MOL0     H21948   2.310   3.354  11.945 -0.4396  0.2038  0.6531
  884MOL0     H21949   2.144   3.294  11.971 -0.1989 -0.2378 -1.6752
  884MOL0     H21950   2.226   3.007  12.237  1.3539  0.6547  2.2052
  884MOL0     H21951   2.125   2.924  12.427  0.8110 -0.0804  0.3192
  884MOL0     H21952   2.018   3.029  12.521  0.6317  1.6187  0.2506
  884MOL0     H21953   2.189   3.014  12.565  0.5360  4.5011 -0.5414
  884MOL0     H21954   1.909   3.184  12.780 -2.0611 -0.9922  1.9361
  884MOL0     H21955   1.835   3.278  12.996 -1.1506  0.3868 -3.1826
  884MOL0     H21956   1.887   3.584  13.155  2.6025 -0.6639 -1.3961
  884MOL0     H21957   1.791   3.443  13.105  0.8036 -0.2300 -1.0386
  884MOL0     H21958   1.701   3.518  13.321 -0.6912 -1.7604  0.2636
  884MOL0     H21959   1.823   3.395  13.369  0.3331 -0.1248  0.5060
  884MOL0     H21960   1.834   3.633  13.505  0.3301  0.8932 -0.5788
  884MOL0     H21961   1.869   3.703  13.356 -0.1150  1.0315  0.5149
  884MOL0     H21962   2.081   3.584  13.360  0.6084  1.0645  0.3168
  884MOL0     H21963   2.018   3.471  13.491  0.1987  1.0592  1.5016
  884MOL0     H21964   2.075   3.775  13.526 -1.9342 -1.1251 -2.3308
  884MOL0     H21965   2.018   3.675  13.649  0.0756  1.5896  0.0834
  884MOL0     H21966   2.288   3.632  13.505 -0.2889  2.4075 -0.5137
  884MOL0     H21967   2.219   3.534  13.644  0.5184 -0.2129 -1.4152
  884MOL0     H21968   2.279   3.674  13.796  0.6860 -3.1557 -1.2891
  884MOL0     H21969   2.235   3.819  13.698 -1.4717 -0.7539 -0.3967
  884MOL0     H21970   2.473   3.631  13.692 -2.3727 -0.6523 -0.9404
  884MOL0     H21971   2.472   3.786  13.772  0.6142 -0.9389  0.0324
  884MOL0     H21972   2.207   3.446  13.080 -0.5977  1.3079 -0.3424
  884MOL0     H21973   2.297   3.370  12.861  1.3489  0.3559  1.9823
  884MOL0     H21974   2.181   3.477  12.392  2.0069  0.9420  0.1571
  884MOL0     H21975   2.257   3.435  12.173 -0.8805  0.1303  0.2941
  884MOL0     H21976   1.180   4.106  11.725 -0.6650  2.1179  1.3485
  884MOL0     H21977   1.187   4.339  11.708 -1.4315 -2.2613 -0.3903
  884MOL0     H21978   1.154   4.656  11.295 -0.2253 -0.3430 -0.8189
  884MOL0     H21979   1.102   4.898  11.264  0.9811  0.4365 -0.4047
  884MOL0     H21980   1.347   5.182  11.508 -0.0042  1.1701  0.6832
  884MOL0     H21981   1.341   5.250  11.351  0.5453 -0.9380  0.4364
  884MOL0     H21982   1.083   5.266  11.396  1.0449 -1.2789 -1.7924
  884MOL0     H21983   1.195   5.398  11.434  1.6178 -0.1120  1.9327
  884MOL0     H21984   1.111   5.187  11.641 -0.3076  1.2118  1.4749
  884MOL0     H21985   1.233   5.313  11.654  0.7149  0.2715 -0.4088
  884MOL0     H21986   0.939   5.396  11.576 -0.0920 -0.6321  0.0118
  884MOL0     H21987   1.074   5.494  11.644 -0.9484  0.7893  0.5705
  884MOL0     H21988   0.940   5.268  11.984  3.0606 -1.2591  0.6125
  884MOL0     H21989   1.431   4.978  11.534  0.4622  1.4821 -0.3039
  884MOL0     H21990   1.535   4.843  11.652 -3.2228  2.7871 -0.3723
  884MOL0     H21991   1.479   4.681  11.673  0.6834 -0.3013 -0.5268
  884MOL0     H21992   1.586   4.703  11.545 -1.9428  0.4256 -3.4767
  885MOL0     O21993  10.958   7.543   6.631 -0.2717  0.4389 -0.0109
  885MOL0     C21994  10.968   7.421   6.646  1.5190  1.2283 -0.5842
  885MOL0     O21995  11.080   7.351   6.669 -0.3011 -0.5584  0.3450
  885MOL0     C21996  11.192   7.422   6.705  0.1852  0.2133  0.2135
  885MOL0     C21997  11.199   7.501   6.822 -0.3314  0.2764 -0.4961
  885MOL0     C21998  11.318   7.570   6.866 -0.1980  0.2768 -0.3527
  885MOL0     C21999  11.445   7.553   6.794  0.7035 -0.5338 -0.4877
  885MOL0     O22000  11.558   7.608   6.843 -0.4539  0.0764 -0.8850
  885MOL0     C22001  11.688   7.595   6.785 -0.3661  0.3420  0.2261
  885MOL0     C22002  11.776   7.719   6.810 -0.7640 -0.0732 -0.6411
  885MOL0     C22003  11.905   7.728   6.712  0.2151  0.1232 -0.7268
  885MOL0     C22004  12.034   7.683   6.771 -0.1426  0.4706  0.0399
  885MOL0     C22005  12.040   7.528   6.763 -0.3022 -0.4958  0.7227
  885MOL0     C22006  12.171   7.487   6.835 -0.5735 -0.6760 -0.2256
  885MOL0     C22007  12.189   7.341   6.854 -0.2553 -0.1990 -0.4931
  885MOL0     C22008  12.200   7.267   6.726  1.1244  0.1619 -0.0009
  885MOL0     N22009  12.190   7.131   6.765  0.7384 -0.5665 -0.0258
  885MOL0     C22010  12.071   7.071   6.811 -0.0119  0.0760 -0.5243
  885MOL0     C22011  12.102   6.941   6.811 -0.0004  0.6192  0.6605
  885MOL0     C22012  12.017   6.823   6.836  1.1850  0.4619 -0.8081
  885MOL0     C22013  11.985   6.816   6.984 -0.4879  0.7283 -0.1788
  885MOL0     C22014  12.104   6.782   7.070  0.1701  0.0750 -0.8854
  885MOL0     C22015  12.199   6.669   7.021  0.0716  0.8979 -0.0884
  885MOL0     O22016  12.259   6.603   7.134 -0.2658  0.6578  0.1593
  885MOL0     C22017  12.375   6.532   7.116  0.1824 -0.2760  0.2550
  885MOL0     C22018  12.429   6.488   7.233  0.5647  0.9467  0.0895
  885MOL0     C22019  12.557   6.430   7.239 -0.4918 -0.3352  0.2319
  885MOL0     C22020  12.596   6.381   7.370  0.0015  0.9263 -1.0962
  885MOL0     C22021  12.628   6.418   7.119 -0.7855  1.2984 -0.6992
  885MOL0     C22022  12.744   6.329   7.106  0.5122  0.1796  0.9600
  885MOL0     O22023  12.818   6.347   7.006 -0.2002  0.4287  0.5032
  885MOL0     C22024  12.929   6.259   6.982 -0.5706 -0.2845  0.0686
  885MOL0     C22025  13.054   6.301   7.036 -0.0804  0.3791  0.5208
  885MOL0     C22026  13.164   6.233   7.007 -0.1457 -0.7671 -0.0559
  885MOL0     C22027  13.159   6.124   6.918 -1.1071  0.1112 -0.5353
  885MOL0     O22028  13.275   6.052   6.878 -0.6212  0.3336  0.2151
  885MOL0     C22029  13.404   6.070   6.940  0.4748 -0.3311  0.0077
  885MOL0     C22030  13.522   6.024   6.857 -0.3296  0.2229  0.1213
  885MOL0     C22031  13.514   5.866   6.841 -0.1981 -0.0282  0.4527
  885MOL0     C22032  13.653   5.823   6.789  0.0050 -0.0976  0.3484
  885MOL0     C22033  13.754   5.789   6.898  0.3760  0.2454 -0.6894
  885MOL0     C22034  13.875   5.706   6.848  0.4671 -0.0205  0.0040
  885MOL0     C22035  13.992   5.719   6.941 -0.8150  0.0115 -0.0698
  885MOL0     C22036  14.109   5.636   6.893 -0.1001 -0.6437 -0.5401
  885MOL0    Cl22037  14.169   5.679   6.731 -0.0753  0.3482  0.3022
  885MOL0     C22038  13.036   6.082   6.868  1.2185 -0.2647 -0.3187
  885MOL0     C22039  12.920   6.146   6.910  0.1071  0.1959  0.4538
  885MOL0     O22040  12.769   6.242   7.191  0.1592 -0.0035 -0.2834
  885MOL0     C22041  12.567   6.452   6.996  0.4768 -0.6977 -0.5378
  885MOL0     C22042  12.439   6.513   6.996  0.2149  0.2801  0.0803
  885MOL0     N22043  12.224   6.922   6.755  0.0920 -0.5482  0.7606
  885MOL0     N22044  12.275   7.039   6.721 -0.7987 -0.2936 -0.5695
  885MOL0     C22045  11.434   7.479   6.676 -0.1123 -0.2840 -0.5907
  885MOL0     C22046  11.310   7.416   6.629 -0.1534  0.2907 -0.6392
  885MOL0     C22047  10.845   7.330   6.614  0.3632 -0.5965 -0.2910
  885MOL0     C22048  10.870   7.192   6.625 -0.1033  0.3714  0.5121
  885MOL0     C22049  10.768   7.095   6.592 -0.0009 -0.3494 -0.7630
  885MOL0     C22050  10.640   7.139   6.547  1.0671  0.1628  0.1933
  885MOL0     O22051  10.531   7.048   6.541 -0.4398 -0.3062 -0.2939
  885MOL0     C22052  10.422   7.066   6.625  0.5490 -0.2742 -0.5430
  885MOL0     C22053  10.396   6.922   6.684  0.3501 -0.7638  0.4431
  885MOL0     C22054  10.290   6.919   6.794 -0.1492  1.1382  0.5768
  885MOL0     C22055  10.282   6.772   6.856  0.1172  0.7077 -0.9638
  885MOL0     C22056  10.161   6.764   6.936 -0.5178  0.7774  0.4096
  885MOL0     C22057  10.069   6.752   7.011  0.1306  0.3445 -0.1310
  885MOL0     C22058  10.622   7.280   6.531  0.8691 -0.8487  0.1329
  885MOL0     C22059  10.721   7.373   6.569  0.0845  0.7459 -0.2149
  885MOL0     C22060  10.691   7.520   6.587 -0.7000  0.6829  0.4135
  885MOL0     H22061  11.104   7.514   6.873 -1.0492  1.1408 -1.9995
  885MOL0     H22062  11.315   7.632   6.955  1.0149 -0.6611  0.3688
  885MOL0     H22063  11.676   7.587   6.677  3.5940  2.4338 -0.5456
  885MOL0     H22064  11.726   7.505   6.836 -3.4350 -0.2651  1.6985
  885MOL0     H22065  11.720   7.813   6.812 -0.2522  0.2483 -1.1398
  885MOL0     H22066  11.819   7.708   6.910 -0.9492 -2.3689 -0.7634
  885MOL0     H22067  11.903   7.663   6.624 -1.3471 -1.5792  0.4563
  885MOL0     H22068  11.918   7.831   6.678  0.4272  0.7296  1.0828
  885MOL0     H22069  12.107   7.737   6.710 -0.1566 -1.6948 -2.0714
  885MOL0     H22070  12.036   7.715   6.876  1.2713 -2.4242  1.0246
  885MOL0     H22071  12.063   7.512   6.657  2.8445 -0.9623  1.3598
  885MOL0     H22072  11.954   7.470   6.798 -0.1643 -1.2991 -0.2134
  885MOL0     H22073  12.255   7.526   6.777 -1.0693 -1.8022 -1.7780
  885MOL0     H22074  12.185   7.523   6.938 -1.8256 -1.9308  0.4182
  885MOL0     H22075  12.102   7.302   6.907  0.4555 -4.0377 -1.8096
  885MOL0     H22076  12.276   7.321   6.917 -0.4112  0.2598 -0.1296
  885MOL0     H22077  12.115   7.289   6.661  0.4822 -3.4852 -0.5995
  885MOL0     H22078  12.292   7.298   6.675  1.0320  0.2874 -0.0931
  885MOL0     H22079  11.972   7.113   6.827  0.7624  1.3568  1.1319
  885MOL0     H22080  12.058   6.729   6.799  0.3435 -0.1601 -0.2127
  885MOL0     H22081  11.918   6.836   6.791  0.3128 -0.4813  0.7768
  885MOL0     H22082  11.948   6.912   7.021  1.2423  0.0965  3.6418
  885MOL0     H22083  11.902   6.745   6.992  1.7073 -2.0217 -0.3079
  885MOL0     H22084  12.167   6.869   7.092 -3.0662  2.6274 -0.9972
  885MOL0     H22085  12.050   6.748   7.160  1.0793 -0.1273 -0.4025
  885MOL0     H22086  12.136   6.592   6.975  1.8098 -0.5352 -0.1657
  885MOL0     H22087  12.267   6.719   6.951  2.3822  0.1315  1.4806
  885MOL0     H22088  12.360   6.473   7.315  0.4458 -3.5882 -0.5596
  885MOL0     H22089  12.692   6.422   7.403  0.0626  1.8840 -2.3736
  885MOL0     H22090  12.582   6.274   7.387  1.5549  0.7689 -0.6776
  885MOL0     H22091  12.531   6.422   7.447  2.1165  2.4232 -0.0157
  885MOL0     H22092  13.053   6.396   7.088  0.2722  1.4847 -1.4102
  885MOL0     H22093  13.261   6.268   7.040 -0.4187  0.6626 -0.7085
  885MOL0     H22094  13.424   6.175   6.961  3.0322 -0.3511 -1.7574
  885MOL0     H22095  13.406   6.009   7.031 -1.8048  0.9162  0.9785
  885MOL0     H22096  13.516   6.071   6.758  1.3407  0.6645  0.1913
  885MOL0     H22097  13.605   6.063   6.917 -0.4993  2.0155 -0.7241
  885MOL0     H22098  13.422   5.840   6.788  1.5488 -2.3911 -1.6691
  885MOL0     H22099  13.500   5.820   6.939 -0.2013  0.1592  0.5393
  885MOL0     H22100  13.697   5.887   6.712  1.6181  1.0643  2.1516
  885MOL0     H22101  13.621   5.733   6.737  1.1249 -0.5797  0.4818
  885MOL0     H22102  13.790   5.886   6.932  0.5560  0.3130 -1.0674
  885MOL0     H22103  13.714   5.737   6.985 -0.6414 -1.1781 -1.9484
  885MOL0     H22104  13.907   5.733   6.747 -0.2578 -2.6270 -1.0021
  885MOL0     H22105  13.844   5.602   6.836 -1.1743  0.1320  2.1885
  885MOL0     H22106  13.958   5.684   7.038  0.6465  0.4171  0.6246
  885MOL0     H22107  14.022   5.825   6.934 -0.8831  0.0208 -0.2240
  885MOL0     H22108  14.091   5.528   6.893  2.3045 -1.1179 -1.2964
  885MOL0     H22109  14.192   5.643   6.964  0.0844 -1.9465 -0.5909
  885MOL0     H22110  13.039   5.993   6.807  2.5702  0.1626 -0.9293
  885MOL0     H22111  12.823   6.107   6.883 -0.3601  1.8040 -0.3826
  885MOL0     H22112  12.619   6.424   6.904 -2.0079 -2.2059 -1.5995
  885MOL0     H22113  12.389   6.535   6.902 -1.3046 -1.4411  0.4362
  885MOL0     H22114  11.522   7.469   6.613 -0.4252  3.4264 -1.8953
  885MOL0     H22115  11.311   7.356   6.539  3.5499 -0.3927 -0.2847
  885MOL0     H22116  10.965   7.146   6.647  1.2246  0.9140 -3.3834
  885MOL0     H22117  10.782   6.989   6.609  0.7754  0.2492  3.7204
  885MOL0     H22118  10.448   7.136   6.705  3.9816 -2.2222  0.2386
  885MOL0     H22119  10.338   7.111   6.570  0.7392 -1.0016 -1.4560
  885MOL0     H22120  10.487   6.873   6.720  0.5095  0.8011  2.3372
  885MOL0     H22121  10.359   6.857   6.604  0.4333 -1.7981  1.2251
  885MOL0     H22122  10.310   6.989   6.876 -0.5195 -0.8389  2.4366
  885MOL0     H22123  10.190   6.947   6.760 -0.6535  0.7609  1.6868
  885MOL0     H22124  10.373   6.760   6.916 -1.6619  1.1932  2.0106
  885MOL0     H22125  10.267   6.690   6.786  2.1365 -2.9685  2.4840
  885MOL0     H22126   9.989   6.755   7.083  0.1180 -0.3964 -0.1007
  885MOL0     H22127  10.525   7.327   6.515  1.9764  1.5652 -0.0531
  885MOL0     H22128  10.757   7.577   6.520  3.0042 -1.2519  2.1061
  885MOL0     H22129  10.588   7.541   6.558 -1.6681 -2.5477  1.1154
  885MOL0     H22130  10.717   7.551   6.688  1.7886  1.2117 -0.3060
  886MOL0     O22131   8.534  11.256   2.061  0.1708 -0.4664  0.1490
  886MOL0     C22132   8.492  11.286   2.170  0.8717  0.6191  0.0379
  886MOL0     O22133   8.573  11.329   2.267 -0.4857  0.7064 -0.1602
  886MOL0     C22134   8.709  11.319   2.256  0.0494 -0.8624  0.4631
  886MOL0     C22135   8.767  11.198   2.219  0.1103 -0.0148 -1.3849
  886MOL0     C22136   8.910  11.192   2.200 -0.3492 -0.4402  0.0311
  886MOL0     C22137   8.990  11.308   2.200 -0.5616 -0.9518  0.0806
  886MOL0     O22138   9.126  11.323   2.182 -0.4106  0.3445  0.2586
  886MOL0     C22139   9.204  11.201   2.180  1.7135 -0.4742  0.5509
  886MOL0     C22140   9.348  11.232   2.180 -1.1356 -0.1139  0.0246
  886MOL0     C22141   9.436  11.118   2.134  0.4660  0.6215  0.0544
  886MOL0     C22142   9.415  11.064   1.990 -0.8062  0.4427  0.3140
  886MOL0     C22143   9.548  10.997   1.962  0.0457 -0.0866  0.1156
  886MOL0     C22144   9.541  10.910   1.834 -0.4994  0.0787 -0.0295
  886MOL0     C22145   9.666  10.830   1.794 -0.2225 -0.0463  1.2462
  886MOL0     C22146   9.786  10.924   1.770  0.6576  0.0098  0.4604
  886MOL0     N22147   9.919  10.860   1.776  0.3823  0.9501 -0.5065
  886MOL0     C22148   9.979  10.799   1.678 -1.3678  0.0774  0.6642
  886MOL0     C22149  10.092  10.751   1.732  0.2191 -0.1788  0.1967
  886MOL0     C22150  10.205  10.681   1.668 -0.4122  0.5161 -0.8230
  886MOL0     C22151  10.344  10.726   1.718  0.5613 -1.0203 -0.4624
  886MOL0     C22152  10.456  10.636   1.679  0.1396  0.1930  0.0934
  886MOL0     C22153  10.588  10.706   1.672 -0.5060 -0.0609  0.4579
  886MOL0     O22154  10.615  10.757   1.806  0.9954 -0.0745  0.2560
  886MOL0     C22155  10.734  10.781   1.861 -0.1656 -0.5330 -0.2901
  886MOL0     C22156  10.723  10.814   1.986  0.2827  0.5925  0.0882
  886MOL0     C22157  10.828  10.848   2.072 -0.2289 -0.6528 -0.0028
  886MOL0     C22158  10.785  10.889   2.208 -0.4475  0.9535 -0.5708
  886MOL0     C22159  10.961  10.851   2.017 -0.2816  0.2778 -0.7772
  886MOL0     C22160  11.073  10.889   2.102  0.4207  0.1489  0.5863
  886MOL0     O22161  11.066  10.830   2.225 -0.2100 -0.4840 -0.5066
  886MOL0     C22162  11.168  10.861   2.305  0.2727 -0.5887  0.1053
  886MOL0     C22163  11.147  10.953   2.411 -0.8799  0.8354 -1.3647
  886MOL0     C22164  11.242  10.947   2.514 -0.3557 -0.7360 -0.1183
  886MOL0     C22165  11.368  10.874   2.507  0.2968  0.2176 -0.2145
  886MOL0     O22166  11.477  10.883   2.596  0.2002 -0.3015 -0.1703
  886MOL0     C22167  11.480  10.988   2.694  0.7680  0.0062 -0.6306
  886MOL0     C22168  11.630  11.009   2.725 -1.0569 -0.0954  0.2345
  886MOL0     C22169  11.703  10.894   2.794  0.4451 -0.2884 -0.0381
  886MOL0     C22170  11.641  10.846   2.930  0.3832  0.3532  0.3747
  886MOL0     C22171  11.744  10.745   2.996 -0.5683 -0.0618 -0.3644
  886MOL0     C22172  11.750  10.735   3.144 -0.0017  0.0633  0.6578
  886MOL0     C22173  11.858  10.643   3.190  0.2506 -0.1688  0.8318
  886MOL0     C22174  11.981  10.721   3.230 -0.2079 -0.3645 -0.4904
  886MOL0    Cl22175  12.037  10.821   3.095 -0.2163  0.2305  0.6940
  886MOL0     C22176  11.386  10.800   2.400 -0.1788  0.0573 -0.3162
  886MOL0     C22177  11.288  10.777   2.300  0.4156 -1.3554 -0.0014
  886MOL0     O22178  11.160  10.961   2.055 -1.1741  0.2413  0.8414
  886MOL0     C22179  10.980  10.816   1.886  0.6573 -0.5617  0.2240
  886MOL0     C22180  10.868  10.773   1.808  0.6954  0.2080  0.1605
  886MOL0     N22181  10.100  10.788   1.866 -0.2528 -0.0766 -0.3259
  886MOL0     N22182   9.993  10.857   1.890  0.6753  0.1621  1.1583
  886MOL0     C22183   8.923  11.433   2.237  0.6611 -0.1099 -0.2178
  886MOL0     C22184   8.790  11.438   2.262  0.2517 -0.2954  0.5530
  886MOL0     C22185   8.347  11.266   2.194 -0.5482  0.0113 -0.7367
  886MOL0     C22186   8.300  11.319   2.315 -0.1571 -0.6773  0.1172
  886MOL0     C22187   8.184  11.270   2.368  1.0574 -0.1614 -0.6756
  886MOL0     C22188   8.090  11.188   2.295 -0.7789 -0.6109  0.4636
  886MOL0     O22189   7.971  11.158   2.360  0.0759 -0.1183 -0.2208
  886MOL0     C22190   7.905  11.034   2.335 -0.2881 -0.1073 -0.2910
  886MOL0     C22191   7.778  11.003   2.400 -0.6127  0.2821 -0.1854
  886MOL0     C22192   7.660  11.095   2.383 -0.6360 -0.2533  0.0807
  886MOL0     C22193   7.525  11.015   2.355 -0.4048  0.2810 -0.6224
  886MOL0     C22194   7.477  10.921   2.459 -0.0791  0.1548  0.7676
  886MOL0     C22195   7.443  10.851   2.557 -0.6850  0.0572 -0.7256
  886MOL0     C22196   8.129  11.136   2.173 -0.0146 -0.5596 -0.1905
  886MOL0     C22197   8.255  11.181   2.122 -0.4433 -0.6369  0.4447
  886MOL0     C22198   8.285  11.130   1.978 -0.4839 -0.5271 -0.0687
  886MOL0     H22199   8.702  11.111   2.210  1.1448 -0.9245 -0.4285
  886MOL0     H22200   8.946  11.092   2.181 -0.6369 -0.7420  1.0315
  886MOL0     H22201   9.177  11.151   2.086  1.3546 -0.1507  0.4816
  886MOL0     H22202   9.179  11.135   2.263  1.6518 -0.7287  0.3338
  886MOL0     H22203   9.359  11.322   2.118 -0.2207  1.1173  1.8782
  886MOL0     H22204   9.382  11.262   2.280  1.2083  1.3700 -1.1238
  886MOL0     H22205   9.540  11.150   2.145  0.2804  0.4988  3.1457
  886MOL0     H22206   9.414  11.030   2.196 -2.5835  1.2890  0.1023
  886MOL0     H22207   9.336  10.989   1.987  0.9989 -1.8519  3.5958
  886MOL0     H22208   9.399  11.150   1.924  3.4516  0.8637 -0.4475
  886MOL0     H22209   9.580  10.938   2.049  1.9888 -0.5449 -0.8605
  886MOL0     H22210   9.628  11.071   1.952  2.3638 -2.2366  1.5565
  886MOL0     H22211   9.458  10.840   1.841 -0.3222 -0.3488 -1.6510
  886MOL0     H22212   9.519  10.981   1.753 -1.3453  1.4922  1.3887
  886MOL0     H22213   9.655  10.770   1.704  1.8619 -0.0383  0.9423
  886MOL0     H22214   9.704  10.752   1.860  3.4068  0.8356  0.4425
  886MOL0     H22215   9.764  10.984   1.681 -1.3717  1.2172  1.6922
  886MOL0     H22216   9.791  11.001   1.847 -0.3864 -0.6632  1.2385
  886MOL0     H22217   9.955  10.804   1.573 -0.7248 -0.7599  0.4621
  886MOL0     H22218  10.192  10.689   1.560 -1.9986 -3.8847 -1.1386
  886MOL0     H22219  10.185  10.576   1.692  0.5013  0.9404  2.3069
  886MOL0     H22220  10.366  10.819   1.665  2.6335 -2.3031 -2.0286
  886MOL0     H22221  10.345  10.738   1.826 -2.4950  1.4318 -0.5759
  886MOL0     H22222  10.466  10.555   1.752 -0.5383  1.3746  1.5740
  886MOL0     H22223  10.433  10.583   1.586 -1.2710 -0.2374  0.6560
  886MOL0     H22224  10.662  10.629   1.649 -0.3642 -0.3542  1.8065
  886MOL0     H22225  10.596  10.789   1.601  2.4384  1.0955  1.9430
  886MOL0     H22226  10.626  10.814   2.035  1.0294  1.6972  1.6606
  886MOL0     H22227  10.843  10.968   2.257 -2.7639  1.6151  1.3188
  886MOL0     H22228  10.796  10.802   2.274 -1.8156 -0.4924 -2.1495
  886MOL0     H22229  10.682  10.927   2.211 -1.5260 -1.6323  3.5630
  886MOL0     H22230  11.054  11.008   2.426 -0.8780  0.5404 -0.1432
  886MOL0     H22231  11.220  11.006   2.603  1.5837  0.7063 -0.5401
  886MOL0     H22232  11.431  11.075   2.649 -2.1334 -0.5508  1.1923
  886MOL0     H22233  11.428  10.939   2.777  0.2045 -2.4369 -2.3021
  886MOL0     H22234  11.687  11.044   2.638  0.8026 -0.6412  1.1757
  886MOL0     H22235  11.627  11.099   2.787 -1.5293  1.7316 -2.2408
  886MOL0     H22236  11.804  10.929   2.819 -0.0528  3.0516 -2.1491
  886MOL0     H22237  11.700  10.816   2.718 -0.8629  1.5423 -1.9539
  886MOL0     H22238  11.548  10.791   2.917  1.9777 -2.2715 -0.7532
  886MOL0     H22239  11.618  10.935   2.990  0.0328 -0.8227  2.0536
  886MOL0     H22240  11.725  10.643   2.961  2.5540 -1.6522  2.0393
  886MOL0     H22241  11.841  10.774   2.954 -0.0523 -1.6631 -0.3595
  886MOL0     H22242  11.657  10.701   3.190 -0.8196  0.0301 -0.9539
  886MOL0     H22243  11.772  10.835   3.184  1.4173  0.6994 -1.4947
  886MOL0     H22244  11.887  10.575   3.109  3.5862  2.4127 -0.3950
  886MOL0     H22245  11.833  10.587   3.280 -3.4329 -1.2335 -0.6518
  886MOL0     H22246  12.059  10.651   3.260 -0.1795  0.0039  0.3157
  886MOL0     H22247  11.962  10.796   3.307 -0.3043  0.7405 -1.5643
  886MOL0     H22248  11.474  10.738   2.385 -1.7940 -2.5508  0.2464
  886MOL0     H22249  11.300  10.694   2.232 -0.6412 -1.7365  0.2524
  886MOL0     H22250  11.078  10.808   1.840  0.2173 -1.2876 -0.6209
  886MOL0     H22251  10.892  10.729   1.711  2.0887  2.6141 -0.6761
  886MOL0     H22252   8.989  11.519   2.245  0.4158 -0.0052  6.4845
  886MOL0     H22253   8.744  11.531   2.292 -0.4658 -0.8087  1.0775
  886MOL0     H22254   8.347  11.404   2.364  2.9396 -1.5302 -1.1824
  886MOL0     H22255   8.146  11.305   2.464 -1.3373 -1.2372 -1.1584
  886MOL0     H22256   7.874  11.023   2.231 -0.5454 -1.5012 -0.0841
  886MOL0     H22257   7.982  10.958   2.353  1.2499  1.3822 -0.2826
  886MOL0     H22258   7.793  10.981   2.506 -4.8322  1.0305  0.7399
  886MOL0     H22259   7.750  10.906   2.360 -2.4988 -0.0131  1.6533
  886MOL0     H22260   7.657  11.169   2.464 -0.1566  0.6913 -0.7434
  886MOL0     H22261   7.667  11.144   2.285 -1.1662 -0.2645  0.0337
  886MOL0     H22262   7.526  10.981   2.251  4.7430  3.1340 -1.8260
  886MOL0     H22263   7.442  11.086   2.351 -2.2462 -1.7083 -0.1336
  886MOL0     H22264   7.416  10.780   2.632  0.1039  0.9071  0.3819
  886MOL0     H22265   8.062  11.074   2.114  0.7963  0.3387 -2.1415
  886MOL0     H22266   8.363  11.053   1.975  0.3177  0.0993  2.1411
  886MOL0     H22267   8.189  11.099   1.936  0.5481 -0.0863 -3.0035
  886MOL0     H22268   8.336  11.211   1.926  1.1350  0.3927  2.7066
  887MOL0     O22269   1.805  10.952   7.756 -0.6881 -0.3407  0.2289
  887MOL0     C22270   1.706  10.905   7.709  1.2396 -0.5645 -0.3776
  887MOL0     O22271   1.694  10.855   7.588 -0.1583  0.0954  0.0817
  887MOL0     C22272   1.794  10.859   7.491 -0.2450 -0.0214  0.2545
  887MOL0     C22273   1.774  10.923   7.363 -0.4148  0.2962 -0.7555
  887MOL0     C22274   1.871  10.899   7.273  0.4060 -0.4637 -0.6832
  887MOL0     C22275   1.988  10.834   7.294  0.8062  0.7927  0.0641
  887MOL0     O22276   2.081  10.812   7.191  0.3298  0.3039  0.0577
  887MOL0     C22277   2.122  10.673   7.189  0.5590 -0.3561  0.0041
  887MOL0     C22278   2.113  10.607   7.056  0.3746 -0.0398  0.9269
  887MOL0     C22279   2.225  10.645   6.961 -0.3932  0.3418 -0.2655
  887MOL0     C22280   2.223  10.550   6.834 -0.4789  0.0501 -0.5386
  887MOL0     C22281   2.267  10.405   6.854  0.5223  1.0992  0.2612
  887MOL0     C22282   2.306  10.344   6.713 -0.8614 -0.1474 -0.6399
  887MOL0     C22283   2.386  10.215   6.718  0.3083  0.2862 -0.6436
  887MOL0     C22284   2.391  10.155   6.580 -0.8555  0.4567 -0.0813
  887MOL0     N22285   2.456  10.025   6.588  0.2037  0.2790 -0.6746
  887MOL0     C22286   2.414   9.917   6.657 -0.5572 -0.1164  0.2480
  887MOL0     C22287   2.507   9.826   6.617 -0.6093  0.3955 -1.1034
  887MOL0     C22288   2.504   9.687   6.661  0.0599 -0.2241  0.6166
  887MOL0     C22289   2.627   9.670   6.768 -1.5149  0.2793  1.0420
  887MOL0     C22290   2.590   9.734   6.897 -0.3856 -0.4735  0.1973
  887MOL0     C22291   2.677   9.704   7.023 -0.1136 -0.6068  0.3505
  887MOL0     O22292   2.734   9.574   7.040  0.0762 -0.6816  0.6768
  887MOL0     C22293   2.826   9.547   7.142  0.8620 -0.8157  0.4434
  887MOL0     C22294   2.846   9.630   7.256  0.3820 -0.5126  0.0374
  887MOL0     C22295   2.943   9.598   7.356  0.1165 -0.7697  0.7198
  887MOL0     C22296   2.956   9.712   7.453 -0.7120  0.1576  0.6004
  887MOL0     C22297   3.038   9.491   7.330  0.6452  0.4322 -1.3491
  887MOL0     C22298   3.164   9.461   7.422  0.1049  0.5248  0.4794
  887MOL0     O22299   3.241   9.355   7.386  0.3238 -0.4428 -0.5074
  887MOL0     C22300   3.362   9.340   7.434  0.2897  0.0337 -0.5997
  887MOL0     C22301   3.460   9.436   7.406 -0.7786 -0.6250 -0.5333
  887MOL0     C22302   3.592   9.424   7.460  0.7138  0.0072 -0.0465
  887MOL0     C22303   3.626   9.303   7.529 -0.6295  0.2010 -0.1729
  887MOL0     O22304   3.754   9.266   7.582 -0.1592  0.1237  0.2845
  887MOL0     C22305   3.861   9.360   7.568 -0.3796  1.3152  0.5462
  887MOL0     C22306   3.973   9.266   7.626  0.1948 -0.9352  0.2143
  887MOL0     C22307   4.114   9.326   7.623  0.0979 -0.0722  0.2823
  887MOL0     C22308   4.151   9.422   7.738  0.7731  0.3892  0.7113
  887MOL0     C22309   4.295   9.460   7.732  0.0689 -0.1191 -0.2296
  887MOL0     C22310   4.337   9.546   7.857 -0.7642  0.1374 -0.5562
  887MOL0     C22311   4.488   9.596   7.844  0.3434 -0.0440 -0.4024
  887MOL0     C22312   4.592   9.495   7.898 -0.4228  0.5460 -0.0970
  887MOL0    Cl22313   4.576   9.491   8.076  0.4398  0.3810 -0.0672
  887MOL0     C22314   3.521   9.219   7.567 -0.1843  0.0318 -0.8314
  887MOL0     C22315   3.392   9.227   7.513  0.4068 -0.8857 -0.1576
  887MOL0     O22316   3.195   9.542   7.509  0.3553  0.3870 -0.1558
  887MOL0     C22317   3.012   9.403   7.227 -0.1677 -0.7695  0.0315
  887MOL0     C22318   2.914   9.434   7.126  1.2049 -0.7369 -0.3195
  887MOL0     N22319   2.593   9.881   6.528  0.2916  0.3232  0.1778
  887MOL0     N22320   2.557   9.998   6.511 -0.1182  0.4847  0.2702
  887MOL0     C22321   2.003  10.788   7.421 -0.2207 -0.5405  0.2538
  887MOL0     C22322   1.916  10.803   7.524  0.4631  0.1470 -0.0411
  887MOL0     C22323   1.577  10.906   7.786  0.2419  1.0206 -1.1385
  887MOL0     C22324   1.452  10.891   7.716 -0.0476  0.0881  0.9281
  887MOL0     C22325   1.329  10.893   7.766  0.2142 -0.0041 -0.1570
  887MOL0     C22326   1.319  10.898   7.907 -0.7113 -0.1346 -0.2398
  887MOL0     O22327   1.200  10.909   7.967  0.7338  0.1028 -0.2641
  887MOL0     C22328   1.188  10.864   8.104 -0.9452  0.1199 -0.2603
  887MOL0     C22329   1.047  10.882   8.160 -0.8892 -0.3544  0.3203
  887MOL0     C22330   1.042  10.890   8.315  0.1056  0.1736  0.0227
  887MOL0     C22331   0.901  10.935   8.372 -1.0487 -0.3192  0.0797
  887MOL0     C22332   0.788  10.863   8.309  0.3667 -1.7933 -0.0285
  887MOL0     C22333   0.683  10.812   8.278  0.0701  0.1108  0.4248
  887MOL0     C22334   1.439  10.906   7.985 -0.3825  0.9069  0.1010
  887MOL0     C22335   1.562  10.904   7.931 -0.3878 -0.2108  0.7341
  887MOL0     C22336   1.677  10.863   8.029 -0.5867  0.2642  0.1959
  887MOL0     H22337   1.681  10.971   7.333 -1.8517 -0.3763  2.2135
  887MOL0     H22338   1.864  10.937   7.172 -1.0616  0.9385 -0.1046
  887MOL0     H22339   2.053  10.617   7.253  2.0197 -0.9753  1.0934
  887MOL0     H22340   2.223  10.657   7.227  0.3857  1.1661  1.2043
  887MOL0     H22341   2.116  10.499   7.074 -3.3454 -0.2156  1.2812
  887MOL0     H22342   2.012  10.622   7.017  0.4393 -0.7388  0.4840
  887MOL0     H22343   2.216  10.750   6.930 -3.1299 -0.5856 -3.0852
  887MOL0     H22344   2.318  10.635   7.019 -1.1152 -0.7034  0.7535
  887MOL0     H22345   2.121  10.548   6.793 -0.9749  1.7458  0.5204
  887MOL0     H22346   2.288  10.595   6.759  1.9210  2.0268  2.4922
  887MOL0     H22347   2.188  10.338   6.889  0.5735 -0.9071 -3.0832
  887MOL0     H22348   2.354  10.397   6.919  1.8733 -0.3973 -1.6346
  887MOL0     H22349   2.205  10.327   6.675 -0.9206  0.8502 -0.9419
  887MOL0     H22350   2.359  10.422   6.658 -0.3480  0.6733  0.9436
  887MOL0     H22351   2.344  10.141   6.787  0.9520 -0.6577 -1.2397
  887MOL0     H22352   2.488  10.230   6.754  1.1041  0.7812 -2.9257
  887MOL0     H22353   2.288  10.126   6.554 -0.4243 -0.7513 -0.5089
  887MOL0     H22354   2.438  10.222   6.508 -1.9636  1.5696  0.1914
  887MOL0     H22355   2.331   9.903   6.726 -0.1073 -0.6969  0.6790
  887MOL0     H22356   2.516   9.621   6.575 -0.1747  2.2735 -1.4837
  887MOL0     H22357   2.406   9.653   6.696 -0.0748  0.0666  0.5304
  887MOL0     H22358   2.660   9.566   6.780 -1.6701 -0.5461 -3.8153
  887MOL0     H22359   2.717   9.721   6.733 -1.1953 -1.7414 -1.3351
  887MOL0     H22360   2.586   9.841   6.873  0.2090 -0.2323  1.1260
  887MOL0     H22361   2.487   9.706   6.923 -1.2597  3.1584  1.2107
  887MOL0     H22362   2.763   9.772   7.025 -0.2630 -0.2840  4.5620
  887MOL0     H22363   2.615   9.726   7.111  0.0049  2.0741 -0.1639
  887MOL0     H22364   2.790   9.721   7.275  1.8800 -0.0449  2.8722
  887MOL0     H22365   2.871   9.780   7.469  0.6419  2.1777 -0.4142
  887MOL0     H22366   3.043   9.772   7.425 -0.3984 -1.1042 -1.2920
  887MOL0     H22367   2.966   9.674   7.555 -1.5179 -0.3171  0.5128
  887MOL0     H22368   3.435   9.518   7.339  0.3145  0.9244  0.8502
  887MOL0     H22369   3.665   9.503   7.446  1.4299 -0.7212 -0.4919
  887MOL0     H22370   3.886   9.374   7.462 -0.1703  2.6172  0.7557
  887MOL0     H22371   3.850   9.451   7.627 -1.6872 -1.2746  4.7214
  887MOL0     H22372   3.952   9.240   7.730 -1.4775 -0.6626 -0.0304
  887MOL0     H22373   3.974   9.174   7.566 -0.9993  0.7309 -2.5642
  887MOL0     H22374   4.112   9.387   7.531 -2.3845  2.2954  1.7438
  887MOL0     H22375   4.182   9.242   7.609  1.1575  0.6608  0.9190
  887MOL0     H22376   4.141   9.357   7.826  1.6951  1.1989  1.4369
  887MOL0     H22377   4.084   9.509   7.737  0.9658  0.6144  2.7129
  887MOL0     H22378   4.359   9.371   7.726  0.6265  0.2956 -0.4414
  887MOL0     H22379   4.321   9.519   7.644 -0.9357  2.5543  1.1535
  887MOL0     H22380   4.325   9.488   7.949 -0.7547  0.7082 -0.1883
  887MOL0     H22381   4.267   9.629   7.868  0.7550  1.0821  4.3218
  887MOL0     H22382   4.489   9.695   7.890 -0.3649 -1.2153  2.3712
  887MOL0     H22383   4.514   9.626   7.742  1.7253 -0.9352 -0.3339
  887MOL0     H22384   4.689   9.541   7.880 -0.4272  0.6624  0.1725
  887MOL0     H22385   4.590   9.391   7.862  0.2862  0.1620  0.9482
  887MOL0     H22386   3.542   9.135   7.632  1.8207 -0.0035 -1.4596
  887MOL0     H22387   3.311   9.159   7.540 -0.8359  0.4732 -0.3106
  887MOL0     H22388   3.069   9.313   7.204  0.7544  0.3139 -2.2528
  887MOL0     H22389   2.896   9.354   7.054  0.7018 -0.9319  0.0170
  887MOL0     H22390   2.093  10.731   7.442  0.8261  1.4643  1.4486
  887MOL0     H22391   1.925  10.768   7.627  2.3410  1.3011  0.2180
  887MOL0     H22392   1.464  10.883   7.609 -1.8335  0.7563  0.6555
  887MOL0     H22393   1.241  10.893   7.702  1.8079 -2.0579 -2.5835
  887MOL0     H22394   1.212  10.758   8.115  1.2294  0.1878 -3.1185
  887MOL0     H22395   1.261  10.921   8.163  1.2658  0.7091 -3.2901
  887MOL0     H22396   0.993  10.797   8.118  2.1898 -0.3495 -4.3829
  887MOL0     H22397   1.004  10.975   8.121 -1.5040 -1.1019 -0.8405
  887MOL0     H22398   1.066  10.789   8.350 -0.4622  0.9460  2.8882
  887MOL0     H22399   1.126  10.949   8.351  0.8697 -0.7878 -0.1386
  887MOL0     H22400   0.889  11.040   8.344  0.4983  1.5270  5.1833
  887MOL0     H22401   0.903  10.929   8.481 -0.4425  1.4840  0.2024
  887MOL0     H22402   0.596  10.771   8.232  0.6692 -1.0738  0.2914
  887MOL0     H22403   1.448  10.876   8.089 -0.6113 -1.7283 -0.5539
  887MOL0     H22404   1.664  10.915   8.124  1.0961 -0.9836  1.1668
  887MOL0     H22405   1.669  10.754   8.033 -2.2332  0.4002  1.4381
  887MOL0     H22406   1.776  10.897   7.999  0.6435 -0.9942  2.5944
  888MOL0     O22407   9.908   1.997   4.430 -0.0633  0.1593 -0.2630
  888MOL0     C22408   9.902   2.117   4.399 -0.0679  0.5181 -0.3716
  888MOL0     O22409   9.986   2.184   4.315 -0.2915 -0.5237  0.0770
  888MOL0     C22410  10.069   2.120   4.219  0.7415 -0.0649 -0.9387
  888MOL0     C22411  10.185   2.194   4.200  0.4259 -0.2917 -0.9084
  888MOL0     C22412  10.277   2.144   4.111 -0.3210 -0.7618 -0.1916
  888MOL0     C22413  10.275   2.019   4.061  0.5704  0.5644 -0.3420
  888MOL0     O22414  10.374   1.975   3.983 -0.4118  0.4299 -1.4674
  888MOL0     C22415  10.344   1.883   3.869  0.2984  0.0228  1.0819
  888MOL0     C22416  10.474   1.823   3.825  0.1571  0.1015  0.2563
  888MOL0     C22417  10.568   1.931   3.791  0.5014 -0.3333 -0.1234
  888MOL0     C22418  10.685   1.885   3.704  0.0441 -0.3984 -0.0198
  888MOL0     C22419  10.758   2.005   3.645  0.3472 -0.6503 -0.0678
  888MOL0     C22420  10.866   1.968   3.547  0.1479  0.0925  1.0598
  888MOL0     C22421  10.959   2.092   3.510 -0.1207  0.2474  0.1670
  888MOL0     C22422  11.063   2.133   3.620 -0.6064 -0.2875  0.3311
  888MOL0     N22423  11.155   2.025   3.676 -0.2278  0.0047 -0.6056
  888MOL0     C22424  11.243   1.934   3.613 -0.2700 -0.2764  0.2609
  888MOL0     C22425  11.334   1.895   3.708 -0.2765 -0.3235  0.9716
  888MOL0     C22426  11.444   1.806   3.685 -0.3471 -0.4250 -0.7819
  888MOL0     C22427  11.566   1.874   3.628  1.1988 -0.3972  0.1017
  888MOL0     C22428  11.662   1.774   3.549 -0.4465  0.1012  0.3893
  888MOL0     C22429  11.804   1.818   3.575 -0.1071 -0.0430 -0.4790
  888MOL0     O22430  11.829   1.835   3.719  0.1285 -0.4191  0.6179
  888MOL0     C22431  11.937   1.779   3.780 -0.9718  0.5284  0.0897
  888MOL0     C22432  11.912   1.686   3.880 -0.6536  0.3521  0.2634
  888MOL0     C22433  12.011   1.619   3.952 -0.3416 -0.7758  0.5816
  888MOL0     C22434  11.964   1.526   4.065  0.2586  0.0626 -0.1409
  888MOL0     C22435  12.149   1.639   3.908  0.6781 -0.1007 -0.1751
  888MOL0     C22436  12.258   1.562   3.974  0.6236  0.6116 -0.4954
  888MOL0     O22437  12.234   1.515   4.098  0.4202 -0.1026 -0.2443
  888MOL0     C22438  12.347   1.492   4.166  1.1892  0.2964  0.3495
  888MOL0     C22439  12.436   1.598   4.183 -0.8008  0.3879 -0.0784
  888MOL0     C22440  12.547   1.565   4.264 -0.7197 -0.0491  0.1071
  888MOL0     C22441  12.561   1.448   4.337  0.1630 -0.0375  0.2095
  888MOL0     O22442  12.676   1.424   4.418  0.9852  0.1931  0.1142
  888MOL0     C22443  12.652   1.340   4.522  0.3965  0.5441 -0.3029
  888MOL0     C22444  12.552   1.399   4.628 -0.2290  0.2917  0.3944
  888MOL0     C22445  12.619   1.518   4.707  0.1876  0.3119  0.6566
  888MOL0     C22446  12.696   1.446   4.821 -0.1476 -0.4346 -0.5287
  888MOL0     C22447  12.776   1.562   4.893  0.0493  0.8509  0.8723
  888MOL0     C22448  12.888   1.520   4.982  0.6111  0.4207  0.7535
  888MOL0     C22449  12.840   1.420   5.090 -0.5289 -0.2961  0.2129
  888MOL0     C22450  12.929   1.421   5.210 -0.4135 -0.2351 -0.2987
  888MOL0    Cl22451  13.094   1.384   5.168  0.3752  0.2933 -0.0135
  888MOL0     C22452  12.461   1.351   4.320  0.4338  0.3712  0.3466
  888MOL0     C22453  12.354   1.368   4.230 -0.2351  0.3195  0.0843
  888MOL0     O22454  12.359   1.548   3.910 -0.0567  0.0291 -0.8016
  888MOL0     C22455  12.172   1.730   3.806 -0.2512  0.3435 -0.4011
  888MOL0     C22456  12.069   1.808   3.745  0.7625 -0.3520  0.6070
  888MOL0     N22457  11.300   1.955   3.821  0.0515  0.2371  0.5532
  888MOL0     N22458  11.203   2.032   3.805 -0.4839  0.3387  0.0260
  888MOL0     C22459  10.161   1.942   4.090  0.3368 -0.7306  0.4003
  888MOL0     C22460  10.059   1.991   4.173  0.0437  1.1445 -0.1925
  888MOL0     C22461   9.793   2.210   4.456 -0.6373  0.7403 -0.0909
  888MOL0     C22462   9.768   2.327   4.386 -0.1639 -0.2275 -0.3293
  888MOL0     C22463   9.662   2.409   4.424 -0.4855  0.0330  0.7791
  888MOL0     C22464   9.582   2.383   4.531 -0.2610 -0.5718  0.3005
  888MOL0     O22465   9.481   2.473   4.544  0.6109  0.3627  0.1897
  888MOL0     C22466   9.405   2.470   4.666  0.2650  0.3855  0.6032
  888MOL0     C22467   9.464   2.549   4.785 -0.6745 -0.1419 -0.4313
  888MOL0     C22468   9.495   2.689   4.731 -0.2547  0.1074  0.4501
  888MOL0     C22469   9.545   2.794   4.842  0.5042  0.4532 -0.1128
  888MOL0     C22470   9.606   2.905   4.767 -0.3623 -0.7375 -0.1597
  888MOL0     C22471   9.661   2.985   4.692  0.4317 -0.4266  0.3362
  888MOL0     C22472   9.615   2.270   4.604  0.7450  0.5059 -0.7046
  888MOL0     C22473   9.714   2.178   4.571 -0.1790 -0.4150  0.2608
  888MOL0     C22474   9.739   2.052   4.650  0.3967 -0.4427 -0.5491
  888MOL0     H22475  10.197   2.291   4.247 -0.3628 -1.8274  2.7416
  888MOL0     H22476  10.369   2.198   4.092 -0.2682 -0.6625  0.3075
  888MOL0     H22477  10.294   1.936   3.787 -0.0711 -2.1493 -0.1815
  888MOL0     H22478  10.277   1.804   3.904  1.0971 -0.5491  1.3295
  888MOL0     H22479  10.510   1.768   3.913  1.4601  0.2089 -0.1889
  888MOL0     H22480  10.445   1.763   3.739  0.1170  1.4178 -0.6778
  888MOL0     H22481  10.524   2.020   3.745  2.4597  0.6332 -0.2157
  888MOL0     H22482  10.612   1.970   3.883  2.4936  2.1939 -2.0156
  888MOL0     H22483  10.751   1.819   3.761  1.4569 -0.8688 -2.1218
  888MOL0     H22484  10.636   1.828   3.625 -0.4477 -0.3719  0.2603
  888MOL0     H22485  10.805   2.065   3.724 -0.0974  1.6117 -1.4425
  888MOL0     H22486  10.684   2.067   3.593  0.9323 -1.1174 -1.4834
  888MOL0     H22487  10.922   1.880   3.579  1.1112  0.1877 -0.3089
  888MOL0     H22488  10.811   1.939   3.458 -0.1520 -0.5504  1.4517
  888MOL0     H22489  10.887   2.170   3.482 -2.1429 -0.7803  2.1541
  888MOL0     H22490  11.011   2.078   3.415 -0.5318  3.0522 -0.5717
  888MOL0     H22491  11.129   2.214   3.587  1.1797 -3.1478 -4.1716
  888MOL0     H22492  11.007   2.181   3.700 -0.1601  1.7020 -0.4733
  888MOL0     H22493  11.250   1.911   3.507  2.5485  1.4646 -0.0380
  888MOL0     H22494  11.414   1.723   3.622  0.1657 -0.8512 -0.4753
  888MOL0     H22495  11.477   1.753   3.775  0.5209  2.2431  0.6027
  888MOL0     H22496  11.525   1.948   3.558 -0.9565 -0.4661  1.2109
  888MOL0     H22497  11.617   1.925   3.710  0.9446  0.1776 -0.0844
  888MOL0     H22498  11.660   1.667   3.569  4.0766  0.1657  2.5156
  888MOL0     H22499  11.639   1.776   3.442  1.1425 -1.5357 -0.0330
  888MOL0     H22500  11.880   1.755   3.529  0.5374  0.4251 -0.0779
  888MOL0     H22501  11.805   1.916   3.527  1.3773  0.1003 -0.2042
  888MOL0     H22502  11.813   1.648   3.902  0.1777 -2.4082 -0.3546
  888MOL0     H22503  11.857   1.505   4.055 -0.7362  2.5619  3.4573
  888MOL0     H22504  11.973   1.572   4.163 -2.0996 -1.1770  0.7421
  888MOL0     H22505  12.032   1.440   4.065 -0.3499 -0.4692  1.7553
  888MOL0     H22506  12.442   1.698   4.141 -2.5152  0.8919  0.7710
  888MOL0     H22507  12.625   1.639   4.278  0.8189 -1.5022 -0.4561
  888MOL0     H22508  12.608   1.245   4.490  0.6830  0.3687 -0.1785
  888MOL0     H22509  12.749   1.326   4.571  1.6252  2.1997 -2.0591
  888MOL0     H22510  12.466   1.434   4.570  0.3817 -0.5707 -1.0943
  888MOL0     H22511  12.511   1.325   4.697  0.2425  1.0995  1.5693
  888MOL0     H22512  12.547   1.591   4.746  1.2853  1.9487 -0.2498
  888MOL0     H22513  12.693   1.571   4.647  0.0274 -0.3982 -0.1868
  888MOL0     H22514  12.770   1.375   4.782 -1.9843 -2.6480 -0.1666
  888MOL0     H22515  12.629   1.401   4.895 -0.3103 -0.1947 -0.5274
  888MOL0     H22516  12.824   1.628   4.821  1.0963 -1.1743 -0.3760
  888MOL0     H22517  12.706   1.620   4.954 -2.0898 -0.9104  0.2199
  888MOL0     H22518  12.928   1.611   5.028  0.8518 -0.1330  1.6654
  888MOL0     H22519  12.974   1.476   4.930  0.3515  0.9418 -0.1431
  888MOL0     H22520  12.839   1.318   5.050 -1.7263  0.2095 -1.1433
  888MOL0     H22521  12.735   1.447   5.106  0.3544  4.8736 -1.0462
  888MOL0     H22522  12.895   1.343   5.278  1.1361  1.4172  2.6072
  888MOL0     H22523  12.938   1.521   5.255  0.0214  0.0867 -1.0699
  888MOL0     H22524  12.464   1.252   4.364 -1.4787  1.2188  2.5826
  888MOL0     H22525  12.273   1.296   4.217 -1.7041  2.1242 -1.2945
  888MOL0     H22526  12.269   1.747   3.762 -0.6016  0.3030 -1.2134
  888MOL0     H22527  12.073   1.884   3.667 -0.5876 -0.2044  0.6531
  888MOL0     H22528  10.133   1.850   4.039  0.2229 -0.6353  0.2914
  888MOL0     H22529   9.973   1.928   4.195 -0.9569  2.1276 -1.1671
  888MOL0     H22530   9.834   2.366   4.309  1.7273 -1.1079  0.7659
  888MOL0     H22531   9.662   2.502   4.368  1.5760  1.1132  2.4305
  888MOL0     H22532   9.312   2.519   4.634  1.4600  1.2724 -1.7518
  888MOL0     H22533   9.380   2.370   4.702  0.2184  0.7045  1.4731
  888MOL0     H22534   9.558   2.500   4.812  0.4855  1.6731 -1.0125
  888MOL0     H22535   9.394   2.545   4.869 -1.4741  2.7866 -0.8624
  888MOL0     H22536   9.573   2.683   4.654 -0.5082 -0.2272  0.2206
  888MOL0     H22537   9.404   2.718   4.679 -2.1897 -6.7634 -0.9508
  888MOL0     H22538   9.618   2.751   4.911 -0.1489  0.4204  0.5811
  888MOL0     H22539   9.457   2.828   4.898 -1.3350 -2.1504 -1.2137
  888MOL0     H22540   9.703   3.045   4.615  2.2214  0.8887  2.2349
  888MOL0     H22541   9.561   2.257   4.697  3.0004  0.1055  0.6479
  888MOL0     H22542   9.846   2.058   4.670  0.6353 -0.2374 -1.8169
  888MOL0     H22543   9.675   2.063   4.739 -2.7511 -2.0309 -2.4284
  888MOL0     H22544   9.713   1.962   4.594 -0.4568  2.2372 -5.0182
  889MOL0     O22545   7.725   2.570   9.128  0.0797  0.2796  0.1863
  889MOL0     C22546   7.739   2.450   9.146 -0.9197  0.8178 -0.0003
  889MOL0     O22547   7.810   2.393   9.250 -0.4928  0.4898 -0.2582
  889MOL0     C22548   7.870   2.468   9.350  0.9542 -0.1293  0.0827
  889MOL0     C22549   8.004   2.435   9.387 -0.2414 -0.1525  0.3816
  889MOL0     C22550   8.078   2.513   9.483 -0.3490  0.6266  0.2215
  889MOL0     C22551   8.020   2.631   9.526 -0.6650  0.5430  0.7049
  889MOL0     O22552   8.095   2.717   9.605 -0.1855 -0.1169 -0.4544
  889MOL0     C22553   8.117   2.846   9.556  0.9955 -1.0878  0.2913
  889MOL0     C22554   8.244   2.848   9.462 -0.7922  0.0130 -0.2621
  889MOL0     C22555   8.364   2.794   9.539 -0.0492  0.4550 -0.1793
  889MOL0     C22556   8.483   2.896   9.544  0.4449  0.2796  0.2511
  889MOL0     C22557   8.585   2.846   9.645  0.4860  0.7134 -0.0878
  889MOL0     C22558   8.721   2.911   9.628 -0.1000 -0.8199 -0.9612
  889MOL0     C22559   8.833   2.846   9.707  0.5729  0.0203  0.0224
  889MOL0     C22560   8.825   2.862   9.857 -0.3496  0.7518  0.6698
  889MOL0     N22561   8.940   2.804   9.926 -0.0607 -0.0087  0.3350
  889MOL0     C22562   8.973   2.834  10.051  0.7906  1.2641 -0.4347
  889MOL0     C22563   9.074   2.744  10.078  0.3500  0.4320 -0.5438
  889MOL0     C22564   9.140   2.726  10.218 -0.8981 -0.1832  0.0964
  889MOL0     C22565   9.125   2.592  10.283 -0.5666  0.0218 -0.3623
  889MOL0     C22566   9.214   2.576  10.408  0.2715 -0.9780  0.6412
  889MOL0     C22567   9.356   2.532  10.370  0.0117 -1.0172  0.3108
  889MOL0     O22568   9.363   2.400  10.318 -0.3445 -0.7236 -0.0522
  889MOL0     C22569   9.487   2.349  10.278 -0.6745  0.9886 -1.1134
  889MOL0     C22570   9.606   2.424  10.262 -0.1435  1.3945 -0.3453
  889MOL0     C22571   9.721   2.360  10.208  0.3188 -1.7582  0.6728
  889MOL0     C22572   9.836   2.467  10.191 -0.2880 -0.3199  0.2248
  889MOL0     C22573   9.721   2.228  10.160 -0.3029 -1.6853 -0.2665
  889MOL0     C22574   9.843   2.169  10.103  1.0752  0.6886 -0.6027
  889MOL0     O22575   9.830   2.047  10.044  0.5094 -0.1381 -0.3007
  889MOL0     C22576   9.934   1.961  10.017 -0.0376 -0.3704  0.4891
  889MOL0     C22577  10.020   1.919  10.116  0.6420  0.3134  0.9132
  889MOL0     C22578  10.123   1.832  10.100  0.0596 -0.0555  0.1742
  889MOL0     C22579  10.141   1.770   9.978  0.0298  0.6240 -0.2517
  889MOL0     O22580  10.231   1.666   9.940 -0.5233 -0.2605 -1.4796
  889MOL0     C22581  10.361   1.655  10.016  0.1763  0.3344  0.0244
  889MOL0     C22582  10.467   1.605   9.920  0.1873 -0.2852 -0.2123
  889MOL0     C22583  10.592   1.535   9.979  0.0574 -0.0681  0.7278
  889MOL0     C22584  10.571   1.402  10.059 -0.4864 -0.0150  0.0226
  889MOL0     C22585  10.705   1.335  10.100  0.2334  0.3143 -1.1219
  889MOL0     C22586  10.768   1.383  10.227  1.0372 -0.1554 -0.8425
  889MOL0     C22587  10.693   1.326  10.348 -0.4062 -0.1262 -0.2225
  889MOL0     C22588  10.752   1.342  10.491  0.7347  0.1489  0.1111
  889MOL0    Cl22589  10.925   1.305  10.491 -0.2495 -0.2632  0.2252
  889MOL0     C22590  10.057   1.801   9.872  0.1037 -0.5922  0.0941
  889MOL0     C22591   9.956   1.899   9.893  0.2020 -0.1296  0.3067
  889MOL0     O22592   9.952   2.216  10.127  0.5314  0.2980  0.2435
  889MOL0     C22593   9.599   2.163  10.172 -0.4275  0.6725  0.4018
  889MOL0     C22594   9.486   2.217  10.237 -0.1334  0.3472 -0.0210
  889MOL0     N22595   9.102   2.666   9.969  0.8177 -0.4517  0.4887
  889MOL0     N22596   9.016   2.705   9.876 -0.4370  0.0541 -0.3788
  889MOL0     C22597   7.885   2.656   9.498 -0.8893  0.4037 -0.0620
  889MOL0     C22598   7.809   2.577   9.410 -0.1309  0.7064 -0.7796
  889MOL0     C22599   7.652   2.359   9.067  0.2394  0.0999 -0.0104
  889MOL0     C22600   7.593   2.407   8.953 -0.4045  0.6307 -0.2213
  889MOL0     C22601   7.494   2.340   8.892 -0.2615 -0.0444 -0.2978
  889MOL0     C22602   7.445   2.213   8.930 -0.1684  0.4130 -0.1309
  889MOL0     O22603   7.341   2.172   8.856  0.4586 -0.1695  0.4994
  889MOL0     C22604   7.258   2.055   8.894 -0.9203  1.1221  0.4672
  889MOL0     C22605   7.179   2.089   9.010 -0.3318 -0.0697  0.2350
  889MOL0     C22606   7.084   2.215   8.987 -0.0848 -0.6104  0.4839
  889MOL0     C22607   6.993   2.228   9.109  0.9502  0.6300  0.5777
  889MOL0     C22608   6.904   2.105   9.129  0.0820 -0.5254  0.1916
  889MOL0     C22609   6.835   2.004   9.138 -0.0348 -0.5792  0.2434
  889MOL0     C22610   7.512   2.159   9.042 -0.3662 -0.1702  0.3657
  889MOL0     C22611   7.620   2.226   9.110 -0.3119 -0.2583 -0.7294
  889MOL0     C22612   7.691   2.146   9.224 -0.2953  0.2419  0.0153
  889MOL0     H22613   8.049   2.346   9.346 -3.4830 -1.2533 -1.1408
  889MOL0     H22614   8.180   2.488   9.510 -1.3172 -4.1468  0.2589
  889MOL0     H22615   8.135   2.919   9.634  0.6810 -0.3868 -0.2807
  889MOL0     H22616   8.036   2.889   9.496  4.3115  1.3079 -2.9112
  889MOL0     H22617   8.228   2.782   9.376 -0.2833  1.2332 -1.3162
  889MOL0     H22618   8.260   2.950   9.426  1.1124 -0.0489  0.2944
  889MOL0     H22619   8.339   2.775   9.643  2.5923  2.4435  0.9128
  889MOL0     H22620   8.391   2.695   9.501  2.0068  0.1521  1.8804
  889MOL0     H22621   8.522   2.904   9.442  1.0782  0.4001  0.5019
  889MOL0     H22622   8.437   2.994   9.563 -1.1876 -0.1441 -1.2021
  889MOL0     H22623   8.590   2.737   9.636  1.1478  0.8350 -1.3824
  889MOL0     H22624   8.542   2.865   9.744  1.0778  0.5183  0.2137
  889MOL0     H22625   8.743   2.898   9.522 -1.3030 -2.4183 -1.0518
  889MOL0     H22626   8.704   3.016   9.653 -1.1386 -0.3588 -3.4123
  889MOL0     H22627   8.920   2.904   9.675 -2.4345  3.6891 -2.4897
  889MOL0     H22628   8.840   2.740   9.681  1.0014 -1.1340  4.1580
  889MOL0     H22629   8.814   2.968   9.880 -0.6564  1.4007 -2.1112
  889MOL0     H22630   8.734   2.814   9.894  1.2198 -2.1668  1.0740
  889MOL0     H22631   8.940   2.906  10.125 -0.2570 -0.3888  0.7987
  889MOL0     H22632   9.107   2.807  10.285  0.3297  3.3872 -3.2251
  889MOL0     H22633   9.245   2.749  10.196 -1.5358  1.5423 -1.4330
  889MOL0     H22634   9.023   2.601  10.320 -0.3598 -2.0625  0.9134
  889MOL0     H22635   9.129   2.508  10.214 -3.6240 -0.1775 -0.4192
  889MOL0     H22636   9.223   2.670  10.463  0.3930 -0.1973 -0.6773
  889MOL0     H22637   9.158   2.507  10.472 -0.6760  0.8341  1.8369
  889MOL0     H22638   9.395   2.595  10.289 -0.1375 -1.8273 -0.4026
  889MOL0     H22639   9.429   2.545  10.450  3.7740 -1.0866 -2.7719
  889MOL0     H22640   9.619   2.525  10.301  2.9078 -0.6246  4.9982
  889MOL0     H22641   9.932   2.439  10.234 -0.2400 -0.9738 -0.2862
  889MOL0     H22642   9.802   2.563  10.232 -3.5092 -1.3587  0.3287
  889MOL0     H22643   9.870   2.480  10.088  0.4181  2.7351  0.7423
  889MOL0     H22644   9.996   1.937  10.220 -1.5473 -1.2969  0.7687
  889MOL0     H22645  10.192   1.811  10.181  2.5157 -0.9220 -2.0055
  889MOL0     H22646  10.388   1.752  10.057  0.2034 -0.0622  0.9752
  889MOL0     H22647  10.348   1.592  10.105 -0.3836  0.3560 -0.0417
  889MOL0     H22648  10.419   1.535   9.851  0.6408 -0.7693 -0.0369
  889MOL0     H22649  10.499   1.689   9.858  0.3662  1.2887  1.8957
  889MOL0     H22650  10.635   1.609  10.047  3.2390 -1.7619  0.7196
  889MOL0     H22651  10.646   1.501   9.891  2.4564  1.3217  1.5737
  889MOL0     H22652  10.509   1.337   9.996  1.5607  0.2649 -2.4861
  889MOL0     H22653  10.510   1.423  10.147 -1.9684  1.8971 -1.3446
  889MOL0     H22654  10.693   1.227  10.100  0.9625  0.1605  1.3721
  889MOL0     H22655  10.780   1.343  10.021  1.5674 -0.7601 -0.0212
  889MOL0     H22656  10.761   1.492  10.220 -1.3388 -0.3436 -3.1701
  889MOL0     H22657  10.867   1.338  10.230 -0.0521 -2.6850  1.2290
  889MOL0     H22658  10.683   1.218  10.332 -0.8379  0.0763 -1.4779
  889MOL0     H22659  10.591   1.364  10.357 -0.3223 -0.3793  2.5892
  889MOL0     H22660  10.690   1.273  10.550 -0.0327 -0.2911 -1.1798
  889MOL0     H22661  10.742   1.444  10.528  3.6557  0.3281  0.6656
  889MOL0     H22662  10.081   1.752   9.778 -1.0641 -0.6120 -0.2065
  889MOL0     H22663   9.886   1.915   9.812  2.6178 -1.3735 -2.1616
  889MOL0     H22664   9.602   2.060  10.136  0.9591  0.6069  0.6699
  889MOL0     H22665   9.399   2.153  10.235  1.0330 -1.3836  1.4981
  889MOL0     H22666   7.836   2.746   9.533  2.6186  3.2055 -1.6580
  889MOL0     H22667   7.707   2.604   9.382 -0.5685  1.1978  1.1312
  889MOL0     H22668   7.620   2.502   8.908 -2.5077 -0.0692 -3.2538
  889MOL0     H22669   7.453   2.373   8.797 -0.2555  0.8189 -0.0070
  889MOL0     H22670   7.192   2.030   8.810  0.3146 -0.0934 -0.1883
  889MOL0     H22671   7.323   1.970   8.915  0.3040  1.3337 -2.1241
  889MOL0     H22672   7.251   2.119   9.086  0.2858 -0.8312 -0.0374
  889MOL0     H22673   7.126   1.996   9.034 -2.6432  1.5979  2.0924
  889MOL0     H22674   7.141   2.308   8.976 -0.5258 -0.4496 -0.4981
  889MOL0     H22675   7.035   2.208   8.890 -0.1779 -0.8601  0.5499
  889MOL0     H22676   6.931   2.318   9.095  2.4439  1.7337  0.8256
  889MOL0     H22677   7.048   2.253   9.200 -0.6582  3.3486  0.9340
  889MOL0     H22678   6.769   1.920   9.148 -0.9072 -0.2828 -2.1642
  889MOL0     H22679   7.460   2.073   9.082 -1.6947  0.0147 -0.8732
  889MOL0     H22680   7.677   2.037   9.225  3.4644 -0.3994  0.6255
  889MOL0     H22681   7.800   2.145   9.212 -0.0132 -1.2089  2.1739
  889MOL0     H22682   7.669   2.181   9.325  0.0691  1.0922 -0.1897
  890MOL0     O22683   5.003  11.175  10.523  0.3441 -0.6606 -0.0829
  890MOL0     C22684   4.987  11.241  10.419 -0.6986 -0.1944 -0.4869
  890MOL0     O22685   5.081  11.262  10.326 -0.1896 -0.0870  0.7141
  890MOL0     C22686   5.206  11.244  10.354  1.3526 -0.6371  0.5259
  890MOL0     C22687   5.291  11.346  10.397 -0.0373  0.0815 -0.0363
  890MOL0     C22688   5.425  11.312  10.429 -0.1594  0.3341  0.4946
  890MOL0     C22689   5.473  11.184  10.409  0.4762 -0.1876  0.5317
  890MOL0     O22690   5.601  11.146  10.418 -0.2981  0.6143  0.2976
  890MOL0     C22691   5.694  11.246  10.471  0.1677  0.3959  0.5484
  890MOL0     C22692   5.833  11.182  10.464  0.2234 -0.0235  0.3652
  890MOL0     C22693   5.932  11.283  10.525 -0.1143  0.7319  0.5047
  890MOL0     C22694   6.081  11.250  10.499 -0.1145  0.1793 -0.6440
  890MOL0     C22695   6.156  11.374  10.526 -0.0097 -0.5732 -0.0131
  890MOL0     C22696   6.301  11.338  10.552 -0.0085 -0.6311 -0.1987
  890MOL0     C22697   6.390  11.458  10.542 -0.6128 -0.0005  0.2398
  890MOL0     C22698   6.519  11.424  10.602 -0.2738  0.4273  0.3971
  890MOL0     N22699   6.626  11.502  10.547  0.7376 -0.7871  0.0281
  890MOL0     C22700   6.665  11.494  10.418  0.3038  0.2524 -0.3863
  890MOL0     C22701   6.739  11.599  10.391  0.3650 -0.5487  0.3860
  890MOL0     C22702   6.805  11.639  10.254  0.6767 -0.7165 -0.2412
  890MOL0     C22703   6.959  11.673  10.267  0.5013 -0.0000  0.4615
  890MOL0     C22704   7.000  11.735  10.132 -1.1818  0.1499 -0.8810
  890MOL0     C22705   7.153  11.784  10.154 -0.5570 -0.5532 -0.8795
  890MOL0     O22706   7.241  11.676  10.181  0.6785 -0.0157  0.0133
  890MOL0     C22707   7.365  11.702  10.229  0.3181 -0.4015 -0.3033
  890MOL0     C22708   7.426  11.826  10.198 -0.3534 -0.3042  0.2913
  890MOL0     C22709   7.554  11.863  10.231 -0.5886  0.1236 -0.9250
  890MOL0     C22710   7.592  12.008  10.205  0.7183  0.3401  0.6787
  890MOL0     C22711   7.634  11.763  10.285 -0.1305 -0.1650 -0.8263
  890MOL0     C22712   7.774  11.789  10.317  0.2659 -0.3026  0.1551
  890MOL0     O22713   7.806  11.770  10.446 -0.3211  0.9203  0.1603
  890MOL0     C22714   7.939  11.785  10.481 -0.3217 -0.0670  0.5002
  890MOL0     C22715   8.043  11.730  10.405 -0.4116 -0.0585 -0.3982
  890MOL0     C22716   8.176  11.749  10.444 -0.0267  0.1917 -0.0151
  890MOL0     C22717   8.210  11.824  10.560 -0.2003  0.3788  0.6406
  890MOL0     O22718   8.341  11.834  10.603  0.6901  0.1647  1.0969
  890MOL0     C22719   8.377  11.968  10.636 -0.5868 -0.4194  0.4654
  890MOL0     C22720   8.521  11.987  10.689  0.4346  0.0192  0.4305
  890MOL0     C22721   8.638  11.956  10.583 -0.5305 -0.5610  0.7217
  890MOL0     C22722   8.668  11.806  10.584 -0.3941 -0.5483  0.5303
  890MOL0     C22723   8.764  11.765  10.460  0.4138  0.0055 -0.1790
  890MOL0     C22724   8.894  11.844  10.478 -0.1572  0.2853  0.3875
  890MOL0     C22725   9.004  11.765  10.394  0.1491  0.3368 -0.3158
  890MOL0     C22726   9.140  11.824  10.405  0.3150 -1.0411  0.2990
  890MOL0    Cl22727   9.217  11.809  10.567 -0.4477  0.0831  0.3887
  890MOL0     C22728   8.103  11.867  10.639  0.8532 -0.5330  0.3033
  890MOL0     C22729   7.970  11.854  10.595  0.2121  0.7869 -0.4521
  890MOL0     O22730   7.847  11.832  10.234 -0.4393  0.3766 -0.1023
  890MOL0     C22731   7.583  11.638  10.337 -0.2850  0.1423 -0.0252
  890MOL0     C22732   7.439  11.622  10.319  0.4326  0.1225  0.5398
  890MOL0     N22733   6.737  11.681  10.502 -0.0963  1.2087  0.5908
  890MOL0     N22734   6.672  11.619  10.599  0.1221 -0.4460 -0.2930
  890MOL0     C22735   5.384  11.087  10.368 -0.2054  0.7675  0.1127
  890MOL0     C22736   5.256  11.120  10.332  0.2282 -0.5115 -0.3974
  890MOL0     C22737   4.847  11.316  10.392 -0.1779  0.3953 -0.6794
  890MOL0     C22738   4.865  11.432  10.318 -0.4542 -0.6368 -0.1274
  890MOL0     C22739   4.757  11.517  10.295  0.3112 -0.2509  0.0647
  890MOL0     C22740   4.638  11.497  10.366  0.2355  0.4607 -0.5893
  890MOL0     O22741   4.543  11.593  10.380  0.2865  0.1790  0.6210
  890MOL0     C22742   4.466  11.616  10.258 -0.0503  0.2110 -1.1633
  890MOL0     C22743   4.367  11.510  10.212 -0.7974  0.1190 -0.3963
  890MOL0     C22744   4.273  11.484  10.327 -0.3805 -0.3612  0.4196
  890MOL0     C22745   4.173  11.377  10.289  0.4117  0.0311  0.1467
  890MOL0     C22746   4.223  11.242  10.314 -0.4337  0.4766  0.1480
  890MOL0     C22747   4.268  11.127  10.339  0.0604  0.4534  1.2111
  890MOL0     C22748   4.620  11.385  10.446  0.7674  0.8788 -0.2732
  890MOL0     C22749   4.719  11.289  10.448  0.4029 -0.7318  0.3675
  890MOL0     C22750   4.691  11.169  10.536  0.2869 -0.3234 -0.1446
  890MOL0     H22751   5.250  11.443  10.421 -0.0346  0.1921 -0.4679
  890MOL0     H22752   5.476  11.401  10.466 -0.1330  1.0461 -1.1760
  890MOL0     H22753   5.675  11.280  10.573 -0.5678  0.9790  0.2240
  890MOL0     H22754   5.696  11.336  10.409 -1.0575  0.4143  0.5173
  890MOL0     H22755   5.838  11.089  10.521 -0.6365 -0.8176 -0.8107
  890MOL0     H22756   5.851  11.163  10.358 -2.0613  0.1992 -0.1179
  890MOL0     H22757   5.907  11.378  10.478  0.9205 -0.5892 -3.1291
  890MOL0     H22758   5.929  11.295  10.634  2.8578 -1.5437  0.9747
  890MOL0     H22759   6.102  11.165  10.565 -1.6249 -1.5730 -2.3011
  890MOL0     H22760   6.097  11.209  10.399 -0.1344  0.3099 -0.6991
  890MOL0     H22761   6.127  11.428  10.616 -1.6981 -5.0335  2.3906
  890MOL0     H22762   6.157  11.448  10.445  1.3410  1.9441  2.1191
  890MOL0     H22763   6.309  11.301  10.655  3.8186 -0.4476 -0.3010
  890MOL0     H22764   6.338  11.267  10.477 -2.0949 -1.7970 -0.2103
  890MOL0     H22765   6.363  11.542  10.606 -0.3869 -1.5431  2.4922
  890MOL0     H22766   6.401  11.485  10.437  1.4533  2.7090  1.0532
  890MOL0     H22767   6.514  11.437  10.710  0.8762 -0.5862  0.5849
  890MOL0     H22768   6.532  11.318  10.578 -0.7865  0.8347 -1.9018
  890MOL0     H22769   6.620  11.419  10.353 -3.0465  2.5667 -0.9824
  890MOL0     H22770   6.761  11.726  10.204  2.3202 -0.4281 -1.2757
  890MOL0     H22771   6.801  11.560  10.179  1.2120  2.0753 -3.4568
  890MOL0     H22772   6.978  11.740  10.351 -1.1048 -0.1594  0.9795
  890MOL0     H22773   7.009  11.577  10.284  0.8905 -0.0875 -1.0245
  890MOL0     H22774   7.001  11.668  10.046 -0.5920  0.1736 -0.8988
  890MOL0     H22775   6.943  11.825  10.105  0.5069  1.1589 -1.2517
  890MOL0     H22776   7.187  11.831  10.061  2.4328  2.1662  1.3626
  890MOL0     H22777   7.163  11.867  10.225  1.4299  0.5331 -2.3553
  890MOL0     H22778   7.374  11.909  10.151  1.8347  0.7493 -0.3645
  890MOL0     H22779   7.553  12.037  10.107 -0.6902 -0.9520  0.8111
  890MOL0     H22780   7.699  12.022  10.224  0.5215  1.2736  1.1601
  890MOL0     H22781   7.543  12.068  10.283  1.1472  0.5300  0.8045
  890MOL0     H22782   8.024  11.670  10.317  0.8915  1.0052 -1.4558
  890MOL0     H22783   8.255  11.712  10.379 -1.3368 -0.5389 -1.2548
  890MOL0     H22784   8.361  12.026  10.545  1.1996  1.3790  1.2026
  890MOL0     H22785   8.306  12.007  10.710 -2.9092  0.4483 -2.0718
  890MOL0     H22786   8.534  12.092  10.718 -0.9556  0.5386 -0.7076
  890MOL0     H22787   8.545  11.934  10.782 -0.0904 -0.3616  0.3510
  890MOL0     H22788   8.721  12.017  10.618 -2.1491  3.2800 -1.5326
  890MOL0     H22789   8.615  11.991  10.482 -0.7598 -1.5756  0.4077
  890MOL0     H22790   8.584  11.736  10.586 -0.8827  0.0301  0.8223
  890MOL0     H22791   8.719  11.783  10.678 -2.0091 -1.7290  1.1736
  890MOL0     H22792   8.784  11.658  10.472 -0.5164  0.0614  2.6658
  890MOL0     H22793   8.706  11.795  10.372  0.3768 -1.0431 -0.5271
  890MOL0     H22794   8.930  11.839  10.582  4.2565  0.5248 -0.9346
  890MOL0     H22795   8.905  11.945  10.439  0.8559  0.4269  0.9779
  890MOL0     H22796   8.970  11.760  10.290  2.1012  0.0537 -0.9886
  890MOL0     H22797   9.015  11.668  10.443 -1.5783 -0.3113 -1.1134
  890MOL0     H22798   9.115  11.928  10.385  2.5947 -0.8475 -2.0370
  890MOL0     H22799   9.204  11.794  10.321 -0.3899  3.1145 -1.9443
  890MOL0     H22800   8.114  11.903  10.741  4.3538  0.5306 -0.2965
  890MOL0     H22801   7.884  11.876  10.657  1.7816 -1.6865  2.8676
  890MOL0     H22802   7.639  11.580  10.409  0.3397 -1.1868 -1.5241
  890MOL0     H22803   7.393  11.533  10.361 -1.7071  1.1091  0.4329
  890MOL0     H22804   5.412  10.985  10.348 -0.1483  0.9683 -0.8732
  890MOL0     H22805   5.188  11.037  10.315  0.8631 -1.8117  2.7366
  890MOL0     H22806   4.958  11.460  10.270 -1.6795 -0.1661 -2.3650
  890MOL0     H22807   4.776  11.608  10.240  2.4335 -0.6845  0.0206
  890MOL0     H22808   4.421  11.715  10.262 -1.7174 -0.5149 -1.3612
  890MOL0     H22809   4.538  11.635  10.177  1.6355  0.7822  0.3886
  890MOL0     H22810   4.428  11.428  10.172  1.0662  1.5984 -0.7456
  890MOL0     H22811   4.314  11.548  10.125 -0.1492 -1.2240 -1.4120
  890MOL0     H22812   4.322  11.450  10.419  1.6089  1.5370  0.1466
  890MOL0     H22813   4.225  11.580  10.348  0.9263 -0.1721  2.9022
  890MOL0     H22814   4.144  11.386  10.184  3.0913  1.5311 -0.5739
  890MOL0     H22815   4.085  11.377  10.355  0.5189 -4.8737  0.6686
  890MOL0     H22816   4.283  11.022  10.348 -0.7395  0.2181  0.0739
  890MOL0     H22817   4.529  11.368  10.502  0.9161 -1.9685 -0.7330
  890MOL0     H22818   4.644  11.199  10.630 -2.0178 -0.4367 -1.1841
  890MOL0     H22819   4.617  11.111  10.480 -0.6734  0.9993 -0.3026
  890MOL0     H22820   4.771  11.096  10.547  0.1584 -0.4127  0.1944
  891MOL0     O22821   0.473   0.977   4.352  0.1715  0.3935 -0.5823
  891MOL0     C22822   0.358   0.949   4.375 -0.7769  0.0777  0.1703
  891MOL0     O22823   0.261   1.035   4.405  0.2655  0.4419 -0.5991
  891MOL0     C22824   0.295   1.169   4.408 -1.0561 -0.2454 -0.1435
  891MOL0     C22825   0.253   1.260   4.317 -0.2501  0.3817  0.2656
  891MOL0     C22826   0.296   1.394   4.332  0.2790  0.0116 -0.9129
  891MOL0     C22827   0.376   1.442   4.434  0.2914  0.0283 -0.1760
  891MOL0     O22828   0.414   1.575   4.435  0.6638  0.2831  0.4310
  891MOL0     C22829   0.558   1.574   4.449  0.3494 -0.9973 -0.3259
  891MOL0     C22830   0.600   1.723   4.436  0.1615 -0.4061 -0.2399
  891MOL0     C22831   0.750   1.739   4.422 -0.6693 -0.3219 -1.4682
  891MOL0     C22832   0.807   1.878   4.459 -1.0575 -0.1049 -0.5380
  891MOL0     C22833   0.959   1.891   4.430 -0.5220 -0.2080 -0.1160
  891MOL0     C22834   1.010   2.037   4.450 -0.4117 -0.2819  0.8155
  891MOL0     C22835   1.154   2.035   4.401 -0.4016 -0.6388  0.2584
  891MOL0     C22836   1.199   2.157   4.316  0.7152  0.7044 -0.5554
  891MOL0     N22837   1.342   2.147   4.307  0.0579  0.8242  0.0827
  891MOL0     C22838   1.404   2.198   4.186 -0.9280  0.4078 -0.3971
  891MOL0     C22839   1.533   2.154   4.191 -0.1045 -0.9729 -0.4344
  891MOL0     C22840   1.621   2.167   4.073  0.0995  0.5962 -0.5133
  891MOL0     C22841   1.756   2.093   4.083 -1.0621 -0.2220 -0.5161
  891MOL0     C22842   1.841   2.183   4.180 -0.1543  0.4338  0.5504
  891MOL0     C22843   1.976   2.112   4.194  0.4513  0.4736 -0.6179
  891MOL0     O22844   2.051   2.187   4.295 -1.2758 -0.6989 -0.2587
  891MOL0     C22845   2.188   2.191   4.288  0.6714 -0.6167  1.0207
  891MOL0     C22846   2.252   2.283   4.375  0.4345  0.0290 -0.3944
  891MOL0     C22847   2.390   2.286   4.380 -0.5746 -0.2290 -0.7519
  891MOL0     C22848   2.437   2.397   4.472 -0.1635 -0.1188  0.4407
  891MOL0     C22849   2.471   2.190   4.310 -0.4864 -0.0900 -1.1044
  891MOL0     C22850   2.624   2.185   4.321 -0.2400 -0.0643 -0.4804
  891MOL0     O22851   2.685   2.085   4.251  0.1823  0.9003  0.4106
  891MOL0     C22852   2.824   2.076   4.264  0.2758  0.3818 -0.5455
  891MOL0     C22853   2.888   2.048   4.388 -0.0492 -0.2414  0.3139
  891MOL0     C22854   3.025   2.028   4.392  0.2460 -0.3954  0.5594
  891MOL0     C22855   3.100   2.056   4.274 -0.6756  1.0318 -0.8190
  891MOL0     O22856   3.243   2.044   4.278  0.0314 -0.3019 -0.6383
  891MOL0     C22857   3.298   1.965   4.165  0.4628  0.9756  0.2579
  891MOL0     C22858   3.395   1.857   4.207  0.4726  0.0784 -0.2292
  891MOL0     C22859   3.506   1.900   4.301 -0.1339 -0.1657  1.3017
  891MOL0     C22860   3.617   1.798   4.313  0.0512 -0.4417 -0.1283
  891MOL0     C22861   3.740   1.853   4.396  0.8021  0.1345 -0.3261
  891MOL0     C22862   3.854   1.745   4.406  0.7219  0.0756  0.3427
  891MOL0     C22863   3.986   1.821   4.431 -0.0440 -0.3823  0.7980
  891MOL0     C22864   4.083   1.719   4.502  0.2059 -1.9037  0.6517
  891MOL0    Cl22865   4.158   1.634   4.368  0.0337 -0.3490 -0.2087
  891MOL0     C22866   3.037   2.103   4.163  0.6731  0.3626  0.7870
  891MOL0     C22867   2.900   2.107   4.152 -0.3322  1.0242 -0.9698
  891MOL0     O22868   2.685   2.277   4.385  0.4050 -0.0813 -0.7874
  891MOL0     C22869   2.406   2.101   4.227 -0.8607  0.4857 -0.6309
  891MOL0     C22870   2.264   2.103   4.209  0.0420  0.1175  0.0687
  891MOL0     N22871   1.553   2.077   4.314  0.6265  0.0606 -0.0690
  891MOL0     N22872   1.434   2.070   4.381  0.6688  0.2758  0.6194
  891MOL0     C22873   0.404   1.345   4.536 -0.2241  0.2142  0.6837
  891MOL0     C22874   0.364   1.214   4.523 -0.1308 -0.1570 -0.6655
  891MOL0     C22875   0.328   0.807   4.380 -0.0728 -0.4514  0.0325
  891MOL0     C22876   0.207   0.774   4.310 -0.1070  0.2624 -0.1367
  891MOL0     C22877   0.166   0.643   4.301 -0.2681 -0.6037 -0.5728
  891MOL0     C22878   0.243   0.538   4.351 -0.6462  0.3876  0.2331
  891MOL0     O22879   0.189   0.416   4.340 -0.1536  0.1310 -0.5258
  891MOL0     C22880   0.260   0.306   4.383 -0.0156  0.0701  0.7300
  891MOL0     C22881   0.191   0.170   4.355  0.3193  0.5699  0.5118
  891MOL0     C22882   0.051   0.172   4.419 -0.0650  0.1708 -0.4102
  891MOL0     C22883  -0.043   0.054   4.390 -1.0081  1.1588 -0.0726
  891MOL0     C22884  -0.176   0.063   4.450 -0.3147 -0.6585 -0.5958
  891MOL0     C22885  -0.280   0.071   4.517 -0.9606  0.4484  1.1715
  891MOL0     C22886   0.367   0.574   4.416 -0.4005  0.3326  0.0838
  891MOL0     C22887   0.412   0.707   4.430  0.4907  0.2857  0.0181
  891MOL0     C22888   0.547   0.722   4.499  0.0894 -0.2010 -0.5038
  891MOL0     H22889   0.198   1.244   4.224  1.2496  0.0944 -0.5978
  891MOL0     H22890   0.253   1.459   4.256 -1.4120 -0.6936 -0.5985
  891MOL0     H22891   0.608   1.509   4.376 -0.1196 -1.1819 -0.4916
  891MOL0     H22892   0.571   1.538   4.552 -0.8243  0.6710  0.4419
  891MOL0     H22893   0.539   1.765   4.355 -0.2593 -0.8344 -0.1503
  891MOL0     H22894   0.556   1.789   4.511  2.1676  0.8724 -0.1094
  891MOL0     H22895   0.789   1.663   4.490  1.6131 -0.8212 -3.2022
  891MOL0     H22896   0.778   1.707   4.321 -1.2287  1.3089 -2.1837
  891MOL0     H22897   0.753   1.956   4.404 -0.4850 -0.7331 -2.0660
  891MOL0     H22898   0.798   1.893   4.567  0.8281 -0.6275 -0.2712
  891MOL0     H22899   0.972   1.881   4.321 -0.5522  1.7325 -0.3227
  891MOL0     H22900   1.020   1.813   4.477  2.8033 -0.6874 -4.5353
  891MOL0     H22901   0.960   2.121   4.401  1.9714 -0.2550 -1.7944
  891MOL0     H22902   1.005   2.055   4.558 -1.4086  0.5566  0.6491
  891MOL0     H22903   1.167   1.949   4.334  0.1148 -1.4105  1.3310
  891MOL0     H22904   1.213   2.011   4.490  1.2327  2.5386  0.1844
  891MOL0     H22905   1.136   2.163   4.227 -0.8933 -0.6873  0.4190
  891MOL0     H22906   1.187   2.246   4.379  1.1767  1.3165 -1.3187
  891MOL0     H22907   1.353   2.246   4.103  0.5176 -2.3599 -3.0810
  891MOL0     H22908   1.632   2.275   4.057 -2.7537  1.1953  0.8443
  891MOL0     H22909   1.573   2.128   3.983 -0.0910  1.8304 -0.9767
  891MOL0     H22910   1.750   1.988   4.114  0.2879 -1.0372 -2.7686
  891MOL0     H22911   1.807   2.089   3.986  0.6246 -0.4873  0.3458
  891MOL0     H22912   1.862   2.279   4.131 -2.8945  0.5442 -0.5640
  891MOL0     H22913   1.796   2.190   4.279 -0.7241 -1.0110  0.4227
  891MOL0     H22914   1.961   2.010   4.228  0.0708  0.7386  0.0359
  891MOL0     H22915   2.023   2.103   4.095 -0.5482  1.3177 -1.1934
  891MOL0     H22916   2.182   2.350   4.425 -3.0068 -1.6846 -2.5105
  891MOL0     H22917   2.387   2.491   4.448  5.1154  2.4187 -2.5210
  891MOL0     H22918   2.544   2.418   4.462  0.3833 -2.7135 -0.0833
  891MOL0     H22919   2.414   2.378   4.577 -2.4646  1.2898  0.2649
  891MOL0     H22920   2.816   2.034   4.469 -1.2350  1.3761 -0.3902
  891MOL0     H22921   3.075   2.015   4.488 -4.0198  0.3858  3.1457
  891MOL0     H22922   3.217   1.913   4.113  0.4242  1.5273 -0.2415
  891MOL0     H22923   3.335   2.038   4.093 -0.2425 -0.5505 -1.7360
  891MOL0     H22924   3.339   1.782   4.262 -1.7399  0.5937 -1.6668
  891MOL0     H22925   3.441   1.811   4.118 -1.1211  0.4170 -1.2618
  891MOL0     H22926   3.464   1.911   4.402 -0.1773  0.9313  1.1778
  891MOL0     H22927   3.548   1.998   4.275  1.9767 -1.6136 -1.1824
  891MOL0     H22928   3.652   1.770   4.213 -2.0146 -1.1841 -0.6958
  891MOL0     H22929   3.572   1.710   4.360  0.9943 -0.0896  1.5163
  891MOL0     H22930   3.777   1.938   4.337 -0.8292 -0.7051 -2.6718
  891MOL0     H22931   3.723   1.886   4.499  0.8461 -0.9334  0.0281
  891MOL0     H22932   3.859   1.681   4.317 -0.8871  0.9211 -0.4081
  891MOL0     H22933   3.827   1.678   4.488 -2.0406 -1.1036 -1.3781
  891MOL0     H22934   3.966   1.906   4.497 -0.9531  0.8209 -0.9547
  891MOL0     H22935   4.031   1.858   4.339  0.2135  0.6733  1.3309
  891MOL0     H22936   4.028   1.651   4.568 -0.6086 -0.8089  1.1426
  891MOL0     H22937   4.159   1.767   4.565  0.1386 -0.3257 -0.3994
  891MOL0     H22938   3.087   2.125   4.070 -3.7517 -0.4087 -2.0389
  891MOL0     H22939   2.857   2.105   4.052 -0.5059 -0.3888 -0.8859
  891MOL0     H22940   2.461   2.028   4.168  1.1984  1.8146 -0.4471
  891MOL0     H22941   2.242   2.035   4.127  3.9509 -1.4154  0.0756
  891MOL0     H22942   0.470   1.368   4.619 -0.6913 -1.4899  1.5752
  891MOL0     H22943   0.379   1.143   4.604 -2.8240  1.1194  1.0887
  891MOL0     H22944   0.131   0.848   4.287  0.0149  1.9212  3.8624
  891MOL0     H22945   0.063   0.628   4.271 -1.0882  0.9670  1.3013
  891MOL0     H22946   0.358   0.314   4.336 -0.0452 -0.7045  0.5112
  891MOL0     H22947   0.274   0.312   4.491 -2.5222  2.7962  1.0217
  891MOL0     H22948   0.251   0.084   4.385  1.2309  0.8172 -0.5438
  891MOL0     H22949   0.178   0.153   4.247 -0.7519 -3.6805  1.1053
  891MOL0     H22950   0.068   0.176   4.527  0.1548 -0.7990 -0.4039
  891MOL0     H22951   0.002   0.264   4.386  1.6242  0.4614 -2.2729
  891MOL0     H22952   0.013  -0.035   4.421  4.3993  3.4549 -2.0673
  891MOL0     H22953  -0.050   0.050   4.281  0.6629  1.2803 -0.2059
  891MOL0     H22954  -0.365   0.080   4.582 -0.2541  0.8838  2.0513
  891MOL0     H22955   0.437   0.501   4.454 -0.9624 -1.6291 -2.3478
  891MOL0     H22956   0.562   0.808   4.566  3.1248 -0.6170 -0.5467
  891MOL0     H22957   0.558   0.628   4.553  0.6228  0.7226  1.0540
  891MOL0     H22958   0.624   0.719   4.422  0.7898 -2.5351  0.2174
  892MOL0     O22959   3.803   8.446  10.326 -0.2748  0.4271 -0.6747
  892MOL0     C22960   3.772   8.395  10.220  0.5615  0.6229  0.2985
  892MOL0     O22961   3.851   8.315  10.139  0.2357  0.1736 -0.3966
  892MOL0     C22962   3.983   8.303  10.174 -0.4449 -0.5903  0.1140
  892MOL0     C22963   4.029   8.180  10.217  0.3278 -0.2414 -0.0410
  892MOL0     C22964   4.162   8.161  10.263  0.8982  0.6757 -0.3131
  892MOL0     C22965   4.251   8.266  10.259 -0.6617  0.2766  0.0535
  892MOL0     O22966   4.383   8.239  10.281  0.4973 -0.0509  0.7996
  892MOL0     C22967   4.487   8.306  10.211 -1.2043  0.4230 -0.2310
  892MOL0     C22968   4.619   8.268  10.290  0.6842  0.7393 -0.1213
  892MOL0     C22969   4.746   8.290  10.208 -0.1026 -0.3274  0.5224
  892MOL0     C22970   4.863   8.202  10.259 -0.5253  0.3895 -0.4877
  892MOL0     C22971   5.000   8.273  10.239 -0.8151  0.2906  1.2724
  892MOL0     C22972   5.123   8.238  10.327  0.0069 -0.2700 -0.7273
  892MOL0     C22973   5.148   8.089  10.369  0.9310 -0.3530 -0.7677
  892MOL0     C22974   5.207   8.008  10.253 -0.0218  0.4350  0.0529
  892MOL0     N22975   5.245   7.878  10.312 -0.3029 -0.1404 -0.5447
  892MOL0     C22976   5.196   7.757  10.267 -0.5204 -0.2961  0.0065
  892MOL0     C22977   5.270   7.664  10.343  0.5798 -0.7460  0.4973
  892MOL0     C22978   5.255   7.520  10.335  0.1243  0.2663  0.7566
  892MOL0     C22979   5.122   7.460  10.383 -0.3437 -0.9061  0.0622
  892MOL0     C22980   5.027   7.462  10.260 -0.2675 -0.0113 -0.2880
  892MOL0     C22981   4.882   7.409  10.296 -0.0431  0.5805 -0.2245
  892MOL0     O22982   4.839   7.476  10.413 -0.5124  1.0503  0.3761
  892MOL0     C22983   4.708   7.442  10.445 -0.6903 -0.6001  0.0690
  892MOL0     C22984   4.670   7.501  10.561 -0.3067 -0.7215 -0.3981
  892MOL0     C22985   4.550   7.477  10.617 -0.3863 -1.2015 -0.3026
  892MOL0     C22986   4.512   7.539  10.751 -0.7967 -0.0795 -0.7838
  892MOL0     C22987   4.459   7.389  10.557 -1.2876 -0.2073 -0.2306
  892MOL0     C22988   4.332   7.331  10.623 -0.4024 -0.7695 -0.6196
  892MOL0     O22989   4.258   7.263  10.536 -0.3247  0.3047 -0.2073
  892MOL0     C22990   4.149   7.192  10.584  0.6148 -0.5264  0.1292
  892MOL0     C22991   4.031   7.270  10.586  0.1120  0.5828 -0.4519
  892MOL0     C22992   3.901   7.214  10.623 -0.5444  0.3235  0.9613
  892MOL0     C22993   3.898   7.076  10.627  0.5038  0.4500  0.8447
  892MOL0     O22994   3.778   7.003  10.644 -0.4494 -0.4263 -0.8302
  892MOL0     C22995   3.653   7.068  10.635  0.0794  0.4459  0.4999
  892MOL0     C22996   3.534   6.966  10.635  0.0570  0.7190 -0.5814
  892MOL0     C22997   3.519   6.874  10.749  0.6660 -0.5807  0.4933
  892MOL0     C22998   3.536   6.949  10.892  0.4470 -0.0802  1.4754
  892MOL0     C22999   3.511   6.854  11.014  0.2068 -0.0855 -1.0405
  892MOL0     C23000   3.357   6.840  11.033  0.3015 -0.6121  0.1129
  892MOL0     C23001   3.332   6.756  11.162 -0.0730 -0.3473  0.2126
  892MOL0     C23002   3.184   6.693  11.177 -0.0682  0.0472  0.4534
  892MOL0    Cl23003   3.062   6.812  11.134  0.3349  0.0862  0.1597
  892MOL0     C23004   4.005   6.997  10.597  0.4853  0.1009 -0.1405
  892MOL0     C23005   4.133   7.053  10.581 -0.5588  0.1428 -0.2683
  892MOL0     O23006   4.323   7.324  10.744 -0.7356  0.2818  0.5399
  892MOL0     C23007   4.495   7.332  10.434 -0.1353  0.5131  0.3112
  892MOL0     C23008   4.618   7.353  10.375  0.1988  0.2216 -0.5935
  892MOL0     N23009   5.350   7.740  10.431  0.3544  0.9715  0.5699
  892MOL0     N23010   5.344   7.862  10.408 -0.4435 -1.1372  0.0787
  892MOL0     C23011   4.205   8.394  10.218  0.2140  1.1652  0.5971
  892MOL0     C23012   4.074   8.412  10.176  1.1535 -0.4748  0.4155
  892MOL0     C23013   3.634   8.407  10.177  0.0598  0.2618  0.8645
  892MOL0     C23014   3.585   8.295  10.112  0.2563 -0.0273  0.5099
  892MOL0     C23015   3.455   8.306  10.048  0.4911 -0.3550  0.2193
  892MOL0     C23016   3.362   8.420  10.058 -0.2358 -0.5184  0.4436
  892MOL0     O23017   3.245   8.435   9.989  0.2291 -0.2221 -0.3707
  892MOL0     C23018   3.182   8.317   9.935 -0.3649  0.2966  0.0346
  892MOL0     C23019   3.050   8.361   9.875  1.1849  0.1301 -0.5635
  892MOL0     C23020   2.964   8.253   9.813  0.2953 -1.0145 -0.3344
  892MOL0     C23021   2.835   8.306   9.757  0.6474  1.3146 -0.1405
  892MOL0     C23022   2.740   8.218   9.686 -0.2074  0.3814 -0.3898
  892MOL0     C23023   2.670   8.150   9.614  1.7473 -0.1725  0.1222
  892MOL0     C23024   3.426   8.530  10.116 -0.5051  0.1483 -0.2781
  892MOL0     C23025   3.555   8.525  10.182 -0.1407  1.4282 -0.2204
  892MOL0     C23026   3.600   8.640  10.256 -0.2989 -0.0023 -0.5416
  892MOL0     H23027   3.960   8.096  10.216 -0.6383  0.3507  3.2697
  892MOL0     H23028   4.190   8.064  10.302  2.6676  1.1798 -0.2838
  892MOL0     H23029   4.480   8.416  10.207 -2.9871  0.3106 -1.8873
  892MOL0     H23030   4.498   8.272  10.108 -0.2772 -0.6918  0.2189
  892MOL0     H23031   4.594   8.317  10.384  0.0373 -0.2048  0.2045
  892MOL0     H23032   4.612   8.161  10.311  0.4104  0.3260 -2.1217
  892MOL0     H23033   4.713   8.261  10.108  1.2833 -1.6910  0.4197
  892MOL0     H23034   4.779   8.394  10.213  1.6490 -0.7691 -0.8576
  892MOL0     H23035   4.854   8.195  10.368  2.6813 -1.8361 -0.1934
  892MOL0     H23036   4.855   8.103  10.214 -1.8501 -0.3465  1.2389
  892MOL0     H23037   4.984   8.380  10.228 -0.0383  0.3347  0.4859
  892MOL0     H23038   5.040   8.239  10.143 -0.7259 -2.2068  2.1237
  892MOL0     H23039   5.217   8.269  10.281  1.7908 -2.4239  1.1759
  892MOL0     H23040   5.101   8.301  10.414 -0.8117  1.3732 -2.0832
  892MOL0     H23041   5.051   8.048  10.399 -0.0005  1.8207 -0.6204
  892MOL0     H23042   5.211   8.077  10.457  3.0962 -0.7081 -2.3001
  892MOL0     H23043   5.129   8.002  10.177  1.1846  0.5867 -1.2611
  892MOL0     H23044   5.294   8.060  10.210  0.2990  0.0809  0.2606
  892MOL0     H23045   5.111   7.751  10.199 -1.1043 -0.6065  0.7439
  892MOL0     H23046   5.331   7.475  10.399  0.8713  0.1735 -0.1809
  892MOL0     H23047   5.273   7.484  10.233 -0.1012 -1.4233  1.2815
  892MOL0     H23048   5.134   7.356  10.413  2.3665 -1.3315 -2.1537
  892MOL0     H23049   5.089   7.527  10.463  1.0228  0.9496 -0.8686
  892MOL0     H23050   5.012   7.568  10.237  0.9431  0.2363 -0.0386
  892MOL0     H23051   5.068   7.405  10.176 -0.1112  0.9939 -0.9091
  892MOL0     H23052   4.822   7.442  10.211  4.7414  3.0735 -3.0385
  892MOL0     H23053   4.885   7.301  10.312  3.6149  0.5566 -0.2970
  892MOL0     H23054   4.742   7.558  10.619 -0.4458 -0.2624 -0.6729
  892MOL0     H23055   4.417   7.593  10.753  0.4651  2.3911 -2.9892
  892MOL0     H23056   4.592   7.599  10.796 -0.8860 -1.2019  0.9884
  892MOL0     H23057   4.493   7.462  10.827 -2.0691  0.0491 -0.9548
  892MOL0     H23058   4.025   7.377  10.566  0.5949  0.7263  0.1285
  892MOL0     H23059   3.816   7.280  10.640  0.2981  1.8928 -0.5998
  892MOL0     H23060   3.643   7.145  10.712 -0.8906  0.4386  0.3904
  892MOL0     H23061   3.637   7.117  10.538 -1.9781 -0.0507  0.5454
  892MOL0     H23062   3.442   7.023  10.618 -1.6619 -1.8062 -0.2705
  892MOL0     H23063   3.541   6.902  10.546 -3.0094  1.7499 -1.7069
  892MOL0     H23064   3.591   6.792  10.737  0.1707 -0.9049 -0.3605
  892MOL0     H23065   3.426   6.817  10.742  1.4618 -1.7017 -2.4600
  892MOL0     H23066   3.484   7.045  10.895 -0.7562 -0.6209 -0.2416
  892MOL0     H23067   3.634   6.996  10.906 -0.1804  1.7895  0.0271
  892MOL0     H23068   3.562   6.758  10.998  1.7676  0.4472  0.3729
  892MOL0     H23069   3.557   6.913  11.094 -0.5359 -1.9607  0.8346
  892MOL0     H23070   3.305   6.788  10.952 -2.0825 -0.7018  1.5901
  892MOL0     H23071   3.299   6.931  11.050 -1.7728 -1.7373 -0.5723
  892MOL0     H23072   3.348   6.814  11.253 -0.6214 -0.6125  0.4796
  892MOL0     H23073   3.403   6.673  11.171  0.7036  0.1751 -0.8368
  892MOL0     H23074   3.162   6.662  11.280 -1.8691  0.7482  0.3029
  892MOL0     H23075   3.173   6.606  11.112  1.5551  0.9876 -1.1916
  892MOL0     H23076   3.992   6.889  10.586  1.1188  0.0409 -0.3335
  892MOL0     H23077   4.220   6.992  10.559 -0.5271  0.8487 -2.3857
  892MOL0     H23078   4.424   7.270  10.382 -2.2605 -0.7918  4.3314
  892MOL0     H23079   4.644   7.297  10.286 -0.5116 -0.5137 -0.3462
  892MOL0     H23080   4.281   8.470  10.231  3.3171 -1.4152 -1.0240
  892MOL0     H23081   4.049   8.516  10.162  3.7597  0.6393  3.0062
  892MOL0     H23082   3.638   8.201  10.109 -0.2330 -0.2911 -0.0454
  892MOL0     H23083   3.429   8.213   9.998 -0.4525 -1.2535  2.2478
  892MOL0     H23084   3.247   8.283   9.853 -1.3608 -1.3928 -0.1071
  892MOL0     H23085   3.163   8.232  10.002  5.0904 -6.0582 -4.9783
  892MOL0     H23086   3.059   8.438   9.797  0.1968  0.9087  0.0685
  892MOL0     H23087   2.990   8.407   9.954  1.3173 -1.2415  0.3686
  892MOL0     H23088   3.025   8.209   9.734  0.4398 -2.3418  0.4915
  892MOL0     H23089   2.942   8.170   9.881 -1.5175 -0.8911 -0.7099
  892MOL0     H23090   2.870   8.382   9.687 -2.0896  2.9181  0.0957
  892MOL0     H23091   2.783   8.358   9.838 -0.0222  2.5548 -1.3407
  892MOL0     H23092   2.598   8.107   9.547  1.9541 -1.6774  0.8027
  892MOL0     H23093   3.366   8.620  10.116 -1.8542 -0.7333  0.1676
  892MOL0     H23094   3.701   8.664  10.221 -0.7446  0.3844 -1.6110
  892MOL0     H23095   3.531   8.723  10.238 -2.2027 -1.5041 -0.4754
  892MOL0     H23096   3.610   8.615  10.362  1.1525  0.5509 -0.5148
  893MOL0     O23097   6.301   6.103   0.695 -0.2007 -0.2734 -0.0699
  893MOL0     C23098   6.280   6.058   0.806  0.0439  0.0174  0.0908
  893MOL0     O23099   6.361   5.972   0.872 -0.1518  0.7532  0.4721
  893MOL0     C23100   6.483   5.927   0.823  1.0886  0.0306 -0.2617
  893MOL0     C23101   6.526   5.913   0.689 -0.8406 -0.0081 -0.3875
  893MOL0     C23102   6.657   5.874   0.661  0.0398 -0.5724  0.4250
  893MOL0     C23103   6.743   5.833   0.760  0.2054 -0.5309  0.1773
  893MOL0     O23104   6.870   5.799   0.711 -0.2666  0.2752  0.2037
  893MOL0     C23105   6.971   5.769   0.810  0.0170 -1.1403  0.8873
  893MOL0     C23106   7.114   5.775   0.746  0.6680 -0.0301 -1.0018
  893MOL0     C23107   7.125   5.677   0.630 -0.3386  0.6839 -0.2898
  893MOL0     C23108   7.085   5.532   0.677  0.7197 -1.0809  0.3293
  893MOL0     C23109   7.118   5.427   0.573 -0.1240 -0.0402 -0.2243
  893MOL0     C23110   7.007   5.414   0.470  0.5105 -0.0231 -0.2908
  893MOL0     C23111   7.007   5.519   0.362 -0.1287  0.0385  1.1101
  893MOL0     C23112   6.928   5.466   0.231 -0.3978  0.2190 -0.7358
  893MOL0     N23113   6.784   5.479   0.245 -0.2570  0.0122 -0.5349
  893MOL0     C23114   6.711   5.523   0.348  0.3287 -1.0000  0.2421
  893MOL0     C23115   6.585   5.517   0.302  0.2065 -0.6142  0.0264
  893MOL0     C23116   6.467   5.571   0.377 -0.0671  0.2286 -0.0679
  893MOL0     C23117   6.424   5.489   0.506 -1.1067  0.0234  1.0627
  893MOL0     C23118   6.289   5.531   0.566 -0.2753  0.1795  0.7090
  893MOL0     C23119   6.272   5.682   0.593  0.7125  0.6241 -0.0649
  893MOL0     O23120   6.191   5.706   0.718 -0.0139  0.2685  0.1870
  893MOL0     C23121   6.050   5.727   0.695  0.1216  1.0007  0.3454
  893MOL0     C23122   5.973   5.732   0.573 -0.8842  0.7329  0.3453
  893MOL0     C23123   5.842   5.771   0.571 -0.2177  1.0046  0.5680
  893MOL0     C23124   5.782   5.780   0.438  0.1252  0.3302 -0.8875
  893MOL0     C23125   5.770   5.798   0.688  0.5491 -0.4420 -0.2358
  893MOL0     C23126   5.635   5.864   0.694  0.7275  1.1325  0.3149
  893MOL0     O23127   5.618   5.932   0.803  0.3771 -0.1175 -0.6587
  893MOL0     C23128   5.492   5.993   0.816  1.2499  0.2427  0.2051
  893MOL0     C23129   5.464   6.128   0.765 -0.8277 -0.0730 -1.0725
  893MOL0     C23130   5.340   6.189   0.778 -0.5824 -0.9479 -1.6902
  893MOL0     C23131   5.244   6.125   0.862  0.4151 -0.8522 -0.3699
  893MOL0     O23132   5.114   6.179   0.893 -0.0910 -0.3647  0.0543
  893MOL0     C23133   5.090   6.313   0.852 -0.3223 -0.6437 -0.0689
  893MOL0     C23134   4.985   6.385   0.936 -0.3416 -0.1270  0.9330
  893MOL0     C23135   4.846   6.338   0.895 -0.1738  0.1055  0.0187
  893MOL0     C23136   4.725   6.422   0.954  0.9281 -0.6230  0.0823
  893MOL0     C23137   4.588   6.380   0.905  0.1635  0.2936 -0.5576
  893MOL0     C23138   4.557   6.230   0.912  0.7297 -1.0542 -1.4454
  893MOL0     C23139   4.406   6.202   0.889 -0.6159 -0.2145  0.0083
  893MOL0     C23140   4.396   6.054   0.847 -0.3231 -0.1860 -0.5066
  893MOL0    Cl23141   4.226   6.017   0.880  0.0061  0.0105  0.0893
  893MOL0     C23142   5.265   5.998   0.909  0.5335  0.7822  0.4931
  893MOL0     C23143   5.381   5.923   0.879  0.1384  0.1867  0.5219
  893MOL0     O23144   5.547   5.848   0.607 -0.1863  0.3152  0.9082
  893MOL0     C23145   5.838   5.777   0.816  0.3479 -0.0899  0.6768
  893MOL0     C23146   5.979   5.743   0.816 -1.0134  0.4477  0.7334
  893MOL0     N23147   6.578   5.480   0.171  0.1513  0.5373 -0.1035
  893MOL0     N23148   6.698   5.452   0.142  0.3005  1.0514  0.4550
  893MOL0     C23149   6.702   5.844   0.896  0.4915 -0.2519  0.6279
  893MOL0     C23150   6.573   5.881   0.928  0.2107  0.5483  0.0667
  893MOL0     C23151   6.155   6.090   0.876 -0.9594 -0.3981 -0.9201
  893MOL0     C23152   6.171   6.109   1.015 -0.1959  0.5282 -0.5214
  893MOL0     C23153   6.065   6.117   1.097  1.7099 -0.2401 -0.6360
  893MOL0     C23154   5.939   6.138   1.040  0.2501  0.0202 -0.2062
  893MOL0     O23155   5.845   6.150   1.136  0.3950 -0.3637 -0.4344
  893MOL0     C23156   5.730   6.223   1.084 -0.0949 -0.9048  0.3463
  893MOL0     C23157   5.634   6.245   1.201  0.1061 -0.8425 -0.0187
  893MOL0     C23158   5.545   6.370   1.170 -0.3717  0.1039  0.3018
  893MOL0     C23159   5.407   6.340   1.108  0.7303  0.0398  0.1134
  893MOL0     C23160   5.310   6.457   1.123  0.2088 -0.4926  0.4079
  893MOL0     C23161   5.256   6.564   1.138  0.0627 -0.1461  0.0631
  893MOL0     C23162   5.921   6.138   0.902  0.0545 -0.2030  0.1140
  893MOL0     C23163   6.032   6.109   0.816 -0.2721  0.3685  0.0521
  893MOL0     C23164   5.999   6.096   0.672  0.4770  0.3034 -0.1809
  893MOL0     H23165   6.455   5.948   0.616 -1.8574 -0.7337  0.2271
  893MOL0     H23166   6.690   5.874   0.558  1.1505 -0.6045  0.7700
  893MOL0     H23167   6.959   5.665   0.840 -1.1337 -1.8660 -1.8618
  893MOL0     H23168   6.975   5.849   0.886  1.8009 -3.7837  3.8323
  893MOL0     H23169   7.137   5.877   0.711 -0.4346 -0.3874 -2.8860
  893MOL0     H23170   7.187   5.745   0.822 -1.5862  1.8787  2.1611
  893MOL0     H23171   7.068   5.717   0.546 -0.5372 -0.0039 -0.4905
  893MOL0     H23172   7.231   5.672   0.602  0.0388 -1.2137  1.2463
  893MOL0     H23173   7.135   5.506   0.771  0.7070  1.0136  0.9620
  893MOL0     H23174   6.978   5.524   0.697  0.2067  0.0225 -1.6454
  893MOL0     H23175   7.123   5.332   0.627  0.7071  0.3918  0.4760
  893MOL0     H23176   7.213   5.455   0.527  0.0659 -1.3395 -0.6706
  893MOL0     H23177   7.022   5.318   0.419  0.7656 -0.6839  0.9874
  893MOL0     H23178   6.909   5.413   0.519  0.6434 -1.6010  0.0185
  893MOL0     H23179   7.110   5.536   0.333 -1.0409  1.2741 -1.6990
  893MOL0     H23180   6.963   5.613   0.395  1.2595  1.8518 -1.8627
  893MOL0     H23181   6.964   5.518   0.142  2.3046 -2.2459 -1.2434
  893MOL0     H23182   6.947   5.362   0.204  0.1975 -0.1144  0.8708
  893MOL0     H23183   6.733   5.553   0.450  0.4425  0.5819 -0.2291
  893MOL0     H23184   6.388   5.589   0.303 -1.1126  3.0879  1.5690
  893MOL0     H23185   6.495   5.670   0.414  1.2152  0.6197 -1.9716
  893MOL0     H23186   6.420   5.380   0.490 -2.8416  0.2784 -0.5619
  893MOL0     H23187   6.501   5.515   0.580 -1.1190 -0.6511  1.3229
  893MOL0     H23188   6.200   5.503   0.510 -0.8955 -2.0827  2.6467
  893MOL0     H23189   6.270   5.476   0.659 -1.1710 -0.0892  0.3801
  893MOL0     H23190   6.368   5.733   0.608 -0.1465  2.2905  0.0202
  893MOL0     H23191   6.218   5.736   0.515 -2.1642 -0.2665  1.1897
  893MOL0     H23192   6.024   5.719   0.478  3.0077  1.5020  2.1366
  893MOL0     H23193   5.705   5.702   0.432  0.7294 -0.3869  0.2631
  893MOL0     H23194   5.852   5.771   0.355 -1.4359 -0.6651 -2.1671
  893MOL0     H23195   5.728   5.875   0.438 -1.4674 -0.4520  1.8085
  893MOL0     H23196   5.534   6.180   0.700 -0.9407 -0.4562 -1.5092
  893MOL0     H23197   5.328   6.283   0.727 -0.8061  0.0757  0.1649
  893MOL0     H23198   5.186   6.367   0.856  1.0515 -2.9635  0.2204
  893MOL0     H23199   5.055   6.316   0.749 -1.0105 -1.5754  0.1285
  893MOL0     H23200   5.001   6.362   1.042  0.9308  2.6881  1.4447
  893MOL0     H23201   5.002   6.492   0.923 -1.3155 -0.0857 -0.1263
  893MOL0     H23202   4.835   6.232   0.920 -2.7657  0.2947 -0.0646
  893MOL0     H23203   4.841   6.347   0.786  1.3179 -3.9240 -0.5681
  893MOL0     H23204   4.742   6.528   0.931 -1.0758 -0.4104 -0.6204
  893MOL0     H23205   4.724   6.419   1.063 -1.3898  1.7340  0.2093
  893MOL0     H23206   4.513   6.421   0.973 -1.9568 -1.5528 -1.6396
  893MOL0     H23207   4.567   6.420   0.805 -5.9821 -3.3871 -1.2623
  893MOL0     H23208   4.586   6.209   1.015  1.8349 -1.3751 -1.8063
  893MOL0     H23209   4.621   6.164   0.852 -0.2498 -3.9440  0.4465
  893MOL0     H23210   4.370   6.259   0.803 -1.9412  0.6676  1.1099
  893MOL0     H23211   4.338   6.229   0.970  1.7782  0.2794  2.0030
  893MOL0     H23212   4.455   5.997   0.919 -0.3578  0.9029  0.4190
  893MOL0     H23213   4.419   6.025   0.744  1.8013 -0.4085 -0.0186
  893MOL0     H23214   5.179   5.950   0.955 -1.0588  1.4421 -1.6213
  893MOL0     H23215   5.393   5.816   0.893  0.7837  0.2617  0.6053
  893MOL0     H23216   5.784   5.785   0.910  0.7776 -0.6741  0.9749
  893MOL0     H23217   6.048   5.729   0.899 -0.7392  0.2942  0.4806
  893MOL0     H23218   6.773   5.830   0.976 -0.7602  0.3401  1.8815
  893MOL0     H23219   6.539   5.892   1.030 -1.7578  1.3545 -0.6403
  893MOL0     H23220   6.266   6.088   1.062 -1.3860  1.2241  2.3857
  893MOL0     H23221   6.077   6.123   1.205  0.2698 -3.0304 -0.2367
  893MOL0     H23222   5.766   6.317   1.041  1.0184  0.3634  3.6917
  893MOL0     H23223   5.673   6.160   1.016 -1.5416 -1.1033  1.6759
  893MOL0     H23224   5.699   6.269   1.286 -0.9008  0.3812  0.4307
  893MOL0     H23225   5.579   6.153   1.223  0.6626 -1.1100  0.3020
  893MOL0     H23226   5.510   6.414   1.264 -1.5844  1.6648 -0.8200
  893MOL0     H23227   5.595   6.449   1.113 -2.3773  0.4848 -1.0407
  893MOL0     H23228   5.360   6.261   1.169 -0.8436  1.7222  1.1861
  893MOL0     H23229   5.419   6.310   1.004 -1.8208  1.4537 -0.6686
  893MOL0     H23230   5.199   6.654   1.126  0.9634  0.1679 -2.5489
  893MOL0     H23231   5.828   6.157   0.850  0.5593 -0.7136 -1.0124
  893MOL0     H23232   6.047   6.003   0.640  0.5489 -0.1936  1.3207
  893MOL0     H23233   5.891   6.094   0.655  0.3493  2.7123  0.0740
  893MOL0     H23234   6.044   6.184   0.626 -1.3394  1.2004 -0.2887
  894MOL0     O23235   5.517   0.644  11.335 -0.4669  0.4026 -0.3710
  894MOL0     C23236   5.450   0.681  11.240 -0.2256  0.2332 -0.0408
  894MOL0     O23237   5.461   0.632  11.110 -0.0878  0.6567 -0.2564
  894MOL0     C23238   5.588   0.585  11.077  0.1748  0.1213  0.3529
  894MOL0     C23239   5.601   0.449  11.051  0.0898 -0.2811 -0.0249
  894MOL0     C23240   5.724   0.402  11.029  0.0324  0.4383  0.1760
  894MOL0     C23241   5.839   0.485  11.035 -0.7163  0.0351  0.4984
  894MOL0     O23242   5.973   0.448  11.001  0.1728  0.2154  0.6376
  894MOL0     C23243   5.996   0.329  10.922  0.1582  0.2260 -0.8931
  894MOL0     C23244   6.144   0.341  10.889 -0.3396 -0.6818  0.9345
  894MOL0     C23245   6.239   0.327  11.007 -0.5249  0.5180  0.0847
  894MOL0     C23246   6.384   0.354  10.979 -0.5093 -0.3055  0.8472
  894MOL0     C23247   6.475   0.297  11.095  0.4406  0.3564 -0.0103
  894MOL0     C23248   6.622   0.324  11.075 -1.5336  0.2970  0.3369
  894MOL0     C23249   6.688   0.244  10.962  1.0396 -0.2729  1.1239
  894MOL0     C23250   6.820   0.301  10.928 -0.4671 -0.4546 -0.0391
  894MOL0     N23251   6.939   0.271  11.014 -0.8948  0.1974 -0.8992
  894MOL0     C23252   6.970   0.338  11.140 -0.2568  0.3711 -0.5402
  894MOL0     C23253   7.079   0.265  11.184  0.6827  0.0898 -0.6742
  894MOL0     C23254   7.156   0.291  11.312  0.2716 -0.3944 -0.7125
  894MOL0     C23255   7.295   0.358  11.282  0.0580 -0.1844 -0.4237
  894MOL0     C23256   7.391   0.266  11.211 -0.2170  0.2438  0.2814
  894MOL0     C23257   7.537   0.330  11.198  0.4200 -0.5243 -0.0626
  894MOL0     O23258   7.572   0.362  11.333 -0.5352 -0.1290 -0.2813
  894MOL0     C23259   7.702   0.391  11.361 -1.0363 -0.2730  0.4110
  894MOL0     C23260   7.782   0.299  11.421  0.0454 -0.4727 -1.0554
  894MOL0     C23261   7.908   0.339  11.455 -0.2196  0.0356 -0.0903
  894MOL0     C23262   7.994   0.222  11.516  0.6926  0.6201  0.1687
  894MOL0     C23263   7.961   0.466  11.427 -0.0235 -0.0447  0.6518
  894MOL0     C23264   8.095   0.512  11.457 -0.5468  0.6132  0.5614
  894MOL0     O23265   8.167   0.454  11.561  0.2549  0.0674  0.6603
  894MOL0     C23266   8.301   0.480  11.552 -0.6623  0.5263  0.2869
  894MOL0     C23267   8.373   0.454  11.436 -0.0973  0.3962 -0.5152
  894MOL0     C23268   8.507   0.484  11.437  0.7558  0.5592 -0.1259
  894MOL0     C23269   8.570   0.534  11.546 -0.2313  0.4696 -0.4503
  894MOL0     O23270   8.711   0.546  11.552  0.0832 -0.2948 -0.0465
  894MOL0     C23271   8.755   0.636  11.452 -0.9325  0.6296 -0.4440
  894MOL0     C23272   8.735   0.785  11.491  0.7349 -0.0063  0.0750
  894MOL0     C23273   8.814   0.829  11.618  0.1479 -0.0615 -0.6468
  894MOL0     C23274   8.808   0.975  11.640 -0.0095 -0.2535 -0.6458
  894MOL0     C23275   8.852   1.027  11.779  0.1359 -0.8484  0.0609
  894MOL0     C23276   9.001   1.010  11.786  0.3118  0.4259  1.3568
  894MOL0     C23277   9.087   1.090  11.883  0.6099 -0.4340 -0.2995
  894MOL0     C23278   9.230   1.054  11.857 -0.6723  1.2919  0.0608
  894MOL0    Cl23279   9.337   1.105  12.002 -0.2277  0.5213 -0.4076
  894MOL0     C23280   8.499   0.564  11.659  0.4343 -0.8624  0.0731
  894MOL0     C23281   8.362   0.543  11.667  0.4057  0.0377 -0.7682
  894MOL0     O23282   8.126   0.611  11.398 -0.2607 -0.2782 -0.7322
  894MOL0     C23283   7.882   0.552  11.346 -0.2790  0.3580 -0.4953
  894MOL0     C23284   7.756   0.508  11.300 -0.2547 -0.5743 -0.0874
  894MOL0     N23285   7.119   0.174  11.092  0.1113  0.3174  0.3453
  894MOL0     N23286   7.037   0.180  10.993  0.5490 -0.5309 -0.1519
  894MOL0     C23287   5.834   0.620  11.066  0.3148  0.8644 -1.0598
  894MOL0     C23288   5.702   0.669  11.078  0.5426  0.1974  0.3583
  894MOL0     C23289   5.328   0.770  11.255  0.3338 -0.1976 -0.0558
  894MOL0     C23290   5.243   0.789  11.147  0.3773  0.2251  0.6227
  894MOL0     C23291   5.125   0.868  11.155 -0.3164 -0.1968 -0.4011
  894MOL0     C23292   5.092   0.935  11.273  0.7389  1.0411  0.0498
  894MOL0     O23293   4.979   1.015  11.266 -0.6915  0.1752  0.1194
  894MOL0     C23294   4.964   1.125  11.365  0.6452 -0.4500 -0.2619
  894MOL0     C23295   4.835   1.198  11.337  0.9077  0.6105  0.1483
  894MOL0     C23296   4.720   1.109  11.363  0.9398  0.2604  0.3773
  894MOL0     C23297   4.583   1.175  11.352 -0.0052 -0.2013  0.5688
  894MOL0     C23298   4.481   1.074  11.376 -0.5177 -0.6342 -0.1733
  894MOL0     C23299   4.396   0.987  11.388 -0.5606 -0.4698  0.1830
  894MOL0     C23300   5.174   0.911  11.383  0.1433  0.6867 -0.5769
  894MOL0     C23301   5.293   0.837  11.373 -0.7012  0.1408  0.5702
  894MOL0     C23302   5.372   0.828  11.495 -0.4252 -0.6863  0.0932
  894MOL0     H23303   5.512   0.388  11.038 -0.4376  0.5220 -0.3004
  894MOL0     H23304   5.727   0.298  10.997 -0.6962  0.0951  1.1707
  894MOL0     H23305   5.944   0.336  10.825 -0.8378 -0.9845 -0.4775
  894MOL0     H23306   5.976   0.233  10.970  0.7339  0.8365  0.6000
  894MOL0     H23307   6.172   0.264  10.817  0.9057  1.6756 -1.2492
  894MOL0     H23308   6.165   0.438  10.843  3.6772 -0.5990  2.5387
  894MOL0     H23309   6.209   0.390  11.091 -0.9771 -1.1973  1.2397
  894MOL0     H23310   6.237   0.223  11.040 -0.6522  0.1870 -0.9313
  894MOL0     H23311   6.408   0.324  10.876  0.8578  0.3130  0.9769
  894MOL0     H23312   6.405   0.461  10.979  0.2404 -0.4054 -1.3391
  894MOL0     H23313   6.474   0.188  11.104 -0.2156  0.0253 -3.0247
  894MOL0     H23314   6.431   0.337  11.187 -3.3097 -1.3183 -0.8852
  894MOL0     H23315   6.640   0.429  11.050  2.0482  0.0801  1.4286
  894MOL0     H23316   6.674   0.292  11.166  2.5630 -1.7710 -2.4045
  894MOL0     H23317   6.628   0.236  10.871  0.6565 -1.0341  1.4407
  894MOL0     H23318   6.703   0.143  11.001  0.7248 -1.0925 -0.7974
  894MOL0     H23319   6.854   0.257  10.834  2.5590  2.6498 -0.5782
  894MOL0     H23320   6.811   0.409  10.916 -1.3772 -0.8680 -5.7040
  894MOL0     H23321   6.916   0.423  11.180 -0.1971  2.3054 -4.2483
  894MOL0     H23322   7.182   0.194  11.355  0.1864 -0.2595 -0.3573
  894MOL0     H23323   7.094   0.343  11.386  0.9911 -0.9663  0.3201
  894MOL0     H23324   7.284   0.455  11.233  1.0469 -1.4238 -3.3278
  894MOL0     H23325   7.345   0.387  11.375  2.5976  2.2004 -2.3791
  894MOL0     H23326   7.402   0.174  11.269 -0.2046  0.1121  0.0728
  894MOL0     H23327   7.365   0.246  11.106  0.0173 -2.5485  0.6824
  894MOL0     H23328   7.607   0.263  11.147  2.9635  0.8003  1.4955
  894MOL0     H23329   7.524   0.415  11.131 -2.2978 -1.4042 -0.7868
  894MOL0     H23330   7.747   0.208  11.467  1.5506 -0.4767  0.1393
  894MOL0     H23331   7.958   0.131  11.468  2.3139 -0.8367  1.5321
  894MOL0     H23332   8.001   0.209  11.625  0.8042  1.9162  0.3313
  894MOL0     H23333   8.099   0.238  11.487  1.3755  3.0318  3.3670
  894MOL0     H23334   8.304   0.416  11.362 -0.3461  0.8770 -0.5298
  894MOL0     H23335   8.570   0.445  11.358 -1.7486 -2.0005 -1.0094
  894MOL0     H23336   8.864   0.629  11.439 -0.6043  0.7143  1.8311
  894MOL0     H23337   8.709   0.617  11.355  0.2208  1.0126 -1.0840
  894MOL0     H23338   8.755   0.838  11.398 -1.3269  1.1121  0.2153
  894MOL0     H23339   8.632   0.811  11.518 -0.0832 -1.4167 -1.5205
  894MOL0     H23340   8.918   0.802  11.596  0.8758  0.5242  1.7263
  894MOL0     H23341   8.771   0.783  11.707 -0.8632 -2.6822 -2.3785
  894MOL0     H23342   8.709   1.021  11.630  0.2681  0.9320  1.4961
  894MOL0     H23343   8.869   1.026  11.565  1.5721 -0.8077  0.2324
  894MOL0     H23344   8.837   1.135  11.782  2.3459 -0.4991  0.0444
  894MOL0     H23345   8.806   0.981  11.867 -0.7207  1.4157  0.8717
  894MOL0     H23346   9.033   1.029  11.684 -0.9495  1.0830  1.0689
  894MOL0     H23347   9.004   0.902  11.805 -1.1965  0.6481  3.1882
  894MOL0     H23348   9.071   1.052  11.984 -2.2306  1.6321  0.1289
  894MOL0     H23349   9.063   1.196  11.895  0.4285 -0.7264  2.8362
  894MOL0     H23350   9.270   1.099  11.766 -0.6309 -1.1278 -1.1974
  894MOL0     H23351   9.239   0.945  11.852 -4.3172  0.9334 -1.9039
  894MOL0     H23352   8.553   0.597  11.748  0.1117  0.6066 -0.2382
  894MOL0     H23353   8.304   0.564  11.757  1.2729 -0.0117 -0.1900
  894MOL0     H23354   7.916   0.651  11.315  1.2988 -0.8320 -2.8574
  894MOL0     H23355   7.702   0.558  11.220 -1.1684 -4.1113 -1.8488
  894MOL0     H23356   5.930   0.670  11.064  1.1707 -0.5900  0.9758
  894MOL0     H23357   5.687   0.775  11.093 -4.1224 -0.0505 -0.7880
  894MOL0     H23358   5.276   0.736  11.058  1.8455 -0.4997  1.5622
  894MOL0     H23359   5.055   0.862  11.072  0.1275 -4.4688 -0.6801
  894MOL0     H23360   4.982   1.076  11.462  3.2949  2.1429  0.6853
  894MOL0     H23361   5.038   1.205  11.360 -3.2144  3.4318 -0.8688
  894MOL0     H23362   4.837   1.227  11.232  1.0466 -0.3832 -0.1404
  894MOL0     H23363   4.834   1.287  11.400  2.1941 -0.5511  1.9127
  894MOL0     H23364   4.718   1.027  11.291  1.5300  1.3092 -0.8910
  894MOL0     H23365   4.722   1.065  11.463 -0.5019 -1.5225 -0.3227
  894MOL0     H23366   4.561   1.213  11.252 -0.5232  2.5702  1.6320
  894MOL0     H23367   4.568   1.262  11.418 -2.3737  1.1263 -1.5507
  894MOL0     H23368   4.313   0.920  11.394 -0.0935 -1.0809 -0.0729
  894MOL0     H23369   5.137   0.946  11.479  0.6132 -2.3590  0.8286
  894MOL0     H23370   5.478   0.854  11.486 -0.6230  0.8825  1.7369
  894MOL0     H23371   5.335   0.893  11.574 -1.1256 -0.5465 -0.3395
  894MOL0     H23372   5.364   0.729  11.540 -1.4682  0.1597  1.8693
  895MOL0     O23373   7.868   6.778   7.314 -0.3460 -0.8439 -0.0526
  895MOL0     C23374   7.857   6.766   7.190  0.0382  0.4760 -0.3830
  895MOL0     O23375   7.864   6.871   7.104  0.0318  0.8093  0.2796
  895MOL0     C23376   7.883   6.991   7.162 -0.6678 -0.2953  0.1682
  895MOL0     C23377   7.992   7.026   7.237 -0.7408 -0.6515 -0.2758
  895MOL0     C23378   8.007   7.156   7.298 -0.9862 -0.1674  0.5067
  895MOL0     C23379   7.908   7.249   7.294  0.4620 -0.2188 -0.2043
  895MOL0     O23380   7.920   7.369   7.339  0.0281 -0.5319 -0.2282
  895MOL0     C23381   7.952   7.392   7.482  0.2631  0.3777  0.3851
  895MOL0     C23382   7.881   7.515   7.542  0.2406 -0.4999 -0.7115
  895MOL0     C23383   7.975   7.597   7.625 -0.0691  0.5415 -0.4397
  895MOL0     C23384   7.897   7.688   7.718  0.0888 -0.2023 -0.2411
  895MOL0     C23385   7.981   7.796   7.795  0.0478  0.6148  1.0267
  895MOL0     C23386   8.065   7.746   7.909 -0.1994  0.2719  0.2084
  895MOL0     C23387   8.134   7.858   7.978  0.3655  0.7151  0.2508
  895MOL0     C23388   8.150   7.828   8.132  0.3822 -0.4156  0.7840
  895MOL0     N23389   8.225   7.712   8.153  0.0617 -0.1662  0.0136
  895MOL0     C23390   8.354   7.699   8.112  0.2599 -0.0718  0.0535
  895MOL0     C23391   8.396   7.573   8.151  0.5059  0.1234 -0.4495
  895MOL0     C23392   8.527   7.510   8.138 -0.6845 -0.3584  0.3954
  895MOL0     C23393   8.612   7.548   8.264 -0.7353  0.6511 -0.0535
  895MOL0     C23394   8.754   7.499   8.263  0.2965  0.1500 -0.8371
  895MOL0     C23395   8.801   7.511   8.411 -0.2851 -0.0552  0.8242
  895MOL0     O23396   8.933   7.460   8.431  0.1084  0.3865 -0.3208
  895MOL0     C23397   8.991   7.473   8.551  0.5378 -0.0928 -0.0912
  895MOL0     C23398   9.131   7.496   8.553  0.1006  0.5065  0.5562
  895MOL0     C23399   9.203   7.496   8.679 -0.0022  1.0683  0.1148
  895MOL0     C23400   9.352   7.507   8.677  0.3890 -0.5956  0.8071
  895MOL0     C23401   9.125   7.489   8.795 -0.1137 -0.2933  0.7606
  895MOL0     C23402   9.190   7.491   8.926 -1.0490 -0.2109  0.1220
  895MOL0     O23403   9.128   7.420   9.028  0.8494 -0.1266  0.6115
  895MOL0     C23404   9.191   7.395   9.146 -0.1199  0.4833  0.7663
  895MOL0     C23405   9.322   7.351   9.159  0.3318  0.1844 -0.1380
  895MOL0     C23406   9.380   7.335   9.282 -0.1519  0.5716 -0.8061
  895MOL0     C23407   9.304   7.360   9.394 -0.4479  0.3379 -0.6944
  895MOL0     O23408   9.354   7.328   9.511 -0.2404 -0.4361  0.6773
  895MOL0     C23409   9.344   7.429   9.613  0.6328 -0.7086  0.6807
  895MOL0     C23410   9.464   7.416   9.710  0.5941 -0.1876 -0.1855
  895MOL0     C23411   9.454   7.287   9.792 -0.6049 -0.1000 -0.4274
  895MOL0     C23412   9.587   7.278   9.881  0.3765  0.1173 -0.3547
  895MOL0     C23413   9.706   7.239   9.799 -0.6167  0.0048 -0.2763
  895MOL0     C23414   9.825   7.205   9.886 -1.1655 -0.4501  0.3482
  895MOL0     C23415   9.944   7.160   9.805  1.1466  0.3628 -0.1138
  895MOL0     C23416  10.048   7.096   9.886 -0.7012  0.2588  0.2173
  895MOL0    Cl23417  10.186   7.042   9.798 -0.0961  0.3184 -0.4240
  895MOL0     C23418   9.174   7.399   9.382  0.0731  0.5703 -0.1699
  895MOL0     C23419   9.120   7.421   9.261 -0.4543 -0.4186 -0.5388
  895MOL0     O23420   9.277   7.580   8.950  0.1786  0.7258  0.4708
  895MOL0     C23421   8.987   7.452   8.783 -0.1398 -0.5949  0.1579
  895MOL0     C23422   8.924   7.463   8.663 -0.8085  0.2566  0.2469
  895MOL0     N23423   8.289   7.508   8.221  0.4751  0.1770 -0.5054
  895MOL0     N23424   8.187   7.599   8.222  0.3954  0.1252  0.9483
  895MOL0     C23425   7.801   7.220   7.207  0.3618  0.8331 -0.6147
  895MOL0     C23426   7.791   7.095   7.143 -0.0178  1.1198  0.3136
  895MOL0     C23427   7.827   6.632   7.142 -0.3208 -0.0287  0.7576
  895MOL0     C23428   7.785   6.531   7.235 -0.5671 -0.7991  0.4135
  895MOL0     C23429   7.761   6.398   7.198  0.6718  0.0966  0.2908
  895MOL0     C23430   7.769   6.352   7.063 -0.4710 -0.1518  0.0314
  895MOL0     O23431   7.753   6.214   7.046 -0.4460 -0.0822  0.2521
  895MOL0     C23432   7.772   6.164   6.908  0.1172  0.8256 -0.1536
  895MOL0     C23433   7.927   6.137   6.869 -0.8375 -0.0004 -0.5526
  895MOL0     C23434   7.931   6.063   6.734 -0.8658  0.7905  0.2990
  895MOL0     C23435   7.900   5.914   6.750  1.2889  0.0408  0.2317
  895MOL0     C23436   7.930   5.843   6.627  0.0342  0.7292 -0.0265
  895MOL0     C23437   7.949   5.788   6.523  0.2266  0.2685 -0.3181
  895MOL0     C23438   7.809   6.449   6.970 -0.3665 -0.0299  0.4992
  895MOL0     C23439   7.835   6.588   7.003  0.7069  0.3188 -1.0431
  895MOL0     C23440   7.865   6.692   6.892  0.2729 -0.1959  0.0990
  895MOL0     H23441   8.071   6.953   7.223 -1.3785 -1.6658  1.2301
  895MOL0     H23442   8.106   7.182   7.334  0.3474 -1.4836 -1.9763
  895MOL0     H23443   8.059   7.414   7.490  0.0180  1.9062 -0.1925
  895MOL0     H23444   7.939   7.300   7.541 -1.3693  0.2739 -0.0793
  895MOL0     H23445   7.845   7.578   7.460  0.8197  0.8123  0.0072
  895MOL0     H23446   7.798   7.490   7.609 -1.3349  1.6540 -1.7097
  895MOL0     H23447   8.044   7.529   7.675  0.5523  0.6367 -1.1475
  895MOL0     H23448   8.031   7.664   7.558 -1.6583  2.5733  0.1738
  895MOL0     H23449   7.823   7.750   7.666 -0.8954 -0.2554  1.0465
  895MOL0     H23450   7.838   7.625   7.786  0.2113  1.7506  1.7953
  895MOL0     H23451   7.917   7.882   7.816  0.0864  0.6472  1.0143
  895MOL0     H23452   8.055   7.831   7.723  0.3527 -0.0335  1.0152
  895MOL0     H23453   8.004   7.689   7.980  1.5226  0.6233  2.0825
  895MOL0     H23454   8.133   7.669   7.870 -2.0843 -0.9819 -0.7274
  895MOL0     H23455   8.087   7.956   7.965 -1.0560  0.3055  1.9203
  895MOL0     H23456   8.236   7.860   7.938  0.4925  0.5045  0.5595
  895MOL0     H23457   8.194   7.913   8.184  1.7150 -0.6425  0.0873
  895MOL0     H23458   8.048   7.822   8.172  0.9390  1.0028  2.5232
  895MOL0     H23459   8.416   7.774   8.064  2.4519 -0.7500  1.6696
  895MOL0     H23460   8.581   7.555   8.055 -1.3278  1.8394  1.0875
  895MOL0     H23461   8.528   7.401   8.132  2.9842 -0.4919  0.9225
  895MOL0     H23462   8.604   7.657   8.271 -5.4283  0.5621 -0.7851
  895MOL0     H23463   8.567   7.514   8.357  0.4582 -0.5119  0.1266
  895MOL0     H23464   8.770   7.395   8.235  2.7845  0.2383 -0.0103
  895MOL0     H23465   8.811   7.559   8.190  0.0549  2.3924  0.7148
  895MOL0     H23466   8.798   7.615   8.444 -1.0250  0.4689 -0.7617
  895MOL0     H23467   8.728   7.449   8.464 -2.4951  0.4115 -1.4540
  895MOL0     H23468   9.184   7.504   8.459  0.5512  0.8325  0.8340
  895MOL0     H23469   9.393   7.435   8.749 -0.9944 -2.3416 -0.0883
  895MOL0     H23470   9.382   7.609   8.703  0.5163 -0.2422 -0.6154
  895MOL0     H23471   9.389   7.476   8.578 -2.6242 -0.4064 -0.4669
  895MOL0     H23472   9.381   7.327   9.071  1.5657 -1.0615  0.9760
  895MOL0     H23473   9.480   7.296   9.295 -1.1619 -2.1727 -0.5552
  895MOL0     H23474   9.354   7.524   9.561  0.3762 -1.9556 -1.8377
  895MOL0     H23475   9.250   7.427   9.668 -0.2679  0.6922 -0.7215
  895MOL0     H23476   9.559   7.408   9.655  0.1031 -5.1302 -0.7737
  895MOL0     H23477   9.462   7.500   9.781  2.6697 -0.3971  0.1813
  895MOL0     H23478   9.461   7.196   9.733  1.1888 -2.1082  2.6112
  895MOL0     H23479   9.363   7.286   9.853 -1.4911  0.5645 -1.7006
  895MOL0     H23480   9.572   7.199   9.956  1.0144  1.9612  1.8249
  895MOL0     H23481   9.601   7.368   9.941  1.3848 -1.7082  2.3864
  895MOL0     H23482   9.691   7.149   9.738  0.8410 -1.1518  0.9846
  895MOL0     H23483   9.741   7.319   9.733 -1.3874 -2.0152 -3.3908
  895MOL0     H23484   9.802   7.127   9.959  1.2722 -2.6883 -1.0550
  895MOL0     H23485   9.855   7.291   9.946 -0.9662 -1.8370  2.3293
  895MOL0     H23486   9.982   7.252   9.760  1.1337 -0.1046 -1.1062
  895MOL0     H23487   9.908   7.085   9.734 -1.6786  1.5851 -0.1234
  895MOL0     H23488  10.013   7.015   9.951  1.4479 -0.7881  0.1740
  895MOL0     H23489  10.083   7.180   9.947 -0.9788  0.3247  0.2876
  895MOL0     H23490   9.119   7.406   9.475 -1.1525  0.4242 -0.8679
  895MOL0     H23491   9.016   7.451   9.265 -0.4618 -0.4226 -0.7266
  895MOL0     H23492   8.915   7.437   8.863 -2.0847 -0.3394 -1.4665
  895MOL0     H23493   8.817   7.448   8.655 -0.5187 -2.4418  0.4852
  895MOL0     H23494   7.733   7.305   7.198 -0.5137  0.3490  1.0140
  895MOL0     H23495   7.710   7.089   7.070  0.9185  1.4153 -0.7747
  895MOL0     H23496   7.774   6.571   7.335 -1.9014  1.1439 -0.4335
  895MOL0     H23497   7.731   6.333   7.280 -1.2778  0.8490  0.2171
  895MOL0     H23498   7.722   6.067   6.913  1.8564 -0.1114  4.9564
  895MOL0     H23499   7.716   6.226   6.837 -1.0115 -0.4111 -0.3798
  895MOL0     H23500   7.972   6.075   6.947 -0.1954  1.2560  0.0954
  895MOL0     H23501   7.976   6.234   6.860  0.7879 -0.6478  0.9046
  895MOL0     H23502   7.867   6.114   6.660 -0.3017 -0.4289 -1.0629
  895MOL0     H23503   8.032   6.066   6.694 -0.6466  0.9691  0.8598
  895MOL0     H23504   7.793   5.909   6.770  0.8187  2.1088 -1.3619
  895MOL0     H23505   7.951   5.868   6.836 -0.1966 -1.0544  0.5669
  895MOL0     H23506   7.949   5.728   6.434  3.6593 -1.5107  0.7499
  895MOL0     H23507   7.812   6.423   6.864 -4.2319 -2.0722  0.7317
  895MOL0     H23508   7.774   6.751   6.875  1.8691  1.9774 -1.3587
  895MOL0     H23509   7.944   6.764   6.915 -0.6727  0.8494  0.1499
  895MOL0     H23510   7.885   6.644   6.796 -0.5328 -0.9806  0.3095
  896MOL0     O23511   3.658  10.758   9.840  0.3248 -0.8931  0.6073
  896MOL0     C23512   3.565  10.843   9.844 -0.5519 -0.0399  0.3691
  896MOL0     O23513   3.570  10.962   9.905 -0.8862  0.0409  0.0228
  896MOL0     C23514   3.691  11.020   9.947 -0.4845 -0.1584  0.2922
  896MOL0     C23515   3.746  11.121   9.872 -0.2189  0.0846 -0.2015
  896MOL0     C23516   3.876  11.167   9.897 -0.4340  0.4919  0.0455
  896MOL0     C23517   3.952  11.103  10.002  0.2785  0.3966  0.6032
  896MOL0     O23518   4.085  11.120  10.026  0.9765 -0.1753 -0.4012
  896MOL0     C23519   4.180  11.193   9.941 -0.3741 -0.3436  0.7633
  896MOL0     C23520   4.200  11.125   9.808  0.3349 -0.3232  0.0225
  896MOL0     C23521   4.345  11.151   9.758 -0.6039 -1.4126 -0.3797
  896MOL0     C23522   4.372  11.065   9.626  0.1681  0.2717  0.4270
  896MOL0     C23523   4.527  11.072   9.606 -0.1618 -0.1771 -0.1973
  896MOL0     C23524   4.575  11.005   9.471  0.4431 -0.7507 -0.3047
  896MOL0     C23525   4.713  11.054   9.425  0.2548  0.7823  0.1980
  896MOL0     C23526   4.835  11.028   9.515 -0.4599 -0.0761  0.2556
  896MOL0     N23527   4.835  10.892   9.565  0.4753  0.2835  0.2876
  896MOL0     C23528   4.844  10.764   9.502  1.0466  0.8698  0.1057
  896MOL0     C23529   4.825  10.675   9.597  0.0078  0.0909  0.5238
  896MOL0     C23530   4.817  10.527   9.568 -0.4170  1.0209 -0.4907
  896MOL0     C23531   4.899  10.451   9.676  0.2366  0.2895  0.9044
  896MOL0     C23532   5.045  10.463   9.658 -1.1515 -0.1576 -0.6546
  896MOL0     C23533   5.105  10.430   9.798  0.0238  0.1608 -0.0655
  896MOL0     O23534   5.221  10.344   9.778  0.2798 -0.0406  0.3811
  896MOL0     C23535   5.337  10.417   9.741 -0.2861  0.1575  0.4611
  896MOL0     C23536   5.416  10.368   9.639  0.4262 -0.0908  0.4512
  896MOL0     C23537   5.533  10.436   9.594 -0.7390  0.6637 -0.4477
  896MOL0     C23538   5.575  10.399   9.461 -0.3585 -0.2347 -0.0012
  896MOL0     C23539   5.579  10.552   9.654 -0.6662 -0.4893  0.2616
  896MOL0     C23540   5.699  10.642   9.619  0.0825  0.1280  0.4955
  896MOL0     O23541   5.806  10.589   9.553  0.2685  0.0021 -0.5490
  896MOL0     C23542   5.934  10.643   9.546 -1.0407  0.5742  0.0540
  896MOL0     C23543   5.988  10.774   9.580  0.2982 -0.2098  0.1790
  896MOL0     C23544   6.123  10.813   9.546  0.1427  0.2996  0.3550
  896MOL0     C23545   6.202  10.724   9.475 -0.8903  0.6467  0.0810
  896MOL0     O23546   6.326  10.768   9.447 -0.5521  0.6652 -0.3233
  896MOL0     C23547   6.429  10.674   9.412 -0.3778  0.4839  0.1048
  896MOL0     C23548   6.554  10.752   9.394 -0.8213 -1.2527  0.2665
  896MOL0     C23549   6.556  10.784   9.244  0.4582  0.5030 -0.8656
  896MOL0     C23550   6.639  10.905   9.216  0.5799  0.3585 -0.4503
  896MOL0     C23551   6.657  10.951   9.070  0.1083 -0.1488 -0.5055
  896MOL0     C23552   6.737  11.081   9.060 -0.0688 -0.5557 -0.5385
  896MOL0     C23553   6.793  11.104   8.917 -0.0116  0.4334  0.0333
  896MOL0     C23554   6.850  11.244   8.900  0.4255  0.5127  0.8474
  896MOL0    Cl23555   7.008  11.278   8.988 -0.2291  0.3135  0.3382
  896MOL0     C23556   6.150  10.600   9.445 -0.4045 -0.5480  0.2694
  896MOL0     C23557   6.017  10.562   9.476 -0.4082  0.8075 -0.1851
  896MOL0     O23558   5.687  10.763   9.639 -0.2515  0.9214  0.0024
  896MOL0     C23559   5.506  10.592   9.772  0.6972 -0.4350  0.6672
  896MOL0     C23560   5.383  10.537   9.800 -1.0145  0.3447  0.1132
  896MOL0     N23561   4.814  10.748   9.712  0.2491  0.1686  0.2253
  896MOL0     N23562   4.827  10.871   9.696  0.0711 -0.1637 -0.8950
  896MOL0     C23563   3.899  10.998  10.076  0.0258  0.6155 -0.0931
  896MOL0     C23564   3.764  10.955  10.051 -0.4988 -0.1690 -0.1842
  896MOL0     C23565   3.425  10.799   9.796 -1.0326  0.4982 -0.5656
  896MOL0     C23566   3.318  10.871   9.845 -0.0249  0.6583  0.8373
  896MOL0     C23567   3.191  10.835   9.804  0.2945  1.4882 -0.5993
  896MOL0     C23568   3.173  10.728   9.717  0.5102 -0.1539  0.8558
  896MOL0     O23569   3.047  10.688   9.676 -0.1912  0.7637 -0.0051
  896MOL0     C23570   2.942  10.778   9.653 -1.0105 -0.5903 -0.9154
  896MOL0     C23571   2.874  10.750   9.521 -0.2772  0.3118 -0.5433
  896MOL0     C23572   2.973  10.763   9.408  0.3723 -0.8897  0.3648
  896MOL0     C23573   2.906  10.733   9.271  0.2099  0.4218 -0.5820
  896MOL0     C23574   2.979  10.779   9.150 -0.0181 -0.6519  0.1487
  896MOL0     C23575   3.040  10.815   9.053 -0.2086 -0.1625 -0.6692
  896MOL0     C23576   3.280  10.671   9.657 -0.6429 -0.4500 -1.5271
  896MOL0     C23577   3.408  10.701   9.691  0.5449  0.0670  0.1916
  896MOL0     C23578   3.524  10.623   9.616  1.4381 -0.0290 -0.0592
  896MOL0     H23579   3.686  11.151   9.786 -0.4599 -0.6716 -0.3123
  896MOL0     H23580   3.915  11.244   9.831  2.6831 -1.2977 -0.3507
  896MOL0     H23581   4.279  11.201   9.987  1.2198  0.9932 -2.5490
  896MOL0     H23582   4.146  11.297   9.930  1.5488  0.1066 -2.1773
  896MOL0     H23583   4.174  11.021   9.824 -0.9117  0.2392  1.9830
  896MOL0     H23584   4.126  11.170   9.741 -1.3722 -1.3288  1.1474
  896MOL0     H23585   4.356  11.254   9.724  4.4032 -2.6249 -3.4818
  896MOL0     H23586   4.429  11.137   9.826 -1.3828  2.4334  1.6266
  896MOL0     H23587   4.333  10.968   9.658 -1.0142  1.0519  1.4336
  896MOL0     H23588   4.324  11.104   9.536  3.8412  3.2795 -0.5086
  896MOL0     H23589   4.574  11.026   9.693 -0.7913  1.4142  1.0585
  896MOL0     H23590   4.551  11.179   9.598 -0.1046 -0.1011  0.9087
  896MOL0     H23591   4.564  10.896   9.476 -1.6828 -0.5553  0.5243
  896MOL0     H23592   4.510  11.055   9.398 -0.1954  1.2293  1.5313
  896MOL0     H23593   4.718  11.162   9.405  2.4973  1.7347  4.5864
  896MOL0     H23594   4.719  10.997   9.332 -3.1352 -0.8740  0.8542
  896MOL0     H23595   4.928  11.055   9.464  0.4358  2.3334  2.9079
  896MOL0     H23596   4.829  11.108   9.589 -0.5149  2.9549 -2.7560
  896MOL0     H23597   4.858  10.752   9.395 -3.3553  1.2848 -0.7138
  896MOL0     H23598   4.863  10.500   9.473 -0.3793 -1.9855  0.2883
  896MOL0     H23599   4.716  10.488   9.577 -0.4830  1.1937 -0.4786
  896MOL0     H23600   4.860  10.501   9.766 -4.1199 -3.5748  1.5371
  896MOL0     H23601   4.867  10.347   9.684 -0.8024  0.6954  2.5264
  896MOL0     H23602   5.070  10.383   9.588  1.7088 -0.8987  1.0211
  896MOL0     H23603   5.078  10.562   9.625  0.9678  0.1201  1.8997
  896MOL0     H23604   5.131  10.515   9.861  3.4308  0.9466 -2.2355
  896MOL0     H23605   5.039  10.359   9.849  1.1753 -2.2137 -1.6673
  896MOL0     H23606   5.392  10.271   9.596  0.5303 -0.8136  1.9447
  896MOL0     H23607   5.651  10.320   9.457  0.7334  0.8455 -1.8483
  896MOL0     H23608   5.623  10.484   9.411  2.3602 -0.6253  1.7220
  896MOL0     H23609   5.490  10.364   9.403 -0.0897  0.5672 -0.9010
  896MOL0     H23610   5.923  10.848   9.627  0.4448 -1.1269  1.9004
  896MOL0     H23611   6.160  10.910   9.578  2.7675 -1.3159  2.5898
  896MOL0     H23612   6.455  10.596   9.484  6.1648  1.1004 -0.9371
  896MOL0     H23613   6.406  10.627   9.316  1.1282  0.8087 -0.4507
  896MOL0     H23614   6.546  10.845   9.451 -0.6155 -1.3491  0.4529
  896MOL0     H23615   6.648  10.713   9.435  0.0051  1.7255  1.4669
  896MOL0     H23616   6.455  10.793   9.200  1.1851 -3.1494 -3.8527
  896MOL0     H23617   6.600  10.698   9.193  0.3163 -1.6108  2.3105
  896MOL0     H23618   6.732  10.886   9.271  1.3112 -2.0734 -2.3150
  896MOL0     H23619   6.594  10.990   9.268 -0.4433 -1.4201  1.7374
  896MOL0     H23620   6.717  10.883   9.009 -0.6278  0.3950 -1.8658
  896MOL0     H23621   6.558  10.954   9.024  0.1200  0.9270 -0.4676
  896MOL0     H23622   6.823  11.084   9.128 -0.2278  1.8778 -0.3563
  896MOL0     H23623   6.675  11.167   9.091  1.1326  1.7776 -4.0447
  896MOL0     H23624   6.709  11.103   8.846 -0.2392  2.3057  0.2168
  896MOL0     H23625   6.870  11.032   8.891  0.7840  0.5961  1.8130
  896MOL0     H23626   6.776  11.319   8.929  0.1664 -0.1090  1.8510
  896MOL0     H23627   6.868  11.268   8.795 -0.5687 -0.9981  0.2955
  896MOL0     H23628   6.208  10.531   9.384 -3.0824 -1.0079 -1.9344
  896MOL0     H23629   5.980  10.464   9.447  1.2371 -0.1469  0.8471
  896MOL0     H23630   5.540  10.671   9.839 -0.9562  1.5038 -0.6539
  896MOL0     H23631   5.324  10.602   9.865  0.4971  1.0463  0.8310
  896MOL0     H23632   3.954  10.947  10.154 -1.3449  2.0119  1.9002
  896MOL0     H23633   3.719  10.872  10.106  0.2292 -1.7249 -1.8536
  896MOL0     H23634   3.325  10.956   9.912 -2.9261 -0.6179  2.9711
  896MOL0     H23635   3.100  10.882   9.838 -0.5734  0.4138 -1.3360
  896MOL0     H23636   2.871  10.758   9.734  1.3023  2.0313  2.0704
  896MOL0     H23637   2.961  10.886   9.656 -0.8092 -0.6238  1.5682
  896MOL0     H23638   2.803  10.832   9.506  1.0159  1.6109  0.1913
  896MOL0     H23639   2.828  10.651   9.515  0.6285 -0.2321  1.0055
  896MOL0     H23640   3.004  10.868   9.408 -3.8669  0.5795  0.8083
  896MOL0     H23641   3.058  10.695   9.420  1.4528  0.2122 -0.7346
  896MOL0     H23642   2.810  10.786   9.269 -0.5521 -0.9172 -0.7574
  896MOL0     H23643   2.900  10.624   9.280  1.6801  0.4055  0.7245
  896MOL0     H23644   3.098  10.842   8.967  2.0380 -0.2917  0.7048
  896MOL0     H23645   3.262  10.581   9.599  0.4532 -0.8432 -1.2969
  896MOL0     H23646   3.491  10.543   9.550  1.3851  1.3034 -1.7271
  896MOL0     H23647   3.584  10.690   9.553 -0.7245  1.5444 -0.5360
  896MOL0     H23648   3.589  10.570   9.687  2.5109  1.2985  0.0027
  897MOL0     O23649   0.050   1.664   1.910  0.0079 -0.2874  0.3768
  897MOL0     C23650   0.116   1.747   1.970  0.6593  0.2155  0.1595
  897MOL0     O23651   0.165   1.854   1.914 -0.3968 -0.2520  0.0309
  897MOL0     C23652   0.123   1.888   1.783  0.2702 -0.1091 -0.3712
  897MOL0     C23653   0.219   1.924   1.687 -0.3886 -0.5636 -0.2674
  897MOL0     C23654   0.201   1.982   1.571 -0.9640 -0.7858  0.4826
  897MOL0     C23655   0.068   2.007   1.536 -0.8709  0.1252 -1.1288
  897MOL0     O23656   0.049   2.086   1.430 -0.1656  0.0503 -0.1435
  897MOL0     C23657  -0.059   2.180   1.437  0.1588 -0.2132  0.2112
  897MOL0     C23658  -0.179   2.128   1.346 -0.5297 -0.4259  0.5021
  897MOL0     C23659  -0.282   2.243   1.337 -0.9143  0.0954  0.9597
  897MOL0     C23660  -0.418   2.202   1.270 -0.5956 -0.6784  0.5889
  897MOL0     C23661  -0.485   2.075   1.317 -1.0594 -0.3018 -0.1555
  897MOL0     C23662  -0.568   2.084   1.439  0.2908  0.3932  0.7403
  897MOL0     C23663  -0.633   1.954   1.500  0.0295  0.3519  0.0701
  897MOL0     C23664  -0.716   1.991   1.627  0.6467 -0.0315 -0.3528
  897MOL0     N23665  -0.782   1.868   1.668 -0.6963  0.2183 -0.2447
  897MOL0     C23666  -0.838   1.765   1.604 -0.6497 -0.2502  0.1378
  897MOL0     C23667  -0.874   1.671   1.695  0.4789  0.0320  0.4503
  897MOL0     C23668  -0.936   1.533   1.671  0.5356  0.1402  0.4095
  897MOL0     C23669  -1.063   1.538   1.584 -0.7992  0.0519 -0.0826
  897MOL0     C23670  -1.175   1.606   1.668 -0.5405 -0.0318  0.2092
  897MOL0     C23671  -1.320   1.570   1.619 -0.1576 -0.4495  1.0309
  897MOL0     O23672  -1.349   1.432   1.633  0.2868 -1.1111 -0.2649
  897MOL0     C23673  -1.480   1.398   1.590 -0.8986 -0.9461  0.5617
  897MOL0     C23674  -1.530   1.286   1.646  0.6356  0.9340 -0.3985
  897MOL0     C23675  -1.651   1.229   1.609  0.7752  0.3592 -0.6889
  897MOL0     C23676  -1.707   1.107   1.671 -0.1968 -0.3480 -0.4737
  897MOL0     C23677  -1.729   1.288   1.506 -0.2365 -0.7203 -0.5446
  897MOL0     C23678  -1.865   1.237   1.452 -0.7824  0.1762  0.4250
  897MOL0     O23679  -1.930   1.124   1.504 -0.4022  0.3065  0.5604
  897MOL0     C23680  -2.053   1.086   1.457  0.2484 -0.8051 -0.5003
  897MOL0     C23681  -2.067   0.953   1.430  0.5556  0.5975  0.1602
  897MOL0     C23682  -2.191   0.908   1.393 -0.0778 -0.2360  0.0429
  897MOL0     C23683  -2.302   0.994   1.388  0.3663  0.5472  0.0256
  897MOL0     O23684  -2.429   0.937   1.360 -0.2933 -0.2663 -0.4792
  897MOL0     C23685  -2.537   1.017   1.424  0.3193 -0.3730  0.3922
  897MOL0     C23686  -2.672   0.939   1.420  0.4259  0.2266 -0.4634
  897MOL0     C23687  -2.711   0.905   1.276 -0.2872  0.3965 -0.1530
  897MOL0     C23688  -2.822   0.803   1.261 -0.4998  0.7121  0.6839
  897MOL0     C23689  -2.956   0.844   1.324  0.3879 -0.0850 -0.0693
  897MOL0     C23690  -3.010   0.968   1.259 -0.0451 -0.8959  0.0023
  897MOL0     C23691  -3.165   0.958   1.258 -0.2810  0.4424  0.7318
  897MOL0     C23692  -3.225   1.091   1.212  0.1461 -0.1145  0.0012
  897MOL0    Cl23693  -3.154   1.130   1.055 -0.4284 -0.1762 -0.0246
  897MOL0     C23694  -2.277   1.133   1.405  0.2687  0.4784  0.0942
  897MOL0     C23695  -2.158   1.179   1.449 -0.1218 -0.1110  0.3395
  897MOL0     O23696  -1.907   1.304   1.360 -0.4858 -0.2522 -0.4149
  897MOL0     C23697  -1.665   1.402   1.437 -0.0989 -0.2978  0.2841
  897MOL0     C23698  -1.545   1.456   1.485  1.1883 -0.3813  0.2138
  897MOL0     N23699  -0.846   1.718   1.821 -0.1376  0.2232 -0.6512
  897MOL0     N23700  -0.790   1.831   1.798  0.2996 -0.3339  0.1940
  897MOL0     C23701  -0.039   1.965   1.613  0.0668 -0.5038 -0.1420
  897MOL0     C23702  -0.012   1.903   1.739  0.6344 -0.1356 -0.1100
  897MOL0     C23703   0.169   1.708   2.105 -0.2398 -0.3271 -0.6390
  897MOL0     C23704   0.247   1.802   2.174 -0.3053 -0.2661  0.6159
  897MOL0     C23705   0.302   1.776   2.297 -0.0629  1.0674  0.6688
  897MOL0     C23706   0.291   1.648   2.356 -0.7179  0.7234 -0.0701
  897MOL0     O23707   0.333   1.647   2.490  0.1456  0.0563 -0.0493
  897MOL0     C23708   0.309   1.531   2.570 -0.0807 -1.1549 -0.1314
  897MOL0     C23709   0.341   1.557   2.722 -0.1033 -0.3172  1.2277
  897MOL0     C23710   0.294   1.437   2.801 -0.9643 -0.1971 -0.3352
  897MOL0     C23711   0.332   1.435   2.941  0.0694  0.0346 -1.0467
  897MOL0     C23712   0.262   1.549   3.012  0.1668  0.1767 -0.2796
  897MOL0     C23713   0.205   1.634   3.074 -0.2714 -0.7143  0.0375
  897MOL0     C23714   0.226   1.550   2.282  0.1406 -0.3906  0.4602
  897MOL0     C23715   0.166   1.576   2.156  0.0396 -0.1498  0.2921
  897MOL0     C23716   0.093   1.461   2.094 -0.4934  0.2311  0.5728
  897MOL0     H23717   0.321   1.916   1.723 -0.2862  1.0602 -0.1345
  897MOL0     H23718   0.285   2.001   1.506 -0.1423 -0.3527  1.6485
  897MOL0     H23719  -0.013   2.274   1.406  2.0178 -0.1042  2.9057
  897MOL0     H23720  -0.090   2.193   1.541 -2.3024 -1.3799 -0.3069
  897MOL0     H23721  -0.143   2.098   1.247 -1.6390  0.5253 -0.2168
  897MOL0     H23722  -0.227   2.042   1.394 -3.3901 -0.1654 -1.5898
  897MOL0     H23723  -0.299   2.295   1.432 -0.0636  0.6631  0.8064
  897MOL0     H23724  -0.240   2.313   1.264 -1.7835  0.2065  0.5522
  897MOL0     H23725  -0.491   2.278   1.297 -1.3007 -1.3826  0.6930
  897MOL0     H23726  -0.410   2.199   1.161 -0.5070 -2.6954  0.6062
  897MOL0     H23727  -0.416   1.991   1.330  0.9630  1.2975 -0.2511
  897MOL0     H23728  -0.552   2.042   1.236  0.1499 -0.8794 -0.9461
  897MOL0     H23729  -0.509   2.129   1.520 -1.5266  0.7850  1.8982
  897MOL0     H23730  -0.655   2.144   1.411 -0.0394 -0.5038 -0.2471
  897MOL0     H23731  -0.550   1.889   1.529 -0.7615 -1.1333 -0.9010
  897MOL0     H23732  -0.681   1.898   1.420  1.8012 -0.7698 -0.2721
  897MOL0     H23733  -0.655   2.025   1.711 -1.3827 -0.3421  1.3259
  897MOL0     H23734  -0.788   2.071   1.606  1.9033  1.1606 -0.3215
  897MOL0     H23735  -0.841   1.760   1.496 -1.1459  4.4256 -0.2770
  897MOL0     H23736  -0.968   1.489   1.765  0.4441  3.0370  1.8493
  897MOL0     H23737  -0.867   1.458   1.633 -2.1871 -1.7915 -1.0857
  897MOL0     H23738  -1.039   1.596   1.494 -0.2257 -1.7277 -1.1281
  897MOL0     H23739  -1.094   1.439   1.551 -2.1657  0.6748 -0.7263
  897MOL0     H23740  -1.178   1.570   1.771  0.5144 -0.3464  0.1410
  897MOL0     H23741  -1.169   1.715   1.680 -1.6283  0.1688 -0.8981
  897MOL0     H23742  -1.390   1.630   1.679 -0.1671 -1.5937  2.2010
  897MOL0     H23743  -1.321   1.596   1.513  2.3217 -1.9035  0.5755
  897MOL0     H23744  -1.469   1.247   1.727 -0.5159 -1.4351 -0.5818
  897MOL0     H23745  -1.713   1.023   1.600 -1.0815  0.6245 -1.5944
  897MOL0     H23746  -1.807   1.116   1.713 -0.8477  0.1248 -2.0442
  897MOL0     H23747  -1.628   1.084   1.743  0.1098 -1.9657 -1.2653
  897MOL0     H23748  -1.985   0.882   1.429 -0.3997 -0.5218 -0.4548
  897MOL0     H23749  -2.217   0.805   1.368  1.0594 -0.6407  0.4786
  897MOL0     H23750  -2.518   1.052   1.526 -2.7234  3.0636 -0.0218
  897MOL0     H23751  -2.551   1.114   1.375  0.9254  1.0085  2.7678
  897MOL0     H23752  -2.665   0.854   1.488  1.6777  1.9259  1.6124
  897MOL0     H23753  -2.742   1.018   1.448 -1.3998 -0.9025 -1.6287
  897MOL0     H23754  -2.627   0.864   1.219  1.7342  3.1987  0.6009
  897MOL0     H23755  -2.743   0.998   1.227 -2.7326 -0.9808 -1.4031
  897MOL0     H23756  -2.782   0.713   1.307 -0.8411  0.2026 -0.0034
  897MOL0     H23757  -2.838   0.786   1.154 -3.1857 -2.7918  1.4768
  897MOL0     H23758  -3.028   0.762   1.324 -1.4444  1.4654  0.0016
  897MOL0     H23759  -2.946   0.869   1.430 -0.5146  0.7817 -0.1699
  897MOL0     H23760  -2.967   0.969   1.159 -0.3125 -0.0946 -0.1125
  897MOL0     H23761  -2.974   1.062   1.300  0.6946 -0.9677 -0.4735
  897MOL0     H23762  -3.202   0.950   1.360 -0.2277  2.2463  0.9278
  897MOL0     H23763  -3.199   0.877   1.192  0.9400 -0.9150  1.7213
  897MOL0     H23764  -3.188   1.177   1.268  1.8282 -0.9101  0.1671
  897MOL0     H23765  -3.334   1.088   1.212 -0.2491  3.9955  3.9561
  897MOL0     H23766  -2.364   1.199   1.404 -2.7445 -2.9894 -3.5038
  897MOL0     H23767  -2.157   1.283   1.482  0.8360 -0.1183  0.3873
  897MOL0     H23768  -1.711   1.460   1.358  1.3265  1.5214  0.7046
  897MOL0     H23769  -1.506   1.529   1.415 -1.9646  1.3835  0.1105
  897MOL0     H23770  -0.142   1.986   1.586  0.5344  3.6541  0.7123
  897MOL0     H23771  -0.091   1.869   1.806  2.5124 -4.8469  0.0873
  897MOL0     H23772   0.281   1.896   2.131  0.2534 -0.7300  0.0213
  897MOL0     H23773   0.371   1.842   2.349  0.9666 -0.4632  1.3260
  897MOL0     H23774   0.205   1.502   2.557 -0.7016  0.3224  1.1436
  897MOL0     H23775   0.376   1.451   2.537  3.1537  1.5218 -0.5555
  897MOL0     H23776   0.293   1.654   2.741  0.3264  1.1231 -3.5763
  897MOL0     H23777   0.449   1.565   2.738  0.3377 -1.0726 -0.9592
  897MOL0     H23778   0.187   1.420   2.791 -0.7617 -0.5765 -2.0311
  897MOL0     H23779   0.340   1.354   2.746 -0.0700  1.0644 -1.5514
  897MOL0     H23780   0.436   1.452   2.968  0.2214 -3.2424  0.9781
  897MOL0     H23781   0.312   1.341   2.992  2.6494 -0.8329 -1.4966
  897MOL0     H23782   0.146   1.692   3.143 -1.4467 -1.1893 -0.5370
  897MOL0     H23783   0.193   1.459   2.331  2.3890 -2.3463 -1.4086
  897MOL0     H23784  -0.008   1.490   2.064 -0.3251  0.4427  0.2054
  897MOL0     H23785   0.147   1.426   2.005  0.5200  1.4569  0.6803
  897MOL0     H23786   0.088   1.379   2.167 -2.4777  0.9111  1.2674
  898MOL0     O23787   7.060  10.865   5.055 -0.3124  0.7160 -0.6014
  898MOL0     C23788   6.968  10.899   5.124  0.7003  0.2637  0.9296
  898MOL0     O23789   6.979  10.990   5.225 -0.2909  0.1246 -0.8686
  898MOL0     C23790   7.106  11.015   5.267 -0.3479 -1.0896  0.1801
  898MOL0     C23791   7.165  11.136   5.216  0.0205  0.1043  0.3571
  898MOL0     C23792   7.297  11.171   5.253 -0.0423  0.7747  1.1269
  898MOL0     C23793   7.374  11.085   5.332 -0.4879  1.1208 -0.5352
  898MOL0     O23794   7.491  11.135   5.376 -0.5989 -0.3681 -0.3310
  898MOL0     C23795   7.594  11.039   5.409  0.4684  0.1487  0.5160
  898MOL0     C23796   7.727  11.110   5.430  0.2937  0.0485  0.0889
  898MOL0     C23797   7.773  11.177   5.309 -0.3855 -0.4080  1.1595
  898MOL0     C23798   7.906  11.258   5.332  1.1307 -0.0227  0.4382
  898MOL0     C23799   7.932  11.339   5.211 -0.5764 -0.2722 -0.0938
  898MOL0     C23800   8.066  11.403   5.211  0.5920 -0.0481 -0.2227
  898MOL0     C23801   8.086  11.510   5.100  1.2734 -0.4804 -0.4585
  898MOL0     C23802   8.209  11.583   5.101 -0.5352  0.0064  0.4197
  898MOL0     N23803   8.320  11.496   5.080  0.0645 -0.3544  0.4884
  898MOL0     C23804   8.372  11.421   5.186  0.2319  0.8413  0.3240
  898MOL0     C23805   8.480  11.362   5.128  0.1712 -0.6570 -0.4953
  898MOL0     C23806   8.577  11.278   5.208 -0.1203  0.2663 -0.9523
  898MOL0     C23807   8.706  11.353   5.243 -0.6220  0.2776 -1.0945
  898MOL0     C23808   8.700  11.430   5.379  0.1144  0.0346 -0.2275
  898MOL0     C23809   8.845  11.462   5.426  0.0680  0.6551 -1.1984
  898MOL0     O23810   8.938  11.346   5.453 -0.1775 -0.1629 -0.2899
  898MOL0     C23811   9.067  11.358   5.407 -0.7263 -0.3170 -0.3711
  898MOL0     C23812   9.126  11.282   5.311 -0.3637  0.1549  0.9349
  898MOL0     C23813   9.256  11.293   5.271  0.2453 -0.3222 -0.1361
  898MOL0     C23814   9.304  11.198   5.173 -0.0823  0.1264  0.4157
  898MOL0     C23815   9.336  11.388   5.334 -0.4453  0.0744 -0.6693
  898MOL0     C23816   9.485  11.407   5.294  0.3702 -0.2122 -0.1982
  898MOL0     O23817   9.527  11.530   5.282  0.2782  0.0091 -0.0088
  898MOL0     C23818   9.662  11.540   5.261  0.3207  0.5471 -0.4241
  898MOL0     C23819   9.727  11.582   5.377  0.1153  0.6654  0.8436
  898MOL0     C23820   9.863  11.623   5.362  0.7627  0.3471  1.3397
  898MOL0     C23821   9.931  11.611   5.242  0.4955 -0.0929 -0.1284
  898MOL0     O23822  10.062  11.637   5.223 -0.3558 -0.6021  0.0180
  898MOL0     C23823  10.146  11.698   5.321  0.0839  0.2154 -0.8386
  898MOL0     C23824  10.287  11.713   5.269  0.4884 -1.5253 -0.4134
  898MOL0     C23825  10.373  11.786   5.365  0.0506 -0.0869  0.5027
  898MOL0     C23826  10.494  11.842   5.306 -0.6075  0.2557  0.4277
  898MOL0     C23827  10.584  11.743   5.235  0.2982  0.3318  1.1264
  898MOL0     C23828  10.634  11.628   5.323  0.0227  0.4873 -0.2425
  898MOL0     C23829  10.731  11.533   5.261 -0.0663  1.2188  0.3789
  898MOL0     C23830  10.777  11.446   5.382 -0.5041 -1.2721  0.3703
  898MOL0    Cl23831  10.859  11.303   5.328 -0.7971 -0.2899  0.3241
  898MOL0     C23832   9.862  11.562   5.127 -0.3030 -0.7466 -0.4475
  898MOL0     C23833   9.730  11.522   5.140  0.2230  0.4666 -0.1694
  898MOL0     O23834   9.560  11.307   5.287 -0.4548  0.3149 -0.7931
  898MOL0     C23835   9.275  11.484   5.412  1.0181  0.0465 -0.3718
  898MOL0     C23836   9.137  11.469   5.451  0.4552 -0.3887  0.1471
  898MOL0     N23837   8.479  11.396   4.993  0.5771  0.5171 -0.1349
  898MOL0     N23838   8.389  11.480   4.966  0.4584  0.1424 -0.2099
  898MOL0     C23839   7.313  10.974   5.394  0.1174  0.1872  0.0972
  898MOL0     C23840   7.174  10.942   5.357 -0.7018  0.4877 -0.1796
  898MOL0     C23841   6.830  10.835   5.099 -0.5421  1.8531 -0.2439
  898MOL0     C23842   6.737  10.832   5.207  0.5922 -0.0177  0.1531
  898MOL0     C23843   6.606  10.794   5.187 -0.7454 -0.8074  0.5358
  898MOL0     C23844   6.566  10.730   5.072  0.3735  0.1275  0.5274
  898MOL0     O23845   6.442  10.681   5.043  0.6692  0.4512 -0.0439
  898MOL0     C23846   6.338  10.683   5.144 -0.0119  0.7201  0.6905
  898MOL0     C23847   6.255  10.812   5.129 -0.4153 -0.3778 -0.4676
  898MOL0     C23848   6.168  10.812   4.997  0.1332 -0.8323  0.0028
  898MOL0     C23849   6.049  10.735   5.028  0.0668 -0.5895 -0.0024
  898MOL0     C23850   5.942  10.763   4.933  0.1329 -0.6047  0.2551
  898MOL0     C23851   5.845  10.778   4.864 -0.3914 -0.3109  0.7119
  898MOL0     C23852   6.652  10.729   4.968  0.2874  0.7443  0.0018
  898MOL0     C23853   6.785  10.776   4.971  0.1823 -0.3338  0.2928
  898MOL0     C23854   6.873  10.791   4.846 -0.1105 -0.1943 -0.0059
  898MOL0     H23855   7.094  11.192   5.157  2.0480  0.7514 -1.5868
  898MOL0     H23856   7.329  11.272   5.230 -1.2801  0.6392 -1.5298
  898MOL0     H23857   7.591  10.964   5.330 -0.0494 -0.4614  1.0960
  898MOL0     H23858   7.568  10.995   5.506 -3.3148 -0.3043 -0.5459
  898MOL0     H23859   7.707  11.191   5.501 -0.6558  0.1811 -0.3156
  898MOL0     H23860   7.800  11.038   5.469 -1.0360 -0.6683  1.3586
  898MOL0     H23861   7.808  11.106   5.233  0.5658  2.5904 -1.4065
  898MOL0     H23862   7.696  11.243   5.268 -0.4944 -0.8294  0.6760
  898MOL0     H23863   7.897  11.322   5.421 -0.3026  2.3520 -1.3122
  898MOL0     H23864   7.989  11.187   5.340  1.2451 -0.3531 -2.5216
  898MOL0     H23865   7.851  11.412   5.209 -1.5818 -1.3667 -0.6599
  898MOL0     H23866   7.926  11.280   5.119 -1.9001  0.4229 -0.4836
  898MOL0     H23867   8.092  11.444   5.309  4.3369 -1.2080 -0.5758
  898MOL0     H23868   8.139  11.321   5.206  1.7682  0.7824  1.7843
  898MOL0     H23869   8.008  11.586   5.107  2.4248  0.6476  0.4894
  898MOL0     H23870   8.057  11.450   5.013  0.7647 -0.7464 -0.1131
  898MOL0     H23871   8.219  11.668   5.033 -1.7332  1.5611  2.1079
  898MOL0     H23872   8.218  11.630   5.199  3.7239  1.7311 -0.5711
  898MOL0     H23873   8.348  11.414   5.291  0.2145  1.7590  0.3899
  898MOL0     H23874   8.607  11.200   5.138 -0.3354 -1.5345  0.8715
  898MOL0     H23875   8.528  11.231   5.294  1.6737 -2.2557 -1.2034
  898MOL0     H23876   8.787  11.283   5.265  1.7335  3.4381  1.0913
  898MOL0     H23877   8.729  11.424   5.163 -0.0545 -0.0247 -1.2038
  898MOL0     H23878   8.634  11.517   5.374  2.2183  1.6736 -1.0915
  898MOL0     H23879   8.663  11.369   5.463  1.6791  0.6579  0.9760
  898MOL0     H23880   8.887  11.530   5.352  0.0423 -0.7831 -2.5889
  898MOL0     H23881   8.849  11.525   5.515 -1.7681 -2.6796  1.5123
  898MOL0     H23882   9.068  11.209   5.255  0.8172 -0.8633  0.9862
  898MOL0     H23883   9.232  11.173   5.095  0.2109  2.0862 -0.5627
  898MOL0     H23884   9.341  11.108   5.223  1.7809 -0.0918 -1.2276
  898MOL0     H23885   9.386  11.225   5.106 -0.3622 -3.9656 -1.9053
  898MOL0     H23886   9.674  11.579   5.472 -0.6637 -3.4653  0.4631
  898MOL0     H23887   9.924  11.655   5.446  1.9665 -1.9357  1.4298
  898MOL0     H23888  10.095  11.789   5.352  0.7076  0.1504  0.4459
  898MOL0     H23889  10.154  11.619   5.396  1.6429 -1.1077 -2.2982
  898MOL0     H23890  10.330  11.620   5.232 -0.7268 -1.7753 -1.2781
  898MOL0     H23891  10.285  11.775   5.178  0.7806 -0.9050 -0.0064
  898MOL0     H23892  10.409  11.721   5.445 -0.1879  1.8133  2.2383
  898MOL0     H23893  10.311  11.863   5.412 -2.4577 -0.8096 -1.3920
  898MOL0     H23894  10.550  11.892   5.385 -0.8586  1.2084  0.0143
  898MOL0     H23895  10.475  11.911   5.224  2.6809  0.2917 -0.4181
  898MOL0     H23896  10.533  11.691   5.153 -0.2946 -1.4573  2.5517
  898MOL0     H23897  10.670  11.793   5.190 -0.7708  0.0257 -1.4121
  898MOL0     H23898  10.549  11.571   5.364 -0.4931  1.2028 -0.2889
  898MOL0     H23899  10.674  11.683   5.409 -1.3955  0.3085  0.5700
  898MOL0     H23900  10.805  11.597   5.212 -2.8058  4.1819 -0.1480
  898MOL0     H23901  10.682  11.466   5.190 -0.5987  0.5924  1.3129
  898MOL0     H23902  10.689  11.412   5.436 -1.6475  4.9674  3.3463
  898MOL0     H23903  10.839  11.505   5.450 -1.4587  0.8224 -0.4860
  898MOL0     H23904   9.915  11.560   5.032 -1.3842 -2.2424 -1.0648
  898MOL0     H23905   9.662  11.494   5.060  0.8273 -1.4646 -0.0593
  898MOL0     H23906   9.330  11.570   5.449 -0.8441  1.3999 -0.6130
  898MOL0     H23907   9.078  11.537   5.512 -1.7630  0.0124 -2.2709
  898MOL0     H23908   7.366  10.917   5.470  0.6056  0.3312 -0.1329
  898MOL0     H23909   7.115  10.866   5.405 -0.3277  0.9714  1.0753
  898MOL0     H23910   6.759  10.878   5.303 -1.1337 -0.0814  0.6099
  898MOL0     H23911   6.536  10.810   5.269 -0.8485  0.7176  0.1852
  898MOL0     H23912   6.270  10.599   5.123  1.8348 -0.2809 -1.8774
  898MOL0     H23913   6.391  10.669   5.239  1.5438  2.7454  0.2012
  898MOL0     H23914   6.336  10.886   5.132 -1.2880  0.5882  0.2866
  898MOL0     H23915   6.191  10.826   5.217 -3.5315 -2.3487 -2.2447
  898MOL0     H23916   6.134  10.911   4.963 -2.1450 -1.8814 -1.0061
  898MOL0     H23917   6.232  10.763   4.924  0.4835  0.5015 -0.6055
  898MOL0     H23918   5.999  10.762   5.122  0.1871  2.6593 -0.7902
  898MOL0     H23919   6.066  10.627   5.018 -1.7586 -0.8042 -1.3836
  898MOL0     H23920   5.763  10.788   4.795 -0.1060 -2.2928  0.0237
  898MOL0     H23921   6.615  10.695   4.872  1.8804  3.2119 -1.5902
  898MOL0     H23922   6.944  10.708   4.840 -2.2372 -2.2330  1.3394
  898MOL0     H23923   6.821  10.785   4.750  0.2773  0.1468 -0.2408
  898MOL0     H23924   6.923  10.888   4.841  2.9881 -1.6376  0.5618
  899MOL0     O23925  10.578   9.624   3.280 -1.4062  1.2386 -0.2538
  899MOL0     C23926  10.603   9.507   3.295  0.2232 -0.1192 -0.0843
  899MOL0     O23927  10.726   9.454   3.329 -0.2416  0.1832  0.1756
  899MOL0     C23928  10.818   9.540   3.396  0.3032  0.1956  0.6908
  899MOL0     C23929  10.910   9.488   3.502  0.9525  0.2466  0.1018
  899MOL0     C23930  11.004   9.562   3.565 -0.2197 -0.3764  0.3619
  899MOL0     C23931  11.025   9.691   3.516  0.5105 -0.0309  0.8587
  899MOL0     O23932  11.132   9.763   3.559 -0.1804 -0.1220 -0.3873
  899MOL0     C23933  11.100   9.885   3.616 -0.3982 -0.1884 -0.4668
  899MOL0     C23934  11.102   9.872   3.764  0.5575  0.7081  0.8959
  899MOL0     C23935  11.083   9.997   3.845  0.0162  0.2851  0.6406
  899MOL0     C23936  10.948  10.066   3.823 -1.1054  0.1363  0.1699
  899MOL0     C23937  10.937  10.213   3.874 -0.8051 -0.0735 -0.4072
  899MOL0     C23938  10.786  10.271   3.844 -0.3802  0.0923  0.2005
  899MOL0     C23939  10.772  10.418   3.894 -0.2946  0.5831  0.2881
  899MOL0     C23940  10.894  10.501   3.853 -0.2230  0.4980  0.0345
  899MOL0     N23941  10.880  10.645   3.877 -0.3870 -0.3280  0.5697
  899MOL0     C23942  10.795  10.733   3.819  0.4021 -0.4229 -0.1036
  899MOL0     C23943  10.825  10.848   3.880 -0.0933  0.1685 -0.0824
  899MOL0     C23944  10.748  10.973   3.871 -0.8716  0.6192  0.9492
  899MOL0     C23945  10.842  11.099   3.895  0.9030  0.1254  0.2309
  899MOL0     C23946  10.942  11.126   3.788  0.7420 -0.5938  0.3778
  899MOL0     C23947  11.006  11.265   3.791  0.2399 -0.5442 -0.4477
  899MOL0     O23948  11.059  11.302   3.919  1.0045  0.1091  0.5054
  899MOL0     C23949  11.163  11.401   3.918  0.2278  0.0631  0.3668
  899MOL0     C23950  11.157  11.509   3.830  0.3382  0.2544 -0.4106
  899MOL0     C23951  11.255  11.608   3.822 -0.4894  0.5495  0.6739
  899MOL0     C23952  11.244  11.715   3.711 -0.1945  0.3378 -0.7623
  899MOL0     C23953  11.369  11.599   3.898 -0.9538  0.1166  0.5016
  899MOL0     C23954  11.492  11.689   3.893 -0.6703  0.2278 -0.3289
  899MOL0     O23955  11.572  11.682   4.003 -0.3700  0.0753 -0.0304
  899MOL0     C23956  11.689  11.759   4.009 -0.8131 -0.2939  0.2420
  899MOL0     C23957  11.819  11.703   4.019  0.1810  0.9911 -0.2724
  899MOL0     C23958  11.930  11.775   4.056 -0.1483  0.9060 -0.1194
  899MOL0     C23959  11.931  11.910   4.069  0.0424  0.6891 -1.0012
  899MOL0     O23960  12.055  11.966   4.091 -0.5432 -0.6977  0.2494
  899MOL0     C23961  12.057  12.101   4.044 -0.7248  0.4243  0.0707
  899MOL0     C23962  12.212  12.133   4.025  0.2479  0.0783 -0.4359
  899MOL0     C23963  12.265  12.269   3.980 -0.1803 -0.0003 -0.0918
  899MOL0     C23964  12.426  12.277   3.984 -0.1420  0.2305 -0.5331
  899MOL0     C23965  12.482  12.351   3.863 -0.0492 -0.4929 -1.0021
  899MOL0     C23966  12.637  12.342   3.853  0.8958 -0.0333 -0.0927
  899MOL0     C23967  12.702  12.451   3.766 -0.3434  0.8544 -0.3368
  899MOL0     C23968  12.803  12.393   3.674  0.2520  0.0472 -0.1247
  899MOL0    Cl23969  12.718  12.300   3.536  0.0253  0.0142 -0.4423
  899MOL0     C23970  11.804  11.967   4.043  0.3027 -0.7855  0.5202
  899MOL0     C23971  11.685  11.902   4.015 -0.1798  0.0991 -0.2602
  899MOL0     O23972  11.506  11.766   3.797  0.4253 -0.0199 -0.5252
  899MOL0     C23973  11.375  11.491   3.993  1.2027 -1.1169 -0.9808
  899MOL0     C23974  11.277  11.395   4.004  1.3721  0.3285  0.3287
  899MOL0     N23975  10.915  10.822   3.978  0.3794  0.4918 -0.1956
  899MOL0     N23976  10.946  10.698   3.976 -0.1972 -0.8304 -0.4166
  899MOL0     C23977  10.944   9.741   3.412 -0.4813  1.4046  0.3930
  899MOL0     C23978  10.845   9.669   3.351  0.4411  0.1598 -0.2720
  899MOL0     C23979  10.490   9.410   3.281  0.1747  0.1370 -0.2869
  899MOL0     C23980  10.525   9.281   3.250  0.1951  0.3110  0.0603
  899MOL0     C23981  10.432   9.184   3.233  0.2469 -0.2386 -0.0011
  899MOL0     C23982  10.300   9.216   3.242  0.0296 -0.1975  0.5237
  899MOL0     O23983  10.215   9.118   3.218 -0.0474  0.1380 -0.1880
  899MOL0     C23984  10.122   9.104   3.324  0.6777 -0.3720 -0.1228
  899MOL0     C23985   9.989   9.148   3.264 -0.2260 -0.2584 -0.7571
  899MOL0     C23986   9.910   9.212   3.380  0.2168  0.8678  0.1405
  899MOL0     C23987   9.776   9.258   3.323  0.7469  0.2364 -0.4525
  899MOL0     C23988   9.717   9.357   3.415 -0.4701 -0.0610  0.5211
  899MOL0     C23989   9.669   9.437   3.499 -0.3689  0.8182 -0.9431
  899MOL0     C23990  10.253   9.347   3.266  0.4565 -1.0223 -0.0235
  899MOL0     C23991  10.352   9.442   3.294  0.1738  0.0777 -0.4397
  899MOL0     C23992  10.306   9.572   3.345  0.2540  0.0684  0.2469
  899MOL0     H23993  10.889   9.387   3.535 -3.2734  0.9336  0.1102
  899MOL0     H23994  11.064   9.516   3.643 -0.3985 -0.7792  0.2627
  899MOL0     H23995  11.003   9.925   3.583 -0.1655  0.9299  0.1679
  899MOL0     H23996  11.183   9.951   3.590 -0.0852  0.0103  0.9296
  899MOL0     H23997  11.025   9.799   3.791 -0.6617  1.3532 -0.6621
  899MOL0     H23998  11.202   9.834   3.786  1.0877  1.6390  0.1447
  899MOL0     H23999  11.111   9.984   3.950  2.7826  1.1455  0.0858
  899MOL0     H24000  11.154  10.075   3.815  2.0540 -1.7138  0.0674
  899MOL0     H24001  10.945  10.069   3.714  1.0934 -0.1435  0.0507
  899MOL0     H24002  10.868  10.002   3.861 -0.1006 -0.6347  1.0690
  899MOL0     H24003  11.021  10.269   3.830  2.0678 -1.1954  3.2151
  899MOL0     H24004  10.949  10.215   3.982 -0.6881 -1.4631 -0.3863
  899MOL0     H24005  10.756  10.272   3.738  1.2889 -0.0448 -0.3035
  899MOL0     H24006  10.716  10.206   3.896 -1.4675  0.0846 -1.2003
  899MOL0     H24007  10.771  10.430   4.003 -0.4169 -0.9877  0.4852
  899MOL0     H24008  10.683  10.465   3.850 -0.2987  0.7509  0.4712
  899MOL0     H24009  10.981  10.468   3.909  1.1986  2.0177 -1.1872
  899MOL0     H24010  10.904  10.478   3.746 -1.9915  2.4244 -0.6250
  899MOL0     H24011  10.723  10.725   3.738 -0.8693 -1.5785  1.0889
  899MOL0     H24012  10.664  10.971   3.941 -3.9738 -1.6715 -2.4646
  899MOL0     H24013  10.698  10.969   3.774 -0.0236 -1.1031  0.5429
  899MOL0     H24014  10.765  11.174   3.918 -0.4787 -1.4745  1.0400
  899MOL0     H24015  10.886  11.092   3.994  0.3018 -3.0567  0.3662
  899MOL0     H24016  11.020  11.050   3.786 -0.2660 -1.6660 -1.5183
  899MOL0     H24017  10.900  11.109   3.688 -0.0346 -0.7057  0.7161
  899MOL0     H24018  11.093  11.270   3.724  1.5352  2.0239  1.2709
  899MOL0     H24019  10.928  11.337   3.765  1.0059  0.2645 -0.5502
  899MOL0     H24020  11.076  11.503   3.758 -0.1076 -1.4378  0.1866
  899MOL0     H24021  11.233  11.813   3.758 -1.2245 -1.4899  3.2362
  899MOL0     H24022  11.163  11.709   3.638 -0.8655  1.4278 -0.1387
  899MOL0     H24023  11.335  11.694   3.654  0.3446  0.1294  0.1573
  899MOL0     H24024  11.828  11.596   4.030 -1.9200  0.8924  0.8956
  899MOL0     H24025  12.022  11.721   4.078 -2.0324 -2.2638  0.6707
  899MOL0     H24026  11.999  12.123   3.954 -3.7543 -0.2173  1.7135
  899MOL0     H24027  12.022  12.168   4.124 -1.1824  2.1041 -1.4495
  899MOL0     H24028  12.268  12.100   4.112  2.9822  0.1441 -2.0414
  899MOL0     H24029  12.238  12.073   3.937 -1.5399  1.1009 -1.7225
  899MOL0     H24030  12.228  12.346   4.049 -1.3884 -0.0179 -0.6965
  899MOL0     H24031  12.233  12.283   3.877  3.3988  1.7607 -1.1280
  899MOL0     H24032  12.453  12.171   3.983 -1.8811 -0.2706  0.7717
  899MOL0     H24033  12.467  12.322   4.074 -2.7415 -0.3022  1.0315
  899MOL0     H24034  12.431  12.328   3.769 -1.8911 -0.5897 -0.0265
  899MOL0     H24035  12.456  12.457   3.874 -1.2025 -0.5544 -2.7860
  899MOL0     H24036  12.653  12.241   3.813 -0.0476 -0.7368  1.1873
  899MOL0     H24037  12.694  12.332   3.946  2.8980 -0.5364 -1.3295
  899MOL0     H24038  12.755  12.527   3.824  0.2765 -0.2143  0.5408
  899MOL0     H24039  12.623  12.493   3.703  0.6784 -3.2332 -4.9890
  899MOL0     H24040  12.874  12.329   3.727  0.7858 -2.0468 -3.1175
  899MOL0     H24041  12.866  12.469   3.626  2.0299 -1.5080 -0.3327
  899MOL0     H24042  11.798  12.074   4.028 -2.7101 -1.1518 -1.8616
  899MOL0     H24043  11.592  11.958   4.015 -1.6189 -2.1521 -1.1900
  899MOL0     H24044  11.469  11.489   4.049  0.0370 -1.2357  1.0847
  899MOL0     H24045  11.284  11.305   4.065 -1.7656 -0.6532 -0.5658
  899MOL0     H24046  10.961   9.841   3.374  6.3252  0.3989 -0.3127
  899MOL0     H24047  10.797   9.716   3.266  1.4366  2.0923  0.1872
  899MOL0     H24048  10.625   9.244   3.232  0.1510 -0.2852  0.9694
  899MOL0     H24049  10.458   9.084   3.198 -2.1468 -0.8114 -0.3505
  899MOL0     H24050  10.108   9.000   3.354  0.4259 -0.4394 -0.4731
  899MOL0     H24051  10.145   9.169   3.409  0.0908  0.1661 -0.3691
  899MOL0     H24052   9.927   9.067   3.227 -1.5207  0.6553 -0.6526
  899MOL0     H24053  10.003   9.215   3.179 -2.6463 -0.1004 -1.0846
  899MOL0     H24054   9.884   9.139   3.456 -1.7315 -0.2298 -1.4699
  899MOL0     H24055   9.966   9.300   3.414  1.7331  0.5245 -1.3093
  899MOL0     H24056   9.716   9.167   3.323  2.5582 -1.0691  1.6843
  899MOL0     H24057   9.789   9.305   3.225  1.3014  2.1624  0.4991
  899MOL0     H24058   9.635   9.478   3.592 -1.0471  1.5963 -1.5242
  899MOL0     H24059  10.146   9.364   3.275  0.8076  1.0671  0.7625
  899MOL0     H24060  10.368   9.610   3.427  1.4098  1.8152 -1.3421
  899MOL0     H24061  10.317   9.651   3.270  2.1519 -0.5581 -0.1745
  899MOL0     H24062  10.202   9.564   3.378 -0.2414 -1.0342 -1.4871
  900MOL0     O24063   7.338   4.460   7.132 -0.7323 -0.1394 -0.1581
  900MOL0     C24064   7.375   4.481   7.251  0.0162 -0.5342  0.7159
  900MOL0     O24065   7.501   4.534   7.285 -0.1779  0.0059 -0.1357
  900MOL0     C24066   7.574   4.604   7.184  0.2214  0.8768  0.1673
  900MOL0     C24067   7.586   4.560   7.053 -0.4048 -0.2476  0.6900
  900MOL0     C24068   7.670   4.635   6.963 -0.5244  0.5983 -0.4242
  900MOL0     C24069   7.737   4.754   7.001  0.4408 -1.2529 -0.7221
  900MOL0     O24070   7.826   4.826   6.920  0.6909 -0.0931  0.4245
  900MOL0     C24071   7.896   4.761   6.812 -0.3775  0.7845  0.0563
  900MOL0     C24072   8.000   4.652   6.856 -0.2133 -1.0083  0.7927
  900MOL0     C24073   8.144   4.708   6.904  0.5453 -0.4930 -0.3678
  900MOL0     C24074   8.255   4.602   6.912  0.3142 -0.2576  0.3549
  900MOL0     C24075   8.389   4.664   6.943 -0.5021 -0.2275 -0.3163
  900MOL0     C24076   8.390   4.720   7.083  0.1869 -0.4455 -0.3735
  900MOL0     C24077   8.532   4.738   7.150 -0.3005  0.3030  0.4422
  900MOL0     C24078   8.589   4.610   7.197  0.7504  0.9356 -0.4128
  900MOL0     N24079   8.718   4.622   7.253 -0.1025 -0.4831  0.1184
  900MOL0     C24080   8.821   4.537   7.242  0.0310 -0.9757 -0.5217
  900MOL0     C24081   8.929   4.599   7.299  0.1500 -0.5158  0.7037
  900MOL0     C24082   9.065   4.553   7.290  0.1862  0.2822 -0.3177
  900MOL0     C24083   9.132   4.585   7.159 -0.3330  0.3554 -0.1791
  900MOL0     C24084   9.164   4.737   7.139 -0.1969 -0.3299  0.7758
  900MOL0     C24085   9.309   4.762   7.176 -0.3681  0.2157 -0.8381
  900MOL0     O24086   9.392   4.694   7.084 -0.5817 -0.0502  0.2585
  900MOL0     C24087   9.520   4.753   7.068 -0.0850  0.4453  0.0710
  900MOL0     C24088   9.596   4.701   6.975 -0.1351 -0.0962 -0.0138
  900MOL0     C24089   9.732   4.728   6.943 -0.5285  0.0113 -0.0875
  900MOL0     C24090   9.798   4.650   6.830  0.1027 -0.2379  0.2169
  900MOL0     C24091   9.798   4.823   7.024  0.0804 -0.4669 -0.3328
  900MOL0     C24092   9.930   4.872   7.000 -0.6416 -1.1590  0.3782
  900MOL0     O24093   9.971   4.953   7.096  0.3659 -0.9488 -1.0283
  900MOL0     C24094  10.111   4.962   7.106  0.2165 -0.5017 -0.5252
  900MOL0     C24095  10.179   5.049   7.026  0.6480  0.0126  0.4416
  900MOL0     C24096  10.312   5.059   7.040  0.9870 -0.4136  0.3196
  900MOL0     C24097  10.375   5.009   7.151  0.0919 -0.5800  0.3537
  900MOL0     O24098  10.509   5.043   7.173  0.3448  1.3311  0.0139
  900MOL0     C24099  10.551   5.179   7.136 -0.5980 -0.5998  0.1240
  900MOL0     C24100  10.694   5.217   7.190  0.5303 -0.4161 -0.6338
  900MOL0     C24101  10.682   5.190   7.344 -0.0646  0.3143  0.3581
  900MOL0     C24102  10.791   5.261   7.428  0.5172  0.0748 -0.3195
  900MOL0     C24103  10.768   5.225   7.579  0.4305  0.3564 -0.2031
  900MOL0     C24104  10.866   5.292   7.674 -0.2799  0.0144  0.3900
  900MOL0     C24105  11.017   5.257   7.641  0.2979  0.0279  0.6752
  900MOL0     C24106  11.121   5.270   7.765  1.1235 -0.1695 -0.4466
  900MOL0    Cl24107  11.079   5.171   7.906 -0.0423 -0.2070 -0.0672
  900MOL0     C24108  10.304   4.932   7.245 -0.0324 -0.5040  0.2673
  900MOL0     C24109  10.172   4.896   7.216  0.1691  0.1391  0.5657
  900MOL0     O24110   9.996   4.851   6.900  0.0908 -0.2359 -0.2488
  900MOL0     C24111   9.722   4.895   7.124  0.2769  0.4644  0.7952
  900MOL0     C24112   9.587   4.841   7.158  0.4771 -0.6233 -0.6433
  900MOL0     N24113   8.886   4.720   7.342 -0.9134 -0.0335  0.3408
  900MOL0     N24114   8.772   4.735   7.305  0.0843 -0.3632  0.1848
  900MOL0     C24115   7.721   4.792   7.128  0.5349  0.2749 -0.4347
  900MOL0     C24116   7.642   4.715   7.224 -1.1728 -0.5373  0.4757
  900MOL0     C24117   7.283   4.445   7.354  0.3793 -0.6961 -0.9636
  900MOL0     C24118   7.274   4.533   7.463 -0.7906 -0.1695  0.2455
  900MOL0     C24119   7.185   4.510   7.567  0.7627 -0.4839  0.9006
  900MOL0     C24120   7.098   4.403   7.554 -0.3897 -0.1359  0.3453
  900MOL0     O24121   6.998   4.396   7.649 -0.0979  0.0339 -0.4126
  900MOL0     C24122   6.903   4.293   7.649  0.0801  0.1409  0.4831
  900MOL0     C24123   6.777   4.341   7.733  0.0187 -0.6273 -0.4108
  900MOL0     C24124   6.691   4.226   7.785  0.4252 -0.0520 -0.1241
  900MOL0     C24125   6.558   4.286   7.845 -0.2781 -0.4582 -0.3932
  900MOL0     C24126   6.471   4.177   7.887  0.1557 -0.2992  0.2054
  900MOL0     C24127   6.405   4.077   7.921  0.8397  0.4092 -0.1690
  900MOL0     C24128   7.112   4.309   7.448 -0.6238 -0.7674 -0.6457
  900MOL0     C24129   7.216   4.322   7.347  0.5746  0.4291  0.3643
  900MOL0     C24130   7.235   4.216   7.243  0.1398 -0.6102  0.6827
  900MOL0     H24131   7.547   4.470   7.006 -0.0494 -0.6210  1.0960
  900MOL0     H24132   7.675   4.606   6.859 -2.7084 -0.4534 -0.2784
  900MOL0     H24133   7.943   4.842   6.756 -3.4196  3.0984  0.5775
  900MOL0     H24134   7.820   4.718   6.746  0.0053  0.2380 -0.0296
  900MOL0     H24135   7.955   4.580   6.925 -4.9061 -0.8658 -1.7433
  900MOL0     H24136   8.019   4.604   6.760 -0.4288  3.4540 -1.7373
  900MOL0     H24137   8.169   4.788   6.833 -1.8888  1.2251  0.5673
  900MOL0     H24138   8.135   4.748   7.005  0.0982 -0.8996 -0.2431
  900MOL0     H24139   8.218   4.533   6.989 -0.7084 -0.5312 -0.3544
  900MOL0     H24140   8.263   4.547   6.818 -4.3988  1.3567 -1.2754
  900MOL0     H24141   8.410   4.742   6.868  2.1567 -0.9709 -0.4546
  900MOL0     H24142   8.472   4.593   6.942  1.0748  1.4900  0.6276
  900MOL0     H24143   8.335   4.814   7.087  2.6394  1.2161 -2.3923
  900MOL0     H24144   8.335   4.641   7.134  0.0712 -0.4750 -0.5404
  900MOL0     H24145   8.521   4.799   7.240  1.6581 -0.5620  1.3100
  900MOL0     H24146   8.603   4.785   7.082  3.4182 -3.3501  1.3879
  900MOL0     H24147   8.522   4.580   7.277  0.2979 -0.8041 -1.3874
  900MOL0     H24148   8.579   4.532   7.120 -4.9662 -1.8170  2.4979
  900MOL0     H24149   8.819   4.443   7.188 -0.0147 -0.3338 -1.6668
  900MOL0     H24150   9.054   4.447   7.317  0.3072  0.6742  1.3799
  900MOL0     H24151   9.116   4.608   7.370 -0.8656  1.7496 -0.6391
  900MOL0     H24152   9.220   4.520   7.154  0.0068  0.9113 -1.7265
  900MOL0     H24153   9.061   4.551   7.083 -1.8965 -0.2658  1.4578
  900MOL0     H24154   9.160   4.765   7.034  1.2790  1.6357  1.1923
  900MOL0     H24155   9.090   4.801   7.189 -0.5241  0.0826 -0.2201
  900MOL0     H24156   9.328   4.869   7.182 -1.0169  0.2891  3.5510
  900MOL0     H24157   9.324   4.735   7.281 -1.6419  1.7898 -0.2149
  900MOL0     H24158   9.538   4.627   6.921  0.8107 -1.7816  1.1697
  900MOL0     H24159   9.900   4.633   6.864 -0.6712  0.1588  3.0011
  900MOL0     H24160   9.801   4.711   6.739  1.1249 -1.7739 -0.8279
  900MOL0     H24161   9.749   4.556   6.800  1.0141 -0.9733  1.0013
  900MOL0     H24162  10.131   5.111   6.951  0.8775 -0.9254 -0.5198
  900MOL0     H24163  10.367   5.117   6.967 -1.2517 -0.8590 -1.8544
  900MOL0     H24164  10.571   5.180   7.029 -0.5810 -0.9702  0.1217
  900MOL0     H24165  10.475   5.255   7.155  0.8134  1.2337 -1.1695
  900MOL0     H24166  10.772   5.151   7.151  1.5794 -0.5005  1.4760
  900MOL0     H24167  10.721   5.321   7.172  0.4807  0.1583  2.1790
  900MOL0     H24168  10.678   5.082   7.359  0.5367 -0.2370 -2.8080
  900MOL0     H24169  10.584   5.218   7.384  0.1274 -1.6026  2.3106
  900MOL0     H24170  10.792   5.369   7.410 -2.5810  0.1206 -0.7044
  900MOL0     H24171  10.891   5.224   7.402 -0.5522 -2.7369 -0.7649
  900MOL0     H24172  10.666   5.251   7.611  0.3505  0.0296 -0.1864
  900MOL0     H24173  10.788   5.117   7.587  0.3113  0.4423  2.0402
  900MOL0     H24174  10.863   5.264   7.780  0.3067  3.2130  1.3599
  900MOL0     H24175  10.845   5.399   7.663 -0.4892 -0.0169  0.4842
  900MOL0     H24176  11.058   5.326   7.567 -0.1178  0.9092  1.2628
  900MOL0     H24177  11.031   5.157   7.599  0.1797  1.1202 -2.1175
  900MOL0     H24178  11.121   5.371   7.805 -0.5743 -0.2322 -0.2173
  900MOL0     H24179  11.221   5.238   7.733  0.1595 -2.9481 -0.9936
  900MOL0     H24180  10.348   4.907   7.341 -2.6067 -2.5874  1.0476
  900MOL0     H24181  10.127   4.836   7.294 -0.7676 -0.5901 -0.5068
  900MOL0     H24182   9.759   4.984   7.175  2.8618  1.0142 -1.7167
  900MOL0     H24183   9.528   4.883   7.239 -0.2295  1.5254 -2.1972
  900MOL0     H24184   7.766   4.886   7.158 -0.2071  0.8783 -1.1503
  900MOL0     H24185   7.644   4.755   7.325  3.4562  0.2291  0.2676
  900MOL0     H24186   7.329   4.626   7.475 -1.6096  0.1363  1.8402
  900MOL0     H24187   7.187   4.575   7.654  2.3447  0.8073 -0.0346
  900MOL0     H24188   6.870   4.275   7.546 -1.6286  1.3334  0.7728
  900MOL0     H24189   6.939   4.202   7.697 -1.1781 -0.8387 -0.3382
  900MOL0     H24190   6.714   4.405   7.671 -1.5986  0.3733  2.1604
  900MOL0     H24191   6.797   4.396   7.825  0.5989 -0.7202 -0.4733
  900MOL0     H24192   6.660   4.154   7.709  0.6261 -2.4235  1.9244
  900MOL0     H24193   6.744   4.177   7.866  3.5739 -1.1241 -2.6103
  900MOL0     H24194   6.506   4.351   7.774  0.4638 -1.3335 -1.7994
  900MOL0     H24195   6.597   4.349   7.925  2.1792 -1.6639 -0.5305
  900MOL0     H24196   6.346   3.992   7.950 -1.5428  2.2698  0.8569
  900MOL0     H24197   7.049   4.220   7.445 -0.6202 -0.8206  0.4851
  900MOL0     H24198   7.225   4.115   7.284 -0.3900 -1.2549 -0.9701
  900MOL0     H24199   7.163   4.239   7.164  2.0730 -0.9111 -1.2701
  900MOL0     H24200   7.331   4.220   7.190 -1.0343  4.8118 -1.7263
  901MOL0     O24201   3.077   6.473   3.781 -0.3695 -0.6416  0.2192
  901MOL0     C24202   3.094   6.353   3.789  0.7553 -0.7952  0.1742
  901MOL0     O24203   3.214   6.289   3.818 -0.4501 -0.4679  0.1003
  901MOL0     C24204   3.330   6.358   3.864  0.4515 -0.4216  0.1555
  901MOL0     C24205   3.351   6.493   3.840  1.5286  0.1352 -0.0021
  901MOL0     C24206   3.469   6.549   3.886  0.9610  0.2603  0.8788
  901MOL0     C24207   3.566   6.477   3.952 -1.2744  0.4760  0.1771
  901MOL0     O24208   3.688   6.542   3.975  0.3265  0.7522  0.3025
  901MOL0     C24209   3.724   6.555   4.113  0.2464  0.0571  0.5861
  901MOL0     C24210   3.870   6.599   4.114 -0.2810  0.4070  0.3305
  901MOL0     C24211   3.944   6.599   4.251  0.0680 -0.4628 -0.3610
  901MOL0     C24212   3.968   6.459   4.304  0.1108 -0.1142 -0.8089
  901MOL0     C24213   4.085   6.390   4.219  0.8345 -0.2366 -0.3854
  901MOL0     C24214   4.144   6.275   4.302 -0.3563 -0.3731 -0.6989
  901MOL0     C24215   4.296   6.257   4.297  0.0877 -0.0058 -0.4938
  901MOL0     C24216   4.354   6.368   4.387 -0.0169 -0.0946 -0.4719
  901MOL0     N24217   4.497   6.348   4.391 -0.7780 -0.0129 -0.1342
  901MOL0     C24218   4.581   6.444   4.337  0.7494 -0.0755 -0.0204
  901MOL0     C24219   4.704   6.400   4.369 -0.1638 -0.3440 -0.1495
  901MOL0     C24220   4.824   6.485   4.359 -0.9516 -0.2383  0.4228
  901MOL0     C24221   4.839   6.534   4.500  0.6690  0.2937 -0.0418
  901MOL0     C24222   4.970   6.619   4.529 -0.8675 -0.2801 -0.7159
  901MOL0     C24223   4.981   6.732   4.427  0.1211 -0.0219 -0.1016
  901MOL0     O24224   5.068   6.828   4.485 -0.3680 -0.4175 -0.0626
  901MOL0     C24225   5.152   6.880   4.390  1.3140  0.6133  0.0994
  901MOL0     C24226   5.135   7.008   4.359  0.7106 -0.4045 -0.0757
  901MOL0     C24227   5.233   7.082   4.288  0.7014 -0.4020  0.7471
  901MOL0     C24228   5.204   7.233   4.271 -0.1699  0.7155  0.1722
  901MOL0     C24229   5.344   7.017   4.235 -0.0370  0.9285  0.2482
  901MOL0     C24230   5.449   7.076   4.152 -0.5846 -0.1120  0.3334
  901MOL0     O24231   5.563   7.011   4.128  0.4027  0.2469  1.0258
  901MOL0     C24232   5.659   7.058   4.032  0.9529 -0.6526 -0.2624
  901MOL0     C24233   5.785   6.991   4.042 -0.6559 -0.1788 -0.4740
  901MOL0     C24234   5.882   7.022   3.943 -0.0775  0.1802  0.8098
  901MOL0     C24235   5.850   7.105   3.831 -0.5889  0.1739  1.2247
  901MOL0     O24236   5.953   7.128   3.737 -0.7302  0.2373 -0.5406
  901MOL0     C24237   5.923   7.173   3.604  0.1310  1.0305  0.3164
  901MOL0     C24238   6.049   7.219   3.540 -0.9882 -0.7128 -0.1630
  901MOL0     C24239   6.026   7.316   3.422  0.5403  0.1485  0.5430
  901MOL0     C24240   6.147   7.377   3.369  0.0039 -0.2506 -0.0432
  901MOL0     C24241   6.124   7.476   3.250  0.2082 -0.3029  0.0825
  901MOL0     C24242   6.083   7.611   3.310  0.3186 -0.6489  0.8022
  901MOL0     C24243   6.005   7.693   3.209  0.0871 -0.3181  1.0144
  901MOL0     C24244   5.892   7.625   3.127  0.3610 -0.1114  0.5186
  901MOL0    Cl24245   5.775   7.743   3.052  0.5268  0.4703 -0.1689
  901MOL0     C24246   5.726   7.163   3.826 -0.5274 -0.2832 -0.5842
  901MOL0     C24247   5.627   7.144   3.922 -0.2300  0.4120 -0.7903
  901MOL0     O24248   5.427   7.188   4.116 -0.2060 -1.0294 -0.0809
  901MOL0     C24249   5.360   6.875   4.268  0.3598 -0.3741 -0.0440
  901MOL0     C24250   5.267   6.813   4.346 -0.3925 -0.4012  0.1272
  901MOL0     N24251   4.693   6.273   4.422  0.4848  0.3057 -0.1252
  901MOL0     N24252   4.564   6.238   4.442  0.5415 -0.3036  0.1655
  901MOL0     C24253   3.547   6.333   3.975  0.3208  0.6553  0.9804
  901MOL0     C24254   3.422   6.280   3.937  1.1206 -0.8010 -0.4747
  901MOL0     C24255   2.973   6.264   3.767 -0.4746  0.5950  0.1470
  901MOL0     C24256   2.867   6.307   3.686 -0.2143  0.1825  0.8149
  901MOL0     C24257   2.752   6.223   3.676  0.3826 -0.0339 -0.4688
  901MOL0     C24258   2.734   6.104   3.747  0.0454 -0.2081 -0.7086
  901MOL0     O24259   2.615   6.039   3.770  0.2800 -0.1910  0.5594
  901MOL0     C24260   2.490   6.066   3.701  0.7413  0.2536 -0.4232
  901MOL0     C24261   2.409   5.936   3.696  0.2432 -0.8335  0.3079
  901MOL0     C24262   2.298   5.923   3.595 -0.5692 -0.2329 -0.9602
  901MOL0     C24263   2.196   6.030   3.612 -0.8736 -0.7646 -1.3632
  901MOL0     C24264   2.071   5.966   3.562  0.6084 -0.3142 -0.4026
  901MOL0     C24265   1.970   5.924   3.512  0.3427  0.0590 -0.6188
  901MOL0     C24266   2.844   6.058   3.822  0.3813  0.4519  1.9145
  901MOL0     C24267   2.960   6.141   3.839  0.3322  0.0688 -0.2333
  901MOL0     C24268   3.055   6.081   3.934 -1.0121 -0.1888 -1.1436
  901MOL0     H24269   3.286   6.562   3.787 -0.5744 -2.2432 -0.7292
  901MOL0     H24270   3.485   6.656   3.884  1.9517  0.1128  0.3599
  901MOL0     H24271   3.700   6.460   4.163  0.9813 -1.9136 -2.4739
  901MOL0     H24272   3.666   6.625   4.173 -0.6035 -2.8095  3.3580
  901MOL0     H24273   3.932   6.537   4.050  1.8625  1.5019  1.2264
  901MOL0     H24274   3.874   6.703   4.081 -0.7137 -0.0236 -1.1076
  901MOL0     H24275   4.038   6.654   4.235 -0.6280 -0.0145 -3.7937
  901MOL0     H24276   3.879   6.649   4.323 -1.2075 -1.1975 -0.9651
  901MOL0     H24277   4.005   6.478   4.406 -0.1377 -0.4027 -0.6635
  901MOL0     H24278   3.881   6.395   4.320  0.4176  0.0673  2.2335
  901MOL0     H24279   4.155   6.469   4.190 -1.1532  1.3857 -1.0271
  901MOL0     H24280   4.042   6.362   4.123 -0.0794 -1.5919  0.3789
  901MOL0     H24281   4.108   6.265   4.405  1.3579  0.3963  0.0239
  901MOL0     H24282   4.098   6.192   4.249  0.1831 -2.0684  1.3424
  901MOL0     H24283   4.342   6.268   4.199  1.1646 -3.0725 -0.4358
  901MOL0     H24284   4.310   6.154   4.330 -1.6039 -0.8499 -2.2618
  901MOL0     H24285   4.335   6.467   4.346  0.8940  0.0045 -0.6887
  901MOL0     H24286   4.312   6.355   4.487  0.2214 -2.3275 -0.6020
  901MOL0     H24287   4.545   6.539   4.299 -2.2565 -1.3360 -0.6378
  901MOL0     H24288   4.814   6.564   4.285  1.9055  0.7681  0.9494
  901MOL0     H24289   4.908   6.425   4.322 -1.3322  1.0708 -2.8855
  901MOL0     H24290   4.746   6.586   4.525  0.5380 -0.6612  1.5739
  901MOL0     H24291   4.835   6.448   4.567  0.2727  0.5285  0.2358
  901MOL0     H24292   4.966   6.649   4.634  2.2253 -1.7119 -0.0765
  901MOL0     H24293   5.064   6.564   4.528 -0.0188  1.1078 -1.8269
  901MOL0     H24294   5.012   6.698   4.328 -0.4300 -0.4307 -0.1382
  901MOL0     H24295   4.885   6.784   4.421 -0.9817 -1.8493  0.6840
  901MOL0     H24296   5.044   7.060   4.389 -0.2354 -2.1472  0.1849
  901MOL0     H24297   5.135   7.284   4.339 -1.1057 -0.5801  0.2301
  901MOL0     H24298   5.172   7.249   4.168  0.9930  0.0914 -0.3077
  901MOL0     H24299   5.300   7.285   4.283  0.3215  0.4554 -2.1585
  901MOL0     H24300   5.807   6.913   4.115  1.5842 -0.4534 -1.3766
  901MOL0     H24301   5.981   6.976   3.942 -1.0088 -1.9524 -0.4430
  901MOL0     H24302   5.878   7.093   3.544  1.6057  0.6530 -0.3462
  901MOL0     H24303   5.847   7.251   3.608 -1.0706 -0.0944  0.3055
  901MOL0     H24304   6.116   7.268   3.612 -1.5919  0.0630 -0.1139
  901MOL0     H24305   6.113   7.137   3.506 -0.5277 -0.6974  0.6399
  901MOL0     H24306   5.958   7.398   3.448  0.3471  1.0466 -2.4550
  901MOL0     H24307   5.977   7.264   3.340  1.3489  0.1984  0.0125
  901MOL0     H24308   6.212   7.295   3.337  2.5319  0.9776  1.5976
  901MOL0     H24309   6.205   7.428   3.446 -2.1920  3.2403 -0.4780
  901MOL0     H24310   6.216   7.483   3.191  0.4644 -1.3524  0.3331
  901MOL0     H24311   6.038   7.437   3.194 -1.8144 -0.1642  2.8591
  901MOL0     H24312   6.175   7.665   3.334  1.3562 -1.3518 -1.3412
  901MOL0     H24313   6.018   7.613   3.398  1.1711 -0.1518  1.4259
  901MOL0     H24314   6.072   7.721   3.128 -2.3325 -2.7465 -2.0882
  901MOL0     H24315   5.977   7.788   3.255  2.8424  1.6577 -1.0874
  901MOL0     H24316   5.821   7.563   3.183 -1.1988  2.2992  1.3582
  901MOL0     H24317   5.948   7.561   3.058  1.6710 -0.0084  1.4499
  901MOL0     H24318   5.707   7.219   3.735 -2.4844 -0.5609 -0.3739
  901MOL0     H24319   5.532   7.187   3.891 -0.1105  1.0711 -0.2722
  901MOL0     H24320   5.434   6.810   4.224  0.1932  0.6450 -1.9163
  901MOL0     H24321   5.305   6.722   4.391  0.7043 -0.7718 -1.4752
  901MOL0     H24322   3.635   6.276   4.002  0.2943  0.5991  0.9475
  901MOL0     H24323   3.396   6.175   3.945  0.2200 -0.4141  3.0478
  901MOL0     H24324   2.864   6.407   3.642 -1.3431 -0.0995  0.2147
  901MOL0     H24325   2.669   6.272   3.626  2.2804  2.1815 -1.6735
  901MOL0     H24326   2.444   6.141   3.767  1.7225 -0.7580  1.5026
  901MOL0     H24327   2.512   6.111   3.604  3.1303 -3.0914 -1.6269
  901MOL0     H24328   2.370   5.924   3.798  0.0636  0.5763  0.4235
  901MOL0     H24329   2.471   5.848   3.678 -0.6906 -1.1786 -1.3501
  901MOL0     H24330   2.331   5.905   3.492  0.7717 -1.5941 -0.3421
  901MOL0     H24331   2.253   5.827   3.619  0.9175 -1.1408 -1.6115
  901MOL0     H24332   2.221   6.116   3.550 -0.9571 -0.7429 -1.3665
  901MOL0     H24333   2.181   6.052   3.718 -1.6860 -1.6882 -1.2720
  901MOL0     H24334   1.892   5.871   3.461  0.7641  1.2783 -2.6034
  901MOL0     H24335   2.823   5.961   3.867  0.6794  0.2869  1.7066
  901MOL0     H24336   3.104   5.989   3.900  1.9061  0.5612  0.6658
  901MOL0     H24337   3.133   6.151   3.966  1.3111 -4.0335  2.6492
  901MOL0     H24338   3.014   6.048   4.030 -1.3471 -2.4656 -2.0172
  902MOL0     O24339   8.272   2.324   7.412 -0.0975 -0.3143  0.1049
  902MOL0     C24340   8.175   2.245   7.395  0.9749  0.5411  0.8644
  902MOL0     O24341   8.137   2.190   7.273  0.5810 -0.3402  0.0995
  902MOL0     C24342   8.188   2.238   7.160 -0.8255 -0.2378  0.6627
  902MOL0     C24343   8.224   2.371   7.132 -0.4082  1.0393  0.8585
  902MOL0     C24344   8.309   2.392   7.023  1.1216  0.5758  0.9748
  902MOL0     C24345   8.339   2.301   6.927 -0.0012  0.0568  0.2868
  902MOL0     O24346   8.413   2.323   6.812 -0.0488 -0.4504  0.2816
  902MOL0     C24347   8.466   2.446   6.762  0.2239 -0.3282 -0.0474
  902MOL0     C24348   8.516   2.422   6.623 -0.0499 -0.4311  0.1567
  902MOL0     C24349   8.591   2.553   6.575  0.0794 -0.4378 -0.1454
  902MOL0     C24350   8.719   2.513   6.492  0.0855  0.2993  0.3674
  902MOL0     C24351   8.775   2.620   6.391  0.4181  0.3766  0.1251
  902MOL0     C24352   8.903   2.684   6.445  0.4035 -0.1465  0.3017
  902MOL0     C24353   8.935   2.792   6.348 -0.3578 -1.1228  0.3467
  902MOL0     C24354   9.061   2.870   6.401  0.8332  0.4876 -0.0858
  902MOL0     N24355   9.084   2.990   6.322  0.2882 -0.4260  0.5454
  902MOL0     C24356   9.105   3.117   6.380  0.0420 -0.4986 -0.0985
  902MOL0     C24357   9.127   3.206   6.277  0.5571 -0.0514  0.0385
  902MOL0     C24358   9.172   3.354   6.280 -0.3757  0.1809 -0.0018
  902MOL0     C24359   9.308   3.379   6.214  0.4449  0.0197 -0.2665
  902MOL0     C24360   9.418   3.296   6.270 -0.7032 -0.2196  0.0015
  902MOL0     C24361   9.425   3.316   6.420 -0.5517  0.1401 -0.0978
  902MOL0     O24362   9.407   3.449   6.470 -0.7399  0.3625  0.0981
  902MOL0     C24363   9.500   3.544   6.452  0.7882  0.0097  0.4328
  902MOL0     C24364   9.458   3.679   6.437  0.8899  0.1330  0.4429
  902MOL0     C24365   9.548   3.784   6.427  0.6216  0.1060  0.0024
  902MOL0     C24366   9.471   3.916   6.415  0.2175  0.5817 -0.8007
  902MOL0     C24367   9.686   3.758   6.414  0.0378 -0.4665 -0.4621
  902MOL0     C24368   9.788   3.862   6.375 -0.1030  0.3246 -0.0791
  902MOL0     O24369   9.924   3.822   6.374  0.6245  0.0414 -0.6900
  902MOL0     C24370  10.002   3.856   6.264  0.0844  0.8895  0.7204
  902MOL0     C24371  10.144   3.835   6.272 -0.6157  0.2702  0.0021
  902MOL0     C24372  10.237   3.874   6.171  0.1403  0.5520 -1.0094
  902MOL0     C24373  10.186   3.936   6.065 -1.1023 -0.1333  0.2487
  902MOL0     O24374  10.282   3.991   5.981 -0.4995 -0.4159  0.0117
  902MOL0     C24375  10.254   4.068   5.866 -0.5586  0.2540  0.6362
  902MOL0     C24376  10.381   4.060   5.771  0.0765  0.3225 -0.0446
  902MOL0     C24377  10.506   4.094   5.843  0.4524  0.0844 -0.1280
  902MOL0     C24378  10.623   4.089   5.752  0.7220 -0.8346 -0.2207
  902MOL0     C24379  10.750   4.125   5.818  0.3250  0.1680 -0.3286
  902MOL0     C24380  10.865   4.093   5.730 -0.6264 -0.4062  0.3178
  902MOL0     C24381  10.881   4.183   5.606 -0.1543  0.1709 -0.0144
  902MOL0     C24382  10.897   4.098   5.481  0.1720  0.3061 -0.1010
  902MOL0    Cl24383  11.039   3.988   5.496 -0.3131 -0.2274  0.0071
  902MOL0     C24384  10.052   3.953   6.047 -0.0750  0.2654 -1.1234
  902MOL0     C24385   9.961   3.899   6.140  0.3022 -0.1549  0.1666
  902MOL0     O24386   9.754   3.976   6.336  0.4655  0.4595  0.0605
  902MOL0     C24387   9.730   3.627   6.442 -0.3817 -0.6024 -0.1191
  902MOL0     C24388   9.637   3.525   6.458  0.6244 -0.1854 -0.2090
  902MOL0     N24389   9.122   3.130   6.162  0.8775 -0.9061  0.0295
  902MOL0     N24390   9.105   3.004   6.191 -0.4037  0.3288  0.4732
  902MOL0     C24391   8.296   2.174   6.950 -0.7807  0.3827  0.0555
  902MOL0     C24392   8.228   2.139   7.069 -0.2351  0.0526 -0.3564
  902MOL0     C24393   8.085   2.249   7.511  0.6182 -0.1788 -0.5018
  902MOL0     C24394   7.950   2.277   7.488 -0.4233  1.3849 -0.1876
  902MOL0     C24395   7.851   2.272   7.583  0.0769  0.2214 -0.1529
  902MOL0     C24396   7.888   2.248   7.716 -0.9803  1.4348  1.1699
  902MOL0     O24397   7.819   2.259   7.833  0.6762  0.0414 -0.0964
  902MOL0     C24398   7.693   2.331   7.828 -0.3584 -0.6903  0.8990
  902MOL0     C24399   7.607   2.321   7.956 -0.7641 -0.0264 -0.3283
  902MOL0     C24400   7.648   2.415   8.077 -0.2223 -0.0784  0.2358
  902MOL0     C24401   7.542   2.396   8.181  0.4808  0.2514  0.2614
  902MOL0     C24402   7.563   2.482   8.290  0.1108 -0.4212  0.1019
  902MOL0     C24403   7.599   2.537   8.393  0.9496  0.1269  0.2455
  902MOL0     C24404   8.029   2.216   7.745  0.2596 -0.6577 -0.6315
  902MOL0     C24405   8.121   2.215   7.642  0.0807 -0.0267 -0.2110
  902MOL0     C24406   8.260   2.183   7.669 -0.1894  0.3380  0.7151
  902MOL0     H24407   8.199   2.453   7.199  2.1615  0.0371  3.2274
  902MOL0     H24408   8.338   2.496   7.011  0.3928  1.1979  3.8485
  902MOL0     H24409   8.548   2.487   6.821  0.1655 -0.9437  0.4749
  902MOL0     H24410   8.383   2.517   6.754 -1.8894 -2.6037  0.5778
  902MOL0     H24411   8.588   2.341   6.633 -1.4230 -1.8496 -1.0401
  902MOL0     H24412   8.437   2.400   6.550  3.4040  1.5122 -4.7614
  902MOL0     H24413   8.527   2.610   6.507 -2.0874  0.3139  2.3432
  902MOL0     H24414   8.621   2.620   6.656 -2.4127  1.6204 -0.8043
  902MOL0     H24415   8.797   2.508   6.568 -1.9930 -0.8301  2.5770
  902MOL0     H24416   8.692   2.421   6.440  1.1445  0.8877 -1.2805
  902MOL0     H24417   8.705   2.702   6.379 -0.9250 -0.8602 -0.7864
  902MOL0     H24418   8.787   2.575   6.292 -3.0571 -1.7886  0.5329
  902MOL0     H24419   8.875   2.729   6.541 -2.2694 -0.6732 -0.1710
  902MOL0     H24420   8.992   2.625   6.467  2.5312  2.7244  0.0454
  902MOL0     H24421   8.859   2.863   6.317  0.8615 -0.3001 -0.8401
  902MOL0     H24422   8.961   2.746   6.252 -1.1705 -1.8864  0.4769
  902MOL0     H24423   9.051   2.889   6.508  4.8283  0.0399  0.5305
  902MOL0     H24424   9.143   2.799   6.389  1.3616  0.7161  1.9435
  902MOL0     H24425   9.110   3.141   6.485  1.1220  1.2169 -0.5032
  902MOL0     H24426   9.173   3.385   6.384  1.8922 -0.0452  0.0913
  902MOL0     H24427   9.104   3.417   6.220  0.5395  1.0617 -0.1498
  902MOL0     H24428   9.308   3.357   6.107  1.5606 -0.5242 -0.1679
  902MOL0     H24429   9.320   3.487   6.229 -2.7428  0.5437 -0.8052
  902MOL0     H24430   9.415   3.188   6.254  1.5826 -0.4374  0.7193
  902MOL0     H24431   9.515   3.328   6.230  0.0171 -3.2124 -0.8708
  902MOL0     H24432   9.348   3.255   6.468  1.0348 -2.9186 -1.1767
  902MOL0     H24433   9.523   3.282   6.454  1.3892  2.1195 -3.1993
  902MOL0     H24434   9.354   3.709   6.432  0.3896 -1.6498 -1.7248
  902MOL0     H24435   9.396   3.924   6.494  1.9670  1.1198  0.8741
  902MOL0     H24436   9.419   3.909   6.319 -1.3122  1.6218 -0.0831
  902MOL0     H24437   9.531   4.007   6.418 -2.1275  2.2562  2.7126
  902MOL0     H24438  10.168   3.800   6.372 -1.9182  3.5334  1.6164
  902MOL0     H24439  10.342   3.848   6.181 -0.3633 -2.0948 -1.6747
  902MOL0     H24440  10.179   4.013   5.809  0.4388 -0.1256 -0.3637
  902MOL0     H24441  10.219   4.170   5.884  1.2394  1.2243 -0.9844
  902MOL0     H24442  10.379   3.956   5.739 -2.4205 -0.9756  3.6254
  902MOL0     H24443  10.375   4.135   5.691 -2.4643 -1.5221 -1.7276
  902MOL0     H24444  10.519   4.036   5.935  2.0524  1.2905  0.4653
  902MOL0     H24445  10.506   4.198   5.879  1.6899 -0.5896  1.9880
  902MOL0     H24446  10.612   4.164   5.673 -0.2782  0.0301  0.7191
  902MOL0     H24447  10.623   3.995   5.696 -1.3429  0.7927 -3.2542
  902MOL0     H24448  10.746   4.232   5.843 -0.8797 -0.0649  0.5508
  902MOL0     H24449  10.743   4.073   5.914 -0.0341  1.7983  0.5809
  902MOL0     H24450  10.845   3.995   5.686 -1.0672  0.2704 -1.0723
  902MOL0     H24451  10.953   4.095   5.795 -1.2734 -0.8861  1.2182
  902MOL0     H24452  10.973   4.241   5.618 -0.0328  0.0289 -0.2445
  902MOL0     H24453  10.790   4.241   5.589 -0.0031 -0.1177 -2.0711
  902MOL0     H24454  10.929   4.163   5.399  0.5507 -0.6072 -0.6847
  902MOL0     H24455  10.805   4.050   5.447  0.9689 -1.5213  0.1997
  902MOL0     H24456  10.007   4.011   5.967 -1.4708  1.8196  0.6849
  902MOL0     H24457   9.857   3.922   6.118  0.7089  0.4855 -1.2222
  902MOL0     H24458   9.835   3.602   6.449 -0.7229 -1.8954  0.9917
  902MOL0     H24459   9.680   3.428   6.481  0.2856 -0.4983 -0.8658
  902MOL0     H24460   8.324   2.092   6.885  0.0413  0.3918  0.3818
  902MOL0     H24461   8.215   2.041   7.115 -2.1981  1.0591  1.4115
  902MOL0     H24462   7.901   2.287   7.391  0.9728 -3.3783 -1.6775
  902MOL0     H24463   7.744   2.284   7.566 -0.4685 -2.9491  0.4021
  902MOL0     H24464   7.714   2.437   7.809  3.7064 -1.7840 -2.2049
  902MOL0     H24465   7.636   2.310   7.737  1.3308  1.4487 -0.7898
  902MOL0     H24466   7.627   2.222   7.998  2.4152  1.0245  0.8835
  902MOL0     H24467   7.500   2.340   7.945 -0.8252  0.6403  1.2215
  902MOL0     H24468   7.753   2.400   8.106  0.5885  2.9354 -0.7116
  902MOL0     H24469   7.635   2.519   8.046 -0.3170  0.2769  1.4313
  902MOL0     H24470   7.542   2.290   8.209 -0.8015 -0.2876 -1.5962
  902MOL0     H24471   7.446   2.419   8.134  0.3189 -2.5201 -1.0057
  902MOL0     H24472   7.634   2.582   8.484  1.2901 -0.0728  0.2192
  902MOL0     H24473   8.049   2.198   7.850  0.3501 -0.9402 -0.6976
  902MOL0     H24474   8.333   2.263   7.656  0.1976  0.1130  1.4421
  902MOL0     H24475   8.274   2.144   7.770 -1.1257 -2.2191 -0.0510
  902MOL0     H24476   8.290   2.097   7.607  2.3100  2.3045 -1.0190
  903MOL0     O24477   3.506   0.315   0.783 -0.2868  0.1031 -0.5720
  903MOL0     C24478   3.493   0.242   0.877 -0.3680 -0.9089  0.5357
  903MOL0     O24479   3.546   0.258   1.000 -0.2741 -0.0210 -0.7270
  903MOL0     C24480   3.674   0.303   1.018 -0.0160 -0.4072 -0.0518
  903MOL0     C24481   3.774   0.334   0.923  0.9532 -0.1809  0.0393
  903MOL0     C24482   3.897   0.385   0.955  0.4361  0.6675 -0.4130
  903MOL0     C24483   3.925   0.399   1.094 -0.4143  0.5418  0.6893
  903MOL0     O24484   4.045   0.454   1.130 -0.2866  0.0199  0.3263
  903MOL0     C24485   4.052   0.595   1.116 -0.6092  0.0935  0.1169
  903MOL0     C24486   4.197   0.618   1.070 -0.4138 -0.3691  0.6458
  903MOL0     C24487   4.215   0.768   1.035  0.0528 -0.6486 -0.6993
  903MOL0     C24488   4.364   0.799   0.982  0.2230  0.0447  0.5576
  903MOL0     C24489   4.383   0.948   0.951 -0.4705 -0.7814 -0.1169
  903MOL0     C24490   4.527   0.994   0.932 -0.3885  0.8743 -0.1513
  903MOL0     C24491   4.544   1.108   0.831  0.2753  0.3605 -0.1935
  903MOL0     C24492   4.684   1.173   0.854 -0.6818 -0.0135 -0.3154
  903MOL0     N24493   4.800   1.080   0.884 -0.7826  0.1781  0.4383
  903MOL0     C24494   4.853   1.077   1.013 -0.3586  0.0444  0.6775
  903MOL0     C24495   4.944   0.976   1.001 -0.0727  0.9100 -0.1376
  903MOL0     C24496   5.039   0.939   1.113 -0.6901  0.6525 -0.8665
  903MOL0     C24497   5.173   0.997   1.073 -0.7028 -0.9979  0.6227
  903MOL0     C24498   5.277   0.933   1.167  0.0828  0.4459  0.4912
  903MOL0     C24499   5.399   0.894   1.086 -0.7823 -0.1344  1.1346
  903MOL0     O24500   5.449   1.013   1.021  0.4054  0.1123 -0.6181
  903MOL0     C24501   5.563   1.002   0.952 -0.2828  0.7579  0.0650
  903MOL0     C24502   5.625   0.883   0.900  0.8648  0.2911 -0.0418
  903MOL0     C24503   5.752   0.876   0.838  0.2006 -0.4045  0.3773
  903MOL0     C24504   5.789   0.735   0.788 -0.1984 -0.3248 -0.1665
  903MOL0     C24505   5.822   0.997   0.823  0.2117  0.8523 -0.1554
  903MOL0     C24506   5.962   0.996   0.780 -0.2923 -0.2505 -0.6676
  903MOL0     O24507   6.029   1.117   0.808 -0.6811 -0.8203  0.2178
  903MOL0     C24508   6.162   1.121   0.770  1.4000 -0.0957 -0.4943
  903MOL0     C24509   6.205   1.118   0.637  0.4647  0.2168 -0.9526
  903MOL0     C24510   6.343   1.116   0.611  0.6362 -0.4584  0.7356
  903MOL0     C24511   6.440   1.123   0.710  0.4333  0.2064 -0.3855
  903MOL0     O24512   6.574   1.122   0.670 -0.2263 -0.4081  0.1206
  903MOL0     C24513   6.679   1.151   0.773 -0.0459  0.4469 -0.6497
  903MOL0     C24514   6.811   1.127   0.712  1.2205 -0.8355  0.6899
  903MOL0     C24515   6.914   1.205   0.795 -0.6673 -0.1673  0.0277
  903MOL0     C24516   7.058   1.168   0.734  0.1091 -0.1997 -0.1311
  903MOL0     C24517   7.163   1.212   0.833 -0.7630 -0.2678  0.0515
  903MOL0     C24518   7.300   1.184   0.768 -0.0827 -0.6341 -0.3091
  903MOL0     C24519   7.417   1.266   0.826  0.3161  1.0690  0.3111
  903MOL0     C24520   7.465   1.387   0.735 -0.0365  0.6322 -1.0798
  903MOL0    Cl24521   7.547   1.501   0.837  0.2674 -0.3227 -0.0562
  903MOL0     C24522   6.394   1.119   0.842 -0.0355 -0.4078  0.4386
  903MOL0     C24523   6.260   1.108   0.871  0.5845 -0.3862  0.3506
  903MOL0     O24524   6.003   0.905   0.713 -0.6815  0.0060  0.0801
  903MOL0     C24525   5.756   1.118   0.870 -0.2307 -0.1335 -0.1350
  903MOL0     C24526   5.628   1.119   0.919 -0.4518 -0.3018  0.1833
  903MOL0     N24527   4.941   0.920   0.873 -0.0608 -0.7243 -0.2521
  903MOL0     N24528   4.842   0.977   0.807 -0.6081  0.4070  0.1182
  903MOL0     C24529   3.833   0.367   1.194 -0.3702 -0.0058 -0.3976
  903MOL0     C24530   3.711   0.315   1.153 -0.9603 -0.0812  0.3798
  903MOL0     C24531   3.400   0.135   0.860 -0.1380  0.0531 -0.8372
  903MOL0     C24532   3.327   0.104   0.977 -1.0394  0.2267  0.2812
  903MOL0     C24533   3.237   0.003   0.973  0.4619 -0.1948  0.3872
  903MOL0     C24534   3.207  -0.058   0.853  0.1716  0.4851 -0.0410
  903MOL0     O24535   3.106  -0.148   0.857 -0.1286 -0.5936 -0.4948
  903MOL0     C24536   3.062  -0.210   0.736  0.0240  0.4434 -0.0673
  903MOL0     C24537   2.976  -0.324   0.764  0.8593 -0.3066  1.3426
  903MOL0     C24538   2.888  -0.355   0.638  0.0301  0.1173 -0.0560
  903MOL0     C24539   2.837  -0.503   0.642  0.4860  0.1914 -0.5098
  903MOL0     C24540   2.717  -0.521   0.574 -0.0239  0.1990  1.1017
  903MOL0     C24541   2.611  -0.539   0.515 -0.8152  0.3001  0.8711
  903MOL0     C24542   3.267  -0.010   0.736 -0.4572  0.2271 -0.1869
  903MOL0     C24543   3.361   0.086   0.732 -0.3251 -0.5833 -0.3750
  903MOL0     C24544   3.422   0.122   0.602  0.0086 -0.0476 -0.0529
  903MOL0     H24545   3.756   0.343   0.816 -0.3119 -0.4014  0.2225
  903MOL0     H24546   3.984   0.419   0.899 -1.5623  2.2445 -2.8294
  903MOL0     H24547   4.037   0.644   1.212 -0.3788 -1.9678  1.2612
  903MOL0     H24548   3.973   0.634   1.050 -0.4150 -2.2372 -1.6541
  903MOL0     H24549   4.263   0.579   1.148  1.1125 -1.2502 -0.9966
  903MOL0     H24550   4.230   0.561   0.982 -0.4368 -0.7968  0.9116
  903MOL0     H24551   4.148   0.790   0.952 -0.2276 -5.7107 -2.1705
  903MOL0     H24552   4.185   0.826   1.123 -0.0693 -1.6630 -0.0604
  903MOL0     H24553   4.434   0.765   1.058  0.7156 -0.0321  0.0780
  903MOL0     H24554   4.383   0.742   0.891  0.8863  1.4269 -0.2006
  903MOL0     H24555   4.334   1.006   1.029 -2.9782 -2.7753 -0.0834
  903MOL0     H24556   4.323   0.982   0.866 -0.0110  2.8962  0.8683
  903MOL0     H24557   4.566   1.031   1.028 -0.7593 -1.0543  0.7958
  903MOL0     H24558   4.590   0.908   0.906 -0.5761  0.3776  0.9779
  903MOL0     H24559   4.471   1.187   0.852  0.4943  0.9530 -1.5636
  903MOL0     H24560   4.544   1.064   0.731 -0.7012 -2.1596  0.8326
  903MOL0     H24561   4.703   1.225   0.760 -1.1447 -0.3102 -0.5770
  903MOL0     H24562   4.689   1.235   0.944  0.8933  2.5520 -2.0398
  903MOL0     H24563   4.823   1.134   1.101 -0.9723 -2.6253  2.3018
  903MOL0     H24564   5.047   0.830   1.115 -0.2014  0.6797  0.9226
  903MOL0     H24565   5.002   0.965   1.213  4.1363  0.1624  1.3711
  903MOL0     H24566   5.197   0.965   0.971 -1.1226 -0.1962  0.2602
  903MOL0     H24567   5.172   1.106   1.077 -1.2822 -0.8436 -2.0173
  903MOL0     H24568   5.293   1.006   1.247 -1.6581  0.9976  0.3899
  903MOL0     H24569   5.230   0.845   1.211 -1.2592  1.9984  2.3106
  903MOL0     H24570   5.470   0.846   1.155 -0.4692 -1.0040  0.2312
  903MOL0     H24571   5.373   0.819   1.011 -0.3342  0.5332  0.2972
  903MOL0     H24572   5.568   0.795   0.927 -0.1065  1.7752  3.2370
  903MOL0     H24573   5.702   0.669   0.787  0.8690 -1.7974 -1.4632
  903MOL0     H24574   5.869   0.687   0.846 -0.7035  2.0105  2.7081
  903MOL0     H24575   5.818   0.746   0.683  1.4836  3.0338  0.5029
  903MOL0     H24576   6.128   1.121   0.560  0.2884 -1.8142 -0.8984
  903MOL0     H24577   6.363   1.110   0.504 -0.7228 -0.3414  0.4600
  903MOL0     H24578   6.672   1.257   0.797  2.3808  1.2715 -3.1424
  903MOL0     H24579   6.671   1.095   0.867  0.7362 -1.6010 -1.7420
  903MOL0     H24580   6.835   1.020   0.721  0.1301 -1.1441 -0.0045
  903MOL0     H24581   6.805   1.167   0.611 -2.6847  0.0570  1.1348
  903MOL0     H24582   6.903   1.175   0.900 -3.6385  0.9454  0.1313
  903MOL0     H24583   6.894   1.312   0.788 -2.2410 -0.3479  1.0864
  903MOL0     H24584   7.054   1.224   0.640 -3.2370  0.1635  0.1052
  903MOL0     H24585   7.069   1.061   0.714  2.1686  0.0902 -0.7646
  903MOL0     H24586   7.163   1.319   0.853  3.3692  0.8140 -4.0138
  903MOL0     H24587   7.153   1.148   0.922  2.3982 -1.5474 -0.3628
  903MOL0     H24588   7.291   1.202   0.660  2.2092 -1.0909 -0.6170
  903MOL0     H24589   7.321   1.078   0.784 -0.5705 -0.4064  2.2192
  903MOL0     H24590   7.498   1.193   0.829 -0.1270  0.4964 -0.9842
  903MOL0     H24591   7.385   1.289   0.928 -2.7269 -0.3922 -0.2053
  903MOL0     H24592   7.372   1.432   0.701 -1.0063 -1.5045 -1.4300
  903MOL0     H24593   7.519   1.341   0.652 -0.4244 -2.4887  0.2317
  903MOL0     H24594   6.472   1.127   0.917 -0.5570  1.3633  0.8345
  903MOL0     H24595   6.222   1.097   0.973 -1.3431 -2.5577 -0.4943
  903MOL0     H24596   5.804   1.214   0.851 -1.1845  0.7833  1.8219
  903MOL0     H24597   5.577   1.213   0.940 -1.2499 -0.2712 -1.7042
  903MOL0     H24598   3.837   0.385   1.301 -1.7370  2.4439 -0.6962
  903MOL0     H24599   3.635   0.312   1.231 -2.3258 -0.4271 -0.9301
  903MOL0     H24600   3.351   0.141   1.076  2.0029  0.7294 -0.5304
  903MOL0     H24601   3.186  -0.034   1.061 -1.7605 -1.2835 -1.2543
  903MOL0     H24602   3.006  -0.140   0.674 -3.5331 -1.5199  0.6465
  903MOL0     H24603   3.145  -0.241   0.671 -1.5154 -1.2157 -1.3436
  903MOL0     H24604   2.897  -0.298   0.835 -0.4997  1.6662 -0.7186
  903MOL0     H24605   3.043  -0.407   0.787  3.5091  1.1744 -0.4572
  903MOL0     H24606   2.801  -0.289   0.633 -0.9886 -1.0781  1.0855
  903MOL0     H24607   2.953  -0.344   0.551  2.4568  2.2316  1.8706
  903MOL0     H24608   2.828  -0.532   0.747 -0.5382  1.0132 -0.3506
  903MOL0     H24609   2.911  -0.575   0.606  4.4954  3.3432  0.6750
  903MOL0     H24610   2.526  -0.541   0.449  0.4801 -1.8207 -0.8791
  903MOL0     H24611   3.245  -0.049   0.637  0.8424 -1.3565  0.1090
  903MOL0     H24612   3.523   0.080   0.604 -0.1719 -0.8336  4.7686
  903MOL0     H24613   3.359   0.096   0.517 -1.9940  0.6109  1.1422
  903MOL0     H24614   3.422   0.231   0.599 -1.9255  0.0587  1.3098
  904MOL0     O24615   9.434   4.504   2.131 -0.0947  0.0930 -0.8248
  904MOL0     C24616   9.478   4.422   2.047 -1.1187 -0.0904  0.3437
  904MOL0     O24617   9.606   4.399   2.017  0.1884  0.3268  0.3761
  904MOL0     C24618   9.700   4.427   2.106  0.3082  0.5175 -0.3818
  904MOL0     C24619   9.683   4.403   2.243  0.2581 -0.0369  0.3340
  904MOL0     C24620   9.806   4.425   2.319 -0.8302  0.4022 -0.8761
  904MOL0     C24621   9.926   4.471   2.273  0.3728 -0.5927 -0.6217
  904MOL0     O24622  10.010   4.514   2.371 -0.6484 -0.2544 -0.3901
  904MOL0     C24623  10.118   4.602   2.331 -0.3878 -0.0962  0.0109
  904MOL0     C24624  10.195   4.651   2.460  0.5721 -0.6096 -0.1032
  904MOL0     C24625  10.241   4.527   2.539  0.3608  0.4651  0.1443
  904MOL0     C24626  10.356   4.455   2.452  0.0846 -0.1482 -0.3156
  904MOL0     C24627  10.397   4.332   2.517 -0.3908 -0.1136 -0.2857
  904MOL0     C24628  10.500   4.251   2.440 -1.0568  0.1421  0.0756
  904MOL0     C24629  10.637   4.293   2.495 -0.4062  0.6188 -0.1505
  904MOL0     C24630  10.754   4.198   2.448 -0.2491  0.8482 -0.1788
  904MOL0     N24631  10.874   4.239   2.519 -1.1602 -0.7847 -0.5170
  904MOL0     C24632  10.948   4.353   2.494 -0.4751  0.4726 -0.5545
  904MOL0     C24633  11.060   4.340   2.572  0.4611 -0.4061  0.3954
  904MOL0     C24634  11.172   4.431   2.573  0.3968 -0.0369 -0.0230
  904MOL0     C24635  11.255   4.434   2.699  0.0878 -0.5000 -0.4309
  904MOL0     C24636  11.371   4.537   2.690 -0.6900  0.2947 -0.0119
  904MOL0     C24637  11.488   4.499   2.792  0.5486 -0.0552  0.4376
  904MOL0     O24638  11.580   4.598   2.820 -0.5493  0.8738  0.3607
  904MOL0     C24639  11.650   4.593   2.942  0.7156  0.3107 -0.3094
  904MOL0     C24640  11.663   4.479   3.029  0.3382 -0.3708 -0.3423
  904MOL0     C24641  11.735   4.483   3.152 -0.7352 -0.3836  0.7741
  904MOL0     C24642  11.747   4.365   3.235 -0.9663  0.3627 -0.5150
  904MOL0     C24643  11.801   4.607   3.186  0.3360  0.4032  0.1031
  904MOL0     C24644  11.901   4.619   3.297 -1.0449 -0.8180  0.1646
  904MOL0     O24645  11.985   4.731   3.287 -0.1452  0.2086 -0.1508
  904MOL0     C24646  12.085   4.749   3.381 -0.1777 -0.2240 -0.1695
  904MOL0     C24647  12.221   4.727   3.344 -0.4587  0.0410 -0.3329
  904MOL0     C24648  12.322   4.748   3.439 -0.6171  0.2363  0.5023
  904MOL0     C24649  12.282   4.798   3.567 -0.8149 -0.1690  1.2669
  904MOL0     O24650  12.387   4.812   3.653  0.0373  0.3312 -0.3063
  904MOL0     C24651  12.379   4.909   3.755  0.4072 -0.8761  0.2769
  904MOL0     C24652  12.517   4.947   3.822  0.0381 -0.2279  0.0257
  904MOL0     C24653  12.626   4.978   3.723  0.2173 -0.2920 -0.1279
  904MOL0     C24654  12.766   4.981   3.797  0.6967  0.8007  0.0462
  904MOL0     C24655  12.861   5.089   3.731  0.3134 -0.3604  0.1284
  904MOL0     C24656  12.920   5.079   3.588 -0.0595  0.1029 -0.6402
  904MOL0     C24657  13.062   5.009   3.586  0.2065  0.5708 -0.4455
  904MOL0     C24658  13.114   5.009   3.442 -0.4472  0.2781 -0.1255
  904MOL0    Cl24659  13.269   4.902   3.435 -0.7912  0.0980  0.0988
  904MOL0     C24660  12.157   4.829   3.596  0.1050 -0.6420  0.5532
  904MOL0     C24661  12.054   4.799   3.507 -0.1542 -0.2791  0.4513
  904MOL0     O24662  11.912   4.539   3.384  0.3921  0.4507  0.2383
  904MOL0     C24663  11.788   4.712   3.092  0.1039  0.4372  0.4388
  904MOL0     C24664  11.710   4.710   2.980 -0.2850 -0.9659  0.1847
  904MOL0     N24665  11.036   4.239   2.666  0.2506 -0.8485  0.2155
  904MOL0     N24666  10.936   4.173   2.624 -0.4681  0.3905 -0.2880
  904MOL0     C24667   9.930   4.503   2.135  0.0324  0.4203  0.4857
  904MOL0     C24668   9.819   4.469   2.057 -0.1454  0.2087 -0.2249
  904MOL0     C24669   9.391   4.318   1.990  0.2352  0.0996  0.4705
  904MOL0     C24670   9.455   4.197   1.943  0.8086 -0.1977 -0.2349
  904MOL0     C24671   9.383   4.101   1.870  0.7672 -0.6399 -0.3811
  904MOL0     C24672   9.240   4.121   1.849 -0.2551 -0.1464 -0.1968
  904MOL0     O24673   9.163   4.028   1.785 -0.5562 -1.1180 -0.2445
  904MOL0     C24674   9.206   3.893   1.763 -0.2855  0.3939 -0.3978
  904MOL0     C24675   9.091   3.817   1.694 -0.0918  0.9206 -0.2039
  904MOL0     C24676   9.062   3.865   1.546 -0.5913 -0.2036  0.6913
  904MOL0     C24677   8.975   3.766   1.470 -0.3958 -0.4785  1.0884
  904MOL0     C24678   8.847   3.746   1.530  0.2697 -1.1196 -0.5541
  904MOL0     C24679   8.738   3.753   1.578 -0.1995  0.4827  0.3084
  904MOL0     C24680   9.180   4.242   1.898 -0.1052  1.0079 -0.9727
  904MOL0     C24681   9.250   4.343   1.975  0.0530  0.1689 -0.7301
  904MOL0     C24682   9.166   4.464   2.009  0.1237  0.7162 -0.4036
  904MOL0     H24683   9.591   4.362   2.284  0.2163 -0.3594 -0.0792
  904MOL0     H24684   9.808   4.407   2.426 -0.7991 -2.1152 -1.2263
  904MOL0     H24685  10.069   4.690   2.287 -1.2740  1.7011  4.0759
  904MOL0     H24686  10.185   4.571   2.251 -1.1590 -0.8733 -0.3532
  904MOL0     H24687  10.288   4.703   2.437 -0.3953  1.4800  0.5121
  904MOL0     H24688  10.140   4.720   2.524 -0.5374 -0.2724 -1.3990
  904MOL0     H24689  10.271   4.564   2.637 -2.6268  0.3245  1.2295
  904MOL0     H24690  10.157   4.460   2.558  3.5750 -3.7346  0.9126
  904MOL0     H24691  10.318   4.435   2.352 -1.8522 -0.5021  0.4524
  904MOL0     H24692  10.442   4.523   2.449 -1.6000  2.1689  1.0293
  904MOL0     H24693  10.307   4.270   2.528 -0.6338 -0.8300 -4.5857
  904MOL0     H24694  10.428   4.348   2.621 -3.9936 -3.1749  1.5038
  904MOL0     H24695  10.477   4.148   2.469 -0.3058 -0.0106  0.1266
  904MOL0     H24696  10.505   4.264   2.331  2.3632  2.3196  0.3558
  904MOL0     H24697  10.633   4.274   2.602  0.5413 -2.2705 -0.5515
  904MOL0     H24698  10.658   4.400   2.482 -0.2178  0.4868 -1.0293
  904MOL0     H24699  10.736   4.091   2.463 -1.0872  0.8099 -1.3422
  904MOL0     H24700  10.776   4.204   2.341  1.5089  4.3534  0.2489
  904MOL0     H24701  10.916   4.435   2.430 -2.4252 -0.9091 -1.4367
  904MOL0     H24702  11.127   4.529   2.555 -0.1173 -0.1705  0.4964
  904MOL0     H24703  11.238   4.391   2.496  0.3338  0.8624 -0.5644
  904MOL0     H24704  11.198   4.463   2.788 -2.5092 -1.4030 -1.7012
  904MOL0     H24705  11.299   4.334   2.706  0.5636 -0.2722 -0.0982
  904MOL0     H24706  11.410   4.541   2.587  0.9193 -2.3585  0.3950
  904MOL0     H24707  11.336   4.639   2.705 -1.9227 -0.2265  0.8492
  904MOL0     H24708  11.438   4.487   2.888  4.0408 -1.2903  2.2572
  904MOL0     H24709  11.537   4.404   2.771 -1.0098 -1.1363  1.4715
  904MOL0     H24710  11.625   4.386   2.988 -1.8513  0.5161 -0.4533
  904MOL0     H24711  11.683   4.284   3.198 -0.9518 -0.1305  0.5248
  904MOL0     H24712  11.700   4.394   3.329 -0.7454 -1.0679  0.0582
  904MOL0     H24713  11.853   4.342   3.246 -0.8782  0.7743 -0.4809
  904MOL0     H24714  12.245   4.686   3.246 -0.2007 -5.9494  1.8319
  904MOL0     H24715  12.419   4.712   3.406  0.3442  2.9698  0.1078
  904MOL0     H24716  12.333   5.006   3.733  3.1045  1.1048  2.5859
  904MOL0     H24717  12.313   4.865   3.831 -0.2534  0.3004  0.4031
  904MOL0     H24718  12.503   5.036   3.885 -0.2030  1.0313 -1.7467
  904MOL0     H24719  12.537   4.864   3.890 -0.2953 -2.3721 -2.3417
  904MOL0     H24720  12.584   5.070   3.683 -0.5098  1.3347  3.8305
  904MOL0     H24721  12.631   4.899   3.647 -0.5208 -1.5306  1.0547
  904MOL0     H24722  12.819   4.886   3.785 -0.4040  0.0513  1.0221
  904MOL0     H24723  12.760   5.004   3.903 -0.5578  0.4363  0.0591
  904MOL0     H24724  12.803   5.182   3.740  0.4022 -0.1366 -1.4313
  904MOL0     H24725  12.953   5.109   3.788  1.6075  1.0742 -2.3036
  904MOL0     H24726  12.923   5.183   3.555  1.2596  0.2799 -0.0204
  904MOL0     H24727  12.850   5.019   3.529  0.7865 -1.6912  0.0895
  904MOL0     H24728  13.047   4.905   3.616 -2.6475  0.6429 -1.3236
  904MOL0     H24729  13.135   5.057   3.652  1.7430 -1.8686 -0.2432
  904MOL0     H24730  13.150   5.110   3.424 -0.2530  1.1082  3.9502
  904MOL0     H24731  13.042   4.982   3.365  1.2602 -2.4286 -0.9231
  904MOL0     H24732  12.116   4.872   3.687  1.4713 -1.5615  1.6439
  904MOL0     H24733  11.948   4.810   3.527 -0.7944 -0.7010 -2.3270
  904MOL0     H24734  11.839   4.806   3.116  0.4868  0.4797 -0.4907
  904MOL0     H24735  11.702   4.793   2.911  0.8757  1.0252  2.3040
  904MOL0     H24736  10.017   4.548   2.087 -0.5347  2.6970  1.4395
  904MOL0     H24737   9.821   4.494   1.951 -0.5304  1.0546 -0.0365
  904MOL0     H24738   9.556   4.166   1.965  0.7121  1.6081  3.7202
  904MOL0     H24739   9.428   4.006   1.845 -3.2684 -3.6293  2.2684
  904MOL0     H24740   9.292   3.892   1.696 -1.2879 -2.8992 -1.8480
  904MOL0     H24741   9.227   3.836   1.854  2.3735  0.4593 -0.9022
  904MOL0     H24742   9.001   3.824   1.756  0.6473 -1.9851  1.3558
  904MOL0     H24743   9.115   3.711   1.690  0.3979  1.0253 -0.0367
  904MOL0     H24744   9.019   3.966   1.542  1.1576  0.5662 -1.7342
  904MOL0     H24745   9.157   3.879   1.493 -0.5033  2.7289  1.4229
  904MOL0     H24746   9.030   3.671   1.461 -1.3264 -0.8481 -1.4852
  904MOL0     H24747   8.962   3.801   1.367  0.6923 -2.2958  0.2718
  904MOL0     H24748   8.638   3.754   1.616  0.3796 -0.2933  1.8980
  904MOL0     H24749   9.073   4.262   1.902  0.2986  3.3273  1.6160
  904MOL0     H24750   9.199   4.549   1.948 -1.1444  2.8386  1.6818
  904MOL0     H24751   9.061   4.457   1.977  1.0374 -0.8660 -3.3901
  904MOL0     H24752   9.172   4.497   2.113  1.4863 -0.6554 -0.0132
  905MOL0     O24753   9.972   7.067   1.346 -0.3592 -0.2000  0.2525
  905MOL0     C24754  10.085   7.048   1.384  0.7998 -0.0179 -0.5495
  905MOL0     O24755  10.121   6.983   1.498  0.7197  0.1418  0.7671
  905MOL0     C24756  10.021   6.959   1.592  0.2217  0.5117  0.0991
  905MOL0     C24757   9.886   7.009   1.596 -0.2652 -1.0382  0.2302
  905MOL0     C24758   9.794   6.970   1.695  0.3118  0.3876  1.1085
  905MOL0     C24759   9.832   6.871   1.781  0.3102  0.8526  0.4106
  905MOL0     O24760   9.749   6.823   1.882  0.3032 -0.0521  0.2554
  905MOL0     C24761   9.636   6.904   1.912  0.1211 -0.2382  0.3727
  905MOL0     C24762   9.582   6.882   2.054 -0.3486  0.4579  0.8910
  905MOL0     C24763   9.503   6.749   2.051  0.5983  0.7617 -0.0922
  905MOL0     C24764   9.430   6.733   2.183  0.9120  0.6785  0.0958
  905MOL0     C24765   9.379   6.590   2.206 -0.0811  0.2466  0.2914
  905MOL0     C24766   9.345   6.552   2.345  1.1436  0.4452 -0.6705
  905MOL0     C24767   9.472   6.524   2.420 -0.9756  0.0762 -0.8940
  905MOL0     C24768   9.449   6.450   2.554 -0.1683  0.1306  0.0693
  905MOL0     N24769   9.573   6.439   2.633  0.6433 -0.2745 -0.5466
  905MOL0     C24770   9.677   6.534   2.646 -0.1266  0.2771  0.5705
  905MOL0     C24771   9.763   6.479   2.730  0.0306  1.0945 -0.5571
  905MOL0     C24772   9.870   6.560   2.794 -0.7282  0.1433 -1.0913
  905MOL0     C24773   9.993   6.483   2.797 -0.0878  0.5497  0.7659
  905MOL0     C24774  10.119   6.566   2.800 -1.9473 -0.3037  0.3405
  905MOL0     C24775  10.132   6.634   2.932 -0.0757 -0.2960  0.2937
  905MOL0     O24776  10.229   6.735   2.934 -0.3909  0.1050 -0.3865
  905MOL0     C24777  10.278   6.796   3.049  0.2384 -0.7479  0.0681
  905MOL0     C24778  10.264   6.744   3.171  0.5391 -0.2494  0.3349
  905MOL0     C24779  10.335   6.789   3.284 -0.4440  0.2574  0.3375
  905MOL0     C24780  10.321   6.712   3.407  0.1106 -0.8158  0.2238
  905MOL0     C24781  10.430   6.896   3.263  0.1912  1.1872  0.6897
  905MOL0     C24782  10.506   6.959   3.376 -1.1336 -0.0088  0.9331
  905MOL0     O24783  10.558   7.075   3.344 -0.5829  0.1129 -0.1202
  905MOL0     C24784  10.595   7.168   3.441 -0.4452  0.3135  0.3902
  905MOL0     C24785  10.705   7.250   3.417 -0.1267  0.1291  0.2615
  905MOL0     C24786  10.728   7.371   3.479  1.3380 -0.7968  0.0403
  905MOL0     C24787  10.653   7.411   3.594 -0.5100 -0.4866  0.0826
  905MOL0     O24788  10.673   7.536   3.649 -0.1331  0.3983 -0.1125
  905MOL0     C24789  10.715   7.542   3.787 -0.7789 -0.6496 -0.2979
  905MOL0     C24790  10.638   7.658   3.856  0.3510  0.1393 -0.4319
  905MOL0     C24791  10.649   7.786   3.778 -0.0626  0.6324 -0.4622
  905MOL0     C24792  10.608   7.906   3.860  0.7735  0.2713  0.2232
  905MOL0     C24793  10.461   7.930   3.857 -0.1676 -0.0862  0.5932
  905MOL0     C24794  10.414   7.995   3.732 -0.6628  0.7970  0.2506
  905MOL0     C24795  10.266   8.048   3.742  0.3834 -0.7467  0.3219
  905MOL0     C24796  10.243   8.165   3.652  0.7628  1.4058  0.1197
  905MOL0    Cl24797  10.242   8.109   3.475 -0.3778  0.3866  0.1541
  905MOL0     C24798  10.541   7.324   3.623 -0.4659 -0.6005  0.5810
  905MOL0     C24799  10.510   7.209   3.549  0.6368 -0.2407 -0.2367
  905MOL0     O24800  10.504   6.914   3.489 -0.2386  0.6076  0.0044
  905MOL0     C24801  10.439   6.958   3.131  1.2305 -0.0274  0.3792
  905MOL0     C24802  10.358   6.918   3.028 -0.1505  0.8185 -0.0719
  905MOL0     N24803   9.718   6.357   2.779  0.2450 -0.0262 -0.2078
  905MOL0     N24804   9.597   6.339   2.719 -0.6550 -0.2774  0.2609
  905MOL0     C24805   9.962   6.814   1.776  0.5306  0.0795 -0.2452
  905MOL0     C24806  10.053   6.865   1.689  0.6725 -0.0568  0.3751
  905MOL0     C24807  10.200   7.096   1.309  0.0160 -0.1527  0.0909
  905MOL0     C24808  10.320   7.135   1.379  0.2153 -0.6587 -0.4297
  905MOL0     C24809  10.435   7.173   1.307 -1.0407 -0.2575 -0.1829
  905MOL0     C24810  10.439   7.183   1.168  0.0624  0.4293 -0.3912
  905MOL0     O24811  10.558   7.226   1.107  0.2104  0.1780 -0.1250
  905MOL0     C24812  10.570   7.222   0.963  0.7992  0.0598 -1.0880
  905MOL0     C24813  10.510   7.352   0.906 -0.2571  0.0891 -0.5171
  905MOL0     C24814  10.519   7.375   0.755 -0.0326  0.1975  0.2585
  905MOL0     C24815  10.415   7.292   0.683  0.6470  0.1379 -0.0493
  905MOL0     C24816  10.292   7.371   0.693  0.1947  0.5091  0.2965
  905MOL0     C24817  10.173   7.403   0.703 -0.1723 -0.2386 -0.2928
  905MOL0     C24818  10.321   7.143   1.103 -0.3275 -0.0760 -0.7245
  905MOL0     C24819  10.199   7.101   1.167  0.0426  0.1699 -0.0284
  905MOL0     C24820  10.084   7.060   1.069 -0.6850  0.0529  0.0399
  905MOL0     H24821   9.856   7.092   1.533 -0.4571 -2.2173 -1.3116
  905MOL0     H24822   9.698   7.020   1.698 -1.0318 -1.8413 -0.5953
  905MOL0     H24823   9.558   6.894   1.837  0.6300 -0.5361 -0.1288
  905MOL0     H24824   9.679   7.005   1.917 -0.2625 -0.0518 -0.0955
  905MOL0     H24825   9.660   6.876   2.131  0.6408 -1.9267 -0.1755
  905MOL0     H24826   9.509   6.961   2.073 -2.2374 -1.3356  1.5065
  905MOL0     H24827   9.424   6.738   1.977 -1.4466  2.0285  1.7688
  905MOL0     H24828   9.576   6.669   2.039  0.0254  0.2962 -0.5602
  905MOL0     H24829   9.502   6.755   2.262  1.5962  2.1446 -0.8985
  905MOL0     H24830   9.344   6.800   2.194  1.7167  1.7709 -0.1021
  905MOL0     H24831   9.450   6.514   2.171  0.5029  2.1025 -3.0014
  905MOL0     H24832   9.288   6.585   2.146 -1.0817  2.8942  1.4674
  905MOL0     H24833   9.284   6.627   2.396  1.4399 -0.4845  1.1138
  905MOL0     H24834   9.272   6.470   2.351  1.6920  0.0644  2.3282
  905MOL0     H24835   9.518   6.621   2.441  0.3016 -1.0434  1.8782
  905MOL0     H24836   9.543   6.467   2.359  1.2701  0.4608  1.2444
  905MOL0     H24837   9.374   6.506   2.610 -1.5150 -3.9812  2.7545
  905MOL0     H24838   9.411   6.350   2.533  1.1488 -0.1898 -0.9465
  905MOL0     H24839   9.677   6.633   2.603 -1.5611 -0.4950 -1.3561
  905MOL0     H24840   9.850   6.598   2.895  1.1518  0.0010 -0.6207
  905MOL0     H24841   9.877   6.652   2.736 -0.8944  0.1626 -1.0814
  905MOL0     H24842  10.004   6.404   2.872  1.4401  0.1238  0.1412
  905MOL0     H24843  10.003   6.421   2.707 -0.2988  2.9481 -1.0092
  905MOL0     H24844  10.200   6.495   2.781 -0.2323  1.2240  1.6908
  905MOL0     H24845  10.112   6.630   2.711 -3.8241 -0.8420  0.0603
  905MOL0     H24846  10.044   6.697   2.943 -0.6468 -0.8174 -1.0874
  905MOL0     H24847  10.136   6.563   3.015  0.6196  0.5042  0.9714
  905MOL0     H24848  10.200   6.657   3.179 -1.7277  1.3407  0.5110
  905MOL0     H24849  10.248   6.631   3.399 -1.9411  0.9107  0.4581
  905MOL0     H24850  10.302   6.781   3.490  1.6373  1.7338 -1.4095
  905MOL0     H24851  10.415   6.658   3.420  0.7546  0.4200  0.8762
  905MOL0     H24852  10.767   7.227   3.330 -1.4275  2.4670 -1.3742
  905MOL0     H24853  10.803   7.437   3.436  1.3992 -0.2896  0.9067
  905MOL0     H24854  10.713   7.448   3.843 -0.0505 -2.2918 -2.8201
  905MOL0     H24855  10.822   7.558   3.770 -0.9134 -0.2743 -0.8371
  905MOL0     H24856  10.535   7.621   3.868  0.5833 -0.4967 -0.3929
  905MOL0     H24857  10.681   7.658   3.956  0.9380 -3.2312 -0.5533
  905MOL0     H24858  10.597   7.775   3.682  1.2482 -1.1392 -1.0254
  905MOL0     H24859  10.753   7.801   3.749  0.7550  0.0373  1.9070
  905MOL0     H24860  10.661   7.995   3.824 -0.0732  0.3390 -0.8790
  905MOL0     H24861  10.650   7.892   3.960  0.8011 -2.4001 -0.0957
  905MOL0     H24862  10.396   7.843   3.872  0.7205 -1.0779 -1.0171
  905MOL0     H24863  10.429   8.002   3.933 -1.8120  0.5402 -0.6408
  905MOL0     H24864  10.404   7.917   3.656  0.5986  0.0479  0.8213
  905MOL0     H24865  10.487   8.068   3.698 -1.2936  0.8957 -0.9353
  905MOL0     H24866  10.247   8.083   3.844 -0.8172 -1.8831  0.5139
  905MOL0     H24867  10.199   7.965   3.719  0.1554 -1.1177  2.1416
  905MOL0     H24868  10.326   8.235   3.666  1.2349  0.6855  1.0128
  905MOL0     H24869  10.150   8.216   3.679  1.1251  1.0854  2.1944
  905MOL0     H24870  10.474   7.352   3.704  0.4418  1.4625  0.7022
  905MOL0     H24871  10.416   7.164   3.582 -0.6411  1.3810 -1.5065
  905MOL0     H24872  10.502   7.044   3.112  0.6280  0.0368 -1.5376
  905MOL0     H24873  10.364   6.952   2.925  3.2071  0.1922 -0.1931
  905MOL0     H24874   9.989   6.746   1.856 -1.5346  2.0056  2.2606
  905MOL0     H24875  10.153   6.824   1.687  0.3800 -0.8401 -1.9735
  905MOL0     H24876  10.313   7.153   1.486  0.1409  0.3847 -0.6013
  905MOL0     H24877  10.529   7.201   1.353 -1.2492 -0.3595  0.3129
  905MOL0     H24878  10.674   7.209   0.931  1.1967 -2.0796  0.7816
  905MOL0     H24879  10.528   7.126   0.930  1.3917  0.1929 -2.2742
  905MOL0     H24880  10.558   7.439   0.953 -2.2611  1.3463 -0.6667
  905MOL0     H24881  10.405   7.352   0.935 -0.3011  0.3950 -0.6678
  905MOL0     H24882  10.506   7.481   0.734 -1.5253  0.0969  0.5784
  905MOL0     H24883  10.616   7.341   0.716 -0.3560  1.1366 -1.4394
  905MOL0     H24884  10.398   7.195   0.731 -0.7182  0.1574 -0.4770
  905MOL0     H24885  10.446   7.260   0.583 -0.4467 -0.6523 -0.1539
  905MOL0     H24886  10.067   7.412   0.713 -0.1520 -0.1364 -0.1765
  905MOL0     H24887  10.320   7.133   0.995  1.2566  3.0879 -1.1529
  905MOL0     H24888  10.065   6.952   1.069 -1.8492  0.1926 -2.5871
  905MOL0     H24889   9.989   7.102   1.103 -0.7512 -0.0480 -0.0198
  905MOL0     H24890  10.117   7.079   0.966 -1.5503 -0.2089 -0.2917
  906MOL0     O24891   9.101   8.087   7.953  0.0217  0.2087  0.2554
  906MOL0     C24892   9.126   8.208   7.960  0.4272 -0.3557  0.6321
  906MOL0     O24893   9.230   8.260   8.018 -0.1512  0.3185 -0.0485
  906MOL0     C24894   9.318   8.179   8.088 -0.0409 -0.5086  0.0578
  906MOL0     C24895   9.459   8.154   8.052  0.4058  0.6484 -0.5442
  906MOL0     C24896   9.544   8.093   8.145 -0.0201 -0.3120  0.2145
  906MOL0     C24897   9.496   8.028   8.259  1.1489  0.5775 -0.2874
  906MOL0     O24898   9.564   7.947   8.349  1.0628  0.2943  0.0546
  906MOL0     C24899   9.693   7.988   8.395  0.6339  0.3552  0.3824
  906MOL0     C24900   9.724   7.901   8.513  0.1577  0.0944 -0.7863
  906MOL0     C24901   9.631   7.926   8.634  0.2297 -0.5558 -0.0417
  906MOL0     C24902   9.639   7.813   8.737 -0.3495 -0.3179  0.6611
  906MOL0     C24903   9.534   7.837   8.847 -0.0807  0.5382 -0.2704
  906MOL0     C24904   9.566   7.754   8.966 -0.3329  0.6296  0.4329
  906MOL0     C24905   9.495   7.813   9.084  0.8163  0.2757  0.2734
  906MOL0     C24906   9.507   7.728   9.213 -0.2167  0.4772  0.1307
  906MOL0     N24907   9.442   7.788   9.330  0.2928  0.3252  0.1020
  906MOL0     C24908   9.321   7.747   9.397 -0.1238 -0.4398 -0.9275
  906MOL0     C24909   9.313   7.834   9.504 -0.7087 -0.3460  0.5786
  906MOL0     C24910   9.212   7.835   9.610 -0.3609 -0.3882  0.4540
  906MOL0     C24911   9.093   7.919   9.570  0.3508  0.2330 -0.1019
  906MOL0     C24912   8.979   7.906   9.671 -0.4784  0.3277  0.3626
  906MOL0     C24913   8.847   7.958   9.603  0.6488 -0.0805 -0.3197
  906MOL0     O24914   8.834   7.920   9.460  0.4420  0.3331  0.2770
  906MOL0     C24915   8.724   7.974   9.401 -0.0081 -0.0725  0.6536
  906MOL0     C24916   8.625   8.065   9.444  0.0392 -0.4363 -1.0974
  906MOL0     C24917   8.508   8.094   9.369  0.5974 -0.4304 -0.7395
  906MOL0     C24918   8.408   8.193   9.435  0.2221  0.2438  0.5774
  906MOL0     C24919   8.485   8.024   9.250  0.4509 -0.0428  0.3577
  906MOL0     C24920   8.362   8.050   9.159 -0.1905  0.0371 -0.4363
  906MOL0     O24921   8.370   7.989   9.039 -0.3061 -0.5032 -0.2389
  906MOL0     C24922   8.253   7.993   8.968 -0.5309  0.4454 -0.1514
  906MOL0     C24923   8.240   8.055   8.843  0.3012 -0.2479  0.6473
  906MOL0     C24924   8.115   8.062   8.771 -0.4568 -0.7632 -0.4804
  906MOL0     C24925   8.010   7.986   8.806 -0.5106  0.7599  0.7485
  906MOL0     O24926   7.906   7.975   8.717  0.1377  0.0700  0.4278
  906MOL0     C24927   7.783   7.973   8.777  0.1306 -1.1623 -0.8750
  906MOL0     C24928   7.665   7.966   8.684 -0.5627 -0.0276 -0.2541
  906MOL0     C24929   7.544   7.965   8.787 -0.2024  0.2159 -0.0402
  906MOL0     C24930   7.402   7.950   8.718  0.2826 -0.4566  0.3837
  906MOL0     C24931   7.284   8.021   8.778  0.4193  0.5789 -0.2473
  906MOL0     C24932   7.156   7.978   8.703  0.3827 -0.2688 -0.2386
  906MOL0     C24933   7.045   8.080   8.716  0.9579 -0.6448  0.1600
  906MOL0     C24934   6.919   8.024   8.641 -0.7175 -0.1430  0.6374
  906MOL0    Cl24935   6.858   7.865   8.700  0.2243  0.2420  0.0745
  906MOL0     C24936   8.025   7.911   8.926 -0.6581 -0.3326 -0.2691
  906MOL0     C24937   8.143   7.911   9.005  0.0423 -0.7465 -0.5511
  906MOL0     O24938   8.274   8.120   9.198  0.4777  0.3568  0.7354
  906MOL0     C24939   8.586   7.934   9.208  0.5508 -0.4162 -0.0471
  906MOL0     C24940   8.706   7.916   9.276 -0.7381  0.1192 -0.2997
  906MOL0     N24941   9.431   7.912   9.507 -0.2017  0.1597 -0.4528
  906MOL0     N24942   9.496   7.895   9.396 -0.4523 -0.6063  0.1473
  906MOL0     C24943   9.362   8.054   8.290 -0.4518 -0.3211 -0.5963
  906MOL0     C24944   9.274   8.124   8.213  0.1142 -0.9515  0.7793
  906MOL0     C24945   9.020   8.297   7.904 -0.0074 -0.9147 -0.4296
  906MOL0     C24946   8.889   8.253   7.919 -0.4620 -0.5860  0.5151
  906MOL0     C24947   8.782   8.324   7.855 -1.1762 -0.4133  0.5517
  906MOL0     C24948   8.811   8.444   7.788 -1.3319 -0.0310 -1.0661
  906MOL0     O24949   8.729   8.542   7.744  1.1516 -0.0775  0.6432
  906MOL0     C24950   8.593   8.517   7.712  1.1203  1.4892  0.4942
  906MOL0     C24951   8.567   8.528   7.563 -0.5598  0.3079  0.2172
  906MOL0     C24952   8.422   8.485   7.546  0.0761  0.1352 -0.4585
  906MOL0     C24953   8.388   8.330   7.565 -0.4255  0.5140  0.0192
  906MOL0     C24954   8.246   8.293   7.536 -0.3201 -0.0800  0.7552
  906MOL0     C24955   8.136   8.255   7.494 -0.6399  0.7392  0.3401
  906MOL0     C24956   8.944   8.485   7.784 -0.4978 -0.2085  0.8266
  906MOL0     C24957   9.055   8.411   7.833 -0.4957  0.5395 -1.2199
  906MOL0     C24958   9.191   8.476   7.842  0.3219 -0.3079 -0.1460
  906MOL0     H24959   9.484   8.195   7.955 -0.6232  0.4714 -0.9054
  906MOL0     H24960   9.652   8.089   8.129 -0.0932  0.7383 -0.6511
  906MOL0     H24961   9.700   8.095   8.415 -1.1485  0.2141  2.0157
  906MOL0     H24962   9.771   7.969   8.320 -0.1697  0.8325 -0.6056
  906MOL0     H24963   9.722   7.796   8.484  1.8038 -0.5584  1.2348
  906MOL0     H24964   9.826   7.925   8.544 -0.8245  4.6199 -0.3673
  906MOL0     H24965   9.654   8.019   8.687 -1.7405 -1.5118  2.7432
  906MOL0     H24966   9.529   7.944   8.598  1.0321  3.3401 -0.8474
  906MOL0     H24967   9.617   7.717   8.688  0.0309 -0.6765  1.1803
  906MOL0     H24968   9.739   7.804   8.780 -0.8653 -0.1110  1.9417
  906MOL0     H24969   9.433   7.810   8.815 -0.3871  0.0046  1.0681
  906MOL0     H24970   9.540   7.944   8.869 -2.1183  0.6460 -0.0332
  906MOL0     H24971   9.530   7.652   8.949 -0.8356  0.6480  1.2942
  906MOL0     H24972   9.673   7.737   8.983 -0.6920 -1.0705  1.2245
  906MOL0     H24973   9.391   7.834   9.058  0.3652  0.0581  1.8137
  906MOL0     H24974   9.538   7.914   9.088 -1.0543  1.1945 -1.2033
  906MOL0     H24975   9.465   7.628   9.201  0.7602 -0.0645  1.0710
  906MOL0     H24976   9.614   7.719   9.234 -0.0777  1.1176 -0.2747
  906MOL0     H24977   9.256   7.668   9.361 -2.4911  0.1638  1.6255
  906MOL0     H24978   9.255   7.879   9.701 -0.6112  2.9544 -0.9086
  906MOL0     H24979   9.181   7.730   9.616 -0.6311 -0.4459 -1.3194
  906MOL0     H24980   9.119   8.025   9.570 -1.3484  0.7711  3.2391
  906MOL0     H24981   9.068   7.885   9.469 -1.4474 -0.5993  0.5678
  906MOL0     H24982   8.968   7.801   9.699 -2.7002  0.5422  0.5105
  906MOL0     H24983   8.986   7.973   9.757  0.2580 -1.4958  1.7760
  906MOL0     H24984   8.767   7.916   9.664  3.4304  0.6336  4.2419
  906MOL0     H24985   8.845   8.066   9.618 -1.8468 -0.3329  1.6917
  906MOL0     H24986   8.650   8.112   9.538  1.4450  0.4025 -1.8534
  906MOL0     H24987   8.399   8.290   9.384  0.8799  1.4064  2.5465
  906MOL0     H24988   8.446   8.225   9.533 -1.9785 -1.2789  2.0043
  906MOL0     H24989   8.311   8.144   9.448  1.2703 -1.8195  1.0178
  906MOL0     H24990   8.321   8.122   8.816  2.6389 -2.5224  1.5688
  906MOL0     H24991   8.106   8.124   8.683 -0.7101  0.2304  0.2226
  906MOL0     H24992   7.778   7.880   8.835 -0.6833 -0.5160  0.1400
  906MOL0     H24993   7.759   8.060   8.840 -0.9595 -0.9517 -1.5540
  906MOL0     H24994   7.659   8.056   8.622 -2.8461  1.1044  1.4325
  906MOL0     H24995   7.675   7.879   8.618  0.4126 -0.3062  0.2525
  906MOL0     H24996   7.547   8.055   8.849  1.8148  0.6050 -0.6494
  906MOL0     H24997   7.557   7.875   8.849 -0.2737  0.2838  0.0751
  906MOL0     H24998   7.380   7.845   8.695  1.4723 -0.0592 -3.1986
  906MOL0     H24999   7.422   7.998   8.622  2.5477  0.2340  1.1189
  906MOL0     H25000   7.279   7.992   8.884  3.2017  0.6419 -0.0281
  906MOL0     H25001   7.301   8.129   8.773 -0.8168  0.7222 -2.0627
  906MOL0     H25002   7.118   7.883   8.742  1.7682 -0.9346 -0.4486
  906MOL0     H25003   7.181   7.968   8.597 -1.8318  0.1133 -0.8357
  906MOL0     H25004   7.076   8.170   8.662  0.1956 -1.8639 -2.4958
  906MOL0     H25005   7.007   8.095   8.818 -3.5317 -0.7571 -1.2472
  906MOL0     H25006   6.943   8.023   8.534  1.7082  3.5418  0.9722
  906MOL0     H25007   6.835   8.093   8.647 -1.2333 -0.2030 -3.3382
  906MOL0     H25008   7.948   7.845   8.965 -0.7819  0.8694  1.6831
  906MOL0     H25009   8.137   7.859   9.100 -0.6183  2.0284  1.0583
  906MOL0     H25010   8.578   7.886   9.111  0.6426  0.1260 -0.3303
  906MOL0     H25011   8.778   7.843   9.240 -1.1960  0.1706 -1.3524
  906MOL0     H25012   9.324   8.012   8.382  3.9840  1.5605  2.4185
  906MOL0     H25013   9.169   8.140   8.234 -0.1060 -0.8455 -0.3551
  906MOL0     H25014   8.870   8.160   7.971  0.4643  0.3287  2.6120
  906MOL0     H25015   8.678   8.293   7.858 -1.0130 -0.8993  1.6122
  906MOL0     H25016   8.568   8.415   7.744 -2.9027  1.8667 -0.8868
  906MOL0     H25017   8.522   8.585   7.759  1.2047  1.1025  1.1934
  906MOL0     H25018   8.620   8.461   7.494  0.5116  3.0820 -1.8449
  906MOL0     H25019   8.577   8.629   7.524  1.1007 -0.2331 -0.8918
  906MOL0     H25020   8.356   8.536   7.617 -0.1454 -2.1908  1.1049
  906MOL0     H25021   8.389   8.521   7.448  2.0968 -0.0426 -1.2403
  906MOL0     H25022   8.415   8.285   7.661  0.5839 -2.5969 -1.5779
  906MOL0     H25023   8.447   8.279   7.488 -0.2018  0.5807  0.1427
  906MOL0     H25024   8.041   8.228   7.451  1.4634 -2.6390 -2.7445
  906MOL0     H25025   8.961   8.581   7.736 -2.7568 -0.3582 -0.4548
  906MOL0     H25026   9.264   8.417   7.785 -0.4730 -0.9568 -0.5118
  906MOL0     H25027   9.179   8.575   7.795 -1.3267 -0.5507 -0.2909
  906MOL0     H25028   9.225   8.488   7.945 -1.4969 -0.3647  0.4836
  907MOL0     O25029   7.113   8.491   5.116  0.1305  0.4698  0.4368
  907MOL0     C25030   7.103   8.366   5.133 -0.8674 -0.4727  0.6395
  907MOL0     O25031   7.204   8.273   5.116 -0.5966  0.2931 -0.0702
  907MOL0     C25032   7.325   8.321   5.059 -0.1340 -0.5603  0.3245
  907MOL0     C25033   7.444   8.295   5.132 -0.4052  0.2874  0.4001
  907MOL0     C25034   7.569   8.349   5.088  0.8319 -0.1648 -0.2941
  907MOL0     C25035   7.573   8.425   4.970  0.5383  0.8348  0.8614
  907MOL0     O25036   7.689   8.470   4.917  0.4161 -0.0684 -0.6443
  907MOL0     C25037   7.809   8.465   4.995  0.0484 -0.2165  0.2271
  907MOL0     C25038   7.915   8.562   4.948  0.3566 -0.2416 -0.3953
  907MOL0     C25039   8.003   8.484   4.845  0.0985 -0.3144 -0.3718
  907MOL0     C25040   8.120   8.573   4.804  0.4054  0.0207  0.1398
  907MOL0     C25041   8.202   8.517   4.678 -0.4933  0.0717 -0.2274
  907MOL0     C25042   8.253   8.643   4.603 -0.3862  0.1850 -0.3225
  907MOL0     C25043   8.329   8.611   4.469  0.8752 -0.2774  0.1379
  907MOL0     C25044   8.448   8.521   4.476 -0.3342 -0.1767  0.6845
  907MOL0     N25045   8.463   8.471   4.331 -0.1332  0.0651  0.1254
  907MOL0     C25046   8.556   8.529   4.239 -0.5927 -0.4553  0.8434
  907MOL0     C25047   8.541   8.464   4.126  0.2347 -0.1081  0.0596
  907MOL0     C25048   8.606   8.493   3.988  0.4074  0.2380  0.0191
  907MOL0     C25049   8.679   8.368   3.954  0.0240  0.0231  1.0481
  907MOL0     C25050   8.720   8.378   3.807  0.3244 -0.7332  0.5068
  907MOL0     C25051   8.761   8.238   3.774 -1.0255  0.1811 -0.2481
  907MOL0     O25052   8.873   8.206   3.860 -0.2644 -0.8832  0.7776
  907MOL0     C25053   8.921   8.076   3.850 -0.9878 -0.2780 -0.1495
  907MOL0     C25054   8.855   7.963   3.891  0.3879  0.3012  0.5907
  907MOL0     C25055   8.909   7.834   3.882 -0.2152  0.2375 -0.3960
  907MOL0     C25056   8.823   7.719   3.931  0.7259  0.3575  0.2159
  907MOL0     C25057   9.042   7.818   3.852  0.4292  0.0467  0.2708
  907MOL0     C25058   9.119   7.683   3.860  0.5182 -0.2828  0.6253
  907MOL0     O25059   9.257   7.695   3.850  0.5473 -0.0326  0.0550
  907MOL0     C25060   9.333   7.587   3.804  0.0174 -0.0326 -0.1738
  907MOL0     C25061   9.325   7.532   3.677 -0.6849 -0.0003  0.5376
  907MOL0     C25062   9.380   7.401   3.642 -0.2511  1.0651 -1.1570
  907MOL0     C25063   9.468   7.336   3.740  0.4493  0.1694  0.2755
  907MOL0     O25064   9.539   7.223   3.718  0.8315 -0.3880  0.1908
  907MOL0     C25065   9.504   7.131   3.617  0.6865  0.3564 -0.0876
  907MOL0     C25066   9.558   6.986   3.617  1.1706 -1.3276 -0.3858
  907MOL0     C25067   9.707   6.997   3.597 -0.2285  0.0058  1.0943
  907MOL0     C25068   9.770   6.861   3.593  0.0831  0.0498 -0.2645
  907MOL0     C25069   9.907   6.869   3.515  0.1695  0.5322 -0.9126
  907MOL0     C25070  10.017   6.963   3.572  0.5766 -0.1519  0.5744
  907MOL0     C25071  10.091   6.911   3.689  0.1994  0.6466 -0.2580
  907MOL0     C25072  10.187   7.023   3.748  0.0923 -0.3901  0.2162
  907MOL0    Cl25073  10.095   7.162   3.813 -0.0365 -0.2253 -0.0555
  907MOL0     C25074   9.488   7.398   3.858  0.0575 -0.6532  0.2243
  907MOL0     C25075   9.423   7.524   3.898  0.4226 -0.0501  0.1486
  907MOL0     O25076   9.054   7.576   3.858 -0.2606  0.4983  0.1006
  907MOL0     C25077   9.112   7.935   3.821 -0.3619 -0.4127  0.0126
  907MOL0     C25078   9.056   8.062   3.815  0.5032  0.0592 -0.0016
  907MOL0     N25079   8.443   8.366   4.150  0.2897  0.4491  0.7900
  907MOL0     N25080   8.405   8.365   4.271  0.0671 -0.9137  0.3615
  907MOL0     C25081   7.453   8.442   4.894  0.1889  0.1463  0.5342
  907MOL0     C25082   7.334   8.398   4.942 -0.0870  0.1988  0.1488
  907MOL0     C25083   6.979   8.303   5.183 -1.0729 -0.1075 -0.5982
  907MOL0     C25084   6.955   8.162   5.162  0.4267  0.2815  0.3814
  907MOL0     C25085   6.847   8.089   5.226 -0.7498 -0.4701 -0.0746
  907MOL0     C25086   6.755   8.163   5.299 -0.2241 -0.0360 -0.0311
  907MOL0     O25087   6.631   8.118   5.340 -0.9112 -0.0517 -0.5266
  907MOL0     C25088   6.632   7.987   5.395 -0.5945  0.4777 -0.5825
  907MOL0     C25089   6.540   7.995   5.513 -0.2794 -0.3515 -0.2291
  907MOL0     C25090   6.590   8.040   5.650 -0.3410 -0.0573  0.5477
  907MOL0     C25091   6.495   8.098   5.753  0.7967 -1.0961  0.1509
  907MOL0     C25092   6.418   8.221   5.709 -0.0481 -0.1337  0.0135
  907MOL0     C25093   6.353   8.322   5.674 -0.6518  0.2747 -0.0359
  907MOL0     C25094   6.777   8.295   5.320 -0.5405 -1.1203 -0.2264
  907MOL0     C25095   6.884   8.371   5.265 -0.1043  0.6930  0.1972
  907MOL0     C25096   6.886   8.526   5.293  0.9988  0.2043 -1.0073
  907MOL0     H25097   7.454   8.231   5.219  5.1318  0.2270  0.0664
  907MOL0     H25098   7.657   8.327   5.147  0.7665  0.1606 -0.0754
  907MOL0     H25099   7.833   8.359   5.012 -4.2502 -1.4772 -0.3376
  907MOL0     H25100   7.790   8.502   5.096 -1.6393 -0.1869 -0.0701
  907MOL0     H25101   7.872   8.653   4.905 -1.3470 -0.9970 -0.3963
  907MOL0     H25102   7.971   8.610   5.028 -0.8877  1.3151 -0.4178
  907MOL0     H25103   8.037   8.382   4.867 -1.0554 -0.3688  1.3105
  907MOL0     H25104   7.937   8.471   4.759 -0.2180  3.2723 -0.8262
  907MOL0     H25105   8.082   8.673   4.780  0.3301  0.0506  0.3824
  907MOL0     H25106   8.179   8.602   4.891 -1.3515  0.4595  1.2467
  907MOL0     H25107   8.142   8.464   4.604  0.0372  0.6951 -1.1208
  907MOL0     H25108   8.290   8.456   4.700 -0.0611  0.6401 -0.3581
  907MOL0     H25109   8.177   8.718   4.580  1.0951  0.7648 -4.0132
  907MOL0     H25110   8.337   8.687   4.658 -0.1064  2.7649 -2.6099
  907MOL0     H25111   8.356   8.710   4.432  0.5919 -1.1649 -2.6759
  907MOL0     H25112   8.254   8.565   4.403 -1.4226  2.7348  0.4589
  907MOL0     H25113   8.541   8.571   4.504 -0.5452  1.0964 -0.7312
  907MOL0     H25114   8.427   8.435   4.539 -0.0130 -0.3762  0.5259
  907MOL0     H25115   8.601   8.627   4.248 -2.3287  0.6387 -1.4633
  907MOL0     H25116   8.671   8.578   4.008 -2.2436  2.0796  1.6000
  907MOL0     H25117   8.535   8.526   3.911  1.3680  1.9600 -0.1861
  907MOL0     H25118   8.774   8.379   4.008  2.0733  0.1355 -2.3075
  907MOL0     H25119   8.626   8.275   3.974  0.7874 -1.3281 -2.5892
  907MOL0     H25120   8.631   8.403   3.749  0.7098  0.6756  0.4671
  907MOL0     H25121   8.795   8.454   3.781  0.2384 -0.4972  0.9259
  907MOL0     H25122   8.681   8.164   3.782 -0.1429 -0.8681 -0.8978
  907MOL0     H25123   8.790   8.234   3.668  0.6720 -2.1150  0.2287
  907MOL0     H25124   8.755   7.969   3.933  0.1149 -3.9479  1.0650
  907MOL0     H25125   8.880   7.662   4.005  1.3167  2.5574  1.5695
  907MOL0     H25126   8.801   7.648   3.851 -2.9115  0.8429  0.6222
  907MOL0     H25127   8.733   7.758   3.979  0.7744  0.1642  0.4633
  907MOL0     H25128   9.265   7.583   3.603 -0.9899 -0.8279  0.2008
  907MOL0     H25129   9.343   7.347   3.556  0.1741  0.6349 -1.0743
  907MOL0     H25130   9.396   7.115   3.608  0.9932 -3.6277  1.2428
  907MOL0     H25131   9.540   7.170   3.521 -1.0095  1.9778 -0.1384
  907MOL0     H25132   9.528   6.941   3.712 -1.4264  0.6593 -0.1556
  907MOL0     H25133   9.510   6.918   3.545 -1.7616 -2.4883  2.4211
  907MOL0     H25134   9.748   7.070   3.666 -3.5579  0.5268  2.7151
  907MOL0     H25135   9.720   7.029   3.493  2.4054  1.5159  1.7845
  907MOL0     H25136   9.698   6.791   3.549 -0.4943  0.8586 -0.6212
  907MOL0     H25137   9.795   6.823   3.692  4.8411  0.9644 -0.8820
  907MOL0     H25138   9.940   6.768   3.491  3.0280  0.9045  0.9136
  907MOL0     H25139   9.876   6.912   3.420 -1.3258 -0.3049 -0.8418
  907MOL0     H25140   9.967   7.058   3.593  0.7350 -0.1251  0.8292
  907MOL0     H25141  10.082   6.992   3.489 -1.1077 -0.7458 -1.0374
  907MOL0     H25142  10.166   6.837   3.657  0.3904  2.3105 -4.3473
  907MOL0     H25143  10.021   6.881   3.767 -0.5357  1.0052 -0.7628
  907MOL0     H25144  10.246   7.052   3.661 -1.0559 -1.8805 -1.1198
  907MOL0     H25145  10.248   6.997   3.835  0.4388  2.7886  1.0526
  907MOL0     H25146   9.548   7.345   3.931 -0.6329 -1.4043  0.2660
  907MOL0     H25147   9.443   7.552   4.001 -1.2387  1.5228  0.0895
  907MOL0     H25148   9.213   7.922   3.782 -1.1203 -1.0183 -1.8436
  907MOL0     H25149   9.108   8.149   3.775 -0.8232  0.8493 -0.0484
  907MOL0     H25150   7.463   8.495   4.799 -0.3826 -1.3612 -0.3964
  907MOL0     H25151   7.252   8.429   4.878 -0.2588 -0.3818  0.0785
  907MOL0     H25152   7.019   8.107   5.095  1.2625 -1.7562  2.6739
  907MOL0     H25153   6.834   7.983   5.207 -0.0601 -1.2024  2.9725
  907MOL0     H25154   6.605   7.912   5.320 -0.7103  2.1174 -2.2611
  907MOL0     H25155   6.730   7.953   5.429 -2.4600 -3.1533  1.8157
  907MOL0     H25156   6.508   7.891   5.522  1.0579 -0.6329  2.2234
  907MOL0     H25157   6.455   8.057   5.482 -2.3756 -1.2666  3.1288
  907MOL0     H25158   6.658   7.961   5.682  1.5104 -0.1324 -3.1002
  907MOL0     H25159   6.651   8.127   5.627 -0.9442  0.5829  1.3080
  907MOL0     H25160   6.541   8.120   5.850  1.1821 -0.0033 -0.2737
  907MOL0     H25161   6.435   8.011   5.782  1.9653 -1.6617  0.9244
  907MOL0     H25162   6.310   8.419   5.655  2.1018  1.4319 -0.9008
  907MOL0     H25163   6.713   8.358   5.381  0.9037 -1.5607  1.8395
  907MOL0     H25164   6.813   8.563   5.366  2.8139  1.7530  0.0792
  907MOL0     H25165   6.985   8.542   5.336  0.6453 -1.3667  0.5040
  907MOL0     H25166   6.884   8.590   5.204 -2.6210 -1.2995 -2.2233
  908MOL0     O25167   5.355   8.199   8.369 -0.6353  0.0085 -0.2173
  908MOL0     C25168   5.425   8.131   8.435 -0.7544  0.8567 -0.3402
  908MOL0     O25169   5.393   8.015   8.499  0.4493 -0.4676  0.0492
  908MOL0     C25170   5.256   7.992   8.498 -0.1257  1.3050 -0.5955
  908MOL0     C25171   5.206   7.870   8.441  0.0074 -0.5165 -0.4157
  908MOL0     C25172   5.073   7.840   8.436 -0.0162  0.2487 -0.1569
  908MOL0     C25173   4.976   7.938   8.471  0.2587  0.0665 -0.6642
  908MOL0     O25174   4.840   7.907   8.474 -0.1331  0.1565  0.5488
  908MOL0     C25175   4.759   7.977   8.371 -0.0750  0.1906  0.0992
  908MOL0     C25176   4.630   7.890   8.361 -0.2392  0.7186 -0.9722
  908MOL0     C25177   4.525   7.943   8.262 -0.0944  0.4489  1.1856
  908MOL0     C25178   4.403   7.862   8.258 -0.2777 -0.8684  0.0680
  908MOL0     C25179   4.291   7.925   8.177  0.8221 -0.0004  0.8235
  908MOL0     C25180   4.154   7.850   8.169  0.4658 -0.1338  0.4312
  908MOL0     C25181   4.177   7.714   8.107 -0.1389  0.9112 -0.2024
  908MOL0     C25182   4.055   7.674   8.026  0.4839  0.4420 -0.8107
  908MOL0     N25183   4.076   7.556   7.924  0.2077 -0.3629 -0.3221
  908MOL0     C25184   4.155   7.448   7.944  0.6855  1.1035  0.4650
  908MOL0     C25185   4.148   7.368   7.834  0.2956  0.4085 -0.4119
  908MOL0     C25186   4.211   7.230   7.808 -0.3659  0.0954 -0.2470
  908MOL0     C25187   4.183   7.128   7.917 -0.6090 -0.8471  0.0808
  908MOL0     C25188   4.264   6.998   7.910 -1.6598  0.0673  0.2770
  908MOL0     C25189   4.255   6.913   8.025  0.3142 -0.6134 -0.0817
  908MOL0     O25190   4.119   6.852   8.008 -0.3473 -0.1930 -0.6971
  908MOL0     C25191   4.012   6.863   8.092  0.8726 -0.0878  0.1470
  908MOL0     C25192   4.026   6.911   8.218  1.6467 -0.0408  0.3197
  908MOL0     C25193   3.910   6.924   8.295  0.8259 -0.3616 -0.2901
  908MOL0     C25194   3.930   6.997   8.417 -0.3531  0.6923 -0.6930
  908MOL0     C25195   3.779   6.878   8.251 -0.6025 -0.0886  1.1393
  908MOL0     C25196   3.649   6.899   8.321  0.3989  0.7328 -0.9395
  908MOL0     O25197   3.534   6.859   8.261  0.2304  0.3993  0.2208
  908MOL0     C25198   3.414   6.862   8.330  0.3356  0.4004 -0.1138
  908MOL0     C25199   3.333   6.974   8.325 -1.0506 -0.3405 -0.2041
  908MOL0     C25200   3.207   6.969   8.376 -0.4593  0.0755  0.5956
  908MOL0     C25201   3.158   6.842   8.418 -0.6579 -0.5164 -0.3347
  908MOL0     O25202   3.025   6.833   8.456  0.3984 -0.1292  0.6505
  908MOL0     C25203   2.966   6.712   8.496  0.1182 -0.0558  0.8814
  908MOL0     C25204   2.810   6.742   8.524 -0.0759 -0.8410 -0.2301
  908MOL0     C25205   2.741   6.633   8.616  0.6521 -0.3521  0.4016
  908MOL0     C25206   2.622   6.706   8.679  0.0668  0.3408 -0.3123
  908MOL0     C25207   2.560   6.625   8.790 -0.2084 -0.3104 -0.3686
  908MOL0     C25208   2.481   6.715   8.884 -0.3477  1.0686 -0.0876
  908MOL0     C25209   2.361   6.771   8.818  0.3184 -0.9123  0.5522
  908MOL0     C25210   2.276   6.855   8.913  0.0515 -0.3321  0.4420
  908MOL0    Cl25211   2.211   6.768   9.053  0.4381  0.3738 -0.2029
  908MOL0     C25212   3.243   6.728   8.422  0.7638 -0.1539 -0.3944
  908MOL0     C25213   3.368   6.740   8.375 -0.1259  0.3051 -0.3726
  908MOL0     O25214   3.651   6.969   8.422  0.2354 -0.7845 -1.3015
  908MOL0     C25215   3.774   6.824   8.112  0.3495  0.1057  0.1293
  908MOL0     C25216   3.892   6.814   8.041 -0.2887 -0.2040  0.7377
  908MOL0     N25217   4.054   7.433   7.746 -0.2476  0.3673  0.0351
  908MOL0     N25218   4.019   7.547   7.800 -0.6287  0.2333 -0.6450
  908MOL0     C25219   5.030   8.055   8.526 -0.2175 -0.6425 -0.1348
  908MOL0     C25220   5.163   8.084   8.542  0.5784  0.3651  0.1406
  908MOL0     C25221   5.565   8.176   8.450 -0.0973 -1.5336 -0.9374
  908MOL0     C25222   5.634   8.152   8.579 -0.1395 -0.1879  0.5888
  908MOL0     C25223   5.766   8.198   8.585 -0.7807  0.5253 -0.2327
  908MOL0     C25224   5.838   8.255   8.483 -0.2265  0.4659  0.3194
  908MOL0     O25225   5.967   8.290   8.481  0.2924 -0.1225  0.4651
  908MOL0     C25226   6.051   8.257   8.594 -0.0795 -0.4296 -0.1052
  908MOL0     C25227   6.205   8.273   8.564  0.0146  0.2409  0.4701
  908MOL0     C25228   6.262   8.210   8.435  0.8157 -0.2793 -0.7641
  908MOL0     C25229   6.411   8.194   8.427  0.4518  0.2071 -0.5579
  908MOL0     C25230   6.467   8.084   8.516 -0.6296 -0.9562  0.1289
  908MOL0     C25231   6.532   7.996   8.573  0.1137  0.2570 -0.5528
  908MOL0     C25232   5.772   8.273   8.365  0.0978 -0.2280  0.4736
  908MOL0     C25233   5.636   8.243   8.342 -0.7536  0.1514  0.0094
  908MOL0     C25234   5.586   8.265   8.199 -0.4616  0.9516 -0.2004
  908MOL0     H25235   5.275   7.793   8.408  1.5259  1.1945 -1.4175
  908MOL0     H25236   5.048   7.744   8.390  4.2682  0.0931 -2.6782
  908MOL0     H25237   4.803   7.982   8.271  0.0971 -1.2684  0.0866
  908MOL0     H25238   4.746   8.075   8.417 -0.4354 -0.4391  1.3969
  908MOL0     H25239   4.665   7.787   8.343 -3.5949 -1.4693  3.2079
  908MOL0     H25240   4.575   7.888   8.455  3.3389  2.2364  1.3633
  908MOL0     H25241   4.492   8.045   8.284 -0.1242  0.8201 -0.4588
  908MOL0     H25242   4.562   7.944   8.159  0.5075 -2.4257  1.3135
  908MOL0     H25243   4.433   7.764   8.220  2.7368 -0.3598  0.9065
  908MOL0     H25244   4.371   7.846   8.362  4.2653 -1.6761  1.5518
  908MOL0     H25245   4.327   7.933   8.074 -1.1650 -2.2258 -0.1374
  908MOL0     H25246   4.271   8.026   8.214 -1.3834 -0.2309  0.4357
  908MOL0     H25247   4.121   7.830   8.272 -0.1210 -0.5211  0.1773
  908MOL0     H25248   4.083   7.913   8.115  0.0340  0.9927  2.2085
  908MOL0     H25249   4.199   7.640   8.184 -1.7218 -0.1308 -0.7023
  908MOL0     H25250   4.265   7.706   8.043 -0.6025 -1.9714 -0.6195
  908MOL0     H25251   3.966   7.673   8.089 -0.7231  0.1783 -2.4755
  908MOL0     H25252   4.024   7.750   7.955 -2.1187  0.4663  0.2704
  908MOL0     H25253   4.223   7.430   8.026 -0.7043  1.7008  1.8098
  908MOL0     H25254   4.318   7.238   7.786 -0.4430  0.6273 -0.4596
  908MOL0     H25255   4.174   7.190   7.713 -0.1265 -0.6814 -0.0145
  908MOL0     H25256   4.224   7.175   8.007  1.6158 -0.6798 -0.9542
  908MOL0     H25257   4.074   7.117   7.926 -0.6594 -1.3964 -1.0294
  908MOL0     H25258   4.242   6.938   7.821  1.0835 -0.3874 -0.1892
  908MOL0     H25259   4.369   7.022   7.894 -1.9471  0.4452 -1.2359
  908MOL0     H25260   4.328   6.833   8.006 -2.0037 -2.1829 -3.2943
  908MOL0     H25261   4.279   6.972   8.114  1.6178  1.9856 -2.0245
  908MOL0     H25262   4.114   6.960   8.259  1.4317  0.3903  0.2750
  908MOL0     H25263   4.035   6.987   8.447 -0.9333  0.1666  1.3648
  908MOL0     H25264   3.875   6.938   8.491  0.1127  0.7621 -0.2815
  908MOL0     H25265   3.899   7.101   8.431 -1.8162 -0.0890  3.0129
  908MOL0     H25266   3.376   7.056   8.269  1.3223 -1.5590 -0.3306
  908MOL0     H25267   3.137   7.049   8.357 -2.3396 -1.8946 -1.2505
  908MOL0     H25268   2.974   6.633   8.422 -0.4978 -2.3098  3.0806
  908MOL0     H25269   3.037   6.695   8.577  1.2177  1.9240  0.4110
  908MOL0     H25270   2.807   6.842   8.567  1.0575 -0.7588 -0.3325
  908MOL0     H25271   2.758   6.764   8.430 -0.3732 -0.4513  0.0216
  908MOL0     H25272   2.813   6.601   8.692 -1.0297 -1.8074  1.4623
  908MOL0     H25273   2.721   6.544   8.556  0.0114 -2.0928  3.0280
  908MOL0     H25274   2.552   6.734   8.600  1.0345 -0.6607 -1.5843
  908MOL0     H25275   2.659   6.803   8.712 -0.9347  0.1304  1.5109
  908MOL0     H25276   2.492   6.551   8.748  1.2970 -0.0352 -3.6071
  908MOL0     H25277   2.638   6.571   8.844  3.0021  3.1390 -1.1531
  908MOL0     H25278   2.550   6.782   8.937  0.1785  0.1324  0.4287
  908MOL0     H25279   2.440   6.650   8.961 -0.3127  1.3893  0.2029
  908MOL0     H25280   2.291   6.692   8.791 -0.1724 -1.1115  2.3115
  908MOL0     H25281   2.387   6.827   8.727 -0.5590 -0.2004  0.7299
  908MOL0     H25282   2.194   6.900   8.855  0.8730 -1.4209 -1.6801
  908MOL0     H25283   2.339   6.933   8.957 -2.0098  0.9606  1.2920
  908MOL0     H25284   3.208   6.629   8.450 -1.8292  0.7394 -0.1503
  908MOL0     H25285   3.436   6.656   8.384  1.4828  1.2495 -2.5618
  908MOL0     H25286   3.695   6.793   8.044  0.9578 -1.1426 -0.0409
  908MOL0     H25287   3.895   6.757   7.949 -1.0667 -2.0154  1.7657
  908MOL0     H25288   4.948   8.122   8.553 -1.1327 -1.6498 -0.3412
  908MOL0     H25289   5.194   8.181   8.579  0.2279  1.3046 -1.8672
  908MOL0     H25290   5.578   8.122   8.667  0.4341 -1.7687  0.4502
  908MOL0     H25291   5.813   8.189   8.682  2.7274  1.3097 -1.6966
  908MOL0     H25292   6.026   8.311   8.686 -3.3681  0.8048 -1.5705
  908MOL0     H25293   6.046   8.149   8.611  0.1472 -0.1370  2.1509
  908MOL0     H25294   6.257   8.227   8.648  1.0975 -0.2334 -0.4371
  908MOL0     H25295   6.213   8.382   8.567 -2.7671  0.5508 -0.1769
  908MOL0     H25296   6.212   8.113   8.439  0.7533 -0.2517  2.6935
  908MOL0     H25297   6.243   8.273   8.348  3.2412  1.5552 -0.0828
  908MOL0     H25298   6.451   8.289   8.464 -0.3616  1.3807 -2.5656
  908MOL0     H25299   6.464   8.188   8.332  1.1298 -1.1157 -0.1332
  908MOL0     H25300   6.592   7.914   8.607  3.1392  1.9309 -1.4238
  908MOL0     H25301   5.831   8.303   8.279 -0.5435 -3.0025 -1.0503
  908MOL0     H25302   5.514   8.185   8.177  1.2065 -0.2458 -1.6589
  908MOL0     H25303   5.530   8.357   8.185 -0.5193  0.6280 -2.4184
  908MOL0     H25304   5.666   8.262   8.125  0.2048  4.2237  0.2327
  909MOL0     O25305   2.401   1.262   4.541 -0.1638 -0.2427  0.1933
  909MOL0     C25306   2.493   1.322   4.482  0.4143 -0.1585  0.1432
  909MOL0     O25307   2.596   1.393   4.533 -0.6499  0.1135 -0.2761
  909MOL0     C25308   2.570   1.447   4.654  1.0232 -0.0809 -0.1286
  909MOL0     C25309   2.633   1.387   4.761 -0.9217 -0.2324 -0.1566
  909MOL0     C25310   2.621   1.438   4.885 -0.6521  0.1764  1.0513
  909MOL0     C25311   2.531   1.550   4.912 -0.0940 -0.3270 -0.0573
  909MOL0     O25312   2.519   1.591   5.043 -0.6945 -0.1879 -0.1174
  909MOL0     C25313   2.472   1.726   5.069 -0.3019 -0.4340  0.7350
  909MOL0     C25314   2.602   1.808   5.058  0.0153 -0.2307 -0.2893
  909MOL0     C25315   2.708   1.769   5.166 -0.1995  0.9353 -0.5409
  909MOL0     C25316   2.660   1.803   5.309 -0.2586 -0.8596  0.4112
  909MOL0     C25317   2.775   1.798   5.415  0.5150  0.4394  0.8314
  909MOL0     C25318   2.836   1.942   5.429 -0.7313  0.9184  0.1400
  909MOL0     C25319   2.975   1.933   5.490 -0.0985  0.4716 -0.3721
  909MOL0     C25320   2.974   1.846   5.616 -0.0159 -0.2746 -0.3434
  909MOL0     N25321   3.113   1.831   5.664 -1.1433 -0.6709  0.5311
  909MOL0     C25322   3.172   1.893   5.763  0.0507  0.1117 -0.6248
  909MOL0     C25323   3.302   1.861   5.757  0.3720  0.3594 -0.4885
  909MOL0     C25324   3.415   1.880   5.839 -0.7083 -0.9084 -0.1067
  909MOL0     C25325   3.436   1.762   5.933 -0.4430 -0.0433 -0.1416
  909MOL0     C25326   3.328   1.769   6.046  0.2315 -0.5497 -0.3008
  909MOL0     C25327   3.347   1.656   6.151 -0.5555 -0.2243  0.2232
  909MOL0     O25328   3.476   1.675   6.217  0.0775 -0.5536  0.1614
  909MOL0     C25329   3.523   1.553   6.258  0.4370 -0.3810  0.0606
  909MOL0     C25330   3.625   1.484   6.192 -0.5766  0.5532 -0.2605
  909MOL0     C25331   3.679   1.372   6.258 -0.2456 -0.1136  0.0474
  909MOL0     C25332   3.777   1.291   6.175 -0.5667  0.1471  0.8042
  909MOL0     C25333   3.637   1.336   6.388  0.9601 -0.2381 -0.3801
  909MOL0     C25334   3.699   1.214   6.460 -0.1074  0.1421 -0.1699
  909MOL0     O25335   3.626   1.162   6.568 -0.2971  0.3273  0.2428
  909MOL0     C25336   3.685   1.073   6.652 -0.0299  0.7698  0.0039
  909MOL0     C25337   3.799   1.104   6.729  1.0260  0.1068  0.5700
  909MOL0     C25338   3.866   1.008   6.798  0.4210 -0.7503 -0.6128
  909MOL0     C25339   3.815   0.884   6.801 -0.0948 -0.5295 -0.6095
  909MOL0     O25340   3.884   0.791   6.880  1.4766 -0.0715  0.0359
  909MOL0     C25341   4.002   0.736   6.817  0.1728 -0.8507  0.4280
  909MOL0     C25342   4.096   0.680   6.925  0.3044  0.0454 -0.0634
  909MOL0     C25343   4.212   0.606   6.863  0.1266  0.4892  0.6449
  909MOL0     C25344   4.308   0.578   6.984 -0.1770  0.6506  0.0964
  909MOL0     C25345   4.400   0.462   6.951  0.1511 -0.5944 -0.3073
  909MOL0     C25346   4.477   0.396   7.062  0.0561  0.3432  0.8176
  909MOL0     C25347   4.600   0.483   7.074  0.3843 -0.1080 -0.4638
  909MOL0     C25348   4.694   0.431   7.183  0.1272  0.3317 -0.1095
  909MOL0    Cl25349   4.830   0.329   7.136  0.6849  0.0796 -0.3949
  909MOL0     C25350   3.696   0.856   6.725 -0.6706  0.5198  0.2959
  909MOL0     C25351   3.630   0.948   6.652  0.1124  1.4383  0.2536
  909MOL0     O25352   3.811   1.179   6.433 -0.2563  0.6968  0.1477
  909MOL0     C25353   3.526   1.409   6.454 -0.2355  0.3961  0.2388
  909MOL0     C25354   3.478   1.522   6.388  0.4820  0.6058 -0.8251
  909MOL0     N25355   3.315   1.773   5.650  0.0808 -0.7003 -0.0993
  909MOL0     N25356   3.196   1.746   5.600  0.1831 -0.1837  0.0388
  909MOL0     C25357   2.463   1.606   4.797 -0.6527 -0.7415  0.0685
  909MOL0     C25358   2.489   1.556   4.669 -0.0599 -0.0018 -0.5168
  909MOL0     C25359   2.486   1.305   4.338 -0.2872 -0.4590  0.0630
  909MOL0     C25360   2.612   1.299   4.275 -0.1215 -0.0249  0.1117
  909MOL0     C25361   2.617   1.289   4.136 -0.0324 -0.4937 -0.5787
  909MOL0     C25362   2.506   1.299   4.054 -0.0576  0.7416 -0.1171
  909MOL0     O25363   2.529   1.291   3.917  0.2726  0.4765 -0.6152
  909MOL0     C25364   2.427   1.299   3.813 -0.6469 -0.7742 -0.1863
  909MOL0     C25365   2.359   1.435   3.803 -0.2505  0.4162 -0.2010
  909MOL0     C25366   2.455   1.544   3.785 -0.5359 -0.6310  0.6779
  909MOL0     C25367   2.566   1.509   3.684 -0.0854 -0.1893  0.1768
  909MOL0     C25368   2.635   1.630   3.629  0.4346  0.1566 -0.4776
  909MOL0     C25369   2.691   1.724   3.577  1.0132  0.7066  0.1616
  909MOL0     C25370   2.383   1.299   4.112  0.6382 -1.0703 -0.0508
  909MOL0     C25371   2.367   1.314   4.256 -0.6235 -0.2328  0.9910
  909MOL0     C25372   2.228   1.317   4.300 -0.1236  0.2064 -0.0385
  909MOL0     H25373   2.703   1.304   4.758  0.8006  0.9304  3.1732
  909MOL0     H25374   2.670   1.394   4.971 -1.1324 -1.7502  0.4081
  909MOL0     H25375   2.430   1.731   5.170  0.9815  0.0405  1.2664
  909MOL0     H25376   2.406   1.762   4.990  1.2442  0.1865 -0.3382
  909MOL0     H25377   2.641   1.784   4.959  1.1116 -2.0332  0.5368
  909MOL0     H25378   2.577   1.913   5.074 -1.9869 -0.9277  1.5884
  909MOL0     H25379   2.730   1.662   5.155 -0.7458  0.7770 -0.1501
  909MOL0     H25380   2.808   1.812   5.151  0.1001 -0.1434 -1.8718
  909MOL0     H25381   2.625   1.907   5.313  0.6766 -0.5525  1.4103
  909MOL0     H25382   2.575   1.739   5.332 -1.4317  0.5242  0.0386
  909MOL0     H25383   2.851   1.724   5.387 -1.1117 -0.7592 -0.5932
  909MOL0     H25384   2.735   1.777   5.514  1.5209 -0.1890  1.1201
  909MOL0     H25385   2.850   1.993   5.334 -1.8602  1.6185  0.3277
  909MOL0     H25386   2.765   2.004   5.485 -2.7929 -1.2739  0.1461
  909MOL0     H25387   2.999   2.037   5.514 -0.5882  0.2276  1.3290
  909MOL0     H25388   3.051   1.912   5.414 -1.0865 -1.8432 -0.8040
  909MOL0     H25389   2.908   1.908   5.676 -0.7760  1.1518 -2.5160
  909MOL0     H25390   2.935   1.746   5.600 -1.7025  0.3581 -0.3696
  909MOL0     H25391   3.118   1.957   5.833 -2.2991 -1.7843 -0.5991
  909MOL0     H25392   3.408   1.964   5.909  1.5622 -1.1645  0.4819
  909MOL0     H25393   3.497   1.899   5.769 -0.6544  2.5863  0.7334
  909MOL0     H25394   3.448   1.664   5.888  1.4091  0.1574 -0.1427
  909MOL0     H25395   3.532   1.775   5.984  0.4560 -1.0970 -1.5096
  909MOL0     H25396   3.339   1.868   6.091  2.2903 -1.4417  1.2872
  909MOL0     H25397   3.228   1.752   6.003 -0.7688  0.4422  1.5224
  909MOL0     H25398   3.262   1.662   6.220 -1.9602  0.2533 -1.4897
  909MOL0     H25399   3.345   1.564   6.092 -1.0034  1.1921 -2.0836
  909MOL0     H25400   3.653   1.511   6.091  0.3297  2.5101  0.4522
  909MOL0     H25401   3.747   1.187   6.187 -1.1676  0.4449  1.9242
  909MOL0     H25402   3.881   1.299   6.208 -1.0137  1.0262  2.0846
  909MOL0     H25403   3.784   1.321   6.070  0.7426  1.8010  1.3288
  909MOL0     H25404   3.840   1.205   6.723 -2.5384  1.6458 -2.4552
  909MOL0     H25405   3.956   1.037   6.852 -0.1624  2.9489 -1.3521
  909MOL0     H25406   3.978   0.659   6.744  1.8989 -1.2373  0.2367
  909MOL0     H25407   4.053   0.817   6.764  0.9194 -2.1312 -0.8884
  909MOL0     H25408   4.131   0.759   6.992 -1.9947  0.2133  1.0572
  909MOL0     H25409   4.040   0.616   6.994  0.8184  2.2380  2.5704
  909MOL0     H25410   4.261   0.671   6.790 -0.4274  0.6576  0.4173
  909MOL0     H25411   4.177   0.513   6.816  0.6575  0.1564  0.8928
  909MOL0     H25412   4.244   0.544   7.066 -1.1883  0.5645 -0.7031
  909MOL0     H25413   4.369   0.661   7.021  0.3237  0.9120 -1.2499
  909MOL0     H25414   4.340   0.385   6.902 -0.0378 -1.0458  0.6169
  909MOL0     H25415   4.471   0.486   6.871 -0.2287  2.1588  0.0642
  909MOL0     H25416   4.509   0.299   7.022  2.4591  0.5652  2.0043
  909MOL0     H25417   4.407   0.386   7.145 -0.4861  0.0583  0.3293
  909MOL0     H25418   4.564   0.580   7.110 -2.0262 -1.2877  0.5295
  909MOL0     H25419   4.657   0.487   6.981 -1.6647  0.2649 -1.7601
  909MOL0     H25420   4.635   0.380   7.261  0.6484 -0.8648 -0.4726
  909MOL0     H25421   4.746   0.511   7.236  1.4677 -1.5269  1.5404
  909MOL0     H25422   3.673   0.750   6.724 -0.0790  0.3790  0.7680
  909MOL0     H25423   3.549   0.927   6.583 -0.8614 -4.3483  2.5715
  909MOL0     H25424   3.481   1.370   6.545  2.4616  1.3124  2.1196
  909MOL0     H25425   3.416   1.592   6.443  0.3049  0.0936 -0.3604
  909MOL0     H25426   2.388   1.684   4.808 -0.5525 -0.7709  1.0094
  909MOL0     H25427   2.436   1.596   4.583  0.5156  1.2099 -0.3320
  909MOL0     H25428   2.701   1.289   4.336  0.2107 -0.3025 -0.4044
  909MOL0     H25429   2.714   1.282   4.088  1.4032 -0.4904  2.1330
  909MOL0     H25430   2.482   1.273   3.723  0.1042 -0.4002  0.1610
  909MOL0     H25431   2.352   1.224   3.839 -1.6461  0.4613  0.6158
  909MOL0     H25432   2.302   1.458   3.894 -0.2228  0.9316 -0.3103
  909MOL0     H25433   2.293   1.436   3.716 -2.3500 -1.4521  1.2621
  909MOL0     H25434   2.401   1.636   3.762  2.0223  1.5915  2.8273
  909MOL0     H25435   2.504   1.570   3.879 -0.5547 -0.1670  0.5603
  909MOL0     H25436   2.520   1.458   3.599  0.3966 -1.5158  0.6915
  909MOL0     H25437   2.634   1.444   3.740  0.9615  1.3426  0.7705
  909MOL0     H25438   2.743   1.811   3.544 -1.1803  1.5348 -1.3730
  909MOL0     H25439   2.300   1.317   4.044  3.5103  2.1011 -3.1243
  909MOL0     H25440   2.210   1.300   4.407  1.9072  0.7913  0.4342
  909MOL0     H25441   2.192   1.416   4.272 -1.4675 -0.2042  0.1552
  909MOL0     H25442   2.179   1.239   4.242 -0.1056 -0.7934  1.2465
  910MOL0     O25443   6.927   1.136   3.555 -0.0674 -0.5992  0.4780
  910MOL0     C25444   6.857   1.236   3.559 -0.0372 -0.2292  0.0542
  910MOL0     O25445   6.893   1.349   3.611 -0.6726  0.1289  0.1870
  910MOL0     C25446   7.024   1.361   3.655  0.0074  0.3783  0.3934
  910MOL0     C25447   7.048   1.411   3.786 -0.1559  0.4117  0.3027
  910MOL0     C25448   7.182   1.405   3.831 -0.4198  0.7934 -0.7316
  910MOL0     C25449   7.286   1.346   3.757  0.8208  0.2084  0.4706
  910MOL0     O25450   7.400   1.328   3.824 -0.6074 -0.6190 -0.2356
  910MOL0     C25451   7.525   1.312   3.751 -0.3328  0.2358  0.1133
  910MOL0     C25452   7.636   1.272   3.853 -0.3338 -0.0222  0.7584
  910MOL0     C25453   7.642   1.118   3.862 -0.6788  0.6775  0.9266
  910MOL0     C25454   7.759   1.062   3.941  0.2880  1.4051 -0.4991
  910MOL0     C25455   7.780   0.909   3.911  0.2350  0.1647 -0.3648
  910MOL0     C25456   7.916   0.852   3.926  0.3248  1.1970 -0.7838
  910MOL0     C25457   7.899   0.697   3.943 -0.3402 -0.0923  0.1831
  910MOL0     C25458   7.999   0.606   3.892 -0.4279 -0.0534  0.9749
  910MOL0     N25459   8.133   0.632   3.939  0.5421 -0.1602 -0.2042
  910MOL0     C25460   8.192   0.568   4.039  0.0108  0.0219  0.1012
  910MOL0     C25461   8.326   0.605   4.033  0.5640 -0.3335  0.3581
  910MOL0     C25462   8.433   0.544   4.116  0.6047  0.9096  0.3854
  910MOL0     C25463   8.550   0.490   4.031  0.0557 -0.2793  0.4255
  910MOL0     C25464   8.642   0.598   3.973  0.2464 -0.1945 -0.2647
  910MOL0     C25465   8.758   0.532   3.893  0.7781 -0.0137  0.2192
  910MOL0     O25466   8.838   0.477   3.998 -0.5677  0.1340  0.3801
  910MOL0     C25467   8.961   0.429   3.958  0.1748 -0.0835 -0.2890
  910MOL0     C25468   9.041   0.391   4.062 -0.0604  0.3664 -0.1245
  910MOL0     C25469   9.176   0.355   4.046 -0.3272 -0.0575  0.0082
  910MOL0     C25470   9.248   0.307   4.175  0.3859  0.4296  0.8573
  910MOL0     C25471   9.227   0.361   3.918 -0.2615  0.1298 -0.8691
  910MOL0     C25472   9.361   0.313   3.888 -0.2127 -0.0343  0.4829
  910MOL0     O25473   9.401   0.191   3.927 -0.5198  0.0832  0.0961
  910MOL0     C25474   9.538   0.163   3.929  1.1754  0.0115 -0.6404
  910MOL0     C25475   9.621   0.210   4.036  0.2908  0.3111  0.0854
  910MOL0     C25476   9.753   0.186   4.030 -0.1335  0.5275 -0.6206
  910MOL0     C25477   9.807   0.116   3.919 -0.5436  0.0960 -0.1018
  910MOL0     O25478   9.938   0.095   3.904  0.3941  0.1661 -0.0824
  910MOL0     C25479  10.042   0.145   3.995  0.8330 -0.2964  0.1204
  910MOL0     C25480  10.175   0.093   3.938  0.7780  0.1817  0.7088
  910MOL0     C25481  10.294   0.118   4.032 -0.6734  0.1677  0.2441
  910MOL0     C25482  10.432   0.051   3.983 -0.5887 -0.0928  0.1178
  910MOL0     C25483  10.458   0.098   3.835 -1.1938  0.0158 -0.2492
  910MOL0     C25484  10.610   0.125   3.807  0.3073 -0.4574  0.5715
  910MOL0     C25485  10.643   0.141   3.662 -0.3897 -0.0546 -0.6050
  910MOL0     C25486  10.609   0.007   3.583 -0.5101 -0.2587  0.5737
  910MOL0    Cl25487  10.700  -0.126   3.661  0.3246  0.2389 -0.3841
  910MOL0     C25488   9.729   0.063   3.823 -0.0283  0.1753 -0.0384
  910MOL0     C25489   9.590   0.086   3.823  0.4177  0.1470  0.2871
  910MOL0     O25490   9.426   0.396   3.823  0.1199 -0.0094 -0.1484
  910MOL0     C25491   9.149   0.407   3.808  0.3900  0.4379  0.3669
  910MOL0     C25492   9.013   0.433   3.823 -0.0095 -0.7213 -0.4163
  910MOL0     N25493   8.332   0.693   3.927  0.7388  0.2275 -0.5554
  910MOL0     N25494   8.218   0.717   3.880  0.1321 -1.0269 -0.0374
  910MOL0     C25495   7.254   1.322   3.621 -0.5415 -0.1119 -0.4980
  910MOL0     C25496   7.130   1.343   3.571 -0.0359 -0.0139 -0.2995
  910MOL0     C25497   6.724   1.222   3.482 -0.8511 -0.3041  1.0741
  910MOL0     C25498   6.696   1.100   3.404 -0.5659  0.2846 -1.1830
  910MOL0     C25499   6.581   1.081   3.344  0.3629 -0.2222 -0.1258
  910MOL0     C25500   6.469   1.167   3.356  0.2304  0.0391 -0.2164
  910MOL0     O25501   6.343   1.131   3.305 -0.0211  0.4574  0.2330
  910MOL0     C25502   6.230   1.204   3.342 -0.0622 -0.6774  0.3938
  910MOL0     C25503   6.110   1.156   3.262  0.5502 -0.0023  0.2437
  910MOL0     C25504   5.986   1.257   3.279  0.1726  0.0800  0.4282
  910MOL0     C25505   5.875   1.206   3.182  1.0429 -0.3351  0.4302
  910MOL0     C25506   5.905   1.251   3.045  0.1182  0.2243 -0.3154
  910MOL0     C25507   5.921   1.284   2.930  0.0048  0.1437  0.3371
  910MOL0     C25508   6.494   1.287   3.420 -0.5602  0.1037  0.1386
  910MOL0     C25509   6.623   1.317   3.488  0.7004 -1.0753 -0.2732
  910MOL0     C25510   6.629   1.458   3.542  0.2561 -0.0611 -0.0323
  910MOL0     H25511   6.964   1.451   3.842 -0.9877  1.1764 -1.4237
  910MOL0     H25512   7.201   1.432   3.934  3.3097  1.8015 -1.5125
  910MOL0     H25513   7.556   1.402   3.697 -1.3974  1.1763  1.0152
  910MOL0     H25514   7.520   1.221   3.690 -1.0487 -1.2182  2.2164
  910MOL0     H25515   7.731   1.307   3.813  0.3667 -1.6962  0.8590
  910MOL0     H25516   7.628   1.312   3.954  2.1499  0.9168  0.6428
  910MOL0     H25517   7.551   1.079   3.909 -1.8041 -3.0303 -3.5747
  910MOL0     H25518   7.651   1.089   3.757 -4.5799  0.3339  0.5440
  910MOL0     H25519   7.849   1.123   3.935  2.4802 -1.3819  1.4113
  910MOL0     H25520   7.725   1.066   4.045 -3.4165 -3.4132 -1.1793
  910MOL0     H25521   7.767   0.891   3.804 -0.2986 -2.1542  0.0510
  910MOL0     H25522   7.704   0.856   3.969  0.5122  0.5424  0.3619
  910MOL0     H25523   7.976   0.873   3.836  1.9971  1.3020  0.3108
  910MOL0     H25524   7.990   0.881   4.001 -0.1382 -2.6940  1.4474
  910MOL0     H25525   7.800   0.674   3.904 -0.5965  1.4169 -0.1179
  910MOL0     H25526   7.893   0.673   4.050  0.6020 -0.0019  0.2694
  910MOL0     H25527   7.979   0.506   3.929 -1.6414 -0.2029 -0.0133
  910MOL0     H25528   8.004   0.618   3.783 -1.0841  2.2985  1.1348
  910MOL0     H25529   8.159   0.478   4.090  0.7295  0.4446  1.3687
  910MOL0     H25530   8.398   0.463   4.182 -0.2615  2.4181  1.8590
  910MOL0     H25531   8.469   0.623   4.182  2.0591  0.0548  0.6656
  910MOL0     H25532   8.601   0.411   4.087  1.1901 -1.7987 -2.5468
  910MOL0     H25533   8.505   0.437   3.947 -0.5258 -0.6690  0.9747
  910MOL0     H25534   8.585   0.665   3.908 -0.2828 -1.1314 -0.7893
  910MOL0     H25535   8.693   0.669   4.039 -1.2525  2.7442 -2.0482
  910MOL0     H25536   8.731   0.460   3.815  1.2003  0.4605 -0.3684
  910MOL0     H25537   8.808   0.612   3.837 -2.2921  0.0446 -2.8004
  910MOL0     H25538   8.994   0.397   4.160  1.2702  0.2833  0.5430
  910MOL0     H25539   9.322   0.385   4.196 -1.1832  1.1272  4.5110
  910MOL0     H25540   9.299   0.215   4.146  2.5956  1.6661  0.5372
  910MOL0     H25541   9.184   0.292   4.262 -0.5579 -1.5600 -0.1284
  910MOL0     H25542   9.583   0.273   4.115  0.3066  2.2469 -1.3742
  910MOL0     H25543   9.821   0.219   4.108  0.5214  1.7602 -1.6632
  910MOL0     H25544  10.040   0.254   3.998 -2.4815 -0.2027  3.9162
  910MOL0     H25545  10.030   0.109   4.098 -0.7710 -0.8673 -0.2283
  910MOL0     H25546  10.158  -0.014   3.928 -0.2624  0.4736 -1.0691
  910MOL0     H25547  10.190   0.122   3.834 -0.9189 -2.1143 -0.2453
  910MOL0     H25548  10.265   0.062   4.122 -1.2624 -1.6566 -1.0019
  910MOL0     H25549  10.309   0.225   4.048  3.0729  0.2455 -2.4436
  910MOL0     H25550  10.416  -0.057   3.986 -0.2318 -0.1405  0.3457
  910MOL0     H25551  10.519   0.070   4.047  0.8380 -2.9659 -0.8144
  910MOL0     H25552  10.430   0.017   3.768  1.1817  0.5004 -1.9804
  910MOL0     H25553  10.404   0.186   3.799 -2.1272 -0.9411 -1.2512
  910MOL0     H25554  10.673   0.049   3.854  0.9852  1.2819  2.6634
  910MOL0     H25555  10.644   0.210   3.867  2.6792 -0.6449 -0.3820
  910MOL0     H25556  10.748   0.172   3.654  0.0521 -1.2031  0.3718
  910MOL0     H25557  10.592   0.224   3.613  0.9646 -1.6800 -5.3420
  910MOL0     H25558  10.643   0.023   3.480  0.4774 -1.8183  0.6113
  910MOL0     H25559  10.501  -0.005   3.582 -0.7641  1.3309  2.5937
  910MOL0     H25560   9.769   0.005   3.740 -0.6733  1.8193 -1.5574
  910MOL0     H25561   9.537   0.032   3.746  1.5527 -0.2377 -0.2497
  910MOL0     H25562   9.189   0.427   3.709 -1.0756  0.9068 -0.1525
  910MOL0     H25563   8.971   0.468   3.729 -1.5739  0.0244  0.5116
  910MOL0     H25564   7.332   1.313   3.546 -0.9005  2.8976 -1.3830
  910MOL0     H25565   7.111   1.331   3.465  0.5306 -1.6169 -0.2402
  910MOL0     H25566   6.779   1.030   3.393  0.3242  0.3423  3.2583
  910MOL0     H25567   6.596   1.001   3.273 -1.0439 -1.2529  0.6641
  910MOL0     H25568   6.221   1.193   3.451  0.4124  0.4211  0.5497
  910MOL0     H25569   6.245   1.310   3.321 -1.4638 -0.2295  1.4849
  910MOL0     H25570   6.088   1.051   3.287  0.8083 -0.0261  0.3799
  910MOL0     H25571   6.144   1.147   3.158 -0.9174  1.2303 -0.3765
  910MOL0     H25572   5.937   1.273   3.375  0.3104 -0.1561  0.5398
  910MOL0     H25573   6.022   1.354   3.244 -3.5674  0.8833 -1.7687
  910MOL0     H25574   5.782   1.257   3.209  0.1647 -0.5777 -1.9140
  910MOL0     H25575   5.862   1.098   3.187  0.5481 -0.2869  0.2600
  910MOL0     H25576   5.918   1.322   2.830 -2.3735  0.5895  0.5138
  910MOL0     H25577   6.424   1.369   3.434  0.1475  0.5881  0.9365
  910MOL0     H25578   6.669   1.448   3.644  2.6084  0.8832 -0.7963
  910MOL0     H25579   6.704   1.515   3.487  0.1766  2.1848  2.0211
  910MOL0     H25580   6.529   1.501   3.547  0.5967  0.6271  2.9097
  911MOL0     O25581   7.506   9.738  11.214  0.4106 -0.7623  0.4250
  911MOL0     C25582   7.558   9.828  11.274 -0.4536  0.1961 -0.0654
  911MOL0     O25583   7.550   9.850  11.410 -0.6736  0.7884 -0.4805
  911MOL0     C25584   7.521   9.747  11.495  0.0687  0.2574  0.3360
  911MOL0     C25585   7.394   9.735  11.547  0.0749 -0.6203 -0.1278
  911MOL0     C25586   7.357   9.623  11.628 -0.5155 -0.7513 -0.6457
  911MOL0     C25587   7.454   9.529  11.663 -0.7039 -0.2954 -0.0450
  911MOL0     O25588   7.423   9.445  11.763 -0.9730 -0.0955  0.3112
  911MOL0     C25589   7.511   9.341  11.802 -0.5579 -0.0998  0.2312
  911MOL0     C25590   7.446   9.262  11.904 -0.0195  1.1076 -0.7671
  911MOL0     C25591   7.536   9.136  11.928  0.0528 -0.0260 -0.2107
  911MOL0     C25592   7.643   9.146  12.038  1.3339 -0.2219  0.9167
  911MOL0     C25593   7.736   9.027  12.038 -0.1660 -0.0877 -0.1159
  911MOL0     C25594   7.850   9.053  11.930 -0.4298 -0.2996 -0.0957
  911MOL0     C25595   7.957   8.938  11.923  0.4595  0.2556  0.4923
  911MOL0     C25596   8.065   8.967  11.816  0.1197  0.2503 -0.2521
  911MOL0     N25597   8.163   8.860  11.839  0.4247  0.9759  0.1422
  911MOL0     C25598   8.180   8.757  11.745  0.0998 -0.1535 -0.3086
  911MOL0     C25599   8.300   8.708  11.774 -0.1248  0.9238 -0.7291
  911MOL0     C25600   8.357   8.586  11.710  0.7780 -0.2166 -0.0830
  911MOL0     C25601   8.505   8.590  11.711  0.3147  0.1913  0.7862
  911MOL0     C25602   8.561   8.707  11.625  0.4902  0.1255  1.0372
  911MOL0     C25603   8.705   8.683  11.594  0.6838  0.1256  0.0676
  911MOL0     O25604   8.782   8.668  11.709  0.0792  0.2049  0.0047
  911MOL0     C25605   8.915   8.626  11.703  0.7054 -0.6079  0.5355
  911MOL0     C25606   8.980   8.602  11.822 -0.5047  0.2372 -0.0870
  911MOL0     C25607   9.118   8.559  11.828 -0.6803 -0.7355  0.4442
  911MOL0     C25608   9.182   8.536  11.967  0.7217 -0.2742  0.1667
  911MOL0     C25609   9.192   8.546  11.706  0.0642 -0.4006 -1.1407
  911MOL0     C25610   9.342   8.502  11.702  0.1765 -0.4431 -0.9862
  911MOL0     O25611   9.401   8.517  11.581  0.5615 -0.3751  0.0966
  911MOL0     C25612   9.538   8.510  11.567  0.0837 -0.0132 -0.8843
  911MOL0     C25613   9.624   8.545  11.673  0.0849 -0.1718 -0.1082
  911MOL0     C25614   9.758   8.560  11.647  0.7502  0.3497  0.0447
  911MOL0     C25615   9.806   8.524  11.526 -0.6680 -0.6440 -0.1435
  911MOL0     O25616   9.940   8.502  11.520  0.1242 -0.0067  0.3303
  911MOL0     C25617   9.984   8.415  11.614 -0.0423 -0.7280 -0.2840
  911MOL0     C25618  10.106   8.329  11.571 -1.1900  0.1501 -0.7291
  911MOL0     C25619  10.226   8.411  11.518  0.7606  0.0914  0.0731
  911MOL0     C25620  10.334   8.342  11.440 -0.4129  0.4907 -0.7675
  911MOL0     C25621  10.431   8.432  11.357 -0.5701  0.2430 -0.2369
  911MOL0     C25622  10.504   8.541  11.433  0.4359  0.1390 -0.7757
  911MOL0     C25623  10.616   8.610  11.344  0.2638 -0.1689 -0.0257
  911MOL0     C25624  10.692   8.717  11.423 -0.1563  0.1081  0.0239
  911MOL0    Cl25625  10.586   8.849  11.484  0.0449 -0.3792  0.2028
  911MOL0     C25626   9.725   8.484  11.422 -0.3216  0.5542 -0.4999
  911MOL0     C25627   9.592   8.485  11.443 -0.2737 -1.2438  0.4295
  911MOL0     O25628   9.391   8.462  11.804  0.3404  0.2731  0.1631
  911MOL0     C25629   9.123   8.585  11.584 -0.0627  0.5345  0.2468
  911MOL0     C25630   8.987   8.622  11.587 -0.0282  0.6164  1.2922
  911MOL0     N25631   8.331   8.760  11.902  0.2013 -0.4816  1.1991
  911MOL0     N25632   8.253   8.854  11.938  0.2357  0.8763  0.0034
  911MOL0     C25633   7.579   9.540  11.612 -0.2630  0.6081  0.5541
  911MOL0     C25634   7.616   9.647  11.521 -0.4506 -0.2246 -0.0396
  911MOL0     C25635   7.636   9.932  11.207  0.0668  0.7321  0.2020
  911MOL0     C25636   7.778   9.930  11.216 -0.6957  0.4671 -1.0660
  911MOL0     C25637   7.859  10.032  11.165 -0.4712  0.8364 -0.4419
  911MOL0     C25638   7.802  10.134  11.094 -0.9680 -0.3631  0.5572
  911MOL0     O25639   7.887  10.224  11.027 -0.0605  0.3022 -0.2477
  911MOL0     C25640   7.838  10.355  10.990 -0.3624 -0.6142 -0.1549
  911MOL0     C25641   7.960  10.447  11.013  0.1763  0.2369  0.4483
  911MOL0     C25642   8.005  10.461  11.161  0.0635 -1.1479 -0.3859
  911MOL0     C25643   8.119  10.565  11.185  0.7862  0.0594 -0.5084
  911MOL0     C25644   8.165  10.532  11.324  0.2015 -0.8085  0.4650
  911MOL0     C25645   8.212  10.516  11.435  0.7361  0.7532  0.3177
  911MOL0     C25646   7.661  10.132  11.080  0.3623  0.2908 -0.8112
  911MOL0     C25647   7.578  10.034  11.132 -0.1058 -0.2570  0.3746
  911MOL0     C25648   7.434  10.051  11.099  0.2337  0.3363  0.6873
  911MOL0     H25649   7.321   9.810  11.517  0.0195 -0.2946  0.7960
  911MOL0     H25650   7.261   9.620  11.679 -0.7422 -1.7318 -1.0947
  911MOL0     H25651   7.605   9.384  11.840  0.7450 -2.5596  0.0022
  911MOL0     H25652   7.556   9.282  11.722 -0.0096  0.8992 -0.2175
  911MOL0     H25653   7.438   9.322  11.995  4.4083 -1.2161  1.4945
  911MOL0     H25654   7.350   9.232  11.860 -0.3835  1.5534 -0.2890
  911MOL0     H25655   7.464   9.055  11.945  1.3997 -1.8537 -2.5978
  911MOL0     H25656   7.587   9.114  11.833  0.1841  2.7076 -0.8535
  911MOL0     H25657   7.702   9.237  12.025  0.7279  0.0507 -0.0689
  911MOL0     H25658   7.591   9.148  12.134  0.9823  2.5926  0.7569
  911MOL0     H25659   7.678   8.942  12.001  0.2306  0.2360 -1.5511
  911MOL0     H25660   7.791   9.015  12.132  0.0343  1.1195 -0.0631
  911MOL0     H25661   7.798   9.057  11.834 -0.5126 -3.1566 -0.2439
  911MOL0     H25662   7.898   9.151  11.935 -1.8885  0.3831  1.8328
  911MOL0     H25663   7.905   8.845  11.901 -0.8112  0.3948  2.6865
  911MOL0     H25664   8.012   8.919  12.015  1.4147 -2.9206 -0.6178
  911MOL0     H25665   8.033   8.952  11.712  1.2963 -0.7062 -0.4950
  911MOL0     H25666   8.116   9.062  11.834  3.3789 -0.9604 -2.2349
  911MOL0     H25667   8.117   8.724  11.662  0.2715 -0.1877 -0.4266
  911MOL0     H25668   8.313   8.576  11.610  4.5879  0.2989 -1.9691
  911MOL0     H25669   8.326   8.511  11.784  2.2315  0.0083  0.7827
  911MOL0     H25670   8.545   8.590  11.812 -0.9737  1.0862  1.3255
  911MOL0     H25671   8.541   8.497  11.665  2.5212  1.4303 -0.1792
  911MOL0     H25672   8.500   8.712  11.535 -2.1897  2.8043  2.7801
  911MOL0     H25673   8.549   8.809  11.662  0.0189  2.0652 -3.7664
  911MOL0     H25674   8.713   8.609  11.514 -3.8009  2.0424 -2.5785
  911MOL0     H25675   8.737   8.772  11.539  0.7313 -0.7125 -1.3019
  911MOL0     H25676   8.931   8.597  11.918  0.2218 -1.4261  0.2285
  911MOL0     H25677   9.188   8.427  11.983 -0.8172 -0.8979 -2.8687
  911MOL0     H25678   9.112   8.583  12.037 -5.3615 -3.0552 -3.2663
  911MOL0     H25679   9.282   8.579  11.982  2.0999 -2.1469 -2.7085
  911MOL0     H25680   9.589   8.569  11.773 -1.3490  1.8560 -1.0079
  911MOL0     H25681   9.826   8.585  11.729 -0.6072 -1.4524  1.8211
  911MOL0     H25682  10.024   8.466  11.702 -2.5656 -1.5975  1.4895
  911MOL0     H25683   9.909   8.344  11.651  0.5305 -1.2037 -0.0276
  911MOL0     H25684  10.137   8.260  11.650 -3.4711 -0.4171 -0.2693
  911MOL0     H25685  10.064   8.262  11.495  2.1600 -0.6927 -2.0211
  911MOL0     H25686  10.254   8.478  11.599 -2.9521  0.9516  0.8692
  911MOL0     H25687  10.177   8.480  11.449  1.5716  1.5448  0.8978
  911MOL0     H25688  10.286   8.271  11.372 -0.6829  0.4974 -0.5863
  911MOL0     H25689  10.383   8.279  11.516 -0.7139  1.2446  0.0719
  911MOL0     H25690  10.508   8.370  11.310 -0.6156 -0.0855  0.1252
  911MOL0     H25691  10.383   8.477  11.269  3.0672 -1.7950 -3.6270
  911MOL0     H25692  10.563   8.505  11.518  2.3137 -2.7302 -3.1177
  911MOL0     H25693  10.429   8.607  11.478  1.6953  1.3701 -0.4078
  911MOL0     H25694  10.577   8.649  11.249  1.3723  1.6985  0.2247
  911MOL0     H25695  10.685   8.530  11.319 -0.6706 -1.1159  0.3639
  911MOL0     H25696  10.775   8.754  11.362 -0.8760  3.0923  0.7385
  911MOL0     H25697  10.739   8.672  11.512  1.1199  2.2949  0.5433
  911MOL0     H25698   9.756   8.467  11.319 -0.0829 -0.0002 -0.3397
  911MOL0     H25699   9.526   8.463  11.360  0.2193 -2.9297  0.4508
  911MOL0     H25700   9.173   8.579  11.488 -2.5946 -0.6343 -1.1074
  911MOL0     H25701   8.940   8.656  11.495 -2.0006 -0.2637  1.9162
  911MOL0     H25702   7.661   9.470  11.622 -1.1892 -1.0170 -2.0957
  911MOL0     H25703   7.705   9.662  11.460  1.0307 -0.0385  2.0781
  911MOL0     H25704   7.818   9.846  11.273 -0.2439  0.4122 -1.4562
  911MOL0     H25705   7.967  10.024  11.168 -0.4504  1.3457  0.9573
  911MOL0     H25706   7.820  10.376  10.884 -0.1695  1.4781  0.1874
  911MOL0     H25707   7.749  10.386  11.046 -0.7250 -0.1112 -0.9938
  911MOL0     H25708   7.933  10.549  10.987  0.4995  0.1008 -0.4728
  911MOL0     H25709   8.048  10.436  10.948  1.6174  1.5379  2.0678
  911MOL0     H25710   7.916  10.479  11.222  1.1452 -1.9469  1.5066
  911MOL0     H25711   8.043  10.361  11.184 -0.6400 -1.8628 -2.1514
  911MOL0     H25712   8.073  10.664  11.190  0.4076 -0.0168 -1.9386
  911MOL0     H25713   8.190  10.564  11.102 -0.1243  2.1466 -1.3672
  911MOL0     H25714   8.249  10.494  11.533 -2.9532  0.6411  1.8854
  911MOL0     H25715   7.604  10.213  11.036 -0.9752 -0.2972 -0.2289
  911MOL0     H25716   7.384   9.954  11.113  0.9028  0.0533  1.2153
  911MOL0     H25717   7.381  10.117  11.168 -2.0251 -0.6042 -0.0536
  911MOL0     H25718   7.412  10.076  10.995  0.5101 -0.2553  0.4820
  912MOL0     O25719   2.961   0.502   2.173  0.6839  0.1112 -0.0940
  912MOL0     C25720   2.964   0.490   2.298  0.5037 -1.0995 -0.6259
  912MOL0     O25721   3.015   0.579   2.387 -0.4907 -0.7534 -0.3210
  912MOL0     C25722   3.072   0.700   2.338  0.4895  1.0233  0.2437
  912MOL0     C25723   2.991   0.789   2.274 -0.0957 -0.4213  0.1673
  912MOL0     C25724   3.049   0.913   2.243 -0.6783  0.3356  0.1820
  912MOL0     C25725   3.192   0.932   2.258 -0.0876  0.2502 -0.4471
  912MOL0     O25726   3.267   1.032   2.217 -0.7424  0.2807  0.3193
  912MOL0     C25727   3.203   1.161   2.200 -0.0397  0.0168  0.3153
  912MOL0     C25728   3.296   1.277   2.178 -0.4563 -0.8229 -0.2947
  912MOL0     C25729   3.248   1.368   2.068  0.5345  0.3747  1.2644
  912MOL0     C25730   3.342   1.489   2.052 -0.8149  0.4143 -1.0402
  912MOL0     C25731   3.280   1.596   1.967 -0.0911  0.1722 -0.7741
  912MOL0     C25732   3.223   1.569   1.821 -0.3233  0.1354 -0.2090
  912MOL0     C25733   3.332   1.527   1.723 -0.4940 -0.2713  0.3915
  912MOL0     C25734   3.421   1.644   1.681 -0.1786 -0.3528  0.0755
  912MOL0     N25735   3.557   1.605   1.624  0.6919 -0.4567 -0.2950
  912MOL0     C25736   3.644   1.521   1.692  0.1915 -0.7642  0.2752
  912MOL0     C25737   3.727   1.468   1.600  0.1318 -0.1302  0.3746
  912MOL0     C25738   3.836   1.359   1.621  0.7222  0.7409 -0.1464
  912MOL0     C25739   3.971   1.413   1.674 -0.0320  0.2694 -0.4898
  912MOL0     C25740   4.070   1.299   1.694  0.3677 -0.7439 -0.6012
  912MOL0     C25741   4.208   1.349   1.713  0.0499 -0.1367 -1.0385
  912MOL0     O25742   4.209   1.434   1.831 -0.2805  0.0177  0.0353
  912MOL0     C25743   4.317   1.524   1.830  0.6837 -0.1281 -0.8236
  912MOL0     C25744   4.437   1.507   1.745 -0.3167 -0.4040  0.5586
  912MOL0     C25745   4.556   1.579   1.760  1.1471  0.2290  0.5956
  912MOL0     C25746   4.675   1.541   1.680 -0.1336 -0.0631 -0.2140
  912MOL0     C25747   4.554   1.689   1.853 -0.7502 -0.3926  0.4811
  912MOL0     C25748   4.682   1.774   1.879 -1.0823 -0.5163 -0.7459
  912MOL0     O25749   4.802   1.757   1.805  0.2723  0.6495 -0.1682
  912MOL0     C25750   4.892   1.854   1.828 -0.3207 -0.3653  0.0831
  912MOL0     C25751   5.019   1.818   1.870 -1.2068 -0.1302  0.8389
  912MOL0     C25752   5.116   1.915   1.892 -0.3138  0.2653 -0.4556
  912MOL0     C25753   5.097   2.052   1.855  0.3360  0.1539 -0.6544
  912MOL0     O25754   5.187   2.146   1.897 -0.0289  0.3503  0.3130
  912MOL0     C25755   5.325   2.137   1.839  0.2654  0.3233  0.1606
  912MOL0     C25756   5.434   2.145   1.947  0.5934 -0.4740  0.0665
  912MOL0     C25757   5.554   2.057   1.910 -0.5954 -1.1032  0.6622
  912MOL0     C25758   5.662   2.072   2.016 -0.6079 -0.2626  1.1652
  912MOL0     C25759   5.764   1.966   1.988 -0.0524  0.3755  0.7787
  912MOL0     C25760   5.904   2.028   1.956  0.4019  0.0343 -0.4398
  912MOL0     C25761   6.006   1.936   1.904  0.1333 -0.3994  0.7306
  912MOL0     C25762   6.132   2.006   1.851 -0.0655 -0.9330 -0.9514
  912MOL0    Cl25763   6.232   1.902   1.766 -0.5425 -0.3637 -0.0839
  912MOL0     C25764   4.973   2.082   1.802  0.4578  0.1735 -0.4003
  912MOL0     C25765   4.866   1.985   1.787 -0.8314 -0.4427  0.2888
  912MOL0     O25766   4.673   1.846   1.983  0.1690  0.1079 -1.1918
  912MOL0     C25767   4.436   1.701   1.939 -0.7966  0.2507 -0.5179
  912MOL0     C25768   4.322   1.625   1.927  0.2923  0.7037  0.7641
  912MOL0     N25769   3.710   1.551   1.490 -0.2591  0.0850 -0.1481
  912MOL0     N25770   3.602   1.629   1.501 -0.7929  0.2827 -0.3934
  912MOL0     C25771   3.263   0.832   2.333  0.5890  0.4368  0.6276
  912MOL0     C25772   3.203   0.713   2.364  0.1411 -0.3932 -0.1583
  912MOL0     C25773   2.920   0.360   2.356 -0.3265 -0.2853 -0.2347
  912MOL0     C25774   2.966   0.318   2.481  0.4518  0.0604  0.1749
  912MOL0     C25775   2.954   0.193   2.528  0.3003  0.2347  0.2488
  912MOL0     C25776   2.877   0.101   2.456 -0.2504 -0.3993 -0.1021
  912MOL0     O25777   2.852  -0.032   2.492  0.2385 -0.4248 -0.0147
  912MOL0     C25778   2.954  -0.099   2.569 -0.0615  0.0046  0.2405
  912MOL0     C25779   2.927  -0.243   2.592  0.0769  0.3176 -0.4631
  912MOL0     C25780   2.790  -0.276   2.635 -0.1488  0.0395 -0.0874
  912MOL0     C25781   2.788  -0.430   2.650 -1.0863 -0.7144  0.1363
  912MOL0     C25782   2.647  -0.476   2.667  1.3951  0.0609  1.0981
  912MOL0     C25783   2.534  -0.516   2.677 -0.1700  0.2851  0.1727
  912MOL0     C25784   2.815   0.138   2.340  0.2958 -0.0441 -0.2295
  912MOL0     C25785   2.832   0.261   2.282 -1.2871 -1.1068  0.0822
  912MOL0     C25786   2.761   0.287   2.151 -0.7231  0.1308 -0.2104
  912MOL0     H25787   2.884   0.778   2.257  0.0350  0.2684 -1.2491
  912MOL0     H25788   2.992   0.995   2.200 -1.2613  0.7132  1.6044
  912MOL0     H25789   3.139   1.177   2.287 -2.6301 -2.2366 -1.0474
  912MOL0     H25790   3.131   1.139   2.121 -0.5373  2.4040  0.0467
  912MOL0     H25791   3.298   1.334   2.271 -1.1058 -1.0536 -0.1334
  912MOL0     H25792   3.396   1.242   2.149 -0.4147  1.2125 -2.9644
  912MOL0     H25793   3.246   1.307   1.976 -3.3847  1.8909  0.1661
  912MOL0     H25794   3.150   1.410   2.093  0.7315  0.8230  1.2871
  912MOL0     H25795   3.348   1.529   2.154 -3.1440  2.7221 -1.6883
  912MOL0     H25796   3.441   1.464   2.013 -0.5027 -0.3067  0.1542
  912MOL0     H25797   3.359   1.668   1.946 -0.0300  0.2629 -0.2350
  912MOL0     H25798   3.203   1.640   2.031 -1.7383 -1.0553 -1.8189
  912MOL0     H25799   3.151   1.487   1.823 -0.3087  0.0697 -1.4350
  912MOL0     H25800   3.176   1.660   1.783 -1.3137  0.0092  0.6712
  912MOL0     H25801   3.273   1.492   1.637 -2.8291 -2.0019  2.5423
  912MOL0     H25802   3.384   1.437   1.758 -1.6132 -2.9494 -4.0202
  912MOL0     H25803   3.368   1.688   1.596  2.1441 -0.7612 -1.6846
  912MOL0     H25804   3.439   1.717   1.761  1.9610  2.0059 -2.3424
  912MOL0     H25805   3.635   1.485   1.794 -2.3543  0.3993  0.5250
  912MOL0     H25806   3.850   1.317   1.521  3.1217  2.4351 -0.6023
  912MOL0     H25807   3.810   1.271   1.680  0.6288 -0.1044 -1.4106
  912MOL0     H25808   4.006   1.485   1.599 -0.9494 -0.7243 -1.9271
  912MOL0     H25809   3.959   1.471   1.766 -1.0317  0.0040 -0.4399
  912MOL0     H25810   4.041   1.242   1.783  0.0756  1.6372  0.9482
  912MOL0     H25811   4.073   1.231   1.609  1.6875 -2.1117  0.4827
  912MOL0     H25812   4.273   1.264   1.737  0.8387  0.7287 -0.0425
  912MOL0     H25813   4.229   1.391   1.615  0.1636  1.0509 -0.5249
  912MOL0     H25814   4.444   1.420   1.681 -1.6017  0.9950 -1.5892
  912MOL0     H25815   4.763   1.527   1.744 -2.3737  2.6630  3.9022
  912MOL0     H25816   4.700   1.628   1.617  1.7489 -1.2187 -1.1672
  912MOL0     H25817   4.654   1.459   1.611 -1.7618 -1.1575  1.4994
  912MOL0     H25818   5.048   1.714   1.887  4.6861  1.2983  1.6153
  912MOL0     H25819   5.213   1.899   1.936 -0.6709 -0.1316  0.2022
  912MOL0     H25820   5.336   2.041   1.788  2.6651  0.4691  0.2922
  912MOL0     H25821   5.332   2.221   1.771 -0.9362 -0.2842 -0.7576
  912MOL0     H25822   5.475   2.246   1.955  0.7271 -0.2508 -2.5327
  912MOL0     H25823   5.398   2.111   2.045  3.3750  1.0834  1.7857
  912MOL0     H25824   5.594   2.084   1.811  0.4436 -0.9953  1.1011
  912MOL0     H25825   5.532   1.951   1.898  1.2168 -1.4517  0.1108
  912MOL0     H25826   5.609   2.060   2.111  0.7083  1.8566  2.2690
  912MOL0     H25827   5.708   2.172   2.018 -0.6475 -0.0382 -2.6491
  912MOL0     H25828   5.780   1.905   2.078  1.2039 -0.1405  0.2375
  912MOL0     H25829   5.733   1.897   1.909 -0.1584  0.9914  0.2798
  912MOL0     H25830   5.940   2.068   2.051 -1.7171  2.1341 -0.4303
  912MOL0     H25831   5.894   2.110   1.883 -1.1395 -0.7918 -1.2044
  912MOL0     H25832   5.950   1.878   1.831  2.2544 -1.9563  0.2659
  912MOL0     H25833   6.041   1.866   1.980  1.5529 -0.6567 -0.1358
  912MOL0     H25834   6.184   2.045   1.939 -1.5278 -0.1505 -0.4036
  912MOL0     H25835   6.108   2.090   1.784  0.9131  0.7443  0.6994
  912MOL0     H25836   4.960   2.187   1.776  0.3385 -0.0610 -1.2900
  912MOL0     H25837   4.765   2.012   1.759 -1.0565 -0.5179  1.0052
  912MOL0     H25838   4.432   1.782   2.011  4.7913  1.4738 -1.0740
  912MOL0     H25839   4.229   1.637   1.982 -0.1926 -0.5920  0.2753
  912MOL0     H25840   3.368   0.853   2.355  1.1419 -1.9277  0.4420
  912MOL0     H25841   3.264   0.646   2.424  0.4877  1.3293  1.5337
  912MOL0     H25842   3.036   0.383   2.533  1.2040  0.8251 -1.7264
  912MOL0     H25843   3.015   0.157   2.610 -0.0093 -0.5470  0.1480
  912MOL0     H25844   3.048  -0.086   2.515 -0.0507  1.9155  0.6433
  912MOL0     H25845   2.962  -0.052   2.668  1.9182 -2.3004  1.3088
  912MOL0     H25846   2.984  -0.281   2.677 -4.4277 -4.2219  1.0447
  912MOL0     H25847   2.962  -0.298   2.504  1.5533  1.3082 -0.5373
  912MOL0     H25848   2.769  -0.221   2.727  1.6218  0.3458  0.1728
  912MOL0     H25849   2.724  -0.244   2.554 -0.1019  1.7439  0.5028
  912MOL0     H25850   2.856  -0.448   2.735  1.1974  0.1272 -1.4008
  912MOL0     H25851   2.835  -0.491   2.572  2.2560  0.0719  1.3547
  912MOL0     H25852   2.431  -0.547   2.672  0.2765 -1.0038 -1.8825
  912MOL0     H25853   2.755   0.064   2.289  0.1033 -0.5114  0.6528
  912MOL0     H25854   2.693   0.211   2.110 -1.4245  1.4387 -1.5893
  912MOL0     H25855   2.693   0.371   2.166 -3.3299 -2.1326  1.7502
  912MOL0     H25856   2.836   0.311   2.075 -1.6793  0.1277 -1.1883
  913MOL0     O25857   1.254   6.661   5.055 -0.3393  1.2670 -0.2946
  913MOL0     C25858   1.180   6.653   5.149  0.9984 -0.3282 -0.4932
  913MOL0     O25859   1.211   6.673   5.278  0.0573  0.2060 -0.3763
  913MOL0     C25860   1.328   6.725   5.318  0.5356 -0.8165 -0.0693
  913MOL0     C25861   1.403   6.828   5.256  1.1594  0.5333  0.7398
  913MOL0     C25862   1.514   6.889   5.317 -0.0403  0.2976  0.5801
  913MOL0     C25863   1.556   6.845   5.440  0.3106  0.2223  0.2428
  913MOL0     O25864   1.669   6.895   5.497  0.2298  0.3378 -0.2829
  913MOL0     C25865   1.760   6.809   5.556 -0.9755  0.3014 -1.2461
  913MOL0     C25866   1.904   6.870   5.530 -0.0002  0.6413 -0.1883
  913MOL0     C25867   2.018   6.779   5.586  0.2778 -0.0602 -0.0832
  913MOL0     C25868   2.146   6.864   5.592  0.4463  0.1174 -0.5279
  913MOL0     C25869   2.257   6.806   5.673 -0.5925 -0.3376  0.5678
  913MOL0     C25870   2.337   6.704   5.596  0.2084 -0.2264 -1.1652
  913MOL0     C25871   2.426   6.620   5.686  0.4988 -0.1157 -0.0961
  913MOL0     C25872   2.561   6.589   5.622 -0.2093  0.3687 -0.1313
  913MOL0     N25873   2.640   6.475   5.687  0.3842  0.2224  0.3195
  913MOL0     C25874   2.693   6.473   5.809 -0.1942  0.0874 -0.2097
  913MOL0     C25875   2.751   6.356   5.809  0.1367 -0.7171  0.0116
  913MOL0     C25876   2.819   6.296   5.930  0.4144  1.0038  0.6453
  913MOL0     C25877   2.953   6.232   5.893 -0.5462 -0.5668 -0.6811
  913MOL0     C25878   3.046   6.233   6.020 -0.5109  0.1255 -0.6838
  913MOL0     C25879   3.186   6.213   5.974  0.1212 -0.1946  0.4029
  913MOL0     O25880   3.277   6.267   6.072 -0.4882  0.1458  0.4131
  913MOL0     C25881   3.414   6.287   6.059 -1.5555  0.4404  1.0288
  913MOL0     C25882   3.491   6.327   6.170  1.2081 -0.2105  0.0778
  913MOL0     C25883   3.630   6.300   6.176  0.5556  0.3625 -0.4193
  913MOL0     C25884   3.703   6.347   6.302 -0.5928 -0.4505  0.5538
  913MOL0     C25885   3.693   6.237   6.068 -0.5394 -0.5063 -0.1962
  913MOL0     C25886   3.838   6.203   6.069  0.1552  0.1631 -0.9337
  913MOL0     O25887   3.891   6.180   5.945 -0.4741  0.2797 -0.1441
  913MOL0     C25888   4.019   6.144   5.923 -0.1358 -0.3478 -0.4053
  913MOL0     C25889   4.037   6.090   5.793 -0.0399  1.0635 -0.2150
  913MOL0     C25890   4.163   6.047   5.744  0.7786  0.5224 -0.2139
  913MOL0     C25891   4.268   6.041   5.830  0.5031 -0.4430  0.3397
  913MOL0     O25892   4.391   6.005   5.780 -0.7116 -0.0859  0.9856
  913MOL0     C25893   4.467   5.907   5.860  0.1473 -0.1559  0.7739
  913MOL0     C25894   4.393   5.770   5.862  0.4744  0.8867  0.2592
  913MOL0     C25895   4.395   5.687   5.730  0.6825  0.1294  0.9763
  913MOL0     C25896   4.531   5.622   5.692  0.7376 -0.5434 -0.2591
  913MOL0     C25897   4.509   5.550   5.559  1.0120 -0.1196 -1.2478
  913MOL0     C25898   4.629   5.468   5.515 -0.1421 -0.2260  0.1044
  913MOL0     C25899   4.752   5.564   5.508 -0.4073 -0.8380  0.7161
  913MOL0     C25900   4.874   5.498   5.438 -0.2667 -1.0379  0.6866
  913MOL0    Cl25901   4.838   5.422   5.282  0.3920 -0.4654  0.3366
  913MOL0     C25902   4.255   6.091   5.956  0.2534 -0.3208 -0.1087
  913MOL0     C25903   4.135   6.146   6.007  0.4306 -0.2803  0.5504
  913MOL0     O25904   3.901   6.199   6.174  0.1288  0.5069 -0.6019
  913MOL0     C25905   3.620   6.194   5.957  0.5044  0.2791  0.6683
  913MOL0     C25906   3.484   6.229   5.948 -0.5550  0.3050 -0.0176
  913MOL0     N25907   2.738   6.288   5.688 -0.0318 -0.5595  0.6657
  913MOL0     N25908   2.663   6.363   5.617  0.1036  0.1687 -0.1544
  913MOL0     C25909   1.485   6.744   5.510 -0.8779  0.1233  0.4086
  913MOL0     C25910   1.377   6.674   5.441  0.0898 -0.3166 -0.7549
  913MOL0     C25911   1.034   6.626   5.135 -0.6316  0.6270 -0.6748
  913MOL0     C25912   0.971   6.555   5.235  0.4037  0.8513 -0.2887
  913MOL0     C25913   0.835   6.530   5.242  0.0207 -0.2278  0.2354
  913MOL0     C25914   0.753   6.580   5.141 -0.6734 -0.4072  0.1944
  913MOL0     O25915   0.621   6.564   5.150 -0.0023 -0.1153 -0.2609
  913MOL0     C25916   0.573   6.433   5.112 -0.0804  1.2280 -0.1433
  913MOL0     C25917   0.526   6.426   4.959 -0.2191 -0.1381  0.6963
  913MOL0     C25918   0.422   6.534   4.943  0.4651  0.0766 -0.1243
  913MOL0     C25919   0.354   6.538   4.814  0.1849  0.7478 -0.2568
  913MOL0     C25920   0.240   6.441   4.806  0.1939  0.0816 -0.8244
  913MOL0     C25921   0.145   6.363   4.799 -0.7388  0.0916 -0.4595
  913MOL0     C25922   0.813   6.642   5.032 -0.1348  0.5595  0.3520
  913MOL0     C25923   0.951   6.661   5.026  0.2771 -0.1960 -0.9878
  913MOL0     C25924   1.009   6.741   4.918 -0.1749  0.3139  0.2673
  913MOL0     H25925   1.371   6.853   5.156 -2.2178  0.9537  1.8023
  913MOL0     H25926   1.576   6.961   5.264  0.8037 -2.6802 -2.9323
  913MOL0     H25927   1.747   6.708   5.516 -0.0348 -0.4487  0.2429
  913MOL0     H25928   1.732   6.798   5.662 -1.1812 -2.7860 -1.5251
  913MOL0     H25929   1.909   6.880   5.421  0.6031  0.8225 -0.1469
  913MOL0     H25930   1.901   6.970   5.575  0.8919  1.1060 -1.1267
  913MOL0     H25931   1.992   6.739   5.685  0.1019  2.5404  1.0130
  913MOL0     H25932   2.027   6.702   5.509  3.1204  0.8645 -0.7887
  913MOL0     H25933   2.181   6.881   5.490  0.4853 -0.8145 -0.6786
  913MOL0     H25934   2.122   6.963   5.632 -0.2276  0.3041 -1.3395
  913MOL0     H25935   2.212   6.767   5.764 -2.0869  1.5003  0.6739
  913MOL0     H25936   2.318   6.892   5.700 -0.8586 -0.0679  0.3165
  913MOL0     H25937   2.271   6.631   5.548  1.7708 -2.0128 -0.7193
  913MOL0     H25938   2.393   6.756   5.517  2.6707  1.7495  1.6622
  913MOL0     H25939   2.376   6.525   5.706 -2.9933  1.3179 -1.3245
  913MOL0     H25940   2.428   6.685   5.774 -3.1443 -0.3979  0.3597
  913MOL0     H25941   2.555   6.556   5.517  0.0247 -0.9078  0.2338
  913MOL0     H25942   2.617   6.682   5.621  2.1501 -0.9568 -0.9909
  913MOL0     H25943   2.693   6.545   5.890  0.2423  0.4388 -0.5121
  913MOL0     H25944   2.751   6.223   5.975 -1.1847  1.6968 -0.5458
  913MOL0     H25945   2.827   6.371   6.009  0.1002  1.1264  0.5628
  913MOL0     H25946   2.946   6.126   5.866 -0.0943 -0.9235  0.5366
  913MOL0     H25947   2.995   6.294   5.813 -0.7846  0.3051 -0.1514
  913MOL0     H25948   3.046   6.330   6.071  1.3139  0.7093 -1.6987
  913MOL0     H25949   3.024   6.159   6.097  2.1911  0.6171  0.6924
  913MOL0     H25950   3.203   6.105   5.962  0.1758 -0.0388 -1.1331
  913MOL0     H25951   3.213   6.261   5.880  0.0977  0.2158  0.6051
  913MOL0     H25952   3.443   6.380   6.252  2.1799 -1.0960  1.2592
  913MOL0     H25953   3.784   6.411   6.265 -0.7826 -1.0128 -0.9355
  913MOL0     H25954   3.735   6.259   6.359 -2.0817 -0.5125  1.3416
  913MOL0     H25955   3.647   6.412   6.370 -2.7134 -0.7626 -0.7990
  913MOL0     H25956   3.944   6.073   5.739 -0.5116 -2.5652  1.4470
  913MOL0     H25957   4.174   6.020   5.640  1.9159  1.5954 -0.3927
  913MOL0     H25958   4.567   5.903   5.815 -0.4981  1.7003 -0.9751
  913MOL0     H25959   4.495   5.945   5.959  0.3420  0.3513  0.5312
  913MOL0     H25960   4.438   5.708   5.941 -1.9893  0.5423  1.4763
  913MOL0     H25961   4.293   5.783   5.903  1.0634 -3.2896  3.8613
  913MOL0     H25962   4.351   5.739   5.644  0.0618 -1.2823  0.4143
  913MOL0     H25963   4.320   5.609   5.744 -1.8498  2.1094 -0.6332
  913MOL0     H25964   4.556   5.550   5.772  4.4371  2.0299  1.1984
  913MOL0     H25965   4.605   5.701   5.704 -1.5053  1.4656  1.1854
  913MOL0     H25966   4.414   5.496   5.564  0.5870  0.5374  3.9648
  913MOL0     H25967   4.499   5.627   5.482  0.2022  0.5138 -0.5342
  913MOL0     H25968   4.593   5.427   5.421 -4.7022 -1.9242  2.3084
  913MOL0     H25969   4.640   5.387   5.588 -2.6824 -1.3884 -0.6933
  913MOL0     H25970   4.769   5.583   5.614  1.1081 -2.9087  0.9144
  913MOL0     H25971   4.730   5.653   5.449 -4.3875 -1.6565  0.6728
  913MOL0     H25972   4.904   5.417   5.506 -0.1568 -1.2566  0.3813
  913MOL0     H25973   4.948   5.575   5.419 -2.3519  0.6310 -1.1397
  913MOL0     H25974   4.341   6.092   6.022  0.4002 -0.6831 -0.2917
  913MOL0     H25975   4.125   6.202   6.099 -1.6982 -0.9644  0.7776
  913MOL0     H25976   3.663   6.128   5.883  1.1938 -0.3136  1.5786
  913MOL0     H25977   3.433   6.181   5.865 -1.3290 -1.1884  1.2548
  913MOL0     H25978   1.514   6.703   5.606 -2.1940 -1.6148  0.1204
  913MOL0     H25979   1.337   6.590   5.497  0.8651  1.2180  2.3476
  913MOL0     H25980   1.034   6.511   5.312  0.1713 -0.3613 -0.7741
  913MOL0     H25981   0.786   6.471   5.319 -1.6782 -0.5935 -1.0673
  913MOL0     H25982   0.642   6.349   5.118  0.8978  2.0746  0.7415
  913MOL0     H25983   0.489   6.409   5.178  1.7518  2.4022  2.8047
  913MOL0     H25984   0.488   6.325   4.942  4.2267 -2.2438  1.7466
  913MOL0     H25985   0.606   6.452   4.889 -2.6982  0.6213 -2.0535
  913MOL0     H25986   0.342   6.519   5.016  0.3057  1.0042 -0.0965
  913MOL0     H25987   0.459   6.636   4.957  1.9879  0.0991 -3.3817
  913MOL0     H25988   0.434   6.504   4.749  2.2834 -1.3506  3.1159
  913MOL0     H25989   0.305   6.626   4.772 -3.6430 -1.0648 -0.0520
  913MOL0     H25990   0.055   6.306   4.792 -1.6388  1.1232  1.7469
  913MOL0     H25991   0.755   6.679   4.948 -0.2440 -2.6333 -1.1607
  913MOL0     H25992   1.066   6.824   4.959  2.2308 -0.6380 -0.9675
  913MOL0     H25993   1.081   6.681   4.861  0.6186  0.9536  0.5795
  913MOL0     H25994   0.941   6.781   4.843  1.0299  0.7166 -0.6398
  914MOL0     O25995   4.532  11.141   0.262  0.0861  0.8472 -0.3483
  914MOL0     C25996   4.539  11.167   0.378 -0.5519  0.6802  0.8744
  914MOL0     O25997   4.651  11.221   0.449  0.5876  1.1905 -0.4406
  914MOL0     C25998   4.764  11.274   0.393  0.2935 -0.6263  0.1045
  914MOL0     C25999   4.862  11.292   0.486  0.3293 -0.6100 -0.8851
  914MOL0     C26000   4.966  11.366   0.444 -0.0025 -0.4815  0.3855
  914MOL0     C26001   5.002  11.393   0.309  0.8057  0.0151  0.1563
  914MOL0     O26002   5.109  11.470   0.296 -0.0865 -0.4765 -0.1509
  914MOL0     C26003   5.159  11.510   0.170 -0.3499 -0.0160  0.5368
  914MOL0     C26004   5.233  11.397   0.099  0.1826  0.1838  0.3135
  914MOL0     C26005   5.354  11.339   0.178 -1.2724  0.3073 -0.4817
  914MOL0     C26006   5.479  11.443   0.180  1.0714 -0.0398  1.0028
  914MOL0     C26007   5.572  11.429   0.299 -0.5585  0.0731  0.1076
  914MOL0     C26008   5.634  11.288   0.310 -0.2710 -0.3742 -0.5702
  914MOL0     C26009   5.690  11.231   0.173 -0.7690  0.6485 -0.0082
  914MOL0     C26010   5.817  11.301   0.126 -0.6373  0.2559 -0.5764
  914MOL0     N26011   5.937  11.285   0.218 -0.5031 -0.3907 -0.1477
  914MOL0     C26012   6.002  11.388   0.274  0.3770 -0.1820  0.2449
  914MOL0     C26013   6.078  11.328   0.371  0.5156  0.0214 -0.5973
  914MOL0     C26014   6.172  11.412   0.448  0.0993  0.0992 -1.1618
  914MOL0     C26015   6.100  11.488   0.560  0.1026 -0.1072 -0.4136
  914MOL0     C26016   6.041  11.392   0.668 -0.3281 -0.0992  0.6014
  914MOL0     C26017   5.910  11.322   0.648 -0.2321  0.8523  0.0267
  914MOL0     O26018   5.804  11.426   0.615 -0.2885  0.5805 -0.1677
  914MOL0     C26019   5.678  11.384   0.630  0.5357 -0.5871 -1.5724
  914MOL0     C26020   5.588  11.488   0.651 -0.3857  0.6819  0.3826
  914MOL0     C26021   5.451  11.469   0.680  0.6496 -0.2273  0.7239
  914MOL0     C26022   5.357  11.584   0.689  0.4868  0.3206  0.0129
  914MOL0     C26023   5.404  11.338   0.699  0.3828 -0.7521 -0.3647
  914MOL0     C26024   5.268  11.304   0.737 -0.1243  0.2920 -0.2917
  914MOL0     O26025   5.209  11.367   0.847 -0.1369 -0.2150  0.4695
  914MOL0     C26026   5.090  11.315   0.882  0.6386 -0.5655 -0.0708
  914MOL0     C26027   4.970  11.374   0.845  0.6659  0.7921 -0.3143
  914MOL0     C26028   4.855  11.331   0.908  0.1086  0.0270 -0.6164
  914MOL0     C26029   4.853  11.215   0.989  0.4029  0.7077 -0.0352
  914MOL0     O26030   4.731  11.158   1.025  0.0189 -0.3853  0.1134
  914MOL0     C26031   4.724  11.025   1.091  0.5513  0.5292 -0.0536
  914MOL0     C26032   4.591  11.007   1.160 -0.6914  0.2055 -0.3127
  914MOL0     C26033   4.474  11.030   1.061  0.2738 -0.1276 -0.1153
  914MOL0     C26034   4.341  10.973   1.128 -0.5653  0.4213 -0.9279
  914MOL0     C26035   4.221  11.034   1.053  0.0548  0.5297 -0.1572
  914MOL0     C26036   4.080  10.975   1.097 -0.2650 -0.0545  0.4911
  914MOL0     C26037   4.028  11.009   1.238  0.6149  0.4081  0.2285
  914MOL0     C26038   3.878  10.965   1.248 -0.6590 -0.8308 -0.1319
  914MOL0    Cl26039   3.776  11.095   1.185 -0.3776 -0.0965  0.1035
  914MOL0     C26040   4.972  11.148   1.007  0.8261 -0.6810 -0.9966
  914MOL0     C26041   5.086  11.206   0.970  0.2576  0.4436  0.4796
  914MOL0     O26042   5.220  11.222   0.664 -0.5540  0.3543 -0.5353
  914MOL0     C26043   5.496  11.228   0.681 -0.4080 -0.8673  0.0288
  914MOL0     C26044   5.635  11.249   0.653 -0.2723 -0.2274  1.4780
  914MOL0     N26045   6.057  11.193   0.360  0.7523 -0.1944  0.0572
  914MOL0     N26046   5.989  11.172   0.258 -0.1403  0.3837 -0.0575
  914MOL0     C26047   4.904  11.365   0.216  0.4260  0.8937 -0.4142
  914MOL0     C26048   4.781  11.312   0.258  0.2161 -0.3409  0.7574
  914MOL0     C26049   4.433  11.086   0.452  0.2579  0.0936  0.3229
  914MOL0     C26050   4.323  11.018   0.379 -0.1774 -0.7497  0.0691
  914MOL0     C26051   4.235  10.942   0.443 -1.1476  0.4586  0.8494
  914MOL0     C26052   4.242  10.918   0.584  0.0692 -0.3030 -0.6051
  914MOL0     O26053   4.149  10.851   0.661  0.8024  0.0084 -0.2351
  914MOL0     C26054   4.090  10.734   0.606  0.5851 -0.0892 -0.3116
  914MOL0     C26055   4.203  10.633   0.578  0.5003 -0.1712  0.3532
  914MOL0     C26056   4.153  10.513   0.494  0.9561  0.6051 -0.7510
  914MOL0     C26057   4.135  10.380   0.575 -0.3574 -0.6888 -1.1457
  914MOL0     C26058   3.999  10.344   0.610 -0.0671  0.2807  1.4743
  914MOL0     C26059   3.881  10.316   0.613 -0.0655  0.5483  0.1911
  914MOL0     C26060   4.342  10.988   0.657  0.7598  0.1238 -1.0633
  914MOL0     C26061   4.429  11.074   0.599  0.0446 -0.3552  0.0121
  914MOL0     C26062   4.507  11.168   0.691 -0.8646 -0.4136  0.2348
  914MOL0     H26063   4.845  11.247   0.584 -0.3484  0.6092 -0.4294
  914MOL0     H26064   5.039  11.381   0.522 -0.9549 -0.5870  1.3183
  914MOL0     H26065   5.223  11.597   0.187 -0.3701  0.3483 -1.0700
  914MOL0     H26066   5.077  11.543   0.105 -1.0508  0.7524  1.7929
  914MOL0     H26067   5.161  11.315   0.089 -0.1253  0.5131 -0.1943
  914MOL0     H26068   5.267  11.424  -0.001  0.5959  0.4962  0.5367
  914MOL0     H26069   5.324  11.321   0.282 -1.9143 -0.6048 -0.8150
  914MOL0     H26070   5.388  11.244   0.136  1.5212  1.6107 -1.3704
  914MOL0     H26071   5.536  11.426   0.089 -0.2574 -1.2624  0.3664
  914MOL0     H26072   5.456  11.549   0.165  1.4586 -0.2163 -1.0955
  914MOL0     H26073   5.513  11.448   0.389 -2.8158  2.2491 -1.6638
  914MOL0     H26074   5.657  11.499   0.292  1.4350 -2.1752  0.5319
  914MOL0     H26075   5.718  11.303   0.378  1.0058  0.9713 -2.3154
  914MOL0     H26076   5.553  11.218   0.333 -0.9400 -0.0165 -1.7047
  914MOL0     H26077   5.622  11.245   0.089  1.9899  1.8858 -2.2313
  914MOL0     H26078   5.698  11.123   0.188 -3.1443  0.5555  0.9620
  914MOL0     H26079   5.842  11.255   0.030 -1.9989 -0.1812 -0.7541
  914MOL0     H26080   5.795  11.406   0.104  1.9484  1.2000  0.9508
  914MOL0     H26081   5.999  11.493   0.247  0.4327 -0.4715 -0.9380
  914MOL0     H26082   6.233  11.481   0.389 -0.4659  2.3064  0.7248
  914MOL0     H26083   6.244  11.346   0.497  3.2447  0.7630 -4.4723
  914MOL0     H26084   6.183  11.552   0.590  0.0961 -0.3626  0.1741
  914MOL0     H26085   6.022  11.557   0.526 -1.2135  0.6816  3.6262
  914MOL0     H26086   6.117  11.315   0.684 -0.3444  0.0737  1.5699
  914MOL0     H26087   6.023  11.449   0.759 -1.4685 -0.9383  0.9190
  914MOL0     H26088   5.930  11.250   0.568  3.1078  1.1121  0.4727
  914MOL0     H26089   5.889  11.269   0.741  0.4070 -1.7086 -1.1929
  914MOL0     H26090   5.636  11.585   0.653 -0.9071  0.9531  2.8596
  914MOL0     H26091   5.267  11.561   0.632 -0.1909 -0.9738  1.4939
  914MOL0     H26092   5.406  11.675   0.655 -0.5048  0.9816  0.3052
  914MOL0     H26093   5.331  11.605   0.794 -0.1804  4.5578 -0.8490
  914MOL0     H26094   4.961  11.468   0.791  1.0631  0.7809 -0.4016
  914MOL0     H26095   4.760  11.374   0.878 -1.0111 -1.2422  0.9444
  914MOL0     H26096   4.734  10.946   1.017  1.5015 -1.9623  2.5416
  914MOL0     H26097   4.801  11.006   1.166  0.7604  2.9919  0.4537
  914MOL0     H26098   4.599  10.904   1.196  0.7347  0.0634 -0.9768
  914MOL0     H26099   4.596  11.070   1.250 -0.7594  2.0167 -1.5218
  914MOL0     H26100   4.484  10.994   0.958 -3.5662  2.1385 -1.4705
  914MOL0     H26101   4.465  11.139   1.056  0.1959  0.0144  2.2569
  914MOL0     H26102   4.326  10.997   1.234 -0.6879 -1.6059 -0.4367
  914MOL0     H26103   4.340  10.864   1.111  5.6930 -0.1582 -0.0159
  914MOL0     H26104   4.227  11.140   1.080  0.9534 -0.2726  3.1286
  914MOL0     H26105   4.232  11.022   0.944 -1.3384 -3.1709 -0.0386
  914MOL0     H26106   4.083  10.868   1.074  1.8355 -0.5008  2.4603
  914MOL0     H26107   3.996  11.019   1.043 -1.0865 -3.5658 -1.4310
  914MOL0     H26108   4.031  11.114   1.269  0.9896  0.1907  0.9495
  914MOL0     H26109   4.081  10.953   1.316  0.5371 -1.6335 -1.1321
  914MOL0     H26110   3.855  10.954   1.354 -0.0139 -1.2419 -0.0290
  914MOL0     H26111   3.858  10.868   1.203 -0.0774 -0.1617 -1.9320
  914MOL0     H26112   4.988  11.065   1.075  2.5145 -0.4239 -1.0495
  914MOL0     H26113   5.186  11.169   0.991  1.2222  2.4012 -0.3292
  914MOL0     H26114   5.463  11.125   0.684 -3.0823 -0.2347 -2.5018
  914MOL0     H26115   5.710  11.171   0.648  2.9563  2.6770 -1.5668
  914MOL0     H26116   4.922  11.403   0.115  0.9472  1.3525 -0.1518
  914MOL0     H26117   4.696  11.301   0.191 -0.0826  0.6405  0.9539
  914MOL0     H26118   4.307  11.035   0.273 -0.2788  1.9791  0.4312
  914MOL0     H26119   4.152  10.894   0.393 -0.2884  1.5384 -1.7677
  914MOL0     H26120   4.020  10.702   0.683 -2.7632  1.1993 -2.6090
  914MOL0     H26121   4.030  10.753   0.517 -2.8886 -2.4574  1.3051
  914MOL0     H26122   4.262  10.611   0.667  2.1952 -2.4615 -1.1992
  914MOL0     H26123   4.269  10.677   0.502 -0.3739 -3.3526 -2.5401
  914MOL0     H26124   4.057  10.535   0.447  0.2882 -3.6540 -1.7847
  914MOL0     H26125   4.222  10.494   0.412  2.6718  2.6173  0.1280
  914MOL0     H26126   4.199  10.388   0.664 -0.8070  0.2154 -0.8948
  914MOL0     H26127   4.182  10.296   0.523 -1.7367 -1.5437 -1.0574
  914MOL0     H26128   3.777  10.293   0.605 -0.2515  1.6550 -0.8247
  914MOL0     H26129   4.340  10.975   0.765  0.6820  0.2683 -1.0465
  914MOL0     H26130   4.492  11.145   0.797 -1.0178 -0.0008  0.3016
  914MOL0     H26131   4.616  11.153   0.688 -1.1637 -4.2547  1.8630
  914MOL0     H26132   4.484  11.271   0.663 -1.4080 -0.3156  1.0200
  915MOL0     O26133  11.308   0.411  11.273  0.0825 -0.3770 -0.3573
  915MOL0     C26134  11.279   0.444  11.156 -0.5066 -0.0901 -0.6615
  915MOL0     O26135  11.163   0.500  11.116  0.1623 -0.0789  0.4388
  915MOL0     C26136  11.091   0.566  11.211 -0.5180 -0.3876  0.5441
  915MOL0     C26137  11.151   0.657  11.303 -0.1429 -0.2393  1.0295
  915MOL0     C26138  11.071   0.740  11.383 -0.5936 -0.4928 -0.3584
  915MOL0     C26139  10.930   0.727  11.376 -0.5932  0.8325 -1.9676
  915MOL0     O26140  10.849   0.804  11.465  0.4320  0.4885  0.1270
  915MOL0     C26141  10.705   0.800  11.466  0.4032  1.0313 -1.1300
  915MOL0     C26142  10.651   0.918  11.545  0.3276 -1.2270 -0.3292
  915MOL0     C26143  10.496   0.917  11.540  0.0597  0.3728  0.2848
  915MOL0     C26144  10.444   1.014  11.641 -0.4745  0.4742 -0.0272
  915MOL0     C26145  10.304   1.068  11.618 -0.3042  0.2514 -0.8284
  915MOL0     C26146  10.190   0.977  11.619 -0.4442 -0.0457  0.1643
  915MOL0     C26147  10.064   1.046  11.567 -0.1831 -0.4923  0.3873
  915MOL0     C26148   9.948   0.952  11.530  0.1888  0.9803 -0.3754
  915MOL0     N26149   9.819   1.004  11.473  0.0675 -0.3181 -0.5660
  915MOL0     C26150   9.784   1.131  11.435 -0.3698 -0.7507 -0.2314
  915MOL0     C26151   9.657   1.123  11.391 -0.1479  0.2770 -0.5477
  915MOL0     C26152   9.574   1.237  11.327  0.9301 -0.0955 -0.4122
  915MOL0     C26153   9.422   1.214  11.331 -0.6334 -0.7185 -0.7260
  915MOL0     C26154   9.354   1.342  11.266  0.3466  0.4211 -0.3718
  915MOL0     C26155   9.199   1.330  11.279  0.3365  0.7602  0.4399
  915MOL0     O26156   9.160   1.210  11.224 -0.5803  0.2053  0.6305
  915MOL0     C26157   9.027   1.184  11.227  0.1509  0.9516 -0.3505
  915MOL0     C26158   8.983   1.066  11.175 -1.3389  0.1320 -0.7135
  915MOL0     C26159   8.850   1.035  11.153  0.6002  0.2541 -0.3822
  915MOL0     C26160   8.821   0.900  11.094 -0.1117  0.1365 -0.4974
  915MOL0     C26161   8.750   1.127  11.186  0.0819 -0.2356 -0.3104
  915MOL0     C26162   8.606   1.121  11.150 -0.5038 -0.5400  0.0324
  915MOL0     O26163   8.527   1.209  11.216  0.4236 -0.4734 -0.4331
  915MOL0     C26164   8.393   1.186  11.199 -0.0869 -0.0967 -0.3828
  915MOL0     C26165   8.322   1.133  11.313  0.0005  0.1156 -0.2736
  915MOL0     C26166   8.185   1.111  11.297  0.4458  0.0045  0.1366
  915MOL0     C26167   8.115   1.147  11.175 -0.1428 -0.2350 -0.3105
  915MOL0     O26168   7.981   1.151  11.159  0.5959  0.7217  0.4315
  915MOL0     C26169   7.910   1.038  11.220 -0.6476 -0.0870 -0.7780
  915MOL0     C26170   7.772   1.104  11.257  0.2027  0.4062 -0.0836
  915MOL0     C26171   7.670   0.991  11.284  0.6365 -0.1065  0.4265
  915MOL0     C26172   7.674   0.918  11.422 -0.8310 -0.6232 -0.0226
  915MOL0     C26173   7.536   0.883  11.480  0.2621  0.6717 -0.0868
  915MOL0     C26174   7.460   0.779  11.393 -0.2163 -0.1786 -0.2232
  915MOL0     C26175   7.357   0.697  11.467  0.2148  0.0162 -0.4845
  915MOL0     C26176   7.408   0.606  11.573  0.6328  0.7064  1.0132
  915MOL0    Cl26177   7.274   0.515  11.653  0.1961 -0.3428  0.3557
  915MOL0     C26178   8.187   1.207  11.076 -0.5796  0.1422  0.2666
  915MOL0     C26179   8.330   1.223  11.086 -0.4820 -0.9954  0.6135
  915MOL0     O26180   8.578   1.054  11.047 -0.1286  0.0034 -0.5855
  915MOL0     C26181   8.799   1.244  11.253  0.2108 -0.3783 -0.3206
  915MOL0     C26182   8.933   1.269  11.273  0.0769  0.8202 -0.5214
  915MOL0     N26183   9.611   0.998  11.415 -0.7358  0.2012  0.2369
  915MOL0     N26184   9.706   0.932  11.466  0.0821 -0.1809  0.0967
  915MOL0     C26185  10.874   0.643  11.283  0.6638  0.5255 -0.0144
  915MOL0     C26186  10.956   0.564  11.207  0.7653  0.3567 -0.4067
  915MOL0     C26187  11.376   0.422  11.039 -0.9132 -0.2747 -0.0439
  915MOL0     C26188  11.321   0.452  10.906  0.5204  0.3835  1.2273
  915MOL0     C26189  11.387   0.429  10.788 -0.8386  0.2878  0.9204
  915MOL0     C26190  11.522   0.390  10.801 -1.4560 -0.1147  0.3289
  915MOL0     O26191  11.607   0.357  10.703  0.2661  0.1478 -0.2489
  915MOL0     C26192  11.582   0.393  10.568  0.0482 -0.1776  0.4394
  915MOL0     C26193  11.721   0.416  10.497 -0.5375  0.2088  0.9149
  915MOL0     C26194  11.804   0.526  10.566 -0.1077 -0.2603 -0.0436
  915MOL0     C26195  11.946   0.531  10.504  0.1117 -0.2737 -0.2391
  915MOL0     C26196  12.020   0.406  10.505  0.2270  0.4019  0.2726
  915MOL0     C26197  12.093   0.304  10.503  1.0260  0.1767  0.0787
  915MOL0     C26198  11.581   0.366  10.925  0.2312  0.2361  0.7455
  915MOL0     C26199  11.514   0.383  11.042  0.9600  0.0597 -0.4975
  915MOL0     C26200  11.582   0.352  11.173 -0.9866  0.1441 -0.1309
  915MOL0     H26201  11.258   0.679  11.309  1.0804 -4.4976 -1.4764
  915MOL0     H26202  11.113   0.816  11.448 -1.9531  1.4120 -1.5820
  915MOL0     H26203  10.673   0.707  11.514 -0.4419  2.8726  2.1415
  915MOL0     H26204  10.666   0.803  11.364  0.1550  0.5537 -1.0537
  915MOL0     H26205  10.675   0.907  11.651 -1.6945  1.1298  0.4838
  915MOL0     H26206  10.677   1.016  11.503 -1.5033 -0.6322 -0.1707
  915MOL0     H26207  10.439   0.935  11.449 -0.5967  0.1664  0.6477
  915MOL0     H26208  10.460   0.818  11.568 -1.3202  0.9408  0.6294
  915MOL0     H26209  10.438   0.957  11.734 -0.3514 -1.3788 -1.1067
  915MOL0     H26210  10.511   1.099  11.650  0.9248 -0.5672 -0.2765
  915MOL0     H26211  10.308   1.128  11.526 -1.2554 -0.0433 -1.0720
  915MOL0     H26212  10.286   1.135  11.703  0.6629  0.4588 -0.7787
  915MOL0     H26213  10.209   0.902  11.542 -0.7652  0.4799 -0.4320
  915MOL0     H26214  10.182   0.931  11.718  0.9580 -1.8595 -0.5009
  915MOL0     H26215  10.083   1.111  11.481  0.2744 -1.3797 -0.2003
  915MOL0     H26216  10.034   1.113  11.648 -1.3469  3.3657 -2.9195
  915MOL0     H26217   9.984   0.879  11.458 -1.2947  0.4048 -0.5671
  915MOL0     H26218   9.913   0.899  11.619  2.8249  0.8994  0.6875
  915MOL0     H26219   9.847   1.219  11.425 -0.8677 -0.3617  0.0108
  915MOL0     H26220   9.599   1.255  11.222  0.2615  1.3830 -0.3458
  915MOL0     H26221   9.601   1.330  11.379 -2.3447  0.6275  0.1820
  915MOL0     H26222   9.398   1.125  11.273  1.5319  0.3497 -3.4380
  915MOL0     H26223   9.402   1.199  11.438  1.1912 -2.8558 -0.6189
  915MOL0     H26224   9.396   1.431  11.313  4.1466 -1.5277  0.3459
  915MOL0     H26225   9.378   1.338  11.159  0.7269 -0.2765 -0.2707
  915MOL0     H26226   9.163   1.348  11.381  2.4098  1.8269  1.0381
  915MOL0     H26227   9.160   1.415  11.223 -1.0666 -0.1926 -0.0784
  915MOL0     H26228   9.059   0.995  11.144 -1.4212 -1.3028  2.0364
  915MOL0     H26229   8.906   0.831  11.092 -0.1082  0.1565 -2.5567
  915MOL0     H26230   8.782   0.913  10.993 -2.0318 -1.0482  0.0276
  915MOL0     H26231   8.748   0.849  11.159 -0.5342  1.4262  0.0724
  915MOL0     H26232   8.374   1.114  11.406 -0.5443  2.2556  0.5416
  915MOL0     H26233   8.125   1.089  11.384  1.3656 -1.5216  0.4321
  915MOL0     H26234   7.898   0.953  11.151  1.6065 -1.9989  1.0258
  915MOL0     H26235   7.964   1.004  11.308  0.4342  0.3502 -1.2666
  915MOL0     H26236   7.796   1.160  11.348  1.1050  0.8734 -0.5919
  915MOL0     H26237   7.737   1.169  11.176 -1.7488 -2.2752 -1.5408
  915MOL0     H26238   7.681   0.915  11.206  0.5393  0.0643  0.2461
  915MOL0     H26239   7.570   1.034  11.276  1.4635  1.7906 -0.4097
  915MOL0     H26240   7.724   0.975  11.501  1.4693 -2.9865  0.3536
  915MOL0     H26241   7.736   0.830  11.406  1.7532  1.5626 -3.0121
  915MOL0     H26242   7.549   0.838  11.579  2.2269  0.2312 -0.4846
  915MOL0     H26243   7.473   0.972  11.493  0.3661  0.7194  0.1001
  915MOL0     H26244   7.528   0.710  11.344  1.8542  3.4661 -2.9528
  915MOL0     H26245   7.405   0.839  11.319  0.3063  1.1891  0.4516
  915MOL0     H26246   7.309   0.629  11.396  0.2967  0.9050 -1.4088
  915MOL0     H26247   7.292   0.770  11.516 -1.1009 -2.2443  1.3826
  915MOL0     H26248   7.482   0.655  11.638  3.1980  0.0879 -1.2474
  915MOL0     H26249   7.472   0.527  11.533  2.7204  0.8052  3.8473
  915MOL0     H26250   8.132   1.244  10.990  0.0476 -1.3697 -0.8369
  915MOL0     H26251   8.379   1.256  10.995 -0.6657 -0.3592  0.7372
  915MOL0     H26252   8.735   1.321  11.295 -0.0770 -0.7513 -0.0569
  915MOL0     H26253   8.958   1.368  11.309 -1.4331  0.3881  1.9962
  915MOL0     H26254  10.767   0.641  11.268  0.5358  0.3915  0.8245
  915MOL0     H26255  10.910   0.494  11.137  0.3924 -2.1414  2.1364
  915MOL0     H26256  11.218   0.484  10.893  0.2703  0.5337  3.1973
  915MOL0     H26257  11.340   0.441  10.691  0.8869  0.0074 -0.0036
  915MOL0     H26258  11.516   0.325  10.514  2.0435  0.6013 -3.2853
  915MOL0     H26259  11.521   0.483  10.555  0.8531  0.3267  0.0441
  915MOL0     H26260  11.705   0.438  10.391  0.4726 -2.3773  0.1387
  915MOL0     H26261  11.782   0.325  10.495 -0.1677  0.3791  2.7404
  915MOL0     H26262  11.764   0.625  10.540  2.6147  1.7708  2.7604
  915MOL0     H26263  11.799   0.508  10.673 -1.8241  0.6593  0.0630
  915MOL0     H26264  12.007   0.613  10.543  0.5641 -1.0364  0.7036
  915MOL0     H26265  11.932   0.531  10.395 -1.3368 -0.1258 -0.0742
  915MOL0     H26266  12.158   0.220  10.515  1.2603  0.6542  2.7648
  915MOL0     H26267  11.685   0.340  10.941 -0.0367 -2.1447 -0.8583
  915MOL0     H26268  11.573   0.440  11.238 -1.8230  0.9669 -1.3034
  915MOL0     H26269  11.542   0.264  11.223  0.6761  0.0572  1.0958
  915MOL0     H26270  11.688   0.329  11.162 -0.7696  0.1320  1.6630
  916MOL0     O26271   8.355   4.806   5.041  0.4958  0.4115  1.2499
  916MOL0     C26272   8.421   4.782   4.934 -0.4094 -1.0449 -0.3028
  916MOL0     O26273   8.522   4.862   4.888 -0.6306 -0.2893 -0.8908
  916MOL0     C26274   8.591   4.953   4.974 -1.2267 -0.4084  0.4916
  916MOL0     C26275   8.603   4.930   5.108 -0.1102  0.0715 -0.4013
  916MOL0     C26276   8.670   5.029   5.188  0.6735 -0.4597 -0.2514
  916MOL0     C26277   8.715   5.148   5.137 -0.2132  0.9143  0.7366
  916MOL0     O26278   8.780   5.220   5.226  0.3233 -0.8959  0.2583
  916MOL0     C26279   8.844   5.336   5.190  0.3923 -1.1473  0.0063
  916MOL0     C26280   8.986   5.312   5.140 -0.2673 -0.3731  1.1267
  916MOL0     C26281   9.072   5.221   5.227  0.5352 -0.5433 -0.7393
  916MOL0     C26282   9.208   5.206   5.166 -0.4555 -0.0972 -1.0813
  916MOL0     C26283   9.318   5.111   5.231 -0.3829  0.3312 -1.3739
  916MOL0     C26284   9.474   5.136   5.202 -0.4408 -0.4091 -0.4858
  916MOL0     C26285   9.563   5.015   5.169 -0.5688  0.1063  0.8493
  916MOL0     C26286   9.511   4.912   5.061 -0.3105  0.6879 -0.5091
  916MOL0     N26287   9.595   4.886   4.940 -0.3385  0.0854 -0.0591
  916MOL0     C26288   9.719   4.816   4.944 -0.2187 -0.9017  0.2103
  916MOL0     C26289   9.763   4.810   4.817  0.0655 -0.2460  0.2266
  916MOL0     C26290   9.886   4.748   4.756  0.0430 -0.6725 -0.3726
  916MOL0     C26291  10.007   4.740   4.845  0.1780  0.0797  0.1938
  916MOL0     C26292  10.113   4.644   4.778 -0.5341 -0.0013  0.4274
  916MOL0     C26293  10.236   4.626   4.870  0.4194 -0.3616 -0.0902
  916MOL0     O26294  10.344   4.570   4.791  0.5257 -0.2398  0.2503
  916MOL0     C26295  10.366   4.434   4.778  0.4784 -0.9149 -0.0532
  916MOL0     C26296  10.484   4.398   4.713  1.2318 -0.2904 -0.0931
  916MOL0     C26297  10.517   4.270   4.692 -0.1238  0.4305 -0.0743
  916MOL0     C26298  10.635   4.239   4.598 -0.6806 -0.0753  0.0132
  916MOL0     C26299  10.427   4.166   4.736  0.6528  0.2668 -0.7520
  916MOL0     C26300  10.449   4.026   4.702  0.3466  0.1321  0.1467
  916MOL0     O26301  10.362   3.944   4.762  0.2761 -0.2421  0.0278
  916MOL0     C26302  10.375   3.810   4.757 -0.3758 -0.0037  0.4277
  916MOL0     C26303  10.489   3.753   4.809  0.5644  0.1336 -0.1531
  916MOL0     C26304  10.498   3.612   4.795  1.1356 -0.1819 -0.6161
  916MOL0     C26305  10.392   3.521   4.748 -0.2121  0.0092 -0.5568
  916MOL0     O26306  10.393   3.381   4.738 -0.8719 -0.0729  0.7446
  916MOL0     C26307  10.490   3.315   4.820 -0.5020 -0.2683 -0.1016
  916MOL0     C26308  10.429   3.188   4.856 -0.1316 -0.1863 -0.5170
  916MOL0     C26309  10.529   3.082   4.910  0.7585 -0.1745  0.0842
  916MOL0     C26310  10.598   3.005   4.801  0.0096 -1.1786 -0.5803
  916MOL0     C26311  10.710   2.915   4.859 -0.3557  0.0880 -0.0877
  916MOL0     C26312  10.746   2.810   4.744 -0.7638  0.0473  0.2256
  916MOL0     C26313  10.878   2.746   4.785 -0.3834 -0.4185 -0.7915
  916MOL0     C26314  10.885   2.604   4.714 -0.5934  0.4576 -0.5084
  916MOL0    Cl26315  10.752   2.497   4.776 -0.4220  0.1630 -0.3129
  916MOL0     C26316  10.277   3.581   4.718 -0.0114  0.1089 -0.7662
  916MOL0     C26317  10.268   3.727   4.725  0.6854 -0.6403  0.5829
  916MOL0     O26318  10.527   3.995   4.609 -0.1924 -1.0011  0.3651
  916MOL0     C26319  10.311   4.202   4.806 -0.4763 -0.4902  0.0354
  916MOL0     C26320  10.282   4.333   4.830 -0.1860 -0.0540 -0.7751
  916MOL0     N26321   9.668   4.872   4.741 -0.3929  0.0205  0.0920
  916MOL0     N26322   9.568   4.916   4.813 -0.4649  0.0694  0.1122
  916MOL0     C26323   8.712   5.172   4.996 -0.2745 -0.2896 -0.3736
  916MOL0     C26324   8.648   5.079   4.917 -0.4092  0.2969 -0.5963
  916MOL0     C26325   8.382   4.665   4.853  0.0068  0.5316 -0.0401
  916MOL0     C26326   8.243   4.636   4.850  0.3188 -0.6245 -0.1078
  916MOL0     C26327   8.190   4.521   4.780 -0.0585  0.6119  0.1231
  916MOL0     C26328   8.276   4.452   4.686  0.4386  0.0280 -0.8766
  916MOL0     O26329   8.240   4.361   4.586  0.3438  0.5643  0.7890
  916MOL0     C26330   8.102   4.318   4.565  1.1826 -0.0558  0.2889
  916MOL0     C26331   8.049   4.218   4.667  0.7382 -0.1887  0.0767
  916MOL0     C26332   7.916   4.150   4.628 -0.2022 -0.1247 -0.3789
  916MOL0     C26333   7.878   4.026   4.706  0.5440  0.2665 -0.1996
  916MOL0     C26334   7.755   3.966   4.638  0.2578  0.1736 -0.2934
  916MOL0     C26335   7.648   3.925   4.590 -0.6443 -0.8587  0.3687
  916MOL0     C26336   8.415   4.489   4.685  0.4421  1.7287  0.2765
  916MOL0     C26337   8.472   4.581   4.783  0.4615 -0.5100 -0.5680
  916MOL0     C26338   8.618   4.589   4.805 -0.9140  0.1842 -0.6344
  916MOL0     H26339   8.569   4.843   5.163  1.9271  0.5756  1.8317
  916MOL0     H26340   8.679   5.011   5.295  0.5949 -1.8201 -0.4496
  916MOL0     H26341   8.847   5.402   5.276 -0.9214  2.1089 -2.2450
  916MOL0     H26342   8.783   5.398   5.123  0.0762 -0.1523  1.1925
  916MOL0     H26343   8.974   5.276   5.038 -1.0751  2.1523  0.2617
  916MOL0     H26344   9.031   5.412   5.135 -5.1567  2.0814 -1.9484
  916MOL0     H26345   9.071   5.252   5.332 -0.1655 -2.4413 -0.1292
  916MOL0     H26346   9.024   5.125   5.248 -3.2806  0.9492 -1.8662
  916MOL0     H26347   9.194   5.161   5.068  1.4842 -4.0680  0.2633
  916MOL0     H26348   9.247   5.307   5.151 -3.7304  1.1085 -2.5119
  916MOL0     H26349   9.286   5.009   5.209 -0.6083  0.0608  0.1230
  916MOL0     H26350   9.303   5.126   5.338 -1.5392 -0.7596 -1.3621
  916MOL0     H26351   9.485   5.204   5.117  1.4123  0.1961  0.1695
  916MOL0     H26352   9.516   5.186   5.290  3.8852  1.0807 -3.0559
  916MOL0     H26353   9.586   4.960   5.260 -1.3988 -1.0757  0.3717
  916MOL0     H26354   9.658   5.055   5.131 -1.6442  0.5952 -1.5667
  916MOL0     H26355   9.495   4.816   5.110 -0.4404  1.8396  1.8125
  916MOL0     H26356   9.413   4.947   5.025 -1.7219  0.6104  2.9073
  916MOL0     H26357   9.775   4.784   5.032 -0.7722 -2.2651  0.0911
  916MOL0     H26358   9.911   4.810   4.669 -1.0682 -1.6916 -1.4604
  916MOL0     H26359   9.869   4.646   4.721  0.4138 -0.0926 -2.3562
  916MOL0     H26360  10.039   4.844   4.853 -2.2698  0.7520  2.7732
  916MOL0     H26361   9.974   4.710   4.945  0.5349 -0.1506  0.2471
  916MOL0     H26362  10.075   4.542   4.772 -1.6957  0.3506  1.4390
  916MOL0     H26363  10.143   4.671   4.676 -3.4900 -1.0683 -0.8199
  916MOL0     H26364  10.265   4.727   4.901 -1.9374  0.9722 -1.8848
  916MOL0     H26365  10.212   4.574   4.963 -1.0889  1.0090  0.3395
  916MOL0     H26366  10.547   4.476   4.670 -0.6284 -0.2837 -3.0424
  916MOL0     H26367  10.706   4.174   4.650 -0.2304 -0.7765 -1.4162
  916MOL0     H26368  10.693   4.330   4.576  0.8690  0.0846  4.0070
  916MOL0     H26369  10.597   4.200   4.503  1.9142  0.7068 -1.4518
  916MOL0     H26370  10.566   3.823   4.837  0.4310 -0.5232  2.0469
  916MOL0     H26371  10.594   3.570   4.824 -0.8643 -3.9124  1.3351
  916MOL0     H26372  10.584   3.314   4.764 -0.7706  0.7604 -0.5990
  916MOL0     H26373  10.498   3.371   4.914 -1.0813  0.3382 -0.4067
  916MOL0     H26374  10.346   3.198   4.927  0.6431 -0.7378  0.4809
  916MOL0     H26375  10.396   3.142   4.762  2.8211  2.1334 -2.8942
  916MOL0     H26376  10.473   3.021   4.982  0.0315  0.2880 -0.0763
  916MOL0     H26377  10.609   3.130   4.966  0.3297 -0.1258  0.6742
  916MOL0     H26378  10.652   3.077   4.739  0.3489  1.2196  2.2673
  916MOL0     H26379  10.517   2.952   4.749 -1.6760 -0.1468  0.8810
  916MOL0     H26380  10.792   2.980   4.891 -0.1687  1.3197 -2.7927
  916MOL0     H26381  10.660   2.863   4.941 -2.0980  2.8742  0.7608
  916MOL0     H26382  10.747   2.848   4.642  0.3088 -1.2748 -0.2891
  916MOL0     H26383  10.666   2.736   4.748 -1.0473  0.3918  1.8984
  916MOL0     H26384  10.887   2.715   4.889  1.0998  0.5545 -0.5932
  916MOL0     H26385  10.966   2.807   4.762 -1.1517  1.1213  0.2541
  916MOL0     H26386  10.987   2.567   4.727 -0.9852 -0.8285 -0.8685
  916MOL0     H26387  10.873   2.611   4.605 -1.0970 -1.2295 -0.5967
  916MOL0     H26388  10.191   3.524   4.686 -1.6687  2.3226 -0.5181
  916MOL0     H26389  10.169   3.770   4.715  0.8982 -0.1869  0.4077
  916MOL0     H26390  10.241   4.131   4.849 -0.2379 -1.0373 -0.4713
  916MOL0     H26391  10.192   4.362   4.884  1.3943 -1.9240  3.2851
  916MOL0     H26392   8.750   5.259   4.944 -1.7841  0.5604 -0.1194
  916MOL0     H26393   8.669   5.088   4.811  1.3307 -0.6748 -0.3673
  916MOL0     H26394   8.187   4.717   4.895 -0.1513  1.3011 -3.7935
  916MOL0     H26395   8.085   4.502   4.761  0.2652 -1.3908  0.0985
  916MOL0     H26396   8.036   4.405   4.555  1.2768 -0.0517 -0.3862
  916MOL0     H26397   8.092   4.272   4.466  1.6185 -1.1092  0.7179
  916MOL0     H26398   8.019   4.261   4.763 -2.2327 -0.3884 -0.6542
  916MOL0     H26399   8.120   4.136   4.683  1.2201  0.2623  0.2892
  916MOL0     H26400   7.833   4.221   4.628 -0.9642 -0.9554  1.4729
  916MOL0     H26401   7.939   4.121   4.525  3.9981  2.4521 -0.4178
  916MOL0     H26402   7.870   4.042   4.814 -2.0574 -0.0021 -0.2768
  916MOL0     H26403   7.954   3.948   4.708  1.0012  0.7028 -0.2551
  916MOL0     H26404   7.570   3.882   4.530 -0.6485  1.5966 -1.5331
  916MOL0     H26405   8.479   4.441   4.612 -3.1488 -3.2397 -0.1425
  916MOL0     H26406   8.657   4.501   4.753 -0.8117  1.4803 -2.8488
  916MOL0     H26407   8.666   4.679   4.765  0.0292  0.5965  1.2702
  916MOL0     H26408   8.643   4.590   4.912 -1.0929  0.0229 -0.5922
  917MOL0     O26409   6.339   8.549   5.277 -0.4444  0.2213 -0.0517
  917MOL0     C26410   6.285   8.641   5.338  0.8541  0.4769  0.4766
  917MOL0     O26411   6.339   8.764   5.363 -0.0975  0.1360 -0.3741
  917MOL0     C26412   6.469   8.774   5.393 -0.3934  0.3986  0.2966
  917MOL0     C26413   6.535   8.679   5.473  0.1810 -0.4273 -0.0137
  917MOL0     C26414   6.670   8.705   5.525  0.4802 -0.2090  0.3484
  917MOL0     C26415   6.744   8.821   5.473  0.1654 -0.0947  0.5642
  917MOL0     O26416   6.878   8.842   5.512  0.0426  0.4573 -0.1656
  917MOL0     C26417   6.889   8.954   5.612 -0.4274 -0.0524 -0.5292
  917MOL0     C26418   7.036   8.983   5.629  0.2951 -0.3828 -0.6472
  917MOL0     C26419   7.141   8.967   5.528  0.6966  0.5774 -0.6557
  917MOL0     C26420   7.209   8.830   5.533  0.1622  0.5088  0.1982
  917MOL0     C26421   7.256   8.803   5.385  0.4190 -0.1575 -0.5992
  917MOL0     C26422   7.359   8.683   5.380  0.5622 -0.1077  1.1230
  917MOL0     C26423   7.405   8.681   5.238 -0.0112  0.4860  0.6064
  917MOL0     C26424   7.503   8.789   5.198  0.1780 -0.3860  0.0859
  917MOL0     N26425   7.625   8.785   5.285  0.0756 -0.2098  0.1626
  917MOL0     C26426   7.654   8.872   5.382  0.3441 -0.2179  0.1749
  917MOL0     C26427   7.776   8.846   5.429  0.5005 -0.1343 -0.5810
  917MOL0     C26428   7.850   8.936   5.528  0.0840  0.3720  0.5756
  917MOL0     C26429   7.979   9.007   5.475  0.1246  0.2419 -0.7918
  917MOL0     C26430   8.059   9.072   5.581 -0.1740 -0.1373 -0.1389
  917MOL0     C26431   8.118   8.970   5.672 -0.0040  0.7846 -0.4393
  917MOL0     O26432   8.203   8.871   5.607  0.2276  0.1076  0.1705
  917MOL0     C26433   8.301   8.901   5.527  0.0490  0.0158  0.9822
  917MOL0     C26434   8.396   8.994   5.565 -0.1810 -0.7976 -0.8253
  917MOL0     C26435   8.498   9.046   5.481 -0.3369 -0.5251  0.0387
  917MOL0     C26436   8.598   9.157   5.534  0.4231  0.2785  0.1444
  917MOL0     C26437   8.513   8.993   5.349 -0.1743 -0.0813  0.0937
  917MOL0     C26438   8.635   9.011   5.262  0.5696  0.1385  0.7949
  917MOL0     O26439   8.620   8.956   5.139 -0.4535  0.0306  1.0300
  917MOL0     C26440   8.715   8.992   5.042  0.3561  0.2539  0.9357
  917MOL0     C26441   8.845   8.937   5.039  0.0312  0.5655  0.3322
  917MOL0     C26442   8.932   8.981   4.941 -0.0355 -0.4442  0.1618
  917MOL0     C26443   8.898   9.069   4.835  0.2491  0.6063 -0.1285
  917MOL0     O26444   8.979   9.095   4.726  0.4831 -0.0772  0.6114
  917MOL0     C26445   9.115   9.052   4.712 -0.4372 -0.0337  0.7431
  917MOL0     C26446   9.182   9.118   4.594 -0.3493 -1.5376  0.9160
  917MOL0     C26447   9.206   9.267   4.618 -0.7373  0.2657 -0.2907
  917MOL0     C26448   9.312   9.307   4.717 -0.7164 -0.4948 -0.5004
  917MOL0     C26449   9.322   9.466   4.731 -0.5013 -0.3990 -0.3035
  917MOL0     C26450   9.445   9.513   4.812  0.1696 -0.3569 -0.4931
  917MOL0     C26451   9.416   9.494   4.964  0.2995 -0.9785  0.8566
  917MOL0     C26452   9.554   9.483   5.039  0.0013  0.4889  0.2728
  917MOL0    Cl26453   9.640   9.328   5.012  0.4303  0.2488  0.1486
  917MOL0     C26454   8.762   9.095   4.826  0.4479  0.4440  0.3113
  917MOL0     C26455   8.676   9.070   4.933  0.0908 -0.6748  0.0798
  917MOL0     O26456   8.738   9.052   5.305 -0.4825 -0.7693  0.7915
  917MOL0     C26457   8.404   8.913   5.304 -0.4956  0.9633  0.1573
  917MOL0     C26458   8.301   8.863   5.393  0.3456  0.5798  0.3360
  917MOL0     N26459   7.827   8.738   5.358  0.2227  0.2106 -0.3783
  917MOL0     N26460   7.737   8.711   5.269  0.3244  0.5995 -0.6014
  917MOL0     C26461   6.675   8.909   5.386 -0.5642  0.2935  0.0654
  917MOL0     C26462   6.546   8.876   5.344 -0.0332 -0.6006  0.6680
  917MOL0     C26463   6.140   8.623   5.387  0.1655  0.4185  0.4777
  917MOL0     C26464   6.067   8.507   5.335 -0.4316 -0.7426  0.1292
  917MOL0     C26465   5.937   8.475   5.377 -0.2587  0.6104 -0.4138
  917MOL0     C26466   5.877   8.562   5.459  0.5386 -0.4544 -0.1339
  917MOL0     O26467   5.749   8.525   5.491  0.7093 -0.2389 -0.3509
  917MOL0     C26468   5.677   8.604   5.588 -0.1719 -0.6467 -0.7285
  917MOL0     C26469   5.544   8.530   5.604  0.0524  0.5510  0.3661
  917MOL0     C26470   5.558   8.402   5.693  0.5667 -0.2327 -0.6145
  917MOL0     C26471   5.429   8.320   5.687 -0.5987 -1.3341  0.1558
  917MOL0     C26472   5.404   8.254   5.557  0.4327  0.0106 -0.3775
  917MOL0     C26473   5.374   8.198   5.454  0.3503  0.0188  0.5687
  917MOL0     C26474   5.942   8.681   5.506 -0.0373  0.8793  0.4006
  917MOL0     C26475   6.076   8.704   5.488  0.0312 -0.1433  0.5911
  917MOL0     C26476   6.142   8.811   5.571 -0.0181  0.2806  1.0730
  917MOL0     H26477   6.470   8.603   5.514 -0.6486  0.0342 -0.4404
  917MOL0     H26478   6.712   8.636   5.597 -1.6157 -1.0209  0.8684
  917MOL0     H26479   6.843   8.927   5.707  0.1569 -2.1631 -0.7861
  917MOL0     H26480   6.829   9.034   5.566 -0.6083  1.4173  2.0621
  917MOL0     H26481   7.047   9.087   5.661 -1.4576 -0.6053  0.8721
  917MOL0     H26482   7.066   8.937   5.724  1.7921  0.7038 -0.5664
  917MOL0     H26483   7.090   8.989   5.433 -0.0115 -2.6121 -1.1149
  917MOL0     H26484   7.226   9.032   5.551  1.8957 -1.3923  0.7286
  917MOL0     H26485   7.289   8.835   5.608  1.6178 -0.4378 -1.2362
  917MOL0     H26486   7.139   8.751   5.560  0.9921 -0.1583  0.4252
  917MOL0     H26487   7.307   8.896   5.357 -1.1876  0.0459 -3.1668
  917MOL0     H26488   7.171   8.780   5.321  0.9568  0.1570 -1.4467
  917MOL0     H26489   7.449   8.690   5.442  0.4962  0.7577  1.1361
  917MOL0     H26490   7.305   8.593   5.408  0.0641 -0.1976 -0.0680
  917MOL0     H26491   7.314   8.689   5.177 -1.5867  1.7509  2.9788
  917MOL0     H26492   7.447   8.586   5.204 -1.0182  1.0773 -2.6692
  917MOL0     H26493   7.534   8.783   5.094  0.9265 -1.1450  0.3412
  917MOL0     H26494   7.455   8.888   5.207 -0.8020 -0.8838  0.5035
  917MOL0     H26495   7.591   8.953   5.419  0.0246 -1.5685  2.8014
  917MOL0     H26496   7.877   8.883   5.620  2.2512  2.6109  1.3434
  917MOL0     H26497   7.778   9.014   5.555 -0.5820 -0.4471  1.2218
  917MOL0     H26498   8.049   8.950   5.413  1.0656 -0.4666  0.8824
  917MOL0     H26499   7.931   9.085   5.415 -1.3098 -2.0568 -2.8100
  917MOL0     H26500   8.126   9.139   5.526  0.2470 -0.0674  0.4523
  917MOL0     H26501   7.994   9.143   5.633 -1.8851 -1.5738 -0.2329
  917MOL0     H26502   8.172   9.034   5.742 -2.6171  4.2216 -1.2674
  917MOL0     H26503   8.048   8.924   5.743  2.6360 -0.1573  1.7117
  917MOL0     H26504   8.380   9.030   5.667  1.7830  0.6378 -0.9719
  917MOL0     H26505   8.560   9.221   5.613 -0.1608 -0.9025  0.8475
  917MOL0     H26506   8.627   9.221   5.450  1.7149 -2.3135 -1.5450
  917MOL0     H26507   8.686   9.107   5.577  0.0019  1.5346  2.6340
  917MOL0     H26508   8.879   8.891   5.131 -1.5558 -0.1573  0.5889
  917MOL0     H26509   9.037   8.952   4.943  0.0578 -0.1190  2.2627
  917MOL0     H26510   9.164   9.060   4.809 -0.1658  0.4849  0.5724
  917MOL0     H26511   9.107   8.945   4.693 -0.0689 -0.2436  1.7091
  917MOL0     H26512   9.278   9.070   4.573 -0.5056 -0.9378 -1.4612
  917MOL0     H26513   9.120   9.102   4.506 -1.1555 -0.2399  1.2144
  917MOL0     H26514   9.111   9.313   4.645  0.0404  1.2725  0.8168
  917MOL0     H26515   9.223   9.314   4.521  1.7389  0.3052  0.0904
  917MOL0     H26516   9.404   9.266   4.676 -0.6633 -0.2506 -0.6273
  917MOL0     H26517   9.297   9.269   4.819  3.8092  1.0509  0.9727
  917MOL0     H26518   9.330   9.516   4.634 -3.0866  3.6335  1.2661
  917MOL0     H26519   9.235   9.508   4.783  0.3212  1.6989 -0.5141
  917MOL0     H26520   9.468   9.618   4.793  1.4683 -0.4548  0.4069
  917MOL0     H26521   9.529   9.449   4.782  0.8485  0.1655  0.2747
  917MOL0     H26522   9.350   9.410   4.988 -0.6985 -0.5694 -0.3716
  917MOL0     H26523   9.367   9.587   4.995  0.7688  0.2881 -1.9437
  917MOL0     H26524   9.542   9.489   5.147  0.9023 -1.6690  0.5543
  917MOL0     H26525   9.611   9.572   5.011 -1.3385  1.7669  1.4537
  917MOL0     H26526   8.724   9.142   4.736 -0.7122  0.7670  0.9526
  917MOL0     H26527   8.581   9.121   4.940  0.0414 -0.8256  0.5149
  917MOL0     H26528   8.400   8.895   5.197  1.8490  2.1816 -0.1995
  917MOL0     H26529   8.214   8.813   5.353 -0.2517  1.2628  0.7630
  917MOL0     H26530   6.739   8.991   5.356  0.2776  0.4739  2.1628
  917MOL0     H26531   6.503   8.948   5.275 -1.7001 -0.4550  1.8013
  917MOL0     H26532   6.124   8.440   5.271  3.6245 -1.3650  3.9237
  917MOL0     H26533   5.890   8.379   5.357  2.0187 -0.1496 -2.4949
  917MOL0     H26534   5.732   8.611   5.682 -2.0450 -0.6224  0.4340
  917MOL0     H26535   5.656   8.708   5.559  0.8200  0.4264  2.1007
  917MOL0     H26536   5.513   8.502   5.502 -0.5998  0.2173  0.6480
  917MOL0     H26537   5.469   8.602   5.636  1.0049  1.4166  0.7041
  917MOL0     H26538   5.644   8.349   5.652  0.1958 -0.0283 -1.6987
  917MOL0     H26539   5.580   8.420   5.798 -0.6951 -0.4527 -0.2972
  917MOL0     H26540   5.362   8.400   5.720  1.2636  0.1662  0.5121
  917MOL0     H26541   5.421   8.234   5.755 -0.2464 -1.7272 -0.2992
  917MOL0     H26542   5.365   8.162   5.354  0.7635 -3.3588  1.5954
  917MOL0     H26543   5.877   8.742   5.568 -0.5481 -0.3248  1.0913
  917MOL0     H26544   6.172   8.902   5.517  0.1746  0.0540  0.7951
  917MOL0     H26545   6.079   8.844   5.654  1.0159  0.0630  1.9744
  917MOL0     H26546   6.237   8.775   5.611  0.4695  2.1447  1.6814
  918MOL0     O26547   7.955   7.880   2.111  1.2115  0.1606 -0.4546
  918MOL0     C26548   7.890   7.959   2.178 -0.2595  0.0316 -0.2231
  918MOL0     O26549   7.935   8.068   2.226 -0.2508 -0.5244  0.3853
  918MOL0     C26550   8.073   8.088   2.226 -0.5877 -0.9298 -0.3109
  918MOL0     C26551   8.131   8.145   2.108 -0.4542 -0.1555  0.3250
  918MOL0     C26552   8.274   8.157   2.104  0.4803 -0.4322 -0.6255
  918MOL0     C26553   8.358   8.109   2.212  0.2157 -0.5712  0.5434
  918MOL0     O26554   8.496   8.118   2.208 -0.6467  0.5863 -0.1178
  918MOL0     C26555   8.568   8.184   2.103 -0.1808 -0.1584 -0.4807
  918MOL0     C26556   8.583   8.323   2.137 -0.3995 -0.1774  0.2948
  918MOL0     C26557   8.646   8.359   2.269  0.3647 -0.4104  0.3476
  918MOL0     C26558   8.789   8.301   2.292  0.2475 -0.5540 -0.9590
  918MOL0     C26559   8.905   8.388   2.223  0.5132 -0.2115 -0.6600
  918MOL0     C26560   9.028   8.311   2.216  0.3428 -0.3926 -0.3331
  918MOL0     C26561   9.145   8.393   2.152 -0.1420  0.3856 -0.2015
  918MOL0     C26562   9.262   8.295   2.123 -0.9819  0.9480  0.3982
  918MOL0     N26563   9.373   8.351   2.046  0.1350 -0.7724  0.3083
  918MOL0     C26564   9.478   8.432   2.094  0.6321  0.4250  0.6527
  918MOL0     C26565   9.574   8.411   1.992 -0.1267  0.0316 -0.8375
  918MOL0     C26566   9.719   8.458   2.000  0.3184  0.4795 -0.2282
  918MOL0     C26567   9.815   8.398   1.900  0.5331 -0.3203 -0.2581
  918MOL0     C26568   9.966   8.429   1.939  0.1201  0.7551  0.6060
  918MOL0     C26569   9.984   8.583   1.907 -1.1037 -0.6741 -0.3506
  918MOL0     O26570  10.101   8.620   1.990  0.4814 -0.4282  0.8670
  918MOL0     C26571  10.236   8.589   1.959 -0.9912 -0.1340  0.8857
  918MOL0     C26572  10.270   8.529   1.839  0.2161  0.0334 -0.2168
  918MOL0     C26573  10.402   8.522   1.798 -0.1991  0.7361  0.6910
  918MOL0     C26574  10.426   8.466   1.659  0.2150  0.5081  0.0898
  918MOL0     C26575  10.511   8.560   1.888  0.3104 -0.2610 -0.2328
  918MOL0     C26576  10.653   8.552   1.857 -0.1483  0.5562  0.4250
  918MOL0     O26577  10.688   8.500   1.734 -0.2537  0.1223 -0.6438
  918MOL0     C26578  10.811   8.491   1.687 -0.8113  0.4920 -0.6503
  918MOL0     C26579  10.892   8.383   1.737  0.6948  0.7526 -0.7385
  918MOL0     C26580  11.019   8.360   1.676  0.0067 -0.5138  0.1197
  918MOL0     C26581  11.067   8.448   1.575  0.0130 -0.0394 -0.3062
  918MOL0     O26582  11.187   8.409   1.512 -0.1404 -0.3812  0.8849
  918MOL0     C26583  11.255   8.518   1.462  0.5485  0.6102  0.4733
  918MOL0     C26584  11.397   8.474   1.471  0.2612  0.0675 -0.4217
  918MOL0     C26585  11.498   8.576   1.422  0.2006  0.3366 -0.0614
  918MOL0     C26586  11.643   8.537   1.436  1.0280 -0.0691  0.2043
  918MOL0     C26587  11.728   8.627   1.338  0.5513  0.1000  0.0646
  918MOL0     C26588  11.741   8.763   1.389 -1.0171 -0.6459  0.6142
  918MOL0     C26589  11.816   8.856   1.305  0.5907 -0.2800  1.6090
  918MOL0     C26590  11.877   8.977   1.368 -0.5869  0.4544 -0.3483
  918MOL0    Cl26591  11.947   9.057   1.231 -0.2250  0.0102  0.1095
  918MOL0     C26592  10.982   8.555   1.534 -0.3038 -0.5447 -0.1868
  918MOL0     C26593  10.860   8.584   1.596 -0.3459 -1.2233  0.3043
  918MOL0     O26594  10.727   8.606   1.937  0.4550 -0.7115  0.0640
  918MOL0     C26595  10.467   8.600   2.018  0.2549 -0.0554  0.0521
  918MOL0     C26596  10.335   8.615   2.049 -0.4458  0.4804 -0.1354
  918MOL0     N26597   9.513   8.342   1.887  0.0508  0.1601  0.0323
  918MOL0     N26598   9.393   8.314   1.915 -0.4046  0.2495 -0.1313
  918MOL0     C26599   8.286   8.057   2.324 -0.7052  0.8255  0.6189
  918MOL0     C26600   8.150   8.045   2.334 -0.0693  0.3333 -0.3785
  918MOL0     C26601   7.748   7.933   2.206  0.0762  0.1708 -0.0030
  918MOL0     C26602   7.652   8.007   2.149  0.7644  0.9275  0.9689
  918MOL0     C26603   7.514   7.983   2.156  0.0992 -0.7655 -0.1731
  918MOL0     C26604   7.469   7.882   2.237  1.5610 -0.5938 -0.9555
  918MOL0     O26605   7.339   7.874   2.261 -0.0220  0.3983  0.3953
  918MOL0     C26606   7.285   7.757   2.318 -0.3205  0.6687  0.2769
  918MOL0     C26607   7.138   7.786   2.319  0.2151 -0.2311  0.0997
  918MOL0     C26608   7.079   7.800   2.179 -0.3810  0.4349 -0.1773
  918MOL0     C26609   7.048   7.675   2.102 -0.8809  0.6419 -0.2088
  918MOL0     C26610   6.989   7.720   1.975  0.3096  0.7499 -0.3782
  918MOL0     C26611   6.939   7.765   1.872  0.0925  0.4951 -0.3716
  918MOL0     C26612   7.569   7.806   2.298 -0.6514  1.4437 -0.4512
  918MOL0     C26613   7.714   7.822   2.278  0.6876  0.7394  0.9600
  918MOL0     C26614   7.806   7.728   2.354  0.7389  0.9345 -0.7570
  918MOL0     H26615   8.071   8.183   2.026 -1.3182 -2.0756  0.0145
  918MOL0     H26616   8.313   8.211   2.018 -1.7407  2.5130  0.0679
  918MOL0     H26617   8.518   8.174   2.007 -1.8466  0.3175  0.3034
  918MOL0     H26618   8.664   8.136   2.081 -0.5236  0.7560 -4.7385
  918MOL0     H26619   8.636   8.373   2.055 -0.5147  0.8636  0.8431
  918MOL0     H26620   8.484   8.370   2.141 -1.0482 -1.5309  0.5790
  918MOL0     H26621   8.651   8.468   2.279  1.4350 -0.1963 -1.7945
  918MOL0     H26622   8.578   8.322   2.346  1.7684 -0.5707  1.5561
  918MOL0     H26623   8.809   8.292   2.400  2.7985  1.1068 -1.1838
  918MOL0     H26624   8.794   8.196   2.263  0.0414 -0.9450  0.3701
  918MOL0     H26625   8.919   8.479   2.283  1.4710  0.1157 -1.3620
  918MOL0     H26626   8.877   8.416   2.121 -1.0831  0.7808  0.0018
  918MOL0     H26627   9.054   8.284   2.319  1.6761 -1.1208 -0.8362
  918MOL0     H26628   9.010   8.222   2.155 -3.6889 -1.5097  2.0478
  918MOL0     H26629   9.176   8.474   2.218  3.3906 -0.6063 -0.4768
  918MOL0     H26630   9.111   8.423   2.052 -2.8754 -2.0389 -0.1496
  918MOL0     H26631   9.290   8.242   2.215 -0.6508  1.2666  0.4823
  918MOL0     H26632   9.224   8.217   2.056  3.8073 -2.2927  0.9560
  918MOL0     H26633   9.493   8.479   2.190  0.3442 -0.4187  1.1112
  918MOL0     H26634   9.755   8.428   2.099 -2.4442 -0.5023  0.5868
  918MOL0     H26635   9.723   8.567   1.995 -0.4893  0.4957 -0.6673
  918MOL0     H26636   9.806   8.291   1.921  2.6144 -0.5022 -0.0604
  918MOL0     H26637   9.798   8.415   1.793 -2.4226  0.4502  0.2397
  918MOL0     H26638   9.991   8.416   2.044 -0.9143  1.3239  0.9381
  918MOL0     H26639  10.027   8.365   1.874 -0.8097  0.4225  0.0396
  918MOL0     H26640   9.998   8.597   1.799  0.4404  2.1383  0.1311
  918MOL0     H26641   9.897   8.639   1.942 -0.9520  0.7464 -2.0769
  918MOL0     H26642  10.191   8.497   1.772 -2.5128  0.8644  2.3660
  918MOL0     H26643  10.467   8.532   1.583  0.5237 -0.9444 -1.0316
  918MOL0     H26644  10.329   8.424   1.630 -0.2770  1.0142  0.9122
  918MOL0     H26645  10.497   8.384   1.659 -0.0460  0.2818 -0.3069
  918MOL0     H26646  10.842   8.312   1.802  0.6402 -0.2443 -1.8304
  918MOL0     H26647  11.080   8.275   1.701  1.4122  0.8563  1.6249
  918MOL0     H26648  11.219   8.538   1.360  0.1989 -0.2232  0.4277
  918MOL0     H26649  11.246   8.614   1.514  2.6406  1.4742 -0.6188
  918MOL0     H26650  11.418   8.441   1.573  1.8574  0.0133 -0.7336
  918MOL0     H26651  11.415   8.381   1.416  0.6720 -0.3316  0.3691
  918MOL0     H26652  11.469   8.672   1.467 -0.9245 -0.2414  0.4862
  918MOL0     H26653  11.481   8.594   1.316 -1.8653  3.0595  0.6109
  918MOL0     H26654  11.636   8.433   1.402  0.8157 -0.2733  0.8525
  918MOL0     H26655  11.688   8.547   1.535 -0.4719  1.1060  0.8097
  918MOL0     H26656  11.826   8.585   1.312 -0.4226 -0.2100 -3.7307
  918MOL0     H26657  11.676   8.627   1.242 -1.5802  0.1354  1.1760
  918MOL0     H26658  11.794   8.750   1.484 -1.4045  1.4523  1.1694
  918MOL0     H26659  11.640   8.801   1.406 -1.0471 -0.7929  0.7715
  918MOL0     H26660  11.742   8.900   1.237  1.5041 -0.9909  0.0934
  918MOL0     H26661  11.893   8.800   1.252 -0.2488 -0.8209  0.9458
  918MOL0     H26662  11.956   8.941   1.435  0.5543  3.2937 -0.0665
  918MOL0     H26663  11.807   9.045   1.418  2.7557  3.2644  0.8506
  918MOL0     H26664  11.013   8.619   1.453 -4.2954  1.8810 -0.0400
  918MOL0     H26665  10.790   8.660   1.562 -2.4695 -2.7675  1.0015
  918MOL0     H26666  10.543   8.607   2.094 -0.7636 -3.9129  1.6925
  918MOL0     H26667  10.319   8.653   2.150  0.8411 -3.3489  1.6804
  918MOL0     H26668   8.333   7.994   2.399  0.0858  0.9961  0.2835
  918MOL0     H26669   8.092   7.992   2.409 -2.8604  1.9721 -1.2501
  918MOL0     H26670   7.690   8.091   2.092  1.8745  0.9352  1.7000
  918MOL0     H26671   7.447   8.052   2.106 -0.4536 -1.4239 -0.3552
  918MOL0     H26672   7.300   7.668   2.256  2.3528  0.1321  1.5413
  918MOL0     H26673   7.333   7.740   2.415  2.8918  0.1444 -1.2547
  918MOL0     H26674   7.120   7.878   2.375  0.1590 -1.5895  2.4502
  918MOL0     H26675   7.085   7.706   2.373  0.8352  0.9141  2.5618
  918MOL0     H26676   6.981   7.848   2.193 -0.3178  0.2112  1.2133
  918MOL0     H26677   7.149   7.861   2.121  0.7923 -1.5283 -0.9014
  918MOL0     H26678   6.981   7.613   2.162 -0.7839  1.5189  0.8310
  918MOL0     H26679   7.140   7.619   2.085 -2.1838 -2.1514  1.2452
  918MOL0     H26680   6.898   7.823   1.791 -1.5435  0.7971  0.6154
  918MOL0     H26681   7.541   7.714   2.349 -1.1473  0.1517 -2.8915
  918MOL0     H26682   7.890   7.777   2.404  2.3838 -1.6502 -0.7671
  918MOL0     H26683   7.761   7.661   2.427  0.7393 -1.1972 -2.5994
  918MOL0     H26684   7.843   7.652   2.284 -1.1058 -0.5234 -0.2398
  919MOL0     O26685   7.054   5.518   6.148  0.2980  0.2596 -0.1959
  919MOL0     C26686   7.044   5.553   6.261 -0.2280 -1.2314  0.5955
  919MOL0     O26687   6.991   5.475   6.364 -0.6289  0.1715  0.1850
  919MOL0     C26688   6.955   5.343   6.340  0.3616  0.2016  0.3977
  919MOL0     C26689   6.835   5.299   6.378 -0.2393  0.2190  0.5471
  919MOL0     C26690   6.792   5.165   6.354 -0.5273 -0.0199  1.0245
  919MOL0     C26691   6.875   5.072   6.294  0.2317 -0.3596  0.0035
  919MOL0     O26692   6.853   4.940   6.280 -0.2263 -0.2156  0.3061
  919MOL0     C26693   6.791   4.879   6.392 -0.7103 -0.6264 -0.8919
  919MOL0     C26694   6.639   4.858   6.380 -0.1280  0.7710  0.4264
  919MOL0     C26695   6.610   4.746   6.279  1.3970  0.3383  0.9217
  919MOL0     C26696   6.473   4.776   6.211  0.0611  0.2869  0.3329
  919MOL0     C26697   6.458   4.656   6.107  0.4123 -1.4766 -0.6408
  919MOL0     C26698   6.317   4.656   6.052 -0.3564  0.4424 -0.2472
  919MOL0     C26699   6.268   4.536   5.972  0.2993  0.6536  1.2419
  919MOL0     C26700   6.355   4.496   5.844  0.1724 -0.3325 -0.2144
  919MOL0     N26701   6.364   4.605   5.748  0.2457 -0.6218 -0.0536
  919MOL0     C26702   6.254   4.649   5.684  0.0971 -0.1793 -0.4889
  919MOL0     C26703   6.301   4.730   5.589 -0.3409  0.2325 -0.1724
  919MOL0     C26704   6.210   4.799   5.487 -1.0473 -0.2387 -0.3687
  919MOL0     C26705   6.280   4.931   5.434 -0.2519 -1.0277 -0.2937
  919MOL0     C26706   6.178   5.009   5.354  1.2257  0.4613  0.2384
  919MOL0     C26707   6.065   5.076   5.431 -0.2950 -0.2036  0.2854
  919MOL0     O26708   6.125   5.191   5.510 -0.4981  0.1706 -1.1173
  919MOL0     C26709   6.059   5.258   5.607  0.1515  0.5030 -0.0966
  919MOL0     C26710   5.925   5.247   5.629  0.4591 -0.2339 -0.9080
  919MOL0     C26711   5.865   5.308   5.738  0.6492 -0.2216  0.1096
  919MOL0     C26712   5.713   5.284   5.750 -0.0577  0.2227 -0.1300
  919MOL0     C26713   5.943   5.377   5.837  0.9750  0.2164 -0.3683
  919MOL0     C26714   5.882   5.439   5.951 -0.1870 -0.5768 -0.0172
  919MOL0     O26715   5.934   5.554   5.988 -0.5028 -0.5622 -0.1570
  919MOL0     C26716   5.876   5.617   6.086  0.4871  0.3912  0.0951
  919MOL0     C26717   5.882   5.584   6.227  0.1428 -0.5750  1.0465
  919MOL0     C26718   5.807   5.664   6.316  0.6753 -0.4010 -0.9249
  919MOL0     C26719   5.740   5.781   6.283 -0.3308 -0.0080  0.1225
  919MOL0     O26720   5.658   5.856   6.363  0.2111 -0.4797  0.1128
  919MOL0     C26721   5.595   5.800   6.477 -0.0707 -0.5352  1.0362
  919MOL0     C26722   5.521   5.899   6.561 -0.0819 -0.5147 -0.1631
  919MOL0     C26723   5.492   5.835   6.703 -0.0002  0.9149  0.7257
  919MOL0     C26724   5.421   5.947   6.794 -0.0787  0.2598  0.1073
  919MOL0     C26725   5.269   5.956   6.755 -0.5486 -0.2951  0.5738
  919MOL0     C26726   5.193   6.069   6.824  0.1583 -0.0447  0.1802
  919MOL0     C26727   5.057   6.076   6.762 -0.2941  0.5204 -1.2312
  919MOL0     C26728   4.972   6.190   6.815  0.6247  0.1596  0.3653
  919MOL0    Cl26729   4.796   6.196   6.749 -0.4593 -0.2918  0.3642
  919MOL0     C26730   5.749   5.815   6.152  0.2797 -0.5405 -0.0696
  919MOL0     C26731   5.817   5.741   6.054 -0.0735 -0.2763  0.3213
  919MOL0     O26732   5.787   5.386   6.004  0.2327  0.1452 -0.4576
  919MOL0     C26733   6.077   5.395   5.810  0.1903 -0.0025  0.1806
  919MOL0     C26734   6.133   5.342   5.699 -0.1145  0.5371  0.3731
  919MOL0     N26735   6.441   4.734   5.589 -0.5496 -0.0166 -0.0567
  919MOL0     N26736   6.480   4.666   5.695  0.6950  0.1191  0.4430
  919MOL0     C26737   7.003   5.119   6.251  0.0598  0.5850 -0.8421
  919MOL0     C26738   7.047   5.254   6.279  0.2456  0.2520  0.4134
  919MOL0     C26739   7.096   5.690   6.304 -0.7642  0.0941 -0.2236
  919MOL0     C26740   7.114   5.731   6.444 -0.2281 -0.1158  0.7753
  919MOL0     C26741   7.152   5.855   6.485  0.4994 -0.1289 -0.2101
  919MOL0     C26742   7.177   5.961   6.402 -0.0031 -0.6370 -0.3430
  919MOL0     O26743   7.213   6.090   6.437 -0.1165  0.1616  0.1241
  919MOL0     C26744   7.261   6.118   6.568  0.0649  0.0561 -0.5298
  919MOL0     C26745   7.312   6.263   6.565  0.6716 -0.3315 -0.8432
  919MOL0     C26746   7.363   6.309   6.707 -0.2348 -0.3330  0.4441
  919MOL0     C26747   7.411   6.454   6.692 -1.0321  0.3013  0.1029
  919MOL0     C26748   7.452   6.501   6.827 -0.3826  0.1680  0.0274
  919MOL0     C26749   7.473   6.534   6.943  0.4478 -0.2476  0.2597
  919MOL0     C26750   7.177   5.932   6.260 -0.3812  0.8661  0.6552
  919MOL0     C26751   7.143   5.797   6.219  0.3559  0.1430 -0.3974
  919MOL0     C26752   7.150   5.790   6.059 -0.2631 -0.3587 -0.2165
  919MOL0     H26753   6.759   5.360   6.426  1.4976  3.7873 -0.9009
  919MOL0     H26754   6.690   5.137   6.380 -0.0079 -0.9023  2.1796
  919MOL0     H26755   6.820   4.930   6.484  2.9665 -0.3921 -1.9889
  919MOL0     H26756   6.847   4.787   6.406 -1.6580 -0.8239  2.1261
  919MOL0     H26757   6.594   4.844   6.479  3.5237  1.5264  2.3435
  919MOL0     H26758   6.590   4.951   6.346 -0.6270  1.1127  2.0019
  919MOL0     H26759   6.687   4.742   6.201 -0.2506 -0.0630 -0.7598
  919MOL0     H26760   6.591   4.648   6.325 -1.6084 -0.1462 -1.1217
  919MOL0     H26761   6.381   4.779   6.271 -0.6316  1.4663 -0.7255
  919MOL0     H26762   6.458   4.871   6.158 -0.5591  0.4061  0.7048
  919MOL0     H26763   6.452   4.561   6.162 -2.2855 -0.3506  1.1807
  919MOL0     H26764   6.538   4.657   6.033  0.5174  0.8339 -0.5501
  919MOL0     H26765   6.251   4.661   6.139  0.9318  3.5322  0.6631
  919MOL0     H26766   6.299   4.748   5.995  2.4475  0.2157 -1.6633
  919MOL0     H26767   6.162   4.538   5.946  0.5715  0.0368  0.0219
  919MOL0     H26768   6.277   4.443   6.029 -1.0826 -1.6742 -2.0453
  919MOL0     H26769   6.449   4.470   5.893  0.2162  1.7710  0.9667
  919MOL0     H26770   6.319   4.402   5.802 -0.8806  0.0883 -0.2632
  919MOL0     H26771   6.152   4.636   5.719  0.8623 -2.7067  1.0832
  919MOL0     H26772   6.109   4.816   5.526 -2.3316 -0.8295 -3.1506
  919MOL0     H26773   6.199   4.722   5.410 -0.3448  0.0090 -0.7264
  919MOL0     H26774   6.310   4.996   5.517  1.0223 -3.6091  1.3706
  919MOL0     H26775   6.350   4.918   5.351 -0.3680  0.4839 -0.6647
  919MOL0     H26776   6.230   5.086   5.297  1.2013 -1.2496 -2.2498
  919MOL0     H26777   6.149   4.930   5.285  0.9196 -0.5714  1.5039
  919MOL0     H26778   5.992   5.118   5.362  0.9245  1.3856 -0.0919
  919MOL0     H26779   6.016   5.001   5.494  1.3400 -1.2949  0.3360
  919MOL0     H26780   5.861   5.184   5.568 -0.6542 -1.4303  1.3703
  919MOL0     H26781   5.664   5.292   5.653  0.2117  3.9010 -0.0943
  919MOL0     H26782   5.658   5.367   5.796  1.8406  0.1952  2.4241
  919MOL0     H26783   5.696   5.188   5.799  0.8455  0.3850  0.5288
  919MOL0     H26784   5.942   5.500   6.262 -0.9880 -2.2819 -0.8708
  919MOL0     H26785   5.817   5.630   6.418  1.4078 -0.0509 -0.8733
  919MOL0     H26786   5.537   5.712   6.448  1.6943 -2.1534  2.0869
  919MOL0     H26787   5.670   5.747   6.537 -0.3507 -1.3278  0.6953
  919MOL0     H26788   5.580   5.990   6.575 -0.1351 -0.7556  1.9328
  919MOL0     H26789   5.424   5.924   6.517 -1.5033 -1.4552  2.2095
  919MOL0     H26790   5.590   5.798   6.734 -0.3605 -2.7869 -1.8910
  919MOL0     H26791   5.439   5.746   6.668  1.0596  0.7978 -0.7038
  919MOL0     H26792   5.465   6.046   6.787  1.9891 -0.7403 -3.0017
  919MOL0     H26793   5.423   5.905   6.896  0.5214 -1.3079 -0.5133
  919MOL0     H26794   5.261   5.962   6.646 -2.0848  0.1501  0.6928
  919MOL0     H26795   5.220   5.860   6.775  0.6056 -0.8972  0.6046
  919MOL0     H26796   5.246   6.164   6.816 -0.3663  0.4175  1.8336
  919MOL0     H26797   5.185   6.063   6.933 -1.5511 -0.3652  0.0760
  919MOL0     H26798   5.009   5.981   6.786 -3.6563  2.6579  1.5596
  919MOL0     H26799   5.056   6.081   6.652 -2.7121 -2.8346 -1.5231
  919MOL0     H26800   5.029   6.281   6.796  0.1665  0.4174  0.1896
  919MOL0     H26801   4.955   6.180   6.923  2.4625  0.3058  0.6986
  919MOL0     H26802   5.719   5.910   6.110  0.2663 -1.4453 -2.2407
  919MOL0     H26803   5.806   5.767   5.950 -0.3469 -0.5774  0.2731
  919MOL0     H26804   6.137   5.470   5.860  0.4757 -0.0252 -0.1197
  919MOL0     H26805   6.240   5.337   5.683 -0.2177 -1.3344  0.0274
  919MOL0     H26806   7.064   5.038   6.213  1.3979  0.0617  2.1416
  919MOL0     H26807   7.148   5.283   6.251 -0.6618  0.2176 -3.3960
  919MOL0     H26808   7.082   5.662   6.521 -3.8321 -0.6778 -0.9996
  919MOL0     H26809   7.163   5.874   6.592  0.1783  0.6352 -0.3070
  919MOL0     H26810   7.193   6.096   6.650  3.0543 -1.0025  1.8554
  919MOL0     H26811   7.346   6.050   6.574 -0.7753 -1.1305 -1.4145
  919MOL0     H26812   7.225   6.326   6.545 -0.9694 -1.7905  1.1822
  919MOL0     H26813   7.398   6.283   6.499  3.6942  0.9238  3.0888
  919MOL0     H26814   7.287   6.297   6.785  1.3739 -3.9796  1.6632
  919MOL0     H26815   7.440   6.237   6.739  1.7058  0.9283 -1.1553
  919MOL0     H26816   7.329   6.512   6.648 -0.1889 -0.4954 -2.7883
  919MOL0     H26817   7.497   6.449   6.624 -1.9593 -0.6518 -1.0561
  919MOL0     H26818   7.474   6.573   7.043  1.3635  0.7689 -0.1256
  919MOL0     H26819   7.204   6.005   6.184  0.0408 -0.6541 -0.7142
  919MOL0     H26820   7.100   5.713   5.999  0.8678 -1.2086 -0.0871
  919MOL0     H26821   7.118   5.892   6.036  0.7841  0.5143  1.9341
  919MOL0     H26822   7.253   5.782   6.025 -0.3032  1.8909 -1.0702
  920MOL0     O26823   3.360   5.234   0.947 -0.4720 -0.4866 -0.2768
  920MOL0     C26824   3.390   5.246   0.825 -0.1725  0.2266  0.1830
  920MOL0     O26825   3.514   5.286   0.776 -0.2413 -0.0054  0.5816
  920MOL0     C26826   3.615   5.333   0.854 -0.1394 -0.0127  0.5054
  920MOL0     C26827   3.720   5.364   0.772  0.6886  0.0173  0.3240
  920MOL0     C26828   3.836   5.414   0.833  0.6856  0.5295  0.1943
  920MOL0     C26829   3.852   5.434   0.968  0.5890  0.7114 -0.7430
  920MOL0     O26830   3.971   5.467   1.016 -0.2852  0.2414  0.0927
  920MOL0     C26831   4.024   5.395   1.131 -0.1187  0.5407  0.0812
  920MOL0     C26832   4.171   5.388   1.104 -0.6257  0.0679  0.1663
  920MOL0     C26833   4.249   5.324   1.214 -0.0025  0.3414  0.8026
  920MOL0     C26834   4.390   5.307   1.172  1.0940 -0.5976  0.4268
  920MOL0     C26835   4.489   5.310   1.295  0.5762 -0.2319  0.5293
  920MOL0     C26836   4.640   5.336   1.268  0.8017  0.6284 -0.4203
  920MOL0     C26837   4.699   5.244   1.157 -0.2499  0.0484 -0.0223
  920MOL0     C26838   4.844   5.272   1.129  0.4188 -0.7203 -0.1630
  920MOL0     N26839   4.878   5.404   1.085  0.6214 -0.4727  0.7829
  920MOL0     C26840   4.867   5.447   0.957 -0.8231  0.9656 -1.0769
  920MOL0     C26841   4.941   5.561   0.950  0.4561 -0.2104  0.5950
  920MOL0     C26842   4.945   5.651   0.833 -0.6311 -1.0047 -0.3455
  920MOL0     C26843   5.008   5.614   0.704  0.0596  0.0050 -0.5872
  920MOL0     C26844   5.162   5.618   0.702  0.4047  0.4121  0.6646
  920MOL0     C26845   5.215   5.534   0.577  1.0568  0.0926  1.0950
  920MOL0     O26846   5.142   5.561   0.453  0.2170 -0.3385  0.4344
  920MOL0     C26847   5.175   5.664   0.372  1.2630  0.5744  0.3676
  920MOL0     C26848   5.249   5.776   0.397  0.2580  0.2626  0.0152
  920MOL0     C26849   5.274   5.863   0.292  0.0104  0.3706  0.4328
  920MOL0     C26850   5.359   5.985   0.335 -0.0902  1.0498  0.5070
  920MOL0     C26851   5.215   5.841   0.166  0.2767 -0.0321  0.4301
  920MOL0     C26852   5.254   5.924   0.044  0.5363  0.1864  1.1652
  920MOL0     O26853   5.372   5.989   0.048 -0.2044  0.6798  0.8492
  920MOL0     C26854   5.412   6.062  -0.060  0.0697 -0.7433 -0.1419
  920MOL0     C26855   5.428   6.199  -0.040  0.0993  0.0219  0.0034
  920MOL0     C26856   5.487   6.274  -0.145  0.3432  0.5180 -0.3995
  920MOL0     C26857   5.517   6.224  -0.274  0.2400 -0.0450  0.4166
  920MOL0     O26858   5.578   6.294  -0.375  0.9648 -0.5014  0.0098
  920MOL0     C26859   5.594   6.239  -0.508 -0.7633 -0.2110 -1.0274
  920MOL0     C26860   5.687   6.343  -0.587  0.8279 -0.5596 -0.6524
  920MOL0     C26861   5.832   6.338  -0.526  0.1142 -0.2566  0.0273
  920MOL0     C26862   5.933   6.429  -0.601  0.5105  1.3251  0.7823
  920MOL0     C26863   6.040   6.469  -0.497 -0.5166 -0.0894  0.5192
  920MOL0     C26864   6.162   6.539  -0.564  0.3746 -0.1064  0.0690
  920MOL0     C26865   6.286   6.576  -0.482  0.1016 -0.0632 -1.1976
  920MOL0     C26866   6.383   6.456  -0.487 -1.0941 -0.5328  0.2831
  920MOL0    Cl26867   6.440   6.427  -0.654 -0.7860  0.2856 -0.2399
  920MOL0     C26868   5.477   6.088  -0.294 -0.6855 -0.0732  0.3396
  920MOL0     C26869   5.419   6.010  -0.189 -0.0498  1.2595  0.2434
  920MOL0     O26870   5.179   5.905  -0.047 -0.3750 -0.1225  0.5287
  920MOL0     C26871   5.131   5.729   0.150 -0.7699  0.2701 -0.0380
  920MOL0     C26872   5.121   5.642   0.249  0.4897  1.2224  0.4450
  920MOL0     N26873   4.995   5.588   1.073  0.2722  0.3276  0.2952
  920MOL0     N26874   4.965   5.493   1.156  1.1889  0.3016  0.4509
  920MOL0     C26875   3.737   5.406   1.048  0.4786  0.0089 -0.1955
  920MOL0     C26876   3.621   5.347   0.991  0.7643 -0.4770 -0.6936
  920MOL0     C26877   3.279   5.218   0.734 -0.0732  0.2359  0.2781
  920MOL0     C26878   3.218   5.090   0.746  0.1119 -0.3617 -0.1311
  920MOL0     C26879   3.108   5.048   0.668 -0.5385 -0.4971  0.0375
  920MOL0     C26880   3.073   5.125   0.559 -0.0993  0.3304 -0.3520
  920MOL0     O26881   2.974   5.076   0.475 -0.1512  0.0809  0.3777
  920MOL0     C26882   2.957   5.141   0.348 -0.5953 -0.3466 -0.4085
  920MOL0     C26883   2.904   5.042   0.241  0.1450 -0.6441  0.3011
  920MOL0     C26884   2.877   5.119   0.104 -0.4098  0.4104 -0.6015
  920MOL0     C26885   2.721   5.137   0.086 -0.4603 -1.1871  0.4848
  920MOL0     C26886   2.682   5.212  -0.033 -0.5624  0.8256 -0.3838
  920MOL0     C26887   2.638   5.265  -0.138  0.7110  0.5854  0.1011
  920MOL0     C26888   3.134   5.250   0.549  0.3783 -0.2824 -0.6140
  920MOL0     C26889   3.227   5.305   0.642 -0.7167  0.3338 -0.2677
  920MOL0     C26890   3.274   5.442   0.632  0.1056  0.3033  0.0020
  920MOL0     H26891   3.727   5.369   0.663 -0.4207  1.6316  0.2874
  920MOL0     H26892   3.926   5.423   0.774  0.8553  2.1543  0.6622
  920MOL0     H26893   3.985   5.293   1.138  1.6718 -0.0768  1.6614
  920MOL0     H26894   3.995   5.448   1.222 -1.0057  1.0439 -0.4759
  920MOL0     H26895   4.184   5.340   1.006 -0.4744  0.0990  0.1716
  920MOL0     H26896   4.219   5.485   1.091  1.6890 -0.9959  0.2906
  920MOL0     H26897   4.247   5.396   1.296 -0.8873  3.2275 -1.5743
  920MOL0     H26898   4.203   5.227   1.237  0.0333  0.2140  0.3347
  920MOL0     H26899   4.402   5.211   1.121 -2.1938 -0.2775 -1.1903
  920MOL0     H26900   4.421   5.383   1.099  1.6731 -2.2149 -1.0989
  920MOL0     H26901   4.481   5.219   1.356 -1.2722  0.8322  1.9867
  920MOL0     H26902   4.449   5.387   1.362  2.0802 -0.8003  2.1857
  920MOL0     H26903   4.632   5.441   1.238 -1.9287  1.2410  2.0219
  920MOL0     H26904   4.690   5.335   1.365 -1.4920  0.2667  0.8426
  920MOL0     H26905   4.639   5.254   1.066  0.5277  1.7711 -0.3825
  920MOL0     H26906   4.693   5.142   1.196  2.0030  0.1484  0.7232
  920MOL0     H26907   4.898   5.269   1.224 -1.6498  2.7822  1.3551
  920MOL0     H26908   4.876   5.193   1.060  1.6386 -1.3850  1.1313
  920MOL0     H26909   4.817   5.399   0.873 -2.9475  0.3123  0.4761
  920MOL0     H26910   4.996   5.738   0.874 -0.9135 -1.7957  1.8312
  920MOL0     H26911   4.847   5.697   0.814  0.4440  0.3162 -3.2090
  920MOL0     H26912   4.961   5.518   0.682 -3.6223  0.3851  4.0166
  920MOL0     H26913   4.978   5.690   0.631  0.4315  1.5692  0.8400
  920MOL0     H26914   5.181   5.724   0.684 -2.4945  1.1539  1.4296
  920MOL0     H26915   5.210   5.585   0.794  1.2685 -0.2398  0.0017
  920MOL0     H26916   5.320   5.557   0.557  0.6165  0.3082 -1.3183
  920MOL0     H26917   5.207   5.435   0.622 -0.1005  0.5970  2.0655
  920MOL0     H26918   5.274   5.799   0.500 -3.3302 -0.7362  1.2876
  920MOL0     H26919   5.347   6.021   0.438 -0.2746  0.7799  0.5802
  920MOL0     H26920   5.307   6.062   0.276 -1.9589 -1.8063 -1.8402
  920MOL0     H26921   5.461   5.980   0.296 -2.0075  2.2566 -5.9124
  920MOL0     H26922   5.395   6.247   0.051 -1.5107 -3.1733  1.2846
  920MOL0     H26923   5.516   6.377  -0.124 -0.3717  0.2827  2.1485
  920MOL0     H26924   5.645   6.143  -0.500  1.0368  0.8524  1.4872
  920MOL0     H26925   5.492   6.232  -0.548 -2.3490  1.3402  2.3324
  920MOL0     H26926   5.688   6.312  -0.692 -1.0843 -0.6181 -0.6884
  920MOL0     H26927   5.644   6.443  -0.582  0.3253 -0.8507  2.0956
  920MOL0     H26928   5.864   6.233  -0.526 -0.8139 -0.5834 -1.8618
  920MOL0     H26929   5.829   6.373  -0.422  2.4756  2.5707 -0.7293
  920MOL0     H26930   5.887   6.517  -0.646 -2.6659  0.5085  2.1916
  920MOL0     H26931   5.985   6.374  -0.681  1.9518 -0.8570  3.0457
  920MOL0     H26932   5.985   6.539  -0.434 -1.8503  0.1706 -0.8592
  920MOL0     H26933   6.079   6.382  -0.443  2.3624 -1.0009 -2.6751
  920MOL0     H26934   6.119   6.623  -0.618  0.7716 -1.1379 -1.9535
  920MOL0     H26935   6.193   6.470  -0.644 -0.6796 -1.0253  0.4263
  920MOL0     H26936   6.251   6.591  -0.379 -1.6031 -1.1171 -1.5910
  920MOL0     H26937   6.332   6.669  -0.519 -1.6270  1.4110  0.1425
  920MOL0     H26938   6.333   6.366  -0.448  1.1519 -0.9508  2.4500
  920MOL0     H26939   6.466   6.484  -0.421 -0.1888  1.4343 -1.5837
  920MOL0     H26940   5.471   6.036  -0.389  2.9367 -1.3557  0.6289
  920MOL0     H26941   5.395   5.905  -0.206 -0.5947  1.2110  1.2015
  920MOL0     H26942   5.077   5.713   0.057  1.4956 -1.6255 -1.1407
  920MOL0     H26943   5.064   5.555   0.219  1.9629 -0.5888  2.5864
  920MOL0     H26944   3.754   5.424   1.154 -0.2888 -2.5187  0.4410
  920MOL0     H26945   3.539   5.325   1.058  0.2375 -0.2387 -1.2529
  920MOL0     H26946   3.243   5.035   0.836 -1.1247  0.4177  0.7274
  920MOL0     H26947   3.069   4.948   0.683  0.0136 -1.0232 -1.8438
  920MOL0     H26948   2.890   5.226   0.363  0.6611  0.4463  1.0261
  920MOL0     H26949   3.049   5.192   0.317  0.1172  0.1073  2.2064
  920MOL0     H26950   2.820   4.985   0.281 -0.7186  0.9442  0.8459
  920MOL0     H26951   2.986   4.972   0.224 -1.4882 -2.2831 -1.4005
  920MOL0     H26952   2.926   5.216   0.113  0.9852 -0.4587  2.1833
  920MOL0     H26953   2.927   5.061   0.025 -0.0554  0.1228 -0.1766
  920MOL0     H26954   2.680   5.175   0.180  2.1207 -0.5673  1.4601
  920MOL0     H26955   2.688   5.035   0.067 -0.8325 -1.0025  0.1366
  920MOL0     H26956   2.629   5.314  -0.233 -0.2964  0.0246 -0.1016
  920MOL0     H26957   3.105   5.315   0.467  0.2771  1.1569  0.5294
  920MOL0     H26958   3.308   5.489   0.725 -4.0567 -1.6800  2.8404
  920MOL0     H26959   3.346   5.447   0.550 -1.1571  1.1616 -1.0820
  920MOL0     H26960   3.190   5.500   0.594  1.0319  1.9492  0.3849
  921MOL0     O26961   5.501   8.130   0.095  0.0513  0.4832 -0.1525
  921MOL0     C26962   5.551   8.237   0.114 -0.2027 -0.0141  0.2961
  921MOL0     O26963   5.527   8.349   0.047  0.3837  0.6409  0.9450
  921MOL0     C26964   5.402   8.360  -0.011  0.2931  0.0153  0.1230
  921MOL0     C26965   5.296   8.418   0.062  0.2257  0.1404 -0.2812
  921MOL0     C26966   5.178   8.437   0.001  0.3574  1.1722 -0.6536
  921MOL0     C26967   5.145   8.397  -0.136 -0.0816  0.5515 -0.3564
  921MOL0     O26968   5.021   8.430  -0.181  0.8691 -0.5331 -0.5731
  921MOL0     C26969   4.985   8.336  -0.288  0.0830 -0.2809  0.2588
  921MOL0     C26970   4.841   8.294  -0.261 -0.4961 -0.2018  0.3005
  921MOL0     C26971   4.752   8.408  -0.295  0.7795  0.5672 -0.6518
  921MOL0     C26972   4.606   8.385  -0.305 -0.8103 -0.2078  0.0267
  921MOL0     C26973   4.516   8.505  -0.248 -0.8462  0.4301 -0.0350
  921MOL0     C26974   4.548   8.634  -0.323  0.4037  0.2185 -0.0756
  921MOL0     C26975   4.443   8.741  -0.306  0.1018 -0.0274 -0.3855
  921MOL0     C26976   4.488   8.877  -0.329  0.4985  0.0038 -0.5266
  921MOL0     N26977   4.550   8.891  -0.459  0.4999 -0.0254 -0.5387
  921MOL0     C26978   4.476   8.934  -0.565  0.4712  0.8869  0.4536
  921MOL0     C26979   4.567   8.965  -0.666  0.0170 -0.3736 -0.0431
  921MOL0     C26980   4.552   9.032  -0.798  0.3054 -0.0398  0.1175
  921MOL0     C26981   4.515   8.935  -0.906  0.2356  1.1722  0.1373
  921MOL0     C26982   4.628   8.833  -0.930  0.3090  0.0403 -0.0888
  921MOL0     C26983   4.613   8.752  -1.060 -0.2550  0.1543 -0.6128
  921MOL0     O26984   4.725   8.652  -1.069  0.1304 -0.5461 -0.5354
  921MOL0     C26985   4.848   8.690  -1.079 -1.5964 -0.3911  0.4552
  921MOL0     C26986   4.949   8.620  -1.007  0.1900 -0.0384 -1.0693
  921MOL0     C26987   5.080   8.660  -1.015 -0.1073  0.1498 -0.2201
  921MOL0     C26988   5.178   8.571  -0.936 -0.1780  0.0277 -0.0110
  921MOL0     C26989   5.137   8.763  -1.096  0.5495  0.4981 -0.4789
  921MOL0     C26990   5.284   8.805  -1.108  0.2688 -0.4590 -0.1125
  921MOL0     O26991   5.366   8.767  -1.000  0.4709 -0.0891  0.3549
  921MOL0     C26992   5.506   8.780  -1.006 -0.3752  0.2099 -0.3466
  921MOL0     C26993   5.570   8.815  -0.887  0.1441  0.7165  0.6310
  921MOL0     C26994   5.704   8.807  -0.871 -0.7745  0.6741  0.1058
  921MOL0     C26995   5.784   8.752  -0.978 -0.4758 -0.1775 -0.1710
  921MOL0     O26996   5.920   8.729  -0.966 -0.1660 -0.2392 -0.9412
  921MOL0     C26997   5.944   8.618  -0.874 -0.0743  0.5246 -0.4295
  921MOL0     C26998   5.884   8.486  -0.931 -0.3296 -0.0476 -0.1621
  921MOL0     C26999   5.917   8.353  -0.865 -0.1688  0.0602 -0.4032
  921MOL0     C27000   5.838   8.233  -0.924  0.3271 -0.4156 -0.7190
  921MOL0     C27001   5.840   8.119  -0.826 -0.5897 -0.6116  0.4533
  921MOL0     C27002   5.728   8.023  -0.865 -0.3762 -0.2907  0.5493
  921MOL0     C27003   5.752   7.888  -0.800 -0.0243  0.4274 -0.7678
  921MOL0     C27004   5.644   7.794  -0.828 -0.4148  0.1378  0.6587
  921MOL0    Cl27005   5.633   7.654  -0.708  0.1359  0.1099  0.0078
  921MOL0     C27006   5.722   8.726  -1.096  0.2756  0.5898  0.0323
  921MOL0     C27007   5.591   8.745  -1.115 -0.2519 -0.6385 -0.2322
  921MOL0     O27008   5.316   8.884  -1.195 -0.8014 -0.4835  0.6087
  921MOL0     C27009   5.038   8.824  -1.175  0.3846 -0.4287 -1.3996
  921MOL0     C27010   4.897   8.791  -1.165 -0.2034  0.0736 -0.2619
  921MOL0     N27011   4.691   8.932  -0.614  0.1666 -0.4035 -0.2981
  921MOL0     N27012   4.686   8.890  -0.493 -0.2993  0.0489  0.0386
  921MOL0     C27013   5.251   8.352  -0.219 -0.8878  0.5440 -0.6185
  921MOL0     C27014   5.374   8.328  -0.147  0.2968  0.5095  0.7399
  921MOL0     C27015   5.637   8.247   0.232 -0.8692  0.6440 -0.3924
  921MOL0     C27016   5.596   8.318   0.344 -0.1993  0.6024 -0.2266
  921MOL0     C27017   5.671   8.315   0.460  0.2159  1.0601  0.5771
  921MOL0     C27018   5.785   8.234   0.470 -0.5392 -0.4724  0.3344
  921MOL0     O27019   5.852   8.248   0.585  0.1818  0.9941  0.2385
  921MOL0     C27020   5.970   8.169   0.610  0.0091  0.0960  0.3684
  921MOL0     C27021   6.025   8.182   0.746  0.4477 -0.0267 -1.0682
  921MOL0     C27022   6.075   8.318   0.793 -0.5693 -1.1317 -0.6992
  921MOL0     C27023   6.154   8.321   0.932  0.3557  1.0601 -0.7553
  921MOL0     C27024   6.071   8.261   1.040 -0.9562 -0.3166 -1.4417
  921MOL0     C27025   5.971   8.232   1.102 -0.3304  0.5081 -0.1774
  921MOL0     C27026   5.824   8.161   0.363  0.4243  0.2675 -0.5594
  921MOL0     C27027   5.754   8.162   0.245 -0.9220 -0.0276  0.9807
  921MOL0     C27028   5.803   8.083   0.124  0.1734 -0.1883  0.5018
  921MOL0     H27029   5.321   8.452   0.162  0.2484 -0.8322  0.0587
  921MOL0     H27030   5.105   8.486   0.065  0.9731 -0.2553  1.2391
  921MOL0     H27031   5.044   8.244  -0.285  0.5074  0.0053  0.6154
  921MOL0     H27032   4.998   8.384  -0.386  0.7756  1.0907  0.9839
  921MOL0     H27033   4.808   8.213  -0.327 -0.9130  1.4937 -1.6743
  921MOL0     H27034   4.836   8.263  -0.157 -0.2827  0.6813  0.5824
  921MOL0     H27035   4.772   8.488  -0.223  0.7673  0.4149 -0.4792
  921MOL0     H27036   4.782   8.451  -0.391 -1.1382  1.0831 -1.0668
  921MOL0     H27037   4.589   8.357  -0.409  0.0569  0.9909 -0.4593
  921MOL0     H27038   4.592   8.296  -0.243 -2.4885  1.0973  1.6245
  921MOL0     H27039   4.536   8.516  -0.141  1.8145 -0.0196 -0.4098
  921MOL0     H27040   4.410   8.486  -0.263 -1.1480  0.0089  2.3956
  921MOL0     H27041   4.641   8.677  -0.286  0.4282  0.1555 -0.0649
  921MOL0     H27042   4.564   8.617  -0.430  0.2140  1.5650 -0.3415
  921MOL0     H27043   4.396   8.735  -0.208  1.1342  1.9526  0.2764
  921MOL0     H27044   4.371   8.723  -0.387  2.2367 -0.8636 -2.2311
  921MOL0     H27045   4.396   8.936  -0.323 -0.7181 -1.6177 -2.0318
  921MOL0     H27046   4.561   8.913  -0.256  1.4284 -0.2003 -1.3284
  921MOL0     H27047   4.368   8.945  -0.569  0.4169  0.4462  0.6612
  921MOL0     H27048   4.646   9.087  -0.803  0.7013 -0.1675  3.5549
  921MOL0     H27049   4.472   9.106  -0.786 -0.6318 -1.1795  1.2479
  921MOL0     H27050   4.423   8.886  -0.872  1.7435 -1.1439  1.1779
  921MOL0     H27051   4.489   8.984  -1.000  1.3683  1.0451 -0.2693
  921MOL0     H27052   4.717   8.894  -0.946 -0.2485  0.9888  0.3175
  921MOL0     H27053   4.639   8.774  -0.839 -1.6035 -2.3885 -1.3173
  921MOL0     H27054   4.523   8.691  -1.056 -0.0926 -0.0479  0.1470
  921MOL0     H27055   4.613   8.814  -1.150 -0.7489  0.8529 -0.1418
  921MOL0     H27056   4.914   8.546  -0.935  0.4290  2.0592  1.3324
  921MOL0     H27057   5.122   8.480  -0.912 -4.7843  3.0142  1.9966
  921MOL0     H27058   5.201   8.608  -0.835 -0.7771  0.3206  0.0216
  921MOL0     H27059   5.269   8.550  -0.994 -0.2501 -2.1134  0.5360
  921MOL0     H27060   5.500   8.828  -0.805 -1.8371  1.4165 -1.0798
  921MOL0     H27061   5.764   8.825  -0.782 -3.0415  1.0226  1.6661
  921MOL0     H27062   6.053   8.613  -0.862 -0.0444  2.3441  0.2670
  921MOL0     H27063   5.905   8.634  -0.774 -2.4602 -0.5845 -1.1077
  921MOL0     H27064   5.775   8.489  -0.935 -0.5947  0.5914  3.9138
  921MOL0     H27065   5.928   8.481  -1.032 -1.2999 -2.8057 -0.5480
  921MOL0     H27066   5.894   8.366  -0.759 -0.9220 -0.6129 -0.4726
  921MOL0     H27067   6.025   8.340  -0.880 -0.3283  0.7735 -2.5791
  921MOL0     H27068   5.881   8.206  -1.021  0.1584 -0.7801 -0.6944
  921MOL0     H27069   5.737   8.270  -0.941  1.6746  3.4610 -1.4537
  921MOL0     H27070   5.939   8.074  -0.832  1.5974  3.7369  0.3271
  921MOL0     H27071   5.830   8.143  -0.720 -2.8047  1.0102 -0.0446
  921MOL0     H27072   5.715   8.018  -0.974 -1.0655  1.7739  0.4846
  921MOL0     H27073   5.633   8.063  -0.828 -0.3594  0.2806  0.0034
  921MOL0     H27074   5.766   7.903  -0.693  1.9707 -0.0094 -0.9161
  921MOL0     H27075   5.848   7.842  -0.825 -0.2871 -0.1887 -0.6475
  921MOL0     H27076   5.657   7.765  -0.933 -0.0805  2.9602 -0.1597
  921MOL0     H27077   5.549   7.848  -0.824 -0.6181 -0.2613  1.2633
  921MOL0     H27078   5.783   8.688  -1.176 -0.0354  0.5702 -0.1985
  921MOL0     H27079   5.549   8.726  -1.213 -1.8189 -1.2439  0.5266
  921MOL0     H27080   5.072   8.900  -1.245 -0.0616  1.2472  0.1282
  921MOL0     H27081   4.824   8.842  -1.227 -0.1647  1.6664  0.9442
  921MOL0     H27082   5.255   8.337  -0.326 -3.6579  3.0224 -1.1965
  921MOL0     H27083   5.457   8.297  -0.208 -1.1645  0.8347 -1.5499
  921MOL0     H27084   5.506   8.379   0.339  1.0503  2.4080 -1.8270
  921MOL0     H27085   5.644   8.366   0.552  1.2642  0.5240  1.2016
  921MOL0     H27086   5.952   8.062   0.597  0.4369  0.0623  0.0269
  921MOL0     H27087   6.049   8.202   0.542 -0.9105 -1.9934 -1.8809
  921MOL0     H27088   6.107   8.110   0.750 -0.5327 -1.1319  0.2963
  921MOL0     H27089   5.954   8.139   0.817 -0.8283 -0.6518 -2.6817
  921MOL0     H27090   6.132   8.365   0.713 -1.3319 -0.4626 -0.8653
  921MOL0     H27091   5.985   8.378   0.809  0.3176 -0.0483  0.5834
  921MOL0     H27092   6.184   8.421   0.966  0.4282  0.4806  0.9766
  921MOL0     H27093   6.248   8.269   0.911 -1.4552 -2.3027 -1.2217
  921MOL0     H27094   5.887   8.219   1.166 -0.5662  0.9099 -0.4029
  921MOL0     H27095   5.915   8.101   0.356 -0.8906 -2.0106  0.5111
  921MOL0     H27096   5.856   8.151   0.056  0.6230 -2.3681 -1.4892
  921MOL0     H27097   5.877   8.006   0.146 -0.8431 -1.8631 -1.5581
  921MOL0     H27098   5.723   8.051   0.056  0.6950 -1.0218  0.2593
  922MOL0     O27099   9.727   1.764   7.472  0.7662  0.4244 -0.6069
  922MOL0     C27100   9.683   1.755   7.586  0.0112  0.5275 -0.6875
  922MOL0     O27101   9.743   1.682   7.682  0.2285 -0.6296 -0.1245
  922MOL0     C27102   9.863   1.621   7.656  0.3946  0.0587  1.5717
  922MOL0     C27103   9.957   1.626   7.758 -0.3248  0.1109  0.8566
  922MOL0     C27104  10.090   1.568   7.742 -0.4749 -0.3369  0.7106
  922MOL0     C27105  10.124   1.509   7.621  0.0287 -0.0247 -0.9633
  922MOL0     O27106  10.243   1.439   7.611  0.6056  0.1331 -0.3017
  922MOL0     C27107  10.328   1.409   7.726  0.5651 -0.8557  0.1765
  922MOL0     C27108  10.440   1.299   7.685 -0.1103  0.0321  0.5897
  922MOL0     C27109  10.553   1.267   7.775 -0.3329  0.4339  0.6412
  922MOL0     C27110  10.610   1.133   7.721 -0.2630  0.7421  0.4762
  922MOL0     C27111  10.712   1.061   7.816 -0.4018 -0.3649  0.6856
  922MOL0     C27112  10.636   0.980   7.924  0.1575 -0.4994 -0.4037
  922MOL0     C27113  10.741   0.910   8.014 -0.4410  0.0097 -0.3314
  922MOL0     C27114  10.687   0.875   8.156  0.6252  0.1921  0.2141
  922MOL0     N27115  10.783   0.805   8.239 -0.0639  0.3384  0.5444
  922MOL0     C27116  10.895   0.855   8.293  0.5408  0.9227 -0.0071
  922MOL0     C27117  10.958   0.755   8.357  0.1633  0.0862  0.6374
  922MOL0     C27118  11.086   0.761   8.431  0.6536 -0.2795 -0.1994
  922MOL0     C27119  11.168   0.633   8.411  0.0925  0.2051  0.2138
  922MOL0     C27120  11.278   0.611   8.513  0.2064 -0.1161  0.0350
  922MOL0     C27121  11.371   0.488   8.502 -0.0153  0.2053 -0.4030
  922MOL0     O27122  11.488   0.495   8.579 -0.4138  0.6576  0.2433
  922MOL0     C27123  11.565   0.383   8.592  0.5304  0.2490 -0.3721
  922MOL0     C27124  11.669   0.396   8.681 -0.0244 -0.2439 -0.0638
  922MOL0     C27125  11.756   0.288   8.708 -0.1683  0.4053 -0.6313
  922MOL0     C27126  11.883   0.311   8.782  0.0622 -0.0142  0.2969
  922MOL0     C27127  11.717   0.156   8.677  0.5481 -0.6095 -0.3058
  922MOL0     C27128  11.785   0.030   8.721  0.2895  0.2510  0.4588
  922MOL0     O27129  11.837   0.026   8.845 -0.7129 -0.3277 -0.3924
  922MOL0     C27130  11.932  -0.063   8.883 -0.3787 -0.4058  0.5540
  922MOL0     C27131  12.033  -0.110   8.799  0.1392  1.1103  0.1317
  922MOL0     C27132  12.117  -0.213   8.849 -0.1817  0.0788  0.3382
  922MOL0     C27133  12.122  -0.266   8.978  0.2949  0.4661  0.3771
  922MOL0     O27134  12.212  -0.350   9.032  0.7026  0.0092  0.4109
  922MOL0     C27135  12.327  -0.388   8.961 -0.4068  0.2019 -0.6242
  922MOL0     C27136  12.391  -0.522   9.015  0.8292 -0.4355 -0.5681
  922MOL0     C27137  12.400  -0.510   9.171  0.5734 -0.6634  0.3348
  922MOL0     C27138  12.485  -0.626   9.220  0.9746 -0.1498 -1.1522
  922MOL0     C27139  12.458  -0.660   9.366  0.2384  0.2530 -0.5509
  922MOL0     C27140  12.513  -0.565   9.474  0.5131  0.4273  1.2863
  922MOL0     C27141  12.661  -0.528   9.438 -0.4510 -0.6810 -0.8323
  922MOL0     C27142  12.736  -0.485   9.564 -0.3596  0.0634 -0.3031
  922MOL0    Cl27143  12.685  -0.320   9.613  0.2506  0.3565 -0.0150
  922MOL0     C27144  12.010  -0.227   9.054 -0.4280 -0.5562 -0.3147
  922MOL0     C27145  11.919  -0.128   9.009 -1.0725 -0.7856 -0.4884
  922MOL0     O27146  11.791  -0.064   8.633  0.0613 -0.4861 -0.3931
  922MOL0     C27147  11.614   0.146   8.580  0.3030 -0.9653 -0.0306
  922MOL0     C27148  11.543   0.261   8.539  0.0068 -0.0993  0.2559
  922MOL0     N27149  10.876   0.640   8.345 -0.0718 -0.7371 -0.1624
  922MOL0     N27150  10.773   0.672   8.269 -0.5560  0.1255  0.2734
  922MOL0     C27151  10.026   1.504   7.516 -0.8283 -0.3994 -0.1529
  922MOL0     C27152   9.900   1.559   7.531 -0.4550  0.2201 -0.5626
  922MOL0     C27153   9.557   1.835   7.621  0.5856  0.6492 -1.4558
  922MOL0     C27154   9.467   1.863   7.517 -0.1109 -0.6631  0.4689
  922MOL0     C27155   9.344   1.929   7.544  1.7466  0.3438 -0.7009
  922MOL0     C27156   9.293   1.961   7.671 -0.2068 -0.1433  0.4342
  922MOL0     O27157   9.170   2.024   7.695  0.2459  0.0171  0.3575
  922MOL0     C27158   9.071   2.042   7.581  0.9537 -0.6039  0.4400
  922MOL0     C27159   8.937   2.109   7.619 -0.1055 -1.1625 -0.0449
  922MOL0     C27160   8.856   2.035   7.721 -0.6349 -0.1468 -0.5370
  922MOL0     C27161   8.719   2.108   7.754  0.8114  0.7253  0.1649
  922MOL0     C27162   8.623   2.006   7.802 -0.1501  0.0541 -0.3993
  922MOL0     C27163   8.550   1.907   7.815  0.3567  0.1298 -0.2639
  922MOL0     C27164   9.384   1.936   7.770  0.3055  0.5717 -0.2248
  922MOL0     C27165   9.518   1.876   7.756 -1.1793  0.0611  0.0114
  922MOL0     C27166   9.608   1.878   7.885 -0.2877 -0.3873  0.6784
  922MOL0     H27167   9.927   1.668   7.853 -2.0680 -0.0027  0.3977
  922MOL0     H27168  10.156   1.571   7.828  0.3748 -1.7368  0.1346
  922MOL0     H27169  10.270   1.372   7.812 -3.2050  1.3824 -1.1478
  922MOL0     H27170  10.378   1.496   7.767  1.9077 -1.7513  0.5066
  922MOL0     H27171  10.388   1.204   7.674  1.2772 -0.6437 -0.2975
  922MOL0     H27172  10.481   1.330   7.589 -0.0650 -0.5513  0.4195
  922MOL0     H27173  10.634   1.338   7.761 -0.8873  0.6816 -1.7510
  922MOL0     H27174  10.519   1.265   7.879 -2.3624 -0.8236  0.0128
  922MOL0     H27175  10.533   1.058   7.698  2.6533 -1.9247 -1.5050
  922MOL0     H27176  10.660   1.146   7.624  1.6926  0.8265  1.4352
  922MOL0     H27177  10.783   1.132   7.861 -0.6197  1.1170 -1.2101
  922MOL0     H27178  10.769   0.984   7.763 -2.6814 -0.0099 -2.5256
  922MOL0     H27179  10.574   1.052   7.979  1.9084  1.5761 -1.0048
  922MOL0     H27180  10.572   0.903   7.881 -1.7113  1.4856 -1.4103
  922MOL0     H27181  10.831   0.972   8.024 -0.8580  0.2823  2.7340
  922MOL0     H27182  10.768   0.816   7.965  2.0631 -0.4812  1.7833
  922MOL0     H27183  10.661   0.964   8.213  4.1640  1.6797 -0.2392
  922MOL0     H27184  10.596   0.813   8.149  1.0967 -0.4229 -0.8089
  922MOL0     H27185  10.927   0.959   8.285 -1.2088  1.4684 -0.3648
  922MOL0     H27186  11.068   0.789   8.535 -1.8980 -0.6401 -0.4718
  922MOL0     H27187  11.153   0.837   8.393  0.6112 -0.9295 -1.6218
  922MOL0     H27188  11.103   0.545   8.404  0.5385 -0.1183  0.0649
  922MOL0     H27189  11.226   0.646   8.319  3.3028  0.1202  2.0770
  922MOL0     H27190  11.341   0.700   8.507  0.2952 -0.2511 -1.3292
  922MOL0     H27191  11.235   0.621   8.613  0.1385 -1.9158  0.2117
  922MOL0     H27192  11.317   0.396   8.528  2.2122 -0.8505  0.7172
  922MOL0     H27193  11.396   0.465   8.398 -0.2814  0.5552 -0.5470
  922MOL0     H27194  11.682   0.501   8.702 -2.3001  0.4607 -1.7038
  922MOL0     H27195  11.952   0.227   8.765 -0.3356 -2.0358  6.4251
  922MOL0     H27196  11.870   0.307   8.890 -0.8432  0.7431  0.2259
  922MOL0     H27197  11.923   0.409   8.755  2.3838 -0.9211  0.2134
  922MOL0     H27198  12.062  -0.070   8.702  1.1315 -0.6468 -0.3345
  922MOL0     H27199  12.205  -0.228   8.787 -0.1629 -0.9960  0.6065
  922MOL0     H27200  12.311  -0.396   8.853 -1.9039 -0.5161 -0.3728
  922MOL0     H27201  12.398  -0.305   8.972  0.8954 -0.6800 -1.9587
  922MOL0     H27202  12.323  -0.602   8.983 -1.6308  1.5975 -0.8019
  922MOL0     H27203  12.486  -0.537   8.964  1.7912  0.7425  0.8234
  922MOL0     H27204  12.300  -0.513   9.216  0.3393  2.0617  0.1973
  922MOL0     H27205  12.449  -0.416   9.197  1.0921 -0.9644  0.4525
  922MOL0     H27206  12.588  -0.598   9.198  0.9908  0.7078 -0.0575
  922MOL0     H27207  12.457  -0.719   9.168 -1.9229  0.5923 -1.1027
  922MOL0     H27208  12.350  -0.661   9.386  0.3147  3.2213  0.4593
  922MOL0     H27209  12.506  -0.757   9.383 -0.6831  0.1735  2.1497
  922MOL0     H27210  12.523  -0.604   9.576 -0.7061  0.9997  1.6425
  922MOL0     H27211  12.453  -0.473   9.475 -1.0151 -0.5079 -0.3213
  922MOL0     H27212  12.661  -0.446   9.365 -0.8898 -0.4227 -0.5438
  922MOL0     H27213  12.713  -0.620   9.411 -0.7749 -0.8126 -1.0145
  922MOL0     H27214  12.842  -0.475   9.539 -0.1931  0.2543  0.4444
  922MOL0     H27215  12.725  -0.562   9.641 -1.6535 -1.4927 -1.9803
  922MOL0     H27216  11.999  -0.274   9.151  1.3984 -2.5144 -0.9943
  922MOL0     H27217  11.834  -0.097   9.068  0.3924 -0.1667  1.3716
  922MOL0     H27218  11.579   0.052   8.539  2.7227 -0.8371 -2.7094
  922MOL0     H27219  11.474   0.251   8.456  1.2763  2.2290 -1.1694
  922MOL0     H27220  10.057   1.452   7.426 -0.4380  1.3909 -1.1083
  922MOL0     H27221   9.831   1.539   7.449 -1.1851 -4.1510  0.8583
  922MOL0     H27222   9.488   1.860   7.411  0.8604  0.3260  0.6188
  922MOL0     H27223   9.284   1.965   7.461 -0.9614  2.1449  1.8636
  922MOL0     H27224   9.111   2.103   7.500 -0.7438  0.1934  0.1751
  922MOL0     H27225   9.045   1.946   7.535  2.2432 -0.7365 -0.0465
  922MOL0     H27226   8.886   2.136   7.527 -0.1034  1.5521  0.6686
  922MOL0     H27227   8.962   2.206   7.661  1.1873 -0.8033 -1.5617
  922MOL0     H27228   8.834   1.937   7.679  1.6925 -2.3807  2.9627
  922MOL0     H27229   8.915   2.021   7.812 -0.6936  0.0922 -0.4603
  922MOL0     H27230   8.667   2.149   7.667  0.1937  0.2670  0.3055
  922MOL0     H27231   8.722   2.186   7.830  2.4183 -0.8148  1.7812
  922MOL0     H27232   8.498   1.813   7.811  1.5747 -0.5524 -0.5918
  922MOL0     H27233   9.359   1.965   7.872 -0.4297 -2.1838  0.4409
  922MOL0     H27234   9.711   1.844   7.876 -0.0369  0.4071  0.4737
  922MOL0     H27235   9.604   1.979   7.928  0.9323 -0.9847  2.3030
  922MOL0     H27236   9.562   1.810   7.958  1.3500  0.1959  2.3404
  923MOL0     O27237   0.605   1.824   0.232  0.5545 -0.1129 -0.5925
  923MOL0     C27238   0.509   1.750   0.215 -1.1152  0.2285 -0.8772
  923MOL0     O27239   0.516   1.616   0.195 -0.4145 -0.1095  1.4349
  923MOL0     C27240   0.641   1.557   0.193  0.3651 -1.1309 -0.6459
  923MOL0     C27241   0.708   1.499   0.301  1.3579  0.2399 -0.3049
  923MOL0     C27242   0.833   1.446   0.290 -0.9898 -0.4498  0.3470
  923MOL0     C27243   0.896   1.454   0.169 -0.1389 -0.5476  0.7663
  923MOL0     O27244   1.031   1.422   0.159  0.1909  0.2394  0.1418
  923MOL0     C27245   1.111   1.528   0.113 -0.5049 -0.5762  0.2363
  923MOL0     C27246   1.215   1.462   0.027 -0.1644 -0.1268 -0.0094
  923MOL0     C27247   1.304   1.574  -0.037 -0.5743 -0.8154  0.0108
  923MOL0     C27248   1.409   1.635   0.049  0.3354 -0.6164  0.8043
  923MOL0     C27249   1.505   1.730  -0.021 -0.5481  0.5969 -0.0862
  923MOL0     C27250   1.616   1.665  -0.107 -0.7447 -0.1590 -0.2478
  923MOL0     C27251   1.705   1.779  -0.180  0.7697  1.4279  0.0991
  923MOL0     C27252   1.612   1.870  -0.277 -0.8421  1.0276  0.0064
  923MOL0     N27253   1.696   1.977  -0.338  0.4214  0.3732 -0.4341
  923MOL0     C27254   1.756   2.078  -0.273 -0.1441 -0.2467 -0.1054
  923MOL0     C27255   1.855   2.131  -0.347  0.0872 -0.0516 -0.1734
  923MOL0     C27256   1.945   2.240  -0.300 -0.0140 -0.0998  0.2754
  923MOL0     C27257   2.091   2.221  -0.342  0.9697  0.4278  0.4030
  923MOL0     C27258   2.181   2.318  -0.277 -0.3491 -0.1953 -0.1983
  923MOL0     C27259   2.153   2.468  -0.291 -0.3213 -0.8867 -0.0005
  923MOL0     O27260   2.185   2.512  -0.430  0.3160 -0.3014 -0.0987
  923MOL0     C27261   2.165   2.647  -0.461  0.8111  0.2484  0.5222
  923MOL0     C27262   2.189   2.687  -0.596 -0.0683  0.7181  0.2696
  923MOL0     C27263   2.181   2.826  -0.634  0.2532  0.1867 -0.1253
  923MOL0     C27264   2.248   2.857  -0.768  0.2349 -0.5914 -0.1804
  923MOL0     C27265   2.126   2.919  -0.543 -0.5861  0.4034 -0.2564
  923MOL0     C27266   2.111   3.061  -0.571 -0.4712 -0.9490 -0.4862
  923MOL0     O27267   2.148   3.145  -0.467 -0.8557  0.5579  0.3126
  923MOL0     C27268   2.122   3.277  -0.484 -0.6380 -1.1855  0.5269
  923MOL0     C27269   2.209   3.357  -0.563 -0.5417 -0.3529 -0.5180
  923MOL0     C27270   2.169   3.495  -0.586  0.4763  0.1265  0.6387
  923MOL0     C27271   2.045   3.552  -0.547  0.9836  0.3034 -0.0620
  923MOL0     O27272   2.019   3.677  -0.574  0.0644 -0.2104  0.1932
  923MOL0     C27273   1.900   3.745  -0.534  0.5527  1.2614 -1.0394
  923MOL0     C27274   1.897   3.875  -0.622 -0.2776 -0.3499 -0.0246
  923MOL0     C27275   1.783   3.971  -0.593 -0.2770  0.7203 -0.6793
  923MOL0     C27276   1.786   4.097  -0.674 -0.3222  0.4886  0.5592
  923MOL0     C27277   1.656   4.179  -0.676 -0.0331  0.3240  0.3421
  923MOL0     C27278   1.611   4.221  -0.536  0.5545  0.5789 -0.2991
  923MOL0     C27279   1.456   4.271  -0.537 -0.7859  0.1166  0.6365
  923MOL0     C27280   1.437   4.411  -0.600 -0.7526 -1.1277 -0.0189
  923MOL0    Cl27281   1.560   4.538  -0.551  0.1262  0.4001 -0.2175
  923MOL0     C27282   1.964   3.465  -0.464  0.7397  0.1046  0.8466
  923MOL0     C27283   2.000   3.330  -0.446 -0.5494 -0.6860 -0.4968
  923MOL0     O27284   2.063   3.095  -0.679 -0.0419  0.6492 -0.5645
  923MOL0     C27285   2.086   2.874  -0.415  0.4624 -0.5096  0.0701
  923MOL0     C27286   2.115   2.744  -0.365  0.3283 -1.4950  0.4852
  923MOL0     N27287   1.854   2.063  -0.463 -0.3404  0.1254  0.8853
  923MOL0     N27288   1.769   1.961  -0.453  0.1034 -1.2781 -0.2112
  923MOL0     C27289   0.831   1.512   0.057 -0.0371 -0.2255 -0.4750
  923MOL0     C27290   0.702   1.566   0.067  0.4011 -0.3776  0.6126
  923MOL0     C27291   0.376   1.819   0.219 -0.1459  0.0136 -0.0132
  923MOL0     C27292   0.376   1.942   0.291  0.6340 -0.1184 -1.2122
  923MOL0     C27293   0.261   2.024   0.288  0.4785 -0.6592  0.0434
  923MOL0     C27294   0.148   1.983   0.223  0.0689 -0.1783  1.0178
  923MOL0     O27295   0.029   2.058   0.219 -0.3282  0.3729 -0.2576
  923MOL0     C27296  -0.033   2.100   0.349  0.0767  0.5187 -0.4916
  923MOL0     C27297  -0.121   2.229   0.314 -0.3003 -0.0235 -0.4166
  923MOL0     C27298  -0.139   2.329   0.432 -0.2381 -0.0333 -0.0283
  923MOL0     C27299  -0.210   2.461   0.408 -0.0946 -0.1878 -0.0507
  923MOL0     C27300  -0.340   2.437   0.345  0.7585 -0.1196  0.4784
  923MOL0     C27301  -0.455   2.419   0.297  0.6317 -0.9496 -0.3646
  923MOL0     C27302   0.141   1.859   0.157 -0.3791  0.0829 -0.4347
  923MOL0     C27303   0.253   1.779   0.160 -0.4309  0.0874 -0.2204
  923MOL0     C27304   0.237   1.640   0.091 -0.0773 -0.0083  0.4432
  923MOL0     H27305   0.669   1.506   0.402  0.4564  1.9354 -0.7357
  923MOL0     H27306   0.886   1.405   0.376 -0.1133 -2.2883 -0.9946
  923MOL0     H27307   1.159   1.576   0.199  1.8489 -0.3844 -1.1047
  923MOL0     H27308   1.059   1.611   0.065  0.5115 -0.8731 -1.4337
  923MOL0     H27309   1.277   1.393   0.084 -1.9224 -2.0419 -0.3017
  923MOL0     H27310   1.172   1.402  -0.054  1.9476 -1.8170  0.0218
  923MOL0     H27311   1.354   1.539  -0.128  0.0138 -1.5448  0.6111
  923MOL0     H27312   1.241   1.658  -0.071 -0.6552 -0.5047  0.8998
  923MOL0     H27313   1.355   1.694   0.124  1.1417 -0.2010  1.0738
  923MOL0     H27314   1.470   1.552   0.083  1.7420  0.4052  0.8735
  923MOL0     H27315   1.555   1.796   0.050 -1.6023  3.3935 -1.7737
  923MOL0     H27316   1.450   1.796  -0.088  0.6770  1.3946 -0.3352
  923MOL0     H27317   1.696   1.609  -0.056 -0.0235  0.5990 -0.5226
  923MOL0     H27318   1.573   1.601  -0.185 -0.0563  1.3503 -1.9154
  923MOL0     H27319   1.782   1.728  -0.239 -1.6377  0.4772 -2.4428
  923MOL0     H27320   1.760   1.842  -0.110  2.7881  0.2892 -0.3835
  923MOL0     H27321   1.568   1.819  -0.364  1.9906  1.4225 -1.8169
  923MOL0     H27322   1.542   1.925  -0.215 -0.9605 -1.2072  1.9709
  923MOL0     H27323   1.724   2.117  -0.177  1.0876  2.2636 -0.6375
  923MOL0     H27324   1.942   2.239  -0.190  2.0444  0.6278  0.3865
  923MOL0     H27325   1.913   2.339  -0.333  2.2983  0.5414 -0.2653
  923MOL0     H27326   2.119   2.121  -0.306  0.2055 -0.1401 -0.5178
  923MOL0     H27327   2.094   2.223  -0.451  0.4729  1.0921  0.3960
  923MOL0     H27328   2.201   2.298  -0.172  1.5828  1.3085 -0.2281
  923MOL0     H27329   2.278   2.297  -0.324 -0.7549 -1.5407 -0.4715
  923MOL0     H27330   2.052   2.497  -0.261 -0.2060  0.3236 -0.6807
  923MOL0     H27331   2.226   2.518  -0.227  2.6266 -3.6365 -0.9798
  923MOL0     H27332   2.242   2.622  -0.665 -2.6301  0.9051 -1.9870
  923MOL0     H27333   2.220   2.952  -0.814 -1.0556 -1.2329 -0.7724
  923MOL0     H27334   2.236   2.780  -0.845 -0.7780 -0.8254  0.1923
  923MOL0     H27335   2.357   2.855  -0.757  0.1532 -1.5243  0.6738
  923MOL0     H27336   2.302   3.316  -0.600 -1.5778 -1.4673 -1.9895
  923MOL0     H27337   2.237   3.556  -0.644 -0.6309 -0.5407 -1.4798
  923MOL0     H27338   1.813   3.679  -0.541  2.9255 -2.2882  0.5565
  923MOL0     H27339   1.910   3.784  -0.432 -2.1007  2.4418 -1.1498
  923MOL0     H27340   1.983   3.942  -0.608 -2.2686  2.2642  0.4242
  923MOL0     H27341   1.885   3.850  -0.728 -0.0054  0.3690 -0.2285
  923MOL0     H27342   1.775   3.995  -0.487 -3.0833 -3.2121  0.2299
  923MOL0     H27343   1.689   3.921  -0.619  0.3722  0.1766 -2.1325
  923MOL0     H27344   1.810   4.065  -0.775 -0.7006  2.5669 -0.2320
  923MOL0     H27345   1.870   4.163  -0.651  0.7647  0.7830 -3.5070
  923MOL0     H27346   1.690   4.270  -0.725  0.5874  0.7535  1.5323
  923MOL0     H27347   1.572   4.134  -0.728 -0.2538  1.1276 -0.0023
  923MOL0     H27348   1.679   4.297  -0.496 -0.7253  0.7775  1.6527
  923MOL0     H27349   1.605   4.131  -0.474 -1.9820  1.1450  0.4161
  923MOL0     H27350   1.425   4.278  -0.432 -0.2446 -4.9227  1.3802
  923MOL0     H27351   1.386   4.198  -0.577 -0.7650  0.2626  0.3314
  923MOL0     H27352   1.339   4.441  -0.560  0.9050  2.7166  1.6846
  923MOL0     H27353   1.425   4.409  -0.708 -1.9086  0.8310  0.0219
  923MOL0     H27354   1.873   3.503  -0.420 -0.6362 -3.1543  1.0671
  923MOL0     H27355   1.933   3.267  -0.388 -0.8599  0.9425  1.0100
  923MOL0     H27356   2.026   2.939  -0.352 -0.2846 -0.2409 -0.8975
  923MOL0     H27357   2.108   2.730  -0.257  5.1308  0.4572  1.3268
  923MOL0     H27358   0.881   1.510  -0.039  1.5330  0.2595  0.2923
  923MOL0     H27359   0.639   1.600  -0.014  1.5303 -0.1943 -0.1995
  923MOL0     H27360   0.467   1.986   0.331  2.1459 -1.6767 -2.7628
  923MOL0     H27361   0.254   2.119   0.340 -1.2966 -0.5725 -0.3111
  923MOL0     H27362  -0.080   2.016   0.401 -0.2751 -0.1645 -1.8849
  923MOL0     H27363   0.054   2.135   0.407  0.6100  3.5732 -2.8389
  923MOL0     H27364  -0.219   2.206   0.270  0.2838  1.0610 -2.4151
  923MOL0     H27365  -0.073   2.285   0.233  1.9095 -2.7949 -1.1659
  923MOL0     H27366  -0.192   2.277   0.512  1.5862  2.0412  2.7264
  923MOL0     H27367  -0.039   2.354   0.468  0.1698 -2.0584  0.3541
  923MOL0     H27368  -0.141   2.516   0.344  0.6233 -0.7383  0.2349
  923MOL0     H27369  -0.231   2.521   0.497  0.4838 -0.8354  0.5324
  923MOL0     H27370  -0.557   2.404   0.269 -0.0709  1.0528  0.8670
  923MOL0     H27371   0.050   1.841   0.101 -3.7440  0.9599  4.1315
  923MOL0     H27372   0.147   1.640   0.029  0.5890  0.2360 -0.5431
  923MOL0     H27373   0.320   1.619   0.024  2.1541  0.5877  2.8375
  923MOL0     H27374   0.239   1.564   0.170 -4.0392 -0.4085  0.3582
  924MOL0     O27375   6.106   0.645   6.445 -0.3395  0.5402 -0.1736
  924MOL0     C27376   6.085   0.528   6.469  0.5584 -0.6218 -0.1357
  924MOL0     O27377   6.173   0.431   6.459  0.1855  0.8559  0.0159
  924MOL0     C27378   6.291   0.459   6.402  0.8783  0.1829  0.0339
  924MOL0     C27379   6.294   0.476   6.263 -0.0081  0.6756  0.3488
  924MOL0     C27380   6.419   0.488   6.200 -0.0144 -0.8693 -0.1498
  924MOL0     C27381   6.536   0.482   6.270  0.9625  0.0400 -0.0956
  924MOL0     O27382   6.648   0.510   6.198  0.3306  0.0311  0.2763
  924MOL0     C27383   6.760   0.430   6.239 -0.1152 -0.5209  0.6414
  924MOL0     C27384   6.833   0.369   6.116 -0.2953 -0.4601 -0.8000
  924MOL0     C27385   6.972   0.318   6.141  0.0013 -0.8670 -0.1507
  924MOL0     C27386   7.076   0.430   6.158  0.5560 -0.3494  0.4908
  924MOL0     C27387   7.198   0.359   6.209 -0.8699  0.2732 -0.4988
  924MOL0     C27388   7.317   0.452   6.242 -0.0169  0.1328 -0.3853
  924MOL0     C27389   7.445   0.395   6.295  0.1823  0.0422 -0.1812
  924MOL0     C27390   7.523   0.272   6.222  0.2420  0.0867  0.7708
  924MOL0     N27391   7.593   0.315   6.100  0.4764 -0.4659  0.0675
  924MOL0     C27392   7.689   0.410   6.104 -0.8106  0.2198  0.1093
  924MOL0     C27393   7.751   0.394   5.982 -0.7577  0.8715 -0.5050
  924MOL0     C27394   7.861   0.475   5.922  0.2712  0.3207 -0.1171
  924MOL0     C27395   8.005   0.466   5.988  0.9196  0.1830 -0.5733
  924MOL0     C27396   8.060   0.319   6.007 -0.0429 -0.8413 -0.3599
  924MOL0     C27397   8.213   0.317   5.997 -0.7584 -0.9159 -0.0278
  924MOL0     O27398   8.285   0.432   6.051 -0.4739 -0.4039  0.3929
  924MOL0     C27399   8.426   0.432   6.017  0.7204  0.3988  0.0447
  924MOL0     C27400   8.498   0.547   6.060  0.7916  0.0852  0.7652
  924MOL0     C27401   8.630   0.572   6.023  0.1289  1.4706 -0.2921
  924MOL0     C27402   8.693   0.691   6.083 -0.1825 -0.3680  0.4793
  924MOL0     C27403   8.699   0.469   5.945 -0.7478 -0.4650  0.2007
  924MOL0     C27404   8.834   0.500   5.886  0.2807  0.1994  0.4403
  924MOL0     O27405   8.897   0.389   5.845 -0.0299 -0.3231 -0.2224
  924MOL0     C27406   9.029   0.411   5.809 -0.5754  1.7726  0.3269
  924MOL0     C27407   9.137   0.426   5.909 -0.1634  0.0574 -0.0100
  924MOL0     C27408   9.275   0.422   5.871  0.7233  0.1443 -0.0602
  924MOL0     C27409   9.307   0.410   5.731 -0.3770 -0.5213 -0.0597
  924MOL0     O27410   9.438   0.396   5.703 -0.7115  0.2437 -0.5657
  924MOL0     C27411   9.487   0.426   5.576  0.2255 -0.1789  0.3347
  924MOL0     C27412   9.599   0.525   5.593  0.5098 -0.7670 -1.1332
  924MOL0     C27413   9.728   0.454   5.657  0.3582  0.1008  0.3040
  924MOL0     C27414   9.859   0.536   5.657  0.1132 -0.4439  0.7521
  924MOL0     C27415   9.984   0.474   5.720 -0.2048 -0.0618 -0.0702
  924MOL0     C27416  10.099   0.571   5.722  0.2145  0.7940  0.3667
  924MOL0     C27417  10.236   0.498   5.725 -0.1016 -0.6972 -0.4210
  924MOL0     C27418  10.331   0.574   5.816  0.1370  0.4127 -0.4531
  924MOL0    Cl27419  10.325   0.763   5.798  0.3701  0.1478  0.1987
  924MOL0     C27420   9.206   0.385   5.639  0.1660  0.2106 -0.1890
  924MOL0     C27421   9.069   0.381   5.676 -0.2001 -0.4960  0.1508
  924MOL0     O27422   8.863   0.617   5.867 -0.3454 -0.3431 -0.3243
  924MOL0     C27423   8.635   0.346   5.920  0.4802 -0.8081 -0.3175
  924MOL0     C27424   8.500   0.329   5.950  0.5074 -0.5631 -0.1483
  924MOL0     N27425   7.693   0.286   5.917 -0.1898  0.4351  0.0613
  924MOL0     N27426   7.599   0.243   5.989  0.4529  0.2134  0.6986
  924MOL0     C27427   6.520   0.474   6.414  0.4371 -0.1271  0.7021
  924MOL0     C27428   6.401   0.440   6.473 -0.7867  1.2829 -0.9115
  924MOL0     C27429   5.943   0.496   6.496  0.0620 -0.2154 -0.7971
  924MOL0     C27430   5.845   0.596   6.467 -0.0360  0.2512 -0.5978
  924MOL0     C27431   5.709   0.576   6.500  0.5712  0.8339  0.2869
  924MOL0     C27432   5.665   0.455   6.563  0.2032  0.3263  0.7913
  924MOL0     O27433   5.539   0.428   6.597  0.5741  0.2746 -0.3794
  924MOL0     C27434   5.447   0.457   6.494  0.0536 -0.1195 -0.3685
  924MOL0     C27435   5.343   0.347   6.480  0.4266 -0.7511  0.5177
  924MOL0     C27436   5.252   0.359   6.597 -0.5227 -0.5063  0.5390
  924MOL0     C27437   5.124   0.427   6.545 -0.1688 -0.5144 -0.0133
  924MOL0     C27438   5.037   0.441   6.662  0.2498 -0.0761  1.2347
  924MOL0     C27439   4.973   0.444   6.762 -0.1640  1.2031  0.0008
  924MOL0     C27440   5.760   0.369   6.599 -0.1270  0.7550  0.4641
  924MOL0     C27441   5.901   0.386   6.577  0.1332  0.3725 -0.1587
  924MOL0     C27442   6.003   0.291   6.646  0.2675  0.0968 -0.6807
  924MOL0     H27443   6.194   0.467   6.220  0.7474 -0.5425 -1.2805
  924MOL0     H27444   6.421   0.511   6.094 -0.7121 -0.6398 -0.1191
  924MOL0     H27445   6.721   0.348   6.300 -1.0151  0.3467  1.2746
  924MOL0     H27446   6.831   0.487   6.300  1.4436 -0.8342 -0.8221
  924MOL0     H27447   6.772   0.291   6.070  0.0334 -0.7299 -0.7830
  924MOL0     H27448   6.842   0.428   6.025 -1.1397 -0.2345 -0.7437
  924MOL0     H27449   6.958   0.268   6.237  0.4249 -1.0347 -0.1717
  924MOL0     H27450   7.008   0.247   6.066  2.3898  0.1362 -0.0646
  924MOL0     H27451   7.094   0.478   6.062  1.0024 -1.3916  0.0427
  924MOL0     H27452   7.039   0.502   6.232  0.0872 -1.4643  1.3719
  924MOL0     H27453   7.221   0.289   6.128 -1.8585 -0.4610 -0.1660
  924MOL0     H27454   7.165   0.304   6.297 -2.4980 -0.7713 -1.6888
  924MOL0     H27455   7.347   0.507   6.152  3.0252  0.8963  0.9771
  924MOL0     H27456   7.280   0.534   6.304  1.3553  0.9339 -0.5750
  924MOL0     H27457   7.423   0.346   6.391  1.1044 -2.8341 -1.3355
  924MOL0     H27458   7.516   0.477   6.308 -1.7836  1.5603  1.8341
  924MOL0     H27459   7.596   0.228   6.291 -1.7518 -0.1427  2.8539
  924MOL0     H27460   7.449   0.195   6.199  2.8144 -2.0348 -1.2228
  924MOL0     H27461   7.715   0.482   6.181 -0.3366 -1.2929  1.4301
  924MOL0     H27462   7.831   0.580   5.925 -0.7459  0.0287  0.4369
  924MOL0     H27463   7.851   0.438   5.820 -0.9955  0.0524  0.0834
  924MOL0     H27464   8.073   0.528   5.929  1.5093  1.0410  0.9576
  924MOL0     H27465   7.994   0.521   6.082  2.1478  4.4830 -2.6934
  924MOL0     H27466   8.025   0.280   6.102  1.8711  2.5063  1.9385
  924MOL0     H27467   8.022   0.256   5.926 -0.1106 -2.2770  0.7759
  924MOL0     H27468   8.249   0.235   6.060  4.0284  2.4514  2.2089
  924MOL0     H27469   8.231   0.295   5.891 -2.2686 -1.7518 -0.1470
  924MOL0     H27470   8.456   0.632   6.114  0.6545  0.1158  0.6111
  924MOL0     H27471   8.643   0.702   6.180  0.1664 -3.7426  1.1504
  924MOL0     H27472   8.675   0.777   6.018 -0.7052 -1.4672 -0.8851
  924MOL0     H27473   8.799   0.679   6.108 -0.9115 -1.4409  3.3623
  924MOL0     H27474   9.113   0.451   6.011  0.4127  2.0948 -0.3282
  924MOL0     H27475   9.359   0.435   5.938 -0.6887  1.7413  1.4886
  924MOL0     H27476   9.505   0.330   5.527 -2.2554 -0.0609 -0.9823
  924MOL0     H27477   9.412   0.479   5.516  1.0271  0.3711 -0.2063
  924MOL0     H27478   9.629   0.570   5.497 -0.4933 -2.7154 -2.4188
  924MOL0     H27479   9.572   0.607   5.660 -0.9533 -1.1792 -1.1777
  924MOL0     H27480   9.732   0.356   5.609 -2.2076  0.4779 -0.8315
  924MOL0     H27481   9.718   0.424   5.762 -0.1961  2.0972  0.8600
  924MOL0     H27482   9.856   0.633   5.709  2.6954  0.6644 -0.9763
  924MOL0     H27483   9.883   0.563   5.554  2.2945  2.0815  1.7913
  924MOL0     H27484   9.970   0.431   5.819 -3.5676  1.4835  0.2634
  924MOL0     H27485   9.999   0.380   5.667 -1.5977 -1.3507  1.7147
  924MOL0     H27486  10.077   0.628   5.813 -4.4042  0.4911 -0.3566
  924MOL0     H27487  10.092   0.638   5.636  1.5403 -0.8205 -1.0810
  924MOL0     H27488  10.271   0.490   5.622  3.3249  2.1830  0.3440
  924MOL0     H27489  10.220   0.393   5.752 -1.3480 -0.4222 -0.0304
  924MOL0     H27490  10.436   0.548   5.803  0.3410  1.3261 -0.7494
  924MOL0     H27491  10.302   0.552   5.919  0.2908 -0.5796 -0.6206
  924MOL0     H27492   9.237   0.364   5.537 -0.5805  2.7205 -1.0074
  924MOL0     H27493   8.993   0.367   5.600 -1.7515  3.0420  0.8461
  924MOL0     H27494   8.676   0.262   5.865 -1.5404 -0.7997 -1.9468
  924MOL0     H27495   8.456   0.236   5.914  3.0666 -1.7346 -0.5431
  924MOL0     H27496   6.611   0.466   6.472  2.3037 -1.7079 -2.2132
  924MOL0     H27497   6.387   0.411   6.577 -0.9437  2.4236 -0.6082
  924MOL0     H27498   5.865   0.683   6.406  1.7442  0.9276  0.8502
  924MOL0     H27499   5.635   0.650   6.472 -2.5222 -2.1062  0.0390
  924MOL0     H27500   5.402   0.556   6.497  1.1876  0.4183 -0.5505
  924MOL0     H27501   5.502   0.456   6.399  0.9801 -0.8176  0.1588
  924MOL0     H27502   5.404   0.256   6.479 -0.2314 -1.2086  1.0760
  924MOL0     H27503   5.299   0.359   6.381 -0.1427  2.6791  1.0800
  924MOL0     H27504   5.218   0.260   6.628 -2.9512 -0.0149 -0.2714
  924MOL0     H27505   5.293   0.415   6.681 -0.2604 -0.1989  0.2111
  924MOL0     H27506   5.075   0.367   6.468  0.1227 -1.4356  0.4926
  924MOL0     H27507   5.139   0.531   6.514  3.1731  0.5069  4.1188
  924MOL0     H27508   4.938   0.454   6.863  2.7299  1.6571  1.0438
  924MOL0     H27509   5.713   0.279   6.637  0.4399 -0.1357 -0.8335
  924MOL0     H27510   6.095   0.345   6.670  1.2739 -2.1246  0.9311
  924MOL0     H27511   5.966   0.250   6.741  2.2817  1.2529  0.6878
  924MOL0     H27512   6.030   0.204   6.585  1.4480  0.5318 -0.8014
  925MOL0     O27513  10.687   7.049  10.438 -0.1291  0.6612 -0.5926
  925MOL0     C27514  10.702   7.009  10.557 -0.5006  0.0058  0.0379
  925MOL0     O27515  10.653   7.071  10.671 -0.1298  0.0339  0.8085
  925MOL0     C27516  10.561   7.171  10.650 -0.2586  0.1131  0.8832
  925MOL0     C27517  10.456   7.178  10.557 -0.8699 -0.5499  0.4567
  925MOL0     C27518  10.377   7.297  10.563 -0.3175  0.7692  0.3135
  925MOL0     C27519  10.405   7.402  10.657  0.1754  0.4872 -0.4838
  925MOL0     O27520  10.315   7.503  10.663  0.0893 -0.6387 -0.8672
  925MOL0     C27521  10.311   7.578  10.792  0.3553 -0.2203  0.3697
  925MOL0     C27522  10.190   7.675  10.795  0.1839 -0.5786 -0.6040
  925MOL0     C27523  10.052   7.599  10.802 -0.7842 -1.0522 -0.0422
  925MOL0     C27524   9.932   7.696  10.819  0.6807 -0.0780  0.3808
  925MOL0     C27525   9.805   7.613  10.811  0.4623  0.2996  0.1349
  925MOL0     C27526   9.677   7.699  10.830  0.3532  0.1175  0.0912
  925MOL0     C27527   9.547   7.644  10.778 -0.5743 -0.0845  0.2328
  925MOL0     C27528   9.436   7.740  10.793 -0.5432 -0.4745  0.6680
  925MOL0     N27529   9.314   7.664  10.776 -0.2077  0.0328  0.5064
  925MOL0     C27530   9.280   7.553  10.859  0.7921 -0.3230 -0.2354
  925MOL0     C27531   9.174   7.501  10.792 -0.5315 -0.0767 -0.1927
  925MOL0     C27532   9.094   7.386  10.836 -0.6861  0.0174 -0.6588
  925MOL0     C27533   9.102   7.263  10.735  0.2928  0.0433  0.1695
  925MOL0     C27534   9.232   7.185  10.760  0.9289 -0.3332 -0.5422
  925MOL0     C27535   9.248   7.052  10.683  0.0348  0.5346 -0.5136
  925MOL0     O27536   9.358   6.983  10.748 -0.0527 -0.5404  0.7150
  925MOL0     C27537   9.409   6.868  10.708 -0.7687 -1.2139  0.8798
  925MOL0     C27538   9.538   6.835  10.748  0.3194  0.6855 -1.1473
  925MOL0     C27539   9.604   6.733  10.689 -0.4300 -0.3116  0.7682
  925MOL0     C27540   9.748   6.726  10.714  1.3283 -0.2215 -0.0521
  925MOL0     C27541   9.538   6.644  10.597  1.1331  0.1933 -0.5562
  925MOL0     C27542   9.615   6.519  10.532 -0.1206  0.1985 -0.1232
  925MOL0     O27543   9.537   6.464  10.429  0.2659  0.8786 -0.1554
  925MOL0     C27544   9.603   6.365  10.360  0.2168 -0.5859 -0.3890
  925MOL0     C27545   9.572   6.234  10.391  0.0156 -0.4332  0.2319
  925MOL0     C27546   9.651   6.138  10.328  0.8900  0.1899 -0.0914
  925MOL0     C27547   9.763   6.167  10.247  0.5201  0.5873 -1.4016
  925MOL0     O27548   9.842   6.069  10.212 -0.4796  0.2795  0.6171
  925MOL0     C27549   9.965   6.086  10.140 -0.2128 -0.4014  0.0753
  925MOL0     C27550  10.025   5.955  10.109 -0.4137 -0.7663  0.2505
  925MOL0     C27551  10.151   5.960  10.028  0.1567 -0.3918  0.3858
  925MOL0     C27552  10.195   5.816   9.991 -0.3510 -1.3929 -0.0037
  925MOL0     C27553  10.112   5.755   9.883  0.8187  0.2556 -0.4138
  925MOL0     C27554  10.188   5.629   9.828  0.2734 -0.1355 -1.1291
  925MOL0     C27555  10.150   5.563   9.697 -0.4573  0.4275  0.0241
  925MOL0     C27556  10.000   5.570   9.675 -0.8945 -0.3369 -0.4361
  925MOL0    Cl27557   9.915   5.486   9.802 -0.2869  0.1358  0.3370
  925MOL0     C27558   9.791   6.299  10.233 -0.4611 -0.4918  0.4337
  925MOL0     C27559   9.712   6.402  10.284 -0.5448 -0.1708  0.1676
  925MOL0     O27560   9.708   6.460  10.585  0.1289  0.3328 -0.8929
  925MOL0     C27561   9.403   6.666  10.574  0.7814 -0.3248  0.0921
  925MOL0     C27562   9.340   6.781  10.620 -0.1553 -0.6334  0.7770
  925MOL0     N27563   9.153   7.568  10.675  0.2049  0.4889  0.1893
  925MOL0     N27564   9.235   7.670  10.664 -0.1602  0.4053 -0.6438
  925MOL0     C27565  10.521   7.395  10.731  0.6298 -0.4198  0.0558
  925MOL0     C27566  10.595   7.275  10.734  0.3044  0.2274  0.0069
  925MOL0     C27567  10.787   6.896  10.573  0.1380 -0.2081  0.0247
  925MOL0     C27568  10.747   6.785  10.500  0.4258 -0.9046 -0.9549
  925MOL0     C27569  10.797   6.662  10.521 -0.0748 -0.2178  0.4146
  925MOL0     C27570  10.896   6.643  10.624  0.2434  0.4081 -0.8955
  925MOL0     O27571  10.963   6.528  10.638 -0.2419  0.0400  0.0065
  925MOL0     C27572  10.991   6.453  10.512  0.0356  0.1871 -0.5569
  925MOL0     C27573  11.110   6.356  10.519 -0.2753 -0.6218 -0.5084
  925MOL0     C27574  11.118   6.285  10.658 -0.0056 -0.0294  0.5082
  925MOL0     C27575  11.229   6.181  10.661 -0.0868  0.3361  0.4200
  925MOL0     C27576  11.214   6.076  10.567 -0.0593 -0.8914  0.7944
  925MOL0     C27577  11.189   5.980  10.491 -0.7294  0.5340  0.8178
  925MOL0     C27578  10.947   6.753  10.698  0.6189  0.4315 -0.0493
  925MOL0     C27579  10.890   6.879  10.667  0.1534  0.3614  0.2017
  925MOL0     C27580  10.940   7.002  10.744  0.9385 -0.0668  0.5426
  925MOL0     H27581  10.435   7.093  10.494 -0.4172 -1.6014  1.6892
  925MOL0     H27582  10.292   7.323  10.500 -0.3306 -0.9712 -0.4457
  925MOL0     H27583  10.396   7.647  10.794 -1.5868  2.4333 -1.3526
  925MOL0     H27584  10.295   7.508  10.874 -3.5413 -0.1808 -0.1567
  925MOL0     H27585  10.195   7.740  10.882 -2.5042 -1.5087  0.3617
  925MOL0     H27586  10.189   7.725  10.697 -0.5234  0.6505  0.0093
  925MOL0     H27587  10.044   7.544  10.707  0.3399 -1.4212  0.0629
  925MOL0     H27588  10.047   7.521  10.877  0.2950 -0.9447  0.1531
  925MOL0     H27589   9.944   7.747  10.915  0.6658  0.9367 -0.1354
  925MOL0     H27590   9.934   7.765  10.734 -1.9737 -1.8672 -1.2793
  925MOL0     H27591   9.815   7.544  10.895 -2.7061  0.6795  0.9628
  925MOL0     H27592   9.797   7.555  10.719  2.2111  0.3564 -0.0925
  925MOL0     H27593   9.660   7.716  10.936 -1.2725 -1.6931  0.1781
  925MOL0     H27594   9.695   7.801  10.794 -0.3354  0.0012 -0.6079
  925MOL0     H27595   9.523   7.545  10.817 -0.8464 -0.1089  0.0094
  925MOL0     H27596   9.575   7.630  10.673  3.1063 -1.8915  1.2793
  925MOL0     H27597   9.433   7.791  10.890  1.5573 -0.2351  0.6408
  925MOL0     H27598   9.437   7.813  10.712 -3.5041  0.4949  1.3609
  925MOL0     H27599   9.320   7.521  10.955 -1.7924 -0.9388  0.7364
  925MOL0     H27600   8.991   7.421  10.833 -1.7059 -2.7404 -0.3188
  925MOL0     H27601   9.117   7.348  10.936  0.5840  1.4006 -0.3748
  925MOL0     H27602   9.024   7.186  10.735 -2.6870  2.8407  0.3830
  925MOL0     H27603   9.099   7.298  10.631 -0.1822  2.8304  1.0364
  925MOL0     H27604   9.307   7.254  10.721  0.2495  0.5614 -0.3002
  925MOL0     H27605   9.248   7.155  10.864 -0.8413  1.4540  0.3228
  925MOL0     H27606   9.162   6.986  10.694  1.3266 -1.0119  0.9782
  925MOL0     H27607   9.275   7.070  10.579  1.1445  2.2398  0.0185
  925MOL0     H27608   9.593   6.898  10.818 -0.7452  0.1750  0.1879
  925MOL0     H27609   9.773   6.645  10.783 -1.6032 -0.4051  0.9014
  925MOL0     H27610   9.790   6.811  10.767 -1.1670  1.5400 -0.7321
  925MOL0     H27611   9.797   6.708  10.617  0.8029 -1.8349 -0.0541
  925MOL0     H27612   9.487   6.218  10.457  1.3916  3.4513  3.3932
  925MOL0     H27613   9.638   6.034  10.357 -1.1615  0.6826  0.9317
  925MOL0     H27614   9.952   6.138  10.045 -1.0432 -0.3509  0.2117
  925MOL0     H27615  10.025   6.139  10.215  0.3661 -2.1083  0.8874
  925MOL0     H27616  10.040   5.901  10.203 -0.9021  0.3338  0.9858
  925MOL0     H27617   9.947   5.907  10.050 -1.9352  3.3424 -1.4120
  925MOL0     H27618  10.229   5.992  10.098 -0.6248  0.4331  0.8892
  925MOL0     H27619  10.141   6.025   9.942 -2.3245 -1.8503 -0.5314
  925MOL0     H27620  10.190   5.758  10.084  0.4572  0.9065  1.5766
  925MOL0     H27621  10.300   5.820   9.961  0.7282  0.1577  3.4687
  925MOL0     H27622  10.009   5.728   9.908 -0.1619 -0.7321 -4.7488
  925MOL0     H27623  10.100   5.825   9.800  1.5527  1.9846  0.8699
  925MOL0     H27624  10.173   5.553   9.905 -0.9718  1.7505  0.6175
  925MOL0     H27625  10.297   5.631   9.834  0.3824 -3.6617  1.0962
  925MOL0     H27626  10.169   5.455   9.701 -1.0463  0.3258  0.2747
  925MOL0     H27627  10.204   5.611   9.615 -1.1130 -1.4165 -1.6024
  925MOL0     H27628   9.988   5.512   9.583  1.4767 -1.2734 -0.2099
  925MOL0     H27629   9.972   5.674   9.655 -0.8491 -0.3584 -0.6120
  925MOL0     H27630   9.877   6.340  10.180 -2.0134  0.6207 -1.3774
  925MOL0     H27631   9.739   6.507  10.282 -1.8369  0.2692  2.4791
  925MOL0     H27632   9.346   6.593  10.517 -0.5068  0.8819 -0.2146
  925MOL0     H27633   9.243   6.796  10.573  0.7583 -4.3306 -2.9521
  925MOL0     H27634  10.557   7.481  10.787 -0.6457 -0.3644  0.8132
  925MOL0     H27635  10.680   7.273  10.802 -0.5915 -2.1106  1.1656
  925MOL0     H27636  10.669   6.795  10.425 -0.1494 -1.3749 -0.4232
  925MOL0     H27637  10.771   6.585  10.448 -1.8266 -0.7632  1.5497
  925MOL0     H27638  10.898   6.396  10.499 -0.3620 -0.0610  2.5243
  925MOL0     H27639  11.006   6.526  10.432  2.3780  0.5303  0.1221
  925MOL0     H27640  11.200   6.416  10.508 -2.2734  3.0301  1.2809
  925MOL0     H27641  11.094   6.280  10.442 -1.1480  0.0373 -0.9920
  925MOL0     H27642  11.136   6.364  10.732 -1.5189  1.3744 -0.5480
  925MOL0     H27643  11.023   6.238  10.685 -0.0059 -0.8469 -0.8089
  925MOL0     H27644  11.223   6.127  10.756 -0.9760 -1.0321 -0.3858
  925MOL0     H27645  11.323   6.236  10.656 -0.0807  0.5800  2.3756
  925MOL0     H27646  11.156   5.894  10.436 -2.7027  1.2895  0.7321
  925MOL0     H27647  11.022   6.735  10.773  1.4430 -0.2478 -1.0075
  925MOL0     H27648  10.863   7.032  10.816 -0.6270 -0.5526 -0.8723
  925MOL0     H27649  11.030   6.978  10.801  0.3002  0.2584  1.7244
  925MOL0     H27650  10.959   7.087  10.678  0.4612 -1.1903 -1.1036
  926MOL0     O27651   0.566   6.002   0.140  0.9105 -0.0308 -0.1025
  926MOL0     C27652   0.475   5.928   0.171  0.5265  0.3510  0.9413
  926MOL0     O27653   0.493   5.830   0.263  0.7564 -1.1019  0.6242
  926MOL0     C27654   0.600   5.830   0.344  1.0425 -0.3367  0.6661
  926MOL0     C27655   0.669   5.712   0.344  0.6133  0.3413  0.0021
  926MOL0     C27656   0.780   5.689   0.435  0.1591 -1.4463  0.5947
  926MOL0     C27657   0.817   5.792   0.524 -0.4961 -0.0941 -1.3982
  926MOL0     O27658   0.920   5.785   0.628  0.2909 -0.2861  0.3371
  926MOL0     C27659   1.005   5.670   0.627  0.0567 -0.6062  0.1313
  926MOL0     C27660   1.107   5.682   0.509  0.1664 -0.8689  0.1814
  926MOL0     C27661   1.242   5.752   0.549 -0.6457 -0.1723 -0.0256
  926MOL0     C27662   1.276   5.848   0.437  0.1801  0.0847 -0.2388
  926MOL0     C27663   1.416   5.914   0.458  0.6028  0.2655 -1.3601
  926MOL0     C27664   1.541   5.827   0.442 -0.1176  0.2386 -0.3709
  926MOL0     C27665   1.653   5.887   0.527  0.2804 -0.4640  0.4396
  926MOL0     C27666   1.772   5.796   0.542 -0.5368 -0.3370  0.6912
  926MOL0     N27667   1.890   5.872   0.487 -0.3130  0.3692  0.3754
  926MOL0     C27668   1.967   5.952   0.568 -0.2704  0.9097  0.6340
  926MOL0     C27669   2.068   5.984   0.489  0.4382  0.3884 -0.2259
  926MOL0     C27670   2.194   6.061   0.523 -0.0207  0.0461 -0.5108
  926MOL0     C27671   2.179   6.153   0.640 -0.8130 -0.7886  0.5784
  926MOL0     C27672   2.287   6.273   0.636  0.8007  0.0632 -0.8861
  926MOL0     C27673   2.435   6.237   0.596 -0.0757  0.6413  0.2335
  926MOL0     O27674   2.498   6.154   0.696  0.2052 -0.0993  0.3793
  926MOL0     C27675   2.628   6.174   0.723  0.1995  0.2137 -0.5763
  926MOL0     C27676   2.676   6.162   0.857  0.1427  0.0043  0.1717
  926MOL0     C27677   2.811   6.160   0.886  0.0822 -0.8910 -0.1371
  926MOL0     C27678   2.844   6.133   1.029  0.4197 -0.2889 -0.3340
  926MOL0     C27679   2.911   6.180   0.789  0.0036  0.8230 -0.0350
  926MOL0     C27680   3.059   6.182   0.816 -0.7796 -0.7343 -0.0993
  926MOL0     O27681   3.126   6.212   0.712  0.1252 -0.3266  0.6157
  926MOL0     C27682   3.261   6.222   0.712 -0.0327 -0.2359  0.6770
  926MOL0     C27683   3.362   6.175   0.806  0.6188 -0.1372  0.4717
  926MOL0     C27684   3.499   6.205   0.785 -0.3188 -0.2992 -0.0552
  926MOL0     C27685   3.545   6.283   0.672 -0.6811  0.6290  0.9478
  926MOL0     O27686   3.673   6.320   0.652 -0.1906  0.3642 -0.0061
  926MOL0     C27687   3.774   6.255   0.729 -0.6237  0.7780  0.4069
  926MOL0     C27688   3.921   6.313   0.697 -0.5248  0.0945 -0.3127
  926MOL0     C27689   3.932   6.465   0.705  0.4211 -0.0870 -0.5962
  926MOL0     C27690   4.079   6.496   0.721  0.3582 -0.9398  0.0818
  926MOL0     C27691   4.096   6.648   0.682  0.3722 -0.3544  0.5919
  926MOL0     C27692   4.242   6.686   0.697 -0.7068 -0.2610  0.5554
  926MOL0     C27693   4.249   6.839   0.666  0.6077  0.5044  1.0287
  926MOL0     C27694   4.369   6.909   0.716 -0.2981 -1.5855  0.7422
  926MOL0    Cl27695   4.383   7.067   0.633  0.0261 -0.2012 -0.4457
  926MOL0     C27696   3.446   6.318   0.576  0.1387  0.4359 -0.0026
  926MOL0     C27697   3.312   6.290   0.594  0.0916 -0.1973  0.0765
  926MOL0     O27698   3.099   6.162   0.931 -0.4360  0.3797 -0.0460
  926MOL0     C27699   2.858   6.185   0.651 -0.6618 -0.1883 -0.0635
  926MOL0     C27700   2.720   6.189   0.618 -0.1283 -0.1567  0.1064
  926MOL0     N27701   2.041   5.931   0.364 -0.8956 -0.0925 -0.1402
  926MOL0     N27702   1.940   5.851   0.362 -0.3331 -0.0816  0.1996
  926MOL0     C27703   0.752   5.912   0.518  0.0350  0.9761 -0.8033
  926MOL0     C27704   0.634   5.932   0.429 -0.9986  0.6162  0.0979
  926MOL0     C27705   0.361   5.932   0.087 -0.2069  0.1593 -0.9792
  926MOL0     C27706   0.278   5.821   0.080  0.0465  0.4616 -0.2634
  926MOL0     C27707   0.168   5.802  -0.010 -0.3744 -1.1579  0.2951
  926MOL0     C27708   0.147   5.903  -0.109  0.6576  0.1500  0.0511
  926MOL0     O27709   0.056   5.871  -0.209  0.2116  0.1793  0.3993
  926MOL0     C27710   0.037   5.977  -0.313 -0.6293 -0.4749 -0.2128
  926MOL0     C27711  -0.075   5.939  -0.416  0.6878 -0.6442  0.7798
  926MOL0     C27712  -0.079   5.801  -0.481 -0.5261 -0.1718  0.4390
  926MOL0     C27713  -0.219   5.738  -0.499  0.0389 -0.4217  0.5444
  926MOL0     C27714  -0.298   5.824  -0.590 -0.4802 -0.6187 -0.3528
  926MOL0     C27715  -0.370   5.903  -0.648  0.3769 -0.0218 -0.1576
  926MOL0     C27716   0.214   6.023  -0.094  0.2120 -0.6080 -0.0350
  926MOL0     C27717   0.320   6.037  -0.000  0.7544  0.2261 -0.3800
  926MOL0     C27718   0.379   6.172   0.009 -0.7141 -0.2842  0.3404
  926MOL0     H27719   0.634   5.652   0.260 -0.2116  1.7673 -0.7092
  926MOL0     H27720   0.823   5.592   0.460 -0.8162 -2.0584 -0.0116
  926MOL0     H27721   0.930   5.590   0.630 -3.2821  2.1763 -1.3876
  926MOL0     H27722   1.065   5.667   0.718  2.0158  1.1340 -1.0351
  926MOL0     H27723   1.133   5.583   0.471  1.5582 -0.9984  1.3730
  926MOL0     H27724   1.065   5.736   0.423  3.0819 -0.6892 -1.2588
  926MOL0     H27725   1.240   5.815   0.638 -0.9763  1.2474 -0.9967
  926MOL0     H27726   1.315   5.671   0.557 -2.7402 -2.0209  1.5210
  926MOL0     H27727   1.274   5.792   0.344 -0.9982 -1.1561  0.5002
  926MOL0     H27728   1.202   5.929   0.443 -1.6466 -1.5447 -0.0233
  926MOL0     H27729   1.409   5.945   0.562  0.6992 -1.1589 -0.9174
  926MOL0     H27730   1.428   6.000   0.391  2.3567  0.1013 -1.3127
  926MOL0     H27731   1.533   5.725   0.482  3.0477 -0.7433 -1.8934
  926MOL0     H27732   1.578   5.817   0.340  1.0762 -1.5866  0.1749
  926MOL0     H27733   1.617   5.910   0.628 -1.9662 -2.5309  0.2285
  926MOL0     H27734   1.682   5.981   0.481 -0.0802 -1.5187 -2.1275
  926MOL0     H27735   1.789   5.775   0.648 -0.9887 -0.8439  0.6651
  926MOL0     H27736   1.760   5.698   0.496  1.2932  0.1126 -0.9019
  926MOL0     H27737   1.955   5.970   0.674  2.0148 -1.3843  1.3917
  926MOL0     H27738   2.214   6.136   0.445 -1.9793 -0.1063 -1.2035
  926MOL0     H27739   2.277   5.990   0.529  0.0304  0.0011 -1.5802
  926MOL0     H27740   2.077   6.194   0.644 -0.9665 -0.8858 -1.4420
  926MOL0     H27741   2.191   6.090   0.728  0.0975 -2.4859 -0.6948
  926MOL0     H27742   2.232   6.338   0.568 -0.8742  0.7241  0.9910
  926MOL0     H27743   2.288   6.322   0.734  0.7643  0.6283 -1.1662
  926MOL0     H27744   2.445   6.175   0.506  1.3761  0.4595  0.5042
  926MOL0     H27745   2.493   6.329   0.580 -0.8446  0.9812 -0.6997
  926MOL0     H27746   2.603   6.143   0.934  1.9651  0.1259  2.0099
  926MOL0     H27747   2.873   6.028   1.036  1.1324 -0.0624  0.2425
  926MOL0     H27748   2.752   6.143   1.088 -0.2480 -1.9454 -1.0227
  926MOL0     H27749   2.912   6.202   1.080 -0.5028 -1.3186  2.4772
  926MOL0     H27750   3.326   6.110   0.886 -0.2337  0.8560  0.9092
  926MOL0     H27751   3.569   6.178   0.864  2.3479  1.3797 -1.7191
  926MOL0     H27752   3.759   6.268   0.836 -0.1246  0.6729  0.4927
  926MOL0     H27753   3.771   6.152   0.692 -1.1056  0.8428  0.2647
  926MOL0     H27754   3.981   6.275   0.780  2.5047  3.7664 -0.5778
  926MOL0     H27755   3.961   6.288   0.598  1.8196  1.7259  0.1461
  926MOL0     H27756   3.865   6.510   0.779 -1.0851  0.1597 -2.0499
  926MOL0     H27757   3.892   6.505   0.611  1.1024  0.0914 -0.8170
  926MOL0     H27758   4.141   6.439   0.651  1.6227  3.7611 -3.1638
  926MOL0     H27759   4.120   6.488   0.822  0.2137  3.7762  0.7498
  926MOL0     H27760   4.062   6.662   0.579  0.9388 -0.5759  0.3666
  926MOL0     H27761   4.037   6.709   0.750 -1.0461 -0.9184 -0.1013
  926MOL0     H27762   4.305   6.638   0.621  1.5904  3.0331  0.1141
  926MOL0     H27763   4.285   6.663   0.795 -2.7591 -1.5840  1.1907
  926MOL0     H27764   4.159   6.896   0.692  1.3244  1.8092  0.7142
  926MOL0     H27765   4.246   6.847   0.557  0.3255  2.4207  1.1545
  926MOL0     H27766   4.453   6.840   0.700  0.8209 -0.0515 -0.2853
  926MOL0     H27767   4.373   6.926   0.824  0.1587 -0.0431  0.5007
  926MOL0     H27768   3.482   6.364   0.484  1.9740  1.1005  0.9920
  926MOL0     H27769   3.242   6.326   0.519  1.0188  1.0748 -0.2147
  926MOL0     H27770   2.928   6.174   0.569  0.8943  1.1047  1.0341
  926MOL0     H27771   2.689   6.188   0.514  0.8132  1.0063 -0.2018
  926MOL0     H27772   0.782   5.989   0.588  1.1075  0.4299 -0.6435
  926MOL0     H27773   0.595   6.032   0.439  1.0335  1.5021 -0.2993
  926MOL0     H27774   0.281   5.743   0.156  0.3617 -0.3459 -1.0862
  926MOL0     H27775   0.106   5.713  -0.014 -0.1182 -1.4002 -4.8198
  926MOL0     H27776   0.023   6.072  -0.261  0.4757 -0.0702 -0.6165
  926MOL0     H27777   0.123   5.991  -0.379 -1.3028 -1.5233 -1.3544
  926MOL0     H27778  -0.091   6.021  -0.486 -2.3029  0.0666  2.0929
  926MOL0     H27779  -0.173   5.948  -0.368 -0.2492  1.1910 -1.3388
  926MOL0     H27780  -0.040   5.817  -0.582 -0.5820 -0.6211  0.3459
  926MOL0     H27781  -0.013   5.729  -0.431  1.0687  0.8609 -0.0986
  926MOL0     H27782  -0.269   5.730  -0.402  0.3289  0.5464  0.7762
  926MOL0     H27783  -0.217   5.634  -0.535 -0.4611 -2.0484  4.6288
  926MOL0     H27784  -0.419   5.978  -0.706  2.7270  1.7082 -0.0529
  926MOL0     H27785   0.197   6.116  -0.148 -1.0496  0.6464  2.3740
  926MOL0     H27786   0.479   6.161  -0.037 -1.3801  0.8500 -1.4962
  926MOL0     H27787   0.325   6.244  -0.053 -1.1709 -2.3459 -1.8088
  926MOL0     H27788   0.401   6.209   0.109 -0.0372  0.5222 -0.0938
  927MOL0     O27789   5.240   1.630   2.118 -0.5143 -0.5008 -0.1368
  927MOL0     C27790   5.261   1.540   2.195 -0.1696  0.3315 -0.1867
  927MOL0     O27791   5.188   1.434   2.208 -0.8118  0.2284  0.3285
  927MOL0     C27792   5.048   1.429   2.189 -0.1539  0.6315 -0.0354
  927MOL0     C27793   4.965   1.530   2.143  0.1587  0.4960 -0.6748
  927MOL0     C27794   4.826   1.504   2.108 -0.1953 -0.1722  0.3372
  927MOL0     C27795   4.773   1.371   2.118 -0.0338 -0.3645  0.6662
  927MOL0     O27796   4.646   1.360   2.072  0.1167  0.4704 -0.3529
  927MOL0     C27797   4.553   1.309   2.167  0.1910  0.4887 -0.6707
  927MOL0     C27798   4.414   1.346   2.137  0.1106 -0.8150  0.4152
  927MOL0     C27799   4.301   1.279   2.215 -0.5231  0.2015 -0.9156
  927MOL0     C27800   4.156   1.303   2.164 -0.0606  0.2096  0.1126
  927MOL0     C27801   4.049   1.244   2.259  0.3885 -0.1429  0.4025
  927MOL0     C27802   3.916   1.263   2.186 -0.7898  0.0484  0.3064
  927MOL0     C27803   3.811   1.175   2.261  0.4728 -0.8221  0.0780
  927MOL0     C27804   3.677   1.192   2.201  0.2946  0.1376 -0.2983
  927MOL0     N27805   3.640   1.133   2.068  0.0660  0.3887 -0.0312
  927MOL0     C27806   3.594   1.008   2.051 -0.7168 -0.2007 -1.2632
  927MOL0     C27807   3.557   1.013   1.918  0.6939 -0.1439 -0.0321
  927MOL0     C27808   3.487   0.902   1.845  0.8237 -0.9341  0.7034
  927MOL0     C27809   3.350   0.877   1.907  0.2401 -0.7032 -1.4886
  927MOL0     C27810   3.280   0.762   1.832 -0.1437 -1.1187 -0.0700
  927MOL0     C27811   3.227   0.806   1.702  0.2800  0.1241 -0.2401
  927MOL0     O27812   3.183   0.680   1.644  0.2974 -0.2616  0.1053
  927MOL0     C27813   3.051   0.677   1.625  0.1376  0.6136  0.0079
  927MOL0     C27814   2.964   0.622   1.728  0.0290 -0.4139  0.0446
  927MOL0     C27815   2.818   0.621   1.714 -0.2024 -0.4284 -0.9604
  927MOL0     C27816   2.735   0.563   1.829  0.0329  1.0844 -0.4082
  927MOL0     C27817   2.759   0.677   1.595 -0.3425 -0.3792 -0.9991
  927MOL0     C27818   2.615   0.667   1.555  1.2904 -0.4899  0.4427
  927MOL0     O27819   2.546   0.561   1.603 -0.2027  0.3556  0.0234
  927MOL0     C27820   2.421   0.542   1.547  0.2347  0.9533 -0.6893
  927MOL0     C27821   2.304   0.583   1.616  0.4337 -0.1403  0.2689
  927MOL0     C27822   2.178   0.557   1.563  0.4934  0.2717 -0.0289
  927MOL0     C27823   2.150   0.495   1.445 -0.4221  0.7060 -0.2598
  927MOL0     O27824   2.010   0.472   1.413 -0.0066 -0.5387  0.1419
  927MOL0     C27825   1.995   0.409   1.283  0.0319 -0.3748  0.3408
  927MOL0     C27826   1.845   0.400   1.242 -0.2179  0.9579 -0.2148
  927MOL0     C27827   1.813   0.270   1.162  0.3905  0.8833 -0.6427
  927MOL0     C27828   1.696   0.277   1.060 -0.2313 -0.1862  0.5509
  927MOL0     C27829   1.558   0.293   1.125 -0.8093  0.0702  0.5997
  927MOL0     C27830   1.498   0.167   1.195 -0.4278 -0.3132 -0.0376
  927MOL0     C27831   1.448   0.058   1.105 -0.1311  1.4052 -0.2547
  927MOL0     C27832   1.339   0.098   0.994 -0.2008 -0.5161  0.2447
  927MOL0    Cl27833   1.412   0.171   0.848 -0.0779  0.4142  0.0892
  927MOL0     C27834   2.265   0.450   1.372 -0.2984  0.0992 -0.8185
  927MOL0     C27835   2.397   0.478   1.428 -0.2749 -0.1392 -0.1362
  927MOL0     O27836   2.576   0.757   1.484  0.6737  0.5336  0.3148
  927MOL0     C27837   2.847   0.720   1.498  0.2157  0.9264 -0.0379
  927MOL0     C27838   2.992   0.719   1.506  0.1691 -0.6789  0.1343
  927MOL0     N27839   3.606   1.137   1.865 -0.3181 -0.0376  0.6784
  927MOL0     N27840   3.661   1.201   1.956 -0.3531  0.4466  0.7581
  927MOL0     C27841   4.855   1.268   2.173 -0.6169 -0.1351  0.5690
  927MOL0     C27842   4.989   1.299   2.209  0.0706  0.9518 -0.4860
  927MOL0     C27843   5.374   1.544   2.281  0.5538  0.0438 -0.6958
  927MOL0     C27844   5.360   1.469   2.406 -0.5870  0.5641  0.1568
  927MOL0     C27845   5.455   1.481   2.504 -0.6525  0.0066 -0.5926
  927MOL0     C27846   5.562   1.578   2.500 -0.3876  0.0524  0.2907
  927MOL0     O27847   5.636   1.586   2.611  0.2156 -0.4744  0.1293
  927MOL0     C27848   5.776   1.613   2.574 -0.6518  0.3138 -0.2126
  927MOL0     C27849   5.871   1.548   2.672 -0.7671  0.7677  0.7748
  927MOL0     C27850   6.021   1.596   2.652  1.0902 -0.0304 -0.0806
  927MOL0     C27851   6.099   1.539   2.769 -0.0452 -0.1387  0.1434
  927MOL0     C27852   6.079   1.618   2.895  0.1841 -0.0434  0.1631
  927MOL0     C27853   6.065   1.671   3.007 -0.5190  0.9733 -0.4541
  927MOL0     C27854   5.574   1.647   2.375  0.3270  0.2225  0.1053
  927MOL0     C27855   5.480   1.638   2.269 -0.9191  1.1101  0.8432
  927MOL0     C27856   5.496   1.749   2.163  0.2410 -0.3883 -0.3201
  927MOL0     H27857   4.994   1.632   2.120 -0.2306  0.9504  0.7838
  927MOL0     H27858   4.771   1.582   2.058  0.9507  0.2604 -0.2901
  927MOL0     H27859   4.571   1.332   2.272  0.3365  0.0531 -0.5980
  927MOL0     H27860   4.564   1.201   2.152  0.0533  0.6081 -1.7566
  927MOL0     H27861   4.404   1.455   2.137 -2.5659 -0.8081 -4.0098
  927MOL0     H27862   4.398   1.316   2.033 -0.1086 -1.2647  0.5769
  927MOL0     H27863   4.315   1.174   2.242 -0.9806  0.6712  1.3265
  927MOL0     H27864   4.304   1.322   2.315  1.1505 -0.2172 -0.7542
  927MOL0     H27865   4.147   1.410   2.147 -3.0183 -0.0953 -0.8226
  927MOL0     H27866   4.153   1.246   2.071 -0.3945 -1.1691  0.9186
  927MOL0     H27867   4.039   1.293   2.357  0.5418 -0.3200  0.5071
  927MOL0     H27868   4.072   1.138   2.274 -0.9035 -0.5213 -0.1884
  927MOL0     H27869   3.889   1.369   2.180 -1.0116 -0.0162  0.1223
  927MOL0     H27870   3.922   1.235   2.081 -2.5932 -0.7308  0.3700
  927MOL0     H27871   3.806   1.200   2.367  2.8975  0.3922 -0.0354
  927MOL0     H27872   3.846   1.072   2.251  1.0359 -0.5874 -0.4415
  927MOL0     H27873   3.596   1.158   2.265 -2.1248 -1.7460 -3.9789
  927MOL0     H27874   3.657   1.299   2.199 -1.1643 -0.0915 -2.7374
  927MOL0     H27875   3.594   0.927   2.123  0.8274  1.3255  0.5785
  927MOL0     H27876   3.551   0.814   1.852  1.4389 -0.5464  0.0740
  927MOL0     H27877   3.481   0.938   1.742 -1.3947  1.5846  1.6081
  927MOL0     H27878   3.370   0.849   2.011 -3.3539  1.3159 -0.0705
  927MOL0     H27879   3.287   0.967   1.909 -2.5940 -2.4166  3.2180
  927MOL0     H27880   3.353   0.682   1.813 -0.7749 -1.3899 -1.5059
  927MOL0     H27881   3.206   0.711   1.893  1.9855 -1.4812  2.3999
  927MOL0     H27882   3.146   0.879   1.709 -0.3634 -0.4710 -1.1853
  927MOL0     H27883   3.300   0.858   1.639 -1.6028  3.0184 -0.2145
  927MOL0     H27884   3.000   0.588   1.824  0.0816 -1.1009 -0.2136
  927MOL0     H27885   2.632   0.600   1.833 -0.0263  0.8898 -0.0630
  927MOL0     H27886   2.771   0.591   1.929 -2.5033 -1.4008  1.3558
  927MOL0     H27887   2.718   0.455   1.820 -2.3126  1.5148 -1.9669
  927MOL0     H27888   2.315   0.636   1.710  1.4604 -2.5503  1.6068
  927MOL0     H27889   2.094   0.592   1.622  0.2288 -0.4522  0.0392
  927MOL0     H27890   2.053   0.460   1.206 -1.5634  0.9900 -0.0074
  927MOL0     H27891   2.032   0.306   1.291 -1.5423 -1.1419 -1.5671
  927MOL0     H27892   1.782   0.383   1.331 -0.5546  0.9946 -0.4429
  927MOL0     H27893   1.808   0.486   1.185  1.6549  2.6050  0.9385
  927MOL0     H27894   1.809   0.189   1.235 -1.8637  0.1534 -1.5020
  927MOL0     H27895   1.897   0.252   1.094 -0.1885  0.5585 -1.2880
  927MOL0     H27896   1.698   0.186   1.000 -0.3601  0.5675 -0.6307
  927MOL0     H27897   1.726   0.357   0.992 -2.1778  0.6550  0.6152
  927MOL0     H27898   1.565   0.371   1.202 -1.5854  1.7165 -0.9309
  927MOL0     H27899   1.483   0.322   1.052 -1.6762 -1.6616  0.7634
  927MOL0     H27900   1.418   0.200   1.262 -1.9303 -0.3281 -1.7643
  927MOL0     H27901   1.576   0.128   1.261  1.1771  2.1431 -0.3800
  927MOL0     H27902   1.408  -0.024   1.166 -0.4378  1.2382 -0.6724
  927MOL0     H27903   1.533   0.012   1.054  0.0562  1.6101 -0.1241
  927MOL0     H27904   1.264   0.164   1.038  2.3920  2.7649  0.1681
  927MOL0     H27905   1.286   0.009   0.957  2.1462 -2.5895  1.5189
  927MOL0     H27906   2.259   0.391   1.281  3.0030  0.4520 -1.3845
  927MOL0     H27907   2.479   0.447   1.363  0.8840 -0.3853  1.3923
  927MOL0     H27908   2.786   0.741   1.410 -0.3090 -3.2934 -0.9077
  927MOL0     H27909   3.052   0.747   1.419 -2.2344  0.7582 -1.1635
  927MOL0     H27910   4.812   1.169   2.186 -2.1921  0.7071  2.4219
  927MOL0     H27911   5.041   1.210   2.244 -1.2162  0.3393 -0.0617
  927MOL0     H27912   5.276   1.402   2.415  0.5762 -1.6626 -3.5182
  927MOL0     H27913   5.449   1.425   2.597  0.9813  0.2989 -0.2838
  927MOL0     H27914   5.798   1.578   2.473  0.1551 -1.1029  0.4308
  927MOL0     H27915   5.797   1.720   2.567  0.5437  0.0750 -0.5494
  927MOL0     H27916   5.873   1.439   2.659  2.8619  0.4783  2.4133
  927MOL0     H27917   5.840   1.581   2.772 -0.3605 -0.1343  1.2113
  927MOL0     H27918   6.054   1.557   2.555 -0.8435 -0.9093 -0.4455
  927MOL0     H27919   6.023   1.704   2.665 -2.4385  0.1239  0.3464
  927MOL0     H27920   6.205   1.550   2.744  0.1956 -1.2734  0.6257
  927MOL0     H27921   6.079   1.432   2.777 -1.7926  0.1462  0.0152
  927MOL0     H27922   6.062   1.711   3.106  1.2224  2.1556 -0.8532
  927MOL0     H27923   5.653   1.720   2.361  0.9493 -0.0345  1.9647
  927MOL0     H27924   5.593   1.799   2.170 -0.0816  0.0992  0.8816
  927MOL0     H27925   5.481   1.710   2.062 -0.3172 -4.2316  1.1024
  927MOL0     H27926   5.413   1.818   2.183  0.4403  0.0007 -0.8131
  928MOL0     O27927   2.951   0.921   8.687 -0.5484  0.1819  0.3414
  928MOL0     C27928   2.981   0.888   8.801 -0.0310 -0.0384 -0.2736
  928MOL0     O27929   2.944   0.954   8.909  0.0556 -0.4513 -0.2903
  928MOL0     C27930   2.864   1.065   8.893  0.4104  0.2347  0.1459
  928MOL0     C27931   2.924   1.193   8.886  0.8027 -0.0040  0.9362
  928MOL0     C27932   2.843   1.303   8.849 -0.2703  0.0867 -0.1114
  928MOL0     C27933   2.704   1.286   8.832 -1.1188 -0.4106  0.0495
  928MOL0     O27934   2.628   1.399   8.806 -0.1393 -0.7545  0.1666
  928MOL0     C27935   2.691   1.514   8.745  0.4001 -0.0356 -0.2499
  928MOL0     C27936   2.578   1.591   8.671 -0.5413 -0.1091  0.7704
  928MOL0     C27937   2.490   1.672   8.769  0.2719 -0.0476  0.1163
  928MOL0     C27938   2.426   1.800   8.695 -0.0620  0.4255 -0.0145
  928MOL0     C27939   2.329   1.756   8.588  0.6816  0.0132  0.7594
  928MOL0     C27940   2.288   1.883   8.507 -0.1668  0.1816 -0.1316
  928MOL0     C27941   2.195   1.971   8.597 -1.0363  0.0670  0.0749
  928MOL0     C27942   2.155   2.098   8.518  0.9541  0.3346 -0.4619
  928MOL0     N27943   2.099   2.075   8.384 -1.0774  0.5380 -0.2039
  928MOL0     C27944   2.180   2.068   8.279  0.1488 -0.2322  0.1558
  928MOL0     C27945   2.106   2.032   8.172  0.1615  1.0423 -0.2028
  928MOL0     C27946   2.144   1.999   8.028  0.1467  0.2668 -0.0292
  928MOL0     C27947   2.273   1.908   8.025  0.9276  0.1599  0.5763
  928MOL0     C27948   2.409   1.967   8.006  0.9050 -0.0007  0.3788
  928MOL0     C27949   2.515   1.908   8.089  0.7045  0.1347  0.4059
  928MOL0     O27950   2.587   1.812   8.010 -0.2309  0.2757 -0.3423
  928MOL0     C27951   2.727   1.783   8.010 -0.3188  0.6030 -0.1613
  928MOL0     C27952   2.783   1.724   7.900 -0.3563  0.4959 -0.1529
  928MOL0     C27953   2.912   1.670   7.906 -0.2838  0.8755  0.3913
  928MOL0     C27954   2.958   1.612   7.776  0.2665  0.0364 -0.2106
  928MOL0     C27955   2.998   1.678   8.019  0.7761  0.4196 -0.3050
  928MOL0     C27956   3.130   1.606   8.042  1.3461  0.3537 -0.6302
  928MOL0     O27957   3.185   1.621   8.168 -0.4562  0.1518  0.3637
  928MOL0     C27958   3.296   1.546   8.185  0.1798  0.7025  0.9557
  928MOL0     C27959   3.294   1.402   8.210 -0.2449  0.1751  0.2997
  928MOL0     C27960   3.419   1.338   8.230  0.5538  0.5213 -0.0791
  928MOL0     C27961   3.547   1.394   8.227  0.3006  0.0809  0.2083
  928MOL0     O27962   3.663   1.335   8.251  0.3617  0.6967  0.1720
  928MOL0     C27963   3.685   1.221   8.166  0.2510 -0.4459  0.2745
  928MOL0     C27964   3.835   1.205   8.144 -0.1589 -0.2570 -0.4731
  928MOL0     C27965   3.896   1.124   8.255 -1.1242  0.8237 -0.4567
  928MOL0     C27966   4.057   1.130   8.240  0.6547  0.0048 -0.0590
  928MOL0     C27967   4.098   1.256   8.327  0.4871  0.3253 -0.0800
  928MOL0     C27968   4.237   1.305   8.285 -0.2752 -0.1084  0.5569
  928MOL0     C27969   4.262   1.439   8.359  0.0172 -0.1758  0.2900
  928MOL0     C27970   4.397   1.495   8.331 -0.5990  0.0043  0.6668
  928MOL0    Cl27971   4.395   1.566   8.161 -0.3661 -0.0642  0.0928
  928MOL0     C27972   3.542   1.532   8.201 -0.1249 -0.1061 -0.9325
  928MOL0     C27973   3.420   1.605   8.191 -0.0120  0.5168  0.2407
  928MOL0     O27974   3.173   1.545   7.948 -0.1390 -0.3147  0.0299
  928MOL0     C27975   2.927   1.733   8.134  0.2306  0.4357  0.0321
  928MOL0     C27976   2.793   1.783   8.126 -0.0612 -0.0812 -0.5969
  928MOL0     N27977   1.978   2.012   8.226  0.0647  0.8962  0.3227
  928MOL0     N27978   1.972   2.040   8.345 -0.8709  0.4831  0.9690
  928MOL0     C27979   2.642   1.161   8.856 -0.3133  0.9989 -0.0402
  928MOL0     C27980   2.726   1.054   8.881 -1.2175  0.1441 -0.3415
  928MOL0     C27981   3.084   0.772   8.820 -0.1041  0.9063  0.6375
  928MOL0     C27982   3.127   0.694   8.704  0.5299  0.6723  0.4103
  928MOL0     C27983   3.218   0.588   8.719 -0.1900 -0.2615  0.3851
  928MOL0     C27984   3.276   0.555   8.838 -0.6498  0.0308 -0.6328
  928MOL0     O27985   3.360   0.441   8.857 -0.6185 -0.0596  0.8696
  928MOL0     C27986   3.368   0.346   8.752  0.2452  0.2503  0.3543
  928MOL0     C27987   3.454   0.227   8.782 -0.5984 -0.2202 -0.0207
  928MOL0     C27988   3.607   0.240   8.761  0.4030  0.3848 -0.2710
  928MOL0     C27989   3.659   0.375   8.804 -0.5924 -0.3336  0.1172
  928MOL0     C27990   3.803   0.368   8.787 -0.2214  0.5846 -0.9592
  928MOL0     C27991   3.926   0.349   8.775  0.5740  1.0880  0.8592
  928MOL0     C27992   3.263   0.643   8.946 -0.5489 -0.2156  0.2436
  928MOL0     C27993   3.157   0.741   8.943 -0.1731  0.0826 -0.6442
  928MOL0     C27994   3.103   0.785   9.081 -0.0961 -0.2856 -0.1936
  928MOL0     H27995   3.031   1.208   8.899  0.6228 -0.0274  2.6268
  928MOL0     H27996   2.892   1.400   8.853 -0.0225  0.0185 -1.2471
  928MOL0     H27997   2.776   1.487   8.682  0.0723  0.8935 -1.1056
  928MOL0     H27998   2.725   1.593   8.813 -3.0654  1.3912  0.0351
  928MOL0     H27999   2.628   1.663   8.606  0.1938 -0.3124  1.1050
  928MOL0     H28000   2.522   1.514   8.617 -1.2678  1.3001 -0.5562
  928MOL0     H28001   2.412   1.612   8.816  0.9927 -0.2690  1.0450
  928MOL0     H28002   2.552   1.701   8.854 -0.1122  0.8113  0.1123
  928MOL0     H28003   2.379   1.867   8.768 -2.5793 -2.7220  1.5560
  928MOL0     H28004   2.502   1.857   8.642  0.6308 -0.4357  0.0303
  928MOL0     H28005   2.244   1.698   8.626  2.0274 -1.4228  1.6951
  928MOL0     H28006   2.375   1.683   8.521 -0.3829  1.2950 -1.4877
  928MOL0     H28007   2.373   1.936   8.464  0.6778 -1.9601 -1.2146
  928MOL0     H28008   2.222   1.855   8.424  0.4221  2.7519 -1.5629
  928MOL0     H28009   2.251   2.000   8.686  0.7349  0.2490 -1.0348
  928MOL0     H28010   2.112   1.907   8.628 -1.0224  0.5813  1.1927
  928MOL0     H28011   2.078   2.140   8.583 -0.4311 -0.5160 -1.5057
  928MOL0     H28012   2.244   2.161   8.517  0.6740  0.8969  2.0720
  928MOL0     H28013   2.289   2.061   8.280  0.0598 -2.5576  2.6169
  928MOL0     H28014   2.156   2.099   7.984 -1.9898  0.8669  0.6326
  928MOL0     H28015   2.052   1.957   7.986  1.3697 -3.4496  0.6843
  928MOL0     H28016   2.269   1.835   8.106  1.1737 -1.9437 -1.2134
  928MOL0     H28017   2.263   1.845   7.937  0.4175  0.7858  0.1783
  928MOL0     H28018   2.437   1.964   7.900 -1.7520 -0.9521 -0.3767
  928MOL0     H28019   2.401   2.073   8.031 -1.4167 -0.4565  1.8582
  928MOL0     H28020   2.587   1.984   8.120  0.1198  0.8926 -0.0547
  928MOL0     H28021   2.485   1.866   8.185  0.8493  0.5183  0.6200
  928MOL0     H28022   2.719   1.717   7.813  0.7458 -2.5233 -0.8235
  928MOL0     H28023   2.867   1.611   7.715 -2.0076 -1.5270  2.9392
  928MOL0     H28024   2.979   1.505   7.785 -1.2823 -0.5880 -2.9693
  928MOL0     H28025   3.043   1.659   7.724  0.0711 -1.7019 -2.2636
  928MOL0     H28026   3.200   1.350   8.202  0.1028 -0.6352  1.2299
  928MOL0     H28027   3.418   1.229   8.230 -2.2787  0.4515  0.8977
  928MOL0     H28028   3.649   1.128   8.212  0.0517  0.1096  1.2569
  928MOL0     H28029   3.628   1.234   8.073 -0.4342  1.3531  0.9101
  928MOL0     H28030   3.841   1.152   8.048  0.5342  0.2769 -0.7344
  928MOL0     H28031   3.887   1.301   8.140  0.9820 -0.6180  2.5824
  928MOL0     H28032   3.866   1.019   8.257 -0.2313  0.5772  0.9414
  928MOL0     H28033   3.858   1.158   8.351 -1.7905 -0.8030 -0.1085
  928MOL0     H28034   4.086   1.141   8.135 -2.9974 -0.6804 -1.2903
  928MOL0     H28035   4.098   1.034   8.273  1.5251  0.4709  0.2310
  928MOL0     H28036   4.030   1.340   8.314  0.7296  0.6484  0.6983
  928MOL0     H28037   4.103   1.228   8.432 -0.9671 -1.3514 -0.4126
  928MOL0     H28038   4.239   1.321   8.176 -0.0624 -1.0932  0.4117
  928MOL0     H28039   4.313   1.232   8.311 -0.9281 -0.7591  0.6629
  928MOL0     H28040   4.250   1.427   8.467  0.5724  1.6073  0.5824
  928MOL0     H28041   4.181   1.510   8.337 -1.6738 -1.8485  0.8690
  928MOL0     H28042   4.465   1.409   8.335 -2.4076 -1.8169 -2.8561
  928MOL0     H28043   4.434   1.575   8.396  2.4120 -0.0113 -0.8214
  928MOL0     H28044   3.640   1.578   8.189  1.3102 -2.0866  1.9510
  928MOL0     H28045   3.429   1.710   8.162 -0.5839  0.3609 -0.5285
  928MOL0     H28046   2.971   1.734   8.232 -0.6302  0.0616  0.4375
  928MOL0     H28047   2.743   1.813   8.217  1.2829 -1.0949  0.4975
  928MOL0     H28048   2.534   1.150   8.842 -0.2454  0.0445  0.0921
  928MOL0     H28049   2.682   0.955   8.891  0.6007 -0.4787  4.9847
  928MOL0     H28050   3.082   0.718   8.608  3.6036  0.2443 -1.2505
  928MOL0     H28051   3.253   0.518   8.644 -2.4517 -1.7220  0.5839
  928MOL0     H28052   3.274   0.303   8.716  0.0156  0.8849  0.1868
  928MOL0     H28053   3.402   0.393   8.659 -1.1589  3.7309  1.4432
  928MOL0     H28054   3.438   0.146   8.710  1.5423 -0.2105 -0.5804
  928MOL0     H28055   3.427   0.192   8.883 -0.1913 -1.7765 -0.4160
  928MOL0     H28056   3.662   0.156   8.805 -0.0203 -1.0974 -2.4318
  928MOL0     H28057   3.636   0.227   8.657  0.8409  0.8642 -0.2103
  928MOL0     H28058   3.625   0.393   8.907 -2.2354 -3.6238  0.2890
  928MOL0     H28059   3.625   0.449   8.731  3.6670  0.4978 -1.3075
  928MOL0     H28060   4.031   0.333   8.759  0.5609 -0.7954  2.3488
  928MOL0     H28061   3.315   0.621   9.038 -1.3956  2.2823  1.4092
  928MOL0     H28062   3.136   0.706   9.150 -0.2985  0.2932  0.5808
  928MOL0     H28063   3.141   0.884   9.108  2.4736 -1.0114 -0.9611
  928MOL0     H28064   2.993   0.791   9.085 -0.1612  0.4669 -2.2132
  929MOL0     O28065   1.426   3.402  11.146  0.5319 -0.2287  0.2044
  929MOL0     C28066   1.458   3.484  11.060 -0.8720  0.1879 -0.1864
  929MOL0     O28067   1.557   3.456  10.965 -0.0642 -0.2244  0.4201
  929MOL0     C28068   1.575   3.325  10.934  0.8149 -0.3013  0.2595
  929MOL0     C28069   1.691   3.285  10.867 -0.9763 -0.7550  0.6140
  929MOL0     C28070   1.697   3.159  10.807 -0.2939  0.0703  0.1763
  929MOL0     C28071   1.609   3.061  10.838 -0.1514  0.4538 -0.5780
  929MOL0     O28072   1.623   2.944  10.777  0.0123  0.6370  0.3820
  929MOL0     C28073   1.506   2.873  10.753  0.1948 -0.0722  0.0482
  929MOL0     C28074   1.532   2.755  10.661 -0.4907 -0.0239  0.0114
  929MOL0     C28075   1.616   2.646  10.734 -0.4134  0.0035  0.5202
  929MOL0     C28076   1.634   2.524  10.643 -0.0740  0.1144  0.3345
  929MOL0     C28077   1.713   2.418  10.714 -0.7239  0.1950 -0.5759
  929MOL0     C28078   1.729   2.292  10.628 -0.8813 -0.0932  0.3865
  929MOL0     C28079   1.789   2.181  10.718  0.7074 -1.0028  1.0316
  929MOL0     C28080   1.881   2.093  10.637 -0.2878 -0.2922 -0.5141
  929MOL0     N28081   2.019   2.127  10.612 -0.2947  0.7138  0.6100
  929MOL0     C28082   2.130   2.084  10.681 -0.6448  0.4338 -0.3704
  929MOL0     C28083   2.231   2.157  10.629 -1.0273 -0.1254 -0.7319
  929MOL0     C28084   2.373   2.169  10.680  0.3633  0.0094 -0.5547
  929MOL0     C28085   2.370   2.276  10.791  0.5445 -0.0174  1.1574
  929MOL0     C28086   2.504   2.299  10.848 -0.1061 -0.0891 -0.2322
  929MOL0     C28087   2.579   2.174  10.894 -0.2027 -0.1909 -0.0051
  929MOL0     O28088   2.685   2.152  10.795  0.0874 -0.1146  0.4937
  929MOL0     C28089   2.805   2.226  10.797  0.4196  0.4737 -0.6077
  929MOL0     C28090   2.843   2.288  10.922 -0.2591  0.8126  0.1293
  929MOL0     C28091   2.969   2.347  10.927  0.5732  0.0148  0.0988
  929MOL0     C28092   3.032   2.390  11.060  0.7286  0.4008 -0.3725
  929MOL0     C28093   3.046   2.370  10.811  1.0376  0.5740 -0.7732
  929MOL0     C28094   3.167   2.448  10.805  0.2749 -0.0375  0.3776
  929MOL0     O28095   3.259   2.410  10.710  0.0306  0.6384  0.2079
  929MOL0     C28096   3.339   2.505  10.655 -0.0931 -1.2378 -0.2584
  929MOL0     C28097   3.455   2.449  10.597  0.2497  0.5797  0.7914
  929MOL0     C28098   3.558   2.527  10.562  0.0568 -0.2636  0.9151
  929MOL0     C28099   3.549   2.665  10.563 -0.0471 -0.0135  0.8599
  929MOL0     O28100   3.661   2.731  10.520  0.3437 -0.9440  0.2652
  929MOL0     C28101   3.670   2.873  10.527  0.7700 -0.6456 -0.5192
  929MOL0     C28102   3.771   2.927  10.429  0.1765  0.7617 -0.8147
  929MOL0     C28103   3.912   2.874  10.444 -0.0980  0.1636  0.0523
  929MOL0     C28104   4.014   2.968  10.359  0.8891  0.6452  0.5852
  929MOL0     C28105   4.145   2.902  10.371 -0.0879  0.8399  0.5657
  929MOL0     C28106   4.262   2.984  10.322 -0.3530 -0.8141  0.0927
  929MOL0     C28107   4.398   2.921  10.327  0.4315  0.0600  0.2265
  929MOL0     C28108   4.510   3.026  10.325 -0.2438  0.8685  0.0395
  929MOL0    Cl28109   4.683   2.982  10.375 -0.0205 -0.4177 -0.1571
  929MOL0     C28110   3.427   2.720  10.601  0.2798 -0.1059  0.2222
  929MOL0     C28111   3.324   2.641  10.651  0.5655 -0.2063  1.0500
  929MOL0     O28112   3.189   2.537  10.881 -0.6399  0.6309 -0.6987
  929MOL0     C28113   2.999   2.319  10.688 -0.6727 -1.1314 -0.0046
  929MOL0     C28114   2.889   2.237  10.686  0.7043  0.6028  1.0747
  929MOL0     N28115   2.189   2.238  10.526  0.8808 -0.3146 -0.5563
  929MOL0     N28116   2.066   2.214  10.518  0.2646  0.4470 -0.0018
  929MOL0     C28117   1.498   3.086  10.919  0.2202 -0.4283  0.2767
  929MOL0     C28118   1.477   3.220  10.953 -0.0317  0.9251  0.1874
  929MOL0     C28119   1.412   3.631  11.069  0.3729  0.0777 -0.7851
  929MOL0     C28120   1.488   3.737  11.001  0.1470  0.2804 -0.0993
  929MOL0     C28121   1.461   3.871  11.017  0.4526  0.0586  0.4984
  929MOL0     C28122   1.355   3.915  11.096 -0.0283 -0.0164  0.2994
  929MOL0     O28123   1.333   4.054  11.101  0.1439 -0.4469  0.6469
  929MOL0     C28124   1.273   4.111  11.225 -0.7079 -0.3103  0.1008
  929MOL0     C28125   1.124   4.127  11.214  0.1309 -0.9503  0.6084
  929MOL0     C28126   1.061   4.208  11.331  0.1635 -0.5879 -0.0540
  929MOL0     C28127   0.915   4.211  11.325  0.1161 -0.0510 -0.8101
  929MOL0     C28128   0.856   4.079  11.338  1.3546 -0.6818  0.5017
  929MOL0     C28129   0.798   3.974  11.351  0.6469  0.0454  0.0965
  929MOL0     C28130   1.275   3.814  11.146 -0.2334  0.2392 -0.3268
  929MOL0     C28131   1.295   3.676  11.135  0.6553 -0.5958  0.5514
  929MOL0     C28132   1.181   3.580  11.176  0.4402  0.0048 -0.4265
  929MOL0     H28133   1.768   3.355  10.836  0.5346 -2.7462 -0.3826
  929MOL0     H28134   1.774   3.138  10.733  2.2187  1.2901  2.2765
  929MOL0     H28135   1.444   2.938  10.690 -0.5035 -1.1883 -0.4526
  929MOL0     H28136   1.460   2.837  10.846  1.6059 -5.0646 -0.8908
  929MOL0     H28137   1.434   2.713  10.638 -0.2554 -1.1088  0.8952
  929MOL0     H28138   1.580   2.784  10.567  1.0744  0.7021  0.9986
  929MOL0     H28139   1.715   2.681  10.764  0.4212 -1.9015  0.1800
  929MOL0     H28140   1.559   2.616  10.822 -0.4186  0.1716  0.5753
  929MOL0     H28141   1.535   2.486  10.615  0.8087 -1.9548 -0.1413
  929MOL0     H28142   1.671   2.565  10.548  0.7847 -3.9210 -1.2893
  929MOL0     H28143   1.675   2.402  10.815  0.6766  0.1870 -0.0349
  929MOL0     H28144   1.813   2.462  10.720 -0.0307 -1.2543 -1.0185
  929MOL0     H28145   1.640   2.261  10.572  1.8536 -3.3216 -2.7076
  929MOL0     H28146   1.798   2.318  10.547 -0.3320  1.4261  1.2967
  929MOL0     H28147   1.711   2.123  10.768 -1.5349  1.3058  0.4269
  929MOL0     H28148   1.853   2.232  10.791  1.8299 -0.1257 -0.4876
  929MOL0     H28149   1.887   1.995  10.686 -1.6555 -1.5768 -2.7322
  929MOL0     H28150   1.827   2.079  10.542 -1.5121 -0.9539  0.2473
  929MOL0     H28151   2.138   2.029  10.774  3.5248  0.5387 -0.4555
  929MOL0     H28152   2.432   2.201  10.594  0.2520  0.6023 -0.4185
  929MOL0     H28153   2.406   2.072  10.719 -0.0520 -0.1855 -0.6780
  929MOL0     H28154   2.314   2.365  10.760 -2.5483 -2.3434 -0.5188
  929MOL0     H28155   2.305   2.238  10.871 -0.0839  0.1811  0.7503
  929MOL0     H28156   2.563   2.341  10.767  0.5903 -1.9564 -0.7468
  929MOL0     H28157   2.509   2.369  10.932  1.2783  1.7584 -1.7542
  929MOL0     H28158   2.621   2.184  10.994 -2.3040 -0.3176  0.9580
  929MOL0     H28159   2.513   2.087  10.908 -1.5885  0.9472  0.8210
  929MOL0     H28160   2.791   2.280  11.017 -1.5008  2.9762 -0.3182
  929MOL0     H28161   3.140   2.376  11.071  0.5381 -2.3096 -1.2312
  929MOL0     H28162   2.985   2.344  11.147  2.8987  0.3552  0.8390
  929MOL0     H28163   3.014   2.497  11.054 -0.4078  0.1678 -1.5913
  929MOL0     H28164   3.440   2.342  10.599 -0.3301  0.6663  1.7019
  929MOL0     H28165   3.648   2.489  10.515 -1.3901 -2.0444 -0.5749
  929MOL0     H28166   3.572   2.917  10.506  0.4014 -0.6492  1.0809
  929MOL0     H28167   3.707   2.904  10.625 -3.6322  1.7361  0.6519
  929MOL0     H28168   3.746   2.917  10.323  1.6365 -0.9165 -1.0482
  929MOL0     H28169   3.759   3.033  10.455 -3.1836  0.7105 -1.6740
  929MOL0     H28170   3.917   2.773  10.401  0.1371  0.1739  0.0580
  929MOL0     H28171   3.936   2.879  10.551  1.5748  2.3923 -0.3730
  929MOL0     H28172   4.008   3.069  10.401  0.3316 -0.3210  3.0161
  929MOL0     H28173   3.994   2.966  10.251  3.7655 -0.7049 -0.0195
  929MOL0     H28174   4.169   2.881  10.475  1.7286  0.0372  0.0312
  929MOL0     H28175   4.150   2.804  10.321  4.2515  0.8433  0.6385
  929MOL0     H28176   4.250   3.071  10.388  1.4258  0.0028 -0.6003
  929MOL0     H28177   4.244   3.012  10.218 -0.9377 -2.4733 -0.2862
  929MOL0     H28178   4.412   2.861  10.237 -3.6047  0.0088 -0.5641
  929MOL0     H28179   4.400   2.868  10.422  0.0482  2.3665  1.5989
  929MOL0     H28180   4.489   3.111  10.391  1.2161  0.3842  1.1715
  929MOL0     H28181   4.513   3.072  10.226  0.3010 -1.9764 -1.3492
  929MOL0     H28182   3.407   2.825  10.616  0.2520 -0.4026  2.6549
  929MOL0     H28183   3.233   2.690  10.684  0.9485 -0.8076  3.1251
  929MOL0     H28184   3.059   2.333  10.598  0.9717 -0.9789  1.0820
  929MOL0     H28185   2.846   2.192  10.597  0.4117  3.1548 -0.1472
  929MOL0     H28186   1.416   3.018  10.941 -2.2022  2.1145 -0.4005
  929MOL0     H28187   1.383   3.226  11.007 -0.4794 -3.5192  0.2426
  929MOL0     H28188   1.570   3.697  10.941 -2.1851 -1.8849 -2.0805
  929MOL0     H28189   1.529   3.940  10.968 -1.5512  0.9113 -1.2512
  929MOL0     H28190   1.300   4.041  11.306 -1.7424  1.3497  1.9577
  929MOL0     H28191   1.316   4.209  11.249 -2.4795  0.6065 -0.3598
  929MOL0     H28192   1.081   4.026  11.215 -0.6997 -0.5980  1.2227
  929MOL0     H28193   1.087   4.181  11.126 -1.8615 -0.5833  1.6137
  929MOL0     H28194   1.100   4.190  11.431 -0.6701  1.6550  0.7525
  929MOL0     H28195   1.101   4.309  11.316 -0.1898 -0.5549 -0.8089
  929MOL0     H28196   0.874   4.261  11.236  0.5405  4.3162  1.2029
  929MOL0     H28197   0.877   4.270  11.409  1.6120  1.5361 -1.1940
  929MOL0     H28198   0.750   3.879  11.362  0.2051  0.4387  1.6811
  929MOL0     H28199   1.194   3.846  11.211  0.2619  0.5918  0.1324
  929MOL0     H28200   1.218   3.511  11.251  0.9111  1.0157  0.2926
  929MOL0     H28201   1.086   3.622  11.212  0.7974 -0.4804  1.1409
  929MOL0     H28202   1.160   3.523  11.085  4.2855 -0.8129 -0.9652
  930MOL0     O28203   2.689   1.072   4.884  0.1532 -0.3196 -0.4100
  930MOL0     C28204   2.596   0.992   4.861  0.6652  0.9308 -0.7402
  930MOL0     O28205   2.580   0.914   4.749  0.3651 -0.6836  0.0535
  930MOL0     C28206   2.647   0.927   4.636  0.3185 -1.0731  0.1146
  930MOL0     C28207   2.645   0.811   4.558  0.3305  0.3298 -0.2918
  930MOL0     C28208   2.706   0.805   4.431 -0.3137  0.6992 -0.4640
  930MOL0     C28209   2.776   0.914   4.384 -1.0561  0.8331  0.1453
  930MOL0     O28210   2.824   0.896   4.258  0.2663  0.0427  0.1220
  930MOL0     C28211   2.853   1.013   4.184  0.4449 -0.6304  0.3768
  930MOL0     C28212   2.833   0.983   4.028  0.6704 -1.0909  0.7164
  930MOL0     C28213   2.941   0.875   3.987 -0.1252 -0.3231  0.5424
  930MOL0     C28214   2.966   0.877   3.833 -0.2491  0.3810 -0.1335
  930MOL0     C28215   3.107   0.820   3.791 -0.3955  0.6482  1.3364
  930MOL0     C28216   3.168   0.704   3.879  1.0875 -0.7165 -0.2897
  930MOL0     C28217   3.268   0.622   3.797 -0.5670 -0.0639 -0.4438
  930MOL0     C28218   3.318   0.496   3.871  0.2185 -0.2100 -0.1985
  930MOL0     N28219   3.393   0.517   3.999  0.5774  0.5369  0.2384
  930MOL0     C28220   3.451   0.625   4.046  0.0973 -0.6714  0.9072
  930MOL0     C28221   3.491   0.599   4.170  0.0743 -0.1466  0.7391
  930MOL0     C28222   3.578   0.690   4.265 -0.1140 -0.3177  0.4869
  930MOL0     C28223   3.505   0.705   4.400 -0.6899 -1.1175 -0.5423
  930MOL0     C28224   3.593   0.750   4.518 -0.7923  1.2219  0.1458
  930MOL0     C28225   3.668   0.636   4.584 -0.0288 -0.4976  0.4132
  930MOL0     O28226   3.755   0.561   4.496 -0.0860  0.0786  0.3481
  930MOL0     C28227   3.860   0.636   4.449 -0.5638  0.0073  0.0377
  930MOL0     C28228   3.926   0.585   4.335 -0.7651 -0.3168 -0.4872
  930MOL0     C28229   4.046   0.644   4.279 -0.5397  0.9023  0.4498
  930MOL0     C28230   4.118   0.573   4.165 -0.0049  1.4811 -0.3368
  930MOL0     C28231   4.094   0.764   4.341  0.2536 -0.0261  0.0307
  930MOL0     C28232   4.213   0.845   4.294 -0.7810 -0.5152 -0.6750
  930MOL0     O28233   4.227   0.966   4.350  0.2143  0.0491 -0.2585
  930MOL0     C28234   4.328   1.057   4.320  1.1247  0.0946  0.5708
  930MOL0     C28235   4.463   1.046   4.346 -0.1971  0.1998 -0.5041
  930MOL0     C28236   4.551   1.155   4.331  0.1204  0.3113  0.7555
  930MOL0     C28237   4.505   1.277   4.270 -0.5307 -0.4671 -0.0580
  930MOL0     O28238   4.595   1.380   4.261 -0.3083 -0.5579  0.4576
  930MOL0     C28239   4.551   1.509   4.214  1.3586 -0.0317 -0.2714
  930MOL0     C28240   4.676   1.607   4.199 -0.4011 -0.0956  0.0584
  930MOL0     C28241   4.740   1.630   4.335  0.1209  0.1757 -0.6140
  930MOL0     C28242   4.861   1.722   4.311 -0.1920  0.0922  0.2950
  930MOL0     C28243   4.953   1.711   4.437  0.2502 -1.1344  0.0519
  930MOL0     C28244   5.061   1.820   4.423  0.6067  0.0457 -0.2220
  930MOL0     C28245   5.154   1.804   4.544  0.1413  0.1232 -0.0359
  930MOL0     C28246   5.268   1.911   4.561 -0.1235  0.3601 -0.3850
  930MOL0    Cl28247   5.363   1.918   4.405 -0.1916  0.6518  0.3902
  930MOL0     C28248   4.365   1.286   4.246  0.6736  0.0434  0.0912
  930MOL0     C28249   4.284   1.177   4.269  0.3161 -1.3052 -0.0533
  930MOL0     O28250   4.299   0.806   4.217 -0.7405  0.5080  0.4089
  930MOL0     C28251   4.027   0.815   4.453 -0.0028  0.3029 -0.7779
  930MOL0     C28252   3.911   0.750   4.502 -0.3152  0.1026 -0.1487
  930MOL0     N28253   3.457   0.468   4.198 -1.1884  0.7586  0.5521
  930MOL0     N28254   3.404   0.417   4.098 -0.3903 -0.0331  0.8826
  930MOL0     C28255   2.789   1.031   4.467 -0.1530  0.9441 -1.0147
  930MOL0     C28256   2.725   1.033   4.593 -0.8614  0.0863 -0.3655
  930MOL0     C28257   2.495   0.978   4.971 -0.2491  0.7076 -0.3431
  930MOL0     C28258   2.371   0.911   4.944 -0.2095  0.0604  0.0605
  930MOL0     C28259   2.270   0.878   5.040  0.2152  0.5192 -0.3201
  930MOL0     C28260   2.283   0.935   5.167 -0.0070 -0.8962  0.3362
  930MOL0     O28261   2.192   0.922   5.266 -0.3913  0.2445  0.5632
  930MOL0     C28262   2.062   0.915   5.228  1.2599 -0.2182 -0.4844
  930MOL0     C28263   2.025   1.061   5.239  0.2970  0.6394  0.1691
  930MOL0     C28264   1.875   1.086   5.224  0.6484 -0.0186 -0.5776
  930MOL0     C28265   1.792   1.008   5.334 -0.0133 -0.7028 -0.3341
  930MOL0     C28266   1.658   1.024   5.293 -0.1498  0.0130 -0.2967
  930MOL0     C28267   1.542   1.014   5.255 -0.1409 -0.3727 -0.1727
  930MOL0     C28268   2.402   0.997   5.192  0.2937  0.4052 -0.1626
  930MOL0     C28269   2.507   1.033   5.101  0.8148 -0.0763  0.5347
  930MOL0     C28270   2.620   1.116   5.159  0.4597 -0.0521  0.4168
  930MOL0     H28271   2.586   0.728   4.595 -1.0631  1.9140  1.1836
  930MOL0     H28272   2.683   0.718   4.372  0.6437  0.4682 -0.5083
  930MOL0     H28273   2.954   1.054   4.195  0.5425  0.1326 -2.4770
  930MOL0     H28274   2.794   1.104   4.195  1.6896  0.4738 -1.4741
  930MOL0     H28275   2.738   0.935   4.003  0.9167 -2.1254  1.6749
  930MOL0     H28276   2.843   1.076   3.971  1.7795 -1.6052  0.0464
  930MOL0     H28277   3.034   0.896   4.040 -1.1082  1.9618  1.4826
  930MOL0     H28278   2.901   0.776   4.009  0.4979 -1.2347 -2.0050
  930MOL0     H28279   2.883   0.817   3.795 -0.1379  0.4401 -0.4789
  930MOL0     H28280   2.948   0.975   3.787  1.9584  0.2785 -1.3879
  930MOL0     H28281   3.178   0.902   3.777  0.1553  0.3259  2.1448
  930MOL0     H28282   3.098   0.782   3.689 -0.3001  3.2893  0.2424
  930MOL0     H28283   3.224   0.748   3.962  2.0293  0.5563 -1.5563
  930MOL0     H28284   3.096   0.632   3.919  1.1415 -0.4729  0.2627
  930MOL0     H28285   3.351   0.690   3.777 -0.7280  0.7609  1.4503
  930MOL0     H28286   3.217   0.590   3.706 -0.3742 -1.3831 -0.1128
  930MOL0     H28287   3.230   0.440   3.904  1.2694  0.2678  4.0723
  930MOL0     H28288   3.377   0.446   3.794  0.2264 -0.1861 -0.2077
  930MOL0     H28289   3.471   0.719   3.994  0.3608 -1.3069 -0.1664
  930MOL0     H28290   3.588   0.788   4.217  1.0519 -0.0879  1.1470
  930MOL0     H28291   3.677   0.645   4.276 -0.5350 -1.2676  0.3974
  930MOL0     H28292   3.426   0.781   4.392 -0.2349 -0.7646 -1.9997
  930MOL0     H28293   3.451   0.614   4.427 -0.2829 -1.7175 -1.7030
  930MOL0     H28294   3.659   0.824   4.471 -1.3200  1.8075  0.3082
  930MOL0     H28295   3.536   0.808   4.591 -2.0386  1.7695 -1.2091
  930MOL0     H28296   3.720   0.675   4.672  4.7049  0.8012 -2.5730
  930MOL0     H28297   3.592   0.566   4.619 -4.0511  2.6635 -1.2156
  930MOL0     H28298   3.880   0.498   4.290 -1.2873 -0.4182  0.2136
  930MOL0     H28299   4.052   0.498   4.120  2.8906 -0.5747 -1.3979
  930MOL0     H28300   4.196   0.518   4.217 -0.4595  1.1498  0.0047
  930MOL0     H28301   4.153   0.638   4.085  0.0044 -0.9977 -2.4817
  930MOL0     H28302   4.509   0.951   4.373 -4.0204 -1.2607  1.5352
  930MOL0     H28303   4.653   1.140   4.365  0.3221 -2.2109 -0.6961
  930MOL0     H28304   4.498   1.493   4.120  1.7761  1.3750 -0.7728
  930MOL0     H28305   4.477   1.561   4.276 -1.1257 -0.9211 -2.3007
  930MOL0     H28306   4.742   1.555   4.130  3.1493  2.9417  0.8156
  930MOL0     H28307   4.643   1.699   4.150  4.4603  1.2915 -1.1633
  930MOL0     H28308   4.770   1.532   4.373 -1.8757 -0.6488 -0.9984
  930MOL0     H28309   4.675   1.676   4.410 -2.0980 -3.0494 -0.3087
  930MOL0     H28310   4.835   1.826   4.289 -0.2533  0.1952  0.8475
  930MOL0     H28311   4.903   1.679   4.220 -1.7064 -1.2063  0.1534
  930MOL0     H28312   4.887   1.732   4.522 -0.9356  1.3215 -1.3607
  930MOL0     H28313   4.997   1.612   4.453 -1.7349 -1.5998  3.7818
  930MOL0     H28314   5.022   1.922   4.412  1.2110  0.1452 -1.6529
  930MOL0     H28315   5.112   1.805   4.328 -0.2438  0.1056 -0.7002
  930MOL0     H28316   5.205   1.707   4.539  3.7886  1.6772  2.2175
  930MOL0     H28317   5.092   1.803   4.634 -0.7266 -0.1248 -0.6238
  930MOL0     H28318   5.334   1.875   4.640 -1.3249 -1.6526 -0.2256
  930MOL0     H28319   5.231   2.004   4.604 -2.6161 -1.2964  1.3053
  930MOL0     H28320   4.315   1.378   4.218  1.9651  0.5554 -0.6354
  930MOL0     H28321   4.178   1.195   4.261  0.6627  0.2269 -2.0980
  930MOL0     H28322   4.063   0.905   4.503  0.5019 -0.4542  0.2610
  930MOL0     H28323   3.853   0.789   4.585  0.0400 -1.3662  0.8190
  930MOL0     H28324   2.833   1.124   4.433  1.6951  0.3359 -0.3771
  930MOL0     H28325   2.729   1.124   4.651 -2.2515  0.5446 -0.9512
  930MOL0     H28326   2.356   0.876   4.842  1.2917  1.4816 -0.6888
  930MOL0     H28327   2.187   0.818   5.007  0.7115 -1.8015  2.2766
  930MOL0     H28328   2.036   0.883   5.126  1.8368 -0.4176 -0.5763
  930MOL0     H28329   2.002   0.845   5.288 -1.6213  0.6290 -2.1691
  930MOL0     H28330   2.079   1.119   5.163  1.1144 -0.2950  0.0187
  930MOL0     H28331   2.050   1.095   5.340  0.1283  0.2399  0.3462
  930MOL0     H28332   1.860   1.194   5.231  1.5571  0.2800 -2.5034
  930MOL0     H28333   1.833   1.061   5.126 -1.3715 -1.4028  0.5481
  930MOL0     H28334   1.802   1.051   5.434 -1.6735 -1.2189  0.0953
  930MOL0     H28335   1.800   0.899   5.336 -3.1209 -1.0294  0.5652
  930MOL0     H28336   1.442   0.998   5.221  0.2674  0.8459 -2.0761
  930MOL0     H28337   2.404   1.051   5.286 -0.6183  2.7058 -1.3793
  930MOL0     H28338   2.705   1.048   5.169  2.4291  2.3696  1.0433
  930MOL0     H28339   2.649   1.201   5.096  0.7394  0.2029  0.8871
  930MOL0     H28340   2.611   1.163   5.257  2.6520  2.2204 -0.3652
  931MOL0     O28341  10.883   9.404   6.556 -0.3826 -0.8036  0.7697
  931MOL0     C28342  10.841   9.477   6.649 -1.4609  0.5752 -0.8829
  931MOL0     O28343  10.743   9.444   6.745 -0.2847 -0.4726  0.3843
  931MOL0     C28344  10.710   9.310   6.755 -0.6103 -0.1967  0.5326
  931MOL0     C28345  10.722   9.263   6.883  0.4260 -0.3607 -0.1635
  931MOL0     C28346  10.683   9.132   6.913  0.5409  0.7998  0.4738
  931MOL0     C28347  10.619   9.056   6.807  0.1868 -0.3571  0.5244
  931MOL0     O28348  10.532   8.954   6.827 -0.9491  0.3824 -0.0219
  931MOL0     C28349  10.453   8.954   6.937  0.4631 -0.4253  0.1861
  931MOL0     C28350  10.322   8.876   6.909  0.0402 -1.0002  0.8445
  931MOL0     C28351  10.209   8.964   6.834 -0.1258  0.4145 -0.6111
  931MOL0     C28352  10.151   9.067   6.935 -0.9025  0.5509  0.0372
  931MOL0     C28353  10.049   9.153   6.855  0.2406 -0.1257  0.7931
  931MOL0     C28354  10.122   9.263   6.769  0.1177 -0.2816 -0.2718
  931MOL0     C28355  10.033   9.338   6.668  0.2441  0.2730 -0.2466
  931MOL0     C28356  10.112   9.411   6.559 -0.5096  0.1199  0.6975
  931MOL0     N28357  10.157   9.319   6.453 -0.7204  0.0509 -0.1787
  931MOL0     C28358  10.286   9.269   6.458 -0.1568  0.0662 -0.6469
  931MOL0     C28359  10.283   9.166   6.370  0.4402  0.8057 -0.2779
  931MOL0     C28360  10.399   9.075   6.347  0.8260  0.4226  0.5167
  931MOL0     C28361  10.366   8.932   6.402  0.2945 -0.8712 -0.5896
  931MOL0     C28362  10.425   8.825   6.310  0.2410 -0.3020 -0.4064
  931MOL0     C28363  10.574   8.831   6.258  0.6749 -1.1490 -0.6835
  931MOL0     O28364  10.660   8.828   6.369 -0.6007  0.9493 -0.3509
  931MOL0     C28365  10.799   8.839   6.350  1.5180  0.2387 -0.4584
  931MOL0     C28366  10.863   8.833   6.227  0.7498  1.1189 -0.1991
  931MOL0     C28367  10.995   8.866   6.220 -0.1094  0.0918 -0.0926
  931MOL0     C28368  11.054   8.864   6.083  0.4996 -0.9426 -0.5825
  931MOL0     C28369  11.073   8.883   6.330 -0.2929  0.1158  0.0700
  931MOL0     C28370  11.211   8.927   6.318  0.4446  0.3359 -1.1163
  931MOL0     O28371  11.311   8.853   6.367  0.0169  0.5673  0.2986
  931MOL0     C28372  11.436   8.899   6.355 -0.2578 -0.1609  0.2393
  931MOL0     C28373  11.494   8.947   6.239  0.5976 -0.5559 -0.1300
  931MOL0     C28374  11.629   8.991   6.243 -0.3407 -0.3562 -0.4622
  931MOL0     C28375  11.708   8.984   6.358 -0.9015  0.5344  0.3011
  931MOL0     O28376  11.833   9.039   6.350  0.0144  0.6376 -0.5329
  931MOL0     C28377  11.934   8.991   6.439 -0.3591  1.0581 -0.0824
  931MOL0     C28378  12.070   9.025   6.378  1.0415  0.0983 -0.0049
  931MOL0     C28379  12.184   8.959   6.452  1.1403 -0.0925 -0.6102
  931MOL0     C28380  12.165   8.973   6.608  0.1755  0.5977  0.1120
  931MOL0     C28381  12.294   8.916   6.684  0.1913 -0.3651 -0.0065
  931MOL0     C28382  12.313   8.760   6.667 -0.4514  0.5963 -0.5460
  931MOL0     C28383  12.442   8.705   6.733  0.0641 -0.4819  0.2585
  931MOL0     C28384  12.450   8.556   6.726  0.5268  0.8101  0.7785
  931MOL0    Cl28385  12.597   8.477   6.783  0.0941  0.5775 -0.0352
  931MOL0     C28386  11.649   8.919   6.471  0.1522 -0.7831 -0.1129
  931MOL0     C28387  11.514   8.887   6.466  0.9567  0.0270 -0.0664
  931MOL0     O28388  11.225   9.043   6.271 -0.0589 -0.2793 -0.1884
  931MOL0     C28389  11.011   8.881   6.454 -0.3796 -0.4004  0.7084
  931MOL0     C28390  10.872   8.872   6.467 -0.0532 -0.5254 -0.3024
  931MOL0     N28391  10.149   9.141   6.323 -0.9278 -0.0293  0.4598
  931MOL0     N28392  10.086   9.241   6.375  0.3012  0.2460  0.2281
  931MOL0     C28393  10.607   9.116   6.677 -0.6342  0.2709  0.5692
  931MOL0     C28394  10.663   9.233   6.653  1.0581 -1.3553  0.3899
  931MOL0     C28395  10.874   9.620   6.639 -0.9106  0.1814  1.1042
  931MOL0     C28396  10.777   9.715   6.603 -0.0284  0.3662  0.2836
  931MOL0     C28397  10.807   9.847   6.586  0.3291  0.0783  0.3734
  931MOL0     C28398  10.935   9.895   6.605 -0.0900 -0.0693  0.5056
  931MOL0     O28399  10.964  10.025   6.572  0.4594 -0.9295  0.6056
  931MOL0     C28400  11.016  10.102   6.681 -0.1706 -0.3201  1.1118
  931MOL0     C28401  11.089  10.225   6.636 -0.1573 -0.2883 -0.3038
  931MOL0     C28402  11.221  10.204   6.563  0.2333  0.2000 -0.5804
  931MOL0     C28403  11.339  10.267   6.630  0.3330 -0.4219 -0.1233
  931MOL0     C28404  11.354  10.213   6.764 -0.0969  0.2974  0.4044
  931MOL0     C28405  11.380  10.164   6.872  0.0670  1.6714  1.0825
  931MOL0     C28406  11.035   9.805   6.629 -0.0813  0.1512 -0.1680
  931MOL0     C28407  11.008   9.669   6.657 -0.0921 -0.7347  1.1750
  931MOL0     C28408  11.130   9.573   6.676  0.3547 -0.2423  0.0280
  931MOL0     H28409  10.755   9.330   6.962  0.3817 -1.9586  1.2724
  931MOL0     H28410  10.693   9.085   7.010 -1.1129 -0.1874  0.2178
  931MOL0     H28411  10.431   9.051   6.984  2.2187  0.7009 -1.1758
  931MOL0     H28412  10.506   8.904   7.019 -0.2738 -1.8887 -0.2035
  931MOL0     H28413  10.341   8.791   6.843  2.3843  1.4062 -1.8417
  931MOL0     H28414  10.279   8.837   7.002  1.1787 -0.7266  1.5001
  931MOL0     H28415  10.269   9.022   6.762 -1.4772  2.5214 -0.1421
  931MOL0     H28416  10.127   8.907   6.790 -0.0100 -0.5807  0.4274
  931MOL0     H28417  10.103   9.006   7.013 -0.2661  1.6613  1.3443
  931MOL0     H28418  10.225   9.135   6.978  1.4156  1.4836 -4.7742
  931MOL0     H28419   9.974   9.200   6.920 -0.7576  1.1018 -1.1625
  931MOL0     H28420   9.998   9.084   6.788  4.0455  0.4517 -3.0991
  931MOL0     H28421  10.168   9.344   6.827 -0.3581  1.6318 -2.4171
  931MOL0     H28422  10.209   9.219   6.720 -1.0946 -1.2670 -1.6237
  931MOL0     H28423   9.975   9.413   6.722 -1.3834  0.0842 -1.6243
  931MOL0     H28424   9.963   9.269   6.619 -0.3015  0.1694  0.6720
  931MOL0     H28425  10.040   9.477   6.508  0.4830  1.3737  0.8781
  931MOL0     H28426  10.194   9.466   6.604  0.4981  1.1198 -2.1136
  931MOL0     H28427  10.371   9.305   6.515 -1.0284  1.7798 -0.3519
  931MOL0     H28428  10.487   9.124   6.390  0.5346  0.8198  0.6627
  931MOL0     H28429  10.408   9.084   6.238  3.0096  2.2297  0.7585
  931MOL0     H28430  10.408   8.931   6.503 -0.3471 -0.6587 -0.3158
  931MOL0     H28431  10.260   8.911   6.412 -0.0154  0.0529 -1.6847
  931MOL0     H28432  10.416   8.726   6.354  0.0162 -0.3428 -0.5426
  931MOL0     H28433  10.363   8.828   6.219 -1.1302  3.6996  0.4446
  931MOL0     H28434  10.585   8.753   6.181  4.2803  0.6706 -2.2527
  931MOL0     H28435  10.583   8.926   6.205  2.3952 -0.8009  0.1683
  931MOL0     H28436  10.810   8.814   6.134  0.7941  1.6590 -0.3380
  931MOL0     H28437  10.993   8.915   6.007  0.9489  1.7117  0.7180
  931MOL0     H28438  11.072   8.760   6.054 -0.3433 -1.3738  0.3682
  931MOL0     H28439  11.150   8.916   6.074  0.3331 -0.6086 -0.4345
  931MOL0     H28440  11.428   8.956   6.154  0.0814 -0.7346  0.2422
  931MOL0     H28441  11.677   9.037   6.157 -0.0859  1.3505  0.5470
  931MOL0     H28442  11.912   9.046   6.531  0.7556 -0.4228  1.1435
  931MOL0     H28443  11.925   8.889   6.477 -0.9881  1.4165  0.7644
  931MOL0     H28444  12.070   8.983   6.278 -0.4085  1.5511 -0.6522
  931MOL0     H28445  12.075   9.134   6.384 -2.1731  0.2658  3.6302
  931MOL0     H28446  12.269   9.017   6.415  0.4169  1.9250  0.7204
  931MOL0     H28447  12.195   8.857   6.414  5.1601  0.9893 -3.0219
  931MOL0     H28448  12.080   8.920   6.652  0.2498 -0.2008 -0.7029
  931MOL0     H28449  12.157   9.081   6.627 -0.1953  0.5232  0.3891
  931MOL0     H28450  12.390   8.955   6.649  0.7904  0.1830  2.1485
  931MOL0     H28451  12.288   8.938   6.791  0.9859  1.6668 -0.3197
  931MOL0     H28452  12.311   8.732   6.562  3.2301 -0.4250 -0.4752
  931MOL0     H28453  12.235   8.712   6.727  0.8048  1.3240  1.8218
  931MOL0     H28454  12.447   8.740   6.837 -0.2217  0.8337 -0.1536
  931MOL0     H28455  12.529   8.760   6.695 -2.3235  2.1264 -1.8936
  931MOL0     H28456  12.448   8.533   6.619 -1.7779 -1.7769  1.2518
  931MOL0     H28457  12.358   8.517   6.771  0.4684 -2.6045 -1.8862
  931MOL0     H28458  11.708   8.913   6.562  1.2978  2.1975 -0.5444
  931MOL0     H28459  11.462   8.851   6.554 -1.9379  0.9751 -1.3011
  931MOL0     H28460  11.060   8.906   6.547 -2.0529  1.1168  1.2377
  931MOL0     H28461  10.820   8.881   6.562  3.0514 -0.5254  1.5148
  931MOL0     H28462  10.563   9.054   6.599 -0.9969  0.9444  0.2319
  931MOL0     H28463  10.669   9.277   6.553  1.8055  0.0768  1.0419
  931MOL0     H28464  10.674   9.680   6.597  0.3657 -0.8446  0.4044
  931MOL0     H28465  10.725   9.904   6.542 -0.0840 -3.2350 -3.7327
  931MOL0     H28466  10.932  10.131   6.745 -0.0924 -1.8507  1.9742
  931MOL0     H28467  11.076  10.038   6.746 -1.4094 -1.1681  1.4633
  931MOL0     H28468  11.094  10.305   6.711 -0.5763  0.7989 -1.3976
  931MOL0     H28469  11.016  10.266   6.565 -0.9718  1.6816  1.5485
  931MOL0     H28470  11.248  10.099   6.571  1.3430  0.4812 -0.4265
  931MOL0     H28471  11.209  10.231   6.457  1.2422 -1.4625 -1.1515
  931MOL0     H28472  11.320  10.375   6.633 -2.5423 -0.8497 -0.4808
  931MOL0     H28473  11.433  10.250   6.576  0.4848 -2.9059  0.7862
  931MOL0     H28474  11.394  10.128   6.972 -0.7391  2.8374  1.6245
  931MOL0     H28475  11.137   9.842   6.624 -0.3659  0.7988 -1.8579
  931MOL0     H28476  11.155   9.573   6.783  0.5274 -1.2550  0.0037
  931MOL0     H28477  11.100   9.472   6.646 -0.2355 -0.6802  1.9476
  931MOL0     H28478  11.223   9.605   6.630  0.7800 -1.0724  0.2798
  932MOL0     O28479  10.865   8.637  11.091  0.2442 -0.5988 -0.5854
  932MOL0     C28480  10.947   8.536  11.086  0.0320 -0.3615 -1.0862
  932MOL0     O28481  11.085   8.549  11.114  0.3677 -0.5646 -0.2620
  932MOL0     C28482  11.148   8.670  11.113 -0.6169  0.1518  0.8145
  932MOL0     C28483  11.251   8.673  11.209  0.9964  0.0460  0.7811
  932MOL0     C28484  11.329   8.797  11.223  0.0627 -0.2067 -1.4202
  932MOL0     C28485  11.314   8.904  11.140 -0.0516  0.1356 -0.7142
  932MOL0     O28486  11.391   9.018  11.146 -0.0664 -1.1621 -0.3600
  932MOL0     C28487  11.524   9.029  11.210  0.1961 -1.0936  1.1251
  932MOL0     C28488  11.608   9.161  11.167 -0.7482  0.0172  0.1612
  932MOL0     C28489  11.756   9.140  11.206  0.1293  0.0859  0.0684
  932MOL0     C28490  11.851   9.151  11.082  0.1603 -0.9656  0.2330
  932MOL0     C28491  12.004   9.145  11.128  0.8778 -0.0364  0.7626
  932MOL0     C28492  12.055   9.036  11.221  1.0037  0.0221  1.1958
  932MOL0     C28493  12.169   9.071  11.317  1.0509  0.1178  0.6123
  932MOL0     C28494  12.199   8.963  11.420 -1.0984  0.6741 -0.0809
  932MOL0     N28495  12.340   8.969  11.459 -0.4629 -0.2737 -0.1846
  932MOL0     C28496  12.389   8.985  11.589  0.1169 -0.3483  0.9699
  932MOL0     C28497  12.516   8.952  11.579 -0.3735 -0.6386 -0.9981
  932MOL0     C28498  12.625   8.959  11.691  0.4350 -0.4311 -0.3349
  932MOL0     C28499  12.676   9.102  11.717 -0.4488 -0.0216 -0.8073
  932MOL0     C28500  12.755   9.089  11.856 -0.4070 -0.0183 -0.9527
  932MOL0     C28501  12.804   9.228  11.899 -0.4152  0.7275  1.3188
  932MOL0     O28502  12.860   9.225  12.031 -0.0336  0.6631  0.3801
  932MOL0     C28503  12.983   9.276  12.062 -0.6135 -0.0469 -0.1753
  932MOL0     C28504  13.010   9.318  12.191  0.4696  0.6097  0.5057
  932MOL0     C28505  13.125   9.380  12.236 -0.2837 -0.8769  0.0249
  932MOL0     C28506  13.118   9.410  12.385  0.6078  0.0334 -0.7051
  932MOL0     C28507  13.229   9.402  12.145  0.4815 -0.0998  0.2243
  932MOL0     C28508  13.365   9.441  12.179 -0.4967  0.8394 -0.0147
  932MOL0     O28509  13.398   9.477  12.307 -0.0150  0.1939 -0.5561
  932MOL0     C28510  13.532   9.511  12.331  0.5319 -0.0541 -0.3578
  932MOL0     C28511  13.627   9.414  12.360  0.1862 -0.3473 -0.0439
  932MOL0     C28512  13.763   9.452  12.387  0.7724  0.0883  0.0425
  932MOL0     C28513  13.803   9.592  12.390  0.1864 -0.0433  0.5272
  932MOL0     O28514  13.923   9.648  12.403  0.2905 -0.5999 -0.1694
  932MOL0     C28515  14.043   9.567  12.370  0.3525 -0.2140  0.4375
  932MOL0     C28516  14.060   9.522  12.222  0.3056  0.6008  0.0293
  932MOL0     C28517  14.051   9.648  12.135  0.1596 -0.9209 -0.3913
  932MOL0     C28518  14.068   9.615  11.985 -0.6430 -0.2253 -0.1277
  932MOL0     C28519  14.066   9.740  11.897 -0.8782  0.3137  0.1827
  932MOL0     C28520  14.066   9.699  11.751 -0.9106  0.6417 -0.2310
  932MOL0     C28521  14.051   9.828  11.673  0.6131  0.7244  0.3411
  932MOL0     C28522  14.077   9.803  11.528  0.8285 -0.4354  0.0271
  932MOL0    Cl28523  13.965   9.699  11.437 -0.2069 -0.1073 -0.3220
  932MOL0     C28524  13.706   9.689  12.364 -0.1320 -0.0919  1.4449
  932MOL0     C28525  13.584   9.644  12.317  0.3610 -0.2633 -1.2803
  932MOL0     O28526  13.443   9.460  12.082  0.0610 -0.1936  0.0797
  932MOL0     C28527  13.201   9.361  12.011  0.8107 -0.1980  0.0038
  932MOL0     C28528  13.091   9.301  11.962  0.5847  0.2443  0.2055
  932MOL0     N28529  12.561   8.948  11.450  0.1268  0.1659 -0.0634
  932MOL0     N28530  12.448   8.954  11.375 -0.1623  0.6036  0.6954
  932MOL0     C28531  11.208   8.896  11.051 -0.0433  0.3165  0.2178
  932MOL0     C28532  11.128   8.787  11.044 -0.0044 -0.0458  0.5005
  932MOL0     C28533  10.897   8.399  11.068  1.0240 -0.7677 -0.0213
  932MOL0     C28534  10.963   8.294  11.140 -0.4921 -0.3805  0.8623
  932MOL0     C28535  10.913   8.159  11.122  0.6965  0.4356 -1.0008
  932MOL0     C28536  10.805   8.129  11.043 -0.2966 -1.2118  0.8013
  932MOL0     O28537  10.755   8.012  11.010  0.0836  0.4178 -0.9509
  932MOL0     C28538  10.676   7.958  11.123 -0.2987 -0.6569  0.6085
  932MOL0     C28539  10.630   7.820  11.090 -0.4983  0.2194 -0.2426
  932MOL0     C28540  10.499   7.828  11.004  0.6095  0.6394  0.0741
  932MOL0     C28541  10.516   7.881  10.861 -0.2451  0.2784 -1.5118
  932MOL0     C28542  10.596   7.788  10.783  0.9136 -0.9842  0.5662
  932MOL0     C28543  10.669   7.701  10.738  0.3322  1.4073 -0.4782
  932MOL0     C28544  10.751   8.237  10.973  0.4476 -0.3908 -0.0453
  932MOL0     C28545  10.800   8.369  10.972  0.2646 -0.4594  0.0252
  932MOL0     C28546  10.722   8.471  10.903  1.1523  0.0092 -0.3554
  932MOL0     H28547  11.254   8.582  11.267  0.2532 -1.6818 -1.7419
  932MOL0     H28548  11.393   8.790  11.310 -0.9988  2.3534 -0.3408
  932MOL0     H28549  11.588   8.947  11.175  0.9963 -0.4646  1.0842
  932MOL0     H28550  11.508   9.023  11.318  0.0570  0.2936  1.1969
  932MOL0     H28551  11.597   9.184  11.061  1.5762 -0.6671 -0.2714
  932MOL0     H28552  11.570   9.238  11.235  0.1452  0.7236 -0.1279
  932MOL0     H28553  11.784   9.216  11.279 -0.3686 -2.1594  2.7871
  932MOL0     H28554  11.761   9.041  11.251 -2.0273  0.4441  1.2408
  932MOL0     H28555  11.827   9.075  11.007 -0.1881 -0.7110  0.0824
  932MOL0     H28556  11.831   9.256  11.059  5.2482  0.2303  0.1832
  932MOL0     H28557  12.027   9.241  11.173 -1.6588  0.8253  0.3556
  932MOL0     H28558  12.064   9.131  11.037 -1.7453 -1.6487 -0.8909
  932MOL0     H28559  11.967   8.995  11.271 -0.6783  1.8152 -0.1223
  932MOL0     H28560  12.095   8.952  11.163 -1.5715 -0.3198 -0.2242
  932MOL0     H28561  12.143   9.163  11.370  0.3018  0.1183  0.2490
  932MOL0     H28562  12.260   9.097  11.262  1.8404  1.5915  2.5018
  932MOL0     H28563  12.140   8.993  11.507 -1.1202  1.6307 -0.4137
  932MOL0     H28564  12.177   8.859  11.395 -2.9853  1.0628 -0.1783
  932MOL0     H28565  12.325   9.010  11.673 -1.5348 -0.5844 -0.1723
  932MOL0     H28566  12.708   8.888  11.679  1.2673  0.6580 -1.2198
  932MOL0     H28567  12.568   8.931  11.780 -0.0261 -0.2807 -0.5838
  932MOL0     H28568  12.744   9.138  11.639 -0.6631  0.0847 -0.9472
  932MOL0     H28569  12.588   9.165  11.730 -0.2728  0.4938 -2.0004
  932MOL0     H28570  12.691   9.044  11.932  0.7806  1.5311  1.0572
  932MOL0     H28571  12.841   9.024  11.841 -0.2544  0.6148 -3.2672
  932MOL0     H28572  12.876   9.259  11.823 -1.4177  1.4755  0.6358
  932MOL0     H28573  12.721   9.299  11.905  0.2573  1.6917 -0.2768
  932MOL0     H28574  12.932   9.292  12.262 -1.0642 -0.4728 -1.4880
  932MOL0     H28575  13.203   9.363  12.434  0.5883  1.8299  1.1730
  932MOL0     H28576  13.027   9.386  12.441  1.3871  1.1565  1.1245
  932MOL0     H28577  13.136   9.513  12.416 -2.3032 -0.3400  2.9032
  932MOL0     H28578  13.614   9.307  12.361  0.2892 -0.3641  1.2104
  932MOL0     H28579  13.827   9.365  12.397 -1.6049 -2.0868 -2.0372
  932MOL0     H28580  14.133   9.628  12.388 -0.6654  1.3767  0.3165
  932MOL0     H28581  14.046   9.474  12.427 -1.8627 -0.0470  0.9212
  932MOL0     H28582  14.159   9.478  12.206  2.1925  2.7160  4.2955
  932MOL0     H28583  13.980   9.452  12.194 -2.3203  3.4859 -0.2121
  932MOL0     H28584  14.132   9.714  12.167 -0.9357  0.0161  0.5524
  932MOL0     H28585  13.965   9.711  12.156 -0.9048 -2.9501  1.8016
  932MOL0     H28586  13.984   9.546  11.970 -2.8293  2.3982 -0.7678
  932MOL0     H28587  14.159   9.561  11.958 -1.0894 -0.4507 -1.2315
  932MOL0     H28588  13.972   9.791  11.918 -1.5460 -0.1849 -1.4551
  932MOL0     H28589  14.154   9.801  11.920  0.5384 -1.4799 -0.2597
  932MOL0     H28590  13.984   9.629  11.731 -1.7817  1.5976 -0.0651
  932MOL0     H28591  14.163   9.652  11.731  0.1270  1.4790  2.4085
  932MOL0     H28592  14.118   9.905  11.714  1.2444 -0.9848  2.7375
  932MOL0     H28593  13.947   9.858  11.686  0.1712 -0.9600  0.8735
  932MOL0     H28594  14.178   9.763  11.516  0.0218 -2.6977  0.3313
  932MOL0     H28595  14.089   9.902  11.482  0.2801  0.2045  1.1997
  932MOL0     H28596  13.740   9.793  12.365  0.2998 -0.2178  0.7333
  932MOL0     H28597  13.529   9.723  12.268 -1.0914 -0.9711 -0.8499
  932MOL0     H28598  13.285   9.358  11.943 -0.3910  0.0343 -1.5459
  932MOL0     H28599  13.086   9.268  11.858  0.6344 -0.0217  0.2867
  932MOL0     H28600  11.186   8.979  10.985 -0.4976  1.4353  1.7394
  932MOL0     H28601  11.043   8.792  10.977 -0.6539  3.0781  1.3743
  932MOL0     H28602  11.044   8.312  11.211  0.1329 -1.1786  0.3631
  932MOL0     H28603  10.962   8.086  11.185  0.9782  1.0823 -0.4592
  932MOL0     H28604  10.736   7.953  11.214  0.4571 -0.3374  0.1399
  932MOL0     H28605  10.593   8.021  11.155 -1.4687 -2.3819  1.1135
  932MOL0     H28606  10.610   7.776  11.188  0.7566 -0.7680 -0.4169
  932MOL0     H28607  10.709   7.764  11.040 -1.0482 -0.9571  0.1676
  932MOL0     H28608  10.446   7.733  10.993  0.2400  1.0933 -3.3123
  932MOL0     H28609  10.442   7.903  11.059  1.3149  2.7797 -1.9065
  932MOL0     H28610  10.565   7.979  10.862 -2.0076  1.2818  1.7883
  932MOL0     H28611  10.417   7.884  10.814 -0.3813 -0.6063 -1.3042
  932MOL0     H28612  10.724   7.619  10.697  1.7210  1.9465  0.2444
  932MOL0     H28613  10.660   8.210  10.919  1.3637 -0.4017 -1.6392
  932MOL0     H28614  10.626   8.484  10.953  0.4906  0.9096 -1.7944
  932MOL0     H28615  10.777   8.562  10.877 -2.1547  2.0819 -0.7569
  932MOL0     H28616  10.702   8.423  10.807  0.8533 -2.7358  1.0099
  933MOL0     O28617   6.113   7.953   5.531  0.1601  0.4694 -0.4483
  933MOL0     C28618   6.038   8.050   5.553  0.0610 -0.6876  0.2928
  933MOL0     O28619   6.006   8.149   5.457  0.1826 -0.2737  0.2216
  933MOL0     C28620   6.088   8.141   5.350 -0.1795 -0.1663  0.7201
  933MOL0     C28621   6.036   8.086   5.232 -0.7849 -0.7104  0.7470
  933MOL0     C28622   6.121   8.080   5.123  0.5877  0.2699  0.1956
  933MOL0     C28623   6.260   8.111   5.122 -0.3742  1.1216 -0.7488
  933MOL0     O28624   6.327   8.083   5.006  1.0198  0.5471 -0.0281
  933MOL0     C28625   6.450   8.155   4.975 -0.0231  0.3178 -0.7692
  933MOL0     C28626   6.449   8.303   4.976  0.3233  0.2596 -0.1045
  933MOL0     C28627   6.579   8.356   4.922 -0.2304 -0.2208  0.4482
  933MOL0     C28628   6.581   8.507   4.922 -0.2866 -0.3287  0.2997
  933MOL0     C28629   6.723   8.560   4.916 -0.9254 -0.4356  0.3164
  933MOL0     C28630   6.723   8.713   4.902  0.2802 -0.2464  0.1142
  933MOL0     C28631   6.856   8.768   4.854 -0.3496 -0.7004  0.5979
  933MOL0     C28632   6.953   8.784   4.965 -0.6437 -1.0080  0.2854
  933MOL0     N28633   7.063   8.863   4.908 -0.7152 -0.1345  0.4193
  933MOL0     C28634   7.168   8.811   4.837  0.2766  0.1120  0.6010
  933MOL0     C28635   7.223   8.914   4.767  0.1468  0.5725  0.5887
  933MOL0     C28636   7.334   8.891   4.661 -0.3536 -0.3290 -0.8241
  933MOL0     C28637   7.450   8.990   4.691  0.5520  0.5706  0.1658
  933MOL0     C28638   7.508   8.961   4.827 -0.2102 -0.1366  0.0786
  933MOL0     C28639   7.601   8.847   4.807  0.0111 -0.8528 -0.1635
  933MOL0     O28640   7.717   8.868   4.890 -0.9699 -0.1737 -0.6894
  933MOL0     C28641   7.831   8.922   4.854 -0.8952 -0.1071 -0.7551
  933MOL0     C28642   7.943   8.910   4.945  0.3801  0.7933  1.2903
  933MOL0     C28643   8.068   8.953   4.910 -0.8729 -0.5782 -0.0578
  933MOL0     C28644   8.184   8.922   5.002  0.3940 -0.1450  0.0744
  933MOL0     C28645   8.089   8.996   4.773  0.0043  0.0165 -0.3489
  933MOL0     C28646   8.223   9.019   4.723 -0.2645  0.4651  0.0034
  933MOL0     O28647   8.242   8.970   4.596 -0.3627  0.2695 -0.5899
  933MOL0     C28648   8.368   8.978   4.534  0.5140  0.5668 -0.0390
  933MOL0     C28649   8.479   8.923   4.607 -0.1971 -0.8000 -0.3158
  933MOL0     C28650   8.604   8.917   4.554  0.5221  0.3401 -0.0774
  933MOL0     C28651   8.631   8.963   4.421  0.3629 -0.2341 -0.2077
  933MOL0     O28652   8.746   8.954   4.356 -0.5582  0.0649  0.4290
  933MOL0     C28653   8.849   8.888   4.427 -0.9864 -0.8417  0.2865
  933MOL0     C28654   8.970   8.889   4.333  0.1017  0.4984 -0.1958
  933MOL0     C28655   8.948   8.795   4.212  0.1602 -0.2333 -0.3539
  933MOL0     C28656   9.014   8.666   4.247  0.3984  0.5979  0.5339
  933MOL0     C28657   9.014   8.562   4.122 -0.8221  0.2924 -0.5316
  933MOL0     C28658   9.135   8.473   4.133 -0.2971  0.9376  0.8096
  933MOL0     C28659   9.139   8.371   4.020 -0.2694  1.0317 -0.2107
  933MOL0     C28660   9.275   8.294   4.006  0.0327  0.5900 -0.1323
  933MOL0    Cl28661   9.413   8.410   4.002  0.0476 -0.3434 -0.1306
  933MOL0     C28662   8.517   9.013   4.346 -0.7525 -0.0551 -0.2619
  933MOL0     C28663   8.384   9.018   4.403 -0.7087  0.2094  0.4791
  933MOL0     O28664   8.294   9.098   4.786  0.0298  0.1046  0.2294
  933MOL0     C28665   7.981   9.020   4.692 -0.4908 -0.6684  0.2767
  933MOL0     C28666   7.850   8.988   4.731 -0.0630  0.4292 -0.4882
  933MOL0     N28667   7.156   9.032   4.801 -0.3866  0.2966  0.2565
  933MOL0     N28668   7.057   8.996   4.878  0.2079 -0.4767 -0.0923
  933MOL0     C28669   6.302   8.167   5.246 -0.1804  1.2553  0.0618
  933MOL0     C28670   6.218   8.179   5.351  0.4675 -0.5243 -0.4694
  933MOL0     C28671   5.963   8.051   5.687 -1.2020  0.0587  0.5765
  933MOL0     C28672   5.847   8.132   5.703  1.3004  1.0528  0.1299
  933MOL0     C28673   5.778   8.149   5.829 -0.7356  0.5539  1.1249
  933MOL0     C28674   5.817   8.069   5.937 -0.5681  0.8308 -0.4835
  933MOL0     O28675   5.759   8.064   6.061 -0.2941 -0.1239  0.7245
  933MOL0     C28676   5.653   8.159   6.087  0.0044 -0.1708 -0.1863
  933MOL0     C28677   5.631   8.157   6.238  1.0918  0.1876  0.6237
  933MOL0     C28678   5.498   8.232   6.280 -0.6714  0.2003 -0.2467
  933MOL0     C28679   5.474   8.216   6.434 -0.1269  0.3304  0.8456
  933MOL0     C28680   5.470   8.076   6.478  0.1996 -0.6547  0.0393
  933MOL0     C28681   5.482   7.962   6.507 -1.2765 -0.1117 -0.7104
  933MOL0     C28682   5.922   7.981   5.923 -0.5128 -0.3157  0.5837
  933MOL0     C28683   5.998   7.970   5.802  0.3753  0.0696  0.1111
  933MOL0     C28684   6.104   7.863   5.815 -0.5516 -0.1294 -0.3342
  933MOL0     H28685   5.933   8.052   5.225 -0.6906 -0.9197  0.2872
  933MOL0     H28686   6.077   8.042   5.032  0.8799  0.8230 -0.1824
  933MOL0     H28687   6.478   8.122   4.875 -0.1946 -1.6386 -0.2180
  933MOL0     H28688   6.519   8.122   5.053 -2.4263  0.3912  1.5044
  933MOL0     H28689   6.358   8.333   4.923 -0.8210 -4.9599 -1.6448
  933MOL0     H28690   6.448   8.330   5.082 -0.5431  0.8841 -0.2609
  933MOL0     H28691   6.659   8.326   4.991 -0.3565  1.8434  1.5831
  933MOL0     H28692   6.590   8.319   4.820 -2.0492 -0.0836  0.1815
  933MOL0     H28693   6.523   8.549   4.839  1.6775 -0.0491 -1.0042
  933MOL0     H28694   6.547   8.549   5.017  0.9248  2.2211 -0.3086
  933MOL0     H28695   6.766   8.506   4.830  3.0956 -0.1565  1.9453
  933MOL0     H28696   6.794   8.520   4.989 -2.0141 -1.9354  0.5991
  933MOL0     H28697   6.643   8.744   4.834 -0.8049  0.2980  1.5884
  933MOL0     H28698   6.698   8.760   4.998 -3.3220  0.8571 -1.2139
  933MOL0     H28699   6.842   8.865   4.807  1.2278 -1.2334 -1.0967
  933MOL0     H28700   6.900   8.696   4.784 -0.7399 -3.7729  3.2546
  933MOL0     H28701   6.914   8.837   5.052 -1.3708 -0.4834 -0.3536
  933MOL0     H28702   6.988   8.684   4.994 -0.9274 -1.4492 -0.8535
  933MOL0     H28703   7.192   8.706   4.824 -0.4594 -0.1116  0.9933
  933MOL0     H28704   7.297   8.905   4.559 -0.6030 -2.8477 -1.1597
  933MOL0     H28705   7.366   8.787   4.651 -2.9367 -1.0549 -2.6299
  933MOL0     H28706   7.527   8.991   4.613 -0.6535 -2.8032 -1.2541
  933MOL0     H28707   7.413   9.094   4.692  2.2598  1.2973 -2.7983
  933MOL0     H28708   7.567   9.049   4.853  2.4293 -1.8548  0.2390
  933MOL0     H28709   7.432   8.940   4.902  0.0872  2.3828  1.1922
  933MOL0     H28710   7.550   8.758   4.843 -3.8707  0.8068 -1.1235
  933MOL0     H28711   7.635   8.847   4.703 -0.2447  0.2509 -0.2670
  933MOL0     H28712   7.931   8.862   5.042  1.0662  0.2416  1.1096
  933MOL0     H28713   8.253   9.007   5.007  1.3620 -0.9239  0.2396
  933MOL0     H28714   8.234   8.835   4.959 -1.4334 -0.4449 -1.5572
  933MOL0     H28715   8.152   8.902   5.104 -0.6034 -0.9503 -0.3855
  933MOL0     H28716   8.461   8.884   4.706  1.3553  0.2607  0.4224
  933MOL0     H28717   8.683   8.888   4.622  1.0993  0.5026 -0.6642
  933MOL0     H28718   8.868   8.945   4.519 -1.9946  0.3338 -0.1988
  933MOL0     H28719   8.812   8.789   4.454 -2.0705 -0.1352  1.5521
  933MOL0     H28720   8.993   8.990   4.298 -1.1013  0.4864 -1.0936
  933MOL0     H28721   9.055   8.865   4.397  1.1426  2.9494 -0.5446
  933MOL0     H28722   8.999   8.839   4.126  0.4364  1.5269  0.6580
  933MOL0     H28723   8.842   8.782   4.190 -0.1494  0.4804  0.6565
  933MOL0     H28724   8.973   8.615   4.334 -1.8054  0.5382 -0.4712
  933MOL0     H28725   9.114   8.699   4.276  0.5980  2.5488 -1.9999
  933MOL0     H28726   8.923   8.502   4.112 -1.1593  0.9947 -1.8671
  933MOL0     H28727   9.029   8.618   4.030  0.4420  0.3798 -0.2831
  933MOL0     H28728   9.133   8.413   4.225 -1.3604 -2.3891 -1.2036
  933MOL0     H28729   9.226   8.531   4.118  0.2433 -0.2181 -0.6803
  933MOL0     H28730   9.127   8.423   3.925  2.7645  0.6675 -0.9108
  933MOL0     H28731   9.055   8.302   4.032  0.0884  0.2612 -1.8542
  933MOL0     H28732   9.275   8.242   3.910 -1.4886 -0.2794  0.3138
  933MOL0     H28733   9.293   8.222   4.087 -0.3347  0.3501 -0.2654
  933MOL0     H28734   8.533   9.032   4.241  2.8788 -0.9388 -0.0024
  933MOL0     H28735   8.302   9.053   4.342  0.2842  1.0504 -0.4243
  933MOL0     H28736   8.006   9.039   4.588  1.5746 -2.6716  0.3337
  933MOL0     H28737   7.769   8.991   4.659 -2.8522 -0.5666  2.3179
  933MOL0     H28738   6.403   8.196   5.270 -0.5985  0.8279  2.5920
  933MOL0     H28739   6.267   8.230   5.434 -0.4012  0.8754 -0.7879
  933MOL0     H28740   5.801   8.182   5.618 -1.6988 -1.1148  0.3206
  933MOL0     H28741   5.697   8.221   5.822 -2.6314 -1.5975 -0.7847
  933MOL0     H28742   5.693   8.256   6.058 -0.1350  0.1569  0.7038
  933MOL0     H28743   5.564   8.132   6.030  0.1744 -2.0145  0.3500
  933MOL0     H28744   5.722   8.206   6.273  0.0659  1.9957  0.8522
  933MOL0     H28745   5.647   8.053   6.269 -1.0994 -1.2916 -2.5485
  933MOL0     H28746   5.502   8.339   6.255  2.0399  1.1459  3.2528
  933MOL0     H28747   5.422   8.185   6.217 -1.2431  3.0868 -1.9187
  933MOL0     H28748   5.379   8.264   6.458  1.3393  3.2000  1.4368
  933MOL0     H28749   5.550   8.278   6.482 -0.2053 -0.6606  2.3295
  933MOL0     H28750   5.500   7.862   6.541  2.1655  1.5919  3.3866
  933MOL0     H28751   5.942   7.924   6.013 -0.0955 -2.8020 -1.0095
  933MOL0     H28752   6.190   7.912   5.769 -1.8013  4.3325  1.5016
  933MOL0     H28753   6.117   7.833   5.920 -0.0611  0.7975 -0.1199
  933MOL0     H28754   6.059   7.783   5.755 -3.4990 -0.0607  1.5744
  934MOL0     O28755   6.160   5.519   4.467  0.1437  0.0559  0.3147
  934MOL0     C28756   6.135   5.553   4.576  0.2975 -0.4684 -0.5008
  934MOL0     O28757   6.012   5.537   4.641  0.1057  0.5847  0.1751
  934MOL0     C28758   5.916   5.483   4.557 -0.4264  0.0388 -0.6711
  934MOL0     C28759   5.880   5.355   4.591  0.7650 -0.3936  0.7956
  934MOL0     C28760   5.796   5.267   4.510  0.2330  0.4352 -0.1219
  934MOL0     C28761   5.742   5.325   4.394 -1.0606 -0.6256 -0.0759
  934MOL0     O28762   5.652   5.271   4.313 -0.5808 -0.0379  0.0684
  934MOL0     C28763   5.622   5.128   4.331 -0.2884 -0.0776  1.0743
  934MOL0     C28764   5.625   5.048   4.197  0.0052  0.3720  0.2225
  934MOL0     C28765   5.755   5.049   4.115 -0.4040  0.3952 -0.8222
  934MOL0     C28766   5.860   4.956   4.185  0.0497  0.2826 -0.8273
  934MOL0     C28767   5.992   4.913   4.101  0.5245  0.1471 -0.2207
  934MOL0     C28768   6.084   5.037   4.049  0.9977  0.1462 -0.6037
  934MOL0     C28769   6.149   5.115   4.159 -0.2867  0.1898  0.9283
  934MOL0     C28770   6.216   5.244   4.104 -0.4372  0.1028 -0.0496
  934MOL0     N28771   6.353   5.216   4.061  0.0897 -0.4677  0.4175
  934MOL0     C28772   6.465   5.175   4.140 -0.2030 -0.0390 -0.0338
  934MOL0     C28773   6.563   5.166   4.050  0.2794 -0.6465  0.0144
  934MOL0     C28774   6.702   5.145   4.104 -0.1852  0.2889  0.1176
  934MOL0     C28775   6.770   5.015   4.044  0.2267  0.6519 -0.3470
  934MOL0     C28776   6.926   5.029   4.040 -0.2671  0.4866 -0.4772
  934MOL0     C28777   6.996   4.903   3.983 -0.7238  0.0514 -1.1888
  934MOL0     O28778   7.133   4.894   4.035 -0.0382 -0.2945 -0.7047
  934MOL0     C28779   7.232   4.951   3.968 -0.2696  0.2612  0.1746
  934MOL0     C28780   7.219   5.031   3.856  0.1129  0.1656 -0.5469
  934MOL0     C28781   7.323   5.096   3.796  0.2493 -0.6665  0.8628
  934MOL0     C28782   7.299   5.161   3.670  0.1542 -0.2159 -0.0310
  934MOL0     C28783   7.443   5.084   3.863  0.0051  0.2548  0.3399
  934MOL0     C28784   7.558   5.167   3.823  0.0022 -0.0577 -0.7752
  934MOL0     O28785   7.679   5.142   3.884  0.0177  0.0724 -0.5823
  934MOL0     C28786   7.777   5.225   3.847 -0.4963  0.2858  0.4478
  934MOL0     C28787   7.883   5.172   3.765  0.5140  0.1378  0.0895
  934MOL0     C28788   8.003   5.246   3.750 -0.2504  0.9947 -0.0525
  934MOL0     C28789   8.036   5.360   3.822 -0.4694  0.4321  0.2071
  934MOL0     O28790   8.154   5.425   3.790  0.1793  1.1939  0.2992
  934MOL0     C28791   8.202   5.525   3.875 -0.7318 -0.5099  0.3285
  934MOL0     C28792   8.335   5.582   3.820 -0.2315  0.7277 -0.0356
  934MOL0     C28793   8.420   5.469   3.763 -0.2371  0.3954  0.8450
  934MOL0     C28794   8.558   5.522   3.727 -0.1989  0.6461 -0.2048
  934MOL0     C28795   8.688   5.508   3.819 -0.0058  0.1237 -0.4555
  934MOL0     C28796   8.719   5.366   3.866  0.3397 -0.1949  0.5782
  934MOL0     C28797   8.815   5.352   3.980 -0.1972  0.1782 -0.4534
  934MOL0     C28798   8.748   5.294   4.104  0.6958 -0.6489 -0.0070
  934MOL0    Cl28799   8.618   5.409   4.142  0.0547 -0.1544 -0.0333
  934MOL0     C28800   7.941   5.406   3.920  0.6025 -0.4000 -0.2721
  934MOL0     C28801   7.815   5.337   3.933 -0.5486  0.6226  0.1118
  934MOL0     O28802   7.527   5.270   3.763  0.3605  0.3633  0.1151
  934MOL0     C28803   7.463   4.995   3.970  0.8370  0.3486  0.2881
  934MOL0     C28804   7.357   4.916   4.013 -0.5784 -0.2670  0.0928
  934MOL0     N28805   6.523   5.203   3.923  0.6822 -0.3547 -0.1810
  934MOL0     N28806   6.395   5.242   3.933 -0.1704  0.4362  0.8678
  934MOL0     C28807   5.781   5.460   4.366 -0.1338  0.0114  0.0032
  934MOL0     C28808   5.867   5.547   4.436  0.2200 -0.3674  0.1344
  934MOL0     C28809   6.244   5.622   4.648  0.0686 -0.0272  0.4196
  934MOL0     C28810   6.218   5.692   4.770  0.3765 -0.5289  0.1450
  934MOL0     C28811   6.317   5.769   4.836  0.1310  0.4416  0.5098
  934MOL0     C28812   6.450   5.740   4.805 -0.6063 -0.3473 -0.7908
  934MOL0     O28813   6.557   5.783   4.879  0.2764 -1.1675 -0.0558
  934MOL0     C28814   6.538   5.904   4.958  0.8989  0.2337  0.1049
  934MOL0     C28815   6.671   5.962   5.007 -0.1410  0.4693  0.0642
  934MOL0     C28816   6.712   5.887   5.139 -0.5942  0.0028  0.1776
  934MOL0     C28817   6.675   5.950   5.275 -0.9609 -0.3074  0.8107
  934MOL0     C28818   6.763   6.069   5.311 -0.1225 -0.1913  0.5106
  934MOL0     C28819   6.847   6.158   5.348  0.8320  0.3149 -0.0297
  934MOL0     C28820   6.475   5.665   4.687  0.0316 -0.0070 -0.4792
  934MOL0     C28821   6.383   5.615   4.602  0.7566  0.8771 -1.0633
  934MOL0     C28822   6.430   5.546   4.476 -0.2176 -0.3665  0.0996
  934MOL0     H28823   5.914   5.312   4.684  2.4294  1.6589  1.2314
  934MOL0     H28824   5.753   5.173   4.544  0.1566  0.3737 -0.3814
  934MOL0     H28825   5.518   5.131   4.364 -1.7728  0.2261 -3.0680
  934MOL0     H28826   5.683   5.069   4.400 -0.7743 -0.1918  1.4056
  934MOL0     H28827   5.595   4.944   4.214 -2.3210  0.9481 -0.0051
  934MOL0     H28828   5.532   5.080   4.150 -2.1699 -4.3392  0.7777
  934MOL0     H28829   5.734   5.029   4.010 -1.1054  2.1149 -1.0451
  934MOL0     H28830   5.801   5.149   4.114 -0.8904  0.7604  2.1004
  934MOL0     H28831   5.891   5.002   4.279 -1.7786  0.6593 -0.3631
  934MOL0     H28832   5.806   4.868   4.224 -1.0322  0.5214 -1.7364
  934MOL0     H28833   5.967   4.870   4.003  2.1785 -0.4527 -0.4073
  934MOL0     H28834   6.054   4.848   4.163  1.7770  3.5694  2.4374
  934MOL0     H28835   6.162   4.996   3.984 -1.2963 -3.0270 -1.5791
  934MOL0     H28836   6.026   5.114   3.997 -1.4823  0.1786  1.9691
  934MOL0     H28837   6.210   5.056   4.227 -3.0437 -1.9648  1.6582
  934MOL0     H28838   6.061   5.138   4.220 -0.9420  1.5493 -0.4432
  934MOL0     H28839   6.156   5.286   4.023 -4.3601 -2.7568  1.0940
  934MOL0     H28840   6.216   5.323   4.179  0.9841  2.4703 -2.3648
  934MOL0     H28841   6.473   5.149   4.245  0.9243  1.2073  0.2177
  934MOL0     H28842   6.702   5.125   4.211 -0.2977  0.6656  0.1892
  934MOL0     H28843   6.763   5.234   4.085 -0.0620  0.6591  2.0650
  934MOL0     H28844   6.744   4.928   4.104  0.5224 -1.2145 -2.7981
  934MOL0     H28845   6.724   5.012   3.945 -1.4387 -1.2186  0.4225
  934MOL0     H28846   6.946   5.115   3.976 -0.3991  0.1826 -0.9417
  934MOL0     H28847   6.967   5.055   4.137  2.0129 -1.0979 -0.9413
  934MOL0     H28848   6.934   4.818   4.013 -1.4776 -0.2516 -3.4163
  934MOL0     H28849   6.989   4.882   3.876 -1.5385 -1.6343 -0.8406
  934MOL0     H28850   7.121   5.054   3.816  0.9291  1.4730 -1.8976
  934MOL0     H28851   7.384   5.154   3.601 -0.4399 -0.1617 -0.7829
  934MOL0     H28852   7.286   5.268   3.691  2.5290 -0.1933  1.7229
  934MOL0     H28853   7.208   5.127   3.621 -1.1557 -1.7542  3.2114
  934MOL0     H28854   7.880   5.083   3.703 -0.5905  0.8961 -0.9827
  934MOL0     H28855   8.063   5.210   3.667 -3.9553 -0.5454 -2.2647
  934MOL0     H28856   8.130   5.607   3.880  0.0728  0.5650 -3.2830
  934MOL0     H28857   8.211   5.484   3.977 -1.1964  1.1902  1.0917
  934MOL0     H28858   8.310   5.648   3.737  2.6232  2.0576  0.0391
  934MOL0     H28859   8.378   5.637   3.904  1.2571  2.3231 -1.7793
  934MOL0     H28860   8.382   5.432   3.668  0.9452 -0.0794  0.5370
  934MOL0     H28861   8.429   5.381   3.828  1.5923 -4.4921 -5.0473
  934MOL0     H28862   8.545   5.628   3.705 -0.3058  0.5587 -0.5647
  934MOL0     H28863   8.586   5.469   3.635  3.7913 -2.7702  2.5585
  934MOL0     H28864   8.774   5.546   3.763  0.4631  1.7203  1.2514
  934MOL0     H28865   8.674   5.565   3.911 -2.3387 -2.0464  0.6593
  934MOL0     H28866   8.757   5.299   3.788 -0.6049 -0.0469 -0.0307
  934MOL0     H28867   8.618   5.331   3.891 -0.5899  0.7213 -1.5897
  934MOL0     H28868   8.862   5.449   3.998 -0.5228  0.3491 -0.5133
  934MOL0     H28869   8.897   5.281   3.962 -1.3291 -1.3431  0.2049
  934MOL0     H28870   8.819   5.289   4.186 -0.6134 -3.1416  1.0703
  934MOL0     H28871   8.700   5.197   4.087  0.8022 -0.7203  0.1026
  934MOL0     H28872   7.952   5.490   3.988  1.0087 -0.1623 -0.6259
  934MOL0     H28873   7.735   5.360   4.003 -0.2308 -2.3192  1.5829
  934MOL0     H28874   7.553   4.964   4.023 -0.3149 -0.9802  1.5710
  934MOL0     H28875   7.375   4.841   4.088 -0.3053 -0.0569  0.2413
  934MOL0     H28876   5.747   5.501   4.271  0.5834  1.1632  0.2315
  934MOL0     H28877   5.898   5.643   4.398  0.9565  0.2012  2.0555
  934MOL0     H28878   6.112   5.693   4.796  0.2936  1.3230 -0.1762
  934MOL0     H28879   6.280   5.829   4.918 -2.1914  0.7316 -0.6719
  934MOL0     H28880   6.489   5.972   4.888  1.5904 -1.7753 -2.4887
  934MOL0     H28881   6.462   5.886   5.035 -0.7236  2.2646 -0.9256
  934MOL0     H28882   6.655   6.070   5.015 -0.3374  0.8171 -3.5481
  934MOL0     H28883   6.742   5.954   4.924 -1.0731 -4.8285 -0.5570
  934MOL0     H28884   6.671   5.786   5.142 -1.2705  0.2876  1.0752
  934MOL0     H28885   6.818   5.861   5.128 -0.7972 -1.3651  1.2337
  934MOL0     H28886   6.696   5.880   5.356 -1.7591 -0.4550  0.9007
  934MOL0     H28887   6.569   5.974   5.292 -0.3615  2.0696  1.4764
  934MOL0     H28888   6.922   6.234   5.340  1.6803 -0.6920 -2.4204
  934MOL0     H28889   6.578   5.638   4.667 -0.4750 -0.6425 -2.4236
  934MOL0     H28890   6.387   5.592   4.387  0.4595  3.2169  1.4357
  934MOL0     H28891   6.540   5.546   4.473  0.0690 -2.6051  3.8972
  934MOL0     H28892   6.395   5.443   4.490  0.0912 -0.5027 -0.0998
  935MOL0     O28893   6.147  11.319   9.713  0.1279  0.3676  0.3383
  935MOL0     C28894   6.131  11.276   9.595 -0.6247  0.0571  0.0840
  935MOL0     O28895   6.228  11.240   9.503  0.3260  0.4532 -0.3307
  935MOL0     C28896   6.353  11.231   9.540 -0.0462  0.5535  0.2014
  935MOL0     C28897   6.422  11.113   9.530 -0.0113 -0.7708 -0.3115
  935MOL0     C28898   6.561  11.109   9.562  0.0371  0.3028 -0.0604
  935MOL0     C28899   6.635  11.222   9.585 -0.6129  0.3639 -0.1421
  935MOL0     O28900   6.771  11.213   9.607  0.6232 -0.2157 -0.7333
  935MOL0     C28901   6.846  11.274   9.497 -0.1666  1.1166 -0.9030
  935MOL0     C28902   6.990  11.266   9.534 -0.3308  0.7660  0.3046
  935MOL0     C28903   7.072  11.285   9.408  0.2098 -0.2508  0.3565
  935MOL0     C28904   7.212  11.321   9.429  0.0544  0.0646  0.7891
  935MOL0     C28905   7.274  11.386   9.301  0.0472  0.6256 -0.5001
  935MOL0     C28906   7.419  11.442   9.323 -0.3542  0.0494 -0.1555
  935MOL0     C28907   7.467  11.533   9.213 -0.1583  0.4638  0.0153
  935MOL0     C28908   7.539  11.456   9.100  0.0064 -1.0445  0.6285
  935MOL0     N28909   7.680  11.447   9.105 -0.2710 -1.0521 -0.4988
  935MOL0     C28910   7.769  11.557   9.123 -0.4221 -0.1637 -0.5526
  935MOL0     C28911   7.890  11.498   9.145 -0.3371  0.0807  0.2219
  935MOL0     C28912   8.018  11.567   9.170 -0.6717  0.2645  0.5681
  935MOL0     C28913   8.094  11.566   9.039  0.5743 -0.1204 -1.3772
  935MOL0     C28914   8.234  11.628   9.056  0.5358 -0.0938 -0.2940
  935MOL0     C28915   8.324  11.574   8.949  0.2544  0.1849  0.1465
  935MOL0     O28916   8.284  11.593   8.814 -0.9753 -0.1588 -0.3421
  935MOL0     C28917   8.354  11.543   8.711 -0.0342  0.6311  0.3686
  935MOL0     C28918   8.284  11.503   8.599  0.3242 -1.1391  0.2756
  935MOL0     C28919   8.361  11.462   8.484  1.0614  0.4290 -0.2014
  935MOL0     C28920   8.278  11.405   8.372 -0.0995 -0.3912  0.6992
  935MOL0     C28921   8.505  11.466   8.485  0.1589  0.0452 -0.0685
  935MOL0     C28922   8.593  11.434   8.370  0.5929 -0.2659  0.6040
  935MOL0     O28923   8.728  11.416   8.393 -0.4566 -0.6366 -0.4901
  935MOL0     C28924   8.814  11.388   8.291  0.7458 -0.1237 -0.1306
  935MOL0     C28925   8.784  11.318   8.179 -0.2573 -1.0854  1.0551
  935MOL0     C28926   8.880  11.277   8.089  0.2923  0.0575 -0.3469
  935MOL0     C28927   9.010  11.305   8.104 -0.6539 -0.5063 -0.3833
  935MOL0     O28928   9.098  11.256   8.013 -0.6833  0.3953  0.8210
  935MOL0     C28929   9.228  11.301   8.030 -0.3517 -0.5093  0.5413
  935MOL0     C28930   9.307  11.215   7.932 -0.9185 -0.0063 -0.5294
  935MOL0     C28931   9.454  11.262   7.907 -0.7040 -0.7580 -0.1763
  935MOL0     C28932   9.546  11.216   8.020  0.1610  0.5554 -0.2004
  935MOL0     C28933   9.689  11.255   8.004  1.4315 -0.2623  0.5286
  935MOL0     C28934   9.740  11.196   7.869 -0.4208  0.2587  0.5796
  935MOL0     C28935   9.890  11.184   7.865  0.1056  0.2842  1.0172
  935MOL0     C28936   9.950  11.129   7.731  0.8470  0.0705  0.4659
  935MOL0    Cl28937   9.931  11.267   7.594  0.6308 -0.5942  0.3313
  935MOL0     C28938   9.044  11.386   8.217 -0.0885  0.7898 -0.4844
  935MOL0     C28939   8.945  11.425   8.306  0.4783  0.3829  0.5806
  935MOL0     O28940   8.542  11.449   8.259  0.9139  0.5507 -0.4018
  935MOL0     C28941   8.570  11.499   8.605  0.7097 -0.1714  0.2502
  935MOL0     C28942   8.493  11.537   8.718  0.4793  0.2565 -0.3560
  935MOL0     N28943   7.873  11.360   9.140 -0.5208  0.0472 -0.3080
  935MOL0     N28944   7.747  11.331   9.112  0.4320 -0.2848  0.9192
  935MOL0     C28945   6.571  11.350   9.585 -0.2209  0.0441 -0.2719
  935MOL0     C28946   6.429  11.349   9.569 -0.4025  0.0194  0.0671
  935MOL0     C28947   5.994  11.288   9.534 -0.0917  0.3511  0.8816
  935MOL0     C28948   5.938  11.166   9.473  0.9530 -0.4939 -0.3028
  935MOL0     C28949   5.806  11.168   9.424 -0.7353 -0.3962  0.1942
  935MOL0     C28950   5.718  11.281   9.448  0.6052 -0.4170 -0.1956
  935MOL0     O28951   5.583  11.296   9.418  0.3754 -0.4937  0.2663
  935MOL0     C28952   5.526  11.200   9.328 -0.4498  0.4482  0.2964
  935MOL0     C28953   5.570  11.221   9.183  0.2852 -0.4046  0.1314
  935MOL0     C28954   5.532  11.361   9.133  0.4802  0.5381 -0.7076
  935MOL0     C28955   5.633  11.420   9.027 -0.4023  0.1433  0.0038
  935MOL0     C28956   5.776  11.433   9.068 -0.1304  0.7043 -0.0077
  935MOL0     C28957   5.880  11.467   9.121 -0.1343  0.1112 -0.5556
  935MOL0     C28958   5.772  11.383   9.531  0.3725 -0.7089  0.6272
  935MOL0     C28959   5.907  11.397   9.562 -0.1439 -0.6889 -0.2368
  935MOL0     C28960   5.956  11.520   9.635 -0.8591 -0.3605 -0.8082
  935MOL0     H28961   6.357  11.030   9.503 -0.6916 -0.0571 -0.9299
  935MOL0     H28962   6.616  11.016   9.564 -0.0848  0.1877 -1.3587
  935MOL0     H28963   6.822  11.379   9.475  2.9686  2.7317  2.3424
  935MOL0     H28964   6.833  11.203   9.415 -2.1002 -1.0842  1.1751
  935MOL0     H28965   7.011  11.346   9.606 -0.0024 -1.7644  3.2614
  935MOL0     H28966   7.010  11.168   9.578  0.3360  0.5305 -0.4960
  935MOL0     H28967   7.065  11.203   9.336 -0.5144 -1.1763  1.4497
  935MOL0     H28968   7.021  11.373   9.367  0.3125 -0.3989 -0.0940
  935MOL0     H28969   7.241  11.395   9.505  3.2739 -0.1002 -0.1436
  935MOL0     H28970   7.273  11.233   9.451  1.4436  0.3874 -1.4614
  935MOL0     H28971   7.206  11.470   9.281 -1.7182 -0.6999 -0.2435
  935MOL0     H28972   7.275  11.315   9.218 -1.8889 -0.6192  0.4853
  935MOL0     H28973   7.418  11.511   9.408  3.0633  0.4798 -0.3316
  935MOL0     H28974   7.498  11.368   9.340  3.5995  4.0485  0.8519
  935MOL0     H28975   7.539  11.607   9.249 -0.3699  1.2086 -1.0664
  935MOL0     H28976   7.379  11.587   9.178 -1.0725 -0.2202  1.2023
  935MOL0     H28977   7.492  11.357   9.093 -2.3825 -0.1335  2.4298
  935MOL0     H28978   7.519  11.518   9.012  2.6248  0.8762  1.2903
  935MOL0     H28979   7.753  11.664   9.110  1.2212 -0.0162 -1.7917
  935MOL0     H28980   8.071  11.531   9.258  1.1388 -2.8811 -1.6342
  935MOL0     H28981   7.994  11.668   9.205  0.6182  0.3323  1.2987
  935MOL0     H28982   8.087  11.461   9.009  2.1069 -0.4516 -0.6460
  935MOL0     H28983   8.034  11.629   8.973  1.1916  0.6171 -1.2511
  935MOL0     H28984   8.226  11.735   9.039 -1.8333 -0.3166 -0.8516
  935MOL0     H28985   8.275  11.589   9.150 -0.8910 -0.5924  0.1399
  935MOL0     H28986   8.424  11.611   8.973 -0.2261  0.4676  1.8797
  935MOL0     H28987   8.330  11.467   8.969 -1.3395  0.1813  0.6967
  935MOL0     H28988   8.176  11.509   8.597  0.2406 -2.1049  1.2223
  935MOL0     H28989   8.252  11.486   8.303 -0.5760 -1.6822 -0.6782
  935MOL0     H28990   8.185  11.367   8.416 -0.2299  1.1958  1.8909
  935MOL0     H28991   8.337  11.327   8.323  1.3791  0.3123  1.2891
  935MOL0     H28992   8.682  11.281   8.168  0.3160 -3.1175  2.0761
  935MOL0     H28993   8.856  11.215   8.003 -2.1777 -1.3705  1.2570
  935MOL0     H28994   9.229  11.408   8.007 -2.4891  0.5296  4.3173
  935MOL0     H28995   9.261  11.268   8.129 -1.5536 -3.9527 -0.0632
  935MOL0     H28996   9.317  11.112   7.969  2.0079  1.0384  2.0732
  935MOL0     H28997   9.270  11.223   7.830 -0.2387 -0.5656 -0.8332
  935MOL0     H28998   9.459  11.369   7.885 -2.1033 -0.8649 -1.1916
  935MOL0     H28999   9.489  11.205   7.821  3.4586  3.3347 -1.6193
  935MOL0     H29000   9.537  11.108   8.036 -0.4870  0.7475  0.9116
  935MOL0     H29001   9.516  11.251   8.120  0.3308 -0.6980  0.3128
  935MOL0     H29002   9.705  11.363   8.004 -1.1956  0.1753  0.6907
  935MOL0     H29003   9.744  11.215   8.091  0.5304  1.1884  1.8084
  935MOL0     H29004   9.709  11.256   7.783  2.0147  0.0332 -0.5069
  935MOL0     H29005   9.698  11.095   7.862 -1.1290  0.4886  1.3070
  935MOL0     H29006   9.915  11.101   7.932 -3.0592 -5.0475 -3.5899
  935MOL0     H29007   9.946  11.273   7.894 -0.2133  0.6674  0.4648
  935MOL0     H29008   9.891  11.043   7.697  1.0471 -0.1439  0.6567
  935MOL0     H29009  10.055  11.097   7.734  0.9149  0.3788  1.6595
  935MOL0     H29010   9.148  11.413   8.234 -0.0028  0.7543 -0.9385
  935MOL0     H29011   8.965  11.477   8.399 -0.6494 -0.3437  1.2615
  935MOL0     H29012   8.677  11.503   8.624  0.9983 -2.0969 -0.6914
  935MOL0     H29013   8.539  11.560   8.813 -0.3539 -0.0320  0.1283
  935MOL0     H29014   6.620  11.445   9.599  0.1309 -0.3030  1.0867
  935MOL0     H29015   6.378  11.443   9.588  0.4061  0.6365 -0.7103
  935MOL0     H29016   6.002  11.081   9.456  2.0183  0.7620 -3.2541
  935MOL0     H29017   5.757  11.087   9.370 -1.4869  1.2289 -1.7399
  935MOL0     H29018   5.551  11.100   9.365  0.8099  0.1044 -1.3773
  935MOL0     H29019   5.419  11.223   9.328 -0.5234  0.1949  1.6541
  935MOL0     H29020   5.535  11.149   9.109 -0.5436  3.1072 -3.1950
  935MOL0     H29021   5.679  11.217   9.183  0.4222  1.4307 -1.7421
  935MOL0     H29022   5.437  11.345   9.081 -1.1930  2.3116  1.6223
  935MOL0     H29023   5.535  11.433   9.215  2.3225  0.7743 -0.9491
  935MOL0     H29024   5.598  11.519   8.995 -1.6947 -0.9365 -2.1478
  935MOL0     H29025   5.624  11.363   8.934 -1.5514  0.8653 -0.3559
  935MOL0     H29026   5.970  11.488   9.176  0.2264 -1.4420 -0.5077
  935MOL0     H29027   5.705  11.467   9.544 -0.4694 -1.4273  1.0021
  935MOL0     H29028   5.879  11.597   9.633  1.1807  1.9291  1.6294
  935MOL0     H29029   5.972  11.491   9.739 -2.6048 -2.3808 -1.0242
  935MOL0     H29030   6.047  11.559   9.588 -0.3526 -2.8628 -2.0775
  936MOL0     O29031   7.571   7.394   6.978 -0.1236 -0.2783 -0.5142
  936MOL0     C29032   7.562   7.441   7.090 -0.5676 -0.4824 -0.3830
  936MOL0     O29033   7.626   7.551   7.131 -0.0409 -0.3206  0.0873
  936MOL0     C29034   7.727   7.609   7.051  0.8196 -0.7169 -0.6587
  936MOL0     C29035   7.692   7.661   6.932  0.3062  0.2312  0.3882
  936MOL0     C29036   7.789   7.689   6.840  0.1848 -0.4526 -0.3431
  936MOL0     C29037   7.925   7.682   6.869 -0.6134  0.0062  0.0596
  936MOL0     O29038   8.032   7.691   6.783  0.0350 -0.3424 -0.1039
  936MOL0     C29039   8.000   7.684   6.644  0.9824  0.2480  0.0644
  936MOL0     C29040   8.122   7.710   6.555 -0.6336  1.0498 -0.3260
  936MOL0     C29041   8.187   7.841   6.596  0.2991 -0.6859 -0.4599
  936MOL0     C29042   8.287   7.891   6.485  0.3139  0.2201 -0.0578
  936MOL0     C29043   8.420   7.801   6.476  0.6626 -0.4684 -1.1972
  936MOL0     C29044   8.489   7.787   6.622 -0.8050 -0.3020  0.0424
  936MOL0     C29045   8.609   7.680   6.622  0.3628 -1.1187  0.5498
  936MOL0     C29046   8.740   7.730   6.564  0.4555  1.0005  0.2593
  936MOL0     N29047   8.825   7.616   6.515 -0.2986 -1.0459  0.1941
  936MOL0     C29048   8.816   7.584   6.378 -0.3850 -1.5773 -0.4533
  936MOL0     C29049   8.928   7.523   6.353  0.2597 -0.0105 -0.4014
  936MOL0     C29050   8.966   7.475   6.216  0.0788 -0.3767  0.0036
  936MOL0     C29051   9.112   7.419   6.189  0.6485 -0.3491 -0.5898
  936MOL0     C29052   9.133   7.399   6.042  0.7005 -0.2830 -0.4683
  936MOL0     C29053   9.273   7.367   6.004 -0.6322 -0.5024  0.3915
  936MOL0     O29054   9.347   7.490   6.032 -0.0966 -0.1039 -0.2551
  936MOL0     C29055   9.478   7.485   6.005  0.2971 -0.2187 -0.2406
  936MOL0     C29056   9.544   7.378   5.948  0.3964  0.7501 -0.1457
  936MOL0     C29057   9.680   7.383   5.913 -0.6115  0.3206 -0.4503
  936MOL0     C29058   9.746   7.242   5.882 -0.5073 -0.4112  0.1351
  936MOL0     C29059   9.756   7.502   5.922 -0.0063 -0.8803 -0.9246
  936MOL0     C29060   9.896   7.510   5.907 -0.5567 -0.0808  0.1995
  936MOL0     O29061   9.953   7.427   5.822  0.0881  0.6765  0.3326
  936MOL0     C29062  10.089   7.427   5.793  0.4293 -0.3434  0.1659
  936MOL0     C29063  10.152   7.303   5.799  0.0015  0.4949  0.6636
  936MOL0     C29064  10.287   7.289   5.765  0.2762  0.2162 -0.6924
  936MOL0     C29065  10.369   7.408   5.737  0.2472 -0.2498 -0.3384
  936MOL0     O29066  10.503   7.398   5.696 -0.5543  0.6890  0.8054
  936MOL0     C29067  10.573   7.268   5.689 -0.8100 -0.1696  0.1882
  936MOL0     C29068  10.611   7.200   5.821  0.0799  0.6222  0.9832
  936MOL0     C29069  10.659   7.308   5.912  0.3078  0.3294 -0.4412
  936MOL0     C29070  10.700   7.230   6.051  0.5663  0.3386  0.5193
  936MOL0     C29071  10.759   7.323   6.166  0.0624 -0.2115  0.8074
  936MOL0     C29072  10.907   7.332   6.125 -0.2185 -0.0887  0.1187
  936MOL0     C29073  10.995   7.402   6.231 -0.1896  0.3897 -0.4405
  936MOL0     C29074  11.134   7.336   6.228 -0.5456  1.0216 -0.1748
  936MOL0    Cl29075  11.133   7.183   6.318  0.0549 -0.4415  0.1340
  936MOL0     C29076  10.307   7.540   5.750 -0.7758  0.5421  0.2690
  936MOL0     C29077  10.173   7.542   5.774 -1.3132  0.5974  0.0414
  936MOL0     O29078   9.957   7.606   5.962  0.4563  0.6216  0.3099
  936MOL0     C29079   9.694   7.609   5.991  0.2100  0.2629  0.1714
  936MOL0     C29080   9.561   7.602   6.033 -0.2696 -0.4488 -0.0066
  936MOL0     N29081   8.998   7.506   6.477 -0.4601 -0.1227  0.6979
  936MOL0     N29082   8.940   7.569   6.575  0.5346  0.6596 -0.6066
  936MOL0     C29083   7.954   7.645   7.000 -0.0114 -0.1796 -0.3842
  936MOL0     C29084   7.850   7.625   7.094  0.1411  0.1697 -0.1780
  936MOL0     C29085   7.475   7.380   7.201 -0.1505  0.3140  0.2735
  936MOL0     C29086   7.490   7.421   7.333 -0.2069  0.1625  0.0400
  936MOL0     C29087   7.402   7.381   7.435  0.6845  0.7742  0.4747
  936MOL0     C29088   7.297   7.295   7.404 -0.0068  0.6985  0.6672
  936MOL0     O29089   7.216   7.261   7.507  0.2327 -0.0241 -0.7993
  936MOL0     C29090   7.091   7.189   7.492 -0.1496 -1.5005  0.1243
  936MOL0     C29091   7.038   7.155   7.628  0.4760  0.3299 -0.3741
  936MOL0     C29092   7.123   7.048   7.699  0.8338  0.2956  0.7670
  936MOL0     C29093   7.032   6.949   7.774  0.7536  0.6246  0.0261
  936MOL0     C29094   6.986   6.838   7.676  0.2818 -0.2622 -0.1049
  936MOL0     C29095   6.945   6.756   7.590 -0.4387 -0.4325 -0.1502
  936MOL0     C29096   7.279   7.252   7.275  0.3421  0.0060  0.2372
  936MOL0     C29097   7.356   7.305   7.167 -0.6944 -0.0943 -0.1221
  936MOL0     C29098   7.317   7.258   7.026  0.2821 -0.5295 -0.5659
  936MOL0     H29099   7.584   7.657   6.926  0.1410  1.8568  1.6155
  936MOL0     H29100   7.758   7.724   6.742  0.1344  2.3097  0.5670
  936MOL0     H29101   7.912   7.744   6.619  0.0887  0.0208  2.3710
  936MOL0     H29102   7.968   7.579   6.639  3.2125 -0.5123  0.7968
  936MOL0     H29103   8.193   7.628   6.570 -1.3054  0.6887  1.1256
  936MOL0     H29104   8.092   7.707   6.450  0.1278  0.2498 -0.5267
  936MOL0     H29105   8.116   7.916   6.633  1.7598 -1.0562  3.5911
  936MOL0     H29106   8.235   7.834   6.694 -1.4137  0.3522  0.5135
  936MOL0     H29107   8.237   7.900   6.388 -0.5945  1.9558  0.5146
  936MOL0     H29108   8.324   7.992   6.509 -2.9819  1.2201  1.3409
  936MOL0     H29109   8.491   7.838   6.401  1.8284 -0.8998 -0.3366
  936MOL0     H29110   8.391   7.698   6.453 -0.4549 -1.2738  3.0706
  936MOL0     H29111   8.520   7.884   6.660 -3.5095 -0.2758  2.5450
  936MOL0     H29112   8.410   7.755   6.690 -2.9719  1.9498 -1.2267
  936MOL0     H29113   8.583   7.594   6.560 -0.0467 -0.4890 -0.1878
  936MOL0     H29114   8.618   7.639   6.723 -2.0304  0.0812  1.3378
  936MOL0     H29115   8.724   7.795   6.477 -0.1532 -0.3331 -0.6674
  936MOL0     H29116   8.793   7.784   6.643  1.7821  2.6862 -1.6527
  936MOL0     H29117   8.739   7.621   6.311 -2.2201 -0.8030  1.9053
  936MOL0     H29118   8.946   7.547   6.136  0.7513 -0.3500 -0.1395
  936MOL0     H29119   8.888   7.401   6.196  0.4991 -0.8782  0.2121
  936MOL0     H29120   9.186   7.489   6.229  0.9966  0.1782 -2.0950
  936MOL0     H29121   9.117   7.324   6.243  0.8008  0.4720  0.9034
  936MOL0     H29122   9.071   7.312   6.016  2.4799 -2.0840  1.0136
  936MOL0     H29123   9.123   7.490   5.983  4.0358  2.1744  2.3193
  936MOL0     H29124   9.317   7.283   6.057  2.2275 -0.0732 -1.1033
  936MOL0     H29125   9.274   7.356   5.895 -1.9781  0.1871  0.2881
  936MOL0     H29126   9.485   7.289   5.932 -1.6771  2.0201  0.1243
  936MOL0     H29127   9.674   7.163   5.907 -0.6571 -0.6908 -1.0844
  936MOL0     H29128   9.837   7.223   5.938  0.3429  0.6291 -0.8344
  936MOL0     H29129   9.777   7.235   5.777  1.4724  1.7660  0.4900
  936MOL0     H29130  10.100   7.210   5.816 -0.8610  0.9027  0.3303
  936MOL0     H29131  10.332   7.192   5.749  0.9162  0.3930 -0.0450
  936MOL0     H29132  10.512   7.204   5.624  1.3659 -0.9836 -1.1411
  936MOL0     H29133  10.658   7.276   5.621 -0.2774 -1.7589  0.6259
  936MOL0     H29134  10.520   7.146   5.850  1.2482 -2.8366 -1.1102
  936MOL0     H29135  10.682   7.117   5.810 -1.6986 -0.8629 -0.0522
  936MOL0     H29136  10.573   7.372   5.934 -1.4738 -1.4460 -1.7378
  936MOL0     H29137  10.744   7.366   5.875  1.0643  0.2763  1.1536
  936MOL0     H29138  10.777   7.156   6.028  1.5044  0.8335  1.9322
  936MOL0     H29139  10.619   7.168   6.089  1.6783 -0.8052  1.1045
  936MOL0     H29140  10.706   7.417   6.182  0.7721  0.2966  0.2269
  936MOL0     H29141  10.758   7.263   6.257  1.6814  2.0207  2.4016
  936MOL0     H29142  10.905   7.380   6.026 -4.2756  0.3286  0.2543
  936MOL0     H29143  10.952   7.235   6.100 -2.1518 -0.8871 -0.5185
  936MOL0     H29144  10.956   7.389   6.332  2.3164 -1.7357  0.3938
  936MOL0     H29145  11.004   7.508   6.207  3.4735  0.4659  0.5775
  936MOL0     H29146  11.202   7.399   6.286 -0.1823 -0.3382  0.9586
  936MOL0     H29147  11.173   7.331   6.126  0.1189 -1.3302  0.1417
  936MOL0     H29148  10.372   7.626   5.736  0.9935 -0.8417 -0.5469
  936MOL0     H29149  10.122   7.638   5.785 -1.0959  0.8016 -0.6631
  936MOL0     H29150   9.745   7.702   6.013 -2.1024  2.0069 -1.3210
  936MOL0     H29151   9.510   7.692   6.067 -0.9412 -0.6584 -0.4374
  936MOL0     H29152   8.054   7.640   7.041 -0.8142 -1.3259  1.5843
  936MOL0     H29153   7.870   7.603   7.199 -0.5180 -1.5944 -0.3957
  936MOL0     H29154   7.573   7.487   7.359 -1.0460  0.6681  1.5435
  936MOL0     H29155   7.400   7.412   7.539  0.1875 -2.9161  1.6980
  936MOL0     H29156   7.017   7.241   7.430  0.1192 -0.9459  0.2590
  936MOL0     H29157   7.109   7.094   7.441  2.1375 -1.0682  0.0361
  936MOL0     H29158   6.942   7.103   7.618  0.7030 -0.3393  0.6830
  936MOL0     H29159   7.028   7.246   7.688  3.7511  1.2180 -0.9999
  936MOL0     H29160   7.192   6.997   7.631 -0.0131 -1.6345  1.3040
  936MOL0     H29161   7.179   7.107   7.773  1.5535  1.5049 -0.6762
  936MOL0     H29162   6.945   7.000   7.816  0.0255 -0.3889 -0.2118
  936MOL0     H29163   7.092   6.907   7.855  0.9520 -0.8967 -0.8525
  936MOL0     H29164   6.916   6.685   7.515 -1.0530  0.7132 -1.0378
  936MOL0     H29165   7.211   7.170   7.254  3.4765 -2.2226 -2.0981
  936MOL0     H29166   7.368   7.164   7.003  0.6565 -1.6139  3.7678
  936MOL0     H29167   7.208   7.250   7.021  0.1908  1.0873 -3.5230
  936MOL0     H29168   7.348   7.341   6.961 -0.4080  0.0059 -0.2227
  937MOL0     O29169   1.704   7.008   0.369 -0.4265  0.2560  0.2194
  937MOL0     C29170   1.603   6.961   0.422  0.2957  0.4240  0.1413
  937MOL0     O29171   1.561   6.836   0.400  0.2464 -0.4616  0.4095
  937MOL0     C29172   1.561   6.791   0.269 -0.6969  0.5893 -0.1961
  937MOL0     C29173   1.618   6.667   0.237 -0.4488  1.2815 -0.1956
  937MOL0     C29174   1.628   6.626   0.100 -1.0807  0.2358 -0.0146
  937MOL0     C29175   1.570   6.701  -0.000 -0.8424  0.4299  0.3674
  937MOL0     O29176   1.578   6.672  -0.135 -0.3039  0.4649  0.4988
  937MOL0     C29177   1.715   6.664  -0.176  0.3397 -0.2362 -0.8540
  937MOL0     C29178   1.713   6.594  -0.310  0.7876  0.0595  0.0995
  937MOL0     C29179   1.718   6.443  -0.297 -0.3126 -0.3252  0.3423
  937MOL0     C29180   1.736   6.380  -0.433 -0.8816  0.1675  0.3389
  937MOL0     C29181   1.782   6.233  -0.439 -0.2627 -1.2193 -0.6034
  937MOL0     C29182   1.684   6.141  -0.357 -0.4243  0.2738 -0.3682
  937MOL0     C29183   1.700   5.997  -0.414  0.2723 -0.1029 -0.0488
  937MOL0     C29184   1.598   5.890  -0.364 -0.3974 -0.4196 -0.1755
  937MOL0     N29185   1.535   5.807  -0.474  0.1675 -0.9508  0.7899
  937MOL0     C29186   1.427   5.860  -0.542 -0.1849 -0.1667 -0.2345
  937MOL0     C29187   1.381   5.756  -0.613 -0.1136  0.7298  0.2489
  937MOL0     C29188   1.257   5.769  -0.695 -0.2649  0.5464 -0.4025
  937MOL0     C29189   1.140   5.709  -0.621  0.6556  0.8228 -1.0575
  937MOL0     C29190   1.006   5.733  -0.697 -0.0406  0.0545 -0.9299
  937MOL0     C29191   0.879   5.701  -0.622  0.5490 -0.2114  0.9463
  937MOL0     O29192   0.859   5.780  -0.500 -0.3987  0.7386  0.4176
  937MOL0     C29193   0.835   5.913  -0.514 -0.2230  0.4296 -0.8232
  937MOL0     C29194   0.828   5.982  -0.396  1.1262 -0.3216  0.3748
  937MOL0     C29195   0.800   6.119  -0.386 -0.3646  0.2679  0.2593
  937MOL0     C29196   0.809   6.169  -0.242  0.0119 -0.2163  0.8837
  937MOL0     C29197   0.745   6.186  -0.497  0.0183 -0.0338 -0.6843
  937MOL0     C29198   0.699   6.324  -0.499 -1.2308 -0.4513 -0.2771
  937MOL0     O29199   0.671   6.379  -0.626 -0.1021  0.3527 -0.2785
  937MOL0     C29200   0.638   6.508  -0.610  0.1512  0.7946  0.1070
  937MOL0     C29201   0.727   6.612  -0.613 -0.0506 -0.3826  0.8283
  937MOL0     C29202   0.684   6.740  -0.609 -0.1338 -0.0812 -0.8080
  937MOL0     C29203   0.553   6.768  -0.600  0.0189  0.0949 -0.0406
  937MOL0     O29204   0.517   6.898  -0.572  0.0431 -0.8334  1.0140
  937MOL0     C29205   0.388   6.929  -0.524 -0.2138 -0.4455  0.0307
  937MOL0     C29206   0.359   7.081  -0.545 -0.0522 -0.8964  0.2138
  937MOL0     C29207   0.456   7.169  -0.471  0.0052  0.4087 -0.0625
  937MOL0     C29208   0.423   7.315  -0.486 -0.2877 -0.2964 -1.0464
  937MOL0     C29209   0.488   7.401  -0.376  0.0143 -0.9971 -0.3640
  937MOL0     C29210   0.450   7.547  -0.377  0.9935 -0.4878 -0.3423
  937MOL0     C29211   0.518   7.628  -0.272 -0.5972  0.2197 -0.3189
  937MOL0     C29212   0.470   7.770  -0.262 -0.4563 -0.3490 -0.1315
  937MOL0    Cl29213   0.300   7.793  -0.236 -0.3564 -0.0795 -0.1548
  937MOL0     C29214   0.460   6.658  -0.598 -0.2473  0.2500  0.6365
  937MOL0     C29215   0.505   6.530  -0.600 -0.3774 -0.6856 -0.4544
  937MOL0     O29216   0.675   6.376  -0.392 -0.1194  0.1312 -0.3626
  937MOL0     C29217   0.745   6.115  -0.616  0.6512  0.3660  1.2704
  937MOL0     C29218   0.798   5.984  -0.628  0.0066 -0.2304  0.6895
  937MOL0     N29219   1.465   5.648  -0.604 -0.3212 -0.2501 -0.4141
  937MOL0     N29220   1.553   5.679  -0.510 -0.3034  0.2084  0.9097
  937MOL0     C29221   1.493   6.809   0.031  0.3481 -0.7789 -0.1798
  937MOL0     C29222   1.489   6.855   0.162 -0.1872  0.3773  0.1831
  937MOL0     C29223   1.533   7.035   0.521  0.1414 -0.2503 -0.5287
  937MOL0     C29224   1.604   7.126   0.599  0.8679  0.4081 -0.6127
  937MOL0     C29225   1.540   7.219   0.682 -0.0758 -0.5383  1.0365
  937MOL0     C29226   1.411   7.216   0.694  0.5809  0.4806  0.1085
  937MOL0     O29227   1.355   7.317   0.771  0.0925 -0.1644 -0.0022
  937MOL0     C29228   1.219   7.311   0.820 -0.0577  0.7445  0.4072
  937MOL0     C29229   1.179   7.432   0.896  0.3055  0.0123 -0.0755
  937MOL0     C29230   1.048   7.434   0.970 -0.9938 -0.1999  0.1874
  937MOL0     C29231   0.934   7.485   0.875 -0.0264 -0.5713 -0.3529
  937MOL0     C29232   0.807   7.423   0.930  0.0209  0.1490  0.7972
  937MOL0     C29233   0.713   7.364   0.972 -1.2557  0.5994  0.0677
  937MOL0     C29234   1.337   7.123   0.625 -0.8006  0.5601  1.3511
  937MOL0     C29235   1.388   7.034   0.532  0.0045 -0.3875  0.3028
  937MOL0     C29236   1.300   6.954   0.437 -0.9740  0.3713 -0.1821
  937MOL0     H29237   1.645   6.596   0.314 -1.0172  0.0849 -1.0705
  937MOL0     H29238   1.653   6.525   0.069 -1.6392  0.5693 -1.6686
  937MOL0     H29239   1.773   6.615  -0.097 -2.1340 -0.3878  0.9732
  937MOL0     H29240   1.761   6.762  -0.191  0.1238  0.0785  0.4483
  937MOL0     H29241   1.616   6.611  -0.358  1.4436 -1.5255 -1.9559
  937MOL0     H29242   1.793   6.629  -0.377 -0.1360 -3.1108 -2.9726
  937MOL0     H29243   1.799   6.424  -0.225 -0.9175 -2.0278  0.6229
  937MOL0     H29244   1.627   6.407  -0.248 -0.8675  1.2758  0.5265
  937MOL0     H29245   1.646   6.404  -0.490 -0.5328  0.8473  0.0606
  937MOL0     H29246   1.820   6.433  -0.480 -2.6199  3.4629  0.7127
  937MOL0     H29247   1.881   6.216  -0.396 -0.7537 -1.5114  0.4591
  937MOL0     H29248   1.787   6.201  -0.544 -1.1535 -0.2786 -0.9449
  937MOL0     H29249   1.711   6.149  -0.251 -1.8510 -1.1828  0.1515
  937MOL0     H29250   1.584   6.185  -0.361  0.5058  2.5944  0.1748
  937MOL0     H29251   1.802   5.970  -0.386  1.1429  1.7193 -1.1957
  937MOL0     H29252   1.703   5.984  -0.523  2.1368 -3.2662  0.2586
  937MOL0     H29253   1.640   5.819  -0.292  0.5868  1.4161  1.1362
  937MOL0     H29254   1.526   5.936  -0.297  0.1317  0.6493 -0.3243
  937MOL0     H29255   1.384   5.957  -0.521  0.3414 -0.6342  3.8405
  937MOL0     H29256   1.266   5.722  -0.794  0.5771 -1.2243  0.4603
  937MOL0     H29257   1.230   5.872  -0.716 -1.8401  0.3348  0.4561
  937MOL0     H29258   1.160   5.603  -0.602  2.4374  0.5795 -3.7334
  937MOL0     H29259   1.128   5.762  -0.526  1.7589  0.4337 -0.6864
  937MOL0     H29260   1.010   5.837  -0.731  0.5427  2.2404  4.6659
  937MOL0     H29261   1.004   5.673  -0.788  1.9757  0.5808 -1.3802
  937MOL0     H29262   0.802   5.715  -0.698  3.1519 -1.6546 -2.2158
  937MOL0     H29263   0.876   5.594  -0.598  2.3473 -1.1920 -2.5714
  937MOL0     H29264   0.850   5.929  -0.304  3.2106  0.8235  0.6197
  937MOL0     H29265   0.705   6.178  -0.210  0.1803  1.9798  0.9817
  937MOL0     H29266   0.840   6.273  -0.232 -2.8536  0.5922  2.4607
  937MOL0     H29267   0.868   6.101  -0.180  1.9468  0.3360 -0.2581
  937MOL0     H29268   0.831   6.588  -0.632 -0.7225 -3.0735  0.0580
  937MOL0     H29269   0.762   6.815  -0.607  1.8193 -2.0203  1.0511
  937MOL0     H29270   0.311   6.881  -0.584 -0.2354  2.6658 -2.6751
  937MOL0     H29271   0.379   6.910  -0.417 -1.8126 -0.5150 -0.0926
  937MOL0     H29272   0.370   7.112  -0.649 -0.8677  3.9490  1.3276
  937MOL0     H29273   0.257   7.098  -0.510 -0.5399 -2.7477 -0.1835
  937MOL0     H29274   0.552   7.139  -0.515 -1.2086 -1.1345 -1.7739
  937MOL0     H29275   0.455   7.152  -0.363  3.4136  2.6121  0.4761
  937MOL0     H29276   0.315   7.328  -0.475 -0.2220 -0.5076 -0.0982
  937MOL0     H29277   0.462   7.351  -0.582  6.5854  3.2026  2.3714
  937MOL0     H29278   0.467   7.349  -0.282  3.8025 -1.3966  0.4466
  937MOL0     H29279   0.596   7.396  -0.392  0.4964 -0.0824  2.1841
  937MOL0     H29280   0.342   7.556  -0.362  0.8402 -2.0993 -0.2477
  937MOL0     H29281   0.478   7.582  -0.477  0.4159 -3.6926 -1.7599
  937MOL0     H29282   0.627   7.623  -0.285 -0.6300  0.4971 -0.7147
  937MOL0     H29283   0.505   7.580  -0.174 -1.3854  0.1179 -0.4740
  937MOL0     H29284   0.503   7.823  -0.351 -1.9887 -1.2494 -1.2910
  937MOL0     H29285   0.528   7.811  -0.178 -1.1932 -2.5113  1.5426
  937MOL0     H29286   0.357   6.678  -0.571  0.0870  1.7703  0.8898
  937MOL0     H29287   0.431   6.452  -0.589 -0.7796 -0.3295 -0.5878
  937MOL0     H29288   0.695   6.161  -0.700  0.3239  1.9836  2.2979
  937MOL0     H29289   0.788   5.939  -0.726  0.7943  1.4489 -0.2100
  937MOL0     H29290   1.446   6.874  -0.041  1.5617  2.3341  1.6046
  937MOL0     H29291   1.422   6.937   0.186  0.0431  0.4667  0.5344
  937MOL0     H29292   1.712   7.113   0.593  0.7017 -0.5713 -4.4924
  937MOL0     H29293   1.603   7.289   0.736  0.2294 -0.6468  0.8246
  937MOL0     H29294   1.142   7.303   0.742  1.3175  0.5656 -0.9989
  937MOL0     H29295   1.198   7.224   0.882  0.2452 -0.6627 -1.3587
  937MOL0     H29296   1.197   7.523   0.838  2.5980 -1.2714 -1.5683
  937MOL0     H29297   1.245   7.440   0.983  0.2572  0.6726 -0.0998
  937MOL0     H29298   1.020   7.332   0.999  0.4039 -0.9538 -0.9492
  937MOL0     H29299   1.045   7.500   1.057 -0.0621  0.3653 -0.1913
  937MOL0     H29300   0.956   7.459   0.771 -1.3243 -1.6181 -0.3841
  937MOL0     H29301   0.920   7.591   0.898 -2.8247 -0.8236 -0.6285
  937MOL0     H29302   0.625   7.309   1.002 -0.8465 -0.8964 -1.3456
  937MOL0     H29303   1.231   7.140   0.609 -0.2822  1.7403 -1.5513
  937MOL0     H29304   1.331   6.849   0.437 -1.4595  0.1843  1.8246
  937MOL0     H29305   1.198   6.949   0.476 -0.1629  1.6092  2.3978
  937MOL0     H29306   1.305   6.994   0.336 -1.9287  3.9274  1.0225
  938MOL0     O29307   3.479   1.285   2.489 -0.1475 -0.0949 -0.4159
  938MOL0     C29308   3.460   1.370   2.582  0.1005 -1.0554  0.0489
  938MOL0     O29309   3.547   1.472   2.614  0.1371  0.5992 -0.3461
  938MOL0     C29310   3.667   1.488   2.551  0.4649  0.8189 -0.3464
  938MOL0     C29311   3.785   1.428   2.598 -0.0112  0.5063  0.1469
  938MOL0     C29312   3.900   1.460   2.527 -0.4616  0.1583 -0.7219
  938MOL0     C29313   3.912   1.568   2.446  0.1413  1.0437  0.4728
  938MOL0     O29314   4.044   1.606   2.413  0.3513 -0.0193 -0.7571
  938MOL0     C29315   4.068   1.689   2.301 -0.1809  0.3320 -0.5339
  938MOL0     C29316   4.196   1.773   2.306 -0.4850  0.6676 -1.2833
  938MOL0     C29317   4.324   1.688   2.311 -0.0656 -0.1796 -0.8020
  938MOL0     C29318   4.453   1.768   2.319 -0.4048 -0.9784  0.5376
  938MOL0     C29319   4.565   1.658   2.346  0.3524  0.2353 -0.3768
  938MOL0     C29320   4.704   1.716   2.368 -0.2743 -0.0041  0.1753
  938MOL0     C29321   4.710   1.848   2.464 -0.0514  0.5088 -0.1356
  938MOL0     C29322   4.660   1.814   2.607 -0.2169 -0.1984 -0.2773
  938MOL0     N29323   4.631   1.929   2.693 -0.8585 -0.3377  0.3474
  938MOL0     C29324   4.521   2.002   2.663  0.0662  0.8372  0.6220
  938MOL0     C29325   4.514   2.078   2.778 -0.0059  0.0532  0.0567
  938MOL0     C29326   4.408   2.185   2.804  0.5746  0.4541  0.5092
  938MOL0     C29327   4.269   2.108   2.787 -0.1209 -0.8891  0.1377
  938MOL0     C29328   4.168   2.208   2.736 -0.0457  0.8381  0.4570
  938MOL0     C29329   4.025   2.165   2.739 -0.1470 -0.9270 -0.9387
  938MOL0     O29330   3.972   2.150   2.870  0.7021  0.2841 -0.1020
  938MOL0     C29331   3.848   2.202   2.903  0.1993  0.1719  0.5379
  938MOL0     C29332   3.772   2.125   3.001  0.2427  0.0108  0.9232
  938MOL0     C29333   3.636   2.144   3.026 -0.1675 -0.7246 -0.4325
  938MOL0     C29334   3.560   2.029   3.095 -0.0469  0.2073 -0.1128
  938MOL0     C29335   3.576   2.257   2.965  0.6924 -0.3156 -0.2098
  938MOL0     C29336   3.429   2.287   2.961  0.0188 -0.0938 -0.3237
  938MOL0     O29337   3.391   2.381   2.881  0.0343  0.1796 -0.3311
  938MOL0     C29338   3.265   2.436   2.889  1.4903  0.3795 -0.2884
  938MOL0     C29339   3.157   2.376   2.832  0.5860 -0.7416 -0.6609
  938MOL0     C29340   3.030   2.433   2.837  0.3696 -0.2143 -0.4549
  938MOL0     C29341   3.015   2.546   2.920 -0.4843 -0.1358  0.5320
  938MOL0     O29342   2.888   2.582   2.933 -0.8687  0.2230  0.2009
  938MOL0     C29343   2.843   2.624   3.064 -0.2742 -0.3250  0.8307
  938MOL0     C29344   2.718   2.712   3.060 -0.2494 -0.3011 -0.0108
  938MOL0     C29345   2.605   2.635   2.989 -0.4579 -0.1437 -0.0489
  938MOL0     C29346   2.558   2.515   3.065 -0.2407 -0.4142 -0.3494
  938MOL0     C29347   2.437   2.463   3.009  0.7745  0.5160 -0.2211
  938MOL0     C29348   2.379   2.334   3.088  0.5229  0.1047  0.0029
  938MOL0     C29349   2.232   2.324   3.069  0.7245  0.1446  0.0222
  938MOL0     C29350   2.159   2.239   3.169  0.6706  0.1895  0.4088
  938MOL0    Cl29351   2.206   2.244   3.332 -0.1518 -0.6246 -0.5559
  938MOL0     C29352   3.126   2.609   2.974 -0.0416  0.1579 -0.8087
  938MOL0     C29353   3.252   2.546   2.969  0.1149 -1.0602  1.3436
  938MOL0     O29354   3.360   2.218   3.038 -0.4551  0.7866  0.4484
  938MOL0     C29355   3.659   2.347   2.891  0.4352  0.5147  0.3478
  938MOL0     C29356   3.790   2.318   2.853 -0.8882 -0.1214 -0.7722
  938MOL0     N29357   4.611   2.053   2.874  0.6683  0.8298  0.1266
  938MOL0     N29358   4.671   1.952   2.823 -0.1714  0.2507  0.2704
  938MOL0     C29359   3.794   1.634   2.406  0.8415 -0.5897 -0.5362
  938MOL0     C29360   3.671   1.585   2.459 -0.0217  0.8833 -0.9716
  938MOL0     C29361   3.331   1.360   2.669  0.0495  0.1177 -0.2372
  938MOL0     C29362   3.307   1.470   2.758 -0.0509  0.7393  0.5154
  938MOL0     C29363   3.196   1.462   2.848 -0.3004 -0.8251  0.2242
  938MOL0     C29364   3.129   1.339   2.863  1.2749  0.3445 -0.2162
  938MOL0     O29365   3.026   1.317   2.953  0.0206 -0.1916 -0.1607
  938MOL0     C29366   2.990   1.410   3.050  0.5392  0.2853 -0.3440
  938MOL0     C29367   2.888   1.359   3.151  0.6048  0.5402 -0.0696
  938MOL0     C29368   2.864   1.464   3.271  0.6522  0.9027  0.0401
  938MOL0     C29369   2.788   1.586   3.224  0.7712 -0.0976  0.7135
  938MOL0     C29370   2.650   1.550   3.201  0.5119 -0.4131 -0.0279
  938MOL0     C29371   2.541   1.501   3.173 -0.5101 -0.4730  0.6246
  938MOL0     C29372   3.163   1.227   2.789 -0.3051 -0.0672 -0.4602
  938MOL0     C29373   3.260   1.240   2.698 -0.2288  0.0069 -0.0368
  938MOL0     C29374   3.305   1.115   2.623  0.8784 -0.2174 -0.4731
  938MOL0     H29375   3.791   1.346   2.669  0.7615 -2.0580 -2.6418
  938MOL0     H29376   4.001   1.428   2.553 -0.1661 -0.8463 -2.8517
  938MOL0     H29377   3.991   1.766   2.296  1.5887  2.3170  0.9840
  938MOL0     H29378   4.071   1.624   2.213 -3.9084 -0.1627 -0.4397
  938MOL0     H29379   4.204   1.848   2.226  2.1983  1.3026 -0.5143
  938MOL0     H29380   4.189   1.828   2.401 -3.0114 -0.4663 -0.7304
  938MOL0     H29381   4.323   1.632   2.405  1.4183 -2.4764 -2.0569
  938MOL0     H29382   4.321   1.615   2.230  0.9673  0.5827 -1.5518
  938MOL0     H29383   4.479   1.831   2.234  0.6478  1.4110  2.5165
  938MOL0     H29384   4.448   1.837   2.403 -2.5669  0.2891 -0.5326
  938MOL0     H29385   4.576   1.583   2.267  0.7434 -0.2754  0.1568
  938MOL0     H29386   4.543   1.607   2.440  1.6022  0.0398 -0.1675
  938MOL0     H29387   4.776   1.643   2.406 -0.4399 -1.2974 -1.8103
  938MOL0     H29388   4.734   1.748   2.267 -1.4431  2.5788  0.5734
  938MOL0     H29389   4.658   1.924   2.406  0.6907  0.9260 -0.2734
  938MOL0     H29390   4.814   1.883   2.472  1.0167 -1.8736 -2.0820
  938MOL0     H29391   4.566   1.760   2.596  0.3368 -0.9594 -1.5532
  938MOL0     H29392   4.734   1.750   2.656  1.5373 -0.0310 -2.5420
  938MOL0     H29393   4.460   1.998   2.572  0.6180 -1.0143  0.2853
  938MOL0     H29394   4.410   2.266   2.731 -1.7677 -0.4334 -0.6354
  938MOL0     H29395   4.413   2.224   2.906 -0.1701  0.4034  0.5664
  938MOL0     H29396   4.259   2.029   2.711 -0.4458  0.1613 -0.9354
  938MOL0     H29397   4.244   2.077   2.889 -0.5722  0.5947  0.5015
  938MOL0     H29398   4.190   2.301   2.790 -2.3167  1.6451  0.1012
  938MOL0     H29399   4.188   2.227   2.630  0.4982  1.8434  0.7214
  938MOL0     H29400   3.989   2.244   2.673  1.8912  1.7979  0.9557
  938MOL0     H29401   4.013   2.071   2.684  2.1173 -0.8995 -1.5787
  938MOL0     H29402   3.824   2.044   3.050 -0.6452 -3.6113 -3.4675
  938MOL0     H29403   3.545   2.050   3.201  2.2806  4.1193 -0.3586
  938MOL0     H29404   3.622   1.941   3.079  3.4270  3.0008 -4.3710
  938MOL0     H29405   3.465   2.007   3.046  0.2204  0.0913 -0.5843
  938MOL0     H29406   3.172   2.293   2.763 -4.6230 -2.3150 -0.3773
  938MOL0     H29407   2.942   2.389   2.791 -2.7903  3.1992  1.7383
  938MOL0     H29408   2.819   2.537   3.125  0.1649 -1.8856 -1.1538
  938MOL0     H29409   2.921   2.672   3.124 -0.1993  0.2365  0.2953
  938MOL0     H29410   2.695   2.741   3.163  0.2343 -2.6749  0.8399
  938MOL0     H29411   2.741   2.805   3.007  0.8511 -0.0591  0.8432
  938MOL0     H29412   2.642   2.602   2.891  0.0885  1.0777 -0.2724
  938MOL0     H29413   2.526   2.705   2.961 -1.1422 -0.4145  1.1297
  938MOL0     H29414   2.546   2.531   3.173 -0.9747 -0.5082 -0.4103
  938MOL0     H29415   2.634   2.438   3.053 -2.0546 -2.7688  2.0545
  938MOL0     H29416   2.362   2.541   3.027 -0.6539 -0.4222 -1.8257
  938MOL0     H29417   2.424   2.449   2.901 -2.0158 -0.5584  0.1702
  938MOL0     H29418   2.407   2.345   3.193  0.5176  0.4452 -0.0307
  938MOL0     H29419   2.422   2.240   3.052 -1.5491 -1.2949  1.0270
  938MOL0     H29420   2.208   2.283   2.970 -0.2507 -0.1721  0.3787
  938MOL0     H29421   2.200   2.425   3.095  2.2616  0.2042  1.9766
  938MOL0     H29422   2.157   2.131   3.151 -0.2039  0.3392 -0.5214
  938MOL0     H29423   2.051   2.257   3.162  0.6794 -0.1469 -0.8381
  938MOL0     H29424   3.124   2.705   3.025  1.7730 -0.2934  0.1826
  938MOL0     H29425   3.342   2.587   3.014  0.5958  1.1880 -1.3976
  938MOL0     H29426   3.621   2.437   2.844 -4.1301 -0.9649  0.7445
  938MOL0     H29427   3.859   2.383   2.801  0.5908 -0.7129  0.3751
  938MOL0     H29428   3.793   1.729   2.353 -0.1844 -1.3185 -1.8925
  938MOL0     H29429   3.581   1.628   2.416 -1.1483 -2.3839 -2.2200
  938MOL0     H29430   3.367   1.560   2.746 -0.3435  1.0558  1.3968
  938MOL0     H29431   3.153   1.554   2.889  1.3123  0.1246 -0.1176
  938MOL0     H29432   3.074   1.464   3.095  1.3194  0.8251 -2.3223
  938MOL0     H29433   2.947   1.482   2.981  3.1410  0.9355 -1.4002
  938MOL0     H29434   2.921   1.261   3.186 -1.0372  0.6258  1.9002
  938MOL0     H29435   2.795   1.345   3.094 -0.5815 -0.4675  2.0012
  938MOL0     H29436   2.802   1.402   3.336  0.3054 -0.0963 -1.2220
  938MOL0     H29437   2.956   1.487   3.326  2.0612  0.0420 -1.8564
  938MOL0     H29438   2.839   1.624   3.134  2.0108 -1.7406  0.6697
  938MOL0     H29439   2.779   1.663   3.300 -0.2272  1.8566 -1.2818
  938MOL0     H29440   2.443   1.467   3.149 -3.3590  5.1409  2.4496
  938MOL0     H29441   3.118   1.131   2.811  0.4081  0.0726  1.8945
  938MOL0     H29442   3.412   1.103   2.640  0.8043  0.0311  0.2036
  938MOL0     H29443   3.250   1.027   2.657  0.7156  0.1593  0.2662
  938MOL0     H29444   3.289   1.122   2.515 -1.3973 -0.8086 -0.2343
  939MOL0     O29445   4.331   8.283   1.201 -0.9489  0.4952 -0.1967
  939MOL0     C29446   4.286   8.173   1.220  0.7294  0.4006 -0.0235
  939MOL0     O29447   4.349   8.073   1.271 -0.6264  1.2334  0.4628
  939MOL0     C29448   4.483   8.069   1.287  0.5470  0.4616 -0.6174
  939MOL0     C29449   4.555   7.964   1.221  0.3591 -0.0838  0.5741
  939MOL0     C29450   4.691   7.945   1.244  0.4839 -0.3864 -0.4471
  939MOL0     C29451   4.765   8.039   1.315 -0.1624 -0.7667 -0.9246
  939MOL0     O29452   4.901   8.038   1.308  0.1220  0.7645 -0.0148
  939MOL0     C29453   4.980   8.152   1.346  0.3978 -0.5902  0.4765
  939MOL0     C29454   5.089   8.178   1.240 -0.1863 -0.7097 -0.1115
  939MOL0     C29455   5.200   8.278   1.288 -0.2956 -0.1260  0.3073
  939MOL0     C29456   5.288   8.185   1.375  0.1038 -0.8141 -0.7971
  939MOL0     C29457   5.424   8.237   1.417 -0.2559 -0.0940  0.1914
  939MOL0     C29458   5.419   8.391   1.441  0.2217  0.5863  0.7687
  939MOL0     C29459   5.535   8.449   1.520  0.0965  0.0643  0.8176
  939MOL0     C29460   5.671   8.393   1.497  0.2453 -0.1459 -0.6668
  939MOL0     N29461   5.692   8.264   1.564  0.1363 -0.1883 -0.2053
  939MOL0     C29462   5.730   8.145   1.504  0.5894 -0.1925  0.8555
  939MOL0     C29463   5.745   8.056   1.596 -0.0941 -0.0325  0.1646
  939MOL0     C29464   5.788   7.913   1.590 -0.1072 -0.0955 -0.5167
  939MOL0     C29465   5.937   7.880   1.601 -0.3703  0.3192  0.2828
  939MOL0     C29466   6.009   7.951   1.481 -0.3029  0.3166 -0.0420
  939MOL0     C29467   6.161   7.924   1.498  0.4258 -0.6727  0.1209
  939MOL0     O29468   6.226   7.967   1.378  0.6857 -0.2303 -0.2097
  939MOL0     C29469   6.359   7.953   1.361  0.1559 -0.0693  0.2640
  939MOL0     C29470   6.416   7.990   1.238 -0.1777 -1.0402  0.6449
  939MOL0     C29471   6.547   7.962   1.205  0.3714  0.2982 -0.0828
  939MOL0     C29472   6.603   8.023   1.079 -0.1013  0.7491  0.1141
  939MOL0     C29473   6.627   7.907   1.304 -0.6321  0.7801  0.3112
  939MOL0     C29474   6.765   7.883   1.283  0.3892 -0.0076 -0.1865
  939MOL0     O29475   6.797   7.753   1.260 -0.3991  0.6241 -0.9661
  939MOL0     C29476   6.926   7.727   1.254  0.0733  0.2698  0.5641
  939MOL0     C29477   6.987   7.700   1.135 -1.1307  0.2602  0.5328
  939MOL0     C29478   7.121   7.663   1.138 -0.6818  0.3820 -0.3453
  939MOL0     C29479   7.201   7.649   1.253 -0.0224  0.7298 -0.6671
  939MOL0     O29480   7.331   7.594   1.251  0.9365 -0.0954 -0.6330
  939MOL0     C29481   7.405   7.564   1.132  0.5489  0.1301  0.0767
  939MOL0     C29482   7.529   7.490   1.181 -0.1641 -0.1307 -0.4057
  939MOL0     C29483   7.615   7.419   1.077  0.1561  0.5576  0.1630
  939MOL0     C29484   7.728   7.348   1.157  0.3018 -0.1707  0.2096
  939MOL0     C29485   7.791   7.257   1.049 -0.8034  0.4715  0.3432
  939MOL0     C29486   7.908   7.186   1.116  0.1740  0.1950 -0.3219
  939MOL0     C29487   7.968   7.089   1.008  0.2384 -0.1690  0.3762
  939MOL0     C29488   8.056   6.990   1.077 -0.0442 -0.6351  0.1537
  939MOL0    Cl29489   8.123   6.905   0.943 -0.0944  0.0800 -0.1133
  939MOL0     C29490   7.132   7.670   1.372  0.9957 -0.4349  0.3245
  939MOL0     C29491   6.999   7.709   1.377 -0.3837  0.1081 -0.2336
  939MOL0     O29492   6.842   7.978   1.294 -0.2989 -0.1020 -0.4666
  939MOL0     C29493   6.573   7.877   1.429  0.1850  0.5241  0.9097
  939MOL0     C29494   6.435   7.895   1.459 -0.0698  0.0757  0.2282
  939MOL0     N29495   5.734   8.123   1.722  0.2496 -0.1675  0.1736
  939MOL0     N29496   5.691   8.243   1.698 -0.6348  0.6148 -0.0253
  939MOL0     C29497   4.689   8.139   1.385 -0.7420  0.3609  0.1653
  939MOL0     C29498   4.556   8.159   1.365  0.0903 -0.1120 -0.3205
  939MOL0     C29499   4.139   8.169   1.196  0.5320  0.3032 -0.2888
  939MOL0     C29500   4.071   8.283   1.144  0.1782  0.6662  0.4181
  939MOL0     C29501   3.937   8.278   1.120  1.1838 -0.0682  1.1015
  939MOL0     C29502   3.867   8.156   1.136  0.1926  0.3763 -0.0004
  939MOL0     O29503   3.733   8.169   1.108  0.0296  0.1014 -0.0948
  939MOL0     C29504   3.644   8.074   1.155 -0.4004  1.1422 -0.3479
  939MOL0     C29505   3.512   8.134   1.162  0.2452  0.7439  0.2431
  939MOL0     C29506   3.392   8.040   1.139  0.5065 -0.1831 -0.4453
  939MOL0     C29507   3.281   8.066   1.246  0.5616 -0.5702  0.3307
  939MOL0     C29508   3.185   8.166   1.213  0.2774  0.1847 -0.5688
  939MOL0     C29509   3.101   8.235   1.172  0.2550  0.9909  0.4160
  939MOL0     C29510   3.930   8.051   1.196 -0.0589  0.3452  1.2557
  939MOL0     C29511   4.066   8.050   1.219 -0.4444  0.3073 -0.2314
  939MOL0     C29512   4.115   7.921   1.276 -0.5415  0.7772 -0.2339
  939MOL0     H29513   4.496   7.904   1.153 -1.5501  1.0405  1.1483
  939MOL0     H29514   4.730   7.861   1.188  2.2149 -1.2633  1.9266
  939MOL0     H29515   5.016   8.137   1.449 -0.1252  0.9245  0.9044
  939MOL0     H29516   4.923   8.246   1.348  1.6940  0.2082  0.7090
  939MOL0     H29517   5.129   8.084   1.200  2.5393  0.7728 -1.1081
  939MOL0     H29518   5.046   8.226   1.152  3.7991  0.6189 -1.5426
  939MOL0     H29519   5.254   8.312   1.199  0.6102 -1.2882  0.3898
  939MOL0     H29520   5.155   8.364   1.339 -2.4264 -0.4792 -0.8777
  939MOL0     H29521   5.235   8.162   1.468  0.8266 -0.6045 -0.3340
  939MOL0     H29522   5.310   8.091   1.323  1.2689 -1.8687  1.4969
  939MOL0     H29523   5.502   8.211   1.345  1.4798  0.8186  1.6542
  939MOL0     H29524   5.446   8.185   1.510 -1.9521  1.3779  1.4902
  939MOL0     H29525   5.397   8.437   1.344 -1.9158 -1.6390  0.1039
  939MOL0     H29526   5.328   8.407   1.499 -0.8103  1.3694 -1.0005
  939MOL0     H29527   5.519   8.435   1.628  3.8368 -0.7955  1.4299
  939MOL0     H29528   5.537   8.556   1.500  1.7010  0.1003  1.0131
  939MOL0     H29529   5.687   8.389   1.389 -1.4945  0.6266 -0.9928
  939MOL0     H29530   5.741   8.466   1.538 -1.5592  0.7816  0.9507
  939MOL0     H29531   5.742   8.124   1.399  1.9169  1.1146  0.7012
  939MOL0     H29532   5.765   7.878   1.489  1.1971  1.4532 -1.3865
  939MOL0     H29533   5.742   7.855   1.671 -0.8349  1.7675  0.4457
  939MOL0     H29534   5.990   7.906   1.693  3.0145 -0.6058 -1.2527
  939MOL0     H29535   5.953   7.773   1.585 -0.2488  0.1449  1.4856
  939MOL0     H29536   5.973   7.912   1.385 -0.4137  1.0697 -0.3121
  939MOL0     H29537   6.000   8.060   1.473  1.6718  0.5145 -0.0012
  939MOL0     H29538   6.198   7.985   1.580  0.3592  2.5333 -2.0862
  939MOL0     H29539   6.164   7.818   1.525 -2.9488 -0.9040  0.0977
  939MOL0     H29540   6.345   8.040   1.173 -1.8565  0.4209  3.3947
  939MOL0     H29541   6.529   8.012   0.999 -1.0240  2.6278  0.6541
  939MOL0     H29542   6.684   7.956   1.045  1.9225  1.1790  3.6295
  939MOL0     H29543   6.633   8.128   1.089  3.0575 -0.1994  2.4431
  939MOL0     H29544   6.927   7.700   1.044 -2.0892 -0.3123  1.1463
  939MOL0     H29545   7.168   7.649   1.041  1.0148 -3.5081  0.8250
  939MOL0     H29546   7.353   7.493   1.067  0.1892  1.2399 -0.8787
  939MOL0     H29547   7.429   7.654   1.074 -1.0709  0.2580 -0.4590
  939MOL0     H29548   7.588   7.564   1.236  0.5378 -2.8405  2.8009
  939MOL0     H29549   7.498   7.411   1.250  0.4949 -1.0132 -1.0923
  939MOL0     H29550   7.648   7.486   0.997  0.5545  0.9931  0.6888
  939MOL0     H29551   7.556   7.347   1.018 -1.4756  1.6038  0.4645
  939MOL0     H29552   7.692   7.295   1.246 -2.1199  1.2926  0.1958
  939MOL0     H29553   7.799   7.426   1.187  0.3713 -0.3380  0.4767
  939MOL0     H29554   7.717   7.184   1.018 -0.5771  0.5609 -0.4271
  939MOL0     H29555   7.816   7.303   0.952 -1.8412 -1.5089 -0.9246
  939MOL0     H29556   7.888   7.137   1.211 -0.6744  0.1083 -0.5344
  939MOL0     H29557   7.993   7.247   1.147  0.9913  0.4305 -2.7678
  939MOL0     H29558   8.037   7.150   0.949  1.6712 -3.5576 -1.7716
  939MOL0     H29559   7.901   7.034   0.941  1.0352 -0.7562  0.0456
  939MOL0     H29560   7.994   6.923   1.137 -1.3360  2.2910  2.3418
  939MOL0     H29561   8.131   7.038   1.142 -2.4916  0.8227  2.0655
  939MOL0     H29562   7.169   7.638   1.469 -0.9549 -1.7539  0.6946
  939MOL0     H29563   6.946   7.716   1.471 -0.8190  1.3145 -0.5415
  939MOL0     H29564   6.619   7.832   1.516 -2.2658 -0.4139  1.8158
  939MOL0     H29565   6.394   7.856   1.552 -3.8628 -0.1475 -1.3709
  939MOL0     H29566   4.739   8.212   1.447 -1.6769 -0.3855  1.8558
  939MOL0     H29567   4.512   8.229   1.436  1.1032  0.7378 -0.4960
  939MOL0     H29568   4.133   8.371   1.129  4.1759 -2.3462 -2.7966
  939MOL0     H29569   3.890   8.360   1.068 -1.0259  0.3325  3.5442
  939MOL0     H29570   3.651   7.991   1.084 -1.5412  0.2911  0.4915
  939MOL0     H29571   3.674   8.038   1.254  0.3584 -0.0474 -0.9852
  939MOL0     H29572   3.508   8.212   1.085  0.1932 -0.6005 -1.1755
  939MOL0     H29573   3.485   8.174   1.260 -1.6383 -2.1087  1.0425
  939MOL0     H29574   3.351   8.048   1.038 -1.4296 -3.1977 -0.0131
  939MOL0     H29575   3.433   7.939   1.146  2.6150  0.5331 -1.5654
  939MOL0     H29576   3.319   8.071   1.348 -0.5016 -1.7063  0.8063
  939MOL0     H29577   3.224   7.973   1.246 -0.4983  0.0552  1.5890
  939MOL0     H29578   3.022   8.295   1.131 -0.7131 -0.3823  0.2072
  939MOL0     H29579   3.872   7.965   1.229 -0.4808  0.8767  1.9353
  939MOL0     H29580   4.186   7.875   1.207 -1.2388  1.2419 -1.2793
  939MOL0     H29581   4.161   7.924   1.376  0.5206 -1.0068 -0.6324
  939MOL0     H29582   4.035   7.848   1.272 -0.3860  0.6742 -2.9877
  940MOL0     O29583  10.278   8.700   5.724 -0.0661  0.4352 -0.0388
  940MOL0     C29584  10.247   8.764   5.823 -0.3423  0.0376 -0.2031
  940MOL0     O29585  10.335   8.839   5.904 -0.5718 -0.6867 -0.0972
  940MOL0     C29586  10.468   8.831   5.871  1.0055  0.5087 -0.7713
  940MOL0     C29587  10.511   8.934   5.789  0.6463  0.0513  1.0552
  940MOL0     C29588  10.642   8.929   5.749  0.3192  0.0812 -0.7293
  940MOL0     C29589  10.735   8.831   5.787 -0.4103 -0.9595 -0.6882
  940MOL0     O29590  10.870   8.831   5.752 -0.1555  0.1898 -0.5162
  940MOL0     C29591  10.921   8.944   5.674 -0.3126  0.5796  0.1103
  940MOL0     C29592  11.078   8.942   5.653  0.0942  0.2415  0.6113
  940MOL0     C29593  11.124   8.828   5.565 -0.8205  0.8635  0.6474
  940MOL0     C29594  11.278   8.809   5.542  1.3243  0.6622  0.2479
  940MOL0     C29595  11.334   8.922   5.456  0.1215 -0.0049  0.8262
  940MOL0     C29596  11.485   8.900   5.436  0.5065 -0.4389 -0.2701
  940MOL0     C29597  11.564   9.011   5.374  0.7293 -0.4479 -0.5829
  940MOL0     C29598  11.522   9.011   5.223 -0.1731  0.2203  0.9777
  940MOL0     N29599  11.598   9.119   5.159  1.0309  0.0494 -0.1680
  940MOL0     C29600  11.731   9.132   5.146  0.0715 -0.0738  0.2480
  940MOL0     C29601  11.759   9.256   5.109  0.8391  0.4150  1.3457
  940MOL0     C29602  11.895   9.307   5.070  0.2090  0.3138 -0.5734
  940MOL0     C29603  12.011   9.220   5.113  1.1116  0.8220  0.4765
  940MOL0     C29604  12.050   9.117   5.004 -0.0010 -0.4895  0.2084
  940MOL0     C29605  12.193   9.065   5.007 -0.2609 -0.3349 -0.9613
  940MOL0     O29606  12.192   8.947   5.095 -0.2152 -0.3041 -0.5364
  940MOL0     C29607  12.147   8.823   5.046  0.4265  0.0293 -0.8239
  940MOL0     C29608  12.107   8.793   4.919  0.6388  0.3329 -0.2622
  940MOL0     C29609  12.056   8.665   4.895 -0.1785 -0.2053  0.0764
  940MOL0     C29610  11.991   8.650   4.753 -0.1524 -0.4441 -0.0846
  940MOL0     C29611  12.080   8.563   4.987 -1.5082 -0.0067 -1.2093
  940MOL0     C29612  12.077   8.427   4.950 -0.5475  0.3311 -0.1221
  940MOL0     O29613  12.145   8.393   4.844 -0.0122 -0.5850  0.1598
  940MOL0     C29614  12.134   8.268   4.792 -0.0145  0.0802  0.2901
  940MOL0     C29615  12.013   8.213   4.752  0.7909  0.4823 -0.1345
  940MOL0     C29616  12.006   8.091   4.680  0.8982  0.5739 -0.9361
  940MOL0     C29617  12.129   8.018   4.667 -0.1522  0.3722  0.1688
  940MOL0     O29618  12.124   7.895   4.609 -0.2197  0.5488  0.4819
  940MOL0     C29619  12.087   7.897   4.472 -0.2469  0.2075  0.4776
  940MOL0     C29620  11.983   7.794   4.428  0.4916  0.4015 -0.4561
  940MOL0     C29621  11.957   7.794   4.280 -0.1650 -0.0729 -0.3230
  940MOL0     C29622  11.839   7.698   4.252 -0.2983 -0.1669  0.2768
  940MOL0     C29623  11.759   7.731   4.123  0.0354  0.0843  0.1465
  940MOL0     C29624  11.849   7.693   3.999  0.5861  0.7334  0.0480
  940MOL0     C29625  11.881   7.546   3.999  0.5765 -0.2640  0.0095
  940MOL0     C29626  11.878   7.498   3.860  0.6968 -0.6956 -0.2980
  940MOL0    Cl29627  11.959   7.348   3.836 -0.1145 -0.4583 -0.1304
  940MOL0     C29628  12.249   8.059   4.726  0.1343 -0.3677  1.3345
  940MOL0     C29629  12.247   8.188   4.779  0.3326  0.0312  0.9993
  940MOL0     O29630  12.023   8.351   5.026 -0.0611 -0.2358  0.3169
  940MOL0     C29631  12.122   8.593   5.119 -0.3347  0.7480  0.8414
  940MOL0     C29632  12.155   8.727   5.148  0.0594 -0.1511  0.2905
  940MOL0     N29633  11.642   9.323   5.091 -0.9977 -0.1740  0.1596
  940MOL0     N29634  11.549   9.241   5.119  0.2188  0.0144  0.6393
  940MOL0     C29635  10.687   8.735   5.874  0.2460  0.4766 -0.5174
  940MOL0     C29636  10.555   8.730   5.913  0.0171 -0.6379 -0.1913
  940MOL0     C29637  10.106   8.747   5.852  0.1869  0.1524 -0.5920
  940MOL0     C29638  10.024   8.711   5.748 -1.1141 -0.4034 -0.2214
  940MOL0     C29639   9.884   8.706   5.765  0.3703  0.1978  0.5610
  940MOL0     C29640   9.819   8.725   5.887 -0.3455  0.4693 -0.1698
  940MOL0     O29641   9.687   8.693   5.917  0.0806  0.6718  0.2605
  940MOL0     C29642   9.612   8.644   5.803 -0.1390  0.8453 -0.8430
  940MOL0     C29643   9.454   8.655   5.821 -0.0871  0.6324 -0.2216
  940MOL0     C29644   9.406   8.574   5.942 -0.6988  0.0884 -0.0942
  940MOL0     C29645   9.259   8.561   5.941 -0.6686 -0.4099  0.1575
  940MOL0     C29646   9.221   8.481   5.824 -0.5649 -0.4788  0.1710
  940MOL0     C29647   9.188   8.418   5.728  0.3041 -0.4518  0.7456
  940MOL0     C29648   9.899   8.747   5.992  0.0827 -0.7372 -0.0958
  940MOL0     C29649  10.040   8.755   5.983 -0.3951 -0.2727  0.2347
  940MOL0     C29650  10.116   8.757   6.111  0.0334  0.2393  0.8399
  940MOL0     H29651  10.444   9.011   5.751 -0.7395 -0.6864  1.9141
  940MOL0     H29652  10.671   9.007   5.679  2.4749  0.5748  0.6108
  940MOL0     H29653  10.892   9.039   5.719 -0.0156  0.5460  0.3751
  940MOL0     H29654  10.868   8.939   5.578 -0.7240  2.7254  0.1753
  940MOL0     H29655  11.118   9.033   5.609  0.4816  0.1628  0.7975
  940MOL0     H29656  11.110   8.928   5.757  2.6163 -3.5025 -0.4710
  940MOL0     H29657  11.098   8.733   5.614  0.9793  0.1926  0.3919
  940MOL0     H29658  11.084   8.829   5.464 -0.2719 -2.5817  0.2437
  940MOL0     H29659  11.337   8.802   5.634 -1.1073 -0.4022  1.8166
  940MOL0     H29660  11.279   8.714   5.487  4.4749  2.4516 -3.2113
  940MOL0     H29661  11.319   9.021   5.499 -1.8729  0.4138 -0.6823
  940MOL0     H29662  11.297   8.917   5.353  0.3310  0.6682  0.7141
  940MOL0     H29663  11.520   8.885   5.538 -0.9096  0.0775  0.3075
  940MOL0     H29664  11.502   8.807   5.381 -1.5020 -2.5366  2.3678
  940MOL0     H29665  11.669   8.983   5.384  0.2350 -1.4501  3.5468
  940MOL0     H29666  11.539   9.106   5.423 -1.4583 -1.0550 -0.4023
  940MOL0     H29667  11.543   8.918   5.169  2.5222  2.1281 -1.5306
  940MOL0     H29668  11.414   9.017   5.208  0.2103 -0.2695 -2.7621
  940MOL0     H29669  11.799   9.053   5.176 -0.0522 -1.2642 -2.3531
  940MOL0     H29670  11.901   9.394   5.136  3.6335  0.7873 -1.3045
  940MOL0     H29671  11.892   9.346   4.968 -0.6000  5.3649  1.1022
  940MOL0     H29672  12.102   9.281   5.118  2.8609 -1.1014 -3.3063
  940MOL0     H29673  11.979   9.171   5.205  0.5675  0.0725 -0.1018
  940MOL0     H29674  11.973   9.041   5.015 -1.3570  0.7633 -0.3332
  940MOL0     H29675  12.034   9.154   4.902 -1.4316  0.4169  0.7306
  940MOL0     H29676  12.216   9.030   4.906 -2.4971 -2.1246 -0.9225
  940MOL0     H29677  12.276   9.130   5.037 -0.9963 -0.6885  2.1718
  940MOL0     H29678  12.112   8.873   4.846  0.0766  0.8506  0.2526
  940MOL0     H29679  11.922   8.565   4.754  0.0871 -0.7045  2.7569
  940MOL0     H29680  12.067   8.629   4.678  1.5003  3.3351  0.2993
  940MOL0     H29681  11.953   8.746   4.717  2.3798  1.0740  0.9657
  940MOL0     H29682  11.920   8.268   4.759  1.1612  1.2685 -1.1729
  940MOL0     H29683  11.913   8.047   4.647  0.3753  2.2784 -1.8635
  940MOL0     H29684  12.050   7.994   4.438  0.6521  0.1759 -0.6647
  940MOL0     H29685  12.176   7.875   4.412 -0.7725 -1.9431  0.3973
  940MOL0     H29686  12.019   7.694   4.455 -3.7914 -1.0870  0.5102
  940MOL0     H29687  11.895   7.802   4.492  0.8092 -0.9226  0.1969
  940MOL0     H29688  12.049   7.772   4.224  0.0835  0.9274 -0.3266
  940MOL0     H29689  11.910   7.890   4.258  0.7936  0.7313  1.0010
  940MOL0     H29690  11.773   7.687   4.339 -1.0347 -1.2741 -0.3954
  940MOL0     H29691  11.873   7.594   4.255 -1.1295 -0.4926  3.8980
  940MOL0     H29692  11.659   7.688   4.112  0.9421 -1.9296 -1.0552
  940MOL0     H29693  11.743   7.839   4.131 -1.4771 -0.2164  1.8517
  940MOL0     H29694  11.945   7.745   4.004  0.3010  1.4172 -1.1144
  940MOL0     H29695  11.788   7.730   3.915 -0.6286  0.1949  0.6622
  940MOL0     H29696  11.812   7.485   4.057 -0.0181 -0.4479 -0.8641
  940MOL0     H29697  11.982   7.531   4.039  0.4455  2.1670  1.4890
  940MOL0     H29698  11.925   7.575   3.798  1.6622 -0.1609  1.0561
  940MOL0     H29699  11.772   7.501   3.832  0.8595  1.6209 -0.8699
  940MOL0     H29700  12.333   7.990   4.730  2.3878  1.7647 -2.8461
  940MOL0     H29701  12.341   8.230   4.815  0.0689  0.7219  0.9037
  940MOL0     H29702  12.141   8.523   5.200  0.5347 -2.3050 -1.8157
  940MOL0     H29703  12.197   8.755   5.244 -0.6629  0.5335  0.4097
  940MOL0     H29704  10.752   8.658   5.914  1.7274  1.6336 -0.5912
  940MOL0     H29705  10.511   8.654   5.977  3.1845 -2.0505  0.5231
  940MOL0     H29706  10.070   8.695   5.651  1.3541  0.8411  0.6636
  940MOL0     H29707   9.832   8.667   5.678  1.4206  0.6155 -0.2679
  940MOL0     H29708   9.632   8.707   5.716  0.5119  1.4592 -0.2537
  940MOL0     H29709   9.633   8.537   5.795 -0.8152  0.4329  1.8532
  940MOL0     H29710   9.398   8.627   5.731 -2.0791  0.2027  1.1030
  940MOL0     H29711   9.433   8.760   5.844 -1.6639  0.4818 -0.8390
  940MOL0     H29712   9.454   8.476   5.943 -2.4321 -0.8274 -0.8165
  940MOL0     H29713   9.431   8.630   6.032 -0.3381 -0.9342  0.4521
  940MOL0     H29714   9.215   8.661   5.936 -1.2764 -0.6299  0.9672
  940MOL0     H29715   9.235   8.519   6.039  0.3081  2.2478  1.6580
  940MOL0     H29716   9.141   8.354   5.656 -0.9353 -1.9551  2.7698
  940MOL0     H29717   9.849   8.748   6.088  1.9309 -1.3813  0.9352
  940MOL0     H29718  10.216   8.714   6.102  0.6675  1.5873  1.1328
  940MOL0     H29719  10.119   8.854   6.162 -0.3282  1.2340 -0.9411
  940MOL0     H29720  10.069   8.682   6.174 -1.9120  0.0944 -0.6815
  941MOL0     O29721   8.783   3.189   2.171  0.3435  0.3448  0.0767
  941MOL0     C29722   8.795   3.254   2.281  0.8372  0.6179 -0.3206
  941MOL0     O29723   8.898   3.315   2.322 -0.4005 -0.5505 -0.3633
  941MOL0     C29724   9.029   3.287   2.270  0.2235  0.5264 -0.3469
  941MOL0     C29725   9.123   3.334   2.360 -0.7377 -0.6519  0.0220
  941MOL0     C29726   9.261   3.331   2.328  0.0405 -0.4328  0.1035
  941MOL0     C29727   9.304   3.261   2.209 -0.1819 -0.0047  0.8574
  941MOL0     O29728   9.440   3.269   2.187 -0.3758  0.4612 -0.1197
  941MOL0     C29729   9.483   3.291   2.058 -0.7283  0.4670  0.8688
  941MOL0     C29730   9.640   3.311   2.049  0.1818  0.6266 -0.2799
  941MOL0     C29731   9.685   3.438   2.120  0.6691 -0.4487 -0.9172
  941MOL0     C29732   9.833   3.464   2.121 -0.1436  0.7091 -0.5557
  941MOL0     C29733   9.857   3.567   2.229  0.4565 -0.5726  0.2404
  941MOL0     C29734   9.999   3.597   2.264 -0.7526  0.8136 -1.4766
  941MOL0     C29735   9.996   3.707   2.365  0.0441 -0.3003  0.3790
  941MOL0     C29736  10.131   3.746   2.432  0.2275  0.2845  0.2487
  941MOL0     N29737  10.109   3.870   2.513 -0.1081  0.0401 -0.1389
  941MOL0     C29738  10.021   3.879   2.618  0.4287 -0.2688  0.5285
  941MOL0     C29739  10.035   4.006   2.673  0.0443 -0.3988  0.7212
  941MOL0     C29740   9.961   4.076   2.786 -0.9996 -0.0698 -0.1750
  941MOL0     C29741   9.921   4.220   2.766  0.6321 -0.0949 -0.0966
  941MOL0     C29742   9.889   4.295   2.887  0.6267  0.1216  0.4085
  941MOL0     C29743   9.854   4.433   2.854 -0.3516  0.0264  0.3596
  941MOL0     O29744   9.807   4.508   2.969 -0.3948  0.1221 -0.4638
  941MOL0     C29745   9.675   4.511   2.994 -0.0357  0.1431  0.1462
  941MOL0     C29746   9.572   4.453   2.916  0.4417 -0.3486  0.0365
  941MOL0     C29747   9.439   4.467   2.945  0.5328  0.5249 -0.0983
  941MOL0     C29748   9.338   4.402   2.854 -0.5333  0.7770 -0.9743
  941MOL0     C29749   9.400   4.525   3.064 -0.3949 -0.0854  0.1359
  941MOL0     C29750   9.263   4.545   3.109  0.0845  0.2355 -0.0397
  941MOL0     O29751   9.236   4.577   3.235 -0.4381 -0.8489 -0.4669
  941MOL0     C29752   9.102   4.589   3.267  0.8773  0.5578  0.2030
  941MOL0     C29753   9.049   4.713   3.313  0.0826  0.1443 -0.7718
  941MOL0     C29754   8.919   4.732   3.366  0.0611 -0.0287 -0.8895
  941MOL0     C29755   8.835   4.622   3.377 -0.2489  0.6301  0.8397
  941MOL0     O29756   8.710   4.623   3.420  0.9862  0.1857  0.0904
  941MOL0     C29757   8.657   4.749   3.469  0.5288 -0.2425  0.4144
  941MOL0     C29758   8.510   4.740   3.506 -0.0099  0.6729  0.9303
  941MOL0     C29759   8.427   4.724   3.380 -0.4216 -0.4330  0.1565
  941MOL0     C29760   8.355   4.857   3.353 -0.5095  1.1251 -0.0758
  941MOL0     C29761   8.240   4.844   3.249  0.1891 -0.5922 -0.2353
  941MOL0     C29762   8.204   4.992   3.212 -0.0076 -0.4864 -0.2332
  941MOL0     C29763   8.063   5.022   3.149  0.7919 -0.2959 -0.5269
  941MOL0     C29764   8.007   5.151   3.198  0.4449  0.1486 -0.5084
  941MOL0    Cl29765   7.975   5.160   3.373 -0.3622  0.8027 -0.1207
  941MOL0     C29766   8.878   4.494   3.330 -0.4119 -0.5668 -0.7024
  941MOL0     C29767   9.012   4.477   3.283  0.0451  0.3584  0.0431
  941MOL0     O29768   9.183   4.546   3.022  0.1523  0.0066  0.5131
  941MOL0     C29769   9.500   4.566   3.149 -0.1064  0.2825  0.0979
  941MOL0     C29770   9.637   4.572   3.113 -0.3968  0.1539  0.4139
  941MOL0     N29771  10.134   4.071   2.597  1.0220 -0.1843  0.4915
  941MOL0     N29772  10.172   3.989   2.508 -0.3635 -0.1777  0.2995
  941MOL0     C29773   9.205   3.215   2.116  0.0602  0.4677 -0.0733
  941MOL0     C29774   9.072   3.226   2.148 -0.1885  0.0886 -0.0872
  941MOL0     C29775   8.662   3.262   2.358  0.4541 -0.4941 -0.3247
  941MOL0     C29776   8.545   3.228   2.285  0.0895  0.6416 -0.2042
  941MOL0     C29777   8.414   3.223   2.344  0.2732 -0.1030  0.3849
  941MOL0     C29778   8.396   3.268   2.473  0.1886 -0.0655  0.3049
  941MOL0     O29779   8.263   3.274   2.515 -0.4239  0.0499 -0.1999
  941MOL0     C29780   8.249   3.207   2.646  0.1496  0.8241  1.2053
  941MOL0     C29781   8.110   3.164   2.676  0.7040 -0.0882  0.2632
  941MOL0     C29782   8.078   3.026   2.624  0.7381  0.3953 -0.0130
  941MOL0     C29783   7.931   2.996   2.649  0.0949 -0.8076  0.1850
  941MOL0     C29784   7.909   2.852   2.647  0.2149 -0.3157 -0.5435
  941MOL0     C29785   7.905   2.727   2.642  0.3680 -0.3639  0.0582
  941MOL0     C29786   8.502   3.304   2.545 -0.0708 -0.6721  0.2253
  941MOL0     C29787   8.636   3.301   2.497 -1.3394 -0.4112  0.1366
  941MOL0     C29788   8.753   3.316   2.596 -0.1926 -0.2802  0.7155
  941MOL0     H29789   9.089   3.378   2.454  2.8913  0.2471  1.0905
  941MOL0     H29790   9.327   3.385   2.395 -1.0220 -1.9492  2.4978
  941MOL0     H29791   9.440   3.383   2.017 -2.3805 -0.8622 -0.5498
  941MOL0     H29792   9.447   3.218   1.985  1.8314  2.1025 -2.3038
  941MOL0     H29793   9.684   3.224   2.099 -2.1888  1.6350  4.0865
  941MOL0     H29794   9.662   3.322   1.943 -1.0376 -1.0045 -0.7385
  941MOL0     H29795   9.627   3.518   2.074 -1.0260 -0.9863  0.2141
  941MOL0     H29796   9.650   3.427   2.222 -1.0598  2.9663 -1.0092
  941MOL0     H29797   9.899   3.378   2.134 -1.8135 -0.5436 -0.0534
  941MOL0     H29798   9.863   3.498   2.022  1.8477  0.5282 -0.0665
  941MOL0     H29799   9.807   3.533   2.320 -0.3208  1.0979  0.4696
  941MOL0     H29800   9.811   3.663   2.203 -1.5927 -1.4561  0.4510
  941MOL0     H29801  10.053   3.510   2.303 -0.3837  1.3578 -0.7463
  941MOL0     H29802  10.065   3.621   2.180  0.2465 -0.3763 -1.0595
  941MOL0     H29803   9.932   3.679   2.449 -1.4096  0.1117 -0.5614
  941MOL0     H29804   9.959   3.806   2.336  4.4975  1.6818  0.5542
  941MOL0     H29805  10.163   3.661   2.493 -2.3833 -1.0438 -0.1111
  941MOL0     H29806  10.209   3.768   2.358  0.9041  3.6757  1.7635
  941MOL0     H29807   9.938   3.817   2.649  0.0619 -0.3864 -0.6624
  941MOL0     H29808  10.033   4.086   2.868 -1.3247  1.6466 -0.0735
  941MOL0     H29809   9.877   4.017   2.824 -2.0973  1.4093 -0.2234
  941MOL0     H29810  10.010   4.269   2.725  3.3648 -1.8466  3.2155
  941MOL0     H29811   9.835   4.226   2.698  1.7016  0.4552 -1.4453
  941MOL0     H29812   9.801   4.255   2.938 -0.3286 -0.3309 -1.4956
  941MOL0     H29813   9.981   4.282   2.943  1.2805 -0.2400 -0.7126
  941MOL0     H29814   9.943   4.490   2.825 -0.7565  1.7156  2.2052
  941MOL0     H29815   9.780   4.448   2.776 -1.4983 -1.0107  1.2174
  941MOL0     H29816   9.586   4.412   2.816 -2.9496 -0.8222 -0.3562
  941MOL0     H29817   9.392   4.340   2.781  1.2997 -1.3768  1.9906
  941MOL0     H29818   9.282   4.485   2.810 -1.9112  0.4957  0.1901
  941MOL0     H29819   9.276   4.328   2.905 -1.3397  1.7126 -0.5873
  941MOL0     H29820   9.108   4.798   3.281 -1.2239  0.2953 -2.9854
  941MOL0     H29821   8.889   4.831   3.399  1.0272  0.0687 -0.2734
  941MOL0     H29822   8.700   4.791   3.560 -0.4111  1.7186 -0.0030
  941MOL0     H29823   8.665   4.826   3.392 -1.7815  2.2150  2.4241
  941MOL0     H29824   8.502   4.654   3.573  1.9324 -1.0826 -0.9171
  941MOL0     H29825   8.486   4.831   3.560  0.1573  0.7798  0.8270
  941MOL0     H29826   8.348   4.649   3.387 -0.9449  0.1383  0.4897
  941MOL0     H29827   8.475   4.692   3.288 -2.5781 -1.5770 -0.6370
  941MOL0     H29828   8.432   4.929   3.323 -1.0784  1.3132 -1.1319
  941MOL0     H29829   8.323   4.899   3.449  3.1345  0.5790  1.5618
  941MOL0     H29830   8.287   4.798   3.161  0.3564  1.2678 -1.1746
  941MOL0     H29831   8.153   4.792   3.289  1.1971 -0.3504  2.4398
  941MOL0     H29832   8.280   5.027   3.142  0.5675 -1.3858 -0.0692
  941MOL0     H29833   8.218   5.056   3.300 -1.6006 -1.4555  0.7905
  941MOL0     H29834   7.995   4.947   3.190 -0.4888  1.1241  0.0111
  941MOL0     H29835   8.064   5.023   3.040 -0.7239  0.4053 -0.5619
  941MOL0     H29836   7.911   5.171   3.150 -0.4417  1.7302  1.7529
  941MOL0     H29837   8.080   5.228   3.171  0.8434 -0.4241 -1.1100
  941MOL0     H29838   8.806   4.413   3.338 -0.4966 -0.2983  2.4281
  941MOL0     H29839   9.035   4.374   3.255 -3.1837 -0.1886 -0.9728
  941MOL0     H29840   9.474   4.619   3.240  0.1128 -0.1265  0.4049
  941MOL0     H29841   9.711   4.622   3.175 -2.4320  0.3380  2.8510
  941MOL0     H29842   9.236   3.172   2.022  0.3590 -0.8548  0.6004
  941MOL0     H29843   9.002   3.184   2.076 -2.0507 -1.3601  2.4110
  941MOL0     H29844   8.564   3.182   2.188  0.4626 -0.0305  0.1786
  941MOL0     H29845   8.326   3.184   2.295 -1.1996  0.0648  2.7441
  941MOL0     H29846   8.311   3.118   2.649 -0.7278  0.1421  0.0271
  941MOL0     H29847   8.291   3.264   2.729  1.1297  0.6155  0.8600
  941MOL0     H29848   8.049   3.248   2.642 -0.5345 -0.9137  0.3742
  941MOL0     H29849   8.094   3.164   2.784  0.4155  1.0958  0.2309
  941MOL0     H29850   8.098   3.030   2.516  4.2076 -1.3006  0.4081
  941MOL0     H29851   8.147   2.950   2.663 -0.3874  1.0011  3.4986
  941MOL0     H29852   7.875   3.056   2.576 -1.9155 -1.7467  0.8805
  941MOL0     H29853   7.898   3.024   2.749 -3.0487 -1.0609 -0.6689
  941MOL0     H29854   7.870   2.625   2.636 -1.3382  0.0367  2.0124
  941MOL0     H29855   8.490   3.339   2.647  0.2617 -0.4397  0.1887
  941MOL0     H29856   8.725   3.361   2.691  1.3696  0.9075  0.6552
  941MOL0     H29857   8.803   3.220   2.610  0.8683  0.2728  0.7942
  941MOL0     H29858   8.831   3.381   2.555  1.6410 -2.5739  0.3706
  942MOL0     O29859   0.947   5.696   7.064  0.5226 -0.4267  0.1315
  942MOL0     C29860   0.918   5.780   6.987  0.5739 -0.3988 -0.4152
  942MOL0     O29861   1.008   5.864   6.918 -0.1775 -0.0753 -0.0220
  942MOL0     C29862   1.142   5.828   6.945  0.2565 -0.1706  0.0187
  942MOL0     C29863   1.204   5.733   6.868 -0.3253  0.5541  0.0797
  942MOL0     C29864   1.338   5.699   6.883 -0.4891 -0.5307 -0.9547
  942MOL0     C29865   1.409   5.749   6.989 -0.9395  1.0422  0.2686
  942MOL0     O29866   1.534   5.702   7.015  0.1512 -0.7084  0.5296
  942MOL0     C29867   1.617   5.767   7.109 -0.1872 -0.2142  0.4325
  942MOL0     C29868   1.594   5.732   7.255  0.5713 -0.1232 -0.3400
  942MOL0     C29869   1.602   5.849   7.355  0.9245  0.8317 -0.9076
  942MOL0     C29870   1.598   5.789   7.495  0.2987  0.2028 -0.5438
  942MOL0     C29871   1.624   5.898   7.604 -0.3809 -0.8778 -0.5521
  942MOL0     C29872   1.615   5.826   7.739  0.2046 -0.6837 -0.6459
  942MOL0     C29873   1.701   5.902   7.838  0.0042  0.5596  0.3660
  942MOL0     C29874   1.853   5.907   7.810 -0.9115 -0.1656 -0.1605
  942MOL0     N29875   1.908   5.778   7.772 -0.6057  0.3084 -0.5233
  942MOL0     C29876   1.958   5.682   7.859  0.0955  0.5403 -0.1001
  942MOL0     C29877   2.004   5.577   7.785  0.0857 -0.3458  0.8591
  942MOL0     C29878   2.051   5.448   7.843 -0.9351  0.7730 -0.2782
  942MOL0     C29879   2.208   5.442   7.850  0.1942 -0.3821 -1.0036
  942MOL0     C29880   2.245   5.299   7.869  1.0134  0.0358 -0.1165
  942MOL0     C29881   2.372   5.288   7.938 -0.2320 -0.0008 -0.1776
  942MOL0     O29882   2.368   5.348   8.070 -0.1239  0.0628 -0.1824
  942MOL0     C29883   2.479   5.328   8.154 -0.2464  0.3420  0.3868
  942MOL0     C29884   2.455   5.364   8.286  0.3334  0.9520  0.0879
  942MOL0     C29885   2.554   5.352   8.389  0.3778  0.2947  0.0067
  942MOL0     C29886   2.522   5.407   8.521  0.1744  0.1659 -0.4250
  942MOL0     C29887   2.685   5.312   8.355 -0.3576 -0.4166  0.5163
  942MOL0     C29888   2.810   5.307   8.436 -0.9267 -0.4763 -0.1818
  942MOL0     O29889   2.819   5.378   8.552  0.5164 -0.4851 -0.0403
  942MOL0     C29890   2.916   5.341   8.641  1.0234 -0.0549  0.1841
  942MOL0     C29891   3.027   5.403   8.655 -1.0330 -0.0054 -0.0220
  942MOL0     C29892   3.106   5.400   8.775 -0.3034 -0.0251 -0.1945
  942MOL0     C29893   3.069   5.312   8.882 -0.3809 -0.8443 -0.3371
  942MOL0     O29894   3.143   5.321   8.997  0.4599  0.6998  0.0141
  942MOL0     C29895   3.273   5.261   8.985  0.2920  0.1606 -0.3451
  942MOL0     C29896   3.296   5.192   9.118  0.6365 -1.0531  0.5705
  942MOL0     C29897   3.419   5.110   9.119 -0.8147  0.6648 -1.3437
  942MOL0     C29898   3.549   5.195   9.098  0.3490 -0.6250  0.7759
  942MOL0     C29899   3.674   5.111   9.139  1.0644 -0.3491  0.3079
  942MOL0     C29900   3.819   5.170   9.169  0.4305  0.6059 -0.0323
  942MOL0     C29901   3.875   5.254   9.058 -0.1523  0.1830  0.0825
  942MOL0     C29902   4.017   5.300   9.080 -0.6188 -0.4056  0.5634
  942MOL0    Cl29903   4.011   5.382   9.239 -0.1971  0.2516  0.8310
  942MOL0     C29904   2.947   5.248   8.866 -1.0067  0.1355  0.3010
  942MOL0     C29905   2.871   5.262   8.746 -0.9778  0.4445 -0.7821
  942MOL0     O29906   2.898   5.234   8.395  0.1944  0.3960  0.1623
  942MOL0     C29907   2.712   5.271   8.218  0.1813  0.8251 -0.0531
  942MOL0     C29908   2.606   5.271   8.122  0.6878 -0.4672 -0.5804
  942MOL0     N29909   1.995   5.617   7.652  0.3880  0.7899 -1.1230
  942MOL0     N29910   1.943   5.736   7.646 -0.5656 -0.1057 -0.7074
  942MOL0     C29911   1.341   5.846   7.063  0.2087  0.0947  0.3072
  942MOL0     C29912   1.214   5.896   7.036  0.1524 -0.5787 -0.0121
  942MOL0     C29913   0.777   5.798   6.945  1.1164 -0.4947  0.5479
  942MOL0     C29914   0.748   5.851   6.817 -0.1049 -0.1675  0.6910
  942MOL0     C29915   0.616   5.878   6.783 -0.2043 -0.8087 -0.2285
  942MOL0     C29916   0.501   5.852   6.870 -0.3519  0.2127  0.6346
  942MOL0     O29917   0.374   5.869   6.836  0.3629 -0.1873 -1.0045
  942MOL0     C29918   0.334   5.968   6.750  0.0349 -0.1128 -0.3051
  942MOL0     C29919   0.338   6.100   6.821 -0.1744 -0.6059 -0.2076
  942MOL0     C29920   0.229   6.111   6.923 -0.2419  0.1759  0.0565
  942MOL0     C29921   0.208   6.261   6.960 -0.2671 -0.7676 -0.5130
  942MOL0     C29922   0.324   6.307   7.040 -0.8632 -0.2233  0.4276
  942MOL0     C29923   0.428   6.348   7.097  0.6336  0.4190 -0.0619
  942MOL0     C29924   0.531   5.787   6.988 -0.1264  0.6964 -0.3334
  942MOL0     C29925   0.664   5.773   7.029 -0.5356 -0.7877 -1.3535
  942MOL0     C29926   0.679   5.727   7.169  0.1826  0.7381 -0.0649
  942MOL0     H29927   1.148   5.676   6.794 -0.4109 -0.0820  0.6205
  942MOL0     H29928   1.387   5.628   6.818 -0.2964 -3.2758  1.9512
  942MOL0     H29929   1.614   5.871   7.073  1.2979 -0.0606  0.6770
  942MOL0     H29930   1.721   5.738   7.094 -0.0678  0.5706 -0.3695
  942MOL0     H29931   1.493   5.689   7.246  0.6090 -0.0667 -1.0803
  942MOL0     H29932   1.654   5.647   7.290 -1.0738 -0.4139  2.0327
  942MOL0     H29933   1.691   5.912   7.346 -0.1065  2.8250  1.4992
  942MOL0     H29934   1.518   5.916   7.333  0.8191  2.0048  2.4257
  942MOL0     H29935   1.498   5.748   7.513  0.7602 -0.1283  1.5373
  942MOL0     H29936   1.676   5.713   7.499 -0.9122 -1.1808 -1.6760
  942MOL0     H29937   1.547   5.975   7.587 -1.2554 -1.8123 -0.9681
  942MOL0     H29938   1.726   5.929   7.581 -0.0173 -0.7469  1.1678
  942MOL0     H29939   1.521   5.836   7.793  2.7319  0.1733  4.1586
  942MOL0     H29940   1.656   5.724   7.733  2.0760 -0.0007 -0.0364
  942MOL0     H29941   1.671   5.861   7.934 -1.7987  5.1505  2.0373
  942MOL0     H29942   1.675   6.008   7.847  1.7885  0.9840  0.9195
  942MOL0     H29943   1.865   5.983   7.732  1.3521  1.4812  1.6389
  942MOL0     H29944   1.915   5.938   7.894 -2.7526 -1.0846  1.6196
  942MOL0     H29945   1.952   5.678   7.967  0.6608  3.6783  0.1468
  942MOL0     H29946   2.007   5.364   7.789  1.1062  0.6701 -1.9073
  942MOL0     H29947   2.007   5.449   7.943 -2.5223 -0.0685 -0.9415
  942MOL0     H29948   2.250   5.474   7.755 -0.6896 -1.0730 -1.6462
  942MOL0     H29949   2.246   5.512   7.925 -1.8945 -1.1569  0.8826
  942MOL0     H29950   2.166   5.242   7.919  1.9492  0.2691  1.7397
  942MOL0     H29951   2.261   5.259   7.769 -0.4724 -0.3283 -0.2320
  942MOL0     H29952   2.413   5.187   7.943 -0.0766 -0.0829 -2.2328
  942MOL0     H29953   2.442   5.348   7.879  1.8854  0.3695  2.5718
  942MOL0     H29954   2.358   5.408   8.306 -0.1954  0.2348 -0.7999
  942MOL0     H29955   2.579   5.499   8.535 -0.9408  0.7617  0.4123
  942MOL0     H29956   2.545   5.334   8.599 -1.9231  0.9549  1.0235
  942MOL0     H29957   2.420   5.438   8.545  0.2601 -1.3914  2.4275
  942MOL0     H29958   3.046   5.469   8.570 -0.2598  2.3264  1.8445
  942MOL0     H29959   3.204   5.447   8.780 -0.6649  0.9294 -1.6288
  942MOL0     H29960   3.276   5.175   8.917 -0.5569  0.6312 -1.0174
  942MOL0     H29961   3.339   5.343   8.956  0.6779 -0.0693 -0.1129
  942MOL0     H29962   3.304   5.265   9.200  2.1660 -0.4697 -0.0550
  942MOL0     H29963   3.208   5.128   9.119 -1.6886  1.9227 -0.3759
  942MOL0     H29964   3.413   5.031   9.044  1.4006 -1.2256  0.3322
  942MOL0     H29965   3.421   5.069   9.221 -2.3386 -0.9206 -1.9059
  942MOL0     H29966   3.541   5.283   9.162  1.0579  1.3919 -1.7474
  942MOL0     H29967   3.556   5.224   8.992 -1.4206 -1.3072  0.4358
  942MOL0     H29968   3.644   5.059   9.230 -1.0131 -2.0285 -1.2290
  942MOL0     H29969   3.682   5.040   9.057 -0.5177 -0.0960 -0.1058
  942MOL0     H29970   3.887   5.087   9.188 -0.3056 -0.1856 -0.7573
  942MOL0     H29971   3.803   5.220   9.265 -1.3676 -2.1048  1.2041
  942MOL0     H29972   3.811   5.343   9.051  0.4895  0.5143 -2.9265
  942MOL0     H29973   3.871   5.201   8.962  0.2737 -1.7779  1.1085
  942MOL0     H29974   4.044   5.366   8.997  1.5000 -0.8873  0.8147
  942MOL0     H29975   4.082   5.212   9.090 -0.6510 -0.2088  3.3459
  942MOL0     H29976   2.889   5.199   8.943 -0.4799  0.1248  0.6950
  942MOL0     H29977   2.774   5.212   8.739 -1.4886  0.8316  2.1316
  942MOL0     H29978   2.805   5.233   8.177 -0.3017  2.1254 -2.5425
  942MOL0     H29979   2.608   5.239   8.018 -0.1140  0.8419 -1.0149
  942MOL0     H29980   1.404   5.896   7.137 -0.4124 -0.4939  1.2564
  942MOL0     H29981   1.164   5.973   7.094 -1.9591 -2.8907  1.4205
  942MOL0     H29982   0.822   5.891   6.748 -0.1753  1.5665  1.5502
  942MOL0     H29983   0.611   5.932   6.689  0.3601 -1.8733 -0.8907
  942MOL0     H29984   0.402   5.973   6.665  1.4102  2.5930  0.8263
  942MOL0     H29985   0.239   5.940   6.703  0.5850 -3.1194  0.1698
  942MOL0     H29986   0.327   6.174   6.741 -3.1477 -1.1431 -0.3772
  942MOL0     H29987   0.435   6.118   6.868  0.4224  0.8244 -1.8609
  942MOL0     H29988   0.131   6.075   6.890 -0.9318  0.4515  1.6845
  942MOL0     H29989   0.250   6.039   7.003  0.2934  1.0490  0.7289
  942MOL0     H29990   0.116   6.284   7.015 -0.0631 -1.1580 -0.0037
  942MOL0     H29991   0.203   6.312   6.864 -0.0133 -0.3313 -0.2994
  942MOL0     H29992   0.517   6.384   7.146 -0.7829  2.2074  1.3732
  942MOL0     H29993   0.445   5.775   7.054 -1.0464  2.7798 -1.0693
  942MOL0     H29994   0.703   5.620   7.175  0.4467  0.8684  3.2792
  942MOL0     H29995   0.763   5.775   7.219  0.5772 -0.8819  0.9120
  942MOL0     H29996   0.596   5.753   7.236  1.9249 -0.4735  2.7261
  943MOL0     O29997   0.252   9.724   7.608  0.1733 -0.2151 -0.2702
  943MOL0     C29998   0.167   9.639   7.608 -0.3112  0.3699 -0.7321
  943MOL0     O29999   0.100   9.600   7.724 -0.3795 -0.0907 -0.3346
  943MOL0     C30000   0.143   9.671   7.834 -0.2771  0.0951 -0.1473
  943MOL0     C30001   0.235   9.612   7.924 -0.9563 -1.4331 -0.1006
  943MOL0     C30002   0.284   9.694   8.027  0.0159  1.2215  0.3520
  943MOL0     C30003   0.238   9.829   8.047  1.0868  0.1566  0.4482
  943MOL0     O30004   0.288   9.922   8.138  0.0647 -0.3481 -0.1917
  943MOL0     C30005   0.411   9.890   8.207 -0.3052  0.0470 -0.3919
  943MOL0     C30006   0.451  10.010   8.288  0.5038 -0.4379 -0.6496
  943MOL0     C30007   0.546   9.992   8.407  0.7594 -0.0527 -0.3513
  943MOL0     C30008   0.473   9.929   8.526  0.6227 -0.2308  0.6867
  943MOL0     C30009   0.576   9.897   8.632  0.2722 -0.2669  0.4424
  943MOL0     C30010   0.505   9.857   8.766  0.2074  0.1434  0.2257
  943MOL0     C30011   0.615   9.809   8.868  0.4316 -0.1081  0.2285
  943MOL0     C30012   0.670   9.674   8.849 -0.6075  0.3012 -0.3888
  943MOL0     N30013   0.577   9.568   8.883  0.0259  0.6492 -0.7871
  943MOL0     C30014   0.576   9.508   9.010  0.1493  0.4307 -0.7212
  943MOL0     C30015   0.481   9.414   8.989  0.2244 -0.1645  0.1622
  943MOL0     C30016   0.432   9.314   9.084  0.6935  0.2220 -0.2452
  943MOL0     C30017   0.395   9.173   9.022  0.1946 -0.1120 -0.8584
  943MOL0     C30018   0.238   9.164   8.990 -0.2304 -0.7067 -0.2913
  943MOL0     C30019   0.189   9.023   8.953  0.9313 -0.4187 -0.2147
  943MOL0     O30020   0.275   8.942   8.876  0.8440 -0.1090 -0.6086
  943MOL0     C30021   0.241   8.809   8.884 -0.4351 -0.3871  0.2977
  943MOL0     C30022   0.126   8.744   8.923 -0.2022 -0.0751 -0.3761
  943MOL0     C30023   0.101   8.608   8.925  0.2583  1.2400  0.1105
  943MOL0     C30024  -0.028   8.552   8.968 -1.2959  0.1237 -0.1637
  943MOL0     C30025   0.207   8.516   8.886 -0.0900  0.1353 -1.1400
  943MOL0     C30026   0.201   8.367   8.878  0.5634  0.4259  0.2079
  943MOL0     O30027   0.304   8.299   8.807  0.2501 -0.1878 -0.2072
  943MOL0     C30028   0.329   8.165   8.829  0.1286 -1.2711  0.1928
  943MOL0     C30029   0.360   8.089   8.718 -0.3009 -0.8740 -0.4740
  943MOL0     C30030   0.384   7.954   8.726 -0.0298  0.9169  0.4812
  943MOL0     C30031   0.357   7.887   8.847 -0.0033  0.0091 -0.0007
  943MOL0     O30032   0.390   7.757   8.872  0.5002  0.5750  0.2329
  943MOL0     C30033   0.380   7.661   8.771 -0.1261 -0.5558 -0.0277
  943MOL0     C30034   0.408   7.522   8.825  0.4509  0.0705 -0.0266
  943MOL0     C30035   0.397   7.419   8.708  0.1635 -0.5885  0.4329
  943MOL0     C30036   0.361   7.280   8.756 -0.3475 -0.0749  0.4117
  943MOL0     C30037   0.466   7.220   8.855  0.2648  0.3658  0.0204
  943MOL0     C30038   0.424   7.079   8.893 -0.3628 -0.3690  1.0265
  943MOL0     C30039   0.407   6.982   8.772  0.2894 -0.4952  0.1088
  943MOL0     C30040   0.456   6.842   8.806  0.4905  0.1866 -0.1816
  943MOL0    Cl30041   0.638   6.836   8.822  0.1219  0.1196 -0.1225
  943MOL0     C30042   0.325   7.961   8.961  0.8453 -0.2828 -0.1834
  943MOL0     C30043   0.305   8.104   8.948  0.5502  1.0078 -0.7916
  943MOL0     O30044   0.110   8.309   8.938  0.5434 -0.5023  0.1122
  943MOL0     C30045   0.323   8.576   8.839 -0.2325  0.0783  0.3838
  943MOL0     C30046   0.349   8.717   8.843  0.0092  0.9336  0.1090
  943MOL0     N30047   0.427   9.425   8.862 -0.3605 -0.4466  0.0942
  943MOL0     N30048   0.476   9.533   8.804  0.2545 -0.5216  0.7529
  943MOL0     C30049   0.140   9.879   7.966  0.2597  0.6017 -1.1250
  943MOL0     C30050   0.101   9.805   7.849 -0.0636 -0.1627  0.1378
  943MOL0     C30051   0.109   9.581   7.488 -0.4932 -0.0053 -0.1732
  943MOL0     C30052  -0.013   9.506   7.486  0.2258  0.0343 -0.3630
  943MOL0     C30053  -0.050   9.433   7.369  0.6015  0.7637 -0.1819
  943MOL0     C30054   0.010   9.444   7.250 -1.3622  0.2884  0.7853
  943MOL0     O30055  -0.014   9.378   7.135  0.0382 -0.4278 -0.3379
  943MOL0     C30056  -0.145   9.323   7.125 -0.4569  0.1207 -0.1673
  943MOL0     C30057  -0.203   9.318   6.986 -0.0402 -0.7034  0.2294
  943MOL0     C30058  -0.350   9.280   6.987  0.8296 -0.1273 -0.0225
  943MOL0     C30059  -0.377   9.155   6.895  0.1440  0.0594  0.6929
  943MOL0     C30060  -0.355   9.167   6.751 -0.0404 -1.3750  0.0610
  943MOL0     C30061  -0.338   9.176   6.633  0.8727 -0.7173  0.5069
  943MOL0     C30062   0.115   9.528   7.245  0.0827 -0.1575 -0.4030
  943MOL0     C30063   0.165   9.607   7.358  0.3834  1.2982  0.3204
  943MOL0     C30064   0.290   9.697   7.337 -0.2469  0.1930  0.3325
  943MOL0     H30065   0.266   9.510   7.899  0.9041 -0.7997 -0.5763
  943MOL0     H30066   0.363   9.645   8.083  0.2497  1.3978  0.1749
  943MOL0     H30067   0.488   9.857   8.136 -0.2925 -1.2305  0.1793
  943MOL0     H30068   0.385   9.807   8.274 -0.5789  2.0431  2.0968
  943MOL0     H30069   0.496  10.080   8.218 -0.8048  0.3044 -0.7910
  943MOL0     H30070   0.359  10.061   8.321  1.1760  1.2832 -1.3186
  943MOL0     H30071   0.630   9.927   8.380  0.3508 -0.4605 -0.6550
  943MOL0     H30072   0.593  10.088   8.432 -2.2361  0.8596  2.4956
  943MOL0     H30073   0.386   9.991   8.549 -1.9406 -2.9782 -0.9609
  943MOL0     H30074   0.426   9.835   8.498 -0.0939 -0.1398  1.5238
  943MOL0     H30075   0.646   9.980   8.646  0.5998 -0.1926 -1.3719
  943MOL0     H30076   0.630   9.807   8.601 -0.4229 -0.3678 -0.4958
  943MOL0     H30077   0.439   9.935   8.804 -2.4826 -2.0239  0.3176
  943MOL0     H30078   0.440   9.772   8.740  2.3615 -1.4694 -0.2313
  943MOL0     H30079   0.571   9.803   8.968 -1.5990  0.1861 -0.6001
  943MOL0     H30080   0.689   9.889   8.874  0.6630 -0.2007 -1.0048
  943MOL0     H30081   0.702   9.659   8.745  0.0736  4.2258 -0.9118
  943MOL0     H30082   0.755   9.673   8.918 -0.1803  3.4070 -0.7027
  943MOL0     H30083   0.638   9.522   9.098 -0.9944 -3.0752  0.8365
  943MOL0     H30084   0.348   9.366   9.131  1.1433  2.3713 -1.7031
  943MOL0     H30085   0.504   9.306   9.165 -1.3111 -1.6418  1.5110
  943MOL0     H30086   0.453   9.152   8.932  0.6906  2.1162 -1.1259
  943MOL0     H30087   0.416   9.103   9.103 -0.2737  1.4594  0.6882
  943MOL0     H30088   0.181   9.210   9.071  0.8501  1.7331 -0.8417
  943MOL0     H30089   0.220   9.216   8.895 -2.3862 -2.0048 -0.6747
  943MOL0     H30090   0.171   8.980   9.051  2.3989 -1.7450 -0.4950
  943MOL0     H30091   0.089   9.037   8.910 -0.1222  2.0873  2.7089
  943MOL0     H30092   0.043   8.808   8.951 -1.9334 -1.9063 -1.0654
  943MOL0     H30093  -0.076   8.486   8.895 -2.2670  0.9309 -0.2922
  943MOL0     H30094  -0.103   8.632   8.960 -1.3987  0.0812  0.3090
  943MOL0     H30095  -0.021   8.510   9.069 -0.6025 -1.1508 -0.7341
  943MOL0     H30096   0.356   8.135   8.619 -0.8099 -2.1505 -1.0618
  943MOL0     H30097   0.422   7.895   8.643 -1.3703 -1.1560  1.2615
  943MOL0     H30098   0.280   7.654   8.726  0.1916 -0.6768 -0.7227
  943MOL0     H30099   0.456   7.686   8.697  1.5260 -0.9390  1.4889
  943MOL0     H30100   0.510   7.519   8.864  1.2209  0.0141 -1.9188
  943MOL0     H30101   0.331   7.505   8.900  1.0915 -0.6518  0.4816
  943MOL0     H30102   0.491   7.418   8.652  0.9548  1.8499  1.5618
  943MOL0     H30103   0.326   7.455   8.633  1.9288 -1.2274 -1.6260
  943MOL0     H30104   0.359   7.222   8.663  0.1609  0.6857 -0.0880
  943MOL0     H30105   0.263   7.270   8.804 -0.0374 -0.5963  0.9451
  943MOL0     H30106   0.558   7.200   8.800 -0.1176  0.0124 -0.5001
  943MOL0     H30107   0.484   7.283   8.943  2.8661  2.9699 -2.1824
  943MOL0     H30108   0.326   7.078   8.942 -1.4334 -0.3374 -1.0007
  943MOL0     H30109   0.501   7.043   8.962 -0.6071 -3.7591 -0.2751
  943MOL0     H30110   0.472   7.013   8.690 -1.1133 -1.5169 -1.4507
  943MOL0     H30111   0.305   6.977   8.732 -0.1208 -4.6217  1.1888
  943MOL0     H30112   0.433   6.801   8.708 -1.2323  2.0735 -0.6243
  943MOL0     H30113   0.415   6.797   8.897  1.8676 -2.6627 -0.8568
  943MOL0     H30114   0.299   7.910   9.053 -0.8479  1.1124  0.1477
  943MOL0     H30115   0.269   8.153   9.038  3.0022  0.6901  0.4537
  943MOL0     H30116   0.397   8.510   8.797 -0.2413  1.9217 -2.8580
  943MOL0     H30117   0.438   8.767   8.804 -1.1258  2.9442 -0.0493
  943MOL0     H30118   0.099   9.978   7.986 -0.8388 -0.1807  0.7873
  943MOL0     H30119   0.043   9.852   7.770  2.3350 -0.9448 -2.2513
  943MOL0     H30120  -0.093   9.493   7.559  0.1356 -2.2277 -0.7885
  943MOL0     H30121  -0.142   9.376   7.379  1.1446  0.0724  1.0890
  943MOL0     H30122  -0.145   9.227   7.177  0.4358 -0.2666 -0.8493
  943MOL0     H30123  -0.215   9.392   7.172  1.7576  3.5570 -1.5267
  943MOL0     H30124  -0.155   9.249   6.917  0.1742 -0.4386  0.1095
  943MOL0     H30125  -0.188   9.419   6.945  1.0812 -0.8659  0.2227
  943MOL0     H30126  -0.393   9.254   7.084 -0.6829  0.3305 -0.5582
  943MOL0     H30127  -0.411   9.362   6.950  1.0604  0.8561  1.6616
  943MOL0     H30128  -0.485   9.138   6.904 -0.1740 -1.5234 -3.6454
  943MOL0     H30129  -0.318   9.072   6.936  2.7032  1.2745 -0.3226
  943MOL0     H30130  -0.345   9.191   6.527 -0.6427  1.5914  0.8541
  943MOL0     H30131   0.174   9.538   7.154 -1.5276  0.6191 -1.4021
  943MOL0     H30132   0.282   9.797   7.381 -1.4074 -0.3547  1.4327
  943MOL0     H30133   0.378   9.650   7.381 -0.0286  2.4889  2.6157
  943MOL0     H30134   0.319   9.707   7.232 -0.1754  3.1376  0.5312
  944MOL0     O30135   0.951   1.203  10.503  0.9901 -0.3382 -0.5709
  944MOL0     C30136   1.006   1.202  10.615  0.5996 -0.4614 -0.1106
  944MOL0     O30137   0.947   1.174  10.732  0.2586 -0.4391 -0.4343
  944MOL0     C30138   0.810   1.165  10.728 -0.2310 -0.1623  0.0674
  944MOL0     C30139   0.743   1.041  10.723 -0.3457  0.7542  0.0998
  944MOL0     C30140   0.602   1.043  10.726  0.2013  0.1275 -0.3575
  944MOL0     C30141   0.535   1.163  10.711  0.4770 -0.0181  0.1541
  944MOL0     O30142   0.401   1.160  10.685 -0.0228  0.4192  0.7250
  944MOL0     C30143   0.328   1.281  10.678  0.0271 -0.3615 -0.1956
  944MOL0     C30144   0.185   1.254  10.672 -0.1330 -0.3502 -0.4362
  944MOL0     C30145   0.134   1.191  10.543 -0.1523  0.2602 -0.3658
  944MOL0     C30146  -0.006   1.135  10.545  0.0819 -0.5080 -0.0782
  944MOL0     C30147  -0.075   1.148  10.415  0.4887 -0.2569 -0.2469
  944MOL0     C30148  -0.222   1.093  10.411 -0.6373  0.5845 -0.1159
  944MOL0     C30149  -0.276   1.093  10.273 -0.2879  0.3619  0.7309
  944MOL0     C30150  -0.410   1.012  10.251 -0.9245 -0.0695 -0.0436
  944MOL0     N30151  -0.435   0.994  10.111  0.8422 -0.8470  0.0299
  944MOL0     C30152  -0.347   0.961  10.014  0.4628 -0.0879 -0.9076
  944MOL0     C30153  -0.413   0.969   9.893 -0.5775  0.1355 -0.3240
  944MOL0     C30154  -0.354   0.938   9.760  0.3668  0.5387  0.5735
  944MOL0     C30155  -0.281   0.801   9.748 -0.3209 -0.2529  0.4702
  944MOL0     C30156  -0.383   0.678   9.731  0.3207  1.2576  0.3731
  944MOL0     C30157  -0.319   0.539   9.708 -0.2990  0.0374  0.8395
  944MOL0     O30158  -0.230   0.502   9.818 -0.7996  0.5281  0.3961
  944MOL0     C30159  -0.157   0.389   9.788  0.5829  1.0817  0.1674
  944MOL0     C30160  -0.029   0.404   9.760  0.5076 -0.9632  1.1071
  944MOL0     C30161   0.056   0.310   9.711  0.3705  0.6711 -0.2760
  944MOL0     C30162   0.209   0.341   9.700  0.4231  0.1104 -0.6091
  944MOL0     C30163   0.002   0.177   9.702 -0.8010  0.7609  0.1278
  944MOL0     C30164   0.080   0.053   9.673  0.5506  0.5368 -1.5791
  944MOL0     O30165   0.216   0.063   9.654 -0.2937 -0.8837  0.2358
  944MOL0     C30166   0.282  -0.041   9.599 -0.0561  1.1201 -0.3525
  944MOL0     C30167   0.402  -0.067   9.668  0.3148  0.4195 -0.3763
  944MOL0     C30168   0.493  -0.160   9.616  0.2831  0.3077 -0.6222
  944MOL0     C30169   0.464  -0.229   9.495  0.5493 -0.8334 -0.0827
  944MOL0     O30170   0.539  -0.323   9.426 -0.6531 -1.2824 -0.6943
  944MOL0     C30171   0.661  -0.368   9.498 -1.1325  0.0797  0.0272
  944MOL0     C30172   0.772  -0.261   9.507  0.5913 -0.3004 -0.0753
  944MOL0     C30173   0.800  -0.204   9.369 -0.4762 -0.5585 -0.1043
  944MOL0     C30174   0.923  -0.117   9.372  0.1979 -0.2255 -0.7652
  944MOL0     C30175   0.952  -0.061   9.229  0.7121 -0.0478  0.0168
  944MOL0     C30176   0.897   0.081   9.217 -0.3218  0.2781 -0.0512
  944MOL0     C30177   0.910   0.136   9.074  0.0173  0.0024 -0.0556
  944MOL0     C30178   0.825   0.260   9.036  0.2371  0.8536  0.3016
  944MOL0    Cl30179   0.846   0.388   9.165 -0.2702 -0.0844  0.4385
  944MOL0     C30180   0.347  -0.189   9.415  0.3880  0.1006 -0.5371
  944MOL0     C30181   0.254  -0.107   9.478  0.0661 -0.1448  0.7757
  944MOL0     O30182   0.018  -0.053   9.661 -0.4921  0.3452 -0.0764
  944MOL0     C30183  -0.135   0.155   9.734  0.5604 -0.5712 -0.0958
  944MOL0     C30184  -0.218   0.264   9.759 -0.5099  0.5019  0.5414
  944MOL0     N30185  -0.546   0.994   9.923  0.1322 -0.7770  0.0362
  944MOL0     N30186  -0.563   1.015  10.048  0.0705  0.2032 -0.2032
  944MOL0     C30187   0.604   1.288  10.713 -0.3741 -0.3736 -0.8692
  944MOL0     C30188   0.741   1.286  10.725  1.0192 -0.8417  0.1796
  944MOL0     C30189   1.156   1.195  10.631  1.3018  0.3300  0.1474
  944MOL0     C30190   1.205   1.174  10.758  0.0183  0.5835 -0.2551
  944MOL0     C30191   1.346   1.173  10.783  0.0134  0.5341 -0.4080
  944MOL0     C30192   1.440   1.187  10.679 -0.4675  0.1893 -0.5581
  944MOL0     O30193   1.576   1.186  10.681 -0.1718 -0.1170 -0.8424
  944MOL0     C30194   1.644   1.127  10.797  0.6925 -0.1595  0.1723
  944MOL0     C30195   1.624   0.970  10.793  0.7417 -0.3774 -0.0880
  944MOL0     C30196   1.720   0.907  10.903 -0.6306  0.6317  0.2128
  944MOL0     C30197   1.850   0.849  10.845 -0.0500 -0.2019  0.0095
  944MOL0     C30198   1.941   0.930  10.762  0.4885 -0.0773  0.7439
  944MOL0     C30199   2.027   0.994  10.706  0.0010  0.2363 -0.1529
  944MOL0     C30200   1.384   1.215  10.555 -0.9730  0.0323  0.5211
  944MOL0     C30201   1.247   1.220  10.525  0.5482  0.7484 -0.3222
  944MOL0     C30202   1.215   1.237  10.372 -1.5260 -0.4790 -0.1268
  944MOL0     H30203   0.805   0.954  10.709 -2.3352 -0.8114  0.5539
  944MOL0     H30204   0.558   0.945  10.735  1.1784 -0.1778  1.8926
  944MOL0     H30205   0.350   1.349  10.595 -1.5251 -1.5853 -1.6714
  944MOL0     H30206   0.344   1.327  10.776 -0.8645 -1.0244  0.2739
  944MOL0     H30207   0.160   1.187  10.755  0.5946  1.7942  1.6099
  944MOL0     H30208   0.145   1.354  10.692 -1.5684 -0.5911 -1.9057
  944MOL0     H30209   0.142   1.265  10.463 -2.7392 -2.1027 -3.0570
  944MOL0     H30210   0.200   1.108  10.516  2.2015  2.4215 -1.6197
  944MOL0     H30211  -0.002   1.035  10.590  1.6384 -0.3578  0.1725
  944MOL0     H30212  -0.065   1.194  10.617  0.8219 -1.0931  1.0353
  944MOL0     H30213  -0.011   1.086  10.352  0.3326 -0.6964  0.0248
  944MOL0     H30214  -0.074   1.250  10.376 -1.7260  0.3400  1.0978
  944MOL0     H30215  -0.212   0.994  10.457  0.7230  1.2521  1.1161
  944MOL0     H30216  -0.289   1.152  10.475 -0.9632  1.5608 -1.3011
  944MOL0     H30217  -0.189   1.057  10.217  0.9530  1.4014  1.9345
  944MOL0     H30218  -0.283   1.191  10.224  0.0805  1.5933  2.9911
  944MOL0     H30219  -0.390   0.910  10.283  3.6064 -0.2929 -2.7730
  944MOL0     H30220  -0.491   1.063  10.305 -1.3946 -1.6856  0.8368
  944MOL0     H30221  -0.243   0.933  10.019 -0.0987 -2.4853 -1.6891
  944MOL0     H30222  -0.280   1.014   9.733  1.3417 -0.3058  0.8084
  944MOL0     H30223  -0.424   0.947   9.677  0.5689  2.7216  0.5851
  944MOL0     H30224  -0.227   0.810   9.653 -1.6874 -0.5779 -0.3649
  944MOL0     H30225  -0.220   0.781   9.837 -1.1364 -2.6295  0.5655
  944MOL0     H30226  -0.431   0.672   9.829  2.2014  1.3403  1.3460
  944MOL0     H30227  -0.456   0.691   9.651  0.6682 -4.4249 -1.3356
  944MOL0     H30228  -0.410   0.479   9.696  0.0551 -0.1785 -1.1724
  944MOL0     H30229  -0.260   0.534   9.616  1.2152 -2.3536  1.8195
  944MOL0     H30230   0.002   0.506   9.783 -1.4555 -0.5584  2.1689
  944MOL0     H30231   0.210   0.450   9.710 -0.7170  0.5110 -3.7928
  944MOL0     H30232   0.260   0.318   9.606  1.4089  2.3249 -0.6735
  944MOL0     H30233   0.265   0.295   9.782  1.9361 -0.7532 -2.0578
  944MOL0     H30234   0.423  -0.017   9.762  2.7779 -2.7942  0.9649
  944MOL0     H30235   0.580  -0.186   9.674  0.8569  2.7942 -0.2280
  944MOL0     H30236   0.640  -0.423   9.591  0.5142 -0.0566  0.3511
  944MOL0     H30237   0.701  -0.445   9.431 -0.2730  0.8588 -0.3779
  944MOL0     H30238   0.748  -0.173   9.568  0.1609  2.4574 -3.8472
  944MOL0     H30239   0.861  -0.308   9.551 -0.0906  0.5555  2.4080
  944MOL0     H30240   0.717  -0.144   9.333  1.0359 -0.2498 -3.4560
  944MOL0     H30241   0.804  -0.288   9.299 -2.1954  0.9651 -2.1529
  944MOL0     H30242   1.008  -0.173   9.410 -1.0306 -0.2761  2.1816
  944MOL0     H30243   0.909  -0.031   9.439  1.4006 -0.9247  0.4355
  944MOL0     H30244   1.060  -0.060   9.214  0.7611 -0.5936  0.2923
  944MOL0     H30245   0.907  -0.123   9.151  1.3821  2.0562 -2.1496
  944MOL0     H30246   0.947   0.146   9.290  0.6748 -0.0451 -0.4226
  944MOL0     H30247   0.791   0.073   9.242 -0.6211  2.1731 -0.5644
  944MOL0     H30248   0.874   0.056   9.009 -2.4225 -2.1892  3.6123
  944MOL0     H30249   1.016   0.156   9.054  0.0450 -1.7200 -1.9424
  944MOL0     H30250   0.724   0.229   9.009  1.4780 -1.6351 -1.9464
  944MOL0     H30251   0.874   0.302   8.948 -0.4872  1.3283  0.1168
  944MOL0     H30252   0.318  -0.236   9.322  0.7982 -1.4254  0.0574
  944MOL0     H30253   0.165  -0.078   9.425 -0.5370 -0.5625  1.5394
  944MOL0     H30254  -0.177   0.060   9.703 -0.5100 -0.2873  0.4506
  944MOL0     H30255  -0.326   0.254   9.744 -0.3875  0.2355 -0.2485
  944MOL0     H30256   0.548   1.381  10.720 -1.9379 -1.3905  2.2705
  944MOL0     H30257   0.777   1.388  10.719 -2.2976  0.4053 -0.9176
  944MOL0     H30258   1.142   1.178  10.847  2.9744 -1.3756  2.1082
  944MOL0     H30259   1.390   1.169  10.882  0.6552 -0.2490 -0.7174
  944MOL0     H30260   1.751   1.149  10.790  1.1658 -2.5047 -0.8270
  944MOL0     H30261   1.602   1.175  10.886  1.4242  2.3949 -0.7549
  944MOL0     H30262   1.637   0.929  10.693  0.0468  0.4968 -0.5563
  944MOL0     H30263   1.519   0.954  10.819  0.9516  1.5231  2.3412
  944MOL0     H30264   1.750   0.979  10.980  1.6336 -0.8284  0.8048
  944MOL0     H30265   1.657   0.834  10.954 -2.6045  2.5736  0.7043
  944MOL0     H30266   1.823   0.765  10.780  1.5465  0.5946 -1.7819
  944MOL0     H30267   1.907   0.797  10.922  0.3151  0.7560  0.4004
  944MOL0     H30268   2.103   1.056  10.663  0.7828 -2.0177 -2.2119
  944MOL0     H30269   1.454   1.240  10.476 -2.1366  1.0889 -0.2284
  944MOL0     H30270   1.303   1.279  10.322  3.2150 -5.9250  2.4422
  944MOL0     H30271   1.204   1.137  10.329  0.0206 -0.3774 -0.8159
  944MOL0     H30272   1.128   1.300  10.348  0.1155  3.0216  2.1973
  945MOL0     O30273   4.763   8.994   7.383  0.0460 -0.6701 -0.8729
  945MOL0     C30274   4.758   8.954   7.497  0.9032  0.4584  0.6588
  945MOL0     O30275   4.866   8.920   7.572  0.5396 -0.3221 -0.3174
  945MOL0     C30276   4.998   8.939   7.548 -0.2280 -0.8676 -0.2083
  945MOL0     C30277   5.081   8.874   7.638  0.5374 -0.0341 -0.1229
  945MOL0     C30278   5.219   8.894   7.634  0.8774  0.7451  0.3902
  945MOL0     C30279   5.273   8.975   7.534 -0.3756  0.4306  0.5746
  945MOL0     O30280   5.404   9.016   7.522  0.2785  0.0976  0.0057
  945MOL0     C30281   5.474   9.006   7.395  0.1456  0.2546 -0.8052
  945MOL0     C30282   5.606   8.947   7.416  0.1472 -0.1428 -0.3005
  945MOL0     C30283   5.696   9.057   7.472 -0.1791 -0.8513 -0.4792
  945MOL0     C30284   5.817   8.985   7.524  0.4392 -0.3966  0.0500
  945MOL0     C30285   5.925   9.079   7.580  0.4957  1.1565 -0.7031
  945MOL0     C30286   6.040   9.016   7.661 -0.0292 -0.0942 -0.0239
  945MOL0     C30287   6.004   8.933   7.774  0.1796 -0.4116 -0.4535
  945MOL0     C30288   6.121   8.868   7.839  0.5126 -0.5912 -0.5875
  945MOL0     N30289   6.095   8.761   7.940  0.8598 -0.1082 -0.2258
  945MOL0     C30290   6.093   8.783   8.079  0.4451  1.3584  0.0889
  945MOL0     C30291   6.043   8.663   8.124  0.2881  0.1878  0.1005
  945MOL0     C30292   6.027   8.610   8.271 -0.2002  0.4569  0.5244
  945MOL0     C30293   6.162   8.629   8.354  0.9979 -0.7696  0.3536
  945MOL0     C30294   6.286   8.577   8.284 -0.2094  0.2339  0.8217
  945MOL0     C30295   6.419   8.636   8.336 -0.2198 -0.8373 -0.6029
  945MOL0     O30296   6.438   8.570   8.470  0.2831 -0.1508  0.0929
  945MOL0     C30297   6.564   8.561   8.522  0.2389 -0.7537  0.8415
  945MOL0     C30298   6.578   8.475   8.631  0.0686 -0.4258 -0.4399
  945MOL0     C30299   6.695   8.460   8.704  0.0276  0.1467  0.0506
  945MOL0     C30300   6.686   8.377   8.835 -0.6229  0.4629  0.0819
  945MOL0     C30301   6.809   8.519   8.652  0.1083 -0.2236 -0.5083
  945MOL0     C30302   6.941   8.512   8.714  0.2791 -1.1874  0.4306
  945MOL0     O30303   7.032   8.607   8.679 -0.6600 -0.1911  0.7103
  945MOL0     C30304   7.163   8.629   8.711  0.0005  0.6544 -0.3582
  945MOL0     C30305   7.227   8.743   8.669 -1.0484  0.2158 -0.6407
  945MOL0     C30306   7.366   8.761   8.688  0.5342  0.4900  0.2690
  945MOL0     C30307   7.451   8.669   8.750  0.1861 -0.4999  0.3776
  945MOL0     O30308   7.586   8.683   8.771 -0.1015 -0.7233 -0.5551
  945MOL0     C30309   7.642   8.799   8.705  0.5924 -0.2162 -0.7564
  945MOL0     C30310   7.792   8.812   8.727 -1.0470 -0.3432 -0.3733
  945MOL0     C30311   7.836   8.871   8.861 -0.2588 -0.1043 -0.8053
  945MOL0     C30312   7.865   9.025   8.847  0.8557 -0.4357 -0.5243
  945MOL0     C30313   7.986   9.067   8.762 -0.4948  0.4034  0.3063
  945MOL0     C30314   8.116   9.099   8.823  0.1323  0.1162 -0.0308
  945MOL0     C30315   8.181   8.987   8.906  0.3510 -0.4688  0.8605
  945MOL0     C30316   8.257   8.894   8.813  0.5636 -0.7597  0.3196
  945MOL0    Cl30317   8.142   8.761   8.745  0.1498  0.1522  0.0461
  945MOL0     C30318   7.380   8.546   8.789 -1.1492 -0.2341  1.6264
  945MOL0     C30319   7.245   8.528   8.755 -0.1725  0.3245  0.4038
  945MOL0     O30320   6.959   8.426   8.805 -0.3834  0.0823  0.5643
  945MOL0     C30321   6.794   8.604   8.540 -0.5775  1.1246 -0.1456
  945MOL0     C30322   6.674   8.634   8.475  0.3550  0.0275 -0.6563
  945MOL0     N30323   6.033   8.573   8.013  0.6564 -0.0169  0.4244
  945MOL0     N30324   6.069   8.629   7.901 -0.2969 -0.5270 -0.7474
  945MOL0     C30325   5.185   9.038   7.440  0.3325  0.7154 -0.0497
  945MOL0     C30326   5.047   9.024   7.447 -0.5236 -0.3543  0.0374
  945MOL0     C30327   4.617   8.924   7.547 -0.0517  1.0459  0.1081
  945MOL0     C30328   4.585   8.803   7.598  0.2604  0.0072  0.6024
  945MOL0     C30329   4.456   8.773   7.647  0.3498  0.1254 -1.2587
  945MOL0     C30330   4.356   8.867   7.635  0.9880  0.5051  0.3784
  945MOL0     O30331   4.234   8.821   7.679 -0.4385 -0.7567 -0.7472
  945MOL0     C30332   4.125   8.922   7.679 -0.4671 -0.5473  0.5347
  945MOL0     C30333   3.981   8.874   7.721 -0.2512 -0.7115 -0.0844
  945MOL0     C30334   3.929   8.766   7.617  0.1683  0.8029 -0.3514
  945MOL0     C30335   3.803   8.695   7.668 -0.8077  0.3361 -0.2351
  945MOL0     C30336   3.684   8.783   7.653  0.5521  1.2737 -0.3132
  945MOL0     C30337   3.592   8.854   7.639  0.4767 -0.3004 -0.3098
  945MOL0     C30338   4.386   8.996   7.579 -0.0003  0.6955 -0.4831
  945MOL0     C30339   4.520   9.022   7.544  1.3600 -0.2786  1.2002
  945MOL0     C30340   4.551   9.159   7.503  0.2329 -0.9210 -0.8798
  945MOL0     H30341   5.049   8.808   7.718  0.6207 -0.4535 -0.4378
  945MOL0     H30342   5.280   8.846   7.710 -1.3726 -0.5193  1.5184
  945MOL0     H30343   5.485   9.099   7.338  1.5795  1.8302  1.8315
  945MOL0     H30344   5.417   8.935   7.335 -0.3396 -0.5624  0.5610
  945MOL0     H30345   5.583   8.874   7.494 -1.4500  0.6869  0.0404
  945MOL0     H30346   5.655   8.910   7.326 -1.1292  0.6923 -1.3549
  945MOL0     H30347   5.734   9.124   7.394 -1.8887  1.3065  0.4462
  945MOL0     H30348   5.639   9.112   7.546  0.1772 -0.9744 -0.1105
  945MOL0     H30349   5.783   8.918   7.603  1.5369 -0.3774  0.5618
  945MOL0     H30350   5.864   8.931   7.441 -1.2935 -1.2556 -0.4291
  945MOL0     H30351   5.885   9.144   7.659  0.6874 -0.0999  0.4634
  945MOL0     H30352   5.963   9.142   7.499  2.8007 -0.1726 -0.7585
  945MOL0     H30353   6.098   8.958   7.588 -0.7671 -0.4044 -0.3758
  945MOL0     H30354   6.107   9.089   7.707 -1.3812 -0.2961  2.4082
  945MOL0     H30355   5.926   8.858   7.755 -2.2192  1.6591  0.6003
  945MOL0     H30356   5.957   9.001   7.845 -1.9718 -2.2834  0.0355
  945MOL0     H30357   6.176   8.812   7.763  2.0163  2.0303 -1.5377
  945MOL0     H30358   6.187   8.947   7.875 -1.5259  0.4068  1.1856
  945MOL0     H30359   6.105   8.875   8.134 -1.2118  1.6718 -0.0201
  945MOL0     H30360   6.006   8.503   8.267  0.2937  0.3776 -0.0190
  945MOL0     H30361   5.937   8.651   8.318 -0.7166 -0.7631  0.6328
  945MOL0     H30362   6.162   8.737   8.370 -1.3475 -0.4358 -1.3173
  945MOL0     H30363   6.152   8.585   8.454  0.0078 -2.4020 -0.4115
  945MOL0     H30364   6.289   8.468   8.292 -0.4846  0.0850 -0.7714
  945MOL0     H30365   6.273   8.595   8.176 -0.2550  2.5380  1.1567
  945MOL0     H30366   6.502   8.614   8.269 -1.3958  1.6040 -3.0403
  945MOL0     H30367   6.413   8.745   8.348  0.7621 -1.0469  2.8815
  945MOL0     H30368   6.495   8.416   8.669  0.6285  1.1219  3.8188
  945MOL0     H30369   6.581   8.359   8.859  0.1594 -0.2974  3.5146
  945MOL0     H30370   6.733   8.441   8.911  2.4497 -1.3933 -0.0650
  945MOL0     H30371   6.747   8.288   8.816  1.2974  2.1459 -2.4508
  945MOL0     H30372   7.175   8.826   8.622 -0.5117  0.6104 -0.5457
  945MOL0     H30373   7.405   8.858   8.657  0.4763  0.8173  1.2025
  945MOL0     H30374   7.619   8.797   8.598  1.0294 -0.7930 -0.8439
  945MOL0     H30375   7.594   8.888   8.747 -3.0033 -1.8032 -1.1352
  945MOL0     H30376   7.843   8.716   8.715 -1.8670 -0.7520 -0.7628
  945MOL0     H30377   7.830   8.880   8.650  0.4289 -2.2977 -1.4642
  945MOL0     H30378   7.924   8.822   8.902  0.8253  1.2998 -1.3882
  945MOL0     H30379   7.748   8.855   8.925  0.9064  1.5711  1.3576
  945MOL0     H30380   7.864   9.079   8.942 -2.0614  1.3278 -1.4289
  945MOL0     H30381   7.778   9.069   8.798 -0.2512 -0.1112  1.5941
  945MOL0     H30382   8.008   8.998   8.681 -2.0123 -0.3177  0.4739
  945MOL0     H30383   7.961   9.161   8.712  1.5406 -0.1561 -1.9351
  945MOL0     H30384   8.086   9.179   8.892 -1.4996  0.3702 -0.9870
  945MOL0     H30385   8.181   9.149   8.750 -0.3926  0.2868 -0.3916
  945MOL0     H30386   8.107   8.935   8.968 -0.0202 -0.8643  0.0904
  945MOL0     H30387   8.261   9.032   8.965  3.2143 -1.7038 -1.8311
  945MOL0     H30388   8.345   8.845   8.856 -1.0237 -2.7410  1.5441
  945MOL0     H30389   8.295   8.955   8.731 -1.1349  0.6472  0.5245
  945MOL0     H30390   7.441   8.463   8.823  0.9383  0.0011 -1.1713
  945MOL0     H30391   7.207   8.429   8.777 -0.3549  0.5401  1.0933
  945MOL0     H30392   6.881   8.659   8.504 -0.4223  0.9076 -0.1071
  945MOL0     H30393   6.664   8.705   8.394 -0.3430 -2.0901 -2.5527
  945MOL0     H30394   5.229   9.107   7.368  0.1480 -0.3375 -1.2292
  945MOL0     H30395   4.991   9.097   7.389 -0.1257  0.5320  0.7476
  945MOL0     H30396   4.659   8.729   7.626  1.8707  0.7285 -1.5042
  945MOL0     H30397   4.429   8.684   7.703  0.1183  0.7381 -0.3729
  945MOL0     H30398   4.155   9.008   7.740 -2.2779  2.6960 -2.6851
  945MOL0     H30399   4.113   8.956   7.576  0.5011 -0.9232  0.2931
  945MOL0     H30400   3.916   8.962   7.722  3.1756  2.3704 -4.7768
  945MOL0     H30401   4.000   8.838   7.823 -0.4877 -0.5470  0.0177
  945MOL0     H30402   3.899   8.807   7.520  2.0889  1.1318 -0.8339
  945MOL0     H30403   4.012   8.696   7.607  0.8947  1.7855 -1.3190
  945MOL0     H30404   3.811   8.671   7.774 -1.6898  2.1997  0.2868
  945MOL0     H30405   3.801   8.605   7.605  0.4659  1.0395 -1.3471
  945MOL0     H30406   3.499   8.908   7.632 -0.4567 -1.4527  2.0030
  945MOL0     H30407   4.315   9.078   7.577  1.2222  1.9585  2.1619
  945MOL0     H30408   4.482   9.231   7.548  2.8255  0.4818  1.1940
  945MOL0     H30409   4.651   9.183   7.542 -0.6010  0.4658  0.5174
  945MOL0     H30410   4.551   9.160   7.394 -3.5774 -1.5982 -1.0130
  946MOL0     O30411   9.857   3.013   3.377  0.2948 -0.9433 -0.1001
  946MOL0     C30412   9.828   2.905   3.341  0.1542 -0.3685  0.0920
  946MOL0     O30413   9.917   2.806   3.324 -0.2771 -0.3384 -0.7475
  946MOL0     C30414  10.053   2.839   3.306 -0.1376 -0.3788 -0.4028
  946MOL0     C30415  10.111   2.786   3.190 -0.2939  1.3058  0.3019
  946MOL0     C30416  10.238   2.800   3.162 -0.4773 -0.0990  0.0244
  946MOL0     C30417  10.325   2.869   3.241 -0.5762 -0.5514  0.4590
  946MOL0     O30418  10.454   2.873   3.204  0.1400  0.5648  0.6167
  946MOL0     C30419  10.545   2.973   3.241 -0.2522 -0.5297 -0.4380
  946MOL0     C30420  10.666   2.970   3.146  0.2967 -0.0562  0.3812
  946MOL0     C30421  10.789   3.023   3.220 -0.0471  0.0123  0.5706
  946MOL0     C30422  10.907   3.069   3.131  0.3313  0.3841  0.2168
  946MOL0     C30423  11.029   3.110   3.208 -0.3902  0.1210 -0.3926
  946MOL0     C30424  11.143   3.164   3.119  0.0173  0.4396 -0.7539
  946MOL0     C30425  11.270   3.221   3.188 -0.2227 -0.0792 -0.3199
  946MOL0     C30426  11.264   3.373   3.177 -0.0894  0.6091  0.1884
  946MOL0     N30427  11.370   3.403   3.071  0.3425  0.0372 -0.9415
  946MOL0     C30428  11.467   3.496   3.073 -0.2822  0.5747  0.2937
  946MOL0     C30429  11.514   3.497   2.947 -0.1085 -0.1865  0.4617
  946MOL0     C30430  11.639   3.572   2.897 -0.0345  0.4656  0.2347
  946MOL0     C30431  11.768   3.495   2.888 -0.1896  0.0422  0.5316
  946MOL0     C30432  11.829   3.486   3.029  0.7530 -1.1390 -0.5597
  946MOL0     C30433  11.964   3.427   3.030 -0.6552 -0.6862  0.0559
  946MOL0     O30434  12.044   3.528   2.976 -0.2291 -0.1760 -0.6403
  946MOL0     C30435  12.179   3.508   2.980  0.3828  0.1633 -1.0140
  946MOL0     C30436  12.250   3.537   2.870  0.2175 -0.1989 -0.2020
  946MOL0     C30437  12.387   3.520   2.865 -0.6132 -0.1014  0.1329
  946MOL0     C30438  12.460   3.571   2.745  0.1696 -0.1202  0.3074
  946MOL0     C30439  12.452   3.461   2.976  0.3072 -0.1189  0.1382
  946MOL0     C30440  12.593   3.439   2.971 -0.2231  0.8290  0.0814
  946MOL0     O30441  12.644   3.337   2.900 -0.4202  0.2333 -0.0664
  946MOL0     C30442  12.769   3.288   2.924 -0.0753 -0.2604  1.0764
  946MOL0     C30443  12.803   3.161   2.975  0.9571  0.4126  0.4714
  946MOL0     C30444  12.929   3.117   3.000 -0.7395 -0.4382  0.3960
  946MOL0     C30445  13.044   3.202   2.971  0.9189  0.5471 -0.1403
  946MOL0     O30446  13.167   3.152   2.995 -0.5702  0.3895  0.2457
  946MOL0     C30447  13.274   3.206   2.917 -0.2470 -0.6928 -0.1370
  946MOL0     C30448  13.267   3.179   2.763  0.8239  0.4021 -0.3551
  946MOL0     C30449  13.282   3.029   2.744  0.6057  0.9993  0.1209
  946MOL0     C30450  13.278   2.982   2.604  0.1432 -0.0729 -0.3149
  946MOL0     C30451  13.358   2.862   2.572 -0.4564  0.7285 -0.2962
  946MOL0     C30452  13.505   2.900   2.560 -0.0254 -1.2396 -0.4626
  946MOL0     C30453  13.600   2.786   2.563 -0.6260  0.2984  0.0821
  946MOL0     C30454  13.740   2.810   2.504 -0.2607  0.9126  0.3589
  946MOL0    Cl30455  13.719   2.860   2.340  0.2938  0.1567 -0.4774
  946MOL0     C30456  13.016   3.329   2.921 -0.7672  0.3908 -0.2344
  946MOL0     C30457  12.880   3.366   2.898 -0.3972 -0.3955 -0.7636
  946MOL0     O30458  12.658   3.516   3.045 -0.1304  0.5073 -0.3974
  946MOL0     C30459  12.376   3.437   3.088 -0.5224 -0.7922 -0.6686
  946MOL0     C30460  12.242   3.463   3.099  0.9511  0.8568 -0.3104
  946MOL0     N30461  11.438   3.423   2.861 -0.2926 -0.3066 -0.8206
  946MOL0     N30462  11.348   3.359   2.942 -0.1537 -0.5423 -0.5920
  946MOL0     C30463  10.268   2.925   3.358  0.6007 -0.7409 -0.7587
  946MOL0     C30464  10.136   2.909   3.389  0.3248 -0.5444 -0.2117
  946MOL0     C30465   9.679   2.878   3.341  1.6430  0.6899 -0.6131
  946MOL0     C30466   9.645   2.747   3.300 -0.1700  0.9301  0.1471
  946MOL0     C30467   9.517   2.694   3.286  0.7931 -0.6221 -0.0152
  946MOL0     C30468   9.414   2.780   3.314 -0.2937  0.3334 -0.3106
  946MOL0     O30469   9.284   2.735   3.297  0.4573  0.1386 -1.0113
  946MOL0     C30470   9.245   2.634   3.203  0.4034 -0.9407  0.0772
  946MOL0     C30471   9.100   2.663   3.160  0.5156  0.7368 -0.0777
  946MOL0     C30472   9.101   2.751   3.035 -0.1762 -0.2233  0.1386
  946MOL0     C30473   9.151   2.889   3.060  0.5063 -0.7804 -0.0614
  946MOL0     C30474   9.285   2.899   3.015  0.4301  0.0244  0.5822
  946MOL0     C30475   9.400   2.909   2.993 -0.7252 -0.0177 -0.2388
  946MOL0     C30476   9.438   2.908   3.366  0.8164  0.2616 -1.3800
  946MOL0     C30477   9.572   2.954   3.384  0.6312  0.1043 -0.2291
  946MOL0     C30478   9.591   3.089   3.434 -0.0609 -1.3418  0.4209
  946MOL0     H30479  10.054   2.717   3.128  0.9523 -1.8498  2.4197
  946MOL0     H30480  10.276   2.750   3.074  0.8914 -1.4262  1.3238
  946MOL0     H30481  10.560   2.957   3.348 -0.8530  0.0033 -0.2688
  946MOL0     H30482  10.494   3.069   3.228 -2.7304 -1.6881  0.0615
  946MOL0     H30483  10.681   2.869   3.106  2.7686 -0.6063  2.4234
  946MOL0     H30484  10.656   3.038   3.061 -0.2246  0.1235  0.5831
  946MOL0     H30485  10.771   3.107   3.288  1.7164  0.8095  0.0915
  946MOL0     H30486  10.822   2.937   3.279  0.8299 -0.0777 -0.0319
  946MOL0     H30487  10.936   2.992   3.059 -0.1787 -0.6961  1.1492
  946MOL0     H30488  10.872   3.154   3.071  2.6360  0.5890 -0.9368
  946MOL0     H30489  11.067   3.028   3.269 -1.7066 -1.6912 -1.9055
  946MOL0     H30490  11.011   3.199   3.268 -4.8677 -0.2451 -0.8935
  946MOL0     H30491  11.188   3.086   3.056  2.0788  3.0250 -2.7289
  946MOL0     H30492  11.093   3.226   3.044 -2.8469 -2.3033 -1.3561
  946MOL0     H30493  11.364   3.184   3.148 -0.5552  0.1531 -1.3571
  946MOL0     H30494  11.270   3.203   3.296  0.5335 -1.3574 -0.5162
  946MOL0     H30495  11.164   3.398   3.142  0.3207  0.5935 -1.0915
  946MOL0     H30496  11.279   3.416   3.276  0.5156  0.5598  0.1243
  946MOL0     H30497  11.502   3.560   3.154 -1.9901  3.9877 -1.4822
  946MOL0     H30498  11.648   3.672   2.941 -0.3035  0.3419  0.5813
  946MOL0     H30499  11.619   3.606   2.795  3.0928 -0.1540 -0.6977
  946MOL0     H30500  11.746   3.392   2.858 -0.7508  0.3538 -0.1238
  946MOL0     H30501  11.835   3.537   2.813 -0.6329 -2.4672 -1.4042
  946MOL0     H30502  11.835   3.581   3.083  1.6766 -1.9806  0.8850
  946MOL0     H30503  11.765   3.417   3.086 -0.8429  1.0773  0.4724
  946MOL0     H30504  11.988   3.401   3.133  0.6736 -4.5365 -1.0238
  946MOL0     H30505  11.972   3.336   2.968 -1.8505 -0.0681 -1.0583
  946MOL0     H30506  12.194   3.582   2.789 -0.2537  1.3384  0.9168
  946MOL0     H30507  12.555   3.522   2.722  0.0576 -0.7569  1.1535
  946MOL0     H30508  12.479   3.676   2.770 -1.1269  0.0694  0.5783
  946MOL0     H30509  12.399   3.569   2.654  2.0434 -0.7873 -0.9846
  946MOL0     H30510  12.719   3.095   2.997  1.0100 -0.2432 -1.1149
  946MOL0     H30511  12.962   3.024   3.047  0.9157  0.6973  1.5874
  946MOL0     H30512  13.281   3.314   2.934  0.4846 -0.9562  1.3862
  946MOL0     H30513  13.367   3.157   2.947  0.7439  0.1912 -1.6489
  946MOL0     H30514  13.173   3.223   2.727  0.6226 -0.0444 -0.3871
  946MOL0     H30515  13.354   3.229   2.719  1.1932 -1.9585 -2.5620
  946MOL0     H30516  13.203   2.973   2.795 -0.0410  1.2153 -0.6280
  946MOL0     H30517  13.376   3.003   2.793 -0.6179 -0.0833  2.0724
  946MOL0     H30518  13.329   3.056   2.541  2.7770 -0.9876  0.5911
  946MOL0     H30519  13.174   2.973   2.573 -0.2686 -2.4064  1.4842
  946MOL0     H30520  13.341   2.786   2.649  2.2190 -2.1720 -2.2929
  946MOL0     H30521  13.328   2.814   2.478 -1.3350  3.7622 -1.6942
  946MOL0     H30522  13.542   2.970   2.635 -1.2367 -0.9767 -0.0908
  946MOL0     H30523  13.516   2.953   2.464  0.7365 -2.1756 -0.9116
  946MOL0     H30524  13.554   2.707   2.503  1.1543 -1.3370  0.7743
  946MOL0     H30525  13.607   2.756   2.667  2.6719 -0.7335 -0.3362
  946MOL0     H30526  13.802   2.723   2.530 -3.4610 -1.3785  1.0017
  946MOL0     H30527  13.788   2.890   2.562  0.2991  1.1816 -0.4727
  946MOL0     H30528  13.095   3.402   2.906  0.2910 -0.3276  1.5393
  946MOL0     H30529  12.865   3.464   2.855 -1.8297 -0.7502 -1.1141
  946MOL0     H30530  12.422   3.410   3.183  0.3738  0.7105 -0.6555
  946MOL0     H30531  12.194   3.445   3.194  0.0282  3.8628 -0.0979
  946MOL0     H30532  10.336   2.965   3.433 -2.1458 -2.2055  2.8280
  946MOL0     H30533  10.101   2.966   3.474 -2.5494 -1.2302 -0.8545
  946MOL0     H30534   9.720   2.669   3.289 -0.3668  0.5584  1.3232
  946MOL0     H30535   9.491   2.593   3.259 -0.1732 -0.2140 -0.6782
  946MOL0     H30536   9.310   2.637   3.114  1.7550  0.0057  1.0517
  946MOL0     H30537   9.260   2.533   3.241  0.4083 -1.5110 -1.3791
  946MOL0     H30538   9.038   2.719   3.230  1.3443  1.9239 -0.2710
  946MOL0     H30539   9.051   2.566   3.147  2.1196 -0.1597  0.3507
  946MOL0     H30540   9.161   2.689   2.967 -0.8982 -5.7896  3.8932
  946MOL0     H30541   9.000   2.747   2.993  0.3844  0.1397 -1.3082
  946MOL0     H30542   9.138   2.912   3.166  1.2033  0.9141 -0.3084
  946MOL0     H30543   9.096   2.964   3.002 -0.7596 -1.4272  0.2452
  946MOL0     H30544   9.505   2.927   2.990 -0.5431 -0.4855  2.0560
  946MOL0     H30545   9.357   2.980   3.378 -1.8287 -2.5503 -1.2872
  946MOL0     H30546   9.670   3.092   3.510  0.0671 -0.3882  0.2614
  946MOL0     H30547   9.612   3.158   3.352  0.8254 -0.0454  1.6977
  946MOL0     H30548   9.505   3.132   3.487 -0.6547  0.5171 -1.8863
  947MOL0     O30549  10.689   7.003   9.352  0.4092 -0.3801 -0.5274
  947MOL0     C30550  10.632   6.984   9.249  0.0206  0.6540  0.0830
  947MOL0     O30551  10.665   6.885   9.158  0.5755 -0.3122 -0.3949
  947MOL0     C30552  10.782   6.820   9.187 -0.6396  0.5009 -0.9978
  947MOL0     C30553  10.780   6.707   9.272  0.2229 -0.2616  0.4306
  947MOL0     C30554  10.903   6.645   9.313  0.4530  0.5913 -0.2230
  947MOL0     C30555  11.028   6.694   9.266 -0.6974  0.1141 -0.5926
  947MOL0     O30556  11.158   6.642   9.297  0.2522  0.0616  0.0238
  947MOL0     C30557  11.176   6.544   9.406 -0.4124 -0.2964  0.1662
  947MOL0     C30558  11.293   6.464   9.359 -0.4023 -1.1767 -0.0143
  947MOL0     C30559  11.293   6.322   9.394  0.1483  0.0951  0.6918
  947MOL0     C30560  11.419   6.248   9.332  0.1686 -0.4046 -0.7586
  947MOL0     C30561  11.429   6.101   9.362 -0.1446  0.4914 -0.8006
  947MOL0     C30562  11.415   6.065   9.513 -0.2655 -0.4622  0.6110
  947MOL0     C30563  11.419   5.910   9.530 -0.5305  0.2358  0.0119
  947MOL0     C30564  11.299   5.857   9.617  0.3909 -0.2980 -0.6978
  947MOL0     N30565  11.306   5.723   9.679 -0.4321 -0.5156 -0.8441
  947MOL0     C30566  11.410   5.652   9.725 -0.1762 -0.8298  0.0534
  947MOL0     C30567  11.356   5.538   9.769  0.4066  0.4067 -0.2423
  947MOL0     C30568  11.417   5.422   9.843  0.5775 -1.1352  0.7126
  947MOL0     C30569  11.469   5.317   9.746 -0.3803  0.9200  0.0064
  947MOL0     C30570  11.578   5.231   9.807  1.3045  0.0704 -0.4596
  947MOL0     C30571  11.692   5.316   9.861  0.1920  0.1034 -1.0561
  947MOL0     O30572  11.803   5.223   9.880 -0.3739  0.0320 -0.7667
  947MOL0     C30573  11.917   5.281   9.925 -0.1973  0.1891 -0.2667
  947MOL0     C30574  11.921   5.369  10.033 -0.1021 -0.8029 -1.2410
  947MOL0     C30575  12.044   5.422  10.080 -0.3163 -0.8170 -0.0486
  947MOL0     C30576  12.034   5.511  10.202  0.3561 -0.3959  0.4156
  947MOL0     C30577  12.164   5.382  10.019  0.1320  0.9473 -0.2443
  947MOL0     C30578  12.300   5.433  10.065  0.8356  1.2813  0.0329
  947MOL0     O30579  12.399   5.334  10.052 -0.1198 -0.5162 -0.1700
  947MOL0     C30580  12.525   5.361  10.081 -0.3470 -0.4234  1.0820
  947MOL0     C30581  12.590   5.327  10.199 -0.9770  0.3979 -0.3818
  947MOL0     C30582  12.722   5.364  10.233  1.0136  0.0476 -1.1549
  947MOL0     C30583  12.793   5.442  10.145 -0.3623  0.4516  0.4695
  947MOL0     O30584  12.922   5.481  10.158  0.2272 -0.0726  0.0637
  947MOL0     C30585  12.972   5.507  10.291 -0.7157  0.0031 -0.1832
  947MOL0     C30586  13.104   5.592  10.271 -0.2512 -0.7570 -0.2238
  947MOL0     C30587  13.159   5.646  10.409  0.5591 -0.2379  0.7817
  947MOL0     C30588  13.268   5.563  10.465  0.0233 -0.0143 -0.3398
  947MOL0     C30589  13.298   5.586  10.615 -0.0924 -0.4858  0.4264
  947MOL0     C30590  13.332   5.734  10.644 -0.2170 -0.4798  0.5321
  947MOL0     C30591  13.334   5.780  10.790  0.2114  0.1301 -0.4491
  947MOL0     C30592  13.436   5.704  10.877  0.1984 -0.9579  1.3219
  947MOL0    Cl30593  13.455   5.769  11.045  0.1449  0.0294 -0.3166
  947MOL0     C30594  12.732   5.478  10.020  0.8534  0.8770 -0.3218
  947MOL0     C30595  12.600   5.435   9.990 -0.3189  0.4968  0.0158
  947MOL0     O30596  12.313   5.551  10.098 -0.9987 -0.2705 -0.0586
  947MOL0     C30597  12.159   5.296   9.911  0.4566 -0.6147  0.8457
  947MOL0     C30598  12.041   5.247   9.855 -0.2463 -0.2853 -0.6153
  947MOL0     N30599  11.221   5.539   9.736  0.2784 -0.4761  0.7399
  947MOL0     N30600  11.195   5.650   9.684  0.5923 -0.2696  0.0857
  947MOL0     C30601  11.026   6.805   9.192  0.7209 -0.2334  0.7175
  947MOL0     C30602  10.911   6.866   9.150 -0.3692  0.3733  0.9396
  947MOL0     C30603  10.530   7.076   9.203  0.2331  0.0875 -0.0181
  947MOL0     C30604  10.518   7.114   9.070 -0.5690 -0.0612  0.5491
  947MOL0     C30605  10.424   7.204   9.026 -0.2504 -0.3783  0.5463
  947MOL0     C30606  10.333   7.261   9.116 -0.3969  0.0790  0.4685
  947MOL0     O30607  10.233   7.335   9.073 -0.3103  0.0283 -0.5838
  947MOL0     C30608  10.138   7.271   8.986 -0.7396 -0.5898 -0.3581
  947MOL0     C30609  10.131   7.366   8.859  0.4428  0.8549  0.1572
  947MOL0     C30610  10.116   7.517   8.902 -0.7678 -0.5739  0.0360
  947MOL0     C30611  10.000   7.543   9.004  0.7491  0.2518  0.2144
  947MOL0     C30612   9.870   7.511   8.941 -0.3365 -0.4256  0.7120
  947MOL0     C30613   9.757   7.477   8.914  0.7342 -0.5583 -0.1632
  947MOL0     C30614  10.354   7.233   9.252  0.1076  0.2219  0.0488
  947MOL0     C30615  10.445   7.144   9.294 -0.3244  0.0626  0.2587
  947MOL0     C30616  10.458   7.128   9.448 -0.2374 -0.5522  0.0032
  947MOL0     H30617  10.691   6.664   9.315 -0.4045  0.3706 -0.2122
  947MOL0     H30618  10.902   6.555   9.374 -0.8033 -0.5695 -1.8846
  947MOL0     H30619  11.089   6.479   9.417  0.7575 -1.8218  0.8144
  947MOL0     H30620  11.204   6.590   9.501 -0.7431 -1.8412  1.0470
  947MOL0     H30621  11.292   6.459   9.250  1.7595 -1.1742 -0.0729
  947MOL0     H30622  11.385   6.505   9.402  1.2925 -2.4759 -2.1478
  947MOL0     H30623  11.284   6.310   9.503 -1.8592 -3.8731  0.2876
  947MOL0     H30624  11.205   6.274   9.349  0.6820  0.9069 -1.3218
  947MOL0     H30625  11.439   6.273   9.228  0.0016  3.1739 -0.0534
  947MOL0     H30626  11.503   6.281   9.395 -0.0144  3.1300 -2.1442
  947MOL0     H30627  11.512   6.049   9.314 -0.4909 -0.0407 -0.8384
  947MOL0     H30628  11.344   6.046   9.321 -0.6592  0.0222  0.8054
  947MOL0     H30629  11.502   6.106   9.566 -1.4606  0.9700  1.5081
  947MOL0     H30630  11.334   6.117   9.564  0.3748  2.2501 -0.9417
  947MOL0     H30631  11.512   5.882   9.582  0.1507  1.7526 -0.3105
  947MOL0     H30632  11.426   5.849   9.440 -0.0383 -0.5938  0.5997
  947MOL0     H30633  11.279   5.923   9.703 -1.5007 -3.0605  1.1683
  947MOL0     H30634  11.207   5.868   9.560  0.7089  5.7986 -0.6940
  947MOL0     H30635  11.509   5.688   9.751 -0.0334  1.3510 -3.0184
  947MOL0     H30636  11.334   5.381   9.902 -0.2554  3.1963  2.9942
  947MOL0     H30637  11.490   5.466   9.912 -1.4773 -0.4196  2.5420
  947MOL0     H30638  11.393   5.251   9.703  0.5801  1.0836 -2.0854
  947MOL0     H30639  11.510   5.364   9.656 -1.2361 -1.5956 -1.8364
  947MOL0     H30640  11.533   5.172   9.888  0.4528  0.8416 -0.3569
  947MOL0     H30641  11.614   5.165   9.728  0.3057 -1.5402  0.3547
  947MOL0     H30642  11.717   5.394   9.789  0.5713 -1.8731 -3.1966
  947MOL0     H30643  11.661   5.361   9.955 -3.5452 -0.4364 -1.8599
  947MOL0     H30644  11.835   5.414  10.082  1.5723  2.2107 -0.8568
  947MOL0     H30645  11.937   5.512  10.251 -0.1104  0.5018 -0.4823
  947MOL0     H30646  12.052   5.615  10.172  2.7692 -1.5352 -2.6379
  947MOL0     H30647  12.113   5.491  10.275  0.3591 -0.2653  0.4503
  947MOL0     H30648  12.523   5.275  10.266  1.4835  1.3310  3.0351
  947MOL0     H30649  12.764   5.350  10.332  0.7448  2.9866 -0.5347
  947MOL0     H30650  12.897   5.566  10.345 -1.1188 -0.0457 -0.6937
  947MOL0     H30651  12.996   5.416  10.347  1.0309  1.3095  1.3643
  947MOL0     H30652  13.186   5.536  10.226  0.5213 -2.9191  3.5395
  947MOL0     H30653  13.088   5.673  10.198  3.0878  1.4474  1.2545
  947MOL0     H30654  13.066   5.652  10.466  0.2870  1.3648  0.2277
  947MOL0     H30655  13.197   5.748  10.408 -1.1026  0.4904  3.0223
  947MOL0     H30656  13.352   5.596  10.403 -2.1667  4.0194 -1.5416
  947MOL0     H30657  13.237   5.462  10.439  0.9429  0.2036 -2.5491
  947MOL0     H30658  13.215   5.564  10.682 -2.2582 -1.8683 -2.4730
  947MOL0     H30659  13.392   5.537  10.641 -0.1087 -1.1751 -0.7236
  947MOL0     H30660  13.246   5.790  10.606  0.6623 -0.9388 -2.3918
  947MOL0     H30661  13.418   5.771  10.589 -0.4245 -1.2621 -0.3383
  947MOL0     H30662  13.241   5.772  10.848 -0.2666  1.7074 -0.9543
  947MOL0     H30663  13.362   5.886  10.789  0.6972  0.0005 -1.0206
  947MOL0     H30664  13.534   5.702  10.828  1.2539  0.6306  3.1997
  947MOL0     H30665  13.401   5.601  10.887 -2.7787 -0.3595 -1.4151
  947MOL0     H30666  12.787   5.530   9.942  1.1701  1.2901  0.1758
  947MOL0     H30667  12.550   5.471   9.900  2.6234  3.5060 -0.6375
  947MOL0     H30668  12.258   5.279   9.868  0.8143 -2.0566  2.1417
  947MOL0     H30669  12.049   5.176   9.773  1.9371  1.1366 -1.7387
  947MOL0     H30670  11.130   6.836   9.184  1.8196 -3.6358  0.4023
  947MOL0     H30671  10.906   6.960   9.096 -2.8229 -0.5363 -0.5739
  947MOL0     H30672  10.583   7.069   8.995  0.8012  0.3018  1.4856
  947MOL0     H30673  10.418   7.236   8.922 -0.2732  0.6925  0.8631
  947MOL0     H30674  10.169   7.169   8.960  1.9973  0.7469 -2.8705
  947MOL0     H30675  10.046   7.268   9.046  0.1140  1.0905  1.1227
  947MOL0     H30676  10.050   7.336   8.791  4.6698 -3.5473 -3.6878
  947MOL0     H30677  10.216   7.359   8.791 -0.2029 -0.2459 -0.5609
  947MOL0     H30678  10.217   7.547   8.933  0.4425 -1.3279 -2.8456
  947MOL0     H30679  10.091   7.578   8.815 -0.5403 -0.6302 -0.0707
  947MOL0     H30680  10.000   7.650   9.027 -0.6352  0.4736 -0.7412
  947MOL0     H30681  10.017   7.488   9.098  1.2448 -0.7542 -0.4450
  947MOL0     H30682   9.658   7.440   8.905  0.5155  0.0201 -0.1982
  947MOL0     H30683  10.274   7.272   9.313 -2.0647  0.1175 -2.5439
  947MOL0     H30684  10.535   7.190   9.495 -0.7826  0.0470  0.1151
  947MOL0     H30685  10.363   7.152   9.496 -0.7511 -0.9278 -0.7983
  947MOL0     H30686  10.475   7.021   9.465  2.3568 -0.9354 -3.7463
  948MOL0     O30687   8.830   0.526  11.128 -0.3083 -0.4128 -0.6724
  948MOL0     C30688   8.782   0.416  11.142  0.0785 -0.3623 -0.2076
  948MOL0     O30689   8.852   0.301  11.182 -0.5653 -0.0472  0.2489
  948MOL0     C30690   8.978   0.321  11.229 -1.0767  0.7236  0.7321
  948MOL0     C30691   9.012   0.335  11.367 -0.4033  0.5228 -0.2874
  948MOL0     C30692   9.144   0.357  11.405 -0.2016  0.0197  0.2545
  948MOL0     C30693   9.250   0.362  11.309 -0.0630 -0.3331  0.3300
  948MOL0     O30694   9.380   0.391  11.338 -0.0763 -0.3998  0.7353
  948MOL0     C30695   9.438   0.346  11.458 -0.0986  0.2462  0.0616
  948MOL0     C30696   9.594   0.350  11.452 -0.1194 -0.6496  0.2929
  948MOL0     C30697   9.651   0.242  11.362  0.1754 -0.0680  0.1629
  948MOL0     C30698   9.597   0.249  11.220 -0.2966  0.6662 -0.1062
  948MOL0     C30699   9.691   0.183  11.108 -0.0057 -0.4078 -0.1029
  948MOL0     C30700   9.629   0.215  10.966  0.1831 -0.4808  0.8200
  948MOL0     C30701   9.727   0.216  10.850  0.0067 -0.0595  0.7929
  948MOL0     C30702   9.823   0.338  10.864 -0.1894  0.4422 -0.5319
  948MOL0     N30703   9.904   0.342  10.747 -0.3276  0.1183  0.3799
  948MOL0     C30704   9.862   0.384  10.627 -0.7975  0.3012  0.7225
  948MOL0     C30705   9.971   0.370  10.537  0.2680 -0.0809 -0.0742
  948MOL0     C30706   9.965   0.397  10.385  0.7393 -0.3719 -0.8155
  948MOL0     C30707   9.996   0.539  10.353 -0.1010 -0.1497  0.0310
  948MOL0     C30708  10.112   0.612  10.425  0.0874 -0.0283  0.2966
  948MOL0     C30709  10.250   0.573  10.363 -0.2402 -0.3540  0.0343
  948MOL0     O30710  10.358   0.643  10.409  0.1191 -0.7720 -0.1802
  948MOL0     C30711  10.393   0.650  10.539  0.0325  0.3116 -0.2647
  948MOL0     C30712  10.470   0.757  10.580 -0.0978 -0.9609  0.6945
  948MOL0     C30713  10.520   0.773  10.713  0.4070  0.4988  0.8694
  948MOL0     C30714  10.614   0.885  10.740 -0.2262 -0.5505 -0.3272
  948MOL0     C30715  10.460   0.694  10.813  0.5934 -0.1031 -1.0957
  948MOL0     C30716  10.489   0.711  10.958  0.1145  0.6643 -0.7915
  948MOL0     O30717  10.466   0.610  11.035  0.0986 -0.2486 -0.2557
  948MOL0     C30718  10.449   0.611  11.173  1.2009  0.3580  0.7461
  948MOL0     C30719  10.517   0.507  11.243  0.3365  0.4070 -0.4395
  948MOL0     C30720  10.484   0.484  11.386 -0.4049  0.6298  0.9715
  948MOL0     C30721  10.396   0.561  11.450 -0.7508  0.2980  0.3526
  948MOL0     O30722  10.359   0.519  11.578  0.3352 -0.0465  0.2406
  948MOL0     C30723  10.250   0.597  11.628  0.1635 -0.4454 -0.3153
  948MOL0     C30724  10.219   0.567  11.778  0.1160 -1.0193 -0.0514
  948MOL0     C30725  10.333   0.602  11.867  0.0715  0.1624 -0.3008
  948MOL0     C30726  10.291   0.600  12.018  0.2795 -0.2924 -0.2660
  948MOL0     C30727  10.415   0.622  12.107 -0.1135 -0.0313  0.1887
  948MOL0     C30728  10.487   0.492  12.132 -0.8447  0.4835  0.2935
  948MOL0     C30729  10.432   0.427  12.257 -0.6393  0.1369  0.0827
  948MOL0     C30730  10.504   0.308  12.290 -0.1125  0.8005  0.4683
  948MOL0    Cl30731  10.435   0.268  12.448  0.3589 -0.6088 -0.0580
  948MOL0     C30732  10.332   0.666  11.376 -0.0971  0.4184 -1.0633
  948MOL0     C30733  10.361   0.688  11.241 -0.1678 -0.4316  0.6866
  948MOL0     O30734  10.510   0.824  11.011  0.0444  0.3825 -0.0695
  948MOL0     C30735  10.388   0.573  10.771  0.2145  1.4479 -0.3109
  948MOL0     C30736  10.345   0.561  10.637  0.0429 -0.3644 -0.3557
  948MOL0     N30737  10.077   0.339  10.621 -0.1245  0.0967 -0.3773
  948MOL0     N30738  10.038   0.312  10.743 -0.2354 -0.3369 -0.0371
  948MOL0     C30739   9.215   0.340  11.176  0.4672  0.5259 -0.7162
  948MOL0     C30740   9.079   0.329  11.134 -1.1550  0.2847 -0.3923
  948MOL0     C30741   8.632   0.400  11.103 -0.0576  0.2373  0.4100
  948MOL0     C30742   8.580   0.273  11.114  0.0851 -0.4747 -0.1905
  948MOL0     C30743   8.443   0.245  11.083 -0.7688 -0.2860  0.6805
  948MOL0     C30744   8.357   0.347  11.050 -1.1631 -0.0261 -1.1421
  948MOL0     O30745   8.240   0.306  10.999  0.2842 -0.1350  0.5470
  948MOL0     C30746   8.116   0.357  11.053 -0.4106  0.6484  0.0266
  948MOL0     C30747   8.002   0.260  11.035  0.3396  0.5280 -0.3832
  948MOL0     C30748   7.948   0.245  10.888  0.0930 -0.1419  0.0517
  948MOL0     C30749   7.826   0.149  10.859 -0.1276 -0.1200 -0.9761
  948MOL0     C30750   7.720   0.200  10.786 -0.4042 -0.2609 -0.1842
  948MOL0     C30751   7.630   0.228  10.716  0.9174 -1.1161  0.3214
  948MOL0     C30752   8.402   0.477  11.049 -0.2806 -0.3884 -0.7955
  948MOL0     C30753   8.541   0.505  11.071 -0.4302 -0.3182  0.0892
  948MOL0     C30754   8.581   0.651  11.068 -0.4054 -0.5255  0.4637
  948MOL0     H30755   8.929   0.331  11.436 -2.1170  1.6860 -2.1849
  948MOL0     H30756   9.165   0.379  11.509 -0.1174  1.7270 -0.0958
  948MOL0     H30757   9.404   0.245  11.482  1.4950 -0.3094  0.1222
  948MOL0     H30758   9.411   0.406  11.545  0.7217  3.4565 -1.7023
  948MOL0     H30759   9.632   0.449  11.424  1.0624 -0.8623  1.0760
  948MOL0     H30760   9.636   0.334  11.552 -0.3824  1.6950  0.8443
  948MOL0     H30761   9.756   0.271  11.350 -0.7327  2.4867 -3.7534
  948MOL0     H30762   9.631   0.145  11.407  2.0333 -0.5397  0.0333
  948MOL0     H30763   9.497   0.204  11.223 -0.6656  1.5161  0.6607
  948MOL0     H30764   9.577   0.354  11.198  0.5717  1.3840  2.2895
  948MOL0     H30765   9.700   0.076  11.123  0.9727 -0.4381 -0.8452
  948MOL0     H30766   9.792   0.225  11.108  0.5604 -1.4144 -4.0803
  948MOL0     H30767   9.553   0.140  10.941 -0.8367  0.9857 -0.7088
  948MOL0     H30768   9.577   0.311  10.971  0.1501 -0.4426 -0.0983
  948MOL0     H30769   9.667   0.229  10.759  0.1465  0.6364  0.7959
  948MOL0     H30770   9.776   0.119  10.845 -2.5882 -1.5033  1.5984
  948MOL0     H30771   9.774   0.434  10.883 -0.0978  0.6577 -1.3170
  948MOL0     H30772   9.893   0.328  10.947 -0.2428 -0.6314 -0.5963
  948MOL0     H30773   9.757   0.405  10.608 -1.0999 -1.3297  0.4440
  948MOL0     H30774   9.869   0.365  10.344 -0.3202  1.8334 -0.1714
  948MOL0     H30775  10.042   0.337  10.336  1.9075 -0.2186  0.7573
  948MOL0     H30776  10.015   0.539  10.245  0.1205 -0.0203  0.0706
  948MOL0     H30777   9.899   0.586  10.373 -0.8369 -1.2080 -0.9156
  948MOL0     H30778  10.096   0.720  10.419  1.0244  0.0420 -1.4255
  948MOL0     H30779  10.105   0.577  10.529  0.1094 -0.0819  0.2803
  948MOL0     H30780  10.271   0.466  10.368  3.6286  0.2099 -0.5052
  948MOL0     H30781  10.241   0.593  10.256 -2.7776  0.7557  0.4004
  948MOL0     H30782  10.507   0.828  10.507 -0.9336 -1.6832 -0.4580
  948MOL0     H30783  10.672   0.857  10.828 -3.4270 -1.2899  1.7090
  948MOL0     H30784  10.563   0.979  10.761  2.0164  0.3908  1.2438
  948MOL0     H30785  10.677   0.900  10.652 -0.6084 -0.4434 -0.5817
  948MOL0     H30786  10.585   0.443  11.189 -0.3205 -0.7908  0.0990
  948MOL0     H30787  10.534   0.399  11.432 -0.3160  0.4201  0.4978
  948MOL0     H30788  10.272   0.704  11.628  0.5251 -0.5101  0.7188
  948MOL0     H30789  10.157   0.578  11.574 -0.1029 -2.4198  0.7213
  948MOL0     H30790  10.132   0.623  11.810  0.0191 -0.9176 -0.4808
  948MOL0     H30791  10.206   0.459  11.792 -2.4214 -0.5675  1.5109
  948MOL0     H30792  10.372   0.702  11.844  3.5552 -0.6017  1.6182
  948MOL0     H30793  10.416   0.536  11.841 -0.7627 -1.4237  0.8844
  948MOL0     H30794  10.229   0.513  12.041  1.2843 -1.0892 -0.4469
  948MOL0     H30795  10.229   0.689  12.032  0.3090  0.0109 -1.9432
  948MOL0     H30796  10.481   0.696  12.059 -0.5284  1.6436  2.0600
  948MOL0     H30797  10.374   0.662  12.200 -0.5981  1.5901 -0.6879
  948MOL0     H30798  10.593   0.509  12.153 -0.4124 -2.4835  0.8764
  948MOL0     H30799  10.484   0.424  12.047  1.8884 -1.7646  1.8440
  948MOL0     H30800  10.325   0.408  12.248 -0.6043  0.0887 -0.2670
  948MOL0     H30801  10.447   0.501  12.336  2.3866 -0.7324  0.4464
  948MOL0     H30802  10.612   0.323  12.303  0.7701 -2.8325 -1.2556
  948MOL0     H30803  10.487   0.232  12.213  0.8232  2.0912 -1.0540
  948MOL0     H30804  10.259   0.736  11.415  1.6909  1.8629 -0.2173
  948MOL0     H30805  10.315   0.777  11.199  2.0800 -0.5054 -2.2098
  948MOL0     H30806  10.346   0.509  10.848 -1.5262 -0.0907 -2.4029
  948MOL0     H30807  10.269   0.490  10.604 -0.7231  0.9698 -1.6116
  948MOL0     H30808   9.299   0.329  11.108  0.9990 -0.8129  0.1042
  948MOL0     H30809   9.054   0.321  11.029 -1.4041 -4.5945 -0.2007
  948MOL0     H30810   8.641   0.188  11.144  0.6249  0.3617  1.2466
  948MOL0     H30811   8.410   0.142  11.094  1.0081 -0.9716 -0.0256
  948MOL0     H30812   8.136   0.369  11.160  2.6583 -3.1257  0.0874
  948MOL0     H30813   8.086   0.453  11.009  0.1594  0.7910 -0.0743
  948MOL0     H30814   7.925   0.298  11.103  1.6110 -0.1835  1.5411
  948MOL0     H30815   8.035   0.163  11.074 -0.5022  0.4912  0.2656
  948MOL0     H30816   7.924   0.345  10.853 -0.4213 -0.2824 -0.0032
  948MOL0     H30817   8.034   0.206  10.831  1.2319  0.7222  1.1297
  948MOL0     H30818   7.781   0.135  10.958 -0.2142  1.4976 -0.7681
  948MOL0     H30819   7.864   0.051  10.829  1.5558  0.9476 -2.4615
  948MOL0     H30820   7.569   0.271  10.640  3.5696  1.2100 -0.6569
  948MOL0     H30821   8.343   0.565  11.029  2.4658  2.0809  1.0110
  948MOL0     H30822   8.654   0.666  10.988  1.1076 -0.5839  1.7830
  948MOL0     H30823   8.500   0.717  11.039 -0.3490 -0.6892 -0.0858
  948MOL0     H30824   8.627   0.684  11.162  1.7205  0.2931 -0.7870
  949MOL0     O30825   4.431  11.385   6.439  0.2006  0.1305  0.0701
  949MOL0     C30826   4.457  11.281   6.384  0.4855 -0.0584 -0.1891
  949MOL0     O30827   4.446  11.256   6.263 -0.0421 -0.1698 -0.5569
  949MOL0     C30828   4.376  11.335   6.179 -0.0253  0.3248  0.3363
  949MOL0     C30829   4.423  11.351   6.050 -0.7355 -0.3643 -0.7343
  949MOL0     C30830   4.374  11.450   5.960  0.8474  0.5224  0.3182
  949MOL0     C30831   4.262  11.523   5.998  0.0016  0.0570 -0.4073
  949MOL0     O30832   4.195  11.615   5.915 -0.8476 -0.0620  0.0070
  949MOL0     C30833   4.270  11.678   5.811 -1.5359  0.3842  0.2210
  949MOL0     C30834   4.190  11.793   5.739 -0.5871  0.7813  0.1207
  949MOL0     C30835   4.290  11.861   5.643  0.3170 -0.4587 -0.7258
  949MOL0     C30836   4.388  11.963   5.719 -0.3584 -1.1387 -0.6676
  949MOL0     C30837   4.321  12.092   5.759  0.2030 -0.1909  0.5356
  949MOL0     C30838   4.266  12.187   5.647  0.5568  0.1175 -0.1539
  949MOL0     C30839   4.208  12.321   5.705  0.2718  0.3746  0.0799
  949MOL0     C30840   4.084  12.372   5.637 -0.0189  0.2958  0.9890
  949MOL0     N30841   4.026  12.478   5.719  0.2798 -0.4407  1.1123
  949MOL0     C30842   4.050  12.610   5.688 -1.2477 -0.4552  0.0560
  949MOL0     C30843   3.952  12.674   5.748 -0.0873  0.0988 -0.4945
  949MOL0     C30844   3.951  12.824   5.748 -0.1027 -0.2353  1.0174
  949MOL0     C30845   3.845  12.880   5.649  0.0533  0.1389  0.0194
  949MOL0     C30846   3.698  12.838   5.672  0.1946 -0.6082  0.1404
  949MOL0     C30847   3.637  12.869   5.811 -0.2282  0.4909 -0.5955
  949MOL0     O30848   3.530  12.772   5.836  0.1922  0.3489 -0.2058
  949MOL0     C30849   3.402  12.786   5.787 -0.6108 -0.1435  0.4633
  949MOL0     C30850   3.308  12.706   5.845 -0.3408  0.7695 -0.6518
  949MOL0     C30851   3.179  12.690   5.801 -0.4220  0.3026 -0.1867
  949MOL0     C30852   3.091  12.584   5.870  0.1598 -0.4545 -0.3231
  949MOL0     C30853   3.144  12.777   5.696  0.4642  0.4725  0.9607
  949MOL0     C30854   3.013  12.754   5.632 -0.6214 -0.8700 -0.0787
  949MOL0     O30855   2.966  12.859   5.559  0.0203 -0.4206 -0.8325
  949MOL0     C30856   2.834  12.847   5.532 -0.1196 -0.1528  0.2881
  949MOL0     C30857   2.799  12.880   5.401  0.5199  0.3179 -0.3971
  949MOL0     C30858   2.667  12.864   5.359  0.3940  0.2594  0.3444
  949MOL0     C30859   2.564  12.835   5.449  0.1418 -0.3011 -0.7187
  949MOL0     O30860   2.426  12.822   5.424 -0.5818  0.5843 -0.5012
  949MOL0     C30861   2.387  12.867   5.296  0.0887 -0.5383 -0.2665
  949MOL0     C30862   2.239  12.867   5.294 -0.8024 -0.6030  0.0325
  949MOL0     C30863   2.193  12.905   5.156  0.5891 -0.1249 -0.4429
  949MOL0     C30864   2.043  12.932   5.156 -0.2869 -0.0417 -0.0276
  949MOL0     C30865   1.974  12.890   5.025  0.4337  0.1409  0.0049
  949MOL0     C30866   2.044  12.954   4.900 -0.3844  0.7436 -0.0321
  949MOL0     C30867   2.011  12.866   4.776  0.2002 -0.2187 -0.0976
  949MOL0     C30868   2.076  12.906   4.641  0.1751  0.4636 -0.3034
  949MOL0    Cl30869   2.019  13.065   4.599 -0.2460  0.4814  0.1470
  949MOL0     C30870   2.597  12.825   5.583 -0.6257  0.5954  0.8725
  949MOL0     C30871   2.728  12.820   5.618 -1.1906  0.4781  0.2539
  949MOL0     O30872   2.963  12.641   5.634  0.1175 -0.1651 -0.0219
  949MOL0     C30873   3.236  12.865   5.641  0.0009 -0.0427  1.0040
  949MOL0     C30874   3.372  12.872   5.682 -0.2096 -0.5686 -0.4351
  949MOL0     N30875   3.864  12.590   5.799  0.0962  0.9359 -0.1345
  949MOL0     N30876   3.909  12.472   5.784 -0.5818 -0.4485  0.5153
  949MOL0     C30877   4.197  11.487   6.116  0.9212 -0.4488 -0.8002
  949MOL0     C30878   4.259  11.404   6.208  0.8212 -0.0979 -0.3129
  949MOL0     C30879   4.535  11.170   6.458  0.2343 -0.5289  0.8747
  949MOL0     C30880   4.571  11.201   6.582 -0.0190  0.5349 -0.8466
  949MOL0     C30881   4.657  11.118   6.660  0.1272 -0.4395  0.8286
  949MOL0     C30882   4.701  10.998   6.604 -0.7924 -0.1951 -0.2212
  949MOL0     O30883   4.771  10.913   6.672 -0.8884 -0.2392 -0.6678
  949MOL0     C30884   4.805  10.927   6.810  0.1774  0.0611 -0.3825
  949MOL0     C30885   4.924  10.836   6.847 -0.2398 -0.6610  0.3023
  949MOL0     C30886   4.911  10.784   6.985 -0.0255 -0.0324  0.4389
  949MOL0     C30887   4.876  10.887   7.095  0.1232  0.1532  0.2511
  949MOL0     C30888   4.926  10.828   7.225 -0.8205 -0.0888 -0.6579
  949MOL0     C30889   4.971  10.793   7.335  0.2111 -0.0784  0.1960
  949MOL0     C30890   4.655  10.956   6.477  0.3104  0.1535 -0.0912
  949MOL0     C30891   4.567  11.041   6.408 -0.0474  0.2570  0.2023
  949MOL0     C30892   4.529  10.979   6.272  0.3422 -0.3553 -0.3379
  949MOL0     H30893   4.517  11.298   6.037 -0.6097  0.1408 -2.0501
  949MOL0     H30894   4.432  11.471   5.871  1.4927  0.3374  0.6835
  949MOL0     H30895   4.305  11.604   5.739 -0.6864 -0.5785  1.5822
  949MOL0     H30896   4.362  11.724   5.848 -1.3932 -0.7861  1.3916
  949MOL0     H30897   4.107  11.761   5.676 -0.4368  0.8661 -0.1233
  949MOL0     H30898   4.156  11.865   5.815 -1.6098 -0.8621  1.3063
  949MOL0     H30899   4.346  11.792   5.579  2.6808  1.1775 -0.5378
  949MOL0     H30900   4.228  11.918   5.574 -2.7088 -0.7888  1.5039
  949MOL0     H30901   4.435  11.914   5.804  1.6997  0.9441 -0.4861
  949MOL0     H30902   4.469  11.992   5.651 -0.9687  1.3288 -0.4643
  949MOL0     H30903   4.388  12.152   5.821 -0.5300  0.8789  0.3093
  949MOL0     H30904   4.239  12.069   5.827  1.6814  1.2547  2.9806
  949MOL0     H30905   4.340  12.216   5.572  0.4784  0.7328  0.0024
  949MOL0     H30906   4.201  12.121   5.588  0.6353 -0.2049  0.1189
  949MOL0     H30907   4.293  12.389   5.717 -0.8280  1.4834  2.2213
  949MOL0     H30908   4.176  12.285   5.804  0.7347 -0.9805 -0.2421
  949MOL0     H30909   4.127  12.407   5.543 -0.5539  0.4006  0.7776
  949MOL0     H30910   4.016  12.287   5.628  2.7228 -1.8722 -0.7913
  949MOL0     H30911   4.135  12.645   5.629  0.2740 -0.9612  1.8382
  949MOL0     H30912   4.051  12.859   5.722 -0.2233  0.7345  1.7952
  949MOL0     H30913   3.927  12.867   5.846 -0.7588 -1.3084  1.3472
  949MOL0     H30914   3.859  12.988   5.657  1.9731 -0.1839  2.5031
  949MOL0     H30915   3.866  12.856   5.544 -1.4704  0.2573 -0.3288
  949MOL0     H30916   3.635  12.878   5.593 -0.3891 -2.7729 -0.5637
  949MOL0     H30917   3.687  12.729   5.663  1.3569 -0.8217  1.0633
  949MOL0     H30918   3.720  12.858   5.881  0.1105  0.2612 -1.0331
  949MOL0     H30919   3.581  12.963   5.814  0.6876  1.1030  3.4486
  949MOL0     H30920   3.354  12.640   5.917 -0.1441  1.4555 -0.1353
  949MOL0     H30921   3.118  12.565   5.974  1.1790  0.9725 -0.2939
  949MOL0     H30922   3.095  12.485   5.824 -0.5031  0.5668 -2.7001
  949MOL0     H30923   2.989  12.623   5.874  0.0038 -0.9064  2.2034
  949MOL0     H30924   2.879  12.912   5.335  0.9035  2.8787  1.1300
  949MOL0     H30925   2.655  12.874   5.252  4.9668 -0.7573 -0.4407
  949MOL0     H30926   2.430  12.967   5.287 -0.3842 -0.4408 -1.7271
  949MOL0     H30927   2.422  12.793   5.222 -0.7345 -1.5541  0.3325
  949MOL0     H30928   2.221  12.760   5.311 -0.6951 -0.9340 -1.7582
  949MOL0     H30929   2.197  12.931   5.372 -0.8410  1.1716 -1.3956
  949MOL0     H30930   2.214  12.814   5.098  1.7136 -1.6419  2.1501
  949MOL0     H30931   2.231  13.002   5.124 -2.8869  1.4249 -0.2329
  949MOL0     H30932   2.027  13.040   5.169 -0.8512 -0.1951  0.5723
  949MOL0     H30933   1.999  12.892   5.247 -1.9833 -0.4858 -0.9988
  949MOL0     H30934   1.982  12.781   5.016 -3.1604 -0.1475 -1.6216
  949MOL0     H30935   1.866  12.905   5.032  0.5370  0.5413  1.0035
  949MOL0     H30936   2.153  12.956   4.903 -0.4117  1.9887  0.9371
  949MOL0     H30937   2.010  13.058   4.892 -1.8279  0.3651  0.6936
  949MOL0     H30938   1.903  12.856   4.768 -0.0002  0.9060  0.8354
  949MOL0     H30939   2.042  12.762   4.789  0.8581 -0.0084  0.0488
  949MOL0     H30940   2.039  12.836   4.566 -3.2697  0.3009  1.3869
  949MOL0     H30941   2.185  12.914   4.653  0.1302  1.5815 -0.5365
  949MOL0     H30942   2.524  12.798   5.658  0.7150 -2.9753  1.1155
  949MOL0     H30943   2.747  12.782   5.718 -0.8110 -1.3273 -0.4754
  949MOL0     H30944   3.219  12.923   5.551 -2.4180 -2.3543 -0.1749
  949MOL0     H30945   3.433  12.931   5.614  2.2345 -2.1748  0.1958
  949MOL0     H30946   4.109  11.548   6.133  2.0067  0.2799  3.4447
  949MOL0     H30947   4.223  11.385   6.308 -1.3705 -2.0796 -1.3704
  949MOL0     H30948   4.529  11.289   6.628 -1.1660 -0.2473 -0.3605
  949MOL0     H30949   4.680  11.145   6.762  1.9587 -1.0112  0.6001
  949MOL0     H30950   4.832  11.029   6.840  4.1807 -0.7812 -0.4861
  949MOL0     H30951   4.721  10.884   6.864  0.5726 -2.7844 -1.8724
  949MOL0     H30952   5.004  10.909   6.833 -2.5899  1.6572 -2.4854
  949MOL0     H30953   4.928  10.755   6.773 -0.9982  1.2929 -2.0216
  949MOL0     H30954   4.854  10.691   6.983  0.0931 -0.1610  1.7895
  949MOL0     H30955   5.011  10.742   7.000 -0.2802 -1.6600 -1.8819
  949MOL0     H30956   4.769  10.909   7.103  0.5393  2.0467  1.0636
  949MOL0     H30957   4.924  10.982   7.071  1.7316 -0.6979 -0.0099
  949MOL0     H30958   4.999  10.778   7.437 -0.4362 -2.7141  0.0554
  949MOL0     H30959   4.686  10.862   6.432  3.4639  1.5682 -1.2084
  949MOL0     H30960   4.429  11.007   6.236 -0.2118 -0.4176  1.0994
  949MOL0     H30961   4.606  11.002   6.198 -0.6313 -0.2599 -1.3627
  949MOL0     H30962   4.519  10.872   6.294 -3.4152 -0.1177 -0.2289
  950MOL0     O30963   9.988   1.119  10.869  0.1392  0.2001  0.5265
  950MOL0     C30964   9.889   1.109  10.951 -0.9006  0.0560 -0.0115
  950MOL0     O30965   9.903   1.117  11.089  0.0659  0.5903 -0.2745
  950MOL0     C30966  10.031   1.125  11.147 -0.4537 -0.1700  0.1019
  950MOL0     C30967  10.127   1.028  11.126  0.2832 -0.7336  0.4280
  950MOL0     C30968  10.261   1.053  11.178 -0.1302 -0.7545 -0.3608
  950MOL0     C30969  10.291   1.175  11.242 -0.2993  0.3992  0.2855
  950MOL0     O30970  10.420   1.227  11.267  0.5662  0.7324 -0.4887
  950MOL0     C30971  10.536   1.150  11.211  0.3353 -0.0798 -0.0307
  950MOL0     C30972  10.652   1.234  11.252 -0.7100  0.1269  0.4864
  950MOL0     C30973  10.779   1.165  11.195  0.4528 -0.3817  0.0965
  950MOL0     C30974  10.909   1.195  11.273 -0.3411  0.5880 -0.2295
  950MOL0     C30975  11.024   1.106  11.228 -0.2966  0.4233  0.2987
  950MOL0     C30976  11.153   1.110  11.326  0.4365 -0.0350  0.2222
  950MOL0     C30977  11.268   1.018  11.284 -0.0968 -0.1157  0.1911
  950MOL0     C30978  11.390   1.036  11.361 -0.9778 -0.4895 -0.0385
  950MOL0     N30979  11.474   0.913  11.359 -0.0963 -0.0319  0.4509
  950MOL0     C30980  11.471   0.825  11.464  0.4690  0.3607  0.1855
  950MOL0     C30981  11.560   0.729  11.432 -0.2022 -0.1225 -0.7054
  950MOL0     C30982  11.603   0.620  11.518 -0.6501 -0.3681 -0.6063
  950MOL0     C30983  11.758   0.614  11.538  0.4121  0.4112 -0.0335
  950MOL0     C30984  11.803   0.725  11.624 -0.3753 -0.0757  0.4744
  950MOL0     C30985  11.770   0.711  11.768  0.6445 -0.1321 -1.1870
  950MOL0     O30986  11.842   0.815  11.841  0.0094 -0.0006 -0.4324
  950MOL0     C30987  11.808   0.813  11.976 -0.9209 -0.3902 -0.1232
  950MOL0     C30988  11.737   0.719  12.053 -0.3472 -1.0838 -0.4301
  950MOL0     C30989  11.713   0.739  12.191 -0.2628 -0.9683 -0.9953
  950MOL0     C30990  11.634   0.638  12.260  0.1310  0.4324  0.3287
  950MOL0     C30991  11.761   0.848  12.263  0.1022  0.2957 -0.0106
  950MOL0     C30992  11.734   0.882  12.406  0.3062  0.3316 -0.4953
  950MOL0     O30993  11.776   1.003  12.437  0.2072  0.8997 -0.1362
  950MOL0     C30994  11.762   1.074  12.558  0.0438 -0.1121  0.6625
  950MOL0     C30995  11.739   1.027  12.692  1.3418  0.5292 -0.1560
  950MOL0     C30996  11.731   1.120  12.802  0.0586  0.6833  0.3776
  950MOL0     C30997  11.744   1.259  12.782  0.4732 -0.2906 -0.2061
  950MOL0     O30998  11.725   1.332  12.898  0.1808 -0.0784  0.0804
  950MOL0     C30999  11.702   1.472  12.905  1.1578  0.2310 -0.1504
  950MOL0     C31000  11.786   1.540  13.019  0.1417 -0.6509  0.2639
  950MOL0     C31001  11.940   1.535  12.991  0.4964  0.1781 -0.0641
  950MOL0     C31002  12.014   1.609  13.099  0.4632 -0.0677 -0.2242
  950MOL0     C31003  12.165   1.627  13.067  0.8297 -0.3830 -0.1359
  950MOL0     C31004  12.246   1.638  13.192 -0.2746  0.3888  0.4668
  950MOL0     C31005  12.398   1.619  13.181 -0.0247 -0.3397  1.0560
  950MOL0     C31006  12.447   1.558  13.305 -0.4531 -0.6294  0.1591
  950MOL0    Cl31007  12.625   1.591  13.314 -0.8117  0.2436  0.0757
  950MOL0     C31008  11.756   1.308  12.652  0.1324  1.6512 -0.2652
  950MOL0     C31009  11.752   1.213  12.545 -0.3985 -0.4813 -0.2709
  950MOL0     O31010  11.681   0.808  12.483 -0.0617  0.2364 -0.2561
  950MOL0     C31011  11.841   0.935  12.190  0.3096 -0.6779  0.1318
  950MOL0     C31012  11.876   0.913  12.050 -0.0718 -0.2190  0.5014
  950MOL0     N31013  11.607   0.753  11.308 -0.3589 -0.0449  0.7330
  950MOL0     N31014  11.566   0.868  11.266  0.2329 -0.0345 -0.3457
  950MOL0     C31015  10.187   1.265  11.259  0.1724  0.0461 -0.5813
  950MOL0     C31016  10.057   1.234  11.218  0.8826 -0.0443  0.1769
  950MOL0     C31017   9.756   1.092  10.897  0.2808  0.4088  1.0798
  950MOL0     C31018   9.653   1.040  10.976 -0.2661 -0.1007  1.0979
  950MOL0     C31019   9.522   1.031  10.922 -1.4641 -0.0179 -0.4310
  950MOL0     C31020   9.492   1.078  10.798 -0.0834 -0.0768 -0.2086
  950MOL0     O31021   9.370   1.077  10.740 -0.1169 -0.2660 -0.7146
  950MOL0     C31022   9.260   1.005  10.804  0.1145  0.3579  0.0643
  950MOL0     C31023   9.171   1.113  10.879 -0.3564 -0.4109  0.0326
  950MOL0     C31024   9.096   1.215  10.788  0.2694 -0.2522 -0.0051
  950MOL0     C31025   9.007   1.315  10.870 -0.1809  0.2958 -0.4045
  950MOL0     C31026   8.866   1.277  10.878  0.6623 -0.4840 -0.8202
  950MOL0     C31027   8.745   1.242  10.874  0.1942  0.2717 -0.7491
  950MOL0     C31028   9.593   1.127  10.721  0.1578 -0.0775  0.2500
  950MOL0     C31029   9.721   1.136  10.767 -0.3607 -0.3509 -0.1102
  950MOL0     C31030   9.813   1.202  10.669 -0.0150  0.5308  1.1742
  950MOL0     H31031  10.111   0.934  11.074 -0.0922 -0.3763 -0.1067
  950MOL0     H31032  10.324   0.968  11.155 -2.2229 -2.0196 -1.7968
  950MOL0     H31033  10.519   1.133  11.104 -4.2651 -2.9248  0.8875
  950MOL0     H31034  10.541   1.051  11.256  1.0757 -0.0423 -0.0158
  950MOL0     H31035  10.646   1.335  11.209  1.2570 -0.3846 -1.1133
  950MOL0     H31036  10.663   1.246  11.360  0.0313 -0.3846  0.4757
  950MOL0     H31037  10.760   1.057  11.201 -1.2702 -0.0802  1.0197
  950MOL0     H31038  10.780   1.206  11.094 -3.1803 -0.8881 -0.2813
  950MOL0     H31039  10.938   1.299  11.253 -2.0573  0.8933 -1.3001
  950MOL0     H31040  10.894   1.166  11.378  0.1095 -1.4026 -0.6832
  950MOL0     H31041  11.056   1.134  11.128 -2.1741  3.4393  0.3994
  950MOL0     H31042  10.992   1.003  11.211  0.5211  0.1138  0.5936
  950MOL0     H31043  11.183   1.215  11.336  0.4292 -0.0285  0.1785
  950MOL0     H31044  11.130   1.078  11.428 -0.3840  1.5237  0.5727
  950MOL0     H31045  11.302   1.045  11.184  1.5183 -0.9340  0.4877
  950MOL0     H31046  11.237   0.913  11.282 -0.8586  0.0999 -1.7955
  950MOL0     H31047  11.455   1.119  11.333 -0.0441 -0.6583  1.5201
  950MOL0     H31048  11.354   1.053  11.463 -5.4815 -1.8916 -1.1642
  950MOL0     H31049  11.423   0.839  11.561 -1.9946 -2.0322 -0.5720
  950MOL0     H31050  11.577   0.525  11.469  0.9407 -1.1750  0.0527
  950MOL0     H31051  11.550   0.622  11.614 -0.8043 -2.2646 -0.6141
  950MOL0     H31052  11.773   0.517  11.586 -0.9330 -0.2132 -0.8315
  950MOL0     H31053  11.801   0.620  11.438  2.2022  0.6921  0.7163
  950MOL0     H31054  11.912   0.737  11.620 -0.3236 -0.7039 -0.3633
  950MOL0     H31055  11.769   0.824  11.594  1.9334  0.4425 -0.6566
  950MOL0     H31056  11.661   0.720  11.774  0.3853 -2.9335 -0.4140
  950MOL0     H31057  11.795   0.611  11.805  0.7877  0.7070  1.1355
  950MOL0     H31058  11.685   0.630  12.018 -3.2728 -0.5183  2.0344
  950MOL0     H31059  11.678   0.597  12.351 -1.7072  1.7130  1.8709
  950MOL0     H31060  11.605   0.555  12.194  1.9015 -0.9076  1.1515
  950MOL0     H31061  11.544   0.683  12.303  1.1161 -0.1196  3.1884
  950MOL0     H31062  11.737   0.921  12.716  0.8702  0.3005 -1.1605
  950MOL0     H31063  11.731   1.072  12.900  0.5663  0.4350  0.2594
  950MOL0     H31064  11.735   1.532  12.820  1.0683 -0.3353 -0.5837
  950MOL0     H31065  11.597   1.491  12.929  1.0983  1.9240 -1.5516
  950MOL0     H31066  11.748   1.643  13.013  0.2573 -0.6804 -1.2730
  950MOL0     H31067  11.763   1.494  13.115  0.1134 -0.4256  0.3666
  950MOL0     H31068  11.941   1.571  12.888 -1.8195  1.0424  0.1544
  950MOL0     H31069  11.966   1.428  12.990 -1.1197 -0.2569 -1.1389
  950MOL0     H31070  12.007   1.551  13.192 -1.5115 -2.8627 -1.9395
  950MOL0     H31071  11.967   1.705  13.122  0.5062  0.3953 -1.9603
  950MOL0     H31072  12.196   1.541  13.008  2.0699  0.4188 -0.7111
  950MOL0     H31073  12.191   1.719  13.014  0.3833 -1.4738 -2.3514
  950MOL0     H31074  12.211   1.555  13.254 -1.1059 -1.3810 -2.2130
  950MOL0     H31075  12.227   1.735  13.241 -0.1299  0.8494 -0.3749
  950MOL0     H31076  12.447   1.711  13.148 -1.1462 -0.7823 -2.1325
  950MOL0     H31077  12.417   1.538  13.110  1.8104  0.3508  0.7073
  950MOL0     H31078  12.437   1.449  13.295 -1.8510 -0.3003 -3.6032
  950MOL0     H31079  12.393   1.596  13.392  0.9125 -0.9016  1.1589
  950MOL0     H31080  11.759   1.415  12.640  2.5937  1.7950  1.0099
  950MOL0     H31081  11.763   1.257  12.446  0.7540 -0.4841 -0.1505
  950MOL0     H31082  11.885   1.020  12.241 -2.4071  0.7053  0.3304
  950MOL0     H31083  11.942   0.982  11.998 -1.8602  3.0606  2.2760
  950MOL0     H31084  10.205   1.361  11.306  0.3022 -1.0229  1.6779
  950MOL0     H31085   9.977   1.307  11.207  0.9006 -0.2855 -2.2468
  950MOL0     H31086   9.682   1.001  11.074  4.3556 -1.0011 -0.3645
  950MOL0     H31087   9.444   0.987  10.982 -1.9086 -0.3109 -1.2036
  950MOL0     H31088   9.193   0.967  10.726 -0.4775  0.1500  0.6723
  950MOL0     H31089   9.296   0.922  10.865 -0.5301  0.3024  0.3738
  950MOL0     H31090   9.232   1.173  10.948  0.3745 -0.6315 -0.4051
  950MOL0     H31091   9.093   1.067  10.939 -2.6496  0.6696 -1.9569
  950MOL0     H31092   9.175   1.270  10.735 -1.6475  0.9820 -1.7588
  950MOL0     H31093   9.039   1.154  10.718 -0.3915 -0.3940  0.6444
  950MOL0     H31094   9.015   1.417  10.832 -0.6806  1.2875  1.9749
  950MOL0     H31095   9.045   1.318  10.972  2.3121  1.0852 -1.2902
  950MOL0     H31096   8.647   1.200  10.858 -0.4409  1.3957  0.0569
  950MOL0     H31097   9.563   1.166  10.624  2.2438  0.8916 -0.0758
  950MOL0     H31098   9.870   1.135  10.603  1.7683  2.1041  1.0281
  950MOL0     H31099   9.759   1.264  10.598  3.2388  1.0123 -1.0870
  950MOL0     H31100   9.882   1.271  10.719  1.3354  1.0243 -1.2261
  951MOL0     O31101   2.811  10.057   8.163 -0.2806  0.5771 -0.5688
  951MOL0     C31102   2.735  10.024   8.074 -0.1307 -0.3240 -0.8773
  951MOL0     O31103   2.764   9.943   7.970  0.2630 -0.1692  0.3602
  951MOL0     C31104   2.862   9.853   7.997  0.2488  0.3647  0.4785
  951MOL0     C31105   2.871   9.776   8.107  0.2428 -0.2822  0.1951
  951MOL0     C31106   2.966   9.678   8.115  0.5200 -0.1315 -0.4075
  951MOL0     C31107   3.054   9.657   8.011 -1.0232 -1.2862 -0.6049
  951MOL0     O31108   3.159   9.579   8.042 -0.2269  0.1707  0.7515
  951MOL0     C31109   3.220   9.505   7.933  0.4541 -0.4789 -0.2397
  951MOL0     C31110   3.305   9.380   7.994  0.8756 -0.2968  0.0237
  951MOL0     C31111   3.431   9.410   8.085  0.4512  0.4981 -0.2329
  951MOL0     C31112   3.448   9.324   8.211  0.2918  0.1088  0.1859
  951MOL0     C31113   3.574   9.370   8.292 -0.6168 -0.3719  0.2127
  951MOL0     C31114   3.533   9.448   8.419  0.4580  0.2682  0.6021
  951MOL0     C31115   3.651   9.471   8.512 -0.4307 -0.0973  0.1825
  951MOL0     C31116   3.613   9.571   8.612 -0.6811  0.3489 -0.3028
  951MOL0     N31117   3.700   9.574   8.728 -0.1584 -0.0433  0.4737
  951MOL0     C31118   3.835   9.588   8.710  0.7733 -0.5369 -0.6874
  951MOL0     C31119   3.876   9.585   8.842  0.3689  0.2571  0.7026
  951MOL0     C31120   4.012   9.602   8.896 -0.0044  0.2066 -0.3726
  951MOL0     C31121   4.114   9.677   8.816  0.2044  0.8951 -0.9052
  951MOL0     C31122   4.248   9.657   8.880 -0.6037  1.2500  0.6350
  951MOL0     C31123   4.360   9.715   8.800  0.3030 -0.3342 -0.6820
  951MOL0     O31124   4.477   9.696   8.876  0.2434 -0.0600  0.5116
  951MOL0     C31125   4.599   9.729   8.831 -0.7766 -0.2233 -1.7312
  951MOL0     C31126   4.629   9.798   8.712 -1.2683 -0.5198 -0.2595
  951MOL0     C31127   4.761   9.804   8.659 -0.1286 -0.4612 -0.1659
  951MOL0     C31128   4.772   9.863   8.526  0.0346  0.5667 -0.5536
  951MOL0     C31129   4.867   9.764   8.747  0.9871 -0.5837 -0.2049
  951MOL0     C31130   5.003   9.797   8.719  0.7914  0.4131 -0.7660
  951MOL0     O31131   5.022   9.915   8.658 -0.3449 -0.1140 -0.4042
  951MOL0     C31132   5.139   9.975   8.676 -0.0618 -0.4964  1.2971
  951MOL0     C31133   5.163  10.084   8.764 -0.4017 -1.0164  0.4764
  951MOL0     C31134   5.288  10.149   8.763  0.1202  0.3654 -0.0488
  951MOL0     C31135   5.381  10.101   8.679 -0.1483  0.0964 -0.9867
  951MOL0     O31136   5.500  10.158   8.694  0.0658  0.0531 -0.3442
  951MOL0     C31137   5.585  10.179   8.577  0.2561  0.6015  0.6260
  951MOL0     C31138   5.659  10.310   8.599  0.0124  0.1577 -0.5004
  951MOL0     C31139   5.754  10.344   8.482  0.4543  0.6219 -0.0235
  951MOL0     C31140   5.824  10.224   8.417 -0.3385  1.2121 -0.4068
  951MOL0     C31141   5.933  10.279   8.333  0.1525  0.2616 -0.0248
  951MOL0     C31142   6.000  10.163   8.256 -0.1089  0.0773  0.1319
  951MOL0     C31143   6.105  10.224   8.153 -0.1402 -0.0228  0.3982
  951MOL0     C31144   6.152  10.110   8.062  0.5324  0.1756 -0.9151
  951MOL0    Cl31145   6.245  10.175   7.917  0.3296 -0.0147  0.1838
  951MOL0     C31146   5.367   9.995   8.600  0.1173  0.7046  0.2210
  951MOL0     C31147   5.243   9.932   8.596  0.7533  0.8034  0.1674
  951MOL0     O31148   5.082   9.701   8.719  0.6510  0.0104 -0.1213
  951MOL0     C31149   4.835   9.697   8.868 -0.5160 -0.6175 -0.4776
  951MOL0     C31150   4.708   9.684   8.909  0.6345  0.1294  0.0592
  951MOL0     N31151   3.768   9.558   8.926 -0.3898  0.3047 -0.2444
  951MOL0     N31152   3.668   9.545   8.854  0.6831  0.9101 -0.0568
  951MOL0     C31153   3.042   9.733   7.895  0.8756  0.3626  0.4504
  951MOL0     C31154   2.934   9.823   7.885 -0.9864  0.1565  0.3168
  951MOL0     C31155   2.618  10.112   8.054 -0.4275 -0.5241 -1.1978
  951MOL0     C31156   2.581  10.156   7.929  0.3893  0.2535  0.2703
  951MOL0     C31157   2.473  10.241   7.911  0.2337  0.1437 -0.7236
  951MOL0     C31158   2.404  10.296   8.013  1.2581  0.3338 -0.1023
  951MOL0     O31159   2.313  10.389   7.973  0.0490 -0.3854  0.2121
  951MOL0     C31160   2.205  10.433   8.062 -0.3692 -0.9063  0.7267
  951MOL0     C31161   2.109  10.497   7.965 -0.2031  0.5566 -0.2300
  951MOL0     C31162   1.968  10.495   8.009 -0.2145  1.1880 -0.1009
  951MOL0     C31163   1.877  10.575   7.912 -0.0662 -0.5537 -0.7438
  951MOL0     C31164   1.843  10.504   7.783  0.8664 -0.3123  0.5755
  951MOL0     C31165   1.810  10.437   7.685 -0.3110 -0.9773  0.0725
  951MOL0     C31166   2.436  10.254   8.147  1.3635  0.2057 -0.7645
  951MOL0     C31167   2.543  10.167   8.172 -0.5537 -0.7251 -0.1236
  951MOL0     C31168   2.570  10.129   8.311  0.6704 -0.2573  0.2173
  951MOL0     H31169   2.801   9.777   8.190 -2.2562 -1.5539 -1.7429
  951MOL0     H31170   2.976   9.605   8.195 -1.2209 -1.5594 -1.4008
  951MOL0     H31171   3.298   9.566   7.885 -0.6066  0.2934 -1.0174
  951MOL0     H31172   3.155   9.459   7.858  1.1068  0.4876 -1.4480
  951MOL0     H31173   3.235   9.327   8.059  0.5255  0.4199  0.2461
  951MOL0     H31174   3.314   9.317   7.905 -3.8333 -2.7795  1.0017
  951MOL0     H31175   3.517   9.393   8.019  0.4708  2.3777 -0.7660
  951MOL0     H31176   3.434   9.518   8.105 -3.2874  1.1210 -2.0458
  951MOL0     H31177   3.357   9.327   8.273  0.4395  1.2594  0.3733
  951MOL0     H31178   3.469   9.222   8.177  4.3148  1.1586 -1.0293
  951MOL0     H31179   3.635   9.441   8.235 -0.2730  0.0087  1.0349
  951MOL0     H31180   3.635   9.281   8.312  1.8278  0.7402 -1.7600
  951MOL0     H31181   3.498   9.545   8.383  2.5217  0.7629 -0.2263
  951MOL0     H31182   3.445   9.408   8.469  1.7908 -2.0484  1.2066
  951MOL0     H31183   3.743   9.507   8.466 -0.5339 -1.8115 -1.4901
  951MOL0     H31184   3.678   9.376   8.559  1.1151  1.1553  1.9577
  951MOL0     H31185   3.625   9.674   8.577 -0.0848  0.7119  0.9084
  951MOL0     H31186   3.509   9.549   8.640 -0.6177 -0.6905 -0.8388
  951MOL0     H31187   3.897   9.590   8.621  0.6814  0.0780 -0.7432
  951MOL0     H31188   4.053   9.500   8.904 -3.8615 -1.4629  0.5422
  951MOL0     H31189   4.009   9.637   9.000 -0.6039 -1.8107  0.3424
  951MOL0     H31190   4.109   9.644   8.712 -1.1708  0.9758 -0.8795
  951MOL0     H31191   4.075   9.779   8.818 -3.3585 -0.2768 -2.3936
  951MOL0     H31192   4.240   9.699   8.981 -4.0284  0.9850  0.5838
  951MOL0     H31193   4.270   9.550   8.879 -1.7517  0.9667 -1.7428
  951MOL0     H31194   4.364   9.667   8.702  1.8258 -0.8703 -0.3856
  951MOL0     H31195   4.341   9.822   8.791  2.1183  0.4262  2.7188
  951MOL0     H31196   4.547   9.822   8.645  0.4082  0.1674 -2.1612
  951MOL0     H31197   4.790   9.970   8.542 -0.7004  0.6996 -0.5347
  951MOL0     H31198   4.685   9.858   8.460 -0.8191  0.2806  0.5503
  951MOL0     H31199   4.848   9.815   8.465 -0.9646 -2.8892  0.6442
  951MOL0     H31200   5.089  10.132   8.826  0.9612 -0.0801  1.4389
  951MOL0     H31201   5.310  10.237   8.822  0.5806  1.4743 -1.8107
  951MOL0     H31202   5.657  10.098   8.571 -2.0244 -1.4788 -0.2877
  951MOL0     H31203   5.530  10.184   8.483  0.7134 -1.4638  0.2097
  951MOL0     H31204   5.590  10.388   8.632  2.3438  1.5175  1.5291
  951MOL0     H31205   5.706  10.301   8.698 -1.4742  2.7161  0.5242
  951MOL0     H31206   5.823  10.423   8.513 -2.5605  3.4440  0.0988
  951MOL0     H31207   5.702  10.390   8.398  0.6655  2.7710  0.9497
  951MOL0     H31208   5.755  10.165   8.356  0.2807  1.6409 -1.5670
  951MOL0     H31209   5.864  10.162   8.497 -0.5875  0.1205 -1.1149
  951MOL0     H31210   5.883  10.350   8.266  0.4754  1.8140  1.3087
  951MOL0     H31211   6.005  10.338   8.391 -2.8409  5.1385 -0.7404
  951MOL0     H31212   5.934  10.099   8.198  2.4010 -1.1549 -1.5470
  951MOL0     H31213   6.046  10.102   8.335 -0.8418  0.9294  1.2457
  951MOL0     H31214   6.182  10.285   8.201 -1.1723  2.1381 -0.5755
  951MOL0     H31215   6.060  10.297   8.085 -0.6806 -1.4360 -0.8385
  951MOL0     H31216   6.062  10.070   8.017 -0.1300 -1.1546  1.4054
  951MOL0     H31217   6.206  10.033   8.119  1.5133 -0.9822 -3.2906
  951MOL0     H31218   5.456   9.950   8.558  0.2865 -0.7987  2.0261
  951MOL0     H31219   5.233   9.844   8.534 -0.5615  0.3093  1.0308
  951MOL0     H31220   4.919   9.669   8.931  0.9104 -0.3782 -2.2074
  951MOL0     H31221   4.694   9.625   8.999  1.4999 -1.4312 -0.7824
  951MOL0     H31222   3.109   9.724   7.811  0.0143 -3.4563 -0.0121
  951MOL0     H31223   2.919   9.881   7.795  3.3793  0.0039 -0.7315
  951MOL0     H31224   2.618  10.130   7.830 -4.3014  0.5738 -1.8253
  951MOL0     H31225   2.445  10.258   7.807 -2.0236  1.6042  0.0392
  951MOL0     H31226   2.159  10.351   8.118 -1.2381  0.0161  1.4022
  951MOL0     H31227   2.251  10.495   8.140  2.2289  0.6727 -1.8508
  951MOL0     H31228   2.115  10.441   7.871 -2.4763 -0.8976  0.4173
  951MOL0     H31229   2.140  10.602   7.967 -0.7131  0.8491  5.0685
  951MOL0     H31230   1.921  10.399   8.030 -1.1047  1.3360 -1.3254
  951MOL0     H31231   1.979  10.548   8.104  0.2371  1.9433 -0.5617
  951MOL0     H31232   1.924  10.674   7.903  0.5645 -0.7324  0.3386
  951MOL0     H31233   1.786  10.589   7.970  1.1092 -0.7733  1.2571
  951MOL0     H31234   1.777  10.370   7.608 -0.0748 -0.9503 -0.0538
  951MOL0     H31235   2.359  10.278   8.219 -0.5490 -1.9749 -1.9122
  951MOL0     H31236   2.624  10.205   8.368  1.1573 -2.4823  3.0058
  951MOL0     H31237   2.476  10.107   8.363  0.6129 -1.0733 -0.2161
  951MOL0     H31238   2.629  10.037   8.313  3.1799  1.2205 -1.1140
  952MOL0     O31239   8.897   4.538   0.720 -0.3255  0.3290  0.1337
  952MOL0     C31240   8.874   4.414   0.714  0.5639  0.2928 -0.2574
  952MOL0     O31241   8.931   4.306   0.793 -0.5326 -0.4092 -0.0881
  952MOL0     C31242   9.044   4.343   0.863 -0.4204 -0.4877  0.6948
  952MOL0     C31243   9.169   4.287   0.833 -0.5246  0.3626  0.1459
  952MOL0     C31244   9.285   4.308   0.900 -0.2797 -0.2424  0.1673
  952MOL0     C31245   9.276   4.388   1.014 -0.5595  0.4906  1.0057
  952MOL0     O31246   9.393   4.423   1.084  0.4872 -0.4912 -0.3166
  952MOL0     C31247   9.387   4.465   1.220 -0.2752 -0.1226 -0.1269
  952MOL0     C31248   9.526   4.509   1.257  0.1165 -0.1706 -0.4272
  952MOL0     C31249   9.585   4.642   1.206  0.0229 -0.5226 -0.0986
  952MOL0     C31250   9.607   4.638   1.060 -0.2828 -0.0785 -0.1762
  952MOL0     C31251   9.736   4.723   1.004 -0.1821  0.1761 -0.2142
  952MOL0     C31252   9.725   4.715   0.852  0.4744 -0.8713  0.7171
  952MOL0     C31253   9.855   4.770   0.792 -0.5206 -0.5901 -0.2911
  952MOL0     C31254   9.861   4.796   0.644 -0.2479  0.1658 -0.1480
  952MOL0     N31255   9.995   4.851   0.613  0.3797  0.9376 -0.1924
  952MOL0     C31256  10.116   4.780   0.622 -0.0488 -0.3258  0.1512
  952MOL0     C31257  10.206   4.886   0.627  0.5104  0.2614 -0.6544
  952MOL0     C31258  10.343   4.848   0.642  0.6428 -0.2276 -0.0481
  952MOL0     C31259  10.356   4.766   0.769 -0.2636  0.0973  0.9646
  952MOL0     C31260  10.503   4.767   0.813 -0.1603  0.3054 -0.0040
  952MOL0     C31261  10.605   4.697   0.723  0.3250  0.0020 -0.3409
  952MOL0     O31262  10.638   4.761   0.602  0.0868  0.1440 -0.3504
  952MOL0     C31263  10.760   4.719   0.555 -0.2358  0.4990 -0.6090
  952MOL0     C31264  10.841   4.816   0.485  0.2471  0.5438 -0.4461
  952MOL0     C31265  10.963   4.788   0.431 -0.2817  0.8635  0.3889
  952MOL0     C31266  11.039   4.898   0.355 -0.5018  0.0633  0.4898
  952MOL0     C31267  11.019   4.655   0.449  0.4245  0.0070  0.1821
  952MOL0     C31268  11.151   4.609   0.415 -0.7448 -0.1602 -0.0927
  952MOL0     O31269  11.174   4.472   0.420 -0.4340  0.4513  0.5719
  952MOL0     C31270  11.299   4.430   0.451 -0.9297 -0.5814 -0.0084
  952MOL0     C31271  11.391   4.370   0.365 -0.2663 -1.6016 -0.2525
  952MOL0     C31272  11.514   4.321   0.425  1.1244 -0.3991 -0.5220
  952MOL0     C31273  11.537   4.344   0.557 -0.1062  0.2411  0.5567
  952MOL0     O31274  11.663   4.308   0.585 -0.5501  0.3371 -0.0291
  952MOL0     C31275  11.689   4.255   0.722  0.7906  0.1785  0.3600
  952MOL0     C31276  11.837   4.231   0.742 -0.4930  0.1868 -0.5586
  952MOL0     C31277  11.884   4.113   0.664  0.6678  0.1507  0.1343
  952MOL0     C31278  12.038   4.072   0.687  0.9679  0.2162  0.0535
  952MOL0     C31279  12.091   3.982   0.571  0.8121  0.3816 -0.0165
  952MOL0     C31280  12.005   3.846   0.558  0.2937 -0.1418  0.2209
  952MOL0     C31281  12.077   3.762   0.459 -0.4146 -0.2800 -0.2844
  952MOL0     C31282  12.000   3.637   0.423 -0.0910  0.6272 -0.0546
  952MOL0    Cl31283  12.095   3.552   0.290 -0.4641 -0.1213 -0.2569
  952MOL0     C31284  11.444   4.398   0.645  0.6439  0.5629  0.5310
  952MOL0     C31285  11.330   4.441   0.585  0.4345  0.3501  0.5608
  952MOL0     O31286  11.239   4.689   0.380  0.1100  0.5518  0.1727
  952MOL0     C31287  10.931   4.558   0.516  0.1449 -0.3797 -0.6740
  952MOL0     C31288  10.800   4.584   0.560 -0.0911  0.3254 -0.7186
  952MOL0     N31289  10.147   5.009   0.622  0.0865 -0.1244  0.0853
  952MOL0     N31290  10.018   4.989   0.607 -0.1040 -0.1054 -0.2332
  952MOL0     C31291   9.157   4.447   1.046  0.5650  0.0053  0.4962
  952MOL0     C31292   9.041   4.424   0.973 -0.2914 -0.2459  0.4985
  952MOL0     C31293   8.768   4.362   0.632 -0.3927 -0.5636  0.5997
  952MOL0     C31294   8.644   4.340   0.688  0.1437  0.2817 -0.5799
  952MOL0     C31295   8.537   4.298   0.615 -0.2038  0.1680 -0.2389
  952MOL0     C31296   8.547   4.272   0.478 -1.2799  0.5907 -0.1227
  952MOL0     O31297   8.432   4.221   0.417 -0.5119  0.7649 -0.3751
  952MOL0     C31298   8.334   4.301   0.351 -0.5844  0.3456 -0.0053
  952MOL0     C31299   8.246   4.214   0.264  0.2267  0.1607 -0.4410
  952MOL0     C31300   8.130   4.299   0.220  0.0838  0.6938  0.4871
  952MOL0     C31301   8.024   4.219   0.141  0.3823 -0.4381 -0.4220
  952MOL0     C31302   8.079   4.127   0.041  1.5292  0.1754 -1.3341
  952MOL0     C31303   8.131   4.057  -0.037 -0.0251 -0.2069 -0.7621
  952MOL0     C31304   8.672   4.297   0.417  0.4274  0.2843 -0.5229
  952MOL0     C31305   8.780   4.352   0.490 -0.0539 -0.5969  0.2025
  952MOL0     C31306   8.906   4.380   0.424 -0.3793 -0.1548  0.1882
  952MOL0     H31307   9.175   4.223   0.746  1.6128 -1.0160  1.2105
  952MOL0     H31308   9.372   4.253   0.865  1.2178  1.0189  1.7710
  952MOL0     H31309   9.352   4.386   1.288  0.4736  1.4024  2.1320
  952MOL0     H31310   9.316   4.545   1.244 -0.1930 -0.2290  0.4947
  952MOL0     H31311   9.535   4.519   1.365 -0.0669  1.0466 -0.5202
  952MOL0     H31312   9.604   4.437   1.228  1.6367  2.3894 -3.2881
  952MOL0     H31313   9.512   4.721   1.228 -0.2282  0.2678 -3.3396
  952MOL0     H31314   9.670   4.678   1.264 -0.9174 -0.4238  1.2700
  952MOL0     H31315   9.622   4.536   1.026  0.6233  0.1335 -0.4377
  952MOL0     H31316   9.513   4.677   1.018 -0.7523  1.9435  2.5065
  952MOL0     H31317   9.826   4.676   1.045  1.0373  3.6319  1.3790
  952MOL0     H31318   9.729   4.829   1.030 -0.7095 -0.0731  0.6924
  952MOL0     H31319   9.705   4.615   0.814 -4.2397  0.7862 -1.8818
  952MOL0     H31320   9.644   4.784   0.826  0.3675  0.3434  3.8712
  952MOL0     H31321   9.931   4.694   0.812 -1.3242 -1.4446 -0.4183
  952MOL0     H31322   9.877   4.858   0.854  2.1102 -2.9264  2.4897
  952MOL0     H31323   9.846   4.698   0.596 -2.7630 -0.3391  1.5218
  952MOL0     H31324   9.787   4.868   0.610  1.5154  3.4351  2.3771
  952MOL0     H31325  10.125   4.672   0.619 -0.5393 -0.3434 -1.2822
  952MOL0     H31326  10.405   4.938   0.641  1.0751 -0.5019 -1.7760
  952MOL0     H31327  10.376   4.786   0.558 -1.4226 -0.8512 -0.4554
  952MOL0     H31328  10.308   4.816   0.853 -3.5905  2.3782 -2.0016
  952MOL0     H31329  10.320   4.662   0.764  2.5835 -0.9209 -0.7522
  952MOL0     H31330  10.540   4.868   0.833 -3.9376  1.5049  1.8274
  952MOL0     H31331  10.487   4.725   0.913 -0.4343 -0.4104 -0.3445
  952MOL0     H31332  10.697   4.678   0.780  1.4158 -2.4827 -2.7298
  952MOL0     H31333  10.565   4.600   0.691 -0.0574  0.6040 -1.7752
  952MOL0     H31334  10.804   4.917   0.475 -2.1268 -0.2120 -0.0794
  952MOL0     H31335  11.059   4.863   0.254  1.5713  1.4924  0.3466
  952MOL0     H31336  11.127   4.928   0.412 -1.1531 -2.0323  2.8211
  952MOL0     H31337  10.974   4.986   0.358  0.3027  0.6564  3.1357
  952MOL0     H31338  11.363   4.363   0.261 -1.7286  1.8378 -0.2226
  952MOL0     H31339  11.586   4.268   0.363 -0.6942  0.1046 -3.2428
  952MOL0     H31340  11.653   4.321   0.802  1.3432  3.9095 -2.2160
  952MOL0     H31341  11.639   4.159   0.737 -0.7845  1.4490  5.1256
  952MOL0     H31342  11.896   4.317   0.711  1.3202  0.5930  3.3869
  952MOL0     H31343  11.855   4.207   0.847 -1.0710 -3.4757 -1.1507
  952MOL0     H31344  11.866   4.129   0.557 -1.3602  1.0422  0.5692
  952MOL0     H31345  11.821   4.029   0.694 -0.3903 -0.1658 -2.6512
  952MOL0     H31346  12.059   4.034   0.787  0.7953  3.5416  1.4720
  952MOL0     H31347  12.099   4.162   0.683 -0.1046  1.0304  1.0785
  952MOL0     H31348  12.073   4.043   0.482  0.1989  1.9105  1.1053
  952MOL0     H31349  12.198   3.961   0.583  0.5700 -1.1139 -0.2220
  952MOL0     H31350  11.905   3.864   0.518  0.7688  0.4295 -0.7468
  952MOL0     H31351  11.994   3.793   0.653  0.0295  0.1601  0.3586
  952MOL0     H31352  12.174   3.733   0.501 -3.0399 -2.0977  5.5726
  952MOL0     H31353  12.090   3.834   0.378  2.3461  0.1800  0.4598
  952MOL0     H31354  11.906   3.666   0.374 -0.5472  2.0980  1.6070
  952MOL0     H31355  11.971   3.572   0.506  2.4318  0.0372  0.4408
  952MOL0     H31356  11.458   4.400   0.753 -0.9381  0.4451  0.7682
  952MOL0     H31357  11.254   4.489   0.646  2.0155  0.3309  2.6727
  952MOL0     H31358  10.955   4.453   0.522  0.2330 -0.5017 -2.4789
  952MOL0     H31359  10.743   4.507   0.611 -0.0549  1.4330  1.0383
  952MOL0     H31360   9.141   4.516   1.128 -0.8937 -0.2071  0.4184
  952MOL0     H31361   8.950   4.469   1.012 -0.6164 -1.4721  1.2055
  952MOL0     H31362   8.636   4.359   0.795  0.1343 -2.1611 -0.1062
  952MOL0     H31363   8.442   4.278   0.664 -0.2097 -1.3440 -0.8206
  952MOL0     H31364   8.270   4.361   0.416 -2.2704  0.9932 -2.1506
  952MOL0     H31365   8.395   4.370   0.291 -0.1588 -0.7830 -0.9228
  952MOL0     H31366   8.220   4.123   0.319  2.7038  0.4882  1.4475
  952MOL0     H31367   8.310   4.180   0.183 -0.0850 -0.7749 -0.3001
  952MOL0     H31368   8.091   4.349   0.308  3.7908  0.1656  2.6680
  952MOL0     H31369   8.174   4.374   0.154  1.6058 -0.4277  0.1528
  952MOL0     H31370   7.957   4.288   0.090  1.2522  0.3956 -0.4627
  952MOL0     H31371   7.966   4.162   0.214 -0.2507 -0.6036 -1.0424
  952MOL0     H31372   8.202   4.011  -0.102  1.6375  1.3305 -0.0972
  952MOL0     H31373   8.678   4.265   0.313  0.9308 -1.4995  0.0177
  952MOL0     H31374   8.921   4.323   0.331  4.3142  1.2077 -0.1743
  952MOL0     H31375   8.926   4.486   0.404  2.2131 -1.0192 -2.5360
  952MOL0     H31376   8.992   4.337   0.476  1.7954 -0.4114 -3.2815
  953MOL0     O31377   0.210   9.284   0.285 -0.7403 -0.0648  0.4523
  953MOL0     C31378   0.194   9.202   0.195 -0.4692  0.2898  0.1665
  953MOL0     O31379   0.287   9.155   0.113  0.3608 -0.6444  0.1638
  953MOL0     C31380   0.413   9.189   0.142 -0.0953 -0.0719 -0.9495
  953MOL0     C31381   0.471   9.281   0.066 -0.6573  0.0461  1.2223
  953MOL0     C31382   0.607   9.324   0.092  0.7666  0.6260  0.5928
  953MOL0     C31383   0.682   9.284   0.196  0.1237 -0.1798 -0.3349
  953MOL0     O31384   0.807   9.331   0.230  0.2967 -0.0885 -1.1054
  953MOL0     C31385   0.884   9.419   0.145 -0.1952  0.1152 -0.5039
  953MOL0     C31386   0.964   9.337   0.046  0.0282 -0.5019  0.4753
  953MOL0     C31387   1.093   9.395  -0.020  0.6484 -0.3560 -0.3579
  953MOL0     C31388   1.202   9.430   0.082 -0.2466  0.2321 -0.7502
  953MOL0     C31389   1.340   9.403   0.032  0.0476 -0.1311  0.4278
  953MOL0     C31390   1.442   9.456   0.122 -0.1878 -0.6520  0.4501
  953MOL0     C31391   1.575   9.376   0.110 -0.5691 -0.7636  0.2246
  953MOL0     C31392   1.675   9.412  -0.007  0.2006  0.0249 -0.4098
  953MOL0     N31393   1.778   9.519   0.018  0.8043 -0.4399 -1.6363
  953MOL0     C31394   1.895   9.506   0.086  0.6703 -0.6087 -0.3972
  953MOL0     C31395   1.939   9.638   0.092 -0.1427 -1.5923 -0.0774
  953MOL0     C31396   2.077   9.680   0.136  0.4866 -0.8016  1.2538
  953MOL0     C31397   2.074   9.666   0.292 -0.3767  0.8143  0.6282
  953MOL0     C31398   2.169   9.754   0.373  0.3257  0.1103 -0.3143
  953MOL0     C31399   2.168   9.721   0.519 -0.0794  0.1736 -1.0365
  953MOL0     O31400   2.269   9.802   0.587 -0.0376 -0.1552  0.1589
  953MOL0     C31401   2.237   9.928   0.630  0.5004  0.1285  0.9303
  953MOL0     C31402   2.104   9.972   0.629 -0.7077 -0.5387 -0.4723
  953MOL0     C31403   2.066  10.086   0.696 -0.3665  0.1334 -0.5525
  953MOL0     C31404   1.916  10.107   0.712  0.3651  0.1739 -0.9620
  953MOL0     C31405   2.161  10.182   0.737  0.2530 -0.4467  0.4391
  953MOL0     C31406   2.135  10.316   0.802 -0.2369  0.4167 -0.2260
  953MOL0     O31407   2.024  10.391   0.752 -0.5621  0.9127 -0.5248
  953MOL0     C31408   1.976  10.493   0.824  0.6468 -0.2170  0.0162
  953MOL0     C31409   1.906  10.483   0.945  0.2010 -0.9861 -1.0154
  953MOL0     C31410   1.852  10.598   1.008  0.0190 -0.0989  0.7103
  953MOL0     C31411   1.859  10.724   0.941  0.2538  0.1654  0.1441
  953MOL0     O31412   1.795  10.842   0.978  0.4119  0.4710  0.1476
  953MOL0     C31413   1.733  10.853   1.109  0.1341  0.0325  0.9081
  953MOL0     C31414   1.579  10.910   1.102 -0.9016  0.4511 -0.8524
  953MOL0     C31415   1.581  11.040   1.027  0.3081  0.1758 -0.4266
  953MOL0     C31416   1.434  11.093   1.012  0.1884  0.0907 -0.2388
  953MOL0     C31417   1.404  11.144   0.873 -0.4793  0.2334  0.2484
  953MOL0     C31418   1.352  11.027   0.784  0.2721 -0.2694  0.2146
  953MOL0     C31419   1.202  10.997   0.815 -0.5316 -0.8445  0.0164
  953MOL0     C31420   1.122  10.963   0.687  0.1426 -0.4577  0.7537
  953MOL0    Cl31421   1.101  11.113   0.602  0.1438  0.3842 -0.3095
  953MOL0     C31422   1.929  10.732   0.826  0.7156 -0.4321  0.1416
  953MOL0     C31423   1.996  10.619   0.769 -0.0993  0.2724  0.0795
  953MOL0     O31424   2.207  10.355   0.890  0.7154  0.8194 -0.8668
  953MOL0     C31425   2.296  10.147   0.717  0.4024  0.1594 -0.1433
  953MOL0     C31426   2.334  10.023   0.670  0.2280 -0.5913  0.5388
  953MOL0     N31427   1.843   9.721   0.043 -0.4738  0.2476  0.1777
  953MOL0     N31428   1.741   9.649   0.007 -0.4023 -0.8086  0.6188
  953MOL0     C31429   0.623   9.181   0.274  0.4450  0.6688 -0.0492
  953MOL0     C31430   0.494   9.133   0.251 -0.0193 -0.1675 -0.5514
  953MOL0     C31431   0.054   9.171   0.158 -0.6606 -0.1997 -0.3251
  953MOL0     C31432  -0.003   9.053   0.204  0.3638 -0.0398  0.0893
  953MOL0     C31433  -0.131   9.018   0.158 -1.6936 -1.1605 -0.5808
  953MOL0     C31434  -0.193   9.089   0.059  0.1407  0.6263 -0.0267
  953MOL0     O31435  -0.299   9.034   0.014  0.8624  0.7047  0.7728
  953MOL0     C31436  -0.361   9.080  -0.110 -0.9335  0.8673  0.8538
  953MOL0     C31437  -0.492   9.008  -0.142  0.4071 -0.2486  0.6618
  953MOL0     C31438  -0.539   9.038  -0.282  0.0959 -0.2416 -0.8214
  953MOL0     C31439  -0.679   8.983  -0.305  0.0662  0.0534 -0.9119
  953MOL0     C31440  -0.735   9.039  -0.434  0.1728 -0.4564 -1.2628
  953MOL0     C31441  -0.782   9.098  -0.526  0.1084 -0.3612  0.6061
  953MOL0     C31442  -0.134   9.208   0.016  0.5316 -0.4813  0.3467
  953MOL0     C31443  -0.018   9.257   0.071  0.1841 -0.3893  0.2550
  953MOL0     C31444   0.034   9.391   0.019  0.1657  0.7232  0.0470
  953MOL0     H31445   0.431   9.331  -0.021  0.0577 -0.9513  0.2850
  953MOL0     H31446   0.644   9.396   0.020  0.1725 -0.0291 -0.3805
  953MOL0     H31447   0.960   9.473   0.203 -0.4025  1.6548 -1.5831
  953MOL0     H31448   0.825   9.500   0.100  2.1782  2.0954 -0.2835
  953MOL0     H31449   1.013   9.268   0.115  0.8216 -1.4231 -0.9658
  953MOL0     H31450   0.904   9.280  -0.024 -1.8214  0.9379  0.8015
  953MOL0     H31451   1.122   9.313  -0.086 -1.1926  0.9879 -3.0288
  953MOL0     H31452   1.069   9.485  -0.077 -2.7025 -0.3992  0.7385
  953MOL0     H31453   1.209   9.537   0.099 -1.3955  0.2048  0.0123
  953MOL0     H31454   1.182   9.378   0.176 -0.6597 -1.3258 -1.6439
  953MOL0     H31455   1.349   9.441  -0.070 -1.5775 -0.1061  0.2785
  953MOL0     H31456   1.347   9.294   0.022  2.1258  0.0847 -1.0818
  953MOL0     H31457   1.457   9.564   0.106 -0.5169 -0.7156 -0.3625
  953MOL0     H31458   1.411   9.453   0.227 -1.5247  1.8046  0.2099
  953MOL0     H31459   1.550   9.270   0.097 -3.0214 -0.2567  0.3314
  953MOL0     H31460   1.623   9.377   0.208  0.7734 -0.0202 -0.4134
  953MOL0     H31461   1.729   9.323  -0.040 -0.5455 -0.5264 -0.1630
  953MOL0     H31462   1.610   9.442  -0.090  1.6334  0.6854 -1.3409
  953MOL0     H31463   1.943   9.424   0.138  1.0053  0.4601  1.0461
  953MOL0     H31464   2.066   9.785   0.107 -4.4668 -1.0293  1.3917
  953MOL0     H31465   2.155   9.632   0.076  0.8763  1.5413 -0.3007
  953MOL0     H31466   1.971   9.692   0.320 -1.3744  0.0192 -2.0034
  953MOL0     H31467   2.095   9.560   0.309  4.4093  1.2831 -0.8628
  953MOL0     H31468   2.270   9.753   0.330  1.4652  3.0385  1.9533
  953MOL0     H31469   2.125   9.851   0.350 -1.8419 -1.1263 -1.7459
  953MOL0     H31470   2.073   9.717   0.573 -1.9292 -2.5229 -4.1180
  953MOL0     H31471   2.207   9.619   0.529  1.7753  0.8466 -0.9784
  953MOL0     H31472   2.013   9.923   0.596 -1.8982  1.8480 -0.9215
  953MOL0     H31473   1.861  10.025   0.664  0.1197  0.7637 -1.7097
  953MOL0     H31474   1.876  10.191   0.656  1.4574  0.1715 -1.7805
  953MOL0     H31475   1.891  10.121   0.817 -0.4165  0.1625 -1.1446
  953MOL0     H31476   1.885  10.386   0.988 -0.3518 -0.0457  0.9912
  953MOL0     H31477   1.783  10.584   1.091  0.4300  0.8047  1.2206
  953MOL0     H31478   1.720  10.757   1.159 -2.3523 -0.0892  0.1943
  953MOL0     H31479   1.802  10.910   1.172 -0.3290 -0.3203  1.7539
  953MOL0     H31480   1.521  10.833   1.050  0.7616 -1.7647  0.4108
  953MOL0     H31481   1.532  10.917   1.200  0.6608 -2.9887  0.2987
  953MOL0     H31482   1.630  11.038   0.929 -0.5703  0.1673 -0.8727
  953MOL0     H31483   1.636  11.119   1.079 -1.2865 -0.2446  2.0988
  953MOL0     H31484   1.411  11.175   1.081 -2.0661  0.3551 -1.2162
  953MOL0     H31485   1.364  11.014   1.038  1.6267 -1.0709  0.2671
  953MOL0     H31486   1.319  11.211   0.886 -1.2706  0.1391 -3.3727
  953MOL0     H31487   1.482  11.201   0.822 -0.5994 -1.7918 -2.4750
  953MOL0     H31488   1.409  10.934   0.796 -0.8271 -1.4397 -2.6133
  953MOL0     H31489   1.365  11.054   0.679  2.5439 -1.4727  0.1188
  953MOL0     H31490   1.171  11.077   0.882  2.0210  0.5461 -0.3023
  953MOL0     H31491   1.184  10.904   0.870 -0.6119 -0.9169 -0.1297
  953MOL0     H31492   1.024  10.932   0.724 -0.3359  1.8299  1.6094
  953MOL0     H31493   1.168  10.878   0.637 -0.8722 -1.5863  1.6679
  953MOL0     H31494   1.921  10.828   0.775 -0.3714  0.0910  1.2390
  953MOL0     H31495   2.053  10.630   0.677 -0.5176 -1.0844 -0.3601
  953MOL0     H31496   2.381  10.208   0.748 -0.0920  1.1913 -0.7891
  953MOL0     H31497   2.434   9.984   0.653  0.6633  0.9388 -0.5618
  953MOL0     H31498   0.674   9.137   0.360  1.2057  2.5994  0.5443
  953MOL0     H31499   0.456   9.053   0.314 -0.2995 -1.0608 -1.8165
  953MOL0     H31500   0.044   8.974   0.262 -0.6201 -1.0297 -0.4295
  953MOL0     H31501  -0.181   8.927   0.189  0.4336 -2.4320 -0.6122
  953MOL0     H31502  -0.380   9.187  -0.100 -1.2743  1.2840 -2.9457
  953MOL0     H31503  -0.283   9.075  -0.186 -0.8581  3.5977  0.6440
  953MOL0     H31504  -0.571   9.028  -0.069  0.3114  1.8452  0.0570
  953MOL0     H31505  -0.463   8.903  -0.134  0.7562 -0.1002  1.4589
  953MOL0     H31506  -0.550   9.146  -0.294  2.3985  0.4252  1.8017
  953MOL0     H31507  -0.466   8.999  -0.353 -1.4076 -1.1185 -1.9275
  953MOL0     H31508  -0.737   9.011  -0.217 -0.7502  0.0986 -1.4493
  953MOL0     H31509  -0.674   8.875  -0.320 -2.9841 -0.0063 -2.1016
  953MOL0     H31510  -0.821   9.149  -0.612  0.8421 -1.0404 -0.1459
  953MOL0     H31511  -0.190   9.266  -0.057  0.5566 -0.6567  0.1880
  953MOL0     H31512  -0.031   9.432  -0.059 -0.1318 -0.5336 -0.3894
  953MOL0     H31513   0.032   9.463   0.101  1.3778  1.7148 -0.7652
  953MOL0     H31514   0.143   9.392   0.006  0.3204  2.9227  0.9790
  954MOL0     O31515   3.961   6.226  10.981  0.0552 -0.9020  0.2690
  954MOL0     C31516   3.947   6.179  10.871 -1.1283  0.4712  0.4850
  954MOL0     O31517   4.025   6.218  10.760 -0.2568  0.7750  0.1983
  954MOL0     C31518   4.107   6.322  10.777 -1.3249  0.2672  0.6295
  954MOL0     C31519   4.203   6.331  10.882  0.6845  0.2998  0.6672
  954MOL0     C31520   4.286   6.446  10.891 -0.2971  0.6350  0.2363
  954MOL0     C31521   4.277   6.541  10.793  0.8911  0.5859  0.1477
  954MOL0     O31522   4.373   6.637  10.807  0.6258 -0.4767  1.0261
  954MOL0     C31523   4.391   6.721  10.696 -0.6161  0.8818 -0.1930
  954MOL0     C31524   4.499   6.837  10.727 -0.0362  0.8327  0.4708
  954MOL0     C31525   4.459   6.943  10.835  0.9013  0.0438 -1.2176
  954MOL0     C31526   4.577   6.998  10.914 -0.2096 -0.4366  0.6887
  954MOL0     C31527   4.656   7.111  10.841  0.3036  0.6629 -0.8144
  954MOL0     C31528   4.756   7.180  10.936  0.2091  0.9379 -1.0059
  954MOL0     C31529   4.881   7.092  10.965 -0.3833 -0.2129 -0.4034
  954MOL0     C31530   4.994   7.179  11.005  0.1786 -0.3282 -0.5038
  954MOL0     N31531   4.981   7.217  11.146 -0.1057 -0.5353  0.2004
  954MOL0     C31532   4.984   7.349  11.183  0.8770 -0.1007 -0.0738
  954MOL0     C31533   4.999   7.347  11.317 -0.8273  0.2830 -0.3673
  954MOL0     C31534   5.021   7.474  11.389 -0.0735 -0.6061 -0.1739
  954MOL0     C31535   5.036   7.451  11.548 -0.1508 -0.1659 -0.0364
  954MOL0     C31536   5.046   7.590  11.603  0.0353  0.1417 -0.9612
  954MOL0     C31537   5.032   7.598  11.764 -0.9711 -0.7571  0.2991
  954MOL0     O31538   5.125   7.513  11.830  0.3577 -0.0631 -0.1526
  954MOL0     C31539   5.260   7.539  11.840  0.5613  0.2522  0.0835
  954MOL0     C31540   5.321   7.655  11.793 -0.1899  0.1498  0.2740
  954MOL0     C31541   5.459   7.678  11.805 -0.2262  0.9157 -0.7868
  954MOL0     C31542   5.511   7.803  11.745 -0.6472 -0.2008 -0.1184
  954MOL0     C31543   5.541   7.582  11.878 -0.5592 -0.0075 -0.4784
  954MOL0     C31544   5.674   7.616  11.926 -0.4648  0.1749 -0.9753
  954MOL0     O31545   5.751   7.724  11.879  0.6965  0.3259 -0.4028
  954MOL0     C31546   5.884   7.741  11.910  0.6152 -0.0967 -0.5871
  954MOL0     C31547   5.935   7.730  12.042  0.6484  0.2474  0.3889
  954MOL0     C31548   6.063   7.768  12.073 -0.6102 -0.4196  0.1051
  954MOL0     C31549   6.143   7.837  11.976 -0.0179  1.1973  0.7769
  954MOL0     O31550   6.270   7.866  12.021  0.0944  0.3681 -0.0675
  954MOL0     C31551   6.342   7.983  11.968  0.8278 -0.2985  0.1088
  954MOL0     C31552   6.477   8.016  12.027  0.1542  0.2358 -0.5422
  954MOL0     C31553   6.555   7.881  12.052  0.5185 -0.8090  0.5416
  954MOL0     C31554   6.694   7.942  12.091 -0.3168  1.1392 -0.2083
  954MOL0     C31555   6.780   7.829  12.133  0.0145  0.1352 -0.7020
  954MOL0     C31556   6.894   7.881  12.219  0.1434  1.0384  0.0995
  954MOL0     C31557   7.019   7.920  12.140  0.7454  0.4886  0.4601
  954MOL0     C31558   7.124   7.957  12.233 -0.4222 -0.6909 -0.1273
  954MOL0    Cl31559   7.201   7.812  12.298  0.3580 -0.0076 -0.1593
  954MOL0     C31560   6.092   7.856  11.846 -1.3182  0.1867 -0.2123
  954MOL0     C31561   5.960   7.807  11.809 -0.1680  1.3261  0.2996
  954MOL0     O31562   5.715   7.540  12.018  1.0043  0.1243 -0.1899
  954MOL0     C31563   5.481   7.458  11.898  0.1784 -0.4206  0.2498
  954MOL0     C31564   5.344   7.437  11.882  0.0468 -0.1107 -0.4218
  954MOL0     N31565   5.009   7.212  11.359 -0.5801 -0.0343  1.1281
  954MOL0     N31566   4.988   7.138  11.257  1.0801 -0.3704  0.2626
  954MOL0     C31567   4.194   6.526  10.679  0.1042 -0.4206 -0.0175
  954MOL0     C31568   4.112   6.416  10.671 -0.7641  0.7265  0.0275
  954MOL0     C31569   3.845   6.080  10.860 -1.2029  0.5411 -0.4105
  954MOL0     C31570   3.800   6.046  10.733 -0.1204 -0.0877  0.3659
  954MOL0     C31571   3.713   5.946  10.698  0.3342  0.9625 -0.4347
  954MOL0     C31572   3.650   5.875  10.807  0.0043  0.2026  0.0586
  954MOL0     O31573   3.552   5.778  10.786 -0.3440 -0.3014  0.5947
  954MOL0     C31574   3.458   5.734  10.879  0.2998  0.6876 -0.3150
  954MOL0     C31575   3.367   5.847  10.927 -0.7476 -0.2403  0.2303
  954MOL0     C31576   3.265   5.900  10.826  0.2494 -0.0039  0.4123
  954MOL0     C31577   3.144   5.983  10.887 -0.3420  0.1344  0.1065
  954MOL0     C31578   3.059   6.034  10.785  0.1838 -0.4305 -0.3187
  954MOL0     C31579   2.982   6.080  10.702 -0.0467  0.2624 -0.0165
  954MOL0     C31580   3.698   5.899  10.936  1.1009 -0.3133  0.0596
  954MOL0     C31581   3.801   5.988  10.961 -0.2189 -0.4207  1.0481
  954MOL0     C31582   3.847   5.988  11.101  1.1539 -0.2584 -0.4900
  954MOL0     H31583   4.194   6.253  10.957 -3.2660  0.7706  0.9237
  954MOL0     H31584   4.359   6.464  10.969  0.3298 -1.6802  0.2507
  954MOL0     H31585   4.299   6.768  10.660  0.2648  3.3687  0.5792
  954MOL0     H31586   4.420   6.660  10.610 -2.0847 -1.1442  0.6819
  954MOL0     H31587   4.593   6.787  10.752  0.5163  0.1692 -2.5093
  954MOL0     H31588   4.515   6.896  10.636 -1.0826  1.6494  0.7948
  954MOL0     H31589   4.409   7.025  10.783  1.3113  1.2237  0.1810
  954MOL0     H31590   4.390   6.893  10.904  0.7145 -0.1826 -1.5628
  954MOL0     H31591   4.550   7.039  11.011 -1.9119 -0.7117  0.3493
  954MOL0     H31592   4.652   6.919  10.924 -1.6920 -1.9077  0.4697
  954MOL0     H31593   4.587   7.188  10.805 -1.5446  0.5250  2.1084
  954MOL0     H31594   4.716   7.069  10.760 -1.0262 -0.3205 -1.3146
  954MOL0     H31595   4.805   7.272  10.902 -0.6059  2.3165  1.2972
  954MOL0     H31596   4.709   7.203  11.033  2.1386  0.7216  0.0296
  954MOL0     H31597   4.917   7.045  10.872 -1.8752  0.6964 -1.4922
  954MOL0     H31598   4.860   7.021  11.045 -2.5837 -1.0521 -1.6245
  954MOL0     H31599   5.085   7.119  10.995 -0.2200 -1.0570  0.1652
  954MOL0     H31600   5.007   7.273  10.951  1.8884 -1.1583 -1.6329
  954MOL0     H31601   4.983   7.436  11.117  0.8509 -1.1438 -1.5004
  954MOL0     H31602   4.937   7.541  11.371  0.3465  0.8595  2.7309
  954MOL0     H31603   5.110   7.514  11.339 -1.5984  0.9452 -1.8106
  954MOL0     H31604   4.939   7.409  11.575 -1.5789  1.6272 -2.0080
  954MOL0     H31605   5.121   7.388  11.576 -1.1239 -0.7142  1.8339
  954MOL0     H31606   5.137   7.640  11.570  0.1211  1.1050  0.6226
  954MOL0     H31607   4.962   7.652  11.568 -0.1747  0.0475 -0.6287
  954MOL0     H31608   5.053   7.702  11.791  1.1969 -1.0793  0.0545
  954MOL0     H31609   4.927   7.584  11.791 -0.8887 -0.0546  1.0417
  954MOL0     H31610   5.269   7.740  11.751  1.2248  0.2557 -1.3814
  954MOL0     H31611   5.436   7.854  11.683 -1.2448 -0.6655  0.2158
  954MOL0     H31612   5.597   7.773  11.685 -2.2107 -1.0901 -2.0164
  954MOL0     H31613   5.539   7.869  11.828  1.3903 -2.0743  0.7695
  954MOL0     H31614   5.876   7.677  12.116 -0.6919 -0.5336 -1.1586
  954MOL0     H31615   6.095   7.745  12.174  0.1164  1.0374  0.2330
  954MOL0     H31616   6.365   7.947  11.867  2.3386  1.8745 -0.3965
  954MOL0     H31617   6.275   8.070  11.969  0.3626 -0.6546  0.1802
  954MOL0     H31618   6.534   8.082  11.960  1.5359 -0.7556 -0.3905
  954MOL0     H31619   6.464   8.073  12.120  0.2359 -0.8633  0.1657
  954MOL0     H31620   6.566   7.820  11.962  0.9476 -1.1773  0.8351
  954MOL0     H31621   6.506   7.819  12.128 -1.3806  0.4600  0.4115
  954MOL0     H31622   6.689   8.021  12.167  1.3739 -2.2452  3.7386
  954MOL0     H31623   6.742   7.992  12.006 -1.7301 -0.1588 -1.8422
  954MOL0     H31624   6.738   7.745  12.188  1.9797 -0.6410 -0.3264
  954MOL0     H31625   6.824   7.792  12.040 -0.4213 -1.1421 -0.4262
  954MOL0     H31626   6.915   7.806  12.296  1.9752  1.8275  0.4316
  954MOL0     H31627   6.859   7.963  12.283 -1.7269  1.4208 -1.3551
  954MOL0     H31628   6.988   8.004  12.077 -0.4264 -1.1491 -1.2533
  954MOL0     H31629   7.046   7.837  12.076 -2.8030  0.0199 -0.6497
  954MOL0     H31630   7.082   8.016  12.314  2.2643  0.7444  0.3367
  954MOL0     H31631   7.206   8.009  12.182 -0.4308 -2.5024 -2.1419
  954MOL0     H31632   6.158   7.908  11.777  1.6098 -0.6158  1.7616
  954MOL0     H31633   5.917   7.812  11.710 -0.0033 -2.4084 -0.0912
  954MOL0     H31634   5.532   7.381  11.956 -1.2655 -2.3180 -0.9064
  954MOL0     H31635   5.301   7.341  11.909  0.6363 -0.6957 -1.4972
  954MOL0     H31636   4.191   6.603  10.602 -0.5820  0.9094  1.2856
  954MOL0     H31637   4.052   6.387  10.585  0.8091  0.7481 -1.1010
  954MOL0     H31638   3.839   6.099  10.647  0.2706  2.6921  2.1323
  954MOL0     H31639   3.683   5.930  10.594 -1.0164  3.1928 -0.4408
  954MOL0     H31640   3.393   5.667  10.822 -1.3161 -0.4509  2.6274
  954MOL0     H31641   3.502   5.686  10.967 -1.5488  0.9798  0.8450
  954MOL0     H31642   3.433   5.926  10.963  1.9949 -1.6346 -1.3517
  954MOL0     H31643   3.308   5.818  11.015 -0.2351 -0.9247  0.3521
  954MOL0     H31644   3.317   5.967  10.757 -1.6799  0.8989 -0.2435
  954MOL0     H31645   3.237   5.819  10.757  0.6253 -2.7826  3.2911
  954MOL0     H31646   3.190   6.070  10.935  0.7503  0.8820 -2.1701
  954MOL0     H31647   3.081   5.921  10.952 -3.4914  2.4618 -0.4962
  954MOL0     H31648   2.930   6.115  10.616  0.2840 -3.2047 -1.7974
  954MOL0     H31649   3.656   5.832  11.010 -2.7303 -1.9861 -3.2346
  954MOL0     H31650   3.801   6.081  11.135 -0.6469 -1.8494  1.7004
  954MOL0     H31651   3.812   5.906  11.164  1.3777  1.4140  1.9248
  954MOL0     H31652   3.956   5.998  11.108  1.0757 -0.5809  2.3765
  955MOL0     O31653   2.109   1.830   3.093  0.0794 -0.3185  0.4925
  955MOL0     C31654   2.163   1.851   3.200  0.8229  0.8816 -0.3790
  955MOL0     O31655   2.094   1.844   3.321  0.0492  0.4162  0.1157
  955MOL0     C31656   1.963   1.848   3.324  0.4044 -0.3315  0.9725
  955MOL0     C31657   1.889   1.966   3.330  0.0822  1.1722 -0.7290
  955MOL0     C31658   1.752   1.963   3.310  0.8219 -0.3408 -1.0117
  955MOL0     C31659   1.678   1.845   3.289 -0.4023  0.7507 -0.0370
  955MOL0     O31660   1.544   1.827   3.274  0.0477 -0.2533 -0.3029
  955MOL0     C31661   1.452   1.941   3.269 -0.4792  0.0007 -0.3126
  955MOL0     C31662   1.306   1.909   3.280 -0.5327 -0.2017 -0.0669
  955MOL0     C31663   1.228   2.030   3.212 -0.2241 -0.3458  0.1701
  955MOL0     C31664   1.081   1.990   3.215  0.4972  0.4729 -1.0622
  955MOL0     C31665   0.982   2.085   3.138  0.1088  0.7241 -0.8775
  955MOL0     C31666   0.986   2.080   2.977 -0.3204  1.1751 -0.3613
  955MOL0     C31667   0.874   2.157   2.906 -0.5423  0.5454 -0.2847
  955MOL0     C31668   0.856   2.306   2.948  0.3932  0.1227  0.8648
  955MOL0     N31669   0.750   2.387   2.873 -0.2484  0.4314 -0.5883
  955MOL0     C31670   0.740   2.401   2.731  0.1634 -0.1283 -0.8159
  955MOL0     C31671   0.637   2.474   2.715 -0.3859 -0.8906 -0.3988
  955MOL0     C31672   0.611   2.547   2.586 -0.2628 -0.0083  0.9469
  955MOL0     C31673   0.583   2.457   2.459  0.5639  0.6399 -0.3231
  955MOL0     C31674   0.493   2.515   2.345 -0.4177 -0.3156  0.0787
  955MOL0     C31675   0.544   2.657   2.302 -0.2417  0.2901 -0.6982
  955MOL0     O31676   0.436   2.715   2.239  0.6858 -0.5630  0.6725
  955MOL0     C31677   0.437   2.848   2.211  0.2852  0.1990 -0.5318
  955MOL0     C31678   0.325   2.886   2.135 -0.7060  0.0231  0.3628
  955MOL0     C31679   0.315   3.012   2.086  0.0240 -0.5481  0.0989
  955MOL0     C31680   0.189   3.041   2.005  0.2165  0.0716  1.0310
  955MOL0     C31681   0.419   3.103   2.111 -0.6578  0.0908  1.2599
  955MOL0     C31682   0.413   3.245   2.070 -0.2950  0.1978 -0.6402
  955MOL0     O31683   0.524   3.321   2.079 -0.1214  0.5511  0.8753
  955MOL0     C31684   0.515   3.449   2.039 -0.7566  0.5607 -1.1772
  955MOL0     C31685   0.514   3.555   2.124  0.5444 -0.1077 -0.0083
  955MOL0     C31686   0.523   3.694   2.077 -0.3622  0.1208  1.3574
  955MOL0     C31687   0.516   3.722   1.934  1.0118  0.4422 -0.4673
  955MOL0     O31688   0.515   3.853   1.904 -0.0329 -0.1845  0.3600
  955MOL0     C31689   0.580   3.916   1.788  0.7778 -0.2106 -0.0112
  955MOL0     C31690   0.510   4.045   1.765 -0.6036  0.2125  0.5669
  955MOL0     C31691   0.526   4.156   1.855 -0.2159 -0.1437 -0.1488
  955MOL0     C31692   0.490   4.127   2.007  0.3737  0.4111 -0.2063
  955MOL0     C31693   0.492   4.274   2.072  0.0145 -1.0244  0.2139
  955MOL0     C31694   0.473   4.254   2.228 -0.3927 -0.6322  0.7401
  955MOL0     C31695   0.606   4.216   2.296  0.7090  0.6661 -0.2576
  955MOL0     C31696   0.604   4.224   2.455 -0.5798 -0.5006 -0.0235
  955MOL0    Cl31697   0.770   4.179   2.509 -0.0287 -0.0001  0.5520
  955MOL0     C31698   0.499   3.614   1.849  0.1263  0.1517  0.4134
  955MOL0     C31699   0.517   3.476   1.901 -0.1005 -0.1098 -0.2400
  955MOL0     O31700   0.305   3.288   2.032  0.1103  1.1057  0.0792
  955MOL0     C31701   0.532   3.068   2.195  0.2539  0.4716  0.0397
  955MOL0     C31702   0.529   2.941   2.245 -0.0393  0.1584  0.5306
  955MOL0     N31703   0.574   2.502   2.838  0.7835 -0.5794 -0.2389
  955MOL0     N31704   0.646   2.447   2.933 -0.0599 -0.0787  0.9208
  955MOL0     C31705   1.747   1.728   3.296 -0.2681  0.1242 -0.4118
  955MOL0     C31706   1.892   1.727   3.311  0.6600  0.1452  0.7065
  955MOL0     C31707   2.306   1.878   3.201 -0.1778 -0.2486  0.1006
  955MOL0     C31708   2.355   1.894   3.334  0.2601 -0.4473 -0.0066
  955MOL0     C31709   2.489   1.924   3.361  0.0024  0.1763 -0.1650
  955MOL0     C31710   2.582   1.921   3.257  0.1920 -0.0921  0.4467
  955MOL0     O31711   2.711   1.947   3.294 -0.3333  0.4224  0.5142
  955MOL0     C31712   2.809   1.962   3.188 -0.3800  0.1690  0.3454
  955MOL0     C31713   2.942   2.003   3.251  0.0047  0.0981 -0.6423
  955MOL0     C31714   2.922   2.146   3.292 -0.5184 -0.6417 -0.1701
  955MOL0     C31715   3.049   2.215   3.355 -0.4379 -0.3432 -0.1986
  955MOL0     C31716   3.017   2.354   3.335  0.3175 -0.6269  0.0278
  955MOL0     C31717   2.994   2.476   3.326  0.3093 -0.5176  0.3315
  955MOL0     C31718   2.539   1.897   3.124  0.9807 -1.2269 -0.5413
  955MOL0     C31719   2.404   1.876   3.100 -0.3495  0.6848  1.7368
  955MOL0     C31720   2.363   1.858   2.954 -0.6145 -0.2384  0.3631
  955MOL0     H31721   1.930   2.067   3.333  2.8502  0.2090 -2.3675
  955MOL0     H31722   1.704   2.060   3.318  1.7793  0.1210 -0.6860
  955MOL0     H31723   1.467   1.986   3.170 -1.3682 -1.3971 -1.1230
  955MOL0     H31724   1.473   2.019   3.342  4.9628  0.5528 -2.0246
  955MOL0     H31725   1.282   1.817   3.226 -0.9222  1.4213 -2.8982
  955MOL0     H31726   1.285   1.896   3.386 -0.6675 -2.7101 -0.3466
  955MOL0     H31727   1.252   2.118   3.273  0.2859 -0.1359 -0.3180
  955MOL0     H31728   1.262   2.056   3.111 -1.8308  1.9570  0.1324
  955MOL0     H31729   1.079   1.889   3.173  0.8729  0.2855 -0.6271
  955MOL0     H31730   1.050   1.993   3.320 -0.3536  3.7433 -1.2919
  955MOL0     H31731   1.016   2.180   3.180 -0.6853  0.5643  0.1704
  955MOL0     H31732   0.881   2.061   3.172  0.7147 -0.1760  0.4092
  955MOL0     H31733   1.085   2.116   2.947  0.5897 -0.2960  0.7550
  955MOL0     H31734   0.977   1.978   2.937  0.2648  0.6426  0.8161
  955MOL0     H31735   0.781   2.099   2.906 -0.2326 -0.0245 -2.4333
  955MOL0     H31736   0.907   2.153   2.802 -1.1666 -0.1310 -0.4707
  955MOL0     H31737   0.813   2.319   3.048 -2.3969 -2.4589  0.1507
  955MOL0     H31738   0.954   2.355   2.942 -0.0340  0.8908 -0.1043
  955MOL0     H31739   0.817   2.382   2.656  1.7359 -1.6683  1.0663
  955MOL0     H31740   0.704   2.600   2.565  1.0450 -2.9041 -1.2369
  955MOL0     H31741   0.539   2.628   2.600  0.3723  0.4044  1.9869
  955MOL0     H31742   0.682   2.432   2.419  2.0736  2.1173  2.2305
  955MOL0     H31743   0.540   2.362   2.492  0.3242  0.7452 -0.3337
  955MOL0     H31744   0.504   2.447   2.260 -0.1251  0.2967 -0.3811
  955MOL0     H31745   0.389   2.528   2.375 -0.7715  1.7207 -1.8117
  955MOL0     H31746   0.556   2.709   2.397 -0.0399  0.2986 -0.7279
  955MOL0     H31747   0.627   2.657   2.231  0.9870  2.0638  0.6559
  955MOL0     H31748   0.250   2.808   2.121  0.0992 -0.9919  1.4621
  955MOL0     H31749   0.129   2.950   2.000  1.3351 -0.6226 -1.8848
  955MOL0     H31750   0.221   3.064   1.903 -3.0071 -0.2923 -0.1820
  955MOL0     H31751   0.122   3.124   2.030  0.0332  1.0487 -2.2095
  955MOL0     H31752   0.493   3.537   2.228 -2.3792  1.6079 -0.2125
  955MOL0     H31753   0.527   3.780   2.142  2.9465  1.8915 -0.8590
  955MOL0     H31754   0.686   3.943   1.798  1.3208 -1.4862 -1.7760
  955MOL0     H31755   0.563   3.843   1.709  3.6296 -0.6404 -0.3272
  955MOL0     H31756   0.525   4.077   1.662 -2.7411  1.4908  0.6080
  955MOL0     H31757   0.402   4.031   1.760 -0.7244  0.9415  0.9506
  955MOL0     H31758   0.461   4.234   1.815 -0.8251 -1.2652 -1.4253
  955MOL0     H31759   0.627   4.198   1.851 -1.7731  3.9243 -1.2605
  955MOL0     H31760   0.556   4.053   2.052 -0.0130  1.0663  1.5128
  955MOL0     H31761   0.397   4.070   2.017  1.7185 -1.8263 -0.0151
  955MOL0     H31762   0.591   4.319   2.059 -0.2285  0.1153  1.9069
  955MOL0     H31763   0.424   4.343   2.022  0.1709 -0.9808  0.0603
  955MOL0     H31764   0.390   4.192   2.263  1.4087 -1.1242  4.7575
  955MOL0     H31765   0.437   4.355   2.248  2.6213  0.8674 -0.7860
  955MOL0     H31766   0.683   4.288   2.265 -0.8203  2.1815 -0.7234
  955MOL0     H31767   0.635   4.115   2.268  0.8795 -0.1719  2.5867
  955MOL0     H31768   0.534   4.157   2.506  3.2058 -5.4006 -0.5105
  955MOL0     H31769   0.583   4.330   2.475  0.1202 -0.2143 -0.7246
  955MOL0     H31770   0.481   3.631   1.743 -0.5393 -0.7941  0.3606
  955MOL0     H31771   0.510   3.389   1.836 -5.9065 -1.7291  1.9281
  955MOL0     H31772   0.615   3.133   2.224 -0.9825  1.1359  2.2874
  955MOL0     H31773   0.621   2.904   2.288  1.6975  2.6017 -0.7990
  955MOL0     H31774   1.699   1.631   3.292  1.6461 -0.9452  0.6418
  955MOL0     H31775   1.937   1.629   3.312  0.6505  0.0185 -2.3663
  955MOL0     H31776   2.298   1.903   3.426 -0.6141  2.7078 -0.7378
  955MOL0     H31777   2.525   1.930   3.463  1.3738  1.1097 -0.6823
  955MOL0     H31778   2.818   1.864   3.141  0.4591  0.9071 -1.1312
  955MOL0     H31779   2.773   2.029   3.110 -1.7801 -1.1545 -0.1866
  955MOL0     H31780   3.018   1.986   3.174 -0.3623 -6.1071 -0.1831
  955MOL0     H31781   2.982   1.957   3.342  3.8638  1.4749 -1.4571
  955MOL0     H31782   2.890   2.197   3.200 -4.4951 -1.6005  0.5083
  955MOL0     H31783   2.842   2.154   3.366  0.8131 -1.8263  1.4783
  955MOL0     H31784   3.136   2.191   3.292 -1.8679 -0.5545 -2.2030
  955MOL0     H31785   3.060   2.190   3.461 -2.1952 -1.8102 -0.3287
  955MOL0     H31786   2.994   2.582   3.315  3.6114 -0.7212 -3.8297
  955MOL0     H31787   2.613   1.911   3.045  0.6329  2.8102 -0.3685
  955MOL0     H31788   2.310   1.763   2.940 -2.2783  0.5882  0.7586
  955MOL0     H31789   2.289   1.938   2.952 -0.3726  0.1185  2.5950
  955MOL0     H31790   2.441   1.886   2.883 -0.8724  1.0511  0.5787
  956MOL0     O31791   4.358   2.025   5.315 -0.1941  0.2176 -0.2147
  956MOL0     C31792   4.368   1.904   5.323  0.4996 -0.1146 -0.0895
  956MOL0     O31793   4.273   1.822   5.372  0.5412 -0.3799  0.3063
  956MOL0     C31794   4.146   1.868   5.393  0.3991  1.0451 -0.7509
  956MOL0     C31795   4.059   1.793   5.487 -0.7273 -0.8264 -0.2759
  956MOL0     C31796   3.922   1.838   5.510 -0.4592  0.2179 -0.4995
  956MOL0     C31797   3.868   1.939   5.432  0.0388 -0.5505 -0.4260
  956MOL0     O31798   3.735   1.969   5.460  0.4224  0.0237 -0.3624
  956MOL0     C31799   3.672   2.078   5.391  0.1557 -0.0200 -0.1109
  956MOL0     C31800   3.526   2.107   5.425 -0.1533 -0.2448 -0.4809
  956MOL0     C31801   3.505   2.174   5.566  0.5468 -0.2127  0.2483
  956MOL0     C31802   3.356   2.173   5.597  0.4429 -0.2417  0.3881
  956MOL0     C31803   3.311   2.279   5.701  0.3821 -0.1834  1.0125
  956MOL0     C31804   3.321   2.424   5.642  0.3654 -0.0080  0.0828
  956MOL0     C31805   3.313   2.526   5.753  0.0651 -0.5545 -0.4892
  956MOL0     C31806   3.158   2.539   5.806  0.5830  0.1358 -0.0784
  956MOL0     N31807   3.135   2.621   5.927  0.0108 -0.1344 -0.2204
  956MOL0     C31808   3.081   2.751   5.931  0.6426 -0.1413  0.2236
  956MOL0     C31809   3.071   2.780   6.061  0.4124 -0.1210 -0.3304
  956MOL0     C31810   2.995   2.897   6.114  0.3856 -0.4218  0.0607
  956MOL0     C31811   2.978   3.023   6.023  0.7526 -0.0054 -1.0495
  956MOL0     C31812   3.104   3.110   6.001  0.0888  0.6379 -0.3629
  956MOL0     C31813   3.212   3.041   5.912  0.1586  0.4896 -0.0653
  956MOL0     O31814   3.162   3.005   5.778 -0.3392  0.2544 -0.0934
  956MOL0     C31815   3.238   2.940   5.688  0.2275 -0.0969 -0.8963
  956MOL0     C31816   3.370   2.915   5.710  0.3713  0.4461  0.5823
  956MOL0     C31817   3.436   2.837   5.621 -0.2090  0.5000 -0.1729
  956MOL0     C31818   3.581   2.814   5.657  1.0033 -0.2556 -1.1529
  956MOL0     C31819   3.382   2.779   5.499 -0.2258  0.0027 -0.5746
  956MOL0     C31820   3.460   2.711   5.396  0.1607  0.2620 -0.2213
  956MOL0     O31821   3.559   2.622   5.431  0.6217 -0.2439  0.5357
  956MOL0     C31822   3.601   2.550   5.317  0.0629  0.1692  0.2790
  956MOL0     C31823   3.712   2.586   5.250  0.3970 -0.3721 -0.8473
  956MOL0     C31824   3.750   2.521   5.131 -0.6082  0.0569  0.0264
  956MOL0     C31825   3.687   2.403   5.091 -1.1462 -0.5012 -0.5432
  956MOL0     O31826   3.725   2.336   4.979  1.1722  0.9305  0.3761
  956MOL0     C31827   3.667   2.387   4.855 -1.0040  0.0328 -0.5267
  956MOL0     C31828   3.781   2.435   4.768 -0.5516  0.5544  0.2218
  956MOL0     C31829   3.883   2.328   4.738 -0.1992  0.0689 -0.5324
  956MOL0     C31830   3.922   2.338   4.590  0.1643 -0.2719  0.7844
  956MOL0     C31831   4.038   2.254   4.548 -0.8412  0.5555  0.2850
  956MOL0     C31832   4.170   2.271   4.640  0.1638 -0.0674 -0.1136
  956MOL0     C31833   4.298   2.208   4.578  0.5902 -0.0522 -0.2686
  956MOL0     C31834   4.318   2.058   4.598 -1.3489  1.2692 -0.0569
  956MOL0    Cl31835   4.336   2.009   4.768 -0.1321  0.1267 -0.1405
  956MOL0     C31836   3.573   2.365   5.171 -0.4605 -0.5426  0.9215
  956MOL0     C31837   3.532   2.436   5.283 -0.6330  0.6546  0.4020
  956MOL0     O31838   3.435   2.749   5.277 -0.2080  0.9916  0.2961
  956MOL0     C31839   3.252   2.813   5.478  0.1304  0.1030 -0.4668
  956MOL0     C31840   3.175   2.882   5.577 -0.9447 -0.1851  0.1331
  956MOL0     N31841   3.116   2.674   6.138  0.1989  0.2632 -0.3359
  956MOL0     N31842   3.157   2.583   6.053 -0.7910 -0.4909 -0.0136
  956MOL0     C31843   3.949   2.010   5.341  0.2282  0.0157  1.2547
  956MOL0     C31844   4.085   1.972   5.314 -0.2148  1.2371 -0.2572
  956MOL0     C31845   4.496   1.835   5.293 -1.7386  0.2720 -0.3869
  956MOL0     C31846   4.491   1.694   5.283 -0.2055 -0.3876 -0.5968
  956MOL0     C31847   4.608   1.620   5.251 -0.4635 -0.1316  0.2159
  956MOL0     C31848   4.730   1.676   5.208 -0.1190 -0.6598 -0.0261
  956MOL0     O31849   4.859   1.611   5.192 -0.2773  0.2715 -0.4506
  956MOL0     C31850   4.861   1.466   5.223 -0.1069  0.6672  0.0706
  956MOL0     C31851   4.984   1.376   5.193 -0.6774 -0.3803 -0.6912
  956MOL0     C31852   5.093   1.424   5.290  0.7100  0.3630 -0.3484
  956MOL0     C31853   5.215   1.332   5.280  0.2530 -0.1237  0.2452
  956MOL0     C31854   5.311   1.372   5.384 -0.2738 -0.2414 -1.1553
  956MOL0     C31855   5.372   1.416   5.478  0.5841 -0.0354 -0.1843
  956MOL0     C31856   4.735   1.815   5.224 -0.5514  0.8164 -0.4397
  956MOL0     C31857   4.620   1.903   5.254 -0.0756 -0.2909 -1.1515
  956MOL0     C31858   4.649   2.044   5.274  1.1558 -0.2329 -0.4675
  956MOL0     H31859   4.109   1.723   5.554  0.9792 -0.5969 -1.2754
  956MOL0     H31860   3.862   1.782   5.580 -0.9319  1.1400 -0.1551
  956MOL0     H31861   3.682   2.041   5.288 -0.6047  0.1925 -0.2646
  956MOL0     H31862   3.736   2.165   5.412 -1.5684  0.6941  2.7734
  956MOL0     H31863   3.487   2.176   5.350  0.0384 -0.8106 -1.1054
  956MOL0     H31864   3.484   2.006   5.421 -0.8341 -0.0087  0.3715
  956MOL0     H31865   3.557   2.120   5.646  2.0252  0.3753 -0.2822
  956MOL0     H31866   3.540   2.277   5.570 -1.3102  0.4987 -0.6424
  956MOL0     H31867   3.290   2.191   5.511 -0.6981 -1.6435  0.9308
  956MOL0     H31868   3.325   2.070   5.618 -1.3242  0.6093  2.2989
  956MOL0     H31869   3.377   2.269   5.788  2.4680 -3.3310 -0.7255
  956MOL0     H31870   3.205   2.265   5.723 -0.3447 -0.8168 -2.4071
  956MOL0     H31871   3.422   2.432   5.599  0.5878 -3.5278 -0.2908
  956MOL0     H31872   3.252   2.441   5.559  2.8002 -1.3286 -2.3664
  956MOL0     H31873   3.337   2.624   5.709  0.0570 -1.5337 -2.7989
  956MOL0     H31874   3.381   2.514   5.837  1.2895  3.6124 -0.6660
  956MOL0     H31875   3.091   2.558   5.721  3.3720 -0.7119 -2.6489
  956MOL0     H31876   3.130   2.440   5.842 -1.4139  1.7659  3.3882
  956MOL0     H31877   3.062   2.816   5.845  0.7213 -0.7572 -0.2646
  956MOL0     H31878   3.049   2.925   6.205 -0.4109 -0.3393  0.5171
  956MOL0     H31879   2.894   2.856   6.128 -0.5888 -1.7865 -6.9533
  956MOL0     H31880   2.932   2.990   5.930 -1.3289 -2.9108  0.8463
  956MOL0     H31881   2.908   3.086   6.078  2.4033  0.8358  0.1614
  956MOL0     H31882   3.066   3.200   5.953  0.2743  0.4566 -0.8519
  956MOL0     H31883   3.148   3.140   6.097  2.0956 -1.1093 -0.6432
  956MOL0     H31884   3.289   3.118   5.903  0.5454  0.0168 -0.9324
  956MOL0     H31885   3.252   2.949   5.954  1.4396  1.1644  0.2468
  956MOL0     H31886   3.429   2.940   5.798  0.6873  1.0319  0.2076
  956MOL0     H31887   3.639   2.817   5.564 -0.3939  1.1792 -2.0075
  956MOL0     H31888   3.608   2.714   5.693  1.9876  0.0378 -1.0299
  956MOL0     H31889   3.605   2.894   5.727 -1.4658  3.3278 -4.0300
  956MOL0     H31890   3.766   2.673   5.287  1.1468 -0.9529 -0.5505
  956MOL0     H31891   3.835   2.562   5.077 -0.2924 -1.5795 -0.7870
  956MOL0     H31892   3.615   2.302   4.811 -3.4746  0.9008  0.5215
  956MOL0     H31893   3.594   2.467   4.869 -1.3155  0.0326 -2.0200
  956MOL0     H31894   3.737   2.478   4.677 -1.1306 -0.0080  0.2293
  956MOL0     H31895   3.834   2.515   4.821 -0.2208  1.6175 -1.6237
  956MOL0     H31896   3.839   2.232   4.764  2.8966 -1.0515  1.0412
  956MOL0     H31897   3.966   2.349   4.807 -0.4680  1.1666 -0.5199
  956MOL0     H31898   3.940   2.442   4.560  0.0186 -0.3409  0.4544
  956MOL0     H31899   3.846   2.296   4.524  2.6360 -2.0210 -1.1220
  956MOL0     H31900   4.021   2.145   4.546 -2.1878  0.7632 -0.4075
  956MOL0     H31901   4.074   2.288   4.451  3.6712 -0.2712  1.4084
  956MOL0     H31902   4.160   2.218   4.736 -1.4997 -1.6190 -1.0810
  956MOL0     H31903   4.176   2.378   4.658  0.3798 -0.2313  0.8571
  956MOL0     H31904   4.382   2.271   4.610  0.1303  0.4544 -0.0456
  956MOL0     H31905   4.285   2.223   4.470 -2.7161  1.2601  0.1983
  956MOL0     H31906   4.411   2.024   4.552 -0.7896  3.0729 -0.3455
  956MOL0     H31907   4.237   1.998   4.556  1.3444 -1.4266 -1.8591
  956MOL0     H31908   3.519   2.275   5.146 -1.5039 -0.2330  1.9537
  956MOL0     H31909   3.456   2.409   5.356 -0.0823 -0.4934  0.5768
  956MOL0     H31910   3.196   2.784   5.389 -0.2610  2.1054 -0.9357
  956MOL0     H31911   3.067   2.895   5.567 -0.8464  0.9447  0.4348
  956MOL0     H31912   3.912   2.100   5.294 -0.6256 -0.9928 -0.0866
  956MOL0     H31913   4.124   2.030   5.231 -1.8960  0.5797 -1.5793
  956MOL0     H31914   4.395   1.649   5.307  0.4284 -3.0730 -2.5074
  956MOL0     H31915   4.577   1.516   5.252 -3.8991  0.7557 -0.1757
  956MOL0     H31916   4.828   1.456   5.327  0.0745 -1.2211 -0.0154
  956MOL0     H31917   4.786   1.420   5.159 -0.0323 -1.2730  1.2913
  956MOL0     H31918   5.004   1.388   5.087 -0.3793  0.3438 -0.5623
  956MOL0     H31919   4.972   1.270   5.218  0.9464 -0.2333  0.9182
  956MOL0     H31920   5.119   1.529   5.271  1.1723  0.3004 -0.0591
  956MOL0     H31921   5.058   1.419   5.394  1.0934 -1.7974 -0.2856
  956MOL0     H31922   5.269   1.333   5.185 -1.5628 -1.6885 -0.8799
  956MOL0     H31923   5.187   1.228   5.296  3.0436 -0.8268  0.9923
  956MOL0     H31924   5.425   1.452   5.564 -1.9318 -1.3281  2.0530
  956MOL0     H31925   4.827   1.872   5.216  0.7169 -1.1196 -0.2937
  956MOL0     H31926   4.706   2.059   5.366 -0.3417  2.5355  0.0990
  956MOL0     H31927   4.713   2.086   5.196 -0.3495  1.9434 -0.6219
  956MOL0     H31928   4.568   2.117   5.280  1.2839 -0.1566  0.4640
  957MOL0     O31929   4.744   6.760   9.837  0.2417  0.0741  0.3419
  957MOL0     C31930   4.813   6.809   9.753 -0.7311 -1.1275 -0.4290
  957MOL0     O31931   4.843   6.765   9.628  0.2096  0.1640 -0.1014
  957MOL0     C31932   4.775   6.656   9.570 -0.0726  0.2825 -0.1776
  957MOL0     C31933   4.721   6.663   9.436 -0.7242 -0.0874 -0.3193
  957MOL0     C31934   4.652   6.560   9.389  0.4969 -0.2696  0.2245
  957MOL0     C31935   4.645   6.434   9.457  0.3817 -0.4995  0.1565
  957MOL0     O31936   4.567   6.335   9.393  0.4935  0.6288 -0.3401
  957MOL0     C31937   4.467   6.268   9.475  0.1211 -0.2746  0.4244
  957MOL0     C31938   4.427   6.127   9.410 -0.1687 -0.1726 -0.0239
  957MOL0     C31939   4.554   6.050   9.376 -1.1048  0.5060  0.3072
  957MOL0     C31940   4.519   5.931   9.287  0.0851 -0.8601 -0.1858
  957MOL0     C31941   4.643   5.855   9.231 -0.2198 -0.9205  0.4327
  957MOL0     C31942   4.729   5.793   9.338 -0.3591  0.1395 -0.4420
  957MOL0     C31943   4.831   5.695   9.281  1.0072  0.3041 -0.0368
  957MOL0     C31944   4.775   5.560   9.229  0.8273 -0.2107 -0.2063
  957MOL0     N31945   4.893   5.475   9.225 -0.8096  0.0848  0.3158
  957MOL0     C31946   4.987   5.470   9.120 -0.6193  0.7320 -0.5557
  957MOL0     C31947   5.061   5.353   9.153  0.2111  0.6109 -0.4243
  957MOL0     C31948   5.189   5.300   9.078 -0.1322  0.6783 -0.6608
  957MOL0     C31949   5.174   5.159   9.025 -0.0542  0.1395  0.5572
  957MOL0     C31950   5.102   5.154   8.898  0.3749  0.3318 -0.4098
  957MOL0     C31951   5.074   5.009   8.833  0.6039  0.0660  0.6479
  957MOL0     O31952   5.192   4.924   8.802 -0.3412 -0.2339 -0.0789
  957MOL0     C31953   5.281   4.970   8.712  0.1961 -0.2953  0.5048
  957MOL0     C31954   5.267   5.072   8.620 -0.5068  0.3661  0.1410
  957MOL0     C31955   5.369   5.115   8.530 -0.3983 -0.2834 -0.9818
  957MOL0     C31956   5.338   5.241   8.444  0.1416  0.7721 -0.3918
  957MOL0     C31957   5.500   5.068   8.557 -0.0791 -0.0530 -0.5225
  957MOL0     C31958   5.628   5.121   8.498 -0.3765  0.4496 -0.0430
  957MOL0     O31959   5.630   5.251   8.455 -0.4370 -0.3979  0.3917
  957MOL0     C31960   5.729   5.323   8.400  0.3219  0.2109  0.3328
  957MOL0     C31961   5.865   5.290   8.396  0.8273 -0.1694  1.1122
  957MOL0     C31962   5.959   5.380   8.338  0.0901 -0.2129  0.3506
  957MOL0     C31963   5.913   5.497   8.266 -0.4195 -0.4244 -0.7339
  957MOL0     O31964   6.013   5.578   8.214  0.2744  0.3089  0.3055
  957MOL0     C31965   5.970   5.707   8.168  0.1945  0.4241  0.1785
  957MOL0     C31966   6.092   5.773   8.109 -0.1398 -0.6923 -0.2259
  957MOL0     C31967   6.078   5.922   8.113  0.0560 -0.4872  0.3189
  957MOL0     C31968   5.960   5.972   8.032  1.3980 -0.6985  0.1857
  957MOL0     C31969   5.983   5.961   7.885 -0.1762  0.3127 -0.5273
  957MOL0     C31970   5.885   6.031   7.791 -0.1647 -0.2089  0.8713
  957MOL0     C31971   5.930   6.000   7.644 -0.1616  0.4932  0.1374
  957MOL0     C31972   5.909   5.854   7.606 -0.2779 -0.7801 -0.5065
  957MOL0    Cl31973   5.939   5.860   7.434 -0.3512  0.0000 -0.5207
  957MOL0     C31974   5.768   5.522   8.270 -0.2811 -0.0536  0.0269
  957MOL0     C31975   5.686   5.445   8.351  0.2596  0.3393 -0.0928
  957MOL0     O31976   5.713   5.038   8.472 -0.1860 -0.7826  0.1521
  957MOL0     C31977   5.506   4.958   8.654 -1.2780 -0.3139  0.1414
  957MOL0     C31978   5.407   4.911   8.727 -0.0377 -0.2476 -0.3822
  957MOL0     N31979   5.009   5.297   9.263  0.1177  1.1040 -0.4429
  957MOL0     N31980   4.919   5.375   9.313 -0.0911 -0.0733  0.1867
  957MOL0     C31981   4.701   6.427   9.584 -0.1034 -0.5068  0.1414
  957MOL0     C31982   4.768   6.536   9.639  0.2466  0.2093 -0.5258
  957MOL0     C31983   4.876   6.937   9.799 -0.9429  0.3876  0.4612
  957MOL0     C31984   4.976   6.995   9.715 -0.1764  0.4189  0.2643
  957MOL0     C31985   5.049   7.113   9.748 -0.4319  0.0465  0.5973
  957MOL0     C31986   5.019   7.176   9.869 -0.0688  0.1179  0.4818
  957MOL0     O31987   5.098   7.278   9.915  0.2278 -0.3461  0.0101
  957MOL0     C31988   5.191   7.333   9.819  1.0169 -0.0816  0.0195
  957MOL0     C31989   5.245   7.464   9.879 -0.1094  0.1979  0.2486
  957MOL0     C31990   5.127   7.566   9.914  1.1858 -0.4076  0.5091
  957MOL0     C31991   5.187   7.703   9.928 -0.2640 -0.1332 -1.0472
  957MOL0     C31992   5.082   7.801   9.965 -0.2801  0.1459  0.2639
  957MOL0     C31993   5.002   7.881   9.994 -0.3582  0.9373  0.3886
  957MOL0     C31994   4.907   7.141   9.946 -0.4120 -0.3646  0.2477
  957MOL0     C31995   4.839   7.022   9.909  0.0523  0.0248 -0.4237
  957MOL0     C31996   4.718   6.988  10.000 -0.6584  0.0006 -0.1600
  957MOL0     H31997   4.739   6.750   9.374 -1.2625 -1.1880 -2.0733
  957MOL0     H31998   4.600   6.581   9.296  1.8231 -1.4281 -0.8436
  957MOL0     H31999   4.381   6.334   9.489  0.6023  0.7207 -1.1400
  957MOL0     H32000   4.508   6.247   9.574 -0.5704 -1.1769  0.5448
  957MOL0     H32001   4.354   6.071   9.470 -0.6399  1.2392  0.7583
  957MOL0     H32002   4.376   6.164   9.321  2.4115  4.1086  0.0110
  957MOL0     H32003   4.630   6.110   9.325 -1.9031  2.0432  0.8356
  957MOL0     H32004   4.604   6.021   9.469 -0.4291  0.9842  0.0962
  957MOL0     H32005   4.462   5.857   9.344 -1.0936 -3.5225 -4.3537
  957MOL0     H32006   4.447   5.958   9.210  0.6885 -1.9878 -1.1881
  957MOL0     H32007   4.710   5.895   9.154  2.7396 -3.3147  1.5529
  957MOL0     H32008   4.596   5.771   9.181 -0.2790 -0.6001 -0.0521
  957MOL0     H32009   4.784   5.872   9.389 -0.8240 -0.2937  0.7667
  957MOL0     H32010   4.679   5.743   9.421 -0.5151 -1.4328 -1.4346
  957MOL0     H32011   4.902   5.680   9.364  3.6849  1.3886 -2.0030
  957MOL0     H32012   4.881   5.752   9.202 -0.3582  2.4632  0.5836
  957MOL0     H32013   4.705   5.512   9.297  2.3804 -1.5926  0.4825
  957MOL0     H32014   4.716   5.573   9.138 -4.6856 -0.1886  2.9550
  957MOL0     H32015   5.005   5.532   9.033 -2.8881  0.9378 -0.9383
  957MOL0     H32016   5.271   5.289   9.149  1.2915 -2.3524 -2.5453
  957MOL0     H32017   5.219   5.378   9.007 -1.3438 -1.2413 -3.4581
  957MOL0     H32018   5.273   5.114   9.014  1.1404  3.0314 -1.7780
  957MOL0     H32019   5.118   5.103   9.102 -3.4718  0.6965 -1.3117
  957MOL0     H32020   5.003   5.200   8.908 -0.8959 -2.3220 -0.0671
  957MOL0     H32021   5.160   5.215   8.827 -2.1609  1.0089 -2.0529
  957MOL0     H32022   5.006   4.953   8.898  0.2827  0.5281  0.7116
  957MOL0     H32023   5.009   5.015   8.746  0.7379 -1.7014  0.3829
  957MOL0     H32024   5.173   5.123   8.604 -2.2122 -2.1962  1.2574
  957MOL0     H32025   5.389   5.231   8.347 -0.3705  1.8475 -0.7850
  957MOL0     H32026   5.365   5.326   8.507  0.3069 -0.3552  1.1084
  957MOL0     H32027   5.230   5.255   8.434  0.0275 -0.7581 -1.8320
  957MOL0     H32028   5.900   5.197   8.440 -0.3534 -1.3373 -0.3150
  957MOL0     H32029   6.064   5.366   8.357  0.0698  0.4165  0.9853
  957MOL0     H32030   5.894   5.705   8.089  0.8604  0.6288 -0.4772
  957MOL0     H32031   5.926   5.752   8.258 -1.5076 -1.6947  0.5014
  957MOL0     H32032   6.176   5.744   8.172 -0.1642 -0.7597 -0.2233
  957MOL0     H32033   6.118   5.733   8.010 -2.8028 -1.7750 -0.5715
  957MOL0     H32034   6.171   5.970   8.081  0.8964 -2.0899  0.2230
  957MOL0     H32035   6.067   5.962   8.214  1.0849 -1.2091  0.7310
  957MOL0     H32036   5.942   6.074   8.068 -1.4130 -1.2131  0.4860
  957MOL0     H32037   5.873   5.917   8.068  3.1071 -1.7601  3.1352
  957MOL0     H32038   6.086   5.994   7.867 -0.7615  3.3026  0.9664
  957MOL0     H32039   5.970   5.855   7.862  1.1964 -0.2716  1.2236
  957MOL0     H32040   5.881   6.137   7.820 -0.5583 -0.6329  2.4469
  957MOL0     H32041   5.783   5.993   7.800  0.0111 -1.3161 -1.2816
  957MOL0     H32042   6.035   6.031   7.637 -0.8659  3.1298  0.2144
  957MOL0     H32043   5.877   6.067   7.576  1.9814 -1.0143 -3.2958
  957MOL0     H32044   5.805   5.824   7.623 -1.1258  1.1988 -1.7496
  957MOL0     H32045   5.980   5.785   7.651  0.8668  0.7834  0.1864
  957MOL0     H32046   5.719   5.613   8.237  0.1392 -0.4811 -1.9166
  957MOL0     H32047   5.580   5.466   8.349 -0.4755 -1.9424  4.2827
  957MOL0     H32048   5.608   4.926   8.676 -0.0523  2.4019 -1.0732
  957MOL0     H32049   5.428   4.836   8.802  0.7768  0.1529 -0.1910
  957MOL0     H32050   4.691   6.327   9.625  1.8119 -1.2398 -1.0492
  957MOL0     H32051   4.819   6.518   9.733 -0.0109 -0.6729 -0.5491
  957MOL0     H32052   5.007   6.940   9.627 -0.3344 -1.3548  1.2662
  957MOL0     H32053   5.127   7.145   9.680  0.1630 -0.3914  1.0621
  957MOL0     H32054   5.274   7.263   9.812  1.0577 -0.0107 -0.2138
  957MOL0     H32055   5.144   7.354   9.722 -1.5628 -1.4440  0.8684
  957MOL0     H32056   5.294   7.514   9.794 -0.6744 -0.4370 -0.4681
  957MOL0     H32057   5.314   7.457   9.963  0.1096  1.3831  0.1871
  957MOL0     H32058   5.054   7.574   9.833 -0.8151  3.9135  2.3991
  957MOL0     H32059   5.074   7.529  10.002  0.8517 -1.4833 -0.1340
  957MOL0     H32060   5.211   7.742   9.829  1.7068 -0.0906 -0.5860
  957MOL0     H32061   5.265   7.701  10.005  0.0685 -1.9581 -1.3726
  957MOL0     H32062   4.933   7.963   9.989 -1.5742 -0.0241  0.8456
  957MOL0     H32063   4.886   7.202  10.034  3.8619 -0.0218  1.2726
  957MOL0     H32064   4.635   6.960   9.934  0.1603  0.2705 -1.3323
  957MOL0     H32065   4.746   6.920  10.081 -1.9753  1.9040  2.0036
  957MOL0     H32066   4.694   7.082  10.050  1.6013  0.5074  0.1033
  958MOL0     O32067   9.960   0.662   4.850 -0.1236 -0.0139 -0.1958
  958MOL0     C32068   9.899   0.560   4.812 -0.8954 -0.2094 -0.1393
  958MOL0     O32069   9.962   0.444   4.796  0.5614 -0.1148  0.5244
  958MOL0     C32070  10.097   0.449   4.805  0.0619 -0.3226  0.8175
  958MOL0     C32071  10.169   0.376   4.899 -0.3293 -0.6170 -0.8027
  958MOL0     C32072  10.311   0.364   4.895 -0.0385 -0.4078  0.1994
  958MOL0     C32073  10.381   0.443   4.802  0.4495  0.7091 -0.0433
  958MOL0     O32074  10.513   0.424   4.772  0.5978 -0.5338 -0.3246
  958MOL0     C32075  10.559   0.290   4.759 -1.2489  0.7144 -0.7256
  958MOL0     C32076  10.712   0.289   4.799  0.2205  0.0111 -0.4351
  958MOL0     C32077  10.791   0.176   4.723 -0.0061 -0.2375 -0.3753
  958MOL0     C32078  10.762   0.042   4.795  0.1372 -0.2002 -0.7734
  958MOL0     C32079  10.826  -0.083   4.732  0.0789  0.0356 -0.1726
  958MOL0     C32080  10.836  -0.204   4.833 -0.0761 -0.1402 -0.1453
  958MOL0     C32081  10.731  -0.203   4.950  0.9531 -0.1480 -0.3816
  958MOL0     C32082  10.592  -0.249   4.900 -0.8782 -0.0008  0.4870
  958MOL0     N32083  10.490  -0.220   5.000  0.9989 -0.6766 -1.4413
  958MOL0     C32084  10.502  -0.236   5.138 -0.6944  0.9430 -0.3605
  958MOL0     C32085  10.385  -0.197   5.193 -0.4157 -0.3416 -0.0432
  958MOL0     C32086  10.381  -0.184   5.344  0.5379  0.2306  0.0449
  958MOL0     C32087  10.245  -0.238   5.388  0.1246 -0.7227 -0.1554
  958MOL0     C32088  10.229  -0.276   5.540 -0.3688 -0.5673  0.2562
  958MOL0     C32089  10.090  -0.330   5.579  0.0419  0.5152 -0.4809
  958MOL0     O32090  10.125  -0.400   5.702 -0.4733  0.7018  0.0791
  958MOL0     C32091  10.027  -0.465   5.773  0.4220 -0.1195  0.1734
  958MOL0     C32092  10.049  -0.556   5.878 -0.1555  0.3724  0.3151
  958MOL0     C32093   9.942  -0.626   5.941 -0.4467 -0.9032 -0.2378
  958MOL0     C32094   9.977  -0.720   6.049  0.2908  0.3592 -0.0333
  958MOL0     C32095   9.805  -0.604   5.897 -0.7760  0.0409  0.2215
  958MOL0     C32096   9.676  -0.666   5.951 -0.4160 -0.7710 -0.4429
  958MOL0     O32097   9.553  -0.621   5.895 -0.5850  0.0041  0.2412
  958MOL0     C32098   9.443  -0.699   5.916  0.0204  0.3870 -0.4416
  958MOL0     C32099   9.404  -0.755   6.049 -0.8392 -0.1746  0.6969
  958MOL0     C32100   9.280  -0.818   6.065  0.3853 -0.0990  0.0344
  958MOL0     C32101   9.194  -0.832   5.958 -0.0061 -0.1784 -0.2321
  958MOL0     O32102   9.073  -0.901   5.965 -0.8008  0.4845  0.2672
  958MOL0     C32103   9.021  -0.944   6.094 -0.6413 -0.3059  0.8635
  958MOL0     C32104   8.887  -1.022   6.080 -0.2423  0.1558  0.5353
  958MOL0     C32105   8.766  -0.937   6.114  0.0399  0.0801 -0.9539
  958MOL0     C32106   8.646  -1.022   6.152  0.3403  0.2297  0.1457
  958MOL0     C32107   8.524  -0.926   6.163  0.2917  0.2310  0.7064
  958MOL0     C32108   8.390  -1.003   6.171 -0.0867 -0.8287 -0.8452
  958MOL0     C32109   8.357  -1.080   6.044  0.1679  0.4029  0.9410
  958MOL0     C32110   8.234  -1.170   6.056  0.6007  1.2739 -0.4985
  958MOL0    Cl32111   8.088  -1.077   6.077  0.4482 -0.4709 -0.0868
  958MOL0     C32112   9.225  -0.776   5.836 -0.3450  1.8709  0.1397
  958MOL0     C32113   9.349  -0.709   5.816  0.5521 -0.4570 -0.2472
  958MOL0     O32114   9.684  -0.760   6.027 -0.3312 -0.2517 -0.0547
  958MOL0     C32115   9.787  -0.516   5.788 -0.2582 -0.0333  0.2132
  958MOL0     C32116   9.894  -0.450   5.730 -0.6285 -0.0060 -0.7252
  958MOL0     N32117  10.319  -0.126   5.093  0.0680 -0.1785  0.2770
  958MOL0     N32118  10.381  -0.145   4.981  0.0155  0.4854  0.8132
  958MOL0     C32119  10.309   0.524   4.711  0.2996 -0.0101  1.0147
  958MOL0     C32120  10.171   0.524   4.713 -0.2214  0.3400 -0.5997
  958MOL0     C32121   9.757   0.566   4.796 -0.3574 -0.1083 -0.4652
  958MOL0     C32122   9.707   0.686   4.732  0.5989  1.4849 -0.3014
  958MOL0     C32123   9.574   0.707   4.732  0.4070 -0.0101  0.1179
  958MOL0     C32124   9.478   0.611   4.779 -0.2004 -0.6127 -0.1806
  958MOL0     O32125   9.338   0.622   4.766  0.1936 -0.7429  0.0790
  958MOL0     C32126   9.270   0.660   4.886  0.1469  0.1198 -0.4264
  958MOL0     C32127   9.130   0.604   4.891 -1.0149  0.3182  0.0037
  958MOL0     C32128   9.031   0.675   4.794 -0.6836  1.1341  0.4225
  958MOL0     C32129   8.978   0.816   4.822 -0.4155  0.0693  0.1331
  958MOL0     C32130   9.061   0.918   4.755  0.4533 -0.8118 -0.2517
  958MOL0     C32131   9.128   1.004   4.696  0.7024  0.4822  0.6163
  958MOL0     C32132   9.536   0.493   4.841  1.4139 -0.1147 -0.1698
  958MOL0     C32133   9.668   0.471   4.844  0.1576 -0.8471 -0.1674
  958MOL0     C32134   9.703   0.331   4.904 -1.0358  0.0231  0.0752
  958MOL0     H32135  10.103   0.318   4.962 -2.0104  3.8042  1.9898
  958MOL0     H32136  10.360   0.283   4.949  1.6452  1.3751  1.4601
  958MOL0     H32137  10.550   0.263   4.654  2.1121  1.0979 -1.2493
  958MOL0     H32138  10.516   0.213   4.822  0.7878 -2.4286 -2.8983
  958MOL0     H32139  10.739   0.391   4.770  0.0195  1.2014  3.0621
  958MOL0     H32140  10.724   0.281   4.907 -3.7396 -3.4785  0.0363
  958MOL0     H32141  10.761   0.176   4.618 -2.6204 -1.7892  0.2714
  958MOL0     H32142  10.895   0.206   4.734 -0.8988  3.3914 -0.5394
  958MOL0     H32143  10.799   0.051   4.897  0.3461 -1.9051 -0.6629
  958MOL0     H32144  10.652   0.038   4.802  0.1082  0.4455 -0.7782
  958MOL0     H32145  10.929  -0.061   4.703  1.2299  0.2464  3.4605
  958MOL0     H32146  10.774  -0.110   4.640  0.9638  0.9869 -0.9782
  958MOL0     H32147  10.837  -0.304   4.790  2.7672 -1.2961  2.2490
  958MOL0     H32148  10.932  -0.206   4.887  1.3547  1.2797 -2.4584
  958MOL0     H32149  10.719  -0.106   5.000 -0.8168 -1.6155  2.3167
  958MOL0     H32150  10.770  -0.266   5.031  2.6920  3.1321  1.5363
  958MOL0     H32151  10.564  -0.218   4.799  3.0941 -1.2627 -1.1879
  958MOL0     H32152  10.602  -0.358   4.888  0.8768  0.0404  1.3734
  958MOL0     H32153  10.591  -0.281   5.181  0.7281  1.0244 -2.9724
  958MOL0     H32154  10.380  -0.079   5.374 -0.1344  0.7906 -1.8171
  958MOL0     H32155  10.466  -0.230   5.396  1.1259 -0.1248 -1.1972
  958MOL0     H32156  10.166  -0.171   5.353  2.6894  2.2450 -0.6594
  958MOL0     H32157  10.232  -0.332   5.333 -1.0086  0.4903 -2.0645
  958MOL0     H32158  10.296  -0.361   5.556  0.0992 -0.1417  0.5961
  958MOL0     H32159  10.252  -0.196   5.610  2.0598 -0.3939 -0.6357
  958MOL0     H32160  10.015  -0.250   5.582 -1.8605 -1.2127  0.9417
  958MOL0     H32161  10.056  -0.411   5.514 -0.7254  0.9520 -0.6438
  958MOL0     H32162  10.153  -0.582   5.899  0.4409  4.4663  3.8288
  958MOL0     H32163  10.084  -0.727   6.067  0.8519  4.1367 -1.0128
  958MOL0     H32164   9.940  -0.821   6.033  1.1529  0.1231 -0.5851
  958MOL0     H32165   9.926  -0.699   6.144 -1.4600  0.2626 -0.9033
  958MOL0     H32166   9.476  -0.759   6.130  0.1289 -3.0295 -0.1798
  958MOL0     H32167   9.246  -0.858   6.160 -0.0635 -2.3265 -1.0075
  958MOL0     H32168   9.097  -1.018   6.121  0.6595 -0.7356 -3.2234
  958MOL0     H32169   9.010  -0.859   6.161  0.0008  2.6730 -2.4867
  958MOL0     H32170   8.866  -1.046   5.975 -2.1732 -0.2182  0.9674
  958MOL0     H32171   8.888  -1.107   6.148  1.0064  0.5367  1.0250
  958MOL0     H32172   8.756  -0.864   6.033  3.2752 -0.3241 -1.8595
  958MOL0     H32173   8.786  -0.883   6.207  2.5731 -1.3168 -0.6042
  958MOL0     H32174   8.668  -1.045   6.257 -5.1731  3.6389  2.5195
  958MOL0     H32175   8.629  -1.111   6.090 -2.1503 -1.4895  3.0251
  958MOL0     H32176   8.541  -0.870   6.256  0.4211  0.1521  0.7301
  958MOL0     H32177   8.513  -0.846   6.089 -1.3298  1.8912  2.6140
  958MOL0     H32178   8.316  -0.923   6.180 -0.1744 -0.7703 -1.9186
  958MOL0     H32179   8.381  -1.055   6.267 -2.3064  2.2635  0.8345
  958MOL0     H32180   8.440  -1.148   6.023  0.6321  0.5955  2.0294
  958MOL0     H32181   8.349  -1.007   5.963  3.1968 -0.4099 -0.2150
  958MOL0     H32182   8.247  -1.224   6.150 -4.8563  1.1858  0.5262
  958MOL0     H32183   8.230  -1.234   5.967  0.4398 -0.5631  0.7735
  958MOL0     H32184   9.148  -0.784   5.761 -1.1399  1.1198  1.0167
  958MOL0     H32185   9.376  -0.666   5.721 -2.9606  1.2520 -0.6536
  958MOL0     H32186   9.695  -0.481   5.743  0.0600  2.3914  1.3097
  958MOL0     H32187   9.858  -0.379   5.656 -1.9335 -0.1485 -0.2521
  958MOL0     H32188  10.360   0.591   4.643 -0.8646 -0.2923 -0.1622
  958MOL0     H32189  10.106   0.595   4.662 -1.1026  0.8512  1.1348
  958MOL0     H32190   9.781   0.760   4.703  1.8557 -0.4164 -2.2825
  958MOL0     H32191   9.531   0.789   4.676 -0.1026  0.8777  1.7392
  958MOL0     H32192   9.317   0.619   4.977 -1.7511 -2.1624 -0.3799
  958MOL0     H32193   9.277   0.769   4.898  4.3631 -0.1817  2.2487
  958MOL0     H32194   9.094   0.619   4.993  1.9786  0.5102  1.1198
  958MOL0     H32195   9.136   0.496   4.874  1.3691  0.3875  0.0233
  958MOL0     H32196   9.090   0.683   4.702 -0.7405  0.9003  0.3640
  958MOL0     H32197   8.946   0.606   4.780 -0.7257  0.9767  1.3911
  958MOL0     H32198   8.973   0.823   4.931 -1.8193 -3.2988  0.3905
  958MOL0     H32199   8.876   0.834   4.788  0.5897  3.5235 -1.5195
  958MOL0     H32200   9.186   1.083   4.652  0.0893  0.3520 -0.4457
  958MOL0     H32201   9.465   0.414   4.865  2.6252 -1.6490 -1.3889
  958MOL0     H32202   9.796   0.337   4.961 -0.5386 -4.1968 -0.0062
  958MOL0     H32203   9.632   0.296   4.980  2.0421 -1.7932  2.3371
  958MOL0     H32204   9.726   0.254   4.831  2.6803 -1.4915  2.5529
  959MOL0     O32205   2.402   9.274   4.182 -0.0623  1.2695  0.1138
  959MOL0     C32206   2.370   9.183   4.260 -0.1137  1.0910  0.6931
  959MOL0     O32207   2.247   9.120   4.274  0.3324 -0.6320 -0.5757
  959MOL0     C32208   2.145   9.156   4.189 -0.4034 -0.3628 -1.6201
  959MOL0     C32209   2.093   9.057   4.114 -0.2998  0.7203  0.4689
  959MOL0     C32210   1.996   9.096   4.013  0.2862  0.0159  0.0676
  959MOL0     C32211   1.954   9.227   3.997  0.3980  0.6856  0.6859
  959MOL0     O32212   1.852   9.257   3.911 -0.1326  0.5144  0.0267
  959MOL0     C32213   1.897   9.333   3.798 -0.7711 -0.0542  1.3504
  959MOL0     C32214   1.812   9.309   3.668  1.2805 -0.1223  0.0776
  959MOL0     C32215   1.669   9.365   3.663  0.5575  1.0627 -0.0740
  959MOL0     C32216   1.611   9.305   3.534 -0.3947  0.0927 -0.6459
  959MOL0     C32217   1.515   9.400   3.470  0.1093 -0.7351  0.4023
  959MOL0     C32218   1.568   9.532   3.405 -0.4113 -1.0891 -0.0600
  959MOL0     C32219   1.468   9.623   3.331  0.2399 -0.8263  1.1299
  959MOL0     C32220   1.495   9.768   3.288  1.0324  1.1872  0.4449
  959MOL0     N32221   1.627   9.780   3.226 -0.5124  0.0208 -0.9914
  959MOL0     C32222   1.651   9.787   3.097 -0.3369  0.5003  0.0605
  959MOL0     C32223   1.785   9.766   3.087 -0.3830  0.3077 -0.2739
  959MOL0     C32224   1.857   9.762   2.964 -0.2140  0.0405  0.2930
  959MOL0     C32225   2.005   9.736   2.983 -0.1335 -0.4237 -0.0654
  959MOL0     C32226   2.078   9.727   2.851 -0.7640  0.2337  0.5992
  959MOL0     C32227   2.218   9.664   2.887 -0.1908 -0.5601  1.2567
  959MOL0     O32228   2.308   9.685   2.783  0.1457  0.2149  0.2618
  959MOL0     C32229   2.443   9.682   2.794 -0.4684 -0.5305  0.5678
  959MOL0     C32230   2.513   9.652   2.913  0.1236  0.0626  0.4106
  959MOL0     C32231   2.654   9.641   2.913 -0.1526  0.6363  0.5177
  959MOL0     C32232   2.732   9.603   3.039 -0.7031  0.0526 -0.0618
  959MOL0     C32233   2.729   9.684   2.792  0.2173  0.1364 -0.1158
  959MOL0     C32234   2.880   9.711   2.789  0.1946  0.0286  0.0821
  959MOL0     O32235   2.922   9.702   2.659  0.8095  0.1429  0.9537
  959MOL0     C32236   3.046   9.683   2.625  0.1990  0.4681  0.2929
  959MOL0     C32237   3.094   9.735   2.501 -0.2926 -0.6319  0.4155
  959MOL0     C32238   3.226   9.711   2.460  0.0245 -0.1210 -0.1264
  959MOL0     C32239   3.316   9.646   2.543 -0.7703 -0.5294 -0.3164
  959MOL0     O32240   3.443   9.628   2.498 -0.5336 -1.1512 -0.2426
  959MOL0     C32241   3.553   9.660   2.587  0.4981 -0.9168 -1.1773
  959MOL0     C32242   3.681   9.622   2.525  0.1091  0.4056 -0.3530
  959MOL0     C32243   3.801   9.610   2.625  0.0188 -0.5191  0.3431
  959MOL0     C32244   3.834   9.746   2.692  0.1666  0.8513  0.6716
  959MOL0     C32245   3.974   9.755   2.767 -0.4244 -0.0188 -0.3563
  959MOL0     C32246   4.094   9.713   2.676  0.2860  0.8695  0.2062
  959MOL0     C32247   4.098   9.772   2.537 -0.1625 -0.4295 -0.1653
  959MOL0     C32248   4.131   9.916   2.544  0.3735  0.3369 -0.1939
  959MOL0    Cl32249   4.298   9.962   2.598 -0.1586  0.1199  0.2525
  959MOL0     C32250   3.268   9.600   2.659  0.4394  0.6162 -0.1801
  959MOL0     C32251   3.141   9.606   2.699 -0.4939  0.0331 -0.4715
  959MOL0     O32252   2.955   9.723   2.884 -0.6968  0.1330 -1.7948
  959MOL0     C32253   2.653   9.700   2.678 -0.1323 -0.4633 -0.5525
  959MOL0     C32254   2.518   9.711   2.684  0.2088 -0.6170  0.1008
  959MOL0     N32255   1.839   9.756   3.214  0.2450  0.6332 -0.1564
  959MOL0     N32256   1.743   9.768   3.296  0.1624  0.3058  0.5133
  959MOL0     C32257   1.993   9.316   4.091  0.0046 -0.0850  0.7198
  959MOL0     C32258   2.086   9.286   4.188 -0.3096 -0.4302 -0.0618
  959MOL0     C32259   2.470   9.146   4.363 -0.2314 -0.4409  0.2597
  959MOL0     C32260   2.439   9.170   4.495 -0.0431  0.5449 -0.8910
  959MOL0     C32261   2.528   9.154   4.595 -0.3607 -0.0349 -0.0455
  959MOL0     C32262   2.660   9.110   4.562 -0.4705  0.2623  0.3627
  959MOL0     O32263   2.763   9.084   4.653 -0.7223 -0.7383  0.0378
  959MOL0     C32264   2.724   9.051   4.790 -0.0332  0.0717  0.1279
  959MOL0     C32265   2.800   8.926   4.843 -0.2154  0.4537  0.3809
  959MOL0     C32266   2.953   8.940   4.861 -0.5418  0.3011 -0.2211
  959MOL0     C32267   3.019   8.810   4.915 -0.2025  0.1157  0.0323
  959MOL0     C32268   3.164   8.833   4.938  0.1819 -0.0439 -0.0394
  959MOL0     C32269   3.271   8.866   4.962  0.7244 -0.8717  0.1479
  959MOL0     C32270   2.691   9.087   4.429 -0.4283  0.6134 -0.6025
  959MOL0     C32271   2.598   9.109   4.327 -0.2670  0.2258 -0.0905
  959MOL0     C32272   2.644   9.069   4.187  0.4925 -0.4172  0.0323
  959MOL0     H32273   2.117   8.951   4.119 -0.2996  0.7291  0.6672
  959MOL0     H32274   1.962   9.019   3.945 -1.6828  2.1025 -1.4274
  959MOL0     H32275   2.003   9.319   3.775 -1.1834  0.3522 -1.0830
  959MOL0     H32276   1.882   9.439   3.820 -2.4724 -0.5483  2.8420
  959MOL0     H32277   1.876   9.351   3.591  1.1205  3.1039  1.5015
  959MOL0     H32278   1.810   9.200   3.665 -0.0373 -0.2621  2.8324
  959MOL0     H32279   1.609   9.344   3.752 -1.0190 -0.7045 -1.4698
  959MOL0     H32280   1.677   9.474   3.658  0.7828  1.0688  0.3413
  959MOL0     H32281   1.691   9.293   3.460 -1.8165  1.3502 -2.4634
  959MOL0     H32282   1.573   9.206   3.561  3.7179 -0.7526  3.2855
  959MOL0     H32283   1.437   9.431   3.541  3.0419  0.6198  3.2769
  959MOL0     H32284   1.477   9.334   3.391 -0.0548 -1.6929  1.2658
  959MOL0     H32285   1.621   9.595   3.477  1.9961 -2.1552 -0.7864
  959MOL0     H32286   1.648   9.508   3.334 -0.3959 -0.8096 -0.1384
  959MOL0     H32287   1.369   9.631   3.377  0.0886  3.5615  0.4752
  959MOL0     H32288   1.457   9.571   3.236 -2.2943 -1.2122  1.5675
  959MOL0     H32289   1.420   9.802   3.216  0.2848  0.2815  0.7861
  959MOL0     H32290   1.501   9.834   3.375 -0.1203  0.9532  0.7095
  959MOL0     H32291   1.580   9.781   3.015 -1.5837 -1.1676  1.2093
  959MOL0     H32292   1.842   9.861   2.921 -2.8617  0.6087  2.3021
  959MOL0     H32293   1.822   9.683   2.896  1.9472 -0.0311 -0.8238
  959MOL0     H32294   2.047   9.819   3.041 -1.4035 -1.2615  2.1955
  959MOL0     H32295   2.019   9.649   3.048  1.4924 -0.7470 -0.7929
  959MOL0     H32296   2.036   9.647   2.790  0.3534 -3.6545  4.4653
  959MOL0     H32297   2.082   9.818   2.790  0.1055  0.6206  1.2095
  959MOL0     H32298   2.257   9.703   2.981 -2.0095  0.7315  1.5438
  959MOL0     H32299   2.198   9.558   2.901  1.8209 -1.0289  0.7868
  959MOL0     H32300   2.453   9.635   3.002 -0.5067  0.0301 -0.0145
  959MOL0     H32301   2.796   9.517   3.016 -1.1990 -1.3607  3.2537
  959MOL0     H32302   2.668   9.576   3.123 -0.8622  0.9241  0.1037
  959MOL0     H32303   2.804   9.677   3.075  1.3840 -1.3423 -1.1173
  959MOL0     H32304   3.027   9.789   2.434 -1.1036  0.2440  1.8737
  959MOL0     H32305   3.251   9.747   2.361  0.0798 -1.1694 -0.5018
  959MOL0     H32306   3.548   9.766   2.610  2.6723  0.1483 -4.8258
  959MOL0     H32307   3.542   9.600   2.678 -2.1957 -1.5331 -1.8236
  959MOL0     H32308   3.666   9.528   2.471 -2.7429 -0.0491  1.0772
  959MOL0     H32309   3.704   9.696   2.447  2.1613  1.2420  0.9600
  959MOL0     H32310   3.885   9.563   2.575 -0.5035 -0.3875 -0.6918
  959MOL0     H32311   3.763   9.536   2.696 -0.5518 -1.9136 -1.3612
  959MOL0     H32312   3.756   9.765   2.766  0.8125  0.9435  1.3326
  959MOL0     H32313   3.845   9.819   2.611  0.2647  0.6957  0.5458
  959MOL0     H32314   3.998   9.856   2.801 -0.6171 -0.4310  1.0805
  959MOL0     H32315   3.966   9.699   2.861 -1.3185 -0.3342 -0.6081
  959MOL0     H32316   4.088   9.603   2.675 -2.3709  0.9290  1.4552
  959MOL0     H32317   4.192   9.744   2.714  0.6472  0.8541 -0.6930
  959MOL0     H32318   4.017   9.747   2.468 -1.4532  0.1017  1.0897
  959MOL0     H32319   4.181   9.718   2.490  1.8172  1.1602  1.3531
  959MOL0     H32320   4.060   9.958   2.616  0.6286  1.6547 -0.6709
  959MOL0     H32321   4.127   9.959   2.443  1.1694  0.0727 -0.3459
  959MOL0     H32322   3.345   9.556   2.721  2.1268  0.5502 -2.1973
  959MOL0     H32323   3.115   9.555   2.791 -1.1988  1.4679  0.1451
  959MOL0     H32324   2.689   9.736   2.582 -0.8885  0.9001 -0.3455
  959MOL0     H32325   2.472   9.744   2.591 -0.5560 -1.0881  0.3107
  959MOL0     H32326   1.943   9.412   4.093 -0.2744 -0.2196  0.3707
  959MOL0     H32327   2.119   9.360   4.261  2.4078  1.0301 -2.5672
  959MOL0     H32328   2.339   9.206   4.518  0.1518 -0.1852  1.4069
  959MOL0     H32329   2.501   9.167   4.700  2.2054 -1.3693  0.8829
  959MOL0     H32330   2.744   9.127   4.866  1.8162 -0.8752  0.6382
  959MOL0     H32331   2.617   9.025   4.785 -0.5853  2.3217 -1.0208
  959MOL0     H32332   2.780   8.848   4.769  0.4115  1.6112 -1.0724
  959MOL0     H32333   2.757   8.897   4.939 -1.4111 -0.7936 -0.4977
  959MOL0     H32334   3.007   8.985   4.778 -4.9222  0.8781 -3.0457
  959MOL0     H32335   2.972   9.013   4.941  1.4452 -0.8573  0.4416
  959MOL0     H32336   2.992   8.722   4.857 -0.0153 -0.3720  0.6677
  959MOL0     H32337   2.969   8.790   5.011 -1.3915 -1.3229 -0.8489
  959MOL0     H32338   3.368   8.903   4.988  0.3095 -0.3183  0.9811
  959MOL0     H32339   2.790   9.046   4.413  0.7137  2.0571  2.0327
  959MOL0     H32340   2.560   9.044   4.121 -2.2170 -1.9436  3.7423
  959MOL0     H32341   2.698   9.154   4.145 -0.8950  1.2420  1.4330
  959MOL0     H32342   2.710   8.983   4.193 -0.0314 -0.8330 -0.0860
  960MOL0     O32343   3.480   3.070   6.099 -0.1521  1.1639 -0.1296
  960MOL0     C32344   3.470   3.045   6.212 -0.3952  0.2186  0.1678
  960MOL0     O32345   3.533   2.944   6.282 -0.3754 -0.2146  0.5393
  960MOL0     C32346   3.570   2.849   6.196 -1.2447  0.3230 -0.4480
  960MOL0     C32347   3.481   2.773   6.130  0.9411  0.2003  0.6126
  960MOL0     C32348   3.521   2.666   6.045  0.2594  0.3498 -0.2501
  960MOL0     C32349   3.657   2.619   6.040  0.8247 -0.3612  0.4832
  960MOL0     O32350   3.680   2.497   5.985 -0.0914 -0.2600  0.5534
  960MOL0     C32351   3.805   2.490   5.910 -0.2838  0.5121  0.3163
  960MOL0     C32352   3.764   2.430   5.774 -0.1067  0.4870 -0.2824
  960MOL0     C32353   3.874   2.406   5.667  0.9160 -0.0927  0.4087
  960MOL0     C32354   3.914   2.508   5.568  0.3762  0.3405 -0.3371
  960MOL0     C32355   4.021   2.437   5.471  1.0335  0.1693  0.5295
  960MOL0     C32356   4.082   2.545   5.374  0.1575  0.2658  0.5516
  960MOL0     C32357   4.178   2.478   5.284  0.2288  0.5455  0.3442
  960MOL0     C32358   4.124   2.383   5.179  0.7160 -0.4352  0.3924
  960MOL0     N32359   4.226   2.372   5.068 -1.1098  0.3341 -0.0593
  960MOL0     C32360   4.346   2.295   5.087 -0.6873 -1.1117  1.1126
  960MOL0     C32361   4.413   2.315   4.964  0.6450  0.1363  0.4438
  960MOL0     C32362   4.545   2.252   4.923 -0.5031  0.1253  0.2524
  960MOL0     C32363   4.622   2.355   4.853  1.3298 -0.1881 -0.6465
  960MOL0     C32364   4.663   2.476   4.933  0.6174 -0.3489 -0.3628
  960MOL0     C32365   4.802   2.468   5.004  0.4553  1.2037 -0.3656
  960MOL0     O32366   4.894   2.488   4.902  0.2453  0.1717  0.0860
  960MOL0     C32367   5.025   2.492   4.933  0.2794 -0.6762 -0.0573
  960MOL0     C32368   5.105   2.516   4.822  0.1529 -0.1464  0.4466
  960MOL0     C32369   5.251   2.512   4.823  1.0346  0.1907 -1.0028
  960MOL0     C32370   5.330   2.503   4.693 -0.0362 -0.1556 -0.1616
  960MOL0     C32371   5.305   2.494   4.957  0.7863  0.1810 -0.0522
  960MOL0     C32372   5.453   2.499   4.986 -0.0775  0.7649  0.6123
  960MOL0     O32373   5.533   2.552   4.897 -0.7542 -0.0940 -0.2391
  960MOL0     C32374   5.662   2.578   4.927 -0.3312  0.0763 -1.5253
  960MOL0     C32375   5.699   2.642   5.043  1.1289  0.6644  0.0139
  960MOL0     C32376   5.826   2.693   5.056 -0.3447  0.1932  0.4268
  960MOL0     C32377   5.926   2.663   4.964  0.0269 -0.4337 -0.8766
  960MOL0     O32378   6.054   2.721   4.962 -0.1573 -0.1192 -0.6461
  960MOL0     C32379   6.072   2.847   5.038 -0.6235  1.1543 -0.0115
  960MOL0     C32380   6.184   2.935   4.972 -0.4321  1.2877 -0.4303
  960MOL0     C32381   6.328   2.898   4.990 -0.1672  0.2224 -1.1042
  960MOL0     C32382   6.368   2.764   4.957 -0.5150  0.4725  0.0990
  960MOL0     C32383   6.519   2.747   4.958 -0.5061 -0.4449 -0.8305
  960MOL0     C32384   6.581   2.779   5.095 -1.6600 -0.1553  0.6202
  960MOL0     C32385   6.730   2.740   5.100  0.2334  0.5187  0.1039
  960MOL0     C32386   6.784   2.764   5.238  0.1009 -0.1285  0.8123
  960MOL0    Cl32387   6.775   2.943   5.266  0.0733  0.1597 -0.0197
  960MOL0     C32388   5.895   2.573   4.873  0.0915  0.4767  0.0751
  960MOL0     C32389   5.764   2.532   4.846 -0.3897 -0.2970  1.3362
  960MOL0     O32390   5.487   2.448   5.092 -0.5401 -0.4794  0.6189
  960MOL0     C32391   5.216   2.463   5.062  0.0649  0.0183 -0.9694
  960MOL0     C32392   5.077   2.477   5.059 -0.1586  0.3807  0.9369
  960MOL0     N32393   4.338   2.406   4.882  0.0758  0.4693 -0.4647
  960MOL0     N32394   4.231   2.439   4.948  0.6611  0.3116  0.2797
  960MOL0     C32395   3.748   2.695   6.122 -0.7485  0.0030 -0.6932
  960MOL0     C32396   3.702   2.811   6.195  0.0290  0.4511  0.4640
  960MOL0     C32397   3.390   3.142   6.291  0.0501  0.1514 -0.7392
  960MOL0     C32398   3.427   3.280   6.286 -0.1865  0.1335  0.4102
  960MOL0     C32399   3.365   3.379   6.358  0.4249  0.1224 -0.5994
  960MOL0     C32400   3.261   3.336   6.449 -1.0649  0.4218  0.2874
  960MOL0     O32401   3.196   3.411   6.543  0.2945  0.1037 -0.1399
  960MOL0     C32402   3.205   3.548   6.536 -0.0911  0.2973 -0.5086
  960MOL0     C32403   3.149   3.619   6.665 -1.0286  0.3853  0.8055
  960MOL0     C32404   3.008   3.571   6.704  0.3901  0.1844  1.6285
  960MOL0     C32405   2.899   3.620   6.597  0.1973 -0.2853  0.8193
  960MOL0     C32406   2.864   3.758   6.628 -0.6932  0.0425 -0.7836
  960MOL0     C32407   2.856   3.873   6.669  0.1404 -0.1715 -0.0157
  960MOL0     C32408   3.246   3.200   6.469  0.7846 -0.5804 -0.4191
  960MOL0     C32409   3.307   3.102   6.392 -0.6366 -0.3301 -0.5858
  960MOL0     C32410   3.275   2.962   6.425  0.0596 -0.1948 -0.4775
  960MOL0     H32411   3.374   2.783   6.143  0.9032  0.4355  0.1394
  960MOL0     H32412   3.449   2.596   6.004  0.0709  0.5959 -0.3363
  960MOL0     H32413   3.864   2.425   5.976 -0.8261  0.1752  0.4768
  960MOL0     H32414   3.860   2.584   5.898 -0.1653  0.6166  1.4793
  960MOL0     H32415   3.720   2.332   5.795 -1.2256  0.3299 -2.9733
  960MOL0     H32416   3.689   2.493   5.727 -1.0933 -0.1691  0.3761
  960MOL0     H32417   3.964   2.375   5.720  0.9940 -0.2359  0.1965
  960MOL0     H32418   3.826   2.328   5.607 -3.9255  3.2137 -0.6141
  960MOL0     H32419   3.828   2.553   5.518  0.3246  1.8266  1.0113
  960MOL0     H32420   3.980   2.584   5.611  0.4848 -0.8351  1.7102
  960MOL0     H32421   3.983   2.347   5.421 -0.4911 -0.0662  2.0274
  960MOL0     H32422   4.101   2.401   5.537  0.9711  0.9415  1.0292
  960MOL0     H32423   4.010   2.601   5.314  0.7417  1.3644  0.8433
  960MOL0     H32424   4.147   2.614   5.429  2.3563 -0.5363 -0.8943
  960MOL0     H32425   4.248   2.427   5.351 -0.3879 -0.4459  0.2602
  960MOL0     H32426   4.241   2.553   5.235  2.4868  2.2266  5.1939
  960MOL0     H32427   4.109   2.281   5.214 -2.8995  0.6258  2.4986
  960MOL0     H32428   4.030   2.423   5.140  1.8111  1.0725 -0.8361
  960MOL0     H32429   4.373   2.240   5.176  1.4466 -1.0837  0.5495
  960MOL0     H32430   4.521   2.174   4.850  0.1650  0.2759 -0.1321
  960MOL0     H32431   4.602   2.201   5.001  0.5283  0.9168  0.0316
  960MOL0     H32432   4.715   2.307   4.824  0.8390 -0.3649 -2.0446
  960MOL0     H32433   4.575   2.386   4.759  1.8214 -0.3044 -0.9328
  960MOL0     H32434   4.672   2.564   4.867 -1.3268  1.4079  1.5514
  960MOL0     H32435   4.589   2.501   5.010  2.6854  1.2082  1.2379
  960MOL0     H32436   4.817   2.537   5.087  1.5830  1.2349 -0.5797
  960MOL0     H32437   4.804   2.368   5.049 -2.4937  2.3250  2.6208
  960MOL0     H32438   5.057   2.518   4.725  0.1499  1.7144  0.4395
  960MOL0     H32439   5.379   2.598   4.671 -0.3754  0.7306  2.5182
  960MOL0     H32440   5.262   2.492   4.608 -1.8363 -1.2634  1.3443
  960MOL0     H32441   5.408   2.427   4.700  1.8374  1.2415 -3.6860
  960MOL0     H32442   5.625   2.668   5.118 -1.3843 -1.7557 -1.4662
  960MOL0     H32443   5.836   2.771   5.131 -1.0393  0.4973  0.2164
  960MOL0     H32444   5.982   2.906   5.022 -0.5768  1.4754  0.8459
  960MOL0     H32445   6.086   2.834   5.146 -2.6394 -0.5616  0.0964
  960MOL0     H32446   6.156   2.951   4.868  2.1939  2.9465 -0.9937
  960MOL0     H32447   6.171   3.026   5.032 -3.0429 -0.1182  1.3185
  960MOL0     H32448   6.343   2.910   5.098 -1.0216 -2.2325 -0.6351
  960MOL0     H32449   6.375   2.975   4.929 -1.0073  0.6987 -1.1544
  960MOL0     H32450   6.332   2.728   4.860 -0.3588 -0.5321  0.4078
  960MOL0     H32451   6.320   2.694   5.026 -3.3872  0.8339 -1.3597
  960MOL0     H32452   6.540   2.641   4.941 -0.8362 -0.4344 -1.3225
  960MOL0     H32453   6.571   2.795   4.875  0.1016  2.0048  0.8616
  960MOL0     H32454   6.529   2.724   5.173  3.1296 -0.0209  4.3937
  960MOL0     H32455   6.562   2.886   5.103 -2.9480  0.2450 -4.4194
  960MOL0     H32456   6.786   2.799   5.027  0.8921  4.3429  3.3497
  960MOL0     H32457   6.738   2.632   5.086  2.2560  0.4724  1.3403
  960MOL0     H32458   6.889   2.737   5.247 -0.2451 -0.9015  3.1725
  960MOL0     H32459   6.740   2.698   5.314  3.0445 -4.8556 -1.0970
  960MOL0     H32460   5.987   2.561   4.817  1.3954 -1.0228  2.4142
  960MOL0     H32461   5.745   2.469   4.759 -0.9494 -0.0009  1.2449
  960MOL0     H32462   5.256   2.424   5.156  0.7519  3.8279  0.5112
  960MOL0     H32463   5.017   2.468   5.149  1.1273  1.7680  1.9760
  960MOL0     H32464   3.850   2.663   6.142 -0.7411 -0.1455 -0.9576
  960MOL0     H32465   3.751   2.872   6.270 -0.5915 -0.2832  1.4826
  960MOL0     H32466   3.515   3.313   6.231 -0.5627  2.6732  1.2175
  960MOL0     H32467   3.388   3.485   6.351 -1.1741  0.7080  1.8580
  960MOL0     H32468   3.306   3.590   6.533 -0.2473  0.6699 -0.5693
  960MOL0     H32469   3.143   3.586   6.455  0.8818  2.2733 -0.3932
  960MOL0     H32470   3.157   3.727   6.650 -1.1585  0.3685  0.6205
  960MOL0     H32471   3.224   3.601   6.743 -1.4438  3.3923  2.0386
  960MOL0     H32472   3.003   3.462   6.696  0.0946  0.3215 -3.0585
  960MOL0     H32473   2.979   3.595   6.807  2.3394 -0.4063  2.3799
  960MOL0     H32474   2.810   3.556   6.598 -2.3898  3.0091 -0.2506
  960MOL0     H32475   2.947   3.642   6.501 -0.0941 -1.9539  0.2516
  960MOL0     H32476   2.853   3.979   6.684  4.9527  0.2375 -0.5439
  960MOL0     H32477   3.183   3.177   6.554  0.9873 -1.5563 -0.5312
  960MOL0     H32478   3.365   2.908   6.457  2.9426  2.3982 -3.4955
  960MOL0     H32479   3.188   2.952   6.491  0.5604  0.6653  0.3349
  960MOL0     H32480   3.235   2.917   6.334  0.0002 -1.2147  0.0348
  961MOL0     O32481   5.692   2.107   3.101  0.1732  0.2948  0.1625
  961MOL0     C32482   5.702   2.106   2.984 -0.6731  0.0063  0.1852
  961MOL0     O32483   5.818   2.126   2.914 -0.0672 -0.3933  0.5440
  961MOL0     C32484   5.923   2.178   2.982  0.5727 -0.0902 -0.1080
  961MOL0     C32485   6.018   2.096   3.035 -0.2757  0.3922 -0.1418
  961MOL0     C32486   6.127   2.152   3.098  0.1226 -0.6550 -1.4086
  961MOL0     C32487   6.144   2.295   3.103 -0.4031 -0.1894  0.9234
  961MOL0     O32488   6.253   2.350   3.161 -0.2548 -0.3394 -0.2707
  961MOL0     C32489   6.294   2.288   3.286  0.1472  0.6298  0.2345
  961MOL0     C32490   6.402   2.368   3.351 -0.0838 -0.4107 -0.3328
  961MOL0     C32491   6.527   2.398   3.264 -0.5776 -0.5854  0.3750
  961MOL0     C32492   6.632   2.496   3.333 -0.2454 -0.9246 -0.3984
  961MOL0     C32493   6.754   2.528   3.252 -0.1459 -0.2367  0.0476
  961MOL0     C32494   6.855   2.638   3.304 -0.0582 -0.1161 -0.6926
  961MOL0     C32495   6.984   2.641   3.217  0.5010  0.1498  0.2253
  961MOL0     C32496   7.069   2.769   3.228 -0.1721 -1.6190 -0.3680
  961MOL0     N32497   7.150   2.776   3.351  0.1222  0.6577  0.0176
  961MOL0     C32498   7.222   2.671   3.403 -0.1318 -0.1971 -0.3923
  961MOL0     C32499   7.247   2.720   3.529 -0.5580 -1.1297  0.5533
  961MOL0     C32500   7.344   2.645   3.618  0.0967 -0.7516  0.1530
  961MOL0     C32501   7.487   2.705   3.599 -0.6361  0.1526  0.0290
  961MOL0     C32502   7.605   2.614   3.650 -0.3853  0.0463 -0.2480
  961MOL0     C32503   7.747   2.660   3.606  0.7767  0.1172  0.0100
  961MOL0     O32504   7.755   2.650   3.466  0.2402  0.2214  0.5137
  961MOL0     C32505   7.873   2.688   3.404  0.0373  0.3973 -0.1480
  961MOL0     C32506   7.865   2.695   3.266  1.4004 -0.4642  0.4886
  961MOL0     C32507   7.969   2.743   3.180 -1.2847 -0.3524  0.6580
  961MOL0     C32508   7.948   2.736   3.034 -0.6490  0.1906  0.6419
  961MOL0     C32509   8.094   2.783   3.235 -0.2530  0.4652  0.7614
  961MOL0     C32510   8.214   2.820   3.153 -0.0110 -0.0479  0.1027
  961MOL0     O32511   8.327   2.851   3.240  0.1664 -0.5034  0.0584
  961MOL0     C32512   8.434   2.926   3.192 -0.2149  0.5053  0.0702
  961MOL0     C32513   8.568   2.874   3.206 -0.4316 -0.3032  0.8289
  961MOL0     C32514   8.666   2.952   3.142  0.2710  0.0482 -0.3508
  961MOL0     C32515   8.643   3.068   3.070  0.3446  0.2074  0.2066
  961MOL0     O32516   8.751   3.114   2.995  0.1042 -0.7366 -0.0492
  961MOL0     C32517   8.755   3.258   2.981 -0.9877 -0.1650  0.3176
  961MOL0     C32518   8.800   3.324   3.115 -0.6481 -1.1396 -0.3259
  961MOL0     C32519   8.949   3.293   3.144 -1.0213  0.1894  0.1786
  961MOL0     C32520   8.997   3.352   3.280 -1.0104  1.2206  0.9514
  961MOL0     C32521   9.153   3.327   3.297  0.4371  0.7676 -0.3261
  961MOL0     C32522   9.244   3.415   3.208  1.1091 -0.5215  0.9716
  961MOL0     C32523   9.384   3.354   3.216  0.4222  0.4224  0.6020
  961MOL0     C32524   9.487   3.424   3.142 -0.4835  0.1827 -0.0899
  961MOL0    Cl32525   9.503   3.586   3.214  0.1412  0.2571  0.6724
  961MOL0     C32526   8.510   3.108   3.047 -1.0676 -0.0862  0.1320
  961MOL0     C32527   8.411   3.038   3.108  1.4216 -0.3160 -1.0476
  961MOL0     O32528   8.200   2.853   3.034 -0.4965 -0.1766 -0.1467
  961MOL0     C32529   8.105   2.766   3.375  0.6199  0.4735 -0.0969
  961MOL0     C32530   7.992   2.724   3.458 -0.3780 -0.5087  0.2252
  961MOL0     N32531   7.198   2.852   3.538 -0.2329  0.4335 -0.7523
  961MOL0     N32532   7.120   2.869   3.436 -0.6177  0.1882  0.0499
  961MOL0     C32533   6.057   2.378   3.040  0.9271  0.5290 -0.0188
  961MOL0     C32534   5.947   2.323   2.976  0.2848  0.5495 -0.2154
  961MOL0     C32535   5.575   2.076   2.915 -0.3992  0.0284  0.1065
  961MOL0     C32536   5.473   2.168   2.919 -0.5820  0.0978  0.3985
  961MOL0     C32537   5.355   2.146   2.866 -0.3584  0.0482  0.0573
  961MOL0     C32538   5.329   2.032   2.792  0.5392 -0.5842 -0.9202
  961MOL0     O32539   5.213   2.005   2.727 -0.9487 -0.1064  0.3085
  961MOL0     C32540   5.216   2.021   2.588 -0.5759  0.2288 -0.4995
  961MOL0     C32541   5.084   1.980   2.528 -0.3556  0.8586 -0.5666
  961MOL0     C32542   5.092   1.929   2.382 -0.2533  0.2076 -0.1922
  961MOL0     C32543   5.087   2.038   2.266  0.2247  0.3350 -0.2653
  961MOL0     C32544   5.182   2.151   2.262 -0.0544 -0.3998 -0.1495
  961MOL0     C32545   5.267   2.231   2.272 -0.0844 -0.4236 -0.0707
  961MOL0     C32546   5.428   1.936   2.799  0.8439  0.6578  0.8829
  961MOL0     C32547   5.547   1.953   2.866 -0.0082  0.5797  0.2891
  961MOL0     C32548   5.630   1.826   2.890 -0.7479 -0.2348  0.6310
  961MOL0     H32549   6.000   1.989   3.038 -2.6177  0.7038 -0.9017
  961MOL0     H32550   6.190   2.079   3.147 -2.0582 -0.6646  1.6793
  961MOL0     H32551   6.329   2.186   3.265 -0.0636  0.7942 -1.0211
  961MOL0     H32552   6.216   2.269   3.360 -1.0591 -1.1091 -1.3993
  961MOL0     H32553   6.350   2.459   3.382 -0.5008 -0.4952 -0.7795
  961MOL0     H32554   6.433   2.310   3.439 -2.9151 -0.4898  0.7302
  961MOL0     H32555   6.577   2.305   3.233  3.4056  1.9317 -1.5015
  961MOL0     H32556   6.503   2.435   3.164  0.8126 -2.1252 -0.5751
  961MOL0     H32557   6.587   2.596   3.338  0.8635 -0.2001 -3.1469
  961MOL0     H32558   6.657   2.466   3.435 -0.0790 -2.2047 -0.8049
  961MOL0     H32559   6.723   2.574   3.158 -1.0914  1.5474  1.1735
  961MOL0     H32560   6.807   2.434   3.236  0.9502  0.6800 -2.0407
  961MOL0     H32561   6.795   2.728   3.291 -2.4601 -1.5635 -0.1343
  961MOL0     H32562   6.880   2.611   3.407 -0.7150  2.3254  0.1773
  961MOL0     H32563   6.954   2.628   3.113 -1.6578 -0.7809  0.9121
  961MOL0     H32564   7.034   2.553   3.259  0.3261 -1.5241 -2.8039
  961MOL0     H32565   7.144   2.779   3.149 -0.8461  0.2283 -0.8160
  961MOL0     H32566   7.009   2.860   3.230 -0.4418 -1.8001 -0.1966
  961MOL0     H32567   7.232   2.566   3.379 -1.5186 -0.7502  1.2205
  961MOL0     H32568   7.351   2.546   3.573 -2.3193 -0.4247 -1.0799
  961MOL0     H32569   7.312   2.629   3.721 -0.0979  0.2368  0.2585
  961MOL0     H32570   7.509   2.741   3.498 -4.4826 -1.4778 -1.5730
  961MOL0     H32571   7.495   2.797   3.658  2.6775 -1.0746  1.7633
  961MOL0     H32572   7.602   2.608   3.759 -0.7995 -0.2818 -0.2759
  961MOL0     H32573   7.597   2.512   3.612  2.4429  1.3392 -5.1970
  961MOL0     H32574   7.772   2.757   3.649 -0.5202  1.2635 -1.6946
  961MOL0     H32575   7.810   2.583   3.652  0.8096 -0.6082 -1.1946
  961MOL0     H32576   7.768   2.682   3.219  0.8247 -1.3246  1.8282
  961MOL0     H32577   7.952   2.837   2.994  0.1840 -0.3981 -0.8340
  961MOL0     H32578   7.854   2.695   2.994  0.3138 -1.7676  0.2597
  961MOL0     H32579   8.025   2.679   2.982  0.1065  0.8171  1.0576
  961MOL0     H32580   8.593   2.783   3.260  1.8205 -1.1065 -1.3321
  961MOL0     H32581   8.769   2.919   3.155  0.0864 -0.1963  0.5730
  961MOL0     H32582   8.830   3.283   2.906 -0.9514 -0.2428  0.3282
  961MOL0     H32583   8.659   3.301   2.949 -0.2672 -1.6726 -4.7920
  961MOL0     H32584   8.781   3.431   3.109 -0.8256 -0.9723  2.0242
  961MOL0     H32585   8.727   3.296   3.192 -1.6608  3.3224  0.6467
  961MOL0     H32586   9.006   3.331   3.059 -2.5431 -5.2365 -3.8276
  961MOL0     H32587   8.955   3.185   3.132  2.1647  0.2368  0.6130
  961MOL0     H32588   8.952   3.305   3.368  1.2570 -0.6320  1.2132
  961MOL0     H32589   8.968   3.457   3.284 -2.2939  0.8497  2.2387
  961MOL0     H32590   9.175   3.336   3.404 -0.9622 -0.6634  0.1290
  961MOL0     H32591   9.176   3.222   3.278 -0.3917  0.1753  1.5974
  961MOL0     H32592   9.234   3.522   3.233 -0.1806 -0.2456 -0.5721
  961MOL0     H32593   9.203   3.412   3.107 -0.6133 -2.4639  1.6571
  961MOL0     H32594   9.378   3.256   3.168  0.7170  1.9244 -2.8472
  961MOL0     H32595   9.415   3.360   3.321  0.3115  2.3082  0.5695
  961MOL0     H32596   9.477   3.426   3.033  1.4089  2.0880 -0.2905
  961MOL0     H32597   9.574   3.361   3.163 -2.0823 -2.0773  0.1562
  961MOL0     H32598   8.489   3.196   2.989  2.1773  1.5412  1.1549
  961MOL0     H32599   8.313   3.086   3.102  1.1876 -0.1825  2.2297
  961MOL0     H32600   8.202   2.771   3.424  1.0084 -0.8511 -0.6832
  961MOL0     H32601   8.006   2.700   3.562  0.7879 -1.8601 -0.2140
  961MOL0     H32602   6.076   2.485   3.040 -3.4961  1.5159 -0.4118
  961MOL0     H32603   5.880   2.385   2.918 -0.5075  0.4717  0.5911
  961MOL0     H32604   5.495   2.255   2.980  0.1600  0.5974 -0.5510
  961MOL0     H32605   5.282   2.226   2.876 -1.4316 -0.9632  0.6112
  961MOL0     H32606   5.237   2.125   2.560  1.3757 -0.5904 -2.2943
  961MOL0     H32607   5.295   1.955   2.553 -1.7625  0.2391 -3.4922
  961MOL0     H32608   5.008   2.057   2.537 -2.8207 -1.4574 -0.3844
  961MOL0     H32609   5.044   1.908   2.600  1.4723  1.9344  1.6692
  961MOL0     H32610   5.184   1.872   2.367  1.5834  2.6231  1.2297
  961MOL0     H32611   5.006   1.863   2.362 -0.6088  0.9124 -1.0858
  961MOL0     H32612   4.989   2.084   2.284 -1.9758 -3.7097 -0.8492
  961MOL0     H32613   5.084   1.973   2.178  1.2853  0.4228 -0.3880
  961MOL0     H32614   5.349   2.298   2.259  1.2820 -2.1476 -0.8917
  961MOL0     H32615   5.403   1.844   2.748  1.5619  1.8135 -1.7101
  961MOL0     H32616   5.655   1.816   2.996 -0.4178  0.3662  0.6166
  961MOL0     H32617   5.582   1.737   2.849  1.7883 -1.6283  0.4680
  961MOL0     H32618   5.726   1.842   2.839 -1.5622 -0.9386 -1.2194
  962MOL0     O32619   6.066   7.376   4.856  0.3370 -0.8674 -0.7427
  962MOL0     C32620   6.105   7.263   4.886  0.9110 -0.4622 -0.4581
  962MOL0     O32621   6.236   7.220   4.889  0.0103 -0.3868  0.4478
  962MOL0     C32622   6.317   7.289   4.800 -0.8006  0.7180 -0.7065
  962MOL0     C32623   6.359   7.232   4.675  0.6465 -0.4942  0.4933
  962MOL0     C32624   6.470   7.288   4.610  0.5973 -0.6878 -0.1057
  962MOL0     C32625   6.552   7.395   4.662 -0.7438  0.6574 -0.2025
  962MOL0     O32626   6.662   7.456   4.605 -0.1610 -0.1226  0.3047
  962MOL0     C32627   6.743   7.376   4.519  0.3072  1.1070  0.4972
  962MOL0     C32628   6.837   7.476   4.460  0.0732  0.0219  0.0630
  962MOL0     C32629   6.887   7.406   4.332 -0.1732 -0.6911 -0.1360
  962MOL0     C32630   6.997   7.490   4.261  0.3159 -0.7003  0.6703
  962MOL0     C32631   7.009   7.465   4.103  0.2949  0.7296 -0.0078
  962MOL0     C32632   7.029   7.318   4.056 -0.1796 -0.4606 -0.6522
  962MOL0     C32633   7.026   7.311   3.905  0.4529 -0.8450  0.8153
  962MOL0     C32634   7.043   7.166   3.850 -0.0924 -0.6072 -0.2968
  962MOL0     N32635   7.155   7.084   3.907 -0.3452 -0.2273  1.0138
  962MOL0     C32636   7.150   7.031   4.029  0.2353  0.4611 -0.7869
  962MOL0     C32637   7.277   7.021   4.082  0.4804  0.0246 -0.0460
  962MOL0     C32638   7.324   6.954   4.204 -0.8974  0.1102 -0.6598
  962MOL0     C32639   7.307   7.034   4.328  0.2814  0.3165  0.6747
  962MOL0     C32640   7.160   7.068   4.352 -0.6711 -0.0368 -0.0426
  962MOL0     C32641   7.123   7.125   4.498  0.4377 -0.5106  0.5789
  962MOL0     O32642   7.192   7.247   4.506 -0.3703 -0.4631  0.2625
  962MOL0     C32643   7.159   7.325   4.618 -0.0305  0.1225  0.3404
  962MOL0     C32644   7.062   7.303   4.712 -0.0322 -0.0245 -0.4083
  962MOL0     C32645   7.040   7.380   4.832  0.3382  0.1976 -0.3429
  962MOL0     C32646   6.921   7.349   4.920 -1.0565 -0.8416  0.8849
  962MOL0     C32647   7.134   7.485   4.854 -0.8813  0.2037 -0.0656
  962MOL0     C32648   7.138   7.561   4.974  0.7519  0.9274  0.3321
  962MOL0     O32649   7.205   7.680   4.976  0.0174 -0.3239 -0.4497
  962MOL0     C32650   7.203   7.742   5.100  0.6504 -0.8279 -0.8812
  962MOL0     C32651   7.328   7.788   5.139  0.0792 -0.0412 -0.1116
  962MOL0     C32652   7.328   7.875   5.254 -0.4557  0.8854 -1.2579
  962MOL0     C32653   7.217   7.884   5.337 -0.5735 -0.6763  0.4574
  962MOL0     O32654   7.213   7.952   5.461 -0.4331 -0.8641  0.7341
  962MOL0     C32655   7.301   8.065   5.482 -0.1776 -0.1478  0.2005
  962MOL0     C32656   7.249   8.165   5.584  0.1627 -0.0022 -0.5314
  962MOL0     C32657   7.117   8.238   5.558 -0.3611 -0.5423  0.1116
  962MOL0     C32658   7.055   8.300   5.693  1.2838  0.4286  0.5763
  962MOL0     C32659   6.923   8.373   5.642 -0.5493  0.9265  0.2101
  962MOL0     C32660   6.813   8.368   5.753  0.0549  0.6625 -0.6478
  962MOL0     C32661   6.850   8.441   5.882  1.0775  0.7354 -0.3252
  962MOL0     C32662   6.733   8.425   5.980 -0.3725 -0.3807 -0.4779
  962MOL0    Cl32663   6.592   8.499   5.923 -0.1391 -0.4003  0.3271
  962MOL0     C32664   7.090   7.834   5.294 -0.3823 -0.1709 -1.0986
  962MOL0     C32665   7.085   7.775   5.171  0.0323 -0.4753  0.1956
  962MOL0     O32666   7.105   7.501   5.079  0.5812  0.1580  0.6078
  962MOL0     C32667   7.237   7.506   4.757  0.3545  0.6819 -0.4254
  962MOL0     C32668   7.246   7.434   4.638  0.8476  0.3562 -0.3650
  962MOL0     N32669   7.351   7.074   3.986 -0.1079 -0.8216  0.3469
  962MOL0     N32670   7.286   7.110   3.876 -0.2549  0.8322 -0.7245
  962MOL0     C32671   6.510   7.449   4.787  0.4744  0.2874  1.0084
  962MOL0     C32672   6.387   7.403   4.849 -0.6933  0.3484  0.5485
  962MOL0     C32673   5.999   7.174   4.937 -0.4880 -0.6330 -0.5147
  962MOL0     C32674   6.038   7.072   5.021 -0.2438 -0.5104  0.6051
  962MOL0     C32675   5.956   6.967   5.062  0.5360 -0.0224 -0.5987
  962MOL0     C32676   5.824   6.968   5.026  0.1508  0.3909  0.7694
  962MOL0     O32677   5.732   6.881   5.074  0.1604  0.0791 -0.5592
  962MOL0     C32678   5.632   6.935   5.166  0.0006 -0.1500  0.0772
  962MOL0     C32679   5.498   6.927   5.102 -0.0830  0.4121  0.3123
  962MOL0     C32680   5.386   6.994   5.179  0.5789  0.5932 -0.1713
  962MOL0     C32681   5.250   6.932   5.144 -0.0379 -0.8359  0.4456
  962MOL0     C32682   5.246   6.796   5.197  0.5471  0.1205 -0.2352
  962MOL0     C32683   5.234   6.686   5.249 -0.2747 -1.1920 -0.4188
  962MOL0     C32684   5.775   7.072   4.939 -0.4061  0.3896 -0.2959
  962MOL0     C32685   5.859   7.177   4.903  0.9203 -0.4583  0.5902
  962MOL0     C32686   5.789   7.289   4.818  0.1560 -0.1641  0.6385
  962MOL0     H32687   6.296   7.153   4.634 -0.0027  0.1843  0.1496
  962MOL0     H32688   6.504   7.241   4.518 -0.0316  0.7511 -1.1080
  962MOL0     H32689   6.684   7.337   4.435 -1.7524  1.3104  1.7880
  962MOL0     H32690   6.803   7.297   4.563 -2.3990 -0.3297  1.9100
  962MOL0     H32691   6.777   7.566   4.441 -0.4386 -0.4563 -0.6477
  962MOL0     H32692   6.919   7.507   4.525 -0.8491 -1.0084  1.7831
  962MOL0     H32693   6.927   7.306   4.351  1.7666  0.4574  2.5474
  962MOL0     H32694   6.809   7.390   4.257 -0.0810  0.0029 -0.3895
  962MOL0     H32695   6.972   7.594   4.285 -0.0012 -0.3841 -0.9609
  962MOL0     H32696   7.091   7.470   4.313  0.1403 -0.3038  1.1521
  962MOL0     H32697   7.099   7.522   4.077  0.0443 -0.2446 -3.4829
  962MOL0     H32698   6.910   7.499   4.071 -0.8815 -0.6050  1.9925
  962MOL0     H32699   7.123   7.286   4.101 -2.4207 -1.9856  3.4920
  962MOL0     H32700   6.948   7.263   4.106  1.3196 -0.3852  2.0522
  962MOL0     H32701   7.118   7.357   3.869  0.0976 -0.8214 -0.0867
  962MOL0     H32702   6.937   7.365   3.871 -0.4455 -1.5620  1.9643
  962MOL0     H32703   6.947   7.115   3.865 -0.9521  0.7935 -0.8733
  962MOL0     H32704   7.057   7.169   3.742 -1.3856 -3.5836 -0.6616
  962MOL0     H32705   7.063   6.997   4.086  0.5539  0.8698 -0.0373
  962MOL0     H32706   7.430   6.935   4.186 -0.9143 -1.9221  1.0106
  962MOL0     H32707   7.282   6.854   4.217 -2.5882  0.7532 -0.9816
  962MOL0     H32708   7.359   6.989   4.413  0.8623  0.2721  0.3019
  962MOL0     H32709   7.361   7.127   4.308  0.9170 -0.1337  0.2574
  962MOL0     H32710   7.131   7.143   4.278 -3.2607 -1.2807 -0.4034
  962MOL0     H32711   7.096   6.979   4.343 -3.1114  1.4341  1.6156
  962MOL0     H32712   7.013   7.124   4.501  0.3721 -1.9571 -0.5935
  962MOL0     H32713   7.151   7.054   4.577 -0.0489 -2.9522 -1.3175
  962MOL0     H32714   6.983   7.230   4.697 -0.3644  0.5996 -1.8972
  962MOL0     H32715   6.842   7.423   4.907 -0.2792 -0.0784  0.4317
  962MOL0     H32716   6.938   7.339   5.028 -2.4832 -0.5519  1.1526
  962MOL0     H32717   6.892   7.249   4.886  3.3284 -1.7188 -0.9888
  962MOL0     H32718   7.407   7.746   5.078  0.3470 -3.1922  2.1729
  962MOL0     H32719   7.417   7.927   5.288  0.2824  0.5857 -2.6303
  962MOL0     H32720   7.401   8.037   5.516 -0.9125 -4.5773 -0.5746
  962MOL0     H32721   7.318   8.119   5.388 -0.7946  0.3221  0.3583
  962MOL0     H32722   7.232   8.106   5.675 -0.1597  0.4809 -0.2741
  962MOL0     H32723   7.324   8.243   5.602  1.8298 -1.7980  0.7571
  962MOL0     H32724   7.056   8.160   5.511  1.7284 -1.8861 -0.4769
  962MOL0     H32725   7.125   8.318   5.484 -0.6214 -0.5982  0.0189
  962MOL0     H32726   7.127   8.365   5.744  1.2060 -1.1761  2.8873
  962MOL0     H32727   7.019   8.224   5.763 -1.1673  2.5300  1.7644
  962MOL0     H32728   6.939   8.477   5.615 -2.9598  1.7213  1.5406
  962MOL0     H32729   6.878   8.318   5.559 -2.0443 -0.1064  1.6452
  962MOL0     H32730   6.805   8.260   5.768 -2.2342  0.6152 -1.7963
  962MOL0     H32731   6.723   8.398   5.699  1.9548  0.6235 -4.1193
  962MOL0     H32732   6.870   8.546   5.862 -2.5708  1.7106  0.5292
  962MOL0     H32733   6.934   8.384   5.924 -1.7827 -1.6948  2.6607
  962MOL0     H32734   6.758   8.463   6.080  0.6438 -1.0350 -0.4617
  962MOL0     H32735   6.717   8.317   5.996 -1.6557  0.1209  2.2605
  962MOL0     H32736   7.006   7.857   5.360  0.4840 -2.9153  1.1535
  962MOL0     H32737   6.993   7.755   5.117 -0.8146  1.9695  0.5707
  962MOL0     H32738   7.308   7.585   4.777 -0.1084  1.5847 -2.1394
  962MOL0     H32739   7.317   7.465   4.563  1.0636 -2.3539 -1.3836
  962MOL0     H32740   6.568   7.525   4.839 -0.2063  1.7022 -0.2097
  962MOL0     H32741   6.344   7.436   4.943  0.2709  0.5807  0.9154
  962MOL0     H32742   6.138   7.066   5.064 -1.1275 -0.2768  2.8146
  962MOL0     H32743   5.985   6.883   5.125 -0.9302  1.3881  2.0731
  962MOL0     H32744   5.643   6.867   5.251  2.5201 -0.6937 -0.5933
  962MOL0     H32745   5.659   7.034   5.204  1.4972 -1.0787  1.5449
  962MOL0     H32746   5.482   6.827   5.060 -1.1399  1.9982 -3.5311
  962MOL0     H32747   5.496   6.987   5.010 -0.2576 -0.3504 -0.1927
  962MOL0     H32748   5.397   6.977   5.286 -0.9718 -0.4320 -0.1395
  962MOL0     H32749   5.392   7.102   5.165  1.0708  0.6740  0.6489
  962MOL0     H32750   5.241   6.936   5.035 -0.9854  0.2950  0.5347
  962MOL0     H32751   5.168   6.992   5.185  0.8061  1.7003 -1.3019
  962MOL0     H32752   5.246   6.585   5.282 -0.7185 -1.3999 -0.8871
  962MOL0     H32753   5.668   7.068   4.918 -0.3074 -1.4593 -0.5646
  962MOL0     H32754   5.847   7.311   4.728 -0.7589  1.6543  0.4514
  962MOL0     H32755   5.691   7.251   4.788  1.2682 -2.0057 -0.8933
  962MOL0     H32756   5.783   7.374   4.887 -0.4868 -1.7737  2.6496
  963MOL0     O32757   5.269   1.238   4.336 -0.1577  0.1696  0.3959
  963MOL0     C32758   5.191   1.316   4.281  1.3845 -0.4246  0.0890
  963MOL0     O32759   5.213   1.457   4.269 -0.5314  0.2183  0.0639
  963MOL0     C32760   5.329   1.506   4.323  0.0560 -0.2695 -1.1090
  963MOL0     C32761   5.350   1.489   4.464 -0.2247 -0.4770  0.0449
  963MOL0     C32762   5.462   1.550   4.521 -0.7466 -0.2887 -0.3989
  963MOL0     C32763   5.558   1.607   4.436  0.2333  0.8342 -0.6050
  963MOL0     O32764   5.676   1.659   4.470 -0.3970 -0.6230 -0.1338
  963MOL0     C32765   5.706   1.684   4.606  0.3830 -0.0893  0.8393
  963MOL0     C32766   5.842   1.744   4.629 -0.9523  0.8553 -0.5286
  963MOL0     C32767   5.949   1.641   4.605  0.0400  0.8063 -0.0373
  963MOL0     C32768   6.072   1.655   4.697 -0.3657 -0.6247 -0.1113
  963MOL0     C32769   6.148   1.784   4.668  0.1802 -0.4939 -0.8535
  963MOL0     C32770   6.255   1.812   4.772  0.4788 -0.1192 -0.5378
  963MOL0     C32771   6.318   1.944   4.719 -0.4805 -0.0640 -0.4242
  963MOL0     C32772   6.430   1.995   4.809  0.4584  0.1256  0.2093
  963MOL0     N32773   6.544   1.902   4.811  0.4753 -0.9085  0.3079
  963MOL0     C32774   6.658   1.941   4.748  0.2862  0.7774 -0.0201
  963MOL0     C32775   6.756   1.845   4.784 -0.6009 -0.2226  0.7036
  963MOL0     C32776   6.900   1.845   4.735 -0.0839 -0.2458 -0.0100
  963MOL0     C32777   6.990   1.746   4.807 -0.7558  0.3633 -0.6736
  963MOL0     C32778   7.139   1.754   4.778 -0.4158  0.4821  0.6173
  963MOL0     C32779   7.174   1.711   4.636  0.0792 -0.7345 -0.5594
  963MOL0     O32780   7.309   1.743   4.604 -0.0888 -0.0844  0.0884
  963MOL0     C32781   7.350   1.841   4.518  0.2017  0.2403 -0.3301
  963MOL0     C32782   7.268   1.927   4.446  0.3514 -0.3428  0.7007
  963MOL0     C32783   7.323   2.022   4.353  0.7522  0.4248  0.3794
  963MOL0     C32784   7.225   2.116   4.286  0.6088 -0.7330  0.0636
  963MOL0     C32785   7.468   2.011   4.317 -0.1906  0.0443 -0.6480
  963MOL0     C32786   7.527   2.093   4.204  0.3874  0.6132  0.0111
  963MOL0     O32787   7.665   2.090   4.198  0.2233  0.0338 -0.2619
  963MOL0     C32788   7.722   2.151   4.088 -0.0570 -0.2380  1.1118
  963MOL0     C32789   7.747   2.072   3.974 -0.4912 -0.9173  0.6059
  963MOL0     C32790   7.809   2.137   3.863  0.2474  0.1433  0.9495
  963MOL0     C32791   7.850   2.273   3.870  0.4056  0.2999 -0.3425
  963MOL0     O32792   7.919   2.332   3.769  0.0627  0.1224  0.8412
  963MOL0     C32793   7.955   2.269   3.644  0.3410  0.0385  0.2619
  963MOL0     C32794   7.973   2.372   3.527 -1.1061  0.3565 -0.7108
  963MOL0     C32795   8.022   2.314   3.397 -1.0625  0.4347  0.6190
  963MOL0     C32796   8.172   2.298   3.393  0.1654  0.2388  0.2720
  963MOL0     C32797   8.229   2.227   3.272  0.1994 -0.6292 -0.0185
  963MOL0     C32798   8.182   2.085   3.249  0.1721  0.2722 -0.2615
  963MOL0     C32799   8.247   2.033   3.122 -0.3559 -0.1109  0.2693
  963MOL0     C32800   8.212   1.891   3.099 -0.1554 -0.2688 -0.7528
  963MOL0    Cl32801   8.229   1.826   2.929 -0.5199 -0.1750  0.2103
  963MOL0     C32802   7.816   2.345   3.987  0.1111 -0.2024 -0.9941
  963MOL0     C32803   7.751   2.283   4.097 -0.3294  0.2057  0.5852
  963MOL0     O32804   7.456   2.159   4.136 -0.1187 -0.0672 -0.3434
  963MOL0     C32805   7.548   1.918   4.387  0.3822  0.9490 -0.1459
  963MOL0     C32806   7.488   1.827   4.481  0.1122 -0.5999  0.9950
  963MOL0     N32807   6.685   1.743   4.850 -0.3209  0.3394  0.0135
  963MOL0     N32808   6.566   1.790   4.882  0.0715 -0.0184 -0.2464
  963MOL0     C32809   5.534   1.627   4.298  1.1429 -0.4727 -0.3925
  963MOL0     C32810   5.412   1.577   4.244 -0.9455 -1.0206 -0.0148
  963MOL0     C32811   5.072   1.252   4.211  0.4266 -0.2043 -0.0135
  963MOL0     C32812   5.035   1.122   4.241  0.0854  0.1629  0.7443
  963MOL0     C32813   4.936   1.055   4.168 -0.7595 -0.0486 -0.2697
  963MOL0     C32814   4.875   1.122   4.054 -0.9468 -0.1993 -0.5531
  963MOL0     O32815   4.784   1.061   3.974 -0.1268 -1.0804  0.1201
  963MOL0     C32816   4.655   1.009   4.018 -0.3977 -0.5753  0.7684
  963MOL0     C32817   4.528   1.079   3.961 -0.5290 -0.4637  0.3514
  963MOL0     C32818   4.483   1.020   3.816  0.0867  0.7262  0.0391
  963MOL0     C32819   4.579   1.044   3.694 -0.5455 -0.0180 -0.2574
  963MOL0     C32820   4.595   1.187   3.679 -0.0255  0.1121  0.0633
  963MOL0     C32821   4.600   1.309   3.683  0.6543 -0.0629 -0.2714
  963MOL0     C32822   4.927   1.239   4.011  0.3792 -0.6737  0.1227
  963MOL0     C32823   5.024   1.302   4.082  0.0869 -0.6371  0.3577
  963MOL0     C32824   5.067   1.435   4.027  0.0992 -0.0727  0.5793
  963MOL0     H32825   5.277   1.436   4.523 -1.0706  0.3882 -0.2116
  963MOL0     H32826   5.477   1.530   4.627 -1.3781 -0.7484 -0.3872
  963MOL0     H32827   5.700   1.583   4.649  1.1065 -1.0770 -1.2237
  963MOL0     H32828   5.631   1.740   4.662 -1.3041  0.0090 -1.3704
  963MOL0     H32829   5.837   1.836   4.570 -3.0865 -0.1642 -2.0605
  963MOL0     H32830   5.852   1.771   4.735 -2.1751  3.0002 -0.9068
  963MOL0     H32831   5.916   1.539   4.625 -0.0984  0.3782 -2.1654
  963MOL0     H32832   5.972   1.642   4.498 -0.4499 -1.5828 -0.2338
  963MOL0     H32833   6.040   1.641   4.801 -0.7563  0.4363 -0.0792
  963MOL0     H32834   6.133   1.569   4.665  0.2036 -0.2569 -0.0239
  963MOL0     H32835   6.084   1.872   4.657  0.5703  0.0014  0.6134
  963MOL0     H32836   6.199   1.770   4.572  0.3184 -0.7882 -0.7394
  963MOL0     H32837   6.220   1.832   4.874  1.9298  1.2724 -0.2716
  963MOL0     H32838   6.324   1.727   4.771 -0.1611 -0.6623  0.1959
  963MOL0     H32839   6.245   2.023   4.703  2.3749  3.0848  0.8528
  963MOL0     H32840   6.369   1.919   4.626  1.5885  0.6332  0.4572
  963MOL0     H32841   6.457   2.093   4.770 -1.8079  1.6489  2.1396
  963MOL0     H32842   6.400   2.007   4.914  1.4763 -1.7331  0.7528
  963MOL0     H32843   6.677   2.025   4.681  0.0082  1.1404  0.3552
  963MOL0     H32844   6.941   1.944   4.760  0.2961 -0.8338  1.8389
  963MOL0     H32845   6.906   1.829   4.627  3.3443  1.3760 -0.1765
  963MOL0     H32846   6.979   1.755   4.915 -0.1069  0.5972 -0.6236
  963MOL0     H32847   6.960   1.644   4.781  0.5217  0.4179 -2.5663
  963MOL0     H32848   7.166   1.858   4.797  0.8798  0.2674  0.1144
  963MOL0     H32849   7.196   1.695   4.851  0.1450  0.5877  0.2754
  963MOL0     H32850   7.151   1.604   4.629 -3.7766 -0.1744  0.9831
  963MOL0     H32851   7.104   1.750   4.562 -1.5076 -2.0702  0.1817
  963MOL0     H32852   7.161   1.927   4.462  0.2098  2.2815  0.0988
  963MOL0     H32853   7.131   2.104   4.341  1.8555 -0.9906  2.2197
  963MOL0     H32854   7.198   2.079   4.186 -0.6316  0.5387 -0.1083
  963MOL0     H32855   7.270   2.215   4.278 -0.3440 -0.4275 -2.5693
  963MOL0     H32856   7.712   1.969   3.971 -1.9079 -0.4357 -0.7433
  963MOL0     H32857   7.826   2.093   3.765 -2.8501  1.6064 -0.3637
  963MOL0     H32858   8.042   2.211   3.677  0.4598  0.6001  0.9810
  963MOL0     H32859   7.877   2.199   3.613  0.7721 -1.3259  2.0714
  963MOL0     H32860   7.871   2.407   3.507 -0.8703  1.2038 -0.4799
  963MOL0     H32861   8.037   2.455   3.558 -0.7367  0.0232 -0.5614
  963MOL0     H32862   7.989   2.391   3.326 -0.1687  1.4739  1.3015
  963MOL0     H32863   7.975   2.218   3.376 -1.4640  1.0476 -1.5760
  963MOL0     H32864   8.198   2.248   3.486 -2.2934 -0.2451  0.7828
  963MOL0     H32865   8.221   2.395   3.401 -0.3404  0.4650  0.6694
  963MOL0     H32866   8.215   2.289   3.184  1.5012  1.5701  1.2256
  963MOL0     H32867   8.337   2.215   3.288  0.3839 -1.9169 -1.8908
  963MOL0     H32868   8.076   2.094   3.223 -0.2910 -1.7148  0.7927
  963MOL0     H32869   8.182   2.032   3.345 -0.1865 -1.6508 -1.2743
  963MOL0     H32870   8.355   2.036   3.137  0.3112 -0.4529 -3.4008
  963MOL0     H32871   8.221   2.101   3.040 -1.4168  0.9331  1.4314
  963MOL0     H32872   8.104   1.895   3.117 -0.2198  0.8527 -1.3443
  963MOL0     H32873   8.274   1.832   3.167 -2.2008  0.1837  1.6665
  963MOL0     H32874   7.825   2.451   4.004  1.5331 -0.2843 -1.1023
  963MOL0     H32875   7.711   2.329   4.187  2.5035 -0.7426  2.4485
  963MOL0     H32876   7.652   1.913   4.357 -0.1864  2.0189 -2.5898
  963MOL0     H32877   7.548   1.750   4.527  0.5015  0.0284  1.5696
  963MOL0     H32878   5.604   1.683   4.236  1.5714  0.1395  0.6103
  963MOL0     H32879   5.395   1.600   4.139 -2.5666 -0.5820  0.3015
  963MOL0     H32880   5.090   1.069   4.318 -2.0530 -2.2007  0.7827
  963MOL0     H32881   4.916   0.949   4.184  2.8211 -0.7653  0.4431
  963MOL0     H32882   4.638   0.903   3.999  0.9305 -1.0799  2.1536
  963MOL0     H32883   4.648   1.020   4.127  2.7395 -0.4468  1.0479
  963MOL0     H32884   4.540   1.187   3.967  2.4200 -0.7669  1.3152
  963MOL0     H32885   4.448   1.059   4.033 -1.7382 -1.9151 -1.3013
  963MOL0     H32886   4.471   0.911   3.818  1.1843  0.5685  2.7386
  963MOL0     H32887   4.385   1.060   3.792 -0.1102 -0.3545 -1.1117
  963MOL0     H32888   4.533   0.991   3.610 -1.9767 -1.2044  1.2003
  963MOL0     H32889   4.677   1.000   3.717 -0.7313  0.9015  2.7428
  963MOL0     H32890   4.591   1.416   3.678  1.6866  0.3845  3.8896
  963MOL0     H32891   4.875   1.284   3.927 -1.4515 -1.2849  0.8636
  963MOL0     H32892   5.021   1.510   4.092  0.7539 -0.4060  1.4404
  963MOL0     H32893   5.176   1.445   4.029  0.3460 -2.3526  1.1317
  963MOL0     H32894   5.042   1.456   3.922  1.4930 -0.9771  0.0431
  964MOL0     O32895  10.498   0.673  10.010 -0.2966 -0.0450  0.2107
  964MOL0     C32896  10.546   0.566  10.037 -0.2183 -0.7306  0.0367
  964MOL0     O32897  10.492   0.447   9.998  0.3945  0.6041 -0.5765
  964MOL0     C32898  10.354   0.442   9.976  0.0591 -0.8361 -1.2473
  964MOL0     C32899  10.264   0.380  10.059  0.4488  0.4714 -0.5811
  964MOL0     C32900  10.128   0.361  10.017 -0.4366 -0.2466 -0.1276
  964MOL0     C32901  10.081   0.407   9.896  0.0168  1.0144 -0.7573
  964MOL0     O32902   9.960   0.370   9.848 -0.1900 -0.6581 -0.3928
  964MOL0     C32903   9.905   0.443   9.736  0.4689  0.4588 -1.5026
  964MOL0     C32904   9.753   0.415   9.741  0.5240 -0.1354 -0.0502
  964MOL0     C32905   9.674   0.502   9.640 -1.0900  0.3965 -0.1347
  964MOL0     C32906   9.717   0.499   9.492  0.3538  0.2761 -0.5312
  964MOL0     C32907   9.657   0.613   9.404  0.0270 -0.0038  0.5109
  964MOL0     C32908   9.697   0.595   9.253 -0.6895  1.1907 -0.5166
  964MOL0     C32909   9.846   0.569   9.225  0.0539 -0.0911  0.2091
  964MOL0     C32910   9.930   0.694   9.271 -0.0253  0.9462  0.1364
  964MOL0     N32911   9.900   0.805   9.189  0.0214  0.2066 -0.3115
  964MOL0     C32912   9.960   0.847   9.070  0.5869  0.3750 -0.0794
  964MOL0     C32913   9.903   0.965   9.043 -1.3596 -0.0848  0.8578
  964MOL0     C32914   9.922   1.039   8.913  0.6680  0.7443 -0.5545
  964MOL0     C32915   9.802   1.021   8.823 -0.2791  0.4008 -0.3873
  964MOL0     C32916   9.762   0.869   8.805 -0.9022  0.5989  0.2997
  964MOL0     C32917   9.874   0.778   8.736  0.1234  0.1617  1.3047
  964MOL0     O32918   9.936   0.844   8.625 -0.1977 -0.4836  0.3731
  964MOL0     C32919  10.024   0.777   8.550 -0.7224  0.4816  0.2372
  964MOL0     C32920  10.160   0.772   8.584  0.4005 -0.5048  0.1823
  964MOL0     C32921  10.266   0.725   8.504  0.1713 -0.1055 -0.0398
  964MOL0     C32922  10.412   0.732   8.544  0.5814 -0.1717 -0.1100
  964MOL0     C32923  10.221   0.657   8.386  0.4432  0.1881  0.5153
  964MOL0     C32924  10.317   0.588   8.302 -0.3704  0.6326  0.3896
  964MOL0     O32925  10.355   0.458   8.333 -0.0177  0.4182 -0.2805
  964MOL0     C32926  10.455   0.404   8.252 -0.0060  0.7012  1.1314
  964MOL0     C32927  10.594   0.404   8.295 -0.0615 -0.0454 -0.0234
  964MOL0     C32928  10.693   0.361   8.203  0.0972  0.6659 -0.1059
  964MOL0     C32929  10.656   0.302   8.078  0.0607  0.4847  0.4457
  964MOL0     O32930  10.766   0.243   8.007  0.3432 -0.0923  0.3426
  964MOL0     C32931  10.739   0.201   7.869  0.0177 -0.2864 -0.3675
  964MOL0     C32932  10.878   0.174   7.808  0.3610 -0.0747  0.3394
  964MOL0     C32933  10.942   0.043   7.865  0.0767  0.6601 -0.1106
  964MOL0     C32934  11.072   0.018   7.785  0.9959 -0.6100 -0.7180
  964MOL0     C32935  11.168  -0.078   7.851  0.1193 -0.1608 -0.4090
  964MOL0     C32936  11.286  -0.090   7.763  0.2366 -0.1947 -0.3036
  964MOL0     C32937  11.384  -0.196   7.822 -0.3681 -1.0082  0.0843
  964MOL0     C32938  11.494  -0.218   7.717 -0.6330 -0.1610 -0.0598
  964MOL0    Cl32939  11.549  -0.063   7.646 -0.2876  0.2786  0.4701
  964MOL0     C32940  10.521   0.278   8.047 -0.2408 -0.5357 -0.0481
  964MOL0     C32941  10.417   0.335   8.135 -1.0360  0.0019  0.5946
  964MOL0     O32942  10.364   0.650   8.210  1.0136 -0.3396  0.0708
  964MOL0     C32943  10.088   0.669   8.354  0.0025  0.2308  0.1717
  964MOL0     C32944   9.988   0.726   8.430 -0.0196 -0.0668 -0.2644
  964MOL0     N32945   9.805   0.990   9.143  0.6196 -0.4476 -0.0133
  964MOL0     N32946   9.815   0.899   9.235 -0.2874 -0.2037  0.0868
  964MOL0     C32947  10.174   0.476   9.818 -0.1659  0.6548 -0.0960
  964MOL0     C32948  10.301   0.505   9.862 -0.0585  1.2682  0.6644
  964MOL0     C32949  10.683   0.561  10.106  0.1116 -0.9447  0.1865
  964MOL0     C32950  10.763   0.444  10.082 -0.5953 -0.2951 -0.2041
  964MOL0     C32951  10.894   0.430  10.143  0.5389 -0.2944 -0.5998
  964MOL0     C32952  10.947   0.526  10.226 -0.0430  0.2043  1.0121
  964MOL0     O32953  11.070   0.501  10.285  0.4617  0.1338  0.5390
  964MOL0     C32954  11.123   0.589  10.380 -0.3592 -0.0207 -0.0089
  964MOL0     C32955  11.244   0.665  10.327  0.8890 -0.2294 -0.5428
  964MOL0     C32956  11.359   0.573  10.284 -0.3333  0.0438  0.4053
  964MOL0     C32957  11.490   0.645  10.246  0.8909 -0.3713 -1.1009
  964MOL0     C32958  11.536   0.732  10.355  0.0881  1.2765  0.6065
  964MOL0     C32959  11.548   0.789  10.461 -0.7348 -0.1277 -0.4008
  964MOL0     C32960  10.867   0.640  10.238  0.9216 -0.4617 -0.0210
  964MOL0     C32961  10.732   0.662  10.180 -0.5038 -0.3767 -0.1832
  964MOL0     C32962  10.666   0.793  10.200 -0.5932 -0.0620  0.6323
  964MOL0     H32963  10.294   0.335  10.154 -0.6975  0.2821 -0.2895
  964MOL0     H32964  10.059   0.302  10.076  0.7082 -1.3570  0.1474
  964MOL0     H32965   9.957   0.407   9.647  1.2497 -0.3075 -0.7482
  964MOL0     H32966   9.927   0.551   9.736 -0.4514  0.6501 -1.5723
  964MOL0     H32967   9.741   0.309   9.717 -0.8134  0.2136 -1.0794
  964MOL0     H32968   9.719   0.427   9.844  1.6368 -3.2118  0.7850
  964MOL0     H32969   9.568   0.473   9.651 -0.6349 -0.4342  3.7347
  964MOL0     H32970   9.678   0.607   9.670  1.4604  0.1557  0.5592
  964MOL0     H32971   9.826   0.508   9.479  0.1672  0.1756 -2.6447
  964MOL0     H32972   9.696   0.397   9.458 -2.2066 -0.5555  3.0176
  964MOL0     H32973   9.676   0.717   9.432 -0.0480 -1.0134  5.0027
  964MOL0     H32974   9.549   0.604   9.417 -0.0704  0.6744  0.2185
  964MOL0     H32975   9.634   0.516   9.210  0.0843  0.0783  0.3352
  964MOL0     H32976   9.666   0.686   9.201 -0.6461  1.2840 -0.3779
  964MOL0     H32977   9.874   0.555   9.120  0.5656 -0.7840  0.4295
  964MOL0     H32978   9.880   0.478   9.274 -1.6773  0.7315  3.1736
  964MOL0     H32979   9.904   0.721   9.374 -3.0240  1.3402 -0.6309
  964MOL0     H32980  10.039   0.683   9.268  0.3647  3.9421 -1.4528
  964MOL0     H32981  10.035   0.802   9.006  1.3576  1.2484  0.1756
  964MOL0     H32982  10.015   1.009   8.863  1.8331  1.1364  1.2975
  964MOL0     H32983   9.932   1.145   8.935  1.8896  0.2625  1.4227
  964MOL0     H32984   9.707   1.057   8.865 -1.7001 -3.2729 -0.1064
  964MOL0     H32985   9.819   1.076   8.729  0.8857  1.9691  0.6934
  964MOL0     H32986   9.733   0.816   8.897 -2.6115 -1.1389 -1.1677
  964MOL0     H32987   9.667   0.865   8.752 -2.8177 -1.6300  3.5383
  964MOL0     H32988   9.962   0.755   8.798  0.9984  1.7600  0.7225
  964MOL0     H32989   9.831   0.685   8.700  0.1736  0.2004  1.1434
  964MOL0     H32990  10.189   0.824   8.675 -1.0986  0.7607 -0.0233
  964MOL0     H32991  10.462   0.637   8.528  2.9510  0.3151  3.3492
  964MOL0     H32992  10.426   0.756   8.650  0.5576  2.4467 -0.6270
  964MOL0     H32993  10.449   0.822   8.494  0.2046 -0.2213 -0.4881
  964MOL0     H32994  10.617   0.446   8.392 -2.5044 -0.3634  0.7673
  964MOL0     H32995  10.800   0.359   8.219  0.0262  0.8570  0.4070
  964MOL0     H32996  10.669   0.117   7.867 -1.5362  0.9202  0.8217
  964MOL0     H32997  10.681   0.286   7.833 -1.0293 -0.7567  0.1549
  964MOL0     H32998  10.855   0.172   7.701  0.1227 -2.3782  0.3822
  964MOL0     H32999  10.943   0.258   7.832  0.0025  0.3351 -0.1043
  964MOL0     H33000  10.872  -0.035   7.833 -0.7474  1.5164 -0.4494
  964MOL0     H33001  10.960   0.051   7.972  4.4456 -0.2427 -0.5995
  964MOL0     H33002  11.120   0.115   7.770  1.4853 -0.7778 -0.2941
  964MOL0     H33003  11.046  -0.020   7.686  0.8596  0.8260 -1.2617
  964MOL0     H33004  11.188  -0.041   7.952  1.9298 -0.8282 -0.4869
  964MOL0     H33005  11.132  -0.180   7.868  1.3953 -0.2403  2.2137
  964MOL0     H33006  11.336   0.007   7.757 -1.5701  0.7424 -0.8675
  964MOL0     H33007  11.255  -0.120   7.662  0.9751  0.4558 -0.7368
  964MOL0     H33008  11.323  -0.286   7.836 -1.1646 -0.7258 -1.3770
  964MOL0     H33009  11.429  -0.168   7.918  0.2623  1.7271 -0.9339
  964MOL0     H33010  11.445  -0.275   7.637  1.4503  0.5455 -1.9396
  964MOL0     H33011  11.576  -0.280   7.755  0.4590  1.0641 -0.3444
  964MOL0     H33012  10.489   0.215   7.965 -1.0472 -5.1675  3.3660
  964MOL0     H33013  10.312   0.316   8.114 -1.2155 -0.3956  1.7744
  964MOL0     H33014  10.080   0.625   8.255  3.6658 -1.2563  0.3933
  964MOL0     H33015   9.883   0.731   8.404  0.4906 -1.1389 -2.8915
  964MOL0     H33016  10.149   0.516   9.721  1.9619  0.1942 -0.8802
  964MOL0     H33017  10.374   0.566   9.810 -1.1907  1.3421 -0.8907
  964MOL0     H33018  10.715   0.364  10.025 -1.9740  0.7786 -0.5957
  964MOL0     H33019  10.944   0.335  10.129 -0.4465 -0.9360  0.0810
  964MOL0     H33020  11.043   0.659  10.408  2.3276  2.7438  1.2894
  964MOL0     H33021  11.150   0.534  10.471 -0.5711  3.3068  2.2395
  964MOL0     H33022  11.276   0.728  10.411 -1.0711  3.3944 -2.2897
  964MOL0     H33023  11.208   0.731  10.248 -0.5437  0.4124  0.5834
  964MOL0     H33024  11.379   0.496  10.359 -1.2250  2.6880  3.6013
  964MOL0     H33025  11.327   0.522  10.192  0.6168  0.9173 -0.4336
  964MOL0     H33026  11.458   0.720  10.174  1.2280  0.9250  0.0457
  964MOL0     H33027  11.565   0.571  10.218  0.7452 -0.4139 -1.3749
  964MOL0     H33028  11.573   0.836  10.553  3.5688 -4.7212  1.2233
  964MOL0     H33029  10.899   0.722  10.303 -2.0227  0.5791  0.2801
  964MOL0     H33030  10.654   0.855  10.111 -2.3725 -0.8380  0.3012
  964MOL0     H33031  10.564   0.783  10.238 -1.7244  0.3595 -2.0890
  964MOL0     H33032  10.727   0.852  10.270  2.1318 -1.2845 -0.5860
  965MOL0     O33033   5.642   0.495   8.205  0.0105  0.0636  0.1066
  965MOL0     C33034   5.708   0.529   8.301  0.0507 -0.4841 -0.4169
  965MOL0     O33035   5.663   0.574   8.420 -0.1641  1.3198  0.4169
  965MOL0     C33036   5.525   0.601   8.429  0.4891  0.0308  0.2144
  965MOL0     C33037   5.443   0.506   8.504 -0.0212  0.0430 -0.7225
  965MOL0     C33038   5.313   0.547   8.535  0.5048  0.4071  1.0625
  965MOL0     C33039   5.261   0.667   8.481  0.4753  0.9369 -0.3744
  965MOL0     O33040   5.123   0.687   8.498 -0.5124 -1.0840  0.0308
  965MOL0     C33041   5.063   0.805   8.433 -0.2054  0.2260  0.0679
  965MOL0     C33042   4.947   0.841   8.523  0.0045 -0.4628 -0.2432
  965MOL0     C33043   4.849   0.720   8.544 -0.6054  0.7752  0.2087
  965MOL0     C33044   4.722   0.771   8.614 -0.1513  0.7233  0.9016
  965MOL0     C33045   4.606   0.666   8.625 -0.2777 -0.2658  0.3854
  965MOL0     C33046   4.550   0.602   8.500  0.0104 -0.2193 -0.1750
  965MOL0     C33047   4.473   0.694   8.402 -0.5782 -0.4392  0.5087
  965MOL0     C33048   4.412   0.620   8.286 -0.0533 -0.4721  0.3398
  965MOL0     N33049   4.509   0.645   8.178  0.1194  0.0692  0.3913
  965MOL0     C33050   4.620   0.569   8.166 -1.2100 -0.3242  0.0614
  965MOL0     C33051   4.703   0.634   8.083 -0.3484  0.3907 -0.1552
  965MOL0     C33052   4.830   0.577   8.030 -1.2261  0.2426 -0.3574
  965MOL0     C33053   4.957   0.638   8.088 -0.6135  0.4294  0.4271
  965MOL0     C33054   5.088   0.613   7.998  0.6300 -0.6807  0.4153
  965MOL0     C33055   5.215   0.631   8.072  0.2986  0.6200 -0.2595
  965MOL0     O33056   5.224   0.766   8.116  0.0092 -0.1613  0.7360
  965MOL0     C33057   5.321   0.847   8.060  0.4759  1.2277  0.2598
  965MOL0     C33058   5.461   0.806   8.036 -0.2316  0.3401 -0.5896
  965MOL0     C33059   5.566   0.902   8.010  0.6930  0.0474  0.9265
  965MOL0     C33060   5.713   0.857   8.000 -0.7047 -0.4810  0.2054
  965MOL0     C33061   5.525   1.031   7.971 -0.1424 -0.4581 -0.0246
  965MOL0     C33062   5.621   1.131   7.920  0.4436  0.3578 -0.2141
  965MOL0     O33063   5.735   1.164   7.995  0.5253 -0.1921  0.1164
  965MOL0     C33064   5.855   1.209   7.942  0.4248  0.2381 -0.7135
  965MOL0     C33065   5.945   1.261   8.036 -0.6399 -0.4760 -0.2813
  965MOL0     C33066   6.076   1.304   7.989 -0.8477 -0.2669 -0.5219
  965MOL0     C33067   6.109   1.273   7.854  0.6074  0.0629 -1.3703
  965MOL0     O33068   6.221   1.314   7.794 -0.0219 -0.1999 -0.0649
  965MOL0     C33069   6.300   1.430   7.847  0.0868  1.2058  0.9216
  965MOL0     C33070   6.396   1.460   7.731  0.1831  0.4280 -0.0287
  965MOL0     C33071   6.466   1.595   7.740  0.3900 -0.3295  0.0530
  965MOL0     C33072   6.554   1.613   7.619  0.0405  0.0861 -0.1519
  965MOL0     C33073   6.694   1.558   7.646 -0.9301  0.7932  0.0956
  965MOL0     C33074   6.777   1.576   7.521 -0.0345  0.6038  0.6422
  965MOL0     C33075   6.893   1.485   7.486  0.6620 -1.1402 -0.7794
  965MOL0     C33076   6.848   1.343   7.467  0.2164 -0.2773  0.7401
  965MOL0    Cl33077   6.838   1.262   7.624  0.0099  0.2085 -0.3606
  965MOL0     C33078   6.024   1.205   7.770 -0.3588 -0.7761  0.1031
  965MOL0     C33079   5.890   1.190   7.810  0.0502  0.2220 -0.0354
  965MOL0     O33080   5.598   1.168   7.807 -0.0850  0.2968 -0.9523
  965MOL0     C33081   5.386   1.061   7.970  0.4232  0.1136  0.3326
  965MOL0     C33082   5.288   0.970   8.018  0.0734 -0.5669 -0.0839
  965MOL0     N33083   4.647   0.759   8.064  0.8312  0.3741  0.1739
  965MOL0     N33084   4.537   0.768   8.123  0.4876 -0.1267 -0.0028
  965MOL0     C33085   5.347   0.746   8.402 -0.1309  0.4168  0.6869
  965MOL0     C33086   5.477   0.721   8.375 -0.3169 -0.6839  0.4869
  965MOL0     C33087   5.852   0.526   8.290 -0.2217 -0.1549 -0.6322
  965MOL0     C33088   5.930   0.593   8.388  1.1891 -0.0061  0.0932
  965MOL0     C33089   6.068   0.580   8.394 -0.3265 -0.9332 -0.0256
  965MOL0     C33090   6.139   0.515   8.300 -0.1096 -0.4399 -1.0769
  965MOL0     O33091   6.276   0.517   8.299 -0.2432  0.1486  0.2939
  965MOL0     C33092   6.364   0.567   8.403 -0.0884 -0.3938  0.4565
  965MOL0     C33093   6.370   0.717   8.412  0.1192 -0.1503 -0.2899
  965MOL0     C33094   6.462   0.772   8.523  0.3347 -0.1897  0.7577
  965MOL0     C33095   6.431   0.923   8.555  0.3852  0.6341 -0.7982
  965MOL0     C33096   6.455   1.019   8.441  0.1637  0.2568  0.0250
  965MOL0     C33097   6.484   1.071   8.329  0.2618  0.9473 -0.2613
  965MOL0     C33098   6.068   0.455   8.203 -0.5397  0.2672  0.4296
  965MOL0     C33099   5.926   0.460   8.189 -0.4685  0.4131 -0.0955
  965MOL0     C33100   5.871   0.380   8.066  0.6321  1.1821 -0.2415
  965MOL0     H33101   5.469   0.403   8.526 -1.6680 -0.2646 -0.0685
  965MOL0     H33102   5.245   0.489   8.596  1.4910 -2.0886 -0.0765
  965MOL0     H33103   5.026   0.771   8.336  0.5946 -0.8626  0.1219
  965MOL0     H33104   5.136   0.887   8.426  0.2863 -0.3106 -1.8341
  965MOL0     H33105   4.984   0.886   8.616 -0.4949 -0.4534 -0.0442
  965MOL0     H33106   4.890   0.915   8.467 -0.9255 -1.4702 -0.6654
  965MOL0     H33107   4.818   0.673   8.451 -2.1888 -0.2557  1.2017
  965MOL0     H33108   4.888   0.648   8.616  2.0743  1.8559 -0.0603
  965MOL0     H33109   4.746   0.812   8.712  0.4079  1.8314  0.3210
  965MOL0     H33110   4.683   0.849   8.548  3.2725  0.1194 -2.2221
  965MOL0     H33111   4.526   0.710   8.685  1.8296  2.1339  1.6242
  965MOL0     H33112   4.646   0.587   8.689 -2.5680 -1.8530 -0.0033
  965MOL0     H33113   4.640   0.557   8.456  1.3176  0.3352  1.7929
  965MOL0     H33114   4.482   0.527   8.543 -0.8204  1.0709  0.8135
  965MOL0     H33115   4.540   0.775   8.371  0.1619 -1.3752 -0.4046
  965MOL0     H33116   4.392   0.744   8.456 -1.3219 -2.3979  1.2760
  965MOL0     H33117   4.393   0.515   8.306 -0.7994 -0.3429  0.3547
  965MOL0     H33118   4.314   0.659   8.254  0.7268 -1.5785 -4.0228
  965MOL0     H33119   4.647   0.474   8.211  2.2305 -0.3760 -1.8179
  965MOL0     H33120   4.830   0.595   7.922 -2.4985  0.9652 -0.2581
  965MOL0     H33121   4.835   0.469   8.043 -0.3462  0.1994 -0.9798
  965MOL0     H33122   4.941   0.746   8.097  3.1080  1.3231 -1.8070
  965MOL0     H33123   4.972   0.590   8.186  0.1787 -1.0908 -0.4031
  965MOL0     H33124   5.089   0.511   7.960  2.6927 -0.5386 -0.0259
  965MOL0     H33125   5.096   0.681   7.913 -0.5933  0.2801  1.0299
  965MOL0     H33126   5.199   0.566   8.159 -2.6259  3.0551  1.2241
  965MOL0     H33127   5.303   0.600   8.015  0.7133 -1.3272  1.2844
  965MOL0     H33128   5.492   0.707   8.068 -1.1106  0.4941  0.8056
  965MOL0     H33129   5.741   0.845   7.895 -1.7750 -2.1496  0.0789
  965MOL0     H33130   5.725   0.760   8.050  0.0217  0.1858  1.3713
  965MOL0     H33131   5.778   0.933   8.045 -1.1435 -1.2128  2.1601
  965MOL0     H33132   5.913   1.273   8.139 -2.2143  0.9592 -0.8801
  965MOL0     H33133   6.142   1.349   8.063  0.1047 -0.8785 -0.9694
  965MOL0     H33134   6.228   1.511   7.859  1.2704  2.4974 -0.2864
  965MOL0     H33135   6.351   1.404   7.941  1.0899 -0.8413 -0.1263
  965MOL0     H33136   6.466   1.377   7.741  0.2533  0.1350 -2.4475
  965MOL0     H33137   6.346   1.450   7.634 -0.2519 -0.0282  0.2353
  965MOL0     H33138   6.525   1.603   7.832  0.1180  2.0150  0.0668
  965MOL0     H33139   6.388   1.672   7.742  2.4284  1.8196  0.7974
  965MOL0     H33140   6.557   1.722   7.610  0.1879  0.1207  0.3264
  965MOL0     H33141   6.510   1.567   7.530  2.9486 -0.8526 -1.2321
  965MOL0     H33142   6.739   1.593   7.739 -0.9702 -2.8101  1.6210
  965MOL0     H33143   6.678   1.452   7.669 -0.0642  1.1829  2.7875
  965MOL0     H33144   6.815   1.677   7.508  3.4414 -0.4789  1.3088
  965MOL0     H33145   6.710   1.565   7.435 -0.6409 -1.0888  1.2738
  965MOL0     H33146   6.970   1.488   7.563 -0.7113 -2.5760  0.7367
  965MOL0     H33147   6.926   1.504   7.383 -1.3357 -0.9390 -1.4408
  965MOL0     H33148   6.920   1.293   7.402 -1.9389 -2.2095 -0.2984
  965MOL0     H33149   6.751   1.330   7.418  1.1510 -0.7617 -1.0970
  965MOL0     H33150   6.056   1.180   7.669  1.7104  0.4686  0.3902
  965MOL0     H33151   5.818   1.162   7.734  2.9927 -1.5028 -2.4201
  965MOL0     H33152   5.340   1.155   7.942 -0.6852 -0.1501  1.2021
  965MOL0     H33153   5.183   0.996   8.028  0.6924  1.5356  1.6324
  965MOL0     H33154   5.306   0.835   8.354  1.3301  0.3745 -0.7459
  965MOL0     H33155   5.551   0.775   8.318  0.3424 -0.5494  1.4481
  965MOL0     H33156   5.888   0.662   8.460  2.8600 -1.4018  2.5417
  965MOL0     H33157   6.115   0.640   8.471 -2.1845  0.1664  0.3243
  965MOL0     H33158   6.325   0.520   8.494  1.7605 -1.8958  0.5216
  965MOL0     H33159   6.463   0.526   8.385  0.2235  0.2941  0.5582
  965MOL0     H33160   6.270   0.762   8.416 -0.1911 -0.8058 -0.4458
  965MOL0     H33161   6.417   0.752   8.320  0.7261  0.8734  0.3931
  965MOL0     H33162   6.468   0.704   8.609  2.0117 -1.9671 -0.6763
  965MOL0     H33163   6.559   0.770   8.472 -1.0518 -0.5701 -2.0146
  965MOL0     H33164   6.492   0.954   8.641 -1.6612  3.6268 -0.2544
  965MOL0     H33165   6.327   0.933   8.589  0.6226 -1.0557  0.6123
  965MOL0     H33166   6.495   1.113   8.231  0.5717  1.8679  0.1601
  965MOL0     H33167   6.114   0.390   8.129 -1.0395  0.5552 -0.1491
  965MOL0     H33168   5.860   0.448   7.981  3.1580  1.2706 -0.5851
  965MOL0     H33169   5.932   0.292   8.043  0.7824  1.6255 -1.6371
  965MOL0     H33170   5.771   0.342   8.086 -0.4737  1.7408 -3.9803
  966MOL0     O33171   8.927   8.790   6.832 -0.2412 -0.2365 -0.1687
  966MOL0     C33172   8.842   8.819   6.750 -0.0873  0.8294  0.0799
  966MOL0     O33173   8.852   8.802   6.615  0.2080 -0.1950 -0.5917
  966MOL0     C33174   8.938   8.702   6.575  0.6677  0.4057  0.3735
  966MOL0     C33175   9.030   8.727   6.474  0.1303 -0.7591  1.2919
  966MOL0     C33176   9.112   8.630   6.435 -0.4409 -0.3688  0.0108
  966MOL0     C33177   9.111   8.498   6.475 -0.7866  0.5383 -0.5896
  966MOL0     O33178   9.201   8.406   6.425 -0.2859 -0.3918  0.4016
  966MOL0     C33179   9.329   8.387   6.489 -0.4427 -1.1489 -0.0411
  966MOL0     C33180   9.465   8.424   6.404  0.0477 -0.6846  0.2348
  966MOL0     C33181   9.597   8.398   6.480  1.1552  0.5002  0.1271
  966MOL0     C33182   9.599   8.464   6.618 -1.2562 -0.0570 -0.6093
  966MOL0     C33183   9.708   8.411   6.711 -0.6867  0.0204  1.2512
  966MOL0     C33184   9.843   8.472   6.694 -0.1677 -0.1513 -0.0920
  966MOL0     C33185   9.955   8.408   6.773 -0.3720 -0.1346 -0.3149
  966MOL0     C33186  10.085   8.483   6.762 -0.3347  1.0973  0.8879
  966MOL0     N33187  10.194   8.412   6.830  0.4465  0.0793  0.2049
  966MOL0     C33188  10.270   8.458   6.940 -0.8310 -0.4727  0.1163
  966MOL0     C33189  10.368   8.358   6.957 -0.1610 -0.1972 -0.2321
  966MOL0     C33190  10.484   8.355   7.058  0.5994  0.4987  0.9704
  966MOL0     C33191  10.566   8.479   7.036 -0.2937 -0.5790  0.0402
  966MOL0     C33192  10.603   8.514   6.892 -0.3521  0.3675 -0.1301
  966MOL0     C33193  10.679   8.644   6.865  0.4088 -0.0466 -0.2826
  966MOL0     O33194  10.820   8.613   6.902  0.1257 -0.5452 -0.3158
  966MOL0     C33195  10.883   8.682   7.001  0.0391  0.4484 -0.5326
  966MOL0     C33196  10.981   8.626   7.081 -0.6423  0.0644  0.2880
  966MOL0     C33197  11.047   8.691   7.188 -0.2095  0.8393  0.6610
  966MOL0     C33198  11.166   8.601   7.239 -0.7944 -1.0027 -0.7621
  966MOL0     C33199  11.021   8.829   7.203 -0.2554 -0.5443  0.0050
  966MOL0     C33200  11.086   8.902   7.318  0.0398 -0.3000 -0.3196
  966MOL0     O33201  11.145   8.828   7.414  0.0104 -0.5824  0.0550
  966MOL0     C33202  11.145   8.892   7.536 -0.9783  0.3979  0.3953
  966MOL0     C33203  11.033   8.935   7.600  0.6230  0.0894 -0.6464
  966MOL0     C33204  11.053   8.994   7.730  0.8506 -0.4991  0.6355
  966MOL0     C33205  11.181   9.017   7.787 -1.3437 -0.7920  0.7131
  966MOL0     O33206  11.191   9.057   7.917 -0.6139  0.0751 -1.4422
  966MOL0     C33207  11.182   9.197   7.926 -0.6080  0.1705 -0.4028
  966MOL0     C33208  11.312   9.265   7.872 -0.1737  0.9707 -0.8206
  966MOL0     C33209  11.307   9.414   7.892 -0.4104  0.7320  0.0067
  966MOL0     C33210  11.270   9.462   8.030 -0.6216 -0.5219  0.1302
  966MOL0     C33211  11.272   9.614   8.038  0.2929  0.0186 -0.1886
  966MOL0     C33212  11.191   9.683   7.934 -0.1758 -1.0742  0.3065
  966MOL0     C33213  11.204   9.841   7.955  0.2464 -0.1355  1.3116
  966MOL0     C33214  11.131   9.879   8.081  0.4439  0.0488  0.3031
  966MOL0    Cl33215  10.948   9.841   8.089  0.2219  0.2156  0.2140
  966MOL0     C33216  11.289   8.971   7.712  0.0228  0.5544  0.6163
  966MOL0     C33217  11.274   8.909   7.587  0.2291  0.4707  0.5198
  966MOL0     O33218  11.080   9.023   7.317  0.6647 -0.3229  0.3764
  966MOL0     C33219  10.926   8.892   7.123 -0.1258 -0.4386 -0.0387
  966MOL0     C33220  10.859   8.817   7.030  0.5915  0.2809  0.8124
  966MOL0     N33221  10.350   8.254   6.861  0.5906  0.3414 -0.3191
  966MOL0     N33222  10.241   8.284   6.802  0.5974  0.0154  0.9015
  966MOL0     C33223   9.017   8.465   6.572  0.3252 -0.7737  0.4377
  966MOL0     C33224   8.920   8.567   6.612  0.1657  0.0764  0.8785
  966MOL0     C33225   8.714   8.871   6.807  0.1323  0.7534  0.6877
  966MOL0     C33226   8.606   8.861   6.714 -0.3604 -0.1367  0.4476
  966MOL0     C33227   8.480   8.911   6.747 -0.8988  0.1446  0.6324
  966MOL0     C33228   8.448   8.953   6.867  0.1708  0.2296 -0.5334
  966MOL0     O33229   8.318   8.976   6.901  0.7041 -0.3321  0.2729
  966MOL0     C33230   8.277   9.002   7.036  0.0327 -0.0748  0.3624
  966MOL0     C33231   8.123   8.996   7.026 -0.3755  0.5563 -0.0412
  966MOL0     C33232   8.052   9.084   6.924 -0.0077 -0.9176 -0.3977
  966MOL0     C33233   7.907   9.138   6.970 -0.1571  0.5143 -0.0403
  966MOL0     C33234   7.854   9.242   6.872  0.3145  0.5125 -0.2996
  966MOL0     C33235   7.802   9.328   6.805 -1.4418 -0.3129  0.3009
  966MOL0     C33236   8.555   8.966   6.959 -0.9539 -0.8226  0.0929
  966MOL0     C33237   8.688   8.919   6.931 -0.6725 -0.2838 -0.2381
  966MOL0     C33238   8.794   8.951   7.034  1.3250 -0.1914  0.0562
  966MOL0     H33239   9.029   8.826   6.428  2.5444  0.4737  3.5548
  966MOL0     H33240   9.181   8.655   6.355 -0.0520 -2.0077 -0.1876
  966MOL0     H33241   9.324   8.288   6.534 -1.2932 -0.9673  0.2952
  966MOL0     H33242   9.339   8.452   6.576  1.1208  1.0639 -1.7456
  966MOL0     H33243   9.473   8.364   6.313  2.1061 -0.3275  0.1439
  966MOL0     H33244   9.445   8.530   6.381  0.9016 -0.6749 -0.5135
  966MOL0     H33245   9.599   8.289   6.493  2.7974  0.4545 -0.2228
  966MOL0     H33246   9.685   8.433   6.425  0.3067  2.5750  0.0209
  966MOL0     H33247   9.586   8.572   6.613  0.6409  0.2459  0.3069
  966MOL0     H33248   9.512   8.421   6.670 -0.5866  0.5556  1.0454
  966MOL0     H33249   9.734   8.306   6.691 -0.2995  0.6748 -2.3615
  966MOL0     H33250   9.677   8.415   6.816 -1.1866 -0.4268  1.1273
  966MOL0     H33251   9.876   8.471   6.590 -1.4318 -1.1075 -0.5038
  966MOL0     H33252   9.824   8.574   6.730  0.9322  0.7559 -1.9520
  966MOL0     H33253   9.965   8.301   6.753 -0.8943 -0.6329  1.7675
  966MOL0     H33254   9.926   8.407   6.879  1.4387  0.8983  0.2351
  966MOL0     H33255  10.106   8.478   6.655 -3.3755 -1.2005  0.2795
  966MOL0     H33256  10.061   8.586   6.793 -2.2888  0.1039  3.0562
  966MOL0     H33257  10.246   8.544   7.001  3.2593  2.6413 -2.2004
  966MOL0     H33258  10.538   8.260   7.051 -2.2422 -1.3424  1.7977
  966MOL0     H33259  10.448   8.352   7.161  2.3904 -0.3482  1.6151
  966MOL0     H33260  10.509   8.564   7.073 -2.5501 -1.7317 -0.6267
  966MOL0     H33261  10.658   8.466   7.094  0.0499 -1.7685 -0.7144
  966MOL0     H33262  10.660   8.426   6.860  1.1779 -0.1593  3.5549
  966MOL0     H33263  10.510   8.515   6.835 -1.7982  0.5205  2.1341
  966MOL0     H33264  10.671   8.689   6.766  2.0588  0.8255 -0.0573
  966MOL0     H33265  10.629   8.716   6.931 -2.1146  0.2984 -2.3935
  966MOL0     H33266  11.019   8.532   7.045 -0.3494  0.8364 -1.5162
  966MOL0     H33267  11.231   8.564   7.159 -0.9412 -0.4462 -1.1471
  966MOL0     H33268  11.131   8.515   7.296 -1.2658  1.6790  3.3459
  966MOL0     H33269  11.237   8.655   7.302  0.5318  0.5463 -3.3865
  966MOL0     H33270  10.930   8.915   7.571  0.0589 -1.1536  1.9079
  966MOL0     H33271  10.965   9.029   7.781  0.9589  0.3939  0.2314
  966MOL0     H33272  11.099   9.233   7.865 -0.8591 -0.5851 -0.5096
  966MOL0     H33273  11.162   9.228   8.030 -1.2492  1.9985 -1.0279
  966MOL0     H33274  11.401   9.217   7.913  0.1696  2.1451 -0.1235
  966MOL0     H33275  11.322   9.250   7.764 -1.1480  0.7953 -0.8945
  966MOL0     H33276  11.230   9.442   7.820  0.4540 -1.1297 -1.7726
  966MOL0     H33277  11.401   9.462   7.863  1.6764 -0.8336  3.4515
  966MOL0     H33278  11.339   9.426   8.107  1.1115  2.2436  0.0200
  966MOL0     H33279  11.171   9.423   8.055 -0.0547 -2.8444 -0.9589
  966MOL0     H33280  11.226   9.642   8.133 -0.5209  0.3894 -0.6791
  966MOL0     H33281  11.375   9.651   8.037 -0.0358  0.9795 -1.6677
  966MOL0     H33282  11.090   9.643   7.952 -0.5775 -1.2796 -2.0447
  966MOL0     H33283  11.224   9.661   7.832  2.0718  1.8935  0.2509
  966MOL0     H33284  11.165   9.897   7.870 -0.0760  1.3526  2.3949
  966MOL0     H33285  11.308   9.874   7.957 -0.5224  3.1020 -1.9447
  966MOL0     H33286  11.135   9.986   8.103  1.3177 -0.3363  2.2815
  966MOL0     H33287  11.166   9.831   8.173 -4.0922 -0.4780  2.0372
  966MOL0     H33288  11.391   8.976   7.749  0.0835  1.5089  0.3536
  966MOL0     H33289  11.365   8.890   7.531 -0.1086 -0.3212  0.2135
  966MOL0     H33290  10.885   8.988   7.151  1.8341  0.7569 -0.9984
  966MOL0     H33291  10.786   8.868   6.968  1.0876  0.8437  0.6801
  966MOL0     H33292   8.994   8.368   6.616 -4.9821  0.3294  0.8319
  966MOL0     H33293   8.834   8.538   6.673  0.1787  0.2356  0.9712
  966MOL0     H33294   8.609   8.823   6.612 -0.6179 -5.0487  2.0213
  966MOL0     H33295   8.402   8.912   6.672 -0.3165 -1.3744 -0.0469
  966MOL0     H33296   8.298   8.928   7.113 -2.3467  0.5422  1.7097
  966MOL0     H33297   8.314   9.103   7.057  0.0617 -0.2612  1.2312
  966MOL0     H33298   8.084   9.028   7.123 -1.4996  1.0645 -0.6403
  966MOL0     H33299   8.099   8.893   6.996  1.4882  0.3140 -0.8297
  966MOL0     H33300   8.106   9.176   6.898 -3.5643  1.2506 -0.7049
  966MOL0     H33301   8.036   9.036   6.828  1.0102  0.7296 -1.4506
  966MOL0     H33302   7.924   9.182   7.069  0.4199 -0.1030  0.1483
  966MOL0     H33303   7.831   9.060   6.978 -1.2538  1.5545 -0.1153
  966MOL0     H33304   7.759   9.413   6.757 -1.0759  1.5060  2.9421
  966MOL0     H33305   8.523   9.002   7.057 -0.0598  1.0152 -0.2611
  966MOL0     H33306   8.831   8.865   7.089 -0.2695  0.0568  1.5875
  966MOL0     H33307   8.880   8.994   6.981  0.4082  0.8877 -0.5982
  966MOL0     H33308   8.746   9.022   7.102 -2.1219 -0.9124 -1.4027
  967MOL0     O33309  10.512   4.510   7.068 -0.1934 -0.1106  0.2327
  967MOL0     C33310  10.477   4.411   7.136  0.2137  0.4621  0.4749
  967MOL0     O33311  10.554   4.314   7.191 -0.1575 -0.0806 -0.7452
  967MOL0     C33312  10.696   4.314   7.186  0.0588 -0.2158  0.0346
  967MOL0     C33313  10.767   4.201   7.138 -0.0187 -0.0777 -1.2554
  967MOL0     C33314  10.908   4.195   7.144  0.3282  0.5430 -0.1901
  967MOL0     C33315  10.984   4.293   7.211 -0.3946 -0.6246  0.3156
  967MOL0     O33316  11.120   4.293   7.213 -0.1533 -0.4499 -0.4972
  967MOL0     C33317  11.186   4.172   7.207  0.5761  0.1414  0.1659
  967MOL0     C33318  11.315   4.194   7.291  0.3275  0.4229 -0.0467
  967MOL0     C33319  11.427   4.095   7.262  0.4747  0.1099 -0.0106
  967MOL0     C33320  11.572   4.164   7.261  0.6647 -1.2060 -0.0329
  967MOL0     C33321  11.646   4.160   7.394 -0.9501  1.0755  0.1451
  967MOL0     C33322  11.693   4.014   7.401 -0.4731 -0.5222 -0.1032
  967MOL0     C33323  11.755   3.991   7.535  0.2684  0.3154  0.3932
  967MOL0     C33324  11.775   3.844   7.574 -0.5995  0.1049 -0.0928
  967MOL0     N33325  11.876   3.821   7.684 -0.8274 -0.1910  0.1002
  967MOL0     C33326  11.892   3.889   7.809  0.8596  0.1234  0.6683
  967MOL0     C33327  11.996   3.823   7.860 -0.0119 -0.2099 -0.9441
  967MOL0     C33328  12.062   3.853   8.001  0.4117  0.6127 -0.5951
  967MOL0     C33329  12.167   3.964   7.974  0.5684  0.2766  1.2244
  967MOL0     C33330  12.258   3.987   8.093  0.2378 -0.4546  1.1676
  967MOL0     C33331  12.358   4.100   8.059  0.5163  0.1090  0.5348
  967MOL0     O33332  12.458   4.058   7.956  0.1015  0.3338  0.3515
  967MOL0     C33333  12.580   4.124   7.932 -0.2145 -0.5213 -0.3571
  967MOL0     C33334  12.670   4.046   7.854  0.2911  0.5254  0.2817
  967MOL0     C33335  12.803   4.075   7.847 -0.9818 -0.0894  0.1158
  967MOL0     C33336  12.901   3.986   7.771 -0.3269 -0.2447 -0.9687
  967MOL0     C33337  12.849   4.202   7.905  0.3947  0.1507  0.0584
  967MOL0     C33338  12.990   4.247   7.902  0.2677  0.3591  0.5277
  967MOL0     O33339  13.014   4.368   7.954 -0.0092  0.2157 -0.0248
  967MOL0     C33340  13.131   4.437   7.944 -0.1243  0.6200  0.1117
  967MOL0     C33341  13.113   4.558   7.879 -0.2003 -0.0968 -0.3925
  967MOL0     C33342  13.229   4.637   7.844  0.0055  0.8845 -0.0764
  967MOL0     C33343  13.348   4.591   7.898  0.2516 -0.4200  0.9042
  967MOL0     O33344  13.453   4.667   7.861  0.6038  0.8138 -0.3837
  967MOL0     C33345  13.535   4.718   7.967 -0.2386  1.2190  1.2818
  967MOL0     C33346  13.643   4.819   7.923  0.1670 -0.1422  0.2039
  967MOL0     C33347  13.686   4.921   8.039 -0.2573 -0.0947  0.9290
  967MOL0     C33348  13.696   4.856   8.178 -0.7373 -0.2978  0.4692
  967MOL0     C33349  13.749   4.951   8.288 -0.4414  0.4970  0.1043
  967MOL0     C33350  13.899   4.987   8.270  0.2173  0.0054 -0.1749
  967MOL0     C33351  14.005   4.878   8.299 -0.1131 -0.9918 -0.3885
  967MOL0     C33352  14.140   4.939   8.293  0.0441 -0.6622  0.3607
  967MOL0    Cl33353  14.280   4.821   8.311 -0.2945  0.0607  0.1198
  967MOL0     C33354  13.362   4.476   7.977  0.2221  0.1815  0.1544
  967MOL0     C33355  13.254   4.395   8.002  0.6222 -0.6891  0.3585
  967MOL0     O33356  13.075   4.174   7.849  0.0479 -0.0937 -0.4585
  967MOL0     C33357  12.750   4.283   7.964  0.2893  0.5818  1.2266
  967MOL0     C33358  12.618   4.245   7.978  0.7827  0.6280  0.0499
  967MOL0     N33359  12.033   3.716   7.784 -0.2367  0.7718  1.1561
  967MOL0     N33360  11.966   3.719   7.676  0.1257  0.6037 -0.0266
  967MOL0     C33361  10.913   4.406   7.255  0.3054  0.6286  0.5914
  967MOL0     C33362  10.771   4.419   7.245 -0.3659 -0.5940 -0.1242
  967MOL0     C33363  10.330   4.395   7.178  0.9352  0.5799  0.3994
  967MOL0     C33364  10.296   4.301   7.275 -0.2947 -0.6440 -1.0785
  967MOL0     C33365  10.162   4.284   7.324 -0.5287  0.5225  1.1711
  967MOL0     C33366  10.065   4.365   7.280 -0.5754 -0.6512 -0.6239
  967MOL0     O33367   9.934   4.344   7.327 -0.6442 -0.2604 -0.4337
  967MOL0     C33368   9.824   4.416   7.261  0.0462  0.2947  0.4711
  967MOL0     C33369   9.709   4.383   7.343  0.0732 -0.2318  0.5882
  967MOL0     C33370   9.596   4.472   7.301  0.0779  0.5082  0.5255
  967MOL0     C33371   9.479   4.476   7.398  0.7107 -0.9966  0.8361
  967MOL0     C33372   9.391   4.351   7.369 -0.7214 -0.1618  0.1401
  967MOL0     C33373   9.315   4.258   7.361  0.2657  0.4052  0.8776
  967MOL0     C33374  10.099   4.471   7.191 -0.3120  0.0288  0.4265
  967MOL0     C33375  10.223   4.482   7.136 -0.2315  0.6879 -0.1407
  967MOL0     C33376  10.235   4.595   7.035 -0.0701 -0.4248  0.7556
  967MOL0     H33377  10.707   4.122   7.094 -1.2244 -0.9265  1.7044
  967MOL0     H33378  10.946   4.100   7.109 -1.6301 -1.3234  2.3170
  967MOL0     H33379  11.216   4.140   7.106  1.3681  2.6192 -0.4728
  967MOL0     H33380  11.125   4.092   7.248  0.6665  0.0623  0.1456
  967MOL0     H33381  11.345   4.296   7.265 -0.5936  0.4484 -1.0965
  967MOL0     H33382  11.273   4.190   7.392 -0.6456  1.9023 -0.3638
  967MOL0     H33383  11.424   4.006   7.325 -0.7598 -1.5193 -2.2192
  967MOL0     H33384  11.404   4.052   7.164 -2.2202  2.4373 -0.5335
  967MOL0     H33385  11.645   4.127   7.188  1.0639  0.2287 -0.3759
  967MOL0     H33386  11.562   4.270   7.236 -5.0204 -1.0571  1.4282
  967MOL0     H33387  11.570   4.172   7.472 -0.9155  0.4547  0.2872
  967MOL0     H33388  11.729   4.231   7.402  2.0484 -1.9063 -1.7934
  967MOL0     H33389  11.617   3.939   7.377 -3.7146  1.3107  3.3558
  967MOL0     H33390  11.775   3.988   7.334 -0.9957 -3.5743  0.3110
  967MOL0     H33391  11.693   4.039   7.611  0.1643 -0.9451  1.1314
  967MOL0     H33392  11.858   4.027   7.545  0.9358 -1.4683  0.2665
  967MOL0     H33393  11.683   3.791   7.599 -2.9193  1.8853 -3.8762
  967MOL0     H33394  11.811   3.780   7.493 -0.0971 -1.0494  1.0105
  967MOL0     H33395  11.837   3.977   7.844 -1.8857 -1.8199  1.6489
  967MOL0     H33396  12.121   3.766   8.032  2.0234  1.6129 -0.7853
  967MOL0     H33397  11.987   3.884   8.075  0.5049 -0.6581  0.0673
  967MOL0     H33398  12.226   3.921   7.892 -3.7716 -0.2717 -1.9470
  967MOL0     H33399  12.113   4.054   7.943  1.8246  0.0034 -2.2041
  967MOL0     H33400  12.189   4.009   8.175 -0.2317 -0.3093  0.7385
  967MOL0     H33401  12.319   3.898   8.112  0.6196 -1.0039 -2.0049
  967MOL0     H33402  12.302   4.189   8.031  3.2659  2.6820  2.5442
  967MOL0     H33403  12.403   4.122   8.156  1.0035 -0.6343  0.4907
  967MOL0     H33404  12.641   3.948   7.817  1.5532 -0.1363  0.9689
  967MOL0     H33405  12.961   3.940   7.850 -1.9512  2.0523  1.8084
  967MOL0     H33406  12.956   4.044   7.696 -1.0553 -1.2329 -2.3157
  967MOL0     H33407  12.853   3.900   7.723 -2.0095 -1.2010  2.1235
  967MOL0     H33408  13.021   4.601   7.841  0.1768 -0.2688 -1.5369
  967MOL0     H33409  13.231   4.713   7.767  1.9155  1.0656  0.1040
  967MOL0     H33410  13.473   4.772   8.040 -0.8918  4.5042 -1.4882
  967MOL0     H33411  13.592   4.632   8.005 -1.8190  1.4963  4.6675
  967MOL0     H33412  13.734   4.773   7.884  1.4661  3.5711 -1.6801
  967MOL0     H33413  13.601   4.887   7.847  2.5965  0.7010 -0.4680
  967MOL0     H33414  13.610   5.000   8.036 -0.0530  0.3081  3.6504
  967MOL0     H33415  13.779   4.974   8.013 -0.2238 -1.5942 -2.4675
  967MOL0     H33416  13.754   4.763   8.183 -2.9312 -1.8219 -0.7185
  967MOL0     H33417  13.594   4.831   8.208 -0.6787 -1.7938 -0.4407
  967MOL0     H33418  13.694   5.044   8.270  0.3772  0.3318 -4.5549
  967MOL0     H33419  13.725   4.911   8.387  1.7104 -3.7902 -0.8646
  967MOL0     H33420  13.914   5.065   8.345 -2.5677  1.9561 -1.4782
  967MOL0     H33421  13.897   5.040   8.174 -5.3872  1.9400  0.6335
  967MOL0     H33422  13.999   4.794   8.230 -2.4140  0.1878 -1.7688
  967MOL0     H33423  13.982   4.840   8.399  0.6341  2.3968  1.2114
  967MOL0     H33424  14.150   5.021   8.365  0.3118  0.2385 -0.6619
  967MOL0     H33425  14.158   4.992   8.199  1.6082 -1.4455  0.1867
  967MOL0     H33426  13.452   4.430   8.015  1.6689  2.0481 -0.8533
  967MOL0     H33427  13.254   4.308   8.066 -3.7055  1.9210  4.5638
  967MOL0     H33428  12.773   4.386   7.988  1.3128  0.7578 -0.3404
  967MOL0     H33429  12.540   4.306   8.022  1.0851  1.8066 -0.9919
  967MOL0     H33430  10.972   4.484   7.303 -4.1333  3.5227  1.9529
  967MOL0     H33431  10.718   4.499   7.295  0.4870 -2.0963  3.5081
  967MOL0     H33432  10.372   4.238   7.320 -0.8299  0.7326  1.9844
  967MOL0     H33433  10.133   4.208   7.396 -2.4213 -3.7377 -3.4712
  967MOL0     H33434   9.829   4.525   7.257 -0.1096  0.2750 -0.5710
  967MOL0     H33435   9.802   4.374   7.162  0.0340 -1.9397  1.3688
  967MOL0     H33436   9.736   4.398   7.447  2.1711  1.4332 -0.1229
  967MOL0     H33437   9.674   4.280   7.331 -1.4918  0.1529  1.6034
  967MOL0     H33438   9.635   4.574   7.298  0.8564  0.2968  2.1798
  967MOL0     H33439   9.556   4.443   7.203  0.1155 -0.1867  0.7131
  967MOL0     H33440   9.424   4.570   7.385 -0.1531 -1.6244 -0.1444
  967MOL0     H33441   9.510   4.487   7.502 -2.1027  2.3880  1.5259
  967MOL0     H33442   9.247   4.175   7.358  0.7426  0.0242  0.3248
  967MOL0     H33443  10.021   4.539   7.157  1.9207  2.5381 -0.0123
  967MOL0     H33444  10.138   4.637   7.007 -1.3379 -0.6392  4.2483
  967MOL0     H33445  10.289   4.679   7.079 -2.5689  2.0062 -0.5384
  967MOL0     H33446  10.279   4.570   6.938 -1.2228  1.8792 -0.4302
  968MOL0     O33447  11.138   6.500   5.651 -0.4410  0.8532 -0.0461
  968MOL0     C33448  11.028   6.555   5.644 -0.8343 -0.0472 -0.6500
  968MOL0     O33449  10.982   6.639   5.735 -0.3740 -0.4276 -0.6368
  968MOL0     C33450  11.046   6.648   5.868  0.9153 -0.3185 -0.2589
  968MOL0     C33451  11.091   6.530   5.935 -0.0741 -0.4739 -0.5689
  968MOL0     C33452  11.127   6.546   6.069  0.3604  0.3942  0.8818
  968MOL0     C33453  11.133   6.667   6.134 -0.5191 -0.6784 -0.4505
  968MOL0     O33454  11.174   6.671   6.264 -0.6016  0.1424 -0.3119
  968MOL0     C33455  11.158   6.784   6.347 -0.3897  0.1108 -0.0042
  968MOL0     C33456  11.166   6.745   6.496  0.1225  0.4201 -0.3021
  968MOL0     C33457  11.315   6.718   6.548  0.1514 -0.1486  0.5114
  968MOL0     C33458  11.304   6.660   6.688  0.4984 -0.2743 -0.3401
  968MOL0     C33459  11.437   6.663   6.768  0.3496  0.4030  0.4946
  968MOL0     C33460  11.556   6.596   6.686  0.7613  0.0316 -0.3342
  968MOL0     C33461  11.697   6.594   6.758 -0.1060  0.9506 -0.1784
  968MOL0     C33462  11.798   6.493   6.682  0.2226  0.0081  0.2929
  968MOL0     N33463  11.898   6.563   6.603  0.2254  0.0583  0.3643
  968MOL0     C33464  12.028   6.563   6.608 -0.8203  0.2566  0.4039
  968MOL0     C33465  12.081   6.651   6.521  0.9898  0.7305 -0.1000
  968MOL0     C33466  12.220   6.663   6.472 -0.0608  0.0780  0.3554
  968MOL0     C33467  12.326   6.640   6.579  0.0198 -0.6379 -0.5189
  968MOL0     C33468  12.461   6.690   6.518  0.2699  0.3583  0.1593
  968MOL0     C33469  12.588   6.676   6.596 -0.1684 -0.2632  0.4597
  968MOL0     O33470  12.632   6.552   6.558  0.3463  0.0643 -0.4465
  968MOL0     C33471  12.765   6.526   6.587 -0.0535  0.9412  0.6324
  968MOL0     C33472  12.839   6.486   6.479  0.5688  0.1999 -0.5775
  968MOL0     C33473  12.979   6.475   6.475 -0.4665 -0.5008  0.6710
  968MOL0     C33474  13.042   6.450   6.341 -0.8954  0.4330 -1.1826
  968MOL0     C33475  13.045   6.473   6.604  0.4888 -0.0446  0.2646
  968MOL0     C33476  13.188   6.439   6.612 -0.1584  0.0686 -0.2939
  968MOL0     O33477  13.236   6.364   6.514 -0.6752 -0.0170  1.1756
  968MOL0     C33478  13.370   6.374   6.490 -0.2663 -0.4361  0.6710
  968MOL0     C33479  13.415   6.474   6.399  0.3182  0.2342  0.3840
  968MOL0     C33480  13.542   6.471   6.365 -0.5841 -0.4285 -0.3321
  968MOL0     C33481  13.641   6.386   6.419 -0.0620  0.0503 -0.6685
  968MOL0     O33482  13.773   6.402   6.397 -0.6970  0.6139 -0.3819
  968MOL0     C33483  13.834   6.429   6.274 -0.3238 -0.6555  0.0715
  968MOL0     C33484  13.979   6.388   6.267 -0.9077  1.1918  0.3455
  968MOL0     C33485  14.081   6.415   6.380  0.0376  0.0603 -0.8168
  968MOL0     C33486  14.217   6.341   6.363 -0.1643  0.2101 -1.0483
  968MOL0     C33487  14.326   6.388   6.469 -0.6257 -0.0496  0.3059
  968MOL0     C33488  14.465   6.330   6.414  0.1415 -0.3965 -0.7613
  968MOL0     C33489  14.568   6.373   6.516 -0.7692  0.3879  0.2758
  968MOL0     C33490  14.697   6.297   6.490  0.7537  0.0176  0.2949
  968MOL0    Cl33491  14.856   6.378   6.536  0.2448  0.1912 -0.1051
  968MOL0     C33492  13.595   6.287   6.503  0.8968 -0.2298  0.8854
  968MOL0     C33493  13.454   6.276   6.530 -0.5650 -0.0033 -0.8385
  968MOL0     O33494  13.251   6.473   6.710  0.1750  0.1315  0.3843
  968MOL0     C33495  12.975   6.523   6.714  0.2646 -0.0686 -0.0606
  968MOL0     C33496  12.835   6.547   6.707 -0.7634 -0.0365 -0.2999
  968MOL0     N33497  11.967   6.713   6.466  0.8519  0.4620 -0.9914
  968MOL0     N33498  11.860   6.654   6.505  0.9417 -0.2420 -0.1337
  968MOL0     C33499  11.107   6.778   6.057  0.2424  0.4316  0.4195
  968MOL0     C33500  11.040   6.766   5.938 -0.1170 -0.0811  0.9719
  968MOL0     C33501  10.935   6.523   5.533  0.5034  0.2346 -0.0087
  968MOL0     C33502  10.837   6.624   5.506  1.2865  0.5454  0.2416
  968MOL0     C33503  10.744   6.620   5.399  0.5536  0.5376 -0.0314
  968MOL0     C33504  10.757   6.515   5.306  0.5398 -0.4900  0.2825
  968MOL0     O33505  10.676   6.516   5.198  0.1941 -0.1239  0.2522
  968MOL0     C33506  10.649   6.404   5.111  0.4205  0.3072  0.3545
  968MOL0     C33507  10.757   6.399   5.000  0.1057  0.2338 -0.4196
  968MOL0     C33508  10.753   6.514   4.898 -0.0436 -0.4444 -0.6418
  968MOL0     C33509  10.691   6.481   4.756 -0.0625 -1.1386 -0.4439
  968MOL0     C33510  10.798   6.415   4.682  0.3351 -0.2155  0.8624
  968MOL0     C33511  10.889   6.360   4.620  0.2567 -0.6837 -0.1366
  968MOL0     C33512  10.850   6.413   5.328 -0.0713 -0.0393 -0.1769
  968MOL0     C33513  10.943   6.415   5.441 -0.5563 -0.1974  0.3834
  968MOL0     C33514  11.037   6.299   5.450  0.1741  0.6126  0.5595
  968MOL0     H33515  11.102   6.434   5.885 -0.4232 -0.6677 -0.2743
  968MOL0     H33516  11.157   6.467   6.138  1.4069 -1.0323 -1.0839
  968MOL0     H33517  11.062   6.831   6.325  0.5474  1.4295 -1.4223
  968MOL0     H33518  11.234   6.858   6.321 -0.5034  0.4319  0.5533
  968MOL0     H33519  11.124   6.816   6.568  1.9647  1.6448 -0.3409
  968MOL0     H33520  11.120   6.648   6.514  3.3049 -1.0719  0.6025
  968MOL0     H33521  11.362   6.642   6.485 -0.6133 -0.1259 -0.1067
  968MOL0     H33522  11.367   6.814   6.542 -0.2827  0.1573  1.4148
  968MOL0     H33523  11.232   6.715   6.749  1.7684 -0.5250  1.4710
  968MOL0     H33524  11.271   6.556   6.680  2.7955 -0.8949 -3.6047
  968MOL0     H33525  11.423   6.619   6.867  2.5700 -0.7457  0.3771
  968MOL0     H33526  11.465   6.766   6.791 -2.0257  0.4598  3.7549
  968MOL0     H33527  11.520   6.497   6.656  1.5862  0.2166 -2.0491
  968MOL0     H33528  11.570   6.654   6.594 -0.7901  0.5990 -0.2564
  968MOL0     H33529  11.675   6.563   6.861 -0.8084  1.2451 -0.2302
  968MOL0     H33530  11.740   6.694   6.753 -0.4776  1.0830 -0.9826
  968MOL0     H33531  11.845   6.432   6.759  0.7613 -1.4441 -1.1142
  968MOL0     H33532  11.746   6.419   6.619  1.8064 -0.2931 -0.7084
  968MOL0     H33533  12.098   6.494   6.654  0.5969 -0.0743 -2.0344
  968MOL0     H33534  12.224   6.763   6.428 -3.7645  0.5157  0.6907
  968MOL0     H33535  12.225   6.597   6.386  1.6557 -0.1182  0.5687
  968MOL0     H33536  12.303   6.699   6.668  1.0083 -0.1258 -0.5816
  968MOL0     H33537  12.338   6.535   6.606 -0.4420 -0.4226  0.5622
  968MOL0     H33538  12.479   6.643   6.420 -0.8201 -1.1438  0.6379
  968MOL0     H33539  12.462   6.798   6.498  0.6547  0.1039 -1.3110
  968MOL0     H33540  12.660   6.751   6.563  0.4159  0.0658  2.3671
  968MOL0     H33541  12.587   6.679   6.705 -3.6869  0.0259  0.5309
  968MOL0     H33542  12.794   6.469   6.382 -0.3830 -1.0749  0.0633
  968MOL0     H33543  13.128   6.517   6.335 -0.5931  0.7541  3.2097
  968MOL0     H33544  12.976   6.477   6.258 -1.1225  3.1615 -0.2199
  968MOL0     H33545  13.075   6.346   6.337 -1.0978  0.2126  1.2369
  968MOL0     H33546  13.357   6.553   6.353  1.1470  1.4296  1.3302
  968MOL0     H33547  13.574   6.543   6.290  0.6011  2.4962  2.6953
  968MOL0     H33548  13.771   6.366   6.210 -0.2346  1.5086 -2.3148
  968MOL0     H33549  13.820   6.534   6.245 -0.0743  0.1631  2.6745
  968MOL0     H33550  13.993   6.280   6.273  3.2659  1.6111  1.0638
  968MOL0     H33551  14.017   6.421   6.170 -0.2567 -1.6394 -0.4488
  968MOL0     H33552  14.023   6.400   6.471 -2.3225  3.0049 -1.6714
  968MOL0     H33553  14.115   6.519   6.383 -1.5559  0.5971  2.0644
  968MOL0     H33554  14.248   6.366   6.261 -1.1497  0.8238 -1.2137
  968MOL0     H33555  14.198   6.234   6.374 -0.4791  0.2313 -1.3681
  968MOL0     H33556  14.331   6.498   6.474 -1.7771 -0.0208  1.5129
  968MOL0     H33557  14.313   6.350   6.571 -2.5360 -0.3304 -0.0031
  968MOL0     H33558  14.484   6.378   6.318  1.8732  0.8384  0.1538
  968MOL0     H33559  14.456   6.221   6.403  3.6133 -0.8347 -0.2091
  968MOL0     H33560  14.550   6.346   6.621 -0.2868  2.6728  0.9960
  968MOL0     H33561  14.604   6.476   6.511  2.3303 -0.6270 -0.6320
  968MOL0     H33562  14.711   6.263   6.387 -1.1416  1.5034 -0.5094
  968MOL0     H33563  14.683   6.205   6.547  0.0488 -0.2662 -0.3232
  968MOL0     H33564  13.671   6.215   6.533 -0.2024 -1.3649  1.0632
  968MOL0     H33565  13.408   6.197   6.589  0.8743  0.9861  1.8219
  968MOL0     H33566  13.022   6.524   6.811  2.1980 -2.0818 -0.8845
  968MOL0     H33567  12.781   6.567   6.799  0.4785 -4.0902  1.5427
  968MOL0     H33568  11.120   6.880   6.092 -1.3637 -0.0690  2.7955
  968MOL0     H33569  10.988   6.851   5.896  0.1134  1.2089  3.1620
  968MOL0     H33570  10.825   6.700   5.582 -0.3151  1.6565 -1.0558
  968MOL0     H33571  10.665   6.694   5.386  1.7519  1.8076 -0.2977
  968MOL0     H33572  10.651   6.313   5.172 -0.7214  0.0345  0.0091
  968MOL0     H33573  10.550   6.414   5.066  0.4700 -2.8646 -0.6984
  968MOL0     H33574  10.723   6.312   4.943  3.0258 -1.4736  0.2420
  968MOL0     H33575  10.856   6.395   5.045 -0.1960  1.1291  0.3642
  968MOL0     H33576  10.686   6.592   4.934 -1.1120 -1.7233  0.2647
  968MOL0     H33577  10.855   6.550   4.884  0.2272 -1.5441 -1.6718
  968MOL0     H33578  10.663   6.578   4.713 -0.7303 -0.4784  1.3955
  968MOL0     H33579  10.598   6.424   4.761 -0.1304 -0.9790  0.1637
  968MOL0     H33580  10.973   6.325   4.564  0.0076 -0.7172 -0.4928
  968MOL0     H33581  10.865   6.330   5.260  2.7254  1.1718 -1.1897
  968MOL0     H33582  11.006   6.216   5.387  1.2328  0.0657  0.7440
  968MOL0     H33583  11.140   6.328   5.429  0.4625 -0.6185  0.2216
  968MOL0     H33584  11.031   6.248   5.547 -1.3759 -4.0332 -1.7391
  969MOL0     O33585   2.266  10.946   1.458 -0.6986 -0.3274 -0.1108
  969MOL0     C33586   2.206  11.035   1.521  0.0180 -0.2290 -0.6232
  969MOL0     O33587   2.266  11.151   1.574 -0.3817  0.7853 -1.0319
  969MOL0     C33588   2.406  11.169   1.557  0.0362  0.6673 -0.1351
  969MOL0     C33589   2.460  11.166   1.422  0.0091 -0.4214  0.2993
  969MOL0     C33590   2.600  11.193   1.414 -0.5378 -0.6193  1.2537
  969MOL0     C33591   2.679  11.221   1.517 -0.5273  0.2305 -1.0564
  969MOL0     O33592   2.818  11.222   1.491  0.1093  0.0768 -0.2133
  969MOL0     C33593   2.925  11.190   1.586 -0.0630 -0.1204 -0.3376
  969MOL0     C33594   2.973  11.321   1.654 -0.1280  0.0011 -0.5618
  969MOL0     C33595   3.101  11.283   1.732 -0.1315 -1.1825 -0.6049
  969MOL0     C33596   3.141  11.374   1.850  0.6481  0.3638  0.3798
  969MOL0     C33597   3.161  11.524   1.835 -0.0988  0.3322 -1.2454
  969MOL0     C33598   3.287  11.564   1.765  0.5204  0.2222  0.6593
  969MOL0     C33599   3.286  11.712   1.754  0.2876  0.1731  0.7366
  969MOL0     C33600   3.395  11.760   1.659 -0.0268 -0.5781  0.7031
  969MOL0     N33601   3.510  11.814   1.736 -0.2146  0.0645  0.2503
  969MOL0     C33602   3.593  11.740   1.821  0.4705 -0.4700 -0.5440
  969MOL0     C33603   3.671  11.833   1.879  0.3153  0.6301  0.4077
  969MOL0     C33604   3.789  11.812   1.970 -0.7941 -0.2541  0.0009
  969MOL0     C33605   3.918  11.874   1.919 -0.9140  0.2630 -0.1734
  969MOL0     C33606   4.036  11.849   2.020  0.1143 -0.4325 -0.9108
  969MOL0     C33607   4.154  11.949   2.002 -0.1538  0.1918  0.0665
  969MOL0     O33608   4.214  11.933   1.872 -0.9770 -0.3094  0.0120
  969MOL0     C33609   4.318  11.847   1.861 -0.0272 -0.5663  0.3118
  969MOL0     C33610   4.302  11.721   1.829 -0.5192 -0.7388  0.3077
  969MOL0     C33611   4.425  11.635   1.816 -0.4316 -0.1727  0.0861
  969MOL0     C33612   4.397  11.489   1.791  0.8135 -0.2120  0.2577
  969MOL0     C33613   4.552  11.702   1.835 -0.1070  0.0798 -0.4338
  969MOL0     C33614   4.691  11.635   1.818 -0.1775 -0.7248 -0.4141
  969MOL0     O33615   4.794  11.714   1.797 -0.2149 -0.0345 -0.0902
  969MOL0     C33616   4.922  11.660   1.796  0.3645 -0.5118  0.0076
  969MOL0     C33617   4.968  11.603   1.683 -0.1086 -0.6093  0.1992
  969MOL0     C33618   5.100  11.563   1.665 -0.3147 -1.2145 -0.1666
  969MOL0     C33619   5.192  11.582   1.771  0.0455 -0.7564  0.3086
  969MOL0     O33620   5.319  11.542   1.771  0.2361  0.0448  0.1565
  969MOL0     C33621   5.389  11.498   1.651 -0.0282 -0.6296  0.2283
  969MOL0     C33622   5.535  11.556   1.664  0.1125  0.1055  0.4238
  969MOL0     C33623   5.612  11.530   1.536 -0.6263 -0.5142  0.5998
  969MOL0     C33624   5.627  11.393   1.477 -0.2461  0.0036 -0.4368
  969MOL0     C33625   5.740  11.362   1.377  0.6988 -0.9369 -0.4745
  969MOL0     C33626   5.717  11.232   1.290 -0.6082 -0.3674  0.2151
  969MOL0     C33627   5.824  11.234   1.191 -0.7972  0.1975 -0.8294
  969MOL0     C33628   5.831  11.105   1.098 -0.2433 -0.8903  0.6112
  969MOL0    Cl33629   5.960  11.124   0.975  0.3459 -0.1506 -0.0261
  969MOL0     C33630   5.141  11.638   1.893 -0.3271  0.0599  0.1882
  969MOL0     C33631   5.008  11.676   1.904 -0.3573  0.0613  0.4370
  969MOL0     O33632   4.691  11.510   1.825  0.2221  0.2192 -0.0786
  969MOL0     C33633   4.561  11.834   1.862  0.5434 -0.2815 -0.3102
  969MOL0     C33634   4.445  11.910   1.869  0.2882  0.0254  0.3061
  969MOL0     N33635   3.637  11.958   1.836 -0.4350 -0.2119 -1.1381
  969MOL0     N33636   3.538  11.946   1.757  0.4391 -0.3147  1.0093
  969MOL0     C33637   2.615  11.216   1.648  0.6860  0.6428  0.0240
  969MOL0     C33638   2.479  11.198   1.668  0.2059 -0.0603 -0.9312
  969MOL0     C33639   2.065  11.011   1.550 -0.2263  0.2084  0.0124
  969MOL0     C33640   2.009  11.089   1.650 -0.0530  1.0040  0.7499
  969MOL0     C33641   1.878  11.075   1.690  0.2739  0.0013 -0.6805
  969MOL0     C33642   1.791  10.976   1.638  0.0690 -0.3109  0.3675
  969MOL0     O33643   1.661  10.962   1.695 -0.3928  0.0522  0.7538
  969MOL0     C33644   1.586  10.844   1.649 -0.2840 -0.5475 -0.1299
  969MOL0     C33645   1.465  10.841   1.738  0.4838 -0.0060  0.0297
  969MOL0     C33646   1.489  10.802   1.883 -0.5899  0.3755 -0.3174
  969MOL0     C33647   1.367  10.805   1.989  1.1083 -0.1422  0.1169
  969MOL0     C33648   1.384  10.930   2.073  1.1412  0.1954  0.5000
  969MOL0     C33649   1.393  11.024   2.150 -0.6052  0.1290  0.7400
  969MOL0     C33650   1.850  10.903   1.536  0.0366  0.8032 -0.9793
  969MOL0     C33651   1.979  10.921   1.487 -0.8109  0.0443  0.4729
  969MOL0     C33652   2.014  10.835   1.370  1.0722 -0.8051  0.1687
  969MOL0     H33653   2.402  11.144   1.333 -0.2392  3.9756 -0.8613
  969MOL0     H33654   2.652  11.195   1.319  0.9711 -0.1505  2.0674
  969MOL0     H33655   3.011  11.146   1.535  0.9041 -1.5668  2.3498
  969MOL0     H33656   2.885  11.117   1.656  1.5130 -0.3781  0.3258
  969MOL0     H33657   2.999  11.393   1.576 -0.0705 -1.0458 -1.5366
  969MOL0     H33658   2.904  11.344   1.736 -1.5780 -0.3342 -1.6550
  969MOL0     H33659   3.075  11.184   1.770  2.6201 -1.9088 -0.4136
  969MOL0     H33660   3.187  11.274   1.665 -1.5966 -0.4440 -2.6918
  969MOL0     H33661   3.065  11.359   1.927  2.6848  1.5524  2.7509
  969MOL0     H33662   3.231  11.333   1.896 -0.0618 -2.2697 -0.3913
  969MOL0     H33663   3.147  11.567   1.934  2.3117 -2.9487  0.7096
  969MOL0     H33664   3.069  11.561   1.789 -1.4017 -0.7112  0.4145
  969MOL0     H33665   3.365  11.535   1.836  0.7449  1.6842  1.0330
  969MOL0     H33666   3.288  11.512   1.668 -3.2535  2.5604 -0.8430
  969MOL0     H33667   3.295  11.751   1.856 -2.2444  1.4419  0.5607
  969MOL0     H33668   3.190  11.750   1.717 -1.2818 -3.2738  0.8663
  969MOL0     H33669   3.427  11.678   1.595 -1.4560 -1.5661  1.2178
  969MOL0     H33670   3.350  11.832   1.590 -2.7712 -2.0083  0.8630
  969MOL0     H33671   3.600  11.632   1.831  1.2751 -0.2784  1.3744
  969MOL0     H33672   3.806  11.707   1.996  3.1255  0.4391  1.0223
  969MOL0     H33673   3.769  11.864   2.064  2.3185 -0.0900  0.6951
  969MOL0     H33674   3.947  11.829   1.823 -0.8177 -2.1945  0.9352
  969MOL0     H33675   3.918  11.983   1.911  1.3015  0.2053 -2.3072
  969MOL0     H33676   3.989  11.852   2.118 -2.8465  1.7829 -2.2352
  969MOL0     H33677   4.070  11.747   2.004 -0.7439 -0.5696 -1.9899
  969MOL0     H33678   4.104  12.046   2.002 -0.7844 -0.0432 -2.3391
  969MOL0     H33679   4.226  11.940   2.084  1.2162 -1.2211 -1.2237
  969MOL0     H33680   4.205  11.675   1.812  0.9441 -4.0232  0.1751
  969MOL0     H33681   4.477  11.419   1.766 -1.2203 -2.9060  0.8399
  969MOL0     H33682   4.337  11.494   1.700 -0.7880 -0.5244  1.2572
  969MOL0     H33683   4.334  11.447   1.870 -1.2374 -0.0079 -1.1941
  969MOL0     H33684   4.880  11.587   1.622 -0.1276 -0.2301  0.1244
  969MOL0     H33685   5.125  11.522   1.567 -1.0340 -1.6871 -0.1609
  969MOL0     H33686   5.390  11.391   1.672 -0.9603 -0.5244  0.8652
  969MOL0     H33687   5.328  11.513   1.560 -3.9477 -0.7507  2.5915
  969MOL0     H33688   5.538  11.660   1.700 -1.0942 -0.4498  2.2806
  969MOL0     H33689   5.587  11.501   1.742  0.5067 -1.7002 -1.0456
  969MOL0     H33690   5.713  11.568   1.554 -0.5006 -0.4155 -0.2471
  969MOL0     H33691   5.572  11.584   1.450 -1.1012 -2.8280 -0.7379
  969MOL0     H33692   5.530  11.368   1.434 -0.7195 -1.0785  1.1542
  969MOL0     H33693   5.641  11.319   1.556 -0.9017 -1.5966 -1.7615
  969MOL0     H33694   5.740  11.447   1.308 -1.5495  0.6440  1.3084
  969MOL0     H33695   5.837  11.356   1.427 -0.5509 -2.0038  1.9836
  969MOL0     H33696   5.625  11.236   1.231  0.6267  0.5677 -1.7218
  969MOL0     H33697   5.720  11.145   1.357 -2.0669  0.3001  1.2135
  969MOL0     H33698   5.914  11.239   1.253 -1.2296 -3.1287  0.2758
  969MOL0     H33699   5.812  11.322   1.128 -2.9067 -1.9352 -3.6535
  969MOL0     H33700   5.736  11.070   1.056 -0.9606 -0.3920  1.7512
  969MOL0     H33701   5.868  11.030   1.168  2.7135 -0.2257 -0.1222
  969MOL0     H33702   5.208  11.642   1.979  2.1596  3.1358 -1.6497
  969MOL0     H33703   4.966  11.721   1.994  0.0196  2.9636 -0.7036
  969MOL0     H33704   4.654  11.888   1.878 -1.2097  2.0034  4.0493
  969MOL0     H33705   4.432  12.016   1.890 -3.3222 -0.3545  0.7201
  969MOL0     H33706   2.690  11.219   1.727  0.3886 -2.6592  0.5599
  969MOL0     H33707   2.444  11.211   1.770  3.7894  3.1899  0.1363
  969MOL0     H33708   2.066  11.166   1.700  1.1286  0.9132 -0.4074
  969MOL0     H33709   1.841  11.141   1.767 -2.5319 -2.1395  0.0042
  969MOL0     H33710   1.562  10.857   1.543  0.5066 -0.9452 -0.3619
  969MOL0     H33711   1.630  10.744   1.659  0.6442 -0.3016 -1.5723
  969MOL0     H33712   1.396  10.776   1.684  1.7705 -1.5760  0.2133
  969MOL0     H33713   1.424  10.943   1.743 -0.4421 -0.3274 -0.7567
  969MOL0     H33714   1.533  10.702   1.885  1.5511  1.2755 -0.3049
  969MOL0     H33715   1.578  10.854   1.920  1.1737 -0.7381 -2.7786
  969MOL0     H33716   1.366  10.721   2.059  2.9826 -0.5155 -0.2495
  969MOL0     H33717   1.276  10.810   1.929  0.7596 -1.2437  0.5353
  969MOL0     H33718   1.408  11.117   2.202 -1.7420 -0.0968  1.5104
  969MOL0     H33719   1.784  10.828   1.495  0.1201  0.7629 -1.0385
  969MOL0     H33720   2.055  10.739   1.404  0.8252 -1.8449 -2.2324
  969MOL0     H33721   1.923  10.817   1.312  0.1860  0.0759  1.2429
  969MOL0     H33722   2.076  10.881   1.293 -1.8470  1.4994 -0.9850
  970MOL0     O33723   7.897   5.808   2.296  0.1645 -0.1336 -0.2938
  970MOL0     C33724   7.856   5.767   2.188 -0.2762  0.6554 -0.2012
  970MOL0     O33725   7.887   5.825   2.064  0.3533  0.1005  0.6992
  970MOL0     C33726   7.958   5.936   2.066  1.0375 -0.7306 -0.0064
  970MOL0     C33727   7.903   6.066   2.092  1.3095 -0.6838  0.4315
  970MOL0     C33728   7.987   6.173   2.096  0.2605 -0.4494  0.6843
  970MOL0     C33729   8.127   6.152   2.094  0.0241  0.1582  0.7245
  970MOL0     O33730   8.201   6.257   2.104  0.0696 -0.3042  0.2119
  970MOL0     C33731   8.285   6.293   1.988  0.5091  0.1822 -0.5109
  970MOL0     C33732   8.326   6.437   1.975 -0.4096 -0.2410  0.4006
  970MOL0     C33733   8.204   6.530   1.975 -0.6413 -1.1638 -1.2452
  970MOL0     C33734   8.247   6.690   1.974  0.2813  0.6738 -0.0217
  970MOL0     C33735   8.197   6.762   2.103 -0.3774 -0.4796  0.6813
  970MOL0     C33736   8.264   6.906   2.110  0.4525  0.1534 -1.1143
  970MOL0     C33737   8.201   7.010   2.016  0.2446  0.3779  0.8047
  970MOL0     C33738   8.286   7.133   2.019  0.2073  0.6905 -0.1209
  970MOL0     N33739   8.419   7.109   1.956  0.2328 -0.7408 -0.0758
  970MOL0     C33740   8.455   7.029   1.851 -1.1183 -0.1026 -0.3987
  970MOL0     C33741   8.595   7.038   1.853  0.2139 -0.2566 -0.3671
  970MOL0     C33742   8.685   6.951   1.766  0.5505  0.0665  0.8613
  970MOL0     C33743   8.718   6.808   1.820  0.4444  0.3844  0.0900
  970MOL0     C33744   8.610   6.747   1.917 -0.3638  0.6237 -0.6619
  970MOL0     C33745   8.649   6.607   1.972  0.0545  0.6714 -0.6107
  970MOL0     O33746   8.763   6.617   2.055  0.3222 -0.3236  0.3368
  970MOL0     C33747   8.830   6.502   2.085  0.3117  0.4994  0.0891
  970MOL0     C33748   8.771   6.374   2.071  0.2120  0.0576 -0.5691
  970MOL0     C33749   8.855   6.255   2.081  1.2358 -0.0877  0.2910
  970MOL0     C33750   8.788   6.124   2.035 -0.2653 -0.6471 -0.3766
  970MOL0     C33751   8.989   6.272   2.119 -1.3695 -0.5158 -0.2766
  970MOL0     C33752   9.082   6.156   2.124 -1.0099  0.4848 -0.5979
  970MOL0     O33753   9.214   6.184   2.168  0.5169  0.1795 -0.4613
  970MOL0     C33754   9.311   6.095   2.133 -1.2691  0.1044  0.1727
  970MOL0     C33755   9.310   5.963   2.159  0.4835  1.4751 -0.1970
  970MOL0     C33756   9.410   5.870   2.126 -0.2400  0.0500  0.2151
  970MOL0     C33757   9.512   5.917   2.054  0.1800  0.5818  0.5182
  970MOL0     O33758   9.615   5.836   2.020 -0.7164  0.1906  0.1873
  970MOL0     C33759   9.752   5.885   2.060 -1.0052  0.4484  0.0129
  970MOL0     C33760   9.851   5.771   2.061  0.0745  0.8062  0.3378
  970MOL0     C33761   9.978   5.812   2.133 -0.3642  0.1303 -0.3519
  970MOL0     C33762  10.047   5.928   2.062  0.2658  0.3153  0.2863
  970MOL0     C33763  10.195   5.949   2.066 -0.7451  0.4180 -0.4412
  970MOL0     C33764  10.260   5.943   2.210  0.5490 -0.7111 -0.2500
  970MOL0     C33765  10.387   6.015   2.208 -0.1026 -0.0564  0.0808
  970MOL0     C33766  10.440   6.014   2.345 -1.0467 -0.5913 -0.6677
  970MOL0    Cl33767  10.590   6.113   2.362 -0.1268  0.3422  0.3257
  970MOL0     C33768   9.505   6.046   2.010 -0.2667 -1.5380 -1.3016
  970MOL0     C33769   9.412   6.141   2.046  0.2407  0.0950  0.1093
  970MOL0     O33770   9.053   6.038   2.094 -0.8693  0.0998  0.1654
  970MOL0     C33771   9.038   6.396   2.154  0.8313  0.4864  0.7765
  970MOL0     C33772   8.958   6.511   2.134 -0.5482 -0.1712 -0.4254
  970MOL0     N33773   8.629   7.129   1.956  0.0768 -0.1928  0.3856
  970MOL0     N33774   8.525   7.173   2.011 -0.0728 -0.5038  0.3703
  970MOL0     C33775   8.179   6.025   2.075  0.3133 -1.2880 -0.2212
  970MOL0     C33776   8.094   5.921   2.052 -0.2583  0.1048  0.2322
  970MOL0     C33777   7.759   5.661   2.191  0.2909  0.9156 -0.4770
  970MOL0     C33778   7.766   5.578   2.075  0.5453 -0.1536  0.3239
  970MOL0     C33779   7.668   5.481   2.046 -0.1442  0.6594  0.6663
  970MOL0     C33780   7.576   5.438   2.155  0.1767 -0.2091 -1.0842
  970MOL0     O33781   7.492   5.335   2.141  0.6359 -0.2713  0.4326
  970MOL0     C33782   7.454   5.288   2.003  0.0351 -1.0082  0.1601
  970MOL0     C33783   7.538   5.163   1.970  0.1597  0.2182  0.1609
  970MOL0     C33784   7.543   5.067   2.098  0.1241 -0.0802  0.0487
  970MOL0     C33785   7.575   4.931   2.048  0.4564 -1.0816  0.8774
  970MOL0     C33786   7.450   4.863   2.011 -0.5854  0.0561  0.6765
  970MOL0     C33787   7.360   4.794   1.972 -0.8632 -0.1349  0.1834
  970MOL0     C33788   7.573   5.512   2.275  0.0561  0.2504  0.0559
  970MOL0     C33789   7.660   5.632   2.296  1.1586  0.6546 -0.4169
  970MOL0     C33790   7.666   5.700   2.434 -0.0169 -0.1472 -0.1312
  970MOL0     H33791   7.796   6.075   2.102  0.5113 -2.6180 -3.9372
  970MOL0     H33792   7.941   6.268   2.121 -0.9120 -0.5082 -1.1383
  970MOL0     H33793   8.236   6.266   1.895  0.1183  1.7670 -0.7898
  970MOL0     H33794   8.374   6.231   2.006 -0.5705 -1.2055  0.2536
  970MOL0     H33795   8.396   6.441   2.059  0.9557  0.1075 -0.7281
  970MOL0     H33796   8.392   6.449   1.889  0.0549 -1.5821  0.5498
  970MOL0     H33797   8.140   6.519   1.888 -2.0182 -2.5917 -0.0932
  970MOL0     H33798   8.139   6.508   2.060 -1.2672  1.4849 -0.9530
  970MOL0     H33799   8.356   6.681   1.977  0.3913  2.0664  2.1070
  970MOL0     H33800   8.212   6.725   1.877  1.1490 -1.6403 -1.2440
  970MOL0     H33801   8.227   6.697   2.186 -0.1851  0.1295  1.0955
  970MOL0     H33802   8.089   6.769   2.118  0.0622  0.6113  4.7344
  970MOL0     H33803   8.247   6.938   2.213 -2.0096  2.5482 -2.1334
  970MOL0     H33804   8.371   6.910   2.091  0.1540  4.4509 -3.1253
  970MOL0     H33805   8.102   7.034   2.055 -0.5761  0.1434 -1.0174
  970MOL0     H33806   8.177   6.960   1.921  1.0134 -2.7128  2.1143
  970MOL0     H33807   8.232   7.220   1.979 -0.1400  0.3243 -0.4496
  970MOL0     H33808   8.301   7.154   2.125  0.3052  0.2373 -0.0435
  970MOL0     H33809   8.394   6.960   1.793  0.2837 -1.6770 -0.0617
  970MOL0     H33810   8.779   7.003   1.744  0.6897 -1.3607 -2.5047
  970MOL0     H33811   8.635   6.934   1.670 -1.3141  0.2945  1.7415
  970MOL0     H33812   8.741   6.747   1.732 -2.5376 -2.3249  1.0444
  970MOL0     H33813   8.806   6.820   1.885 -1.8142  0.4314  3.3636
  970MOL0     H33814   8.583   6.817   1.996  0.0578 -0.0910  0.1324
  970MOL0     H33815   8.518   6.735   1.860  1.7136 -1.5482 -3.9652
  970MOL0     H33816   8.572   6.570   2.040  3.1646  0.9826  3.4201
  970MOL0     H33817   8.663   6.533   1.892 -0.3985 -0.0713 -0.0212
  970MOL0     H33818   8.664   6.372   2.058 -0.0082 -3.8776  0.4093
  970MOL0     H33819   8.861   6.085   1.964  0.8982  2.6284 -1.1755
  970MOL0     H33820   8.689   6.142   1.993 -0.9016  2.5872  2.0958
  970MOL0     H33821   8.779   6.057   2.121 -1.2796  0.7574  0.6571
  970MOL0     H33822   9.233   5.913   2.217  0.0174 -1.3620 -2.9878
  970MOL0     H33823   9.401   5.762   2.138 -0.9008 -0.0123 -0.7495
  970MOL0     H33824   9.778   5.967   1.993 -1.2109  0.7237  0.2713
  970MOL0     H33825   9.755   5.933   2.158 -0.5228  0.2419  0.1031
  970MOL0     H33826   9.809   5.684   2.112  0.8101  1.1003  1.5005
  970MOL0     H33827   9.871   5.733   1.960  0.2425 -0.8913  0.9804
  970MOL0     H33828  10.048   5.729   2.144  0.5106  0.9512  0.5964
  970MOL0     H33829   9.952   5.837   2.236  0.7949  2.3307 -0.5213
  970MOL0     H33830  10.001   6.019   2.103  1.0738 -0.1618  2.3828
  970MOL0     H33831  10.011   5.923   1.959 -1.5211  0.3351  0.8728
  970MOL0     H33832  10.241   5.873   2.002 -0.9289  1.0284 -1.3186
  970MOL0     H33833  10.215   6.045   2.017  2.3500  0.1658  0.1320
  970MOL0     H33834  10.254   5.836   2.231 -0.7190 -0.6821 -0.4251
  970MOL0     H33835  10.196   6.003   2.275  0.2591 -1.0087 -0.2630
  970MOL0     H33836  10.363   6.116   2.171 -2.2103 -1.4738 -2.7951
  970MOL0     H33837  10.453   5.961   2.141 -0.3756 -0.0118 -0.2255
  970MOL0     H33838  10.458   5.915   2.388 -1.2567  1.3670  4.6851
  970MOL0     H33839  10.367   6.058   2.413  0.5801 -1.8574  2.0659
  970MOL0     H33840   9.578   6.088   1.940  1.2262 -0.7869  0.6093
  970MOL0     H33841   9.413   6.247   2.023 -2.1606  0.0943 -0.2069
  970MOL0     H33842   9.142   6.401   2.186  2.3005 -0.4218 -3.2810
  970MOL0     H33843   9.000   6.610   2.150 -0.0388 -0.5427  0.6334
  970MOL0     H33844   8.286   6.005   2.078  0.2310 -1.9249 -1.0888
  970MOL0     H33845   8.134   5.820   2.041 -0.3290  0.1667 -0.7408
  970MOL0     H33846   7.847   5.585   2.002  1.4108  0.0182  1.2840
  970MOL0     H33847   7.664   5.419   1.958 -4.8783  0.8518  0.4840
  970MOL0     H33848   7.347   5.265   2.003 -0.2135  0.0767 -0.6691
  970MOL0     H33849   7.466   5.372   1.935 -1.4224  0.2691  1.3895
  970MOL0     H33850   7.641   5.191   1.943 -0.0531  0.8479 -0.0277
  970MOL0     H33851   7.497   5.109   1.884  0.1168  1.4758 -0.6405
  970MOL0     H33852   7.628   5.106   2.155 -1.2556  2.2526  0.6606
  970MOL0     H33853   7.453   5.070   2.159  1.0125  1.1609  1.3881
  970MOL0     H33854   7.627   4.880   2.129  0.5992 -0.9704  0.8555
  970MOL0     H33855   7.640   4.920   1.961 -1.6656 -0.5050 -0.8816
  970MOL0     H33856   7.287   4.740   1.915  0.0349  0.2791 -1.4315
  970MOL0     H33857   7.504   5.477   2.351 -0.2841  0.4718 -0.1493
  970MOL0     H33858   7.592   5.664   2.506  0.9037  2.0758  2.0640
  970MOL0     H33859   7.759   5.669   2.481  1.0792  3.0277  0.0099
  970MOL0     H33860   7.673   5.809   2.438  3.8422 -0.3075  2.8836
  971MOL0     O33861   1.582  11.130   2.391 -0.1213  0.1985 -0.3645
  971MOL0     C33862   1.585  11.238   2.451  0.6234 -0.0454 -0.2411
  971MOL0     O33863   1.659  11.341   2.422 -0.0086 -0.4193  0.1026
  971MOL0     C33864   1.759  11.316   2.333  0.1370 -1.3244 -0.0349
  971MOL0     C33865   1.890  11.303   2.389 -0.1806  0.6084  0.6855
  971MOL0     C33866   2.005  11.283   2.309 -0.1312  0.4383 -0.4553
  971MOL0     C33867   1.995  11.266   2.169  0.1187 -0.1860 -0.2173
  971MOL0     O33868   2.094  11.231   2.079  0.3590 -0.1330 -0.1057
  971MOL0     C33869   2.211  11.167   2.124  0.7713 -0.5594 -0.0537
  971MOL0     C33870   2.310  11.117   2.018  0.9291  0.3005  0.1981
  971MOL0     C33871   2.261  11.023   1.900 -0.6677 -0.9529  0.6418
  971MOL0     C33872   2.212  10.878   1.949  0.5340 -0.8891  0.3307
  971MOL0     C33873   2.140  10.808   1.838 -0.2641  0.1217  0.1139
  971MOL0     C33874   2.228  10.751   1.727 -0.0049 -0.0469  0.6504
  971MOL0     C33875   2.283  10.610   1.753 -0.6541  0.1121 -0.3220
  971MOL0     C33876   2.421  10.567   1.713 -0.4597 -0.8552 -0.8437
  971MOL0     N33877   2.524  10.646   1.787  0.4701 -0.8029  0.2983
  971MOL0     C33878   2.586  10.763   1.747  0.4103 -0.2760 -0.5106
  971MOL0     C33879   2.684  10.779   1.842 -0.3239 -0.5671 -0.4929
  971MOL0     C33880   2.797  10.878   1.825  0.8665 -0.1609 -0.1949
  971MOL0     C33881   2.919  10.836   1.735 -0.3026  0.2621 -0.6150
  971MOL0     C33882   2.992  10.708   1.798 -0.5081 -0.5269 -0.9110
  971MOL0     C33883   3.137  10.707   1.760 -0.7136  0.0860  0.1146
  971MOL0     O33884   3.161  10.727   1.620 -0.0749  0.3071 -0.3995
  971MOL0     C33885   3.296  10.716   1.603 -0.7485 -0.9397 -0.5493
  971MOL0     C33886   3.392  10.816   1.638 -0.0779 -0.6635 -0.2725
  971MOL0     C33887   3.528  10.806   1.618 -0.0517  0.1877  0.2446
  971MOL0     C33888   3.616  10.916   1.674  0.1405  0.5764 -0.1496
  971MOL0     C33889   3.571  10.696   1.538 -0.4383 -0.8436  0.4973
  971MOL0     C33890   3.708  10.677   1.489  0.2759 -0.0336  0.5644
  971MOL0     O33891   3.816  10.715   1.574 -0.2710 -0.5087 -0.0609
  971MOL0     C33892   3.944  10.687   1.531 -0.2490 -1.0658 -0.4218
  971MOL0     C33893   4.040  10.740   1.618  0.2491 -0.2066 -0.8056
  971MOL0     C33894   4.179  10.728   1.591  1.1782 -0.1966  0.0881
  971MOL0     C33895   4.227  10.655   1.483 -0.6572  0.7557 -0.3315
  971MOL0     O33896   4.359  10.659   1.474 -0.3894 -0.3541 -0.4093
  971MOL0     C33897   4.428  10.566   1.389  0.1644 -0.5502  0.0503
  971MOL0     C33898   4.575  10.538   1.431  0.3086 -0.2522  1.1657
  971MOL0     C33899   4.657  10.470   1.314  0.2169 -0.6733  0.6524
  971MOL0     C33900   4.807  10.457   1.352  0.2893  0.5121 -0.4909
  971MOL0     C33901   4.885  10.373   1.241 -0.6576 -0.2936  1.0839
  971MOL0     C33902   5.032  10.375   1.254  0.2199 -1.2293  0.4578
  971MOL0     C33903   5.092  10.312   1.126  0.5806  0.1499 -0.0423
  971MOL0     C33904   5.239  10.306   1.144 -0.2336  0.1887 -0.2094
  971MOL0    Cl33905   5.282  10.195   1.277 -0.2773 -0.0716 -0.3102
  971MOL0     C33906   4.136  10.596   1.404  0.4380  0.0794  0.4408
  971MOL0     C33907   3.994  10.612   1.415 -0.0626 -0.0927 -0.1556
  971MOL0     O33908   3.706  10.645   1.369  0.1441  0.4415  0.7132
  971MOL0     C33909   3.477  10.594   1.505  0.5938 -0.0197  0.0480
  971MOL0     C33910   3.341  10.608   1.533  0.0492  0.5108  0.4690
  971MOL0     N33911   2.682  10.679   1.935  0.0811 -0.4033  0.1957
  971MOL0     N33912   2.590  10.596   1.894  0.4095 -1.1628  0.2773
  971MOL0     C33913   1.863  11.285   2.113 -0.0175 -1.1164  0.3646
  971MOL0     C33914   1.749  11.308   2.194 -0.3022  0.2337  0.5918
  971MOL0     C33915   1.497  11.243   2.566 -0.0135 -0.7258 -0.6420
  971MOL0     C33916   1.458  11.368   2.613  0.1793 -0.3033 -0.1364
  971MOL0     C33917   1.364  11.386   2.712  1.0362 -0.3280 -0.7874
  971MOL0     C33918   1.307  11.276   2.784 -0.3807 -0.4006 -0.8697
  971MOL0     O33919   1.216  11.286   2.883 -0.1212 -0.1057 -0.0834
  971MOL0     C33920   1.083  11.322   2.840 -0.3810  0.0117 -0.1510
  971MOL0     C33921   0.980  11.344   2.944  0.3656  0.4152  0.1358
  971MOL0     C33922   1.024  11.464   3.025 -0.0783  0.8565 -0.3357
  971MOL0     C33923   0.924  11.499   3.140  0.1523  0.3704 -0.5980
  971MOL0     C33924   0.998  11.543   3.258 -0.0760  0.3634  0.3248
  971MOL0     C33925   1.037  11.590   3.367  0.2603 -0.4962 -0.3218
  971MOL0     C33926   1.367  11.152   2.752 -0.9458  0.0409  0.1249
  971MOL0     C33927   1.454  11.138   2.645 -0.6376  0.1961  0.0215
  971MOL0     C33928   1.493  11.000   2.621  0.0262  0.0228  0.0282
  971MOL0     H33929   1.894  11.319   2.497  1.6408 -0.4895  0.8098
  971MOL0     H33930   2.093  11.272   2.372 -0.9531  0.9823  0.8349
  971MOL0     H33931   2.192  11.082   2.190  1.9036 -0.2223  0.7378
  971MOL0     H33932   2.263  11.242   2.184  0.3651  0.5891 -1.0881
  971MOL0     H33933   2.350  11.207   1.970  3.7370  0.3165  2.3058
  971MOL0     H33934   2.393  11.074   2.074 -0.3193 -2.5187  0.0101
  971MOL0     H33935   2.178  11.072   1.847  1.2415 -0.5747 -2.2437
  971MOL0     H33936   2.334  11.008   1.819  0.0808 -0.4004  1.1990
  971MOL0     H33937   2.298  10.818   1.979  1.6515  1.1705  1.5169
  971MOL0     H33938   2.142  10.885   2.033 -1.4339  1.1138 -1.3556
  971MOL0     H33939   2.071  10.879   1.793  0.0332 -1.8908 -3.9358
  971MOL0     H33940   2.071  10.729   1.868  0.5148 -0.4206  0.5289
  971MOL0     H33941   2.176  10.740   1.632  1.1903 -1.1172  0.1015
  971MOL0     H33942   2.311  10.819   1.705 -2.2222  2.1015 -1.8172
  971MOL0     H33943   2.212  10.535   1.717 -1.4567  0.4634  0.4904
  971MOL0     H33944   2.273  10.614   1.862  1.0523  0.4380 -0.1529
  971MOL0     H33945   2.432  10.459   1.728  0.1118 -1.0517 -2.4690
  971MOL0     H33946   2.443  10.578   1.607 -0.5397 -3.1160 -1.1554
  971MOL0     H33947   2.570  10.818   1.655 -3.3905 -0.1696  0.0516
  971MOL0     H33948   2.837  10.911   1.920  0.0363  1.2164 -0.2992
  971MOL0     H33949   2.743  10.960   1.777 -1.8160 -1.7288 -0.0745
  971MOL0     H33950   2.881  10.815   1.635 -3.4383  3.3778 -0.3029
  971MOL0     H33951   2.978  10.925   1.713  0.5199 -0.4461 -1.3487
  971MOL0     H33952   3.007  10.717   1.906  1.9444  0.0321 -1.2204
  971MOL0     H33953   2.941  10.613   1.780  0.6259 -1.1460 -0.9634
  971MOL0     H33954   3.170  10.795   1.815 -3.7155  0.0187  2.2749
  971MOL0     H33955   3.191  10.620   1.798  1.1065  0.8960 -0.5489
  971MOL0     H33956   3.357  10.899   1.700  0.0362 -0.6237 -0.2615
  971MOL0     H33957   3.680  10.881   1.756 -0.6413  0.2765  0.3401
  971MOL0     H33958   3.562  11.001   1.716  1.6945  0.6742  1.8259
  971MOL0     H33959   3.684  10.960   1.601  0.0274  0.9282 -0.0410
  971MOL0     H33960   3.999  10.799   1.699 -1.2674 -0.5780 -1.2655
  971MOL0     H33961   4.249  10.780   1.655  0.8081  0.1941  0.1833
  971MOL0     H33962   4.377  10.470   1.383 -0.4659 -0.1239 -2.1439
  971MOL0     H33963   4.427  10.613   1.290  0.9882  3.2111  1.6271
  971MOL0     H33964   4.614  10.635   1.462 -1.5909  0.9989 -0.1071
  971MOL0     H33965   4.578  10.477   1.521  0.3789  3.4600  3.8921
  971MOL0     H33966   4.644  10.534   1.226  0.4134  3.7522  3.5087
  971MOL0     H33967   4.617  10.373   1.283 -1.8185  0.4265 -0.4208
  971MOL0     H33968   4.806  10.402   1.447  1.2380  2.3055  0.6043
  971MOL0     H33969   4.852  10.556   1.364 -1.3694  1.0619  2.4312
  971MOL0     H33970   4.848  10.270   1.252  0.3046 -1.3187 -3.3121
  971MOL0     H33971   4.856  10.397   1.138  1.4771 -3.1882 -0.3665
  971MOL0     H33972   5.057  10.317   1.344  3.9018 -1.9341 -0.8553
  971MOL0     H33973   5.077  10.475   1.253 -0.4890 -0.8655 -2.4853
  971MOL0     H33974   5.068  10.376   1.041  1.8316  1.2444  0.3913
  971MOL0     H33975   5.059  10.209   1.110  0.2578  0.2181  0.1815
  971MOL0     H33976   5.280  10.406   1.156 -1.0505  0.8354 -2.4156
  971MOL0     H33977   5.279  10.264   1.051 -0.3527  1.5113 -0.8777
  971MOL0     H33978   4.183  10.554   1.316  1.2625  3.0983 -0.7041
  971MOL0     H33979   3.934  10.567   1.337  0.1073 -2.3382  0.9265
  971MOL0     H33980   3.505  10.512   1.439  0.4177  0.3461 -0.4949
  971MOL0     H33981   3.261  10.541   1.503 -0.1770  1.2269 -0.5915
  971MOL0     H33982   1.851  11.304   2.007  0.0619 -1.3097  0.3193
  971MOL0     H33983   1.653  11.317   2.145 -1.5977 -1.3874  2.6531
  971MOL0     H33984   1.478  11.459   2.559 -0.4683  0.9596  1.6566
  971MOL0     H33985   1.345  11.491   2.730  3.7055  0.9943 -4.2915
  971MOL0     H33986   1.089  11.415   2.783 -0.8021 -1.6582 -3.1638
  971MOL0     H33987   1.047  11.247   2.769 -2.3789  1.4561 -0.7320
  971MOL0     H33988   0.969  11.272   3.025 -1.0994  3.8527  3.3019
  971MOL0     H33989   0.884  11.370   2.899  1.2461  3.3294 -0.3072
  971MOL0     H33990   1.126  11.442   3.059  0.0216  0.9207 -0.5965
  971MOL0     H33991   1.034  11.546   2.954  1.4126 -0.2178 -1.4235
  971MOL0     H33992   0.858  11.416   3.167 -0.2917  1.1972  0.9621
  971MOL0     H33993   0.856  11.577   3.106 -0.8882  0.1575  0.9086
  971MOL0     H33994   1.063  11.650   3.452 -0.8701  1.3629 -1.2170
  971MOL0     H33995   1.338  11.067   2.813 -0.5600  0.6346  1.1544
  971MOL0     H33996   1.602  10.989   2.614  0.3946  1.8960  1.9064
  971MOL0     H33997   1.469  10.923   2.694 -0.4761  0.8851  0.7989
  971MOL0     H33998   1.453  10.962   2.526  1.3305  1.7089 -1.2755
  972MOL0     O33999   1.200   8.549  11.372 -0.0580  0.0217 -0.0629
  972MOL0     C34000   1.147   8.503  11.269  0.7631  0.2716  0.4651
  972MOL0     O34001   1.215   8.466  11.147  0.3371  0.0544 -0.6934
  972MOL0     C34002   1.349   8.436  11.170  0.4079 -0.5293 -0.1637
  972MOL0     C34003   1.451   8.522  11.133  0.5493 -0.1786  0.6781
  972MOL0     C34004   1.587   8.499  11.163  0.5768 -0.3762 -0.3324
  972MOL0     C34005   1.610   8.395  11.257  0.4657 -0.2005 -0.3615
  972MOL0     O34006   1.729   8.376  11.316 -0.2871 -0.7029 -1.0003
  972MOL0     C34007   1.765   8.489  11.406 -0.1681 -0.1906 -0.0153
  972MOL0     C34008   1.917   8.528  11.396  0.0448 -0.0481  0.5761
  972MOL0     C34009   1.945   8.629  11.497  0.3391 -0.2033  0.7078
  972MOL0     C34010   2.080   8.696  11.460  0.2347  0.0921  0.0817
  972MOL0     C34011   2.113   8.803  11.566  0.0889  0.1313  0.6087
  972MOL0     C34012   2.243   8.880  11.529 -0.8060  0.0102  0.8377
  972MOL0     C34013   2.287   9.002  11.624 -0.5117  0.1783  0.3396
  972MOL0     C34014   2.308   8.947  11.767 -0.0290  0.0943 -0.1653
  972MOL0     N34015   2.415   8.840  11.774 -0.1229 -0.2511  1.2307
  972MOL0     C34016   2.533   8.838  11.710  0.5099 -0.4930  0.2745
  972MOL0     C34017   2.597   8.724  11.732  0.0712 -0.1201  0.0376
  972MOL0     C34018   2.721   8.666  11.673 -0.1776 -0.1859 -0.8969
  972MOL0     C34019   2.834   8.716  11.764 -0.9500  0.2294 -0.2236
  972MOL0     C34020   2.873   8.604  11.857  0.3978 -0.6266 -0.1488
  972MOL0     C34021   2.993   8.638  11.959  0.1362  0.2664 -0.1637
  972MOL0     O34022   3.094   8.705  11.886 -0.2192  0.4757  0.4677
  972MOL0     C34023   3.223   8.661  11.890  0.0051 -0.0567  0.5944
  972MOL0     C34024   3.260   8.533  11.854 -0.3823 -0.0692 -0.1638
  972MOL0     C34025   3.392   8.503  11.855 -0.3602  0.3596  0.7532
  972MOL0     C34026   3.421   8.372  11.795 -0.3948  0.9572 -0.1948
  972MOL0     C34027   3.496   8.598  11.896 -0.1051 -0.6268  0.3657
  972MOL0     C34028   3.643   8.573  11.900  0.6366  0.6472  0.5955
  972MOL0     O34029   3.723   8.679  11.913  0.3566  0.3352  0.3019
  972MOL0     C34030   3.860   8.671  11.902  0.3525 -0.2267 -0.9111
  972MOL0     C34031   3.944   8.763  11.987  0.9580  0.2500 -0.3789
  972MOL0     C34032   4.076   8.769  11.959  0.4604  0.3080 -0.2047
  972MOL0     C34033   4.143   8.667  11.880  0.2619 -1.1583  0.0687
  972MOL0     O34034   4.279   8.654  11.863  0.1513 -0.5398  0.1762
  972MOL0     C34035   4.350   8.767  11.820 -1.0136 -0.1768 -0.1922
  972MOL0     C34036   4.348   8.778  11.668 -0.4945 -0.5099  0.4758
  972MOL0     C34037   4.207   8.814  11.611  0.1138  0.6742 -0.4903
  972MOL0     C34038   4.204   8.868  11.466 -0.0693  0.3650 -0.1514
  972MOL0     C34039   4.057   8.886  11.432  0.2523  0.0995  0.0323
  972MOL0     C34040   4.021   8.924  11.283 -0.8056 -0.0378 -0.4799
  972MOL0     C34041   3.882   8.988  11.270 -0.8215 -0.2696 -0.5285
  972MOL0     C34042   3.826   8.993  11.127  0.2757  0.2128  0.0781
  972MOL0    Cl34043   3.862   8.845  11.028  0.1288  0.0406 -0.2888
  972MOL0     C34044   4.068   8.580  11.813  0.3357  0.8372 -0.6578
  972MOL0     C34045   3.922   8.581  11.819 -0.3556  0.0211  0.0828
  972MOL0     O34046   3.676   8.456  11.890  0.1715 -0.3452  0.2559
  972MOL0     C34047   3.451   8.730  11.920 -0.8647 -0.5093 -0.3162
  972MOL0     C34048   3.311   8.754  11.929 -1.0355 -0.0253  0.2055
  972MOL0     N34049   2.512   8.654  11.814 -0.3673  0.2760  0.0404
  972MOL0     N34050   2.406   8.722  11.848  0.1321 -0.8577  0.4178
  972MOL0     C34051   1.507   8.305  11.283 -0.4903 -0.1732 -0.0730
  972MOL0     C34052   1.379   8.325  11.248 -0.0084  0.5876  0.3292
  972MOL0     C34053   0.997   8.510  11.269  0.2688 -0.1509  0.2137
  972MOL0     C34054   0.931   8.482  11.148 -0.1624  0.1985 -0.1120
  972MOL0     C34055   0.788   8.482  11.134 -0.6006  0.0124  0.8056
  972MOL0     C34056   0.709   8.511  11.249 -0.1759 -0.1626 -0.5703
  972MOL0     O34057   0.568   8.507  11.255  0.0093  0.0908 -0.8848
  972MOL0     C34058   0.501   8.530  11.133 -0.2470  0.5880 -0.1460
  972MOL0     C34059   0.373   8.578  11.173 -0.7303 -0.2424  0.3165
  972MOL0     C34060   0.293   8.666  11.075  0.5698 -0.4569 -0.8132
  972MOL0     C34061   0.274   8.581  10.940 -0.0947  0.3918 -0.4922
  972MOL0     C34062   0.173   8.651  10.860  0.2263 -1.0725  0.7515
  972MOL0     C34063   0.101   8.726  10.800  0.5337 -0.5987  0.4292
  972MOL0     C34064   0.770   8.535  11.372  0.0261  0.5486  0.8055
  972MOL0     C34065   0.908   8.542  11.386  0.5936 -0.1002 -0.2806
  972MOL0     C34066   0.958   8.553  11.530  0.3036 -0.0580  1.0197
  972MOL0     H34067   1.434   8.609  11.071 -1.7979 -0.1994  1.2101
  972MOL0     H34068   1.674   8.555  11.130  0.2942  0.3616  0.1560
  972MOL0     H34069   1.751   8.454  11.509  0.8760  1.7594  0.8339
  972MOL0     H34070   1.697   8.573  11.390 -0.7696 -0.6513  0.0980
  972MOL0     H34071   1.982   8.440  11.401  1.0754  0.7270  1.0554
  972MOL0     H34072   1.942   8.564  11.296 -0.0262  0.0940  0.6103
  972MOL0     H34073   1.857   8.694  11.505 -0.6737 -1.2986 -1.1681
  972MOL0     H34074   1.956   8.583  11.596 -0.2014 -3.2602 -0.5749
  972MOL0     H34075   2.154   8.616  11.471  0.4180  0.4401  1.6606
  972MOL0     H34076   2.087   8.742  11.361  0.3097 -0.5795 -0.2338
  972MOL0     H34077   2.132   8.757  11.663 -0.4271 -0.3297  0.4913
  972MOL0     H34078   2.027   8.871  11.567 -2.4029 -2.7691 -0.8214
  972MOL0     H34079   2.331   8.814  11.532 -0.9389 -0.1709  0.7523
  972MOL0     H34080   2.229   8.922  11.429 -0.2309 -0.7493  0.4196
  972MOL0     H34081   2.202   9.069  11.611  1.4167  2.8944  1.0182
  972MOL0     H34082   2.371   9.062  11.589 -0.3444 -0.1617  0.1454
  972MOL0     H34083   2.335   9.028  11.836  1.3210  0.5214 -1.1402
  972MOL0     H34084   2.212   8.917  11.809  0.6075 -0.1912  1.1199
  972MOL0     H34085   2.568   8.911  11.638  0.8592 -0.2923  0.6420
  972MOL0     H34086   2.729   8.716  11.575  0.3014 -0.5523 -1.0484
  972MOL0     H34087   2.701   8.559  11.666  0.6206 -0.5102  1.1548
  972MOL0     H34088   2.917   8.754  11.704 -2.4325 -0.6077 -2.9897
  972MOL0     H34089   2.807   8.807  11.817  2.0155  1.0939 -0.0308
  972MOL0     H34090   2.780   8.571  11.905 -0.9364  0.2015 -2.0694
  972MOL0     H34091   2.918   8.517  11.807  1.2330  0.6499 -1.6949
  972MOL0     H34092   2.971   8.713  12.036  1.5374  0.3349  0.1988
  972MOL0     H34093   3.020   8.544  12.008 -0.2069  0.0060 -0.4714
  972MOL0     H34094   3.179   8.464  11.836  0.2047 -0.8614  0.1530
  972MOL0     H34095   3.331   8.315  11.769 -0.8727  1.3707  0.5128
  972MOL0     H34096   3.482   8.304  11.854 -0.5479  0.9955  0.0102
  972MOL0     H34097   3.466   8.385  11.696 -0.6907 -2.2478 -0.8429
  972MOL0     H34098   3.892   8.837  12.047  2.3662  0.3691  0.7300
  972MOL0     H34099   4.132   8.844  12.014 -0.4369  0.3498  0.6956
  972MOL0     H34100   4.326   8.860  11.872  1.7045 -0.0417  1.0092
  972MOL0     H34101   4.456   8.763  11.848 -1.3828  0.1028  1.3613
  972MOL0     H34102   4.426   8.852  11.646  0.3026 -0.3655  3.4708
  972MOL0     H34103   4.376   8.680  11.628 -3.2007 -1.9367  1.8461
  972MOL0     H34104   4.159   8.896  11.664  1.5509  1.2349 -0.0040
  972MOL0     H34105   4.149   8.722  11.624 -1.6066  1.6708 -0.9092
  972MOL0     H34106   4.259   8.811  11.390  0.4163 -1.9842  1.8327
  972MOL0     H34107   4.253   8.966  11.459  0.5552  0.1628  1.1354
  972MOL0     H34108   4.002   8.792  11.436 -3.9741  2.2035 -1.8697
  972MOL0     H34109   4.004   8.949  11.504  0.6193  0.7766 -0.2719
  972MOL0     H34110   4.035   8.828  11.232  2.8422  0.1342 -0.0403
  972MOL0     H34111   4.088   8.997  11.237  1.3244  0.3480  2.9584
  972MOL0     H34112   3.874   9.085  11.321 -2.6172 -0.6093 -0.1245
  972MOL0     H34113   3.825   8.915  11.328  0.2917 -0.9657 -0.2656
  972MOL0     H34114   3.884   9.077  11.088  0.9754  1.1526  2.9027
  972MOL0     H34115   3.718   9.007  11.134  0.1278 -0.9077  0.1696
  972MOL0     H34116   4.113   8.506  11.748  0.2744  0.9110 -0.7848
  972MOL0     H34117   3.861   8.520  11.754 -0.8979 -0.0713  0.6644
  972MOL0     H34118   3.518   8.809  11.952 -1.4609 -0.1707  0.1127
  972MOL0     H34119   3.276   8.852  11.962 -1.7048 -0.7950  1.8813
  972MOL0     H34120   1.517   8.219  11.347  0.9324  0.4651  0.6098
  972MOL0     H34121   1.304   8.254  11.283  1.0071  0.7694  3.0630
  972MOL0     H34122   0.992   8.455  11.062  2.6960  0.5530  1.6901
  972MOL0     H34123   0.741   8.447  11.043 -2.0346  0.9794  1.1436
  972MOL0     H34124   0.552   8.601  11.067  1.2647 -1.1482 -0.9638
  972MOL0     H34125   0.489   8.438  11.075 -1.9856 -0.4335  1.7106
  972MOL0     H34126   0.374   8.636  11.265  0.6144 -0.5804  0.5349
  972MOL0     H34127   0.321   8.492  11.216 -1.3336  0.8407  1.8170
  972MOL0     H34128   0.194   8.680  11.120  1.5548  0.8123  1.0862
  972MOL0     H34129   0.339   8.763  11.058 -1.0421  0.4951  0.0326
  972MOL0     H34130   0.228   8.489  10.976 -0.0749  0.4502 -0.3134
  972MOL0     H34131   0.368   8.565  10.887 -0.0782  0.5774 -0.5207
  972MOL0     H34132   0.041   8.787  10.735  0.5449 -0.5155  0.4961
  972MOL0     H34133   0.708   8.555  11.459  0.8649  0.8692  1.3403
  972MOL0     H34134   0.903   8.486  11.597  0.3218 -0.6587  0.4376
  972MOL0     H34135   1.063   8.537  11.555  0.2538 -0.0829  1.2204
  972MOL0     H34136   0.939   8.657  11.558 -0.1375  0.9903 -2.6349
  973MOL0     O34137   7.610   7.198   3.348 -0.3822 -0.3993  0.1097
  973MOL0     C34138   7.643   7.272   3.441 -0.0580  0.6474 -0.5690
  973MOL0     O34139   7.782   7.284   3.486  0.5165 -0.2616 -0.9395
  973MOL0     C34140   7.889   7.206   3.442 -0.2345 -0.1957 -0.3683
  973MOL0     C34141   7.893   7.123   3.334  0.3112 -0.2406  0.0714
  973MOL0     C34142   8.013   7.073   3.287  0.2138  0.6559 -0.3367
  973MOL0     C34143   8.140   7.095   3.363  0.3574 -0.0179  0.4442
  973MOL0     O34144   8.269   7.059   3.332  0.1218  0.4254 -0.8064
  973MOL0     C34145   8.266   6.950   3.240 -0.2677 -0.2428 -0.2849
  973MOL0     C34146   8.405   6.875   3.234 -0.4369 -0.6066 -0.5232
  973MOL0     C34147   8.447   6.827   3.092  0.3194 -0.7191  0.3151
  973MOL0     C34148   8.499   6.939   3.000 -0.2645  0.0876  0.0420
  973MOL0     C34149   8.653   6.972   3.011 -1.1362 -0.1109 -0.0853
  973MOL0     C34150   8.675   7.089   2.916 -0.5181 -0.2025 -0.0830
  973MOL0     C34151   8.831   7.113   2.898  0.5931 -0.9301 -0.6788
  973MOL0     C34152   8.894   7.191   3.016  1.1088  0.8737 -0.1103
  973MOL0     N34153   8.820   7.312   3.067  0.3579  0.3974  0.2296
  973MOL0     C34154   8.763   7.415   2.987 -0.9507 -0.4639  0.7789
  973MOL0     C34155   8.687   7.491   3.075 -0.6054  0.6867 -0.0364
  973MOL0     C34156   8.603   7.617   3.055 -0.1037  0.7033  0.1174
  973MOL0     C34157   8.467   7.587   2.988 -0.3935 -0.6195 -0.0496
  973MOL0     C34158   8.353   7.536   3.079  0.2159 -0.3202 -0.3563
  973MOL0     C34159   8.346   7.385   3.121 -0.1221  0.2047  0.0889
  973MOL0     O34160   8.278   7.304   3.015  0.3021  0.0619 -0.4588
  973MOL0     C34161   8.139   7.314   3.012 -0.3716  0.7573  0.8621
  973MOL0     C34162   8.078   7.286   2.887  0.3445 -0.2089 -1.5204
  973MOL0     C34163   7.933   7.287   2.871 -1.0910  0.1827  0.0457
  973MOL0     C34164   7.878   7.278   2.724 -0.2370 -0.3531 -0.0893
  973MOL0     C34165   7.852   7.317   2.984  0.5441  0.2909 -0.3170
  973MOL0     C34166   7.699   7.317   2.975 -0.2658 -0.1281 -0.2426
  973MOL0     O34167   7.635   7.213   2.916 -0.3465 -0.3489  0.2521
  973MOL0     C34168   7.503   7.220   2.905  0.2802 -0.4906  0.0500
  973MOL0     C34169   7.416   7.197   3.007  0.8012  0.3874 -0.4456
  973MOL0     C34170   7.275   7.210   2.983  0.1391 -0.5884  0.0123
  973MOL0     C34171   7.223   7.247   2.864  0.1282 -0.2540 -0.0762
  973MOL0     O34172   7.086   7.266   2.847  0.5205  0.0997 -0.0856
  973MOL0     C34173   7.018   7.135   2.861 -0.1574  0.1614 -0.5840
  973MOL0     C34174   6.867   7.147   2.829 -0.4370 -0.6219  0.4975
  973MOL0     C34175   6.799   7.245   2.930  0.8389 -0.6937  0.4937
  973MOL0     C34176   6.647   7.269   2.882  1.2551 -1.2610  0.6049
  973MOL0     C34177   6.573   7.367   2.981 -1.0125  0.5124 -0.5458
  973MOL0     C34178   6.422   7.395   2.929 -0.0803 -0.8750 -0.9548
  973MOL0     C34179   6.332   7.267   2.919  0.0721  0.2636 -0.2944
  973MOL0     C34180   6.182   7.305   2.891  0.5761  0.2915 -0.0273
  973MOL0    Cl34181   6.092   7.159   2.914 -0.2229  0.3087  0.5408
  973MOL0     C34182   7.308   7.259   2.749 -0.6470 -0.3479  0.0531
  973MOL0     C34183   7.455   7.253   2.778 -0.0454  0.0418 -0.5657
  973MOL0     O34184   7.642   7.410   3.029 -0.7500 -0.0836 -0.7610
  973MOL0     C34185   7.916   7.363   3.104  0.6205  0.2502  0.3152
  973MOL0     C34186   8.056   7.358   3.113 -0.1215  0.2588 -0.6103
  973MOL0     N34187   8.688   7.418   3.193 -0.4636  0.0123 -0.5447
  973MOL0     N34188   8.763   7.314   3.192 -1.1056 -0.1638  0.3721
  973MOL0     C34189   8.121   7.162   3.478 -1.2452  0.1829 -0.6079
  973MOL0     C34190   8.005   7.218   3.518  0.0185  0.7020 -0.2879
  973MOL0     C34191   7.537   7.343   3.518  0.4918 -0.0334 -0.3997
  973MOL0     C34192   7.580   7.446   3.612  0.5041 -1.4470 -0.1468
  973MOL0     C34193   7.484   7.532   3.669  0.2745  0.1054 -0.0760
  973MOL0     C34194   7.346   7.511   3.646  0.1817 -0.5258 -1.2630
  973MOL0     O34195   7.261   7.599   3.719  0.0044  0.0853 -0.0600
  973MOL0     C34196   7.123   7.608   3.677 -0.4364  0.2441 -0.1942
  973MOL0     C34197   7.046   7.697   3.789 -0.3612  0.4810  0.3975
  973MOL0     C34198   7.103   7.843   3.787 -0.7456  0.6289  0.1050
  973MOL0     C34199   7.170   7.863   3.920  0.4322  0.1617 -0.2781
  973MOL0     C34200   7.075   7.855   4.033  0.4209  0.2260 -1.1135
  973MOL0     C34201   7.005   7.847   4.137 -0.7164  0.8884  0.0509
  973MOL0     C34202   7.300   7.404   3.576 -0.3367  0.3335 -1.1094
  973MOL0     C34203   7.394   7.316   3.505  0.4581  0.1540 -0.6857
  973MOL0     C34204   7.342   7.195   3.438  0.5853  0.3235 -0.1697
  973MOL0     H34205   7.809   7.113   3.267 -0.8435  2.2363  1.0426
  973MOL0     H34206   8.018   7.014   3.196  1.5651  1.2739 -0.6921
  973MOL0     H34207   8.235   7.004   3.151 -0.9490  2.4230  1.4549
  973MOL0     H34208   8.191   6.873   3.263 -0.1231 -0.1457  0.5597
  973MOL0     H34209   8.483   6.943   3.268 -0.8635  0.9986 -2.5181
  973MOL0     H34210   8.410   6.793   3.306  0.7744  1.7739  2.3220
  973MOL0     H34211   8.520   6.745   3.088  1.3780 -0.1090  3.7012
  973MOL0     H34212   8.357   6.795   3.039  0.8797  0.3400 -1.3661
  973MOL0     H34213   8.491   6.894   2.900  0.9098 -0.1591  0.0389
  973MOL0     H34214   8.441   7.031   3.013 -2.9282 -1.6018  0.9949
  973MOL0     H34215   8.717   6.886   2.987 -0.2014 -0.5530  3.4629
  973MOL0     H34216   8.680   6.988   3.116  1.3408  1.0281 -0.8372
  973MOL0     H34217   8.639   7.064   2.816 -0.6119 -1.5540  0.2722
  973MOL0     H34218   8.615   7.175   2.948 -2.6774 -3.4711  6.3566
  973MOL0     H34219   8.850   7.155   2.798 -0.7919 -2.7766 -1.7634
  973MOL0     H34220   8.879   7.015   2.907  1.1868 -0.4568  2.0231
  973MOL0     H34221   8.889   7.113   3.093 -0.3857 -0.6825 -1.6727
  973MOL0     H34222   9.000   7.204   2.992  1.5460 -3.5564 -1.4638
  973MOL0     H34223   8.795   7.439   2.886  0.5293 -1.9952  0.8361
  973MOL0     H34224   8.656   7.686   2.988 -1.5680  2.1769  0.4103
  973MOL0     H34225   8.584   7.666   3.150  2.0622  3.0060 -0.5158
  973MOL0     H34226   8.427   7.684   2.956  0.3893 -0.1336  0.4110
  973MOL0     H34227   8.480   7.513   2.909  3.0438 -1.2845  0.9568
  973MOL0     H34228   8.369   7.590   3.173  0.7020 -1.1129  0.0273
  973MOL0     H34229   8.255   7.557   3.036 -0.2705 -2.1447 -0.2036
  973MOL0     H34230   8.444   7.339   3.129  0.4991  1.5192  0.3827
  973MOL0     H34231   8.298   7.386   3.220  0.7575  0.9152  0.5256
  973MOL0     H34232   8.153   7.276   2.809  1.5818 -2.9945 -0.1173
  973MOL0     H34233   7.946   7.233   2.651 -0.0707  3.7500 -2.7746
  973MOL0     H34234   7.856   7.378   2.687  0.0826 -0.1802  0.1817
  973MOL0     H34235   7.793   7.209   2.722  0.0525 -1.0582  3.8496
  973MOL0     H34236   7.455   7.180   3.106 -0.9670  2.2512  0.6406
  973MOL0     H34237   7.201   7.204   3.062 -2.0098  3.0760 -1.4265
  973MOL0     H34238   7.070   7.049   2.818 -1.3836 -0.4964 -0.8254
  973MOL0     H34239   7.026   7.117   2.969  1.5800 -0.6848 -0.8124
  973MOL0     H34240   6.861   7.169   2.722  3.4006 -0.4697  0.1717
  973MOL0     H34241   6.831   7.045   2.846 -2.1958  0.0737  1.2242
  973MOL0     H34242   6.845   7.342   2.914 -0.4090 -0.6447 -4.2340
  973MOL0     H34243   6.815   7.220   3.035 -0.7437  2.3007  1.5509
  973MOL0     H34244   6.604   7.169   2.875  0.7949 -1.0291 -0.0046
  973MOL0     H34245   6.637   7.305   2.779 -1.8190  2.7495  2.0021
  973MOL0     H34246   6.569   7.329   3.084 -2.5777 -0.7134 -1.0190
  973MOL0     H34247   6.616   7.468   2.985 -2.5241  1.2157 -1.0364
  973MOL0     H34248   6.415   7.448   2.834 -2.6927  2.1094  0.6872
  973MOL0     H34249   6.377   7.453   3.010 -0.0179  1.7077 -2.6701
  973MOL0     H34250   6.337   7.227   3.021  3.2696  0.7864 -0.1508
  973MOL0     H34251   6.375   7.189   2.856  0.9963 -1.1464  1.9565
  973MOL0     H34252   6.163   7.324   2.785 -1.0566 -3.3041 -0.5334
  973MOL0     H34253   6.135   7.377   2.960 -0.2888 -0.7498  0.4997
  973MOL0     H34254   7.262   7.284   2.654 -2.8526  1.3844  1.5068
  973MOL0     H34255   7.516   7.276   2.691 -0.3497 -1.0081 -1.0790
  973MOL0     H34256   7.846   7.375   3.186  0.4143  0.8345  0.0626
  973MOL0     H34257   8.093   7.389   3.211 -0.0903  1.6494 -1.0346
  973MOL0     H34258   8.211   7.174   3.537 -0.2787  1.6356 -2.2732
  973MOL0     H34259   7.989   7.264   3.616  0.5673 -3.4779  1.9926
  973MOL0     H34260   7.686   7.465   3.620  0.2797  2.5019 -3.2242
  973MOL0     H34261   7.520   7.620   3.721  1.7503  0.3755 -1.4662
  973MOL0     H34262   7.124   7.648   3.576  1.9118  2.8149  0.7159
  973MOL0     H34263   7.072   7.512   3.665 -1.5775  0.9157 -0.9134
  973MOL0     H34264   7.054   7.635   3.879  4.2777 -1.4344 -1.0271
  973MOL0     H34265   6.944   7.689   3.750  0.4176 -2.7627 -1.4142
  973MOL0     H34266   7.174   7.843   3.704  0.1526 -0.6630  0.8414
  973MOL0     H34267   7.029   7.918   3.758  1.7431  2.5238 -1.8940
  973MOL0     H34268   7.215   7.963   3.925 -1.6994  1.2644 -1.5822
  973MOL0     H34269   7.251   7.790   3.927  0.4591  0.2566  0.4270
  973MOL0     H34270   6.937   7.832   4.219  0.4221 -0.3903  0.8049
  973MOL0     H34271   7.194   7.389   3.559 -0.0224  0.5791 -3.7607
  973MOL0     H34272   7.408   7.113   3.464 -0.2581  0.2902  2.0588
  973MOL0     H34273   7.242   7.160   3.463  0.0557  1.3179 -0.8093
  973MOL0     H34274   7.352   7.211   3.330  0.2333 -0.0935 -0.2681
  974MOL0     O34275   5.839   5.001   6.613  0.7702 -0.1022 -0.8333
  974MOL0     C34276   5.845   5.119   6.587  0.4265  0.1391  1.0140
  974MOL0     O34277   5.831   5.169   6.463 -0.0202  0.1520 -0.7892
  974MOL0     C34278   5.699   5.200   6.428  0.3342  0.7361  0.5995
  974MOL0     C34279   5.673   5.255   6.301 -0.6585 -0.2558 -0.2798
  974MOL0     C34280   5.543   5.285   6.256 -0.6037  0.8963  1.1519
  974MOL0     C34281   5.432   5.260   6.338 -0.2295 -0.2167 -0.0126
  974MOL0     O34282   5.308   5.277   6.278 -0.1538  0.2766  0.8131
  974MOL0     C34283   5.197   5.230   6.356  0.4086  0.0842  0.0304
  974MOL0     C34284   5.071   5.292   6.297  0.9349 -0.4084 -0.3951
  974MOL0     C34285   4.998   5.188   6.207 -0.3028 -0.8668  0.1755
  974MOL0     C34286   4.922   5.083   6.277 -0.4009  0.4661 -0.0325
  974MOL0     C34287   4.810   5.002   6.207  0.6756  0.1402 -0.1714
  974MOL0     C34288   4.849   4.930   6.082  0.2619 -0.6152  0.2463
  974MOL0     C34289   4.728   4.844   6.026 -0.0285 -0.2175 -0.1570
  974MOL0     C34290   4.609   4.929   5.981 -0.4972  0.7234  0.0516
  974MOL0     N34291   4.664   4.996   5.864 -0.1663 -1.0802  0.4454
  974MOL0     C34292   4.687   4.943   5.742 -0.5125 -0.9345 -0.3300
  974MOL0     C34293   4.752   5.046   5.669 -0.1140 -0.5285  0.0290
  974MOL0     C34294   4.807   5.047   5.525  0.7719  0.2142 -0.0529
  974MOL0     C34295   4.955   5.070   5.508  0.3706  0.5797 -0.5173
  974MOL0     C34296   5.013   5.044   5.365 -1.0258 -0.1636 -0.9532
  974MOL0     C34297   5.164   5.095   5.356  0.6945  0.1992  0.1346
  974MOL0     O34298   5.178   5.228   5.410  0.4960 -0.0745  1.0345
  974MOL0     C34299   5.294   5.287   5.394 -0.0348 -0.1480  0.4400
  974MOL0     C34300   5.401   5.240   5.320 -0.9004 -0.4576  0.6828
  974MOL0     C34301   5.517   5.314   5.319  0.4447 -0.6080 -0.3397
  974MOL0     C34302   5.628   5.266   5.214 -0.4004  0.4954 -0.1434
  974MOL0     C34303   5.530   5.444   5.385  0.7279  0.1808  0.3881
  974MOL0     C34304   5.647   5.525   5.406 -0.1286 -0.8284 -0.3323
  974MOL0     O34305   5.624   5.657   5.448 -0.4582  0.1727  0.5210
  974MOL0     C34306   5.724   5.712   5.521 -0.1839  0.3594 -0.1198
  974MOL0     C34307   5.786   5.654   5.632 -0.1562  0.7190 -0.6386
  974MOL0     C34308   5.896   5.718   5.684 -0.3915  0.6406  0.4105
  974MOL0     C34309   5.956   5.841   5.639  0.2050 -0.3341  0.2547
  974MOL0     O34310   6.082   5.881   5.687 -0.2243  0.6428 -0.6792
  974MOL0     C34311   6.125   5.812   5.805  0.5389  0.7204  0.3102
  974MOL0     C34312   6.234   5.896   5.871  0.6451 -0.2673  0.4817
  974MOL0     C34313   6.291   5.839   6.001  0.1201  1.1893 -0.1424
  974MOL0     C34314   6.211   5.892   6.129 -0.6918  0.0870 -0.0361
  974MOL0     C34315   6.284   5.858   6.252  0.6064 -0.4587  0.5106
  974MOL0     C34316   6.240   5.731   6.300  0.2422 -0.6131  0.3875
  974MOL0     C34317   6.301   5.672   6.418 -0.8308  0.1503 -0.4658
  974MOL0     C34318   6.278   5.743   6.558  0.6259  0.4594  0.2301
  974MOL0    Cl34319   6.103   5.719   6.589 -0.1583  0.5172  0.4210
  974MOL0     C34320   5.888   5.897   5.535  0.5516 -1.0510  0.3021
  974MOL0     C34321   5.774   5.840   5.483 -0.2603  0.5113 -0.2620
  974MOL0     O34322   5.764   5.480   5.395  0.2873  0.6937 -0.2867
  974MOL0     C34323   5.416   5.482   5.464 -1.1521  0.1302  0.1663
  974MOL0     C34324   5.309   5.410   5.468  0.0679  0.9286  0.6677
  974MOL0     N34325   4.756   5.157   5.755  0.0310 -0.1622  1.3740
  974MOL0     N34326   4.708   5.123   5.867 -0.3404  0.1346  0.4861
  974MOL0     C34327   5.457   5.218   6.467  0.1504 -0.0906  0.0962
  974MOL0     C34328   5.586   5.183   6.509  0.9994 -0.4390  0.8475
  974MOL0     C34329   5.899   5.215   6.693  0.3389 -0.1742  1.0789
  974MOL0     C34330   5.888   5.354   6.661  0.6621  0.4097  0.7790
  974MOL0     C34331   5.935   5.454   6.738 -0.1255 -0.2951 -0.6175
  974MOL0     C34332   5.992   5.421   6.860 -0.3338 -0.3295 -0.1941
  974MOL0     O34333   6.037   5.535   6.934  0.0384  0.1787 -0.4229
  974MOL0     C34334   6.090   5.520   7.064 -0.4239  0.0148  0.3025
  974MOL0     C34335   6.114   5.651   7.131  0.1609 -0.2417 -0.8786
  974MOL0     C34336   6.249   5.728   7.098 -0.6657  0.6001 -0.0592
  974MOL0     C34337   6.274   5.716   6.949  0.2844  0.6164 -0.9302
  974MOL0     C34338   6.378   5.800   6.897 -1.3219 -0.0352  0.7523
  974MOL0     C34339   6.461   5.882   6.853 -0.5113  0.7128  0.8030
  974MOL0     C34340   6.016   5.289   6.893 -0.1734  0.1236  0.1717
  974MOL0     C34341   5.959   5.188   6.810 -0.2993  0.2773 -0.2771
  974MOL0     C34342   5.959   5.050   6.882 -0.0161 -0.7350  0.5135
  974MOL0     H34343   5.758   5.278   6.237 -0.5131  0.7997  0.2657
  974MOL0     H34344   5.527   5.311   6.152  3.2344 -2.6350 -0.6319
  974MOL0     H34345   5.195   5.248   6.464 -2.4181 -1.8752  0.4138
  974MOL0     H34346   5.195   5.121   6.360  0.6832  0.0746  4.0103
  974MOL0     H34347   5.009   5.315   6.384 -1.5033 -3.8000 -1.0301
  974MOL0     H34348   5.095   5.385   6.245  0.7274 -0.6089 -0.8534
  974MOL0     H34349   4.926   5.241   6.144 -0.8495 -1.8586 -0.0529
  974MOL0     H34350   5.076   5.146   6.143  0.8253 -2.5971  2.5538
  974MOL0     H34351   4.995   5.007   6.308 -0.7093  1.3773  3.3741
  974MOL0     H34352   4.883   5.116   6.374  3.9027 -0.3389  2.2332
  974MOL0     H34353   4.727   5.072   6.190  0.9874  1.0711  1.8352
  974MOL0     H34354   4.781   4.926   6.280 -1.2621 -1.0981 -2.1048
  974MOL0     H34355   4.898   5.001   6.015  0.2405  0.4832  1.3502
  974MOL0     H34356   4.926   4.857   6.108  1.0594  0.1398  0.0542
  974MOL0     H34357   4.696   4.781   6.110  0.0413  3.0005  2.4807
  974MOL0     H34358   4.758   4.778   5.944  0.1976  0.4738 -0.6416
  974MOL0     H34359   4.526   4.861   5.965 -0.5714  0.6277  0.7887
  974MOL0     H34360   4.583   4.992   6.067 -1.0817  0.2846  0.1995
  974MOL0     H34361   4.661   4.843   5.709 -0.3303 -1.8185  1.9886
  974MOL0     H34362   4.762   5.131   5.470 -1.6072  0.2216  1.7266
  974MOL0     H34363   4.788   4.951   5.476  0.6514 -1.7865  3.5731
  974MOL0     H34364   4.974   5.177   5.521 -0.6744  0.5788  1.4409
  974MOL0     H34365   5.018   5.007   5.571 -1.3822 -0.2412  0.5145
  974MOL0     H34366   5.010   4.937   5.344 -1.0374 -0.9922  2.6713
  974MOL0     H34367   4.959   5.090   5.282 -1.3765 -2.7424 -2.2666
  974MOL0     H34368   5.228   5.024   5.408  1.5138  1.7461  1.3036
  974MOL0     H34369   5.190   5.093   5.249 -2.9869 -1.8214 -0.8861
  974MOL0     H34370   5.406   5.152   5.258  0.9987  1.4340 -2.0755
  974MOL0     H34371   5.710   5.226   5.275 -0.5119 -0.8338 -0.8471
  974MOL0     H34372   5.669   5.348   5.154  2.2783 -0.7583 -0.1489
  974MOL0     H34373   5.584   5.188   5.152  0.9111 -0.4577  0.0801
  974MOL0     H34374   5.758   5.560   5.679 -1.4097  1.3345 -0.1056
  974MOL0     H34375   5.931   5.660   5.769 -3.1474  0.3701  1.4696
  974MOL0     H34376   6.050   5.799   5.883 -1.0350 -0.4889 -1.3344
  974MOL0     H34377   6.171   5.714   5.787  1.1922  1.0659  0.0691
  974MOL0     H34378   6.311   5.896   5.794  0.8522  2.0453  0.6222
  974MOL0     H34379   6.209   6.001   5.884 -0.0407 -0.2854 -0.5358
  974MOL0     H34380   6.396   5.869   6.006  0.3191  0.6040 -0.6639
  974MOL0     H34381   6.276   5.732   5.989 -1.3207  1.4732 -1.1366
  974MOL0     H34382   6.117   5.837   6.123  0.4706 -2.1359  1.0421
  974MOL0     H34383   6.186   5.997   6.116 -2.0991 -0.1198  0.8021
  974MOL0     H34384   6.391   5.850   6.230  0.0527 -1.0505 -2.4230
  974MOL0     H34385   6.269   5.945   6.317  0.1104 -0.0352 -0.1472
  974MOL0     H34386   6.243   5.661   6.215  0.1438  0.2213 -0.3146
  974MOL0     H34387   6.133   5.736   6.322  0.0847 -3.7100  0.7832
  974MOL0     H34388   6.409   5.660   6.404 -0.9642  0.7142 -2.2438
  974MOL0     H34389   6.253   5.574   6.427  1.5081 -1.1197 -1.0665
  974MOL0     H34390   6.293   5.850   6.541 -0.1866  0.0748 -3.8671
  974MOL0     H34391   6.338   5.701   6.640 -2.0172  0.5853  2.3480
  974MOL0     H34392   5.928   5.987   5.491  0.2720 -1.1054 -0.0734
  974MOL0     H34393   5.720   5.897   5.409 -2.0761  0.7327  1.1702
  974MOL0     H34394   5.427   5.556   5.543 -0.6274 -1.0270  1.2133
  974MOL0     H34395   5.236   5.443   5.541 -0.5177  0.0799  0.4709
  974MOL0     H34396   5.378   5.195   6.537 -1.0158 -1.5397 -1.5981
  974MOL0     H34397   5.607   5.139   6.606 -0.2404 -4.3655 -0.4691
  974MOL0     H34398   5.843   5.380   6.566 -1.4193  3.0811  2.3909
  974MOL0     H34399   5.910   5.558   6.719 -1.0016 -0.5538 -0.9595
  974MOL0     H34400   6.017   5.454   7.111  0.3702 -3.0490 -2.3955
  974MOL0     H34401   6.182   5.462   7.077 -0.7107 -0.1166  1.8735
  974MOL0     H34402   6.099   5.633   7.238 -2.9473 -1.4521 -1.4145
  974MOL0     H34403   6.029   5.708   7.093 -0.6154 -1.9535 -1.7950
  974MOL0     H34404   6.241   5.831   7.133 -0.0117  0.1369  1.5228
  974MOL0     H34405   6.329   5.679   7.154 -0.2082 -0.3969 -1.5141
  974MOL0     H34406   6.176   5.741   6.908 -1.0705  0.5363  2.0083
  974MOL0     H34407   6.302   5.611   6.933 -4.4575 -0.4237 -4.6989
  974MOL0     H34408   6.534   5.950   6.815  2.4771 -0.4716  3.8699
  974MOL0     H34409   6.064   5.255   6.984  0.3668 -0.3718 -0.2882
  974MOL0     H34410   5.858   5.008   6.889 -1.3981  1.6688 -2.4995
  974MOL0     H34411   6.021   4.980   6.826 -0.5438 -1.1048  0.3800
  974MOL0     H34412   6.006   5.057   6.981 -0.6374  1.2412  0.7303
  975MOL0     O34413   8.049   9.229   8.309 -0.2223 -0.5897  0.3395
  975MOL0     C34414   7.999   9.296   8.400 -0.0586  0.2408 -1.3416
  975MOL0     O34415   8.062   9.390   8.483  0.6311 -0.5557  0.1900
  975MOL0     C34416   8.190   9.422   8.466  0.8250  1.0521  0.2536
  975MOL0     C34417   8.220   9.559   8.474 -0.3739 -0.1497 -0.1499
  975MOL0     C34418   8.358   9.603   8.472  0.0326 -0.4720 -0.3534
  975MOL0     C34419   8.455   9.511   8.444 -0.8417  1.2874  0.2532
  975MOL0     O34420   8.592   9.541   8.444  0.1921  0.8718  0.2144
  975MOL0     C34421   8.634   9.669   8.399 -0.5920 -0.3337 -0.1655
  975MOL0     C34422   8.786   9.657   8.344  0.1302  0.8706 -0.1612
  975MOL0     C34423   8.861   9.785   8.375  0.3984  0.1012  0.4237
  975MOL0     C34424   8.996   9.768   8.303 -0.1887  0.2083 -1.0836
  975MOL0     C34425   9.089   9.892   8.326 -0.0982 -0.4076 -0.1243
  975MOL0     C34426   9.228   9.841   8.295 -0.5642 -0.4105  0.1249
  975MOL0     C34427   9.332   9.959   8.327  0.4118 -0.3110  0.3322
  975MOL0     C34428   9.481   9.942   8.291 -0.3421 -0.0565  0.9126
  975MOL0     N34429   9.500   9.976   8.150 -0.1939 -0.8441 -0.2353
  975MOL0     C34430   9.465   9.896   8.040  0.9170 -0.0573 -0.0960
  975MOL0     C34431   9.549   9.914   7.936 -0.1948  0.6182  0.3033
  975MOL0     C34432   9.556   9.861   7.791 -0.2072  0.0837  0.8062
  975MOL0     C34433   9.665   9.759   7.778 -0.2216  0.1190  0.0880
  975MOL0     C34434   9.728   9.735   7.644 -0.2275 -0.3439 -0.1522
  975MOL0     C34435   9.854   9.639   7.650 -0.1201 -0.1237  0.5011
  975MOL0     O34436   9.816   9.504   7.694 -0.4494 -0.4734  0.3930
  975MOL0     C34437   9.918   9.406   7.705 -0.9219 -0.4193 -0.5363
  975MOL0     C34438   9.867   9.296   7.774 -0.3683  0.4700 -0.4805
  975MOL0     C34439   9.954   9.191   7.809 -0.3786  0.4680 -0.6443
  975MOL0     C34440   9.890   9.072   7.876 -0.2415 -0.3609  0.0573
  975MOL0     C34441  10.097   9.198   7.780 -0.8773  0.4446  1.4092
  975MOL0     C34442  10.201   9.087   7.807 -0.2971  0.0193 -0.5744
  975MOL0     O34443  10.329   9.100   7.743 -0.2259 -0.3806  0.5002
  975MOL0     C34444  10.432   9.019   7.775 -0.0392 -0.0489  0.2841
  975MOL0     C34445  10.421   8.877   7.771 -0.2709  0.4708  0.1338
  975MOL0     C34446  10.525   8.808   7.823  0.2728 -0.2428 -0.3420
  975MOL0     C34447  10.639   8.866   7.874  0.2120  0.0278 -0.0705
  975MOL0     O34448  10.751   8.803   7.920 -0.1814 -0.1562 -0.5238
  975MOL0     C34449  10.747   8.667   7.948 -0.0326  1.3461 -0.5986
  975MOL0     C34450  10.863   8.625   8.034 -0.1595  0.7290 -0.6430
  975MOL0     C34451  10.999   8.663   7.973 -0.1730 -0.7071  0.5076
  975MOL0     C34452  11.111   8.572   8.028  0.4989 -0.0782 -0.4345
  975MOL0     C34453  11.254   8.628   8.009 -0.5126 -0.0718 -1.3868
  975MOL0     C34454  11.368   8.537   8.056  0.1570 -0.1836  0.2412
  975MOL0     C34455  11.348   8.381   8.039  0.6937 -0.2554 -0.6050
  975MOL0     C34456  11.477   8.304   8.079 -0.5055  0.2692  0.3230
  975MOL0    Cl34457  11.578   8.305   7.930 -0.0931  0.7404 -0.0360
  975MOL0     C34458  10.654   9.008   7.866  0.4495  0.0838 -0.2100
  975MOL0     C34459  10.546   9.086   7.821  0.5224 -0.1711  0.1244
  975MOL0     O34460  10.169   9.000   7.882  0.4456  0.1381 -1.1167
  975MOL0     C34461  10.141   9.304   7.704  0.2767 -0.3913 -0.5985
  975MOL0     C34462  10.056   9.414   7.665 -0.2295  1.1009 -0.7788
  975MOL0     N34463   9.635  10.007   7.984 -0.6500 -0.1148 -0.5949
  975MOL0     N34464   9.611  10.035   8.106 -0.1190 -0.1597  0.1344
  975MOL0     C34465   8.422   9.378   8.436 -0.4444 -0.3226 -0.5893
  975MOL0     C34466   8.294   9.326   8.447 -0.4136 -1.1332  0.5980
  975MOL0     C34467   7.856   9.271   8.443 -0.4775  0.0777  0.1464
  975MOL0     C34468   7.785   9.372   8.503 -0.4924 -0.1843  0.0086
  975MOL0     C34469   7.649   9.354   8.534 -0.9824  0.5124 -0.1857
  975MOL0     C34470   7.580   9.242   8.502  0.7881 -0.0105  0.2333
  975MOL0     O34471   7.441   9.227   8.524 -0.5186 -0.4711 -0.1410
  975MOL0     C34472   7.402   9.311   8.639  0.6269  0.6643  0.2305
  975MOL0     C34473   7.270   9.261   8.693  0.2480  0.4650  0.2076
  975MOL0     C34474   7.292   9.114   8.748  0.0036  0.6096  0.6097
  975MOL0     C34475   7.177   9.073   8.835  0.0690 -0.0271  0.4321
  975MOL0     C34476   7.193   9.129   8.970 -0.1229 -0.1313 -0.0957
  975MOL0     C34477   7.223   9.181   9.081  0.6874 -0.1237  0.6928
  975MOL0     C34478   7.661   9.132   8.458  0.7886 -0.3335 -0.3051
  975MOL0     C34479   7.797   9.141   8.430  0.0488 -0.2810  0.3435
  975MOL0     C34480   7.869   9.018   8.380  0.8670  0.1610 -0.1567
  975MOL0     H34481   8.145   9.637   8.485  0.3715  0.5713  0.0279
  975MOL0     H34482   8.388   9.703   8.499  1.0639 -0.9219  0.2606
  975MOL0     H34483   8.636   9.749   8.473  1.2987 -0.9490  0.5150
  975MOL0     H34484   8.578   9.693   8.308  0.2801 -2.5223 -1.3610
  975MOL0     H34485   8.829   9.581   8.409  0.8776  1.5799  0.1919
  975MOL0     H34486   8.797   9.614   8.244 -0.2847 -5.7304  2.1675
  975MOL0     H34487   8.821   9.882   8.343 -5.5545 -3.0607 -3.4095
  975MOL0     H34488   8.881   9.786   8.483 -1.7254  0.0945  0.8620
  975MOL0     H34489   9.046   9.680   8.344 -3.2416 -0.6477  1.1488
  975MOL0     H34490   8.981   9.764   8.195 -1.1672 -1.1091 -0.9249
  975MOL0     H34491   9.089   9.926   8.430  1.4964  4.0396 -1.3573
  975MOL0     H34492   9.060   9.979   8.266  0.0418  0.3849  0.9216
  975MOL0     H34493   9.261   9.751   8.348  3.2525  1.7878  1.9550
  975MOL0     H34494   9.237   9.830   8.187  2.0811  0.1147  0.2170
  975MOL0     H34495   9.331   9.963   8.436  0.4957  1.5059  0.2960
  975MOL0     H34496   9.292  10.055   8.293 -4.5370 -1.1265  2.9569
  975MOL0     H34497   9.555  10.003   8.344  4.2512 -1.8649 -2.6799
  975MOL0     H34498   9.507   9.836   8.297 -0.7033 -0.6134 -3.7202
  975MOL0     H34499   9.381   9.828   8.041 -0.7612  1.8937 -1.4027
  975MOL0     H34500   9.571   9.939   7.716  1.0792 -1.3388 -0.4874
  975MOL0     H34501   9.455   9.820   7.781 -0.0997  0.0443 -0.1228
  975MOL0     H34502   9.741   9.798   7.847  0.2641  3.9247 -2.3377
  975MOL0     H34503   9.643   9.656   7.809  2.3044 -0.8142 -0.8927
  975MOL0     H34504   9.647   9.692   7.584 -0.9946  0.9587 -0.0754
  975MOL0     H34505   9.760   9.836   7.617 -2.1208  0.3479  0.0314
  975MOL0     H34506   9.899   9.628   7.551 -1.5956  1.4598 -0.3949
  975MOL0     H34507   9.924   9.684   7.722  1.1466 -0.9857 -0.1534
  975MOL0     H34508   9.760   9.302   7.793  0.0125  1.3128  1.6830
  975MOL0     H34509   9.946   9.054   7.968  2.0394  0.6660 -1.0402
  975MOL0     H34510   9.896   8.985   7.810  3.0205 -0.5423  0.4245
  975MOL0     H34511   9.786   9.088   7.908 -0.6716 -1.8927 -0.5112
  975MOL0     H34512  10.329   8.837   7.731 -0.6027  2.6805 -1.5252
  975MOL0     H34513  10.520   8.700   7.832  0.9306 -0.2433  0.0274
  975MOL0     H34514  10.656   8.647   8.005 -0.5564  1.9904 -1.1863
  975MOL0     H34515  10.747   8.617   7.851  0.6897 -0.6481  0.3816
  975MOL0     H34516  10.855   8.689   8.123 -2.7962 -0.9571  0.4597
  975MOL0     H34517  10.865   8.518   8.058  0.6317  1.3828  2.6810
  975MOL0     H34518  11.021   8.768   7.992 -0.7203  0.3795 -3.8005
  975MOL0     H34519  10.991   8.653   7.864  0.8622  4.3164 -0.2985
  975MOL0     H34520  11.104   8.473   7.981  1.1735  0.5089 -1.8503
  975MOL0     H34521  11.090   8.568   8.135  1.6573 -1.3089 -0.2221
  975MOL0     H34522  11.268   8.645   7.902  3.1631 -0.4636 -1.0826
  975MOL0     H34523  11.263   8.726   8.057  1.8870 -2.0034  2.6452
  975MOL0     H34524  11.372   8.567   8.161  2.2056  0.6552 -0.0361
  975MOL0     H34525  11.450   8.581   7.999 -0.1873  1.9869  1.3199
  975MOL0     H34526  11.313   8.346   7.942 -0.4046 -0.2838 -0.2137
  975MOL0     H34527  11.275   8.355   8.116 -1.7813  1.9571 -2.0294
  975MOL0     H34528  11.449   8.201   8.101 -1.4552  0.4558  0.0550
  975MOL0     H34529  11.538   8.345   8.160  1.0339 -1.0346 -0.1347
  975MOL0     H34530  10.745   9.057   7.898  0.0953 -0.0342  1.0418
  975MOL0     H34531  10.559   9.194   7.822 -0.4501 -0.0431  1.3783
  975MOL0     H34532  10.245   9.315   7.675  1.0379  1.1144  2.3249
  975MOL0     H34533  10.097   9.499   7.611  2.9409  0.5126  0.5023
  975MOL0     H34534   8.493   9.300   8.411  0.3803  0.2148  0.0246
  975MOL0     H34535   8.286   9.218   8.451 -2.1899 -1.0138  1.2163
  975MOL0     H34536   7.837   9.458   8.543  1.5846 -1.3364 -0.0441
  975MOL0     H34537   7.606   9.438   8.588 -0.9311  0.0206  0.6309
  975MOL0     H34538   7.463   9.313   8.730  1.0231  1.5059 -0.0464
  975MOL0     H34539   7.385   9.410   8.597  0.8929 -0.0082 -1.5372
  975MOL0     H34540   7.192   9.246   8.618 -2.0587  1.2462  2.3341
  975MOL0     H34541   7.226   9.324   8.770 -1.1070 -3.2035  2.7308
  975MOL0     H34542   7.305   9.052   8.659  3.3174  1.5514  0.2730
  975MOL0     H34543   7.387   9.114   8.803 -0.3945  1.1692  1.3179
  975MOL0     H34544   7.188   8.964   8.847  0.3800 -0.2351 -1.4815
  975MOL0     H34545   7.077   9.096   8.796  0.2847 -0.1825 -0.2303
  975MOL0     H34546   7.233   9.210   9.183 -0.7610 -1.0427  1.1205
  975MOL0     H34547   7.609   9.040   8.435 -1.9935  1.8103 -3.6782
  975MOL0     H34548   7.888   9.019   8.273  1.2676 -0.8342 -0.1065
  975MOL0     H34549   7.962   9.002   8.436 -1.4331 -0.5222  3.9230
  975MOL0     H34550   7.807   8.931   8.403 -0.7005  1.8440  2.5534
  976MOL0     O34551   0.638   2.106   2.389  0.1751 -0.2882  0.4077
  976MOL0     C34552   0.554   2.091   2.474  0.0246 -0.8745 -0.0580
  976MOL0     O34553   0.421   2.127   2.464  0.2664  0.0756 -0.1569
  976MOL0     C34554   0.370   2.165   2.340  0.0106  0.2954  0.9727
  976MOL0     C34555   0.268   2.259   2.350  0.0351  0.7457  0.1707
  976MOL0     C34556   0.204   2.314   2.236 -0.2422 -0.3170 -0.1119
  976MOL0     C34557   0.249   2.284   2.112  0.3703  1.3338  0.3880
  976MOL0     O34558   0.193   2.339   2.003 -0.1800 -0.2494 -0.2518
  976MOL0     C34559   0.129   2.240   1.919 -0.2831 -0.3505  0.1301
  976MOL0     C34560   0.072   2.312   1.795 -0.4103  0.0246 -0.2336
  976MOL0     C34561   0.000   2.452   1.820 -0.2422  0.3227  0.6595
  976MOL0     C34562  -0.074   2.489   1.678  0.5579  0.3734  0.4243
  976MOL0     C34563  -0.156   2.610   1.701  2.2088  0.4902  0.0055
  976MOL0     C34564  -0.096   2.750   1.734 -0.3001 -0.3534 -0.0783
  976MOL0     C34565  -0.196   2.870   1.719 -0.1957  0.0456  0.2667
  976MOL0     C34566  -0.154   3.002   1.793 -0.4433  0.1941 -0.0807
  976MOL0     N34567  -0.030   3.064   1.743 -0.0200 -0.2738 -0.1463
  976MOL0     C34568   0.018   3.192   1.761  0.1161 -0.2413  0.5469
  976MOL0     C34569   0.136   3.204   1.698  0.5285  0.0821  0.5773
  976MOL0     C34570   0.230   3.318   1.705  0.5371  0.4066 -0.0934
  976MOL0     C34571   0.192   3.431   1.614  0.2811 -0.2403 -0.4475
  976MOL0     C34572   0.200   3.394   1.461 -0.2135 -0.0323  0.4408
  976MOL0     C34573   0.119   3.497   1.376 -0.5653  0.5393 -0.4292
  976MOL0     O34574   0.189   3.532   1.253 -0.3530  0.1865 -1.2020
  976MOL0     C34575   0.271   3.649   1.247  0.2133 -0.2123  0.1065
  976MOL0     C34576   0.279   3.719   1.125  0.1557 -0.2675  0.4903
  976MOL0     C34577   0.362   3.830   1.102 -0.1347 -0.0224 -0.2774
  976MOL0     C34578   0.364   3.887   0.963 -0.5984  0.1793  0.1441
  976MOL0     C34579   0.429   3.887   1.217  0.4486 -0.5194 -1.1340
  976MOL0     C34580   0.502   4.016   1.219 -0.8396 -0.2455  0.0630
  976MOL0     O34581   0.580   4.042   1.331 -0.2429  0.2599 -0.3808
  976MOL0     C34582   0.655   4.150   1.334  0.7530  0.8283  0.3448
  976MOL0     C34583   0.765   4.164   1.259 -0.1879  0.3906  0.0188
  976MOL0     C34584   0.843   4.276   1.274 -0.5517 -0.4383 -0.2001
  976MOL0     C34585   0.804   4.375   1.367 -0.5032  0.3200  0.5196
  976MOL0     O34586   0.892   4.474   1.385 -0.4958 -0.6945 -0.0381
  976MOL0     C34587   0.832   4.593   1.444  0.2922  1.0843 -0.3591
  976MOL0     C34588   0.938   4.696   1.451 -0.0746  0.0384 -1.1538
  976MOL0     C34589   1.048   4.672   1.572 -0.1735  0.0057  0.0276
  976MOL0     C34590   1.125   4.798   1.583 -0.2917 -1.0937 -0.1701
  976MOL0     C34591   1.254   4.776   1.661 -0.2602  0.3031 -0.0255
  976MOL0     C34592   1.226   4.784   1.820 -0.7940  1.2892  0.3343
  976MOL0     C34593   1.354   4.750   1.886  0.1015  0.5519 -0.3928
  976MOL0     C34594   1.403   4.609   1.878  0.4973  0.3060 -0.5332
  976MOL0    Cl34595   1.562   4.600   1.958 -0.4881 -0.3288 -0.3193
  976MOL0     C34596   0.680   4.356   1.440  0.2228 -0.6626  0.3526
  976MOL0     C34597   0.608   4.243   1.420  0.1979 -0.3002 -0.2287
  976MOL0     O34598   0.489   4.092   1.125 -0.0919 -0.2790 -0.1846
  976MOL0     C34599   0.411   3.823   1.340  0.3183 -0.0495 -0.0035
  976MOL0     C34600   0.339   3.709   1.356  0.1135  0.3582  0.1342
  976MOL0     N34601   0.159   3.085   1.631  0.0054  0.5877 -0.2606
  976MOL0     N34602   0.053   3.003   1.651 -1.2393 -0.0624  0.6333
  976MOL0     C34603   0.353   2.191   2.098  0.4151 -1.4485  0.2633
  976MOL0     C34604   0.418   2.125   2.210  0.2718 -1.1673  0.4106
  976MOL0     C34605   0.590   1.990   2.587 -0.0785 -0.1539 -0.3495
  976MOL0     C34606   0.472   1.950   2.666 -0.5444  0.1061 -0.6327
  976MOL0     C34607   0.485   1.869   2.785 -0.1816  0.7851  1.3991
  976MOL0     C34608   0.606   1.807   2.813  0.7358 -0.0377  0.1617
  976MOL0     O34609   0.615   1.739   2.930 -0.8165 -0.4796 -0.3543
  976MOL0     C34610   0.659   1.826   3.043  0.4505  0.5371 -0.1767
  976MOL0     C34611   0.669   1.743   3.172  0.3069 -0.1257  0.4104
  976MOL0     C34612   0.535   1.684   3.207 -0.4867  0.3936  0.0120
  976MOL0     C34613   0.572   1.583   3.318 -0.0729  0.0181  1.0328
  976MOL0     C34614   0.455   1.504   3.335  0.6118  0.3231 -0.1000
  976MOL0     C34615   0.354   1.448   3.372 -1.0514  0.5478 -0.3329
  976MOL0     C34616   0.721   1.833   2.729 -0.4069 -0.6412  0.7927
  976MOL0     C34617   0.713   1.921   2.623  0.6620  0.3651  0.7493
  976MOL0     C34618   0.835   1.934   2.544 -1.0504  0.0373 -0.3803
  976MOL0     H34619   0.233   2.297   2.445 -1.5070 -2.3856  0.9680
  976MOL0     H34620   0.127   2.386   2.261  0.4037 -0.4686  2.6461
  976MOL0     H34621   0.039   2.200   1.966 -1.7074 -0.5373 -2.6009
  976MOL0     H34622   0.201   2.164   1.887 -0.2941  0.1934 -1.2248
  976MOL0     H34623   0.152   2.334   1.724 -1.1522  1.9536 -0.5394
  976MOL0     H34624   0.007   2.231   1.757 -1.2283 -0.0377  1.2169
  976MOL0     H34625  -0.067   2.443   1.906  0.8184 -0.8235  1.4146
  976MOL0     H34626   0.065   2.530   1.858  0.8299 -0.9519  1.5459
  976MOL0     H34627  -0.004   2.511   1.596  0.4709  1.3731  0.6031
  976MOL0     H34628  -0.145   2.412   1.647 -3.1304  1.7729  4.4243
  976MOL0     H34629  -0.218   2.595   1.790  1.5864  2.9974  0.0914
  976MOL0     H34630  -0.232   2.616   1.622  0.8185  1.5488  1.3574
  976MOL0     H34631  -0.043   2.753   1.829 -0.8927  0.6536  0.2365
  976MOL0     H34632  -0.026   2.756   1.650 -0.1356  0.4869  0.1112
  976MOL0     H34633  -0.286   2.829   1.766  0.8993  0.3502  2.7674
  976MOL0     H34634  -0.208   2.902   1.615 -1.8923 -1.2228  0.0257
  976MOL0     H34635  -0.231   3.079   1.779  1.2426  1.8167 -1.0276
  976MOL0     H34636  -0.147   2.981   1.900 -0.6910  1.0609  0.1146
  976MOL0     H34637  -0.031   3.268   1.820  0.7050  0.9093 -0.4084
  976MOL0     H34638   0.331   3.284   1.679  0.9052 -0.9149  2.6194
  976MOL0     H34639   0.241   3.359   1.806  2.5879  0.0551 -0.1186
  976MOL0     H34640   0.091   3.466   1.633  0.8061  1.8876 -1.2948
  976MOL0     H34641   0.257   3.518   1.618 -0.6187  0.6798 -3.3087
  976MOL0     H34642   0.298   3.377   1.414 -1.2268 -0.6156 -1.5778
  976MOL0     H34643   0.149   3.297   1.456 -0.0125 -0.2281  1.8882
  976MOL0     H34644   0.021   3.456   1.349  0.3467 -1.7485 -0.4408
  976MOL0     H34645   0.094   3.586   1.435  0.4610  1.1251 -0.8403
  976MOL0     H34646   0.214   3.681   1.047 -0.5967  1.7410  0.0562
  976MOL0     H34647   0.320   3.987   0.966 -1.5806 -0.2214  3.0772
  976MOL0     H34648   0.307   3.830   0.889 -1.8875  0.6145  0.7635
  976MOL0     H34649   0.465   3.885   0.922 -0.2860  2.3342  0.6888
  976MOL0     H34650   0.802   4.087   1.192 -2.2559 -1.5890  1.0517
  976MOL0     H34651   0.935   4.289   1.218 -0.3943  1.2573  0.4005
  976MOL0     H34652   0.752   4.626   1.376  1.8070  2.5833 -1.5130
  976MOL0     H34653   0.788   4.574   1.542 -0.3901 -1.4559 -1.0817
  976MOL0     H34654   0.981   4.702   1.351  0.6370 -2.6171 -1.0890
  976MOL0     H34655   0.886   4.785   1.486 -1.6450 -0.9307 -0.9658
  976MOL0     H34656   1.110   4.585   1.546  0.5191 -0.3671  2.6186
  976MOL0     H34657   1.004   4.646   1.669  1.6170  2.5653  1.6520
  976MOL0     H34658   1.059   4.880   1.613  1.5925  1.2621 -2.0532
  976MOL0     H34659   1.162   4.825   1.484 -1.7024  2.8021  0.1909
  976MOL0     H34660   1.299   4.681   1.630 -0.9160  0.4596 -1.5361
  976MOL0     H34661   1.323   4.857   1.635  0.8052 -0.9233 -1.1545
  976MOL0     H34662   1.156   4.708   1.856 -0.0864  0.7779  0.6679
  976MOL0     H34663   1.187   4.884   1.841 -2.0978  0.6187  1.2760
  976MOL0     H34664   1.346   4.772   1.993 -1.1261 -1.7254  0.0510
  976MOL0     H34665   1.445   4.796   1.845  1.7085 -2.6161 -0.7423
  976MOL0     H34666   1.409   4.564   1.778 -1.2023  0.0344 -0.5409
  976MOL0     H34667   1.330   4.545   1.929  1.0597  0.6204  0.6972
  976MOL0     H34668   0.637   4.412   1.522  0.5659  0.7265 -0.3808
  976MOL0     H34669   0.518   4.220   1.476  0.6613  1.1348  1.1808
  976MOL0     H34670   0.448   3.875   1.428  0.0330  1.7124 -0.8810
  976MOL0     H34671   0.326   3.668   1.456 -0.2847  0.1899  0.0174
  976MOL0     H34672   0.382   2.165   1.996  0.7304 -2.7865  0.6694
  976MOL0     H34673   0.493   2.049   2.191  1.8263  0.6022 -1.0341
  976MOL0     H34674   0.371   1.987   2.655 -1.0551 -0.0549  2.6119
  976MOL0     H34675   0.406   1.854   2.858 -0.1118  0.5342  1.4247
  976MOL0     H34676   0.752   1.874   3.013  2.0099 -2.5664 -0.7272
  976MOL0     H34677   0.589   1.905   3.071 -0.7466 -1.0459  1.5156
  976MOL0     H34678   0.705   1.797   3.260 -0.9897 -3.2493  3.0668
  976MOL0     H34679   0.732   1.658   3.144 -2.0912 -1.5951 -0.8703
  976MOL0     H34680   0.480   1.769   3.247  0.2791  0.5635  0.7237
  976MOL0     H34681   0.480   1.626   3.132 -3.0487  1.4350  1.0008
  976MOL0     H34682   0.590   1.643   3.408  0.8237  1.1054  0.1532
  976MOL0     H34683   0.657   1.517   3.300  2.7793  4.0564 -2.1683
  976MOL0     H34684   0.266   1.393   3.399  0.1407 -2.6192 -2.3376
  976MOL0     H34685   0.818   1.796   2.760  0.0408 -0.1164  0.0540
  976MOL0     H34686   0.923   1.897   2.598 -2.1261 -1.3569  0.4731
  976MOL0     H34687   0.831   1.864   2.460 -1.3031 -1.8591  1.1635
  976MOL0     H34688   0.847   2.039   2.512  2.0229  0.1029  0.6258
  977MOL0     O34689   3.470   7.827   4.197 -0.4009 -0.2468 -0.2302
  977MOL0     C34690   3.518   7.717   4.219 -0.3026 -0.0446  0.3727
  977MOL0     O34691   3.441   7.604   4.244 -0.5020  0.5909 -0.7340
  977MOL0     C34692   3.307   7.602   4.218 -0.0977  0.6560 -0.1672
  977MOL0     C34693   3.219   7.699   4.263  0.2761 -0.0555  0.6713
  977MOL0     C34694   3.082   7.673   4.267  0.6871 -0.0316  0.6221
  977MOL0     C34695   3.034   7.552   4.228  0.6874 -0.4197 -0.8302
  977MOL0     O34696   2.899   7.527   4.243  0.6725  0.4143  0.1783
  977MOL0     C34697   2.811   7.486   4.132 -0.8299 -0.1902 -0.3932
  977MOL0     C34698   2.688   7.411   4.182  0.3094 -0.5750 -0.0232
  977MOL0     C34699   2.580   7.382   4.071 -0.0167 -0.5449 -0.6515
  977MOL0     C34700   2.434   7.426   4.114 -1.0652 -0.1445  0.4308
  977MOL0     C34701   2.338   7.456   3.991  0.4578 -0.2432  0.5243
  977MOL0     C34702   2.309   7.332   3.899  0.3916  0.1409  0.5437
  977MOL0     C34703   2.207   7.349   3.788 -0.5139 -0.1785  0.4060
  977MOL0     C34704   2.069   7.340   3.838  0.1727 -0.2357  0.6805
  977MOL0     N34705   1.972   7.373   3.725 -0.1619 -0.2314  0.6819
  977MOL0     C34706   1.943   7.293   3.620 -0.1320 -0.0863 -0.1620
  977MOL0     C34707   1.841   7.356   3.556  0.4247 -1.0706  0.4004
  977MOL0     C34708   1.747   7.289   3.450  0.2809 -0.5368  0.2313
  977MOL0     C34709   1.829   7.241   3.332 -0.1017  1.0825 -0.1844
  977MOL0     C34710   1.736   7.196   3.213 -0.1139  0.1957 -0.0087
  977MOL0     C34711   1.657   7.313   3.164  0.0001  1.1500  0.0857
  977MOL0     O34712   1.539   7.305   3.241 -0.0247  0.1959 -0.1123
  977MOL0     C34713   1.419   7.343   3.187  0.0590  0.2646 -0.5047
  977MOL0     C34714   1.385   7.396   3.064 -0.6475 -0.6332  0.2238
  977MOL0     C34715   1.254   7.417   3.022  0.2030  0.0259 -1.1558
  977MOL0     C34716   1.246   7.486   2.888 -0.3575 -0.4047  0.2101
  977MOL0     C34717   1.142   7.386   3.106 -0.0528 -1.0591 -0.7599
  977MOL0     C34718   1.002   7.422   3.075  0.1165 -0.9117 -0.5685
  977MOL0     O34719   0.917   7.404   3.182  0.4812 -0.0843  0.0492
  977MOL0     C34720   0.786   7.404   3.154 -0.2238  0.0076  1.3895
  977MOL0     C34721   0.719   7.282   3.156 -0.0524  0.2601 -0.2841
  977MOL0     C34722   0.584   7.275   3.136  0.3118  0.7538 -0.2825
  977MOL0     C34723   0.507   7.381   3.093  0.2764  0.9816  0.6524
  977MOL0     O34724   0.370   7.360   3.071 -0.0382 -0.3943  0.2614
  977MOL0     C34725   0.289   7.456   3.010  0.3068 -0.4955 -0.0374
  977MOL0     C34726   0.154   7.409   2.974  0.7086 -0.5650  0.0283
  977MOL0     C34727   0.153   7.318   2.849 -0.9643  0.6000  0.0139
  977MOL0     C34728   0.011   7.291   2.800  0.3450  0.0819 -1.3937
  977MOL0     C34729  -0.004   7.230   2.666 -0.1440  0.4337  0.2052
  977MOL0     C34730  -0.140   7.159   2.646  1.0866 -0.0495 -0.0379
  977MOL0     C34731  -0.265   7.253   2.657 -0.1671  0.0078  0.8883
  977MOL0     C34732  -0.262   7.356   2.542  0.5735  1.5202 -0.0950
  977MOL0    Cl34733  -0.260   7.283   2.375 -0.4746 -0.0665  0.1456
  977MOL0     C34734   0.577   7.504   3.085 -0.2394 -0.2494 -0.3868
  977MOL0     C34735   0.714   7.524   3.121 -0.4838 -0.8271 -0.5895
  977MOL0     O34736   0.974   7.446   2.960  0.1127  0.6661  0.1322
  977MOL0     C34737   1.174   7.338   3.240  0.4096 -0.5097  0.2400
  977MOL0     C34738   1.315   7.324   3.275 -0.3298  0.5216 -0.3473
  977MOL0     N34739   1.835   7.487   3.606 -0.9776  0.5642  0.3221
  977MOL0     N34740   1.909   7.497   3.706 -0.7773 -0.4992  0.9598
  977MOL0     C34741   3.122   7.442   4.183  0.1964 -0.7924 -0.5570
  977MOL0     C34742   3.260   7.477   4.168 -0.2071 -0.0330  0.7469
  977MOL0     C34743   3.667   7.703   4.227  0.5968 -0.4748  0.3651
  977MOL0     C34744   3.744   7.823   4.227 -0.5707 -0.2233 -0.4817
  977MOL0     C34745   3.876   7.828   4.247 -0.7454 -0.0258  0.6001
  977MOL0     C34746   3.943   7.705   4.262 -0.1627 -0.3914  0.5576
  977MOL0     O34747   4.078   7.708   4.295 -0.2309  0.5503 -0.6026
  977MOL0     C34748   4.171   7.817   4.287 -0.2561  0.9795  0.1739
  977MOL0     C34749   4.198   7.887   4.424  0.3863 -0.0410 -0.0852
  977MOL0     C34750   4.080   7.975   4.476 -0.2608  0.1304 -0.0895
  977MOL0     C34751   4.120   8.077   4.581 -1.2377 -0.5924  0.0535
  977MOL0     C34752   4.184   8.006   4.690 -0.5787  0.3969  0.5095
  977MOL0     C34753   4.226   7.955   4.790 -0.1002 -0.2398 -0.4020
  977MOL0     C34754   3.872   7.585   4.262 -0.1477 -1.0518  0.7826
  977MOL0     C34755   3.732   7.580   4.251  0.7248 -0.6332  0.4814
  977MOL0     C34756   3.665   7.431   4.248  0.4053  0.1982 -0.3954
  977MOL0     H34757   3.258   7.782   4.322 -0.6961  0.3459  0.7721
  977MOL0     H34758   3.022   7.740   4.327 -2.2070 -1.6557 -0.2850
  977MOL0     H34759   2.868   7.424   4.062 -0.2989 -2.4033  1.8254
  977MOL0     H34760   2.786   7.582   4.088  1.8177  0.4570 -0.6636
  977MOL0     H34761   2.713   7.310   4.217 -1.6972 -1.0467  0.1332
  977MOL0     H34762   2.658   7.473   4.267 -0.3997  3.5269 -2.9998
  977MOL0     H34763   2.602   7.449   3.987  1.4456 -1.9246 -1.4027
  977MOL0     H34764   2.565   7.280   4.035 -0.1308 -0.8980  0.3631
  977MOL0     H34765   2.394   7.340   4.168  0.1977  0.2222  2.0491
  977MOL0     H34766   2.429   7.517   4.175 -1.1189  1.5935 -2.0097
  977MOL0     H34767   2.393   7.522   3.924 -1.2555 -1.0119 -1.7602
  977MOL0     H34768   2.242   7.496   4.024  0.4324  0.6154 -0.5411
  977MOL0     H34769   2.403   7.287   3.869  0.9212 -0.6068  3.1058
  977MOL0     H34770   2.262   7.258   3.964  0.6772 -1.2496 -0.7850
  977MOL0     H34771   2.229   7.267   3.718 -1.5481  0.8008 -1.1334
  977MOL0     H34772   2.218   7.446   3.740 -2.7237 -1.0330 -2.0770
  977MOL0     H34773   2.061   7.242   3.887  1.9888  0.9954  3.7635
  977MOL0     H34774   2.056   7.411   3.921  0.3350 -0.0980  0.5897
  977MOL0     H34775   1.982   7.191   3.614 -1.9244 -0.9903  1.9144
  977MOL0     H34776   1.678   7.365   3.411  1.7529 -0.4331 -2.3859
  977MOL0     H34777   1.703   7.205   3.503 -0.5985 -0.2478 -0.0131
  977MOL0     H34778   1.885   7.331   3.303  1.7321  0.0650  0.0800
  977MOL0     H34779   1.899   7.163   3.361 -1.1852  0.2144  0.1379
  977MOL0     H34780   1.799   7.161   3.130  1.1026 -1.5816  1.5706
  977MOL0     H34781   1.671   7.113   3.244 -0.2287 -0.6417 -2.2665
  977MOL0     H34782   1.697   7.414   3.175  0.6082  0.5966  5.1125
  977MOL0     H34783   1.629   7.286   3.061 -1.3038 -0.9776  0.9249
  977MOL0     H34784   1.463   7.430   2.997  0.2143  0.9394  1.9500
  977MOL0     H34785   1.205   7.586   2.899  4.0563  1.5815  1.0417
  977MOL0     H34786   1.186   7.425   2.821  0.5518  0.4146 -1.4013
  977MOL0     H34787   1.341   7.485   2.833 -0.6915 -2.0719 -0.3812
  977MOL0     H34788   0.772   7.192   3.185 -2.5655 -1.4238 -0.6817
  977MOL0     H34789   0.534   7.179   3.144  0.9651 -0.0114 -3.8598
  977MOL0     H34790   0.281   7.543   3.075 -0.1502 -0.6998  0.1821
  977MOL0     H34791   0.339   7.505   2.926 -1.6614  1.7232 -0.0329
  977MOL0     H34792   0.094   7.361   3.051 -0.3313 -2.5243 -1.8797
  977MOL0     H34793   0.101   7.500   2.943  0.4252 -0.6956  0.1269
  977MOL0     H34794   0.209   7.225   2.865  1.1394  2.1758  2.7871
  977MOL0     H34795   0.210   7.366   2.769  1.4915 -4.6356 -1.8925
  977MOL0     H34796  -0.036   7.390   2.794 -1.0647 -0.1844  2.3950
  977MOL0     H34797  -0.047   7.239   2.877  1.4712  1.4865  0.4767
  977MOL0     H34798   0.002   7.309   2.590  3.6569 -1.9438 -2.2805
  977MOL0     H34799   0.076   7.159   2.643 -0.9062 -0.2821 -0.2776
  977MOL0     H34800  -0.148   7.079   2.721  0.1978 -1.2131 -1.3342
  977MOL0     H34801  -0.154   7.103   2.553 -1.3579 -1.9621  1.3435
  977MOL0     H34802  -0.271   7.305   2.753 -2.3440  0.0148  0.7986
  977MOL0     H34803  -0.348   7.183   2.651  1.1362 -1.4784 -1.2855
  977MOL0     H34804  -0.169   7.413   2.555  2.4404 -0.2252 -3.9891
  977MOL0     H34805  -0.346   7.426   2.540 -2.0121 -1.3987 -1.7437
  977MOL0     H34806   0.526   7.592   3.048  1.8519  2.6484  2.9712
  977MOL0     H34807   0.767   7.619   3.118  0.5241 -1.4014 -1.7584
  977MOL0     H34808   1.095   7.324   3.313 -1.2099  1.4578 -1.0170
  977MOL0     H34809   1.336   7.279   3.371 -0.3049 -2.2910 -1.5633
  977MOL0     H34810   3.078   7.347   4.155  0.2673 -0.8726 -0.3978
  977MOL0     H34811   3.330   7.401   4.136 -1.8850 -2.6283  2.8164
  977MOL0     H34812   3.698   7.918   4.204  0.8282  0.4897 -0.4565
  977MOL0     H34813   3.925   7.926   4.245  2.4445 -1.4807  0.9809
  977MOL0     H34814   4.268   7.771   4.265 -1.2612 -0.1559 -2.2143
  977MOL0     H34815   4.149   7.886   4.205 -0.9033  0.8415  0.2281
  977MOL0     H34816   4.290   7.947   4.420  0.4136 -0.1504 -1.6700
  977MOL0     H34817   4.209   7.798   4.487 -2.0507 -1.1611 -1.1119
  977MOL0     H34818   4.046   8.031   4.388  0.4898 -1.2155 -1.2791
  977MOL0     H34819   4.009   7.899   4.509  2.3642 -1.7823  1.5018
  977MOL0     H34820   4.044   8.146   4.620 -0.4432 -0.2598  1.0753
  977MOL0     H34821   4.201   8.136   4.537  1.3003 -1.7218  2.8317
  977MOL0     H34822   4.250   7.890   4.872  0.5395 -2.6028 -2.3211
  977MOL0     H34823   3.930   7.496   4.284  1.7275 -0.3691 -1.1019
  977MOL0     H34824   3.740   7.353   4.235 -0.2082 -0.2921 -1.1073
  977MOL0     H34825   3.634   7.412   4.352  1.0087 -2.6139 -0.6488
  977MOL0     H34826   3.586   7.417   4.173 -1.5679 -0.2737  1.6288
  978MOL0     O34827  11.314   4.002  10.653  0.0541 -1.0232  0.1680
  978MOL0     C34828  11.296   4.023  10.534 -0.3565 -0.2930  0.1146
  978MOL0     O34829  11.404   4.023  10.447 -0.2528 -0.3574 -0.4474
  978MOL0     C34830  11.531   4.013  10.488  0.5564  0.5933  0.1922
  978MOL0     C34831  11.599   3.897  10.462 -0.5015 -0.5318 -0.0444
  978MOL0     C34832  11.734   3.881  10.515 -0.2830 -0.7384  0.2519
  978MOL0     C34833  11.806   3.991  10.566  0.3517  0.6025  0.0974
  978MOL0     O34834  11.931   3.959  10.596  0.0041  0.2208 -0.0867
  978MOL0     C34835  12.024   4.063  10.625 -0.9168 -0.0521 -0.0600
  978MOL0     C34836  12.166   4.020  10.600 -0.0070  1.2864 -0.0543
  978MOL0     C34837  12.201   3.987  10.454  0.5668  0.9486  0.4380
  978MOL0     C34838  12.349   3.991  10.429  1.0648 -0.4247  0.4304
  978MOL0     C34839  12.390   3.936  10.297 -0.4963  0.5363  1.4942
  978MOL0     C34840  12.520   3.998  10.256 -0.4377  0.4451 -0.5950
  978MOL0     C34841  12.590   3.940  10.136  0.3868 -0.1957 -0.1218
  978MOL0     C34842  12.729   4.001  10.106 -0.1767  0.1380  0.5556
  978MOL0     N34843  12.836   3.930  10.183 -0.1587 -0.2779 -0.5856
  978MOL0     C34844  12.870   3.964  10.314  0.0461  0.0293  0.5168
  978MOL0     C34845  12.986   3.893  10.341 -0.2869 -0.3107  0.6210
  978MOL0     C34846  13.084   3.915  10.450  0.7639 -0.5821 -0.8156
  978MOL0     C34847  13.201   3.812  10.446 -0.2994 -0.1275  0.5631
  978MOL0     C34848  13.149   3.684  10.510 -0.0043  0.2578  0.8001
  978MOL0     C34849  13.257   3.574  10.524  0.5930 -0.7991  1.0166
  978MOL0     O34850  13.315   3.555  10.396  0.0336  1.0552 -0.4276
  978MOL0     C34851  13.431   3.479  10.406  0.1540  0.0722 -0.5963
  978MOL0     C34852  13.537   3.489  10.307  0.9851 -0.7675  0.6261
  978MOL0     C34853  13.649   3.408  10.296 -0.3317 -0.6642  0.1573
  978MOL0     C34854  13.731   3.433  10.168 -0.2539  0.7512 -0.3857
  978MOL0     C34855  13.673   3.310  10.397 -0.0279 -0.2665  0.6556
  978MOL0     C34856  13.797   3.211  10.396  0.0134 -1.3782  0.1421
  978MOL0     O34857  13.802   3.142  10.507  0.1134  0.4794 -0.4910
  978MOL0     C34858  13.911   3.067  10.525 -0.9531  0.3156  0.0294
  978MOL0     C34859  13.950   2.949  10.455 -0.6905  0.1872  0.3387
  978MOL0     C34860  14.079   2.891  10.465 -0.7300 -0.4853 -0.6685
  978MOL0     C34861  14.167   2.946  10.562  0.2531 -0.4451 -0.1639
  978MOL0     O34862  14.299   2.895  10.563 -0.2283 -0.4911 -0.9743
  978MOL0     C34863  14.376   2.908  10.442 -0.1032 -0.3592 -0.1062
  978MOL0     C34864  14.528   2.920  10.477  0.4353 -0.6997 -0.0360
  978MOL0     C34865  14.640   2.902  10.370  0.2759 -0.8224 -0.3888
  978MOL0     C34866  14.630   3.007  10.259 -0.6211 -0.4661 -0.0574
  978MOL0     C34867  14.749   3.014  10.166 -0.5831 -0.0151  0.7906
  978MOL0     C34868  14.864   3.088  10.223  0.3859  0.4254  0.2254
  978MOL0     C34869  14.988   3.082  10.137  0.2148  0.3626  0.5047
  978MOL0     C34870  15.100   3.176  10.184  0.4510  0.2221  1.1241
  978MOL0    Cl34871  15.247   3.170  10.077 -0.3636 -0.5292 -0.1848
  978MOL0     C34872  14.129   3.061  10.631 -0.5301  0.0391  0.4128
  978MOL0     C34873  14.008   3.118  10.605 -0.3207  0.4641 -0.2872
  978MOL0     O34874  13.874   3.211  10.302 -0.3326  0.1292  0.2379
  978MOL0     C34875  13.586   3.305  10.502  0.0164  0.4118 -0.2198
  978MOL0     C34876  13.462   3.383  10.511  0.6761  0.3341 -0.3874
  978MOL0     N34877  13.000   3.811  10.224  0.4933  0.1674 -0.3271
  978MOL0     N34878  12.926   3.841  10.127 -0.1837 -0.5464 -0.3787
  978MOL0     C34879  11.729   4.104  10.601  0.2440 -0.4569 -0.9248
  978MOL0     C34880  11.597   4.119  10.556 -1.0310  0.6565 -0.7916
  978MOL0     C34881  11.155   4.025  10.486 -0.6441  0.7854  0.2460
  978MOL0     C34882  11.143   4.039  10.348  0.4406  0.4598 -0.6180
  978MOL0     C34883  11.012   4.037  10.286  0.2036  0.1475 -0.5376
  978MOL0     C34884  10.899   4.047  10.369 -0.3818  0.4711 -0.7017
  978MOL0     O34885  10.783   4.080  10.310  0.1846 -0.1990  0.7369
  978MOL0     C34886  10.657   4.062  10.369  0.7249 -0.1343  0.5562
  978MOL0     C34887  10.546   4.108  10.276 -0.8213  0.3639 -0.2046
  978MOL0     C34888  10.422   4.166  10.339  0.1999 -0.7264 -1.4916
  978MOL0     C34889  10.316   4.206  10.237 -0.2179 -0.5544 -0.2253
  978MOL0     C34890  10.198   4.272  10.297 -0.4294  0.6031  0.1129
  978MOL0     C34891  10.105   4.319  10.355 -0.3968  0.6807  0.6151
  978MOL0     C34892  10.914   4.033  10.512  0.1138 -0.5786 -0.1799
  978MOL0     C34893  11.042   4.013  10.565  0.2458  0.4053  0.2695
  978MOL0     C34894  11.051   3.992  10.716  0.4998  0.0136  0.4628
  978MOL0     H34895  11.553   3.812  10.412  0.0933  0.0595 -1.6831
  978MOL0     H34896  11.768   3.779  10.502  0.5015 -0.6638  1.5238
  978MOL0     H34897  12.011   4.091  10.730 -6.4666 -0.5922 -0.2930
  978MOL0     H34898  12.004   4.152  10.564 -1.6251 -1.0466 -1.3407
  978MOL0     H34899  12.238   4.090  10.642  2.0493 -1.7146  1.7900
  978MOL0     H34900  12.178   3.921  10.644 -0.3448  0.2338 -2.2074
  978MOL0     H34901  12.163   3.890  10.421  2.1114  0.7332 -0.8226
  978MOL0     H34902  12.143   4.063  10.400 -0.6366  2.1438  3.2227
  978MOL0     H34903  12.372   4.098  10.427  0.9176 -0.3994 -0.0114
  978MOL0     H34904  12.394   3.940  10.515  1.2841  0.5471  0.9168
  978MOL0     H34905  12.319   3.967  10.220  0.6410 -0.2215  0.0888
  978MOL0     H34906  12.390   3.827  10.286 -1.0826  0.6711 -0.2625
  978MOL0     H34907  12.487   4.094  10.216  0.1890  0.6265 -0.6683
  978MOL0     H34908  12.588   3.999  10.340 -0.1963 -0.3988 -0.7705
  978MOL0     H34909  12.534   3.957  10.044  0.0911 -0.3535  0.0295
  978MOL0     H34910  12.596   3.833  10.158 -0.3805 -0.1464  0.3820
  978MOL0     H34911  12.755   3.989  10.000  1.2528 -2.2305  1.0895
  978MOL0     H34912  12.734   4.108  10.126 -0.9543 -0.1513  2.5865
  978MOL0     H34913  12.827   4.035  10.383  0.8473  0.3225  0.7255
  978MOL0     H34914  13.029   3.896  10.542 -0.3594 -1.2962 -1.5960
  978MOL0     H34915  13.117   4.018  10.433 -2.0539  0.7865  1.2506
  978MOL0     H34916  13.227   3.792  10.342  0.9368 -0.5021  0.9287
  978MOL0     H34917  13.280   3.862  10.501 -0.2128  0.6271 -0.2248
  978MOL0     H34918  13.117   3.710  10.611 -0.9564  2.3368  0.0304
  978MOL0     H34919  13.074   3.637  10.447  0.2551  0.1899  0.5365
  978MOL0     H34920  13.319   3.600  10.610  0.0044  0.4097  1.0927
  978MOL0     H34921  13.203   3.481  10.545 -0.6562 -1.5228 -4.0630
  978MOL0     H34922  13.524   3.561  10.226 -0.7211  0.0476  1.5638
  978MOL0     H34923  13.701   3.365  10.088  1.5795 -0.0033 -0.4762
  978MOL0     H34924  13.837   3.413  10.187  0.2287  1.0564 -2.5140
  978MOL0     H34925  13.712   3.534  10.131 -0.8171  1.0038  0.5667
  978MOL0     H34926  13.891   2.897  10.380  1.2951 -3.0727  0.8154
  978MOL0     H34927  14.112   2.809  10.402  0.0671 -0.0734 -0.8032
  978MOL0     H34928  14.369   2.819  10.378 -1.1087  0.9311 -1.8615
  978MOL0     H34929  14.339   2.992  10.382  0.0771 -1.2126 -1.4625
  978MOL0     H34930  14.536   3.020  10.521 -2.3966 -0.9578  1.2953
  978MOL0     H34931  14.552   2.855  10.562  0.3615  1.1834  1.5207
  978MOL0     H34932  14.628   2.802  10.328  2.2933 -0.8857 -0.8920
  978MOL0     H34933  14.737   2.911  10.419 -0.3918  1.1348  0.6655
  978MOL0     H34934  14.611   3.106  10.302  0.8073 -0.9585  1.8896
  978MOL0     H34935  14.548   2.987  10.190  1.1511 -1.0181 -2.1317
  978MOL0     H34936  14.786   2.915  10.135  1.5481  1.6128 -2.4030
  978MOL0     H34937  14.718   3.064  10.074  2.2852 -1.0372 -0.8652
  978MOL0     H34938  14.883   3.040  10.320 -0.5239 -0.1594  0.1174
  978MOL0     H34939  14.840   3.195  10.227 -0.4174  0.3127 -1.1651
  978MOL0     H34940  14.957   3.114  10.038  3.4298  3.7411  0.3858
  978MOL0     H34941  15.020   2.978  10.126 -0.3836  0.3718 -1.9058
  978MOL0     H34942  15.117   3.157  10.290 -0.1336 -0.1196  1.1573
  978MOL0     H34943  15.057   3.276  10.169  2.6893  0.9362 -1.5618
  978MOL0     H34944  14.190   3.104  10.710 -0.1969 -1.4598  1.0006
  978MOL0     H34945  13.990   3.216  10.647  0.8242  0.7039 -0.3308
  978MOL0     H34946  13.612   3.232  10.578  2.4682  0.8613 -0.5538
  978MOL0     H34947  13.386   3.375  10.589 -0.9509  0.8797 -1.8401
  978MOL0     H34948  11.775   4.178  10.666  1.4244 -0.0691 -2.1545
  978MOL0     H34949  11.542   4.203  10.597 -0.6789 -1.2221  4.3582
  978MOL0     H34950  11.228   4.042  10.281 -2.5091  2.1636 -4.6736
  978MOL0     H34951  10.990   4.040  10.180 -1.0886 -4.2240 -0.6034
  978MOL0     H34952  10.650   3.954  10.382  3.9680 -0.5632 -0.2733
  978MOL0     H34953  10.654   4.120  10.462 -0.2708  0.1761  0.3499
  978MOL0     H34954  10.513   4.030  10.207  1.4503 -0.8225 -0.0462
  978MOL0     H34955  10.597   4.191  10.225  1.0427  0.4962  1.7290
  978MOL0     H34956  10.378   4.094  10.408  0.4482  1.4541  1.0954
  978MOL0     H34957  10.446   4.257  10.394  1.8329 -1.0979 -1.5282
  978MOL0     H34958  10.278   4.119  10.183 -0.0419 -1.9159  1.7513
  978MOL0     H34959  10.349   4.274  10.158 -0.9347 -1.1089 -1.0211
  978MOL0     H34960  10.025   4.352  10.417 -0.8538 -0.4984  0.6713
  978MOL0     H34961  10.824   4.055  10.570  1.0444 -0.9010  1.4592
  978MOL0     H34962  10.950   3.976  10.755  0.7912  0.6386  1.5359
  978MOL0     H34963  11.113   3.905  10.742 -0.6090 -0.4128  1.8108
  978MOL0     H34964  11.086   4.085  10.761  1.3230  0.4454 -1.0220
  979MOL0     O34965   3.342   5.909   3.984  0.7099  0.0084  0.3360
  979MOL0     C34966   3.344   5.839   4.090  0.1090 -1.4227  0.0126
  979MOL0     O34967   3.448   5.845   4.179 -0.3019 -0.5547  0.4131
  979MOL0     C34968   3.585   5.867   4.142 -0.2550  0.5592 -0.5257
  979MOL0     C34969   3.667   5.962   4.214 -0.8306  0.1052  0.5768
  979MOL0     C34970   3.805   5.974   4.182  0.8105 -0.4945  0.3483
  979MOL0     C34971   3.849   5.897   4.069  0.1757 -0.8023  0.7811
  979MOL0     O34972   3.980   5.921   4.030 -0.2591 -0.1684  0.2753
  979MOL0     C34973   4.058   5.828   4.100 -0.0338  0.3661 -0.5235
  979MOL0     C34974   4.195   5.820   4.042 -0.4919  0.0161 -0.2091
  979MOL0     C34975   4.291   5.919   4.114  0.2958 -0.2950  0.4972
  979MOL0     C34976   4.433   5.916   4.061 -0.1273 -0.5216 -0.0886
  979MOL0     C34977   4.525   6.020   4.123 -0.7234 -0.1204  0.7367
  979MOL0     C34978   4.649   6.052   4.033 -0.2427 -0.0515 -0.3163
  979MOL0     C34979   4.714   6.181   4.096  0.6564 -0.0776 -0.6175
  979MOL0     C34980   4.814   6.235   3.995 -0.1569  0.4094 -0.1274
  979MOL0     N34981   4.939   6.159   4.007  0.2183  0.3172  1.1062
  979MOL0     C34982   5.023   6.176   4.116  0.7556 -0.1517 -0.4726
  979MOL0     C34983   5.144   6.138   4.077  0.1033  0.1914  0.7136
  979MOL0     C34984   5.267   6.149   4.168  0.0317  0.8489  0.6384
  979MOL0     C34985   5.407   6.175   4.093  0.7651  0.0682 -0.1782
  979MOL0     C34986   5.529   6.172   4.187  0.1637  0.6646  0.0381
  979MOL0     C34987   5.663   6.185   4.113  0.0558 -0.5027  0.3653
  979MOL0     O34988   5.767   6.233   4.198 -0.2019  0.4168 -0.4265
  979MOL0     C34989   5.900   6.225   4.149 -0.7567  0.1588 -0.0341
  979MOL0     C34990   5.929   6.168   4.021  0.1727 -0.8523  0.3497
  979MOL0     C34991   6.067   6.161   3.982 -0.7667 -0.5244  0.4071
  979MOL0     C34992   6.091   6.119   3.837 -0.1969  0.2650  0.4545
  979MOL0     C34993   6.171   6.185   4.075 -0.6169  0.2568  0.0649
  979MOL0     C34994   6.322   6.172   4.035  0.2163  0.0898 -0.1013
  979MOL0     O34995   6.364   6.169   3.901  0.4560 -0.7072  0.3924
  979MOL0     C34996   6.492   6.166   3.864 -0.1959 -0.3459  0.0998
  979MOL0     C34997   6.595   6.075   3.910  0.0720 -0.3737  0.3654
  979MOL0     C34998   6.711   6.058   3.841  0.4469  0.1535 -0.5678
  979MOL0     C34999   6.733   6.133   3.728 -0.5101 -0.6399 -0.4350
  979MOL0     O35000   6.858   6.119   3.677 -0.1932 -0.1454  0.9786
  979MOL0     C35001   6.892   6.161   3.552  0.3979 -0.9609  0.6376
  979MOL0     C35002   7.040   6.149   3.528 -0.6556 -0.5578 -0.8111
  979MOL0     C35003   7.119   6.236   3.635 -0.1130  0.5474 -0.0676
  979MOL0     C35004   7.269   6.194   3.670  0.2276  0.8377  0.2729
  979MOL0     C35005   7.375   6.267   3.598 -0.7458 -0.6307 -0.5195
  979MOL0     C35006   7.513   6.220   3.625  0.7089  0.4581  0.0608
  979MOL0     C35007   7.535   6.076   3.570  0.4285 -0.7147  0.3475
  979MOL0     C35008   7.661   6.013   3.621  0.3239  0.7108  0.5212
  979MOL0    Cl35009   7.802   6.125   3.586  0.1216  0.2528  0.2748
  979MOL0     C35010   6.641   6.235   3.689 -0.5740  0.2549  0.0456
  979MOL0     C35011   6.521   6.250   3.753 -0.3085  0.6689 -0.6168
  979MOL0     O35012   6.393   6.132   4.132  0.5136 -0.2812  0.4419
  979MOL0     C35013   6.139   6.220   4.208  0.1480  0.8921  1.1781
  979MOL0     C35014   6.003   6.241   4.239 -0.2124  0.4021 -0.4074
  979MOL0     N35015   5.133   6.089   3.949 -0.1103 -0.0071 -0.3194
  979MOL0     N35016   5.019   6.116   3.897 -0.1309 -0.5235  1.1949
  979MOL0     C35017   3.774   5.806   3.999 -0.2345  0.2966 -0.0990
  979MOL0     C35018   3.640   5.799   4.034 -0.0459  0.9350  0.5448
  979MOL0     C35019   3.224   5.777   4.135  0.0696 -0.3333  0.0807
  979MOL0     C35020   3.153   5.713   4.029  0.7044  0.1864 -0.2137
  979MOL0     C35021   3.029   5.662   4.072  0.1961 -0.8248 -0.2461
  979MOL0     C35022   2.969   5.679   4.204  0.2110 -0.0732 -0.3337
  979MOL0     O35023   2.847   5.622   4.244  0.4342 -0.0312 -0.6604
  979MOL0     C35024   2.809   5.494   4.187 -0.8545  0.5626  0.1234
  979MOL0     C35025   2.661   5.457   4.155  0.0983  0.5225  0.0859
  979MOL0     C35026   2.576   5.444   4.288 -0.2900  0.0653 -0.5365
  979MOL0     C35027   2.531   5.574   4.349 -0.0555 -0.3367 -0.6303
  979MOL0     C35028   2.527   5.698   4.266 -0.2185 -0.0650  0.8199
  979MOL0     C35029   2.513   5.798   4.197  0.1626 -0.7153  0.3553
  979MOL0     C35030   3.048   5.738   4.295 -0.0635  0.8567  0.0646
  979MOL0     C35031   3.180   5.789   4.271  0.5844 -0.4594 -0.1070
  979MOL0     C35032   3.255   5.854   4.382  0.2884 -0.8144  0.7989
  979MOL0     H35033   3.614   6.014   4.294 -0.4787 -0.5748  1.2639
  979MOL0     H35034   3.870   6.034   4.245  1.0423  0.1306 -0.4685
  979MOL0     H35035   4.006   5.732   4.107 -3.1346  2.0329  2.2258
  979MOL0     H35036   4.057   5.862   4.205  0.7053 -1.1232 -0.0144
  979MOL0     H35037   4.239   5.720   4.042  2.4985  1.2217 -1.4061
  979MOL0     H35038   4.182   5.832   3.934 -0.1990  2.6207 -0.0261
  979MOL0     H35039   4.243   6.017   4.111  3.4024  1.3559 -2.3451
  979MOL0     H35040   4.301   5.875   4.214  4.3712 -0.8359  0.0381
  979MOL0     H35041   4.490   5.823   4.061  0.3115 -0.4622 -4.6733
  979MOL0     H35042   4.424   5.939   3.955 -2.6320 -0.7147  0.0409
  979MOL0     H35043   4.558   5.980   4.219 -0.9228 -3.5540 -0.4714
  979MOL0     H35044   4.469   6.109   4.152 -0.8358 -0.2880  1.0370
  979MOL0     H35045   4.727   5.977   4.023 -0.5146 -0.1221 -2.1955
  979MOL0     H35046   4.610   6.073   3.933  0.5389  1.0675 -0.4064
  979MOL0     H35047   4.757   6.167   4.196  0.8048 -0.4275 -0.7302
  979MOL0     H35048   4.635   6.256   4.103  0.2957 -0.5934  1.7124
  979MOL0     H35049   4.767   6.243   3.897 -0.8891 -3.5369 -0.2332
  979MOL0     H35050   4.844   6.336   4.025  0.6225 -0.6639  3.1805
  979MOL0     H35051   4.991   6.222   4.209  1.3760 -1.5032  0.4391
  979MOL0     H35052   5.284   6.051   4.213 -2.0860  0.7446  1.3203
  979MOL0     H35053   5.244   6.221   4.247  2.0478  2.7767 -0.3908
  979MOL0     H35054   5.424   6.102   4.013  2.0031 -2.0009  1.8332
  979MOL0     H35055   5.406   6.278   4.055 -3.2145  1.0571  2.0353
  979MOL0     H35056   5.526   6.249   4.265  2.5375  2.3477 -1.4149
  979MOL0     H35057   5.514   6.074   4.236  0.5338  0.3122 -0.5489
  979MOL0     H35058   5.681   6.085   4.074 -1.3247 -0.5392 -0.2419
  979MOL0     H35059   5.652   6.261   4.035 -1.4196 -1.5089 -0.4711
  979MOL0     H35060   5.854   6.157   3.944  1.1760 -1.2838 -0.6013
  979MOL0     H35061   6.162   6.180   3.780 -0.1230  1.7454  2.0258
  979MOL0     H35062   5.997   6.134   3.784 -0.1970 -1.0738  0.0558
  979MOL0     H35063   6.118   6.015   3.818  1.7947  0.5212  1.5991
  979MOL0     H35064   6.567   6.009   3.992 -0.4927  1.9051  2.0991
  979MOL0     H35065   6.780   5.984   3.881 -0.8426 -0.4840  0.5397
  979MOL0     H35066   6.833   6.120   3.469  2.7895  0.8532 -2.1713
  979MOL0     H35067   6.874   6.268   3.547 -1.8406 -1.3283 -1.2484
  979MOL0     H35068   7.070   6.046   3.547  0.1650 -0.3606 -1.0221
  979MOL0     H35069   7.066   6.177   3.426  1.7386 -0.6850 -0.2889
  979MOL0     H35070   7.061   6.231   3.727 -1.2066  4.2028 -0.3833
  979MOL0     H35071   7.121   6.343   3.609  1.2410  1.2683  2.6387
  979MOL0     H35072   7.284   6.086   3.669  3.1660  1.1629  0.6288
  979MOL0     H35073   7.275   6.216   3.777 -1.5281 -0.4552  0.6784
  979MOL0     H35074   7.363   6.277   3.490 -1.1911 -0.3243 -0.4444
  979MOL0     H35075   7.375   6.372   3.629  1.9443 -0.9134  0.7881
  979MOL0     H35076   7.536   6.225   3.732 -1.1002  0.2173  0.4810
  979MOL0     H35077   7.573   6.297   3.575  1.1239  0.6057  0.7646
  979MOL0     H35078   7.533   6.086   3.462  0.2769  3.0064  0.5861
  979MOL0     H35079   7.455   6.004   3.589  1.0524 -1.8083 -0.9692
  979MOL0     H35080   7.685   5.917   3.575 -1.0080  1.0133 -0.8923
  979MOL0     H35081   7.648   6.000   3.729  2.9127  1.8128  1.0486
  979MOL0     H35082   6.669   6.305   3.610  1.6586  1.8656  2.1165
  979MOL0     H35083   6.439   6.310   3.716 -0.9458  0.1162 -0.1453
  979MOL0     H35084   6.213   6.244   4.283 -2.0272  2.5659  2.9211
  979MOL0     H35085   5.970   6.274   4.336  0.2436 -0.6468  0.1126
  979MOL0     H35086   3.811   5.743   3.919 -1.3159 -0.4478 -0.0346
  979MOL0     H35087   3.574   5.730   3.983 -0.0282  1.6892 -0.5492
  979MOL0     H35088   3.181   5.706   3.925  2.7607 -0.1415  0.3177
  979MOL0     H35089   2.971   5.606   3.999 -1.6240  1.4171 -0.6261
  979MOL0     H35090   2.870   5.466   4.101 -0.4391  0.5582  0.4150
  979MOL0     H35091   2.847   5.416   4.254  2.5635  1.6634 -0.3507
  979MOL0     H35092   2.657   5.368   4.091 -0.3747  1.7680 -1.6863
  979MOL0     H35093   2.608   5.528   4.091 -0.0036  0.4477  0.0861
  979MOL0     H35094   2.485   5.385   4.274 -1.6142  2.3260 -2.3444
  979MOL0     H35095   2.635   5.388   4.361 -0.9417  0.6330  0.4629
  979MOL0     H35096   2.607   5.603   4.421 -1.0332 -0.9487  0.6839
  979MOL0     H35097   2.439   5.576   4.408  0.2465  0.4384 -0.1748
  979MOL0     H35098   2.493   5.874   4.125 -2.4504 -0.3135  1.4220
  979MOL0     H35099   3.008   5.752   4.395  0.8447 -0.9418  0.7196
  979MOL0     H35100   3.320   5.779   4.430  1.2391  0.5613  1.7194
  979MOL0     H35101   3.323   5.932   4.347  0.9918 -1.7689 -0.0284
  979MOL0     H35102   3.174   5.892   4.444  1.1565 -0.2318  1.6089
  980MOL0     O35103   6.669   7.560   0.149 -0.4377  0.0506  0.4333
  980MOL0     C35104   6.709   7.564   0.265 -0.4715  0.5882  0.3469
  980MOL0     O35105   6.662   7.492   0.367  0.6644 -0.1230 -0.3617
  980MOL0     C35106   6.534   7.444   0.348  0.0111 -0.1624 -0.8347
  980MOL0     C35107   6.425   7.530   0.345  0.2071  0.6101 -0.0202
  980MOL0     C35108   6.292   7.482   0.329 -0.6776 -0.2056  0.2532
  980MOL0     C35109   6.266   7.343   0.325  0.2903 -0.9286 -0.0575
  980MOL0     O35110   6.141   7.284   0.312  0.0564  0.2317 -0.3833
  980MOL0     C35111   6.044   7.326   0.404 -1.0575 -0.0334 -0.1356
  980MOL0     C35112   5.927   7.237   0.393  0.2672  0.6072  0.2835
  980MOL0     C35113   5.853   7.247   0.257  0.4225  0.4132  0.0140
  980MOL0     C35114   5.726   7.157   0.269 -0.1681  0.4510 -0.2586
  980MOL0     C35115   5.636   7.155   0.145 -0.3217  0.2644 -0.1911
  980MOL0     C35116   5.486   7.104   0.156  0.4964  1.0823 -0.6388
  980MOL0     C35117   5.426   7.067   0.012 -0.2714 -0.2925 -0.0870
  980MOL0     C35118   5.346   7.180  -0.054 -0.1865  0.0264 -0.4429
  980MOL0     N35119   5.438   7.286  -0.091  0.0647 -0.1446  0.7853
  980MOL0     C35120   5.450   7.412  -0.036 -0.0242  1.2650 -0.4638
  980MOL0     C35121   5.541   7.484  -0.111 -0.3339  0.7298 -0.0362
  980MOL0     C35122   5.587   7.619  -0.081  0.2382 -1.1324  1.0892
  980MOL0     C35123   5.699   7.623   0.022  0.0991 -0.2527  0.3327
  980MOL0     C35124   5.836   7.565  -0.027 -0.2706  0.2167 -1.2870
  980MOL0     C35125   5.909   7.635  -0.132  0.4943 -0.6309  0.1941
  980MOL0     O35126   5.951   7.771  -0.101 -0.3946  0.5092  0.2799
  980MOL0     C35127   6.072   7.800  -0.030  0.4492  0.2585  0.6059
  980MOL0     C35128   6.107   7.933  -0.034 -0.1390  0.9330  0.8724
  980MOL0     C35129   6.230   7.985   0.031  0.5549 -0.3058  0.9415
  980MOL0     C35130   6.250   8.132   0.024  0.0271  0.1225  0.9899
  980MOL0     C35131   6.315   7.890   0.087 -0.2575 -0.0218  0.0125
  980MOL0     C35132   6.446   7.935   0.149 -0.3178  0.8187  0.1343
  980MOL0     O35133   6.491   8.063   0.142  0.5703 -0.0429 -0.5143
  980MOL0     C35134   6.622   8.106   0.174 -0.4209 -0.0230  0.1593
  980MOL0     C35135   6.668   8.225   0.115  0.2553 -0.1675  0.2015
  980MOL0     C35136   6.800   8.272   0.121  0.7914 -0.6032 -0.0102
  980MOL0     C35137   6.889   8.201   0.200 -0.2580  0.0307 -0.3379
  980MOL0     O35138   7.010   8.258   0.224 -0.0251  0.0789  0.0401
  980MOL0     C35139   7.118   8.177   0.269 -0.5046 -0.0424  0.0754
  980MOL0     C35140   7.243   8.229   0.189 -0.0976  0.7804 -0.1137
  980MOL0     C35141   7.305   8.353   0.249 -0.7747 -0.0307  1.0494
  980MOL0     C35142   7.398   8.433   0.148 -0.2262  0.5346  0.0264
  980MOL0     C35143   7.550   8.395   0.180  0.1235  0.0365  0.4242
  980MOL0     C35144   7.568   8.238   0.185 -0.3125  0.9959 -0.0200
  980MOL0     C35145   7.708   8.196   0.165 -0.8534  1.1889  0.8665
  980MOL0     C35146   7.746   8.048   0.176  0.3027  0.2499 -0.9640
  980MOL0    Cl35147   7.642   7.959   0.082 -0.0996 -0.0073 -0.2093
  980MOL0     C35148   6.838   8.091   0.277 -0.2475 -0.0776  0.3183
  980MOL0     C35149   6.707   8.046   0.260 -0.1749 -0.5916 -0.4002
  980MOL0     O35150   6.499   7.844   0.206  0.0608  0.6091 -0.0509
  980MOL0     C35151   6.279   7.753   0.084 -0.0591  0.4063 -0.3243
  980MOL0     C35152   6.156   7.709   0.025  0.4336  0.1649  0.4104
  980MOL0     N35153   5.578   7.401  -0.215 -0.7251 -0.6935  0.1035
  980MOL0     N35154   5.519   7.283  -0.201  0.1187  0.4716  0.2129
  980MOL0     C35155   6.379   7.255   0.317 -0.4076 -0.1229 -0.1889
  980MOL0     C35156   6.514   7.304   0.323  0.1663 -0.7277 -1.2549
  980MOL0     C35157   6.831   7.647   0.285  0.3925 -1.3633  0.1266
  980MOL0     C35158   6.860   7.742   0.187 -0.8721  0.7179  0.2523
  980MOL0     C35159   6.986   7.814   0.175  0.4869 -0.5348  0.4368
  980MOL0     C35160   7.093   7.784   0.259  0.4898 -0.0943 -0.9098
  980MOL0     O35161   7.211   7.849   0.230  0.0350 -0.0431 -0.3458
  980MOL0     C35162   7.332   7.809   0.296  0.3263  0.2486 -0.1865
  980MOL0     C35163   7.344   7.864   0.440  0.0586  0.7560  0.8504
  980MOL0     C35164   7.448   7.981   0.446  0.0808  0.0071  0.5935
  980MOL0     C35165   7.496   8.027   0.575 -0.4767 -0.6900  0.4906
  980MOL0     C35166   7.581   7.923   0.631  0.4123 -0.0199  0.0647
  980MOL0     C35167   7.664   7.846   0.676  0.9476 -0.1017  0.1428
  980MOL0     C35168   7.070   7.691   0.365 -0.8701 -0.2692  0.0931
  980MOL0     C35169   6.937   7.632   0.384 -0.2094  0.4901  0.3778
  980MOL0     C35170   6.919   7.535   0.492  0.7619  0.5866 -0.2351
  980MOL0     H35171   6.435   7.637   0.363  2.7496  0.5359 -0.6514
  980MOL0     H35172   6.208   7.551   0.326 -0.6763 -0.0995  1.6067
  980MOL0     H35173   6.019   7.431   0.386 -0.1278  0.8451  3.0973
  980MOL0     H35174   6.092   7.308   0.500 -0.2720  1.7715 -0.1431
  980MOL0     H35175   5.964   7.135   0.408 -2.7835 -1.0350 -2.3252
  980MOL0     H35176   5.861   7.260   0.477 -1.1856  0.8585 -0.8793
  980MOL0     H35177   5.827   7.352   0.238 -1.6464 -0.2969 -1.4613
  980MOL0     H35178   5.913   7.210   0.173 -3.8872 -1.8043 -2.4242
  980MOL0     H35179   5.761   7.058   0.301  3.1031  1.5513 -0.0711
  980MOL0     H35180   5.671   7.198   0.354 -0.6355 -0.7546  0.0396
  980MOL0     H35181   5.692   7.106   0.065  3.2078  3.3495  0.1151
  980MOL0     H35182   5.626   7.263   0.128 -2.0211 -0.0879 -1.7700
  980MOL0     H35183   5.490   7.014   0.219  0.2779  0.1221 -1.9408
  980MOL0     H35184   5.416   7.176   0.197 -1.1883 -0.7933 -0.0446
  980MOL0     H35185   5.373   6.973   0.031 -1.1100  0.5010  1.7107
  980MOL0     H35186   5.509   7.050  -0.056 -0.0659 -0.4831  0.2086
  980MOL0     H35187   5.293   7.153  -0.146  0.1975 -1.8289 -0.1577
  980MOL0     H35188   5.267   7.213   0.014  0.2131 -0.0803  0.0755
  980MOL0     H35189   5.390   7.451   0.046  0.8867 -0.2092  0.9769
  980MOL0     H35190   5.507   7.682  -0.039  1.4691 -0.3298  2.3214
  980MOL0     H35191   5.609   7.672  -0.174 -0.0548 -0.6456  1.2931
  980MOL0     H35192   5.718   7.727   0.049  1.1441 -0.8364  1.9844
  980MOL0     H35193   5.679   7.565   0.113 -1.6373 -0.9623 -0.4465
  980MOL0     H35194   5.905   7.565   0.058  0.3080  0.8018 -1.7443
  980MOL0     H35195   5.827   7.458  -0.046  0.4228  0.4917 -3.4913
  980MOL0     H35196   5.995   7.580  -0.172 -0.3330  0.1728 -3.0176
  980MOL0     H35197   5.844   7.643  -0.219  0.8108 -1.7214 -0.1562
  980MOL0     H35198   6.040   7.993  -0.096  0.3151  2.0604  1.4539
  980MOL0     H35199   6.160   8.173  -0.023 -3.1706 -3.8019  3.0387
  980MOL0     H35200   6.337   8.167  -0.032 -0.7376 -0.2917 -0.5081
  980MOL0     H35201   6.256   8.166   0.128 -0.4210 -0.3673  1.1807
  980MOL0     H35202   6.591   8.252   0.043  0.1219  0.5585  0.6167
  980MOL0     H35203   6.836   8.361   0.070  1.8674 -2.5259 -2.8552
  980MOL0     H35204   7.138   8.177   0.376 -0.1381  0.4556  0.0121
  980MOL0     H35205   7.091   8.077   0.234 -0.8093  0.2592 -0.5599
  980MOL0     H35206   7.315   8.147   0.190  3.9285  4.0103 -0.7951
  980MOL0     H35207   7.218   8.241   0.083  2.1309 -1.4009 -0.9784
  980MOL0     H35208   7.360   8.318   0.337 -0.4508 -0.7535  0.5652
  980MOL0     H35209   7.219   8.417   0.272  0.0839  0.3993  3.3637
  980MOL0     H35210   7.388   8.541   0.161  1.0790  0.5998  0.7005
  980MOL0     H35211   7.379   8.411   0.043  0.0152  0.0837  0.0755
  980MOL0     H35212   7.616   8.437   0.103  1.3408 -0.0647  1.3880
  980MOL0     H35213   7.589   8.442   0.271  4.2618 -2.3628  0.1393
  980MOL0     H35214   7.504   8.190   0.110  0.0238 -1.5267  1.2210
  980MOL0     H35215   7.530   8.209   0.283  1.2281  1.1880  0.6701
  980MOL0     H35216   7.781   8.259   0.218 -0.2340 -1.0929  2.9131
  980MOL0     H35217   7.741   8.223   0.065 -1.4780 -2.6561 -0.5619
  980MOL0     H35218   7.729   8.007   0.276 -0.0505  0.2006 -1.0422
  980MOL0     H35219   7.850   8.035   0.146  0.7428 -0.4601  0.7828
  980MOL0     H35220   6.899   8.043   0.353  0.2530 -0.5683 -0.3800
  980MOL0     H35221   6.682   7.950   0.304  0.4955 -1.6904 -2.2745
  980MOL0     H35222   6.346   7.676   0.118  0.0924  1.0254  0.8383
  980MOL0     H35223   6.133   7.603   0.025  0.8587 -0.0263  3.4218
  980MOL0     H35224   6.359   7.152   0.289 -0.2503 -0.3162  0.4006
  980MOL0     H35225   6.598   7.236   0.332 -0.4942 -1.3910  0.6245
  980MOL0     H35226   6.792   7.770   0.108 -2.2812  0.1978  1.2379
  980MOL0     H35227   6.996   7.889   0.098 -1.3315 -0.0112  0.6723
  980MOL0     H35228   7.340   7.700   0.293 -0.7399  0.1580 -0.2845
  980MOL0     H35229   7.413   7.844   0.231 -0.2797  0.1818 -1.0050
  980MOL0     H35230   7.390   7.784   0.499  1.4106  1.2520  0.5091
  980MOL0     H35231   7.247   7.889   0.484 -2.0585  0.0949 -3.0006
  980MOL0     H35232   7.538   7.956   0.388 -0.9154 -0.6999 -0.7072
  980MOL0     H35233   7.397   8.061   0.392  0.1042 -0.1531  0.3324
  980MOL0     H35234   7.407   8.047   0.636 -1.7658  0.8278 -1.7372
  980MOL0     H35235   7.556   8.114   0.550 -0.5357 -0.7109  0.2796
  980MOL0     H35236   7.717   7.766   0.724 -0.8144 -2.4170 -1.5060
  980MOL0     H35237   7.149   7.656   0.430 -0.8184 -0.9559 -0.3239
  980MOL0     H35238   6.911   7.435   0.448 -1.1203  0.6108 -0.0315
  980MOL0     H35239   6.993   7.523   0.572  0.7836 -0.4575 -0.3977
  980MOL0     H35240   6.820   7.538   0.539  0.4628  2.3918 -0.8991
  981MOL0     O35241   7.157  10.748   8.728 -0.1166  0.2652 -0.1164
  981MOL0     C35242   7.189  10.807   8.827  0.9246 -0.5445 -1.2752
  981MOL0     O35243   7.110  10.824   8.951 -0.1647  0.6521  0.8131
  981MOL0     C35244   7.011  10.729   8.991 -0.2127 -0.0368  0.1625
  981MOL0     C35245   6.957  10.618   8.914  0.3366 -0.2327 -0.6872
  981MOL0     C35246   6.887  10.521   8.974  0.1654 -0.1498  0.1149
  981MOL0     C35247   6.834  10.542   9.101  0.9316 -0.1954 -0.1207
  981MOL0     O35248   6.752  10.444   9.151 -0.7445  0.3737 -0.2700
  981MOL0     C35249   6.739  10.414   9.294 -0.7221  0.2584 -0.4663
  981MOL0     C35250   6.686  10.272   9.314  0.1702 -0.2240  0.9251
  981MOL0     C35251   6.551  10.240   9.237  0.6993  0.0645 -0.3916
  981MOL0     C35252   6.463  10.133   9.304  0.1390 -0.2827  0.3941
  981MOL0     C35253   6.342  10.100   9.211 -0.2185 -1.0616  0.2040
  981MOL0     C35254   6.296   9.961   9.251  0.1547 -0.3109 -0.0595
  981MOL0     C35255   6.146   9.938   9.195  0.0204 -0.0302 -0.2586
  981MOL0     C35256   6.133   9.798   9.134  0.8474 -0.4194  0.5458
  981MOL0     N35257   6.020   9.784   9.045 -0.2754  0.0426 -0.6299
  981MOL0     C35258   5.894   9.830   9.069  0.5147  0.6196 -0.0187
  981MOL0     C35259   5.836   9.829   8.942  0.3772 -0.4078  0.4968
  981MOL0     C35260   5.692   9.880   8.912  0.6032  0.6287 -0.9411
  981MOL0     C35261   5.599   9.773   8.958  1.3075 -0.4028 -0.5458
  981MOL0     C35262   5.459   9.790   8.903  0.1492  0.2754  0.5105
  981MOL0     C35263   5.369   9.666   8.916  0.4125 -0.6061 -0.6023
  981MOL0     O35264   5.308   9.633   9.043  0.1937  0.1062 -0.3497
  981MOL0     C35265   5.222   9.532   9.052  0.8596 -1.0222 -0.2388
  981MOL0     C35266   5.190   9.450   8.951  0.4925  0.3192 -0.0869
  981MOL0     C35267   5.092   9.346   8.966 -0.5102 -0.0446 -0.6828
  981MOL0     C35268   5.077   9.250   8.849 -0.3142 -1.0298 -0.5394
  981MOL0     C35269   5.038   9.327   9.099  0.0506 -0.3992  0.1643
  981MOL0     C35270   4.930   9.220   9.134 -0.3549 -0.4244  1.5242
  981MOL0     O35271   4.841   9.244   9.232  0.2286  0.2201  0.1916
  981MOL0     C35272   4.766   9.139   9.290 -0.0938  0.4433 -1.0928
  981MOL0     C35273   4.624   9.141   9.301 -0.6233  0.2585  0.6843
  981MOL0     C35274   4.560   9.027   9.354  0.2257 -0.9505  0.2709
  981MOL0     C35275   4.634   8.926   9.413 -0.6091  0.6084  0.7214
  981MOL0     O35276   4.557   8.814   9.460 -0.4517 -0.0544 -0.3552
  981MOL0     C35277   4.590   8.682   9.402  1.1367 -0.2532 -0.2801
  981MOL0     C35278   4.490   8.580   9.461  0.5468  0.2330  0.7549
  981MOL0     C35279   4.354   8.621   9.416 -0.2273 -0.3045 -0.5759
  981MOL0     C35280   4.251   8.591   9.533  0.2981 -0.4632 -0.6139
  981MOL0     C35281   4.105   8.602   9.489 -0.9232  1.1799 -0.0492
  981MOL0     C35282   4.060   8.453   9.468 -0.0308 -0.1547  0.0390
  981MOL0     C35283   3.908   8.455   9.417  0.2124  0.3764 -0.2588
  981MOL0     C35284   3.864   8.306   9.395  0.5833 -0.1997 -0.3598
  981MOL0    Cl35285   3.696   8.283   9.334  0.2876 -0.0710 -0.1431
  981MOL0     C35286   4.776   8.920   9.405 -0.4400 -0.8857  0.3096
  981MOL0     C35287   4.835   9.036   9.350  0.1935  0.2882 -0.3084
  981MOL0     O35288   4.955   9.106   9.088 -0.0420 -0.3959  0.5153
  981MOL0     C35289   5.082   9.403   9.203  0.6208 -0.5337 -0.3127
  981MOL0     C35290   5.179   9.504   9.184 -0.8764  0.1470  0.3540
  981MOL0     N35291   5.927   9.788   8.849 -0.2260  0.2287  0.4802
  981MOL0     N35292   6.031   9.748   8.914 -0.1705  0.2762  0.6331
  981MOL0     C35293   6.877  10.650   9.177 -0.0265  1.4034 -0.8944
  981MOL0     C35294   6.965  10.751   9.127 -0.0461  0.1911  1.1208
  981MOL0     C35295   7.321  10.876   8.822 -0.3326 -0.1916 -0.0833
  981MOL0     C35296   7.414  10.836   8.728 -0.3112 -0.3913  0.1956
  981MOL0     C35297   7.541  10.895   8.708 -0.3767 -0.1213 -0.3033
  981MOL0     C35298   7.577  10.999   8.785 -0.0746 -0.3912  0.8411
  981MOL0     O35299   7.685  11.066   8.745 -0.0068  0.1306 -0.7094
  981MOL0     C35300   7.723  11.179   8.815  0.4585  0.1319 -0.3031
  981MOL0     C35301   7.834  11.269   8.760 -0.4720 -0.1096  0.7549
  981MOL0     C35302   7.970  11.194   8.766  0.3802 -0.2658  0.4030
  981MOL0     C35303   8.069  11.255   8.676 -0.2537  0.1895  0.6532
  981MOL0     C35304   8.192  11.172   8.659 -0.0812 -0.3794 -0.5714
  981MOL0     C35305   8.295  11.109   8.651  0.0582 -0.3113  0.5024
  981MOL0     C35306   7.493  11.039   8.895  0.3372  0.3886 -0.3365
  981MOL0     C35307   7.364  10.979   8.914 -0.0054  0.0928 -0.2902
  981MOL0     C35308   7.271  11.030   9.023 -0.1842  0.6817 -0.2707
  981MOL0     H35309   6.989  10.606   8.811  1.6672  1.3729 -0.4895
  981MOL0     H35310   6.869  10.435   8.911  0.1973 -0.0852  0.0183
  981MOL0     H35311   6.672  10.490   9.335 -0.9744  1.7012 -3.3304
  981MOL0     H35312   6.828  10.421   9.357 -0.9576  0.0608 -0.1026
  981MOL0     H35313   6.760  10.204   9.270 -1.3276  0.0280 -2.3026
  981MOL0     H35314   6.667  10.250   9.419 -1.1297 -2.1604  0.3479
  981MOL0     H35315   6.501  10.336   9.226  2.7807  1.4468  1.5589
  981MOL0     H35316   6.573  10.206   9.135 -1.6963 -2.3387 -0.2296
  981MOL0     H35317   6.526  10.044   9.309 -1.3078 -1.4359 -0.7906
  981MOL0     H35318   6.420  10.164   9.400 -3.7153 -1.8841 -0.6305
  981MOL0     H35319   6.379  10.106   9.108  0.4334  0.5631  0.5042
  981MOL0     H35320   6.259  10.166   9.236 -0.3379 -1.8017  1.9325
  981MOL0     H35321   6.357   9.883   9.204 -0.2189 -0.8150  0.2822
  981MOL0     H35322   6.307   9.950   9.359 -1.9242  1.6326  0.4459
  981MOL0     H35323   6.113  10.013   9.122 -3.2008  2.8859  3.7852
  981MOL0     H35324   6.072   9.949   9.274 -3.1472  4.0852 -3.3308
  981MOL0     H35325   6.221   9.772   9.074  0.9817  2.5534 -0.7130
  981MOL0     H35326   6.129   9.726   9.216 -2.9258  1.4049  2.2134
  981MOL0     H35327   5.849   9.855   9.165 -0.3294 -2.3899  0.4976
  981MOL0     H35328   5.674   9.880   8.804 -2.2176 -0.6167 -0.5642
  981MOL0     H35329   5.676   9.979   8.955  0.8457 -0.5498  2.1643
  981MOL0     H35330   5.648   9.676   8.941  0.2554 -0.9918 -0.2588
  981MOL0     H35331   5.590   9.783   9.067  1.8204  2.2234 -0.6803
  981MOL0     H35332   5.427   9.883   8.951 -0.8721  0.3253 -0.2410
  981MOL0     H35333   5.475   9.807   8.796  0.2322  1.5177  0.7051
  981MOL0     H35334   5.285   9.689   8.850  1.0564 -2.3040 -2.0980
  981MOL0     H35335   5.404   9.576   8.866 -1.3271 -1.9430  0.4551
  981MOL0     H35336   5.233   9.457   8.851  2.4906 -1.0141  0.6026
  981MOL0     H35337   5.170   9.195   8.832  1.1671  1.4248 -0.8082
  981MOL0     H35338   5.068   9.310   8.758 -2.4927  0.7322  0.7183
  981MOL0     H35339   4.995   9.178   8.844  0.6439 -2.2194  0.2799
  981MOL0     H35340   4.564   9.219   9.255 -0.9858 -2.1039 -3.3749
  981MOL0     H35341   4.453   9.022   9.369  0.5533 -2.9211  2.5359
  981MOL0     H35342   4.574   8.696   9.294  0.2898  3.5224  0.2141
  981MOL0     H35343   4.692   8.647   9.418  1.1035 -0.7097 -1.0031
  981MOL0     H35344   4.500   8.476   9.429  0.4890  0.7273 -0.9321
  981MOL0     H35345   4.486   8.575   9.570 -1.8623  0.0133  0.7109
  981MOL0     H35346   4.330   8.554   9.334 -0.7332  0.4306 -1.0436
  981MOL0     H35347   4.342   8.727   9.389 -1.7519 -0.0259  1.0303
  981MOL0     H35348   4.271   8.679   9.594  0.2114 -1.0769  0.3110
  981MOL0     H35349   4.262   8.496   9.586  0.6252 -0.1597 -0.1310
  981MOL0     H35350   4.045   8.645   9.570 -1.3713  1.8768 -0.7322
  981MOL0     H35351   4.088   8.671   9.405 -0.4751 -0.2155 -1.3278
  981MOL0     H35352   4.067   8.390   9.557  2.0134  0.3262  0.2574
  981MOL0     H35353   4.118   8.396   9.395  1.4741 -1.4861  2.1803
  981MOL0     H35354   3.901   8.511   9.323 -1.1003 -3.2374 -2.5534
  981MOL0     H35355   3.847   8.499   9.497 -2.2854 -0.1203 -1.7766
  981MOL0     H35356   3.878   8.257   9.492  1.6068 -2.8273 -1.7405
  981MOL0     H35357   3.932   8.257   9.326  1.0851 -1.0638  0.7274
  981MOL0     H35358   4.843   8.844   9.444  3.5645  1.8987 -0.4758
  981MOL0     H35359   4.943   9.049   9.351  0.4930 -1.7649  0.7880
  981MOL0     H35360   5.038   9.386   9.301 -0.7064  0.9915 -0.6153
  981MOL0     H35361   5.204   9.564   9.271 -2.1668  0.9217  0.2066
  981MOL0     H35362   6.854  10.657   9.283  0.6693 -0.4473 -0.5903
  981MOL0     H35363   7.007  10.831   9.187 -1.0786  0.1351  1.9534
  981MOL0     H35364   7.381  10.764   8.653 -1.3054  1.6332 -1.3952
  981MOL0     H35365   7.595  10.872   8.617  1.3129  0.9084  0.3850
  981MOL0     H35366   7.639  11.249   8.818  0.4197  0.3005 -3.1693
  981MOL0     H35367   7.752  11.149   8.917 -2.8789  0.7073  0.9345
  981MOL0     H35368   7.836  11.368   8.806  2.0024 -0.2696  1.1346
  981MOL0     H35369   7.811  11.294   8.656 -1.1760 -1.5635  0.5376
  981MOL0     H35370   8.010  11.212   8.867  2.3507  0.3421 -0.4440
  981MOL0     H35371   7.963  11.086   8.747  1.1771 -0.7135  2.3615
  981MOL0     H35372   8.100  11.355   8.705 -0.1470  0.5573 -0.6886
  981MOL0     H35373   8.021  11.262   8.578  1.0017 -0.2041 -0.0003
  981MOL0     H35374   8.396  11.075   8.635  0.6939  1.2407  1.0718
  981MOL0     H35375   7.527  11.125   8.952  1.1883  0.1745 -0.5098
  981MOL0     H35376   7.320  11.107   9.084 -0.6977  1.5784 -0.9704
  981MOL0     H35377   7.178  11.077   8.990  0.1311  2.5936  1.3173
  981MOL0     H35378   7.257  10.946   9.092  3.9202  0.4271  0.5127
  982MOL0     O35379   0.096   3.430   7.885 -0.1086  0.1720  0.5816
  982MOL0     C35380   0.041   3.534   7.909 -0.3023 -0.7982  0.5891
  982MOL0     O35381   0.080   3.628   8.002 -0.0816  0.3126  0.1656
  982MOL0     C35382   0.203   3.612   8.072  0.6636 -0.3621  0.8527
  982MOL0     C35383   0.213   3.672   8.202 -0.2560 -1.1188 -0.3681
  982MOL0     C35384   0.339   3.664   8.267  0.3054 -0.3233  1.5521
  982MOL0     C35385   0.446   3.603   8.202  0.3390  0.7100  0.4797
  982MOL0     O35386   0.559   3.584   8.262  0.1122 -0.0945 -0.3090
  982MOL0     C35387   0.560   3.509   8.380  0.1547 -0.0846 -0.2522
  982MOL0     C35388   0.701   3.448   8.396 -0.8847 -0.2022 -0.3028
  982MOL0     C35389   0.814   3.533   8.339  0.7928 -0.0600  0.1065
  982MOL0     C35390   0.941   3.456   8.373 -0.5726 -0.7138 -0.6406
  982MOL0     C35391   1.059   3.504   8.289  0.0231 -0.2075 -0.5264
  982MOL0     C35392   1.095   3.647   8.311  0.1732  0.1668  0.4175
  982MOL0     C35393   1.245   3.683   8.258 -0.3328 -0.0630 -0.3541
  982MOL0     C35394   1.260   3.703   8.107 -0.8609 -0.6110  0.5858
  982MOL0     N35395   1.402   3.711   8.067 -1.1387  0.0974 -0.3417
  982MOL0     C35396   1.473   3.831   8.073 -0.1169  0.4499 -0.7439
  982MOL0     C35397   1.603   3.787   8.067 -0.7016  0.0993 -0.6734
  982MOL0     C35398   1.716   3.883   8.104 -0.4258 -0.1549 -0.2759
  982MOL0     C35399   1.839   3.800   8.124 -0.7580  0.0983  0.0183
  982MOL0     C35400   1.887   3.725   8.000 -0.3754  0.7728  0.8293
  982MOL0     C35401   2.040   3.734   7.994  0.1734  0.5214 -0.0653
  982MOL0     O35402   2.081   3.874   8.001  0.5549 -0.4539  0.0818
  982MOL0     C35403   2.197   3.922   8.053 -0.7351 -0.5412  0.4697
  982MOL0     C35404   2.211   4.058   8.087 -0.2243 -0.2007  0.5907
  982MOL0     C35405   2.332   4.109   8.145 -0.1665 -0.2939  0.0725
  982MOL0     C35406   2.331   4.257   8.187  0.6450  0.5781  0.1017
  982MOL0     C35407   2.441   4.018   8.165 -0.8022 -0.4135 -0.5478
  982MOL0     C35408   2.564   4.060   8.234  0.4833  0.5669  0.0688
  982MOL0     O35409   2.640   3.957   8.286 -0.1833  0.1357  1.3728
  982MOL0     C35410   2.780   3.974   8.303 -0.1359 -0.3663  0.2854
  982MOL0     C35411   2.847   3.872   8.367 -0.9246 -0.1527  0.6076
  982MOL0     C35412   2.988   3.865   8.382  0.2056  0.2703 -0.6145
  982MOL0     C35413   3.061   3.972   8.346  0.5285 -0.8005  0.5264
  982MOL0     O35414   3.197   3.966   8.385  0.1855  0.2028  0.0124
  982MOL0     C35415   3.261   4.096   8.402  0.6722  0.6147 -0.8165
  982MOL0     C35416   3.341   4.117   8.285  0.0083  0.4204  0.3553
  982MOL0     C35417   3.360   4.267   8.252 -0.5485  0.0435 -0.4068
  982MOL0     C35418   3.429   4.285   8.114  0.1477  0.2739  0.3001
  982MOL0     C35419   3.468   4.426   8.081 -0.7585 -0.7077  0.2884
  982MOL0     C35420   3.563   4.434   7.962  0.0843  0.7814  0.7219
  982MOL0     C35421   3.599   4.568   7.907 -0.1882 -0.1265 -0.3375
  982MOL0     C35422   3.702   4.551   7.791  0.3862 -0.3934  0.3660
  982MOL0    Cl35423   3.866   4.533   7.865 -0.1706  0.1103  0.5037
  982MOL0     C35424   2.999   4.074   8.268  0.0081  0.7134 -0.3953
  982MOL0     C35425   2.863   4.071   8.245 -0.7259  0.2940 -0.2979
  982MOL0     O35426   2.594   4.179   8.232 -0.8952  0.3813 -0.1064
  982MOL0     C35427   2.422   3.881   8.139 -0.3384 -1.4223  1.5490
  982MOL0     C35428   2.301   3.837   8.076 -0.0941 -0.0394 -0.5364
  982MOL0     N35429   1.603   3.647   8.065  0.4872 -0.3251  0.8130
  982MOL0     N35430   1.484   3.600   8.043 -0.4610 -0.5506  0.1205
  982MOL0     C35431   0.435   3.561   8.074  0.0837  0.1293  0.5026
  982MOL0     C35432   0.316   3.562   8.008  0.1090  0.7517  0.0609
  982MOL0     C35433  -0.081   3.559   7.836 -0.2373  0.3525  0.2909
  982MOL0     C35434  -0.068   3.569   7.699  0.5131 -0.0709 -0.0733
  982MOL0     C35435  -0.177   3.578   7.614  0.5688  1.0274 -0.5082
  982MOL0     C35436  -0.308   3.580   7.667 -0.7270  1.2498 -0.8125
  982MOL0     O35437  -0.401   3.603   7.562  0.5987  0.4213 -0.1991
  982MOL0     C35438  -0.531   3.633   7.604  0.2732  0.4973  0.6106
  982MOL0     C35439  -0.562   3.782   7.593 -0.3279  0.1149  0.2584
  982MOL0     C35440  -0.703   3.819   7.636 -0.6849  0.3576 -0.2542
  982MOL0     C35441  -0.820   3.748   7.567 -0.1498 -0.5597  0.8833
  982MOL0     C35442  -0.831   3.795   7.424  0.0125 -0.4186 -0.2385
  982MOL0     C35443  -0.838   3.811   7.305 -0.0787  0.1001 -0.2130
  982MOL0     C35444  -0.317   3.580   7.810  0.4928  0.3993 -0.4016
  982MOL0     C35445  -0.209   3.559   7.890  1.2700  0.0737  0.5488
  982MOL0     C35446  -0.237   3.549   8.038  0.3491  1.1823  0.5541
  982MOL0     H35447   0.134   3.722   8.257  2.2288  0.5175  1.9744
  982MOL0     H35448   0.336   3.704   8.368 -0.6020  1.3848  0.9055
  982MOL0     H35449   0.492   3.424   8.371 -1.5435  1.4513 -3.4337
  982MOL0     H35450   0.542   3.575   8.466 -1.0721  0.6572 -1.0500
  982MOL0     H35451   0.712   3.437   8.505  3.5388  1.6379 -0.3425
  982MOL0     H35452   0.697   3.347   8.357 -0.8427  0.6247 -2.5648
  982MOL0     H35453   0.800   3.542   8.231  1.1131  0.8170  0.1318
  982MOL0     H35454   0.816   3.635   8.378 -0.4590  0.1436 -0.3106
  982MOL0     H35455   0.963   3.478   8.478 -0.8706 -0.9913 -0.5177
  982MOL0     H35456   0.932   3.351   8.348 -2.1247 -0.5375 -0.8808
  982MOL0     H35457   1.045   3.493   8.181  1.0279  3.8370 -1.2490
  982MOL0     H35458   1.146   3.442   8.314 -1.4831 -1.5893  1.5865
  982MOL0     H35459   1.016   3.706   8.263  0.5155 -0.3146 -0.7782
  982MOL0     H35460   1.095   3.671   8.417  0.0134  2.4527 -0.0510
  982MOL0     H35461   1.320   3.611   8.293  2.0551  1.2567 -2.4162
  982MOL0     H35462   1.274   3.782   8.295 -0.3472 -0.5692  1.0903
  982MOL0     H35463   1.212   3.615   8.065 -3.1383  1.1258 -0.7040
  982MOL0     H35464   1.214   3.794   8.066 -2.4622 -0.8088  1.8586
  982MOL0     H35465   1.447   3.929   8.112 -0.2829 -0.4018  1.4148
  982MOL0     H35466   1.695   3.935   8.198 -0.7353 -1.5063  0.4272
  982MOL0     H35467   1.731   3.958   8.026 -0.1650  2.0281  1.7646
  982MOL0     H35468   1.912   3.873   8.161 -0.0900 -1.1089  1.1621
  982MOL0     H35469   1.826   3.727   8.204  2.7097  0.2762  0.9008
  982MOL0     H35470   1.853   3.622   8.011 -1.7287  1.3623  2.7768
  982MOL0     H35471   1.844   3.768   7.909 -1.7849 -3.3892 -0.6894
  982MOL0     H35472   2.087   3.683   8.079  0.2068 -0.4135 -0.6348
  982MOL0     H35473   2.080   3.675   7.911  2.0958 -3.2769  3.1738
  982MOL0     H35474   2.126   4.124   8.073 -0.9597 -0.7420  2.2692
  982MOL0     H35475   2.343   4.270   8.295 -0.1991 -0.5863  0.3544
  982MOL0     H35476   2.234   4.297   8.157 -0.9599 -3.9543 -1.6353
  982MOL0     H35477   2.406   4.315   8.132  0.0653  1.0073 -0.2480
  982MOL0     H35478   2.798   3.784   8.408 -0.5899 -2.0603 -2.7384
  982MOL0     H35479   3.035   3.778   8.425  0.0134  0.2710 -0.3965
  982MOL0     H35480   3.191   4.179   8.411  0.9467  0.8923 -1.1932
  982MOL0     H35481   3.322   4.095   8.493  0.6709 -0.3828 -0.8158
  982MOL0     H35482   3.439   4.070   8.300  0.9965  1.8294 -1.3101
  982MOL0     H35483   3.312   4.056   8.199  2.1419 -3.4132  2.0875
  982MOL0     H35484   3.416   4.316   8.333  0.7695 -1.4097 -0.3942
  982MOL0     H35485   3.267   4.324   8.239 -0.5879 -0.4109 -2.4344
  982MOL0     H35486   3.365   4.246   8.035 -0.3639  0.1758  0.7544
  982MOL0     H35487   3.523   4.229   8.109  0.0933  0.2787 -4.0862
  982MOL0     H35488   3.378   4.486   8.065 -0.5958  0.8740  4.2001
  982MOL0     H35489   3.524   4.462   8.168 -3.2589  0.8126  1.3598
  982MOL0     H35490   3.526   4.363   7.887  0.6997 -0.2890  1.3974
  982MOL0     H35491   3.653   4.389   8.006 -0.0919  1.1544  1.4845
  982MOL0     H35492   3.638   4.642   7.978  1.4493 -2.0411  0.8641
  982MOL0     H35493   3.507   4.597   7.857  0.6026 -1.6965 -2.9017
  982MOL0     H35494   3.707   4.641   7.728  0.9979 -0.1115  0.8069
  982MOL0     H35495   3.676   4.474   7.718 -0.6091  0.4779 -0.2300
  982MOL0     H35496   3.061   4.154   8.229  1.4590 -0.8511 -1.4350
  982MOL0     H35497   2.825   4.158   8.193 -0.1367  0.8089  0.1246
  982MOL0     H35498   2.499   3.811   8.170  3.9832  2.0152 -0.2715
  982MOL0     H35499   2.301   3.733   8.044  1.0398 -0.3346  0.3559
  982MOL0     H35500   0.528   3.520   8.035 -0.2855  0.2792 -0.5527
  982MOL0     H35501   0.325   3.519   7.909 -0.7830 -0.7033  0.5856
  982MOL0     H35502   0.029   3.583   7.653  2.1345 -1.3655  2.7275
  982MOL0     H35503  -0.168   3.606   7.509 -0.5204 -1.7377 -1.4209
  982MOL0     H35504  -0.589   3.580   7.529 -1.8378  0.6222  2.0566
  982MOL0     H35505  -0.554   3.588   7.701  1.5449 -0.6729  0.4101
  982MOL0     H35506  -0.549   3.818   7.491 -1.8475 -0.3133 -0.1202
  982MOL0     H35507  -0.494   3.839   7.658  1.1912 -0.6727 -0.5971
  982MOL0     H35508  -0.713   3.808   7.744 -0.1071  0.4315 -0.1862
  982MOL0     H35509  -0.712   3.926   7.615  0.9396  0.9700  1.8920
  982MOL0     H35510  -0.917   3.776   7.610 -0.5375  1.6845 -1.2047
  982MOL0     H35511  -0.804   3.641   7.584  0.0755 -0.4623  1.2923
  982MOL0     H35512  -0.854   3.842   7.203 -1.0959 -0.2003 -0.1556
  982MOL0     H35513  -0.417   3.598   7.849 -1.1135  2.6877 -4.9205
  982MOL0     H35514  -0.278   3.448   8.045  0.6696  1.0758  0.9131
  982MOL0     H35515  -0.142   3.549   8.092  1.0541  1.5603 -0.6562
  982MOL0     H35516  -0.303   3.630   8.068 -0.3919  0.6936  0.2759
  983MOL0     O35517   4.664   9.362   5.708 -0.5284  0.7425  0.7246
  983MOL0     C35518   4.754   9.316   5.779  0.7788 -0.3390 -0.8482
  983MOL0     O35519   4.764   9.188   5.823 -0.2003  0.6782 -0.0338
  983MOL0     C35520   4.660   9.102   5.813 -0.2902  0.4665 -0.5735
  983MOL0     C35521   4.692   8.967   5.784  0.0078 -0.0323 -0.5564
  983MOL0     C35522   4.585   8.873   5.792 -0.3280 -0.0852 -0.5667
  983MOL0     C35523   4.462   8.897   5.854 -0.3541  1.1394 -0.0580
  983MOL0     O35524   4.377   8.800   5.895 -0.0493 -0.2452 -0.7458
  983MOL0     C35525   4.315   8.819   6.026  0.3498 -0.5258 -0.1445
  983MOL0     C35526   4.233   8.694   6.085  0.9942 -0.3217 -0.5310
  983MOL0     C35527   4.129   8.655   5.978  0.0259  0.1711  0.5481
  983MOL0     C35528   4.003   8.584   6.025 -1.2839 -0.5259  0.6799
  983MOL0     C35529   3.883   8.581   5.930 -0.2236 -0.2076 -0.5401
  983MOL0     C35530   3.772   8.487   5.986  0.1213 -0.2734 -0.0331
  983MOL0     C35531   3.644   8.537   5.922 -0.7342 -0.0786  0.5707
  983MOL0     C35532   3.519   8.496   6.004 -0.8529  0.3316  0.0087
  983MOL0     N35533   3.518   8.356   6.018 -0.1213  0.2149 -0.3987
  983MOL0     C35534   3.564   8.278   6.125  0.7225  0.2370 -0.3281
  983MOL0     C35535   3.535   8.146   6.086  0.5064 -0.7210  0.5444
  983MOL0     C35536   3.531   8.017   6.169  0.3640  0.5053 -0.8493
  983MOL0     C35537   3.653   7.922   6.152 -1.4331 -0.0882  0.2907
  983MOL0     C35538   3.620   7.775   6.182  0.7327  0.2089 -0.0221
  983MOL0     C35539   3.565   7.738   6.328  0.1857 -0.6618 -0.3312
  983MOL0     O35540   3.665   7.768   6.426 -0.3170  0.8150  0.2431
  983MOL0     C35541   3.778   7.696   6.442 -0.3409 -0.9169 -0.8063
  983MOL0     C35542   3.791   7.563   6.414  0.3969 -0.3165  0.3484
  983MOL0     C35543   3.914   7.502   6.433 -0.0961 -0.6918 -0.0805
  983MOL0     C35544   3.918   7.363   6.399  0.1507  0.6902  0.9952
  983MOL0     C35545   4.022   7.571   6.494 -0.4340  0.3224  0.5992
  983MOL0     C35546   4.157   7.512   6.505 -0.3540 -0.5594 -0.6288
  983MOL0     O35547   4.176   7.388   6.461 -0.2641  0.0433 -0.1116
  983MOL0     C35548   4.305   7.337   6.475  0.1173  0.3373 -0.3256
  983MOL0     C35549   4.321   7.225   6.554  0.0360  0.1639  0.0908
  983MOL0     C35550   4.449   7.177   6.588  0.3232 -0.2470 -1.0562
  983MOL0     C35551   4.564   7.231   6.527 -0.1440  0.1790 -1.0015
  983MOL0     O35552   4.691   7.181   6.558  0.2538 -0.2617  0.2802
  983MOL0     C35553   4.757   7.107   6.453 -0.0338  0.3418 -0.7557
  983MOL0     C35554   4.908   7.090   6.505  0.7976  0.0571  0.5912
  983MOL0     C35555   4.972   7.219   6.549 -0.0956  0.7687 -0.9703
  983MOL0     C35556   4.980   7.342   6.455  0.4321  0.7661  0.1736
  983MOL0     C35557   4.995   7.474   6.533 -0.4282 -0.0455 -0.2111
  983MOL0     C35558   5.133   7.521   6.566  0.6884 -0.2347  0.4586
  983MOL0     C35559   5.215   7.555   6.440 -0.3172  0.4357 -0.3705
  983MOL0     C35560   5.341   7.621   6.475  0.5099  0.0330 -0.2645
  983MOL0    Cl35561   5.431   7.525   6.606 -0.1323  0.0002  0.2538
  983MOL0     C35562   4.545   7.335   6.430 -0.0649  0.4428  0.2579
  983MOL0     C35563   4.414   7.388   6.407 -0.5361  0.2679  0.0369
  983MOL0     O35564   4.244   7.578   6.571  0.3627  0.7984 -0.0990
  983MOL0     C35565   4.009   7.714   6.522 -0.5346  0.1080 -0.5833
  983MOL0     C35566   3.890   7.777   6.498  0.4475  0.4398 -1.1946
  983MOL0     N35567   3.477   8.148   5.962 -0.3372  0.6672  1.0337
  983MOL0     N35568   3.477   8.271   5.919  1.1032 -0.0402  0.1601
  983MOL0     C35569   4.434   9.034   5.875 -0.4781 -0.1731 -0.1199
  983MOL0     C35570   4.528   9.131   5.852 -0.7231  0.1273  0.1533
  983MOL0     C35571   4.868   9.407   5.802  0.7723 -0.5334 -0.3325
  983MOL0     C35572   4.839   9.542   5.815 -0.1239 -0.3313 -0.4904
  983MOL0     C35573   4.941   9.630   5.849 -0.6020  0.4462  0.2404
  983MOL0     C35574   5.072   9.589   5.856  0.1937  0.3624 -0.3537
  983MOL0     O35575   5.162   9.687   5.872  0.2150  0.4036 -0.2113
  983MOL0     C35576   5.266   9.653   5.971 -0.5395  0.3350 -0.1792
  983MOL0     C35577   5.215   9.681   6.114  0.7652  0.4243 -0.1192
  983MOL0     C35578   5.312   9.638   6.227 -0.0581 -0.2094 -0.6144
  983MOL0     C35579   5.253   9.691   6.359  0.0508  0.1793  0.9349
  983MOL0     C35580   5.365   9.693   6.458  0.4203 -0.5685  0.1020
  983MOL0     C35581   5.463   9.701   6.529 -0.4130 -1.0763 -0.1296
  983MOL0     C35582   5.096   9.454   5.836 -0.3832  0.0561 -0.2855
  983MOL0     C35583   4.998   9.364   5.808  0.0931  0.3216  0.4553
  983MOL0     C35584   5.041   9.220   5.790  0.0673  0.3945 -0.6915
  983MOL0     H35585   4.794   8.942   5.755 -0.3980  0.6812 -2.8624
  983MOL0     H35586   4.614   8.772   5.765  0.8894 -0.7293  2.7241
  983MOL0     H35587   4.249   8.905   6.021 -1.3823 -1.8256 -0.6527
  983MOL0     H35588   4.396   8.844   6.095 -0.4207  3.0273 -0.3799
  983MOL0     H35589   4.300   8.610   6.101  0.0553 -0.9184  0.4475
  983MOL0     H35590   4.180   8.716   6.178  0.5028 -0.8697 -0.6706
  983MOL0     H35591   4.082   8.740   5.927 -3.6563 -1.2965  1.2036
  983MOL0     H35592   4.177   8.604   5.894 -2.2914  0.3088 -0.9407
  983MOL0     H35593   4.039   8.482   6.040 -0.9965 -0.3011  1.5876
  983MOL0     H35594   3.975   8.625   6.123 -0.8806  2.0108 -0.1935
  983MOL0     H35595   3.917   8.559   5.828  2.5566 -1.5910  0.5863
  983MOL0     H35596   3.849   8.684   5.941  0.7730 -0.1016  2.3615
  983MOL0     H35597   3.789   8.380   5.973  0.1150 -0.0089 -2.6605
  983MOL0     H35598   3.769   8.500   6.095 -1.2406  1.2568 -0.2124
  983MOL0     H35599   3.639   8.488   5.824  0.2120 -0.5215  0.7288
  983MOL0     H35600   3.643   8.646   5.919  1.7473 -0.0260  0.4201
  983MOL0     H35601   3.520   8.539   6.105 -0.5868  2.8880 -1.0177
  983MOL0     H35602   3.429   8.530   5.952 -0.0548  1.1829 -0.8555
  983MOL0     H35603   3.601   8.317   6.219 -2.3169  0.8833  0.6867
  983MOL0     H35604   3.437   7.969   6.141 -0.2000  2.0353 -1.6671
  983MOL0     H35605   3.513   8.033   6.275 -0.9642  1.8432 -1.2515
  983MOL0     H35606   3.673   7.928   6.045 -0.3090 -0.9576  0.4411
  983MOL0     H35607   3.737   7.962   6.209 -0.1508  0.7449 -2.0813
  983MOL0     H35608   3.561   7.731   6.102  0.9719 -1.3661  0.6217
  983MOL0     H35609   3.710   7.712   6.182  0.9135  0.4025 -2.3284
  983MOL0     H35610   3.476   7.800   6.342  0.8210  0.3776 -0.8396
  983MOL0     H35611   3.534   7.633   6.336 -2.7330 -0.0149 -1.7134
  983MOL0     H35612   3.704   7.517   6.367  2.1498 -2.5488 -0.8668
  983MOL0     H35613   3.924   7.304   6.491  0.9096 -0.8223  0.0130
  983MOL0     H35614   3.996   7.338   6.326  1.2850 -2.2474  3.0437
  983MOL0     H35615   3.824   7.332   6.351 -1.2376  1.1003  3.3072
  983MOL0     H35616   4.230   7.174   6.582  2.0127 -2.6809  1.8971
  983MOL0     H35617   4.448   7.084   6.644  0.8885  0.6473  0.5014
  983MOL0     H35618   4.703   7.016   6.427  0.5685  0.4207 -2.4033
  983MOL0     H35619   4.753   7.171   6.364  1.4091  1.7297  0.1209
  983MOL0     H35620   4.887   7.030   6.594 -0.5638 -3.1435 -1.6945
  983MOL0     H35621   4.977   7.051   6.430 -0.7474  1.1656 -1.5269
  983MOL0     H35622   5.073   7.182   6.566 -0.1774  0.8522 -0.2766
  983MOL0     H35623   4.924   7.245   6.644  0.9422 -2.1527  0.4792
  983MOL0     H35624   4.878   7.349   6.416 -0.3625 -1.3587  1.6998
  983MOL0     H35625   5.041   7.340   6.365 -0.6617  4.1345 -0.8209
  983MOL0     H35626   4.943   7.549   6.472  0.8561 -2.2367 -4.3608
  983MOL0     H35627   4.941   7.475   6.628 -0.5444  3.6386 -0.1573
  983MOL0     H35628   5.188   7.448   6.627  4.1386  3.0188  1.6486
  983MOL0     H35629   5.127   7.611   6.628  0.8704 -0.6240  1.0521
  983MOL0     H35630   5.159   7.621   6.374 -0.2431 -0.2258 -1.1201
  983MOL0     H35631   5.232   7.465   6.379  2.9653  2.5688 -2.9479
  983MOL0     H35632   5.308   7.722   6.499 -0.4945  0.6322 -3.6296
  983MOL0     H35633   5.402   7.640   6.387  3.0621 -0.2009  1.3688
  983MOL0     H35634   4.631   7.381   6.383  0.5379 -0.4858  0.4270
  983MOL0     H35635   4.391   7.459   6.328 -1.6931  3.1981  2.7963
  983MOL0     H35636   4.093   7.769   6.563 -0.9187  1.2077 -1.2373
  983MOL0     H35637   3.876   7.882   6.520  2.8739  0.6924 -0.5492
  983MOL0     H35638   4.348   9.065   5.934 -1.9896 -5.2293  0.8520
  983MOL0     H35639   4.514   9.236   5.876  2.7392  0.3292  1.8727
  983MOL0     H35640   4.737   9.578   5.804  0.1686 -0.1037 -2.9767
  983MOL0     H35641   4.927   9.737   5.861 -1.6858  0.0378  4.0795
  983MOL0     H35642   5.297   9.548   5.963  0.8412  0.7275 -0.2940
  983MOL0     H35643   5.345   9.726   5.949  1.6329 -1.4825  1.1113
  983MOL0     H35644   5.127   9.617   6.116  1.9199 -1.1962  0.2052
  983MOL0     H35645   5.186   9.785   6.131  0.9230  0.4882 -0.2389
  983MOL0     H35646   5.312   9.529   6.228 -0.5568 -0.2101  0.5191
  983MOL0     H35647   5.414   9.675   6.211  0.4333 -1.5682 -0.7234
  983MOL0     H35648   5.178   9.614   6.381  2.8922 -2.9009  0.7859
  983MOL0     H35649   5.218   9.793   6.343 -1.0634 -0.4008 -0.6765
  983MOL0     H35650   5.546   9.697   6.598 -0.5541 -2.6169 -0.0107
  983MOL0     H35651   5.203   9.433   5.836  0.5855  4.1940 -0.3438
  983MOL0     H35652   5.000   9.167   5.876 -1.6300 -1.0571 -2.3215
  983MOL0     H35653   5.005   9.181   5.695 -2.6197  0.1040  0.3541
  983MOL0     H35654   5.150   9.205   5.791  0.2006  1.2709 -0.3866
  984MOL0     O35655   9.870   4.029   3.802 -1.0518  0.2929  0.5220
  984MOL0     C35656   9.933   4.068   3.700 -0.2599  0.1263 -0.1816
  984MOL0     O35657  10.023   4.176   3.692  0.4853  0.0132 -0.5573
  984MOL0     C35658  10.016   4.264   3.793 -0.7477 -0.0224 -1.3178
  984MOL0     C35659  10.146   4.313   3.837 -0.4340 -0.5547  1.0216
  984MOL0     C35660  10.166   4.411   3.932  0.6620 -0.6746 -0.9459
  984MOL0     C35661  10.053   4.465   3.999 -0.1204  0.4854 -0.5419
  984MOL0     O35662  10.057   4.560   4.098  0.3418  0.8028  0.3715
  984MOL0     C35663  10.158   4.660   4.072  0.3503 -0.2082  0.9955
  984MOL0     C35664  10.145   4.775   4.158 -0.6087 -1.0573 -0.1848
  984MOL0     C35665  10.290   4.829   4.180  0.5273  0.1953 -0.1363
  984MOL0     C35666  10.280   4.956   4.266  0.4721  0.0950  0.4626
  984MOL0     C35667  10.418   5.011   4.325  0.3048 -0.1777  0.1588
  984MOL0     C35668  10.497   5.082   4.216 -0.1899 -0.1210 -0.4836
  984MOL0     C35669  10.651   5.101   4.254 -0.6499  0.3050  0.4131
  984MOL0     C35670  10.727   4.990   4.177 -0.1619  0.3880  0.0848
  984MOL0     N35671  10.866   4.992   4.214  0.0763 -0.5515 -0.3605
  984MOL0     C35672  10.924   5.014   4.331 -0.2351 -0.8368 -0.3303
  984MOL0     C35673  11.054   5.033   4.300 -0.5495  0.3937  0.7450
  984MOL0     C35674  11.161   5.056   4.394  0.2437  0.0791 -0.0183
  984MOL0     C35675  11.243   4.933   4.414  0.3691 -0.1218  0.3468
  984MOL0     C35676  11.342   4.933   4.532  0.7601 -0.7319  0.1427
  984MOL0     C35677  11.424   4.803   4.538 -0.3754 -0.3934 -0.4979
  984MOL0     O35678  11.527   4.802   4.439 -0.6987  0.3739  0.0006
  984MOL0     C35679  11.640   4.725   4.458 -1.0795  0.4870  0.3324
  984MOL0     C35680  11.712   4.719   4.579 -0.5141 -0.1320  0.4637
  984MOL0     C35681  11.834   4.654   4.594  0.2441  0.1246  0.9322
  984MOL0     C35682  11.918   4.679   4.720  0.3370  0.9443 -0.5372
  984MOL0     C35683  11.885   4.580   4.482 -0.1892 -0.0165 -0.5584
  984MOL0     C35684  12.015   4.511   4.476 -0.5653 -0.9636  0.6823
  984MOL0     O35685  12.052   4.480   4.348  0.4354 -0.7587  0.0936
  984MOL0     C35686  12.180   4.429   4.321  0.3539  0.3896  0.4500
  984MOL0     C35687  12.203   4.294   4.291  0.4858  0.4070  0.0877
  984MOL0     C35688  12.330   4.243   4.277  0.1521 -0.5512 -0.5254
  984MOL0     C35689  12.436   4.337   4.277 -0.5802 -0.0729  0.0252
  984MOL0     O35690  12.570   4.294   4.266  0.2614  0.2034  0.1837
  984MOL0     C35691  12.611   4.163   4.218 -0.2471 -1.2286  0.9703
  984MOL0     C35692  12.761   4.154   4.196 -0.3172  0.3171 -1.0224
  984MOL0     C35693  12.811   4.281   4.118 -0.0991  0.1453 -0.0165
  984MOL0     C35694  12.949   4.257   4.077 -1.1717 -0.6760  0.0062
  984MOL0     C35695  13.011   4.354   3.979 -0.5629  0.5960  0.2772
  984MOL0     C35696  13.160   4.330   3.949  0.2272 -0.4806 -0.3237
  984MOL0     C35697  13.221   4.439   3.853  0.5346  0.4661 -0.7376
  984MOL0     C35698  13.371   4.440   3.831  1.1354  0.0936  1.1105
  984MOL0    Cl35699  13.477   4.449   3.969 -0.3176 -0.1039 -0.1725
  984MOL0     C35700  12.416   4.465   4.310 -0.8560  0.7693  0.2221
  984MOL0     C35701  12.293   4.511   4.333 -0.1157  0.2719 -0.2625
  984MOL0     O35702  12.082   4.486   4.574 -0.3958 -0.2489 -0.2637
  984MOL0     C35703  11.809   4.579   4.361  0.3294  0.5213  0.7426
  984MOL0     C35704  11.690   4.651   4.351  0.3419 -0.0952 -0.9806
  984MOL0     N35705  11.065   5.009   4.164 -0.3330 -0.2817  0.3999
  984MOL0     N35706  10.956   4.988   4.114 -0.2864  0.6741  0.9433
  984MOL0     C35707   9.926   4.406   3.972  0.0829 -0.9663  0.7094
  984MOL0     C35708   9.906   4.318   3.865  0.4039  0.0544  0.1010
  984MOL0     C35709   9.941   3.978   3.580  0.6692  0.4586  0.5854
  984MOL0     C35710  10.061   3.976   3.499  1.3759 -0.0086  0.4201
  984MOL0     C35711  10.052   3.914   3.374 -0.3186 -0.5126  0.6927
  984MOL0     C35712   9.937   3.851   3.323  0.0121  0.8208 -0.4987
  984MOL0     O35713   9.935   3.789   3.201 -0.6181  0.4417  0.1161
  984MOL0     C35714   9.974   3.868   3.095 -0.2210 -0.1507 -0.2184
  984MOL0     C35715  10.056   3.779   2.992 -0.2512 -0.0110 -0.2094
  984MOL0     C35716   9.975   3.657   2.951  0.0345 -0.3907 -0.3341
  984MOL0     C35717  10.048   3.590   2.837  0.1883 -0.0776  0.5008
  984MOL0     C35718   9.956   3.501   2.763  0.3192 -0.3779  0.1551
  984MOL0     C35719   9.890   3.418   2.703 -0.8783 -0.1052  0.0438
  984MOL0     C35720   9.826   3.853   3.400  0.3343  1.3578 -0.2987
  984MOL0     C35721   9.823   3.922   3.530  0.6842  0.0755 -0.6053
  984MOL0     C35722   9.678   3.923   3.595  0.7716 -0.0387  0.2664
  984MOL0     H35723  10.233   4.260   3.800 -2.2281 -1.8174 -1.6387
  984MOL0     H35724  10.265   4.437   3.970  0.5353  0.2063 -1.1889
  984MOL0     H35725  10.161   4.701   3.971  0.1416  2.6275  2.0732
  984MOL0     H35726  10.261   4.625   4.086  1.0213  1.3100  0.0902
  984MOL0     H35727  10.089   4.851   4.102 -3.1959 -0.5352  2.8109
  984MOL0     H35728  10.113   4.741   4.257  2.1305 -2.7028  0.2506
  984MOL0     H35729  10.354   4.756   4.230  3.8642  1.0644 -2.7710
  984MOL0     H35730  10.329   4.850   4.080  1.0171 -2.0804 -0.4768
  984MOL0     H35731  10.217   5.031   4.218 -1.3499 -1.5112  0.2111
  984MOL0     H35732  10.219   4.916   4.347 -0.0708 -2.2702 -0.9963
  984MOL0     H35733  10.486   4.936   4.367  1.3685 -0.3618 -1.7862
  984MOL0     H35734  10.392   5.081   4.405  0.3028 -0.5843  0.5151
  984MOL0     H35735  10.488   5.018   4.128 -0.7180 -0.8410  0.0864
  984MOL0     H35736  10.456   5.183   4.202 -0.4086  0.0464  1.1485
  984MOL0     H35737  10.661   5.106   4.363 -0.5229  2.5911  0.3359
  984MOL0     H35738  10.689   5.195   4.213 -1.0298  0.8875  1.3677
  984MOL0     H35739  10.691   4.891   4.207  0.9273  0.0164  0.2231
  984MOL0     H35740  10.721   5.011   4.069 -2.3275  0.5997  0.2181
  984MOL0     H35741  10.876   5.035   4.427  0.2987 -2.0660  0.2284
  984MOL0     H35742  11.117   5.080   4.491  1.2311  0.8937  0.2455
  984MOL0     H35743  11.219   5.145   4.367 -2.6136  1.7150 -1.1244
  984MOL0     H35744  11.184   4.844   4.439  2.6360 -1.4082  1.4594
  984MOL0     H35745  11.297   4.904   4.324  2.3795 -0.7670  1.6871
  984MOL0     H35746  11.414   5.013   4.507  0.5815 -0.7613 -0.4902
  984MOL0     H35747  11.300   4.957   4.630 -1.8475 -0.4904 -0.9672
  984MOL0     H35748  11.476   4.805   4.634 -0.7007 -0.1424 -0.3268
  984MOL0     H35749  11.370   4.709   4.529 -1.4986  0.3565 -2.2928
  984MOL0     H35750  11.674   4.766   4.669  1.7793 -0.6484  1.7867
  984MOL0     H35751  11.936   4.583   4.768 -0.3210 -0.0904 -2.2688
  984MOL0     H35752  11.862   4.750   4.781 -0.2827  1.1855 -1.3647
  984MOL0     H35753  12.012   4.733   4.702  0.2457  0.6352 -2.0597
  984MOL0     H35754  12.113   4.233   4.291  0.1768  0.8566  0.8717
  984MOL0     H35755  12.341   4.135   4.280 -1.5131 -0.7461  2.2980
  984MOL0     H35756  12.574   4.084   4.285 -0.6125 -1.2130  0.7903
  984MOL0     H35757  12.569   4.150   4.118 -0.1859  0.4280  0.7043
  984MOL0     H35758  12.813   4.142   4.291 -2.3032 -0.0181  0.0820
  984MOL0     H35759  12.785   4.061   4.144  2.0035  1.1375 -1.5259
  984MOL0     H35760  12.816   4.360   4.194  0.3782  1.0103 -0.9342
  984MOL0     H35761  12.752   4.277   4.025  1.5021 -1.7382 -1.0152
  984MOL0     H35762  12.972   4.155   4.044  1.4116 -0.2252  0.1951
  984MOL0     H35763  13.005   4.260   4.171  1.0267 -0.9678 -1.2234
  984MOL0     H35764  12.968   4.351   3.879  0.6912  3.0973 -0.3957
  984MOL0     H35765  12.990   4.456   4.012 -0.9335  0.0064  1.9584
  984MOL0     H35766  13.174   4.232   3.903  2.0184 -0.4011 -0.0245
  984MOL0     H35767  13.223   4.334   4.039 -1.0158  1.2090  0.5151
  984MOL0     H35768  13.198   4.535   3.900 -1.6366 -1.1929  1.8753
  984MOL0     H35769  13.168   4.417   3.760  2.0037 -3.3993 -0.8256
  984MOL0     H35770  13.396   4.526   3.769 -1.6118  0.2899  0.1706
  984MOL0     H35771  13.414   4.353   3.779 -1.2060  0.3475 -1.4339
  984MOL0     H35772  12.499   4.534   4.320  1.0978 -1.4344 -0.0400
  984MOL0     H35773  12.266   4.612   4.362 -0.4937  0.2681 -0.5872
  984MOL0     H35774  11.836   4.519   4.275  3.7270  1.3985  1.0885
  984MOL0     H35775  11.634   4.651   4.258  0.7985 -3.8262 -1.3875
  984MOL0     H35776   9.840   4.453   4.019 -0.2104  2.6068 -2.8510
  984MOL0     H35777   9.804   4.299   3.833  1.3798 -1.7507 -2.2330
  984MOL0     H35778  10.140   4.044   3.530  1.4067 -0.6537  1.8489
  984MOL0     H35779  10.135   3.932   3.307 -0.0323  0.9157  1.4029
  984MOL0     H35780   9.877   3.902   3.057 -1.2067 -1.4779  1.0158
  984MOL0     H35781  10.034   3.959   3.109 -3.2142  1.7359  1.5356
  984MOL0     H35782  10.147   3.737   3.035  0.1902  1.2203  0.0956
  984MOL0     H35783  10.084   3.839   2.905 -0.4064 -0.0174 -0.2645
  984MOL0     H35784   9.967   3.594   3.039 -1.6577  0.0850 -0.1031
  984MOL0     H35785   9.877   3.689   2.913  0.1173  1.4700  0.8851
  984MOL0     H35786  10.144   3.551   2.873  1.3624 -0.4406 -2.6509
  984MOL0     H35787  10.068   3.669   2.764  1.7853 -0.2092  0.7739
  984MOL0     H35788   9.834   3.365   2.628 -0.3282 -0.7096  0.0531
  984MOL0     H35789   9.744   3.797   3.356  1.6295 -0.1987 -0.8600
  984MOL0     H35790   9.634   4.024   3.596 -0.1156 -0.4123  0.7131
  984MOL0     H35791   9.616   3.861   3.530  3.3700 -0.3597 -2.0416
  984MOL0     H35792   9.673   3.894   3.701  0.9139 -1.0895 -0.0095
  985MOL0     O35793   6.791   7.856   3.189  0.1739  0.4132 -0.5641
  985MOL0     C35794   6.738   7.946   3.118 -0.7433  0.3936 -0.5316
  985MOL0     O35795   6.811   8.023   3.031 -0.0947  0.5342  0.2633
  985MOL0     C35796   6.950   8.027   3.045  0.1695  0.6855 -0.0849
  985MOL0     C35797   7.032   7.908   3.064  0.5020  1.7028 -0.5855
  985MOL0     C35798   7.171   7.915   3.065 -0.1790  0.0553  0.6733
  985MOL0     C35799   7.233   8.036   3.049 -0.4892 -1.1505  0.9114
  985MOL0     O35800   7.371   8.042   3.041  0.2086 -0.5789  0.2523
  985MOL0     C35801   7.435   8.172   3.043 -0.5661  1.1315 -0.0601
  985MOL0     C35802   7.591   8.170   3.061 -0.9010 -0.1365  0.5987
  985MOL0     C35803   7.628   8.114   3.200 -0.4879 -0.2996 -0.3333
  985MOL0     C35804   7.781   8.126   3.230  0.2733 -0.4905 -0.4278
  985MOL0     C35805   7.869   8.042   3.142  0.8719 -0.5694  0.3714
  985MOL0     C35806   8.015   8.038   3.204  0.1439  0.2368  0.4304
  985MOL0     C35807   8.067   8.175   3.253  0.1906 -0.5663  0.2196
  985MOL0     C35808   8.217   8.173   3.295  0.2942  0.4439  1.0096
  985MOL0     N35809   8.297   8.087   3.201  0.4698 -0.9781 -0.1916
  985MOL0     C35810   8.304   8.111   3.067  0.2046 -0.3009  0.9734
  985MOL0     C35811   8.380   8.009   3.020  0.2350  0.4787  0.4386
  985MOL0     C35812   8.405   7.991   2.868 -0.3548 -1.1773  0.5820
  985MOL0     C35813   8.532   8.064   2.827 -0.1078 -0.6277 -0.5106
  985MOL0     C35814   8.530   8.102   2.678  0.4745 -0.8308  0.0186
  985MOL0     C35815   8.660   8.189   2.653 -0.5737 -0.1894 -0.8714
  985MOL0     O35816   8.775   8.118   2.701 -0.6272 -0.7733  0.8747
  985MOL0     C35817   8.906   8.169   2.697 -0.1039  0.0923  0.0473
  985MOL0     C35818   8.946   8.287   2.639 -0.1035  0.3222  0.4254
  985MOL0     C35819   9.083   8.330   2.635  0.6478 -0.0340 -1.2523
  985MOL0     C35820   9.105   8.458   2.571  0.4310  0.4609  0.1620
  985MOL0     C35821   9.183   8.241   2.687  0.5095 -0.5653 -0.6173
  985MOL0     C35822   9.323   8.275   2.680 -0.0079 -1.4555 -0.5047
  985MOL0     O35823   9.374   8.378   2.603  0.2202  0.4725  0.8960
  985MOL0     C35824   9.506   8.415   2.607  0.3079 -0.4447 -0.0670
  985MOL0     C35825   9.557   8.463   2.725  0.5066  0.6966 -0.1895
  985MOL0     C35826   9.696   8.487   2.738 -0.4032 -0.2099 -0.0667
  985MOL0     C35827   9.786   8.466   2.629  0.2712  0.5883 -0.8735
  985MOL0     O35828   9.925   8.467   2.639 -0.0684 -0.3821  0.4977
  985MOL0     C35829   9.977   8.457   2.772 -0.2172  0.2155 -0.1513
  985MOL0     C35830  10.133   8.442   2.751 -0.1929  0.1900 -0.8833
  985MOL0     C35831  10.175   8.304   2.693 -0.0378  0.5008 -0.0584
  985MOL0     C35832  10.325   8.301   2.680 -0.0690  0.1035 -0.3628
  985MOL0     C35833  10.380   8.182   2.597 -0.2108  0.2057 -0.5113
  985MOL0     C35834  10.360   8.048   2.672  0.7043  0.0341  0.6303
  985MOL0     C35835  10.427   7.944   2.586  0.0112 -0.2458 -0.8276
  985MOL0     C35836  10.448   7.820   2.672 -0.3472  0.1848  0.1640
  985MOL0    Cl35837  10.580   7.728   2.595  0.3260 -0.1311  0.1745
  985MOL0     C35838   9.727   8.429   2.509  0.1892 -0.2570  0.2009
  985MOL0     C35839   9.593   8.404   2.496 -0.6441 -0.1239 -0.4966
  985MOL0     O35840   9.382   8.206   2.748 -0.1954  0.2917 -0.1140
  985MOL0     C35841   9.143   8.118   2.751 -0.3693 -0.3656  0.7424
  985MOL0     C35842   9.002   8.085   2.751 -0.2466 -0.0478  0.0215
  985MOL0     N35843   8.405   7.922   3.124  0.3982 -0.2969 -0.0239
  985MOL0     N35844   8.355   7.968   3.233 -0.5042 -0.2948  0.2670
  985MOL0     C35845   7.148   8.153   3.016  0.1504  0.2142 -0.0648
  985MOL0     C35846   7.009   8.145   3.019 -0.4696 -0.3204 -0.0714
  985MOL0     C35847   6.592   7.967   3.116  0.7561 -0.1365  0.4670
  985MOL0     C35848   6.544   8.093   3.070 -0.3221  0.4176 -0.2577
  985MOL0     C35849   6.411   8.127   3.078  0.1720 -0.6430 -0.6609
  985MOL0     C35850   6.309   8.036   3.125 -0.2550 -0.3638  0.0001
  985MOL0     O35851   6.173   8.052   3.119  0.0616 -0.1669 -0.5543
  985MOL0     C35852   6.115   8.180   3.097 -0.4799 -0.3185  0.3991
  985MOL0     C35853   5.968   8.176   3.082 -0.0075 -0.2515 -0.3916
  985MOL0     C35854   5.894   8.121   3.206  0.0088  0.6350 -0.9376
  985MOL0     C35855   5.746   8.149   3.194 -1.2255  0.2789  0.0201
  985MOL0     C35856   5.708   8.291   3.184 -0.2286 -0.2384 -0.3710
  985MOL0     C35857   5.688   8.408   3.178  0.3836  1.1985  0.6631
  985MOL0     C35858   6.357   7.912   3.166  0.2860 -0.1922  0.7810
  985MOL0     C35859   6.497   7.875   3.164 -0.6129  0.1949  0.0956
  985MOL0     C35860   6.532   7.732   3.206  0.3028 -0.5683  0.5059
  985MOL0     H35861   6.991   7.808   3.064 -1.8913  2.4658  3.1756
  985MOL0     H35862   7.231   7.825   3.069  0.4243  0.4574  0.6935
  985MOL0     H35863   7.391   8.233   3.122  0.8657 -1.7154  3.2048
  985MOL0     H35864   7.410   8.216   2.946 -1.4514 -1.4964 -1.1205
  985MOL0     H35865   7.635   8.108   2.982  2.5146  1.4408  1.0934
  985MOL0     H35866   7.629   8.272   3.051  0.6224 -0.6094  1.1506
  985MOL0     H35867   7.566   8.169   3.270 -0.9920 -2.0698  0.6754
  985MOL0     H35868   7.582   8.015   3.197 -3.5357  0.5694  4.9241
  985MOL0     H35869   7.811   8.231   3.226  0.7982 -0.6053  0.2999
  985MOL0     H35870   7.786   8.092   3.334 -0.9068 -0.6725 -0.4150
  985MOL0     H35871   7.869   8.082   3.040 -0.1939 -0.5544  0.3682
  985MOL0     H35872   7.825   7.942   3.143 -0.6953  0.0908  0.3260
  985MOL0     H35873   7.999   7.977   3.293 -2.7331  0.4340  0.1345
  985MOL0     H35874   8.084   7.985   3.138 -0.2584  0.2979 -0.0448
  985MOL0     H35875   8.007   8.209   3.338 -1.2430  3.2721 -2.0356
  985MOL0     H35876   8.058   8.251   3.175  1.4423  0.6300  1.1919
  985MOL0     H35877   8.265   8.271   3.291  0.9574  0.1918  2.1702
  985MOL0     H35878   8.234   8.133   3.396  0.3532  3.1276  2.1384
  985MOL0     H35879   8.260   8.194   3.014  1.2033 -0.0140  0.5715
  985MOL0     H35880   8.318   8.034   2.818  0.0089 -0.7350  0.3146
  985MOL0     H35881   8.418   7.886   2.840 -0.5585 -1.1776  0.4899
  985MOL0     H35882   8.539   8.161   2.877 -0.3367 -2.3673  3.2208
  985MOL0     H35883   8.613   7.993   2.849  0.0158 -1.0107 -2.0775
  985MOL0     H35884   8.542   8.011   2.620  2.4997 -0.2957 -0.5062
  985MOL0     H35885   8.445   8.162   2.645 -0.7201 -0.5992  3.1878
  985MOL0     H35886   8.674   8.207   2.546  2.3389  2.6235 -0.1678
  985MOL0     H35887   8.656   8.280   2.714 -0.6272  0.1995 -1.4407
  985MOL0     H35888   8.866   8.350   2.602  2.6103  4.0859  0.4006
  985MOL0     H35889   9.150   8.449   2.472 -0.2228 -1.7813  0.0061
  985MOL0     H35890   9.155   8.530   2.636 -0.9656  1.7733 -0.1440
  985MOL0     H35891   9.007   8.501   2.549 -0.7287 -0.5301  2.8338
  985MOL0     H35892   9.486   8.468   2.807 -0.8590 -2.0169 -1.0738
  985MOL0     H35893   9.718   8.504   2.842 -3.4772 -1.6873  0.9610
  985MOL0     H35894   9.953   8.542   2.837 -1.2134 -0.9039  1.0122
  985MOL0     H35895   9.948   8.367   2.827 -0.1399  0.4449  0.2762
  985MOL0     H35896  10.160   8.522   2.681 -2.7573 -0.2875 -2.5637
  985MOL0     H35897  10.179   8.448   2.850 -1.8272 -2.6802  0.1503
  985MOL0     H35898  10.135   8.288   2.592  2.1815 -1.4637 -0.7195
  985MOL0     H35899  10.139   8.221   2.755  1.2861 -0.3481 -0.3828
  985MOL0     H35900  10.362   8.317   2.781 -3.7214 -0.8160  1.2910
  985MOL0     H35901  10.345   8.395   2.628  2.0080  1.2289  2.2365
  985MOL0     H35902  10.344   8.182   2.494 -2.2782  2.6332  0.1281
  985MOL0     H35903  10.489   8.191   2.596 -0.1954  0.1251 -0.0238
  985MOL0     H35904  10.253   8.025   2.678  0.0222  1.4188 -3.1259
  985MOL0     H35905  10.399   8.053   2.774 -1.4148 -1.5956  1.5952
  985MOL0     H35906  10.512   7.998   2.542 -1.6402  2.2249 -1.1846
  985MOL0     H35907  10.364   7.917   2.501 -4.6535 -0.6699  2.4166
  985MOL0     H35908  10.358   7.764   2.696 -0.6126  1.2426  1.7605
  985MOL0     H35909  10.482   7.855   2.770 -2.6599  1.7432  0.4780
  985MOL0     H35910   9.799   8.405   2.431  1.2423  2.6110  0.1776
  985MOL0     H35911   9.555   8.356   2.407 -1.6216  0.0859 -0.2070
  985MOL0     H35912   9.205   8.041   2.795 -2.3810 -1.8124  1.1848
  985MOL0     H35913   8.975   7.986   2.787 -1.5510  0.2354 -0.1318
  985MOL0     H35914   7.188   8.246   2.977 -0.7799 -0.6606 -3.3827
  985MOL0     H35915   6.954   8.228   2.977  0.3288 -1.6480 -4.1738
  985MOL0     H35916   6.608   8.172   3.032 -2.5235  1.8972 -1.0495
  985MOL0     H35917   6.376   8.218   3.030  1.6712 -0.4611 -1.4630
  985MOL0     H35918   6.127   8.241   3.186  0.2366 -1.8774  1.4205
  985MOL0     H35919   6.160   8.223   3.007 -2.0982  0.5120 -0.0476
  985MOL0     H35920   5.950   8.105   3.001  1.2299 -4.6207  2.8333
  985MOL0     H35921   5.943   8.282   3.066 -0.8243 -0.3954 -0.0962
  985MOL0     H35922   5.902   8.014   3.225 -2.7895  0.2283 -1.6676
  985MOL0     H35923   5.943   8.168   3.292 -1.5077  1.0032 -0.2329
  985MOL0     H35924   5.699   8.092   3.276  0.1681  1.3390  1.6313
  985MOL0     H35925   5.708   8.103   3.103 -0.9430 -0.0803  0.0824
  985MOL0     H35926   5.675   8.513   3.163 -1.5056  0.9545  0.3082
  985MOL0     H35927   6.281   7.841   3.199 -1.4431  0.5720 -1.2751
  985MOL0     H35928   6.450   7.683   3.259 -2.2093  1.4141 -1.2855
  985MOL0     H35929   6.572   7.683   3.117  3.3137  3.4139 -0.6728
  985MOL0     H35930   6.612   7.724   3.280  0.2388  1.8026  0.9222
  986MOL0     O35931   7.883   4.985  10.109 -1.2490 -0.2273  0.5797
  986MOL0     C35932   7.767   5.013  10.073  0.0424  0.7144 -0.3144
  986MOL0     O35933   7.700   4.946   9.976  0.3559 -0.8406 -0.0910
  986MOL0     C35934   7.778   4.866   9.900 -0.8121 -0.0143  0.0689
  986MOL0     C35935   7.864   4.916   9.795 -0.6517  0.5210 -0.2342
  986MOL0     C35936   7.959   4.842   9.726  0.0195 -0.2012  0.0404
  986MOL0     C35937   7.960   4.698   9.750  0.5360  0.0881  0.3957
  986MOL0     O35938   8.040   4.606   9.681 -0.1614 -0.2434  0.1213
  986MOL0     C35939   8.035   4.630   9.539  0.4257  0.6512  0.3713
  986MOL0     C35940   8.121   4.530   9.457  0.4038 -0.1775 -0.5835
  986MOL0     C35941   8.264   4.518   9.505 -0.3990  0.4554 -0.2461
  986MOL0     C35942   8.352   4.429   9.416 -0.4708 -0.1547  0.1800
  986MOL0     C35943   8.493   4.448   9.467  0.4162  0.2496 -0.1793
  986MOL0     C35944   8.600   4.405   9.369 -0.0648  0.4291 -0.4960
  986MOL0     C35945   8.598   4.263   9.303 -0.1052  0.2750  0.0018
  986MOL0     C35946   8.684   4.257   9.165  1.0929  0.0719 -0.6035
  986MOL0     N35947   8.661   4.147   9.079  0.2991 -0.4334 -0.2335
  986MOL0     C35948   8.737   4.032   9.070  0.1004  0.4800 -0.1435
  986MOL0     C35949   8.680   3.965   8.965  0.4230 -0.2334  0.4615
  986MOL0     C35950   8.738   3.840   8.899 -0.3124 -0.0677 -0.1782
  986MOL0     C35951   8.891   3.820   8.915 -0.3084 -0.4240  0.1389
  986MOL0     C35952   8.954   3.726   8.820  0.0918 -0.0078  0.5618
  986MOL0     C35953   9.101   3.747   8.805  0.5542  0.8838 -0.0082
  986MOL0     O35954   9.169   3.675   8.703 -0.3669 -0.6687  0.1091
  986MOL0     C35955   9.259   3.586   8.753 -0.3753 -0.6661 -0.2122
  986MOL0     C35956   9.372   3.642   8.817 -0.2009 -0.4078 -0.1324
  986MOL0     C35957   9.476   3.560   8.853 -0.1898 -0.1136 -0.1052
  986MOL0     C35958   9.593   3.642   8.910  0.1884  0.0812  0.1673
  986MOL0     C35959   9.478   3.419   8.837  0.4319  0.5879 -0.1812
  986MOL0     C35960   9.583   3.327   8.891  0.1968 -0.1236  0.3502
  986MOL0     O35961   9.573   3.200   8.854 -0.1486 -0.6415 -0.0406
  986MOL0     C35962   9.674   3.114   8.882 -0.0152  0.0844  0.2885
  986MOL0     C35963   9.720   3.089   9.010 -0.5731  0.4245 -0.0627
  986MOL0     C35964   9.842   3.007   9.010 -0.2168  0.4355 -0.1985
  986MOL0     C35965   9.902   2.942   8.893  1.1191 -1.0027  0.5874
  986MOL0     O35966  10.022   2.871   8.901 -0.5568  0.3105 -0.1398
  986MOL0     C35967  10.056   2.828   9.033  0.1514 -1.0777  0.3443
  986MOL0     C35968  10.190   2.755   9.025  0.2932  0.9790  0.5934
  986MOL0     C35969  10.217   2.674   9.151 -0.8349  0.6058 -0.8657
  986MOL0     C35970  10.103   2.573   9.176 -0.6178  0.2674  0.5737
  986MOL0     C35971  10.139   2.460   9.276 -0.0747  0.1383 -0.2324
  986MOL0     C35972  10.166   2.503   9.422  0.1565  0.6456  0.3155
  986MOL0     C35973  10.036   2.550   9.494  0.3750  0.0764 -0.8782
  986MOL0     C35974  10.059   2.600   9.638 -0.4768  0.0852 -0.3641
  986MOL0    Cl35975  10.173   2.745   9.637 -0.5112  0.2624 -0.4218
  986MOL0     C35976   9.846   2.972   8.772 -0.6047 -0.0173 -0.4600
  986MOL0     C35977   9.729   3.053   8.769  0.6425 -0.2121  0.0478
  986MOL0     O35978   9.667   3.377   8.967 -0.0959 -0.3810  0.7075
  986MOL0     C35979   9.366   3.366   8.766 -0.5874  0.6178 -0.2987
  986MOL0     C35980   9.260   3.453   8.731 -0.7738 -0.6672  0.3821
  986MOL0     N35981   8.582   4.045   8.907 -0.6679 -0.1103  1.1548
  986MOL0     N35982   8.574   4.153   8.974 -0.0761  0.4038 -0.2295
  986MOL0     C35983   7.871   4.645   9.850  0.6712  0.1010  0.4760
  986MOL0     C35984   7.790   4.731   9.921  0.7860 -0.1140  0.3358
  986MOL0     C35985   7.698   5.121  10.158 -0.8032 -0.6030  1.0317
  986MOL0     C35986   7.771   5.200  10.248  0.4358 -0.0231  0.2603
  986MOL0     C35987   7.713   5.286  10.330 -0.0774  0.2694 -0.8710
  986MOL0     C35988   7.576   5.308  10.318  0.5055  0.1332  0.2870
  986MOL0     O35989   7.503   5.389  10.405 -0.1267 -0.9234 -0.0209
  986MOL0     C35990   7.579   5.478  10.497 -0.1920 -0.0057 -0.9340
  986MOL0     C35991   7.478   5.549  10.588 -0.3924  0.3120 -0.0066
  986MOL0     C35992   7.411   5.467  10.700 -0.3823 -0.3003  0.0895
  986MOL0     C35993   7.492   5.429  10.823  0.6982  1.0795 -0.4518
  986MOL0     C35994   7.525   5.532  10.915  0.0641  0.3866  0.9599
  986MOL0     C35995   7.530   5.624  10.994  0.5407 -0.0940  0.7262
  986MOL0     C35996   7.505   5.246  10.232 -0.1020 -0.1474 -0.2877
  986MOL0     C35997   7.558   5.145  10.150  0.3138 -0.2897  0.1735
  986MOL0     C35998   7.461   5.087  10.049 -0.3275 -0.7356  0.8647
  986MOL0     H35999   7.871   5.024   9.786  0.6711  0.6790  1.9621
  986MOL0     H36000   8.029   4.890   9.658 -2.3012  3.1216 -0.2372
  986MOL0     H36001   8.089   4.722   9.518  4.0183 -1.5568 -0.9443
  986MOL0     H36002   7.932   4.629   9.503  0.0244 -2.1436  1.3122
  986MOL0     H36003   8.094   4.425   9.467  0.4189 -0.4335 -2.7154
  986MOL0     H36004   8.122   4.559   9.352 -1.5063  1.2641 -0.2585
  986MOL0     H36005   8.306   4.619   9.508 -0.7125  0.6582 -1.8577
  986MOL0     H36006   8.271   4.478   9.607 -0.0658 -2.0266 -1.1762
  986MOL0     H36007   8.316   4.326   9.409 -1.0216  0.1203 -1.3519
  986MOL0     H36008   8.346   4.475   9.317  1.5723 -0.7568 -0.2674
  986MOL0     H36009   8.501   4.394   9.562  0.6162  2.1198  0.9000
  986MOL0     H36010   8.507   4.556   9.476 -0.4973  0.5699 -2.0955
  986MOL0     H36011   8.612   4.471   9.282  2.4587 -2.2587 -2.3781
  986MOL0     H36012   8.693   4.420   9.424 -0.1865  0.3592 -0.2701
  986MOL0     H36013   8.495   4.236   9.277 -0.7013  2.4975 -0.1268
  986MOL0     H36014   8.624   4.183   9.374 -0.4551  0.1985  0.0482
  986MOL0     H36015   8.669   4.348   9.107 -0.2465  0.0080 -0.3889
  986MOL0     H36016   8.785   4.248   9.207  0.8222 -2.9072 -0.3362
  986MOL0     H36017   8.801   3.989   9.147 -2.0412  0.1474  1.5275
  986MOL0     H36018   8.710   3.852   8.794 -1.6979 -1.4387 -0.0028
  986MOL0     H36019   8.687   3.748   8.928  1.3366 -0.9695 -0.0647
  986MOL0     H36020   8.943   3.916   8.902 -0.9931 -0.0270  0.2911
  986MOL0     H36021   8.905   3.806   9.022  0.3960  3.2420  0.6761
  986MOL0     H36022   8.931   3.623   8.849 -1.1536 -0.5684 -2.1683
  986MOL0     H36023   8.920   3.732   8.717  0.7611 -4.9173 -0.1957
  986MOL0     H36024   9.115   3.855   8.787 -0.5274  1.2010  0.9440
  986MOL0     H36025   9.153   3.726   8.899 -0.7536  2.7748  1.2079
  986MOL0     H36026   9.368   3.749   8.832  0.5576 -0.5675  1.3628
  986MOL0     H36027   9.581   3.748   8.885 -1.5148 -0.2351 -0.4440
  986MOL0     H36028   9.691   3.606   8.875  0.0054 -0.8787  0.6143
  986MOL0     H36029   9.596   3.630   9.018  2.4248 -0.8296  0.0731
  986MOL0     H36030   9.679   3.132   9.101 -0.7320  1.3628 -0.5650
  986MOL0     H36031   9.885   2.990   9.108 -1.0587  3.0581  0.7012
  986MOL0     H36032  10.068   2.911   9.103 -1.6107 -0.5458  0.0726
  986MOL0     H36033   9.973   2.772   9.077 -2.2808  1.5120 -0.5940
  986MOL0     H36034  10.192   2.695   8.934 -0.1090  0.8592  0.6641
  986MOL0     H36035  10.269   2.827   9.000  0.3134  0.4053 -1.1240
  986MOL0     H36036  10.209   2.735   9.241 -3.0062 -2.1202  0.9691
  986MOL0     H36037  10.313   2.621   9.141 -0.1969  0.9198  2.5326
  986MOL0     H36038  10.076   2.530   9.079  0.2635  1.4844 -0.2276
  986MOL0     H36039  10.011   2.615   9.218 -0.6011 -1.5666  2.7174
  986MOL0     H36040  10.062   2.383   9.262  0.1331  0.1303 -1.5042
  986MOL0     H36041  10.231   2.408   9.248  2.2160  2.6179  2.0735
  986MOL0     H36042  10.237   2.586   9.425 -0.7049  1.4988 -1.3336
  986MOL0     H36043  10.205   2.422   9.484  3.9639  0.7494 -1.6739
  986MOL0     H36044   9.962   2.470   9.484  2.8125 -2.3246 -1.1580
  986MOL0     H36045  10.001   2.634   9.435 -0.4586  0.6210  0.3547
  986MOL0     H36046  10.110   2.517   9.686  2.4678  1.9553 -0.0247
  986MOL0     H36047   9.965   2.633   9.685 -0.1954  1.1263 -0.4976
  986MOL0     H36048   9.887   2.916   8.688 -2.2600 -1.3944 -0.4025
  986MOL0     H36049   9.688   3.094   8.677 -1.9990  1.9033  1.9778
  986MOL0     H36050   9.351   3.260   8.749 -1.1839  0.9528 -2.1494
  986MOL0     H36051   9.173   3.415   8.679 -1.3521 -2.9756  2.8109
  986MOL0     H36052   7.869   4.538   9.869  1.4673 -0.8347 -3.5821
  986MOL0     H36053   7.729   4.695  10.003 -3.1409  3.4870 -0.7051
  986MOL0     H36054   7.877   5.182  10.262  0.9174  1.5578 -1.0379
  986MOL0     H36055   7.765   5.347  10.403 -0.4467 -1.1399  0.6404
  986MOL0     H36056   7.655   5.427  10.556  0.5689  1.4292 -0.6276
  986MOL0     H36057   7.629   5.560  10.444 -0.8548 -0.1567 -1.8325
  986MOL0     H36058   7.396   5.583  10.524  0.2019 -0.2986 -1.1033
  986MOL0     H36059   7.518   5.642  10.629 -3.1642  1.5887  0.0186
  986MOL0     H36060   7.326   5.521  10.743 -0.8132  0.3320 -1.5143
  986MOL0     H36061   7.371   5.378  10.651  2.1148 -1.6073  0.2523
  986MOL0     H36062   7.580   5.371  10.792 -1.0539 -0.5044 -2.7668
  986MOL0     H36063   7.432   5.364  10.887  0.4577  1.2400 -0.5126
  986MOL0     H36064   7.532   5.701  11.068  0.7901  0.6228 -0.0134
  986MOL0     H36065   7.398   5.264  10.240 -0.1975 -0.8346  0.1093
  986MOL0     H36066   7.477   5.114   9.944 -1.5106 -0.7863  0.6560
  986MOL0     H36067   7.454   4.979  10.057 -1.5188 -0.9608 -1.8963
  986MOL0     H36068   7.364   5.127  10.081  0.0363 -0.0181  1.1033
  987MOL0     O36069  10.287   9.540  10.006 -0.1676  0.8774 -0.2089
  987MOL0     C36070  10.336   9.596   9.907  1.3497  0.5339 -0.1123
  987MOL0     O36071  10.460   9.644   9.903  0.1691  0.2525  0.3068
  987MOL0     C36072  10.519   9.693  10.020  0.8226 -0.6358 -0.3299
  987MOL0     C36073  10.654   9.704  10.032  0.7705  0.1870  0.1294
  987MOL0     C36074  10.728   9.730  10.148 -0.1792 -0.2651 -0.4018
  987MOL0     C36075  10.662   9.765  10.266 -0.7520 -0.5856  0.6465
  987MOL0     O36076  10.720   9.801  10.386  0.3373  0.3017  0.2791
  987MOL0     C36077  10.853   9.842  10.381 -0.1995 -0.7951  0.1479
  987MOL0     C36078  10.948   9.726  10.409 -0.4077 -0.0993  0.4840
  987MOL0     C36079  10.975   9.691  10.556 -0.9465  0.4805 -0.0785
  987MOL0     C36080  11.063   9.558  10.559  0.5311 -0.1796 -0.1389
  987MOL0     C36081  11.048   9.489  10.700 -0.2232  0.5300 -0.7263
  987MOL0     C36082  11.115   9.352  10.726  0.0868 -1.2693  0.1383
  987MOL0     C36083  11.273   9.355  10.719  0.1297  0.3417  0.5385
  987MOL0     C36084  11.330   9.234  10.783  0.1964  0.3033  0.5624
  987MOL0     N36085  11.472   9.219  10.747 -0.4270 -0.6508 -0.1034
  987MOL0     C36086  11.512   9.139  10.636 -0.2597 -0.0257  0.2596
  987MOL0     C36087  11.651   9.140  10.643 -0.3031 -0.1472 -0.0079
  987MOL0     C36088  11.749   9.079  10.549 -0.6540 -0.0370  0.9065
  987MOL0     C36089  11.822   8.949  10.585  0.4019  0.0061  0.0066
  987MOL0     C36090  11.932   8.957  10.698  0.2921  0.2181  0.2264
  987MOL0     C36091  11.972   8.816  10.736  0.0537  0.1040  0.2906
  987MOL0     O36092  12.049   8.793  10.856 -0.3317 -0.1916  0.2022
  987MOL0     C36093  12.185   8.809  10.855 -0.0222  0.3198 -0.2021
  987MOL0     C36094  12.260   8.822  10.736  0.6949  0.0843  0.0021
  987MOL0     C36095  12.400   8.845  10.735 -0.0317  0.5238 -0.0284
  987MOL0     C36096  12.479   8.866  10.603 -0.2672 -0.1520  0.0619
  987MOL0     C36097  12.467   8.842  10.856 -0.7171  0.0391  0.5284
  987MOL0     C36098  12.623   8.844  10.877  1.6069  0.4675  1.0490
  987MOL0     O36099  12.692   8.856  10.766  0.8472 -0.6133  0.3562
  987MOL0     C36100  12.821   8.820  10.775  0.8150  0.1792 -0.0719
  987MOL0     C36101  12.909   8.905  10.830  0.0756 -0.8992  0.3030
  987MOL0     C36102  13.044   8.884  10.829 -0.5534  0.2312  0.0351
  987MOL0     C36103  13.098   8.766  10.784  0.2103  0.0127  0.7257
  987MOL0     O36104  13.237   8.740  10.794 -0.2288 -0.0074  0.8257
  987MOL0     C36105  13.284   8.615  10.741  0.6323 -0.6475  0.6016
  987MOL0     C36106  13.435   8.598  10.764 -0.3369 -0.1426  0.3612
  987MOL0     C36107  13.484   8.567  10.909  0.2675  0.6126  0.1505
  987MOL0     C36108  13.581   8.444  10.913  0.1301  0.6923 -0.8283
  987MOL0     C36109  13.558   8.358  11.041 -0.9798  0.0721 -0.2828
  987MOL0     C36110  13.436   8.279  11.053 -0.3442 -0.4751  0.7992
  987MOL0     C36111  13.444   8.191  11.175 -0.2496 -0.4172 -0.1637
  987MOL0     C36112  13.344   8.075  11.167  0.6428  0.9555 -1.3052
  987MOL0    Cl36113  13.401   7.935  11.076 -0.0329 -0.6029  0.2352
  987MOL0     C36114  13.009   8.676  10.737  0.1996 -0.4812  0.4115
  987MOL0     C36115  12.871   8.695  10.731  0.3434 -0.0742 -0.5509
  987MOL0     O36116  12.670   8.815  10.986 -0.0227  0.7226  0.3973
  987MOL0     C36117  12.393   8.822  10.972 -0.3370  0.1789 -0.5593
  987MOL0     C36118  12.256   8.799  10.975  1.0643 -0.8300  0.1622
  987MOL0     N36119  11.696   9.217  10.749  0.4538  0.4629 -0.3944
  987MOL0     N36120  11.592   9.259  10.808 -0.7770  0.0551  0.0985
  987MOL0     C36121  10.518   9.746  10.257  0.8203 -0.4238 -0.5466
  987MOL0     C36122  10.452   9.714  10.137 -0.5733 -0.9703 -0.1126
  987MOL0     C36123  10.280   9.577   9.769  0.7358 -0.2484 -0.1196
  987MOL0     C36124  10.360   9.589   9.654 -0.0791 -0.5592 -0.3000
  987MOL0     C36125  10.319   9.578   9.520  0.2584 -0.3262  0.9324
  987MOL0     C36126  10.182   9.554   9.500  0.3162 -0.6120 -0.2900
  987MOL0     O36127  10.125   9.532   9.378  0.5330 -0.4391  0.2550
  987MOL0     C36128  10.172   9.616   9.268 -0.3183 -0.5334 -0.1411
  987MOL0     C36129  10.134   9.759   9.292  0.2414 -0.0541 -0.1487
  987MOL0     C36130   9.984   9.785   9.334 -0.0718 -0.2113 -0.5272
  987MOL0     C36131   9.919   9.907   9.270  0.4671  0.1022  0.2634
  987MOL0     C36132   9.995  10.030   9.299  0.0051  0.2950  0.5678
  987MOL0     C36133  10.053  10.134   9.328  0.2990 -0.6765 -0.0327
  987MOL0     C36134  10.091   9.561   9.601  0.6032 -0.6915  0.0208
  987MOL0     C36135  10.139   9.571   9.737  0.6318  1.0767  0.3945
  987MOL0     C36136  10.036   9.555   9.841 -0.3367 -0.0226 -0.4281
  987MOL0     H36137  10.713   9.677   9.945 -1.8998 -0.9586 -1.4652
  987MOL0     H36138  10.836   9.723  10.137  0.1572 -2.9708  2.9283
  987MOL0     H36139  10.866   9.918  10.459  4.2228  0.8491 -1.8312
  987MOL0     H36140  10.875   9.887  10.284 -1.2032 -1.0391 -0.2010
  987MOL0     H36141  10.908   9.631  10.370 -0.3159 -0.7532  1.9026
  987MOL0     H36142  11.037   9.746  10.349  0.5252  0.1343  1.9122
  987MOL0     H36143  11.027   9.776  10.601 -3.7783  1.5817  1.4065
  987MOL0     H36144  10.875   9.690  10.600 -0.9040  0.1543  0.0114
  987MOL0     H36145  11.027   9.489  10.482  0.3997 -1.7830  1.2990
  987MOL0     H36146  11.169   9.582  10.547  0.7116  0.4592  2.2708
  987MOL0     H36147  10.942   9.493  10.729  0.5011 -0.3859  2.3526
  987MOL0     H36148  11.096   9.549  10.777 -0.5923 -0.6718  0.4816
  987MOL0     H36149  11.083   9.313  10.823 -1.3123 -2.3703 -0.7311
  987MOL0     H36150  11.074   9.285  10.650 -0.6216  0.8730 -1.4528
  987MOL0     H36151  11.316   9.438  10.776 -1.0000  1.6882 -0.4954
  987MOL0     H36152  11.302   9.366  10.614 -1.6912  1.0645  0.0687
  987MOL0     H36153  11.336   9.246  10.892  2.1768  1.2615  0.4022
  987MOL0     H36154  11.268   9.146  10.764  0.8891  0.1098 -0.9153
  987MOL0     H36155  11.447   9.089  10.565 -1.0535  1.1608  0.1305
  987MOL0     H36156  11.821   9.159  10.527 -2.0498  1.0133 -0.0886
  987MOL0     H36157  11.694   9.060  10.456  0.8235  2.2160 -0.5305
  987MOL0     H36158  11.740   8.879  10.604 -0.7446  0.4370 -2.8332
  987MOL0     H36159  11.862   8.909  10.491 -0.4071 -3.0751  0.8438
  987MOL0     H36160  12.020   9.010  10.661  1.1710 -0.2145  1.6263
  987MOL0     H36161  11.890   9.012  10.784  1.1926 -1.1825  1.6167
  987MOL0     H36162  11.892   8.743  10.752  2.1548 -2.1207  1.2565
  987MOL0     H36163  12.005   8.773  10.641 -0.8864 -0.5992  0.2656
  987MOL0     H36164  12.212   8.815  10.639 -0.4554  1.4966  0.4296
  987MOL0     H36165  12.409   8.839  10.523 -1.2176 -0.7160  1.0482
  987MOL0     H36166  12.563   8.797  10.588  2.0206  2.8799 -2.0840
  987MOL0     H36167  12.525   8.964  10.594  2.4783 -1.5287 -3.0438
  987MOL0     H36168  12.872   9.002  10.860 -1.6593 -1.5472  0.3394
  987MOL0     H36169  13.123   8.952  10.858  0.8805  0.4147 -3.7005
  987MOL0     H36170  13.237   8.525  10.781  1.4414 -0.1636  2.7895
  987MOL0     H36171  13.278   8.617  10.631 -1.1276  0.2957  0.6743
  987MOL0     H36172  13.476   8.529  10.690 -1.2219  2.1530 -2.4924
  987MOL0     H36173  13.479   8.691  10.725 -1.4249 -0.4293 -1.7245
  987MOL0     H36174  13.398   8.538  10.969  0.9245 -0.9175  0.3957
  987MOL0     H36175  13.531   8.652  10.959  1.5738  1.0582 -1.7084
  987MOL0     H36176  13.684   8.466  10.883  0.3815 -0.1156 -0.6063
  987MOL0     H36177  13.556   8.370  10.836  0.6053 -3.5610  2.7028
  987MOL0     H36178  13.635   8.280  11.048 -2.6800 -1.8649 -1.8692
  987MOL0     H36179  13.580   8.418  11.130  2.8158 -2.6222  0.9083
  987MOL0     H36180  13.433   8.216  10.963  0.1229  0.6367 -0.0248
  987MOL0     H36181  13.348   8.344  11.056  0.4985  0.8869 -1.3489
  987MOL0     H36182  13.412   8.256  11.257  1.9723  1.0842 -0.4018
  987MOL0     H36183  13.539   8.148  11.206  1.0324  3.3430  1.6538
  987MOL0     H36184  13.248   8.099  11.121 -0.8203  0.8526  1.4690
  987MOL0     H36185  13.335   8.031  11.267 -1.0163 -0.4365 -2.0323
  987MOL0     H36186  13.032   8.581  10.690 -0.1193  0.5878 -2.0657
  987MOL0     H36187  12.799   8.623  10.692 -0.8646  1.6584 -1.6832
  987MOL0     H36188  12.434   8.823  11.073 -3.3718  3.3987  0.8239
  987MOL0     H36189  12.205   8.780  11.069 -1.0592  0.3262 -0.6687
  987MOL0     H36190  10.466   9.754  10.352  0.7969  0.3865 -0.6189
  987MOL0     H36191  10.344   9.718  10.150 -0.5677  2.0337 -0.3399
  987MOL0     H36192  10.465   9.606   9.675 -0.9648  2.1693  2.7388
  987MOL0     H36193  10.393   9.556   9.444 -1.8362 -1.7020 -0.8587
  987MOL0     H36194  10.278   9.603   9.245 -0.4416 -1.0665 -0.4471
  987MOL0     H36195  10.127   9.583   9.174  1.4482 -1.5742 -0.6801
  987MOL0     H36196  10.161   9.818   9.203 -1.2262 -2.4425 -2.3140
  987MOL0     H36197  10.193   9.806   9.371 -0.1256  1.2561 -0.6229
  987MOL0     H36198   9.923   9.704   9.294 -1.5474  1.5721 -2.0675
  987MOL0     H36199   9.977   9.775   9.442  1.7161 -1.3549 -0.4680
  987MOL0     H36200   9.817   9.915   9.309  0.9370 -0.1597  1.6112
  987MOL0     H36201   9.920   9.885   9.163  0.4523  0.7180  0.1306
  987MOL0     H36202  10.114  10.222   9.329  1.1360 -1.2342 -0.5763
  987MOL0     H36203   9.985   9.553   9.581  0.0195  2.4212  1.2608
  987MOL0     H36204  10.072   9.470   9.899  0.4815  0.8314  0.3776
  987MOL0     H36205  10.034   9.644   9.906 -0.6059 -0.5184  0.2594
  987MOL0     H36206   9.937   9.537   9.799 -0.0604 -2.2760 -0.2269
  988MOL0     O36207   1.220   6.652   7.655 -0.7210 -0.3723  0.4043
  988MOL0     C36208   1.236   6.628   7.776 -0.8554 -0.2631 -0.0917
  988MOL0     O36209   1.352   6.586   7.839 -0.0673  0.3260 -0.3709
  988MOL0     C36210   1.453   6.523   7.759 -0.5109  0.4082 -1.3041
  988MOL0     C36211   1.585   6.565   7.764 -0.2487  0.4433 -0.4786
  988MOL0     C36212   1.686   6.514   7.679  0.4584  0.0715 -0.2608
  988MOL0     C36213   1.647   6.404   7.589  0.3490 -0.6423 -0.2289
  988MOL0     O36214   1.748   6.358   7.510 -0.0098 -0.1387  0.3961
  988MOL0     C36215   1.710   6.264   7.409  0.3544  0.7074 -0.4118
  988MOL0     C36216   1.831   6.199   7.344  0.1573  0.4440  0.6805
  988MOL0     C36217   1.928   6.128   7.436  0.0888  0.0694  0.0703
  988MOL0     C36218   2.028   6.048   7.347  0.1887  0.1508 -0.2138
  988MOL0     C36219   2.135   5.989   7.428 -0.0270 -0.5765 -0.1131
  988MOL0     C36220   2.232   5.881   7.370 -0.2772 -0.6134  0.1628
  988MOL0     C36221   2.289   5.923   7.230 -0.4000 -0.8545 -0.0660
  988MOL0     C36222   2.350   6.056   7.220  0.3264 -1.3079 -0.8183
  988MOL0     N36223   2.401   6.084   7.089  0.0636  0.2553 -0.1697
  988MOL0     C36224   2.355   6.179   6.999  0.4219  0.9884  0.8257
  988MOL0     C36225   2.451   6.191   6.905  0.0326  0.7547 -0.1937
  988MOL0     C36226   2.461   6.277   6.791  0.5657  1.5560  0.3941
  988MOL0     C36227   2.409   6.420   6.796  0.5090  1.6714  0.8082
  988MOL0     C36228   2.482   6.514   6.885  0.2772 -0.7618  0.1218
  988MOL0     C36229   2.631   6.525   6.868 -0.8068  0.1623 -0.1536
  988MOL0     O36230   2.703   6.423   6.943 -0.7695  0.0586 -0.2436
  988MOL0     C36231   2.839   6.401   6.940 -0.6208  0.5547  0.5896
  988MOL0     C36232   2.933   6.495   6.900  0.3099 -0.3834 -0.4047
  988MOL0     C36233   3.068   6.475   6.919  0.5799 -0.6383  0.4171
  988MOL0     C36234   3.157   6.588   6.873  1.6045 -0.3461 -0.1462
  988MOL0     C36235   3.119   6.348   6.952  0.5188 -0.5848 -0.0910
  988MOL0     C36236   3.261   6.309   6.958  0.0428  0.4317 -0.1861
  988MOL0     O36237   3.289   6.186   7.013 -0.5971  0.1135 -0.8721
  988MOL0     C36238   3.420   6.150   7.025  0.5411  0.8455  0.5670
  988MOL0     C36239   3.476   6.049   6.950 -0.8897  0.5909  0.1948
  988MOL0     C36240   3.608   6.010   6.980  0.7155  0.0817 -0.1045
  988MOL0     C36241   3.678   6.067   7.094  0.3560  0.3952 -0.6152
  988MOL0     O36242   3.803   6.027   7.130 -0.1705  1.0867  0.3684
  988MOL0     C36243   3.905   6.027   7.023  0.6399  0.2160 -0.1153
  988MOL0     C36244   3.999   5.897   7.046 -0.3620 -0.5013 -0.6772
  988MOL0     C36245   4.121   5.884   6.956 -1.4010  0.9052 -0.0564
  988MOL0     C36246   4.077   5.805   6.830 -1.2623  0.6817 -0.7590
  988MOL0     C36247   4.177   5.807   6.714 -0.1180 -0.3891 -0.3800
  988MOL0     C36248   4.112   5.751   6.589 -0.0450 -0.2918  0.6224
  988MOL0     C36249   4.198   5.652   6.514 -0.1211 -0.1525  0.3502
  988MOL0     C36250   4.131   5.618   6.384  0.9484 -0.8330 -0.0168
  988MOL0    Cl36251   4.058   5.763   6.298  0.0148 -0.2078  0.2773
  988MOL0     C36252   3.615   6.169   7.170 -0.3851 -0.4522  0.5322
  988MOL0     C36253   3.488   6.211   7.130 -0.2345  1.2559  0.0978
  988MOL0     O36254   3.345   6.386   6.908  0.4794  0.2818  0.0080
  988MOL0     C36255   3.020   6.254   6.985  0.0760  0.1946  0.1966
  988MOL0     C36256   2.885   6.281   6.978  0.3157  0.8932  0.3150
  988MOL0     N36257   2.560   6.105   6.942  0.6928 -0.3455 -0.0581
  988MOL0     N36258   2.526   6.046   7.051 -0.6056 -0.6740 -0.4555
  988MOL0     C36259   1.506   6.366   7.572  0.7219  0.0201 -0.6346
  988MOL0     C36260   1.418   6.429   7.663 -0.1016 -0.1928  0.0434
  988MOL0     C36261   1.114   6.665   7.861 -0.0973 -0.2758  0.1797
  988MOL0     C36262   1.138   6.739   7.981 -0.3500 -0.8104  0.1767
  988MOL0     C36263   1.029   6.779   8.055 -0.1830 -0.1992 -0.1265
  988MOL0     C36264   0.897   6.738   8.023  0.2410 -0.2793 -0.3343
  988MOL0     O36265   0.792   6.759   8.111  1.0593  0.4215 -0.5145
  988MOL0     C36266   0.654   6.754   8.063 -0.0720 -1.0767 -0.7861
  988MOL0     C36267   0.564   6.841   8.162 -0.4043 -0.3291 -0.0374
  988MOL0     C36268   0.571   6.766   8.295  0.1900 -0.0947  0.7716
  988MOL0     C36269   0.543   6.853   8.424  0.7833  0.0621  0.6677
  988MOL0     C36270   0.437   6.954   8.410 -0.0162  0.3313 -0.7668
  988MOL0     C36271   0.344   7.030   8.408  0.6134 -0.5778  0.0274
  988MOL0     C36272   0.881   6.660   7.909 -0.3572  0.5332 -0.5268
  988MOL0     C36273   0.986   6.617   7.827 -0.6713 -1.3201 -1.0492
  988MOL0     C36274   0.954   6.522   7.712 -0.3175 -0.0035  0.0353
  988MOL0     H36275   1.605   6.649   7.830 -1.9955  2.3498 -2.2048
  988MOL0     H36276   1.787   6.552   7.691  0.4542  0.2668 -0.8559
  988MOL0     H36277   1.646   6.310   7.333 -0.8330  3.1633  1.9286
  988MOL0     H36278   1.648   6.186   7.453  0.1824  2.0520  1.8873
  988MOL0     H36279   1.779   6.132   7.275  1.2554 -0.9424  1.1370
  988MOL0     H36280   1.899   6.266   7.290 -0.8593 -0.8650 -2.4422
  988MOL0     H36281   1.984   6.203   7.493 -1.7181  0.7719  0.9779
  988MOL0     H36282   1.877   6.062   7.507 -0.4825 -0.9798 -1.2628
  988MOL0     H36283   1.974   5.966   7.299  0.3568 -0.3908  0.5047
  988MOL0     H36284   2.072   6.109   7.267 -0.4424 -2.1935 -2.4807
  988MOL0     H36285   2.101   5.951   7.525  0.5788 -1.4373 -0.2278
  988MOL0     H36286   2.200   6.072   7.454  0.5263 -1.1582  0.3866
  988MOL0     H36287   2.313   5.858   7.440 -1.2295 -1.0789  1.1272
  988MOL0     H36288   2.177   5.787   7.359  2.4461 -2.1975 -1.3552
  988MOL0     H36289   2.210   5.920   7.154  2.3630 -3.0201 -3.1680
  988MOL0     H36290   2.356   5.844   7.193 -2.8916 -2.2372 -1.9111
  988MOL0     H36291   2.274   6.131   7.245  0.5189 -1.0985 -0.8496
  988MOL0     H36292   2.435   6.079   7.285  2.1326 -1.5210 -2.9844
  988MOL0     H36293   2.272   6.249   7.011  1.7004  2.4864  1.3712
  988MOL0     H36294   2.405   6.236   6.707  2.7589  0.7753 -0.7634
  988MOL0     H36295   2.565   6.284   6.756  0.5994  0.6928  0.3087
  988MOL0     H36296   2.419   6.457   6.693 -3.5894 -0.3907 -0.5561
  988MOL0     H36297   2.302   6.417   6.820  0.0719 -1.6839 -0.9170
  988MOL0     H36298   2.441   6.614   6.866 -1.9947 -1.5340  0.6387
  988MOL0     H36299   2.452   6.493   6.988 -3.6586 -0.1485 -0.7517
  988MOL0     H36300   2.654   6.509   6.762 -0.0642  1.2341 -0.1749
  988MOL0     H36301   2.669   6.623   6.898 -0.7961 -0.3328  1.5816
  988MOL0     H36302   2.895   6.595   6.887 -0.7726 -0.9532 -1.9420
  988MOL0     H36303   3.191   6.554   6.775 -1.6936 -0.3687 -1.4308
  988MOL0     H36304   3.235   6.611   6.946 -1.9824 -0.1709  4.0599
  988MOL0     H36305   3.090   6.674   6.864 -0.2204 -1.8505 -2.0295
  988MOL0     H36306   3.424   5.996   6.870 -0.0692  0.3439 -0.1952
  988MOL0     H36307   3.659   5.927   6.932 -2.6596 -2.9321  1.1039
  988MOL0     H36308   3.852   6.038   6.929 -1.5560  0.8776  1.1287
  988MOL0     H36309   3.972   6.110   7.047  2.1602 -1.6237  2.6208
  988MOL0     H36310   4.025   5.908   7.151  1.9243 -0.7912 -1.1563
  988MOL0     H36311   3.938   5.807   7.036 -0.2707 -0.7776  1.0354
  988MOL0     H36312   4.207   5.835   7.003 -1.4733  0.5485 -0.2869
  988MOL0     H36313   4.168   5.980   6.935  3.2129 -0.6470  1.8065
  988MOL0     H36314   3.990   5.851   6.781  0.9848  2.6578 -3.1832
  988MOL0     H36315   4.058   5.701   6.859  3.2578 -0.1195  0.1502
  988MOL0     H36316   4.219   5.907   6.700 -0.4861 -0.3251 -1.0864
  988MOL0     H36317   4.260   5.742   6.742  2.3849  1.8435 -2.1589
  988MOL0     H36318   4.084   5.844   6.539 -0.3474 -0.0086  1.3037
  988MOL0     H36319   4.017   5.707   6.618 -1.7991  3.4258  1.1770
  988MOL0     H36320   4.214   5.565   6.578  1.7046 -0.8061 -0.9130
  988MOL0     H36321   4.294   5.703   6.502  0.7396 -1.7498  0.2328
  988MOL0     H36322   4.052   5.543   6.394 -1.0770  1.0688 -0.8629
  988MOL0     H36323   4.214   5.587   6.319  1.1040  0.3046 -0.3774
  988MOL0     H36324   3.662   6.212   7.258  1.8478  0.1805 -0.8884
  988MOL0     H36325   3.441   6.286   7.193  1.4308  2.3758  0.0754
  988MOL0     H36326   3.051   6.158   7.025 -1.9162 -0.0899  1.2100
  988MOL0     H36327   2.816   6.198   6.992  1.7102 -0.4582 -0.4269
  988MOL0     H36328   1.464   6.298   7.499 -0.6632 -0.9741  1.0261
  988MOL0     H36329   1.316   6.394   7.657  0.4914 -1.8802 -1.6504
  988MOL0     H36330   1.236   6.765   8.021 -0.9442 -2.5898  3.0917
  988MOL0     H36331   1.037   6.833   8.149  0.7451 -0.7638  0.1348
  988MOL0     H36332   0.642   6.813   7.972 -2.1994  3.4382  2.0458
  988MOL0     H36333   0.624   6.650   8.070 -0.0057 -1.0856 -0.6236
  988MOL0     H36334   0.461   6.856   8.126 -0.2645 -1.5107 -1.0077
  988MOL0     H36335   0.608   6.940   8.170 -0.2770 -0.3171 -0.7734
  988MOL0     H36336   0.503   6.680   8.290  0.8804 -0.8758  3.3529
  988MOL0     H36337   0.673   6.729   8.304  0.2468 -0.3527 -0.6353
  988MOL0     H36338   0.639   6.900   8.449  0.9559 -0.8234  1.7643
  988MOL0     H36339   0.540   6.799   8.519 -1.2207 -2.3586 -0.6541
  988MOL0     H36340   0.255   7.089   8.395  1.7113  1.1251 -0.0540
  988MOL0     H36341   0.787   6.608   7.897 -0.1144  0.2925 -1.4482
  988MOL0     H36342   1.037   6.457   7.680  1.2478 -0.3449  4.1384
  988MOL0     H36343   0.880   6.447   7.741  1.1052 -2.0351 -1.3146
  988MOL0     H36344   0.925   6.571   7.619  1.0177 -2.6181 -1.8989
  989MOL0     O36345  10.975   6.055   3.117  0.1139 -0.6360  0.1379
  989MOL0     C36346  10.977   5.937   3.098 -0.1872 -0.5012  0.0111
  989MOL0     O36347  11.088   5.860   3.058 -0.3354  0.2346  0.7115
  989MOL0     C36348  11.203   5.940   3.035 -0.1938  0.2781  0.6074
  989MOL0     C36349  11.239   5.985   2.900 -0.4956  0.3471 -0.2637
  989MOL0     C36350  11.361   6.054   2.891  0.1616 -0.4196  0.4982
  989MOL0     C36351  11.444   6.075   3.003 -0.0271 -0.3115 -0.4056
  989MOL0     O36352  11.578   6.113   2.990  0.3172 -0.0454 -0.2982
  989MOL0     C36353  11.647   6.088   2.868  0.2571 -0.1529  0.6715
  989MOL0     C36354  11.802   6.101   2.880  0.0418  1.0684 -0.3121
  989MOL0     C36355  11.850   6.228   2.945  0.6870 -0.6448 -0.2526
  989MOL0     C36356  11.998   6.221   2.966 -0.6085  0.4614  0.4658
  989MOL0     C36357  12.043   6.342   3.046  0.3775 -0.4166 -0.2180
  989MOL0     C36358  12.196   6.344   3.057  0.3293 -0.2218 -0.7898
  989MOL0     C36359  12.249   6.475   3.116  0.2007  0.0811 -0.2910
  989MOL0     C36360  12.393   6.498   3.066 -0.8165 -0.9999 -0.5936
  989MOL0     N36361  12.447   6.630   3.120 -0.3125  0.3111  0.0788
  989MOL0     C36362  12.407   6.757   3.079  0.1790 -0.3734 -0.9783
  989MOL0     C36363  12.483   6.851   3.154 -0.3651  0.0679 -0.6048
  989MOL0     C36364  12.486   7.002   3.139  0.5894  0.1821 -0.1915
  989MOL0     C36365  12.492   7.053   3.003  1.2437  0.1072 -0.8673
  989MOL0     C36366  12.609   6.993   2.926  1.0739  0.9254 -0.5845
  989MOL0     C36367  12.619   7.067   2.799 -0.0771 -0.1456 -0.4699
  989MOL0     O36368  12.711   7.010   2.711 -0.2485  0.8303 -0.3014
  989MOL0     C36369  12.844   7.028   2.737 -0.8649 -1.1579  0.7766
  989MOL0     C36370  12.897   7.158   2.715 -0.1899  0.1850  0.0295
  989MOL0     C36371  13.036   7.181   2.730 -0.3609 -0.0429 -0.1736
  989MOL0     C36372  13.089   7.317   2.687  0.1957  0.5648 -0.6231
  989MOL0     C36373  13.129   7.080   2.780  0.0535  0.3787  0.2741
  989MOL0     C36374  13.279   7.087   2.780 -0.0977  0.2092  0.2947
  989MOL0     O36375  13.327   7.213   2.815 -0.5594 -0.1974 -0.3239
  989MOL0     C36376  13.460   7.230   2.848 -0.4695 -0.6714  0.1931
  989MOL0     C36377  13.513   7.354   2.831  0.0113  0.1802  0.4480
  989MOL0     C36378  13.653   7.368   2.860  1.0024 -0.0675  1.2041
  989MOL0     C36379  13.738   7.258   2.889  0.5277  0.3483 -1.0658
  989MOL0     O36380  13.870   7.264   2.884  1.2577  0.1393 -0.2041
  989MOL0     C36381  13.940   7.270   3.008 -1.0517  0.2480 -0.4826
  989MOL0     C36382  14.084   7.242   2.967  0.2787  0.8263 -0.3260
  989MOL0     C36383  14.194   7.229   3.078 -0.3557 -0.2555  1.0780
  989MOL0     C36384  14.224   7.083   3.114 -0.0946 -0.0759 -0.6581
  989MOL0     C36385  14.364   7.067   3.172  0.1971  0.4917 -0.0905
  989MOL0     C36386  14.405   6.926   3.196 -0.4607  1.7035  0.3929
  989MOL0     C36387  14.564   6.922   3.226  0.2942  0.2415  0.6147
  989MOL0     C36388  14.603   6.774   3.249 -0.5500  0.2962 -0.0832
  989MOL0    Cl36389  14.523   6.710   3.396 -0.1274 -0.0348 -0.0203
  989MOL0     C36390  13.676   7.144   2.934 -0.4120 -0.2778 -1.0636
  989MOL0     C36391  13.541   7.120   2.903  0.8488 -0.4864  0.3077
  989MOL0     O36392  13.344   6.990   2.752  0.1573 -0.6853 -0.2707
  989MOL0     C36393  13.065   6.951   2.804 -0.4223 -0.2590  0.1247
  989MOL0     C36394  12.931   6.931   2.781  0.1073  0.3050 -0.2650
  989MOL0     N36395  12.567   6.766   3.224 -0.8749  0.0894 -0.2684
  989MOL0     N36396  12.542   6.641   3.212 -0.8211  0.4616 -0.2389
  989MOL0     C36397  11.407   6.041   3.126  0.5810 -1.3256  0.3914
  989MOL0     C36398  11.279   5.974   3.142  0.6488 -0.2590  0.7571
  989MOL0     C36399  10.847   5.866   3.122  0.2114 -0.0028  0.2559
  989MOL0     C36400  10.832   5.747   3.042 -0.9959 -0.3746 -0.1358
  989MOL0     C36401  10.716   5.675   3.055  0.5532  0.1326 -0.2096
  989MOL0     C36402  10.608   5.722   3.137 -0.2430  0.4085  0.1391
  989MOL0     O36403  10.496   5.653   3.143  0.8542  0.3650 -0.7357
  989MOL0     C36404  10.367   5.715   3.109 -0.6747 -0.7869 -0.5226
  989MOL0     C36405  10.344   5.723   2.957  0.6201  0.2712  0.5904
  989MOL0     C36406  10.214   5.782   2.912  0.2846  0.3035  0.5432
  989MOL0     C36407  10.122   5.661   2.888 -0.7176 -0.4521  1.0739
  989MOL0     C36408   9.986   5.713   2.878 -0.6045 -1.1259 -0.5725
  989MOL0     C36409   9.870   5.746   2.859  0.0565 -0.4630  0.2848
  989MOL0     C36410  10.627   5.841   3.218 -0.2501  0.4038  0.5072
  989MOL0     C36411  10.743   5.904   3.216 -1.0788 -0.7526 -0.2060
  989MOL0     C36412  10.751   6.025   3.304  1.1251  0.8036 -0.5687
  989MOL0     H36413  11.181   5.965   2.810  2.0640 -1.1773 -1.7068
  989MOL0     H36414  11.411   6.081   2.798 -0.1680  1.5243  0.8367
  989MOL0     H36415  11.613   6.154   2.788 -0.5601 -1.7199 -0.3385
  989MOL0     H36416  11.627   5.987   2.830 -1.2920  0.5119 -0.3994
  989MOL0     H36417  11.846   6.017   2.936  1.9374  1.9757 -0.3548
  989MOL0     H36418  11.853   6.083   2.785  1.5929 -0.6751  0.7720
  989MOL0     H36419  11.809   6.313   2.891 -2.8961 -1.0160  1.5777
  989MOL0     H36420  11.801   6.224   3.043  1.1998 -0.8034  0.0023
  989MOL0     H36421  12.019   6.137   3.033 -1.0510  0.6818  0.8828
  989MOL0     H36422  12.041   6.205   2.867 -3.0233 -0.4680 -0.5018
  989MOL0     H36423  11.995   6.344   3.144  0.2942  3.7841 -0.1728
  989MOL0     H36424  11.997   6.427   2.994 -2.2724 -0.5181  1.7415
  989MOL0     H36425  12.227   6.259   3.120  2.8458  0.1704 -1.3711
  989MOL0     H36426  12.246   6.342   2.960  1.3374  2.2449 -0.3910
  989MOL0     H36427  12.244   6.476   3.226 -1.5893 -3.6377 -0.1869
  989MOL0     H36428  12.185   6.560   3.093  0.7123  1.2996  2.3600
  989MOL0     H36429  12.445   6.415   3.115 -0.6029 -1.0378 -0.8770
  989MOL0     H36430  12.412   6.484   2.959 -0.2129  2.4410 -1.0433
  989MOL0     H36431  12.344   6.796   3.000  1.6596  3.2320 -0.5763
  989MOL0     H36432  12.570   7.041   3.198  0.4446  1.4696 -0.8027
  989MOL0     H36433  12.393   7.043   3.179  0.2422  1.5790 -2.2766
  989MOL0     H36434  12.401   7.029   2.948 -0.0854  0.7311  0.9952
  989MOL0     H36435  12.504   7.162   3.005  0.4124  0.3959  4.9005
  989MOL0     H36436  12.702   7.027   2.975 -0.1100 -0.4999  2.9879
  989MOL0     H36437  12.597   6.886   2.907 -3.9686  1.3844 -1.3695
  989MOL0     H36438  12.526   7.072   2.742  1.3201  1.3163 -2.8345
  989MOL0     H36439  12.647   7.173   2.798 -0.9550  0.0908 -0.4341
  989MOL0     H36440  12.825   7.237   2.697  0.3498  1.4425  2.8323
  989MOL0     H36441  13.194   7.317   2.656  1.0471 -0.3239  2.0157
  989MOL0     H36442  13.071   7.394   2.762  2.3667  0.7407 -0.2405
  989MOL0     H36443  13.030   7.352   2.601 -1.3752 -0.2170  0.1075
  989MOL0     H36444  13.448   7.437   2.804  1.2887  1.3332  0.7944
  989MOL0     H36445  13.678   7.469   2.830  0.1370  0.0155  0.7042
  989MOL0     H36446  13.926   7.362   3.064  1.5799 -0.2729  1.2132
  989MOL0     H36447  13.905   7.197   3.081 -1.1373  0.1302 -0.6381
  989MOL0     H36448  14.086   7.155   2.901  0.7138 -0.0845  0.8407
  989MOL0     H36449  14.111   7.325   2.901  0.4679 -1.1357 -2.8710
  989MOL0     H36450  14.181   7.284   3.171 -0.0059 -0.4575  1.2484
  989MOL0     H36451  14.283   7.263   3.024 -0.6771 -0.3681  0.4655
  989MOL0     H36452  14.212   7.008   3.035  2.2138 -0.2507 -0.9137
  989MOL0     H36453  14.149   7.055   3.188  0.4170  1.9350  0.7066
  989MOL0     H36454  14.441   7.103   3.102 -1.6911  1.8018 -1.5915
  989MOL0     H36455  14.373   7.131   3.260  2.2898 -0.4125  0.4169
  989MOL0     H36456  14.385   6.872   3.103 -1.7172 -0.7864  1.9770
  989MOL0     H36457  14.345   6.868   3.267 -0.4755  0.1437 -0.8295
  989MOL0     H36458  14.590   6.989   3.308 -1.4774  0.1355  1.3205
  989MOL0     H36459  14.618   6.956   3.137  2.5065  0.9837  2.1754
  989MOL0     H36460  14.711   6.773   3.260 -0.7785  0.3447  2.9311
  989MOL0     H36461  14.555   6.715   3.171 -3.3438  1.9077  0.2751
  989MOL0     H36462  13.728   7.059   2.978  0.7200  2.1275  2.7201
  989MOL0     H36463  13.501   7.029   2.944 -1.0624  1.0223  2.0037
  989MOL0     H36464  13.119   6.867   2.845 -0.2895 -1.0857 -1.6476
  989MOL0     H36465  12.893   6.831   2.796  1.4582 -0.2762 -0.6018
  989MOL0     H36466  11.465   6.057   3.216  0.5391  1.7509 -0.0449
  989MOL0     H36467  11.251   5.940   3.241 -2.3657 -2.4294 -0.6762
  989MOL0     H36468  10.906   5.712   2.971  3.6031  0.4994  3.6863
  989MOL0     H36469  10.695   5.578   3.013 -0.4601 -0.0506  0.6812
  989MOL0     H36470  10.284   5.654   3.147 -1.8341  1.3822  0.6169
  989MOL0     H36471  10.357   5.810   3.163  0.1148 -2.7787  3.4818
  989MOL0     H36472  10.353   5.625   2.910 -2.8492 -0.0887  0.4290
  989MOL0     H36473  10.433   5.775   2.919 -0.8542  1.9251 -0.7543
  989MOL0     H36474  10.177   5.860   2.980  0.8257 -0.3624  1.6429
  989MOL0     H36475  10.234   5.831   2.817 -0.5964 -2.0314 -0.9431
  989MOL0     H36476  10.125   5.594   2.974  1.3511 -0.8222  0.7591
  989MOL0     H36477  10.147   5.624   2.788 -0.3968  4.8699 -1.1678
  989MOL0     H36478   9.766   5.767   2.844 -0.9341 -3.4885  1.9433
  989MOL0     H36479  10.555   5.880   3.289 -0.0059 -1.7173  2.0301
  989MOL0     H36480  10.825   6.002   3.381  1.2626 -0.7486 -1.1255
  989MOL0     H36481  10.772   6.118   3.250  1.3482  0.8167 -0.4590
  989MOL0     H36482  10.655   6.033   3.357 -0.7059 -1.3274 -3.2681
  990MOL0     O36483   3.389   1.403   4.325 -0.0629 -0.3518  0.8219
  990MOL0     C36484   3.320   1.320   4.273  0.5980  1.2326 -0.3696
  990MOL0     O36485   3.191   1.308   4.288  0.3502 -0.2080  0.4680
  990MOL0     C36486   3.122   1.406   4.350 -0.3640 -0.8176  0.1813
  990MOL0     C36487   3.025   1.376   4.439  0.0519 -0.4014 -0.0608
  990MOL0     C36488   2.964   1.467   4.522 -0.0183  0.4272  0.3816
  990MOL0     C36489   2.986   1.599   4.495  0.0397  0.8974 -0.3622
  990MOL0     O36490   2.922   1.705   4.554  0.1517  0.1431  0.7472
  990MOL0     C36491   2.863   1.679   4.677  0.1616  0.0045 -0.4618
  990MOL0     C36492   2.819   1.809   4.737  0.1262 -0.2008 -0.9070
  990MOL0     C36493   2.690   1.859   4.681 -0.6873  0.1211  0.3950
  990MOL0     C36494   2.663   2.013   4.702  0.0255  0.0845  0.6287
  990MOL0     C36495   2.535   2.065   4.642  0.8141  0.3558 -0.4968
  990MOL0     C36496   2.406   2.019   4.710 -0.0953 -0.2287 -1.0919
  990MOL0     C36497   2.289   2.112   4.673  0.5234  0.5514 -0.4510
  990MOL0     C36498   2.158   2.052   4.716 -0.7558 -0.6700 -0.3590
  990MOL0     N36499   2.155   2.027   4.862 -0.2938  1.0061 -0.0593
  990MOL0     C36500   2.155   2.115   4.965 -0.3399 -0.2127  0.9755
  990MOL0     C36501   2.146   2.045   5.078 -0.1325  0.2154  0.9799
  990MOL0     C36502   2.138   2.084   5.219 -0.0351 -0.2566 -1.0736
  990MOL0     C36503   2.246   2.028   5.300 -0.2310  0.6789  0.3858
  990MOL0     C36504   2.204   1.882   5.357 -0.2226 -0.6837 -0.1041
  990MOL0     C36505   2.304   1.839   5.469 -0.1653 -0.9489 -0.3632
  990MOL0     O36506   2.293   1.700   5.497  0.8482 -0.6121  0.1492
  990MOL0     C36507   2.372   1.653   5.603 -0.3309  1.2904  0.1450
  990MOL0     C36508   2.321   1.547   5.689 -0.8003  0.4675  0.0316
  990MOL0     C36509   2.397   1.506   5.812 -0.4632  0.8678 -0.7382
  990MOL0     C36510   2.336   1.398   5.894  0.4183  0.8137 -0.8812
  990MOL0     C36511   2.524   1.564   5.842 -0.0756  0.5220 -1.0192
  990MOL0     C36512   2.612   1.527   5.957  0.1742  0.4695  0.3132
  990MOL0     O36513   2.703   1.625   5.990  0.4990 -0.6534  0.4579
  990MOL0     C36514   2.817   1.584   6.057  0.0631 -0.3743 -0.7123
  990MOL0     C36515   2.804   1.551   6.193  0.9034 -0.0526 -0.0384
  990MOL0     C36516   2.915   1.495   6.261  0.5363 -0.0653 -0.8179
  990MOL0     C36517   3.030   1.466   6.186 -0.4249  0.7418 -0.8398
  990MOL0     O36518   3.138   1.388   6.221  0.2538 -0.1873 -0.0887
  990MOL0     C36519   3.109   1.251   6.260  0.4141 -0.1452 -0.2197
  990MOL0     C36520   3.248   1.184   6.278  0.4548 -0.9398  0.7356
  990MOL0     C36521   3.235   1.053   6.352  0.1940 -0.2816  0.1295
  990MOL0     C36522   3.367   0.998   6.391 -0.7663 -0.1660  0.3852
  990MOL0     C36523   3.430   0.922   6.267  0.6102  0.3575  0.4939
  990MOL0     C36524   3.584   0.901   6.283  0.2476  0.5234  0.0090
  990MOL0     C36525   3.636   0.809   6.162 -0.5001  0.5193 -0.2600
  990MOL0     C36526   3.667   0.881   6.025  0.5385  0.7635 -0.2398
  990MOL0    Cl36527   3.515   0.919   5.929  0.1343 -0.1138  0.1454
  990MOL0     C36528   3.041   1.499   6.052  0.5215  0.1376 -0.2500
  990MOL0     C36529   2.934   1.556   5.984  0.0314  0.3137  0.1036
  990MOL0     O36530   2.600   1.420   6.013 -0.4275 -0.1271 -0.6259
  990MOL0     C36531   2.567   1.663   5.752 -0.3989 -0.1932  0.5363
  990MOL0     C36532   2.493   1.717   5.643  0.1616 -1.2573  0.1935
  990MOL0     N36533   2.143   1.911   5.047  0.0542 -0.9084  1.0284
  990MOL0     N36534   2.141   1.898   4.918 -0.3304 -0.1770  0.8352
  990MOL0     C36535   3.065   1.633   4.383  0.0692  0.1531 -0.0301
  990MOL0     C36536   3.140   1.536   4.320 -0.2294 -0.2868 -0.8843
  990MOL0     C36537   3.376   1.217   4.183 -0.6302  0.4507 -0.6017
  990MOL0     C36538   3.303   1.095   4.155 -0.4466 -0.0570 -0.1279
  990MOL0     C36539   3.350   1.007   4.054 -0.8630 -0.3150 -0.1055
  990MOL0     C36540   3.476   1.031   3.986  0.2353 -1.0218 -0.2409
  990MOL0     O36541   3.508   0.941   3.889 -0.0066  0.1878  0.3288
  990MOL0     C36542   3.596   0.988   3.783 -0.8970 -0.1745 -0.0269
  990MOL0     C36543   3.597   0.891   3.661 -0.6788  0.6271 -0.1346
  990MOL0     C36544   3.666   0.760   3.693 -0.3646  0.5817 -1.1530
  990MOL0     C36545   3.707   0.674   3.579 -0.2853  0.8771 -0.8777
  990MOL0     C36546   3.592   0.620   3.502 -0.0505  0.3404  0.2010
  990MOL0     C36547   3.500   0.574   3.435  0.7463  0.4610 -0.3277
  990MOL0     C36548   3.543   1.150   4.010  0.5388  0.2679  0.7862
  990MOL0     C36549   3.487   1.242   4.102 -0.1728 -0.4341  0.1785
  990MOL0     C36550   3.578   1.361   4.147 -0.0146  0.0496 -0.0963
  990MOL0     H36551   3.012   1.270   4.459 -0.0280 -0.5931 -1.1131
  990MOL0     H36552   2.890   1.425   4.590  0.1948 -0.8126 -0.1291
  990MOL0     H36553   2.949   1.644   4.735  1.1288  0.9444 -1.2922
  990MOL0     H36554   2.788   1.600   4.669 -1.1015  1.2910 -2.1240
  990MOL0     H36555   2.806   1.792   4.844 -2.8049  2.2253 -0.7377
  990MOL0     H36556   2.905   1.877   4.727  1.1477 -1.1680  0.7535
  990MOL0     H36557   2.705   1.840   4.575 -0.0975  0.1556  0.4710
  990MOL0     H36558   2.603   1.800   4.713  0.8632 -1.2240  2.3479
  990MOL0     H36559   2.665   2.031   4.810  0.5358  0.3195  0.5859
  990MOL0     H36560   2.747   2.066   4.655 -1.1406  0.7935 -0.7554
  990MOL0     H36561   2.529   2.034   4.537  0.4868 -0.3210 -0.2815
  990MOL0     H36562   2.527   2.174   4.647  0.0496  0.3077 -0.6147
  990MOL0     H36563   2.393   1.913   4.684  1.0873 -0.5319 -0.5372
  990MOL0     H36564   2.424   2.024   4.817  0.2818  1.5430 -1.2149
  990MOL0     H36565   2.294   2.123   4.565  3.9257 -2.2699 -0.7506
  990MOL0     H36566   2.303   2.208   4.724 -0.5452  0.0913  0.7633
  990MOL0     H36567   2.095   2.135   4.681 -1.7151 -0.7199  1.1349
  990MOL0     H36568   2.134   1.964   4.657 -1.7998 -1.9028  1.7660
  990MOL0     H36569   2.159   2.222   4.949  2.0496 -0.7370 -3.3094
  990MOL0     H36570   2.046   2.038   5.256  0.8343 -1.0675  0.1494
  990MOL0     H36571   2.136   2.194   5.222  1.1364 -0.1182 -3.0880
  990MOL0     H36572   2.337   2.034   5.241 -0.9738 -0.3356 -0.9180
  990MOL0     H36573   2.251   2.097   5.385  1.3430  0.9100  0.1365
  990MOL0     H36574   2.105   1.873   5.402  0.2434  2.5552  1.9472
  990MOL0     H36575   2.208   1.808   5.277  1.4281  1.3879 -2.0646
  990MOL0     H36576   2.408   1.857   5.441  0.8502 -3.2486  1.5488
  990MOL0     H36577   2.269   1.891   5.558  0.6685 -0.8103 -0.1165
  990MOL0     H36578   2.233   1.490   5.661  0.6761 -0.8329 -2.3193
  990MOL0     H36579   2.324   1.424   6.000  0.3930 -0.0242 -0.6731
  990MOL0     H36580   2.383   1.300   5.886 -1.5818 -0.1252 -1.8504
  990MOL0     H36581   2.233   1.382   5.861 -1.8818 -0.9600  5.6273
  990MOL0     H36582   2.708   1.567   6.242  1.0030 -0.9939  0.4870
  990MOL0     H36583   2.898   1.480   6.367 -1.6709 -0.9275 -1.2222
  990MOL0     H36584   3.058   1.236   6.356  0.8504 -2.3169 -0.2884
  990MOL0     H36585   3.061   1.194   6.180 -0.0538  0.5470 -0.4391
  990MOL0     H36586   3.302   1.170   6.184  0.0811  2.5124 -0.1261
  990MOL0     H36587   3.313   1.259   6.324  0.5836  0.3404 -1.4207
  990MOL0     H36588   3.178   0.981   6.292  1.5954  1.0774 -3.0589
  990MOL0     H36589   3.177   1.061   6.444  3.8966 -0.3205  2.6540
  990MOL0     H36590   3.357   0.933   6.479 -1.1096 -1.1129 -0.3309
  990MOL0     H36591   3.434   1.081   6.414  0.3429 -0.6642 -0.8853
  990MOL0     H36592   3.375   0.828   6.259  0.8495  0.3878 -3.2782
  990MOL0     H36593   3.423   0.973   6.170  2.0592 -2.0134 -0.9548
  990MOL0     H36594   3.602   0.855   6.380  0.8054 -0.0401 -0.3565
  990MOL0     H36595   3.643   0.993   6.281  1.5671 -0.2634  1.1346
  990MOL0     H36596   3.572   0.722   6.150 -0.0863  0.0997  0.4396
  990MOL0     H36597   3.728   0.763   6.200 -1.6380 -0.9053  0.8708
  990MOL0     H36598   3.716   0.815   5.954  0.4898  0.5853 -0.1094
  990MOL0     H36599   3.727   0.969   6.047  0.7305  0.8572 -1.1215
  990MOL0     H36600   3.135   1.474   6.003  1.5597  2.6744  0.2859
  990MOL0     H36601   2.932   1.574   5.877 -3.3647 -2.7399 -0.5453
  990MOL0     H36602   2.660   1.712   5.778  0.4568 -1.4364 -0.1316
  990MOL0     H36603   2.528   1.805   5.589 -1.6697 -0.0034  0.9423
  990MOL0     H36604   3.074   1.737   4.353  0.0182  0.4287  0.8606
  990MOL0     H36605   3.202   1.552   4.232  1.9315 -0.3654  0.5299
  990MOL0     H36606   3.210   1.080   4.211  0.7531 -2.2783  1.4186
  990MOL0     H36607   3.276   0.930   4.037 -2.5305  0.6433  2.2096
  990MOL0     H36608   3.573   1.088   3.745 -0.4140  0.7279  1.9372
  990MOL0     H36609   3.697   0.991   3.825 -1.3356  1.6614  0.9530
  990MOL0     H36610   3.652   0.946   3.583  2.3132 -0.7976  0.8301
  990MOL0     H36611   3.498   0.864   3.622 -0.6908  1.0728 -0.4303
  990MOL0     H36612   3.767   0.783   3.728  0.4541 -1.2611 -2.1431
  990MOL0     H36613   3.611   0.702   3.769 -1.4600 -0.8448 -2.9352
  990MOL0     H36614   3.758   0.594   3.633 -2.0975 -0.6421 -1.3131
  990MOL0     H36615   3.783   0.726   3.519 -0.6613  0.3884 -1.7832
  990MOL0     H36616   3.422   0.552   3.365 -1.6282 -0.0153  2.3091
  990MOL0     H36617   3.627   1.185   3.951 -1.2843 -1.0698 -2.9029
  990MOL0     H36618   3.611   1.367   4.251  0.2477  3.3523 -0.2445
  990MOL0     H36619   3.679   1.357   4.105  0.7706 -0.0339  1.7348
  990MOL0     H36620   3.542   1.463   4.129  2.4932  1.0881  0.3034
  991MOL0     O36621   7.225   5.171  10.841  0.4082 -0.2186  0.0046
  991MOL0     C36622   7.138   5.249  10.815  0.0691 -0.1647  0.0225
  991MOL0     O36623   7.082   5.348  10.900  0.5143  0.7624  0.2945
  991MOL0     C36624   7.155   5.401  11.006 -0.0169 -0.1122 -0.2533
  991MOL0     C36625   7.157   5.535  11.023  0.3107  0.6318 -0.4284
  991MOL0     C36626   7.232   5.588  11.128  0.0199  0.0300  0.8651
  991MOL0     C36627   7.291   5.513  11.225  0.2995 -0.1246  0.7965
  991MOL0     O36628   7.364   5.566  11.326 -0.0163 -0.3542  0.1475
  991MOL0     C36629   7.299   5.687  11.381 -0.2949  0.6533 -0.1333
  991MOL0     C36630   7.378   5.741  11.506 -0.6908  0.3441  1.0035
  991MOL0     C36631   7.357   5.637  11.620 -0.3330 -0.3855  0.1587
  991MOL0     C36632   7.457   5.517  11.634 -0.5894 -0.0380 -0.6771
  991MOL0     C36633   7.420   5.400  11.733  0.1394 -0.3502 -0.3911
  991MOL0     C36634   7.538   5.325  11.774  0.0822  0.1867  0.0943
  991MOL0     C36635   7.500   5.199  11.859 -0.8973 -0.2385  0.1412
  991MOL0     C36636   7.445   5.232  12.003  0.1944  0.1399 -0.4108
  991MOL0     N36637   7.551   5.287  12.088  0.6789  0.2708 -0.4699
  991MOL0     C36638   7.652   5.225  12.155  0.4230  0.0500  0.5467
  991MOL0     C36639   7.720   5.326  12.222  0.2716  0.1692 -0.4409
  991MOL0     C36640   7.839   5.315  12.316  0.2142 -0.2625  0.5228
  991MOL0     C36641   7.964   5.260  12.238 -0.0074  0.1795 -0.5009
  991MOL0     C36642   8.092   5.247  12.329  0.5697 -0.6843  0.7399
  991MOL0     C36643   8.190   5.149  12.272 -0.2772 -0.4587  0.3171
  991MOL0     O36644   8.284   5.093  12.365 -0.5549  0.0933 -0.4142
  991MOL0     C36645   8.390   5.172  12.392  0.8283 -0.3555 -0.1608
  991MOL0     C36646   8.479   5.117  12.476  0.4320  0.3945 -0.8561
  991MOL0     C36647   8.598   5.184  12.525 -0.2459 -1.0040 -0.2633
  991MOL0     C36648   8.679   5.098  12.620  0.1097 -0.2289  0.3640
  991MOL0     C36649   8.626   5.323  12.502  0.1508 -0.3556 -0.2770
  991MOL0     C36650   8.737   5.403  12.560  0.0525  0.5136 -0.6927
  991MOL0     O36651   8.750   5.528  12.511 -0.4552 -0.1618  0.5002
  991MOL0     C36652   8.745   5.639  12.596 -0.2440 -0.6931  0.3014
  991MOL0     C36653   8.796   5.762  12.550  1.0887  1.1752 -0.1026
  991MOL0     C36654   8.786   5.879  12.633  1.2732 -0.2685 -1.6079
  991MOL0     C36655   8.720   5.876  12.760 -0.5724 -0.1779  0.2928
  991MOL0     O36656   8.712   5.984  12.846 -0.4081  0.2261  0.0706
  991MOL0     C36657   8.697   5.964  12.982  0.7802  0.0913  0.0831
  991MOL0     C36658   8.715   6.098  13.051 -0.1502  0.3587 -0.0356
  991MOL0     C36659   8.852   6.160  13.031 -0.6408  0.4640  0.1382
  991MOL0     C36660   8.865   6.301  13.090  0.1231  0.0206  0.3563
  991MOL0     C36661   8.993   6.372  13.042 -0.5415 -0.5104 -0.3299
  991MOL0     C36662   9.023   6.498  13.124  0.1698  0.6087  0.7341
  991MOL0     C36663   9.158   6.569  13.093  0.6412  0.8133  0.5196
  991MOL0     C36664   9.189   6.698  13.174  0.3955  0.3583  0.1693
  991MOL0    Cl36665   9.075   6.840  13.150 -0.4418 -0.1490  0.4967
  991MOL0     C36666   8.665   5.748  12.791  0.2211 -0.3442 -0.2477
  991MOL0     C36667   8.678   5.637  12.716 -1.6335  1.1465  0.7574
  991MOL0     O36668   8.803   5.361  12.658  0.0807 -0.0739 -0.0923
  991MOL0     C36669   8.527   5.383  12.419  0.5340  0.2683 -0.0115
  991MOL0     C36670   8.410   5.309  12.366 -0.5033  0.6398 -0.0237
  991MOL0     N36671   7.671   5.442  12.179  0.0347 -0.9308  0.0452
  991MOL0     N36672   7.574   5.418  12.100  0.8331 -0.0473  0.2320
  991MOL0     C36673   7.273   5.375  11.219  0.6165  0.3627  0.5907
  991MOL0     C36674   7.214   5.328  11.102 -0.5011  0.6127  0.5305
  991MOL0     C36675   7.064   5.209  10.692 -0.0102 -0.1966 -0.1302
  991MOL0     C36676   7.142   5.170  10.585 -1.0328 -1.2222 -0.3413
  991MOL0     C36677   7.101   5.163  10.459  0.3986 -0.6607  0.1074
  991MOL0     C36678   6.962   5.190  10.428  0.6371  0.0350  0.2954
  991MOL0     O36679   6.918   5.221  10.299  0.5940 -0.0748 -1.4316
  991MOL0     C36680   7.000   5.210  10.184  0.8951 -0.3950 -0.7221
  991MOL0     C36681   7.079   5.344  10.149  0.0248  0.0737 -0.6298
  991MOL0     C36682   6.983   5.461  10.155 -0.7861  0.1747 -0.0485
  991MOL0     C36683   7.065   5.579  10.103  0.6451 -0.2015  0.8870
  991MOL0     C36684   6.967   5.693  10.087  0.5325 -0.6197  0.5966
  991MOL0     C36685   6.897   5.788  10.067  0.2484  0.2638 -0.1169
  991MOL0     C36686   6.871   5.205  10.532  0.2977  0.2309 -0.8277
  991MOL0     C36687   6.922   5.223  10.666 -0.0471  0.0116  0.3835
  991MOL0     C36688   6.827   5.268  10.773  0.7822 -0.0225 -0.1933
  991MOL0     H36689   7.101   5.603  10.960  1.4790  0.7024 -1.4224
  991MOL0     H36690   7.224   5.696  11.126 -0.1388  0.0204  0.9475
  991MOL0     H36691   7.196   5.669  11.411 -0.9935 -0.2731 -2.8057
  991MOL0     H36692   7.314   5.762  11.302  0.8452  1.3065  0.6780
  991MOL0     H36693   7.482   5.769  11.489 -0.3779 -1.6337 -0.8211
  991MOL0     H36694   7.338   5.840  11.530  4.0566  3.2766 -1.5127
  991MOL0     H36695   7.368   5.693  11.713 -1.4165  1.2860 -0.6428
  991MOL0     H36696   7.255   5.598  11.624  0.0228 -1.4576 -0.7432
  991MOL0     H36697   7.456   5.474  11.534  0.5917  0.5710 -0.9655
  991MOL0     H36698   7.557   5.556  11.657  0.0122 -2.6211  1.6236
  991MOL0     H36699   7.343   5.337  11.688 -1.0286 -0.4803  1.6798
  991MOL0     H36700   7.370   5.441  11.821 -0.6462 -0.6419 -0.6912
  991MOL0     H36701   7.611   5.291  11.700  2.9909  0.5428  2.5770
  991MOL0     H36702   7.591   5.395  11.838 -0.9728  1.4063 -0.3262
  991MOL0     H36703   7.589   5.137  11.873 -1.7003 -0.8674  3.3994
  991MOL0     H36704   7.430   5.134  11.806  0.9511  0.2840 -3.2339
  991MOL0     H36705   7.354   5.292  11.992 -0.6340 -0.7161  1.4301
  991MOL0     H36706   7.430   5.134  12.050 -1.0653 -0.7733 -2.5482
  991MOL0     H36707   7.667   5.118  12.148  2.3823  0.2565  1.0818
  991MOL0     H36708   7.810   5.255  12.403  0.2687 -0.8212  0.1654
  991MOL0     H36709   7.866   5.409  12.365 -1.9454  0.6628  0.0708
  991MOL0     H36710   7.954   5.156  12.204 -0.0119  0.5258 -1.5828
  991MOL0     H36711   7.981   5.315  12.145 -1.4353 -2.8470 -2.7387
  991MOL0     H36712   8.147   5.341  12.340 -1.2888  0.4133  1.0436
  991MOL0     H36713   8.058   5.222  12.430 -3.2670  2.3643  0.4401
  991MOL0     H36714   8.138   5.056  12.245 -0.1619  0.0104 -1.6401
  991MOL0     H36715   8.235   5.195  12.184 -0.9805  1.1147  0.7447
  991MOL0     H36716   8.460   5.017  12.514  0.0178  0.3227 -1.2409
  991MOL0     H36717   8.772   5.076  12.567  1.5743  1.0605  2.2759
  991MOL0     H36718   8.625   5.005  12.640 -0.7441  0.1406 -0.1478
  991MOL0     H36719   8.692   5.146  12.717  1.5687 -0.8449  0.4990
  991MOL0     H36720   8.840   5.757  12.451  1.0502 -0.9543 -0.0466
  991MOL0     H36721   8.829   5.976  12.612  0.3683  1.0540  1.9081
  991MOL0     H36722   8.595   5.937  13.011  1.7633 -0.7685  3.0180
  991MOL0     H36723   8.764   5.894  13.031  0.7259  1.5420  2.3548
  991MOL0     H36724   8.637   6.159  13.005 -0.9352 -2.9874 -3.6826
  991MOL0     H36725   8.685   6.095  13.156  0.0666  0.9130  0.0495
  991MOL0     H36726   8.879   6.161  12.925 -1.3235 -0.0652 -0.0490
  991MOL0     H36727   8.919   6.104  13.097 -2.2747  3.4996  4.8483
  991MOL0     H36728   8.855   6.287  13.198 -1.4870 -2.3729 -0.0312
  991MOL0     H36729   8.773   6.355  13.065 -0.3425 -0.2738  1.3817
  991MOL0     H36730   9.074   6.301  13.059 -0.9647 -0.2459  3.8615
  991MOL0     H36731   8.989   6.393  12.935  0.1978 -3.4910 -1.0351
  991MOL0     H36732   9.020   6.468  13.229 -0.1695  1.8896  1.1170
  991MOL0     H36733   8.943   6.571  13.108  2.0280  2.0891 -2.9379
  991MOL0     H36734   9.153   6.599  12.988 -1.2295  0.0450  0.3425
  991MOL0     H36735   9.238   6.498  13.112 -3.0809 -2.8674  4.9362
  991MOL0     H36736   9.292   6.731  13.154  0.6188 -0.0197  0.6902
  991MOL0     H36737   9.172   6.670  13.278  3.8072 -0.1944  0.6772
  991MOL0     H36738   8.611   5.738  12.884  0.9907  0.5892  0.3169
  991MOL0     H36739   8.628   5.551  12.760 -2.1016  0.7563 -0.4759
  991MOL0     H36740   8.530   5.489  12.396  1.8757  0.9541  2.8891
  991MOL0     H36741   8.341   5.362  12.302 -0.3508 -0.5362 -1.1995
  991MOL0     H36742   7.302   5.324  11.311  0.9459  0.3523  0.4800
  991MOL0     H36743   7.218   5.220  11.092  2.0359  0.7776 -1.5503
  991MOL0     H36744   7.247   5.160  10.611 -0.7601 -0.5880 -1.1309
  991MOL0     H36745   7.175   5.152  10.381 -1.5898 -0.6972 -1.8733
  991MOL0     H36746   7.070   5.131  10.211 -0.9953 -1.2886  2.0447
  991MOL0     H36747   6.938   5.167  10.104  0.1120 -0.9517  0.1633
  991MOL0     H36748   7.132   5.331  10.055  0.0385  3.2243 -1.1820
  991MOL0     H36749   7.144   5.365  10.235 -1.1585  1.3015  0.0051
  991MOL0     H36750   6.896   5.428  10.099 -1.0821 -2.6408  1.8924
  991MOL0     H36751   6.947   5.488  10.255 -1.8002  0.6416 -0.5261
  991MOL0     H36752   7.117   5.566  10.007  0.1252  1.6171  0.3034
  991MOL0     H36753   7.148   5.599  10.171  1.3593  2.1152 -0.5360
  991MOL0     H36754   6.826   5.869  10.067 -1.6880 -1.3298  1.3507
  991MOL0     H36755   6.775   5.247  10.505  0.5973 -0.2719 -2.7864
  991MOL0     H36756   6.839   5.206  10.863 -2.3551 -1.7912 -0.8247
  991MOL0     H36757   6.852   5.371  10.800  3.3034 -1.0210  1.7483
  991MOL0     H36758   6.724   5.255  10.738  0.9260 -3.3901  0.3072
  992MOL0     O36759   1.895   4.233   3.076 -0.4285  0.5458  0.4266
  992MOL0     C36760   1.875   4.122   3.124 -0.0977  0.1705 -0.4241
  992MOL0     O36761   1.971   4.051   3.177 -0.0643 -0.3554 -0.2497
  992MOL0     C36762   2.099   4.110   3.175 -0.2899  0.1728 -0.7105
  992MOL0     C36763   2.185   4.104   3.071  0.1073 -0.4870 -0.2570
  992MOL0     C36764   2.307   4.176   3.073  0.3067  0.2989 -0.2576
  992MOL0     C36765   2.349   4.256   3.174 -0.9494  0.0678  0.6878
  992MOL0     O36766   2.471   4.325   3.172 -0.7365  0.4211  0.1316
  992MOL0     C36767   2.536   4.335   3.297  0.5906 -0.3915  0.4254
  992MOL0     C36768   2.532   4.487   3.345 -0.3231  0.1836 -0.3769
  992MOL0     C36769   2.628   4.499   3.470  0.3673  0.3247  0.4964
  992MOL0     C36770   2.763   4.571   3.435 -0.8966 -0.8801  0.7455
  992MOL0     C36771   2.737   4.725   3.396 -0.8698  0.6839  0.6326
  992MOL0     C36772   2.747   4.807   3.520  0.1572  0.3203 -0.6846
  992MOL0     C36773   2.737   4.958   3.489  0.1651  0.1614  0.0594
  992MOL0     C36774   2.810   5.035   3.598 -0.6307  0.4574  0.4852
  992MOL0     N36775   2.958   4.998   3.580  0.0141  0.0435 -0.2986
  992MOL0     C36776   3.034   5.006   3.473  0.5464  0.1390 -0.3924
  992MOL0     C36777   3.163   4.973   3.508  0.1396 -0.8496 -0.2922
  992MOL0     C36778   3.266   4.962   3.401 -0.0086  0.4258  1.0072
  992MOL0     C36779   3.310   5.089   3.350 -0.2875 -0.0234  0.5605
  992MOL0     C36780   3.419   5.073   3.249  0.3321 -0.6025  0.8658
  992MOL0     C36781   3.471   5.200   3.188 -0.7943 -0.2206 -0.0593
  992MOL0     O36782   3.546   5.292   3.278 -0.6623  0.2331 -0.6421
  992MOL0     C36783   3.658   5.252   3.336 -0.4057  1.1180  0.1420
  992MOL0     C36784   3.663   5.242   3.475  0.0417 -0.6708 -0.0207
  992MOL0     C36785   3.774   5.183   3.541 -0.5471  0.4421 -0.2927
  992MOL0     C36786   3.768   5.203   3.688  0.0879 -0.4341 -0.0357
  992MOL0     C36787   3.884   5.126   3.464  0.1316 -0.3447 -0.1765
  992MOL0     C36788   4.018   5.095   3.520  0.3701  0.1963  0.2054
  992MOL0     O36789   4.105   5.079   3.425 -0.2736 -0.9014 -0.4239
  992MOL0     C36790   4.237   5.056   3.470  0.0454  0.8244  0.6772
  992MOL0     C36791   4.301   4.934   3.465 -0.8732  0.4718  0.4910
  992MOL0     C36792   4.437   4.920   3.515 -0.3172  0.1747 -0.4609
  992MOL0     C36793   4.508   5.038   3.553 -0.1340 -0.3416 -0.3294
  992MOL0     O36794   4.637   5.015   3.607 -0.0830 -0.5308 -0.3199
  992MOL0     C36795   4.713   5.129   3.648 -0.3790 -0.6057 -0.8900
  992MOL0     C36796   4.855   5.079   3.701  0.4996 -0.5723  0.6109
  992MOL0     C36797   4.937   5.212   3.717  0.2221 -0.1267 -0.3590
  992MOL0     C36798   5.039   5.176   3.824  0.5252 -0.4257  0.3928
  992MOL0     C36799   5.104   5.304   3.873 -0.2824 -0.8467  0.4379
  992MOL0     C36800   5.247   5.276   3.934  0.1884 -0.4845  0.3966
  992MOL0     C36801   5.309   5.412   3.968 -0.1797 -0.5989 -0.3477
  992MOL0     C36802   5.438   5.389   4.051 -0.2407 -0.2321  0.4099
  992MOL0    Cl36803   5.594   5.402   3.958  0.2681 -0.1945  0.2206
  992MOL0     C36804   4.436   5.160   3.558  0.5285 -0.1300 -0.4946
  992MOL0     C36805   4.307   5.168   3.516 -0.2792  0.0997 -0.0963
  992MOL0     O36806   4.033   5.079   3.644  0.5746  0.7684  0.2576
  992MOL0     C36807   3.873   5.132   3.321 -0.2680  0.2190  0.9266
  992MOL0     C36808   3.763   5.199   3.260  0.0756  0.1171  0.3969
  992MOL0     N36809   3.157   4.952   3.644  0.8867  0.1673  0.3651
  992MOL0     N36810   3.034   4.952   3.685  0.2101  0.4034 -0.2346
  992MOL0     C36811   2.252   4.277   3.273 -0.4425  0.1484  0.5272
  992MOL0     C36812   2.135   4.198   3.275 -0.3936 -0.1643 -0.5033
  992MOL0     C36813   1.734   4.076   3.164  1.1929  1.0034 -0.0209
  992MOL0     C36814   1.725   3.966   3.258 -0.4986 -0.1242  0.8802
  992MOL0     C36815   1.606   3.907   3.306  0.2513 -0.4171  0.5745
  992MOL0     C36816   1.486   3.952   3.251 -0.7955 -0.2006  0.7376
  992MOL0     O36817   1.375   3.877   3.295 -0.0768  0.2699  0.0255
  992MOL0     C36818   1.240   3.934   3.290  0.5032 -0.8384  0.0598
  992MOL0     C36819   1.163   3.875   3.177  0.6546  0.2725 -0.3227
  992MOL0     C36820   1.102   3.971   3.077  0.7017 -0.0888  0.1843
  992MOL0     C36821   1.029   3.887   2.971  0.6769  0.6268  0.0315
  992MOL0     C36822   0.929   3.961   2.897 -0.1967  0.3054 -0.3588
  992MOL0     C36823   0.847   4.022   2.838  0.1488 -0.4339  0.4359
  992MOL0     C36824   1.488   4.061   3.158  0.7595  0.0094 -0.3375
  992MOL0     C36825   1.610   4.116   3.109  0.3231 -0.2864 -0.1912
  992MOL0     C36826   1.583   4.231   3.019  0.7722 -1.2092  0.3109
  992MOL0     H36827   2.150   4.041   2.990 -1.8698  0.2026  0.0089
  992MOL0     H36828   2.378   4.157   2.993 -0.2379  1.1876 -0.9574
  992MOL0     H36829   2.638   4.296   3.287  0.5976  0.1777 -2.5309
  992MOL0     H36830   2.483   4.273   3.370  0.1978 -1.2769 -0.5897
  992MOL0     H36831   2.565   4.560   3.270  0.0943  0.9853  0.5721
  992MOL0     H36832   2.433   4.527   3.367 -0.5458  0.0028 -1.0333
  992MOL0     H36833   2.581   4.557   3.550  4.4933  2.3176  1.7547
  992MOL0     H36834   2.637   4.398   3.512  1.8939 -1.1881 -3.0462
  992MOL0     H36835   2.836   4.577   3.516  2.4923  3.2697 -2.1050
  992MOL0     H36836   2.812   4.515   3.355 -0.0090 -0.2923  0.8578
  992MOL0     H36837   2.641   4.749   3.349 -0.4541  2.5827  0.6334
  992MOL0     H36838   2.810   4.749   3.319 -0.8392  1.0786  0.7790
  992MOL0     H36839   2.667   4.778   3.588 -0.1671  2.0575 -0.2863
  992MOL0     H36840   2.845   4.785   3.564  0.0410 -1.8066 -1.3871
  992MOL0     H36841   2.634   4.992   3.505  0.6046  0.7720  1.7279
  992MOL0     H36842   2.781   4.982   3.391 -0.4404  2.4454  0.2782
  992MOL0     H36843   2.776   5.137   3.582 -0.1120  0.4073 -1.1376
  992MOL0     H36844   2.776   4.999   3.696 -0.4248 -0.9424  0.0759
  992MOL0     H36845   2.988   5.037   3.380  0.7165  0.8443 -0.2443
  992MOL0     H36846   3.214   4.907   3.322 -0.6174  1.3320  0.7601
  992MOL0     H36847   3.349   4.899   3.434 -2.6500 -4.9637 -1.3801
  992MOL0     H36848   3.228   5.138   3.298  1.8936  0.7249 -2.4802
  992MOL0     H36849   3.353   5.153   3.427  0.0523  1.0202 -0.4623
  992MOL0     H36850   3.500   5.025   3.305 -0.3226 -3.1023 -0.2104
  992MOL0     H36851   3.387   4.999   3.176 -1.7920 -0.0840  1.1910
  992MOL0     H36852   3.544   5.163   3.115 -0.0491 -0.5971  0.8561
  992MOL0     H36853   3.388   5.248   3.135 -0.5197  0.9914  0.5864
  992MOL0     H36854   3.576   5.268   3.536  0.7486 -0.6346  0.9987
  992MOL0     H36855   3.675   5.252   3.720 -0.2639  1.3143 -3.2733
  992MOL0     H36856   3.855   5.261   3.719  0.8127 -0.1027 -2.4491
  992MOL0     H36857   3.768   5.100   3.726 -1.3948  0.2894  2.0916
  992MOL0     H36858   4.251   4.850   3.419  0.3000  1.4243 -2.7976
  992MOL0     H36859   4.481   4.821   3.517 -0.8954 -0.1093 -1.4269
  992MOL0     H36860   4.725   5.192   3.560  0.3790 -0.7331 -0.8827
  992MOL0     H36861   4.660   5.187   3.724 -1.9805 -1.6381 -1.1481
  992MOL0     H36862   4.831   5.012   3.784 -0.7245  0.8690  1.4731
  992MOL0     H36863   4.898   5.027   3.615 -1.8100 -0.3052 -0.7944
  992MOL0     H36864   4.875   5.298   3.743 -0.9250  0.0526 -3.3193
  992MOL0     H36865   4.991   5.247   3.629  0.3789  1.9252  0.4884
  992MOL0     H36866   5.115   5.113   3.776  1.4787  0.1269  1.1624
  992MOL0     H36867   4.996   5.123   3.909 -0.6635 -0.7927 -0.3993
  992MOL0     H36868   5.122   5.381   3.798 -0.1275  0.6720  1.9719
  992MOL0     H36869   5.033   5.351   3.942 -2.3630 -1.0151 -1.4699
  992MOL0     H36870   5.309   5.220   3.863  0.6580 -0.9361  1.1408
  992MOL0     H36871   5.242   5.214   4.024  0.4249 -2.6514 -1.0013
  992MOL0     H36872   5.231   5.462   4.026  0.3078  0.6300 -0.7210
  992MOL0     H36873   5.338   5.472   3.881 -1.0766  1.4512  0.6872
  992MOL0     H36874   5.433   5.294   4.105  1.2299 -0.5278  0.0462
  992MOL0     H36875   5.440   5.474   4.120  1.7218  0.4260 -0.4033
  992MOL0     H36876   4.474   5.251   3.603 -2.0790  0.7352  0.1923
  992MOL0     H36877   4.256   5.263   3.532  0.5360  0.4973  0.2284
  992MOL0     H36878   3.947   5.097   3.249 -1.5641  0.4988 -0.5867
  992MOL0     H36879   3.765   5.214   3.153  1.9779 -2.5836 -0.0540
  992MOL0     H36880   2.266   4.355   3.348  2.3481  1.5230 -1.2629
  992MOL0     H36881   2.078   4.213   3.366  1.3673  2.9192  0.2542
  992MOL0     H36882   1.810   3.915   3.302 -0.1070 -0.3594 -0.1277
  992MOL0     H36883   1.609   3.829   3.381  1.3706 -1.4674 -0.5139
  992MOL0     H36884   1.201   3.924   3.391 -1.1301  6.1151  0.6277
  992MOL0     H36885   1.234   4.043   3.292 -0.1296 -0.8661 -0.0775
  992MOL0     H36886   1.084   3.818   3.226  0.7352 -0.5020 -1.0743
  992MOL0     H36887   1.228   3.807   3.121 -0.0977 -0.9022  0.2042
  992MOL0     H36888   1.027   4.024   3.137  1.5869  1.4272 -0.0097
  992MOL0     H36889   1.177   4.032   3.027 -1.2357 -0.7467 -3.9414
  992MOL0     H36890   0.985   3.799   3.019  0.2166  2.1043  2.4871
  992MOL0     H36891   1.102   3.847   2.900 -0.4517 -1.2599 -0.1388
  992MOL0     H36892   0.762   4.060   2.784  1.3059 -0.7250 -1.7093
  992MOL0     H36893   1.394   4.109   3.133  0.3972  0.5915  1.9481
  992MOL0     H36894   1.537   4.317   3.069  1.2996 -1.0924  0.6006
  992MOL0     H36895   1.676   4.260   2.969  1.1488  0.1599  1.7173
  992MOL0     H36896   1.510   4.204   2.941  3.2410 -1.8982 -1.9259
  993MOL0     O36897   3.146   2.221   0.425 -0.3810 -0.4741  0.4210
  993MOL0     C36898   3.152   2.275   0.535 -0.1143  1.2706  0.8281
  993MOL0     O36899   3.052   2.342   0.588 -0.1824 -0.5824 -0.0601
  993MOL0     C36900   2.921   2.337   0.540  1.0756 -0.1299 -0.2361
  993MOL0     C36901   2.813   2.291   0.604  0.3821 -0.0447 -0.0373
  993MOL0     C36902   2.686   2.274   0.550  0.4933  0.2605  0.2075
  993MOL0     C36903   2.667   2.306   0.415 -0.2352 -0.3193  0.4080
  993MOL0     O36904   2.536   2.294   0.369 -1.0064 -0.0340 -0.0186
  993MOL0     C36905   2.509   2.303   0.233 -0.0676  0.4278  0.2838
  993MOL0     C36906   2.355   2.300   0.211  0.6730  0.5080 -0.5470
  993MOL0     C36907   2.294   2.167   0.254 -1.0260  0.4946 -0.4849
  993MOL0     C36908   2.182   2.137   0.155  0.7774  0.7326  0.0746
  993MOL0     C36909   2.069   2.036   0.203  0.3249  0.7154 -0.1246
  993MOL0     C36910   1.951   2.042   0.100 -0.1970  0.3259 -0.2259
  993MOL0     C36911   1.821   1.956   0.137 -0.4151 -0.1553  0.5494
  993MOL0     C36912   1.755   2.004   0.270 -0.0939 -0.0013 -0.2364
  993MOL0     N36913   1.643   1.919   0.316 -0.1705  0.1566 -0.8911
  993MOL0     C36914   1.654   1.781   0.328  0.0432  0.2055  0.5141
  993MOL0     C36915   1.543   1.738   0.387 -0.5949  0.7216 -0.8242
  993MOL0     C36916   1.515   1.585   0.389  0.5705  0.2195  0.6645
  993MOL0     C36917   1.478   1.544   0.533  1.2637 -0.4852 -0.3429
  993MOL0     C36918   1.459   1.389   0.533 -0.1633  0.5649  0.0477
  993MOL0     C36919   1.596   1.310   0.523  0.1669 -0.0924  0.1514
  993MOL0     O36920   1.668   1.323   0.644 -0.0945 -1.0414 -0.4779
  993MOL0     C36921   1.803   1.304   0.638 -0.2003 -0.1798 -0.0533
  993MOL0     C36922   1.887   1.376   0.718 -0.5439 -0.6505 -0.5744
  993MOL0     C36923   2.023   1.358   0.731  0.3167  0.1413  0.1929
  993MOL0     C36924   2.106   1.457   0.813 -0.3337  0.2351  0.5028
  993MOL0     C36925   2.084   1.252   0.653 -0.4531 -0.2261  0.2640
  993MOL0     C36926   2.229   1.218   0.649  0.7399 -0.5785 -0.8069
  993MOL0     O36927   2.308   1.255   0.757 -0.4439  0.3642 -0.3609
  993MOL0     C36928   2.445   1.247   0.766  0.6117 -0.5158  0.0483
  993MOL0     C36929   2.529   1.308   0.674 -0.7357  0.2422  1.3480
  993MOL0     C36930   2.668   1.288   0.692  0.1215 -0.6498  0.6014
  993MOL0     C36931   2.723   1.222   0.802  0.4854 -0.0368 -0.7276
  993MOL0     O36932   2.864   1.214   0.801 -0.1616  0.5411 -0.6409
  993MOL0     C36933   2.932   1.131   0.703 -0.2078  0.3303  0.0645
  993MOL0     C36934   3.077   1.119   0.734 -0.0020 -0.1269 -1.3685
  993MOL0     C36935   3.155   1.033   0.646 -0.6386  0.5861  0.2290
  993MOL0     C36936   3.306   1.063   0.653  0.9615  0.9428 -0.3089
  993MOL0     C36937   3.370   1.110   0.520  0.2815 -0.0992  0.1891
  993MOL0     C36938   3.500   1.187   0.536 -0.3783  0.0428  0.4251
  993MOL0     C36939   3.551   1.244   0.406 -0.3747  1.4270 -0.4206
  993MOL0     C36940   3.656   1.358   0.436  0.4238 -0.0172 -0.1036
  993MOL0    Cl36941   3.813   1.288   0.488 -0.5950  0.0039  0.3737
  993MOL0     C36942   2.638   1.155   0.898 -0.3881 -0.3469  0.6967
  993MOL0     C36943   2.497   1.177   0.874 -0.3606  0.2488 -0.0658
  993MOL0     O36944   2.270   1.177   0.539  0.3606  0.1746 -0.0706
  993MOL0     C36945   2.003   1.181   0.567  0.3194  0.6900 -0.0636
  993MOL0     C36946   1.862   1.203   0.562 -0.4900  0.1987  0.6511
  993MOL0     N36947   1.471   1.844   0.429 -0.2536  0.6873  0.5574
  993MOL0     N36948   1.532   1.953   0.383  0.0705  0.1367  0.0529
  993MOL0     C36949   2.771   2.363   0.347 -0.6355  0.3759 -0.9342
  993MOL0     C36950   2.897   2.385   0.413 -1.3925  0.4531 -0.4447
  993MOL0     C36951   3.283   2.272   0.613  0.2313  0.2650 -0.8253
  993MOL0     C36952   3.272   2.326   0.743 -0.6048  0.0663 -0.0089
  993MOL0     C36953   3.383   2.323   0.822 -0.6696  0.2675 -0.4958
  993MOL0     C36954   3.506   2.276   0.779 -0.3840  0.2998 -0.3988
  993MOL0     O36955   3.623   2.293   0.845 -0.0739  0.4890 -0.4626
  993MOL0     C36956   3.632   2.209   0.968  0.2689  0.5737  0.1410
  993MOL0     C36957   3.713   2.282   1.068 -0.0733 -0.3237 -0.6383
  993MOL0     C36958   3.642   2.421   1.093  0.0226 -0.1086  0.0236
  993MOL0     C36959   3.712   2.493   1.214 -0.0471 -0.1934  0.3504
  993MOL0     C36960   3.854   2.510   1.201  0.1089 -0.4405 -0.0346
  993MOL0     C36961   3.972   2.510   1.173  0.6654  0.6781  0.5190
  993MOL0     C36962   3.512   2.218   0.662 -0.7721  0.4539  0.3359
  993MOL0     C36963   3.403   2.205   0.571  0.6386 -0.5147  0.6553
  993MOL0     C36964   3.419   2.119   0.446 -0.7429  0.4894 -1.4336
  993MOL0     H36965   2.832   2.256   0.705 -0.1560 -1.2684 -0.3431
  993MOL0     H36966   2.600   2.232   0.600 -0.0167  1.3591  0.2707
  993MOL0     H36967   2.539   2.213   0.178 -1.9964  0.4674 -0.8970
  993MOL0     H36968   2.546   2.399   0.194  2.3371 -0.3435  0.4690
  993MOL0     H36969   2.322   2.384   0.273 -1.7323  0.8561 -2.1976
  993MOL0     H36970   2.341   2.323   0.105 -0.6224  3.6498  0.1852
  993MOL0     H36971   2.359   2.080   0.261 -1.7158  0.0889  1.7855
  993MOL0     H36972   2.250   2.183   0.353  2.3631  2.2770  0.9163
  993MOL0     H36973   2.121   2.228   0.150 -2.1051 -1.0542  0.5942
  993MOL0     H36974   2.232   2.121   0.059  1.8453 -0.7567  0.8339
  993MOL0     H36975   2.035   2.051   0.306 -2.0162  0.0495 -0.7239
  993MOL0     H36976   2.109   1.934   0.197 -0.6860  0.3598 -1.1278
  993MOL0     H36977   1.926   2.144   0.069 -0.2715  0.0718 -1.0161
  993MOL0     H36978   1.981   1.990   0.009 -0.4354  1.2185 -0.8328
  993MOL0     H36979   1.837   1.848   0.139 -0.4588 -0.1589  1.9523
  993MOL0     H36980   1.751   1.974   0.055  2.3338  2.6156 -1.4325
  993MOL0     H36981   1.836   2.005   0.343 -1.3584 -0.0007  1.2115
  993MOL0     H36982   1.719   2.107   0.260 -0.8037 -0.2375 -0.2145
  993MOL0     H36983   1.731   1.710   0.301  0.6100  0.9818  0.0470
  993MOL0     H36984   1.595   1.524   0.346 -0.1910 -2.0532  2.2221
  993MOL0     H36985   1.429   1.553   0.328 -0.2701  0.5601  1.6312
  993MOL0     H36986   1.546   1.589   0.606  0.1485 -1.1251  1.1297
  993MOL0     H36987   1.374   1.574   0.553  1.2639 -0.4998 -0.3208
  993MOL0     H36988   1.410   1.347   0.622 -0.9514 -3.3008 -1.9705
  993MOL0     H36989   1.402   1.361   0.444  1.2345  0.0719 -0.7359
  993MOL0     H36990   1.567   1.209   0.493  1.3268 -0.3438 -0.1941
  993MOL0     H36991   1.654   1.350   0.439  2.4206 -2.7704  0.3128
  993MOL0     H36992   1.834   1.444   0.784  1.8070  1.5966 -0.8363
  993MOL0     H36993   2.114   1.410   0.912  0.5354 -1.8405 -0.5055
  993MOL0     H36994   2.053   1.553   0.817 -3.0357 -1.1952  1.5805
  993MOL0     H36995   2.201   1.473   0.762 -0.1184 -0.6877  0.5878
  993MOL0     H36996   2.486   1.363   0.592  0.7764  0.7798  0.8755
  993MOL0     H36997   2.743   1.327   0.625 -1.3956  0.0450 -0.7471
  993MOL0     H36998   2.893   1.031   0.684  1.5024  0.1205 -3.0380
  993MOL0     H36999   2.919   1.162   0.599 -1.2222 -2.4527 -0.7129
  993MOL0     H37000   3.116   1.221   0.730  0.1491 -0.0325  0.8257
  993MOL0     H37001   3.080   1.088   0.839 -2.0123  1.4757 -0.7612
  993MOL0     H37002   3.125   1.055   0.543  1.2742 -0.0270 -0.4974
  993MOL0     H37003   3.129   0.931   0.675  0.4696 -0.0558 -0.9567
  993MOL0     H37004   3.359   0.973   0.686  0.0952 -0.2531 -2.0245
  993MOL0     H37005   3.320   1.137   0.732  0.2620 -0.2227  0.9454
  993MOL0     H37006   3.379   1.031   0.445 -1.8847  2.1067 -2.6628
  993MOL0     H37007   3.302   1.185   0.477 -1.8751 -0.6435  2.4631
  993MOL0     H37008   3.578   1.122   0.575  1.3360  0.0120 -2.7050
  993MOL0     H37009   3.484   1.262   0.615  3.2033 -1.4548  2.7963
  993MOL0     H37010   3.466   1.288   0.354 -0.7330 -0.2663 -1.3530
  993MOL0     H37011   3.597   1.168   0.342 -0.9813  0.7301 -0.0510
  993MOL0     H37012   3.614   1.430   0.507  1.3986  1.4184 -0.9254
  993MOL0     H37013   3.683   1.402   0.339 -0.1902 -1.3146 -0.8966
  993MOL0     H37014   2.670   1.085   0.975 -0.3576 -0.6927  0.3762
  993MOL0     H37015   2.426   1.115   0.927 -0.0322 -0.2569 -0.2043
  993MOL0     H37016   2.040   1.096   0.511 -0.2508 -1.2956  2.3743
  993MOL0     H37017   1.803   1.140   0.497 -1.1074 -0.8374  2.1494
  993MOL0     H37018   2.763   2.386   0.241  4.0318  2.2081 -1.1248
  993MOL0     H37019   2.983   2.425   0.360 -3.2221  1.3056 -2.9623
  993MOL0     H37020   3.187   2.375   0.790  0.0775 -0.4686  1.8762
  993MOL0     H37021   3.371   2.349   0.927 -4.4861  0.1921 -0.7659
  993MOL0     H37022   3.532   2.192   1.009  0.3118  0.0768  0.0452
  993MOL0     H37023   3.684   2.116   0.942  1.4276  1.2977 -0.2237
  993MOL0     H37024   3.817   2.284   1.034 -0.6451 -1.2686 -2.5562
  993MOL0     H37025   3.712   2.218   1.157  2.1862 -0.3265 -0.5603
  993MOL0     H37026   3.666   2.472   1.000 -4.4733  0.5203 -1.0012
  993MOL0     H37027   3.534   2.419   1.113  0.3130  0.5192  1.8377
  993MOL0     H37028   3.678   2.444   1.306 -0.1956 -0.0312  0.3838
  993MOL0     H37029   3.667   2.592   1.223 -2.2096 -1.1756  1.0480
  993MOL0     H37030   4.074   2.503   1.142  0.3254 -0.0203 -0.5134
  993MOL0     H37031   3.597   2.154   0.644 -0.2021  0.9461  1.2202
  993MOL0     H37032   3.391   2.015   0.464  1.8211 -0.0023  0.1966
  993MOL0     H37033   3.372   2.165   0.358 -0.7022  2.9886 -0.2534
  993MOL0     H37034   3.527   2.122   0.433  0.2363 -3.2965  3.1389
  994MOL0     O37035   1.750  10.461   7.052  0.0718 -0.3778 -0.8238
  994MOL0     C37036   1.744  10.369   7.131  0.5358 -0.1486 -0.0877
  994MOL0     O37037   1.823  10.248   7.118 -0.5035  0.5554  0.4765
  994MOL0     C37038   1.894  10.213   7.005 -0.5644 -0.0313  0.0854
  994MOL0     C37039   1.875  10.255   6.866 -0.1179  1.1282 -0.1485
  994MOL0     C37040   1.944  10.186   6.763  0.0541  0.0929  0.6552
  994MOL0     C37041   2.032  10.072   6.790  0.0357  0.3563  0.2586
  994MOL0     O37042   2.091   9.978   6.699 -0.4449  0.6113 -0.3688
  994MOL0     C37043   2.051   9.973   6.562  0.0295 -0.8052  0.1351
  994MOL0     C37044   2.105   9.850   6.499  0.0563 -0.6482  1.3008
  994MOL0     C37045   2.025   9.728   6.552  0.5858 -0.9376 -0.4970
  994MOL0     C37046   2.105   9.596   6.527 -0.2818 -0.3232  0.7718
  994MOL0     C37047   2.013   9.468   6.487  0.5006  0.6284 -0.3316
  994MOL0     C37048   1.910   9.417   6.586  1.3957 -0.2477  0.4665
  994MOL0     C37049   1.812   9.317   6.532  0.6859 -0.2713 -1.3075
  994MOL0     C37050   1.689   9.298   6.632  0.6542 -0.0635  0.1940
  994MOL0     N37051   1.739   9.277   6.776 -0.2095  0.3840  0.2926
  994MOL0     C37052   1.778   9.161   6.839  0.0283 -0.2176  0.0897
  994MOL0     C37053   1.779   9.183   6.974 -0.1738  0.0298 -0.1821
  994MOL0     C37054   1.778   9.084   7.081 -0.5644 -0.0278 -0.8065
  994MOL0     C37055   1.910   9.001   7.077  0.0632  0.7538  0.8135
  994MOL0     C37056   2.033   9.087   7.125 -0.3619  0.5037 -0.9651
  994MOL0     C37057   2.045   9.093   7.276  0.2865  1.8261  0.6081
  994MOL0     O37058   2.075   8.967   7.337  0.6652  0.0635 -0.1532
  994MOL0     C37059   2.203   8.924   7.338  0.3990  1.0879 -0.4509
  994MOL0     C37060   2.227   8.800   7.397  0.1541  0.1259 -0.1198
  994MOL0     C37061   2.346   8.734   7.407  0.1537 -0.8049 -0.0425
  994MOL0     C37062   2.348   8.597   7.468 -0.2479 -0.3755 -0.4484
  994MOL0     C37063   2.457   8.805   7.359 -0.1755 -0.4626 -0.1605
  994MOL0     C37064   2.597   8.765   7.381  1.2266  0.2123  0.2884
  994MOL0     O37065   2.614   8.635   7.404 -0.0766  0.3691  0.3720
  994MOL0     C37066   2.730   8.578   7.441 -0.1414  0.1344 -0.2376
  994MOL0     C37067   2.768   8.458   7.392 -0.1024  0.5188  0.3855
  994MOL0     C37068   2.885   8.396   7.427  0.2798  0.8064 -0.5789
  994MOL0     C37069   2.964   8.448   7.531  0.3844  0.1104  0.5454
  994MOL0     O37070   3.073   8.383   7.572 -1.2381  0.5714 -0.4139
  994MOL0     C37071   3.192   8.454   7.626 -0.0088  1.2621 -0.2522
  994MOL0     C37072   3.317   8.384   7.570 -0.8522 -0.1223  0.1100
  994MOL0     C37073   3.315   8.372   7.413  1.4228 -0.6017 -0.3492
  994MOL0     C37074   3.450   8.380   7.351 -0.0001  0.2471  0.9987
  994MOL0     C37075   3.431   8.384   7.197  0.0527 -0.5053 -0.1850
  994MOL0     C37076   3.555   8.408   7.113  0.1229 -0.2476 -0.8935
  994MOL0     C37077   3.521   8.382   6.959  0.3608 -0.6052  0.3134
  994MOL0     C37078   3.541   8.240   6.909  0.0661  0.2335 -0.6644
  994MOL0    Cl37079   3.703   8.191   6.908  0.2143  0.1312 -0.6320
  994MOL0     C37080   2.929   8.572   7.584 -0.2044 -0.3575 -0.3613
  994MOL0     C37081   2.816   8.638   7.543 -0.6663  0.3717 -0.2443
  994MOL0     O37082   2.692   8.844   7.358  0.0347  0.9845  0.1231
  994MOL0     C37083   2.439   8.936   7.298 -0.3711 -0.4053  0.6244
  994MOL0     C37084   2.311   8.990   7.280  0.5703 -0.1863  0.3783
  994MOL0     N37085   1.770   9.319   6.992  0.1710  0.2971 -0.9131
  994MOL0     N37086   1.743   9.370   6.874 -0.0124 -0.5396  0.5113
  994MOL0     C37087   2.045  10.034   6.924  0.0083  0.0374 -0.3393
  994MOL0     C37088   1.973  10.104   7.022 -0.1568 -0.9808  0.2615
  994MOL0     C37089   1.664  10.378   7.250  0.7051 -0.0851 -0.0799
  994MOL0     C37090   1.671  10.513   7.314  0.6952  0.1453  0.7660
  994MOL0     C37091   1.592  10.527   7.427 -1.4354  0.2347 -0.2791
  994MOL0     C37092   1.521  10.430   7.488  0.9555 -0.0852  0.0454
  994MOL0     O37093   1.460  10.466   7.608  0.2191 -1.0267 -0.2092
  994MOL0     C37094   1.390  10.376   7.690  0.1033  0.5345 -0.5325
  994MOL0     C37095   1.292  10.455   7.772  0.3561  0.3409  0.6158
  994MOL0     C37096   1.350  10.477   7.908  0.7033 -0.1925 -0.7748
  994MOL0     C37097   1.495  10.535   7.916  0.2357 -0.0400  0.6166
  994MOL0     C37098   1.531  10.543   8.053 -0.1125  0.5598 -0.2417
  994MOL0     C37099   1.572  10.530   8.168 -0.1640 -0.0966 -0.5422
  994MOL0     C37100   1.528  10.300   7.435 -0.6637  0.0105 -0.5104
  994MOL0     C37101   1.591  10.269   7.311  0.4604  0.0158 -0.8326
  994MOL0     C37102   1.570  10.139   7.251 -0.4874 -0.4155 -0.2936
  994MOL0     H37103   1.812  10.342   6.849 -0.4372  1.0469  0.6083
  994MOL0     H37104   1.943  10.217   6.659  1.4526 -3.5528 -0.6037
  994MOL0     H37105   2.084  10.063   6.510 -0.7801 -0.6164 -0.0611
  994MOL0     H37106   1.943   9.982   6.549  0.5140  1.5626 -3.8910
  994MOL0     H37107   2.105   9.865   6.391  0.2698  0.9833  1.4888
  994MOL0     H37108   2.211   9.841   6.525  0.4341  1.0767  0.5050
  994MOL0     H37109   2.000   9.738   6.658 -2.6024  0.8102 -1.2885
  994MOL0     H37110   1.933   9.719   6.492  2.0227 -0.6424 -2.8660
  994MOL0     H37111   2.183   9.619   6.454 -2.5738  1.7386 -1.2584
  994MOL0     H37112   2.153   9.589   6.625  0.6429 -0.3855  0.3225
  994MOL0     H37113   2.079   9.382   6.474  1.5021  1.5355 -1.4147
  994MOL0     H37114   1.973   9.485   6.387  1.5398 -3.5787 -1.6831
  994MOL0     H37115   1.967   9.363   6.661  0.3203  1.5362  2.7106
  994MOL0     H37116   1.853   9.490   6.645 -0.6450 -2.9173  2.0295
  994MOL0     H37117   1.855   9.218   6.515  0.4311 -0.4623 -0.8642
  994MOL0     H37118   1.760   9.356   6.443  2.0613  0.2904 -1.8927
  994MOL0     H37119   1.636   9.394   6.635  3.2627  1.6774 -2.9460
  994MOL0     H37120   1.620   9.219   6.601  1.7240 -1.7739  1.9806
  994MOL0     H37121   1.797   9.062   6.798  2.6151 -1.9181  4.6465
  994MOL0     H37122   1.690   9.027   7.050  1.9203 -4.6517 -0.3150
  994MOL0     H37123   1.764   9.141   7.173  1.5937 -0.2524 -0.2910
  994MOL0     H37124   1.905   8.906   7.131  0.4111 -0.3705 -1.0725
  994MOL0     H37125   1.929   8.967   6.975  3.1951 -3.4085  2.4825
  994MOL0     H37126   2.128   9.056   7.081 -1.8267 -3.3582 -1.7777
  994MOL0     H37127   2.008   9.191   7.101  1.3779  1.3390  0.5021
  994MOL0     H37128   2.112   9.172   7.310 -0.1230  1.9602  1.1191
  994MOL0     H37129   1.942   9.116   7.307 -0.1625  1.4027 -0.5124
  994MOL0     H37130   2.143   8.751   7.446  2.7436 -2.8751  1.6785
  994MOL0     H37131   2.402   8.606   7.563 -3.0958 -0.4314  1.2837
  994MOL0     H37132   2.399   8.531   7.397 -0.8706 -0.4754 -0.8122
  994MOL0     H37133   2.244   8.572   7.487 -1.1375  3.2375  0.1756
  994MOL0     H37134   2.709   8.402   7.320 -0.7869  0.4629  0.9793
  994MOL0     H37135   2.911   8.301   7.381 -1.0833 -0.5456  1.3179
  994MOL0     H37136   3.177   8.558   7.596 -2.4702  1.0204 -0.1281
  994MOL0     H37137   3.188   8.464   7.735  0.8688  1.8336 -0.2667
  994MOL0     H37138   3.414   8.427   7.596 -0.5851 -0.6438 -0.0075
  994MOL0     H37139   3.327   8.281   7.607  3.2369 -0.5025 -1.5152
  994MOL0     H37140   3.247   8.444   7.367 -0.5122 -2.7091 -0.9784
  994MOL0     H37141   3.285   8.270   7.386  1.9168 -1.1383  1.0162
  994MOL0     H37142   3.509   8.293   7.381  2.0711  0.0030 -3.0242
  994MOL0     H37143   3.513   8.465   7.378  2.6408 -1.0591 -0.6662
  994MOL0     H37144   3.379   8.293   7.166  2.7985 -2.8813  1.6161
  994MOL0     H37145   3.370   8.469   7.166  1.0789  0.3206  0.0079
  994MOL0     H37146   3.628   8.332   7.144  1.9735  1.9587  0.4439
  994MOL0     H37147   3.591   8.509   7.133  0.6747 -0.9511  2.1032
  994MOL0     H37148   3.587   8.449   6.902 -1.7853  1.5224  0.1416
  994MOL0     H37149   3.415   8.404   6.945  0.4641  0.4409  1.0356
  994MOL0     H37150   3.510   8.239   6.804 -0.9689  1.1251 -0.3858
  994MOL0     H37151   3.489   8.162   6.964  0.1814 -0.2355 -1.2112
  994MOL0     H37152   2.984   8.617   7.667  2.7479 -3.8018 -0.2182
  994MOL0     H37153   2.785   8.736   7.579 -1.4720  0.1373 -0.2898
  994MOL0     H37154   2.529   8.983   7.259 -0.4610 -0.4143  0.4038
  994MOL0     H37155   2.302   9.085   7.227  0.1544 -0.6244 -0.3523
  994MOL0     H37156   2.105   9.949   6.953 -0.5982 -0.5787 -0.8560
  994MOL0     H37157   1.982  10.065   7.123  0.3026  0.0369  0.6347
  994MOL0     H37158   1.728  10.597   7.278  0.7415  1.2916  3.3235
  994MOL0     H37159   1.596  10.628   7.465 -1.0340  0.0697  0.1351
  994MOL0     H37160   1.327  10.316   7.623  1.6558 -0.4945 -1.1279
  994MOL0     H37161   1.449  10.305   7.748 -0.3727  2.9488  3.2398
  994MOL0     H37162   1.201  10.395   7.773  1.2978 -1.3117 -2.0698
  994MOL0     H37163   1.266  10.548   7.720 -1.9183 -1.8743 -2.6052
  994MOL0     H37164   1.292  10.556   7.956  2.7511 -0.5002  2.5696
  994MOL0     H37165   1.346  10.391   7.976 -0.4859  2.5046  2.8851
  994MOL0     H37166   1.501  10.623   7.851 -1.6318  0.8365  1.5469
  994MOL0     H37167   1.568  10.462   7.880  1.9590  0.6887  2.4791
  994MOL0     H37168   1.623  10.528   8.262 -0.1940  0.8854 -0.4922
  994MOL0     H37169   1.483  10.214   7.484 -0.1228  1.3311  2.5282
  994MOL0     H37170   1.531  10.065   7.321  1.6268 -2.0235 -0.7505
  994MOL0     H37171   1.491  10.147   7.176 -0.1361 -2.9610 -1.0188
  994MOL0     H37172   1.663  10.105   7.206 -0.5496 -0.2945 -0.5199
  995MOL0     O37173   0.592   4.476  10.498 -0.3407  0.0099 -0.3000
  995MOL0     C37174   0.569   4.572  10.416 -0.0086  0.0858 -0.6454
  995MOL0     O37175   0.634   4.690  10.417 -0.1748  0.3259  0.1558
  995MOL0     C37176   0.761   4.698  10.463 -0.3679 -0.3945  1.0096
  995MOL0     C37177   0.854   4.597  10.437 -1.3853  0.8449 -0.4512
  995MOL0     C37178   0.975   4.604  10.503  0.5214  0.3344  0.2979
  995MOL0     C37179   1.019   4.706  10.576  0.0718  0.0587 -0.3165
  995MOL0     O37180   1.144   4.705  10.635 -0.4087 -0.2205  0.5297
  995MOL0     C37181   1.253   4.745  10.547  0.0522  0.2167  0.0016
  995MOL0     C37182   1.389   4.714  10.615  0.2946  0.1151  0.0162
  995MOL0     C37183   1.502   4.736  10.515  0.5124 -0.0872 -0.2473
  995MOL0     C37184   1.635   4.699  10.585  0.1183 -0.5063  0.1868
  995MOL0     C37185   1.747   4.722  10.482 -0.8778 -0.5357 -1.0892
  995MOL0     C37186   1.877   4.651  10.500 -0.3301 -0.9808 -0.0696
  995MOL0     C37187   1.880   4.507  10.442 -0.4971 -0.1170 -0.0659
  995MOL0     C37188   2.006   4.434  10.483 -0.2863 -0.0398  0.2405
  995MOL0     N37189   2.007   4.293  10.434  0.0928 -0.0573  0.0517
  995MOL0     C37190   2.116   4.210  10.447 -0.2688 -0.4344 -0.1232
  995MOL0     C37191   2.074   4.089  10.415 -0.1454 -0.4354  0.1744
  995MOL0     C37192   2.141   3.956  10.421  0.0229 -0.5972  0.1995
  995MOL0     C37193   2.181   3.936  10.570  0.3146 -0.2215  0.8408
  995MOL0     C37194   2.193   3.793  10.607  0.6277 -0.6724 -0.8204
  995MOL0     C37195   2.288   3.696  10.532  0.2193 -0.2874 -0.1551
  995MOL0     O37196   2.410   3.714  10.594  0.3221  0.0812 -0.6026
  995MOL0     C37197   2.512   3.623  10.590 -0.2510  0.7100  0.4810
  995MOL0     C37198   2.619   3.636  10.682  0.7378 -0.8168  0.2805
  995MOL0     C37199   2.735   3.561  10.669 -0.4491  0.2151  0.1301
  995MOL0     C37200   2.847   3.592  10.768 -0.4316 -0.6174 -0.4943
  995MOL0     C37201   2.750   3.463  10.571  0.4109  0.3183  0.5768
  995MOL0     C37202   2.873   3.372  10.556 -0.1046 -0.4255  0.3521
  995MOL0     O37203   2.981   3.410  10.624 -0.1884 -0.2469  0.5224
  995MOL0     C37204   3.114   3.370  10.593 -0.2214  0.4478  0.2525
  995MOL0     C37205   3.183   3.436  10.496  0.5492 -0.4611 -0.7362
  995MOL0     C37206   3.322   3.415  10.480  0.3571 -0.1071  0.5313
  995MOL0     C37207   3.392   3.311  10.548 -0.0148  0.3395  0.4102
  995MOL0     O37208   3.527   3.282  10.527  0.3391  0.2031  0.2340
  995MOL0     C37209   3.624   3.272  10.631 -0.5257 -0.3038  0.5899
  995MOL0     C37210   3.757   3.321  10.570 -0.1039 -0.2656 -0.0662
  995MOL0     C37211   3.853   3.370  10.683  0.2976  0.3575 -0.1453
  995MOL0     C37212   3.935   3.254  10.740 -0.3988 -0.8637  0.6808
  995MOL0     C37213   4.015   3.293  10.867  0.5712 -0.7978  0.5311
  995MOL0     C37214   4.103   3.175  10.912 -0.5443  1.0380  1.0242
  995MOL0     C37215   4.179   3.215  11.043  1.2401 -0.0880 -0.3733
  995MOL0     C37216   4.211   3.100  11.138 -0.2214 -0.8025  0.3986
  995MOL0    Cl37217   4.343   3.018  11.061  0.2794 -0.4165 -0.0637
  995MOL0     C37218   3.319   3.240  10.644 -0.1246 -0.4845 -0.7066
  995MOL0     C37219   3.182   3.272  10.666 -0.1116 -0.2578 -0.8866
  995MOL0     O37220   2.874   3.269  10.486 -0.2427  0.0761 -0.1017
  995MOL0     C37221   2.634   3.442  10.482  0.2858 -0.0733 -0.4189
  995MOL0     C37222   2.519   3.521  10.497 -0.3994 -0.1200 -0.5927
  995MOL0     N37223   1.942   4.092  10.398  0.8390 -0.7689  0.1193
  995MOL0     N37224   1.900   4.218  10.402 -0.1594 -0.0063  0.0641
  995MOL0     C37225   0.918   4.804  10.614 -0.5943 -0.0149 -0.2931
  995MOL0     C37226   0.793   4.800  10.555  0.5342  0.6611 -0.2620
  995MOL0     C37227   0.462   4.558  10.306 -0.7747 -0.8718  0.4987
  995MOL0     C37228   0.430   4.675  10.225  0.2083 -0.1417 -0.0943
  995MOL0     C37229   0.318   4.665  10.146  0.2286 -0.9429 -0.3130
  995MOL0     C37230   0.242   4.542  10.132 -0.4522 -0.6019  0.2203
  995MOL0     O37231   0.147   4.516  10.047  0.4816  0.4505  0.3925
  995MOL0     C37232   0.093   4.613   9.964  0.1139  0.2831 -0.4916
  995MOL0     C37233  -0.015   4.553   9.874  1.0811  0.1403 -1.2319
  995MOL0     C37234  -0.118   4.655   9.819 -0.7120  0.1919 -0.6436
  995MOL0     C37235  -0.240   4.597   9.738 -1.2377  0.0373  0.4513
  995MOL0     C37236  -0.204   4.552   9.603  0.2830 -0.6464 -0.7899
  995MOL0     C37237  -0.168   4.484   9.507  0.3832 -0.3012 -0.0989
  995MOL0     C37238   0.281   4.433  10.208 -0.1087 -0.4796  1.2188
  995MOL0     C37239   0.389   4.433  10.290  0.1105  0.1408 -0.2913
  995MOL0     C37240   0.419   4.301  10.358  0.3440 -0.5924  0.7063
  995MOL0     H37241   0.829   4.515  10.371 -2.4719 -0.8829  1.9361
  995MOL0     H37242   1.057   4.534  10.488  0.2257 -0.0604  0.5139
  995MOL0     H37243   1.240   4.852  10.529 -0.9039 -0.2312 -2.2367
  995MOL0     H37244   1.261   4.701  10.448 -1.3056  1.8942 -0.9215
  995MOL0     H37245   1.411   4.773  10.704  0.5031 -0.2506  0.2097
  995MOL0     H37246   1.392   4.609  10.645  3.2907  0.2986  0.6718
  995MOL0     H37247   1.485   4.671  10.429 -2.5111  0.0729  0.1165
  995MOL0     H37248   1.492   4.841  10.488  0.8542  0.5755  1.9620
  995MOL0     H37249   1.647   4.763  10.672 -4.8670  0.8282  0.2320
  995MOL0     H37250   1.615   4.596  10.618  2.7866 -1.4861 -0.9230
  995MOL0     H37251   1.771   4.829  10.483 -1.7034 -0.3344 -1.4188
  995MOL0     H37252   1.716   4.691  10.382 -2.1297 -0.0136 -0.8937
  995MOL0     H37253   1.944   4.716  10.443  0.0418 -0.9348  0.4154
  995MOL0     H37254   1.912   4.655  10.604 -0.3784  1.6106 -0.0823
  995MOL0     H37255   1.869   4.511  10.334  0.3552  0.6038 -0.1335
  995MOL0     H37256   1.800   4.447  10.488 -0.6087  0.0986  0.0245
  995MOL0     H37257   2.096   4.483  10.444 -1.5312  0.9364 -1.6054
  995MOL0     H37258   2.004   4.428  10.592  1.0518 -0.3443  0.2599
  995MOL0     H37259   2.215   4.240  10.480  0.0301 -1.8387  0.2906
  995MOL0     H37260   2.227   3.951  10.353  0.9778 -1.8535  1.4543
  995MOL0     H37261   2.077   3.875  10.385 -0.2123 -1.0927  1.6653
  995MOL0     H37262   2.281   3.978  10.583  0.1765  0.8850 -1.2812
  995MOL0     H37263   2.110   3.972  10.646 -1.3997  0.5163 -1.0253
  995MOL0     H37264   2.217   3.788  10.714  0.7308 -0.4996 -0.8359
  995MOL0     H37265   2.093   3.749  10.594  1.4568 -2.1043 -2.8796
  995MOL0     H37266   2.246   3.595  10.543 -0.5472 -0.0505 -0.8234
  995MOL0     H37267   2.291   3.730  10.428  0.5520  0.7389  0.1804
  995MOL0     H37268   2.606   3.708  10.763 -2.0119 -1.2241  0.2950
  995MOL0     H37269   2.873   3.507  10.831  1.9595  0.5620  0.2316
  995MOL0     H37270   2.819   3.673  10.837  0.9974  3.3579 -4.0856
  995MOL0     H37271   2.935   3.634  10.717 -0.2214  0.6543  0.8377
  995MOL0     H37272   3.130   3.511  10.438  0.1563 -0.4447 -0.3654
  995MOL0     H37273   3.381   3.457  10.399 -0.2215 -2.0402 -0.9614
  995MOL0     H37274   3.596   3.343  10.709  0.8566 -1.0848  1.8410
  995MOL0     H37275   3.628   3.174  10.681 -1.0794 -0.4383  0.3780
  995MOL0     H37276   3.804   3.243  10.510 -1.4085 -3.2764  2.5578
  995MOL0     H37277   3.727   3.407  10.509 -1.7786 -0.8064 -0.0592
  995MOL0     H37278   3.799   3.422  10.763  3.2160  0.7291  1.7559
  995MOL0     H37279   3.923   3.440  10.637 -0.9687  2.4417  0.9146
  995MOL0     H37280   4.007   3.228  10.662  0.7459  3.5927 -0.0294
  995MOL0     H37281   3.877   3.164  10.760  2.2429 -2.7562  0.3942
  995MOL0     H37282   4.067   3.388  10.848 -2.2377  0.7392 -0.0233
  995MOL0     H37283   3.936   3.318  10.938  0.3883 -0.8865  0.3601
  995MOL0     H37284   4.175   3.141  10.837  0.2504  0.6841  1.9227
  995MOL0     H37285   4.042   3.087  10.934 -0.0106 -0.3681 -2.4741
  995MOL0     H37286   4.103   3.276  11.093 -2.2564 -3.6576 -0.8007
  995MOL0     H37287   4.269   3.272  11.021  0.1127  1.9033 -0.0919
  995MOL0     H37288   4.121   3.040  11.153 -1.0357 -0.0367 -1.1599
  995MOL0     H37289   4.230   3.137  11.239 -0.0140  2.5169 -0.7413
  995MOL0     H37290   3.355   3.168  10.717 -3.4224 -2.0171 -0.4193
  995MOL0     H37291   3.131   3.225  10.750 -0.9402 -0.4139 -1.4574
  995MOL0     H37292   2.630   3.369  10.402 -1.1261 -1.8006  1.1568
  995MOL0     H37293   2.434   3.511  10.431 -2.5526  0.6402  1.8722
  995MOL0     H37294   0.944   4.878  10.690 -2.0337  0.6454 -0.4138
  995MOL0     H37295   0.718   4.872  10.584  2.6105  3.3897 -1.2861
  995MOL0     H37296   0.492   4.763  10.242  3.2827 -2.4894  2.0388
  995MOL0     H37297   0.296   4.748  10.081  1.2616 -0.0193  0.4840
  995MOL0     H37298   0.039   4.680  10.032  1.6797  0.5742  0.5235
  995MOL0     H37299   0.166   4.674   9.910  2.2361 -2.1185 -0.4536
  995MOL0     H37300  -0.082   4.490   9.933  3.0244 -1.9172 -1.0853
  995MOL0     H37301   0.040   4.491   9.802 -1.2822 -3.7309 -0.0668
  995MOL0     H37302  -0.170   4.722   9.888 -0.2494 -1.1454  1.0847
  995MOL0     H37303  -0.060   4.720   9.753 -0.8090  1.6094  0.6111
  995MOL0     H37304  -0.317   4.674   9.729 -0.2316  1.4300  2.6646
  995MOL0     H37305  -0.280   4.510   9.791 -3.2764  1.1993  0.9107
  995MOL0     H37306  -0.135   4.418   9.429  2.4938 -2.8639  2.7133
  995MOL0     H37307   0.225   4.341  10.197  0.2693 -0.5873  0.0227
  995MOL0     H37308   0.386   4.311  10.462 -0.4758  4.8279  0.2187
  995MOL0     H37309   0.363   4.218  10.315 -0.8966  0.3429  0.4560
  995MOL0     H37310   0.523   4.265  10.356  0.5220 -0.0467 -0.2272
  996MOL0     O37311   4.662   2.063   7.197  0.2524 -0.4848 -0.1384
  996MOL0     C37312   4.649   2.088   7.082 -0.1253 -0.2160  0.3650
  996MOL0     O37313   4.544   2.056   6.995  0.7227 -0.1789 -0.4999
  996MOL0     C37314   4.443   1.984   7.063  0.8824 -0.9856  0.0874
  996MOL0     C37315   4.307   2.025   7.043 -1.2352 -0.3665 -0.1460
  996MOL0     C37316   4.202   1.958   7.106 -0.7953 -0.1569  0.3368
  996MOL0     C37317   4.220   1.839   7.184  0.1019 -0.2650 -0.0633
  996MOL0     O37318   4.129   1.761   7.255  0.3160 -1.0789  0.2566
  996MOL0     C37319   3.997   1.776   7.196  0.3793  0.6128  0.0186
  996MOL0     C37320   3.898   1.715   7.284 -0.7504  0.6000  0.3563
  996MOL0     C37321   3.901   1.798   7.413 -0.6340 -0.0699  0.0437
  996MOL0     C37322   3.792   1.760   7.514  0.3602  0.2812 -0.2349
  996MOL0     C37323   3.776   1.872   7.625  0.8059 -0.1728  0.6993
  996MOL0     C37324   3.641   1.852   7.689  0.4959 -0.3965 -0.7419
  996MOL0     C37325   3.633   1.929   7.828 -0.4000  0.4073  0.0196
  996MOL0     C37326   3.499   1.981   7.857  0.5690  0.7578  0.4255
  996MOL0     N37327   3.470   1.994   8.000 -0.1601  0.7033  0.1535
  996MOL0     C37328   3.351   1.959   8.065 -0.0620 -0.1233  0.4463
  996MOL0     C37329   3.373   2.007   8.190  0.2325  0.5310 -0.4423
  996MOL0     C37330   3.282   1.976   8.312 -0.3282  0.2590 -0.5091
  996MOL0     C37331   3.163   2.067   8.308 -0.8274  0.5492  0.6772
  996MOL0     C37332   3.207   2.209   8.324  0.1358 -0.5013  0.4026
  996MOL0     C37333   3.163   2.309   8.209 -0.7334 -0.9790 -0.0712
  996MOL0     O37334   3.032   2.295   8.148 -1.1912 -0.3505 -0.1734
  996MOL0     C37335   2.920   2.319   8.214  0.9882  0.4923  0.6414
  996MOL0     C37336   2.914   2.371   8.343  0.4554 -0.7833 -0.6058
  996MOL0     C37337   2.793   2.374   8.404  0.3828 -0.3005 -0.8475
  996MOL0     C37338   2.781   2.417   8.555  0.1361 -0.0887 -0.1257
  996MOL0     C37339   2.670   2.339   8.338  0.1748  0.6658 -0.2108
  996MOL0     C37340   2.533   2.329   8.406  0.5321  0.7585 -0.4352
  996MOL0     O37341   2.478   2.445   8.457  0.2355 -0.0335 -0.3476
  996MOL0     C37342   2.365   2.449   8.530 -0.0969  0.0273 -0.4117
  996MOL0     C37343   2.243   2.420   8.469  0.2541  0.2684 -0.9179
  996MOL0     C37344   2.121   2.443   8.533 -0.6930  0.1190 -0.4392
  996MOL0     C37345   2.112   2.488   8.667  0.2804 -0.3730 -0.2183
  996MOL0     O37346   2.002   2.508   8.740  0.0187 -0.0846 -0.5424
  996MOL0     C37347   1.912   2.590   8.679  0.4141 -0.1350  0.5010
  996MOL0     C37348   1.785   2.590   8.754 -0.6801 -0.2391  0.3433
  996MOL0     C37349   1.673   2.692   8.702  0.7739  0.1948 -0.4824
  996MOL0     C37350   1.542   2.663   8.766  0.3722 -0.0228 -1.0783
  996MOL0     C37351   1.441   2.777   8.738  0.1184 -0.1115  0.3549
  996MOL0     C37352   1.325   2.761   8.842  0.6712 -0.6204  0.7037
  996MOL0     C37353   1.212   2.871   8.839  0.3816  0.2035 -0.5525
  996MOL0     C37354   1.246   3.013   8.902  0.2299 -0.5060 -0.5821
  996MOL0    Cl37355   1.364   3.115   8.798  0.3861  0.5849 -0.3154
  996MOL0     C37356   2.230   2.504   8.737 -0.5390 -0.9089  0.2809
  996MOL0     C37357   2.356   2.493   8.661 -0.4913  0.1076 -1.0500
  996MOL0     O37358   2.478   2.218   8.412  1.0331 -0.0748 -0.9854
  996MOL0     C37359   2.679   2.281   8.213  0.1402  0.5923  0.2591
  996MOL0     C37360   2.806   2.277   8.145  0.4360  0.1666  0.2964
  996MOL0     N37361   3.481   2.087   8.194  0.1290  0.0783 -0.5762
  996MOL0     N37362   3.549   2.068   8.088  0.0008 -0.5683 -0.8641
  996MOL0     C37363   4.347   1.785   7.176  0.4841  0.2623  0.3036
  996MOL0     C37364   4.457   1.860   7.121 -0.4643 -0.1334  0.7934
  996MOL0     C37365   4.770   2.125   7.007  0.6909  0.3510 -0.4465
  996MOL0     C37366   4.801   2.044   6.899 -0.2680 -0.2824 -0.6875
  996MOL0     C37367   4.922   2.063   6.834 -0.7182 -0.0992 -0.9035
  996MOL0     C37368   5.017   2.159   6.886 -0.3605 -0.0616 -0.2423
  996MOL0     O37369   5.135   2.208   6.838 -0.3848 -0.0308 -0.2586
  996MOL0     C37370   5.189   2.197   6.703 -0.3380  0.4387  0.4196
  996MOL0     C37371   5.273   2.072   6.689  0.4666  0.1259  0.1002
  996MOL0     C37372   5.369   2.068   6.563 -1.1984 -0.8712  0.0995
  996MOL0     C37373   5.318   1.965   6.454 -0.1855 -0.4358  0.2019
  996MOL0     C37374   5.406   1.970   6.339 -0.1116  0.2392  1.1997
  996MOL0     C37375   5.478   1.968   6.240 -0.1486  0.2843  0.0914
  996MOL0     C37376   4.982   2.231   6.995 -0.5246  0.1772  1.0472
  996MOL0     C37377   4.862   2.224   7.053  0.4145  0.7184 -0.3445
  996MOL0     C37378   4.828   2.322   7.159  0.4451  0.4513 -0.5346
  996MOL0     H37379   4.286   2.117   6.990 -0.1353  0.1479  0.2682
  996MOL0     H37380   4.102   2.001   7.111 -0.2973  1.0776 -0.0054
  996MOL0     H37381   4.006   1.728   7.098 -2.9222  0.7798 -0.4861
  996MOL0     H37382   3.976   1.883   7.182  0.3954  0.8297  1.4911
  996MOL0     H37383   3.805   1.709   7.228  1.1153  0.1887 -2.9473
  996MOL0     H37384   3.922   1.613   7.314 -1.3717  0.7524  1.4443
  996MOL0     H37385   3.997   1.792   7.466 -0.7168  1.1680  0.3518
  996MOL0     H37386   3.896   1.901   7.377 -1.5761 -0.5416 -1.2329
  996MOL0     H37387   3.699   1.765   7.456  0.3544 -0.4651 -0.3055
  996MOL0     H37388   3.805   1.660   7.556  0.6576  0.5340  0.2764
  996MOL0     H37389   3.777   1.976   7.591  1.2127  0.0182  1.2964
  996MOL0     H37390   3.858   1.840   7.689  2.4666 -0.8045 -1.6091
  996MOL0     H37391   3.569   1.897   7.620  0.8282  1.2538 -0.0731
  996MOL0     H37392   3.621   1.746   7.700 -1.3674  0.1386  2.0232
  996MOL0     H37393   3.708   2.009   7.824 -2.4324  2.3458 -3.3286
  996MOL0     H37394   3.666   1.861   7.907 -1.4564 -0.0756  0.0557
  996MOL0     H37395   3.475   2.073   7.802  0.1006 -0.0105 -0.6742
  996MOL0     H37396   3.432   1.904   7.819  0.9701  0.5917  0.0437
  996MOL0     H37397   3.257   1.911   8.041 -0.8610  0.0351  3.0287
  996MOL0     H37398   3.349   1.989   8.397 -0.5235 -2.3221  0.1367
  996MOL0     H37399   3.254   1.871   8.328  2.3775 -0.1860  2.2730
  996MOL0     H37400   3.116   2.051   8.211 -0.1561 -2.3596  0.7192
  996MOL0     H37401   3.090   2.039   8.385  1.8258 -1.9791  2.4786
  996MOL0     H37402   3.164   2.254   8.414 -1.6781 -0.6001 -0.3711
  996MOL0     H37403   3.315   2.224   8.332  0.2983  0.7861 -2.7500
  996MOL0     H37404   3.161   2.410   8.251 -0.3047 -0.5324 -1.0953
  996MOL0     H37405   3.241   2.298   8.134  0.0427  0.2674  0.5296
  996MOL0     H37406   2.996   2.412   8.400 -0.1438  1.7980 -1.5008
  996MOL0     H37407   2.880   2.434   8.599  0.3270  0.3051 -0.6972
  996MOL0     H37408   2.737   2.346   8.625 -0.9723 -1.6957 -2.3254
  996MOL0     H37409   2.722   2.509   8.558 -0.7173 -0.6451  1.7335
  996MOL0     H37410   2.245   2.393   8.364  2.1116 -1.0317 -0.5721
  996MOL0     H37411   2.028   2.425   8.479 -0.8526 -2.2522  0.4811
  996MOL0     H37412   1.948   2.693   8.672  4.5780 -1.4963 -0.5007
  996MOL0     H37413   1.889   2.554   8.578 -1.4226 -1.2835  1.2740
  996MOL0     H37414   1.751   2.486   8.753  0.8628 -0.7687 -0.0806
  996MOL0     H37415   1.803   2.628   8.855  2.6810  3.0419 -1.2376
  996MOL0     H37416   1.658   2.677   8.595 -2.9899  0.6776 -0.1915
  996MOL0     H37417   1.702   2.795   8.728  1.5427 -0.6579  2.4639
  996MOL0     H37418   1.564   2.643   8.872 -2.8326  0.3320 -0.2244
  996MOL0     H37419   1.503   2.572   8.720  0.5054 -2.1639  2.6149
  996MOL0     H37420   1.491   2.874   8.745 -2.1395  1.0020  2.7231
  996MOL0     H37421   1.388   2.766   8.643  1.2230  1.5731 -0.4958
  996MOL0     H37422   1.364   2.749   8.944  1.3181 -1.9022  0.3286
  996MOL0     H37423   1.277   2.664   8.828 -0.7411  0.1134  0.3060
  996MOL0     H37424   1.135   2.821   8.899 -0.0434  0.0521 -1.2227
  996MOL0     H37425   1.175   2.890   8.738 -0.9269  1.3201  0.0925
  996MOL0     H37426   1.282   3.005   9.005 -1.6569  3.3867  0.5552
  996MOL0     H37427   1.153   3.069   8.915  1.3239  2.2686 -3.5064
  996MOL0     H37428   2.219   2.534   8.840  0.6329  1.6115 -0.2619
  996MOL0     H37429   2.450   2.509   8.714 -0.4537 -4.8657  1.0116
  996MOL0     H37430   2.592   2.258   8.154  1.3078  0.6897 -1.5799
  996MOL0     H37431   2.808   2.227   8.049 -0.0857  0.9844 -0.1568
  996MOL0     H37432   4.373   1.688   7.216 -2.0621  0.1088  1.7871
  996MOL0     H37433   4.556   1.816   7.118  0.2793  1.5129  0.3178
  996MOL0     H37434   4.736   1.966   6.860  2.3879 -2.0877 -1.7354
  996MOL0     H37435   4.938   1.996   6.750 -3.7176  0.5815 -2.1485
  996MOL0     H37436   5.109   2.202   6.629  1.6007  2.3380 -1.6910
  996MOL0     H37437   5.268   2.271   6.685 -0.5747  0.8176  0.9208
  996MOL0     H37438   5.215   1.979   6.695  0.0197  0.4647  1.5913
  996MOL0     H37439   5.335   2.078   6.779  0.3297 -1.8422  0.3809
  996MOL0     H37440   5.382   2.166   6.516 -1.4087 -0.9311 -0.0879
  996MOL0     H37441   5.467   2.038   6.600 -0.1148  2.4137  0.2553
  996MOL0     H37442   5.211   1.973   6.430 -0.1267 -1.8881 -0.6885
  996MOL0     H37443   5.326   1.861   6.489  1.4998 -0.1807  0.6565
  996MOL0     H37444   5.533   1.963   6.148 -0.9763 -0.5791 -0.3742
  996MOL0     H37445   5.057   2.304   7.024 -1.6391  1.0537  1.7838
  996MOL0     H37446   4.892   2.290   7.242  1.5031 -0.0618 -1.5103
  996MOL0     H37447   4.851   2.425   7.130  2.2435  0.9646  2.2839
  996MOL0     H37448   4.727   2.315   7.200  0.3253  2.4983 -0.4015
  997MOL0     O37449  11.394   4.396  10.419 -0.0847  0.4575 -0.0685
  997MOL0     C37450  11.361   4.492  10.356 -0.3544  0.6231 -0.0360
  997MOL0     O37451  11.400   4.618  10.389 -0.3011  0.2517 -0.2031
  997MOL0     C37452  11.471   4.650  10.496  0.0870  0.3883 -0.2194
  997MOL0     C37453  11.610   4.629  10.485 -0.4660 -0.5021  0.0591
  997MOL0     C37454  11.700   4.677  10.586  0.2516  0.1271  0.5455
  997MOL0     C37455  11.650   4.750  10.695 -0.2772  0.1117 -1.1286
  997MOL0     O37456  11.727   4.812  10.796  0.0962 -0.2293  0.4202
  997MOL0     C37457  11.867   4.821  10.767 -0.1315 -0.0404  1.5095
  997MOL0     C37458  11.931   4.936  10.833  0.4589  0.1303  0.4749
  997MOL0     C37459  11.920   4.936  10.984  0.3251  0.8628 -0.0249
  997MOL0     C37460  12.054   5.008  11.042 -0.3234  0.2293  0.5108
  997MOL0     C37461  12.082   4.958  11.180  0.4967  0.1180 -0.2470
  997MOL0     C37462  12.203   5.034  11.245 -0.3132 -0.0403  0.0121
  997MOL0     C37463  12.221   5.019  11.398  0.4215  0.2484  1.0150
  997MOL0     C37464  12.120   5.096  11.468  0.5729 -0.0517 -1.6840
  997MOL0     N37465  12.139   5.060  11.613 -0.9156 -0.2713  0.0781
  997MOL0     C37466  12.091   4.941  11.668 -0.5273 -0.2364 -0.4564
  997MOL0     C37467  12.131   4.946  11.803  0.2644 -0.2905  0.7871
  997MOL0     C37468  12.103   4.842  11.910  0.1560  0.2361  0.1385
  997MOL0     C37469  12.224   4.747  11.914  0.3649  0.1075 -0.2986
  997MOL0     C37470  12.188   4.644  12.024  0.2011  0.5757  0.0714
  997MOL0     C37471  12.290   4.539  12.033  0.2017 -0.8120  0.8647
  997MOL0     O37472  12.300   4.483  11.907  1.0437 -0.2085  0.0841
  997MOL0     C37473  12.347   4.352  11.900  0.6966 -0.2328  0.6132
  997MOL0     C37474  12.310   4.259  11.795 -0.9529 -0.7487  0.5971
  997MOL0     C37475  12.347   4.121  11.785 -0.0364 -0.7254 -0.0814
  997MOL0     C37476  12.284   4.043  11.667  0.0221  0.1356 -0.8408
  997MOL0     C37477  12.435   4.079  11.889 -0.0706 -0.5462  0.3552
  997MOL0     C37478  12.481   3.934  11.895  0.3799 -0.5223 -0.2406
  997MOL0     O37479  12.576   3.907  11.990  0.4765  0.0614  0.5995
  997MOL0     C37480  12.634   3.783  11.988 -0.4838 -0.6788  0.0924
  997MOL0     C37481  12.597   3.676  12.060  0.1356  0.9204 -0.7104
  997MOL0     C37482  12.665   3.551  12.044 -0.0442 -0.4180 -0.0137
  997MOL0     C37483  12.786   3.546  11.970 -0.5243  0.7718 -0.6565
  997MOL0     O37484  12.866   3.432  11.955 -0.0599 -0.3560 -0.0802
  997MOL0     C37485  12.901   3.368  12.078  0.1669  0.5965  1.1688
  997MOL0     C37486  12.895   3.217  12.058  0.4528 -0.1219 -0.4187
  997MOL0     C37487  12.761   3.164  12.007  0.3085  0.1178  0.0873
  997MOL0     C37488  12.762   3.012  11.978  0.4922  0.7677  0.5044
  997MOL0     C37489  12.662   2.979  11.863 -0.3827 -0.2109  0.2633
  997MOL0     C37490  12.518   2.984  11.904  0.1136  0.3796 -0.3474
  997MOL0     C37491  12.426   2.938  11.785 -0.1839  0.0248  0.5597
  997MOL0     C37492  12.270   2.949  11.821  0.6706  0.4529  0.0210
  997MOL0    Cl37493  12.176   2.866  11.693 -0.3916 -0.4157 -0.3503
  997MOL0     C37494  12.827   3.662  11.906  0.0920 -0.3452  0.1905
  997MOL0     C37495  12.752   3.778  11.910 -0.2038  0.0285 -0.4037
  997MOL0     O37496  12.437   3.860  11.812  0.1398  0.4792  0.6171
  997MOL0     C37497  12.488   4.169  11.982 -0.1591 -0.1332  0.6292
  997MOL0     C37498  12.444   4.302  11.990 -0.3246 -0.1363  0.7013
  997MOL0     N37499  12.205   5.064  11.815 -0.8919 -0.2592 -0.5338
  997MOL0     N37500  12.208   5.140  11.706 -0.1562 -0.3333 -0.1711
  997MOL0     C37501  11.519   4.760  10.710  0.1300  0.2119 -0.7302
  997MOL0     C37502  11.422   4.721  10.615 -0.6645 -0.4758 -0.4595
  997MOL0     C37503  11.266   4.465  10.245  0.9174 -0.0243 -0.0843
  997MOL0     C37504  11.260   4.327  10.194 -0.3715  0.1254 -0.1433
  997MOL0     C37505  11.169   4.294  10.088 -0.0905  0.5554 -0.0011
  997MOL0     C37506  11.089   4.396  10.026  0.7965  0.0162  0.8874
  997MOL0     O37507  11.007   4.371   9.916 -1.0296  0.5419  0.4871
  997MOL0     C37508  10.873   4.332   9.957 -0.3704 -0.1640  0.4105
  997MOL0     C37509  10.790   4.288   9.830  0.3258  0.0776 -0.2637
  997MOL0     C37510  10.651   4.222   9.865 -0.5566 -0.4799  0.1961
  997MOL0     C37511  10.542   4.327   9.909 -0.5721  0.2509 -0.3013
  997MOL0     C37512  10.534   4.443   9.817 -0.0564 -0.3001 -0.9207
  997MOL0     C37513  10.526   4.539   9.743  0.7134 -0.1456  0.8214
  997MOL0     C37514  11.100   4.524  10.075 -0.1466 -0.5302 -0.1990
  997MOL0     C37515  11.193   4.567  10.174  0.0469  0.3104  0.1277
  997MOL0     C37516  11.193   4.722  10.195  0.7699  0.1879  0.1583
  997MOL0     H37517  11.642   4.589  10.389  3.3956 -1.1784  1.4377
  997MOL0     H37518  11.806   4.654  10.585  0.0664 -1.2390 -2.8867
  997MOL0     H37519  11.880   4.833  10.659 -0.9681  2.0466  1.5925
  997MOL0     H37520  11.914   4.727  10.795 -1.0045 -1.0772 -0.3137
  997MOL0     H37521  12.036   4.935  10.803  0.2139 -1.3744 -0.4129
  997MOL0     H37522  11.888   5.030  10.795 -0.0411 -0.5229 -0.6089
  997MOL0     H37523  11.830   4.981  11.026 -0.1462 -0.7297  0.7404
  997MOL0     H37524  11.914   4.832  11.016 -1.4559  1.0744  0.4094
  997MOL0     H37525  12.139   4.989  10.976  0.0771 -1.9067  1.5523
  997MOL0     H37526  12.034   5.116  11.041 -3.3958 -0.2117 -2.0542
  997MOL0     H37527  12.090   4.849  11.177  1.1947  0.1350  0.6157
  997MOL0     H37528  11.992   4.974  11.241 -0.4801 -0.9408 -1.3577
  997MOL0     H37529  12.285   4.982  11.195 -0.4017 -0.3933  0.2281
  997MOL0     H37530  12.199   5.139  11.218 -1.6489 -0.8920 -3.6620
  997MOL0     H37531  12.318   5.058  11.429  1.8666 -1.7078 -0.7652
  997MOL0     H37532  12.219   4.914  11.429  0.0674  0.1512  0.6746
  997MOL0     H37533  12.140   5.201  11.445 -0.4050  0.2332 -1.2895
  997MOL0     H37534  12.017   5.065  11.449  0.1185  1.5842 -2.0965
  997MOL0     H37535  12.046   4.855  11.621  0.5607 -1.1821  0.1998
  997MOL0     H37536  12.010   4.789  11.890 -0.0891  0.0579  1.6154
  997MOL0     H37537  12.081   4.890  12.005 -2.9773 -1.8124  0.5848
  997MOL0     H37538  12.242   4.700  11.817 -4.6414 -1.4741 -0.7077
  997MOL0     H37539  12.314   4.803  11.942  1.1927 -0.8167 -1.0198
  997MOL0     H37540  12.166   4.694  12.119  0.1925 -2.3512  1.7324
  997MOL0     H37541  12.098   4.593  11.988 -1.0994  2.4960  0.4660
  997MOL0     H37542  12.377   4.597  12.063 -0.5465 -0.6066  2.8065
  997MOL0     H37543  12.266   4.454  12.098  0.2272 -2.7024 -1.4498
  997MOL0     H37544  12.242   4.304  11.723  0.2675 -0.0880 -0.1844
  997MOL0     H37545  12.213   3.980  11.722  1.2815 -0.4935  0.1229
  997MOL0     H37546  12.354   3.984  11.607  2.5406  1.9801  0.0673
  997MOL0     H37547  12.243   4.118  11.600 -1.2572  0.6906  0.5137
  997MOL0     H37548  12.518   3.679  12.134  2.4630 -0.6853  2.0615
  997MOL0     H37549  12.636   3.455  12.086  4.3667 -1.7034  0.5596
  997MOL0     H37550  13.003   3.399  12.103  0.1358  2.9951 -1.1636
  997MOL0     H37551  12.832   3.399  12.158 -0.2234  1.1299  0.6345
  997MOL0     H37552  12.967   3.184  11.983 -0.6665 -0.1919 -1.5060
  997MOL0     H37553  12.929   3.175  12.153 -1.0998 -0.4548  0.0207
  997MOL0     H37554  12.748   3.203  11.906  2.0318  1.4566  0.3338
  997MOL0     H37555  12.673   3.184  12.069  0.8437  0.2748  0.8231
  997MOL0     H37556  12.724   2.968  12.071  0.7248  1.8670  1.1358
  997MOL0     H37557  12.862   2.982  11.947  0.2787 -0.2823  0.7859
  997MOL0     H37558  12.683   3.042  11.776 -3.0361 -2.3773 -2.1561
  997MOL0     H37559  12.687   2.881  11.822 -0.6437 -0.0406 -0.3099
  997MOL0     H37560  12.496   3.086  11.935  0.7912  0.9536 -1.6571
  997MOL0     H37561  12.496   2.915  11.986  0.7455 -0.3618 -0.7860
  997MOL0     H37562  12.446   2.831  11.771 -0.6632 -0.3448  2.4226
  997MOL0     H37563  12.451   3.000  11.698  0.2786  2.3110  2.2409
  997MOL0     H37564  12.236   3.050  11.846 -0.7128 -0.5405  2.5142
  997MOL0     H37565  12.252   2.903  11.919 -3.6478  3.1665  0.7735
  997MOL0     H37566  12.917   3.649  11.847  0.0763 -0.9797  0.3062
  997MOL0     H37567  12.794   3.866  11.862 -2.6979  0.6265 -1.6427
  997MOL0     H37568  12.563   4.136  12.053  1.6774  0.6186 -0.8854
  997MOL0     H37569  12.488   4.355  12.073 -1.2125 -1.0134  1.7663
  997MOL0     H37570  11.479   4.816  10.794 -0.7286 -2.0141  0.4112
  997MOL0     H37571  11.318   4.751  10.617 -0.6267 -0.2174  2.4918
  997MOL0     H37572  11.311   4.239  10.233  0.1519 -0.2771 -1.6437
  997MOL0     H37573  11.166   4.191  10.056  4.9704  0.0759  0.3041
  997MOL0     H37574  10.892   4.247  10.023  1.1708 -1.4642 -1.5903
  997MOL0     H37575  10.824   4.411  10.015  2.6507  2.4935 -0.3906
  997MOL0     H37576  10.853   4.211   9.785 -0.5690 -1.4220  0.9694
  997MOL0     H37577  10.782   4.383   9.775  1.8119  1.3029  1.5118
  997MOL0     H37578  10.622   4.171   9.773 -0.4506  1.7817 -1.1494
  997MOL0     H37579  10.654   4.152   9.950  0.3465  1.2699  1.6886
  997MOL0     H37580  10.576   4.364  10.007 -1.6228  0.9478 -0.1898
  997MOL0     H37581  10.446   4.277   9.920  0.9829 -2.9301  0.0797
  997MOL0     H37582  10.507   4.627   9.684  0.6527  0.3416  1.5522
  997MOL0     H37583  11.029   4.593  10.032 -0.7068 -0.7818  0.2988
  997MOL0     H37584  11.253   4.746  10.284  2.1238 -2.0841 -0.0612
  997MOL0     H37585  11.222   4.764  10.098  0.2141 -0.3523 -0.2414
  997MOL0     H37586  11.090   4.745  10.222  0.0224 -0.4436 -1.9800
  998MOL0     O37587   1.782   7.335   8.127 -0.8239  0.0250 -1.2510
  998MOL0     C37588   1.848   7.375   8.026  0.7116  0.2787  0.2517
  998MOL0     O37589   1.805   7.457   7.936 -0.1284 -0.2460  0.4885
  998MOL0     C37590   1.674   7.473   7.924  0.6149  0.0079 -0.6431
  998MOL0     C37591   1.588   7.364   7.885  0.6979  0.0662  0.3716
  998MOL0     C37592   1.453   7.385   7.851 -1.2303  0.3938 -0.0801
  998MOL0     C37593   1.394   7.506   7.878  0.1758 -0.4122 -0.1648
  998MOL0     O37594   1.257   7.519   7.850 -0.2150 -0.3035 -0.0002
  998MOL0     C37595   1.200   7.646   7.873 -0.0897  0.5068  0.6267
  998MOL0     C37596   1.061   7.640   7.811  0.1473 -0.6005  0.0572
  998MOL0     C37597   0.972   7.752   7.876 -0.3843  0.0995  0.6991
  998MOL0     C37598   0.819   7.711   7.860  0.0834  0.7777  0.1094
  998MOL0     C37599   0.731   7.815   7.912  1.1133 -0.5794 -0.0692
  998MOL0     C37600   0.599   7.743   7.955  0.9409  0.2379  0.0641
  998MOL0     C37601   0.481   7.843   7.963  0.2878 -0.7098  0.6395
  998MOL0     C37602   0.469   7.904   8.104 -0.0605  0.3500  0.1049
  998MOL0     N37603   0.368   7.836   8.182  0.5567  0.2672  0.0900
  998MOL0     C37604   0.232   7.818   8.142 -0.0821  0.1072 -0.9281
  998MOL0     C37605   0.184   7.723   8.221  0.1690  0.1699 -0.9413
  998MOL0     C37606   0.047   7.663   8.193 -0.2360 -0.5857 -0.0645
  998MOL0     C37607   0.053   7.580   8.063 -0.7232  0.0239  0.2463
  998MOL0     C37608   0.154   7.464   8.068  0.2252  0.2588  0.2211
  998MOL0     C37609   0.100   7.344   8.147 -0.4133  0.4396  0.6051
  998MOL0     O37610   0.163   7.223   8.094 -0.1956  0.2065  0.6085
  998MOL0     C37611   0.304   7.223   8.106  0.6236  1.1902 -0.1718
  998MOL0     C37612   0.388   7.292   8.193  0.1031  1.1196 -0.3248
  998MOL0     C37613   0.530   7.279   8.181  0.0877  0.2179  0.2960
  998MOL0     C37614   0.603   7.370   8.273  1.3663  1.0627  0.1111
  998MOL0     C37615   0.586   7.198   8.080 -0.2264 -0.8939  0.7075
  998MOL0     C37616   0.730   7.171   8.058  0.5677 -1.1845  0.3623
  998MOL0     O37617   0.812   7.253   8.114 -0.3266 -0.5740 -0.2631
  998MOL0     C37618   0.944   7.219   8.108 -0.5822  0.4333 -0.2564
  998MOL0     C37619   1.034   7.289   8.021  0.2435  0.3524 -0.1875
  998MOL0     C37620   1.171   7.259   8.034 -0.8275  0.2122 -0.2625
  998MOL0     C37621   1.215   7.166   8.122 -0.3729 -0.3144  0.5888
  998MOL0     O37622   1.347   7.140   8.111  0.1263 -0.4913 -0.0470
  998MOL0     C37623   1.407   7.022   8.155 -0.0470 -0.0296  0.3406
  998MOL0     C37624   1.552   7.039   8.132  0.0587  0.1533  0.4355
  998MOL0     C37625   1.628   6.900   8.152  0.1478  0.3865 -0.2157
  998MOL0     C37626   1.780   6.895   8.162 -0.2095  0.2453 -0.0901
  998MOL0     C37627   1.840   6.756   8.151  0.6331  0.1177  0.4653
  998MOL0     C37628   1.989   6.740   8.113  0.5097  1.0154  0.1351
  998MOL0     C37629   2.078   6.799   8.220 -0.4431  0.4241  1.3406
  998MOL0     C37630   2.220   6.800   8.163 -0.6022  0.2097 -0.8830
  998MOL0    Cl37631   2.349   6.869   8.270  0.8257 -0.6691  0.2209
  998MOL0     C37632   1.126   7.094   8.197  0.5817  0.1628 -0.2639
  998MOL0     C37633   0.990   7.118   8.191 -0.1207 -0.2260  0.0756
  998MOL0     O37634   0.765   7.075   7.987  0.5682  0.7570  0.0072
  998MOL0     C37635   0.490   7.126   8.002 -0.1580 -0.0657  0.1183
  998MOL0     C37636   0.352   7.134   8.005 -0.1729  0.3552 -0.4386
  998MOL0     N37637   0.282   7.676   8.308  0.0369  0.6169  0.2284
  998MOL0     N37638   0.388   7.752   8.286  0.0702 -0.4205  0.1674
  998MOL0     C37639   1.475   7.617   7.927 -1.1243  0.1949  0.5879
  998MOL0     C37640   1.615   7.597   7.945 -0.1802 -0.5605 -0.2851
  998MOL0     C37641   1.981   7.304   8.008  0.5432 -0.6047  0.6871
  998MOL0     C37642   2.020   7.262   7.878 -0.2546 -0.1516  0.3929
  998MOL0     C37643   2.141   7.199   7.847  0.4218 -0.0828  0.2807
  998MOL0     C37644   2.222   7.169   7.950 -0.4397  0.6157 -0.7070
  998MOL0     O37645   2.345   7.101   7.943  0.0448  0.3505 -0.3007
  998MOL0     C37646   2.384   7.053   7.819 -0.2473 -0.7245 -0.0503
  998MOL0     C37647   2.530   7.016   7.833  0.4462  1.7692  0.0008
  998MOL0     C37648   2.553   6.860   7.867  1.1743 -0.3157  0.0010
  998MOL0     C37649   2.699   6.823   7.859 -0.1698  0.4993 -0.1120
  998MOL0     C37650   2.767   6.874   7.983  0.1067 -0.4784  0.3449
  998MOL0     C37651   2.830   6.916   8.072  0.2788  0.2898 -0.3914
  998MOL0     C37652   2.185   7.201   8.080 -0.0415 -0.6248  0.8599
  998MOL0     C37653   2.074   7.276   8.113 -0.3168 -0.2779  1.1804
  998MOL0     C37654   2.063   7.314   8.256 -0.0835 -0.4866  0.2781
  998MOL0     H37655   1.641   7.271   7.865  0.3029  0.2817 -1.9905
  998MOL0     H37656   1.406   7.306   7.792 -0.1697 -0.9921  0.8541
  998MOL0     H37657   1.261   7.724   7.828  2.8376  0.1696  3.6484
  998MOL0     H37658   1.196   7.668   7.980  2.0939  2.0597  0.4527
  998MOL0     H37659   1.080   7.667   7.707 -1.8792  0.6001 -0.0414
  998MOL0     H37660   1.013   7.542   7.809  0.3951 -0.7180 -0.2724
  998MOL0     H37661   0.987   7.767   7.983  0.4248 -2.2184  0.9881
  998MOL0     H37662   0.999   7.846   7.828  3.1851  0.5132  3.0994
  998MOL0     H37663   0.792   7.700   7.754 -1.1293  1.6488  0.3054
  998MOL0     H37664   0.802   7.620   7.917 -2.5091 -0.5762 -2.5479
  998MOL0     H37665   0.705   7.891   7.838  1.0310 -2.1381 -1.7030
  998MOL0     H37666   0.771   7.862   8.002 -0.3704 -0.9718  0.8301
  998MOL0     H37667   0.586   7.667   7.877  0.4609 -1.8681  2.0892
  998MOL0     H37668   0.600   7.683   8.046  2.1645 -0.1239 -0.1692
  998MOL0     H37669   0.393   7.784   7.937  0.2626 -1.0349  1.4417
  998MOL0     H37670   0.491   7.915   7.881  0.2783 -3.4247 -1.8851
  998MOL0     H37671   0.560   7.903   8.165 -0.2920 -0.3479  0.4485
  998MOL0     H37672   0.422   8.000   8.082 -2.9133 -0.7403  0.9851
  998MOL0     H37673   0.183   7.862   8.056 -0.0779  2.1357  0.0589
  998MOL0     H37674  -0.036   7.734   8.190 -0.5109 -0.9334 -1.9049
  998MOL0     H37675   0.015   7.595   8.273 -3.2584 -1.4400 -1.8254
  998MOL0     H37676  -0.052   7.554   8.044 -1.2683  2.7509 -0.9807
  998MOL0     H37677   0.077   7.647   7.980 -0.8817 -1.0242 -0.6681
  998MOL0     H37678   0.171   7.435   7.964 -1.8016  0.0091 -0.0880
  998MOL0     H37679   0.256   7.496   8.088  0.2892  0.2993 -0.1607
  998MOL0     H37680   0.120   7.360   8.253  0.3351 -1.2921  0.7546
  998MOL0     H37681  -0.005   7.344   8.119  0.2354  1.5321 -2.2040
  998MOL0     H37682   0.358   7.352   8.279  1.0303 -1.8900  2.2638
  998MOL0     H37683   0.676   7.316   8.334  1.8222  0.4080 -0.9888
  998MOL0     H37684   0.542   7.426   8.345  2.2983  0.7815  1.1393
  998MOL0     H37685   0.658   7.440   8.210 -2.9327  1.8504 -3.2431
  998MOL0     H37686   0.996   7.371   7.962 -0.7479 -0.2749 -0.4451
  998MOL0     H37687   1.252   7.302   7.977  1.1261 -1.1019  1.3884
  998MOL0     H37688   1.379   7.008   8.259 -0.1250  0.3897  0.3801
  998MOL0     H37689   1.365   6.933   8.108  0.9311 -0.6933  0.6995
  998MOL0     H37690   1.576   7.078   8.033 -1.0118 -0.1093  0.0574
  998MOL0     H37691   1.584   7.106   8.213 -2.4409  0.2683  1.4038
  998MOL0     H37692   1.592   6.838   8.070 -2.1097 -0.0323  1.0212
  998MOL0     H37693   1.583   6.846   8.236 -2.0851  1.0896 -0.9040
  998MOL0     H37694   1.804   6.957   8.250 -3.7407  1.3032  0.2818
  998MOL0     H37695   1.820   6.953   8.079 -0.0052 -0.3939 -0.4433
  998MOL0     H37696   1.826   6.713   8.250 -1.3544  3.7653  1.9564
  998MOL0     H37697   1.781   6.695   8.082  3.5404 -1.3278 -0.9297
  998MOL0     H37698   2.014   6.783   8.015  1.3160  0.9692  0.3127
  998MOL0     H37699   2.012   6.633   8.111 -1.9777  0.4252  0.2174
  998MOL0     H37700   2.084   6.733   8.306 -1.7020 -2.1170 -0.4115
  998MOL0     H37701   2.059   6.903   8.248 -0.1993 -0.1003  3.5766
  998MOL0     H37702   2.214   6.868   8.078  5.0812  2.3741 -0.0175
  998MOL0     H37703   2.248   6.699   8.132 -1.6287 -0.7258  1.0637
  998MOL0     H37704   1.144   7.015   8.269 -0.1329 -0.2237 -0.4937
  998MOL0     H37705   0.913   7.055   8.232  0.6557 -1.5142 -0.3916
  998MOL0     H37706   0.521   7.062   7.920 -2.3011  0.1048 -0.8898
  998MOL0     H37707   0.303   7.052   7.952  1.2790 -1.7015  1.2021
  998MOL0     H37708   1.432   7.715   7.944 -0.8247  0.5995 -0.8803
  998MOL0     H37709   1.680   7.677   7.978  0.5069 -1.7918  1.4530
  998MOL0     H37710   1.951   7.258   7.794  0.0240 -1.2994  0.2072
  998MOL0     H37711   2.168   7.176   7.745 -1.4904  1.4891 -0.6440
  998MOL0     H37712   2.335   6.967   7.772  0.4749 -0.0972 -2.0762
  998MOL0     H37713   2.379   7.132   7.743 -0.0025  1.4924  2.1263
  998MOL0     H37714   2.574   7.082   7.909 -0.9699  0.9545  1.6037
  998MOL0     H37715   2.593   7.029   7.745  1.4438 -1.4939  0.1062
  998MOL0     H37716   2.518   6.842   7.969 -0.8844 -1.7187 -0.8741
  998MOL0     H37717   2.494   6.799   7.797  0.4763  0.3055  0.0379
  998MOL0     H37718   2.746   6.856   7.766  2.0387  0.4081  0.8965
  998MOL0     H37719   2.708   6.714   7.863 -0.2115  0.4642 -0.9028
  998MOL0     H37720   2.891   6.950   8.153 -4.5117  0.6744  3.4846
  998MOL0     H37721   2.251   7.170   8.160  0.5097  0.0472  0.6770
  998MOL0     H37722   1.987   7.392   8.266  0.8578  0.5447 -0.3140
  998MOL0     H37723   2.049   7.222   8.314  0.0807 -0.2842  0.6433
  998MOL0     H37724   2.151   7.362   8.300  1.0228 -0.4857 -1.7923
  999MOL0     O37725   4.270   9.820   3.281 -0.3996 -0.2719  0.7272
  999MOL0     C37726   4.237   9.751   3.372  0.2466  0.9752 -0.9368
  999MOL0     O37727   4.322   9.715   3.479 -0.1580 -0.5109 -0.2581
  999MOL0     C37728   4.453   9.745   3.452 -1.0872  0.3941 -0.3649
  999MOL0     C37729   4.504   9.861   3.512 -0.3875 -0.4092 -0.1229
  999MOL0     C37730   4.639   9.889   3.499 -0.5021 -0.3896  0.0378
  999MOL0     C37731   4.727   9.818   3.415 -0.3837  0.5482  1.7418
  999MOL0     O37732   4.859   9.861   3.394 -0.3067 -0.6095  0.1766
  999MOL0     C37733   4.933   9.838   3.271 -0.4235  0.4323  0.0256
  999MOL0     C37734   5.074   9.877   3.286 -0.7889 -0.3664  0.6303
  999MOL0     C37735   5.084  10.028   3.311 -1.1478  0.1044  0.1047
  999MOL0     C37736   5.224  10.066   3.362 -0.5550 -0.0210 -0.4131
  999MOL0     C37737   5.323  10.121   3.257 -0.4717 -0.3154 -0.8479
  999MOL0     C37738   5.461  10.152   3.310 -0.1192  0.1205 -0.0220
  999MOL0     C37739   5.565  10.173   3.191 -0.9523  0.0191 -0.2227
  999MOL0     C37740   5.698  10.197   3.247 -0.2319 -0.3242 -0.1727
  999MOL0     N37741   5.743  10.084   3.320 -1.1651 -0.0980 -0.2144
  999MOL0     C37742   5.774   9.961   3.268 -0.8408 -0.3031  0.2037
  999MOL0     C37743   5.810   9.889   3.377  0.9907  0.1474  0.1345
  999MOL0     C37744   5.865   9.751   3.369 -0.6255  0.3197  0.3380
  999MOL0     C37745   5.850   9.677   3.233  0.7466 -0.1148 -0.4434
  999MOL0     C37746   5.906   9.535   3.224 -0.0691  0.2128 -0.3775
  999MOL0     C37747   6.049   9.526   3.240  0.2727  1.2771  0.9003
  999MOL0     O37748   6.113   9.593   3.142  0.2703 -0.0058 -0.0883
  999MOL0     C37749   6.246   9.566   3.155 -0.5289 -0.0988 -0.4256
  999MOL0     C37750   6.318   9.614   3.274  0.3533  0.2403  0.3524
  999MOL0     C37751   6.458   9.610   3.279  0.2808 -0.6346  0.5928
  999MOL0     C37752   6.531   9.661   3.400 -0.0235  0.2923  0.1305
  999MOL0     C37753   6.528   9.547   3.166  0.1868 -0.3518  0.3434
  999MOL0     C37754   6.673   9.558   3.151 -0.1610 -0.1975  0.2481
  999MOL0     O37755   6.715   9.533   3.017  0.0867  0.0540 -0.4367
  999MOL0     C37756   6.848   9.535   2.977  0.6310 -0.0290  0.1614
  999MOL0     C37757   6.925   9.650   2.978 -0.8484  0.7071  0.1203
  999MOL0     C37758   7.060   9.645   2.921 -0.0076  0.2773 -0.4282
  999MOL0     C37759   7.118   9.524   2.890 -0.8616  0.1361  1.1014
  999MOL0     O37760   7.254   9.507   2.863 -0.7378  0.3583  0.0539
  999MOL0     C37761   7.341   9.624   2.823  0.6633  0.3375 -0.0752
  999MOL0     C37762   7.488   9.592   2.821 -0.3151  0.1119 -0.0798
  999MOL0     C37763   7.572   9.718   2.790  0.2019  0.0084  0.3527
  999MOL0     C37764   7.716   9.665   2.790  0.1776  0.0527 -0.4505
  999MOL0     C37765   7.808   9.768   2.732 -0.8236 -1.0649  0.7375
  999MOL0     C37766   7.950   9.709   2.737  0.3018  0.0220  0.2496
  999MOL0     C37767   8.057   9.798   2.679 -0.3036 -0.3546 -0.0011
  999MOL0     C37768   8.188   9.739   2.619  0.8904  0.4643 -0.1165
  999MOL0    Cl37769   8.141   9.670   2.450  0.0571 -0.1025 -0.0520
  999MOL0     C37770   7.031   9.413   2.873 -0.3524  0.1995  0.4112
  999MOL0     C37771   6.905   9.426   2.922 -0.6900 -0.2552  1.1985
  999MOL0     O37772   6.749   9.564   3.249  0.3474  0.4100  0.8089
  999MOL0     C37773   6.448   9.480   3.067 -0.8625  0.0947 -0.7933
  999MOL0     C37774   6.309   9.494   3.059 -0.5797 -0.5413 -0.3612
  999MOL0     N37775   5.812   9.967   3.488 -0.2144  0.2315 -0.5820
  999MOL0     N37776   5.765  10.086   3.455  0.1929  1.2020  0.5492
  999MOL0     C37777   4.676   9.700   3.356  0.9778  1.1990 -0.4033
  999MOL0     C37778   4.540   9.660   3.380 -0.0161  0.8454  1.1208
  999MOL0     C37779   4.094   9.703   3.392  0.5349 -0.3332  0.1536
  999MOL0     C37780   4.062   9.624   3.504 -0.3337 -0.0196  0.2502
  999MOL0     C37781   3.932   9.565   3.522  0.7050  0.4029  1.0240
  999MOL0     C37782   3.839   9.585   3.424 -0.0919  0.2374  0.9442
  999MOL0     O37783   3.705   9.545   3.413  0.1764  0.4456 -0.1687
  999MOL0     C37784   3.669   9.431   3.489 -0.2083  0.5130  0.3971
  999MOL0     C37785   3.566   9.364   3.393  0.2669  0.9973 -0.0723
  999MOL0     C37786   3.507   9.231   3.448 -0.7941  0.5679 -0.6618
  999MOL0     C37787   3.410   9.164   3.362 -0.0492 -0.2559 -0.7907
  999MOL0     C37788   3.361   9.044   3.415  0.4970 -0.4968  0.5948
  999MOL0     C37789   3.307   8.944   3.453  0.1071 -0.5921  0.4590
  999MOL0     C37790   3.869   9.663   3.305  0.0665  1.0825 -1.1676
  999MOL0     C37791   3.987   9.727   3.291 -0.0096 -0.2769 -0.1374
  999MOL0     C37792   3.996   9.816   3.173  0.5563 -1.0237  0.1424
  999MOL0     H37793   4.445   9.919   3.583 -0.3958  1.3544 -1.5089
  999MOL0     H37794   4.694   9.971   3.544  0.6673 -2.0159  1.7259
  999MOL0     H37795   4.874   9.883   3.191 -0.4394  2.3005  1.0288
  999MOL0     H37796   4.934   9.729   3.259  0.0063  0.2751  1.3113
  999MOL0     H37797   5.131   9.829   3.366  1.2546  0.4499 -0.2548
  999MOL0     H37798   5.127   9.853   3.193 -2.2386  2.9489 -1.2234
  999MOL0     H37799   5.068  10.071   3.211  0.7369 -0.0799 -0.3264
  999MOL0     H37800   5.010  10.053   3.387 -2.6779 -1.8765 -0.6603
  999MOL0     H37801   5.225  10.141   3.442  0.5179 -1.8332  1.3674
  999MOL0     H37802   5.263   9.974   3.406  3.3041  1.6922  0.1044
  999MOL0     H37803   5.280  10.213   3.215 -1.2047 -0.4655 -0.4347
  999MOL0     H37804   5.331  10.042   3.182 -2.2957  0.1433 -1.5780
  999MOL0     H37805   5.459  10.239   3.377  2.0960 -0.4405  0.8417
  999MOL0     H37806   5.487  10.059   3.361 -2.2254 -2.2952 -2.9569
  999MOL0     H37807   5.537  10.267   3.141 -0.8093 -0.8291 -1.9712
  999MOL0     H37808   5.568  10.094   3.115 -1.1245 -0.1077 -0.0994
  999MOL0     H37809   5.769  10.242   3.177 -1.6598 -0.9156 -2.0674
  999MOL0     H37810   5.694  10.283   3.315  2.3541  0.2936 -0.6672
  999MOL0     H37811   5.779   9.921   3.167 -0.1157  1.0652 -0.3260
  999MOL0     H37812   5.816   9.686   3.443  0.0331  0.1681  0.6415
  999MOL0     H37813   5.972   9.753   3.388 -0.8560  0.6806  1.7768
  999MOL0     H37814   5.741   9.666   3.231  0.5186  1.5250  0.8129
  999MOL0     H37815   5.887   9.736   3.148 -0.8343  0.6314 -0.6478
  999MOL0     H37816   5.869   9.482   3.313  0.2536 -0.4686 -0.6392
  999MOL0     H37817   5.869   9.490   3.131  2.0749 -1.2830 -0.5825
  999MOL0     H37818   6.083   9.561   3.338  1.3561 -1.5738  1.6515
  999MOL0     H37819   6.076   9.420   3.245 -2.3024  0.6033  2.2608
  999MOL0     H37820   6.280   9.673   3.356  1.1195  0.1779  0.7669
  999MOL0     H37821   6.583   9.757   3.390  2.7406 -0.4129  4.6773
  999MOL0     H37822   6.591   9.579   3.439  0.2011  0.7117  0.6835
  999MOL0     H37823   6.457   9.687   3.476  1.4410 -2.1031  2.5716
  999MOL0     H37824   6.883   9.749   2.998  1.6958  2.4101 -2.2452
  999MOL0     H37825   7.105   9.742   2.906 -0.0678  0.2160 -1.0022
  999MOL0     H37826   7.314   9.666   2.725 -0.9797 -0.4534  0.0132
  999MOL0     H37827   7.341   9.689   2.911  2.3226 -0.3653  0.4892
  999MOL0     H37828   7.529   9.554   2.915 -0.3317 -1.4110 -0.6540
  999MOL0     H37829   7.506   9.514   2.746 -1.8074  1.8868 -2.4354
  999MOL0     H37830   7.547   9.795   2.864  2.3736 -0.6237  1.8472
  999MOL0     H37831   7.537   9.760   2.695 -0.2659 -0.8266  0.1482
  999MOL0     H37832   7.720   9.568   2.739  1.0461 -0.0537 -0.2000
  999MOL0     H37833   7.746   9.648   2.894  0.6189 -0.6811 -0.6892
  999MOL0     H37834   7.784   9.787   2.627  2.8584 -0.5124 -0.1428
  999MOL0     H37835   7.811   9.870   2.769  0.5529  0.7714 -3.7682
  999MOL0     H37836   7.950   9.612   2.686 -3.8635  0.1428 -0.3974
  999MOL0     H37837   7.985   9.694   2.839  2.1047 -0.2049 -0.3624
  999MOL0     H37838   8.094   9.862   2.760 -0.1900  1.3055 -1.3022
  999MOL0     H37839   8.017   9.869   2.606  1.9571  0.8049 -0.2071
  999MOL0     H37840   8.226   9.651   2.673 -0.8229 -1.7020 -2.1940
  999MOL0     H37841   8.272   9.809   2.619  0.9691  0.3835  0.6977
  999MOL0     H37842   7.069   9.321   2.829 -0.8781 -0.1184  0.6153
  999MOL0     H37843   6.856   9.332   2.900 -0.0672 -0.2432 -0.3849
  999MOL0     H37844   6.492   9.428   2.983 -2.2175  0.2229 -1.6160
  999MOL0     H37845   6.250   9.448   2.981 -0.7399  0.2841 -0.7281
  999MOL0     H37846   4.739   9.632   3.300  1.4655  1.0861  0.2794
  999MOL0     H37847   4.501   9.569   3.335 -0.0629  1.0898  0.6578
  999MOL0     H37848   4.138   9.610   3.581  0.4003  0.0834 -0.4463
  999MOL0     H37849   3.906   9.505   3.609  1.2370 -2.2256 -0.5241
  999MOL0     H37850   3.759   9.372   3.510 -1.8180 -1.3002  2.6016
  999MOL0     H37851   3.622   9.446   3.586  0.5971 -1.1350  1.0809
  999MOL0     H37852   3.611   9.350   3.294 -0.9499 -0.2339 -0.4799
  999MOL0     H37853   3.484   9.433   3.372 -0.1142 -0.0442 -2.3311
  999MOL0     H37854   3.583   9.156   3.473 -1.7789 -0.3800 -0.4554
  999MOL0     H37855   3.454   9.260   3.539 -1.0556 -0.8481 -0.3346
  999MOL0     H37856   3.462   9.153   3.266  0.9654 -1.1167 -0.1646
  999MOL0     H37857   3.332   9.239   3.348  0.6677  0.7890  0.5572
  999MOL0     H37858   3.260   8.857   3.496 -0.2773 -1.0694 -0.8770
  999MOL0     H37859   3.780   9.682   3.245  0.1166  2.0823 -0.9531
  999MOL0     H37860   4.055   9.763   3.097  1.2621 -1.4846  1.0041
  999MOL0     H37861   3.893   9.840   3.143  1.1659  0.6056 -0.7987
  999MOL0     H37862   4.039   9.915   3.193  0.7212 -0.8791 -0.8594
 1000MOL0     O37863  11.389   3.423   0.099  0.1497 -0.2509 -0.1077
 1000MOL0     C37864  11.421   3.402  -0.017  0.4045  0.1321  0.8087
 1000MOL0     O37865  11.488   3.493  -0.099  0.3273  0.2114  0.4325
 1000MOL0     C37866  11.561   3.589  -0.036  0.8237  1.1002  0.0895
 1000MOL0     C37867  11.647   3.563   0.070 -1.5685  0.2033  0.0887
 1000MOL0     C37868  11.738   3.656   0.120  0.3516 -0.1944 -0.1733
 1000MOL0     C37869  11.725   3.784   0.074  0.3379 -0.6438 -0.3199
 1000MOL0     O37870  11.816   3.875   0.124 -0.1445  0.1777  0.3340
 1000MOL0     C37871  11.817   4.015   0.098  0.5642  0.7368 -0.7252
 1000MOL0     C37872  11.944   4.086   0.151 -0.1957  0.4141 -0.4096
 1000MOL0     C37873  11.934   4.241   0.136  0.0330  0.6904 -0.7891
 1000MOL0     C37874  11.823   4.315   0.216  0.5945 -0.8492  0.7694
 1000MOL0     C37875  11.817   4.461   0.164  0.7367  0.7989 -0.9629
 1000MOL0     C37876  11.766   4.559   0.271 -0.5075  0.2832  0.2134
 1000MOL0     C37877  11.734   4.694   0.212 -0.3629 -0.0943  0.5874
 1000MOL0     C37878  11.649   4.782   0.296  0.4297  0.3392 -0.0392
 1000MOL0     N37879  11.715   4.832   0.417 -0.0663 -0.4163 -0.2428
 1000MOL0     C37880  11.728   4.752   0.530 -0.1839  0.2446  0.1353
 1000MOL0     C37881  11.755   4.842   0.628  0.2768  0.8148  0.3514
 1000MOL0     C37882  11.760   4.804   0.771 -0.1185  0.2877  0.3383
 1000MOL0     C37883  11.908   4.774   0.807  0.5237  0.2625  0.5926
 1000MOL0     C37884  11.951   4.892   0.895  0.8831  0.0723  0.4414
 1000MOL0     C37885  11.997   5.026   0.820  0.0637 -0.0037  0.4655
 1000MOL0     O37886  12.141   5.006   0.781 -0.4663 -0.4685  0.7164
 1000MOL0     C37887  12.239   4.997   0.870  0.3699 -0.4181 -0.6405
 1000MOL0     C37888  12.232   5.055   0.994 -0.5523  0.8914 -0.6683
 1000MOL0     C37889  12.335   5.035   1.092  0.2163  0.0772  0.0558
 1000MOL0     C37890  12.310   5.101   1.228  1.2808 -0.5472  0.2467
 1000MOL0     C37891  12.444   4.950   1.065 -0.4154 -0.5312  0.4885
 1000MOL0     C37892  12.548   4.905   1.174  0.6790  0.6234  1.0485
 1000MOL0     O37893  12.651   4.830   1.127  0.3673  0.0515  0.5296
 1000MOL0     C37894  12.744   4.784   1.210  0.6974  0.2964  0.2287
 1000MOL0     C37895  12.858   4.860   1.223  0.2403  0.0800  0.5750
 1000MOL0     C37896  12.965   4.803   1.306  1.0941  0.2675 -0.0191
 1000MOL0     C37897  12.955   4.678   1.369  0.8914  0.0398 -0.0175
 1000MOL0     O37898  13.066   4.642   1.441  0.1991 -0.0842  0.4900
 1000MOL0     C37899  13.046   4.531   1.539 -0.5832 -0.1057 -0.1725
 1000MOL0     C37900  13.180   4.470   1.590 -0.6873 -0.3949 -0.1669
 1000MOL0     C37901  13.233   4.370   1.484 -0.3489  0.1173 -0.4267
 1000MOL0     C37902  13.270   4.429   1.354  0.1799  0.2869 -0.3269
 1000MOL0     C37903  13.317   4.314   1.255  0.3404  0.6526 -0.0261
 1000MOL0     C37904  13.450   4.248   1.293 -0.6907 -0.5094  0.0420
 1000MOL0     C37905  13.515   4.182   1.170  0.1743  0.0093  0.3435
 1000MOL0     C37906  13.644   4.114   1.204  0.4869  0.2298  0.1344
 1000MOL0    Cl37907  13.731   4.046   1.062  0.7195  0.2317 -0.2561
 1000MOL0     C37908  12.825   4.612   1.360  0.1057  0.1902 -0.2809
 1000MOL0     C37909  12.726   4.661   1.278  0.3001  0.5834  0.1075
 1000MOL0     O37910  12.540   4.946   1.286 -0.1350  0.7547 -0.6640
 1000MOL0     C37911  12.462   4.910   0.927 -0.5838 -0.3531  0.1696
 1000MOL0     C37912  12.345   4.921   0.838 -0.9595  0.5000 -0.6897
 1000MOL0     N37913  11.740   4.971   0.577 -0.5548  0.8842  0.4247
 1000MOL0     N37914  11.725   4.960   0.454  0.7261 -0.9620  0.3752
 1000MOL0     C37915  11.626   3.815  -0.028 -0.3691 -0.3008  0.1271
 1000MOL0     C37916  11.547   3.716  -0.085  0.0887 -0.0832  0.0735
 1000MOL0     C37917  11.381   3.286  -0.102 -0.3524  0.0890  0.0796
 1000MOL0     C37918  11.477   3.191  -0.142 -0.1201 -0.5281  0.9158
 1000MOL0     C37919  11.433   3.086  -0.221  0.3324  0.7623 -0.2356
 1000MOL0     C37920  11.301   3.055  -0.243 -0.5512 -0.6086  0.3160
 1000MOL0     O37921  11.282   2.942  -0.320  0.7432 -0.3914  0.0663
 1000MOL0     C37922  11.162   2.863  -0.286  0.1788 -0.4387  0.4649
 1000MOL0     C37923  11.071   2.892  -0.407  0.1177  0.5719 -0.3347
 1000MOL0     C37924  11.116   2.806  -0.528 -0.0269  0.4289 -0.7061
 1000MOL0     C37925  11.030   2.857  -0.650  0.0257 -0.6919 -0.9931
 1000MOL0     C37926  11.086   2.790  -0.763  0.2914  0.0370  0.8127
 1000MOL0     C37927  11.141   2.732  -0.852  0.0183 -0.4599 -0.1451
 1000MOL0     C37928  11.214   3.152  -0.197  0.3364  0.0907  0.1574
 1000MOL0     C37929  11.250   3.270  -0.138  0.1237 -0.1589 -0.3489
 1000MOL0     C37930  11.137   3.354  -0.095 -0.4084 -0.6379 -0.5804
 1000MOL0     H37931  11.657   3.464   0.113  1.9452  0.6612  0.6127
 1000MOL0     H37932  11.810   3.626   0.196 -0.3632 -0.9540  0.2143
 1000MOL0     H37933  11.738   4.058   0.161  0.2420 -0.6821 -0.1381
 1000MOL0     H37934  11.797   4.038  -0.008  0.0710  1.8538 -0.4110
 1000MOL0     H37935  11.950   4.069   0.258 -1.3250  1.0023 -0.2295
 1000MOL0     H37936  12.035   4.049   0.102 -1.1438  0.5833 -2.4166
 1000MOL0     H37937  12.031   4.287   0.159 -0.8461  1.3501  2.0050
 1000MOL0     H37938  11.900   4.265   0.034 -0.9817 -1.3834 -0.9953
 1000MOL0     H37939  11.724   4.278   0.186  1.2666 -0.7198 -1.8727
 1000MOL0     H37940  11.844   4.303   0.323  0.5039  0.0057  0.8867
 1000MOL0     H37941  11.755   4.477   0.075 -1.0440  2.4659  0.4864
 1000MOL0     H37942  11.910   4.500   0.121 -0.9562  3.6378 -2.4223
 1000MOL0     H37943  11.682   4.508   0.319 -0.8905 -0.2267 -0.9610
 1000MOL0     H37944  11.851   4.566   0.340  0.9713  0.4360 -1.5457
 1000MOL0     H37945  11.681   4.672   0.120  0.5588 -0.2000  0.0659
 1000MOL0     H37946  11.823   4.748   0.177  0.6311 -1.0257  1.5979
 1000MOL0     H37947  11.609   4.869   0.245 -0.1949  0.9457  1.4224
 1000MOL0     H37948  11.568   4.728   0.346  2.0196  0.8877  3.4271
 1000MOL0     H37949  11.722   4.644   0.524 -0.0410  0.2323  0.2149
 1000MOL0     H37950  11.698   4.718   0.796  3.1452 -1.4198  3.3743
 1000MOL0     H37951  11.719   4.887   0.830 -2.5559 -0.3913 -0.2729
 1000MOL0     H37952  11.912   4.679   0.862 -0.8896  1.6684  3.3305
 1000MOL0     H37953  11.970   4.762   0.718 -0.8487 -1.1485 -0.2335
 1000MOL0     H37954  11.875   4.927   0.966  0.0997  0.2128 -0.4471
 1000MOL0     H37955  12.038   4.865   0.955  2.3293 -0.0332 -1.6002
 1000MOL0     H37956  11.948   5.058   0.728  2.9714  0.3632 -1.0697
 1000MOL0     H37957  11.969   5.112   0.882  0.1625  1.3814 -1.3314
 1000MOL0     H37958  12.143   5.111   1.021 -0.2550  1.8261 -1.5595
 1000MOL0     H37959  12.305   5.024   1.306  0.4695 -0.0427  0.6968
 1000MOL0     H37960  12.210   5.143   1.230  2.4076  2.5558 -1.6419
 1000MOL0     H37961  12.382   5.181   1.247  0.8178  0.0811 -0.5725
 1000MOL0     H37962  12.857   4.954   1.169 -0.8524 -0.4614 -0.3923
 1000MOL0     H37963  13.059   4.857   1.303  1.1134  0.3078  1.0710
 1000MOL0     H37964  12.980   4.557   1.623 -0.4793 -0.7669  0.1165
 1000MOL0     H37965  13.003   4.441   1.494  1.5481 -0.9444 -0.6256
 1000MOL0     H37966  13.256   4.548   1.596 -0.3579 -0.7678  0.7312
 1000MOL0     H37967  13.160   4.428   1.689  1.6670  0.0402  0.5663
 1000MOL0     H37968  13.165   4.285   1.468 -2.0917  1.2531  0.6214
 1000MOL0     H37969  13.321   4.321   1.527 -1.1277 -0.5519  0.4561
 1000MOL0     H37970  13.361   4.487   1.374 -0.4696  1.1549  0.1754
 1000MOL0     H37971  13.194   4.493   1.310  0.5355  1.8272  1.1736
 1000MOL0     H37972  13.239   4.237   1.248  0.2203  0.9026 -2.0525
 1000MOL0     H37973  13.328   4.357   1.155  0.7368  1.1618  0.2365
 1000MOL0     H37974  13.445   4.176   1.375  1.4006 -1.6740 -0.7725
 1000MOL0     H37975  13.519   4.325   1.330 -2.2183  1.6217 -1.2807
 1000MOL0     H37976  13.538   4.263   1.101 -0.3537  2.4561  2.8653
 1000MOL0     H37977  13.449   4.103   1.132 -0.8136  1.0261 -0.1208
 1000MOL0     H37978  13.614   4.026   1.260 -0.4600 -0.2621 -1.0968
 1000MOL0     H37979  13.712   4.175   1.264 -0.2836  0.3996  0.8426
 1000MOL0     H37980  12.809   4.531   1.431  0.5699  1.8639  1.8272
 1000MOL0     H37981  12.634   4.604   1.269  1.2867 -0.9813 -0.3241
 1000MOL0     H37982  12.554   4.857   0.902  0.8084  1.1490  1.8755
 1000MOL0     H37983  12.350   4.875   0.740  0.0382 -1.4782  0.2304
 1000MOL0     H37984  11.611   3.916  -0.064 -3.8785 -0.9086 -0.4864
 1000MOL0     H37985  11.478   3.740  -0.165  2.3310 -0.6726 -2.1778
 1000MOL0     H37986  11.584   3.207  -0.136  0.0314  0.7653 -2.5642
 1000MOL0     H37987  11.508   3.022  -0.268 -0.7417 -0.0040 -0.9421
 1000MOL0     H37988  11.188   2.758  -0.272 -1.0780 -0.4617  3.2127
 1000MOL0     H37989  11.119   2.892  -0.190  0.3647  0.1152  0.3859
 1000MOL0     H37990  11.096   2.994  -0.438 -2.2352  1.2032 -0.3174
 1000MOL0     H37991  10.966   2.870  -0.386  0.6238 -0.8829  0.8528
 1000MOL0     H37992  11.222   2.802  -0.555 -0.3491 -3.9946 -2.0742
 1000MOL0     H37993  11.085   2.707  -0.495  3.8081 -0.4485  0.8317
 1000MOL0     H37994  11.040   2.965  -0.665  0.6807 -0.6632 -0.4043
 1000MOL0     H37995  10.923   2.836  -0.638 -0.0479 -1.0744 -2.1288
 1000MOL0     H37996  11.177   2.698  -0.947  2.1953  0.3138  0.3517
 1000MOL0     H37997  11.107   3.139  -0.215 -0.4592  0.3482  3.9560
 1000MOL0     H37998  11.054   3.288  -0.069  2.5512 -4.6707 -0.3667
 1000MOL0     H37999  11.165   3.423  -0.015 -0.5304 -1.6427  0.3606
 1000MOL0     H38000  11.100   3.424  -0.171  0.6133 -1.0062 -1.4401
 1001MOL0     O38001   2.316   7.621   4.947 -0.3982  0.0842  0.2772
 1001MOL0     C38002   2.252   7.531   5.000 -0.7829  0.5253  0.3603
 1001MOL0     O38003   2.302   7.441   5.089 -0.0478  0.0743  0.4817
 1001MOL0     C38004   2.438   7.424   5.104 -0.2961 -0.4026  0.9583
 1001MOL0     C38005   2.508   7.517   5.187  0.3173  0.2526 -1.0946
 1001MOL0     C38006   2.648   7.502   5.209  0.1845 -0.1362  0.7175
 1001MOL0     C38007   2.719   7.398   5.144 -0.0957  0.3521  0.0271
 1001MOL0     O38008   2.860   7.401   5.169  0.0257  0.1603  0.2300
 1001MOL0     C38009   2.952   7.324   5.083 -0.7021 -0.0467  0.1856
 1001MOL0     C38010   3.082   7.313   5.165 -0.2904  0.2026  0.2271
 1001MOL0     C38011   3.156   7.439   5.190 -0.0254  0.6210 -0.0382
 1001MOL0     C38012   3.289   7.396   5.272  0.0225  0.2631 -0.2498
 1001MOL0     C38013   3.361   7.527   5.312  0.0712 -0.5789 -0.4199
 1001MOL0     C38014   3.431   7.590   5.192 -0.7084  0.6116  0.1940
 1001MOL0     C38015   3.502   7.711   5.238 -0.3378 -0.6846  0.3595
 1001MOL0     C38016   3.622   7.739   5.136 -0.0521 -0.1498 -0.3926
 1001MOL0     N38017   3.683   7.870   5.166 -0.4674 -1.0606  0.2929
 1001MOL0     C38018   3.771   7.892   5.265  0.0820 -0.2507  0.1795
 1001MOL0     C38019   3.824   8.012   5.238  0.6112  0.9309 -0.1536
 1001MOL0     C38020   3.938   8.078   5.311 -0.2034 -0.0587 -0.1657
 1001MOL0     C38021   4.080   8.022   5.300  0.1198  0.1382 -0.7742
 1001MOL0     C38022   4.191   8.090   5.396 -0.6014  0.0003  0.5515
 1001MOL0     C38023   4.209   8.242   5.363  0.1887  0.5388  1.2441
 1001MOL0     O38024   4.288   8.247   5.241  0.7347 -0.1929  0.0701
 1001MOL0     C38025   4.421   8.238   5.239  0.0353 -1.1265 -0.6236
 1001MOL0     C38026   4.495   8.191   5.352  0.6948 -0.0984  0.1026
 1001MOL0     C38027   4.636   8.188   5.350  0.0519 -0.4321 -0.8816
 1001MOL0     C38028   4.705   8.160   5.486  0.5685 -0.1962 -0.1608
 1001MOL0     C38029   4.704   8.216   5.228 -0.2321 -0.2941  0.5253
 1001MOL0     C38030   4.845   8.244   5.223 -0.4787  0.9164 -0.3055
 1001MOL0     O38031   4.891   8.307   5.115 -0.0532  0.2661 -0.5483
 1001MOL0     C38032   5.025   8.351   5.115  0.1515  0.2278 -0.1904
 1001MOL0     C38033   5.118   8.271   5.047 -0.7235 -0.8295 -0.0037
 1001MOL0     C38034   5.245   8.310   5.041 -0.3543 -0.3051  0.5935
 1001MOL0     C38035   5.291   8.431   5.108  0.1288 -0.3671 -0.1685
 1001MOL0     O38036   5.426   8.470   5.103 -0.3408  0.3301  0.1510
 1001MOL0     C38037   5.483   8.583   5.181 -1.2228 -0.9813 -0.1104
 1001MOL0     C38038   5.632   8.588   5.166  0.5134  0.3479 -0.7311
 1001MOL0     C38039   5.665   8.641   5.026  0.6860  0.6306 -0.5710
 1001MOL0     C38040   5.813   8.624   4.978  1.6013  0.1173 -1.2031
 1001MOL0     C38041   5.862   8.477   4.979 -0.7525 -0.3741  0.5456
 1001MOL0     C38042   5.982   8.454   4.879  0.6156  1.3763 -0.2996
 1001MOL0     C38043   6.021   8.301   4.890 -0.6959 -0.3227  0.3266
 1001MOL0     C38044   6.032   8.221   4.762  0.1448 -0.8119 -0.2569
 1001MOL0    Cl38045   5.875   8.196   4.679 -0.3883  0.2960  0.0268
 1001MOL0     C38046   5.195   8.513   5.167  0.4836  0.1138 -0.1574
 1001MOL0     C38047   5.066   8.475   5.167  0.1628 -0.0733 -0.3317
 1001MOL0     O38048   4.918   8.199   5.311  0.2276 -0.0101  0.4027
 1001MOL0     C38049   4.634   8.249   5.107 -0.1741 -0.1288 -0.6345
 1001MOL0     C38050   4.496   8.252   5.120 -0.0923  0.2949 -0.2066
 1001MOL0     N38051   3.765   8.054   5.120 -0.1741 -0.9307 -0.3954
 1001MOL0     N38052   3.672   7.971   5.080  0.4377 -0.5487  0.1191
 1001MOL0     C38053   2.656   7.309   5.068  1.0132  0.3366  0.7316
 1001MOL0     C38054   2.517   7.322   5.041  0.8226  0.2973 -0.6009
 1001MOL0     C38055   2.107   7.549   4.997  0.3671 -0.2910 -0.1732
 1001MOL0     C38056   2.028   7.489   5.099 -0.3292  0.1153 -1.1424
 1001MOL0     C38057   1.889   7.510   5.113 -0.3617 -0.3989  0.4052
 1001MOL0     C38058   1.827   7.593   5.025  0.2714 -0.2495  0.2801
 1001MOL0     O38059   1.701   7.630   5.030  0.3795 -0.6927  0.3360
 1001MOL0     C38060   1.625   7.632   5.158 -0.0457  0.5712  0.3933
 1001MOL0     C38061   1.544   7.493   5.182 -0.2847 -0.4281 -0.5016
 1001MOL0     C38062   1.476   7.491   5.325 -0.1671  0.0197 -0.0984
 1001MOL0     C38063   1.379   7.386   5.335 -0.2133  0.7261  0.1291
 1001MOL0     C38064   1.291   7.411   5.448  0.3393 -0.3542  0.0612
 1001MOL0     C38065   1.216   7.444   5.537 -0.6554 -0.2819 -0.1020
 1001MOL0     C38066   1.896   7.646   4.914 -0.2468  0.3482 -0.5083
 1001MOL0     C38067   2.036   7.624   4.897  0.1508  1.7719  0.1612
 1001MOL0     C38068   2.098   7.681   4.771  0.0734 -0.0694  0.5895
 1001MOL0     H38069   2.456   7.597   5.239  1.8299  0.3582  0.3716
 1001MOL0     H38070   2.705   7.569   5.272  2.1669  0.5794 -1.6676
 1001MOL0     H38071   2.961   7.379   4.989 -0.1433 -1.9868 -0.9598
 1001MOL0     H38072   2.913   7.226   5.053  0.3853 -0.0561 -1.3480
 1001MOL0     H38073   3.064   7.251   5.253  1.8005 -1.3735 -0.3646
 1001MOL0     H38074   3.148   7.241   5.115 -0.0988 -0.1793  1.0006
 1001MOL0     H38075   3.180   7.506   5.107  2.3125  0.9381  0.8346
 1001MOL0     H38076   3.094   7.496   5.260 -1.4096  0.2173 -0.8969
 1001MOL0     H38077   3.267   7.344   5.365  0.9439  0.8570  0.3174
 1001MOL0     H38078   3.353   7.329   5.212 -2.2998  1.0231 -3.8836
 1001MOL0     H38079   3.440   7.506   5.385  1.4674  4.0920 -0.2409
 1001MOL0     H38080   3.298   7.597   5.367  0.7943  0.3688 -0.7544
 1001MOL0     H38081   3.504   7.519   5.154  0.2941  0.4974  2.2075
 1001MOL0     H38082   3.368   7.611   5.105  1.4581 -2.1935 -2.2758
 1001MOL0     H38083   3.542   7.693   5.338  3.3716  0.9313 -0.6824
 1001MOL0     H38084   3.428   7.793   5.240  3.2586  2.8625  0.4544
 1001MOL0     H38085   3.702   7.666   5.153 -1.3778 -2.4317 -3.1442
 1001MOL0     H38086   3.598   7.735   5.029 -1.5820 -2.9715 -0.0495
 1001MOL0     H38087   3.789   7.819   5.344  0.5455  1.6028  1.9018
 1001MOL0     H38088   3.906   8.077   5.415 -0.6197 -2.2066 -0.2695
 1001MOL0     H38089   3.952   8.180   5.274  1.9094 -1.1275 -2.6424
 1001MOL0     H38090   4.087   7.918   5.334  2.1187  0.2949 -0.5664
 1001MOL0     H38091   4.098   8.028   5.193  2.6267 -2.5208 -0.6213
 1001MOL0     H38092   4.159   8.070   5.498 -1.1157 -0.2085  0.3553
 1001MOL0     H38093   4.283   8.035   5.374  0.7679  2.1463  0.6940
 1001MOL0     H38094   4.115   8.299   5.357  1.2070  2.2354  0.4935
 1001MOL0     H38095   4.265   8.302   5.436 -0.3293  2.2595  0.3037
 1001MOL0     H38096   4.455   8.176   5.452  0.7268 -0.1096  0.1138
 1001MOL0     H38097   4.742   8.259   5.514  0.9367 -1.0341  2.6184
 1001MOL0     H38098   4.788   8.089   5.488  0.0572 -0.7880  1.2524
 1001MOL0     H38099   4.630   8.130   5.560  0.7133  0.3937  0.2343
 1001MOL0     H38100   5.095   8.178   4.996  1.3053 -0.6183 -1.4660
 1001MOL0     H38101   5.313   8.241   4.992 -1.8847 -0.7562 -1.0123
 1001MOL0     H38102   5.444   8.681   5.152  0.2497 -0.2091  0.3938
 1001MOL0     H38103   5.458   8.575   5.287  0.1401  1.8456  0.5274
 1001MOL0     H38104   5.656   8.657   5.247  0.6642 -2.0048  1.3343
 1001MOL0     H38105   5.680   8.493   5.189 -1.5227 -0.6914 -0.5279
 1001MOL0     H38106   5.641   8.747   5.023  1.8657  0.9446  0.2684
 1001MOL0     H38107   5.600   8.587   4.957  0.7904  1.3081 -1.2087
 1001MOL0     H38108   5.882   8.687   5.034  1.0436  0.7732 -1.2314
 1001MOL0     H38109   5.823   8.667   4.878 -2.1098  3.0842 -0.5625
 1001MOL0     H38110   5.905   8.452   5.077 -1.5807 -0.5049  0.8865
 1001MOL0     H38111   5.778   8.408   4.966 -1.6194  0.5888  0.9391
 1001MOL0     H38112   6.071   8.507   4.913  2.3433 -2.9903  2.9808
 1001MOL0     H38113   5.950   8.477   4.777 -1.0691  0.2925 -0.0677
 1001MOL0     H38114   5.957   8.241   4.955 -0.7836  0.4572  0.9706
 1001MOL0     H38115   6.120   8.304   4.934  0.0245 -1.3271 -1.1344
 1001MOL0     H38116   6.079   8.125   4.786  1.0978  0.0074  1.3418
 1001MOL0     H38117   6.096   8.278   4.695 -0.1418 -2.9383 -2.4729
 1001MOL0     H38118   5.224   8.611   5.204  0.7366  0.1402 -0.4254
 1001MOL0     H38119   4.994   8.533   5.223  0.7264 -0.3372  0.6868
 1001MOL0     H38120   4.692   8.266   5.017 -0.1198 -1.7640 -0.9367
 1001MOL0     H38121   4.452   8.278   5.025  0.0295 -0.7674 -0.5632
 1001MOL0     H38122   2.701   7.224   5.017  4.6745  2.9942 -0.9666
 1001MOL0     H38123   2.460   7.254   4.979  0.8890 -0.6987  0.4050
 1001MOL0     H38124   2.074   7.422   5.170 -1.8491  1.5088  1.2754
 1001MOL0     H38125   1.846   7.451   5.192  0.7619 -1.0615  0.5486
 1001MOL0     H38126   1.696   7.641   5.241  2.0816  0.2308 -1.2973
 1001MOL0     H38127   1.556   7.715   5.173 -0.7828 -0.3148  2.2712
 1001MOL0     H38128   1.614   7.410   5.172  0.7705  0.3124  0.5008
 1001MOL0     H38129   1.463   7.480   5.109 -0.3091 -3.6300 -0.0557
 1001MOL0     H38130   1.554   7.484   5.401  1.3627 -2.1749 -1.7325
 1001MOL0     H38131   1.432   7.587   5.353 -0.4277 -0.1140 -0.0488
 1001MOL0     H38132   1.432   7.290   5.340  0.7966  1.3334  1.6359
 1001MOL0     H38133   1.320   7.386   5.242  0.0218 -1.9369 -0.1072
 1001MOL0     H38134   1.137   7.456   5.608  0.6643 -0.2821  1.4394
 1001MOL0     H38135   1.846   7.706   4.839 -2.5223  0.1472  0.7590
 1001MOL0     H38136   2.028   7.679   4.688 -0.6662 -0.5340  1.2097
 1001MOL0     H38137   2.133   7.783   4.788  1.6380 -0.3339 -0.7583
 1001MOL0     H38138   2.188   7.626   4.741 -1.0179  0.1540 -3.5907
 1002MOL0     O38139   2.797   9.035   9.362  0.1709  0.2884 -0.2424
 1002MOL0     C38140   2.748   9.145   9.384  0.5693 -0.1367 -0.0762
 1002MOL0     O38141   2.813   9.263   9.365  0.2683 -0.1699 -0.2002
 1002MOL0     C38142   2.932   9.247   9.292 -0.0108 -0.6444  1.1315
 1002MOL0     C38143   3.057   9.199   9.340 -0.4418 -0.6562  0.1249
 1002MOL0     C38144   3.175   9.201   9.266  0.0675  0.6446  0.4247
 1002MOL0     C38145   3.170   9.239   9.131 -0.1608  0.9326  1.3189
 1002MOL0     O38146   3.275   9.223   9.043  0.5116  0.2432 -0.3792
 1002MOL0     C38147   3.345   9.094   9.057  0.5339  0.9868 -0.7983
 1002MOL0     C38148   3.497   9.100   9.116  0.1959 -0.8959  0.1858
 1002MOL0     C38149   3.600   9.162   9.020  0.1156  0.0458 -1.4561
 1002MOL0     C38150   3.738   9.162   9.083  0.3558 -1.0558  0.4703
 1002MOL0     C38151   3.850   9.139   8.984  0.5474  0.2236  0.6247
 1002MOL0     C38152   3.981   9.209   9.023  0.2200  0.2523  0.1258
 1002MOL0     C38153   4.087   9.203   8.918 -0.4140 -0.3663 -0.1674
 1002MOL0     C38154   4.146   9.063   8.912 -0.0062  0.5925  0.1562
 1002MOL0     N38155   4.276   9.066   8.863 -1.0088 -0.0802  0.2132
 1002MOL0     C38156   4.380   9.112   8.948 -0.0830 -0.2954 -0.3869
 1002MOL0     C38157   4.486   9.143   8.867 -0.2448 -0.9279 -0.0483
 1002MOL0     C38158   4.617   9.220   8.908  0.1428 -0.1258  0.0452
 1002MOL0     C38159   4.705   9.274   8.797 -0.0574  0.6801 -0.4936
 1002MOL0     C38160   4.622   9.381   8.716 -1.0510  0.4007  0.1098
 1002MOL0     C38161   4.622   9.356   8.560  0.5352 -0.0581  0.3292
 1002MOL0     O38162   4.581   9.477   8.491 -0.5251 -0.3656  0.4916
 1002MOL0     C38163   4.455   9.473   8.442  0.3418 -0.5280  0.6220
 1002MOL0     C38164   4.348   9.383   8.476  0.7187  0.4420  0.5022
 1002MOL0     C38165   4.211   9.404   8.427 -0.1900 -0.4986  0.6458
 1002MOL0     C38166   4.108   9.313   8.490  0.3827 -0.8067  0.0853
 1002MOL0     C38167   4.178   9.510   8.343  0.8629 -0.7382 -0.1099
 1002MOL0     C38168   4.040   9.546   8.298  0.2053 -0.0234  0.0145
 1002MOL0     O38169   4.025   9.664   8.237  1.1111  0.2594 -0.0930
 1002MOL0     C38170   3.915   9.682   8.163  0.5353 -0.1399 -0.0148
 1002MOL0     C38171   3.926   9.681   8.025  0.9946 -0.5613  0.0807
 1002MOL0     C38172   3.808   9.712   7.944  0.1571 -0.0340  0.1929
 1002MOL0     C38173   3.683   9.732   8.008  0.0479  0.7106 -0.5750
 1002MOL0     O38174   3.574   9.760   7.925  0.3694 -0.7833  0.4575
 1002MOL0     C38175   3.493   9.873   7.956  0.5691  0.0867  0.1300
 1002MOL0     C38176   3.384   9.889   7.860  0.1625  0.9239  0.1671
 1002MOL0     C38177   3.434   9.912   7.713 -0.1656  0.0928  0.5145
 1002MOL0     C38178   3.405  10.059   7.667 -0.6289 -0.2298 -0.3372
 1002MOL0     C38179   3.483  10.094   7.538  0.4146  0.1644  0.0579
 1002MOL0     C38180   3.436  10.230   7.486 -0.6678 -0.5374 -0.0188
 1002MOL0     C38181   3.516  10.249   7.352 -0.0221 -0.0082 -0.5983
 1002MOL0     C38182   3.600  10.381   7.355 -0.2842  0.6921 -0.1918
 1002MOL0    Cl38183   3.686  10.378   7.196 -0.0356  0.1654 -0.0063
 1002MOL0     C38184   3.678   9.726   8.146  0.8711 -0.1500  0.2634
 1002MOL0     C38185   3.792   9.702   8.218  0.4615 -0.4002  0.6752
 1002MOL0     O38186   3.953   9.458   8.293 -0.8148  0.2525  0.0026
 1002MOL0     C38187   4.286   9.596   8.306 -0.0194  0.1642  0.3138
 1002MOL0     C38188   4.419   9.585   8.357  0.1270  0.3550  0.6430
 1002MOL0     N38189   4.456   9.102   8.737 -0.1127 -0.2036 -0.5254
 1002MOL0     N38190   4.328   9.058   8.730  0.2541 -0.5397 -0.2097
 1002MOL0     C38191   3.044   9.278   9.078 -0.1246  0.3823  0.0928
 1002MOL0     C38192   2.928   9.287   9.158 -0.0391 -0.2855  0.7930
 1002MOL0     C38193   2.598   9.170   9.404  0.4683 -0.2457  0.1268
 1002MOL0     C38194   2.542   9.293   9.354 -0.8722 -0.8249  0.5379
 1002MOL0     C38195   2.411   9.316   9.370  0.0084  0.0401  0.1771
 1002MOL0     C38196   2.322   9.228   9.436  0.8541 -0.8078  0.0020
 1002MOL0     O38197   2.191   9.259   9.458 -0.4599 -0.0490 -0.6032
 1002MOL0     C38198   2.134   9.382   9.418  0.3876 -0.3872 -0.1930
 1002MOL0     C38199   2.176   9.505   9.505  0.4816  0.0262 -0.5856
 1002MOL0     C38200   2.105   9.626   9.450 -0.2413  0.1305  0.6573
 1002MOL0     C38201   2.149   9.759   9.513  0.0072 -0.4675  0.7325
 1002MOL0     C38202   2.037   9.854   9.501  0.0866  0.3262  0.0112
 1002MOL0     C38203   1.943   9.920   9.476  0.6111 -0.7113 -1.3202
 1002MOL0     C38204   2.381   9.115   9.484 -1.1046 -0.0494 -0.6773
 1002MOL0     C38205   2.513   9.088   9.477  0.1758  0.6104  0.2081
 1002MOL0     C38206   2.564   8.970   9.553  0.3454 -0.0619 -0.3705
 1002MOL0     H38207   3.071   9.161   9.440  1.3723 -1.5974 -0.4499
 1002MOL0     H38208   3.271   9.169   9.305 -0.1725 -0.2890  0.2751
 1002MOL0     H38209   3.354   9.048   8.958 -3.8027  1.5610 -1.6405
 1002MOL0     H38210   3.294   9.012   9.108  1.7348 -0.7546 -2.2914
 1002MOL0     H38211   3.483   9.152   9.211 -0.5026  0.3189 -0.5586
 1002MOL0     H38212   3.528   8.996   9.129 -0.0274 -1.5911 -3.6643
 1002MOL0     H38213   3.601   9.085   8.942  0.8493 -2.7159  1.1146
 1002MOL0     H38214   3.571   9.260   8.980 -0.0253  0.6071 -0.0158
 1002MOL0     H38215   3.759   9.261   9.126  2.0563 -1.8688  1.6298
 1002MOL0     H38216   3.747   9.084   9.159 -1.0328 -1.7964 -0.0969
 1002MOL0     H38217   3.823   9.177   8.886  1.5767  1.1857  0.6902
 1002MOL0     H38218   3.851   9.030   8.981 -0.6523  0.2025  0.5549
 1002MOL0     H38219   3.962   9.314   9.047  0.7483  0.4064 -0.1080
 1002MOL0     H38220   4.023   9.165   9.114 -0.4155  0.4602  0.5273
 1002MOL0     H38221   4.166   9.277   8.936  1.7942 -1.9685 -2.5540
 1002MOL0     H38222   4.043   9.225   8.820  0.9536 -1.5459 -1.0712
 1002MOL0     H38223   4.133   9.007   9.005  0.9528  1.8913  1.0929
 1002MOL0     H38224   4.086   9.017   8.832 -0.1460  1.4632 -0.2472
 1002MOL0     H38225   4.365   9.147   9.050 -1.7405  1.2652 -1.1066
 1002MOL0     H38226   4.666   9.169   8.991 -0.0659 -1.1548 -0.4465
 1002MOL0     H38227   4.574   9.311   8.951 -0.9977 -0.8895  0.5810
 1002MOL0     H38228   4.777   9.330   8.857 -0.9269  0.9445  0.3251
 1002MOL0     H38229   4.756   9.203   8.731  0.7674  3.8049 -3.5003
 1002MOL0     H38230   4.518   9.370   8.746 -1.1473 -2.0764 -0.8802
 1002MOL0     H38231   4.668   9.479   8.734  1.6148 -0.6809 -0.3026
 1002MOL0     H38232   4.724   9.344   8.521  1.6606  3.4241  1.8292
 1002MOL0     H38233   4.566   9.264   8.537 -0.2476  0.5418 -0.2294
 1002MOL0     H38234   4.363   9.292   8.533  0.6243 -0.6937 -1.2083
 1002MOL0     H38235   4.062   9.256   8.409  0.0217  0.7277 -0.8285
 1002MOL0     H38236   4.028   9.373   8.533  0.5750  0.4460 -1.2165
 1002MOL0     H38237   4.151   9.244   8.564  0.7091 -2.5920 -1.6757
 1002MOL0     H38238   4.023   9.670   7.978  1.2601  0.1592  0.4403
 1002MOL0     H38239   3.815   9.719   7.836  1.8734 -0.4258  0.2404
 1002MOL0     H38240   3.453   9.879   8.058  2.0671 -1.4014  0.8592
 1002MOL0     H38241   3.557   9.961   7.943  1.2971 -0.6654 -1.7274
 1002MOL0     H38242   3.320   9.800   7.852 -1.0424  1.7779 -0.0575
 1002MOL0     H38243   3.315   9.965   7.899 -1.8276 -0.8400  0.2987
 1002MOL0     H38244   3.377   9.841   7.652  1.2680  0.4292 -1.3206
 1002MOL0     H38245   3.540   9.889   7.706 -0.1738 -0.3695  1.7666
 1002MOL0     H38246   3.445  10.129   7.741  1.6394 -1.2674 -0.4751
 1002MOL0     H38247   3.297  10.070   7.657 -0.7237  1.2228  1.8219
 1002MOL0     H38248   3.588  10.106   7.566 -0.0360  3.6083  0.7423
 1002MOL0     H38249   3.466  10.010   7.471 -2.9927 -2.0899  3.3490
 1002MOL0     H38250   3.470  10.307   7.556  3.5966 -1.1773 -1.1469
 1002MOL0     H38251   3.330  10.239   7.459 -0.6792  1.4977  0.5124
 1002MOL0     H38252   3.446  10.253   7.268  1.1411  1.4292 -1.5665
 1002MOL0     H38253   3.582  10.163   7.335  1.0153  0.6310  0.0800
 1002MOL0     H38254   3.673  10.382   7.436 -1.1721  0.8197  0.6182
 1002MOL0     H38255   3.537  10.470   7.363 -0.1976  0.7044  0.3346
 1002MOL0     H38256   3.588   9.732   8.206 -0.1400  0.2125 -1.2358
 1002MOL0     H38257   3.779   9.698   8.326  0.4181 -0.2280  0.6760
 1002MOL0     H38258   4.265   9.678   8.238  2.9592 -0.1805 -1.1960
 1002MOL0     H38259   4.500   9.654   8.337  0.9857 -0.4893  1.1458
 1002MOL0     H38260   3.032   9.302   8.973 -2.0279  1.5864  0.5217
 1002MOL0     H38261   2.832   9.327   9.129  1.1316  1.9379 -0.3408
 1002MOL0     H38262   2.599   9.368   9.301  0.8085  0.4714  3.8836
 1002MOL0     H38263   2.379   9.406   9.319  1.5947  1.0033  0.8101
 1002MOL0     H38264   2.168   9.414   9.319  0.8276  1.7957  0.5981
 1002MOL0     H38265   2.025   9.374   9.415  0.1430  0.9073  2.2186
 1002MOL0     H38266   2.285   9.520   9.506  0.6923 -1.2065 -1.7680
 1002MOL0     H38267   2.148   9.499   9.610  1.9896  2.3210  0.0291
 1002MOL0     H38268   2.145   9.636   9.348 -0.3958  0.4483  0.6277
 1002MOL0     H38269   1.995   9.624   9.444 -0.4715  4.2885 -0.1879
 1002MOL0     H38270   2.237   9.794   9.459 -0.2891  1.3978  1.3865
 1002MOL0     H38271   2.172   9.739   9.617  0.0056 -2.2344  0.4185
 1002MOL0     H38272   1.863   9.992   9.475  0.9305 -0.3276 -0.3565
 1002MOL0     H38273   2.328   9.035   9.536 -0.2537  1.8106  3.5009
 1002MOL0     H38274   2.498   8.920   9.624 -0.6705  1.7638  0.0232
 1002MOL0     H38275   2.603   8.892   9.487  1.2957  1.7193 -2.0060
 1002MOL0     H38276   2.649   9.000   9.614 -0.0214 -2.0068  1.1932
 1003MOL0     O38277   3.387   4.601   1.875 -0.1005  1.3941 -0.0249
 1003MOL0     C38278   3.369   4.490   1.928 -1.2134 -0.9370  0.0518
 1003MOL0     O38279   3.471   4.409   1.965 -0.6796  0.2164  0.6556
 1003MOL0     C38280   3.602   4.442   1.939 -0.3511  0.8436  0.4927
 1003MOL0     C38281   3.650   4.445   1.811  0.0682 -0.8326 -0.1472
 1003MOL0     C38282   3.784   4.483   1.787 -0.9392  0.1024 -1.0053
 1003MOL0     C38283   3.867   4.508   1.897 -0.0114  0.1308 -1.0504
 1003MOL0     O38284   4.005   4.535   1.883  0.2664 -0.3725  0.1331
 1003MOL0     C38285   4.063   4.579   1.756  0.5665 -0.5626 -0.5308
 1003MOL0     C38286   4.201   4.613   1.802 -0.7984 -0.2692 -0.0075
 1003MOL0     C38287   4.279   4.686   1.694 -1.0365  0.4762 -0.5247
 1003MOL0     C38288   4.312   4.602   1.572 -0.7704  0.2571  0.1668
 1003MOL0     C38289   4.400   4.678   1.475  0.2096 -0.2482  0.2387
 1003MOL0     C38290   4.557   4.694   1.511  0.1264 -0.9731  1.1433
 1003MOL0     C38291   4.652   4.723   1.391  0.7892 -0.6019  0.1646
 1003MOL0     C38292   4.616   4.850   1.313  0.9594 -0.8005 -0.4541
 1003MOL0     N38293   4.503   4.848   1.219 -0.0144 -0.3523 -0.6288
 1003MOL0     C38294   4.481   4.760   1.111 -0.7042 -0.3824 -0.4575
 1003MOL0     C38295   4.398   4.830   1.031  0.5602 -0.1713  0.0634
 1003MOL0     C38296   4.346   4.776   0.898 -0.2036 -0.3786 -0.1882
 1003MOL0     C38297   4.196   4.756   0.905 -0.1421  0.6428 -0.4338
 1003MOL0     C38298   4.153   4.698   0.775  0.1771 -0.0679 -0.6680
 1003MOL0     C38299   4.003   4.669   0.775  0.5415 -0.4695  0.5765
 1003MOL0     O38300   3.968   4.550   0.848  0.5712  0.9898 -0.7071
 1003MOL0     C38301   3.835   4.518   0.859 -0.0149  0.5618 -0.0961
 1003MOL0     C38302   3.746   4.526   0.756 -0.1118 -0.1001  0.2472
 1003MOL0     C38303   3.608   4.481   0.763  0.0803  0.8930 -0.4240
 1003MOL0     C38304   3.511   4.526   0.650 -0.1767  0.4385  0.3182
 1003MOL0     C38305   3.571   4.408   0.877  1.0460 -0.0480  0.1718
 1003MOL0     C38306   3.433   4.337   0.890 -0.1250 -0.1050 -0.1616
 1003MOL0     O38307   3.407   4.282   1.019  0.0066 -0.5111  0.5550
 1003MOL0     C38308   3.277   4.236   1.041  0.3275  0.1535 -0.6923
 1003MOL0     C38309   3.249   4.118   1.113 -1.0601  0.0023  0.1990
 1003MOL0     C38310   3.119   4.075   1.139  0.2526  0.0528  0.1802
 1003MOL0     C38311   3.018   4.169   1.098 -0.4839  0.8007  0.2023
 1003MOL0     O38312   2.890   4.128   1.117  0.4635 -0.7477  0.4747
 1003MOL0     C38313   2.790   4.197   1.035 -0.1726  0.5071  0.4331
 1003MOL0     C38314   2.650   4.143   1.055 -0.1049 -0.0154 -0.2680
 1003MOL0     C38315   2.632   3.998   0.998 -0.4227 -0.2020  0.4525
 1003MOL0     C38316   2.635   4.006   0.849  0.0635  0.0975 -0.6041
 1003MOL0     C38317   2.658   3.874   0.782  1.5128 -0.0634  0.1055
 1003MOL0     C38318   2.526   3.782   0.775  0.2605  0.0908  0.0060
 1003MOL0     C38319   2.544   3.652   0.699 -0.4791  0.2003  0.8487
 1003MOL0     C38320   2.591   3.656   0.552 -0.3301 -1.0530  0.2441
 1003MOL0    Cl38321   2.575   3.491   0.479  0.0180  0.1984 -0.0283
 1003MOL0     C38322   3.045   4.296   1.045  0.4678  0.9041  0.3843
 1003MOL0     C38323   3.171   4.324   1.007 -0.4600 -0.2210  0.5213
 1003MOL0     O38324   3.366   4.321   0.792 -0.5440 -0.2115  0.9462
 1003MOL0     C38325   3.662   4.393   0.983  0.2553  0.2131 -0.5119
 1003MOL0     C38326   3.788   4.451   0.973  0.8277 -0.0621 -0.6290
 1003MOL0     N38327   4.358   4.945   1.096  0.6010  0.3845 -0.5083
 1003MOL0     N38328   4.418   4.957   1.210 -0.0468  0.1136  0.8989
 1003MOL0     C38329   3.827   4.494   2.031 -0.1335  0.5694  0.9971
 1003MOL0     C38330   3.691   4.462   2.048 -0.4390  0.1941 -0.6102
 1003MOL0     C38331   3.232   4.442   1.954 -0.0764  1.0450 -0.0526
 1003MOL0     C38332   3.124   4.493   1.871  0.5032 -0.1076 -0.4357
 1003MOL0     C38333   2.992   4.452   1.886 -0.2697  0.7435 -0.4826
 1003MOL0     C38334   2.962   4.355   1.979  0.1603  0.2088 -0.0889
 1003MOL0     O38335   2.832   4.303   2.005  0.7917 -0.3443  0.0117
 1003MOL0     C38336   2.721   4.354   1.927 -0.0603  0.5258  1.1289
 1003MOL0     C38337   2.598   4.277   1.947 -0.0888 -0.2973  0.4552
 1003MOL0     C38338   2.571   4.247   2.097  0.4633 -0.0845  0.2630
 1003MOL0     C38339   2.428   4.182   2.110 -0.1311  0.7705 -0.7513
 1003MOL0     C38340   2.414   4.105   2.241 -0.0569 -0.0805 -0.3114
 1003MOL0     C38341   2.395   4.066   2.354  0.3440  0.4813 -0.2501
 1003MOL0     C38342   3.064   4.311   2.065 -0.1158 -0.3794 -0.2414
 1003MOL0     C38343   3.194   4.354   2.062  0.0419 -1.0596  0.5393
 1003MOL0     C38344   3.286   4.312   2.174  0.6686 -0.3755  0.9306
 1003MOL0     H38345   3.568   4.419   1.745 -2.9034 -1.3660  3.3864
 1003MOL0     H38346   3.811   4.494   1.683 -1.1193  3.1046 -0.8375
 1003MOL0     H38347   4.018   4.674   1.728  2.2784 -0.0263 -1.6924
 1003MOL0     H38348   4.042   4.502   1.680  1.3480 -1.1837 -0.1368
 1003MOL0     H38349   4.198   4.671   1.895 -0.2606 -0.6985  0.2877
 1003MOL0     H38350   4.262   4.526   1.831 -0.7545 -0.4948 -0.7728
 1003MOL0     H38351   4.210   4.768   1.672 -1.3765  0.0644 -1.0187
 1003MOL0     H38352   4.373   4.720   1.739  1.0608 -3.8235 -1.1327
 1003MOL0     H38353   4.360   4.510   1.607  1.7040  1.9477  1.5047
 1003MOL0     H38354   4.221   4.584   1.514  0.5182 -0.0330 -1.8761
 1003MOL0     H38355   4.361   4.780   1.463  1.7962  0.1997 -1.4397
 1003MOL0     H38356   4.386   4.628   1.379  2.9382  5.2658 -3.5251
 1003MOL0     H38357   4.566   4.778   1.581 -1.4506  1.7619 -1.6986
 1003MOL0     H38358   4.604   4.600   1.543  0.2715 -1.8837 -1.5226
 1003MOL0     H38359   4.640   4.640   1.321 -2.6099  0.3025 -0.4926
 1003MOL0     H38360   4.756   4.722   1.427  0.1048 -3.1925  2.2918
 1003MOL0     H38361   4.602   4.940   1.374 -0.3915  0.5047 -2.5726
 1003MOL0     H38362   4.705   4.871   1.254  2.3262  0.5076  1.8971
 1003MOL0     H38363   4.543   4.679   1.076  0.0792 -0.6340  1.4151
 1003MOL0     H38364   4.415   4.704   0.853 -0.6151  0.6558 -2.6451
 1003MOL0     H38365   4.346   4.853   0.820 -2.1644 -0.7737 -0.6218
 1003MOL0     H38366   4.159   4.700   0.991 -2.0117  1.8859 -0.3708
 1003MOL0     H38367   4.157   4.856   0.927  0.0201  0.9883 -1.6719
 1003MOL0     H38368   4.186   4.771   0.700 -1.8468  2.2420  0.5494
 1003MOL0     H38369   4.196   4.600   0.752 -0.6182 -0.3893 -0.7889
 1003MOL0     H38370   3.956   4.758   0.818 -3.1489 -2.5262  1.1927
 1003MOL0     H38371   3.964   4.668   0.673  0.7790 -1.2796  0.4875
 1003MOL0     H38372   3.779   4.561   0.658 -0.5846 -0.8673 -0.1897
 1003MOL0     H38373   3.420   4.558   0.699 -0.0648  0.0523  0.7886
 1003MOL0     H38374   3.482   4.442   0.585  2.9284 -0.5744  0.0185
 1003MOL0     H38375   3.558   4.601   0.586  2.0461  0.6255  2.0584
 1003MOL0     H38376   3.331   4.052   1.137 -0.2318  0.4830 -1.1933
 1003MOL0     H38377   3.105   3.974   1.174 -2.2681 -0.2838 -1.5360
 1003MOL0     H38378   2.788   4.301   1.069  3.4748  1.0169 -0.5864
 1003MOL0     H38379   2.823   4.203   0.931  1.8131  1.9849  1.1025
 1003MOL0     H38380   2.625   4.135   1.161 -3.8131 -1.3462 -1.0978
 1003MOL0     H38381   2.578   4.214   1.015  1.9284  0.9835 -2.3954
 1003MOL0     H38382   2.539   3.947   1.026  0.7773 -1.8021  1.7176
 1003MOL0     H38383   2.715   3.943   1.043  1.2144 -0.2316 -2.3690
 1003MOL0     H38384   2.713   4.077   0.821  0.8341 -0.8780 -0.9774
 1003MOL0     H38385   2.531   4.029   0.822 -0.6268 -0.5920  1.3011
 1003MOL0     H38386   2.711   3.893   0.689 -1.4717  1.3171 -1.4446
 1003MOL0     H38387   2.729   3.812   0.838 -0.7007 -0.5862  2.5420
 1003MOL0     H38388   2.441   3.836   0.733 -0.5055 -0.0782  1.2628
 1003MOL0     H38389   2.504   3.760   0.880  2.1619 -1.3061  0.1533
 1003MOL0     H38390   2.446   3.604   0.709 -1.5379  2.5300  2.6208
 1003MOL0     H38391   2.605   3.579   0.753  0.1597  1.8365  2.4470
 1003MOL0     H38392   2.692   3.697   0.542 -0.4689 -0.9003 -0.5844
 1003MOL0     H38393   2.525   3.725   0.500  1.7685 -0.2799 -1.5424
 1003MOL0     H38394   2.968   4.372   1.036 -1.5348 -1.0677  0.0921
 1003MOL0     H38395   3.207   4.421   0.976  0.3761  0.1164  2.4210
 1003MOL0     H38396   3.628   4.344   1.073 -0.2933  0.6506 -0.4725
 1003MOL0     H38397   3.854   4.429   1.056  0.1214  0.6706  0.1516
 1003MOL0     H38398   3.899   4.515   2.110  0.9339  1.3224 -0.1362
 1003MOL0     H38399   3.645   4.453   2.146  1.0035 -1.9032 -0.0478
 1003MOL0     H38400   3.140   4.573   1.800 -4.4664  1.6732  0.1102
 1003MOL0     H38401   2.910   4.499   1.832 -1.2301  1.9366  1.8853
 1003MOL0     H38402   2.713   4.459   1.955  0.8574  1.3094 -1.3786
 1003MOL0     H38403   2.744   4.351   1.821  0.5331 -0.8106  1.2721
 1003MOL0     H38404   2.613   4.188   1.886 -2.7850  0.5065 -1.5676
 1003MOL0     H38405   2.517   4.326   1.892  0.0460 -0.0132  0.5049
 1003MOL0     H38406   2.645   4.185   2.148  0.1123 -2.1487 -1.5964
 1003MOL0     H38407   2.584   4.341   2.152 -2.3222  0.6078 -0.1511
 1003MOL0     H38408   2.422   4.109   2.029  4.8995 -3.4295  2.0851
 1003MOL0     H38409   2.347   4.255   2.122 -0.0857  0.4377  2.1972
 1003MOL0     H38410   2.389   4.022   2.452 -1.8486 -0.9874 -0.9793
 1003MOL0     H38411   3.045   4.234   2.139  4.1606 -1.7305 -0.2684
 1003MOL0     H38412   3.329   4.216   2.144 -0.0283 -1.0245  1.9280
 1003MOL0     H38413   3.365   4.385   2.197  2.7647 -1.2951 -2.5993
 1003MOL0     H38414   3.232   4.279   2.263  0.7405 -1.9158  0.4178
 1004MOL0     O38415   2.082   3.360   5.959 -0.2076 -0.0092 -0.7439
 1004MOL0     C38416   2.046   3.394   6.078 -0.4583 -0.1249  0.5528
 1004MOL0     O38417   2.134   3.425   6.179  0.3674  0.0866 -0.3968
 1004MOL0     C38418   2.266   3.420   6.138  0.3482  0.4349  0.9061
 1004MOL0     C38419   2.329   3.295   6.121  0.4153 -0.0119 -0.2497
 1004MOL0     C38420   2.461   3.286   6.074 -0.5759  0.0254  0.6686
 1004MOL0     C38421   2.539   3.399   6.057  0.0445 -0.0717 -0.2441
 1004MOL0     O38422   2.669   3.392   6.003 -0.2243  0.2916  1.1223
 1004MOL0     C38423   2.765   3.484   6.043  0.0491 -0.0378  0.3917
 1004MOL0     C38424   2.807   3.470   6.194  0.1144  1.1823 -0.3460
 1004MOL0     C38425   2.856   3.324   6.223 -0.2135 -0.1153 -0.3795
 1004MOL0     C38426   2.844   3.281   6.375  0.2132  0.3565 -0.6044
 1004MOL0     C38427   2.883   3.135   6.404 -0.1125 -0.1650  0.5188
 1004MOL0     C38428   2.879   3.101   6.548 -0.1542 -0.3050 -0.1219
 1004MOL0     C38429   2.745   3.109   6.617 -0.2459  0.1277 -0.7913
 1004MOL0     C38430   2.761   3.102   6.769 -0.5577 -0.2557  0.4725
 1004MOL0     N38431   2.798   2.969   6.819 -0.0208  0.2786 -0.0103
 1004MOL0     C38432   2.733   2.849   6.821 -0.8761 -0.2497  0.0108
 1004MOL0     C38433   2.806   2.773   6.903  0.8031  0.0044  0.0884
 1004MOL0     C38434   2.754   2.640   6.957 -0.2294  0.3745  0.3684
 1004MOL0     C38435   2.643   2.666   7.055 -0.0938 -0.2080 -0.6610
 1004MOL0     C38436   2.530   2.560   7.069  0.6129  0.1506  0.3745
 1004MOL0     C38437   2.579   2.429   7.130 -0.0285 -0.3811  0.5232
 1004MOL0     O38438   2.466   2.341   7.156  0.0105  0.4010  0.6198
 1004MOL0     C38439   2.502   2.209   7.178  0.5269  0.1113  0.1060
 1004MOL0     C38440   2.625   2.162   7.233 -0.7158 -1.0088  0.4642
 1004MOL0     C38441   2.649   2.027   7.252 -0.3052  0.8149 -0.0854
 1004MOL0     C38442   2.786   1.992   7.294  0.1144 -0.9804 -0.6182
 1004MOL0     C38443   2.552   1.922   7.229  0.2377 -0.8302  0.4090
 1004MOL0     C38444   2.569   1.780   7.262  0.3896 -0.4421 -0.2931
 1004MOL0     O38445   2.456   1.707   7.229  0.3770 -0.4517  0.5855
 1004MOL0     C38446   2.430   1.580   7.276  0.4348 -0.0994 -0.3618
 1004MOL0     C38447   2.310   1.524   7.216  0.3346 -0.3363 -0.4342
 1004MOL0     C38448   2.285   1.390   7.245 -0.7548  0.2467  1.8700
 1004MOL0     C38449   2.354   1.313   7.334 -0.3364  0.3856  0.6516
 1004MOL0     O38450   2.315   1.188   7.347  0.6621 -0.4967  0.5715
 1004MOL0     C38451   2.395   1.101   7.404  0.2597  0.0227  0.3693
 1004MOL0     C38452   2.346   0.957   7.397 -0.1532 -0.0957 -0.0561
 1004MOL0     C38453   2.461   0.874   7.459  0.3198 -0.1602  0.7933
 1004MOL0     C38454   2.432   0.722   7.456  0.1548 -1.0697  0.0445
 1004MOL0     C38455   2.405   0.666   7.314 -0.3871 -0.4911  0.6395
 1004MOL0     C38456   2.326   0.536   7.327  0.2784 -0.0445 -0.2810
 1004MOL0     C38457   2.315   0.460   7.201 -0.0809 -0.2282 -0.4720
 1004MOL0     C38458   2.239   0.326   7.218 -0.4013 -0.1505  0.6311
 1004MOL0    Cl38459   2.330   0.211   7.318  0.0877  0.4185 -0.2803
 1004MOL0     C38460   2.468   1.370   7.399  0.2079  1.3074  0.5878
 1004MOL0     C38461   2.507   1.498   7.371 -0.2140 -0.3620  0.2661
 1004MOL0     O38462   2.655   1.747   7.342 -0.2298 -0.3988 -0.1464
 1004MOL0     C38463   2.424   1.970   7.185 -0.5599  0.1741  0.3640
 1004MOL0     C38464   2.403   2.108   7.155 -0.5408  0.3189  0.6097
 1004MOL0     N38465   2.923   2.831   6.936  0.2932  0.1931 -0.2626
 1004MOL0     N38466   2.909   2.952   6.882 -0.7116 -1.2899 -0.9005
 1004MOL0     C38467   2.475   3.526   6.080 -0.0164  0.7152 -0.2692
 1004MOL0     C38468   2.341   3.533   6.123 -0.2623 -0.3731  0.9580
 1004MOL0     C38469   1.904   3.374   6.122 -0.2734  1.1602  0.5026
 1004MOL0     C38470   1.853   3.441   6.240 -0.8535  0.2239  0.0970
 1004MOL0     C38471   1.722   3.416   6.284  0.4953  0.4618  0.4235
 1004MOL0     C38472   1.638   3.316   6.232  0.4538 -1.1191  0.4531
 1004MOL0     O38473   1.506   3.292   6.287 -0.2979 -0.1963 -0.2734
 1004MOL0     C38474   1.467   3.156   6.267  0.2720 -0.0420 -0.4070
 1004MOL0     C38475   1.373   3.156   6.149  0.8551  0.6260  1.1159
 1004MOL0     C38476   1.323   3.014   6.110  0.1578 -0.1808 -0.5489
 1004MOL0     C38477   1.231   2.954   6.219 -0.0075 -0.1543  0.2823
 1004MOL0     C38478   1.100   3.015   6.202 -0.1646 -0.4357 -0.0118
 1004MOL0     C38479   0.991   3.064   6.184  0.1046  0.1745  0.2083
 1004MOL0     C38480   1.691   3.253   6.112 -0.3072 -0.1333  0.3772
 1004MOL0     C38481   1.818   3.279   6.058 -0.6694  0.4906  0.3372
 1004MOL0     C38482   1.856   3.204   5.937 -0.4892 -0.8614 -0.0656
 1004MOL0     H38483   2.263   3.209   6.124  2.4179 -1.6574 -1.2336
 1004MOL0     H38484   2.505   3.189   6.052 -0.8641  0.0672 -0.1238
 1004MOL0     H38485   2.736   3.588   6.030  3.5112  1.1820  1.3536
 1004MOL0     H38486   2.851   3.477   5.976  1.4427 -1.7197  2.2122
 1004MOL0     H38487   2.885   3.542   6.218 -0.3571  0.8928  2.3631
 1004MOL0     H38488   2.723   3.490   6.261 -0.8203 -1.3675 -0.6337
 1004MOL0     H38489   2.795   3.258   6.161 -2.8642  1.2547  0.6024
 1004MOL0     H38490   2.963   3.311   6.204  0.2886  1.0633  1.3641
 1004MOL0     H38491   2.914   3.349   6.424  1.0305  0.9001 -2.4632
 1004MOL0     H38492   2.743   3.296   6.413  0.8253  0.6757  0.9691
 1004MOL0     H38493   2.987   3.120   6.373  0.0485  0.5332  0.7062
 1004MOL0     H38494   2.821   3.063   6.349  0.4276  0.1446 -0.5355
 1004MOL0     H38495   2.926   3.003   6.556  1.1310  0.0114 -2.5967
 1004MOL0     H38496   2.944   3.173   6.598  2.1238 -2.0567 -0.3836
 1004MOL0     H38497   2.679   3.026   6.588  0.4917 -0.6925 -0.1879
 1004MOL0     H38498   2.695   3.203   6.592  0.0428  0.4140 -0.3203
 1004MOL0     H38499   2.824   3.181   6.810  2.0840 -2.7531  1.5525
 1004MOL0     H38500   2.661   3.132   6.804  0.3844  3.1213  0.6400
 1004MOL0     H38501   2.641   2.826   6.769 -0.2244 -2.2868 -0.3132
 1004MOL0     H38502   2.830   2.579   7.008 -0.7467  0.2828  1.0454
 1004MOL0     H38503   2.715   2.588   6.870 -0.9248  1.0340  0.2787
 1004MOL0     H38504   2.697   2.689   7.147 -1.6135  1.2454 -0.0945
 1004MOL0     H38505   2.596   2.761   7.028 -0.2480 -1.0469 -3.6625
 1004MOL0     H38506   2.450   2.593   7.135  0.7958 -3.0171  2.3708
 1004MOL0     H38507   2.488   2.531   6.972 -0.1828 -2.5492  1.4170
 1004MOL0     H38508   2.634   2.387   7.046 -3.2195  0.4376 -2.1826
 1004MOL0     H38509   2.647   2.449   7.213  2.3116  2.3469 -1.8465
 1004MOL0     H38510   2.706   2.234   7.246  0.9303 -2.0537 -2.8692
 1004MOL0     H38511   2.851   2.080   7.293 -2.1460  0.7901 -1.0257
 1004MOL0     H38512   2.824   1.907   7.236  2.0302 -1.5252  1.3423
 1004MOL0     H38513   2.770   1.960   7.397 -1.7383 -1.2502 -0.9473
 1004MOL0     H38514   2.239   1.583   7.159  3.3518  4.2333  0.0308
 1004MOL0     H38515   2.201   1.349   7.190  0.3126  0.3553  0.0714
 1004MOL0     H38516   2.496   1.114   7.364  2.1407 -2.0164  3.8988
 1004MOL0     H38517   2.395   1.121   7.512 -0.2518  1.5689  0.1096
 1004MOL0     H38518   2.260   0.942   7.463  0.9196 -0.7117  1.2394
 1004MOL0     H38519   2.324   0.932   7.293  1.1052 -2.9357  0.2567
 1004MOL0     H38520   2.484   0.903   7.561  0.8752  1.4979  0.2274
 1004MOL0     H38521   2.553   0.894   7.403 -0.1373  0.7122  0.3239
 1004MOL0     H38522   2.350   0.704   7.526  1.8647  4.7163  4.3479
 1004MOL0     H38523   2.520   0.678   7.504  1.1339  4.1150  3.8748
 1004MOL0     H38524   2.336   0.724   7.253 -0.0011  0.3840  1.0250
 1004MOL0     H38525   2.493   0.643   7.253 -0.2719  0.4442  0.4401
 1004MOL0     H38526   2.224   0.554   7.361  0.8961 -0.2349  1.8359
 1004MOL0     H38527   2.383   0.484   7.405  3.7143  1.7719 -1.3308
 1004MOL0     H38528   2.414   0.437   7.160 -0.3277 -1.0026 -0.6609
 1004MOL0     H38529   2.268   0.521   7.123  0.6843  2.7770  1.2628
 1004MOL0     H38530   2.219   0.290   7.117 -1.8273 -0.0327  0.8606
 1004MOL0     H38531   2.143   0.341   7.267  0.9843  3.5886  2.6009
 1004MOL0     H38532   2.531   1.316   7.469  1.0085 -0.4543 -1.3748
 1004MOL0     H38533   2.607   1.517   7.407 -0.7056 -1.1328  2.1646
 1004MOL0     H38534   2.342   1.906   7.155  0.1024 -1.6741  2.2831
 1004MOL0     H38535   2.325   2.156   7.097  2.3513  4.1305 -0.5215
 1004MOL0     H38536   2.528   3.619   6.064  0.7664  0.7750  2.2438
 1004MOL0     H38537   2.284   3.625   6.136 -0.0441  0.4628 -2.6964
 1004MOL0     H38538   1.906   3.519   6.294 -1.6233  4.0024 -4.0018
 1004MOL0     H38539   1.673   3.471   6.365 -1.5069 -0.0086 -0.3989
 1004MOL0     H38540   1.557   3.097   6.244 -1.0656 -2.1426 -0.5238
 1004MOL0     H38541   1.433   3.105   6.358 -0.3382  0.9571 -0.0591
 1004MOL0     H38542   1.419   3.195   6.058  1.1069  1.4017  1.5686
 1004MOL0     H38543   1.287   3.220   6.170  0.9954  1.0489  0.4314
 1004MOL0     H38544   1.272   3.025   6.014 -1.3373  0.9278  0.3218
 1004MOL0     H38545   1.413   2.956   6.090  0.5578  0.6403 -1.2190
 1004MOL0     H38546   1.267   2.973   6.321  0.2365 -1.4310  0.4579
 1004MOL0     H38547   1.232   2.844   6.212  2.1982 -0.0753 -4.8200
 1004MOL0     H38548   0.899   3.111   6.156 -1.3326 -2.7567 -0.3705
 1004MOL0     H38549   1.624   3.190   6.055  0.6447 -1.5224  0.7393
 1004MOL0     H38550   1.768   3.156   5.894 -1.2971  2.1516 -2.1175
 1004MOL0     H38551   1.892   3.268   5.855  1.9874 -2.8408 -0.6527
 1004MOL0     H38552   1.933   3.129   5.956 -1.2710 -1.9458 -1.0123
 1005MOL0     O38553   3.426   7.425  10.165 -0.1920 -0.0788 -0.3856
 1005MOL0     C38554   3.426   7.431  10.290  1.0158  0.0730 -0.7812
 1005MOL0     O38555   3.532   7.402  10.373 -0.0283 -0.2116 -0.3075
 1005MOL0     C38556   3.642   7.354  10.312 -0.6929 -0.5715 -0.2218
 1005MOL0     C38557   3.658   7.216  10.292 -0.3484  0.7625  0.0867
 1005MOL0     C38558   3.781   7.170  10.237 -0.4128  0.8321  0.3160
 1005MOL0     C38559   3.886   7.254  10.204 -0.3470 -0.1010  0.0991
 1005MOL0     O38560   4.007   7.216  10.157  0.2720  0.3527  0.2763
 1005MOL0     C38561   4.041   7.081  10.164  0.8261 -0.4782  0.4442
 1005MOL0     C38562   4.180   7.056  10.106  0.4246  0.8340 -0.6189
 1005MOL0     C38563   4.202   7.154   9.988  0.4073  1.0605  0.4681
 1005MOL0     C38564   4.294   7.266  10.036  0.3494  0.5354  0.5930
 1005MOL0     C38565   4.303   7.378   9.932 -0.3981 -0.0912 -0.3295
 1005MOL0     C38566   4.174   7.462   9.914 -0.2648 -0.0541  0.6574
 1005MOL0     C38567   4.212   7.596   9.838 -0.2070  0.3103  0.5578
 1005MOL0     C38568   4.228   7.592   9.689 -0.3636  0.3768 -1.0049
 1005MOL0     N38569   4.257   7.720   9.631  0.5628 -1.1339  0.8811
 1005MOL0     C38570   4.175   7.795   9.553  0.7944 -0.1695  0.9432
 1005MOL0     C38571   4.256   7.897   9.511 -0.1740  0.2655  0.3910
 1005MOL0     C38572   4.219   8.014   9.431 -0.2079 -0.5875  0.9480
 1005MOL0     C38573   4.172   7.986   9.294 -0.3904  0.3190 -0.8241
 1005MOL0     C38574   4.291   7.932   9.207  0.0226 -0.1609  0.4536
 1005MOL0     C38575   4.237   7.873   9.078 -0.4453  0.0171  0.1680
 1005MOL0     O38576   4.359   7.827   9.013 -0.4615  0.0866  0.1091
 1005MOL0     C38577   4.355   7.771   8.884 -0.3651 -0.5133 -0.3974
 1005MOL0     C38578   4.477   7.741   8.826 -0.1937  0.5000 -0.7033
 1005MOL0     C38579   4.493   7.676   8.704 -0.5068  0.3565  0.4508
 1005MOL0     C38580   4.634   7.629   8.669  0.0258 -0.7146 -0.0709
 1005MOL0     C38581   4.380   7.650   8.620  0.7429 -0.0834  0.6408
 1005MOL0     C38582   4.390   7.578   8.491 -0.6944  0.3516  0.0659
 1005MOL0     O38583   4.504   7.510   8.465  0.5807 -0.0999 -0.1000
 1005MOL0     C38584   4.514   7.442   8.346 -0.6053  1.0986 -0.7513
 1005MOL0     C38585   4.604   7.485   8.245 -0.1289 -0.5968  0.3728
 1005MOL0     C38586   4.621   7.412   8.131 -0.1194  0.1600 -0.0435
 1005MOL0     C38587   4.564   7.286   8.112  0.4643 -0.2939  0.2839
 1005MOL0     O38588   4.580   7.214   8.000 -0.3257 -0.5593 -0.0985
 1005MOL0     C38589   4.699   7.230   7.927  0.4677 -0.3458  0.7134
 1005MOL0     C38590   4.727   7.114   7.825  0.0995 -0.1684 -0.6045
 1005MOL0     C38591   4.874   7.145   7.766  0.6633  0.3053  0.4494
 1005MOL0     C38592   4.940   7.018   7.715  0.1986 -0.7262 -0.3706
 1005MOL0     C38593   5.090   7.023   7.689 -0.5004  0.1211  0.5874
 1005MOL0     C38594   5.142   6.885   7.700 -0.2266 -0.5801  0.6650
 1005MOL0     C38595   5.286   6.875   7.661 -0.7219  0.9900 -0.4330
 1005MOL0     C38596   5.338   6.729   7.662 -0.0335 -0.4029 -0.1364
 1005MOL0    Cl38597   5.503   6.751   7.629  0.5239 -0.0456 -0.5924
 1005MOL0     C38598   4.475   7.245   8.208  0.5909  0.5976 -1.0040
 1005MOL0     C38599   4.449   7.315   8.333  0.6317 -0.6553  0.1432
 1005MOL0     O38600   4.291   7.576   8.420  0.6923  0.2231 -0.5290
 1005MOL0     C38601   4.260   7.704   8.662 -0.1220 -0.7306 -1.0429
 1005MOL0     C38602   4.254   7.752   8.793  0.9607 -0.3608 -0.7830
 1005MOL0     N38603   4.380   7.889   9.571 -0.7698 -0.2143  0.1652
 1005MOL0     N38604   4.377   7.778   9.636  0.0519 -1.0061  0.2497
 1005MOL0     C38605   3.870   7.386  10.227 -0.8622  0.0974  0.2900
 1005MOL0     C38606   3.753   7.437  10.281  0.8880 -0.7291 -0.4554
 1005MOL0     C38607   3.296   7.472  10.351 -0.3570 -0.3174 -0.2229
 1005MOL0     C38608   3.234   7.591  10.302  0.6636  0.2151  0.0359
 1005MOL0     C38609   3.103   7.634  10.346 -0.1529 -0.1627  0.5402
 1005MOL0     C38610   3.041   7.562  10.443 -0.8342  0.0462 -0.4871
 1005MOL0     O38611   2.930   7.608  10.503  0.7241  0.1597  0.4449
 1005MOL0     C38612   2.817   7.517  10.481  0.3496  0.3794 -1.1113
 1005MOL0     C38613   2.694   7.602  10.517  0.1771  0.0428  0.7108
 1005MOL0     C38614   2.679   7.729  10.422 -0.4647 -0.0923  0.8424
 1005MOL0     C38615   2.587   7.848  10.478 -0.0323  0.5121 -0.4684
 1005MOL0     C38616   2.451   7.795  10.480 -0.9364 -0.7868  0.1948
 1005MOL0     C38617   2.331   7.761  10.469  0.0918 -1.3211 -0.0431
 1005MOL0     C38618   3.100   7.443  10.489  0.2974  0.2198  0.0877
 1005MOL0     C38619   3.229   7.402  10.452 -0.1390  0.3556 -0.3084
 1005MOL0     C38620   3.291   7.285  10.507  0.2331 -0.0727  0.4809
 1005MOL0     H38621   3.580   7.150  10.328  0.8301 -1.7747 -1.7096
 1005MOL0     H38622   3.791   7.064  10.214  0.6292  1.3790 -2.0306
 1005MOL0     H38623   3.955   7.025  10.126 -1.5745  1.8622  2.1277
 1005MOL0     H38624   4.039   7.052  10.270  0.3656 -0.2482  0.5003
 1005MOL0     H38625   4.248   7.072  10.191 -3.1316 -2.0117  3.1565
 1005MOL0     H38626   4.187   6.951  10.076  0.9837  1.2199 -1.9089
 1005MOL0     H38627   4.249   7.090   9.913 -3.6986 -2.0070  0.1159
 1005MOL0     H38628   4.111   7.196   9.945  0.1522 -0.5157 -0.6155
 1005MOL0     H38629   4.262   7.310  10.130  1.4163 -0.6452  1.5492
 1005MOL0     H38630   4.391   7.216  10.051  0.9120  0.9661 -1.3110
 1005MOL0     H38631   4.341   7.347   9.834  1.6656  0.8948  0.1042
 1005MOL0     H38632   4.375   7.430   9.995 -1.1729 -1.8929  2.1948
 1005MOL0     H38633   4.105   7.407   9.850  0.9862 -1.0604  0.1279
 1005MOL0     H38634   4.122   7.483  10.008  0.9927 -0.6128  1.5071
 1005MOL0     H38635   4.303   7.642   9.878 -0.2696 -0.3115  1.4719
 1005MOL0     H38636   4.123   7.658   9.853 -3.7726 -3.8367 -1.1622
 1005MOL0     H38637   4.303   7.516   9.668  0.9176  0.7542  1.7655
 1005MOL0     H38638   4.136   7.552   9.646  0.0113 -1.2479 -0.3418
 1005MOL0     H38639   4.071   7.777   9.528  0.9114 -2.3004  1.7674
 1005MOL0     H38640   4.309   8.075   9.421 -0.6117  0.0419  1.1199
 1005MOL0     H38641   4.145   8.068   9.491  1.5278  0.9033  1.8488
 1005MOL0     H38642   4.091   7.912   9.289  0.0338 -0.2279  0.0339
 1005MOL0     H38643   4.128   8.076   9.251 -0.1879  1.6200  1.5132
 1005MOL0     H38644   4.361   8.011   9.179  0.9803 -1.3618 -0.6540
 1005MOL0     H38645   4.343   7.849   9.257 -0.3956 -1.9745 -1.9331
 1005MOL0     H38646   4.158   7.800   9.096  0.7559 -1.3080  0.2906
 1005MOL0     H38647   4.191   7.959   9.029  1.6613  0.8113 -0.5353
 1005MOL0     H38648   4.558   7.771   8.892 -0.0765 -2.3711  0.5833
 1005MOL0     H38649   4.623   7.522   8.686  0.1755 -1.1429 -2.3508
 1005MOL0     H38650   4.716   7.662   8.733  1.3637 -1.1122 -1.5200
 1005MOL0     H38651   4.672   7.648   8.568 -1.7108  0.6021 -0.5257
 1005MOL0     H38652   4.659   7.578   8.260  0.5984 -1.2511  2.0662
 1005MOL0     H38653   4.682   7.458   8.054  0.3081  0.8640  0.6915
 1005MOL0     H38654   4.674   7.314   7.862 -2.3376 -0.9605  0.8849
 1005MOL0     H38655   4.786   7.262   7.987 -0.1038  1.9380  0.3937
 1005MOL0     H38656   4.723   7.018   7.876 -0.6528 -0.7780 -1.7720
 1005MOL0     H38657   4.660   7.110   7.738  2.2755 -0.5457 -2.3607
 1005MOL0     H38658   4.948   7.175   7.841  1.5126  0.5035 -0.4575
 1005MOL0     H38659   4.873   7.218   7.685  4.9058  0.8147  0.6581
 1005MOL0     H38660   4.897   6.999   7.616  1.2190  1.7867 -1.3833
 1005MOL0     H38661   4.917   6.933   7.779 -0.9113 -0.4400 -0.3708
 1005MOL0     H38662   5.109   7.059   7.588 -0.4226 -1.0805  0.1543
 1005MOL0     H38663   5.137   7.096   7.755  1.5570 -1.0942  0.5161
 1005MOL0     H38664   5.088   6.820   7.631  2.5560 -2.6330  0.2501
 1005MOL0     H38665   5.118   6.852   7.801 -1.6127  0.6283  0.7695
 1005MOL0     H38666   5.343   6.934   7.734 -1.5151  0.1341  0.9380
 1005MOL0     H38667   5.300   6.929   7.567  2.1873  1.4289  0.1575
 1005MOL0     H38668   5.303   6.655   7.589  1.5882 -0.9944 -0.3539
 1005MOL0     H38669   5.325   6.678   7.758  0.8123 -1.7488 -0.7153
 1005MOL0     H38670   4.436   7.143   8.202  0.1500  0.3956  2.8413
 1005MOL0     H38671   4.388   7.266   8.409  1.0229 -0.9446  0.2766
 1005MOL0     H38672   4.178   7.724   8.593 -1.7134  0.4244  1.0476
 1005MOL0     H38673   4.160   7.798   8.820 -0.0250 -2.1062 -1.0939
 1005MOL0     H38674   3.960   7.447  10.223 -0.8604  0.0163 -1.4966
 1005MOL0     H38675   3.735   7.541  10.306 -2.2529 -1.0549 -0.9679
 1005MOL0     H38676   3.283   7.635  10.216  0.8655  0.2325  0.1608
 1005MOL0     H38677   3.049   7.719  10.306  0.0025  0.7565  2.1813
 1005MOL0     H38678   2.807   7.475  10.380 -0.4098  0.2944 -1.0065
 1005MOL0     H38679   2.820   7.433  10.551  2.3520  0.8767 -0.5464
 1005MOL0     H38680   2.691   7.635  10.621  3.0089  0.8307  0.6287
 1005MOL0     H38681   2.606   7.541  10.495  0.8581 -0.2613 -1.5088
 1005MOL0     H38682   2.776   7.778  10.408 -1.3681  1.5894  0.0943
 1005MOL0     H38683   2.639   7.693  10.327 -0.2151 -2.0075  1.4184
 1005MOL0     H38684   2.586   7.936  10.413  0.1506 -0.8115 -2.3362
 1005MOL0     H38685   2.625   7.876  10.577  5.3388 -1.4907 -1.6174
 1005MOL0     H38686   2.234   7.715  10.469  0.1649 -1.5232  1.4740
 1005MOL0     H38687   3.045   7.377  10.555  0.9548 -0.0560  0.3675
 1005MOL0     H38688   3.215   7.226  10.560 -2.3491  2.4691 -0.1707
 1005MOL0     H38689   3.347   7.226  10.434 -1.2206  0.4797 -1.1351
 1005MOL0     H38690   3.361   7.319  10.584  1.8356 -0.2047 -0.8649
 1006MOL0     O38691   4.033   3.654   0.264  0.0219  0.4988 -0.2073
 1006MOL0     C38692   3.947   3.566   0.240  0.2966 -0.3636  0.6118
 1006MOL0     O38693   3.963   3.452   0.163 -0.0065  0.1344 -0.4180
 1006MOL0     C38694   4.063   3.471   0.068  0.1196  1.0003  0.6470
 1006MOL0     C38695   4.024   3.497  -0.061 -0.2992 -0.1261  0.4707
 1006MOL0     C38696   4.123   3.499  -0.155 -1.0772  0.1623 -0.3146
 1006MOL0     C38697   4.256   3.477  -0.128  0.3485  0.2625  0.1951
 1006MOL0     O38698   4.335   3.472  -0.241  0.6568  0.3053 -0.4058
 1006MOL0     C38699   4.474   3.443  -0.238  0.5694  0.2646 -0.4795
 1006MOL0     C38700   4.505   3.300  -0.208  0.0315 -0.0097 -0.4459
 1006MOL0     C38701   4.647   3.274  -0.141 -0.2440  0.2726  0.3409
 1006MOL0     C38702   4.760   3.275  -0.241  0.3506  0.7879  0.7890
 1006MOL0     C38703   4.886   3.248  -0.159  0.3471  0.2084 -1.4029
 1006MOL0     C38704   5.005   3.229  -0.247 -0.1076  0.2458  1.0502
 1006MOL0     C38705   5.143   3.198  -0.179 -0.4912  0.1416  0.1005
 1006MOL0     C38706   5.259   3.208  -0.279  0.2988  0.7954  0.1012
 1006MOL0     N38707   5.374   3.135  -0.232  0.0941  0.6946  0.0284
 1006MOL0     C38708   5.440   3.161  -0.124 -0.0346  0.1144  1.3634
 1006MOL0     C38709   5.541   3.072  -0.120 -0.0934 -0.6781  0.5231
 1006MOL0     C38710   5.652   3.063  -0.025  0.9754  0.0939 -0.2119
 1006MOL0     C38711   5.783   3.047  -0.108 -0.3595  0.1469 -0.5841
 1006MOL0     C38712   5.808   3.169  -0.193  0.7576 -1.1721 -0.6301
 1006MOL0     C38713   5.935   3.153  -0.270  0.1413 -0.5422 -0.7491
 1006MOL0     O38714   5.942   3.252  -0.371 -0.0758 -0.6943  0.2901
 1006MOL0     C38715   5.855   3.269  -0.473  0.2947  0.0227  0.4388
 1006MOL0     C38716   5.883   3.373  -0.559 -0.1698  0.3459  0.5392
 1006MOL0     C38717   5.818   3.395  -0.681  0.6605 -0.5772 -0.0018
 1006MOL0     C38718   5.863   3.517  -0.761  0.0932  1.4941  0.4671
 1006MOL0     C38719   5.704   3.310  -0.709 -0.4306  0.1964 -0.5394
 1006MOL0     C38720   5.619   3.320  -0.834 -0.1316  0.1369 -0.8924
 1006MOL0     O38721   5.514   3.231  -0.839 -0.6992 -0.2828 -0.3915
 1006MOL0     C38722   5.416   3.235  -0.933  0.3133  0.3376  0.1465
 1006MOL0     C38723   5.343   3.123  -0.948  1.0561 -0.2637 -0.4412
 1006MOL0     C38724   5.230   3.119  -1.030 -0.1353  0.0082  0.0785
 1006MOL0     C38725   5.192   3.235  -1.094  0.2016 -1.0180 -0.6267
 1006MOL0     O38726   5.081   3.245  -1.182 -0.2684  0.6927  0.0266
 1006MOL0     C38727   4.984   3.143  -1.195 -0.1392  0.1994 -0.0303
 1006MOL0     C38728   5.030   3.046  -1.303  1.4324 -0.1140  0.1044
 1006MOL0     C38729   4.909   2.962  -1.341 -0.0290 -0.2148  0.4975
 1006MOL0     C38730   4.947   2.855  -1.431 -0.6089 -0.3202  0.0534
 1006MOL0     C38731   4.832   2.751  -1.449  0.4533 -1.5641 -0.2861
 1006MOL0     C38732   4.679   2.805  -1.486  0.4448  0.3509 -0.0265
 1006MOL0     C38733   4.576   2.697  -1.529  0.6029  0.7061 -0.4096
 1006MOL0     C38734   4.619   2.586  -1.625 -0.3226 -0.3072  0.7771
 1006MOL0    Cl38735   4.668   2.672  -1.771 -0.1426 -0.2343  0.0370
 1006MOL0     C38736   5.267   3.354  -1.078 -0.2507  0.3264 -0.1362
 1006MOL0     C38737   5.376   3.357  -0.996 -0.2207 -0.2724  0.6855
 1006MOL0     O38738   5.658   3.391  -0.922  0.3946 -0.3342 -0.1572
 1006MOL0     C38739   5.676   3.204  -0.623  0.0497  0.0435  0.7582
 1006MOL0     C38740   5.751   3.183  -0.509  0.3704 -0.6493  0.3971
 1006MOL0     N38741   5.514   2.973  -0.219 -0.0514  0.1305  0.1764
 1006MOL0     N38742   5.410   3.011  -0.285  0.5564 -0.3638  0.5283
 1006MOL0     C38743   4.305   3.458   0.004 -0.5111 -0.3283  0.6793
 1006MOL0     C38744   4.204   3.455   0.097  0.3095  0.1565 -0.8708
 1006MOL0     C38745   3.819   3.578   0.308 -0.6421  0.1686  0.7424
 1006MOL0     C38746   3.711   3.535   0.229 -0.5514 -0.5192 -0.2161
 1006MOL0     C38747   3.586   3.509   0.294  0.6142 -0.1721 -0.1837
 1006MOL0     C38748   3.563   3.527   0.431  0.7183 -0.2199  0.2765
 1006MOL0     O38749   3.436   3.495   0.470 -0.4557 -0.9241  0.0734
 1006MOL0     C38750   3.342   3.596   0.504 -0.3144 -0.5636 -0.6131
 1006MOL0     C38751   3.298   3.694   0.386  0.2689 -0.6086  0.2693
 1006MOL0     C38752   3.191   3.800   0.431 -0.4253  0.7501  0.2493
 1006MOL0     C38753   3.099   3.843   0.307  0.1256 -0.9231 -0.3981
 1006MOL0     C38754   2.994   3.745   0.276 -0.4463 -0.2381 -0.4047
 1006MOL0     C38755   2.908   3.668   0.235  0.0174  0.0110  0.1890
 1006MOL0     C38756   3.670   3.575   0.506  0.4232 -0.3041  0.1178
 1006MOL0     C38757   3.801   3.609   0.446 -0.7144  0.2609  0.3271
 1006MOL0     C38758   3.910   3.655   0.547  0.9362 -0.4141 -0.2433
 1006MOL0     H38759   3.924   3.515  -0.100 -0.6481 -0.5746  1.1483
 1006MOL0     H38760   4.095   3.521  -0.257  0.6770  1.3986 -0.5754
 1006MOL0     H38761   4.516   3.507  -0.160  0.5426  3.1014 -2.6285
 1006MOL0     H38762   4.519   3.464  -0.335 -0.7927 -0.3037 -1.2628
 1006MOL0     H38763   4.427   3.273  -0.136 -1.2009  1.7776 -1.0419
 1006MOL0     H38764   4.489   3.233  -0.293 -2.6750  0.7013 -0.5982
 1006MOL0     H38765   4.664   3.339  -0.055 -1.4827 -0.4120  1.1301
 1006MOL0     H38766   4.648   3.174  -0.098 -2.6968  1.8118  4.4991
 1006MOL0     H38767   4.740   3.203  -0.321 -0.8434  0.6294  1.2197
 1006MOL0     H38768   4.778   3.375  -0.282 -0.7077  0.4551 -0.5461
 1006MOL0     H38769   4.876   3.153  -0.104 -0.8211 -0.1677 -2.2120
 1006MOL0     H38770   4.903   3.332  -0.091 -5.1874  0.1195  0.5762
 1006MOL0     H38771   4.981   3.145  -0.313  1.6867 -1.1969  2.1269
 1006MOL0     H38772   5.009   3.315  -0.314  1.6049 -0.7121 -0.1605
 1006MOL0     H38773   5.140   3.092  -0.150 -0.7250 -0.2068 -1.1405
 1006MOL0     H38774   5.154   3.262  -0.092 -0.9174  0.7156 -0.2638
 1006MOL0     H38775   5.233   3.164  -0.376 -1.3941  3.0156 -0.5536
 1006MOL0     H38776   5.273   3.317  -0.283  1.6488  0.6585  0.8787
 1006MOL0     H38777   5.420   3.243  -0.056  0.2211  0.2176  1.3163
 1006MOL0     H38778   5.641   2.973   0.037 -1.6561  0.2898 -0.2662
 1006MOL0     H38779   5.656   3.152   0.038  1.9755  0.2092 -0.4315
 1006MOL0     H38780   5.872   3.028  -0.047 -1.5117  1.7594  1.7546
 1006MOL0     H38781   5.768   2.959  -0.172  0.1785 -0.7898  0.5512
 1006MOL0     H38782   5.728   3.169  -0.268  1.8348 -0.0035 -1.8398
 1006MOL0     H38783   5.802   3.259  -0.132  3.9157  0.1685 -2.0319
 1006MOL0     H38784   6.013   3.162  -0.194 -0.8690  2.2850  0.0756
 1006MOL0     H38785   5.937   3.056  -0.320 -0.4165 -1.3115  0.6888
 1006MOL0     H38786   5.970   3.436  -0.543  1.0677 -1.4885  1.3289
 1006MOL0     H38787   5.919   3.488  -0.850  0.9825  3.5339  0.3307
 1006MOL0     H38788   5.921   3.587  -0.701 -0.1011  3.2994 -1.3450
 1006MOL0     H38789   5.773   3.574  -0.788 -0.6819 -0.0781 -0.4723
 1006MOL0     H38790   5.369   3.031  -0.896 -2.2713 -1.7579 -1.1600
 1006MOL0     H38791   5.180   3.026  -1.056  0.8572 -0.1246 -1.4728
 1006MOL0     H38792   4.969   3.090  -1.101 -0.9407  0.3783 -0.0494
 1006MOL0     H38793   4.888   3.189  -1.222 -3.0288 -4.5181  1.1251
 1006MOL0     H38794   5.073   3.092  -1.393  2.3735 -0.6032  0.3003
 1006MOL0     H38795   5.108   2.987  -1.255  1.5496 -0.3153 -0.3253
 1006MOL0     H38796   4.829   3.027  -1.379 -1.7714 -3.3139 -1.5889
 1006MOL0     H38797   4.871   2.917  -1.250  2.6955  0.0999  1.9031
 1006MOL0     H38798   5.036   2.804  -1.393  0.3195  0.5820 -0.8269
 1006MOL0     H38799   4.975   2.906  -1.524  0.9523  0.6979  1.0231
 1006MOL0     H38800   4.872   2.690  -1.530  0.3116 -2.3423  0.2229
 1006MOL0     H38801   4.828   2.693  -1.356  1.3256 -2.2303 -0.6522
 1006MOL0     H38802   4.682   2.883  -1.561 -0.1103 -0.4850 -0.9395
 1006MOL0     H38803   4.635   2.857  -1.400  0.8446 -1.8255  1.5875
 1006MOL0     H38804   4.489   2.750  -1.569 -0.2645  1.4099  2.1797
 1006MOL0     H38805   4.541   2.650  -1.437  0.4919 -0.0392 -0.8237
 1006MOL0     H38806   4.535   2.518  -1.640 -2.1109  1.9815 -0.2453
 1006MOL0     H38807   4.694   2.525  -1.572 -0.0033 -1.6574 -1.1339
 1006MOL0     H38808   5.235   3.447  -1.124  0.6381  1.6161  1.6998
 1006MOL0     H38809   5.420   3.454  -0.974 -1.2879  0.2990  0.3613
 1006MOL0     H38810   5.594   3.136  -0.644  0.8201 -0.2865 -1.3715
 1006MOL0     H38811   5.717   3.095  -0.455 -4.4184 -0.8213 -2.3370
 1006MOL0     H38812   4.413   3.454   0.010 -0.4329 -0.5787 -0.5177
 1006MOL0     H38813   4.227   3.447   0.203 -2.0351  1.9042 -0.1376
 1006MOL0     H38814   3.719   3.517   0.122 -3.0194  3.8348 -1.3532
 1006MOL0     H38815   3.506   3.469   0.232 -0.4448  0.5571  0.6785
 1006MOL0     H38816   3.253   3.549   0.546  0.8331 -0.5794  1.9859
 1006MOL0     H38817   3.379   3.658   0.586 -0.4482  1.1266 -1.7671
 1006MOL0     H38818   3.268   3.625   0.306 -1.2737 -0.3842  0.6107
 1006MOL0     H38819   3.388   3.748   0.357  0.5806  0.4660  2.9877
 1006MOL0     H38820   3.119   3.753   0.499  0.0724  0.5208  0.6318
 1006MOL0     H38821   3.243   3.889   0.467 -0.3857  1.5552 -1.7120
 1006MOL0     H38822   3.162   3.858   0.219  1.3896 -0.7908  0.5134
 1006MOL0     H38823   3.057   3.942   0.329  0.9960 -0.7656  0.6260
 1006MOL0     H38824   2.838   3.597   0.196  0.4851  0.9894 -2.6503
 1006MOL0     H38825   3.646   3.572   0.612  2.4062 -2.3965  0.5728
 1006MOL0     H38826   3.971   3.573   0.585  2.5547  0.7123 -0.2977
 1006MOL0     H38827   3.991   3.709   0.499  2.7765 -1.9701  0.9688
 1006MOL0     H38828   3.863   3.693   0.639 -1.9809 -4.3296  0.1529
 1007MOL0     O38829   4.899   8.791   5.014  0.0239  0.4004 -0.4088
 1007MOL0     C38830   4.934   8.730   4.920  0.0095  0.1078 -0.2509
 1007MOL0     O38831   5.055   8.748   4.854 -0.5909 -0.0031 -0.0984
 1007MOL0     C38832   5.152   8.838   4.899  0.0960  0.4001 -0.1289
 1007MOL0     C38833   5.197   8.846   5.028  1.0824 -1.0087 -0.7197
 1007MOL0     C38834   5.303   8.926   5.072 -0.0996  0.0275 -0.0917
 1007MOL0     C38835   5.376   9.000   4.976 -0.1344  0.5715  0.1804
 1007MOL0     O38836   5.473   9.084   5.018 -0.2037 -0.0913  0.1398
 1007MOL0     C38837   5.585   9.097   4.920  0.6495 -0.4424  0.4288
 1007MOL0     C38838   5.703   9.179   4.974 -0.6771  0.7354 -0.5267
 1007MOL0     C38839   5.782   9.128   5.092  0.0759 -0.9385  0.5650
 1007MOL0     C38840   5.849   8.993   5.060 -0.7633 -0.8486 -1.1090
 1007MOL0     C38841   5.938   8.938   5.172  0.3349  0.7944  0.4935
 1007MOL0     C38842   6.062   9.021   5.210 -0.0133  0.1251  0.6000
 1007MOL0     C38843   6.173   9.050   5.113  0.4506 -0.4971  0.6978
 1007MOL0     C38844   6.233   8.920   5.053 -0.1247  0.4562  0.0830
 1007MOL0     N38845   6.353   8.947   4.975  0.3396 -0.8402  0.0156
 1007MOL0     C38846   6.455   9.033   5.007  0.1644  0.2561  0.1307
 1007MOL0     C38847   6.546   9.032   4.897  0.2344 -0.6265  0.4019
 1007MOL0     C38848   6.681   9.090   4.886  0.3167  0.3454 -0.0875
 1007MOL0     C38849   6.686   9.239   4.912  0.1077  0.5462  0.0632
 1007MOL0     C38850   6.821   9.282   4.971 -0.1234  0.8182 -0.2367
 1007MOL0     C38851   6.830   9.260   5.127  0.8327 -0.4124  0.0450
 1007MOL0     O38852   6.923   9.352   5.191  0.4065  0.1158  0.3787
 1007MOL0     C38853   7.053   9.314   5.215  0.1085 -0.0407  0.2818
 1007MOL0     C38854   7.124   9.387   5.308 -0.1303  0.4631 -0.3010
 1007MOL0     C38855   7.260   9.359   5.335 -0.1300 -0.3443  0.6321
 1007MOL0     C38856   7.337   9.437   5.438  0.2382 -0.5582  0.8223
 1007MOL0     C38857   7.326   9.260   5.248  0.1000  0.2489  0.4789
 1007MOL0     C38858   7.470   9.236   5.264 -0.4524 -0.3414  0.5411
 1007MOL0     O38859   7.539   9.270   5.157 -0.4109  0.0507  0.1357
 1007MOL0     C38860   7.671   9.284   5.175  0.6226  0.4969  0.1871
 1007MOL0     C38861   7.755   9.172   5.154 -0.0752 -0.7952  0.1057
 1007MOL0     C38862   7.892   9.178   5.174 -0.2387  0.1084  0.2922
 1007MOL0     C38863   7.950   9.302   5.212 -0.7509  0.5380 -0.1381
 1007MOL0     O38864   8.090   9.304   5.222 -0.2506 -0.2697 -0.2611
 1007MOL0     C38865   8.150   9.412   5.299 -0.1309 -0.6309 -0.2716
 1007MOL0     C38866   8.298   9.384   5.343 -0.3981 -0.3916 -0.5725
 1007MOL0     C38867   8.372   9.351   5.224 -0.5934  0.0128  0.5852
 1007MOL0     C38868   8.523   9.368   5.218 -0.7190 -0.8021 -0.3821
 1007MOL0     C38869   8.561   9.508   5.166  0.1759  0.1543  1.0669
 1007MOL0     C38870   8.709   9.527   5.140  0.0398 -0.0565  1.4518
 1007MOL0     C38871   8.756   9.440   5.015  0.5810  0.2772 -0.0095
 1007MOL0     C38872   8.906   9.459   4.978  0.2200  0.2665 -0.0194
 1007MOL0    Cl38873   8.954   9.614   4.929 -0.1211 -0.0865 -0.2132
 1007MOL0     C38874   7.869   9.411   5.223 -0.1600 -0.0699 -0.2122
 1007MOL0     C38875   7.730   9.407   5.217  0.5910 -0.0897 -0.0954
 1007MOL0     O38876   7.516   9.200   5.373 -0.8798  0.1279 -0.0871
 1007MOL0     C38877   7.251   9.193   5.145  0.6381  0.1448  0.4913
 1007MOL0     C38878   7.118   9.224   5.136  0.6261 -0.4603 -0.2926
 1007MOL0     N38879   6.497   8.945   4.803 -0.7140  0.3601 -0.4524
 1007MOL0     N38880   6.384   8.896   4.845  0.4665 -0.7549  0.0137
 1007MOL0     C38881   5.345   8.970   4.840  0.0077 -0.1999 -0.2839
 1007MOL0     C38882   5.239   8.885   4.809 -0.1371 -0.7507 -0.1148
 1007MOL0     C38883   4.836   8.635   4.860  0.4108  0.4492  0.0095
 1007MOL0     C38884   4.871   8.564   4.741 -0.1118 -0.7292 -0.5173
 1007MOL0     C38885   4.785   8.466   4.681 -0.4629 -0.4335 -0.0478
 1007MOL0     C38886   4.671   8.430   4.746  0.2911  0.4310  0.2007
 1007MOL0     O38887   4.585   8.332   4.706  0.1001 -0.2219  0.1201
 1007MOL0     C38888   4.649   8.199   4.731 -0.0646 -0.6222  0.0200
 1007MOL0     C38889   4.538   8.095   4.755 -0.5346 -0.6318  0.4133
 1007MOL0     C38890   4.590   7.948   4.741 -0.4925 -0.0406  0.5218
 1007MOL0     C38891   4.603   7.879   4.880 -0.6865  0.5607  0.3875
 1007MOL0     C38892   4.726   7.942   4.930  0.1000 -0.5854 -0.3280
 1007MOL0     C38893   4.830   7.988   4.969  0.0640  0.3714  0.3134
 1007MOL0     C38894   4.628   8.507   4.852  0.1119 -0.5529 -0.1256
 1007MOL0     C38895   4.710   8.605   4.913  0.4141 -0.1996 -0.7347
 1007MOL0     C38896   4.643   8.655   5.044 -0.3915  0.2890  0.5069
 1007MOL0     H38897   5.136   8.805   5.108 -0.5820 -1.5820 -2.2352
 1007MOL0     H38898   5.330   8.953   5.174 -0.0064  1.7896 -0.5520
 1007MOL0     H38899   5.555   9.142   4.825 -1.7993 -0.3913  1.1550
 1007MOL0     H38900   5.624   8.997   4.899  0.2640 -0.3196 -0.9533
 1007MOL0     H38901   5.772   9.209   4.894  1.5167  2.8877  1.9905
 1007MOL0     H38902   5.670   9.274   5.017  2.2573  2.0653 -0.9627
 1007MOL0     H38903   5.852   9.207   5.121 -2.8923  1.7683  0.9007
 1007MOL0     H38904   5.722   9.108   5.181  0.5706  0.5150  1.2500
 1007MOL0     H38905   5.781   8.911   5.038 -1.5662 -0.7614  0.8374
 1007MOL0     H38906   5.922   9.006   4.979 -0.5098  1.5914 -0.5815
 1007MOL0     H38907   5.970   8.845   5.123 -0.9730  1.5315 -1.9533
 1007MOL0     H38908   5.873   8.923   5.259 -0.9378  1.2064 -0.3595
 1007MOL0     H38909   6.031   9.119   5.248  2.0205  0.2867  2.0243
 1007MOL0     H38910   6.118   8.970   5.289 -0.3284  0.3260  0.9546
 1007MOL0     H38911   6.259   9.093   5.165  1.5570 -1.5472 -0.1811
 1007MOL0     H38912   6.144   9.126   5.040  1.9148  0.5082  1.1225
 1007MOL0     H38913   6.253   8.848   5.133  1.5442  1.4655  0.6190
 1007MOL0     H38914   6.156   8.872   4.992 -1.8852 -0.6067  2.9074
 1007MOL0     H38915   6.471   9.105   5.086 -0.5249  0.3391  0.2045
 1007MOL0     H38916   6.717   9.075   4.784 -1.0766  2.7124 -1.0103
 1007MOL0     H38917   6.746   9.036   4.956 -1.4700 -1.2584  0.4262
 1007MOL0     H38918   6.659   9.291   4.820  0.8801  0.7449 -0.0578
 1007MOL0     H38919   6.616   9.276   4.986  0.8570  1.3642  0.3742
 1007MOL0     H38920   6.897   9.234   4.908 -1.6600 -2.5681  0.2463
 1007MOL0     H38921   6.835   9.389   4.958  0.0470  0.8940  0.4915
 1007MOL0     H38922   6.734   9.281   5.174  0.5969  1.3179 -1.1319
 1007MOL0     H38923   6.849   9.155   5.153 -2.4057 -0.9857  0.4632
 1007MOL0     H38924   7.069   9.453   5.373 -3.6832 -0.3186 -2.2663
 1007MOL0     H38925   7.287   9.534   5.452  0.0836 -0.7065  1.3568
 1007MOL0     H38926   7.441   9.457   5.412  0.5829 -3.6399 -0.6187
 1007MOL0     H38927   7.334   9.381   5.532  0.6280 -0.8134  0.6835
 1007MOL0     H38928   7.706   9.078   5.134  0.4909 -0.5709 -2.6324
 1007MOL0     H38929   7.955   9.090   5.165  1.5690  1.3448  0.2694
 1007MOL0     H38930   8.138   9.499   5.234  2.6162  0.7662  0.9811
 1007MOL0     H38931   8.095   9.430   5.392  3.3660 -0.0853  1.8392
 1007MOL0     H38932   8.328   9.477   5.392  0.1011 -0.3463 -0.9580
 1007MOL0     H38933   8.290   9.303   5.416 -2.6296  0.4120  0.1724
 1007MOL0     H38934   8.319   9.389   5.135 -1.4741 -2.2055  0.1044
 1007MOL0     H38935   8.349   9.245   5.214  0.1002 -0.1051  0.1990
 1007MOL0     H38936   8.550   9.300   5.137 -1.5050  1.2764 -2.4832
 1007MOL0     H38937   8.578   9.352   5.311 -2.9503  0.9010  1.3599
 1007MOL0     H38938   8.511   9.524   5.070  0.1130 -0.8280  0.9313
 1007MOL0     H38939   8.523   9.598   5.216 -1.5712  0.7270 -1.1194
 1007MOL0     H38940   8.766   9.506   5.230  2.1516  0.8431  0.4059
 1007MOL0     H38941   8.730   9.632   5.114  0.3379 -0.7473 -1.5230
 1007MOL0     H38942   8.680   9.442   4.936  0.5278 -2.8521 -0.1508
 1007MOL0     H38943   8.751   9.333   5.036  3.0131  0.1604  0.2398
 1007MOL0     H38944   8.929   9.384   4.902 -2.0594 -3.9074  2.9567
 1007MOL0     H38945   8.968   9.424   5.062 -0.6192 -2.2462 -0.3628
 1007MOL0     H38946   7.906   9.509   5.253  0.5748 -0.2385 -0.5256
 1007MOL0     H38947   7.662   9.492   5.223  0.1787 -0.4427  0.3636
 1007MOL0     H38948   7.294   9.123   5.073  3.2717 -0.0077  2.0822
 1007MOL0     H38949   7.066   9.176   5.054 -0.5173  0.1115  0.0727
 1007MOL0     H38950   5.390   9.017   4.754 -0.1564 -2.6304 -1.8043
 1007MOL0     H38951   5.228   8.865   4.703 -1.9273  1.0444 -0.3261
 1007MOL0     H38952   4.954   8.605   4.684 -1.3226  0.4160 -1.4966
 1007MOL0     H38953   4.810   8.415   4.589 -1.8527  0.6985 -1.1072
 1007MOL0     H38954   4.705   8.159   4.646 -1.4097 -0.4153 -0.9917
 1007MOL0     H38955   4.724   8.212   4.810 -0.2978  1.6195 -0.0812
 1007MOL0     H38956   4.456   8.111   4.684 -0.4106  0.6149  0.5143
 1007MOL0     H38957   4.501   8.111   4.857 -0.3223 -0.6083  0.4884
 1007MOL0     H38958   4.512   7.898   4.682 -3.3910  3.3073  1.1744
 1007MOL0     H38959   4.684   7.948   4.686 -0.7623 -1.3867  0.0187
 1007MOL0     H38960   4.611   7.773   4.856  2.8327  0.5297  1.2073
 1007MOL0     H38961   4.513   7.905   4.937 -1.8417 -1.4804 -0.4019
 1007MOL0     H38962   4.919   8.002   5.027  0.1098 -1.9102  0.8932
 1007MOL0     H38963   4.524   8.501   4.884 -0.6731  2.7064 -1.5918
 1007MOL0     H38964   4.535   8.636   5.043 -0.3917  0.0258 -1.8512
 1007MOL0     H38965   4.700   8.612   5.127 -2.3449 -1.6436  0.9459
 1007MOL0     H38966   4.647   8.764   5.046 -1.6683  0.3626  2.8201
 1008MOL0     O38967   5.481   8.744   7.090  0.1453  0.0171 -0.1923
 1008MOL0     C38968   5.510   8.657   7.170  0.2543 -0.1707  0.8511
 1008MOL0     O38969   5.427   8.568   7.223 -0.1358  0.4021 -0.0057
 1008MOL0     C38970   5.292   8.587   7.195 -1.4336  0.0865  0.4397
 1008MOL0     C38971   5.207   8.616   7.303 -0.3120  0.3739  0.1145
 1008MOL0     C38972   5.069   8.643   7.274 -0.3635 -0.3184  0.3302
 1008MOL0     C38973   5.016   8.634   7.140  0.0539  0.4322 -0.8173
 1008MOL0     O38974   4.882   8.653   7.106 -0.8208  0.3182 -0.0615
 1008MOL0     C38975   4.792   8.658   7.212 -0.5415  0.8699 -0.3674
 1008MOL0     C38976   4.659   8.629   7.152  1.7751 -0.8128  0.8771
 1008MOL0     C38977   4.542   8.668   7.249  0.0512  0.1827 -0.1825
 1008MOL0     C38978   4.393   8.651   7.197 -0.4782  0.4570  1.0646
 1008MOL0     C38979   4.294   8.666   7.313  0.5837  0.3097 -0.3538
 1008MOL0     C38980   4.138   8.658   7.262 -0.1487 -0.3889 -0.2782
 1008MOL0     C38981   4.067   8.527   7.313 -0.2281 -0.7565 -0.9028
 1008MOL0     C38982   3.939   8.499   7.238 -0.5671  0.3845 -0.2653
 1008MOL0     N38983   3.878   8.381   7.302  0.4860 -0.0685  0.4437
 1008MOL0     C38984   3.863   8.254   7.247  0.0543  0.6923 -0.1023
 1008MOL0     C38985   3.828   8.185   7.355  0.0213 -0.5316  0.0056
 1008MOL0     C38986   3.813   8.036   7.363  0.5972 -0.3863  0.7883
 1008MOL0     C38987   3.905   7.967   7.469 -0.2843 -0.0031 -0.2346
 1008MOL0     C38988   3.909   7.812   7.458 -0.2992 -0.4537 -0.2770
 1008MOL0     C38989   4.042   7.756   7.515 -0.0758 -0.2328 -0.5969
 1008MOL0     O38990   4.146   7.753   7.415  0.0960  0.4992  0.3841
 1008MOL0     C38991   4.268   7.702   7.451  0.0484  0.4712  0.1553
 1008MOL0     C38992   4.304   7.664   7.586 -0.5263  0.4933  0.6529
 1008MOL0     C38993   4.415   7.584   7.614  0.3488  0.3818 -0.4914
 1008MOL0     C38994   4.447   7.559   7.762  0.3454 -0.1616  0.1094
 1008MOL0     C38995   4.504   7.551   7.504 -0.1788  0.4020  0.4137
 1008MOL0     C38996   4.625   7.459   7.511  0.3582  0.0343  0.3934
 1008MOL0     O38997   4.711   7.471   7.400  0.3438 -0.0148 -0.1429
 1008MOL0     C38998   4.816   7.382   7.382  0.0874 -0.4110 -1.0052
 1008MOL0     C38999   4.799   7.247   7.362  1.1038  0.3293 -0.5117
 1008MOL0     C39000   4.913   7.165   7.349  0.5500 -0.7271 -0.1514
 1008MOL0     C39001   5.042   7.230   7.358 -0.4800  1.3024  0.5716
 1008MOL0     O39002   5.153   7.145   7.337 -0.2650 -0.9382 -0.9807
 1008MOL0     C39003   5.283   7.209   7.340  0.4940 -0.4699  0.3285
 1008MOL0     C39004   5.387   7.104   7.293 -0.1408 -0.0011  0.6516
 1008MOL0     C39005   5.526   7.148   7.340  0.5293 -0.3145 -0.9017
 1008MOL0     C39006   5.630   7.068   7.279  0.1196  0.2717  0.3410
 1008MOL0     C39007   5.622   6.916   7.304  0.3696 -0.1093  0.4178
 1008MOL0     C39008   5.749   6.853   7.230 -0.8246 -0.1813  0.5495
 1008MOL0     C39009   5.875   6.862   7.316  0.5136 -0.1246 -0.0356
 1008MOL0     C39010   5.846   6.809   7.451 -0.8814  0.7970  0.5378
 1008MOL0    Cl39011   5.990   6.731   7.510 -0.0906  0.1482 -0.2194
 1008MOL0     C39012   5.052   7.364   7.387  0.3348 -0.6538  0.4756
 1008MOL0     C39013   4.940   7.444   7.380 -0.1212 -0.4032  0.7608
 1008MOL0     O39014   4.635   7.367   7.596  0.0837 -0.3849 -0.1299
 1008MOL0     C39015   4.466   7.577   7.374 -0.1790 -0.3928  1.1361
 1008MOL0     C39016   4.348   7.648   7.349  0.7604  0.4508  0.4802
 1008MOL0     N39017   3.810   8.266   7.463 -0.3181  0.4462  0.1561
 1008MOL0     N39018   3.845   8.382   7.436  0.3670  0.1401  0.8982
 1008MOL0     C39019   5.109   8.606   7.044 -0.0696  0.1961  0.2998
 1008MOL0     C39020   5.243   8.579   7.070  0.5808 -0.0075  0.0604
 1008MOL0     C39021   5.652   8.644   7.224  0.0568 -0.0573  0.3385
 1008MOL0     C39022   5.667   8.597   7.354  0.7945 -0.1678 -0.0619
 1008MOL0     C39023   5.788   8.587   7.414 -0.2711  0.5296 -0.0554
 1008MOL0     C39024   5.905   8.627   7.350  0.6993  0.6176 -0.4092
 1008MOL0     O39025   6.028   8.616   7.398  0.1277 -0.3568 -0.1015
 1008MOL0     C39026   6.043   8.596   7.539  1.2197  0.2175 -0.2557
 1008MOL0     C39027   6.192   8.609   7.551  0.4190 -0.0387 -0.6643
 1008MOL0     C39028   6.277   8.511   7.477 -0.1614 -0.4645  0.3675
 1008MOL0     C39029   6.430   8.507   7.521  0.1707 -0.2133 -0.0967
 1008MOL0     C39030   6.502   8.385   7.472  0.0241  0.5710  0.3690
 1008MOL0     C39031   6.550   8.281   7.424 -0.1687  0.0623  0.3480
 1008MOL0     C39032   5.898   8.685   7.215 -0.6642 -0.1981 -0.4531
 1008MOL0     C39033   5.773   8.686   7.147  0.5842 -0.8493  0.3236
 1008MOL0     C39034   5.776   8.759   7.015  0.7536  0.1215  0.4621
 1008MOL0     H39035   5.254   8.619   7.401 -1.7606  3.0817  0.8443
 1008MOL0     H39036   4.989   8.669   7.342 -3.3574  0.3024 -3.1031
 1008MOL0     H39037   4.793   8.758   7.256 -3.3564  0.9392 -0.3168
 1008MOL0     H39038   4.810   8.584   7.291  0.1125  1.4684  0.0606
 1008MOL0     H39039   4.652   8.689   7.061  1.0343 -1.3055  0.6028
 1008MOL0     H39040   4.650   8.521   7.135 -1.4493 -0.8669  2.2900
 1008MOL0     H39041   4.550   8.603   7.336  0.4970  1.7656  1.0074
 1008MOL0     H39042   4.560   8.771   7.282  1.7926  0.6263 -2.3039
 1008MOL0     H39043   4.383   8.726   7.118  2.6876  2.2421  2.1374
 1008MOL0     H39044   4.382   8.554   7.149  1.7404  1.5825 -2.1582
 1008MOL0     H39045   4.308   8.768   7.350 -1.1607  0.9251 -1.2990
 1008MOL0     H39046   4.329   8.609   7.400  3.1663  1.8797 -0.2526
 1008MOL0     H39047   4.078   8.734   7.314 -0.2457  0.4840 -1.5992
 1008MOL0     H39048   4.133   8.665   7.153  3.0415 -0.2561 -0.5049
 1008MOL0     H39049   4.040   8.542   7.418 -2.8732  1.9831 -1.8268
 1008MOL0     H39050   4.142   8.447   7.307  0.8335  0.0252  0.8383
 1008MOL0     H39051   3.878   8.590   7.240  0.6493  1.2780 -1.9962
 1008MOL0     H39052   3.966   8.486   7.133  0.2675  0.2183 -0.0405
 1008MOL0     H39053   3.875   8.215   7.147 -3.2969 -2.9726  0.6906
 1008MOL0     H39054   3.844   7.995   7.266 -0.4185  0.6256  0.0185
 1008MOL0     H39055   3.710   8.009   7.386  0.4717 -1.2487 -0.6807
 1008MOL0     H39056   4.008   8.000   7.456  0.1832 -0.8548  1.0532
 1008MOL0     H39057   3.889   8.011   7.568  1.2553  1.2024 -0.4871
 1008MOL0     H39058   3.815   7.776   7.502 -1.0024 -3.2552 -3.5900
 1008MOL0     H39059   3.909   7.786   7.352 -1.5663  0.6801 -0.5809
 1008MOL0     H39060   4.070   7.819   7.600 -0.7397 -0.2739 -0.3407
 1008MOL0     H39061   4.011   7.660   7.558 -2.9247  0.9984  0.3484
 1008MOL0     H39062   4.251   7.703   7.672  0.8184 -0.9449  2.1860
 1008MOL0     H39063   4.550   7.575   7.794  1.2085  0.4339 -2.6291
 1008MOL0     H39064   4.418   7.453   7.768  0.2528 -0.1045  0.6838
 1008MOL0     H39065   4.377   7.607   7.831 -0.5804  2.5868 -2.5314
 1008MOL0     H39066   4.701   7.201   7.365  0.8806  0.7465  3.0413
 1008MOL0     H39067   4.911   7.057   7.341  0.9399 -0.8661  1.4353
 1008MOL0     H39068   5.288   7.294   7.271 -1.4541 -1.5507 -1.2139
 1008MOL0     H39069   5.291   7.242   7.444 -0.6403 -0.3629  0.3858
 1008MOL0     H39070   5.365   7.007   7.341  3.8577 -0.1354  2.7021
 1008MOL0     H39071   5.392   7.104   7.184 -1.0856  1.7844  0.5817
 1008MOL0     H39072   5.536   7.138   7.449  0.0454 -0.9086 -0.9047
 1008MOL0     H39073   5.529   7.257   7.328 -4.4417  0.1767 -0.0129
 1008MOL0     H39074   5.730   7.110   7.297  1.1644 -1.3767 -1.3076
 1008MOL0     H39075   5.621   7.078   7.170 -3.0061  1.3023  0.5983
 1008MOL0     H39076   5.608   6.887   7.409  0.0183  3.0153  1.3207
 1008MOL0     H39077   5.530   6.878   7.258 -1.7470  2.0179  2.5653
 1008MOL0     H39078   5.766   6.921   7.146 -3.2462  0.3425  0.4151
 1008MOL0     H39079   5.723   6.748   7.214 -2.8920  0.3994 -0.2495
 1008MOL0     H39080   5.912   6.965   7.324 -0.8836  0.2818  1.8294
 1008MOL0     H39081   5.954   6.807   7.266  1.2386  0.6932  0.1779
 1008MOL0     H39082   5.759   6.742   7.443  0.0877 -0.3393 -0.9750
 1008MOL0     H39083   5.833   6.889   7.525  0.5441  0.9657  0.6347
 1008MOL0     H39084   5.140   7.426   7.400 -0.4150  0.8941 -1.3477
 1008MOL0     H39085   4.953   7.552   7.388 -0.8745  0.0717 -2.7324
 1008MOL0     H39086   4.520   7.543   7.286  1.0209 -0.9103  2.0332
 1008MOL0     H39087   4.313   7.669   7.248  2.8827  0.8541 -0.2461
 1008MOL0     H39088   5.066   8.601   6.944  2.6438  1.4542 -1.0429
 1008MOL0     H39089   5.309   8.556   6.987  0.2391  0.0548 -0.2336
 1008MOL0     H39090   5.577   8.581   7.414  2.6600 -1.4725  2.6040
 1008MOL0     H39091   5.795   8.553   7.517  0.6029 -5.4680 -1.7401
 1008MOL0     H39092   5.998   8.683   7.589  1.1041  1.9216 -3.0928
 1008MOL0     H39093   6.002   8.503   7.577  1.2493  1.4225  3.0064
 1008MOL0     H39094   6.229   8.592   7.653 -2.1822 -5.1955 -0.2384
 1008MOL0     H39095   6.230   8.708   7.523 -0.5294  0.8705  1.0845
 1008MOL0     H39096   6.232   8.411   7.484  2.1995 -1.8311 -1.9362
 1008MOL0     H39097   6.284   8.536   7.371  1.6085 -0.5011  0.4395
 1008MOL0     H39098   6.432   8.523   7.630 -3.5962  4.2889 -0.3481
 1008MOL0     H39099   6.481   8.593   7.478 -3.3841  1.4478 -1.4118
 1008MOL0     H39100   6.609   8.198   7.389  1.8067  1.5941 -0.1209
 1008MOL0     H39101   5.993   8.722   7.179  0.8264  1.5657  4.4304
 1008MOL0     H39102   5.720   8.696   6.945  1.5701 -1.4991  1.2290
 1008MOL0     H39103   5.721   8.854   7.017  3.0741  1.5867 -0.7670
 1008MOL0     H39104   5.878   8.770   6.977  0.4869 -2.7869 -1.3782
 1009MOL0     O39105   3.342   4.888   2.173 -0.2445  0.6301  0.2410
 1009MOL0     C39106   3.292   4.783   2.202  0.4293  0.1516 -0.7222
 1009MOL0     O39107   3.359   4.670   2.251  0.1669  0.5283  0.1148
 1009MOL0     C39108   3.479   4.693   2.301  0.6890 -0.4923 -0.6595
 1009MOL0     C39109   3.587   4.712   2.225 -0.2313 -0.6416  0.2705
 1009MOL0     C39110   3.714   4.736   2.284  0.5471  0.7048 -0.7974
 1009MOL0     C39111   3.734   4.741   2.424 -0.1674 -0.0205 -0.8522
 1009MOL0     O39112   3.859   4.760   2.472 -0.1895  0.5182 -0.7707
 1009MOL0     C39113   3.876   4.764   2.615  0.4493  0.5216  0.7441
 1009MOL0     C39114   4.012   4.832   2.642  0.1663 -0.9181  0.1247
 1009MOL0     C39115   4.121   4.732   2.586  0.5458 -0.9420 -0.4243
 1009MOL0     C39116   4.258   4.794   2.609  0.5139  0.0366  0.4168
 1009MOL0     C39117   4.368   4.707   2.537  0.6184  0.1929 -1.0160
 1009MOL0     C39118   4.499   4.775   2.518 -0.0573  0.3417  0.3813
 1009MOL0     C39119   4.584   4.810   2.638  0.1178  0.3768  0.5796
 1009MOL0     C39120   4.645   4.681   2.694  0.8106 -0.0731  0.6960
 1009MOL0     N39121   4.738   4.704   2.799 -0.4264  0.3358  0.4705
 1009MOL0     C39122   4.864   4.757   2.793 -0.1925  0.6845 -0.4783
 1009MOL0     C39123   4.904   4.777   2.917  0.3076 -0.5642  0.9159
 1009MOL0     C39124   5.045   4.821   2.959  0.4909  1.0502 -0.6002
 1009MOL0     C39125   5.151   4.765   2.869 -0.6083  0.2176 -0.1333
 1009MOL0     C39126   5.289   4.781   2.938 -0.1299 -0.2604  0.7624
 1009MOL0     C39127   5.383   4.823   2.820 -0.4511 -0.5593  0.0240
 1009MOL0     O39128   5.529   4.828   2.854  0.5663 -0.1665  0.6356
 1009MOL0     C39129   5.601   4.927   2.793  0.5815  0.3156  0.7258
 1009MOL0     C39130   5.559   5.027   2.693 -0.4534  0.1410 -0.2840
 1009MOL0     C39131   5.649   5.127   2.648  0.7788 -0.2114 -0.7464
 1009MOL0     C39132   5.584   5.232   2.562 -0.4565  0.4618 -0.3908
 1009MOL0     C39133   5.782   5.126   2.690  0.0838 -0.4702  0.1701
 1009MOL0     C39134   5.888   5.234   2.666 -0.2656 -0.5399 -0.2893
 1009MOL0     O39135   5.869   5.337   2.565  0.4216 -0.2754 -0.2232
 1009MOL0     C39136   5.967   5.429   2.549  0.4051  0.3659 -0.0310
 1009MOL0     C39137   6.080   5.408   2.477 -0.2973  0.7018  0.6943
 1009MOL0     C39138   6.182   5.493   2.475 -0.8761 -0.6441 -0.4453
 1009MOL0     C39139   6.175   5.611   2.552 -0.2407  0.8424  0.1560
 1009MOL0     O39140   6.279   5.698   2.563 -0.1655 -0.3850  0.1682
 1009MOL0     C39141   6.247   5.840   2.550 -0.6136 -0.3733  0.7021
 1009MOL0     C39142   6.345   5.899   2.450  0.2803 -0.0473 -0.1865
 1009MOL0     C39143   6.327   6.048   2.426  0.0858 -0.5629 -0.3629
 1009MOL0     C39144   6.383   6.131   2.543  0.0661  0.8227 -0.5797
 1009MOL0     C39145   6.495   6.227   2.509  0.0685  1.5158  0.0947
 1009MOL0     C39146   6.449   6.332   2.399  0.1320 -0.3060 -1.0393
 1009MOL0     C39147   6.530   6.467   2.410  0.6288 -0.4066 -0.1251
 1009MOL0     C39148   6.450   6.576   2.344  0.1086 -0.1433  0.4010
 1009MOL0    Cl39149   6.555   6.737   2.354  0.0529 -0.1965  0.0073
 1009MOL0     C39150   6.064   5.627   2.639 -0.0593 -0.6488  0.2502
 1009MOL0     C39151   5.956   5.539   2.636  0.6201  1.1136  0.1068
 1009MOL0     O39152   5.987   5.232   2.742 -0.3341 -0.2205  0.4317
 1009MOL0     C39153   5.824   5.010   2.754  0.1246 -0.8270 -0.1218
 1009MOL0     C39154   5.736   4.923   2.806  0.2791 -0.6091 -0.1139
 1009MOL0     N39155   4.804   4.741   3.002  0.6483  0.4704  0.2125
 1009MOL0     N39156   4.706   4.705   2.931  0.0293  1.2652 -0.0460
 1009MOL0     C39157   3.615   4.733   2.501  0.2920  0.3891  0.6851
 1009MOL0     C39158   3.488   4.721   2.443  0.1495  0.8508  0.1566
 1009MOL0     C39159   3.142   4.776   2.190  0.0723  0.1848 -0.4088
 1009MOL0     C39160   3.082   4.658   2.241  0.0906 -0.9508  0.4919
 1009MOL0     C39161   2.948   4.623   2.216  0.0333 -0.0735  0.1711
 1009MOL0     C39162   2.860   4.712   2.138  0.0648 -0.3261 -0.1604
 1009MOL0     O39163   2.726   4.680   2.128  0.3608 -0.0736 -0.0628
 1009MOL0     C39164   2.641   4.751   2.040 -1.3559 -0.3803 -0.3883
 1009MOL0     C39165   2.506   4.709   2.027  0.5237 -0.5621 -0.0058
 1009MOL0     C39166   2.427   4.674   2.155 -0.6312 -0.2346  0.2371
 1009MOL0     C39167   2.284   4.635   2.108 -0.2414  0.3413  0.4554
 1009MOL0     C39168   2.216   4.570   2.227 -0.7823  0.0519  0.2510
 1009MOL0     C39169   2.150   4.521   2.319 -0.5565 -0.3505  0.3688
 1009MOL0     C39170   2.916   4.829   2.099 -0.0565 -0.3994 -0.4610
 1009MOL0     C39171   3.049   4.858   2.126 -0.1618  0.2055 -0.3400
 1009MOL0     C39172   3.088   4.991   2.075 -0.2983  0.2715  0.9791
 1009MOL0     H39173   3.581   4.704   2.117  1.3039  1.5331 -0.0475
 1009MOL0     H39174   3.800   4.753   2.219 -0.7367 -0.2506 -2.8307
 1009MOL0     H39175   3.879   4.665   2.661  1.8779  1.0479  1.8743
 1009MOL0     H39176   3.800   4.835   2.651  2.9390  3.7722  0.1231
 1009MOL0     H39177   4.008   4.932   2.599  0.6523 -0.6925  0.5967
 1009MOL0     H39178   4.019   4.849   2.750 -3.9148  1.0482  0.2970
 1009MOL0     H39179   4.106   4.630   2.623  0.2605 -1.6415 -2.3704
 1009MOL0     H39180   4.116   4.716   2.478  0.0108 -0.8678 -0.4158
 1009MOL0     H39181   4.249   4.895   2.568 -1.0146 -0.0382  0.5228
 1009MOL0     H39182   4.280   4.793   2.716  1.6842  0.2068  0.1961
 1009MOL0     H39183   4.331   4.677   2.439 -0.0175  0.1435 -0.7684
 1009MOL0     H39184   4.380   4.613   2.592 -2.1009  0.7576  0.7911
 1009MOL0     H39185   4.558   4.707   2.455 -1.1624  0.1206 -0.4519
 1009MOL0     H39186   4.475   4.869   2.467 -0.7335  1.2378  2.2505
 1009MOL0     H39187   4.517   4.860   2.709 -0.3283  0.5551  0.0385
 1009MOL0     H39188   4.651   4.886   2.598 -0.1446  1.0749  1.4154
 1009MOL0     H39189   4.555   4.636   2.737  0.2428  2.8910  2.9508
 1009MOL0     H39190   4.687   4.613   2.618  0.7541 -2.4400  2.6635
 1009MOL0     H39191   4.916   4.770   2.699  0.6602 -1.3563 -0.3441
 1009MOL0     H39192   5.064   4.789   3.062  2.0937  1.0088 -0.8890
 1009MOL0     H39193   5.042   4.930   2.970 -2.5661  1.2387 -2.2359
 1009MOL0     H39194   5.121   4.664   2.840 -3.1206  1.0797 -0.7413
 1009MOL0     H39195   5.152   4.816   2.772  1.4043  0.5557  0.0192
 1009MOL0     H39196   5.282   4.861   3.012 -3.1143 -1.1820  1.5841
 1009MOL0     H39197   5.317   4.685   2.981  0.0646 -1.0534 -1.0371
 1009MOL0     H39198   5.366   4.765   2.729 -2.1459  2.8578 -2.0521
 1009MOL0     H39199   5.353   4.923   2.787 -1.2841 -0.1214  1.9671
 1009MOL0     H39200   5.455   5.041   2.666 -1.5992  0.6974  3.7717
 1009MOL0     H39201   5.578   5.327   2.616 -0.4886  0.3674 -0.2272
 1009MOL0     H39202   5.490   5.210   2.510  1.2972  1.1451 -4.2519
 1009MOL0     H39203   5.660   5.262   2.489 -0.7040  1.4491 -0.2606
 1009MOL0     H39204   6.094   5.317   2.419  0.6431  0.8598  0.6575
 1009MOL0     H39205   6.272   5.472   2.418 -0.2945 -5.7636  1.7602
 1009MOL0     H39206   6.145   5.844   2.510  0.2188 -3.1610 -2.1434
 1009MOL0     H39207   6.268   5.897   2.641  1.0981 -0.2839  0.2782
 1009MOL0     H39208   6.447   5.886   2.485  0.1897  1.1584  0.5794
 1009MOL0     H39209   6.319   5.858   2.351  1.0108  1.2678 -0.9487
 1009MOL0     H39210   6.221   6.075   2.423  0.5913  3.8346  4.8865
 1009MOL0     H39211   6.366   6.080   2.329  0.4063 -1.7570 -0.6458
 1009MOL0     H39212   6.418   6.070   2.627 -1.0367 -0.2817 -0.8829
 1009MOL0     H39213   6.312   6.208   2.574 -2.5977 -0.7762 -2.2863
 1009MOL0     H39214   6.529   6.272   2.602  3.8631 -0.6296 -0.0556
 1009MOL0     H39215   6.584   6.174   2.474  0.0279  2.2905 -1.2470
 1009MOL0     H39216   6.347   6.357   2.426  0.6895  0.1638  0.7928
 1009MOL0     H39217   6.460   6.281   2.303 -0.2847 -0.1738 -1.1577
 1009MOL0     H39218   6.617   6.461   2.344 -0.1540 -0.9103 -1.1656
 1009MOL0     H39219   6.561   6.496   2.510  3.8630  0.2946 -1.2080
 1009MOL0     H39220   6.357   6.582   2.401 -1.5297 -1.9291 -1.8705
 1009MOL0     H39221   6.435   6.555   2.238  1.5061 -0.5648  0.2700
 1009MOL0     H39222   6.057   5.703   2.717 -3.0077 -2.5411  2.0360
 1009MOL0     H39223   5.883   5.551   2.716  1.9766  1.3682  1.3537
 1009MOL0     H39224   5.931   4.997   2.770  0.4272  3.3607  2.7007
 1009MOL0     H39225   5.784   4.844   2.863 -2.5077 -1.0931  1.8195
 1009MOL0     H39226   3.612   4.733   2.610  0.7230  2.4516  0.7240
 1009MOL0     H39227   3.398   4.739   2.501  0.8983  0.3785  1.5046
 1009MOL0     H39228   3.143   4.587   2.297  1.6841  2.4908  3.6061
 1009MOL0     H39229   2.911   4.533   2.262  0.8263 -0.5618 -0.1225
 1009MOL0     H39230   2.638   4.856   2.071 -1.2336 -0.7701  1.0120
 1009MOL0     H39231   2.683   4.744   1.939  0.8027  0.7371  0.3731
 1009MOL0     H39232   2.520   4.615   1.973 -0.3260 -0.5521 -0.2464
 1009MOL0     H39233   2.450   4.779   1.964  0.9672  1.2330  1.4932
 1009MOL0     H39234   2.478   4.590   2.203 -1.8450  0.4448  2.8727
 1009MOL0     H39235   2.416   4.758   2.224 -2.1965  0.3697 -0.6709
 1009MOL0     H39236   2.285   4.558   2.030 -3.0571  0.7280 -0.0543
 1009MOL0     H39237   2.224   4.721   2.079 -2.0609 -0.2629  2.1839
 1009MOL0     H39238   2.075   4.491   2.390  0.0293 -2.5508  0.1198
 1009MOL0     H39239   2.852   4.903   2.053  0.0374 -0.2454 -0.3419
 1009MOL0     H39240   3.152   4.978   1.987 -0.4964  0.2856  0.8330
 1009MOL0     H39241   3.005   5.057   2.050 -0.6161 -0.0845  1.0811
 1009MOL0     H39242   3.134   5.058   2.148 -1.7187  0.3430  1.8535
 1010MOL0     O39243   8.846   9.102   9.099  0.3981  0.6329 -0.3040
 1010MOL0     C39244   8.763   9.063   9.191 -0.3731 -0.8741 -0.6794
 1010MOL0     O39245   8.773   9.113   9.326  0.1087  0.1610  0.3582
 1010MOL0     C39246   8.886   9.189   9.355  0.1865 -0.4610 -0.4433
 1010MOL0     C39247   9.012   9.171   9.302 -0.5755  0.0878  0.3481
 1010MOL0     C39248   9.112   9.266   9.325  0.7846 -0.0748 -0.0197
 1010MOL0     C39249   9.084   9.389   9.385 -0.5470  0.6753  0.1347
 1010MOL0     O39250   9.173   9.490   9.406  0.2522 -0.3844 -0.5018
 1010MOL0     C39251   9.299   9.500   9.349 -0.9095 -0.3677  0.2574
 1010MOL0     C39252   9.371   9.624   9.392  0.2179 -0.2079 -0.5371
 1010MOL0     C39253   9.507   9.617   9.330 -0.4985 -0.4832  0.0461
 1010MOL0     C39254   9.592   9.740   9.346 -0.3496 -0.4346 -0.2402
 1010MOL0     C39255   9.607   9.794   9.488  0.8002 -0.0299  0.4396
 1010MOL0     C39256   9.680   9.696   9.582  1.5024  0.4795  0.0704
 1010MOL0     C39257   9.706   9.771   9.711 -0.2520  0.5646  0.2311
 1010MOL0     C39258   9.579   9.803   9.797  0.6968 -0.4229 -0.2467
 1010MOL0     N39259   9.600   9.859   9.930 -0.0165 -0.2019 -0.4182
 1010MOL0     C39260   9.654   9.785  10.033  0.5330 -0.0618  0.1244
 1010MOL0     C39261   9.682   9.877  10.132  0.3538  0.7723  0.7253
 1010MOL0     C39262   9.745   9.835  10.257 -0.6866  0.0303  0.3770
 1010MOL0     C39263   9.899   9.873  10.260  1.2370 -0.0596  0.6750
 1010MOL0     C39264   9.940  10.026  10.236  0.6893  0.0519  0.1099
 1010MOL0     C39265  10.086  10.035  10.189 -0.4040 -0.4467 -1.1188
 1010MOL0     O39266  10.149  10.159  10.219  0.1793 -0.2226 -0.1974
 1010MOL0     C39267  10.284  10.174  10.245 -0.4328  0.1651  0.4865
 1010MOL0     C39268  10.314  10.281  10.322  0.0584 -0.1928 -0.0237
 1010MOL0     C39269  10.449  10.316  10.354 -0.1025  0.1742 -0.3459
 1010MOL0     C39270  10.475  10.431  10.445  0.9123  0.1643  0.1544
 1010MOL0     C39271  10.555  10.240  10.300 -0.2316 -0.5945 -0.2390
 1010MOL0     C39272  10.694  10.270  10.330 -0.2339 -0.3934  0.0813
 1010MOL0     O39273  10.737  10.364  10.422  0.1546 -0.7101  0.6209
 1010MOL0     C39274  10.867  10.412  10.401  0.1610 -0.3367 -0.5642
 1010MOL0     C39275  10.895  10.516  10.311  0.8311  0.0038 -0.9192
 1010MOL0     C39276  11.024  10.570  10.313  0.1226 -0.0828 -0.1774
 1010MOL0     C39277  11.125  10.516  10.397 -0.4270  0.0727  0.1428
 1010MOL0     O39278  11.249  10.570  10.411  0.5442 -0.4380 -0.6771
 1010MOL0     C39279  11.269  10.709  10.394 -0.7601 -0.9409  0.0301
 1010MOL0     C39280  11.409  10.742  10.437 -0.4633  0.3315  0.3274
 1010MOL0     C39281  11.519  10.693  10.327  0.9057  0.0047 -0.3431
 1010MOL0     C39282  11.652  10.753  10.363  0.7955  0.3808 -0.4373
 1010MOL0     C39283  11.774  10.714  10.287  0.9358  1.1191 -0.7346
 1010MOL0     C39284  11.891  10.815  10.314  0.2192 -0.3289 -0.8210
 1010MOL0     C39285  12.018  10.751  10.257  0.2688 -0.1261  0.3507
 1010MOL0     C39286  12.109  10.685  10.353  0.1733 -1.2572 -0.7716
 1010MOL0    Cl39287  12.258  10.637  10.269  0.7661  0.5277  0.2775
 1010MOL0     C39288  11.096  10.406  10.471 -0.3557 -0.5299 -0.0101
 1010MOL0     C39289  10.969  10.353  10.476  0.2723  0.3041  0.5983
 1010MOL0     O39290  10.775  10.200  10.266  0.6707 -0.6187 -0.3519
 1010MOL0     C39291  10.515  10.121  10.227 -0.1008  0.1945 -0.0089
 1010MOL0     C39292  10.388  10.087  10.207  0.0472  0.3250 -0.7986
 1010MOL0     N39293   9.621   9.996  10.095 -0.1429  0.0814  0.8043
 1010MOL0     N39294   9.588   9.991   9.973 -0.0782 -0.7484 -0.1934
 1010MOL0     C39295   8.948   9.416   9.427 -0.5604 -0.1772  0.1511
 1010MOL0     C39296   8.852   9.315   9.409  0.2941 -0.4676  0.5298
 1010MOL0     C39297   8.659   8.952   9.159  0.5704  0.1071  0.0867
 1010MOL0     C39298   8.553   8.944   9.243  1.0493  0.4463  0.1697
 1010MOL0     C39299   8.464   8.844   9.235  1.0421 -0.4850 -0.3910
 1010MOL0     C39300   8.465   8.750   9.132 -0.1032 -0.0994  0.5052
 1010MOL0     O39301   8.381   8.649   9.145  0.0218  0.5582  0.1221
 1010MOL0     C39302   8.340   8.588   9.026 -0.2225  0.1446  0.0884
 1010MOL0     C39303   8.232   8.478   9.064  0.9016  0.6170 -0.6454
 1010MOL0     C39304   8.188   8.394   8.948 -0.0117  0.7210 -0.0317
 1010MOL0     C39305   8.057   8.326   8.981  0.0164  0.6295  0.4107
 1010MOL0     C39306   7.954   8.423   8.969  0.0006  0.3107  0.4965
 1010MOL0     C39307   7.863   8.506   8.964  0.3754  0.3567  0.7302
 1010MOL0     C39308   8.572   8.757   9.047  0.6419  0.0973  0.6400
 1010MOL0     C39309   8.659   8.863   9.046  0.9919 -0.5851 -0.2835
 1010MOL0     C39310   8.762   8.877   8.941 -0.5774  0.2743  0.1243
 1010MOL0     H39311   9.027   9.085   9.238 -1.9984  0.3803 -0.4168
 1010MOL0     H39312   9.215   9.260   9.292  0.5472  3.4364 -1.8183
 1010MOL0     H39313   9.285   9.506   9.241 -2.4940  1.1801  0.5007
 1010MOL0     H39314   9.358   9.412   9.374  0.0359  0.0524 -0.4536
 1010MOL0     H39315   9.322   9.713   9.352 -0.7836 -0.1249  0.7922
 1010MOL0     H39316   9.369   9.624   9.502  1.3522 -1.0059 -0.4948
 1010MOL0     H39317   9.564   9.538   9.380 -1.3078 -0.0577  1.7174
 1010MOL0     H39318   9.507   9.588   9.225  0.1162  0.2359 -0.1619
 1010MOL0     H39319   9.697   9.715   9.324  0.3068  1.2031  0.8772
 1010MOL0     H39320   9.556   9.821   9.282  0.3230 -0.6918 -0.9598
 1010MOL0     H39321   9.507   9.817   9.524  1.4625  1.9763  1.1215
 1010MOL0     H39322   9.662   9.889   9.482  3.3719 -1.3654  1.0677
 1010MOL0     H39323   9.614   9.613   9.608  1.7605  1.4281  4.6994
 1010MOL0     H39324   9.772   9.665   9.532 -0.2014 -0.6405 -2.5891
 1010MOL0     H39325   9.762   9.863   9.694 -1.2194  1.4530  1.6441
 1010MOL0     H39326   9.780   9.712   9.766 -0.0758  2.1302  1.7542
 1010MOL0     H39327   9.523   9.874   9.736 -0.7002 -2.1932 -1.1245
 1010MOL0     H39328   9.503   9.724   9.790 -0.9491  0.9577  1.1066
 1010MOL0     H39329   9.673   9.679  10.041 -0.4778 -0.3464 -0.9051
 1010MOL0     H39330   9.734   9.728  10.274 -0.7303  0.3807  2.8118
 1010MOL0     H39331   9.685   9.884  10.334  0.4425  0.4264  1.0292
 1010MOL0     H39332   9.918   9.849  10.365  1.6880  3.0401  1.3844
 1010MOL0     H39333   9.956   9.805  10.196  0.0963 -1.1427  0.7851
 1010MOL0     H39334   9.874  10.059  10.155 -1.6926 -2.0158  1.0742
 1010MOL0     H39335   9.911  10.087  10.322  1.1938  2.0389 -1.0649
 1010MOL0     H39336  10.140   9.953  10.238 -0.6272 -0.6377 -1.1854
 1010MOL0     H39337  10.081  10.016  10.081 -1.5713 -0.0439 -1.1450
 1010MOL0     H39338  10.229  10.345  10.342 -2.0143 -2.8536  0.1702
 1010MOL0     H39339  10.386  10.488  10.472  0.6098 -0.4862  0.5273
 1010MOL0     H39340  10.549  10.500  10.402 -0.8396  1.0385 -1.6094
 1010MOL0     H39341  10.515  10.386  10.536  0.2529  0.4097  0.5638
 1010MOL0     H39342  10.808  10.564  10.266 -1.3981 -1.7050  1.2680
 1010MOL0     H39343  11.049  10.651  10.244  2.3535  0.7439  1.5023
 1010MOL0     H39344  11.254  10.743  10.291 -3.4655 -0.5966  0.4636
 1010MOL0     H39345  11.195  10.766  10.451 -0.3446 -0.0464 -0.3138
 1010MOL0     H39346  11.405  10.851  10.443 -3.0552  0.3490 -0.7326
 1010MOL0     H39347  11.427  10.702  10.537  0.7460  1.4002  0.5667
 1010MOL0     H39348  11.504  10.722  10.222 -2.7925 -2.7705 -0.7958
 1010MOL0     H39349  11.523  10.584  10.337  0.1273 -0.1155 -1.1084
 1010MOL0     H39350  11.686  10.723  10.463 -2.3814 -0.6284  0.4432
 1010MOL0     H39351  11.647  10.862  10.356 -0.6194  0.2510 -2.2032
 1010MOL0     H39352  11.797  10.616  10.330 -0.4682  0.9468 -0.3370
 1010MOL0     H39353  11.769  10.694  10.179  0.2518 -0.6901 -0.4088
 1010MOL0     H39354  11.908  10.849  10.416  4.2498  2.1524 -2.1224
 1010MOL0     H39355  11.863  10.906  10.260  0.1910  0.1926  0.0548
 1010MOL0     H39356  12.083  10.828  10.213  0.7132 -1.0720 -0.6853
 1010MOL0     H39357  11.989  10.686  10.174  0.6134 -1.4869  1.2743
 1010MOL0     H39358  12.070  10.592  10.396 -0.0293 -2.3311 -3.0913
 1010MOL0     H39359  12.131  10.765  10.424  1.0673 -1.3204 -0.9740
 1010MOL0     H39360  11.174  10.367  10.537 -0.9437  0.9927  1.6614
 1010MOL0     H39361  10.947  10.270  10.542 -1.2001  0.8527  0.8320
 1010MOL0     H39362  10.593  10.064  10.176 -1.6749 -0.5903 -1.6475
 1010MOL0     H39363  10.365   9.998  10.151  2.2569 -2.1900  1.9016
 1010MOL0     H39364   8.930   9.517   9.461  2.1523  0.9362 -1.4466
 1010MOL0     H39365   8.746   9.337   9.422 -0.1674 -0.1068 -2.9427
 1010MOL0     H39366   8.534   9.026   9.312 -0.0285 -0.2132  0.6719
 1010MOL0     H39367   8.387   8.843   9.312  1.0380 -0.7646 -0.4000
 1010MOL0     H39368   8.288   8.668   8.973 -1.8456 -0.2647  0.9667
 1010MOL0     H39369   8.421   8.550   8.964 -0.5772 -1.5710  0.6172
 1010MOL0     H39370   8.152   8.523   9.125  1.6460  2.1146 -0.7144
 1010MOL0     H39371   8.272   8.401   9.130 -0.1637 -0.7707 -1.5575
 1010MOL0     H39372   8.183   8.438   8.848  1.0278 -0.1878 -0.5061
 1010MOL0     H39373   8.266   8.318   8.937  1.0703  1.7105  0.6566
 1010MOL0     H39374   8.065   8.263   9.070 -1.2724 -2.3399 -1.4116
 1010MOL0     H39375   8.038   8.251   8.904  0.9735  0.7881 -0.0085
 1010MOL0     H39376   7.788   8.582   8.966 -1.3076 -1.1359 -1.2315
 1010MOL0     H39377   8.590   8.681   8.971 -1.8864 -0.1578  0.2110
 1010MOL0     H39378   8.738   8.814   8.854 -2.1260  0.1898  0.5716
 1010MOL0     H39379   8.764   8.982   8.909  0.7777  0.2472  0.1019
 1010MOL0     H39380   8.859   8.842   8.977 -0.5727 -0.4783 -0.5967
 1011MOL0     O39381   4.207   4.777   5.157 -0.3820 -0.1238  0.1405
 1011MOL0     C39382   4.255   4.754   5.267  0.8794 -0.4726 -0.8680
 1011MOL0     O39383   4.301   4.638   5.308 -0.2918  0.7809 -0.8290
 1011MOL0     C39384   4.308   4.533   5.224 -0.0825  0.4334 -0.4726
 1011MOL0     C39385   4.266   4.407   5.272 -0.9071 -0.5429  0.1136
 1011MOL0     C39386   4.293   4.298   5.203 -0.1224  0.8501  0.9442
 1011MOL0     C39387   4.359   4.304   5.079 -0.3958 -1.1532  0.0900
 1011MOL0     O39388   4.404   4.195   5.005 -0.3469  0.7081  0.1796
 1011MOL0     C39389   4.439   4.079   5.093 -0.6083  0.3613 -0.3180
 1011MOL0     C39390   4.533   3.996   5.005  0.3401 -0.2393  0.4559
 1011MOL0     C39391   4.677   4.024   5.007 -0.1548  0.1629  0.9378
 1011MOL0     C39392   4.715   4.165   4.948 -0.3666 -0.0061 -0.1490
 1011MOL0     C39393   4.863   4.180   4.938 -0.2894  0.5180 -0.2550
 1011MOL0     C39394   4.924   4.297   4.870  0.0309 -0.4111  0.2854
 1011MOL0     C39395   4.874   4.437   4.916 -0.2551  0.4474 -0.2738
 1011MOL0     C39396   4.895   4.465   5.058  0.6098 -0.1044 -0.2219
 1011MOL0     N39397   4.829   4.579   5.116  0.0420  1.0475 -0.5269
 1011MOL0     C39398   4.844   4.709   5.081  0.6333  0.0277 -0.2447
 1011MOL0     C39399   4.737   4.776   5.140 -0.3637 -0.7374 -0.8003
 1011MOL0     C39400   4.713   4.920   5.146  0.1185 -0.4063 -0.0484
 1011MOL0     C39401   4.575   4.971   5.141 -0.2420 -0.7094 -0.7842
 1011MOL0     C39402   4.498   4.964   5.002  0.0199 -0.2077 -0.3050
 1011MOL0     C39403   4.357   5.021   5.003  0.2586 -0.3666  0.1449
 1011MOL0     O39404   4.364   5.165   5.002  0.6462  0.3063 -0.3741
 1011MOL0     C39405   4.294   5.224   5.101 -0.4754 -0.5148  0.1806
 1011MOL0     C39406   4.152   5.237   5.093 -0.2315 -0.0885  0.1462
 1011MOL0     C39407   4.073   5.285   5.197  0.7165  0.0212  0.5234
 1011MOL0     C39408   3.928   5.277   5.163  1.2205 -0.1622  0.3437
 1011MOL0     C39409   4.140   5.322   5.314  0.0827 -0.3439 -0.5459
 1011MOL0     C39410   4.075   5.390   5.433 -0.6951 -0.1236  0.3623
 1011MOL0     O39411   4.148   5.455   5.535 -1.0014 -0.1941  0.4717
 1011MOL0     C39412   4.082   5.538   5.616  1.0192  1.0868 -0.3994
 1011MOL0     C39413   4.039   5.662   5.568 -1.3972 -0.1190 -0.4865
 1011MOL0     C39414   3.978   5.748   5.658  0.4636 -0.1549  0.1500
 1011MOL0     C39415   3.932   5.709   5.785 -0.3826  0.1300  0.5268
 1011MOL0     O39416   3.851   5.793   5.860  0.8589 -0.4726 -0.4728
 1011MOL0     C39417   3.755   5.729   5.951 -0.4649 -0.3375 -0.0141
 1011MOL0     C39418   3.646   5.837   5.974 -0.1067 -0.2343  0.0308
 1011MOL0     C39419   3.537   5.835   5.862  0.0696 -0.2600 -0.0064
 1011MOL0     C39420   3.396   5.808   5.908 -0.3016  0.5252  0.2315
 1011MOL0     C39421   3.289   5.828   5.803 -0.2974 -0.6424  0.9795
 1011MOL0     C39422   3.158   5.781   5.859  0.5039 -0.2903  0.0858
 1011MOL0     C39423   3.047   5.825   5.765 -0.3247  0.0531  0.4932
 1011MOL0     C39424   2.918   5.781   5.822 -0.0612  0.0561  0.3391
 1011MOL0    Cl39425   2.778   5.784   5.713  0.2931  0.0543  0.4349
 1011MOL0     C39426   3.959   5.577   5.824  0.4070 -0.4927  0.7469
 1011MOL0     C39427   4.046   5.491   5.747  0.5926 -0.7492 -0.1183
 1011MOL0     O39428   3.955   5.386   5.441  0.0255  0.3958  0.7933
 1011MOL0     C39429   4.284   5.309   5.325  0.8553 -0.0151  0.1487
 1011MOL0     C39430   4.356   5.260   5.217  0.9215  0.4254 -0.4789
 1011MOL0     N39431   4.663   4.683   5.207 -0.0781 -0.5250 -0.6098
 1011MOL0     N39432   4.710   4.562   5.185 -0.0842  0.0314  0.0205
 1011MOL0     C39433   4.397   4.430   5.037 -0.1309  0.6003  0.1177
 1011MOL0     C39434   4.376   4.540   5.112 -0.0400  0.2439 -0.0104
 1011MOL0     C39435   4.249   4.857   5.374  0.2647  0.0149 -0.5424
 1011MOL0     C39436   4.369   4.871   5.448  0.3782 -0.0205  0.8908
 1011MOL0     C39437   4.371   4.966   5.551  0.0747 -0.1629  0.2158
 1011MOL0     C39438   4.266   5.057   5.572 -0.6728 -0.5006  0.2911
 1011MOL0     O39439   4.277   5.156   5.663 -0.0631  0.3597 -0.0210
 1011MOL0     C39440   4.408   5.197   5.712  0.0861  0.7114 -0.5447
 1011MOL0     C39441   4.392   5.307   5.817  0.4344  0.9354 -0.2007
 1011MOL0     C39442   4.342   5.243   5.950 -0.1466 -0.6824 -0.6424
 1011MOL0     C39443   4.351   5.331   6.078  0.3176 -0.5736  0.0648
 1011MOL0     C39444   4.255   5.448   6.063  0.1086 -0.0115 -0.6541
 1011MOL0     C39445   4.173   5.539   6.064  0.3174  0.4035 -0.1005
 1011MOL0     C39446   4.144   5.028   5.504  0.3847 -0.3820 -0.2304
 1011MOL0     C39447   4.138   4.940   5.398  0.3379  0.9606  0.3395
 1011MOL0     C39448   4.000   4.921   5.319  0.2985  0.7331  0.4696
 1011MOL0     H39449   4.202   4.413   5.360 -0.4964  0.0734  0.3725
 1011MOL0     H39450   4.249   4.205   5.238  2.0272  0.3282  2.5057
 1011MOL0     H39451   4.358   4.013   5.126  0.5025 -0.3641  1.0644
 1011MOL0     H39452   4.500   4.117   5.175 -0.9833  0.5150 -0.1079
 1011MOL0     H39453   4.519   3.891   5.034 -2.1070  0.1282  0.8317
 1011MOL0     H39454   4.493   4.007   4.904 -3.1871  1.4707  1.8773
 1011MOL0     H39455   4.719   4.005   5.106  3.2013  1.7861 -0.0098
 1011MOL0     H39456   4.737   3.962   4.939  2.8629  5.3296 -1.7414
 1011MOL0     H39457   4.671   4.188   4.851 -0.7210  2.1912  0.4904
 1011MOL0     H39458   4.693   4.242   5.022 -1.0774  0.0441 -0.4073
 1011MOL0     H39459   4.909   4.087   4.904  2.4351  1.3290  0.9051
 1011MOL0     H39460   4.898   4.184   5.042 -1.0147  1.1291 -0.0209
 1011MOL0     H39461   5.032   4.303   4.883 -0.0356  2.4679  0.2052
 1011MOL0     H39462   4.894   4.303   4.765  1.1439  1.8538  0.0315
 1011MOL0     H39463   4.767   4.445   4.897 -0.5145 -0.2551  0.7405
 1011MOL0     H39464   4.927   4.506   4.851 -1.7453  0.3798 -1.6261
 1011MOL0     H39465   4.866   4.381   5.123  0.7599  0.2543  0.3188
 1011MOL0     H39466   5.004   4.471   5.073  0.6292  0.5638 -0.6219
 1011MOL0     H39467   4.921   4.750   5.016  0.3393  2.9894  1.1023
 1011MOL0     H39468   4.775   4.973   5.073  0.4689  0.6925  1.0263
 1011MOL0     H39469   4.759   4.959   5.237 -0.2823  2.1014 -0.8378
 1011MOL0     H39470   4.508   4.917   5.207  1.8245 -0.1423  1.9661
 1011MOL0     H39471   4.580   5.076   5.170 -1.9813 -1.1463  1.3561
 1011MOL0     H39472   4.552   5.007   4.917  2.5958 -1.1372  0.7695
 1011MOL0     H39473   4.480   4.858   4.985 -3.6685  0.5144 -1.9153
 1011MOL0     H39474   4.296   4.984   4.920  0.5090  1.0052 -0.6941
 1011MOL0     H39475   4.294   4.988   5.086 -2.5553  0.2586 -1.5903
 1011MOL0     H39476   4.106   5.191   5.006 -0.3275 -1.9930  1.1584
 1011MOL0     H39477   3.866   5.359   5.199 -1.1355 -2.0889  0.9952
 1011MOL0     H39478   3.889   5.182   5.202  0.2156  1.3710  3.3645
 1011MOL0     H39479   3.911   5.280   5.055  0.0813  0.1585  0.5199
 1011MOL0     H39480   4.063   5.706   5.472  0.5814 -0.2938 -0.1187
 1011MOL0     H39481   3.946   5.848   5.631 -2.4458 -0.6091  1.5153
 1011MOL0     H39482   3.711   5.638   5.910 -3.5721  0.4763  1.2521
 1011MOL0     H39483   3.805   5.700   6.044  1.6882  2.9122  0.0220
 1011MOL0     H39484   3.612   5.826   6.077  2.3100  0.4458  0.9878
 1011MOL0     H39485   3.698   5.933   5.966 -0.1227 -0.1313  1.0201
 1011MOL0     H39486   3.563   5.779   5.772 -2.2808 -1.8600  0.2289
 1011MOL0     H39487   3.534   5.939   5.826  1.9263 -0.7751 -1.8252
 1011MOL0     H39488   3.380   5.885   5.984 -1.3052  0.5441  0.0103
 1011MOL0     H39489   3.378   5.706   5.945 -2.7943  0.7621 -0.1486
 1011MOL0     H39490   3.280   5.935   5.784 -0.6438 -0.3222  2.7528
 1011MOL0     H39491   3.306   5.774   5.709 -2.5740  1.7064 -0.9117
 1011MOL0     H39492   3.142   5.823   5.959  2.0665 -1.5016  0.8830
 1011MOL0     H39493   3.163   5.673   5.872  0.7674 -0.6570 -2.5284
 1011MOL0     H39494   3.052   5.778   5.666 -0.7305 -0.3207  0.6445
 1011MOL0     H39495   3.049   5.933   5.748 -0.0144 -0.3441 -2.6620
 1011MOL0     H39496   2.899   5.838   5.913 -3.9067 -1.5975  0.7932
 1011MOL0     H39497   2.915   5.674   5.846  0.0575 -0.6145 -2.3050
 1011MOL0     H39498   3.915   5.538   5.916  0.5735  1.0156  1.4898
 1011MOL0     H39499   4.078   5.393   5.779  1.4358 -0.7902 -1.0433
 1011MOL0     H39500   4.324   5.350   5.417 -1.0929  0.2362  0.9280
 1011MOL0     H39501   4.462   5.236   5.224  1.1609  0.2736 -3.2386
 1011MOL0     H39502   4.450   4.432   4.943 -0.9962 -0.9772 -0.4437
 1011MOL0     H39503   4.420   4.633   5.078  1.8645 -0.5634  0.0939
 1011MOL0     H39504   4.459   4.820   5.415 -1.4717 -2.1800 -1.2555
 1011MOL0     H39505   4.466   4.976   5.604  0.1907 -0.4683  0.0690
 1011MOL0     H39506   4.466   5.114   5.755  1.9362  1.2755 -1.8143
 1011MOL0     H39507   4.472   5.234   5.631  0.4320  0.0660 -0.5775
 1011MOL0     H39508   4.320   5.378   5.777 -0.6109  0.0922  0.1455
 1011MOL0     H39509   4.487   5.360   5.831  0.4686  1.0264 -0.7367
 1011MOL0     H39510   4.243   5.197   5.940  0.4127 -1.3405 -5.3591
 1011MOL0     H39511   4.410   5.159   5.970 -1.6558 -2.2137 -1.6718
 1011MOL0     H39512   4.453   5.370   6.080  0.6958 -1.2240 -2.5844
 1011MOL0     H39513   4.327   5.265   6.162 -2.9030 -0.3461 -0.5588
 1011MOL0     H39514   4.106   5.623   6.072 -1.5037 -0.7891 -1.7244
 1011MOL0     H39515   4.057   5.088   5.530  0.2895 -1.2476  1.6923
 1011MOL0     H39516   4.000   4.949   5.213 -2.4149 -1.4889 -0.2394
 1011MOL0     H39517   3.976   4.815   5.335 -0.6683  1.3839  4.4943
 1011MOL0     H39518   3.921   4.984   5.360 -0.2213  0.1672  0.3571
 1012MOL0     O39519  11.357   4.003   8.972 -0.2689 -0.0709  0.4387
 1012MOL0     C39520  11.285   3.925   8.908  0.2928  1.3071  0.5847
 1012MOL0     O39521  11.291   3.793   8.927  0.2149  0.0820  0.1332
 1012MOL0     C39522  11.382   3.731   9.015 -0.2964  0.0298 -0.1391
 1012MOL0     C39523  11.411   3.764   9.146 -0.0982  0.0846 -0.1918
 1012MOL0     C39524  11.489   3.679   9.222 -0.2715 -0.0515 -1.2363
 1012MOL0     C39525  11.559   3.568   9.171  0.3130  0.2903 -0.2570
 1012MOL0     O39526  11.632   3.484   9.251 -0.0440  0.6822 -0.5479
 1012MOL0     C39527  11.739   3.543   9.322 -1.1711 -0.2228 -0.9347
 1012MOL0     C39528  11.872   3.541   9.234  0.7136 -0.6575  0.0314
 1012MOL0     C39529  11.876   3.650   9.136 -1.5311 -0.3923  1.0780
 1012MOL0     C39530  12.017   3.700   9.120 -0.2256 -0.4163  0.4010
 1012MOL0     C39531  12.124   3.594   9.091  0.3771  0.1935  0.5155
 1012MOL0     C39532  12.108   3.533   8.952 -1.1467  1.0598  0.6906
 1012MOL0     C39533  12.178   3.395   8.936  0.4281  0.0600  0.7361
 1012MOL0     C39534  12.243   3.360   8.797 -0.3341 -0.2168 -0.8753
 1012MOL0     N39535  12.374   3.432   8.793 -0.4226  0.4694  0.3964
 1012MOL0     C39536  12.387   3.560   8.756  0.5531  0.3702 -0.0403
 1012MOL0     C39537  12.518   3.575   8.741  0.0276 -0.9234  0.7383
 1012MOL0     C39538  12.596   3.695   8.688 -0.7671 -0.3230  0.4133
 1012MOL0     C39539  12.608   3.807   8.800  1.0025  0.1098 -0.0052
 1012MOL0     C39540  12.659   3.934   8.724  0.0504 -0.4345  0.3309
 1012MOL0     C39541  12.712   4.028   8.829 -0.6026 -1.6932 -0.1199
 1012MOL0     O39542  12.756   4.145   8.762 -1.0528  0.1479  0.1976
 1012MOL0     C39543  12.676   4.249   8.722 -0.4367  0.6560  0.2180
 1012MOL0     C39544  12.749   4.353   8.659  0.1860  0.4121  0.1732
 1012MOL0     C39545  12.691   4.477   8.617 -0.1923 -0.3969  0.1298
 1012MOL0     C39546  12.790   4.571   8.549 -0.5878  0.5203  0.5368
 1012MOL0     C39547  12.553   4.497   8.636 -1.1291 -0.5632  0.5876
 1012MOL0     C39548  12.476   4.627   8.622  0.7183  0.1595 -0.2465
 1012MOL0     O39549  12.352   4.614   8.546 -1.0306  1.1665 -0.3097
 1012MOL0     C39550  12.243   4.696   8.562 -0.2962 -0.2349 -0.1170
 1012MOL0     C39551  12.129   4.660   8.486  0.4912 -0.1001 -0.1377
 1012MOL0     C39552  12.012   4.733   8.485 -0.0711  0.3558 -0.3146
 1012MOL0     C39553  12.014   4.855   8.553 -0.5304  0.3959  1.1434
 1012MOL0     O39554  11.900   4.934   8.557  0.0281 -0.2901  0.8298
 1012MOL0     C39555  11.865   4.999   8.433  0.0727 -0.4867  0.3671
 1012MOL0     C39556  11.924   5.135   8.431 -0.6499 -0.1954 -0.0674
 1012MOL0     C39557  12.061   5.133   8.365 -0.8151  0.1579  0.7644
 1012MOL0     C39558  12.101   5.279   8.356  0.4742 -0.7629 -0.1347
 1012MOL0     C39559  12.238   5.320   8.300 -0.7635 -0.3480  0.1530
 1012MOL0     C39560  12.253   5.276   8.156  0.1802 -0.9330 -0.7161
 1012MOL0     C39561  12.371   5.353   8.090  0.4325 -0.0902 -0.6093
 1012MOL0     C39562  12.505   5.336   8.160 -0.0724 -0.7272 -0.9582
 1012MOL0    Cl39563  12.532   5.178   8.232  0.2607 -0.3230 -0.3676
 1012MOL0     C39564  12.126   4.905   8.622 -0.9997  0.3759 -0.1661
 1012MOL0     C39565  12.237   4.818   8.637 -0.5822  0.4836 -0.5037
 1012MOL0     O39566  12.516   4.726   8.673 -0.4304 -0.0688  0.0360
 1012MOL0     C39567  12.479   4.397   8.696 -0.3920  0.7824 -0.1152
 1012MOL0     C39568  12.538   4.265   8.734  0.3972 -0.0705  0.2674
 1012MOL0     N39569  12.583   3.460   8.791  0.9850  0.0662 -1.1997
 1012MOL0     N39570  12.492   3.374   8.805 -0.3698  0.2344  0.0455
 1012MOL0     C39571  11.544   3.536   9.036 -0.2635  0.0501 -0.6718
 1012MOL0     C39572  11.450   3.616   8.968 -0.0883  1.1048  0.1492
 1012MOL0     C39573  11.173   3.966   8.813 -0.2397  0.4617  0.3662
 1012MOL0     C39574  11.088   3.860   8.761 -0.5311  0.4048  0.4898
 1012MOL0     C39575  10.980   3.886   8.674 -0.5075 -0.0447  0.2069
 1012MOL0     C39576  10.949   4.015   8.620  0.4962 -0.1434  1.0574
 1012MOL0     O39577  10.847   4.035   8.532  0.1996 -0.3563  0.6796
 1012MOL0     C39578  10.797   4.169   8.494 -0.0457 -0.7641  0.3590
 1012MOL0     C39579  10.677   4.163   8.387  0.1740  0.4015 -0.0712
 1012MOL0     C39580  10.546   4.094   8.433 -0.5628 -0.0036 -0.4705
 1012MOL0     C39581  10.440   4.114   8.326  0.5167  0.6712 -0.0266
 1012MOL0     C39582  10.307   4.134   8.377 -0.3876  0.2411 -0.0294
 1012MOL0     C39583  10.193   4.153   8.430  0.3309  1.0095 -0.2159
 1012MOL0     C39584  11.033   4.117   8.667  0.5596  1.0558  0.1329
 1012MOL0     C39585  11.137   4.094   8.768 -0.3359 -0.8268  1.0716
 1012MOL0     C39586  11.217   4.213   8.815  0.0973 -0.6465 -0.3380
 1012MOL0     H39587  11.368   3.852   9.193 -1.0129 -0.4623  0.0188
 1012MOL0     H39588  11.513   3.702   9.325  1.1174 -0.0281 -1.5392
 1012MOL0     H39589  11.764   3.487   9.413  1.1062 -0.0873 -1.3980
 1012MOL0     H39590  11.722   3.646   9.353 -1.2646  0.5138 -3.2224
 1012MOL0     H39591  11.952   3.547   9.308  0.4925 -1.3607  0.3346
 1012MOL0     H39592  11.877   3.444   9.183 -0.5340 -0.4857 -0.4568
 1012MOL0     H39593  11.847   3.613   9.037  0.2376  0.1226  0.3289
 1012MOL0     H39594  11.813   3.733   9.169  0.3285  1.7485 -0.4326
 1012MOL0     H39595  12.022   3.786   9.053 -2.8848 -1.1160 -0.8550
 1012MOL0     H39596  12.038   3.744   9.218 -0.0472 -0.6588  0.4731
 1012MOL0     H39597  12.122   3.513   9.164  0.4493 -0.0685  0.2325
 1012MOL0     H39598  12.225   3.638   9.093  0.9195 -0.9088 -0.7698
 1012MOL0     H39599  12.002   3.516   8.928 -0.6355 -2.2605  0.3026
 1012MOL0     H39600  12.148   3.610   8.885  1.1613  0.5493  1.3983
 1012MOL0     H39601  12.100   3.327   8.970 -1.0207 -1.0483 -3.9651
 1012MOL0     H39602  12.254   3.380   9.013 -2.0465 -1.0807  3.0867
 1012MOL0     H39603  12.244   3.251   8.786 -1.2059 -0.0876 -2.4654
 1012MOL0     H39604  12.183   3.398   8.714  2.2990  2.3985 -1.7625
 1012MOL0     H39605  12.304   3.627   8.733  0.9425  1.2187  0.9559
 1012MOL0     H39606  12.553   3.744   8.600  1.5522  1.1707  0.0237
 1012MOL0     H39607  12.697   3.678   8.651 -0.9033  3.2972 -2.1239
 1012MOL0     H39608  12.510   3.809   8.849  0.1672 -0.4236 -1.5807
 1012MOL0     H39609  12.686   3.764   8.863  1.9411  0.2936 -1.0085
 1012MOL0     H39610  12.739   3.895   8.661 -0.6737 -0.9636 -0.2816
 1012MOL0     H39611  12.574   3.975   8.669  0.5646  2.8009  1.7058
 1012MOL0     H39612  12.629   4.049   8.898 -0.1313  0.2000 -0.0689
 1012MOL0     H39613  12.796   3.991   8.888 -1.3787 -0.7344  1.6873
 1012MOL0     H39614  12.855   4.342   8.640  0.0047 -1.8125  0.2068
 1012MOL0     H39615  12.774   4.562   8.441  0.2643 -3.5327  0.5745
 1012MOL0     H39616  12.895   4.556   8.576 -0.5562  0.5565  0.4304
 1012MOL0     H39617  12.759   4.669   8.587 -1.3168 -0.5591  2.9356
 1012MOL0     H39618  12.143   4.567   8.432  1.5280 -1.5558  2.4638
 1012MOL0     H39619  11.922   4.706   8.430 -0.9607 -1.8233  1.9948
 1012MOL0     H39620  11.893   4.927   8.357 -2.4351 -0.9886 -0.1900
 1012MOL0     H39621  11.756   5.013   8.441 -0.1066 -1.9387  0.6907
 1012MOL0     H39622  11.862   5.197   8.365  0.6805  1.2372 -0.0345
 1012MOL0     H39623  11.931   5.177   8.531 -2.2814 -0.1908  0.0754
 1012MOL0     H39624  12.049   5.089   8.265  0.4199 -0.8270  1.0291
 1012MOL0     H39625  12.140   5.082   8.420  0.4242 -0.0710 -1.0986
 1012MOL0     H39626  12.100   5.314   8.460 -0.1969 -1.5076  0.1167
 1012MOL0     H39627  12.026   5.344   8.310  0.2396  0.2694  1.6246
 1012MOL0     H39628  12.247   5.428   8.315 -1.7889 -0.2700  0.2851
 1012MOL0     H39629  12.320   5.276   8.357 -0.3135  0.7168  0.3602
 1012MOL0     H39630  12.154   5.300   8.115 -0.3337 -0.3768  0.7794
 1012MOL0     H39631  12.268   5.168   8.144  0.3813 -0.8821 -0.9173
 1012MOL0     H39632  12.337   5.456   8.078  0.9516  0.2946  0.9906
 1012MOL0     H39633  12.391   5.316   7.989  5.6044  1.0143 -0.2601
 1012MOL0     H39634  12.502   5.400   8.249 -2.4540 -1.1592 -0.6693
 1012MOL0     H39635  12.588   5.367   8.096  0.1935  0.6273 -0.0204
 1012MOL0     H39636  12.119   5.000   8.675 -0.7508 -0.9831  2.4444
 1012MOL0     H39637  12.320   4.859   8.694  1.1846  0.1779 -2.7074
 1012MOL0     H39638  12.375   4.404   8.729 -0.2120 -2.7453  1.7316
 1012MOL0     H39639  12.478   4.185   8.776  3.8549 -1.6929  2.6197
 1012MOL0     H39640  11.591   3.454   8.984  1.4424  0.0947  0.6991
 1012MOL0     H39641  11.443   3.592   8.862 -1.3268 -0.0069  0.4567
 1012MOL0     H39642  11.105   3.756   8.785  0.0294  0.0208 -1.3737
 1012MOL0     H39643  10.920   3.799   8.651  0.4819 -0.5067 -0.7682
 1012MOL0     H39644  10.770   4.228   8.582  0.8679 -1.9487  1.4724
 1012MOL0     H39645  10.871   4.234   8.446 -2.2903  2.6003  1.0612
 1012MOL0     H39646  10.707   4.103   8.301 -0.6521 -0.8597  0.4822
 1012MOL0     H39647  10.643   4.262   8.355  1.1813  1.1140  0.9803
 1012MOL0     H39648  10.558   3.986   8.450  2.2631  0.0854 -1.3722
 1012MOL0     H39649  10.507   4.138   8.525  2.2918 -0.7326  1.2081
 1012MOL0     H39650  10.445   4.023   8.265  0.3045  1.2528 -0.9251
 1012MOL0     H39651  10.467   4.196   8.260  0.1558  0.2464 -0.7106
 1012MOL0     H39652  10.097   4.162   8.477  0.7478 -0.3902  1.0072
 1012MOL0     H39653  11.016   4.214   8.622  2.2863  0.9838 -0.7376
 1012MOL0     H39654  11.233   4.216   8.923 -0.1845 -3.2611 -0.1613
 1012MOL0     H39655  11.320   4.211   8.776 -0.3204  0.3404 -1.5641
 1012MOL0     H39656  11.168   4.306   8.786  0.3366  0.0072  1.2886
 1013MOL0     O39657   4.634   0.844   1.401 -0.4160  0.5750 -0.2504
 1013MOL0     C39658   4.602   0.796   1.512  0.4380  0.4329  0.2485
 1013MOL0     O39659   4.685   0.714   1.599  0.3702  0.0481  0.1129
 1013MOL0     C39660   4.823   0.709   1.601 -0.7912 -0.0882 -0.6072
 1013MOL0     C39661   4.885   0.608   1.683 -0.2273 -0.0774 -0.0878
 1013MOL0     C39662   5.021   0.595   1.705 -0.3545 -0.2479  0.0187
 1013MOL0     C39663   5.100   0.685   1.637 -0.3110  0.2257  0.4885
 1013MOL0     O39664   5.232   0.666   1.626 -0.1240 -0.0193 -0.2445
 1013MOL0     C39665   5.291   0.537   1.655 -0.3896 -0.9325  1.5264
 1013MOL0     C39666   5.444   0.550   1.655  0.0177 -0.2548  0.5107
 1013MOL0     C39667   5.495   0.591   1.785 -0.2046  0.3671 -0.3733
 1013MOL0     C39668   5.483   0.472   1.887 -0.2398 -0.9267 -0.3183
 1013MOL0     C39669   5.515   0.506   2.033  1.4111  0.4507  0.5373
 1013MOL0     C39670   5.654   0.547   2.063 -0.5966 -0.3549 -0.1607
 1013MOL0     C39671   5.657   0.703   2.062 -0.1258  0.2420  0.3508
 1013MOL0     C39672   5.805   0.750   2.056 -0.3016  0.1929 -0.4623
 1013MOL0     N39673   5.864   0.720   2.193  0.4459 -0.0515  0.3164
 1013MOL0     C39674   5.853   0.797   2.304  0.0178 -0.4170  0.3937
 1013MOL0     C39675   5.913   0.720   2.398  0.5411 -0.0530  0.5863
 1013MOL0     C39676   5.917   0.737   2.545 -0.0912  0.4925  0.1805
 1013MOL0     C39677   6.055   0.717   2.596 -0.7758 -0.3441 -0.5221
 1013MOL0     C39678   6.053   0.762   2.739 -0.2057  0.1826  0.2009
 1013MOL0     C39679   5.974   0.679   2.834  0.2957  0.6225  0.7673
 1013MOL0     O39680   6.024   0.544   2.833 -0.2135 -0.3802 -0.0587
 1013MOL0     C39681   6.130   0.517   2.920  0.0726 -1.2995  0.3437
 1013MOL0     C39682   6.200   0.612   3.002  0.4791 -0.2097  0.2827
 1013MOL0     C39683   6.298   0.572   3.094  0.3556  0.2788  0.4626
 1013MOL0     C39684   6.366   0.679   3.171 -0.1461 -0.1754 -0.3646
 1013MOL0     C39685   6.330   0.430   3.099 -0.2076 -0.3629 -0.3366
 1013MOL0     C39686   6.419   0.378   3.204 -0.4432  0.2288  0.0350
 1013MOL0     O39687   6.489   0.264   3.182 -0.4702  0.1731 -0.7550
 1013MOL0     C39688   6.588   0.218   3.260 -0.7762  0.0945  0.8988
 1013MOL0     C39689   6.630   0.082   3.265  0.5311  0.3783  0.4794
 1013MOL0     C39690   6.753   0.043   3.328  0.9794  0.3733 -0.0097
 1013MOL0     C39691   6.830   0.133   3.399  0.2311  0.7755  0.3308
 1013MOL0     O39692   6.949   0.098   3.459  0.0669 -0.7829 -0.8987
 1013MOL0     C39693   7.049   0.027   3.388 -0.7138 -0.2718  0.1075
 1013MOL0     C39694   7.184   0.098   3.394  0.3128 -0.1210 -0.1688
 1013MOL0     C39695   7.235   0.113   3.538  1.1469 -1.1711  0.2597
 1013MOL0     C39696   7.366   0.192   3.552  0.1129  0.1171 -0.2270
 1013MOL0     C39697   7.397   0.227   3.700  0.4135 -0.1611  0.3577
 1013MOL0     C39698   7.425   0.103   3.778 -0.2999  0.5412 -0.3793
 1013MOL0     C39699   7.497   0.123   3.908 -0.2401  0.8271 -0.3730
 1013MOL0     C39700   7.650   0.149   3.897 -0.5662 -0.9676 -0.4838
 1013MOL0    Cl39701   7.692   0.321   3.880 -0.4633  0.2630  0.0963
 1013MOL0     C39702   6.794   0.266   3.393 -0.6097 -0.4947 -0.9799
 1013MOL0     C39703   6.675   0.309   3.328  0.3806 -0.5023  0.6132
 1013MOL0     O39704   6.406   0.433   3.307  0.0792 -0.3269 -0.3586
 1013MOL0     C39705   6.265   0.339   3.015 -0.2739 -0.7333 -0.0005
 1013MOL0     C39706   6.167   0.387   2.923 -0.4253  0.1034 -0.2450
 1013MOL0     N39707   5.945   0.602   2.339 -0.1237  0.5943  0.1298
 1013MOL0     N39708   5.920   0.603   2.216  0.8688 -0.1331  0.3167
 1013MOL0     C39709   5.049   0.782   1.552 -0.2267 -0.7284  0.6858
 1013MOL0     C39710   4.908   0.799   1.534 -0.3722  0.0832  0.1702
 1013MOL0     C39711   4.467   0.820   1.554  0.9085 -0.1040 -0.0431
 1013MOL0     C39712   4.428   0.765   1.679 -0.5908 -0.4448 -0.0161
 1013MOL0     C39713   4.297   0.774   1.728  0.2546  0.5251  0.0177
 1013MOL0     C39714   4.186   0.835   1.651 -0.4069 -0.4805 -0.2381
 1013MOL0     O39715   4.062   0.839   1.702  0.5411  0.0525  0.6608
 1013MOL0     C39716   3.966   0.947   1.674  0.5482 -0.7477  0.4445
 1013MOL0     C39717   3.823   0.893   1.684 -0.0360 -0.3172 -0.1221
 1013MOL0     C39718   3.800   0.762   1.606  0.4144  0.5974 -1.2658
 1013MOL0     C39719   3.869   0.759   1.474 -0.5442  0.8034 -0.3510
 1013MOL0     C39720   3.829   0.870   1.386  0.4168 -0.1354  0.1466
 1013MOL0     C39721   3.786   0.973   1.338 -0.5823  0.0761 -0.1748
 1013MOL0     C39722   4.228   0.900   1.532  0.1071 -1.0382 -0.5891
 1013MOL0     C39723   4.357   0.890   1.478  0.0983 -0.2004  0.6497
 1013MOL0     C39724   4.376   0.953   1.338 -0.1247  1.0747  0.5907
 1013MOL0     H39725   4.826   0.541   1.745  1.2501 -0.5723  0.8505
 1013MOL0     H39726   5.063   0.512   1.759  3.8851  1.8068  0.3177
 1013MOL0     H39727   5.263   0.481   1.566 -1.6269  0.1981  1.1641
 1013MOL0     H39728   5.251   0.469   1.731 -2.7608 -2.3193 -0.8198
 1013MOL0     H39729   5.487   0.453   1.627 -1.5524 -1.0151  0.6062
 1013MOL0     H39730   5.459   0.625   1.577 -1.6600 -1.4943 -1.1265
 1013MOL0     H39731   5.594   0.635   1.767 -0.0120 -0.2558 -0.8716
 1013MOL0     H39732   5.429   0.667   1.827 -0.3432 -0.8230  1.7247
 1013MOL0     H39733   5.384   0.426   1.877 -1.4465  1.8605 -3.5867
 1013MOL0     H39734   5.556   0.396   1.857  1.0061  0.5594 -1.2708
 1013MOL0     H39735   5.506   0.410   2.084 -0.5458 -0.8479 -2.0267
 1013MOL0     H39736   5.443   0.569   2.087  1.5517  0.4728  0.7009
 1013MOL0     H39737   5.681   0.506   2.161 -0.7815 -1.2075 -0.4570
 1013MOL0     H39738   5.725   0.503   1.993 -0.2807  1.3976 -0.9929
 1013MOL0     H39739   5.611   0.744   2.152  1.6112  0.9761  0.9395
 1013MOL0     H39740   5.606   0.742   1.973  1.6054 -3.0254 -2.3170
 1013MOL0     H39741   5.867   0.708   1.976  0.6371 -1.5834  1.1200
 1013MOL0     H39742   5.822   0.853   2.023 -0.0914 -1.1354 -5.1658
 1013MOL0     H39743   5.804   0.893   2.320  0.1546 -0.2956  0.1004
 1013MOL0     H39744   5.843   0.666   2.583 -2.2816  1.4931 -1.9663
 1013MOL0     H39745   5.879   0.838   2.562  1.1211  1.5320 -2.6059
 1013MOL0     H39746   6.103   0.619   2.590  1.4030  0.4167  2.2174
 1013MOL0     H39747   6.122   0.773   2.530  1.0189 -3.2683 -1.4027
 1013MOL0     H39748   6.153   0.775   2.781 -0.2798  0.7766  0.1918
 1013MOL0     H39749   6.005   0.860   2.741 -1.4667 -0.4249  0.8923
 1013MOL0     H39750   5.971   0.730   2.930  0.9405  2.1416  0.0167
 1013MOL0     H39751   5.870   0.682   2.800  1.1866  2.7342 -2.1301
 1013MOL0     H39752   6.181   0.718   2.994  1.9503  0.0830  0.3515
 1013MOL0     H39753   6.348   0.778   3.126 -0.2184 -0.0892 -0.1442
 1013MOL0     H39754   6.472   0.655   3.179  1.0184  4.6157  2.3935
 1013MOL0     H39755   6.328   0.689   3.273 -1.0190 -0.2512 -0.6709
 1013MOL0     H39756   6.568   0.020   3.201 -0.0205 -0.4154  1.7281
 1013MOL0     H39757   6.784  -0.059   3.307 -1.7932 -0.8435  1.3581
 1013MOL0     H39758   7.069  -0.073   3.426  1.5676 -0.5982 -1.7192
 1013MOL0     H39759   7.031   0.024   3.280  3.2092 -3.0933 -0.6648
 1013MOL0     H39760   7.264   0.049   3.338 -0.3348  1.1064 -2.2706
 1013MOL0     H39761   7.171   0.199   3.353 -0.7885  0.3982  1.3283
 1013MOL0     H39762   7.260   0.015   3.581  0.9768 -1.5181 -0.4108
 1013MOL0     H39763   7.157   0.168   3.590  2.3528  0.8775  0.0294
 1013MOL0     H39764   7.362   0.285   3.493  3.5881  0.7814  0.3651
 1013MOL0     H39765   7.443   0.127   3.511  0.4743 -0.1401  0.8322
 1013MOL0     H39766   7.477   0.302   3.697  0.7843 -0.5584  0.1562
 1013MOL0     H39767   7.299   0.258   3.738 -1.2589 -3.2355 -1.0522
 1013MOL0     H39768   7.497   0.040   3.724  1.9651  1.8529  0.9123
 1013MOL0     H39769   7.333   0.048   3.797  0.7322 -0.2686  2.9453
 1013MOL0     H39770   7.475   0.039   3.974  1.2624  0.7407  0.0544
 1013MOL0     H39771   7.450   0.211   3.954  0.8044  2.0592 -1.5619
 1013MOL0     H39772   7.679   0.084   3.814 -3.7100 -1.1930 -1.5383
 1013MOL0     H39773   7.699   0.112   3.988 -0.2509 -0.4002 -0.4242
 1013MOL0     H39774   6.861   0.330   3.449 -2.2019 -0.9213  1.5857
 1013MOL0     H39775   6.664   0.417   3.322 -1.5547 -0.6460  0.8932
 1013MOL0     H39776   6.270   0.231   3.021 -0.7038 -0.6873  1.7283
 1013MOL0     H39777   6.116   0.311   2.863  2.8336 -1.2976 -1.4826
 1013MOL0     H39778   5.112   0.842   1.489  0.2879  0.3190  2.1380
 1013MOL0     H39779   4.866   0.872   1.465  3.0450 -1.1925 -3.6314
 1013MOL0     H39780   4.498   0.722   1.750  1.1788  1.8691 -0.2660
 1013MOL0     H39781   4.270   0.730   1.824  0.7818  0.9944  0.3856
 1013MOL0     H39782   3.983   1.031   1.742 -1.3592  3.1019 -3.3853
 1013MOL0     H39783   3.980   0.984   1.572 -0.7830 -2.2087 -0.3185
 1013MOL0     H39784   3.742   0.960   1.657 -0.2447  0.6197  2.4905
 1013MOL0     H39785   3.807   0.879   1.792  1.1923  1.2558  0.3036
 1013MOL0     H39786   3.830   0.671   1.660  0.4782  0.0077 -2.2821
 1013MOL0     H39787   3.695   0.743   1.581  0.5245  0.7745 -1.8652
 1013MOL0     H39788   3.819   0.673   1.431  0.6633 -0.0776 -0.0464
 1013MOL0     H39789   3.977   0.741   1.475 -0.1780  2.2583  2.9454
 1013MOL0     H39790   3.745   1.057   1.286 -0.2032 -0.2128 -0.9718
 1013MOL0     H39791   4.162   0.973   1.486 -1.1358 -1.3330  0.6562
 1013MOL0     H39792   4.445   1.037   1.351  0.5971  0.3887  1.3778
 1013MOL0     H39793   4.420   0.888   1.262 -3.3211  0.7953 -1.1680
 1013MOL0     H39794   4.286   0.996   1.294  0.5685  2.5660  0.5717
 1014MOL0     O39795  10.393   5.429   4.917  0.2311 -0.5509 -0.3749
 1014MOL0     C39796  10.425   5.548   4.905  0.0016 -0.7483  0.0387
 1014MOL0     O39797  10.540   5.610   4.966  0.5183  0.2404  0.6759
 1014MOL0     C39798  10.614   5.531   5.043  0.5898  0.2559  0.4690
 1014MOL0     C39799  10.740   5.516   5.008 -0.6275  0.0100 -0.0487
 1014MOL0     C39800  10.836   5.453   5.091 -0.3265 -0.0466 -0.5532
 1014MOL0     C39801  10.790   5.402   5.211  0.1227  0.3692 -0.5208
 1014MOL0     O39802  10.873   5.326   5.284  0.2238  0.5399 -1.0847
 1014MOL0     C39803  10.848   5.180   5.281  0.1621  0.5258  0.3251
 1014MOL0     C39804  10.884   5.111   5.413  0.1737 -0.0329 -0.7189
 1014MOL0     C39805  10.871   4.955   5.411 -0.2908 -0.3501 -0.2925
 1014MOL0     C39806  11.003   4.874   5.422  0.4340  0.3063 -0.4795
 1014MOL0     C39807  10.977   4.719   5.412 -0.2834  0.7199  0.5156
 1014MOL0     C39808  10.881   4.659   5.526 -0.1738  0.9293 -0.4168
 1014MOL0     C39809  10.920   4.684   5.676  0.2977 -0.0727  0.4907
 1014MOL0     C39810  10.844   4.601   5.778 -0.1539  0.9294  0.8939
 1014MOL0     N39811  10.708   4.569   5.737 -0.2215 -0.2933 -0.6113
 1014MOL0     C39812  10.588   4.630   5.779 -0.2832  0.0381  0.5486
 1014MOL0     C39813  10.490   4.547   5.736 -0.9273  0.5864  0.5127
 1014MOL0     C39814  10.347   4.584   5.747 -0.3953 -0.0803 -0.0704
 1014MOL0     C39815  10.285   4.582   5.887  0.9369 -0.2957 -0.9321
 1014MOL0     C39816  10.287   4.431   5.929 -0.3604  0.5138 -0.7671
 1014MOL0     C39817  10.279   4.418   6.084 -0.3127  0.4544  0.0399
 1014MOL0     O39818  10.373   4.494   6.151  0.0795 -0.7992  0.1614
 1014MOL0     C39819  10.501   4.440   6.159  0.0192 -0.2386 -0.2887
 1014MOL0     C39820  10.523   4.307   6.218  0.1031  0.2814  0.2205
 1014MOL0     C39821  10.651   4.249   6.214  0.1125  0.1639  0.2377
 1014MOL0     C39822  10.658   4.098   6.246  0.0118 -0.0921 -0.0321
 1014MOL0     C39823  10.760   4.321   6.154 -0.5418 -0.4224 -0.2910
 1014MOL0     C39824  10.897   4.260   6.139 -0.3669 -0.0884  0.1467
 1014MOL0     O39825  10.971   4.302   6.030 -0.0865 -0.5234  0.2988
 1014MOL0     C39826  11.101   4.254   6.039  1.3505 -1.0955  0.6529
 1014MOL0     C39827  11.193   4.345   6.096 -0.1820  0.0643 -0.5161
 1014MOL0     C39828  11.322   4.307   6.117  0.0253  1.3879  0.3292
 1014MOL0     C39829  11.363   4.173   6.093  0.5765 -0.4334 -0.0104
 1014MOL0     O39830  11.494   4.127   6.104  0.0647 -0.6526  0.0416
 1014MOL0     C39831  11.606   4.214   6.137  0.1861 -0.2165  0.5044
 1014MOL0     C39832  11.734   4.122   6.130  0.4738 -0.9155  0.2607
 1014MOL0     C39833  11.763   4.090   5.984  1.1977 -0.3879 -0.4011
 1014MOL0     C39834  11.887   4.001   5.973 -0.0384  0.4421 -0.1525
 1014MOL0     C39835  11.932   3.963   5.835  0.0428 -0.4343 -0.1860
 1014MOL0     C39836  11.988   4.079   5.760 -0.1533 -0.2865  0.2005
 1014MOL0     C39837  12.060   4.035   5.638  1.1411 -0.0089  0.1104
 1014MOL0     C39838  12.138   4.158   5.582  1.1069 -0.4252  0.5258
 1014MOL0    Cl39839  12.031   4.296   5.545  0.3767  0.0663 -0.0570
 1014MOL0     C39840  11.267   4.087   6.045  0.8599  0.1783  0.7077
 1014MOL0     C39841  11.129   4.121   6.015  0.2316  0.4487 -0.7117
 1014MOL0     O39842  10.931   4.197   6.245  0.1434 -0.3128  0.7533
 1014MOL0     C39843  10.734   4.444   6.087 -0.1007  0.1741 -0.0170
 1014MOL0     C39844  10.608   4.502   6.095  0.3127 -0.2323 -0.5067
 1014MOL0     N39845  10.548   4.446   5.663 -0.0915  1.0305  0.7778
 1014MOL0     N39846  10.677   4.455   5.673 -0.7296  0.1459  0.9741
 1014MOL0     C39847  10.647   5.390   5.235  0.2658  0.8849 -0.4284
 1014MOL0     C39848  10.574   5.464   5.157  0.9785  0.1609  0.3709
 1014MOL0     C39849  10.332   5.623   4.823 -0.7513 -0.7025 -0.2306
 1014MOL0     C39850  10.198   5.605   4.835  0.1090 -0.2535  0.3992
 1014MOL0     C39851  10.107   5.656   4.743  0.1344  0.5780 -0.2947
 1014MOL0     C39852  10.152   5.722   4.630 -0.7684  0.0908  0.0345
 1014MOL0     O39853  10.069   5.782   4.542 -1.1068  0.7467 -0.0008
 1014MOL0     C39854   9.927   5.782   4.552  0.0022  0.1925 -0.1367
 1014MOL0     C39855   9.854   5.654   4.500 -0.3754 -0.1532  0.0852
 1014MOL0     C39856   9.846   5.633   4.347 -0.4734 -0.2020 -0.7945
 1014MOL0     C39857   9.769   5.502   4.311  0.3739  0.7018 -0.7299
 1014MOL0     C39858   9.619   5.543   4.314  0.4485  1.1153 -1.1236
 1014MOL0     C39859   9.504   5.572   4.280 -0.2360  0.1379  0.2760
 1014MOL0     C39860  10.289   5.752   4.627  0.0849 -0.3232 -0.5913
 1014MOL0     C39861  10.383   5.701   4.717  0.4896 -0.4961 -0.0620
 1014MOL0     C39862  10.528   5.732   4.698  0.0957 -0.5539 -0.3402
 1014MOL0     H39863  10.783   5.567   4.922 -2.8509 -0.3674 -1.4404
 1014MOL0     H39864  10.944   5.443   5.079 -0.3368 -0.3206 -0.4184
 1014MOL0     H39865  10.915   5.145   5.202  2.0950  2.0266  1.2056
 1014MOL0     H39866  10.744   5.163   5.254  0.6314 -1.4524 -0.4138
 1014MOL0     H39867  10.983   5.147   5.442  0.2791 -0.9176  0.0533
 1014MOL0     H39868  10.820   5.151   5.492  1.8229 -0.8781  1.1080
 1014MOL0     H39869  10.804   4.921   5.490 -1.1105  4.4400  1.4226
 1014MOL0     H39870  10.821   4.926   5.318  0.4340 -0.3193 -0.6981
 1014MOL0     H39871  11.075   4.904   5.344  4.9539 -0.1479  3.0731
 1014MOL0     H39872  11.059   4.893   5.514  0.3930  1.6665 -0.7020
 1014MOL0     H39873  11.063   4.653   5.423 -0.1956  0.3330 -1.9202
 1014MOL0     H39874  10.942   4.684   5.315 -0.2084 -2.5548  1.5365
 1014MOL0     H39875  10.781   4.702   5.519 -0.6160  0.0946  0.4131
 1014MOL0     H39876  10.866   4.551   5.519  3.0808  0.4427 -1.5474
 1014MOL0     H39877  10.885   4.788   5.682 -0.4931  0.1003 -3.9891
 1014MOL0     H39878  11.027   4.673   5.692  0.0735 -1.1642  1.3690
 1014MOL0     H39879  10.897   4.508   5.800 -2.5893 -0.5022  0.9900
 1014MOL0     H39880  10.837   4.672   5.861  0.6059  2.4940 -0.3189
 1014MOL0     H39881  10.588   4.720   5.839  2.9178  1.1664 -0.9000
 1014MOL0     H39882  10.298   4.511   5.681  0.4420 -1.5933  0.9117
 1014MOL0     H39883  10.346   4.686   5.709  2.3416  0.8067  1.9143
 1014MOL0     H39884  10.337   4.655   5.950 -1.0729 -0.7324  1.3796
 1014MOL0     H39885  10.185   4.627   5.886  0.0335 -2.2010 -0.9121
 1014MOL0     H39886  10.192   4.389   5.894  0.4451 -3.3593  1.2069
 1014MOL0     H39887  10.363   4.370   5.880 -0.2022 -1.2908  1.5300
 1014MOL0     H39888  10.182   4.448   6.124 -1.2868 -2.8733  0.5329
 1014MOL0     H39889  10.289   4.309   6.097 -0.0580  0.2377 -1.6710
 1014MOL0     H39890  10.447   4.256   6.276  0.1780  0.6042  0.6127
 1014MOL0     H39891  10.553   4.066   6.246 -0.6926  2.0330  0.8886
 1014MOL0     H39892  10.692   4.085   6.349  1.2484 -2.0580 -0.6347
 1014MOL0     H39893  10.716   4.043   6.171 -1.3556  1.3207 -2.2427
 1014MOL0     H39894  11.165   4.446   6.126  1.6156  0.6280 -0.5756
 1014MOL0     H39895  11.395   4.379   6.152 -0.0919  3.0291 -2.4918
 1014MOL0     H39896  11.616   4.299   6.069 -1.2752 -0.2427  0.2371
 1014MOL0     H39897  11.588   4.259   6.235 -0.4765  1.9146 -0.5238
 1014MOL0     H39898  11.813   4.185   6.171  0.2686 -2.0434  2.5694
 1014MOL0     H39899  11.720   4.031   6.189  3.2149 -1.4336  0.2411
 1014MOL0     H39900  11.784   4.174   5.918 -1.2325 -0.9922 -2.1278
 1014MOL0     H39901  11.681   4.036   5.934  0.2614 -1.6126  2.2741
 1014MOL0     H39902  11.872   3.906   6.026  1.9566 -0.0657 -0.4299
 1014MOL0     H39903  11.971   4.055   6.017 -1.0124  0.8447  1.2712
 1014MOL0     H39904  12.013   3.889   5.836  1.1203  0.4394 -4.3831
 1014MOL0     H39905  11.850   3.923   5.774  1.4254  0.0167 -2.4698
 1014MOL0     H39906  12.055   4.142   5.818  0.1472 -0.5718  0.1644
 1014MOL0     H39907  11.901   4.143   5.741  0.3479  0.2211 -0.4298
 1014MOL0     H39908  11.988   3.992   5.568  0.7447 -1.4360  1.3351
 1014MOL0     H39909  12.138   3.959   5.648  1.3416 -0.2882 -2.6240
 1014MOL0     H39910  12.174   4.127   5.483 -2.5375  1.3929 -1.5615
 1014MOL0     H39911  12.216   4.184   5.654 -1.2155 -0.9878  3.4359
 1014MOL0     H39912  11.315   3.993   6.020  1.3944  0.0365  2.2013
 1014MOL0     H39913  11.048   4.056   5.985 -0.9115 -0.5739  3.8952
 1014MOL0     H39914  10.822   4.493   6.046  0.6183 -2.3366 -1.7136
 1014MOL0     H39915  10.579   4.596   6.050 -2.0076 -0.3066  0.6390
 1014MOL0     H39916  10.617   5.342   5.327 -0.3053 -0.6039 -1.3645
 1014MOL0     H39917  10.469   5.483   5.177  1.0357  0.1526  0.6794
 1014MOL0     H39918  10.158   5.542   4.914 -0.1432  0.4976  0.8895
 1014MOL0     H39919  10.002   5.632   4.756  0.7463 -1.2446  2.0116
 1014MOL0     H39920   9.909   5.801   4.658  3.0678 -1.9032  0.9192
 1014MOL0     H39921   9.885   5.856   4.485 -0.6292  0.4125  0.4890
 1014MOL0     H39922   9.749   5.663   4.527 -1.2826 -3.9445 -1.4889
 1014MOL0     H39923   9.882   5.566   4.560  1.4450 -0.7018 -1.4771
 1014MOL0     H39924   9.803   5.727   4.310  1.1518 -0.1072 -2.6229
 1014MOL0     H39925   9.950   5.632   4.312 -0.5049  0.5391 -0.9376
 1014MOL0     H39926   9.788   5.422   4.383 -1.3960  1.2019  0.3426
 1014MOL0     H39927   9.802   5.471   4.211 -3.4799 -0.9640 -1.6757
 1014MOL0     H39928   9.398   5.585   4.271 -0.6820 -0.2613  3.4865
 1014MOL0     H39929  10.314   5.805   4.535 -0.1577  0.5426 -0.1656
 1014MOL0     H39930  10.540   5.746   4.590 -0.7364 -1.1622 -0.5252
 1014MOL0     H39931  10.551   5.823   4.753 -1.8254  0.1419 -0.5870
 1014MOL0     H39932  10.596   5.655   4.734  1.0233  0.1669 -0.5274
 1015MOL0     O39933   5.000   9.875   0.845 -0.7268  0.3526 -0.2936
 1015MOL0     C39934   5.038   9.824   0.742  0.1744  0.6746 -0.8698
 1015MOL0     O39935   4.959   9.811   0.641 -0.4607 -0.3628  0.2455
 1015MOL0     C39936   4.821   9.819   0.653 -0.7145 -0.1045 -0.8375
 1015MOL0     C39937   4.749   9.927   0.711  0.3547  0.2354  0.1742
 1015MOL0     C39938   4.608   9.925   0.725  0.5279 -0.1594 -0.1061
 1015MOL0     C39939   4.536   9.816   0.664 -0.3378  0.5113 -0.4306
 1015MOL0     O39940   4.399   9.804   0.679  0.1486  0.7858 -0.1293
 1015MOL0     C39941   4.325   9.908   0.738 -0.4218  0.3876  0.1136
 1015MOL0     C39942   4.178   9.874   0.722 -0.4024  0.2283 -0.3963
 1015MOL0     C39943   4.101   9.995   0.782  0.0753 -0.1333  0.5987
 1015MOL0     C39944   3.946   9.970   0.785  0.2678 -0.2289  0.5497
 1015MOL0     C39945   3.908   9.871   0.910  0.0341 -1.0134  0.3081
 1015MOL0     C39946   3.763   9.825   0.890 -0.1072  0.6264 -0.0102
 1015MOL0     C39947   3.749   9.705   0.796 -0.8057  0.6320  0.1680
 1015MOL0     C39948   3.601   9.693   0.774  0.0761 -0.5900  0.3099
 1015MOL0     N39949   3.555   9.577   0.691  0.5310  0.2885  0.0558
 1015MOL0     C39950   3.585   9.568   0.554 -0.3789  0.4396  0.5479
 1015MOL0     C39951   3.512   9.465   0.512 -0.1943  0.2086 -0.2408
 1015MOL0     C39952   3.508   9.422   0.367  0.8803 -0.6916 -0.0415
 1015MOL0     C39953   3.636   9.364   0.315 -0.2521 -0.6884  1.1604
 1015MOL0     C39954   3.698   9.271   0.414 -0.8415 -0.3980  0.5632
 1015MOL0     C39955   3.773   9.149   0.343 -0.3576  0.0487 -0.6345
 1015MOL0     O39956   3.886   9.209   0.269  0.5046  0.2639  0.5672
 1015MOL0     C39957   4.023   9.214   0.306  0.0900 -0.0467 -0.3186
 1015MOL0     C39958   4.105   9.291   0.232  0.6880  0.5634 -0.2885
 1015MOL0     C39959   4.239   9.293   0.248 -0.4817 -0.1893 -0.1510
 1015MOL0     C39960   4.304   9.375   0.139  0.1325  0.4322  0.4154
 1015MOL0     C39961   4.302   9.215   0.351  0.9095  0.6435  0.7170
 1015MOL0     C39962   4.452   9.190   0.355  0.5370  0.4717  0.4101
 1015MOL0     O39963   4.488   9.084   0.429  0.3543 -0.6753  0.2415
 1015MOL0     C39964   4.618   9.045   0.437 -0.1416 -0.1332 -1.0077
 1015MOL0     C39965   4.682   9.039   0.563  0.1314 -0.6015 -0.1358
 1015MOL0     C39966   4.809   8.980   0.579  0.3645 -0.4957 -0.0933
 1015MOL0     C39967   4.872   8.915   0.466 -0.5223 -0.3862  0.4590
 1015MOL0     O39968   4.995   8.857   0.499 -0.5228 -0.9531 -0.4397
 1015MOL0     C39969   5.044   8.752   0.419 -0.1804 -0.4904 -0.6214
 1015MOL0     C39970   5.167   8.694   0.494  1.2242 -0.0659 -0.2403
 1015MOL0     C39971   5.273   8.791   0.470  0.0069 -0.6493 -0.0332
 1015MOL0     C39972   5.411   8.725   0.509  0.4826 -0.5318  0.8533
 1015MOL0     C39973   5.515   8.844   0.533 -0.3016  0.3295  0.9492
 1015MOL0     C39974   5.655   8.787   0.564  0.1673 -0.4741  0.4495
 1015MOL0     C39975   5.658   8.713   0.697  0.2836 -0.3047 -0.3521
 1015MOL0     C39976   5.790   8.634   0.716 -0.5394 -0.8065 -0.1461
 1015MOL0    Cl39977   5.929   8.743   0.731  0.0473  0.5357  0.6509
 1015MOL0     C39978   4.796   8.914   0.336 -0.8940  0.0591 -0.4016
 1015MOL0     C39979   4.674   8.982   0.325  0.4243  0.2740  0.0162
 1015MOL0     O39980   4.528   9.267   0.294 -0.9401  0.3251  0.9738
 1015MOL0     C39981   4.214   9.141   0.440  0.6515  0.2775  0.1873
 1015MOL0     C39982   4.077   9.135   0.416 -0.3200 -0.2218 -0.0927
 1015MOL0     N39983   3.456   9.397   0.629 -0.6946 -0.7505  1.1935
 1015MOL0     N39984   3.477   9.473   0.733  1.0574 -0.1411  0.6209
 1015MOL0     C39985   4.607   9.721   0.597 -0.8017  0.0221 -0.1559
 1015MOL0     C39986   4.750   9.716   0.586  0.2104  0.1038 -0.6427
 1015MOL0     C39987   5.182   9.786   0.729 -0.7535  0.1328  0.7834
 1015MOL0     C39988   5.275   9.854   0.815  0.1996  0.6456 -0.5264
 1015MOL0     C39989   5.405   9.832   0.803 -0.4585  0.3258  0.0765
 1015MOL0     C39990   5.458   9.736   0.716 -0.3057 -0.2152  0.1240
 1015MOL0     O39991   5.586   9.703   0.678  0.2706  0.2848 -0.9819
 1015MOL0     C39992   5.685   9.787   0.722  0.2405 -0.7293 -0.7686
 1015MOL0     C39993   5.814   9.761   0.642 -0.1858 -0.5759 -0.1982
 1015MOL0     C39994   5.912   9.876   0.679  0.0955 -0.0609 -0.2403
 1015MOL0     C39995   6.049   9.840   0.644  0.1411 -0.5045 -0.1701
 1015MOL0     C39996   6.140   9.960   0.628 -0.4838  0.0056 -0.2732
 1015MOL0     C39997   6.188  10.068   0.613  0.0135  0.2648  0.2268
 1015MOL0     C39998   5.368   9.666   0.639 -0.1427  1.1122  0.1023
 1015MOL0     C39999   5.232   9.686   0.643 -0.1696  0.0967 -0.9131
 1015MOL0     C40000   5.152   9.627   0.533  0.2122 -0.1933 -0.3407
 1015MOL0     H40001   4.807  10.004   0.760  0.5518  0.0110  0.2943
 1015MOL0     H40002   4.560  10.014   0.764  1.8865  0.8823 -0.7063
 1015MOL0     H40003   4.336   9.999   0.679 -0.1981 -0.7867 -1.7548
 1015MOL0     H40004   4.342   9.922   0.845 -0.5110 -0.3276  0.2258
 1015MOL0     H40005   4.158   9.861   0.615  0.0709  3.0244 -0.8956
 1015MOL0     H40006   4.167   9.784   0.783  1.1475 -0.8407 -1.6342
 1015MOL0     H40007   4.130  10.010   0.887 -0.9693 -1.1280  1.0556
 1015MOL0     H40008   4.119  10.084   0.722 -2.2286  0.1798  0.2969
 1015MOL0     H40009   3.897  10.067   0.800 -0.4241 -0.0177 -2.4546
 1015MOL0     H40010   3.907   9.920   0.696 -1.2312 -0.1717  1.1627
 1015MOL0     H40011   3.923   9.948   0.987  0.0241  0.8246 -1.4556
 1015MOL0     H40012   3.977   9.787   0.918  0.6818 -0.6260 -0.9628
 1015MOL0     H40013   3.721   9.787   0.984  0.1661 -2.3605 -0.9780
 1015MOL0     H40014   3.701   9.911   0.862 -0.6774  0.1728 -0.1538
 1015MOL0     H40015   3.787   9.613   0.843 -3.7772 -1.9526 -2.0176
 1015MOL0     H40016   3.802   9.707   0.700 -1.1980 -0.1948 -0.0855
 1015MOL0     H40017   3.556   9.700   0.873  1.5714 -0.1016  0.9833
 1015MOL0     H40018   3.562   9.782   0.724 -0.5018  0.5569  2.6663
 1015MOL0     H40019   3.633   9.637   0.485  0.0849 -1.0025 -0.6086
 1015MOL0     H40020   3.477   9.502   0.298  1.6148  0.0475  0.4697
 1015MOL0     H40021   3.431   9.345   0.376  1.8001 -1.8235 -1.3578
 1015MOL0     H40022   3.617   9.319   0.216 -1.4629  0.4404  0.8543
 1015MOL0     H40023   3.709   9.441   0.291 -0.5681 -0.2651  1.5543
 1015MOL0     H40024   3.770   9.328   0.473  1.7570 -2.2763 -0.6283
 1015MOL0     H40025   3.616   9.233   0.477 -0.0539  1.5792  2.9119
 1015MOL0     H40026   3.806   9.066   0.406 -1.4254 -0.3816 -0.6113
 1015MOL0     H40027   3.711   9.105   0.265 -0.6036 -0.0024 -0.4115
 1015MOL0     H40028   4.057   9.350   0.154 -0.4466 -1.5129 -1.2273
 1015MOL0     H40029   4.359   9.455   0.190  2.0009 -1.3810  1.3825
 1015MOL0     H40030   4.232   9.420   0.069  0.4327  0.3044  0.0247
 1015MOL0     H40031   4.384   9.329   0.081 -0.2649  0.8964 -0.5170
 1015MOL0     H40032   4.635   9.077   0.653 -0.6402 -3.2037  0.6579
 1015MOL0     H40033   4.864   8.989   0.672  2.1237  1.2308 -1.2285
 1015MOL0     H40034   4.974   8.669   0.409  1.7630 -2.6379  2.0228
 1015MOL0     H40035   5.072   8.797   0.323  0.3634  0.5689  0.0104
 1015MOL0     H40036   5.148   8.699   0.602  1.7798 -1.2519 -0.0644
 1015MOL0     H40037   5.178   8.591   0.457 -0.1566 -0.5371  0.5740
 1015MOL0     H40038   5.254   8.879   0.531  0.6336 -0.8497  0.4638
 1015MOL0     H40039   5.279   8.802   0.361  1.5628 -1.3342 -0.0508
 1015MOL0     H40040   5.436   8.649   0.435  2.5311  1.3544 -0.5104
 1015MOL0     H40041   5.406   8.671   0.604 -0.7345  1.1453  1.7872
 1015MOL0     H40042   5.522   8.908   0.444 -5.1434  0.4413  0.3758
 1015MOL0     H40043   5.467   8.907   0.609 -1.7374  1.0401 -0.4850
 1015MOL0     H40044   5.717   8.876   0.579  1.0086 -0.8384 -0.7212
 1015MOL0     H40045   5.695   8.735   0.477  2.0056  2.1920 -0.4422
 1015MOL0     H40046   5.583   8.636   0.713  0.8192 -0.8626 -0.4758
 1015MOL0     H40047   5.645   8.790   0.774 -1.1515 -0.8469 -0.0271
 1015MOL0     H40048   5.802   8.553   0.643 -1.1857 -3.4849  2.5587
 1015MOL0     H40049   5.792   8.570   0.804  0.3772  0.2156  0.6060
 1015MOL0     H40050   4.839   8.849   0.261 -2.0303 -1.1326 -0.0523
 1015MOL0     H40051   4.621   8.986   0.230 -0.7589 -0.4602  0.6200
 1015MOL0     H40052   4.257   9.072   0.511  1.4966 -0.0926 -0.6567
 1015MOL0     H40053   4.016   9.078   0.486  1.1320  1.6187  2.8433
 1015MOL0     H40054   4.555   9.630   0.567  1.9755 -1.1984 -1.6423
 1015MOL0     H40055   4.807   9.629   0.555  1.8838  0.3087  1.5979
 1015MOL0     H40056   5.237   9.920   0.893  3.2357  1.6227  0.2541
 1015MOL0     H40057   5.473   9.884   0.869 -2.3959  1.5721  1.2006
 1015MOL0     H40058   5.654   9.892   0.710  0.7167 -0.5594 -0.5200
 1015MOL0     H40059   5.699   9.778   0.830 -0.0178 -1.7604 -0.8140
 1015MOL0     H40060   5.796   9.762   0.534 -0.5021 -0.1611 -0.1469
 1015MOL0     H40061   5.857   9.664   0.666 -0.1884 -0.4625  0.2599
 1015MOL0     H40062   5.894   9.962   0.614  0.1433 -0.6305 -1.0185
 1015MOL0     H40063   5.906   9.913   0.782  0.8823 -0.3101 -0.0931
 1015MOL0     H40064   6.050   9.780   0.552  1.1658  1.2761 -1.3778
 1015MOL0     H40065   6.082   9.764   0.716 -0.8979 -2.3778 -1.5798
 1015MOL0     H40066   6.238  10.161   0.595 -1.2977  0.5077 -2.5533
 1015MOL0     H40067   5.415   9.593   0.573 -1.1703  0.6193 -0.1041
 1015MOL0     H40068   5.120   9.705   0.463 -0.6931 -1.7127 -1.6856
 1015MOL0     H40069   5.202   9.545   0.480 -0.0959 -1.2235  0.9180
 1015MOL0     H40070   5.060   9.578   0.567  2.0028 -2.1265  2.1089
 1016MOL0     O40071   8.279   0.181   7.003  0.3485 -1.3787 -0.0301
 1016MOL0     C40072   8.223   0.170   6.894  1.0261 -0.2657 -0.9897
 1016MOL0     O40073   8.228   0.271   6.803  0.8712 -0.3972  0.2681
 1016MOL0     C40074   8.323   0.363   6.808 -0.9491  0.1631 -0.3648
 1016MOL0     C40075   8.343   0.452   6.921  0.6518 -0.2175  0.0687
 1016MOL0     C40076   8.448   0.547   6.914 -0.5419 -0.4694 -0.4103
 1016MOL0     C40077   8.524   0.565   6.794 -0.5592  0.6896  0.2208
 1016MOL0     O40078   8.623   0.654   6.770 -0.1696  0.6983 -0.6417
 1016MOL0     C40079   8.687   0.727   6.881  0.2774 -0.0590 -0.8070
 1016MOL0     C40080   8.696   0.882   6.850 -0.1169  0.0180  0.2369
 1016MOL0     C40081   8.804   0.925   6.748 -0.1275 -0.6222  0.3661
 1016MOL0     C40082   8.800   1.077   6.709 -0.1589  0.2334  0.2382
 1016MOL0     C40083   8.908   1.097   6.599  0.2748 -0.5573 -0.5100
 1016MOL0     C40084   8.896   1.239   6.544  0.1749 -1.0965  0.0108
 1016MOL0     C40085   9.004   1.269   6.441  0.8277 -0.2204  1.0640
 1016MOL0     C40086   8.979   1.398   6.358 -0.3756 -0.3345  0.5177
 1016MOL0     N40087   9.062   1.509   6.410 -0.3133  0.5683 -0.6408
 1016MOL0     C40088   9.159   1.589   6.350 -0.0408 -0.5375  0.3808
 1016MOL0     C40089   9.227   1.655   6.446  0.5731 -0.0347  0.8164
 1016MOL0     C40090   9.329   1.767   6.418  1.0863 -0.2339 -0.5874
 1016MOL0     C40091   9.458   1.744   6.496  0.1895 -1.0052 -0.4749
 1016MOL0     C40092   9.564   1.853   6.502  0.7993  0.0069  0.5435
 1016MOL0     C40093   9.702   1.799   6.530  0.6090 -0.6467  0.2172
 1016MOL0     O40094   9.752   1.731   6.420  0.0597  0.8209 -0.1813
 1016MOL0     C40095   9.878   1.672   6.439  0.8402  0.1400  0.0140
 1016MOL0     C40096   9.961   1.685   6.551  0.1754  0.6335  0.1028
 1016MOL0     C40097  10.075   1.609   6.560  0.6802  0.2360 -0.1979
 1016MOL0     C40098  10.149   1.608   6.692 -0.3285 -0.3627 -0.4486
 1016MOL0     C40099  10.121   1.530   6.452  0.2353  0.4171  0.5080
 1016MOL0     C40100  10.237   1.442   6.441  0.2859  0.3690  0.2980
 1016MOL0     O40101  10.237   1.338   6.352  0.4837 -0.0241 -0.0743
 1016MOL0     C40102  10.352   1.261   6.341 -0.1641  0.7570  0.6630
 1016MOL0     C40103  10.408   1.248   6.212  0.8094 -0.5270  0.2304
 1016MOL0     C40104  10.517   1.168   6.178  0.1086  0.5865 -0.6997
 1016MOL0     C40105  10.586   1.097   6.282 -0.3681 -0.9359 -0.1479
 1016MOL0     O40106  10.693   1.021   6.260  0.0468  0.0419  0.5368
 1016MOL0     C40107  10.719   0.996   6.123 -0.1463 -0.4208  0.3393
 1016MOL0     C40108  10.813   0.879   6.119  0.7031 -0.1049 -0.1580
 1016MOL0     C40109  10.853   0.849   5.969 -0.0072  0.4093  0.0489
 1016MOL0     C40110  10.955   0.737   5.960 -0.1275  0.2238  0.2674
 1016MOL0     C40111  10.980   0.712   5.809 -0.5749  0.2552  0.6703
 1016MOL0     C40112  11.097   0.623   5.783 -0.4230  0.0285  0.1207
 1016MOL0     C40113  11.148   0.644   5.636  0.4539  0.3338 -0.4142
 1016MOL0     C40114  11.300   0.591   5.641  0.3285  0.6783 -0.1430
 1016MOL0    Cl40115  11.293   0.425   5.720  0.1347  0.1005  0.4351
 1016MOL0     C40116  10.529   1.112   6.413  0.4849  0.1236  0.0411
 1016MOL0     C40117  10.408   1.186   6.442 -0.3153  0.3011  0.6439
 1016MOL0     O40118  10.330   1.473   6.510 -0.2538  0.6166 -0.2521
 1016MOL0     C40119  10.048   1.537   6.336  0.0335  1.0710  0.8705
 1016MOL0     C40120   9.931   1.601   6.331 -0.2546 -0.7489  0.7955
 1016MOL0     N40121   9.180   1.620   6.561 -0.2608 -0.5266 -1.1845
 1016MOL0     N40122   9.084   1.539   6.548  0.2303 -0.3838  0.6144
 1016MOL0     C40123   8.505   0.470   6.690  0.9644 -0.2863 -0.3482
 1016MOL0     C40124   8.405   0.373   6.699 -0.7184  0.0086  0.7334
 1016MOL0     C40125   8.141   0.044   6.864  0.3181  0.5555 -0.1114
 1016MOL0     C40126   8.038   0.061   6.770  0.8860 -0.7553  0.2354
 1016MOL0     C40127   7.955  -0.039   6.729 -0.0009 -0.9225  0.6580
 1016MOL0     C40128   7.948  -0.159   6.799 -0.4140 -0.3584 -0.7217
 1016MOL0     O40129   7.850  -0.264   6.783 -0.4078 -0.0825 -0.2723
 1016MOL0     C40130   7.729  -0.208   6.733 -0.1973  0.3363 -0.1298
 1016MOL0     C40131   7.610  -0.304   6.748 -0.1214  0.7849 -0.0626
 1016MOL0     C40132   7.487  -0.226   6.697  0.0223 -0.3426  0.6628
 1016MOL0     C40133   7.362  -0.321   6.709  0.2438  1.0199 -0.0331
 1016MOL0     C40134   7.323  -0.359   6.574 -0.0328  0.2612 -0.6457
 1016MOL0     C40135   7.280  -0.375   6.460  1.0445  1.5073 -1.1298
 1016MOL0     C40136   8.048  -0.171   6.901  0.0325 -0.5093 -0.6013
 1016MOL0     C40137   8.141  -0.071   6.942 -0.6021  1.0895 -0.3509
 1016MOL0     C40138   8.243  -0.105   7.057  0.0439  0.5284  1.2891
 1016MOL0     H40139   8.275   0.450   7.006 -1.0090  1.0381 -1.1590
 1016MOL0     H40140   8.459   0.611   7.001 -0.3687 -3.5535  1.9684
 1016MOL0     H40141   8.795   0.712   6.889  0.3807  0.3156 -1.3910
 1016MOL0     H40142   8.636   0.722   6.977  0.9480 -3.3381 -0.5198
 1016MOL0     H40143   8.604   0.928   6.814  0.4346  0.3735 -0.7863
 1016MOL0     H40144   8.733   0.925   6.943  0.3536 -1.7130  0.8835
 1016MOL0     H40145   8.903   0.897   6.783 -1.5535 -1.4516  4.2910
 1016MOL0     H40146   8.776   0.863   6.662  0.5920 -0.8255  0.2788
 1016MOL0     H40147   8.705   1.109   6.665 -0.4329  0.2984  0.8622
 1016MOL0     H40148   8.813   1.153   6.787 -3.0242  2.8175 -1.5415
 1016MOL0     H40149   8.916   1.022   6.520  3.7817 -0.3278 -0.5228
 1016MOL0     H40150   9.008   1.086   6.641  0.9835  1.9464 -1.3575
 1016MOL0     H40151   8.797   1.250   6.497 -1.6101  1.3511  3.8216
 1016MOL0     H40152   8.893   1.316   6.622 -1.1393  0.5724 -1.5980
 1016MOL0     H40153   9.001   1.186   6.371 -0.2777  0.7214 -0.0517
 1016MOL0     H40154   9.101   1.281   6.490 -0.1391 -0.5275  3.1862
 1016MOL0     H40155   9.004   1.384   6.253  0.4261  1.7036  0.3894
 1016MOL0     H40156   8.874   1.427   6.364 -0.6011 -0.9967 -0.1194
 1016MOL0     H40157   9.181   1.615   6.246  2.6313 -0.3796  0.9246
 1016MOL0     H40158   9.286   1.857   6.462  2.0748 -1.1250  2.4441
 1016MOL0     H40159   9.342   1.768   6.309  1.4315  0.2824 -0.5466
 1016MOL0     H40160   9.414   1.734   6.596  0.9154 -0.1036 -0.0440
 1016MOL0     H40161   9.501   1.646   6.473 -1.6491 -2.1144  0.5698
 1016MOL0     H40162   9.573   1.893   6.401 -3.0935 -1.7834 -0.7023
 1016MOL0     H40163   9.537   1.942   6.561  0.6504 -1.0881  2.1878
 1016MOL0     H40164   9.764   1.882   6.565 -0.1794  1.1928 -2.4008
 1016MOL0     H40165   9.689   1.730   6.614 -0.9566 -0.2174  0.3495
 1016MOL0     H40166   9.936   1.757   6.628  1.1477  1.0894 -0.0020
 1016MOL0     H40167  10.108   1.676   6.767  0.7258  2.1789 -2.0027
 1016MOL0     H40168  10.250   1.648   6.675  0.4476 -2.1120 -0.1455
 1016MOL0     H40169  10.159   1.505   6.726  0.0333 -0.5395 -1.0705
 1016MOL0     H40170  10.358   1.299   6.131  0.9089  1.7579  1.5127
 1016MOL0     H40171  10.550   1.163   6.075  0.6466  2.5570 -0.6693
 1016MOL0     H40172  10.630   0.966   6.067  0.8203 -0.5637 -1.1688
 1016MOL0     H40173  10.756   1.087   6.076  0.8577 -0.7565  0.4649
 1016MOL0     H40174  10.899   0.916   6.175 -0.5784 -0.7833  2.3713
 1016MOL0     H40175  10.772   0.792   6.172  2.4703 -0.4720  0.7026
 1016MOL0     H40176  10.894   0.942   5.927 -1.0399  0.8413 -0.0368
 1016MOL0     H40177  10.762   0.823   5.915 -0.8174 -0.9066  1.9522
 1016MOL0     H40178  10.897   0.651   5.993 -0.8665 -1.0058 -3.8224
 1016MOL0     H40179  11.045   0.761   6.018  0.7785 -1.0581 -0.5715
 1016MOL0     H40180  10.899   0.661   5.757  0.7310 -1.6774  0.3878
 1016MOL0     H40181  10.997   0.807   5.758  0.0676 -0.6097 -0.7881
 1016MOL0     H40182  11.074   0.518   5.802 -3.1594  0.9882  2.9388
 1016MOL0     H40183  11.169   0.650   5.861 -3.1534  0.5507  2.6338
 1016MOL0     H40184  11.152   0.753   5.633 -0.4411  0.4820  1.7482
 1016MOL0     H40185  11.081   0.614   5.555  0.6758  2.8881 -1.6316
 1016MOL0     H40186  11.364   0.657   5.700 -0.3838  0.2082  1.2213
 1016MOL0     H40187  11.334   0.586   5.538  1.7332  0.5214  0.3092
 1016MOL0     H40188  10.581   1.059   6.492 -0.8492 -1.5713 -0.1774
 1016MOL0     H40189  10.371   1.168   6.543 -0.1369  0.3872  0.7262
 1016MOL0     H40190  10.081   1.477   6.252 -1.1878  1.4483  0.0927
 1016MOL0     H40191   9.867   1.590   6.244  0.4733 -1.7188  0.3620
 1016MOL0     H40192   8.564   0.469   6.599 -2.1583 -5.0268 -2.6989
 1016MOL0     H40193   8.384   0.319   6.607 -1.4939  0.9604  0.3279
 1016MOL0     H40194   8.041   0.153   6.713  2.7912  0.5280  2.2175
 1016MOL0     H40195   7.897  -0.023   6.639  2.3134  2.2093 -0.4629
 1016MOL0     H40196   7.705  -0.109   6.773  0.1395  1.6225 -2.8578
 1016MOL0     H40197   7.743  -0.183   6.627 -1.1400  0.0423 -0.3328
 1016MOL0     H40198   7.593  -0.333   6.852  0.5631  0.2745 -0.0909
 1016MOL0     H40199   7.635  -0.395   6.693 -2.0408  1.3880 -2.0830
 1016MOL0     H40200   7.469  -0.146   6.770 -0.1569 -1.1446  1.5126
 1016MOL0     H40201   7.507  -0.181   6.599  0.9815 -1.3048  0.4023
 1016MOL0     H40202   7.277  -0.272   6.756 -1.5203 -0.3679 -1.6202
 1016MOL0     H40203   7.382  -0.417   6.757 -2.3529 -0.9640 -2.5648
 1016MOL0     H40204   7.229  -0.387   6.367 -3.1563  1.5668  0.8983
 1016MOL0     H40205   8.043  -0.261   6.962 -2.0585 -0.8735 -1.2202
 1016MOL0     H40206   8.347  -0.091   7.024  0.2222 -1.4652  0.8571
 1016MOL0     H40207   8.214  -0.034   7.134  0.5277  1.4220  0.6650
 1016MOL0     H40208   8.229  -0.210   7.085  2.8937  0.3778  2.5714
 1017MOL0     O40209   6.032   6.762   5.894 -0.6802 -0.0649 -0.6656
 1017MOL0     C40210   6.070   6.648   5.881  0.4247 -1.1827 -0.8341
 1017MOL0     O40211   6.199   6.611   5.836 -0.0291 -0.0705  0.6047
 1017MOL0     C40212   6.284   6.704   5.778 -0.0921  0.0536  0.8669
 1017MOL0     C40213   6.418   6.689   5.793 -0.7269 -1.0869 -0.0995
 1017MOL0     C40214   6.516   6.786   5.765 -0.1468 -0.7665  0.1661
 1017MOL0     C40215   6.467   6.906   5.701 -0.5375  0.3167 -0.0930
 1017MOL0     O40216   6.562   6.998   5.657 -0.2577 -0.2797 -0.2408
 1017MOL0     C40217   6.536   7.119   5.585  0.9804  0.4341  0.1750
 1017MOL0     C40218   6.664   7.199   5.544 -0.7636 -0.3021 -1.3234
 1017MOL0     C40219   6.742   7.111   5.449  0.0471 -0.3429  0.1210
 1017MOL0     C40220   6.878   7.192   5.418  0.2367  1.4948 -0.1221
 1017MOL0     C40221   6.952   7.138   5.292 -0.0519  1.2330 -0.9861
 1017MOL0     C40222   7.101   7.185   5.290  0.3837 -0.3032 -0.0165
 1017MOL0     C40223   7.177   7.135   5.171  0.0944  1.3947 -0.5945
 1017MOL0     C40224   7.312   7.213   5.172 -0.0209 -0.2322 -0.4487
 1017MOL0     N40225   7.380   7.160   5.056  0.1288  0.7034  1.0238
 1017MOL0     C40226   7.394   7.212   4.931 -0.4743  0.3080 -0.1014
 1017MOL0     C40227   7.447   7.119   4.849  0.4920  0.1444  0.1004
 1017MOL0     C40228   7.470   7.132   4.700  0.9752 -0.5918  0.9291
 1017MOL0     C40229   7.616   7.128   4.658  0.2365 -0.9375 -0.3346
 1017MOL0     C40230   7.681   7.276   4.674  0.2743  0.7727 -0.6222
 1017MOL0     C40231   7.831   7.269   4.644 -0.2446 -0.0650  0.6786
 1017MOL0     O40232   7.905   7.218   4.761 -0.2269 -0.4532 -0.2667
 1017MOL0     C40233   8.034   7.258   4.781  0.5110 -0.2897 -0.4853
 1017MOL0     C40234   8.084   7.212   4.903  0.3128 -0.5136 -0.1343
 1017MOL0     C40235   8.208   7.249   4.941 -0.9645 -0.1417  0.4049
 1017MOL0     C40236   8.232   7.227   5.091 -0.0694  0.3164 -0.4381
 1017MOL0     C40237   8.301   7.320   4.859  0.9408 -0.0843 -0.1606
 1017MOL0     C40238   8.441   7.367   4.908  0.6501  0.7587  0.1741
 1017MOL0     O40239   8.506   7.454   4.827  0.0307 -0.1234 -0.8716
 1017MOL0     C40240   8.624   7.490   4.872  0.5637  0.5898 -0.8539
 1017MOL0     C40241   8.740   7.416   4.849 -0.5160 -0.2581  0.3433
 1017MOL0     C40242   8.862   7.474   4.880  0.2893  0.0988  0.1188
 1017MOL0     C40243   8.859   7.604   4.935 -0.2262  0.2798 -0.3922
 1017MOL0     O40244   8.983   7.662   4.960  0.2795 -0.2650  0.3812
 1017MOL0     C40245   9.014   7.671   5.106 -0.2432 -0.0585 -0.9893
 1017MOL0     C40246   9.159   7.704   5.129  0.3077  0.1212 -0.2237
 1017MOL0     C40247   9.257   7.622   5.055 -0.1352 -0.1112  0.1538
 1017MOL0     C40248   9.400   7.676   5.076 -0.0854  0.4279  0.3546
 1017MOL0     C40249   9.507   7.595   4.999  0.0630  0.5602  0.1573
 1017MOL0     C40250   9.647   7.635   5.030 -0.4910 -0.2547 -0.4154
 1017MOL0     C40251   9.756   7.592   4.939 -0.2267  0.0493 -0.2606
 1017MOL0     C40252   9.780   7.438   4.941  0.1977  0.7372  0.5488
 1017MOL0    Cl40253   9.900   7.385   4.820 -0.5798  0.1451  0.6695
 1017MOL0     C40254   8.743   7.670   4.969 -0.7891 -0.1315 -1.4017
 1017MOL0     C40255   8.625   7.613   4.932  0.1078  0.4932 -0.0283
 1017MOL0     O40256   8.485   7.314   5.009  0.4223 -0.0337  0.4554
 1017MOL0     C40257   8.247   7.377   4.738  0.1411 -0.0890 -0.0984
 1017MOL0     C40258   8.120   7.337   4.694  0.8984  0.2924  0.2615
 1017MOL0     N40259   7.460   7.008   4.932 -0.3330  0.2179 -0.4358
 1017MOL0     N40260   7.435   7.036   5.057 -0.5555 -0.0239 -0.4558
 1017MOL0     C40261   6.333   6.925   5.681  0.3505  0.1079 -0.6693
 1017MOL0     C40262   6.243   6.824   5.719  0.0667 -1.3176 -0.4193
 1017MOL0     C40263   5.988   6.540   5.941  0.4607  0.4929 -0.4496
 1017MOL0     C40264   6.055   6.428   5.993  0.1691  0.0427  0.0288
 1017MOL0     C40265   5.988   6.329   6.068 -0.2820 -0.0493  0.4410
 1017MOL0     C40266   5.852   6.331   6.083 -0.5796  0.1089 -0.3111
 1017MOL0     O40267   5.790   6.230   6.156  0.1666  0.3703 -0.4113
 1017MOL0     C40268   5.652   6.186   6.111  0.3945  0.4363 -0.5299
 1017MOL0     C40269   5.662   6.157   5.964 -0.0516 -0.2174  0.5699
 1017MOL0     C40270   5.555   6.073   5.912 -0.1165 -0.1952  0.4933
 1017MOL0     C40271   5.580   6.049   5.760 -0.0260  0.3860  0.1707
 1017MOL0     C40272   5.492   5.940   5.711 -0.2795  0.0352  0.3579
 1017MOL0     C40273   5.410   5.879   5.648 -0.4152  1.3909  0.4028
 1017MOL0     C40274   5.780   6.437   6.033 -0.2089 -0.5651  0.7625
 1017MOL0     C40275   5.847   6.544   5.962  0.3656 -0.0682  0.0379
 1017MOL0     C40276   5.753   6.648   5.895  0.0779 -0.2427 -0.3817
 1017MOL0     H40277   6.463   6.602   5.839 -1.1101 -1.3751 -0.2733
 1017MOL0     H40278   6.622   6.777   5.783 -0.0058  0.5579  0.0914
 1017MOL0     H40279   6.482   7.176   5.661  0.5246 -1.6775  1.5025
 1017MOL0     H40280   6.479   7.087   5.498  1.2696 -0.7653  0.4072
 1017MOL0     H40281   6.625   7.292   5.503 -1.0859  0.8401  1.3696
 1017MOL0     H40282   6.720   7.229   5.633 -1.0553 -3.6077  0.1369
 1017MOL0     H40283   6.757   7.012   5.495  1.5893 -0.0851  0.2277
 1017MOL0     H40284   6.698   7.107   5.349 -3.5313  0.6517  1.5099
 1017MOL0     H40285   6.840   7.294   5.408 -0.8990  0.9834 -1.1573
 1017MOL0     H40286   6.945   7.192   5.505  0.8751  0.1798 -0.5882
 1017MOL0     H40287   6.893   7.169   5.205 -0.5450  0.6667 -0.8625
 1017MOL0     H40288   6.956   7.029   5.283 -0.4873  0.8603  2.1308
 1017MOL0     H40289   7.090   7.293   5.280 -1.9450 -0.5058 -0.0374
 1017MOL0     H40290   7.162   7.160   5.378  1.8646  0.1255 -0.8738
 1017MOL0     H40291   7.119   7.162   5.081 -2.6520 -0.7278  0.3890
 1017MOL0     H40292   7.204   7.029   5.163  2.3353  1.9975 -1.8980
 1017MOL0     H40293   7.308   7.322   5.177  1.1848 -0.2209  1.1425
 1017MOL0     H40294   7.370   7.196   5.264 -1.1388  0.7187  0.4574
 1017MOL0     H40295   7.362   7.310   4.897 -0.4809 -0.6796 -3.1694
 1017MOL0     H40296   7.435   7.230   4.667  1.5826  1.1051  4.8284
 1017MOL0     H40297   7.425   7.044   4.651  1.5576 -0.0876 -0.5650
 1017MOL0     H40298   7.676   7.062   4.720  0.6923 -2.2456 -2.0842
 1017MOL0     H40299   7.618   7.092   4.555 -1.9656 -1.6646 -0.1744
 1017MOL0     H40300   7.639   7.338   4.594 -1.2235  0.5491 -0.0599
 1017MOL0     H40301   7.660   7.324   4.770  0.5074 -0.4269  0.0523
 1017MOL0     H40302   7.861   7.212   4.556  0.9979 -2.4038  2.5137
 1017MOL0     H40303   7.864   7.374   4.645  0.5624 -0.3041  0.0757
 1017MOL0     H40304   8.008   7.161   4.960  0.7035  1.8545  2.7691
 1017MOL0     H40305   8.313   7.160   5.119 -1.2412  0.0202  2.7157
 1017MOL0     H40306   8.144   7.175   5.130 -1.4831  1.4677 -1.9206
 1017MOL0     H40307   8.246   7.322   5.143  1.0416 -1.2330  2.2851
 1017MOL0     H40308   8.735   7.324   4.792 -0.5207  0.9648 -1.7716
 1017MOL0     H40309   8.963   7.441   4.857  0.8500  2.7659 -1.6767
 1017MOL0     H40310   8.936   7.732   5.151  0.4705  1.0534 -1.2278
 1017MOL0     H40311   8.997   7.570   5.146 -2.1828  0.2819 -0.8419
 1017MOL0     H40312   9.168   7.811   5.109  1.9796  0.2729  1.1182
 1017MOL0     H40313   9.172   7.690   5.236  2.6451 -0.1615 -0.4843
 1017MOL0     H40314   9.235   7.638   4.949  0.3231 -1.5634 -0.1725
 1017MOL0     H40315   9.246   7.514   5.067 -0.3658 -0.0004  1.0293
 1017MOL0     H40316   9.427   7.651   5.180  1.0001 -0.9047 -0.2003
 1017MOL0     H40317   9.404   7.784   5.061 -3.9150  0.6547  0.1387
 1017MOL0     H40318   9.489   7.487   5.004  0.1468  0.5139 -0.4952
 1017MOL0     H40319   9.486   7.615   4.894 -1.3465 -1.1991  0.0488
 1017MOL0     H40320   9.667   7.596   5.130  1.0061  1.0138 -0.1751
 1017MOL0     H40321   9.653   7.744   5.035  0.8700 -0.2371 -1.6451
 1017MOL0     H40322   9.848   7.647   4.964  0.4816 -0.2802 -1.9858
 1017MOL0     H40323   9.723   7.629   4.842 -1.7997  0.8176  0.5350
 1017MOL0     H40324   9.681   7.396   4.921  0.1870  0.3450  1.3428
 1017MOL0     H40325   9.819   7.402   5.037 -0.3177 -0.1296  0.4475
 1017MOL0     H40326   8.750   7.764   5.023 -0.3475 -1.4184  0.9296
 1017MOL0     H40327   8.532   7.670   4.930 -1.6939 -2.1324  1.6235
 1017MOL0     H40328   8.308   7.440   4.674 -2.2716  2.7353  0.1742
 1017MOL0     H40329   8.078   7.379   4.604  1.1552  0.9511  0.4460
 1017MOL0     H40330   6.297   7.021   5.644 -1.6616 -0.3743 -0.0838
 1017MOL0     H40331   6.138   6.844   5.699  0.2533  0.5164  0.1715
 1017MOL0     H40332   6.162   6.410   5.984  0.3162  1.5111 -1.6154
 1017MOL0     H40333   6.052   6.263   6.124  2.1804  1.5085 -0.3999
 1017MOL0     H40334   5.626   6.096   6.168 -3.2077  0.8193 -1.3700
 1017MOL0     H40335   5.571   6.257   6.125  0.7788  0.4980  1.8882
 1017MOL0     H40336   5.764   6.119   5.954  0.3155  0.9499 -0.3245
 1017MOL0     H40337   5.654   6.249   5.905 -0.1463 -0.0334  0.8639
 1017MOL0     H40338   5.556   5.973   5.957  1.2273  0.2611  1.5324
 1017MOL0     H40339   5.457   6.118   5.931  0.0291  0.5125 -0.3503
 1017MOL0     H40340   5.683   6.013   5.748 -0.7635 -1.0345 -3.5291
 1017MOL0     H40341   5.556   6.143   5.709  0.2979 -0.4934 -1.7075
 1017MOL0     H40342   5.348   5.815   5.589 -1.1360  1.5097  1.0059
 1017MOL0     H40343   5.674   6.439   6.056  0.2528 -0.1056  3.1743
 1017MOL0     H40344   5.812   6.702   5.820  0.8963  1.8500  1.6300
 1017MOL0     H40345   5.669   6.601   5.844  0.4687  0.7808 -2.0796
 1017MOL0     H40346   5.708   6.717   5.967 -0.8926  1.0189 -2.0943
 1018MOL0     O40347   4.790   4.491   8.121 -0.2797 -0.9673 -0.4112
 1018MOL0     C40348   4.752   4.417   8.204 -0.2998  1.2876 -0.2376
 1018MOL0     O40349   4.804   4.289   8.217  0.0599 -0.4214 -0.0787
 1018MOL0     C40350   4.938   4.268   8.192 -0.1478 -0.1839  0.4537
 1018MOL0     C40351   4.984   4.260   8.062  0.1247 -0.7167  0.7570
 1018MOL0     C40352   5.117   4.233   8.033  0.1310 -0.1044 -0.3087
 1018MOL0     C40353   5.214   4.242   8.135  1.6875 -0.0381 -0.0835
 1018MOL0     O40354   5.347   4.207   8.118  0.4295 -1.4805 -0.3532
 1018MOL0     C40355   5.399   4.184   7.986  0.6379  0.1418 -0.0173
 1018MOL0     C40356   5.547   4.180   7.996  0.7227 -0.1241  0.2142
 1018MOL0     C40357   5.596   4.328   7.987  0.4318 -0.4513 -0.6772
 1018MOL0     C40358   5.753   4.339   7.978 -0.0923 -0.4531 -0.9169
 1018MOL0     C40359   5.811   4.445   8.077 -0.8717 -0.8603  0.6923
 1018MOL0     C40360   5.965   4.443   8.059 -0.1921  0.1905 -0.8810
 1018MOL0     C40361   6.031   4.502   7.927  0.6313  0.0737 -0.5677
 1018MOL0     C40362   6.189   4.502   7.951 -0.1586 -0.0896  0.1913
 1018MOL0     N40363   6.278   4.564   7.852 -0.5435  0.0709 -0.1464
 1018MOL0     C40364   6.371   4.666   7.865  0.8305 -0.3213  1.0171
 1018MOL0     C40365   6.425   4.681   7.751 -0.6912  0.5987 -0.1379
 1018MOL0     C40366   6.513   4.789   7.696  0.8622 -0.6559 -0.1103
 1018MOL0     C40367   6.644   4.723   7.652 -0.2154 -0.0629 -0.0295
 1018MOL0     C40368   6.761   4.749   7.750 -0.6332 -0.3321  1.2523
 1018MOL0     C40369   6.887   4.788   7.688 -1.0037  0.3757  0.4232
 1018MOL0     O40370   6.995   4.826   7.793  0.3629  0.1403 -0.9806
 1018MOL0     C40371   7.125   4.868   7.752  0.1411 -0.2057 -0.5529
 1018MOL0     C40372   7.213   4.919   7.845  0.6999  0.1428 -0.2827
 1018MOL0     C40373   7.338   4.965   7.811  0.3666  0.2589  0.9900
 1018MOL0     C40374   7.422   5.006   7.922  0.7299  0.0436  0.5235
 1018MOL0     C40375   7.381   4.973   7.674 -0.0047  0.0143 -0.7925
 1018MOL0     C40376   7.516   5.014   7.628  0.2376 -0.1229  0.0481
 1018MOL0     O40377   7.555   4.960   7.515 -0.3086  0.6813  0.3311
 1018MOL0     C40378   7.679   5.004   7.460  0.6102  0.5923 -0.1261
 1018MOL0     C40379   7.801   4.940   7.491 -0.7615 -0.0091  0.4701
 1018MOL0     C40380   7.920   4.987   7.433 -0.5590  0.4203 -0.6105
 1018MOL0     C40381   7.917   5.089   7.341 -0.0843  0.0971  0.4751
 1018MOL0     O40382   8.035   5.117   7.283  0.2329  0.0690  0.0680
 1018MOL0     C40383   8.050   5.251   7.230  0.0632 -0.2002  0.9140
 1018MOL0     C40384   8.199   5.293   7.238  0.0524  0.0356 -0.0898
 1018MOL0     C40385   8.267   5.243   7.114  0.1693 -0.6976  0.1982
 1018MOL0     C40386   8.412   5.213   7.138 -0.6567 -0.5437 -0.9570
 1018MOL0     C40387   8.483   5.149   7.016  0.2429  0.0389 -0.3344
 1018MOL0     C40388   8.446   5.205   6.884 -0.4008 -0.5478  0.5248
 1018MOL0     C40389   8.573   5.200   6.797 -0.6736 -0.2693  0.0240
 1018MOL0     C40390   8.573   5.082   6.706 -0.0192 -0.3477  0.0799
 1018MOL0    Cl40391   8.651   4.943   6.784  0.0029 -0.2637 -0.6066
 1018MOL0     C40392   7.794   5.136   7.298 -1.3236  0.2040 -0.4538
 1018MOL0     C40393   7.676   5.103   7.362  0.2579 -0.2702 -0.1266
 1018MOL0     O40394   7.586   5.085   7.703  0.0421  0.0949 -0.5652
 1018MOL0     C40395   7.284   4.927   7.581  0.6969  0.1239  0.4381
 1018MOL0     C40396   7.162   4.875   7.620  0.5397  0.1836  0.7129
 1018MOL0     N40397   6.378   4.577   7.673 -0.5078 -0.5504  0.6594
 1018MOL0     N40398   6.288   4.516   7.724 -0.4620 -0.0220 -0.0620
 1018MOL0     C40399   5.167   4.264   8.270 -0.8229 -0.3031  0.0309
 1018MOL0     C40400   5.035   4.277   8.303  1.4024  0.9188  0.0051
 1018MOL0     C40401   4.635   4.454   8.279 -0.5426 -0.2131 -0.7680
 1018MOL0     C40402   4.612   4.380   8.393 -0.1484  0.5183  0.4043
 1018MOL0     C40403   4.495   4.398   8.465 -0.3128  0.7436 -0.2520
 1018MOL0     C40404   4.391   4.487   8.428  0.3006 -0.4593  0.2213
 1018MOL0     O40405   4.274   4.498   8.505 -0.2176  0.2653  0.1352
 1018MOL0     C40406   4.148   4.543   8.452  0.3592 -0.5944 -0.3470
 1018MOL0     C40407   4.073   4.425   8.382 -0.1303  0.1358  0.4306
 1018MOL0     C40408   3.957   4.471   8.293  0.1900  0.7729  0.3871
 1018MOL0     C40409   3.901   4.374   8.191 -0.1020 -0.0447 -0.0910
 1018MOL0     C40410   3.818   4.273   8.264  0.1005 -0.1501 -0.0179
 1018MOL0     C40411   3.759   4.188   8.327 -0.7421 -0.0154 -0.2178
 1018MOL0     C40412   4.423   4.566   8.320  0.2500  0.6531  0.6726
 1018MOL0     C40413   4.538   4.553   8.239  0.1360  0.8793  0.1144
 1018MOL0     C40414   4.531   4.644   8.120 -0.2149  0.0928 -0.0967
 1018MOL0     H40415   4.902   4.286   7.996  0.5843  2.6853  1.3719
 1018MOL0     H40416   5.151   4.229   7.930 -0.1193  1.6568 -0.4812
 1018MOL0     H40417   5.378   4.264   7.914  0.2624 -1.8055 -2.1875
 1018MOL0     H40418   5.364   4.092   7.938 -0.7769  1.5111 -1.7240
 1018MOL0     H40419   5.565   4.123   8.087  0.7876 -2.8611 -1.3967
 1018MOL0     H40420   5.599   4.118   7.922 -1.1750 -0.4221 -0.9444
 1018MOL0     H40421   5.553   4.372   7.897 -1.4933 -0.1466  0.3217
 1018MOL0     H40422   5.562   4.385   8.075  0.5891 -0.5655 -0.5419
 1018MOL0     H40423   5.801   4.243   7.996  1.5487  0.7382  1.7162
 1018MOL0     H40424   5.772   4.383   7.880  1.7372 -1.5159 -1.0658
 1018MOL0     H40425   5.789   4.410   8.178 -0.8349  0.4934  1.1974
 1018MOL0     H40426   5.775   4.545   8.052  0.7572 -0.5516 -0.6411
 1018MOL0     H40427   6.010   4.499   8.141  1.1828 -0.1482 -1.3745
 1018MOL0     H40428   5.989   4.338   8.076 -0.3717  0.2377 -0.3402
 1018MOL0     H40429   5.994   4.604   7.913  0.2209  0.4048  2.2978
 1018MOL0     H40430   6.005   4.440   7.841  0.7119 -1.2572  0.3518
 1018MOL0     H40431   6.189   4.560   8.044 -0.9201  0.9238 -0.4168
 1018MOL0     H40432   6.228   4.400   7.960 -0.4205 -0.0164  3.3300
 1018MOL0     H40433   6.391   4.736   7.946 -1.4809  2.6363 -0.7691
 1018MOL0     H40434   6.527   4.876   7.760 -3.1732  0.2926 -0.2368
 1018MOL0     H40435   6.477   4.829   7.601  0.4424  2.4549  1.2400
 1018MOL0     H40436   6.637   4.614   7.654 -0.1537 -0.0815  2.6877
 1018MOL0     H40437   6.671   4.740   7.547 -1.2107  0.2322 -0.2500
 1018MOL0     H40438   6.736   4.834   7.815 -2.1321 -0.7690  1.2832
 1018MOL0     H40439   6.775   4.667   7.821 -2.2908  0.1289  2.1524
 1018MOL0     H40440   6.927   4.703   7.633  1.3907  1.0912  0.9540
 1018MOL0     H40441   6.872   4.868   7.615 -1.5584  1.3995  1.6106
 1018MOL0     H40442   7.195   4.910   7.952  2.5417 -0.7852 -0.0031
 1018MOL0     H40443   7.381   4.972   8.018 -0.2948 -0.1434  0.0339
 1018MOL0     H40444   7.444   5.113   7.917  0.6478  0.0404  0.0299
 1018MOL0     H40445   7.518   4.954   7.913  0.7124  0.4067 -2.6503
 1018MOL0     H40446   7.826   4.866   7.567  1.2240  0.5725  0.4460
 1018MOL0     H40447   8.015   4.946   7.465  0.1455  2.0576 -0.4666
 1018MOL0     H40448   8.031   5.264   7.123 -0.4287  1.9203  1.2270
 1018MOL0     H40449   7.999   5.323   7.294  1.7116  0.7123  1.2543
 1018MOL0     H40450   8.193   5.402   7.231 -2.5905 -0.0544 -0.2339
 1018MOL0     H40451   8.248   5.267   7.332 -0.5356 -1.1643 -0.0900
 1018MOL0     H40452   8.265   5.312   7.030  0.3397 -2.3386 -1.2017
 1018MOL0     H40453   8.211   5.155   7.081 -4.9669  1.8112  1.2817
 1018MOL0     H40454   8.434   5.154   7.227  2.6708 -0.7815 -1.7901
 1018MOL0     H40455   8.460   5.308   7.163 -0.7253  0.0559 -2.9263
 1018MOL0     H40456   8.590   5.158   7.037  0.1438 -1.9617  1.4296
 1018MOL0     H40457   8.473   5.040   7.017  0.2650 -0.0471 -3.2118
 1018MOL0     H40458   8.422   5.311   6.897 -1.2973 -0.7959  1.0178
 1018MOL0     H40459   8.358   5.157   6.839 -1.2476  2.4430 -1.3695
 1018MOL0     H40460   8.668   5.210   6.851 -0.3623  1.1263 -0.7291
 1018MOL0     H40461   8.575   5.286   6.729 -0.5287  0.3560  0.7964
 1018MOL0     H40462   8.646   5.097   6.627 -0.7739  0.1894 -0.5264
 1018MOL0     H40463   8.472   5.053   6.674 -0.9702 -0.1963  2.6706
 1018MOL0     H40464   7.783   5.216   7.225  0.6259  0.1711 -0.8415
 1018MOL0     H40465   7.578   5.146   7.344 -0.1752  1.3971  4.6054
 1018MOL0     H40466   7.280   4.936   7.473 -1.0315  3.3060  0.6653
 1018MOL0     H40467   7.086   4.851   7.547 -1.1094 -0.3967  2.5439
 1018MOL0     H40468   5.234   4.250   8.354 -0.8229 -0.5254 -0.0069
 1018MOL0     H40469   5.011   4.283   8.408  1.8652 -1.0609  0.2646
 1018MOL0     H40470   4.685   4.305   8.421 -1.1742  0.6467  3.9281
 1018MOL0     H40471   4.473   4.338   8.553  0.2072  1.3963  0.3353
 1018MOL0     H40472   4.080   4.562   8.536  1.5247 -1.5185  0.8503
 1018MOL0     H40473   4.165   4.624   8.381  0.1570 -0.6872 -0.5019
 1018MOL0     H40474   4.035   4.357   8.459 -2.9922  2.4050  1.2513
 1018MOL0     H40475   4.142   4.364   8.324  2.1559  0.1096  2.9743
 1018MOL0     H40476   3.883   4.506   8.366  0.6890  1.7492  0.4417
 1018MOL0     H40477   3.986   4.554   8.229 -2.0123 -0.2867 -2.1516
 1018MOL0     H40478   3.987   4.316   8.158 -0.5040 -0.9286  0.3484
 1018MOL0     H40479   3.854   4.426   8.108 -1.1803  2.3028  1.8702
 1018MOL0     H40480   3.721   4.109   8.388  0.2555  1.2801  2.2281
 1018MOL0     H40481   4.357   4.648   8.293 -3.2064 -1.0528  3.1600
 1018MOL0     H40482   4.635   4.664   8.091  0.7373 -2.9523  0.9009
 1018MOL0     H40483   4.489   4.595   8.031 -1.0723  1.3238 -0.4010
 1018MOL0     H40484   4.485   4.742   8.136  3.9037  2.6745 -2.2322
 1019MOL0     O40485   3.717   8.839   2.550  0.4852 -0.2181  0.2781
 1019MOL0     C40486   3.688   8.951   2.591  0.5881 -0.6845 -0.2512
 1019MOL0     O40487   3.779   9.029   2.662  0.2703 -0.5280 -0.3029
 1019MOL0     C40488   3.921   9.006   2.669 -0.2345  0.0531  0.4835
 1019MOL0     C40489   4.010   8.955   2.569 -0.4940  0.0255  0.2432
 1019MOL0     C40490   4.150   8.941   2.595  0.2890 -0.2505 -0.1233
 1019MOL0     C40491   4.200   8.973   2.721  0.1876  0.6943 -0.2872
 1019MOL0     O40492   4.332   8.953   2.756 -0.6218 -0.1457 -0.0698
 1019MOL0     C40493   4.433   8.902   2.658  0.7812  0.0857 -0.1074
 1019MOL0     C40494   4.566   8.845   2.717  0.6096 -0.7011 -0.5039
 1019MOL0     C40495   4.641   8.970   2.773 -0.3907 -0.1399  0.2828
 1019MOL0     C40496   4.791   8.945   2.810 -0.4878 -0.2464 -0.5512
 1019MOL0     C40497   4.846   9.077   2.856 -0.1015  0.2328 -0.8481
 1019MOL0     C40498   4.995   9.075   2.915 -0.8176  0.3395 -0.8030
 1019MOL0     C40499   5.043   9.218   2.950  0.8906 -0.3835  0.0160
 1019MOL0     C40500   5.048   9.309   2.825 -0.1564  0.5581 -0.2769
 1019MOL0     N40501   5.101   9.443   2.844 -0.3200 -0.6230  0.0655
 1019MOL0     C40502   5.027   9.558   2.836  0.1856  0.2507 -0.4353
 1019MOL0     C40503   5.120   9.651   2.852  0.2583 -0.5936  0.1466
 1019MOL0     C40504   5.078   9.794   2.888 -0.7952 -0.0015 -0.6867
 1019MOL0     C40505   5.200   9.889   2.913 -0.0000  0.9857  0.8271
 1019MOL0     C40506   5.181  10.034   2.883 -0.0502  0.2226  0.7457
 1019MOL0     C40507   5.183  10.051   2.734 -0.1116  0.2064 -0.0954
 1019MOL0     O40508   5.172  10.188   2.701 -0.2261  0.5692 -0.3811
 1019MOL0     C40509   5.278  10.211   2.620  0.6132 -1.3479 -0.3332
 1019MOL0     C40510   5.265  10.158   2.497  0.3880  0.6850  1.3746
 1019MOL0     C40511   5.351  10.197   2.393 -0.1706 -0.2826 -0.3268
 1019MOL0     C40512   5.334  10.131   2.261 -0.0882  0.4877  0.3934
 1019MOL0     C40513   5.461  10.281   2.429 -0.1622 -0.6054  0.0933
 1019MOL0     C40514   5.575  10.314   2.347 -0.2244 -0.4823  0.8898
 1019MOL0     O40515   5.676  10.393   2.394 -0.2996 -0.0617 -0.4992
 1019MOL0     C40516   5.785  10.402   2.317  0.7098  0.2299 -0.3361
 1019MOL0     C40517   5.818  10.526   2.253  0.4780  0.4200  0.4484
 1019MOL0     C40518   5.935  10.546   2.185 -0.8063 -0.8051  0.1136
 1019MOL0     C40519   6.028  10.440   2.177  0.5896  0.0456 -1.2626
 1019MOL0     O40520   6.145  10.459   2.106 -0.4982  0.0864  0.7488
 1019MOL0     C40521   6.237  10.355   2.078  0.1489  0.3321 -0.5582
 1019MOL0     C40522   6.358  10.353   2.170 -0.3259  0.0722  0.2681
 1019MOL0     C40523   6.446  10.476   2.153 -0.7846 -0.2319 -0.2203
 1019MOL0     C40524   6.520  10.468   2.014 -0.1381  0.2672  0.1963
 1019MOL0     C40525   6.627  10.576   1.998  0.7063  0.4477  0.2210
 1019MOL0     C40526   6.667  10.586   1.855 -0.1881 -0.1694  0.3642
 1019MOL0     C40527   6.758  10.711   1.819  0.2019  0.5951 -0.8137
 1019MOL0     C40528   6.667  10.835   1.831  0.0778 -0.1196  0.6211
 1019MOL0    Cl40529   6.765  10.974   1.781 -0.2186 -0.2241 -0.1998
 1019MOL0     C40530   5.993  10.314   2.237  0.0337 -0.2557  1.1439
 1019MOL0     C40531   5.879  10.299   2.311  0.6580  0.3743 -0.3334
 1019MOL0     O40532   5.583  10.261   2.233  0.5828 -0.3196 -0.3705
 1019MOL0     C40533   5.458  10.341   2.557 -0.4175  0.2966 -0.2327
 1019MOL0     C40534   5.375  10.297   2.660 -0.1289 -0.0029 -0.0401
 1019MOL0     N40535   5.251   9.603   2.861  0.6261  0.4642  0.9593
 1019MOL0     N40536   5.236   9.472   2.843 -0.7492 -0.6878  0.6982
 1019MOL0     C40537   4.118   9.028   2.822  0.1022 -0.2826 -1.1131
 1019MOL0     C40538   3.979   9.037   2.799  0.4104 -0.8809  1.1520
 1019MOL0     C40539   3.550   9.007   2.572  0.1422  0.7516 -0.1129
 1019MOL0     C40540   3.444   8.912   2.556  0.5582 -0.2828 -0.0418
 1019MOL0     C40541   3.307   8.947   2.559  0.0717  0.5546  0.1380
 1019MOL0     C40542   3.270   9.079   2.566  0.4574 -0.3944 -0.8732
 1019MOL0     O40543   3.133   9.107   2.553 -0.0035 -0.4028  0.5286
 1019MOL0     C40544   3.073   9.223   2.614 -0.7335  0.6642  0.5033
 1019MOL0     C40545   2.928   9.194   2.657 -0.2752  0.2664 -0.0056
 1019MOL0     C40546   2.863   9.306   2.720 -0.0226 -0.2492  0.2716
 1019MOL0     C40547   2.710   9.290   2.728 -0.4590 -0.0513  0.6459
 1019MOL0     C40548   2.677   9.182   2.819  0.0184  0.1186 -0.0406
 1019MOL0     C40549   2.638   9.094   2.886  1.0391  0.7360  0.2426
 1019MOL0     C40550   3.373   9.180   2.567  0.0024 -0.4827 -0.0418
 1019MOL0     C40551   3.515   9.147   2.569  0.3677 -0.3101  0.6842
 1019MOL0     C40552   3.615   9.261   2.569  0.4747  0.1099  0.0857
 1019MOL0     H40553   3.967   8.940   2.471  1.9483 -0.1174 -0.8894
 1019MOL0     H40554   4.217   8.895   2.523  0.2204  2.5125 -2.1018
 1019MOL0     H40555   4.464   8.978   2.586  2.0462  1.6239  1.9487
 1019MOL0     H40556   4.386   8.822   2.600 -0.7500  2.3801 -2.2056
 1019MOL0     H40557   4.530   8.785   2.802 -1.8249  0.9177 -0.2875
 1019MOL0     H40558   4.627   8.789   2.646 -0.2151  0.6991 -2.3972
 1019MOL0     H40559   4.647   9.049   2.697  0.8479  0.2763  0.7966
 1019MOL0     H40560   4.584   9.002   2.861 -1.7216  0.6224 -0.8116
 1019MOL0     H40561   4.794   8.865   2.885 -3.9328 -0.7375 -0.7754
 1019MOL0     H40562   4.851   8.910   2.725  0.9021  0.9210 -0.0925
 1019MOL0     H40563   4.791   9.123   2.938 -0.5638 -0.5415 -0.7134
 1019MOL0     H40564   4.827   9.146   2.774 -3.1476  0.1056 -0.3698
 1019MOL0     H40565   5.005   9.020   3.009  1.6399 -0.8438 -1.6671
 1019MOL0     H40566   5.073   9.027   2.855  1.0776 -1.5201  2.7951
 1019MOL0     H40567   5.138   9.219   3.004 -0.1733 -1.3663  2.0072
 1019MOL0     H40568   4.969   9.264   3.017  2.1726  4.1291 -1.3069
 1019MOL0     H40569   5.095   9.246   2.748  0.2194 -0.1852  0.5487
 1019MOL0     H40570   4.942   9.312   2.798 -0.0130 -3.0187 -1.9141
 1019MOL0     H40571   4.920   9.568   2.822  0.0381 -0.9881 -0.2923
 1019MOL0     H40572   5.015   9.787   2.977  2.1119 -1.0778  1.4145
 1019MOL0     H40573   5.022   9.830   2.801  0.7368 -1.7916 -2.5018
 1019MOL0     H40574   5.220   9.884   3.020 -0.6427  1.1628  0.9574
 1019MOL0     H40575   5.280   9.843   2.855 -0.2774  0.4403  0.8739
 1019MOL0     H40576   5.086  10.064   2.929  0.1014  1.3102  0.3843
 1019MOL0     H40577   5.265  10.088   2.927 -1.3236  1.6952  1.4869
 1019MOL0     H40578   5.266   9.998   2.686 -1.1888  1.9942 -4.3874
 1019MOL0     H40579   5.085  10.015   2.701 -0.9254  2.2061  0.0054
 1019MOL0     H40580   5.177  10.099   2.474  1.3505 -0.3016  0.0736
 1019MOL0     H40581   5.246  10.068   2.248  1.0359 -1.2733  1.1031
 1019MOL0     H40582   5.409  10.054   2.243 -1.1307 -0.6992  0.9980
 1019MOL0     H40583   5.337  10.206   2.180 -1.0537  1.6840  1.4109
 1019MOL0     H40584   5.744  10.605   2.257 -2.4054 -1.9829 -1.7009
 1019MOL0     H40585   5.968  10.637   2.136  0.6291 -0.8232  0.9918
 1019MOL0     H40586   6.182  10.260   2.078 -2.8388  1.9668 -0.2791
 1019MOL0     H40587   6.277  10.378   1.979 -0.3076  1.3559 -0.5156
 1019MOL0     H40588   6.326  10.336   2.273 -0.0708 -1.9149  0.0746
 1019MOL0     H40589   6.420  10.266   2.145 -1.0428 -1.7737  4.1591
 1019MOL0     H40590   6.521  10.469   2.232 -1.2674 -0.2099  0.2420
 1019MOL0     H40591   6.381  10.563   2.166 -0.9052 -0.2381 -0.7651
 1019MOL0     H40592   6.451  10.479   1.930  0.6589 -1.8225 -0.7924
 1019MOL0     H40593   6.565  10.370   1.998  1.1747  0.8416  0.2035
 1019MOL0     H40594   6.583  10.669   2.034 -0.4217  0.0438 -0.0895
 1019MOL0     H40595   6.716  10.560   2.060  1.1595  0.4544 -0.4080
 1019MOL0     H40596   6.591  10.578   1.777  0.7059 -2.6739 -0.3363
 1019MOL0     H40597   6.727  10.496   1.840  0.0426 -0.6140  3.3018
 1019MOL0     H40598   6.801  10.696   1.720  1.6047  0.5594 -0.2118
 1019MOL0     H40599   6.834  10.711   1.897  1.8566 -1.2868 -2.3366
 1019MOL0     H40600   6.623  10.842   1.931 -0.2623  1.2581  0.3846
 1019MOL0     H40601   6.579  10.830   1.766  0.6829  0.8436 -0.2973
 1019MOL0     H40602   6.056  10.226   2.227 -1.2210 -1.0623 -0.2253
 1019MOL0     H40603   5.848  10.206   2.357  1.0412 -0.6918 -2.1487
 1019MOL0     H40604   5.525  10.424   2.576  0.5549 -0.1424 -1.5713
 1019MOL0     H40605   5.377  10.333   2.762 -0.8397 -1.7131  0.6207
 1019MOL0     H40606   4.164   9.053   2.917  1.7675  0.6383 -2.1315
 1019MOL0     H40607   3.920   9.071   2.884  1.2397  0.2873  1.2807
 1019MOL0     H40608   3.472   8.808   2.555 -0.1115 -0.4722 -1.5819
 1019MOL0     H40609   3.230   8.871   2.554  0.1745  0.4921 -0.5411
 1019MOL0     H40610   3.130   9.249   2.704  1.7469  0.9674 -1.0405
 1019MOL0     H40611   3.079   9.301   2.539 -2.7007  0.9662  0.6269
 1019MOL0     H40612   2.938   9.125   2.742 -1.3417 -3.1315 -2.4087
 1019MOL0     H40613   2.875   9.133   2.583  1.5811 -3.0952  1.1820
 1019MOL0     H40614   2.900   9.327   2.821  1.8427 -3.0089  0.2566
 1019MOL0     H40615   2.877   9.391   2.652 -0.6370 -0.9280 -0.7287
 1019MOL0     H40616   2.662   9.259   2.635 -1.3179 -0.8149  1.3214
 1019MOL0     H40617   2.663   9.387   2.746 -0.6948  0.3464 -1.8326
 1019MOL0     H40618   2.586   9.017   2.940  3.0416  0.5283  2.0122
 1019MOL0     H40619   3.338   9.281   2.581  1.0572 -0.2109  0.7252
 1019MOL0     H40620   3.701   9.240   2.505  1.3407  1.5716  0.7198
 1019MOL0     H40621   3.567   9.352   2.532  0.1226  1.0371  2.6357
 1019MOL0     H40622   3.639   9.299   2.669 -2.2925  1.2035  0.4254
 1020MOL0     O40623   6.578   7.420   9.367  0.3806 -0.1483  0.3113
 1020MOL0     C40624   6.539   7.404   9.248  0.0252 -0.6788  0.1807
 1020MOL0     O40625   6.616   7.427   9.145 -0.2347 -0.6802  0.5791
 1020MOL0     C40626   6.712   7.530   9.153  0.1635 -0.7180  0.2302
 1020MOL0     C40627   6.778   7.537   9.032 -0.0645 -0.4738  0.2614
 1020MOL0     C40628   6.892   7.616   9.021  0.1998  0.4423 -0.2303
 1020MOL0     C40629   6.934   7.703   9.123 -0.1510 -0.0435  0.5607
 1020MOL0     O40630   7.050   7.780   9.099  0.1235  0.4035  0.0092
 1020MOL0     C40631   7.102   7.844   9.212 -0.0040 -0.2607  0.3880
 1020MOL0     C40632   7.237   7.913   9.182  0.1832 -0.1494 -0.1250
 1020MOL0     C40633   7.354   7.818   9.120 -0.2357 -0.7586 -0.1905
 1020MOL0     C40634   7.377   7.694   9.204  0.1477 -0.3001 -0.2762
 1020MOL0     C40635   7.509   7.632   9.169  0.0593  0.5258  0.2989
 1020MOL0     C40636   7.514   7.596   9.010 -0.0672  1.1308  0.0265
 1020MOL0     C40637   7.636   7.508   8.964 -0.1808  0.5819 -0.4906
 1020MOL0     C40638   7.766   7.577   8.989 -1.1553 -0.0257 -0.2797
 1020MOL0     N40639   7.876   7.480   8.959  0.2884  0.5464  0.6157
 1020MOL0     C40640   7.908   7.433   8.833  0.6506 -0.1694 -0.6434
 1020MOL0     C40641   8.027   7.371   8.854  0.6893 -0.5736 -0.4571
 1020MOL0     C40642   8.118   7.297   8.761  0.6506  0.6191  0.2926
 1020MOL0     C40643   8.202   7.385   8.665 -0.1530  0.0740 -0.1342
 1020MOL0     C40644   8.317   7.462   8.730  0.6056  0.2260 -0.8144
 1020MOL0     C40645   8.448   7.446   8.650 -0.0256  0.9625 -1.1547
 1020MOL0     O40646   8.536   7.554   8.693  0.5774  0.3460  0.6357
 1020MOL0     C40647   8.512   7.682   8.646  0.0637 -0.7971 -1.0860
 1020MOL0     C40648   8.404   7.723   8.571  0.5025 -0.4231 -0.1030
 1020MOL0     C40649   8.392   7.860   8.530 -0.0504  0.5622  0.7819
 1020MOL0     C40650   8.257   7.894   8.479  0.5813 -0.3972  0.1976
 1020MOL0     C40651   8.494   7.954   8.569 -1.6402  0.4784 -0.3063
 1020MOL0     C40652   8.484   8.104   8.538 -0.2517  0.5410 -0.7253
 1020MOL0     O40653   8.585   8.184   8.587  0.2062 -0.5410  1.0849
 1020MOL0     C40654   8.563   8.323   8.614  0.9311  0.6306 -0.5566
 1020MOL0     C40655   8.439   8.378   8.640 -0.8748 -0.2628  0.2049
 1020MOL0     C40656   8.430   8.520   8.665  0.8772  0.2828  0.1190
 1020MOL0     C40657   8.541   8.598   8.666 -0.3850 -0.8509  0.5222
 1020MOL0     O40658   8.531   8.731   8.689 -0.6564  0.0706  0.1174
 1020MOL0     C40659   8.501   8.805   8.573  0.8044 -0.6140 -0.1726
 1020MOL0     C40660   8.560   8.942   8.590 -0.8326  0.1929  0.6089
 1020MOL0     C40661   8.581   9.005   8.444  0.0977 -0.0342 -0.0017
 1020MOL0     C40662   8.694   9.104   8.445  0.6455 -0.2121  0.1137
 1020MOL0     C40663   8.710   9.153   8.299  0.6667  0.5990 -0.3145
 1020MOL0     C40664   8.810   9.268   8.298 -0.0075 -0.0730  0.2109
 1020MOL0     C40665   8.856   9.322   8.159  0.3199 -0.4558  0.5423
 1020MOL0     C40666   8.902   9.228   8.053 -0.6729 -0.0729  0.3979
 1020MOL0    Cl40667   8.959   9.318   7.914  0.0428 -0.3654  0.2737
 1020MOL0     C40668   8.665   8.536   8.646  0.4347 -0.2223 -0.6996
 1020MOL0     C40669   8.673   8.401   8.622  0.3923 -0.0695 -0.0057
 1020MOL0     O40670   8.396   8.139   8.469  0.0400 -0.2988  0.0902
 1020MOL0     C40671   8.603   7.906   8.640  0.0998  0.2753 -0.2267
 1020MOL0     C40672   8.614   7.771   8.671  0.1113 -0.1266 -0.3060
 1020MOL0     N40673   8.046   7.363   8.996 -0.8072  0.5875  0.6621
 1020MOL0     N40674   7.962   7.424   9.052  0.0342 -0.2517 -0.2456
 1020MOL0     C40675   6.847   7.708   9.237 -0.5860 -0.1062  0.4243
 1020MOL0     C40676   6.744   7.628   9.248  0.1315  1.4522 -0.6431
 1020MOL0     C40677   6.399   7.334   9.216  0.9678  0.1097 -1.3834
 1020MOL0     C40678   6.348   7.341   9.090  0.7413 -0.5990  0.3041
 1020MOL0     C40679   6.225   7.286   9.064  0.1293 -0.1584 -0.6216
 1020MOL0     C40680   6.152   7.216   9.161 -0.1248 -0.4467 -0.2216
 1020MOL0     O40681   6.028   7.182   9.121  0.0677 -0.2789  0.4666
 1020MOL0     C40682   5.935   7.143   9.219 -0.3597  0.2967  0.3561
 1020MOL0     C40683   5.798   7.122   9.156  0.2157 -0.5682  0.3140
 1020MOL0     C40684   5.691   7.094   9.261  0.2233 -0.5480 -0.0351
 1020MOL0     C40685   5.711   6.962   9.333 -0.1606 -0.9797  0.5383
 1020MOL0     C40686   5.592   6.878   9.333  0.1361  1.1338 -0.2402
 1020MOL0     C40687   5.490   6.809   9.348 -0.5097 -0.7252  0.1223
 1020MOL0     C40688   6.202   7.201   9.292  0.2110 -0.0721  0.5715
 1020MOL0     C40689   6.322   7.261   9.319 -0.6454 -0.3245 -0.3105
 1020MOL0     C40690   6.373   7.228   9.460  0.5587  0.5110  0.7371
 1020MOL0     H40691   6.734   7.477   8.953 -3.5569  1.7891  0.3179
 1020MOL0     H40692   6.935   7.607   8.921 -1.6935 -1.4117 -0.9631
 1020MOL0     H40693   7.122   7.766   9.287 -3.1598 -1.8147 -0.1820
 1020MOL0     H40694   7.027   7.917   9.246 -0.6690 -0.8507  0.2195
 1020MOL0     H40695   7.210   7.993   9.113 -0.9776  0.8261  1.3968
 1020MOL0     H40696   7.273   7.956   9.276 -0.4787  0.8485 -0.3209
 1020MOL0     H40697   7.318   7.787   9.021  0.6897  1.2842 -1.2217
 1020MOL0     H40698   7.443   7.877   9.100 -0.4926  0.1163  1.0970
 1020MOL0     H40699   7.378   7.732   9.307  0.8487  2.8088 -1.3145
 1020MOL0     H40700   7.287   7.631   9.196 -1.2314  1.1472  2.2889
 1020MOL0     H40701   7.530   7.540   9.224 -1.1444 -0.7496 -1.2740
 1020MOL0     H40702   7.583   7.710   9.187 -0.9792  1.3095  1.3789
 1020MOL0     H40703   7.424   7.537   8.987  0.0770  1.6849 -2.1828
 1020MOL0     H40704   7.501   7.681   8.943 -1.4022  0.3099 -0.8164
 1020MOL0     H40705   7.625   7.483   8.858 -3.1256 -2.7661  0.3751
 1020MOL0     H40706   7.644   7.414   9.020 -2.7114  0.8292  0.4280
 1020MOL0     H40707   7.783   7.665   8.926  0.8082 -1.8592 -2.5458
 1020MOL0     H40708   7.781   7.600   9.094  0.4125  0.6759 -0.6191
 1020MOL0     H40709   7.863   7.443   8.734  0.5817 -1.6425 -0.7796
 1020MOL0     H40710   8.045   7.241   8.701 -0.1931  0.0972  1.7662
 1020MOL0     H40711   8.188   7.228   8.809 -0.3520 -3.4301 -3.4170
 1020MOL0     H40712   8.249   7.317   8.593 -0.8193  0.8505 -1.3447
 1020MOL0     H40713   8.137   7.447   8.602 -0.1512 -0.6993 -0.9226
 1020MOL0     H40714   8.275   7.559   8.757 -0.6161 -0.1703 -1.2278
 1020MOL0     H40715   8.337   7.437   8.834  1.1438  2.3893 -0.3507
 1020MOL0     H40716   8.479   7.348   8.687 -1.3573  0.7766 -0.4705
 1020MOL0     H40717   8.430   7.440   8.542 -0.3987 -0.5467 -1.0347
 1020MOL0     H40718   8.324   7.655   8.543 -0.0259 -0.5766  1.6682
 1020MOL0     H40719   8.226   7.986   8.530 -0.7436  0.4117 -1.9117
 1020MOL0     H40720   8.176   7.820   8.482  0.9435 -0.7920  0.3014
 1020MOL0     H40721   8.270   7.919   8.373 -1.0200 -1.2261 -0.2298
 1020MOL0     H40722   8.355   8.311   8.622 -2.0149  0.8395  1.1603
 1020MOL0     H40723   8.335   8.567   8.691  0.9876  1.1086 -0.8762
 1020MOL0     H40724   8.537   8.749   8.486  0.4165 -3.6058  1.4934
 1020MOL0     H40725   8.393   8.817   8.561  1.3136  2.2644 -3.7880
 1020MOL0     H40726   8.488   9.001   8.648  0.0257  1.3093  0.5777
 1020MOL0     H40727   8.659   8.938   8.636 -0.5313 -0.1976 -0.0641
 1020MOL0     H40728   8.488   9.050   8.409 -1.0086 -0.0872  2.6507
 1020MOL0     H40729   8.606   8.930   8.369 -1.1680  0.8666 -1.3814
 1020MOL0     H40730   8.781   9.061   8.495  1.0974  1.0240  0.4259
 1020MOL0     H40731   8.663   9.200   8.489 -1.0556  0.0722 -1.5381
 1020MOL0     H40732   8.745   9.065   8.245 -0.9430 -0.4114  0.2014
 1020MOL0     H40733   8.612   9.180   8.258 -0.4073 -3.8753 -1.2114
 1020MOL0     H40734   8.898   9.228   8.349  2.0545  0.2202 -2.8062
 1020MOL0     H40735   8.772   9.356   8.351  3.1023  0.9217  0.9647
 1020MOL0     H40736   8.941   9.388   8.182 -0.0150  0.5264 -0.9077
 1020MOL0     H40737   8.772   9.382   8.122  1.2447 -0.8305 -2.4242
 1020MOL0     H40738   8.816   9.165   8.027 -1.3622 -0.3206  3.0557
 1020MOL0     H40739   8.972   9.157   8.098 -0.4215 -0.8349 -1.1209
 1020MOL0     H40740   8.759   8.588   8.657  0.6205 -0.5703 -0.6361
 1020MOL0     H40741   8.766   8.345   8.625  1.1480  1.0602  4.1848
 1020MOL0     H40742   8.687   7.967   8.673 -0.2188  0.5258  0.1293
 1020MOL0     H40743   8.693   7.719   8.724 -2.1850 -2.7561  0.7786
 1020MOL0     H40744   6.868   7.788   9.306  0.7658  2.3118 -2.5393
 1020MOL0     H40745   6.681   7.629   9.336  0.2807 -0.4666 -0.4656
 1020MOL0     H40746   6.401   7.397   9.013  0.0110  3.9204  2.7537
 1020MOL0     H40747   6.185   7.294   8.964 -0.5099 -0.1425 -0.3712
 1020MOL0     H40748   5.962   7.049   9.267 -0.8659  0.7375  1.5490
 1020MOL0     H40749   5.925   7.218   9.298 -0.7920 -1.3768  1.9717
 1020MOL0     H40750   5.791   7.041   9.082 -1.8112  0.0431 -0.2271
 1020MOL0     H40751   5.776   7.215   9.102 -0.1944 -1.3441 -0.9069
 1020MOL0     H40752   5.714   7.181   9.323  1.6397 -1.2614  0.4716
 1020MOL0     H40753   5.601   7.108   9.201  1.9891  1.7888 -2.3856
 1020MOL0     H40754   5.742   6.981   9.436  0.4694  2.8173 -0.2116
 1020MOL0     H40755   5.799   6.907   9.299  0.3262 -1.3635  2.3099
 1020MOL0     H40756   5.403   6.750   9.368 -0.4990 -1.6028 -2.0777
 1020MOL0     H40757   6.154   7.142   9.370 -0.4335 -0.9890 -0.4893
 1020MOL0     H40758   6.400   7.319   9.514 -1.4520  1.4655  0.1966
 1020MOL0     H40759   6.290   7.194   9.521  0.4809  1.5648  1.2415
 1020MOL0     H40760   6.453   7.153   9.466  1.3986  1.3784  0.7842
 1021MOL0     O40761   2.224  11.433   0.187 -1.1693 -0.3517 -0.0368
 1021MOL0     C40762   2.195  11.519   0.265 -0.1238 -0.1975  0.3111
 1021MOL0     O40763   2.264  11.552   0.372 -0.3014  0.2638  0.9734
 1021MOL0     C40764   2.392  11.516   0.392 -0.2283  0.0529  0.1080
 1021MOL0     C40765   2.450  11.392   0.350 -0.0032 -0.0599  0.2964
 1021MOL0     C40766   2.581  11.361   0.383  0.1351  0.3568  0.3084
 1021MOL0     C40767   2.654  11.445   0.467 -0.0667  0.9717 -0.1978
 1021MOL0     O40768   2.787  11.425   0.516  0.2595 -0.0102  0.1898
 1021MOL0     C40769   2.883  11.447   0.409 -0.4871 -0.3929 -0.2124
 1021MOL0     C40770   2.946  11.585   0.432 -0.7511  1.2827 -0.5336
 1021MOL0     C40771   3.088  11.598   0.366 -0.1590  0.5270  0.5445
 1021MOL0     C40772   3.081  11.579   0.216  0.4036  0.2529  0.1676
 1021MOL0     C40773   3.207  11.537   0.146 -0.1542  0.1095 -0.1204
 1021MOL0     C40774   3.182  11.499  -0.002 -0.2392 -0.2214 -0.8431
 1021MOL0     C40775   3.102  11.597  -0.090 -0.0761 -1.2223 -0.0015
 1021MOL0     C40776   3.194  11.714  -0.126 -1.1564 -0.4250  0.0978
 1021MOL0     N40777   3.131  11.811  -0.218 -0.1669  0.3116  0.3097
 1021MOL0     C40778   3.071  11.775  -0.335  0.1351  0.0604 -0.2184
 1021MOL0     C40779   3.000  11.880  -0.379 -0.6357  0.0504  0.0750
 1021MOL0     C40780   2.930  11.886  -0.507 -0.0500 -0.7548  0.9792
 1021MOL0     C40781   2.797  11.802  -0.510  0.0791 -0.0878  0.2608
 1021MOL0     C40782   2.737  11.799  -0.654  0.6151  0.5036 -0.3977
 1021MOL0     C40783   2.614  11.710  -0.667  0.1755  1.2374  0.4056
 1021MOL0     O40784   2.546  11.741  -0.784 -0.4771  0.5370 -0.0720
 1021MOL0     C40785   2.417  11.691  -0.788 -0.3816  0.5294  0.0057
 1021MOL0     C40786   2.315  11.776  -0.832  0.7243  0.1523 -0.4126
 1021MOL0     C40787   2.174  11.750  -0.826 -0.5064  0.5578  0.7968
 1021MOL0     C40788   2.074  11.866  -0.844  0.1578 -0.0412  0.9330
 1021MOL0     C40789   2.128  11.616  -0.787  0.1682 -0.1655  0.0364
 1021MOL0     C40790   1.988  11.565  -0.791 -0.4040 -0.2654 -0.1494
 1021MOL0     O40791   1.895  11.664  -0.780  1.0909  0.2291  1.1109
 1021MOL0     C40792   1.761  11.633  -0.781 -0.0739  0.5794  0.3944
 1021MOL0     C40793   1.715  11.538  -0.699  0.0539 -0.0932  0.4721
 1021MOL0     C40794   1.578  11.516  -0.687 -1.3109 -0.1038  0.4697
 1021MOL0     C40795   1.488  11.595  -0.768  0.9204  0.5552  0.0088
 1021MOL0     O40796   1.352  11.608  -0.761  0.0562  0.3577  0.1708
 1021MOL0     C40797   1.312  11.589  -0.626  0.0468 -0.1083  0.4231
 1021MOL0     C40798   1.157  11.595  -0.631  0.4501  0.6024  0.7680
 1021MOL0     C40799   1.077  11.630  -0.506 -0.3434 -1.2725 -1.5839
 1021MOL0     C40800   0.925  11.653  -0.524 -0.1584  0.0746  0.4642
 1021MOL0     C40801   0.868  11.703  -0.390 -0.0944  0.4045  0.9680
 1021MOL0     C40802   0.726  11.763  -0.402 -0.2590  0.2730 -0.3003
 1021MOL0     C40803   0.660  11.762  -0.259 -0.0806 -0.2629  0.3582
 1021MOL0     C40804   0.513  11.825  -0.268 -1.1003  0.5800 -0.0498
 1021MOL0    Cl40805   0.445  11.786  -0.104 -0.1307  0.3250 -0.3073
 1021MOL0     C40806   1.538  11.691  -0.858  0.6895  0.0905 -0.8479
 1021MOL0     C40807   1.675  11.710  -0.863 -0.5412  0.7604 -0.9220
 1021MOL0     O40808   1.967  11.444  -0.797  0.5769  0.1074 -0.1247
 1021MOL0     C40809   2.235  11.529  -0.751 -0.0822  0.0914 -0.5050
 1021MOL0     C40810   2.374  11.567  -0.744 -0.9922 -0.1272  0.7899
 1021MOL0     N40811   3.033  11.987  -0.290 -0.4303  1.0401 -0.3647
 1021MOL0     N40812   3.113  11.938  -0.195  0.2953 -1.1301  0.1254
 1021MOL0     C40813   2.592  11.561   0.515  0.4732 -0.2649 -0.6206
 1021MOL0     C40814   2.466  11.598   0.484  0.6209 -0.5928  0.1346
 1021MOL0     C40815   2.062  11.587   0.252 -0.4435  1.3246 -0.5412
 1021MOL0     C40816   2.055  11.728   0.262 -0.0343  0.1667  0.1880
 1021MOL0     C40817   1.936  11.796   0.270  0.6025  0.8407  0.5783
 1021MOL0     C40818   1.818  11.724   0.246  0.8459  1.2231  0.0919
 1021MOL0     O40819   1.697  11.787   0.236  0.2515  0.1869 -0.0733
 1021MOL0     C40820   1.578  11.716   0.286 -0.5169 -0.1274 -0.5311
 1021MOL0     C40821   1.473  11.830   0.298 -0.6192 -0.2399  0.2086
 1021MOL0     C40822   1.433  11.893   0.162  0.7757 -0.4871 -0.7016
 1021MOL0     C40823   1.326  12.009   0.186  0.0427 -0.2407  0.0721
 1021MOL0     C40824   1.211  11.959   0.257  0.0431  0.5935 -0.2698
 1021MOL0     C40825   1.114  11.931   0.311  0.0785 -0.3506 -0.3084
 1021MOL0     C40826   1.832  11.591   0.203  0.0869  0.0359  0.1722
 1021MOL0     C40827   1.950  11.513   0.207 -0.1266  0.1680  0.2108
 1021MOL0     C40828   1.945  11.361   0.160 -0.0093 -0.3163 -0.7275
 1021MOL0     H40829   2.391  11.317   0.298 -0.4517 -0.3824  1.2618
 1021MOL0     H40830   2.635  11.274   0.349  2.1631  0.0415  3.8470
 1021MOL0     H40831   2.840  11.443   0.308 -0.1364 -0.0607 -0.3751
 1021MOL0     H40832   2.954  11.366   0.425 -3.8219 -3.7859 -1.0133
 1021MOL0     H40833   2.878  11.667   0.408 -1.7482  0.7176  0.3058
 1021MOL0     H40834   2.972  11.599   0.537  2.5057  2.0403 -1.3390
 1021MOL0     H40835   3.127  11.698   0.382  2.0935  0.0406 -1.2675
 1021MOL0     H40836   3.161  11.532   0.413 -0.4404 -0.8314 -0.8286
 1021MOL0     H40837   3.015  11.495   0.192 -0.6028  1.6294 -2.1090
 1021MOL0     H40838   3.043  11.671   0.172  1.3219  0.5423 -0.0509
 1021MOL0     H40839   3.255  11.448   0.188 -2.8504 -2.0326 -1.2225
 1021MOL0     H40840   3.276  11.622   0.151  1.7878 -1.4357  0.9254
 1021MOL0     H40841   3.274  11.487  -0.060 -1.0420  2.4802 -2.8602
 1021MOL0     H40842   3.118  11.411  -0.002 -1.2537  0.4985 -0.2586
 1021MOL0     H40843   3.006  11.625  -0.045  0.0154 -1.0735  0.1028
 1021MOL0     H40844   3.076  11.543  -0.182  1.3656 -3.3581  0.7874
 1021MOL0     H40845   3.218  11.761  -0.030  0.7136  0.3295 -0.7048
 1021MOL0     H40846   3.283  11.670  -0.172 -1.7966  0.2488 -1.8656
 1021MOL0     H40847   3.053  11.673  -0.367 -1.0301 -0.9884  3.2340
 1021MOL0     H40848   2.987  11.843  -0.590  1.6607  3.0023 -0.0141
 1021MOL0     H40849   2.900  11.988  -0.530 -3.2136 -1.3763  1.8356
 1021MOL0     H40850   2.816  11.702  -0.471  0.8998  0.6812  1.9175
 1021MOL0     H40851   2.721  11.850  -0.449 -1.3585  0.0487 -1.5455
 1021MOL0     H40852   2.708  11.897  -0.691  1.3868 -0.1795 -3.0520
 1021MOL0     H40853   2.806  11.753  -0.726  0.6158 -2.5085  1.3229
 1021MOL0     H40854   2.660  11.611  -0.677 -0.7872  0.3593  3.5404
 1021MOL0     H40855   2.553  11.712  -0.576 -1.1940 -0.6558 -0.4030
 1021MOL0     H40856   2.337  11.879  -0.858  1.9588 -0.2319 -0.9203
 1021MOL0     H40857   2.115  11.963  -0.875 -1.0149  1.2371  3.1375
 1021MOL0     H40858   2.027  11.889  -0.748 -0.2513 -1.6938  1.1583
 1021MOL0     H40859   1.991  11.849  -0.913 -0.0951  0.3325  1.1416
 1021MOL0     H40860   1.790  11.482  -0.645  2.7236  1.8555 -0.9219
 1021MOL0     H40861   1.544  11.434  -0.626 -1.9761 -2.3170 -2.6011
 1021MOL0     H40862   1.345  11.500  -0.572  1.4092  1.2084  1.8515
 1021MOL0     H40863   1.360  11.673  -0.576  0.3141  0.7824 -1.2461
 1021MOL0     H40864   1.146  11.671  -0.709  3.0207  2.0550  1.6939
 1021MOL0     H40865   1.129  11.500  -0.677  3.0132  1.1602 -2.3789
 1021MOL0     H40866   1.120  11.723  -0.470 -1.8518 -0.3346 -2.1255
 1021MOL0     H40867   1.083  11.555  -0.427 -1.5299 -0.2550 -0.4829
 1021MOL0     H40868   0.874  11.565  -0.566 -1.8826  1.5303 -0.6318
 1021MOL0     H40869   0.903  11.729  -0.599 -2.3940  0.2666  1.2462
 1021MOL0     H40870   0.868  11.616  -0.324  3.0595  0.3666  1.0899
 1021MOL0     H40871   0.941  11.764  -0.335 -0.5112 -0.3927  2.4383
 1021MOL0     H40872   0.662  11.693  -0.457  1.6394 -2.4712  0.7678
 1021MOL0     H40873   0.723  11.858  -0.456  0.4909 -0.0919 -0.9993
 1021MOL0     H40874   0.718  11.834  -0.201 -0.2466 -0.0074  0.2104
 1021MOL0     H40875   0.674  11.661  -0.220  2.3711 -0.5994 -1.1313
 1021MOL0     H40876   0.460  11.778  -0.351 -2.9642  3.6473 -0.7341
 1021MOL0     H40877   0.502  11.933  -0.281 -1.6727  0.4662 -0.5356
 1021MOL0     H40878   1.464  11.756  -0.902  0.6116  1.6484  1.3861
 1021MOL0     H40879   1.712  11.783  -0.934  1.5814  0.9392  0.2951
 1021MOL0     H40880   2.213  11.428  -0.717  3.0503 -0.0290  1.6934
 1021MOL0     H40881   2.443  11.490  -0.710 -0.4361 -0.9383 -1.9400
 1021MOL0     H40882   2.643  11.614   0.595 -0.7086  3.1574 -1.9622
 1021MOL0     H40883   2.430  11.694   0.519  2.9308 -0.2087  1.6763
 1021MOL0     H40884   2.146  11.783   0.281 -0.9643  1.0516  2.6154
 1021MOL0     H40885   1.935  11.902   0.292  0.1183  1.1043 -0.6721
 1021MOL0     H40886   1.560  11.640   0.210  2.4242 -1.0806 -0.3766
 1021MOL0     H40887   1.588  11.679   0.389  1.8997  4.0249  0.9897
 1021MOL0     H40888   1.506  11.910   0.365 -2.2382  0.7141 -0.0801
 1021MOL0     H40889   1.384  11.789   0.346  1.2889 -1.7698  2.7070
 1021MOL0     H40890   1.515  11.937   0.104  2.2747 -2.6323 -0.3065
 1021MOL0     H40891   1.382  11.820   0.099 -2.3141  1.4546 -0.6584
 1021MOL0     H40892   1.298  12.057   0.092  1.0485 -0.6333 -0.4347
 1021MOL0     H40893   1.368  12.092   0.244  0.3079 -1.0930  1.1341
 1021MOL0     H40894   1.018  11.906   0.352 -0.4734 -0.6821 -1.7516
 1021MOL0     H40895   1.744  11.546   0.159  0.0529  0.3805 -0.1165
 1021MOL0     H40896   2.011  11.356   0.073  2.1402 -0.2592  0.8212
 1021MOL0     H40897   1.970  11.300   0.248  1.2107  2.0102  0.6523
 1021MOL0     H40898   1.843  11.331   0.134  0.3792 -2.9618  0.5417
 1022MOL0     O40899   5.292   3.810   4.947  0.5795  0.2067  0.6197
 1022MOL0     C40900   5.199   3.727   4.943 -1.0943 -0.0571 -0.2771
 1022MOL0     O40901   5.146   3.664   5.054  0.2516  0.4608  0.2064
 1022MOL0     C40902   5.215   3.665   5.177  0.6799 -0.1028  0.2543
 1022MOL0     C40903   5.142   3.667   5.304  0.3015  0.2596  0.7226
 1022MOL0     C40904   5.212   3.658   5.427 -0.1002  0.4976  1.5017
 1022MOL0     C40905   5.347   3.638   5.431  0.0501  0.9709 -0.0146
 1022MOL0     O40906   5.393   3.610   5.556 -0.6220 -0.2593  0.3722
 1022MOL0     C40907   5.517   3.555   5.558 -1.1462  0.0244  0.0165
 1022MOL0     C40908   5.523   3.414   5.508 -0.6218  0.1464 -0.0108
 1022MOL0     C40909   5.418   3.315   5.559 -0.2015  1.7195 -0.3530
 1022MOL0     C40910   5.413   3.180   5.479  0.1418 -0.0884 -0.1237
 1022MOL0     C40911   5.290   3.100   5.516 -0.0403  0.5054  0.0693
 1022MOL0     C40912   5.168   3.112   5.429  0.9799  0.6759 -0.4903
 1022MOL0     C40913   5.102   3.253   5.431  0.3500  0.1104  0.0838
 1022MOL0     C40914   4.976   3.253   5.337 -0.0933  0.5878  0.4635
 1022MOL0     N40915   5.018   3.221   5.193  0.0964  0.7623 -0.0474
 1022MOL0     C40916   5.036   3.315   5.093  0.4644  0.9563 -0.2216
 1022MOL0     C40917   5.041   3.244   4.984 -0.1779 -0.1349  0.5313
 1022MOL0     C40918   5.083   3.310   4.849 -0.0487  0.2655 -0.2405
 1022MOL0     C40919   5.237   3.305   4.829  0.2973 -0.1808 -0.9941
 1022MOL0     C40920   5.327   3.363   4.941 -1.0073  0.6998  0.1341
 1022MOL0     C40921   5.472   3.386   4.894  0.0836  0.0538 -0.1585
 1022MOL0     O40922   5.555   3.418   5.006 -0.4685 -0.2710 -0.3219
 1022MOL0     C40923   5.690   3.456   4.987  0.7502  1.3076 -0.5308
 1022MOL0     C40924   5.764   3.400   4.882  0.2793  0.5073  0.2257
 1022MOL0     C40925   5.897   3.415   4.874 -0.1065 -0.4824  0.7730
 1022MOL0     C40926   5.965   3.351   4.762  0.2467  0.3407 -0.6621
 1022MOL0     C40927   5.968   3.495   4.973  0.2717  0.3842 -0.0987
 1022MOL0     C40928   6.113   3.530   4.967 -0.5884  0.2681 -0.2317
 1022MOL0     O40929   6.192   3.453   4.886 -0.0123  0.5087 -0.4045
 1022MOL0     C40930   6.330   3.458   4.900 -0.3661 -0.5878  0.1789
 1022MOL0     C40931   6.403   3.557   4.834 -0.8447  0.5001 -0.0453
 1022MOL0     C40932   6.539   3.576   4.864 -0.5594  0.5870 -1.4208
 1022MOL0     C40933   6.613   3.493   4.948 -0.2497 -1.0365  0.1688
 1022MOL0     O40934   6.748   3.497   4.980 -0.7529  0.0498 -0.0878
 1022MOL0     C40935   6.848   3.561   4.904  0.4469 -0.8146  0.2879
 1022MOL0     C40936   6.980   3.539   4.980  1.5404  0.8568  1.4855
 1022MOL0     C40937   7.098   3.607   4.897  0.9404  0.3156  0.1183
 1022MOL0     C40938   7.231   3.566   4.937 -0.1697  0.0654 -0.7575
 1022MOL0     C40939   7.327   3.649   4.863 -0.2209 -0.1628 -1.0888
 1022MOL0     C40940   7.466   3.604   4.911 -0.4429  0.3831 -0.7865
 1022MOL0     C40941   7.587   3.671   4.840 -1.6253 -0.1503  0.5530
 1022MOL0     C40942   7.720   3.609   4.890 -0.2140  0.6214  0.6515
 1022MOL0    Cl40943   7.749   3.640   5.057  0.5486  0.1019  0.2312
 1022MOL0     C40944   6.536   3.397   5.010  0.7884  0.6058 -0.1281
 1022MOL0     C40945   6.400   3.369   4.985 -0.2880  0.0299 -0.0310
 1022MOL0     O40946   6.154   3.616   5.044 -0.5110  0.0458  0.3067
 1022MOL0     C40947   5.888   3.551   5.073 -0.2416 -0.6953  0.8556
 1022MOL0     C40948   5.761   3.528   5.091  0.7909  0.3257 -0.2176
 1022MOL0     N40949   5.013   3.114   5.011 -0.8427  0.0386  0.4208
 1022MOL0     N40950   5.000   3.104   5.133 -0.9477  0.2772  0.0721
 1022MOL0     C40951   5.420   3.627   5.311  0.8304 -0.2961  0.2284
 1022MOL0     C40952   5.353   3.646   5.185  0.5691  0.4979 -0.4517
 1022MOL0     C40953   5.145   3.683   4.814 -0.0100 -0.3888 -0.5146
 1022MOL0     C40954   5.237   3.637   4.723 -0.8946  0.4730  0.3922
 1022MOL0     C40955   5.198   3.590   4.593 -0.4749 -0.2672 -0.6391
 1022MOL0     C40956   5.062   3.590   4.564 -0.4597 -1.2180 -0.8259
 1022MOL0     O40957   5.017   3.542   4.446 -0.6498  0.4061 -0.2650
 1022MOL0     C40958   5.099   3.579   4.333  0.5531 -0.0462 -0.7200
 1022MOL0     C40959   5.031   3.520   4.213  0.5387 -0.5976 -0.4275
 1022MOL0     C40960   5.143   3.511   4.109  0.0409  0.4740  0.2289
 1022MOL0     C40961   5.089   3.470   3.975  0.4579  0.5464  0.0911
 1022MOL0     C40962   5.199   3.456   3.883 -0.1355  0.0953 -0.1449
 1022MOL0     C40963   5.296   3.428   3.815  0.7527  0.7515 -0.0160
 1022MOL0     C40964   4.970   3.634   4.654 -0.6559 -1.1826  0.2740
 1022MOL0     C40965   5.012   3.681   4.783 -0.3794 -0.2872 -0.2873
 1022MOL0     C40966   4.903   3.709   4.883 -0.3128  0.1480  0.2595
 1022MOL0     H40967   5.034   3.678   5.299  0.2540 -0.6801 -0.8414
 1022MOL0     H40968   5.158   3.666   5.522 -2.8828  1.8583 -0.0474
 1022MOL0     H40969   5.552   3.560   5.662  3.0998  2.8315 -1.2548
 1022MOL0     H40970   5.591   3.616   5.506  0.7131 -2.1090  0.0299
 1022MOL0     H40971   5.527   3.407   5.399  0.0032 -1.0603  0.0727
 1022MOL0     H40972   5.621   3.388   5.550 -0.1354  2.5972  0.5317
 1022MOL0     H40973   5.450   3.302   5.663  1.5281 -1.9938 -1.1825
 1022MOL0     H40974   5.320   3.361   5.548 -1.8018 -1.3308  0.0507
 1022MOL0     H40975   5.421   3.200   5.372 -0.8808 -2.4213 -0.7035
 1022MOL0     H40976   5.503   3.123   5.505 -0.5514 -1.4817 -0.6906
 1022MOL0     H40977   5.271   3.133   5.618  0.6687  3.5136 -0.6911
 1022MOL0     H40978   5.309   2.993   5.502  1.1540  0.9019 -1.5492
 1022MOL0     H40979   5.199   3.079   5.329  0.3938 -0.1892 -0.3927
 1022MOL0     H40980   5.097   3.037   5.464  0.8389  1.4301  0.8981
 1022MOL0     H40981   5.176   3.328   5.403  0.1919 -0.0043 -0.6565
 1022MOL0     H40982   5.077   3.268   5.536 -1.0256 -0.3315 -0.1504
 1022MOL0     H40983   4.917   3.167   5.369  1.7051 -0.9222 -0.0469
 1022MOL0     H40984   4.929   3.351   5.345  1.4406  1.4125 -0.0457
 1022MOL0     H40985   5.071   3.416   5.103  0.9482  0.6185  1.7882
 1022MOL0     H40986   5.050   3.414   4.856 -1.6155  0.4646 -5.9020
 1022MOL0     H40987   5.025   3.263   4.769  2.1165 -2.5482 -0.3144
 1022MOL0     H40988   5.264   3.199   4.827 -0.2026 -0.3352 -0.0943
 1022MOL0     H40989   5.261   3.354   4.734 -0.8212 -1.7553 -2.1268
 1022MOL0     H40990   5.283   3.457   4.975 -0.3555  1.8029 -1.9488
 1022MOL0     H40991   5.321   3.292   5.024 -2.6335  1.2839  0.5542
 1022MOL0     H40992   5.504   3.293   4.846 -1.5883 -0.5624 -0.1498
 1022MOL0     H40993   5.490   3.457   4.813  1.1384 -0.6324 -0.5460
 1022MOL0     H40994   5.708   3.339   4.812 -0.6067  2.7777 -1.1642
 1022MOL0     H40995   5.885   3.325   4.691 -1.0301  1.2228  0.3944
 1022MOL0     H40996   6.007   3.261   4.807 -1.7817 -0.9178 -1.1137
 1022MOL0     H40997   6.035   3.419   4.712  2.2750  0.1244  1.7153
 1022MOL0     H40998   6.344   3.619   4.767 -0.6388 -0.4563 -1.1399
 1022MOL0     H40999   6.582   3.668   4.825 -2.6126  2.6444  0.8473
 1022MOL0     H41000   6.847   3.531   4.799 -4.3855 -0.3488 -0.0174
 1022MOL0     H41001   6.834   3.670   4.902  1.6690 -0.6573 -0.4323
 1022MOL0     H41002   6.964   3.584   5.079  0.7157  1.0482  1.2745
 1022MOL0     H41003   6.988   3.430   4.988  0.9303  0.8123  1.5271
 1022MOL0     H41004   7.074   3.714   4.902 -0.5389 -0.0551  2.4749
 1022MOL0     H41005   7.100   3.564   4.797  0.8852  0.3006  0.1246
 1022MOL0     H41006   7.248   3.466   4.896  2.2391  1.0453 -2.3802
 1022MOL0     H41007   7.243   3.569   5.046  4.2044 -0.7422 -1.0266
 1022MOL0     H41008   7.309   3.646   4.755  1.4682  2.8448 -1.5723
 1022MOL0     H41009   7.316   3.753   4.895 -1.0882 -1.2723  2.6817
 1022MOL0     H41010   7.473   3.495   4.906  0.8016  0.4396 -0.4552
 1022MOL0     H41011   7.475   3.631   5.016 -1.3481 -1.1067 -0.3018
 1022MOL0     H41012   7.590   3.777   4.867  0.4750  0.7185 -2.5245
 1022MOL0     H41013   7.577   3.660   4.732  1.5772  1.4415 -0.0272
 1022MOL0     H41014   7.804   3.660   4.842 -0.9677  3.5962  2.2377
 1022MOL0     H41015   7.716   3.501   4.879  0.1763  0.6890 -0.2586
 1022MOL0     H41016   6.596   3.342   5.081 -2.3018  1.5474  3.5876
 1022MOL0     H41017   6.348   3.287   5.034 -0.8177 -0.0995 -0.7931
 1022MOL0     H41018   5.929   3.621   5.144 -0.8609 -0.8108  1.3286
 1022MOL0     H41019   5.715   3.557   5.185 -0.0804 -0.8727 -0.2489
 1022MOL0     H41020   5.527   3.610   5.306  0.5160 -2.1957 -0.8093
 1022MOL0     H41021   5.409   3.654   5.092 -0.4578  1.0296 -1.0395
 1022MOL0     H41022   5.344   3.640   4.742 -0.4622  0.8862 -1.8087
 1022MOL0     H41023   5.277   3.546   4.533  1.0484 -0.8875  1.6867
 1022MOL0     H41024   5.107   3.687   4.312 -3.1774  0.3699 -0.6624
 1022MOL0     H41025   5.193   3.525   4.348  0.3535  0.4630  3.8632
 1022MOL0     H41026   4.955   3.589   4.176  0.9736  0.6822  0.9684
 1022MOL0     H41027   4.986   3.423   4.235 -3.9913  1.3284 -0.1757
 1022MOL0     H41028   5.192   3.608   4.100 -0.3556  0.6413 -0.1630
 1022MOL0     H41029   5.207   3.430   4.144 -1.4585 -1.2991 -0.9333
 1022MOL0     H41030   5.032   3.561   3.958 -0.8159 -0.2417  0.0221
 1022MOL0     H41031   5.024   3.383   3.987 -1.2869  1.2716 -2.9693
 1022MOL0     H41032   5.378   3.400   3.752  0.0073 -2.2986  0.2064
 1022MOL0     H41033   4.867   3.620   4.622 -1.3207 -0.0427  1.7412
 1022MOL0     H41034   4.917   3.802   4.938  2.6953 -1.6328  2.8698
 1022MOL0     H41035   4.814   3.709   4.819 -0.0673 -4.6719 -0.4702
 1022MOL0     H41036   4.894   3.621   4.948  0.1270 -2.7509 -3.2554
 1023MOL0     O41037   7.654   5.779   5.995  0.2432  0.1677 -0.5972
 1023MOL0     C41038   7.555   5.725   6.047 -0.2696  0.3774  0.4926
 1023MOL0     O41039   7.506   5.764   6.168 -0.1895  0.6725 -0.5269
 1023MOL0     C41040   7.562   5.871   6.231 -0.0194 -0.0341 -0.3229
 1023MOL0     C41041   7.569   5.999   6.176  0.6575 -0.7706 -0.0531
 1023MOL0     C41042   7.611   6.107   6.252  0.4456 -0.0905 -0.3435
 1023MOL0     C41043   7.638   6.096   6.390 -0.3755  0.1272  0.3025
 1023MOL0     O41044   7.681   6.202   6.472 -0.0346 -0.2731 -0.8884
 1023MOL0     C41045   7.686   6.335   6.418 -0.5568  0.5353  0.6497
 1023MOL0     C41046   7.748   6.405   6.534  0.0220 -0.1805 -0.5806
 1023MOL0     C41047   7.896   6.395   6.553  0.2080  0.1160  1.6129
 1023MOL0     C41048   7.981   6.494   6.459  0.9547 -0.2996 -0.2396
 1023MOL0     C41049   8.129   6.468   6.474 -0.0563  0.0360 -0.0010
 1023MOL0     C41050   8.186   6.507   6.612 -0.2308  0.0083  0.3593
 1023MOL0     C41051   8.337   6.501   6.599 -0.7269  0.2110  0.0121
 1023MOL0     C41052   8.423   6.555   6.717  0.2005 -0.0911 -0.1216
 1023MOL0     N41053   8.402   6.474   6.836  0.1200 -0.6032 -0.9034
 1023MOL0     C41054   8.310   6.511   6.934 -0.0284  0.1277  0.2846
 1023MOL0     C41055   8.298   6.403   7.007 -0.7778 -0.1159 -0.4324
 1023MOL0     C41056   8.217   6.377   7.131  1.6756 -0.3492 -0.1189
 1023MOL0     C41057   8.226   6.493   7.237  0.5566 -0.2938  0.2495
 1023MOL0     C41058   8.341   6.476   7.341 -0.8009  0.7506 -0.5000
 1023MOL0     C41059   8.484   6.473   7.274  0.3536 -0.2154 -1.0530
 1023MOL0     O41060   8.564   6.581   7.321 -0.5921  0.1016  0.0333
 1023MOL0     C41061   8.644   6.576   7.434 -0.3394  0.5010  0.6853
 1023MOL0     C41062   8.656   6.468   7.524 -0.2329 -0.4752  0.4467
 1023MOL0     C41063   8.756   6.465   7.625  0.2913 -0.2577 -0.1160
 1023MOL0     C41064   8.775   6.350   7.716 -0.1145  0.7483  0.4710
 1023MOL0     C41065   8.838   6.575   7.637  0.3200 -0.2959  0.1267
 1023MOL0     C41066   8.945   6.594   7.740  0.1074 -0.0066  0.0825
 1023MOL0     O41067   8.926   6.524   7.852 -0.4253  0.2346  0.6432
 1023MOL0     C41068   9.015   6.543   7.956 -0.8184  0.0012  0.8530
 1023MOL0     C41069   9.141   6.478   7.949 -0.1437  0.3949  0.4674
 1023MOL0     C41070   9.230   6.473   8.052 -0.1266  0.2133  0.8940
 1023MOL0     C41071   9.195   6.548   8.168 -0.3666  0.8582 -0.5997
 1023MOL0     O41072   9.278   6.547   8.274  0.2112 -0.5794  0.0174
 1023MOL0     C41073   9.423   6.550   8.246  0.0718  0.1235 -0.5601
 1023MOL0     C41074   9.480   6.563   8.384  0.4608  0.9756  0.5070
 1023MOL0     C41075   9.633   6.568   8.376 -0.1723  0.4839 -0.5658
 1023MOL0     C41076   9.689   6.617   8.515 -0.2134 -0.1762  0.3448
 1023MOL0     C41077   9.835   6.567   8.544  0.5376 -0.1826 -0.0892
 1023MOL0     C41078   9.937   6.652   8.480 -0.3563 -1.0107  0.2437
 1023MOL0     C41079  10.079   6.578   8.506 -0.5779  0.1407  0.4756
 1023MOL0     C41080  10.190   6.666   8.475 -0.8510  0.8917  0.1972
 1023MOL0    Cl41081  10.334   6.572   8.463 -0.2424  0.1964 -0.1578
 1023MOL0     C41082   9.074   6.615   8.169 -0.2436  0.1359  0.1234
 1023MOL0     C41083   8.976   6.611   8.070  0.2898  0.6837  0.1837
 1023MOL0     O41084   9.040   6.661   7.716 -0.3337 -0.5922 -0.4835
 1023MOL0     C41085   8.819   6.684   7.550  0.4082  0.6411  0.3860
 1023MOL0     C41086   8.724   6.682   7.448  0.2790  0.6474 -0.5689
 1023MOL0     N41087   8.395   6.315   6.964  0.4938  0.2007  0.8218
 1023MOL0     N41088   8.456   6.353   6.857 -0.6978  0.6127 -0.1754
 1023MOL0     C41089   7.630   5.969   6.441  0.4605  0.5690 -0.3604
 1023MOL0     C41090   7.588   5.853   6.369 -0.6310 -0.8173 -0.6486
 1023MOL0     C41091   7.490   5.619   5.957 -0.2646  0.7346  0.0075
 1023MOL0     C41092   7.382   5.554   6.012 -0.7898 -0.1154  0.4165
 1023MOL0     C41093   7.320   5.448   5.958  0.9138 -0.2163  0.5256
 1023MOL0     C41094   7.355   5.402   5.831 -0.5315 -1.2221 -0.4297
 1023MOL0     O41095   7.283   5.306   5.765  0.0576  0.1670 -0.0812
 1023MOL0     C41096   7.160   5.259   5.819  0.7631  0.9926  0.1754
 1023MOL0     C41097   7.048   5.369   5.819 -0.3752  1.2504 -0.7673
 1023MOL0     C41098   6.989   5.413   5.683  0.4475  0.2559 -0.4865
 1023MOL0     C41099   7.079   5.490   5.589 -0.0693  0.0399  0.1297
 1023MOL0     C41100   6.989   5.547   5.485  0.4103 -0.4471 -0.8112
 1023MOL0     C41101   6.898   5.590   5.410 -0.2073  0.2114 -0.1637
 1023MOL0     C41102   7.444   5.487   5.767  0.1885 -0.3412  0.5651
 1023MOL0     C41103   7.516   5.593   5.819  0.4493  0.7682 -0.0977
 1023MOL0     C41104   7.613   5.673   5.737  0.1345 -0.4532  0.3130
 1023MOL0     H41105   7.552   6.018   6.071  0.6956  0.6465  0.1680
 1023MOL0     H41106   7.629   6.201   6.200  1.9901 -2.2244 -4.0355
 1023MOL0     H41107   7.590   6.382   6.396 -2.1319 -1.0705  3.4353
 1023MOL0     H41108   7.751   6.343   6.331 -0.3387 -2.4907  0.4198
 1023MOL0     H41109   7.730   6.512   6.525 -0.5893 -0.2520 -0.2131
 1023MOL0     H41110   7.699   6.373   6.626 -0.3219  1.4603 -0.1692
 1023MOL0     H41111   7.929   6.419   6.655 -1.0642 -0.1884  2.1250
 1023MOL0     H41112   7.932   6.292   6.539 -1.5401 -0.1885 -1.5820
 1023MOL0     H41113   7.950   6.470   6.357 -0.8990  2.8877 -0.5561
 1023MOL0     H41114   7.962   6.600   6.475  0.9721 -0.4615  0.9590
 1023MOL0     H41115   8.184   6.515   6.392  1.4611 -1.1223  0.3142
 1023MOL0     H41116   8.145   6.361   6.464 -0.1772 -0.3509  3.0394
 1023MOL0     H41117   8.153   6.610   6.632  0.7750  0.6894 -1.3251
 1023MOL0     H41118   8.147   6.441   6.690 -1.2744 -1.1677 -1.1100
 1023MOL0     H41119   8.366   6.565   6.515  2.4822  2.3264  2.5044
 1023MOL0     H41120   8.375   6.401   6.577 -0.5297  0.2938 -0.0182
 1023MOL0     H41121   8.531   6.557   6.697  0.8837  1.6200  3.0678
 1023MOL0     H41122   8.392   6.658   6.739  0.8800 -0.4776  3.2058
 1023MOL0     H41123   8.243   6.595   6.949 -0.4788 -0.2202  0.2755
 1023MOL0     H41124   8.246   6.284   7.180 -0.1579 -1.8222 -1.6362
 1023MOL0     H41125   8.115   6.375   7.090 -0.7045  1.7404  4.8463
 1023MOL0     H41126   8.232   6.595   7.199 -2.0544 -0.1336  0.0971
 1023MOL0     H41127   8.132   6.501   7.293 -0.2322 -1.8844 -0.7973
 1023MOL0     H41128   8.336   6.551   7.420  0.7433  1.6760 -1.2515
 1023MOL0     H41129   8.332   6.391   7.410  1.2899 -1.3724 -2.6473
 1023MOL0     H41130   8.534   6.377   7.293  1.1763 -0.7871 -5.1671
 1023MOL0     H41131   8.476   6.486   7.166  0.0917 -1.5253 -1.2075
 1023MOL0     H41132   8.595   6.380   7.507 -0.6849 -0.3267  1.2394
 1023MOL0     H41133   8.711   6.279   7.663 -1.5631  2.2876  0.1068
 1023MOL0     H41134   8.741   6.374   7.817 -0.6028  2.6589 -0.1100
 1023MOL0     H41135   8.877   6.312   7.702  0.8804  3.9024 -2.1530
 1023MOL0     H41136   9.173   6.436   7.854  0.1275 -0.8949  1.1025
 1023MOL0     H41137   9.321   6.413   8.047 -0.4230 -0.4740  2.8787
 1023MOL0     H41138   9.474   6.465   8.200  2.7408  1.6793 -0.6723
 1023MOL0     H41139   9.450   6.641   8.192  3.0318 -0.8453 -0.8906
 1023MOL0     H41140   9.442   6.659   8.422 -0.7893  0.5305  0.4189
 1023MOL0     H41141   9.441   6.482   8.445  2.9773  0.4566  1.5432
 1023MOL0     H41142   9.666   6.642   8.302 -1.8680 -0.4674 -2.3434
 1023MOL0     H41143   9.677   6.471   8.353 -1.9321 -0.5879  0.3949
 1023MOL0     H41144   9.622   6.581   8.593 -0.9377  1.8884  0.7315
 1023MOL0     H41145   9.684   6.726   8.515 -0.3446 -0.1784 -0.1123
 1023MOL0     H41146   9.852   6.582   8.651  2.1335  0.5548 -0.4147
 1023MOL0     H41147   9.848   6.464   8.510  1.5614 -0.1460  0.1579
 1023MOL0     H41148   9.929   6.746   8.535  3.5969 -0.3235 -0.0509
 1023MOL0     H41149   9.915   6.676   8.375 -4.0947 -0.9254  0.8938
 1023MOL0     H41150  10.072   6.489   8.444 -0.0379  2.0334 -2.4929
 1023MOL0     H41151  10.101   6.571   8.613 -2.2136  4.5770  1.3070
 1023MOL0     H41152  10.202   6.740   8.554 -2.9418  0.8789  0.5764
 1023MOL0     H41153  10.176   6.721   8.382 -0.3544  0.9889  0.1784
 1023MOL0     H41154   9.076   6.667   8.264  0.1178 -1.6100  1.1251
 1023MOL0     H41155   8.884   6.667   8.084 -0.7541 -0.7705 -0.5663
 1023MOL0     H41156   8.891   6.763   7.567 -1.3094  1.8314  2.6615
 1023MOL0     H41157   8.711   6.767   7.381 -1.4164  1.9816  1.3507
 1023MOL0     H41158   7.644   5.963   6.549 -2.7505  2.6244  0.3103
 1023MOL0     H41159   7.593   5.763   6.429  0.8946  1.2953  2.7551
 1023MOL0     H41160   7.353   5.579   6.114 -1.7106  1.5235 -0.2102
 1023MOL0     H41161   7.243   5.398   6.016 -1.0037 -0.3132 -1.9366
 1023MOL0     H41162   7.121   5.171   5.767  1.1057  1.6418 -1.2287
 1023MOL0     H41163   7.167   5.222   5.922 -0.6600  1.4198  0.4438
 1023MOL0     H41164   7.075   5.463   5.868  0.9862  1.2701 -1.5129
 1023MOL0     H41165   6.965   5.320   5.871  1.4055 -0.2540  0.7784
 1023MOL0     H41166   6.938   5.338   5.621  1.1785  1.0716 -2.1448
 1023MOL0     H41167   6.905   5.473   5.720 -1.1110 -2.0675  0.0467
 1023MOL0     H41168   7.153   5.416   5.558  0.3638 -1.2961  3.7781
 1023MOL0     H41169   7.137   5.572   5.633  3.3537 -1.4952 -1.1773
 1023MOL0     H41170   6.820   5.613   5.341  0.2376  3.3750  0.2123
 1023MOL0     H41171   7.468   5.459   5.665 -2.2025 -1.7881  0.3308
 1023MOL0     H41172   7.615   5.652   5.629 -1.3297  0.1191  0.1478
 1023MOL0     H41173   7.585   5.777   5.752 -0.3607 -0.9383  3.1688
 1023MOL0     H41174   7.710   5.667   5.787  0.2589 -1.9137 -0.0598
 1024MOL0     O41175   1.560   1.681   9.265 -0.1535  0.4909  0.3391
 1024MOL0     C41176   1.591   1.674   9.381  1.0357 -0.7231 -0.5755
 1024MOL0     O41177   1.611   1.783   9.460 -0.0634  0.2326 -0.7179
 1024MOL0     C41178   1.608   1.903   9.391 -0.3127 -0.5212 -0.2482
 1024MOL0     C41179   1.691   1.941   9.280  0.3198 -0.2824  1.3519
 1024MOL0     C41180   1.687   2.078   9.231 -0.2151  0.8216 -0.2976
 1024MOL0     C41181   1.608   2.171   9.295  1.3277 -0.6196  0.4886
 1024MOL0     O41182   1.598   2.297   9.255  0.1604  0.0931 -0.1199
 1024MOL0     C41183   1.496   2.316   9.159 -0.0585  0.1685  0.7220
 1024MOL0     C41184   1.507   2.462   9.093 -0.0208 -0.4649 -0.1584
 1024MOL0     C41185   1.453   2.576   9.177  0.2474 -0.9709 -0.5973
 1024MOL0     C41186   1.305   2.593   9.179  0.3208  0.3234 -0.7186
 1024MOL0     C41187   1.251   2.732   9.232  0.7305  0.1848  0.1445
 1024MOL0     C41188   1.214   2.748   9.383 -0.6747  0.3449 -0.2367
 1024MOL0     C41189   1.338   2.809   9.459  0.2533 -0.0636 -0.7235
 1024MOL0     C41190   1.370   2.958   9.449 -0.1037 -0.7386  0.3609
 1024MOL0     N41191   1.440   2.987   9.322 -0.7748 -0.2583  0.4725
 1024MOL0     C41192   1.565   2.951   9.289 -0.3689 -0.1411  0.4368
 1024MOL0     C41193   1.602   3.029   9.183 -0.0369  0.0133 -0.9193
 1024MOL0     C41194   1.738   3.047   9.127 -0.4255 -0.4387 -0.7396
 1024MOL0     C41195   1.840   3.068   9.244 -0.0682 -0.2247  1.1852
 1024MOL0     C41196   1.841   3.206   9.303 -0.2821 -0.2171  0.2805
 1024MOL0     C41197   1.916   3.319   9.225  0.2864  0.6901 -0.5121
 1024MOL0     O41198   2.054   3.297   9.241  0.7590  0.3881 -0.4950
 1024MOL0     C41199   2.133   3.405   9.207 -0.8043  0.3079  0.8378
 1024MOL0     C41200   2.151   3.450   9.076 -0.4551  0.7160  0.8589
 1024MOL0     C41201   2.260   3.539   9.042  0.6979 -0.4089 -0.7669
 1024MOL0     C41202   2.268   3.573   8.900  0.0766  0.0253  0.0171
 1024MOL0     C41203   2.346   3.587   9.148  0.8467 -0.6180 -0.9615
 1024MOL0     C41204   2.459   3.682   9.137  0.5846 -0.5937  0.0562
 1024MOL0     O41205   2.534   3.677   9.020  0.6272 -0.1986 -0.4060
 1024MOL0     C41206   2.632   3.769   8.990  0.4989  0.6571 -0.0468
 1024MOL0     C41207   2.654   3.800   8.855 -0.7723 -0.0275  0.0654
 1024MOL0     C41208   2.754   3.886   8.816 -0.1213  1.3017  0.4601
 1024MOL0     C41209   2.837   3.940   8.915 -0.5691  0.5606  0.2392
 1024MOL0     O41210   2.954   4.009   8.884 -0.9613  0.1458  0.0783
 1024MOL0     C41211   3.020   3.987   8.756  0.9106  0.3897  0.4472
 1024MOL0     C41212   3.149   4.059   8.769 -0.4529 -0.0533  0.5476
 1024MOL0     C41213   3.241   4.001   8.869 -0.1358 -0.0489  0.6408
 1024MOL0     C41214   3.367   4.088   8.905  0.4672 -0.3211  0.1843
 1024MOL0     C41215   3.457   4.019   8.998  0.0426  0.6895 -0.8255
 1024MOL0     C41216   3.570   4.106   9.069  0.2655 -0.5432  0.3777
 1024MOL0     C41217   3.703   4.043   9.114  0.4380 -0.4772  0.1453
 1024MOL0     C41218   3.761   4.125   9.230 -0.8422 -0.4341  0.1838
 1024MOL0    Cl41219   3.809   4.286   9.166  0.1607 -0.5673  0.2597
 1024MOL0     C41220   2.825   3.901   9.049  0.2687  0.6404 -0.1102
 1024MOL0     C41221   2.720   3.822   9.091  0.5781  0.8116 -0.1715
 1024MOL0     O41222   2.464   3.778   9.217 -0.1928  0.5691 -0.7282
 1024MOL0     C41223   2.303   3.549   9.283  0.1906 -0.6653 -0.3473
 1024MOL0     C41224   2.211   3.456   9.307  0.6684  0.4760  0.1774
 1024MOL0     N41225   1.491   3.114   9.167 -0.5477 -0.8911  0.1271
 1024MOL0     N41226   1.391   3.080   9.244 -0.2740  0.9061  0.9764
 1024MOL0     C41227   1.529   2.132   9.403  0.0267  0.6198 -0.4984
 1024MOL0     C41228   1.534   2.001   9.457  0.4784 -0.1129  0.2021
 1024MOL0     C41229   1.623   1.532   9.441  0.1245 -0.4090 -0.5299
 1024MOL0     C41230   1.615   1.419   9.356 -0.5323 -1.1229 -0.3660
 1024MOL0     C41231   1.628   1.287   9.397 -0.0672  0.5008  0.1253
 1024MOL0     C41232   1.652   1.257   9.529  0.3851 -0.6009  0.2891
 1024MOL0     O41233   1.650   1.127   9.560 -0.0060 -0.2063 -0.7271
 1024MOL0     C41234   1.513   1.082   9.583  0.2942 -0.7331  0.5592
 1024MOL0     C41235   1.483   0.960   9.502  0.2085  0.5304 -0.0118
 1024MOL0     C41236   1.356   0.886   9.546  0.5379 -0.4750 -0.3972
 1024MOL0     C41237   1.250   0.893   9.437  0.0157 -0.2756 -1.0540
 1024MOL0     C41238   1.155   0.780   9.452 -0.1453  0.3617 -0.0581
 1024MOL0     C41239   1.068   0.695   9.467 -0.5391  0.3360 -0.2897
 1024MOL0     C41240   1.665   1.362   9.620 -1.1243  0.5812 -0.2385
 1024MOL0     C41241   1.635   1.494   9.582  0.1142 -0.5661 -0.9223
 1024MOL0     C41242   1.629   1.611   9.689 -0.5166 -0.3730  0.3147
 1024MOL0     H41243   1.760   1.870   9.236  2.3697  2.4514 -0.1615
 1024MOL0     H41244   1.762   2.116   9.162  1.7445 -0.2905  1.0840
 1024MOL0     H41245   1.396   2.288   9.194 -1.6761  1.4416 -2.4538
 1024MOL0     H41246   1.537   2.252   9.081  1.3429  0.0429  1.5448
 1024MOL0     H41247   1.609   2.480   9.058  0.3492 -1.0492  0.5944
 1024MOL0     H41248   1.452   2.462   8.998  1.2596  1.3208 -0.9552
 1024MOL0     H41249   1.488   2.575   9.281 -1.0384 -0.4416 -0.1503
 1024MOL0     H41250   1.492   2.668   9.133  2.0969 -0.8127  1.2188
 1024MOL0     H41251   1.276   2.581   9.074 -2.0138 -0.8739 -0.0044
 1024MOL0     H41252   1.263   2.510   9.237 -1.4507  0.2073 -2.0660
 1024MOL0     H41253   1.156   2.746   9.180  0.3780  1.1958  1.0195
 1024MOL0     H41254   1.314   2.811   9.191  0.7127  0.5474  0.7997
 1024MOL0     H41255   1.125   2.808   9.403 -1.3003 -0.3756 -0.7821
 1024MOL0     H41256   1.188   2.648   9.420  1.4131 -0.3645 -0.5885
 1024MOL0     H41257   1.431   2.758   9.432  0.7681  1.5015 -2.0957
 1024MOL0     H41258   1.313   2.790   9.563  0.0477 -4.2037 -1.3632
 1024MOL0     H41259   1.283   3.022   9.467 -0.3549 -1.1066  0.4572
 1024MOL0     H41260   1.436   2.997   9.528  1.4115 -1.1336 -0.6562
 1024MOL0     H41261   1.641   2.893   9.340 -1.2640 -1.3726  0.3930
 1024MOL0     H41262   1.738   3.127   9.052 -1.4537 -0.4095 -0.7250
 1024MOL0     H41263   1.759   2.947   9.088  1.1950 -0.4119  0.0260
 1024MOL0     H41264   1.817   3.003   9.328  2.3055  0.6091  2.5758
 1024MOL0     H41265   1.935   3.046   9.196 -1.4230  0.8928 -2.3342
 1024MOL0     H41266   1.738   3.234   9.327 -0.6109  0.0815 -1.4139
 1024MOL0     H41267   1.896   3.193   9.397 -0.8173 -1.8675  0.4079
 1024MOL0     H41268   1.887   3.323   9.120 -3.1893  1.9336  0.3681
 1024MOL0     H41269   1.885   3.418   9.258 -1.2993 -0.4120  1.5120
 1024MOL0     H41270   2.096   3.394   9.001 -1.2590 -1.2036  2.7736
 1024MOL0     H41271   2.173   3.592   8.851  0.0592  2.1841  0.7781
 1024MOL0     H41272   2.313   3.493   8.840  1.5821  1.7761 -1.3254
 1024MOL0     H41273   2.341   3.654   8.893  1.4514 -0.7107  3.5229
 1024MOL0     H41274   2.594   3.759   8.774 -0.4651 -1.4579  0.5409
 1024MOL0     H41275   2.741   3.910   8.711  0.4612  1.8773  0.5112
 1024MOL0     H41276   3.030   3.881   8.730 -0.7469 -0.1716  1.9161
 1024MOL0     H41277   2.965   4.040   8.677  1.2333 -1.2800 -0.9576
 1024MOL0     H41278   3.211   4.045   8.680  1.0410 -1.8656  1.8052
 1024MOL0     H41279   3.132   4.165   8.791 -0.8474  0.1272 -0.5628
 1024MOL0     H41280   3.287   3.914   8.820 -0.7934  0.8738 -1.7460
 1024MOL0     H41281   3.188   3.970   8.959  0.3531 -0.4293  0.8040
 1024MOL0     H41282   3.330   4.173   8.962 -1.6700 -2.0588  1.5503
 1024MOL0     H41283   3.423   4.109   8.813  0.5107  0.4151  0.3780
 1024MOL0     H41284   3.401   3.983   9.085  0.5343 -1.5291 -1.3772
 1024MOL0     H41285   3.504   3.933   8.950 -1.6508 -0.7236 -0.0571
 1024MOL0     H41286   3.518   4.154   9.152 -0.7688 -1.9122  0.5702
 1024MOL0     H41287   3.596   4.186   9.000  1.1325  0.1093  1.4413
 1024MOL0     H41288   3.778   4.033   9.036 -0.0899  0.5016 -0.5132
 1024MOL0     H41289   3.675   3.943   9.149 -0.2937 -1.6810 -3.4340
 1024MOL0     H41290   3.841   4.062   9.269 -1.3536 -1.5099 -0.4312
 1024MOL0     H41291   3.685   4.143   9.306 -2.1980 -1.6124 -0.8165
 1024MOL0     H41292   2.906   3.934   9.114 -0.9791  3.8067  0.0165
 1024MOL0     H41293   2.710   3.791   9.194  0.2157  0.1253 -0.4017
 1024MOL0     H41294   2.364   3.583   9.367 -2.3824 -0.9475  1.7710
 1024MOL0     H41295   2.183   3.421   9.405  0.4695 -3.1696 -1.0411
 1024MOL0     H41296   1.453   2.194   9.449 -0.7494 -0.9134  0.3671
 1024MOL0     H41297   1.478   1.971   9.545 -0.0653 -0.4428 -0.2490
 1024MOL0     H41298   1.585   1.450   9.256  0.1670  2.3156  0.3634
 1024MOL0     H41299   1.617   1.212   9.319  0.1500  1.1857 -0.5777
 1024MOL0     H41300   1.494   1.051   9.686 -1.1377  0.2646  0.6195
 1024MOL0     H41301   1.452   1.167   9.551  1.5161  1.0317  2.6323
 1024MOL0     H41302   1.570   0.894   9.508 -0.9111 -1.2985 -2.3553
 1024MOL0     H41303   1.461   0.990   9.399 -1.1873 -0.3266  0.0124
 1024MOL0     H41304   1.378   0.780   9.561 -1.8048 -1.4236 -2.8454
 1024MOL0     H41305   1.319   0.928   9.640  0.0735 -3.9407  1.1112
 1024MOL0     H41306   1.290   0.885   9.336  0.5526 -2.0619 -0.7304
 1024MOL0     H41307   1.195   0.987   9.449 -0.6933 -0.7814 -0.1797
 1024MOL0     H41308   0.989   0.626   9.488  0.2585  0.6472  5.1712
 1024MOL0     H41309   1.679   1.330   9.723 -2.1370 -2.2733 -0.8881
 1024MOL0     H41310   1.714   1.671   9.657 -0.4885  0.1381  1.3151
 1024MOL0     H41311   1.532   1.660   9.677 -0.9063 -0.9315  1.0874
 1024MOL0     H41312   1.637   1.582   9.794  0.7610  3.2001  1.3413
  11.44907  11.44907  11.44907
